# Force coefficients
# liftDir     : (9.563047e-01 -2.923719e-01 0.000000e+00)
# dragDir     : (2.923719e-01 9.563047e-01 0.000000e+00)
# pitchAxis   : (0.000000e+00 0.000000e+00 -1.000000e+00)
# magUInf     : 1.562000e+01
# lRef        : 1.000000e+00
# Aref        : 1.000000e+00
# CofR        : (2.500000e-01 0.000000e+00 0.000000e+00)
# Time        	Cm            	Cd            	Cl            	Cl(f)         	Cl(r)         
1             	-1.771900e-01	1.277504e+00	-2.126547e-01	-2.835174e-01	7.086266e-02
2             	-2.511614e-01	1.198808e+00	-9.227310e-02	-2.972979e-01	2.050248e-01
3             	-2.641173e-01	1.393380e+00	-1.837611e-01	-3.559979e-01	1.722368e-01
4             	-2.178847e-01	1.731232e+00	-3.318007e-01	-3.837850e-01	5.198439e-02
5             	-1.211511e-01	1.865061e+00	-4.366593e-01	-3.394808e-01	-9.717851e-02
6             	-5.613581e-02	1.994670e+00	-5.963032e-01	-3.542874e-01	-2.420158e-01
7             	-8.183683e-03	1.969221e+00	-7.361668e-01	-3.762671e-01	-3.598997e-01
8             	4.285965e-02	1.869490e+00	-8.186711e-01	-3.664759e-01	-4.521952e-01
9             	8.220847e-02	1.697639e+00	-8.270326e-01	-3.313078e-01	-4.957248e-01
10            	8.461503e-02	1.613163e+00	-8.166264e-01	-3.236981e-01	-4.929282e-01
11            	7.510160e-02	1.563014e+00	-7.957125e-01	-3.227546e-01	-4.729578e-01
12            	5.268588e-02	1.537682e+00	-7.682535e-01	-3.314409e-01	-4.368126e-01
13            	2.525875e-02	1.556470e+00	-7.428313e-01	-3.461569e-01	-3.966744e-01
14            	-5.175884e-03	1.604143e+00	-7.294084e-01	-3.698801e-01	-3.595283e-01
15            	-2.821967e-02	1.678642e+00	-7.184605e-01	-3.874499e-01	-3.310106e-01
16            	-5.064107e-02	1.759933e+00	-7.082746e-01	-4.047784e-01	-3.034963e-01
17            	-7.134293e-02	1.833814e+00	-6.976717e-01	-4.201788e-01	-2.774929e-01
18            	-9.538235e-02	1.910494e+00	-6.869126e-01	-4.388387e-01	-2.480740e-01
19            	-1.240541e-01	1.965173e+00	-6.679772e-01	-4.580427e-01	-2.099345e-01
20            	-1.586882e-01	2.003053e+00	-6.439535e-01	-4.806649e-01	-1.632885e-01
21            	-1.977677e-01	2.021112e+00	-6.147915e-01	-5.051634e-01	-1.096281e-01
22            	-2.407783e-01	2.016757e+00	-5.779931e-01	-5.297748e-01	-4.821828e-02
23            	-2.850033e-01	2.000901e+00	-5.423085e-01	-5.561576e-01	1.384902e-02
24            	-3.264236e-01	1.977171e+00	-5.074510e-01	-5.801491e-01	7.269812e-02
25            	-3.648341e-01	1.936042e+00	-4.726318e-01	-6.011501e-01	1.285182e-01
26            	-3.970200e-01	1.878898e+00	-4.405041e-01	-6.172721e-01	1.767680e-01
27            	-4.218696e-01	1.783956e+00	-4.018398e-01	-6.227895e-01	2.209497e-01
28            	-4.325349e-01	1.648784e+00	-3.545365e-01	-6.098032e-01	2.552667e-01
29            	-4.248229e-01	1.470720e+00	-2.964705e-01	-5.730581e-01	2.765876e-01
30            	-3.941855e-01	1.262953e+00	-2.335404e-01	-5.109557e-01	2.774153e-01
31            	-3.342625e-01	1.002667e+00	-1.592143e-01	-4.138696e-01	2.546553e-01
32            	-2.615365e-01	7.501439e-01	-9.003300e-02	-3.065530e-01	2.165200e-01
33            	-1.651343e-01	4.606106e-01	-1.287228e-02	-1.715704e-01	1.586982e-01
34            	-6.664562e-02	2.029822e-01	5.292094e-02	-4.018515e-02	9.310609e-02
35            	2.276575e-02	2.823743e-03	9.986234e-02	7.269692e-02	2.716542e-02
36            	1.049129e-01	-1.718731e-01	1.381328e-01	1.739793e-01	-3.584653e-02
37            	1.536857e-01	-2.641643e-01	1.541563e-01	2.307639e-01	-7.660757e-02
38            	1.693056e-01	-3.032978e-01	1.586328e-01	2.486219e-01	-8.998918e-02
39            	1.332123e-01	-2.208958e-01	1.344577e-01	2.004411e-01	-6.598341e-02
40            	9.052176e-02	-1.178015e-01	1.048647e-01	1.429541e-01	-3.808941e-02
41            	5.584512e-02	-2.383453e-02	7.532000e-02	9.350512e-02	-1.818512e-02
42            	1.720672e-02	1.094571e-01	3.136841e-02	3.289092e-02	-1.522517e-03
43            	-1.551959e-02	2.505248e-01	-1.817157e-02	-2.460538e-02	6.433806e-03
44            	-3.364161e-02	3.638752e-01	-6.236123e-02	-6.482223e-02	2.461000e-03
45            	-4.106935e-02	4.527639e-01	-1.010242e-01	-9.158146e-02	-9.442765e-03
46            	-4.561697e-02	5.357919e-01	-1.390531e-01	-1.151435e-01	-2.390959e-02
47            	-4.396005e-02	5.937492e-01	-1.697447e-01	-1.288324e-01	-4.091228e-02
48            	-4.412183e-02	6.467863e-01	-1.982057e-01	-1.432247e-01	-5.498103e-02
49            	-4.366411e-02	6.829140e-01	-2.199985e-01	-1.536634e-01	-6.633514e-02
50            	-4.756773e-02	7.131564e-01	-2.370278e-01	-1.660816e-01	-7.094618e-02
51            	-6.245229e-02	7.596204e-01	-2.557652e-01	-1.903349e-01	-6.543032e-02
52            	-8.387173e-02	8.169312e-01	-2.751935e-01	-2.214685e-01	-5.372500e-02
53            	-1.057180e-01	8.745917e-01	-2.932150e-01	-2.523255e-01	-4.088951e-02
54            	-1.253688e-01	9.257887e-01	-3.088875e-01	-2.798125e-01	-2.907497e-02
55            	-1.411715e-01	9.657014e-01	-3.208293e-01	-3.015861e-01	-1.924311e-02
56            	-1.527839e-01	9.965909e-01	-3.297027e-01	-3.176353e-01	-1.206745e-02
57            	-1.565881e-01	1.011809e+00	-3.339853e-01	-3.235807e-01	-1.040460e-02
58            	-1.523203e-01	1.012712e+00	-3.341688e-01	-3.194047e-01	-1.476414e-02
59            	-1.375217e-01	9.940248e-01	-3.288049e-01	-3.019241e-01	-2.688078e-02
60            	-1.137700e-01	9.601184e-01	-3.191735e-01	-2.733568e-01	-4.581674e-02
61            	-8.287558e-02	9.138918e-01	-3.060732e-01	-2.359122e-01	-7.016101e-02
62            	-4.755879e-02	8.591394e-01	-2.906414e-01	-1.928795e-01	-9.776191e-02
63            	-9.651525e-03	7.990123e-01	-2.734480e-01	-1.463755e-01	-1.270725e-01
64            	2.757337e-02	7.395780e-01	-2.556248e-01	-1.002390e-01	-1.553858e-01
65            	6.089418e-02	6.893240e-01	-2.400309e-01	-5.912128e-02	-1.809096e-01
66            	8.483995e-02	6.578029e-01	-2.291568e-01	-2.973845e-02	-1.994183e-01
67            	9.680045e-02	6.466988e-01	-2.233628e-01	-1.488092e-02	-2.084818e-01
68            	9.345838e-02	6.630010e-01	-2.242763e-01	-1.867978e-02	-2.055965e-01
69            	7.543510e-02	7.024988e-01	-2.304437e-01	-3.978674e-02	-1.906569e-01
70            	3.815423e-02	7.808643e-01	-2.461673e-01	-8.492940e-02	-1.612379e-01
71            	-3.247105e-04	8.614292e-01	-2.638542e-01	-1.322518e-01	-1.316024e-01
72            	-4.188988e-02	9.461669e-01	-2.834137e-01	-1.835967e-01	-9.981695e-02
73            	-7.899009e-02	1.018038e+00	-3.012977e-01	-2.296389e-01	-7.165878e-02
74            	-1.163243e-01	1.083373e+00	-3.180846e-01	-2.753666e-01	-4.271804e-02
75            	-1.535967e-01	1.142446e+00	-3.326499e-01	-3.199216e-01	-1.272829e-02
76            	-1.884694e-01	1.185198e+00	-3.400511e-01	-3.584950e-01	1.844387e-02
77            	-2.231581e-01	1.220649e+00	-3.445579e-01	-3.954371e-01	5.087922e-02
78            	-2.474651e-01	1.225144e+00	-3.408888e-01	-4.179095e-01	7.702067e-02
79            	-2.619185e-01	1.205559e+00	-3.303485e-01	-4.270928e-01	9.674429e-02
80            	-2.618697e-01	1.154970e+00	-3.118411e-01	-4.177902e-01	1.059491e-01
81            	-2.513222e-01	1.086121e+00	-2.878544e-01	-3.952494e-01	1.073950e-01
82            	-2.283568e-01	9.978261e-01	-2.585198e-01	-3.576167e-01	9.909696e-02
83            	-1.921278e-01	8.913337e-01	-2.251951e-01	-3.047254e-01	7.953027e-02
84            	-1.469609e-01	7.742010e-01	-1.896015e-01	-2.417617e-01	5.216017e-02
85            	-9.569719e-02	6.523505e-01	-1.535507e-01	-1.724725e-01	1.892183e-02
86            	-4.232715e-02	5.321943e-01	-1.189318e-01	-1.017930e-01	-1.713875e-02
87            	7.526769e-03	4.274431e-01	-8.971114e-02	-3.732880e-02	-5.238234e-02
88            	4.891527e-02	3.436030e-01	-6.726008e-02	1.528524e-02	-8.254531e-02
89            	7.723342e-02	2.820384e-01	-5.188704e-02	5.128990e-02	-1.031769e-01
90            	8.325176e-02	2.653768e-01	-4.775178e-02	5.937587e-02	-1.071277e-01
91            	8.211005e-02	2.594403e-01	-4.686786e-02	5.867612e-02	-1.055440e-01
92            	5.925954e-02	3.113434e-01	-6.110725e-02	2.870591e-02	-8.981316e-02
93            	3.353349e-02	3.773458e-01	-8.043083e-02	-6.681923e-03	-7.374891e-02
94            	7.557960e-03	4.535148e-01	-1.044265e-01	-4.465527e-02	-5.977119e-02
95            	-2.177292e-02	5.498827e-01	-1.356550e-01	-8.960042e-02	-4.605457e-02
96            	-4.577983e-02	6.345326e-01	-1.652779e-01	-1.284188e-01	-3.685914e-02
97            	-7.057034e-02	7.198612e-01	-1.959478e-01	-1.685443e-01	-2.740357e-02
98            	-9.720276e-02	8.029411e-01	-2.261318e-01	-2.102687e-01	-1.586313e-02
99            	-1.221621e-01	8.719362e-01	-2.513589e-01	-2.478416e-01	-3.517299e-03
100           	-1.469363e-01	9.285842e-01	-2.708062e-01	-2.823393e-01	1.153316e-02
101           	-1.701616e-01	9.737736e-01	-2.857606e-01	-3.130419e-01	2.728135e-02
102           	-1.861816e-01	9.985295e-01	-2.941208e-01	-3.332420e-01	3.912117e-02
103           	-1.963793e-01	1.005881e+00	-2.966918e-01	-3.447252e-01	4.803333e-02
104           	-1.987239e-01	9.950533e-01	-2.937564e-01	-3.456021e-01	5.184574e-02
105           	-1.906474e-01	9.636201e-01	-2.847777e-01	-3.330363e-01	4.825859e-02
106           	-1.698898e-01	9.106566e-01	-2.698897e-01	-3.048347e-01	3.494499e-02
107           	-1.368365e-01	8.392285e-01	-2.499526e-01	-2.618128e-01	1.186023e-02
108           	-9.475502e-02	7.563631e-01	-2.270475e-01	-2.082788e-01	-1.876875e-02
109           	-4.689329e-02	6.684827e-01	-2.031300e-01	-1.484583e-01	-5.467170e-02
110           	2.482982e-03	5.840778e-01	-1.804908e-01	-8.776241e-02	-9.272838e-02
111           	4.858160e-02	5.101734e-01	-1.610268e-01	-3.193182e-02	-1.290950e-01
112           	8.639780e-02	4.553649e-01	-1.470587e-01	1.286845e-02	-1.599271e-01
113           	1.119595e-01	4.246218e-01	-1.398405e-01	4.203927e-02	-1.818798e-01
114           	1.221265e-01	4.241560e-01	-1.407543e-01	5.174938e-02	-1.925036e-01
115           	1.181736e-01	4.513062e-01	-1.493630e-01	4.349217e-02	-1.928551e-01
116           	9.997745e-02	5.065478e-01	-1.652763e-01	1.733930e-02	-1.826156e-01
117           	7.326401e-02	5.792275e-01	-1.862552e-01	-1.986361e-02	-1.663916e-01
118           	4.119236e-02	6.635498e-01	-2.108126e-01	-6.421395e-02	-1.465987e-01
119           	1.004870e-02	7.455886e-01	-2.358058e-01	-1.078542e-01	-1.279516e-01
120           	-1.929262e-02	8.225733e-01	-2.602429e-01	-1.494141e-01	-1.108288e-01
121           	-4.727100e-02	8.926900e-01	-2.831108e-01	-1.888264e-01	-9.428439e-02
122           	-7.552449e-02	9.561424e-01	-3.026906e-01	-2.268698e-01	-7.582081e-02
123           	-1.047623e-01	1.015013e+00	-3.191558e-01	-2.643402e-01	-5.481565e-02
124           	-1.331415e-01	1.066401e+00	-3.319980e-01	-2.991405e-01	-3.285755e-02
125           	-1.585523e-01	1.105333e+00	-3.405569e-01	-3.288307e-01	-1.172621e-02
126           	-1.798699e-01	1.129390e+00	-3.446141e-01	-3.521770e-01	7.562874e-03
127           	-1.975962e-01	1.141203e+00	-3.449088e-01	-3.700506e-01	2.514178e-02
128           	-2.104255e-01	1.140438e+00	-3.414839e-01	-3.811674e-01	3.968353e-02
129           	-2.150959e-01	1.122738e+00	-3.334517e-01	-3.818218e-01	4.837005e-02
130           	-2.096283e-01	1.087115e+00	-3.207221e-01	-3.699893e-01	4.926722e-02
131           	-1.927482e-01	1.033472e+00	-3.035358e-01	-3.445161e-01	4.098032e-02
132           	-1.627780e-01	9.610766e-01	-2.822434e-01	-3.038997e-01	2.165634e-02
133           	-1.217699e-01	8.740705e-01	-2.578389e-01	-2.506894e-01	-7.149568e-03
134           	-7.374250e-02	7.805457e-01	-2.326738e-01	-1.900794e-01	-4.259439e-02
