/*--------------------------------*- C++ -*----------------------------------*\
  =========                 |
  \\      /  F ield         | OpenFOAM: The Open Source CFD Toolbox
   \\    /   O peration     | Website:  https://openfoam.org
    \\  /    A nd           | Version:  7
     \\/     M anipulation  |
\*---------------------------------------------------------------------------*/
FoamFile
{
    version     2.0;
    format      ascii;
    class       volSymmTensorField;
    location    "1700";
    object      devReff;
}
// * * * * * * * * * * * * * * * * * * * * * * * * * * * * * * * * * * * * * //

dimensions      [0 2 -2 0 0 0 0];

internalField   nonuniform List<symmTensor> 
180
(
(6.02103e-22 -0.00841949 -0 -1.20421e-21 -0 6.02103e-22)
(2.0289e-21 -0.00841943 -0 -4.05779e-21 -0 2.0289e-21)
(-5.36114e-21 -0.0104258 -0 1.07223e-20 -0 -5.36114e-21)
(4.89603e-22 -0.0104258 -0 -9.79206e-22 -0 4.89603e-22)
(2.08007e-21 -0.00994805 -0 -4.16013e-21 -0 2.08007e-21)
(1.26219e-21 -0.009948 -0 -2.52438e-21 -0 1.26219e-21)
(2.84619e-21 -0.00952131 -0 -5.69239e-21 -0 2.84619e-21)
(-2.18803e-22 -0.00952125 -0 4.37606e-22 -0 -2.18803e-22)
(7.57204e-22 -0.0092877 -0 -1.51441e-21 -0 7.57204e-22)
(-3.99314e-22 -0.00928764 -0 7.98629e-22 -0 -3.99314e-22)
(1.86153e-21 -0.00910183 -0 -3.72307e-21 -0 1.86153e-21)
(-1.02289e-21 -0.00910177 -0 2.04578e-21 -0 -1.02289e-21)
(5.51948e-21 -0.00893756 -0 -1.1039e-20 -0 5.51948e-21)
(-2.27708e-21 -0.0089375 -0 4.55416e-21 -0 -2.27708e-21)
(2.34621e-21 -0.00878397 -0 -4.69241e-21 -0 2.34621e-21)
(-2.43397e-21 -0.00878391 -0 4.86794e-21 -0 -2.43397e-21)
(-1.2332e-21 -0.00863592 -0 2.46639e-21 -0 -1.2332e-21)
(1.36365e-20 -0.00863586 -0 -2.7273e-20 -0 1.36365e-20)
(-4.43741e-21 -0.00849083 -0 8.87483e-21 -0 -4.43741e-21)
(3.08969e-20 -0.00849076 -0 -6.17937e-20 -0 3.08969e-20)
(-9.5074e-21 -0.00834729 -0 1.90148e-20 -0 -9.5074e-21)
(1.02381e-20 -0.00834722 -0 -2.04762e-20 -0 1.02381e-20)
(-5.2211e-21 -0.00820454 -0 1.04422e-20 -0 -5.2211e-21)
(-1.18087e-20 -0.00820447 -0 2.36173e-20 -0 -1.18087e-20)
(1.90365e-20 -0.00806215 -0 -3.8073e-20 -0 1.90365e-20)
(-2.98438e-20 -0.00806208 -0 5.96875e-20 -0 -2.98438e-20)
(5.83241e-20 -0.00791987 -0 -1.16648e-19 -0 5.83241e-20)
(-4.29671e-20 -0.0079198 -0 8.59342e-20 -0 -4.29671e-20)
(-1.98279e-19 -0.00777759 -0 2.94857e-20 -0 1.68793e-19)
(2.2434e-19 -0.00777752 -0 -8.16137e-20 -0 -1.42726e-19)
(-1.36818e-20 -0.00763524 -0 2.73637e-20 -0 -1.36818e-20)
(-6.2089e-21 -0.00763517 -0 1.24178e-20 -0 -6.2089e-21)
(-3.59538e-20 -0.00749284 -0 7.19077e-20 -0 -3.59538e-20)
(-8.81784e-21 -0.00749277 -0 1.76357e-20 -0 -8.81784e-21)
(-2.4086e-20 -0.00735041 -0 4.81721e-20 -0 -2.4086e-20)
(-6.79045e-21 -0.00735033 -0 1.35809e-20 -0 -6.79045e-21)
(-1.32876e-20 -0.00720799 -0 2.65752e-20 -0 -1.32876e-20)
(-6.5293e-21 -0.00720791 -0 1.30586e-20 -0 -6.5293e-21)
(-3.41745e-21 -0.00706565 -0 6.8349e-21 -0 -3.41745e-21)
(-6.47267e-21 -0.00706558 -0 1.29453e-20 -0 -6.47267e-21)
(8.25877e-21 -0.00692346 -0 -1.65175e-20 -0 8.25877e-21)
(-7.44697e-21 -0.00692339 -0 1.48939e-20 -0 -7.44697e-21)
(1.9126e-20 -0.00678151 -0 -3.82519e-20 -0 1.9126e-20)
(-1.00296e-20 -0.00678144 -0 2.00591e-20 -0 -1.00296e-20)
(2.54905e-20 -0.00663987 -0 -5.0981e-20 -0 2.54905e-20)
(-1.31361e-20 -0.0066398 -0 2.62723e-20 -0 -1.31361e-20)
(3.109e-20 -0.00649863 -0 -6.218e-20 -0 3.109e-20)
(-1.71629e-20 -0.00649856 -0 3.43258e-20 -0 -1.71629e-20)
(1.84361e-20 -0.00635788 -0 -3.68723e-20 -0 1.84361e-20)
(-2.15461e-20 -0.00635781 -0 4.30922e-20 -0 -2.15461e-20)
(-1.42347e-20 -0.00621769 -0 2.84694e-20 -0 -1.42347e-20)
(-2.61671e-20 -0.00621762 -0 5.23342e-20 -0 -2.61671e-20)
(-2.64382e-20 -0.00607816 -0 5.28763e-20 -0 -2.64382e-20)
(-3.27929e-20 -0.00607809 -0 6.55858e-20 -0 -3.27929e-20)
(-1.85592e-20 -0.00593936 -0 3.71184e-20 -0 -1.85592e-20)
(-1.92328e-20 -0.00593929 -0 3.84657e-20 -0 -1.92328e-20)
(-1.23454e-20 -0.00580137 -0 2.46908e-20 -0 -1.23454e-20)
(1.75666e-20 -0.0058013 -0 -3.51331e-20 -0 1.75666e-20)
(-6.07039e-21 -0.00566426 -0 1.21408e-20 -0 -6.07039e-21)
(3.21945e-20 -0.0056642 -0 -6.43889e-20 -0 3.21945e-20)
(6.4042e-22 -0.00552811 -0 -1.28084e-21 -0 6.4042e-22)
(2.48271e-20 -0.00552805 -0 -4.96542e-20 -0 2.48271e-20)
(7.1828e-21 -0.00539298 -0 -1.43656e-20 -0 7.1828e-21)
(1.89707e-20 -0.00539292 -0 -3.79414e-20 -0 1.89707e-20)
(1.35302e-20 -0.00525894 -0 -2.70603e-20 -0 1.35302e-20)
(1.25228e-20 -0.00525888 -0 -2.50456e-20 -0 1.25228e-20)
(2.16811e-20 -0.00512603 -0 -4.33622e-20 -0 2.16811e-20)
(5.98978e-21 -0.00512598 -0 -1.19796e-20 -0 5.98978e-21)
(2.90616e-21 -0.00499433 -0 -5.81232e-21 -0 2.90616e-21)
(-1.83091e-22 -0.00499427 -0 3.66182e-22 -0 -1.83091e-22)
(-4.59549e-20 -0.00486386 -0 9.19097e-20 -0 -4.59549e-20)
(-6.49611e-21 -0.00486381 -0 1.29922e-20 -0 -6.49611e-21)
(-6.61398e-20 -0.00473469 -0 1.3228e-19 -0 -6.61398e-20)
(-1.27785e-20 -0.00473464 -0 2.55569e-20 -0 -1.27785e-20)
(-5.87393e-20 -0.00460684 -0 1.17479e-19 -0 -5.87393e-20)
(-1.89876e-20 -0.0046068 -0 3.79752e-20 -0 -1.89876e-20)
(-5.31007e-20 -0.00448036 -0 1.06201e-19 -0 -5.31007e-20)
(-2.51972e-20 -0.00448031 -0 5.03943e-20 -0 -2.51972e-20)
(-4.76183e-20 -0.00435526 -0 9.52367e-20 -0 -4.76183e-20)
(-3.13525e-20 -0.00435522 -0 6.2705e-20 -0 -3.13525e-20)
(-4.21717e-20 -0.00423158 -0 8.43435e-20 -0 -4.21717e-20)
(-4.00283e-20 -0.00423155 -0 8.00566e-20 -0 -4.00283e-20)
(-3.66534e-20 -0.00410934 -0 7.33068e-20 -0 -3.66534e-20)
(-1.52258e-20 -0.00410931 -0 3.04517e-20 -0 -1.52258e-20)
(-3.17788e-20 -0.00398856 -0 6.35576e-20 -0 -3.17788e-20)
(4.63292e-20 -0.00398853 -0 -9.26583e-20 -0 4.63292e-20)
(-2.68256e-20 -0.00386924 -0 5.36512e-20 -0 -2.68256e-20)
(7.18304e-20 -0.00386921 -0 -1.43661e-19 -0 7.18304e-20)
(-2.17801e-20 -0.0037514 -0 4.35603e-20 -0 -2.17801e-20)
(6.33836e-20 -0.00375137 -0 -1.26767e-19 -0 6.33836e-20)
(-1.76591e-20 -0.00363503 -0 3.53182e-20 -0 -1.76591e-20)
(5.7727e-20 -0.003635 -0 -1.15454e-19 -0 5.7727e-20)
(-1.40252e-20 -0.00352014 -0 2.80504e-20 -0 -1.40252e-20)
(5.22797e-20 -0.00352012 -0 -1.04559e-19 -0 5.22797e-20)
(-1.04201e-20 -0.00340673 -0 2.08403e-20 -0 -1.04201e-20)
(4.67951e-20 -0.00340671 -0 -9.35902e-20 -0 4.67951e-20)
(-7.09688e-21 -0.00329479 -0 1.41938e-20 -0 -7.09688e-21)
(4.15292e-20 -0.00329477 -0 -8.30585e-20 -0 4.15292e-20)
(-4.23812e-21 -0.00318432 -0 8.47625e-21 -0 -4.23812e-21)
(3.65279e-20 -0.0031843 -0 -7.30558e-20 -0 3.65279e-20)
(-1.82378e-21 -0.00307529 -0 3.64755e-21 -0 -1.82378e-21)
(3.1589e-20 -0.00307527 -0 -6.31779e-20 -0 3.1589e-20)
(4.01087e-22 -0.00296769 -0 -8.02174e-22 -0 4.01087e-22)
(2.67527e-20 -0.00296767 -0 -5.35055e-20 -0 2.67527e-20)
(2.21927e-21 -0.00286151 -0 -4.43855e-21 -0 2.21927e-21)
(2.22713e-20 -0.00286149 -0 -4.45427e-20 -0 2.22713e-20)
(3.68906e-21 -0.00275672 -0 -7.37813e-21 -0 3.68906e-21)
(1.81274e-20 -0.00275671 -0 -3.62548e-20 -0 1.81274e-20)
(4.84629e-21 -0.00265331 -0 -9.69258e-21 -0 4.84629e-21)
(1.43289e-20 -0.0026533 -0 -2.86577e-20 -0 1.43289e-20)
(5.996e-21 -0.00255124 -0 -1.1992e-20 -0 5.996e-21)
(1.09477e-20 -0.00255123 -0 -2.18954e-20 -0 1.09477e-20)
(6.92714e-21 -0.0024505 -0 -1.38543e-20 -0 6.92714e-21)
(7.46999e-21 -0.00245049 -0 -1.494e-20 -0 7.46999e-21)
(7.63933e-21 -0.00235105 -0 -1.52787e-20 -0 7.63933e-21)
(4.38734e-21 -0.00235103 -0 -8.77467e-21 -0 4.38734e-21)
(8.45572e-21 -0.00225285 -0 -1.69114e-20 -0 8.45572e-21)
(1.91394e-21 -0.00225284 -0 -3.82788e-21 -0 1.91394e-21)
(8.90381e-21 -0.00215589 -0 -1.78076e-20 -0 8.90381e-21)
(-4.8691e-22 -0.00215588 -0 9.7382e-22 -0 -4.8691e-22)
(9.25268e-21 -0.00206013 -0 -1.85054e-20 -0 9.25268e-21)
(-2.80073e-21 -0.00206012 -0 5.60146e-21 -0 -2.80073e-21)
(9.78962e-21 -0.00196553 -0 -1.95792e-20 -0 9.78962e-21)
(-4.7872e-21 -0.00196552 -0 9.57441e-21 -0 -4.7872e-21)
(1.02435e-20 -0.00187206 -0 -2.0487e-20 -0 1.02435e-20)
(-6.48669e-21 -0.00187204 -0 1.29734e-20 -0 -6.48669e-21)
(1.06163e-20 -0.00177967 -0 -2.12325e-20 -0 1.06163e-20)
(-7.93399e-21 -0.00177966 -0 1.5868e-20 -0 -7.93399e-21)
(1.09526e-20 -0.00168834 -0 -2.19052e-20 -0 1.09526e-20)
(-9.16324e-21 -0.00168833 -0 1.83265e-20 -0 -9.16324e-21)
(1.13347e-20 -0.00159802 -0 -2.26693e-20 -0 1.13347e-20)
(-1.03255e-20 -0.00159801 -0 2.0651e-20 -0 -1.03255e-20)
(1.16223e-20 -0.00150868 -0 -2.32445e-20 -0 1.16223e-20)
(-1.14322e-20 -0.00150866 -0 2.28643e-20 -0 -1.14322e-20)
(1.19193e-20 -0.00142027 -0 -2.38387e-20 -0 1.19193e-20)
(-1.23768e-20 -0.00142026 -0 2.47537e-20 -0 -1.23768e-20)
(1.2222e-20 -0.00133275 -0 -2.4444e-20 -0 1.2222e-20)
(-1.31898e-20 -0.00133274 -0 2.63796e-20 -0 -1.31898e-20)
(1.25426e-20 -0.00124609 -0 -2.50851e-20 -0 1.25426e-20)
(-1.38986e-20 -0.00124607 -0 2.77973e-20 -0 -1.38986e-20)
(1.30069e-20 -0.00116024 -0 -2.60138e-20 -0 1.30069e-20)
(-1.46361e-20 -0.00116022 -0 2.92723e-20 -0 -1.46361e-20)
(1.33591e-20 -0.00107515 -0 -2.67181e-20 -0 1.33591e-20)
(-1.5279e-20 -0.00107514 -0 3.05579e-20 -0 -1.5279e-20)
(1.37139e-20 -0.000990797 -0 -2.74278e-20 -0 1.37139e-20)
(-1.58617e-20 -0.000990778 -0 3.17234e-20 -0 -1.58617e-20)
(1.40825e-20 -0.000907122 -0 -2.81651e-20 -0 1.40825e-20)
(-1.63931e-20 -0.000907102 -0 3.27862e-20 -0 -1.63931e-20)
(1.43906e-20 -0.000824088 -0 -2.87812e-20 -0 1.43906e-20)
(-1.68049e-20 -0.000824066 -0 3.36097e-20 -0 -1.68049e-20)
(1.47443e-20 -0.00074165 -0 -2.94886e-20 -0 1.47443e-20)
(-1.72397e-20 -0.000741627 -0 3.44794e-20 -0 -1.72397e-20)
(1.51327e-20 -0.000659766 -0 -3.02655e-20 -0 1.51327e-20)
(-1.76277e-20 -0.000659741 -0 3.52554e-20 -0 -1.76277e-20)
(1.55029e-20 -0.00057839 -0 -3.10057e-20 -0 1.55029e-20)
(-1.79687e-20 -0.000578363 -0 3.59373e-20 -0 -1.79687e-20)
(1.57879e-20 -0.000497477 -0 -3.15758e-20 -0 1.57879e-20)
(-1.83291e-20 -0.000497449 -0 3.66581e-20 -0 -1.83291e-20)
(1.60858e-20 -0.000416981 -0 -3.21716e-20 -0 1.60858e-20)
(-1.86831e-20 -0.000416951 -0 3.73662e-20 -0 -1.86831e-20)
(1.63466e-20 -0.00033685 -0 -3.26933e-20 -0 1.63466e-20)
(-1.89364e-20 -0.000336819 -0 3.78727e-20 -0 -1.89364e-20)
(1.65971e-20 -0.00025703 -0 -3.31942e-20 -0 1.65971e-20)
(-1.91532e-20 -0.000256996 -0 3.83064e-20 -0 -1.91532e-20)
(1.68272e-20 -0.000177454 -0 -3.36543e-20 -0 1.68272e-20)
(-1.93587e-20 -0.000177418 -0 3.87173e-20 -0 -1.93587e-20)
(1.70309e-20 -9.80404e-05 -0 -3.40618e-20 -0 1.70309e-20)
(-1.95287e-20 -9.80021e-05 -0 3.90574e-20 -0 -1.95287e-20)
(1.71965e-20 -1.86845e-05 -0 -3.4393e-20 -0 1.71965e-20)
(-1.96642e-20 -1.86439e-05 -0 3.93283e-20 -0 -1.96642e-20)
(1.73059e-20 6.07502e-05 -0 -3.46119e-20 -0 1.73059e-20)
(-1.97566e-20 6.07926e-05 -0 3.95132e-20 -0 -1.97566e-20)
(1.7409e-20 0.000140437 -0 -3.48181e-20 -0 1.7409e-20)
(-1.97945e-20 0.00014048 -0 3.95891e-20 -0 -1.97945e-20)
(1.74675e-20 0.000220571 -0 -3.49351e-20 -0 1.74675e-20)
(-1.97959e-20 0.000220614 -0 3.95919e-20 -0 -1.97959e-20)
(1.74929e-20 0.00030143 -0 -3.49859e-20 -0 1.74929e-20)
(-1.98707e-20 0.000301467 -0 3.97414e-20 -0 -1.98707e-20)
(1.76402e-20 0.000171039 -0 -3.52804e-20 -0 1.76402e-20)
(-2.00001e-20 0.000171056 -0 4.00001e-20 -0 -2.00001e-20)
)
;

boundaryField
{
    inlet
    {
        type            cyclic;
    }
    outlet
    {
        type            cyclic;
    }
    bottom
    {
        type            symmetry;
    }
    top
    {
        type            calculated;
        value           nonuniform List<symmTensor> 2((4.0794e-21 -0.00971466 -0 -8.1588e-21 -0 4.0794e-21) (3.35174e-21 -0.00971462 -0 -6.70348e-21 -0 3.35174e-21));
    }
    frontAndBack
    {
        type            empty;
    }
}


// ************************************************************************* //
