/*--------------------------------*- C++ -*----------------------------------*\
  =========                 |
  \\      /  F ield         | OpenFOAM: The Open Source CFD Toolbox
   \\    /   O peration     | Website:  https://openfoam.org
    \\  /    A nd           | Version:  7
     \\/     M anipulation  |
\*---------------------------------------------------------------------------*/
FoamFile
{
    version     2.0;
    format      ascii;
    class       volScalarField;
    location    "1700";
    object      k;
}
// * * * * * * * * * * * * * * * * * * * * * * * * * * * * * * * * * * * * * //

dimensions      [0 2 -2 0 0 0 0];

internalField   nonuniform List<scalar> 
180
(
0.00613552
0.00613538
0.0244846
0.0244844
0.0275136
0.0275134
0.0281216
0.0281215
0.0281883
0.0281881
0.0280384
0.0280382
0.0277828
0.0277826
0.0274695
0.0274694
0.0271231
0.027123
0.0267576
0.0267574
0.0263819
0.0263817
0.0260018
0.0260016
0.0256219
0.0256217
0.0252454
0.0252452
0.0248748
0.0248746
0.0245122
0.024512
0.0241592
0.024159
0.0238173
0.023817
0.0234875
0.0234873
0.0231708
0.0231705
0.0228679
0.0228676
0.0225793
0.022579
0.0223055
0.0223052
0.0220468
0.0220464
0.0218032
0.0218028
0.0215748
0.0215745
0.0213616
0.0213612
0.0211634
0.021163
0.02098
0.0209795
0.0208109
0.0208105
0.020656
0.0206555
0.0205147
0.0205142
0.0203865
0.020386
0.020271
0.0202704
0.0201676
0.020167
0.0200758
0.0200752
0.019995
0.0199944
0.0199247
0.0199241
0.0198642
0.0198636
0.019813
0.0198124
0.0197706
0.0197699
0.0197363
0.0197356
0.0197096
0.0197089
0.01969
0.0196893
0.0196771
0.0196763
0.0196701
0.0196694
0.0196688
0.019668
0.0196727
0.0196718
0.0196812
0.0196803
0.019694
0.0196931
0.0197106
0.0197098
0.0197307
0.0197299
0.019754
0.0197531
0.01978
0.0197791
0.0198084
0.0198075
0.0198389
0.019838
0.0198712
0.0198703
0.0199051
0.0199042
0.0199402
0.0199393
0.0199763
0.0199754
0.0200132
0.0200122
0.0200506
0.0200496
0.0200883
0.0200873
0.0201262
0.0201252
0.0201639
0.0201629
0.0202014
0.0202004
0.0202385
0.0202375
0.020275
0.0202739
0.0203107
0.0203097
0.0203456
0.0203445
0.0203794
0.0203783
0.0204121
0.020411
0.0204436
0.0204425
0.0204736
0.0204725
0.0205022
0.0205011
0.0205293
0.0205281
0.0205547
0.0205535
0.0205783
0.0205771
0.0206001
0.0205989
0.02062
0.0206189
0.020638
0.0206368
0.0206539
0.0206528
0.0206678
0.0206666
0.0206796
0.0206784
0.0206891
0.0206879
0.0206965
0.0206953
0.0207016
0.0207004
0.0207043
0.0207031
0.0207047
0.0207034
0.0207025
0.0207013
)
;

boundaryField
{
    inlet
    {
        type            cyclic;
    }
    outlet
    {
        type            cyclic;
    }
    bottom
    {
        type            symmetry;
    }
    top
    {
        type            kqRWallFunction;
        value           nonuniform List<scalar> 2(0.00613552 0.00613538);
    }
    frontAndBack
    {
        type            empty;
    }
}


// ************************************************************************* //
