/*--------------------------------*- C++ -*----------------------------------*\
  =========                 |
  \\      /  F ield         | OpenFOAM: The Open Source CFD Toolbox
   \\    /   O peration     | Website:  https://openfoam.org
    \\  /    A nd           | Version:  7
     \\/     M anipulation  |
\*---------------------------------------------------------------------------*/
FoamFile
{
    version     2.0;
    format      ascii;
    class       volScalarField;
    location    "1700";
    object      nut;
}
// * * * * * * * * * * * * * * * * * * * * * * * * * * * * * * * * * * * * * //

dimensions      [0 2 -1 0 0 0 0];

internalField   nonuniform List<scalar> 
180
(
2.3671e-06
2.36705e-06
2.677e-05
2.67698e-05
6.01141e-05
6.01138e-05
9.454e-05
9.45396e-05
0.000129607
0.000129607
0.000164575
0.000164574
0.000199135
0.000199134
0.000233187
0.000233185
0.000266719
0.000266717
0.000299769
0.000299767
0.000332399
0.000332396
0.00036468
0.000364677
0.000396692
0.000396688
0.000428515
0.000428509
0.000460227
0.000460221
0.000491907
0.000491899
0.000523628
0.000523619
0.00055546
0.000555449
0.000587468
0.000587456
0.000619712
0.000619698
0.000652247
0.00065223
0.00068512
0.000685101
0.000718374
0.000718353
0.000752044
0.000752021
0.00078616
0.000786135
0.000820743
0.000820716
0.00085581
0.000855781
0.00089137
0.000891338
0.000927425
0.000927391
0.000963972
0.000963935
0.001001
0.00100096
0.00103849
0.00103845
0.00107643
0.00107639
0.00111478
0.00111474
0.00115352
0.00115347
0.00119261
0.00119256
0.00123201
0.00123196
0.00127167
0.00127162
0.00131156
0.0013115
0.00135161
0.00135156
0.00139179
0.00139174
0.00143204
0.00143199
0.00147231
0.00147225
0.00151254
0.00151248
0.00155268
0.00155262
0.00159267
0.00159261
0.00163247
0.00163241
0.00167201
0.00167195
0.00171125
0.0017112
0.00175014
0.00175008
0.00178862
0.00178856
0.00182665
0.00182659
0.00186418
0.00186412
0.00190116
0.00190111
0.00193755
0.0019375
0.00197332
0.00197327
0.00200841
0.00200836
0.0020428
0.00204275
0.00207644
0.0020764
0.00210931
0.00210926
0.00214136
0.00214132
0.00217258
0.00217253
0.00220292
0.00220287
0.00223236
0.00223232
0.00226088
0.00226084
0.00228846
0.00228842
0.00231506
0.00231502
0.00234068
0.00234064
0.00236528
0.00236525
0.00238886
0.00238883
0.00241139
0.00241136
0.00243287
0.00243283
0.00245326
0.00245323
0.00247257
0.00247254
0.00249078
0.00249075
0.00250788
0.00250785
0.00252386
0.00252383
0.00253871
0.00253868
0.00255241
0.00255239
0.00256497
0.00256495
0.00257638
0.00257636
0.00258663
0.0025866
0.00259571
0.00259569
0.00260362
0.0026036
0.00261036
0.00261033
0.00261591
0.00261589
0.00262028
0.00262026
0.00262347
0.00262345
0.00262546
0.00262544
0.00262625
0.00262623
)
;

boundaryField
{
    inlet
    {
        type            cyclic;
    }
    outlet
    {
        type            cyclic;
    }
    bottom
    {
        type            symmetry;
    }
    top
    {
        type            nutkWallFunction;
        Cmu             0.09;
        kappa           0.41;
        E               9.8;
        value           uniform 0;
    }
    frontAndBack
    {
        type            empty;
    }
}


// ************************************************************************* //
