/*--------------------------------*- C++ -*----------------------------------*\
  =========                 |
  \\      /  F ield         | OpenFOAM: The Open Source CFD Toolbox
   \\    /   O peration     | Website:  https://openfoam.org
    \\  /    A nd           | Version:  7
     \\/     M anipulation  |
\*---------------------------------------------------------------------------*/
FoamFile
{
    version     2.0;
    format      ascii;
    class       volScalarField;
    location    "1700";
    object      omega;
}
// * * * * * * * * * * * * * * * * * * * * * * * * * * * * * * * * * * * * * //

dimensions      [0 0 -1 0 0 0 0];

internalField   nonuniform List<scalar> 
180
(
2592
2592
878.217
878.216
457.4
457.399
297.458
297.457
217.49
217.49
170.369
170.368
139.517
139.517
117.801
117.8
101.692
101.692
89.2607
89.2607
79.3681
79.3681
71.3004
71.3005
64.5889
64.5891
58.9137
58.914
54.0489
54.0492
49.8309
49.8313
46.1381
46.1385
42.8785
42.8789
39.9809
39.9813
37.3896
37.3901
35.0602
35.0606
32.9568
32.9572
31.05
31.0505
29.3158
29.3162
27.7338
27.7342
26.287
26.2874
24.9607
24.9611
23.7426
23.743
22.6217
22.6221
21.5888
21.5891
20.6354
20.6357
19.7543
19.7546
18.939
18.9393
18.1838
18.1841
17.4835
17.4838
16.8335
16.8337
16.2297
16.2298
15.6681
15.6683
15.1455
15.1456
14.6588
14.6589
14.2051
14.2052
13.7819
13.7819
13.3869
13.3869
13.0179
13.0179
12.673
12.673
12.3504
12.3504
12.0485
12.0485
11.7659
11.7658
11.501
11.5009
11.2528
11.2527
11.02
11.0199
10.8016
10.8015
10.5966
10.5965
10.4042
10.404
10.2234
10.2232
10.0536
10.0534
9.894
9.89378
9.74402
9.74379
9.60306
9.60282
9.47056
9.47031
9.34601
9.34575
9.22896
9.22869
9.11897
9.11869
9.01564
9.01535
8.91861
8.91831
8.82753
8.82723
8.7421
8.74179
8.66202
8.6617
8.58702
8.5867
8.51686
8.51653
8.45131
8.45098
8.39016
8.38982
8.33322
8.33288
8.2803
8.27995
8.23125
8.23089
8.1859
8.18555
8.14413
8.14377
8.10581
8.10545
8.07083
8.07046
8.03907
8.0387
8.01045
8.01008
7.98489
7.98451
7.96229
7.96191
7.94261
7.94223
7.92579
7.9254
7.91176
7.91137
7.9005
7.90011
7.89196
7.89156
7.88611
7.88571
7.88291
7.88251
)
;

boundaryField
{
    inlet
    {
        type            cyclic;
    }
    outlet
    {
        type            cyclic;
    }
    bottom
    {
        type            symmetry;
    }
    top
    {
        beta1           0.075;
        blended         0;
        type            omegaWallFunction;
        value           uniform 2592;
    }
    frontAndBack
    {
        type            empty;
    }
}


// ************************************************************************* //
