/*--------------------------------*- C++ -*----------------------------------*\
  =========                 |
  \\      /  F ield         | OpenFOAM: The Open Source CFD Toolbox
   \\    /   O peration     | Website:  https://openfoam.org
    \\  /    A nd           | Version:  7
     \\/     M anipulation  |
\*---------------------------------------------------------------------------*/
FoamFile
{
    version     2.0;
    format      ascii;
    class       volScalarField;
    location    "1700";
    object      p;
}
// * * * * * * * * * * * * * * * * * * * * * * * * * * * * * * * * * * * * * //

dimensions      [0 2 -2 0 0 0 0];

internalField   nonuniform List<scalar> 
180
(
-4.59911e-21
9.32007e-18
1.06634e-21
9.32188e-18
-3.26752e-21
9.3228e-18
1.18611e-20
9.30145e-18
2.26815e-20
9.29177e-18
9.47901e-21
9.30604e-18
1.00534e-20
9.3398e-18
3.03808e-20
9.30069e-18
5.3882e-20
9.27808e-18
5.48648e-20
9.27786e-18
5.60582e-20
9.24907e-18
8.85629e-20
9.21724e-18
1.24047e-19
9.18247e-18
1.99205e-19
9.10794e-18
8.22584e-20
9.18598e-18
4.17638e-20
9.14244e-18
4.37095e-20
9.1411e-18
4.57392e-20
9.13964e-18
4.78783e-20
9.13808e-18
5.00868e-20
9.13641e-18
5.2394e-20
9.13466e-18
5.47567e-20
9.13281e-18
5.72095e-20
9.13088e-18
5.97056e-20
9.12889e-18
6.22837e-20
9.12681e-18
-7.66813e-20
9.12468e-18
-7.39965e-20
9.12247e-18
-7.12859e-20
9.12022e-18
-6.85118e-20
9.2779e-18
-6.57185e-20
9.27555e-18
-6.28718e-20
9.27314e-18
-6.00108e-20
9.2707e-18
-5.71049e-20
9.26822e-18
-5.41884e-20
9.26571e-18
-5.1235e-20
9.26317e-18
-2.54114e-19
9.2606e-18
-2.51127e-19
9.25801e-18
-2.4814e-19
9.25541e-18
-2.45132e-19
9.25278e-18
-2.42129e-19
9.25015e-18
-2.39113e-19
9.2475e-18
-2.36106e-19
9.24485e-18
-2.33092e-19
9.49654e-18
-2.30096e-19
9.49389e-18
-2.27102e-19
9.49125e-18
-2.2413e-19
9.48862e-18
-2.21168e-19
9.48599e-18
-2.18234e-19
9.48338e-18
-2.15316e-19
9.48079e-18
-2.12432e-19
9.47822e-18
-2.0957e-19
9.47567e-18
-2.06747e-19
9.47315e-18
-2.03952e-19
9.47066e-18
-2.01203e-19
9.4682e-18
-1.98488e-19
9.46577e-18
-1.95822e-19
9.46339e-18
-1.93198e-19
9.46104e-18
-1.90628e-19
9.45873e-18
-1.88105e-19
9.45647e-18
-1.85642e-19
9.45425e-18
-1.8323e-19
9.45209e-18
-1.80883e-19
9.44997e-18
-1.78593e-19
9.44791e-18
-1.76372e-19
9.44591e-18
-1.74212e-19
9.44396e-18
-1.72126e-19
9.44207e-18
-1.70106e-19
9.44025e-18
-1.68163e-19
9.43849e-18
-1.66291e-19
9.4368e-18
-1.64499e-19
9.43517e-18
-1.62782e-19
9.43361e-18
-1.61148e-19
9.43213e-18
-1.59593e-19
9.43071e-18
-1.58123e-19
9.42937e-18
-1.56737e-19
9.42811e-18
-1.55437e-19
9.42692e-18
-1.54224e-19
9.42581e-18
-1.531e-19
9.42478e-18
-1.52064e-19
9.42382e-18
-1.5112e-19
9.42295e-18
-1.50265e-19
9.42216e-18
-1.49504e-19
9.42145e-18
-1.48834e-19
9.42083e-18
-1.48259e-19
9.42029e-18
-1.47777e-19
9.41984e-18
-1.4739e-19
9.41948e-18
-1.47098e-19
9.4192e-18
-1.46901e-19
9.41901e-18
-1.46799e-19
9.41891e-18
-1.46786e-19
9.4189e-18
)
;

boundaryField
{
    inlet
    {
        type            cyclic;
    }
    outlet
    {
        type            cyclic;
    }
    bottom
    {
        type            symmetry;
    }
    top
    {
        type            zeroGradient;
    }
    frontAndBack
    {
        type            empty;
    }
}


// ************************************************************************* //
