/*--------------------------------*- C++ -*----------------------------------*\
  =========                 |
  \\      /  F ield         | OpenFOAM: The Open Source CFD Toolbox
   \\    /   O peration     | Website:  https://openfoam.org
    \\  /    A nd           | Version:  7
     \\/     M anipulation  |
\*---------------------------------------------------------------------------*/
FoamFile
{
    version     2.0;
    format      ascii;
    class       surfaceScalarField;
    location    "1700";
    object      phi;
}
// * * * * * * * * * * * * * * * * * * * * * * * * * * * * * * * * * * * * * //

dimensions      [0 3 -1 0 0 0 0];

internalField   nonuniform List<scalar> 
268
(
0.000599671
6.89258e-20
1.69477e-19
0.00108131
-7.4985e-20
9.67235e-20
0.00129977
-8.57974e-20
1.86541e-19
0.00143164
-4.91467e-20
1.5991e-19
0.00152466
-1.77421e-20
1.55991e-19
0.0015959
-2.20681e-20
1.2271e-19
0.00165339
-5.69638e-21
1.71755e-19
0.00170143
2.97118e-21
1.35579e-19
0.00174258
9.39099e-21
1.16478e-19
0.00177848
-3.39443e-22
3.11275e-19
0.00181026
-3.56349e-20
2.86715e-19
0.00183868
-3.473e-20
2.53338e-19
0.00186432
-8.65401e-20
2.76981e-19
0.00188762
1.43842e-19
3.1414e-20
0.00190892
2.33195e-19
1.01872e-19
0.00192846
1.64454e-19
6.45433e-20
0.00194648
1.12235e-19
5.64128e-20
0.00196313
7.78598e-20
4.61079e-20
0.00197858
5.83968e-20
3.72106e-20
0.00199292
5.45227e-20
2.85182e-20
0.00200628
6.45217e-20
1.92109e-20
0.00201874
8.76032e-20
7.16982e-21
0.00203037
1.16828e-19
-7.87898e-21
0.00204125
1.39516e-19
-2.65993e-20
0.00205143
1.91862e-19
-4.92229e-20
0.00206096
1.44806e-19
-7.53878e-20
0.00206991
1.30759e-19
-9.6085e-20
0.0020783
1.12576e-19
-1.46231e-19
0.00208618
1.02748e-19
-9.8675e-20
0.00209358
9.63107e-20
-8.15646e-20
0.00210054
9.8154e-20
-6.12044e-20
0.00210708
1.02483e-19
-4.60255e-20
0.00211324
1.14283e-19
-3.65164e-20
0.00211903
1.17994e-19
-3.19868e-20
0.00212449
1.53897e-19
-3.2205e-20
0.00212963
8.85848e-20
-3.66267e-20
0.00213448
5.62129e-20
-4.52748e-20
0.00213904
1.65825e-20
-5.75531e-20
0.00214335
-1.54837e-20
-7.35048e-20
0.00214741
-4.60104e-20
-9.26382e-20
0.00215125
-6.97327e-20
-1.05625e-19
0.00215487
-9.2225e-20
-1.46664e-19
0.00215829
-1.08817e-19
-8.86682e-20
0.00216151
-1.24724e-19
-5.98813e-20
0.00216456
-1.35161e-19
-2.61103e-20
0.00216744
-1.45476e-19
3.93413e-21
0.00217016
-1.51503e-19
3.04359e-20
0.00217273
-1.577e-19
5.36413e-20
0.00217516
-1.60152e-19
7.37307e-20
0.00217746
-1.63097e-19
9.10401e-20
0.00217963
-1.63047e-19
1.05664e-19
0.00218168
-1.63706e-19
1.17813e-19
0.00218362
-1.61929e-19
1.27708e-19
0.00218545
-1.61066e-19
1.35619e-19
0.00218718
-1.5829e-19
1.41745e-19
0.00218881
-1.56422e-19
1.46348e-19
0.00219036
-1.52957e-19
1.49431e-19
0.00219181
-1.5042e-19
1.51213e-19
0.00219318
-1.46517e-19
1.51977e-19
0.00219448
-1.43497e-19
1.51785e-19
0.0021957
-1.39473e-19
1.50701e-19
0.00219684
-1.3614e-19
1.48872e-19
0.00219792
-1.3191e-19
1.46431e-19
0.00219893
-1.28301e-19
1.4348e-19
0.00219988
-1.23978e-19
1.40121e-19
0.00220077
-1.20144e-19
1.36373e-19
0.0022016
-1.15728e-19
1.3228e-19
0.00220237
-1.11726e-19
1.27888e-19
0.00220309
-1.0724e-19
1.23265e-19
0.00220375
-1.03061e-19
1.18432e-19
0.00220437
-9.84251e-20
1.13399e-19
0.00220494
-9.4007e-20
1.08183e-19
0.00220546
-8.9248e-20
1.02821e-19
0.00220593
-8.46236e-20
9.73139e-20
0.00220636
-7.97422e-20
9.1718e-20
0.00220674
-7.49313e-20
8.60084e-20
0.00220709
-6.99012e-20
8.02146e-20
0.00220739
-6.48699e-20
7.43362e-20
0.00220765
-5.97118e-20
6.83782e-20
0.00220787
-5.4514e-20
6.23298e-20
0.00220805
-4.92482e-20
5.62295e-20
0.00220819
-4.39164e-20
5.00826e-20
0.00220829
-3.85392e-20
4.38909e-20
0.00220836
-3.31114e-20
3.76649e-20
0.00220838
-2.76348e-20
3.14113e-20
0.00220837
-2.21522e-20
2.51412e-20
0.00220833
-1.66328e-20
1.88698e-20
0.00220824
-1.10987e-20
1.26091e-20
0.00220812
-5.59894e-21
6.35952e-21
0.00220796
)
;

boundaryField
{
    inlet
    {
        type            cyclic;
        value           nonuniform List<scalar> 
90
(
-0.000599671
-0.00108131
-0.00129977
-0.00143164
-0.00152466
-0.0015959
-0.00165339
-0.00170143
-0.00174258
-0.00177848
-0.00181026
-0.00183868
-0.00186432
-0.00188762
-0.00190892
-0.00192846
-0.00194648
-0.00196313
-0.00197858
-0.00199292
-0.00200628
-0.00201874
-0.00203037
-0.00204125
-0.00205143
-0.00206096
-0.00206991
-0.0020783
-0.00208618
-0.00209358
-0.00210054
-0.00210708
-0.00211324
-0.00211903
-0.00212449
-0.00212963
-0.00213448
-0.00213904
-0.00214335
-0.00214741
-0.00215125
-0.00215487
-0.00215829
-0.00216151
-0.00216456
-0.00216744
-0.00217016
-0.00217273
-0.00217516
-0.00217746
-0.00217963
-0.00218168
-0.00218362
-0.00218545
-0.00218718
-0.00218881
-0.00219036
-0.00219181
-0.00219318
-0.00219448
-0.0021957
-0.00219684
-0.00219792
-0.00219893
-0.00219988
-0.00220077
-0.0022016
-0.00220237
-0.00220309
-0.00220375
-0.00220437
-0.00220494
-0.00220546
-0.00220593
-0.00220636
-0.00220674
-0.00220709
-0.00220739
-0.00220765
-0.00220787
-0.00220805
-0.00220819
-0.00220829
-0.00220836
-0.00220838
-0.00220837
-0.00220833
-0.00220824
-0.00220812
-0.00220796
)
;
    }
    outlet
    {
        type            cyclic;
        value           nonuniform List<scalar> 
90
(
0.000599671
0.00108131
0.00129977
0.00143164
0.00152466
0.0015959
0.00165339
0.00170143
0.00174258
0.00177848
0.00181026
0.00183868
0.00186432
0.00188762
0.00190892
0.00192846
0.00194648
0.00196313
0.00197858
0.00199292
0.00200628
0.00201874
0.00203037
0.00204125
0.00205143
0.00206096
0.00206991
0.0020783
0.00208618
0.00209358
0.00210054
0.00210708
0.00211324
0.00211903
0.00212449
0.00212963
0.00213448
0.00213904
0.00214335
0.00214741
0.00215125
0.00215487
0.00215829
0.00216151
0.00216456
0.00216744
0.00217016
0.00217273
0.00217516
0.00217746
0.00217963
0.00218168
0.00218362
0.00218545
0.00218718
0.00218881
0.00219036
0.00219181
0.00219318
0.00219448
0.0021957
0.00219684
0.00219792
0.00219893
0.00219988
0.00220077
0.0022016
0.00220237
0.00220309
0.00220375
0.00220437
0.00220494
0.00220546
0.00220593
0.00220636
0.00220674
0.00220709
0.00220739
0.00220765
0.00220787
0.00220805
0.00220819
0.00220829
0.00220836
0.00220838
0.00220837
0.00220833
0.00220824
0.00220812
0.00220796
)
;
    }
    bottom
    {
        type            symmetry;
        value           uniform 0;
    }
    top
    {
        type            calculated;
        value           uniform 0;
    }
    frontAndBack
    {
        type            empty;
        value           nonuniform 0();
    }
}


// ************************************************************************* //
