/*--------------------------------*- C++ -*----------------------------------*\
  =========                 |
  \\      /  F ield         | OpenFOAM: The Open Source CFD Toolbox
   \\    /   O peration     | Website:  https://openfoam.org
    \\  /    A nd           | Version:  7
     \\/     M anipulation  |
\*---------------------------------------------------------------------------*/
FoamFile
{
    version     2.0;
    format      ascii;
    class       volVectorField;
    location    "1700";
    object      U;
}
// * * * * * * * * * * * * * * * * * * * * * * * * * * * * * * * * * * * * * //

dimensions      [0 1 -1 0 0 0 0];

internalField   nonuniform List<vector> 
180
(
(0.539703 3.3995e-19 0)
(0.539701 2.79312e-19 0)
(0.97318 -1.77664e-19 0)
(0.973178 2.67544e-19 0)
(1.1698 -1.46057e-19 0)
(1.16979 3.23696e-19 0)
(1.28848 -7.87741e-20 0)
(1.28847 3.27551e-19 0)
(1.37219 -5.53044e-20 0)
(1.37219 3.16719e-19 0)
(1.43632 -6.06947e-20 0)
(1.43631 3.18017e-19 0)
(1.48805 -1.97602e-20 0)
(1.48805 2.97188e-19 0)
(1.53128 2.72784e-20 0)
(1.53128 2.81723e-19 0)
(1.56832 1.2399e-20 0)
(1.56832 2.63826e-19 0)
(1.60064 1.24234e-20 0)
(1.60063 4.45988e-19 0)
(1.62923 -3.53507e-20 0)
(1.62923 5.963e-19 0)
(1.65481 -8.01334e-20 0)
(1.65481 5.45659e-19 0)
(1.67789 -8.18001e-20 0)
(1.67789 4.91243e-19 0)
(1.69886 7.58937e-20 0)
(1.69886 3.01051e-19 0)
(1.71803 3.61545e-19 0)
(1.71802 1.64629e-19 0)
(1.73562 4.05066e-19 0)
(1.73562 1.56645e-19 0)
(1.75183 2.7068e-19 0)
(1.75183 1.23393e-19 0)
(1.76682 1.80479e-19 0)
(1.76682 1.01563e-19 0)
(1.78072 1.28695e-19 0)
(1.78072 8.33629e-20 0)
(1.79363 1.06346e-19 0)
(1.79363 6.51342e-20 0)
(1.80565 1.10605e-19 0)
(1.80565 4.90995e-20 0)
(1.81686 1.47915e-19 0)
(1.81686 2.76499e-20 0)
(1.82733 2.0232e-19 0)
(1.82733 1.00311e-21 0)
(1.83712 2.6457e-19 0)
(1.83712 -3.24681e-20 0)
(1.84628 3.38314e-19 0)
(1.84628 -7.40732e-20 0)
(1.85487 3.41758e-19 0)
(1.85487 -1.22679e-19 0)
(1.86292 2.81198e-19 0)
(1.86292 -1.79071e-19 0)
(1.87047 2.39972e-19 0)
(1.87047 -2.48935e-19 0)
(1.87756 2.12565e-19 0)
(1.87756 -2.50198e-19 0)
(1.88422 1.96074e-19 0)
(1.88422 -1.86469e-19 0)
(1.89048 1.91789e-19 0)
(1.89048 -1.40011e-19 0)
(1.89637 1.98185e-19 0)
(1.89637 -1.04609e-19 0)
(1.90191 2.14625e-19 0)
(1.90191 -7.96981e-20 0)
(1.90713 2.39698e-19 0)
(1.90713 -6.61857e-20 0)
(1.91204 2.78877e-19 0)
(1.91204 -6.19464e-20 0)
(1.91667 2.48024e-19 0)
(1.91667 -6.67102e-20 0)
(1.92103 1.51502e-19 0)
(1.92103 -7.99528e-20 0)
(1.92514 7.05156e-20 0)
(1.92514 -1.01007e-19 0)
(1.92902 -1.26594e-21 0)
(1.92902 -1.29337e-19 0)
(1.93267 -6.34193e-20 0)
(1.93267 -1.64564e-19 0)
(1.93612 -1.17839e-19 0)
(1.93612 -2.06093e-19 0)
(1.93938 -1.637e-19 0)
(1.93938 -2.59751e-19 0)
(1.94246 -2.02565e-19 0)
(1.94246 -2.4129e-19 0)
(1.94536 -2.35162e-19 0)
(1.94536 -1.55565e-19 0)
(1.9481 -2.61295e-19 0)
(1.9481 -8.40238e-20 0)
(1.9507 -2.81621e-19 0)
(1.9507 -2.03566e-20 0)
(1.95314 -2.98023e-19 0)
(1.95314 3.60446e-20 0)
(1.95546 -3.10085e-19 0)
(1.95546 8.5747e-20 0)
(1.95764 -3.18674e-19 0)
(1.95765 1.28784e-19 0)
(1.95971 -3.23828e-19 0)
(1.95971 1.66174e-19 0)
(1.96166 -3.267e-19 0)
(1.96167 1.97962e-19 0)
(1.96351 -3.27208e-19 0)
(1.96351 2.24719e-19 0)
(1.96526 -3.25972e-19 0)
(1.96526 2.46517e-19 0)
(1.9669 -3.23261e-19 0)
(1.96691 2.64331e-19 0)
(1.96846 -3.19537e-19 0)
(1.96846 2.78135e-19 0)
(1.96993 -3.14967e-19 0)
(1.96993 2.88856e-19 0)
(1.97132 -3.0946e-19 0)
(1.97132 2.96535e-19 0)
(1.97263 -3.03527e-19 0)
(1.97263 3.01193e-19 0)
(1.97386 -2.97055e-19 0)
(1.97387 3.0366e-19 0)
(1.97503 -2.90018e-19 0)
(1.97503 3.04251e-19 0)
(1.97613 -2.83051e-19 0)
(1.97613 3.02894e-19 0)
(1.97716 -2.75682e-19 0)
(1.97716 2.99911e-19 0)
(1.97813 -2.681e-19 0)
(1.97813 2.95582e-19 0)
(1.97904 -2.60252e-19 0)
(1.97904 2.9014e-19 0)
(1.97989 -2.52319e-19 0)
(1.97989 2.83788e-19 0)
(1.98069 -2.44175e-19 0)
(1.98069 2.76689e-19 0)
(1.98144 -2.3588e-19 0)
(1.98144 2.68813e-19 0)
(1.98213 -2.27513e-19 0)
(1.98213 2.60299e-19 0)
(1.98278 -2.18978e-19 0)
(1.98278 2.51262e-19 0)
(1.98338 -2.10361e-19 0)
(1.98338 2.41789e-19 0)
(1.98393 -2.0155e-19 0)
(1.98393 2.31949e-19 0)
(1.98444 -1.92455e-19 0)
(1.98444 2.21641e-19 0)
(1.98491 -1.83321e-19 0)
(1.98491 2.111e-19 0)
(1.98534 -1.73898e-19 0)
(1.98534 2.00176e-19 0)
(1.98572 -1.64413e-19 0)
(1.98572 1.89089e-19 0)
(1.98607 -1.54716e-19 0)
(1.98607 1.77776e-19 0)
(1.98638 -1.44893e-19 0)
(1.98638 1.66266e-19 0)
(1.98665 -1.34809e-19 0)
(1.98665 1.54586e-19 0)
(1.98688 -1.24618e-19 0)
(1.98688 1.42765e-19 0)
(1.98708 -1.14271e-19 0)
(1.98708 1.30743e-19 0)
(1.98724 -1.03795e-19 0)
(1.98724 1.18579e-19 0)
(1.98737 -9.32034e-20 0)
(1.98737 1.06337e-19 0)
(1.98746 -8.24887e-20 0)
(1.98746 9.3992e-20 0)
(1.98752 -7.16773e-20 0)
(1.98752 8.15727e-20 0)
(1.98754 -6.0768e-20 0)
(1.98755 6.90855e-20 0)
(1.98754 -4.98018e-20 0)
(1.98754 5.65578e-20 0)
(1.98749 -3.87999e-20 0)
(1.98749 4.40062e-20 0)
(1.98742 -2.77395e-20 0)
(1.98742 3.14722e-20 0)
(1.98731 -1.66902e-20 0)
(1.98731 1.89492e-20 0)
(1.98716 -5.61445e-21 0)
(1.98716 6.33954e-21 0)
)
;

boundaryField
{
    inlet
    {
        type            cyclic;
    }
    outlet
    {
        type            cyclic;
    }
    bottom
    {
        type            symmetry;
    }
    top
    {
        type            noSlip;
    }
    frontAndBack
    {
        type            empty;
    }
}


// ************************************************************************* //
