/*--------------------------------*- C++ -*----------------------------------*\
  =========                 |
  \\      /  F ield         | OpenFOAM: The Open Source CFD Toolbox
   \\    /   O peration     | Website:  https://openfoam.org
    \\  /    A nd           | Version:  7
     \\/     M anipulation  |
\*---------------------------------------------------------------------------*/
FoamFile
{
    version     2.0;
    format      ascii;
    class       volScalarField;
    location    "0.36";
    object      p;
}
// * * * * * * * * * * * * * * * * * * * * * * * * * * * * * * * * * * * * * //

dimensions      [0 2 -2 0 0 0 0];

internalField   nonuniform List<scalar> 
1600
(
8.04164e-06
-0.00117701
-0.00390704
-0.00758095
-0.0115257
-0.0152459
-0.0183838
-0.0206868
-0.0219875
-0.0221863
-0.0212373
-0.0191388
-0.0159241
-0.0116561
-0.0064223
-0.000330278
0.00649498
0.0139141
0.0217757
0.0299189
0.0381755
0.0463728
0.0543366
0.0618938
0.0688769
0.0751273
0.0805004
0.0848703
0.0881353
0.0902239
0.0911013
0.0907762
0.0893089
0.0868203
0.0835039
0.0796387
0.075605
0.0719113
0.0692256
0.0681104
0.00120164
1.184e-05
-0.0022045
-0.00505546
-0.00809779
-0.0109663
-0.0133764
-0.0151151
-0.0160321
-0.0160316
-0.0150634
-0.0131162
-0.0102106
-0.00639485
-0.00174008
0.00366304
0.00970736
0.0162719
0.0232243
0.0304231
0.0377205
0.0449644
0.0520018
0.0586812
0.0648569
0.0703921
0.0751633
0.0790651
0.0820144
0.0839561
0.0848683
0.0847679
0.083717
0.0818285
0.079273
0.0762845
0.0731648
0.0702899
0.0681068
0.0669971
0.00394683
0.00221951
-2.73187e-05
-0.00258657
-0.00521518
-0.00764336
-0.00964751
-0.011056
-0.0117431
-0.0116252
-0.0106562
-0.00882303
-0.00614088
-0.00264956
0.00159005
0.00649896
0.0119827
0.0179339
0.0242342
0.0307569
0.037369
0.0439337
0.0503135
0.0563723
0.0619796
0.0670133
0.071364
0.074939
0.0776664
0.0794997
0.0804223
0.0804519
0.0796448
0.0781002
0.075962
0.0734211
0.0707176
0.0681331
0.065926
0.0643089
0.00771047
0.00509916
0.00245821
-0.000170694
-0.00272571
-0.00500698
-0.00684027
-0.00809386
-0.00866934
-0.00849993
-0.00754896
-0.00580704
-0.00328902
-3.10968e-05
0.00391175
0.00846816
0.0135526
0.0190673
0.0249046
0.0309485
0.037077
0.0431648
0.049085
0.0547127
0.0599275
0.0646168
0.0686798
0.072031
0.0746037
0.0763545
0.0772664
0.0773526
0.0766596
0.0752691
0.0732982
0.0708988
0.068263
0.0656061
0.0630151
0.0605465
0.011899
0.00825888
0.00505045
0.00216993
-0.000487705
-0.00277853
-0.00457
-0.00576749
-0.00629984
-0.00611869
-0.00519908
-0.00353804
-0.00115269
0.00192171
0.00563363
0.009917
0.014693
0.0198715
0.0253531
0.0310306
0.036791
0.0425176
0.0480923
0.053398
0.0583218
0.0627578
0.0666105
0.0697978
0.0722555
0.0739395
0.0748294
0.0749315
0.0742799
0.0729383
0.0709976
0.0685746
0.0658231
0.0629061
0.059753
0.0562828
0.0160863
0.0113745
0.00750591
0.00425597
0.00137346
-0.00104055
-0.00288711
-0.00410428
-0.00464629
-0.00448307
-0.00360228
-0.00200892
0.000275781
0.00321554
0.00676022
0.0108471
0.0154019
0.0203404
0.0255694
0.0309885
0.0364914
0.041968
0.0473063
0.0523949
0.0571258
0.0613967
0.0651145
0.0681984
0.0705829
0.0722209
0.0730864
0.0731765
0.0725126
0.0711405
0.0691274
0.0665602
0.0635628
0.0602605
0.0564454
0.0519233
0.0199632
0.0141848
0.00960945
0.00591412
0.00272204
0.000102917
-0.00187027
-0.00316334
-0.00375322
-0.00362707
-0.00278527
-0.00124153
0.000977572
0.00383324
0.0072751
0.0112419
0.0156625
0.0204564
0.0255349
0.0308023
0.0361571
0.0414937
0.0467041
0.0516802
0.0563162
0.0605112
0.0641719
0.0672159
0.0695744
0.0711948
0.0720435
0.0721074
0.0713947
0.0699345
0.0677734
0.0649737
0.0616378
0.0578656
0.053333
0.0477546
0.0232966
0.0164758
0.0111759
0.0069917
0.00343748
0.000560511
-0.00158586
-0.00299068
-0.00365075
-0.00356904
-0.00275813
-0.00124072
0.000950573
0.00377339
0.00717589
0.011097
0.015467
0.0202076
0.0252332
0.0304509
0.0357624
0.0410645
0.0462515
0.0512163
0.0558534
0.0600608
0.063743
0.0668138
0.0691987
0.0708381
0.0716891
0.0717274
0.0709481
0.0693652
0.067007
0.0639166
0.0601817
0.0558865
0.0506075
0.0439851
0.0259045
0.0180683
0.012041
0.00734537
0.00339931
0.000234056
-0.00211183
-0.00364682
-0.00438506
-0.00434383
-0.00354723
-0.00202688
0.000178184
0.00302135
0.00644836
0.0103973
0.0147985
0.0195749
0.0246421
0.0299091
0.035279
0.0406496
0.0459154
0.050969
0.0557031
0.0600126
0.0637979
0.0669668
0.0694377
0.071142
0.0720263
0.0720544
0.0712083
0.0694876
0.0669055
0.0634893
0.0593177
0.0544666
0.0484251
0.0407703
0.0276363
0.0188068
0.0120547
0.00683806
0.00248601
-0.000981662
-0.00353756
-0.00520671
-0.00601855
-0.00600332
-0.00519604
-0.003637
-0.0013719
0.00154792
0.0050651
0.00911594
0.0136301
0.0185305
0.023733
0.0291472
0.0346761
0.0402174
0.0456646
0.0509079
0.0558368
0.0603418
0.0643167
0.0676621
0.070287
0.0721125
0.0730736
0.0731213
0.0722241
0.0703682
0.067553
0.0637932
0.059163
0.0537348
0.0469181
0.0382331
0.0283592
0.0185497
0.0110766
0.00533665
0.000575082
-0.00319689
-0.00596065
-0.00775572
-0.00862537
-0.00861189
-0.00776062
-0.00612044
-0.0037438
-0.000687135
0.00298857
0.00721721
0.011927
0.01704
0.0224716
0.0281307
0.0339198
0.0397349
0.0454673
0.0510039
0.0562294
0.061028
0.0652859
0.0688942
0.0717513
0.0737661
0.0748605
0.0749717
0.0740545
0.0720814
0.0690393
0.0649322
0.0598321
0.0538124
0.0462061
0.0364798
0.0279475
0.0171617
0.00896971
0.00270856
-0.00245858
-0.00652731
-0.00948631
-0.0113885
-0.01229
-0.0122447
-0.0113079
-0.00953717
-0.00699179
-0.0037336
0.000172382
0.00465718
0.00964701
0.0150625
0.0208179
0.0268211
0.0329726
0.0391666
0.0452909
0.0512281
0.0568569
0.0620539
0.0666962
0.0706637
0.0738424
0.0761272
0.0774254
0.0776591
0.076768
0.0747108
0.0714616
0.0670148
0.0614421
0.0548198
0.0464051
0.0356112
0.0262758
0.0145078
0.00559626
-0.00118173
-0.00674496
-0.0110952
-0.0142278
-0.0162086
-0.0171064
-0.0169865
-0.0159146
-0.0139566
-0.0111791
-0.00764965
-0.00343758
0.00138489
0.00674163
0.0125515
0.0187273
0.0251752
0.0317938
0.0384745
0.0451012
0.0515512
0.0576962
0.0634043
0.0685417
0.0729758
0.0765781
0.0792279
0.0808156
0.0812463
0.0804431
0.0783496
0.0749265
0.0701581
0.0641169
0.0568828
0.0476352
0.0357325
0.0232132
0.010448
0.000813033
-0.00647591
-0.0124212
-0.0170309
-0.020307
-0.0223286
-0.0231777
-0.0229314
-0.0216657
-0.019456
-0.0163764
-0.0125003
-0.0079017
-0.00265633
0.00315719
0.00945582
0.0161508
0.0231465
0.0303395
0.037618
0.0448619
0.0519425
0.058724
0.0650646
0.0708185
0.0758391
0.0799814
0.0831067
0.0850863
0.0858056
0.0851691
0.0831029
0.0795526
0.0744915
0.0679921
0.0601387
0.0500281
0.0369605
0.0186195
0.00483358
-0.00553222
-0.013325
-0.0196341
-0.0244743
-0.0278554
-0.0298703
-0.0306155
-0.0301807
-0.0286536
-0.0261193
-0.0226599
-0.0183554
-0.0132847
-0.00752702
-0.00116345
0.00572116
0.0130366
0.0206858
0.0285633
0.0365546
0.0445351
0.0523703
0.0599163
0.0670205
0.0735243
0.0792649
0.0840792
0.087808
0.0903004
0.0914193
0.091047
0.0890891
0.0854736
0.0801602
0.0732204
0.064742
0.0537325
0.0394301
0.0123412
-0.00249745
-0.0136045
-0.0218927
-0.0285424
-0.0335768
-0.0370145
-0.0389647
-0.0395395
-0.0388431
-0.0369761
-0.0340345
-0.0301094
-0.0252877
-0.0196534
-0.0132893
-0.00627869
0.00129206
0.00933185
0.0177426
0.0264177
0.0352401
0.0440815
0.0528016
0.0612481
0.0692577
0.0766572
0.0832666
0.0889023
0.0933818
0.0965289
0.0981799
0.0981908
0.0964426
0.0928413
0.0873296
0.079976
0.0708702
0.0589213
0.0433005
0.00420839
-0.0117236
-0.0235854
-0.0323584
-0.0393197
-0.0445029
-0.0479377
-0.0497521
-0.0500767
-0.0490325
-0.0467348
-0.0432921
-0.0388055
-0.0333696
-0.0270736
-0.0200037
-0.0122452
-0.00388522
0.00498513
0.0142679
0.0238559
0.0336309
0.0434617
0.0532028
0.0626942
0.0717611
0.0802156
0.0878588
0.0944845
0.0998837
0.103851
0.106191
0.106729
0.105316
0.101829
0.0961903
0.0884606
0.0787296
0.0657971
0.0487611
-0.00596853
-0.0230441
-0.0356774
-0.0449213
-0.0521576
-0.0574327
-0.0607909
-0.0623826
-0.0623608
-0.0608665
-0.0580323
-0.0539813
-0.048826
-0.0426692
-0.0356059
-0.0277254
-0.0191142
-0.00985916
-5.01748e-05
0.0102162
0.0208342
0.0316855
0.0426376
0.0535412
0.0642291
0.0745158
0.0841982
0.0930574
0.100862
0.107374
0.112354
0.11557
0.116808
0.115883
0.112637
0.106963
0.0989096
0.0885629
0.0746002
0.0560388
-0.018403
-0.036684
-0.0501084
-0.0598051
-0.0672691
-0.0725641
-0.0757534
-0.0770155
-0.0765305
-0.0744638
-0.070969
-0.0661863
-0.0602412
-0.0532461
-0.0453014
-0.0364993
-0.0269266
-0.0166683
-0.00581154
0.00555065
0.0173157
0.0293679
0.0415752
0.0537864
0.0658289
0.0775075
0.0886042
0.0988792
0.108075
0.115919
0.122133
0.126444
0.128591
0.128341
0.125494
0.119903
0.111599
0.100657
0.0856158
0.0654051
-0.0333374
-0.0529005
-0.067139
-0.0772631
-0.0848931
-0.0901155
-0.0930195
-0.0938188
-0.0927275
-0.089941
-0.0856387
-0.079981
-0.0731089
-0.0651448
-0.0561951
-0.0463539
-0.0357069
-0.0243356
-0.012322
0.000246918
0.0132747
0.026651
0.0402472
0.0539131
0.0674729
0.0807237
0.0934335
0.105342
0.116162
0.125587
0.133294
0.138957
0.142261
0.142916
0.140665
0.13531
0.126853
0.115351
0.0991847
0.0771855
-0.05105
-0.0719907
-0.0870704
-0.0975862
-0.1053
-0.11033
-0.112799
-0.112968
-0.111093
-0.107408
-0.102123
-0.0954227
-0.0874665
-0.0783877
-0.0682984
-0.0572937
-0.0454563
-0.0328617
-0.0195838
-0.00570037
0.00870187
0.0235215
0.0386374
0.0539038
0.0691455
0.0841546
0.0986875
0.112464
0.125168
0.136453
0.145947
0.153264
0.158025
0.159865
0.158457
0.153534
0.145057
0.133051
0.115715
0.091771
-0.0718646
-0.0943042
-0.110256
-0.121112
-0.128799
-0.133477
-0.13532
-0.134645
-0.131765
-0.126961
-0.120482
-0.112543
-0.103323
-0.092966
-0.0815908
-0.0692912
-0.0561445
-0.0422171
-0.0275712
-0.0122712
0.00361015
0.0199852
0.0367448
0.0537528
0.0708392
0.0877954
0.10437
0.120264
0.135135
0.148592
0.160211
0.169537
0.17611
0.17948
0.179223
0.174986
0.166667
0.154243
0.135699
0.109632
-0.0961646
-0.120259
-0.137116
-0.148239
-0.155746
-0.159861
-0.160824
-0.159031
-0.154868
-0.148676
-0.14075
-0.131339
-0.120646
-0.108829
-0.0960089
-0.0822765
-0.0677003
-0.0523336
-0.0362225
-0.019413
-0.0019586
0.0160722
0.0345886
0.0534696
0.0725569
0.0916471
0.110486
0.128762
0.146104
0.162082
0.17621
0.187958
0.196771
0.202089
0.203372
0.20015
0.192229
0.179514
0.159731
0.13134
-0.124413
-0.150363
-0.168163
-0.179441
-0.186556
-0.18982
-0.189571
-0.186308
-0.180511
-0.172594
-0.162914
-0.151758
-0.139355
-0.125873
-0.111436
-0.0961273
-0.0800023
-0.0630959
-0.0454323
-0.0270335
-0.00792742
0.0118432
0.0322126
0.0530828
0.0743146
0.0957179
0.117043
0.137972
0.158112
0.176992
0.194066
0.208717
0.22028
0.228064
0.231378
0.229597
0.222397
0.209574
0.188541
0.157589
-0.157181
-0.185251
-0.204027
-0.215293
-0.221715
-0.223738
-0.221833
-0.216642
-0.208765
-0.198712
-0.186907
-0.173684
-0.159297
-0.143925
-0.127688
-0.110658
-0.092869
-0.0743324
-0.0550438
-0.0349942
-0.0141788
0.00739306
0.0296888
0.0526422
0.0761425
0.100023
0.124049
0.147905
0.171185
0.193384
0.213894
0.232006
0.24693
0.257815
0.263781
0.263999
0.257961
0.245299
0.223026
0.189234
-0.195194
-0.225732
-0.245505
-0.256503
-0.261802
-0.262042
-0.257889
-0.250174
-0.239654
-0.226955
-0.212581
-0.196918
-0.18024
-0.162733
-0.144505
-0.125609
-0.106051
-0.0858095
-0.064844
-0.0431064
-0.0205512
0.00285398
0.027119
0.0522193
0.078084
0.104582
0.131506
0.158558
0.185331
0.211296
0.235789
0.258008
0.277021
0.291791
0.301202
0.304153
0.299881
0.287769
0.264313
0.227343
-0.239397
-0.272859
-0.293617
-0.303949
-0.307498
-0.305204
-0.298007
-0.286995
-0.273122
-0.257156
-0.239689
-0.221155
-0.201847
-0.181944
-0.161535
-0.140638
-0.119224
-0.0972269
-0.0745608
-0.0511299
-0.0268394
-0.00160565
0.0246331
0.0519051
0.080192
0.109413
0.139405
0.169905
0.200524
0.230727
0.259807
0.286873
0.310845
0.330468
0.344338
0.351
0.34933
0.338343
0.313831
0.27327
-0.291058
-0.328043
-0.349696
-0.358733
-0.359615
-0.353736
-0.342427
-0.327115
-0.309002
-0.289018
-0.267847
-0.245963
-0.223661
-0.201099
-0.178327
-0.155318
-0.131989
-0.108219
-0.0838659
-0.058777
-0.0327987
-0.00578695
0.0223824
0.0518022
0.0825202
0.114522
0.147711
0.181881
0.216687
0.251613
0.285936
0.318691
0.348653
0.374327
0.393959
0.405643
0.407751
0.398745
0.373433
0.328767
-0.351935
-0.393217
-0.415514
-0.422246
-0.419103
-0.408161
-0.391306
-0.370405
-0.346959
-0.322069
-0.296503
-0.270752
-0.245087
-0.219617
-0.194331
-0.169134
-0.143874
-0.118361
-0.0923842
-0.0657235
-0.0381574
-0.00947274
0.0205271
0.0520113
0.0851085
0.11989
0.156346
0.194357
0.233658
0.27379
0.314052
0.353442
0.390608
0.423808
0.450886
0.469363
0.476921
0.471198
0.445571
0.396167
-0.424549
-0.4711
-0.493453
-0.496246
-0.487045
-0.468966
-0.444652
-0.416527
-0.386424
-0.355609
-0.324895
-0.294748
-0.265373
-0.23679
-0.208894
-0.181496
-0.154351
-0.127187
-0.0997114
-0.0716269
-0.0426357
-0.0124471
0.0192164
0.0526112
0.0879614
0.125442
0.165158
0.207111
0.251155
0.296944
0.343858
0.390919
0.436701
0.479237
0.515933
0.54361
0.559026
0.558603
0.533574
0.47868
-0.512666
-0.565606
-0.58675
-0.582918
-0.564616
-0.536491
-0.502195
-0.464808
-0.426496
-0.388633
-0.352003
-0.316971
-0.283608
-0.251792
-0.22128
-0.191753
-0.162857
-0.134214
-0.105441
-0.0761542
-0.0459729
-0.014523
0.018561
0.0536315
0.0910202
0.131026
0.173893
0.219782
0.268723
0.320546
0.374801
0.430629
0.48663
0.540691
0.589792
0.629952
0.65673
0.664786
0.64208
0.580903
-0.622155
-0.682505
-0.699807
-0.684917
-0.652943
-0.610733
-0.563189
-0.514081
-0.465823
-0.419759
-0.37651
-0.336218
-0.298725
-0.263694
-0.23069
-0.199233
-0.168828
-0.138979
-0.109201
-0.0790177
-0.0479626
-0.0155752
0.018601
0.0550196
0.0941299
0.136369
0.18215
0.231829
0.285671
0.343771
0.405956
0.471638
0.53961
0.60778
0.672823
0.729929
0.773197
0.794815
0.777719
0.70975
-0.762631
-0.830474
-0.838563
-0.805272
-0.752819
-0.691007
-0.626114
-0.56246
-0.502452
-0.447144
-0.396766
-0.351064
-0.309524
-0.271503
-0.236317
-0.203284
-0.171748
-0.141083
-0.110696
-0.0800156
-0.0484912
-0.0155777
0.0192705
0.0566085
0.0970065
0.141052
0.189344
0.242478
0.301012
0.365404
0.435904
0.512391
0.594116
0.679322
0.76468
0.844731
0.911989
0.955367
0.95021
0.876205
-0.950782
-1.02278
-1.01075
-0.94696
-0.864055
-0.775341
-0.688214
-0.607033
-0.533661
-0.468409
-0.410782
-0.359896
-0.314723
-0.27422
-0.237395
-0.203335
-0.171205
-0.140245
-0.109754
-0.0790739
-0.0475749
-0.0146366
0.0203679
0.0580878
0.0992108
0.144475
0.19468
0.250686
0.313404
0.38375
0.462568
0.550459
0.647509
0.752807
0.863639
0.974487
1.07657
1.15496
1.17409
1.09889
-1.21712
-1.27971
-1.22549
-1.11153
-0.984069
-0.85937
-0.744753
-0.643428
-0.555739
-0.480568
-0.416237
-0.360956
-0.313024
-0.27091
-0.233274
-0.198954
-0.166939
-0.136341
-0.106365
-0.0762782
-0.0453881
-0.0130144
0.0215347
0.058987
0.100132
0.145849
0.19713
0.255114
0.321098
0.396546
0.483053
0.58224
0.695512
0.823561
0.965373
1.11672
1.26883
1.40346
1.47114
1.41116
-1.61764
-1.63094
-1.49151
-1.29671
-1.10589
-0.935007
-0.788314
-0.665548
-0.563985
-0.480141
-0.410641
-0.352516
-0.303266
-0.26083
-0.223516
-0.189929
-0.158904
-0.129453
-0.100709
-0.0718924
-0.0422704
-0.0111272
0.0222693
0.0586991
0.0990264
0.14424
0.195502
0.254203
0.322028
0.401024
0.493662
0.602853
0.731867
0.883984
1.06156
1.26423
1.4865
1.71006
1.87238
1.87266
-2.25441
-2.11586
-1.81359
-1.49443
-1.21742
-0.990515
-0.809417
-0.666455
-0.553626
-0.464014
-0.392068
-0.333471
-0.284902
-0.243804
-0.208187
-0.176483
-0.147427
-0.119971
-0.0932211
-0.0663809
-0.0387115
-0.00949155
0.0220186
0.0566159
0.0951984
0.138818
0.188747
0.24657
0.314294
0.394506
0.490571
0.606862
0.748996
0.923952
1.13978
1.40422
1.72096
2.0794
2.41783
2.58903
-3.35614
-2.78296
-2.17273
-1.67591
-1.2926
-1.00574
-0.794157
-0.637281
-0.519335
-0.429177
-0.358976
-0.303185
-0.25784
-0.22006
-0.187703
-0.159136
-0.133079
-0.108493
-0.0845053
-0.0603482
-0.0353132
-0.0087107
0.0201688
0.0520953
0.0879473
0.128771
0.175863
0.230881
0.296004
0.374178
0.469463
0.587559
0.736543
0.92791
1.17799
1.50837
1.94106
2.49113
3.15773
3.79467
-5.52259
-3.65931
-2.43085
-1.71435
-1.24188
-0.92187
-0.704912
-0.554003
-0.445517
-0.365228
-0.304201
-0.256582
-0.218411
-0.186927
-0.160134
-0.13654
-0.114991
-0.0945604
-0.0744737
-0.0540525
-0.032672
-0.00972425
0.015417
0.0434332
0.0751056
0.111372
0.153405
0.202726
0.26138
0.332209
0.419296
0.528703
0.669717
0.857122
1.11547
1.484
2.01615
2.8053
4.12187
6.09344
-9.21004
-4.51834
-2.30603
-1.42124
-0.958917
-0.682867
-0.512224
-0.400562
-0.322901
-0.266405
-0.223884
-0.190908
-0.164567
-0.142853
-0.124309
-0.107838
-0.0925794
-0.0778362
-0.0630175
-0.0476023
-0.0311077
-0.0130627
0.00701765
0.029659
0.0554601
0.0851337
0.119564
0.159889
0.207628
0.264894
0.334744
0.421845
0.533743
0.683723
0.897414
1.22408
1.75395
2.73304
5.06019
9.8724
)
;

boundaryField
{
    movingWall
    {
        type            zeroGradient;
    }
    fixedWalls
    {
        type            zeroGradient;
    }
    frontAndBack
    {
        type            empty;
    }
}


// ************************************************************************* //
