/*--------------------------------*- C++ -*----------------------------------*\
  =========                 |
  \\      /  F ield         | OpenFOAM: The Open Source CFD Toolbox
   \\    /   O peration     | Website:  https://openfoam.org
    \\  /    A nd           | Version:  7
     \\/     M anipulation  |
\*---------------------------------------------------------------------------*/
FoamFile
{
    version     2.0;
    format      ascii;
    class       surfaceScalarField;
    location    "0.36";
    object      phi;
}
// * * * * * * * * * * * * * * * * * * * * * * * * * * * * * * * * * * * * * //

dimensions      [0 3 -1 0 0 0 0];

internalField   nonuniform List<scalar> 
3120
(
2.53352e-09
-2.55096e-09
4.09625e-09
-1.56275e-09
2.25318e-09
1.84306e-09
-3.55386e-09
5.80703e-09
-1.31359e-08
9.58203e-09
-2.59843e-08
1.28484e-08
-4.14594e-08
1.54752e-08
-5.88848e-08
1.74255e-08
-7.75928e-08
1.87081e-08
-9.69466e-08
1.93539e-08
-1.16352e-07
1.94054e-08
-1.35263e-07
1.89109e-08
-1.53184e-07
1.79216e-08
-1.69674e-07
1.64902e-08
-1.84344e-07
1.46699e-08
-1.96859e-07
1.25146e-08
-2.06937e-07
1.00784e-08
-2.14354e-07
7.41647e-09
-2.18939e-07
4.58501e-09
-2.2058e-07
1.64187e-09
-2.19227e-07
-1.35313e-09
-2.14889e-07
-4.3379e-09
-2.07641e-07
-7.248e-09
-1.97625e-07
-1.00168e-08
-1.85049e-07
-1.25759e-08
-1.70193e-07
-1.48557e-08
-1.53407e-07
-1.67868e-08
-1.35106e-07
-1.83008e-08
-1.15774e-07
-1.93321e-08
-9.59543e-08
-1.98196e-08
-7.62456e-08
-1.9709e-08
-5.72902e-08
-1.89555e-08
-3.97626e-08
-1.75275e-08
-2.43506e-08
-1.54118e-08
-1.17263e-08
-1.26242e-08
-2.49588e-09
-9.23056e-09
2.89719e-09
-5.39332e-09
4.35874e-09
-1.46174e-09
2.56159e-09
1.79716e-09
2.56173e-09
1.61443e-09
-4.16542e-09
-1.17449e-09
1.22616e-09
-1.1718e-08
1.23866e-08
-3.10767e-08
2.51657e-08
-5.9049e-08
3.75543e-08
-9.46913e-08
4.84906e-08
-1.36654e-07
5.74382e-08
-1.83399e-07
6.41697e-08
-2.33324e-07
6.86337e-08
-2.8485e-07
7.08797e-08
-3.36462e-07
7.10172e-08
-3.86742e-07
6.91917e-08
-4.34391e-07
6.55701e-08
-4.78233e-07
6.03327e-08
-5.17232e-07
5.36682e-08
-5.50488e-07
4.5771e-08
-5.7725e-07
3.68401e-08
-5.96913e-07
2.70799e-08
-6.09028e-07
1.66996e-08
-6.13301e-07
5.9152e-09
-6.09604e-07
-5.05055e-09
-5.97974e-07
-1.59674e-08
-5.78625e-07
-2.65976e-08
-5.51944e-07
-3.66971e-08
-5.18503e-07
-4.60172e-08
-4.79052e-07
-5.43072e-08
-4.3452e-07
-6.13188e-08
-3.8601e-07
-6.6811e-08
-3.34785e-07
-7.05564e-08
-2.82255e-07
-7.2349e-08
-2.29951e-07
-7.20134e-08
-1.7949e-07
-6.94167e-08
-1.32533e-07
-6.44846e-08
-9.07204e-08
-5.7225e-08
-5.55783e-08
-4.77661e-08
-2.83842e-08
-3.64244e-08
-9.94922e-09
-2.38282e-08
-2.92715e-10
-1.11184e-08
1.85449e-09
-3.50216e-10
4.41623e-09
-1.66899e-09
-2.49645e-09
-1.21192e-08
1.16763e-08
-3.40937e-08
3.43611e-08
-6.84551e-08
5.95272e-08
-1.1479e-07
8.38894e-08
-1.71813e-07
1.05514e-07
-2.37691e-07
1.23316e-07
-3.10286e-07
1.36765e-07
-3.8733e-07
1.45677e-07
-4.66537e-07
1.50087e-07
-5.45689e-07
1.50169e-07
-6.22683e-07
1.46186e-07
-6.95573e-07
1.3846e-07
-7.62591e-07
1.27351e-07
-8.22168e-07
1.13245e-07
-8.72941e-07
9.65449e-08
-9.1377e-07
7.76691e-08
-9.43739e-07
5.70484e-08
-9.62166e-07
3.51269e-08
-9.68614e-07
1.23625e-08
-9.62892e-07
-1.07723e-08
-9.45069e-07
-3.37905e-08
-9.15475e-07
-5.61909e-08
-8.74711e-07
-7.74611e-08
-8.23647e-07
-9.70814e-08
-7.63423e-07
-1.14531e-07
-6.95444e-07
-1.29298e-07
-6.21366e-07
-1.40889e-07
-5.43078e-07
-1.48844e-07
-4.62672e-07
-1.52755e-07
-3.824e-07
-1.52284e-07
-3.04624e-07
-1.47193e-07
-2.31735e-07
-1.37374e-07
-1.66057e-07
-1.22903e-07
-1.09715e-07
-1.04108e-07
-6.44522e-08
-8.16874e-08
-3.13849e-08
-5.68952e-08
-1.06916e-08
-3.18116e-08
-1.23902e-09
-9.80287e-09
3.17708e-09
-5.5697e-09
3.07324e-09
-2.49809e-08
3.10875e-08
-5.96913e-08
6.90714e-08
-1.09877e-07
1.09713e-07
-1.74647e-07
1.48659e-07
-2.52294e-07
1.83161e-07
-3.40548e-07
2.11569e-07
-4.36789e-07
2.33006e-07
-5.38227e-07
2.47116e-07
-6.42035e-07
2.53895e-07
-7.45442e-07
2.53576e-07
-8.45806e-07
2.4655e-07
-9.40668e-07
2.33322e-07
-1.02778e-06
2.14467e-07
-1.10515e-06
1.90615e-07
-1.17104e-06
1.62432e-07
-1.22399e-06
1.30614e-07
-1.26282e-06
9.5882e-08
-1.28667e-06
5.89805e-08
-1.29499e-06
2.06788e-08
-1.28753e-06
-1.82299e-08
-1.26439e-06
-5.69292e-08
-1.226e-06
-9.45812e-08
-1.17313e-06
-1.30332e-07
-1.1069e-06
-1.63317e-07
-1.02875e-06
-1.92677e-07
-9.40484e-07
-2.17566e-07
-8.44194e-07
-2.3718e-07
-7.42268e-07
-2.50771e-07
-6.37336e-07
-2.57686e-07
-5.32222e-07
-2.57399e-07
-4.29864e-07
-2.49551e-07
-3.33223e-07
-2.34015e-07
-2.45163e-07
-2.10963e-07
-1.68298e-07
-1.80973e-07
-1.04805e-07
-1.45181e-07
-5.62015e-08
-1.05499e-07
-2.31021e-08
-6.49107e-08
-4.9866e-09
-2.79183e-08
-1.80966e-09
-9.46976e-09
1.2543e-08
-3.81787e-08
5.97964e-08
-8.60855e-08
1.16978e-07
-1.52404e-07
1.76031e-07
-2.35565e-07
2.31821e-07
-3.33331e-07
2.80927e-07
-4.42963e-07
3.212e-07
-5.61394e-07
3.51437e-07
-6.85387e-07
3.71109e-07
-8.11664e-07
3.80173e-07
-9.3701e-07
3.78921e-07
-1.05835e-06
3.6789e-07
-1.17281e-06
3.47784e-07
-1.27777e-06
3.19428e-07
-1.37089e-06
2.83729e-07
-1.45011e-06
2.41659e-07
-1.51374e-06
1.94239e-07
-1.56039e-06
1.42531e-07
-1.58904e-06
8.76333e-08
-1.59904e-06
3.06813e-08
-1.59012e-06
-2.71544e-08
-1.56238e-06
-8.467e-08
-1.51633e-06
-1.40632e-07
-1.45287e-06
-1.93786e-07
-1.37332e-06
-2.42867e-07
-1.27938e-06
-2.86615e-07
-1.17315e-06
-3.23803e-07
-1.05706e-06
-3.53261e-07
-9.33924e-07
-3.73913e-07
-8.06787e-07
-3.84823e-07
-6.78936e-07
-3.85249e-07
-5.53785e-07
-3.74702e-07
-4.34773e-07
-3.53026e-07
-3.25238e-07
-3.20499e-07
-2.28257e-07
-2.77954e-07
-1.46483e-07
-2.26955e-07
-8.19512e-08
-1.7003e-07
-3.59186e-08
-1.10943e-07
-8.75652e-09
-5.50802e-08
-1.05662e-08
-1.31643e-08
2.57073e-08
-5.10337e-08
9.76658e-08
-1.12106e-07
1.7805e-07
-1.94522e-07
2.58447e-07
-2.95906e-07
3.33205e-07
-4.13394e-07
3.98415e-07
-5.43726e-07
4.51533e-07
-6.83379e-07
4.91089e-07
-8.28691e-07
5.16422e-07
-9.75987e-07
5.27468e-07
-1.12167e-06
5.24604e-07
-1.2623e-06
5.08526e-07
-1.39469e-06
4.80166e-07
-1.51588e-06
4.40621e-07
-1.62326e-06
3.91112e-07
-1.71455e-06
3.32951e-07
-1.78784e-06
2.6752e-07
-1.84157e-06
1.96262e-07
-1.8746e-06
1.2067e-07
-1.88621e-06
4.22901e-08
-1.87608e-06
-3.72865e-08
-1.84433e-06
-1.16424e-07
-1.79151e-06
-1.93446e-07
-1.71865e-06
-2.66653e-07
-1.62718e-06
-3.3433e-07
-1.51902e-06
-3.94775e-07
-1.3965e-06
-4.4633e-07
-1.26234e-06
-4.87417e-07
-1.11966e-06
-5.16593e-07
-9.71878e-07
-5.32604e-07
-8.22667e-07
-5.3446e-07
-6.75854e-07
-5.21515e-07
-5.35316e-07
-4.93565e-07
-4.04845e-07
-4.50969e-07
-2.88011e-07
-3.94788e-07
-1.87999e-07
-3.26967e-07
-1.07471e-07
-2.50559e-07
-4.8458e-08
-1.69956e-07
-1.23376e-08
-9.12004e-08
-2.29036e-08
-1.6613e-08
4.23202e-08
-6.33195e-08
1.44372e-07
-1.37289e-07
2.5202e-07
-2.35578e-07
3.56735e-07
-3.54942e-07
4.52569e-07
-4.91816e-07
5.3529e-07
-6.4237e-07
6.02086e-07
-8.02592e-07
6.51311e-07
-9.684e-07
6.8223e-07
-1.13574e-06
6.94806e-07
-1.30067e-06
6.89532e-07
-1.45944e-06
6.67299e-07
-1.60857e-06
6.29294e-07
-1.74487e-06
5.76918e-07
-1.86549e-06
5.11732e-07
-1.96795e-06
4.35419e-07
-2.05019e-06
3.49753e-07
-2.11051e-06
2.56587e-07
-2.14769e-06
1.57845e-07
-2.16091e-06
5.55119e-08
-2.14983e-06
-4.83661e-08
-2.11457e-06
-1.51687e-07
-2.05571e-06
-2.52299e-07
-1.97435e-06
-3.48018e-07
-1.87203e-06
-4.36644e-07
-1.75082e-06
-5.15993e-07
-1.61321e-06
-5.83935e-07
-1.46218e-06
-6.38447e-07
-1.3011e-06
-6.77676e-07
-1.13369e-06
-7.0001e-07
-9.63984e-07
-7.04171e-07
-7.96182e-07
-6.89316e-07
-6.34593e-07
-6.55154e-07
-4.83483e-07
-6.02079e-07
-3.46947e-07
-5.31323e-07
-2.28776e-07
-4.45139e-07
-1.32337e-07
-3.46998e-07
-6.05081e-08
-2.41786e-07
-1.5691e-08
-1.36018e-07
-3.85944e-08
-1.98449e-08
6.2165e-08
-7.504e-08
1.99567e-07
-1.61571e-07
3.38551e-07
-2.75443e-07
4.70607e-07
-4.12521e-07
5.89647e-07
-5.68497e-07
6.91266e-07
-7.38922e-07
7.72511e-07
-9.1927e-07
8.31659e-07
-1.10502e-06
8.67981e-07
-1.29174e-06
8.81528e-07
-1.47518e-06
8.72965e-07
-1.65129e-06
8.43417e-07
-1.81636e-06
7.94361e-07
-1.96698e-06
7.27537e-07
-2.10012e-06
6.44875e-07
-2.21316e-06
5.48454e-07
-2.30387e-06
4.40469e-07
-2.37049e-06
3.23208e-07
-2.41169e-06
1.99044e-07
-2.42661e-06
7.04255e-08
-2.41485e-06
-6.01223e-08
-2.37653e-06
-1.90008e-07
-2.31225e-06
-3.16579e-07
-2.22313e-06
-4.3714e-07
-2.1108e-06
-5.48975e-07
-1.97741e-06
-6.49384e-07
-1.82561e-06
-7.3573e-07
-1.65855e-06
-8.05503e-07
-1.47983e-06
-8.56395e-07
-1.29346e-06
-8.86389e-07
-1.10375e-06
-8.93871e-07
-9.15326e-07
-8.77745e-07
-7.32908e-07
-8.37572e-07
-5.61269e-07
-7.73718e-07
-4.05082e-07
-6.87511e-07
-2.68798e-07
-5.81422e-07
-1.56553e-07
-4.59243e-07
-7.21034e-08
-3.26235e-07
-1.88533e-08
-1.89268e-07
-5.74475e-08
-2.29123e-08
8.50772e-08
-8.63007e-08
2.62956e-07
-1.85087e-07
4.37337e-07
-3.14269e-07
5.99789e-07
-4.68821e-07
7.44198e-07
-6.43666e-07
8.66111e-07
-8.33706e-07
9.62551e-07
-1.03387e-06
1.03182e-06
-1.23918e-06
1.07329e-06
-1.44484e-06
1.08718e-06
-1.64626e-06
1.07439e-06
-1.83917e-06
1.03632e-06
-2.0196e-06
9.74795e-07
-2.18399e-06
8.91924e-07
-2.32915e-06
7.90038e-07
-2.45234e-06
6.71642e-07
-2.55124e-06
5.39367e-07
-2.62399e-06
3.95956e-07
-2.66919e-06
2.44247e-07
-2.68593e-06
8.71681e-08
-2.67379e-06
-7.22652e-08
-2.63284e-06
-2.30957e-07
-2.56368e-06
-3.85737e-07
-2.46744e-06
-5.33379e-07
-2.34579e-06
-6.70627e-07
-2.20094e-06
-7.94236e-07
-2.03564e-06
-9.01026e-07
-1.85319e-06
-9.87957e-07
-1.65737e-06
-1.05222e-06
-1.45242e-06
-1.09133e-06
-1.24302e-06
-1.10328e-06
-1.03411e-06
-1.08665e-06
-8.30902e-07
-1.04078e-06
-6.38698e-07
-9.65922e-07
-4.62794e-07
-8.63415e-07
-3.08359e-07
-7.35856e-07
-1.80339e-07
-5.87263e-07
-8.33925e-08
-4.23182e-07
-2.18889e-08
-2.50771e-07
-7.93365e-08
-2.58709e-08
1.10948e-07
-9.7243e-08
3.34328e-07
-2.08055e-07
5.48149e-07
-3.5234e-07
7.44075e-07
-5.24185e-07
9.16043e-07
-7.17728e-07
1.05965e-06
-9.27196e-07
1.17202e-06
-1.14695e-06
1.25158e-06
-1.37155e-06
1.2979e-06
-1.59581e-06
1.31144e-06
-1.81483e-06
1.29341e-06
-2.0241e-06
1.24559e-06
-2.21946e-06
1.17016e-06
-2.3972e-06
1.06966e-06
-2.55401e-06
9.46846e-07
-2.68704e-06
8.04677e-07
-2.79392e-06
6.4624e-07
-2.8727e-06
4.74744e-07
-2.92196e-06
2.93501e-07
-2.94071e-06
1.05923e-07
-2.9285e-06
-8.44788e-08
-2.88536e-06
-2.74098e-07
-2.81186e-06
-4.59239e-07
-2.7091e-06
-6.36131e-07
-2.57877e-06
-8.00962e-07
-2.42309e-06
-9.49912e-07
-2.24489e-06
-1.07923e-06
-2.04756e-06
-1.18529e-06
-1.83504e-06
-1.26473e-06
-1.61182e-06
-1.31455e-06
-1.38285e-06
-1.33225e-06
-1.15348e-06
-1.31602e-06
-9.29396e-07
-1.26487e-06
-7.16465e-07
-1.17885e-06
-5.20658e-07
-1.05922e-06
-3.47912e-07
-9.08602e-07
-2.04023e-07
-7.31151e-07
-9.45691e-08
-5.32636e-07
-2.48691e-08
-3.20472e-07
-1.04206e-07
-2.8773e-08
1.39721e-07
-1.08013e-07
4.13568e-07
-2.30723e-07
6.70858e-07
-3.89991e-07
9.03344e-07
-5.79019e-07
1.10507e-06
-7.91146e-07
1.27178e-06
-1.01991e-06
1.40078e-06
-1.25907e-06
1.49075e-06
-1.50273e-06
1.54155e-06
-1.74529e-06
1.554e-06
-1.98158e-06
1.5297e-06
-2.20683e-06
1.47084e-06
-2.41673e-06
1.38006e-06
-2.60744e-06
1.26036e-06
-2.77555e-06
1.11496e-06
-2.91818e-06
9.47299e-07
-3.03286e-06
7.60926e-07
-3.11764e-06
5.59526e-07
-3.17103e-06
3.46889e-07
-3.19202e-06
1.26907e-07
-3.18008e-06
-9.64164e-08
-3.13521e-06
-3.18968e-07
-3.05792e-06
-5.36527e-07
-2.94928e-06
-7.44775e-07
-2.81091e-06
-9.39327e-07
-2.64505e-06
-1.11577e-06
-2.45454e-06
-1.26974e-06
-2.24283e-06
-1.397e-06
-2.014e-06
-1.49356e-06
-1.77275e-06
-1.55581e-06
-1.52431e-06
-1.58069e-06
-1.27443e-06
-1.5659e-06
-1.02928e-06
-1.51001e-06
-7.95355e-07
-1.41278e-06
-5.79336e-07
-1.27524e-06
-3.87975e-07
-1.09996e-06
-2.27968e-07
-8.91158e-07
-1.05839e-07
-6.54764e-07
-2.78631e-08
-3.98448e-07
-1.32069e-07
-3.16646e-08
1.71385e-07
-1.1875e-07
5.00653e-07
-2.53332e-07
8.0544e-07
-4.27559e-07
1.07757e-06
-6.33734e-07
1.31124e-06
-8.64384e-07
1.50243e-06
-1.11233e-06
1.64872e-06
-1.37074e-06
1.74916e-06
-1.63321e-06
1.80401e-06
-1.89376e-06
1.81456e-06
-2.14694e-06
1.78288e-06
-2.38777e-06
1.71167e-06
-2.61179e-06
1.60408e-06
-2.81505e-06
1.46362e-06
-2.99411e-06
1.29403e-06
-3.14603e-06
1.09922e-06
-3.26835e-06
8.83241e-07
-3.35907e-06
6.50248e-07
-3.41668e-06
4.04498e-07
-3.44013e-06
1.50356e-07
-3.42885e-06
-1.07698e-07
-3.38276e-06
-3.65057e-07
-3.3023e-06
-6.16984e-07
-3.18846e-06
-8.58617e-07
-3.04279e-06
-1.08499e-06
-2.86747e-06
-1.29109e-06
-2.66531e-06
-1.4719e-06
-2.4398e-06
-1.62251e-06
-2.19512e-06
-1.73824e-06
-1.93611e-06
-1.81481e-06
-1.66831e-06
-1.8485e-06
-1.39785e-06
-1.83635e-06
-1.13142e-06
-1.77644e-06
-8.76159e-07
-1.66804e-06
-6.39503e-07
-1.5119e-06
-4.29082e-07
-1.31038e-06
-2.52542e-07
-1.0677e-06
-1.17406e-07
-7.899e-07
-3.09362e-08
-4.84917e-07
-1.63005e-07
-3.45862e-08
2.05972e-07
-1.29579e-07
5.95647e-07
-2.76108e-07
9.51968e-07
-4.65359e-07
1.26682e-06
-6.88715e-07
1.5346e-06
-9.37861e-07
1.75158e-06
-1.20488e-06
1.91574e-06
-1.48234e-06
2.02662e-06
-1.76332e-06
2.085e-06
-2.04149e-06
2.09273e-06
-2.31109e-06
2.05248e-06
-2.56697e-06
1.96755e-06
-2.80456e-06
1.84167e-06
-3.01986e-06
1.67892e-06
-3.20941e-06
1.48357e-06
-3.37025e-06
1.26007e-06
-3.49994e-06
1.01293e-06
-3.5965e-06
7.46806e-07
-3.6584e-06
4.66392e-07
-3.68455e-06
1.76508e-07
-3.67433e-06
-1.17912e-07
-3.6276e-06
-4.11794e-07
-3.54468e-06
-6.99904e-07
-3.42644e-06
-9.76851e-07
-3.27434e-06
-1.2371e-06
-3.09043e-06
-1.475e-06
-2.87746e-06
-1.68487e-06
-2.63888e-06
-1.86109e-06
-2.37892e-06
-1.99821e-06
-2.10257e-06
-2.09116e-06
-1.8156e-06
-2.13546e-06
-1.52455e-06
-2.1274e-06
-1.23662e-06
-2.06437e-06
-9.59626e-07
-1.94504e-06
-7.01816e-07
-1.76971e-06
-4.71752e-07
-1.54045e-06
-2.78104e-07
-1.26135e-06
-1.29463e-07
-9.38541e-07
-3.41488e-08
-5.80231e-07
-1.97153e-07
-3.75728e-08
2.43544e-07
-1.40613e-07
6.98687e-07
-2.99255e-07
1.11061e-06
-5.03677e-07
1.47124e-06
-7.44299e-07
1.77522e-06
-1.01193e-06
2.01921e-06
-1.2979e-06
2.20171e-06
-1.59414e-06
2.32285e-06
-1.89323e-06
2.38409e-06
-2.18847e-06
2.38797e-06
-2.47386e-06
2.33787e-06
-2.7441e-06
2.23778e-06
-2.99453e-06
2.09211e-06
-3.22116e-06
1.90554e-06
-3.42054e-06
1.68295e-06
-3.58978e-06
1.4293e-06
-3.72646e-06
1.14962e-06
-3.82866e-06
8.49e-07
-3.89484e-06
5.32578e-07
-3.92392e-06
2.05587e-07
-3.91522e-06
-1.26619e-07
-3.86848e-06
-4.58534e-07
-3.78391e-06
-7.84465e-07
-3.66225e-06
-1.09851e-06
-3.50476e-06
-1.39459e-06
-3.31336e-06
-1.66641e-06
-3.09063e-06
-1.9076e-06
-2.83996e-06
-2.11176e-06
-2.56553e-06
-2.27263e-06
-2.27245e-06
-2.38425e-06
-1.96669e-06
-2.44122e-06
-1.65515e-06
-2.43895e-06
-1.34556e-06
-2.37395e-06
-1.04643e-06
-2.24417e-06
-7.66879e-07
-2.04926e-06
-5.16473e-07
-1.79085e-06
-3.04991e-07
-1.47283e-06
-1.42192e-07
-1.10134e-06
-3.7557e-08
-6.84867e-07
-2.3471e-07
-4.06566e-08
2.84201e-07
-1.51956e-07
8.09986e-07
-3.22959e-07
1.28161e-06
-5.4277e-07
1.69105e-06
-8.00783e-07
2.03324e-06
-1.08689e-06
2.30531e-06
-1.39161e-06
2.50644e-06
-1.70623e-06
2.63747e-06
-2.02286e-06
2.70071e-06
-2.33443e-06
2.69954e-06
-2.63474e-06
2.63818e-06
-2.91836e-06
2.52141e-06
-3.18065e-06
2.3544e-06
-3.41763e-06
2.14252e-06
-3.62595e-06
1.89128e-06
-3.80282e-06
1.60617e-06
-3.94594e-06
1.29274e-06
-4.05343e-06
9.56488e-07
-4.12381e-06
6.02966e-07
-4.156e-06
2.37777e-07
-4.14926e-06
-1.33359e-07
-4.10324e-06
-5.04555e-07
-4.018e-06
-8.69706e-07
-3.89406e-06
-1.22245e-06
-3.73249e-06
-1.55616e-06
-3.53496e-06
-1.86394e-06
-3.30385e-06
-2.13871e-06
-3.04237e-06
-2.37324e-06
-2.75463e-06
-2.56037e-06
-2.44572e-06
-2.69316e-06
-2.12178e-06
-2.76515e-06
-1.79004e-06
-2.77069e-06
-1.45875e-06
-2.70524e-06
-1.13714e-06
-2.56579e-06
-8.35237e-07
-2.35116e-06
-5.63698e-07
-2.06239e-06
-3.33525e-07
-1.703e-06
-1.55769e-07
-1.2791e-06
-4.12146e-08
-7.99421e-07
-2.75925e-07
-4.3868e-08
3.28069e-07
-1.63705e-07
9.29823e-07
-3.47398e-07
1.46531e-06
-5.82873e-07
1.92653e-06
-8.58418e-07
2.30878e-06
-1.16293e-06
2.60983e-06
-1.48611e-06
2.82961e-06
-1.81856e-06
2.96993e-06
-2.15191e-06
3.03407e-06
-2.47879e-06
3.02642e-06
-2.79281e-06
2.9522e-06
-3.08851e-06
2.81711e-06
-3.36129e-06
2.62718e-06
-3.6073e-06
2.38853e-06
-3.82335e-06
2.10732e-06
-4.00681e-06
1.78963e-06
-4.15553e-06
1.44146e-06
-4.26777e-06
1.06873e-06
-4.34213e-06
6.77332e-07
-4.37755e-06
2.73193e-07
-4.37324e-06
-1.37668e-07
-4.32874e-06
-5.49053e-07
-4.24394e-06
-9.5451e-07
-4.11912e-06
-1.34727e-06
-3.95505e-06
-1.72022e-06
-3.75311e-06
-2.06588e-06
-3.51539e-06
-2.37643e-06
-3.24482e-06
-2.64382e-06
-2.9453e-06
-2.85989e-06
-2.62186e-06
-3.0166e-06
-2.28072e-06
-3.10629e-06
-1.92936e-06
-3.12205e-06
-1.57654e-06
-3.05806e-06
-1.23221e-06
-2.91012e-06
-9.07362e-07
-2.676e-06
-6.13844e-07
-2.35591e-06
-3.64006e-07
-1.95284e-06
-1.7036e-07
-1.47274e-06
-4.51737e-08
-9.24607e-07
-3.21098e-07
-4.72388e-08
3.75307e-07
-1.75963e-07
1.05855e-06
-3.7275e-07
1.66209e-06
-6.24217e-07
2.178e-06
-9.17433e-07
2.602e-06
-1.24022e-06
2.93262e-06
-1.58139e-06
3.17078e-06
-1.93089e-06
3.31942e-06
-2.27985e-06
3.38303e-06
-2.62063e-06
3.3672e-06
-2.94675e-06
3.27831e-06
-3.25277e-06
3.12314e-06
-3.53424e-06
2.90865e-06
-3.78752e-06
2.64181e-06
-4.00965e-06
2.32946e-06
-4.19827e-06
1.97825e-06
-4.35145e-06
1.59464e-06
-4.46765e-06
1.18492e-06
-4.54558e-06
7.55271e-07
-4.58424e-06
3.11854e-07
-4.58282e-06
-1.39092e-07
-4.54073e-06
-5.91144e-07
-4.45765e-06
-1.03759e-06
-4.33358e-06
-1.47134e-06
-4.16896e-06
-1.88484e-06
-3.96476e-06
-2.27008e-06
-3.72266e-06
-2.61853e-06
-3.44521e-06
-2.92127e-06
-3.136e-06
-3.1691e-06
-2.79984e-06
-3.35275e-06
-2.44293e-06
-3.4632e-06
-2.07294e-06
-3.49204e-06
-1.69905e-06
-3.43195e-06
-1.33195e-06
-3.27723e-06
-9.83653e-07
-3.0243e-06
-6.67291e-07
-2.67227e-06
-3.96727e-07
-2.2234e-06
-1.86131e-07
-1.68334e-06
-4.94869e-08
-1.06125e-06
-3.70585e-07
-5.08046e-08
4.26112e-07
-1.88844e-07
1.19659e-06
-3.99208e-07
1.87246e-06
-6.67039e-07
2.44583e-06
-9.78043e-07
2.913e-06
-1.31887e-06
3.27344e-06
-1.67737e-06
3.52928e-06
-2.0428e-06
3.68485e-06
-2.40585e-06
3.74608e-06
-2.75867e-06
3.72002e-06
-3.09474e-06
3.61438e-06
-3.40878e-06
3.43718e-06
-3.69659e-06
3.19645e-06
-3.95482e-06
2.90005e-06
-4.1809e-06
2.55554e-06
-4.3728e-06
2.17014e-06
-4.52891e-06
1.75075e-06
-4.64794e-06
1.30395e-06
-4.72881e-06
8.36145e-07
-4.7706e-06
3.53637e-07
-4.77247e-06
-1.37217e-07
-4.73374e-06
-6.29878e-07
-4.65384e-06
-1.11748e-06
-4.53247e-06
-1.59272e-06
-4.36961e-06
-2.0477e-06
-4.16577e-06
-2.47392e-06
-3.92208e-06
-2.86221e-06
-3.64059e-06
-3.20277e-06
-3.3244e-06
-3.48529e-06
-2.97799e-06
-3.69917e-06
-2.60735e-06
-3.83384e-06
-2.22021e-06
-3.87917e-06
-1.82615e-06
-3.82602e-06
-1.43652e-06
-3.66685e-06
-1.06442e-06
-3.39639e-06
-7.24388e-07
-3.01231e-06
-4.31973e-07
-2.51582e-06
-2.03254e-07
-1.91206e-06
-5.42098e-08
-1.2103e-06
-4.24795e-07
-5.4609e-08
4.80721e-07
-2.02484e-07
1.34446e-06
-4.27003e-07
2.09698e-06
-7.11615e-07
2.73044e-06
-1.04048e-06
3.24187e-06
-1.39893e-06
3.63189e-06
-1.77382e-06
3.90417e-06
-2.15367e-06
4.06471e-06
-2.52879e-06
4.1212e-06
-2.89119e-06
4.08242e-06
-3.23445e-06
3.95764e-06
-3.55354e-06
3.75628e-06
-3.84464e-06
3.48755e-06
-4.10489e-06
3.16029e-06
-4.33217e-06
2.78281e-06
-4.52492e-06
2.36289e-06
-4.68195e-06
1.90779e-06
-4.80233e-06
1.42433e-06
-4.88521e-06
9.1903e-07
-4.92981e-06
3.98241e-07
-4.93534e-06
-1.31695e-07
-4.90096e-06
-6.64251e-07
-4.8259e-06
-1.19255e-06
-4.70944e-06
-1.70917e-06
-4.5511e-06
-2.20604e-06
-4.35077e-06
-2.67425e-06
-4.10895e-06
-3.10403e-06
-3.82697e-06
-3.48475e-06
-3.5073e-06
-3.80495e-06
-3.15386e-06
-4.05261e-06
-2.77228e-06
-4.21542e-06
-2.3702e-06
-4.28126e-06
-1.95739e-06
-4.23882e-06
-1.54591e-06
-4.07834e-06
-1.14991e-06
-3.79239e-06
-7.85463e-07
-3.37676e-06
-4.70037e-07
-2.83124e-06
-2.21909e-07
-2.16018e-06
-5.94031e-08
-1.3728e-06
-4.84198e-07
-5.87083e-08
5.39429e-07
-2.17057e-07
1.50281e-06
-4.56423e-07
2.33634e-06
-7.5828e-07
3.0323e-06
-1.10501e-06
3.58859e-06
-1.48047e-06
4.00736e-06
-1.87042e-06
4.29412e-06
-2.26268e-06
4.45697e-06
-2.64722e-06
4.50574e-06
-3.01602e-06
4.45122e-06
-3.36291e-06
4.30452e-06
-3.68328e-06
4.07665e-06
-3.97387e-06
3.77814e-06
-4.23242e-06
3.41884e-06
-4.45745e-06
3.00784e-06
-4.648e-06
2.55343e-06
-4.80341e-06
2.0632e-06
-4.92318e-06
1.5441e-06
-5.00681e-06
1.00266e-06
-5.0537e-06
4.45136e-07
-5.06312e-06
-1.22281e-07
-5.03414e-06
-6.93233e-07
-4.9657e-06
-1.26098e-06
-4.8567e-06
-1.81817e-06
-4.70608e-06
-2.35666e-06
-4.51303e-06
-2.8673e-06
-4.27723e-06
-3.33983e-06
-3.99916e-06
-3.76282e-06
-3.68042e-06
-4.12369e-06
-3.32414e-06
-4.40889e-06
-2.93535e-06
-4.60421e-06
-2.52136e-06
-4.69526e-06
-2.09201e-06
-4.66817e-06
-1.65988e-06
-4.51046e-06
-1.24025e-06
-4.21202e-06
-8.50823e-07
-3.76619e-06
-5.11227e-07
-3.17084e-06
-2.42298e-07
-2.42911e-06
-6.51368e-08
-1.54996e-06
-5.49335e-07
-6.3178e-08
6.02607e-07
-2.32794e-07
1.67243e-06
-4.87847e-07
2.59139e-06
-8.07467e-07
3.35192e-06
-1.17196e-06
3.95309e-06
-1.56353e-06
4.39893e-06
-1.96675e-06
4.69733e-06
-2.36876e-06
4.85898e-06
-2.75927e-06
4.89626e-06
-3.13041e-06
4.82236e-06
-3.47644e-06
4.65054e-06
-3.79338e-06
4.3936e-06
-4.07872e-06
4.06348e-06
-4.331e-06
3.67113e-06
-4.54954e-06
3.22638e-06
-4.73411e-06
2.73801e-06
-4.88474e-06
2.21382e-06
-5.00145e-06
1.66082e-06
-5.08417e-06
1.08538e-06
-5.13255e-06
4.9352e-07
-5.14596e-06
-1.08877e-07
-5.12339e-06
-7.15799e-07
-5.06354e-06
-1.32083e-06
-4.96484e-06
-1.91687e-06
-4.82561e-06
-2.4959e-06
-4.64422e-06
-3.04869e-06
-4.41941e-06
-3.56464e-06
-4.15059e-06
-4.03165e-06
-3.83824e-06
-4.43603e-06
-3.48444e-06
-4.76269e-06
-3.09331e-06
-4.99534e-06
-2.67152e-06
-5.11704e-06
-2.22876e-06
-5.11094e-06
-1.77797e-06
-4.96124e-06
-1.33549e-06
-4.6545e-06
-9.20769e-07
-4.18091e-06
-5.55887e-07
-3.53572e-06
-2.64658e-07
-2.72034e-06
-7.14948e-08
-1.74312e-06
-6.2083e-07
-6.81216e-08
6.70729e-07
-2.5001e-07
1.85431e-06
-5.21779e-07
2.86316e-06
-8.59742e-07
3.68988e-06
-1.24176e-06
4.33511e-06
-1.64815e-06
4.80532e-06
-2.06222e-06
5.1114e-06
-2.47047e-06
5.26723e-06
-2.86255e-06
5.28833e-06
-3.23091e-06
5.19072e-06
-3.57048e-06
4.99012e-06
-3.87818e-06
4.7013e-06
-4.15248e-06
4.33777e-06
-4.39294e-06
3.91158e-06
-4.59986e-06
3.4333e-06
-4.77392e-06
2.91207e-06
-4.91593e-06
2.35583e-06
-5.02658e-06
1.77147e-06
-5.10628e-06
1.16508e-06
-5.15503e-06
5.42273e-07
-5.17234e-06
-9.157e-08
-5.15717e-06
-7.30971e-07
-5.10795e-06
-1.37004e-06
-5.02267e-06
-2.00216e-06
-4.89895e-06
-2.61962e-06
-4.73427e-06
-3.21336e-06
-4.52626e-06
-3.77265e-06
-4.27305e-06
-4.28485e-06
-3.97376e-06
-4.73532e-06
-3.62907e-06
-5.10739e-06
-3.24182e-06
-5.3826e-06
-2.8177e-06
-5.54116e-06
-2.36587e-06
-5.56277e-06
-1.89939e-06
-5.42772e-06
-1.43553e-06
-5.11836e-06
-9.95604e-07
-4.62084e-06
-6.04415e-07
-3.92691e-06
-2.89277e-07
-3.03548e-06
-7.85822e-08
-1.95382e-06
-6.99412e-07
-7.36823e-08
7.44411e-07
-2.6913e-07
2.04976e-06
-5.58897e-07
3.15293e-06
-9.1585e-07
4.04683e-06
-1.31494e-06
4.73419e-06
-1.73433e-06
5.22471e-06
-2.15602e-06
5.53309e-06
-2.56598e-06
5.6772e-06
-2.95399e-06
5.67634e-06
-3.31315e-06
5.54988e-06
-3.63937e-06
5.31634e-06
-3.93077e-06
4.99269e-06
-4.18706e-06
4.59407e-06
-4.40908e-06
4.1336e-06
-4.5983e-06
3.62252e-06
-4.75648e-06
3.07025e-06
-4.88534e-06
2.48469e-06
-4.98633e-06
1.87246e-06
-5.06045e-06
1.2392e-06
-5.1081e-06
5.89922e-07
-5.12899e-06
-7.0681e-08
-5.12209e-06
-7.37873e-07
-5.08562e-06
-1.40651e-06
-5.01709e-06
-2.07068e-06
-4.91342e-06
-2.72329e-06
-4.77113e-06
-3.35566e-06
-4.58659e-06
-3.95719e-06
-4.35647e-06
-4.51497e-06
-4.07823e-06
-5.01356e-06
-3.75078e-06
-5.43484e-06
-3.37526e-06
-5.75811e-06
-2.95591e-06
-5.96052e-06
-2.50086e-06
-6.01782e-06
-2.02295e-06
-5.90563e-06
-1.54015e-06
-5.60116e-06
-1.07564e-06
-5.08535e-06
-6.57291e-07
-4.34526e-06
-3.1652e-07
-3.37625e-06
-8.65355e-08
-2.1838e-06
-7.85948e-07
-8.00602e-08
8.24471e-07
-2.90741e-07
2.26044e-06
-6.00111e-07
3.4623e-06
-9.76756e-07
4.42348e-06
-1.39214e-06
5.14957e-06
-1.82199e-06
5.65456e-06
-2.24698e-06
5.95809e-06
-2.65277e-06
6.08299e-06
-3.02959e-06
6.05316e-06
-3.37159e-06
5.89188e-06
-3.67607e-06
5.62081e-06
-3.94267e-06
5.2593e-06
-4.17272e-06
4.82411e-06
-4.36855e-06
4.32943e-06
-4.53303e-06
3.787e-06
-4.66913e-06
3.20635e-06
-4.77961e-06
2.59517e-06
-4.86677e-06
1.95962e-06
-4.93227e-06
1.3047e-06
-4.97698e-06
6.34624e-07
-5.00086e-06
-4.67974e-08
-5.00295e-06
-7.35781e-07
-4.9813e-06
-1.42817e-06
-4.933e-06
-2.11899e-06
-4.85426e-06
-2.80202e-06
-4.74058e-06
-3.46933e-06
-4.58703e-06
-4.11074e-06
-4.3886e-06
-4.7134e-06
-4.14081e-06
-5.26136e-06
-3.84042e-06
-5.73523e-06
-3.48637e-06
-6.11216e-06
-3.08082e-06
-6.36606e-06
-2.63033e-06
-6.46831e-06
-2.14691e-06
-6.38905e-06
-1.64888e-06
-6.09919e-06
-1.1612e-06
-5.57303e-06
-7.15117e-07
-4.79135e-06
-3.46864e-07
-3.74451e-06
-9.55369e-08
-2.43513e-06
-8.81484e-07
-8.75368e-08
9.12008e-07
-3.15648e-07
2.48855e-06
-6.46634e-07
3.79329e-06
-1.04369e-06
4.82054e-06
-1.47408e-06
5.57996e-06
-1.91083e-06
6.09131e-06
-2.33337e-06
6.38063e-06
-2.72739e-06
6.477e-06
-3.08405e-06
6.40982e-06
-3.3991e-06
6.20692e-06
-3.67169e-06
5.89341e-06
-3.90347e-06
5.49108e-06
-4.09769e-06
5.01833e-06
-4.25845e-06
4.4902e-06
-4.3902e-06
3.91875e-06
-4.49726e-06
3.31341e-06
-4.5835e-06
2.68142e-06
-4.65214e-06
2.02827e-06
-4.70555e-06
1.35811e-06
-4.7451e-06
6.74175e-07
-4.7711e-06
-2.0801e-08
-4.78269e-06
-7.24192e-07
-4.77782e-06
-1.43304e-06
-4.75323e-06
-2.14358e-06
-4.70448e-06
-2.85077e-06
-4.6261e-06
-3.54771e-06
-4.51176e-06
-4.22508e-06
-4.35468e-06
-4.87048e-06
-4.14819e-06
-5.46785e-06
-3.8865e-06
-5.99692e-06
-3.56578e-06
-6.43288e-06
-3.18544e-06
-6.7464e-06
-2.74963e-06
-6.90411e-06
-2.26879e-06
-6.86989e-06
-1.76096e-06
-6.60702e-06
-1.25263e-06
-6.08135e-06
-7.78659e-07
-5.26532e-06
-3.8095e-07
-4.14222e-06
-1.05837e-07
-2.71024e-06
-9.87322e-07
-9.65116e-08
1.00852e-06
-3.44962e-07
2.737e-06
-7.00071e-07
4.1484e-06
-1.11818e-06
5.23865e-06
-1.56149e-06
6.02327e-06
-2.0001e-06
6.52991e-06
-2.41248e-06
6.79301e-06
-2.78489e-06
6.84941e-06
-3.11018e-06
6.73512e-06
-3.38632e-06
6.48306e-06
-3.61499e-06
6.12207e-06
-3.80029e-06
5.67639e-06
-3.94776e-06
5.1658e-06
-4.06352e-06
4.60597e-06
-4.15374e-06
4.00896e-06
-4.22415e-06
3.38382e-06
-4.27981e-06
2.73707e-06
-4.32484e-06
2.0733e-06
-4.36234e-06
1.39561e-06
-4.39422e-06
7.06056e-07
-4.42115e-06
6.12804e-09
-4.44247e-06
-7.02879e-07
-4.4561e-06
-1.4194e-06
-4.45856e-06
-2.14112e-06
-4.44487e-06
-2.86446e-06
-4.40865e-06
-3.58393e-06
-4.34227e-06
-4.29146e-06
-4.23712e-06
-4.97563e-06
-4.08415e-06
-5.62082e-06
-3.87467e-06
-6.20639e-06
-3.6015e-06
-6.70606e-06
-3.26048e-06
-7.08742e-06
-2.85237e-06
-7.31222e-06
-2.38497e-06
-7.3373e-06
-1.8751e-06
-7.11689e-06
-1.35023e-06
-6.60623e-06
-8.48908e-07
-5.76664e-06
-4.19653e-07
-4.57147e-06
-1.17791e-07
-3.0121e-06
-1.10511e-06
-1.07559e-07
1.11608e-06
-3.80216e-07
3.00966e-06
-7.62522e-07
4.5307e-06
-1.202e-06
5.67813e-06
-1.65484e-06
6.47611e-06
-2.08814e-06
6.96321e-06
-2.47999e-06
7.18485e-06
-2.81814e-06
7.18757e-06
-3.09807e-06
7.01505e-06
-3.32092e-06
6.70591e-06
-3.49156e-06
6.29271e-06
-3.6171e-06
5.80193e-06
-3.7057e-06
5.25439e-06
-3.76568e-06
4.66595e-06
-3.80499e-06
4.04828e-06
-3.83081e-06
3.40964e-06
-3.8493e-06
2.75556e-06
-3.86546e-06
2.08946e-06
-3.88306e-06
1.41321e-06
-3.90454e-06
7.27534e-07
-3.93095e-06
3.25363e-08
-3.96187e-06
-6.7195e-07
-3.99537e-06
-1.3859e-06
-4.02784e-06
-2.10866e-06
-4.05396e-06
-2.83834e-06
-4.06667e-06
-3.57122e-06
-4.05716e-06
-4.30097e-06
-4.01511e-06
-5.01769e-06
-3.92903e-06
-5.70689e-06
-3.78707e-06
-6.34836e-06
-3.57814e-06
-6.91499e-06
-3.29364e-06
-7.37192e-06
-2.92976e-06
-7.6761e-06
-2.49021e-06
-7.77685e-06
-1.98921e-06
-7.61789e-06
-1.45417e-06
-7.14127e-06
-9.27135e-07
-6.29368e-06
-4.64195e-07
-5.03441e-06
-1.31912e-07
-3.34439e-06
-1.23703e-06
-1.2152e-07
1.2376e-06
-4.23537e-07
3.31168e-06
-8.36685e-07
4.94385e-06
-1.2971e-06
6.13854e-06
-1.75394e-06
6.93296e-06
-2.17165e-06
7.38092e-06
-2.529e-06
7.5422e-06
-2.81661e-06
7.47518e-06
-3.03395e-06
7.23239e-06
-3.1864e-06
6.85835e-06
-3.28285e-06
6.38916e-06
-3.33391e-06
5.853e-06
-3.35062e-06
5.2711e-06
-3.34358e-06
4.65891e-06
-3.32248e-06
4.02718e-06
-3.2958e-06
3.38296e-06
-3.27068e-06
2.73044e-06
-3.25285e-06
2.07163e-06
-3.24664e-06
1.40699e-06
-3.25493e-06
7.35825e-07
-3.27915e-06
5.67633e-08
-3.31922e-06
-6.31884e-07
-3.3734e-06
-1.33173e-06
-3.43821e-06
-2.04385e-06
-3.50826e-06
-2.76829e-06
-3.57607e-06
-3.50341e-06
-3.63202e-06
-4.24502e-06
-3.66429e-06
-4.98541e-06
-3.65916e-06
-5.71203e-06
-3.6015e-06
-6.40602e-06
-3.47592e-06
-7.04057e-06
-3.26852e-06
-7.57932e-06
-2.96952e-06
-7.9751e-06
-2.57675e-06
-8.16962e-06
-2.09981e-06
-8.09482e-06
-1.56429e-06
-7.67678e-06
-1.01495e-06
-6.84302e-06
-5.16291e-07
-5.53307e-06
-1.48962e-07
-3.71172e-06
-1.38599e-06
-1.39655e-07
1.37725e-06
-4.77896e-07
3.64992e-06
-9.25926e-07
5.39188e-06
-1.40519e-06
6.61781e-06
-1.85709e-06
7.38486e-06
-2.24438e-06
7.76821e-06
-2.5484e-06
7.84622e-06
-2.76471e-06
7.69149e-06
-2.89847e-06
7.36615e-06
-2.96061e-06
6.92049e-06
-2.96486e-06
6.39342e-06
-2.92574e-06
5.81387e-06
-2.85723e-06
5.20259e-06
-2.77213e-06
4.5738e-06
-2.68162e-06
3.93667e-06
-2.59522e-06
3.29655e-06
-2.52073e-06
2.65595e-06
-2.46439e-06
2.01529e-06
-2.43087e-06
1.37347e-06
-2.42338e-06
7.28335e-07
-2.44367e-06
7.70577e-08
-2.492e-06
-5.83554e-07
-2.56701e-06
-1.25671e-06
-2.66556e-06
-1.94529e-06
-2.78252e-06
-2.65134e-06
-2.91044e-06
-3.37548e-06
-3.03935e-06
-4.11611e-06
-3.15649e-06
-4.86827e-06
-3.24627e-06
-5.62225e-06
-3.29055e-06
-6.36174e-06
-3.26948e-06
-7.06164e-06
-3.16315e-06
-7.68564e-06
-2.95439e-06
-8.18385e-06
-2.63295e-06
-8.49106e-06
-2.20102e-06
-8.52675e-06
-1.67959e-06
-8.19822e-06
-1.11427e-06
-7.40834e-06
-5.78376e-07
-6.06896e-06
-1.70107e-07
-4.11999e-06
-1.55609e-06
-1.63904e-07
1.54116e-06
-5.47441e-07
4.03346e-06
-1.03423e-06
5.87867e-06
-1.52705e-06
7.11063e-06
-1.9595e-06
7.81731e-06
-2.29496e-06
8.10367e-06
-2.52044e-06
8.0717e-06
-2.63923e-06
7.81028e-06
-2.66442e-06
7.39134e-06
-2.61382e-06
6.8699e-06
-2.50667e-06
6.28626e-06
-2.36151e-06
5.66871e-06
-2.19512e-06
5.03621e-06
-2.02207e-06
4.40075e-06
-1.85458e-06
3.76919e-06