/*--------------------------------*- C++ -*----------------------------------*\
  =========                 |
  \\      /  F ield         | OpenFOAM: The Open Source CFD Toolbox
   \\    /   O peration     | Website:  https://openfoam.org
    \\  /    A nd           | Version:  7
     \\/     M anipulation  |
\*---------------------------------------------------------------------------*/
FoamFile
{
    version     2.0;
    format      ascii;
    class       volVectorField;
    location    "0.36";
    object      U;
}
// * * * * * * * * * * * * * * * * * * * * * * * * * * * * * * * * * * * * * //

dimensions      [0 1 -1 0 0 0 0];

internalField   nonuniform List<vector> 
1600
(
(6.04268e-05 -6.05698e-05 0)
(0.000155826 -5.71533e-05 0)
(0.000156889 -7.05682e-06 0)
(6.63743e-06 5.24067e-05 0)
(-0.000303299 0.000107914 0)
(-0.000756512 0.000154754 0)
(-0.00132854 0.000191566 0)
(-0.0019924 0.000218393 0)
(-0.00272088 0.00023581 0)
(-0.00348769 0.000244565 0)
(-0.00426809 0.000245448 0)
(-0.00503923 0.000239245 0)
(-0.00578023 0.000226716 0)
(-0.00647234 0.000208594 0)
(-0.00709892 0.000185589 0)
(-0.00764549 0.00015839 0)
(-0.00809972 0.00012768 0)
(-0.00845147 9.41387e-05 0)
(-0.0086928 5.84553e-05 0)
(-0.00881809 2.13373e-05 0)
(-0.00882403 -1.64817e-05 0)
(-0.00870979 -5.42356e-05 0)
(-0.00847704 -9.11215e-05 0)
(-0.00813008 -0.0001263 0)
(-0.00767594 -0.0001589 0)
(-0.00712437 -0.000188023 0)
(-0.00648795 -0.000212758 0)
(-0.00578203 -0.000232192 0)
(-0.00502464 -0.000245426 0)
(-0.00423638 -0.000251593 0)
(-0.00344018 -0.000249878 0)
(-0.00266097 -0.000239541 0)
(-0.00192527 -0.000219948 0)
(-0.00126057 -0.00019062 0)
(-0.000694454 -0.000151358 0)
(-0.000253155 -0.000102581 0)
(4.08182e-05 -4.61702e-05 0)
(0.000174336 1.26434e-05 0)
(0.000160335 6.01732e-05 0)
(6.02435e-05 6.00108e-05 0)
(5.86035e-05 -0.000157065 0)
(7.24326e-05 -6.95323e-05 0)
(-0.000178517 0.000182284 0)
(-0.000772762 0.000476876 0)
(-0.00172478 0.000760931 0)
(-0.00300803 0.0010093 0)
(-0.00457394 0.00121067 0)
(-0.00636311 0.00136115 0)
(-0.00831178 0.00146063 0)
(-0.0103557 0.00151103 0)
(-0.0124326 0.0015153 0)
(-0.0144836 0.00147702 0)
(-0.0164542 0.00140006 0)
(-0.0182948 0.00128846 0)
(-0.019961 0.00114636 0)
(-0.0214142 0.000977959 0)
(-0.0226211 0.000787521 0)
(-0.0235547 0.000579377 0)
(-0.0241939 0.000357959 0)
(-0.0245237 0.00012783 0)
(-0.0245356 -0.000106297 0)
(-0.0242279 -0.000339537 0)
(-0.0236053 -0.00056683 0)
(-0.0226801 -0.000782956 0)
(-0.0214712 -0.000982568 0)
(-0.0200052 -0.00116025 0)
(-0.0183157 -0.00131059 0)
(-0.0164433 -0.0014283 0)
(-0.0144357 -0.00150833 0)
(-0.0123464 -0.00154602 0)
(-0.0102346 -0.00153727 0)
(-0.00816347 -0.00147881 0)
(-0.00619928 -0.00136847 0)
(-0.00440873 -0.0012057 0)
(-0.00285621 -0.000992407 0)
(-0.00159948 -0.000734632 0)
(-0.000682996 -0.00044593 0)
(-0.000126885 -0.000153459 0)
(9.19791e-05 8.83583e-05 0)
(6.17207e-05 0.000160728 0)
(1.14336e-05 -0.000162873 0)
(-0.000171951 0.000178372 0)
(-0.000804053 0.000813839 0)
(-0.00193104 0.00153627 0)
(-0.0035538 0.00223866 0)
(-0.0056364 0.00286151 0)
(-0.00811402 0.00337323 0)
(-0.0109052 0.00375944 0)
(-0.0139203 0.00401596 0)
(-0.0170675 0.00414475 0)
(-0.0202559 0.00415149 0)
(-0.0233987 0.00404418 0)
(-0.0264147 0.00383224 0)
(-0.0292292 0.003526 0)
(-0.0317756 0.00313636 0)
(-0.0339949 0.00267464 0)
(-0.0358371 0.00215246 0)
(-0.0372609 0.00158179 0)
(-0.0382343 0.000974915 0)
(-0.0387349 0.000344502 0)
(-0.03875 -0.000296378 0)
(-0.0382771 -0.00093423 0)
(-0.0373242 -0.00155515 0)
(-0.0359098 -0.00214487 0)
(-0.0340633 -0.00268889 0)
(-0.031825 -0.00317264 0)
(-0.0292459 -0.00358171 0)
(-0.0263874 -0.00390217 0)
(-0.0233205 -0.00412094 0)
(-0.0201252 -0.00422627 0)
(-0.016889 -0.00420827 0)
(-0.0137048 -0.00405967 0)
(-0.0106683 -0.00377678 0)
(-0.00787503 -0.00336086 0)
(-0.00541552 -0.00282037 0)
(-0.00336921 -0.00217464 0)
(-0.00179576 -0.00146031 0)
(-0.000723099 -0.000741177 0)
(-0.000138862 -0.000126464 0)
(1.76649e-05 0.000180081 0)
(-4.5397e-05 -2.20709e-05 0)
(-0.000464369 0.000767966 0)
(-0.00153541 0.00194135 0)
(-0.00324183 0.0032266 0)
(-0.00555456 0.00446806 0)
(-0.00842262 0.00557087 0)
(-0.011765 0.00648 0)
(-0.0154818 0.00716734 0)
(-0.0194633 0.00762226 0)
(-0.023596 0.00784547 0)
(-0.0277671 0.00784507 0)
(-0.0318678 0.00763411 0)
(-0.0357956 0.00722884 0)
(-0.0394561 0.00664767 0)
(-0.0427644 0.00591046 0)
(-0.0456453 0.00503813 0)
(-0.048035 0.00405244 0)
(-0.0498806 0.00297586 0)
(-0.0511414 0.00183156 0)
(-0.0517887 0.000643473 0)
(-0.0518066 -0.000563733 0)
(-0.0511921 -0.00176463 0)
(-0.0499556 -0.00293312 0)
(-0.048121 -0.0040425 0)
(-0.0457262 -0.00506578 0)
(-0.0428225 -0.00597595 0)
(-0.039475 -0.0067465 0)
(-0.0357616 -0.00735198 0)
(-0.0317725 -0.00776878 0)
(-0.0276084 -0.00797601 0)
(-0.0233789 -0.00795665 0)
(-0.0192003 -0.00769892 0)
(-0.0151914 -0.0071981 0)
(-0.0114701 -0.00645896 0)
(-0.00814769 -0.0054994 0)
(-0.00532217 -0.0043559 0)
(-0.00306895 -0.00309199 0)
(-0.00142989 -0.00180991 0)
(-0.000420035 -0.000669589 0)
(-3.66751e-05 5.98173e-05 0)
(-0.000100455 0.000278552 0)
(-0.000761179 0.00172916 0)
(-0.00228987 0.00359197 0)
(-0.00459368 0.00555601 0)
(-0.00760315 0.0074286 0)
(-0.0112462 0.00908461 0)
(-0.0154232 0.0104471 0)
(-0.020016 0.011474 0)
(-0.024897 0.0121474 0)
(-0.0299347 0.0124662 0)
(-0.0349985 0.0124408 0)
(-0.0399618 0.0120897 0)
(-0.0447051 0.0114366 0)
(-0.0491183 0.0105095 0)
(-0.0531015 0.00933862 0)
(-0.056567 0.00795641 0)
(-0.0594393 0.00639676 0)
(-0.0616567 0.00469489 0)
(-0.063171 0.0028872 0)
(-0.0639487 0.0010113 0)
(-0.0639711 -0.000894048 0)
(-0.0632347 -0.00278894 0)
(-0.0617519 -0.00463248 0)
(-0.0595508 -0.006383 0)
(-0.0566757 -0.00799845 0)
(-0.0531871 -0.00943694 0)
(-0.049161 -0.0106575 0)
(-0.0446887 -0.0116211 0)
(-0.0398752 -0.0122917 0)
(-0.0348381 -0.0126379 0)
(-0.0297051 -0.0126345 0)
(-0.0246109 -0.0122648 0)
(-0.0196939 -0.0115233 0)
(-0.0150908 -0.0104191 0)
(-0.0109318 -0.00898058 0)
(-0.00733357 -0.00726203 0)
(-0.00439017 -0.00535305 0)
(-0.00216372 -0.00339006 0)
(-0.000707231 -0.00157343 0)
(-8.95914e-05 -0.000214687 0)
(-0.000150682 0.000732614 0)
(-0.0010459 0.00306272 0)
(-0.00302978 0.005773 0)
(-0.00593083 0.0085319 0)
(-0.00963404 0.0111213 0)
(-0.0140416 0.0133928 0)
(-0.0190319 0.0152514 0)
(-0.0244676 0.0166428 0)
(-0.0302036 0.0175428 0)
(-0.0360921 0.0179487 0)
(-0.0419867 0.0178737 0)
(-0.0477462 0.0173422 0)
(-0.0532371 0.0163867 0)
(-0.0583362 0.0150453 0)
(-0.0629322 0.0133602 0)
(-0.0669265 0.0113768 0)
(-0.0702352 0.00914292 0)
(-0.0727887 0.00670815 0)
(-0.0745334 0.00412405 0)
(-0.0754315 0.00144383 0)
(-0.075462 -0.00127765 0)
(-0.0746209 -0.00398397 0)
(-0.0729217 -0.00661739 0)
(-0.0703959 -0.00911918 0)
(-0.0670926 -0.0114302 0)
(-0.0630791 -0.0134916 0)
(-0.0584402 -0.0152461 0)
(-0.0532774 -0.0166392 0)
(-0.0477082 -0.017621 0)
(-0.0418637 -0.0181479 0)
(-0.0358865 -0.0181857 0)
(-0.0299276 -0.017712 0)
(-0.0241422 -0.0167199 0)
(-0.0186851 -0.0152226 0)
(-0.0137052 -0.0132584 0)
(-0.00933953 -0.0108981 0)
(-0.0057043 -0.00825425 0)
(-0.00288689 -0.00549153 0)
(-0.000983674 -0.00284051 0)
(-0.00013786 -0.000637769 0)
(-0.000195979 0.00132979 0)
(-0.00131417 0.00475723 0)
(-0.00374129 0.0084768 0)
(-0.00723007 0.0121486 0)
(-0.0116183 0.0155389 0)
(-0.0167793 0.0184832 0)
(-0.0225671 0.0208733 0)
(-0.0288232 0.0226457 0)
(-0.0353846 0.023772 0)
(-0.0420874 0.0242494 0)
(-0.0487711 0.0240949 0)
(-0.0552813 0.02334 0)
(-0.0614726 0.0220266 0)
(-0.0672112 0.0202045 0)
(-0.0723761 0.0179289 0)
(-0.0768605 0.0152594 0)
(-0.0805732 0.0122589 0)
(-0.0834389 0.00899315 0)
(-0.085399 0.00553007 0)
(-0.0864127 0.00194004 0)
(-0.0864567 -0.00170447 0)
(-0.0855262 -0.00532897 0)
(-0.0836356 -0.00885726 0)
(-0.0808181 -0.0122119 0)
(-0.0771266 -0.015315 0)
(-0.0726333 -0.0180892 0)
(-0.0674296 -0.020459 0)
(-0.0616253 -0.022353 0)
(-0.0553476 -0.0237055 0)
(-0.0487392 -0.0244597 0)
(-0.0419559 -0.0245708 0)
(-0.0351631 -0.0240093 0)
(-0.0285324 -0.0227659 0)
(-0.0222365 -0.0208563 0)
(-0.0164441 -0.0183269 0)
(-0.0113149 -0.0152625 0)
(-0.00699033 -0.0117946 0)
(-0.00358654 -0.00811013 0)
(-0.0012452 -0.00446152 0)
(-0.000181354 -0.00119973 0)
(-0.000237275 0.00206038 0)
(-0.00156719 0.00679815 0)
(-0.00442334 0.0116899 0)
(-0.00848719 0.0163947 0)
(-0.0135497 0.0206704 0)
(-0.0194536 0.024343 0)
(-0.0260265 0.027296 0)
(-0.0330873 0.0294611 0)
(-0.0404541 0.0308079 0)
(-0.0479471 0.0313362 0)
(-0.0553917 0.0310684 0)
(-0.0626214 0.0300446 0)
(-0.0694807 0.0283174 0)
(-0.0758265 0.0259495 0)
(-0.0815299 0.0230102 0)
(-0.0864776 0.0195746 0)
(-0.0905725 0.0157218 0)
(-0.0937347 0.0115344 0)
(-0.095902 0.00709824 0)
(-0.0970304 0.00250171 0)
(-0.0970949 -0.00216394 0)
(-0.0960898 -0.00680499 0)
(-0.0940292 -0.0113256 0)
(-0.0909474 -0.0156285 0)
(-0.0868995 -0.0196154 0)
(-0.0819612 -0.0231892 0)
(-0.0762286 -0.0262548 0)
(-0.0698179 -0.028722 0)
(-0.0628645 -0.030508 0)
(-0.0555209 -0.0315408 0)
(-0.0479547 -0.031763 0)
(-0.0403455 -0.0311365 0)
(-0.032881 -0.0296475 0)
(-0.0257525 -0.0273118 0)
(-0.0191504 -0.0241814 0)
(-0.0132589 -0.0203517 0)
(-0.00824756 -0.015969 0)
(-0.00426341 -0.0112372 0)
(-0.00149363 -0.00642476 0)
(-0.000221086 -0.00189171 0)
(-0.000275706 0.00291659 0)
(-0.00180831 0.0091721 0)
(-0.00508085 0.0153988 0)
(-0.00970788 0.0212582 0)
(-0.0154346 0.0265051 0)
(-0.0220723 0.0309615 0)
(-0.0294208 0.0345076 0)
(-0.0372753 0.037074 0)
(-0.0454338 0.0386325 0)
(-0.0537002 0.0391877 0)
(-0.0618861 0.0387701 0)
(-0.0698138 0.0374299 0)
(-0.0773182 0.0352325 0)
(-0.0842483 0.0322544 0)
(-0.0904689 0.0285807 0)
(-0.0958612 0.0243026 0)
(-0.100324 0.0195166 0)
(-0.103773 0.0143231 0)
(-0.106143 0.00882614 0)
(-0.107389 0.00313327 0)
(-0.107482 -0.00264489 0)
(-0.106417 -0.00839464 0)
(-0.104207 -0.0139997 0)
(-0.100885 -0.0193418 0)
(-0.0965075 -0.0243017 0)
(-0.0911526 -0.0287607 0)
(-0.0849195 -0.0326029 0)
(-0.0779293 -0.0357178 0)
(-0.0703237 -0.0380035 0)
(-0.062264 -0.0393706 0)
(-0.0539289 -0.0397473 0)
(-0.0455118 -0.0390841 0)
(-0.037217 -0.0373598 0)
(-0.0292556 -0.0345877 0)
(-0.0218411 -0.0308221 0)
(-0.0151849 -0.0261652 0)
(-0.00948625 -0.0207741 0)
(-0.00492494 -0.0148656 0)
(-0.00173325 -0.0087208 0)
(-0.000258354 -0.00270717 0)
(-0.000312329 0.00389291 0)
(-0.0020414 0.0118688 0)
(-0.00572111 0.0195925 0)
(-0.0109023 0.0267292 0)
(-0.0172855 0.0330346 0)
(-0.0246501 0.0383308 0)
(-0.0327673 0.0424995 0)
(-0.0414074 0.0454745 0)
(-0.0503478 0.0472334 0)
(-0.0593753 0.0477891 0)
(-0.068288 0.0471827 0)
(-0.0768972 0.0454773 0)
(-0.0850292 0.0427525 0)
(-0.0925262 0.0391007 0)
(-0.0992477 0.0346236 0)
(-0.105071 0.0294298 0)
(-0.10989 0.0236338 0)
(-0.11362 0.0173545 0)
(-0.116193 0.0107147 0)
(-0.11756 0.00384126 0)
(-0.117693 -0.00313527 0)
(-0.116583 -0.0100809 0)
(-0.114242 -0.0168583 0)
(-0.110703 -0.0233276 0)
(-0.106022 -0.0293477 0)
(-0.100276 -0.0347775 0)
(-0.0935679 -0.0394787 0)
(-0.0860206 -0.0433186 0)
(-0.0777816 -0.0461741 0)
(-0.0690198 -0.0479364 0)
(-0.0599245 -0.0485161 0)
(-0.0507026 -0.0478494 0)
(-0.0415757 -0.0459044 0)
(-0.032776 -0.0426884 0)
(-0.0245417 -0.0382539 0)
(-0.0171133 -0.0327065 0)
(-0.010722 -0.0262105 0)
(-0.00558143 -0.0189927 0)
(-0.00196912 -0.0113447 0)
(-0.00029442 -0.0036424 0)
(-0.000348042 0.00498607 0)
(-0.00227024 0.0148817 0)
(-0.00635198 0.0242637 0)
(-0.0120822 0.032801 0)
(-0.0191174 0.0402528 0)
(-0.0272046 0.0464452 0)
(-0.0360858 0.0512653 0)
(-0.0455053 0.0546548 0)
(-0.0552193 0.0566009 0)
(-0.0649975 0.0571285 0)
(-0.0746242 0.0562925 0)
(-0.0839003 0.0541716 0)
(-0.0926443 0.0508619 0)
(-0.100693 0.0464734 0)
(-0.1079 0.0411256 0)
(-0.114142 0.0349457 0)
(-0.11931 0.0280667 0)
(-0.123316 0.0206264 0)
(-0.126092 0.0127667 0)
(-0.127587 0.0046338 0)
(-0.127771 -0.00362187 0)
(-0.126632 -0.0118459 0)
(-0.124181 -0.0198798 0)
(-0.120449 -0.027562 0)
(-0.11549 -0.0347285 0)
(-0.10938 -0.0412149 0)
(-0.102221 -0.0468592 0)
(-0.0941388 -0.0515047 0)
(-0.0852845 -0.0550049 0)
(-0.0758333 -0.0572284 0)
(-0.0659845 -0.0580653 0)
(-0.0559585 -0.0574337 0)
(-0.0459947 -0.0552872 0)
(-0.0363473 -0.0516225 0)
(-0.0272812 -0.0464869 0)
(-0.0190678 -0.039985 0)
(-0.0119724 -0.0322852 0)
(-0.00624414 -0.0236219 0)
(-0.00220634 -0.0142967 0)
(-0.000330426 -0.00469657 0)
(-0.000383598 0.00619474 0)
(-0.00249828 0.018208 0)
(-0.00698103 0.0294093 0)
(-0.0132594 0.0394707 0)
(-0.0209455 0.0481569 0)
(-0.0297536 0.0553012 0)
(-0.0393954 0.0608005 0)
(-0.049589 0.0646083 0)
(-0.0600685 0.0667259 0)
(-0.0705862 0.0671944 0)
(-0.0809132 0.066086 0)
(-0.0908404 0.0634978 0)
(-0.100179 0.0595451 0)
(-0.108762 0.0543572 0)
(-0.11644 0.0480733 0)
(-0.123087 0.0408398 0)
(-0.128594 0.0328089 0)
(-0.132872 0.0241372 0)
(-0.135851 0.0149858 0)
(-0.13748 0.0055201 0)
(-0.137727 -0.00409017 0)
(-0.136578 -0.0136704 0)
(-0.134039 -0.0230412 0)
(-0.130141 -0.0320191 0)
(-0.124932 -0.040417 0)
(-0.118487 -0.0480464 0)
(-0.110906 -0.05472 0)
(-0.102315 -0.0602555 0)
(-0.092866 -0.0644802 0)
(-0.0827404 -0.067237 0)
(-0.072146 -0.0683917 0)
(-0.0613167 -0.06784 0)
(-0.05051 -0.0655164 0)
(-0.0400031 -0.0614027 0)
(-0.0300894 -0.0555358 0)
(-0.0210731 -0.0480157 0)
(-0.0132558 -0.0390113 0)
(-0.00692434 -0.0287631 0)
(-0.00244981 -0.0175829 0)
(-0.000367388 -0.00587155 0)
(-0.000419621 0.00751937 0)
(-0.00272854 0.0218487 0)
(-0.00761522 0.0350304 0)
(-0.0144447 0.0467393 0)
(-0.022784 0.056747 0)
(-0.0323134 0.0648974 0)
(-0.0427135 0.0711011 0)
(-0.0536751 0.075328 0)
(-0.0649102 0.0775984 0)
(-0.0761536 0.0779735 0)
(-0.0871635 0.0765471 0)
(-0.0977218 0.073438 0)
(-0.107634 0.0687835 0)
(-0.116729 0.0627345 0)
(-0.124858 0.0554509 0)
(-0.131892 0.0470996 0)
(-0.137725 0.0378521 0)
(-0.142268 0.0278842 0)
(-0.14545 0.0173755 0)
(-0.147219 0.00650981 0)
(-0.147542 -0.00452432 0)
(-0.146402 -0.0155329 0)
(-0.143802 -0.0263163 0)
(-0.139768 -0.0366693 0)
(-0.134344 -0.0463818 0)
(-0.127599 -0.0552406 0)
(-0.119631 -0.0630319 0)
(-0.110562 -0.0695456 0)
(-0.100545 -0.07458 0)
(-0.089765 -0.0779492 0)
(-0.0784373 -0.0794898 0)
(-0.0668084 -0.0790706 0)
(-0.0551538 -0.0766016 0)
(-0.0437749 -0.0720441 0)
(-0.0329947 -0.0654197 0)
(-0.0231528 -0.0568191 0)
(-0.0145898 -0.0464088 0)
(-0.00763286 -0.0344331 0)
(-0.00270411 -0.0212146 0)
(-0.000406215 -0.00717175 0)
(-0.000456644 0.00896187 0)
(-0.00296373 0.0258077 0)
(-0.00826084 0.0411318 0)
(-0.0156482 0.0546111 0)
(-0.0246457 0.0660256 0)
(-0.0348982 0.0752332 0)
(-0.046054 0.0821626 0)
(-0.0577757 0.0868051 0)
(-0.0697528 0.0892048 0)
(-0.081703 0.089448 0)
(-0.0933722 0.0876544 0)
(-0.104534 0.0839685 0)
(-0.114991 0.0785526 0)
(-0.124569 0.0715812 0)
(-0.133121 0.0632369 0)
(-0.14052 0.0537075 0)
(-0.14666 0.0431844 0)
(-0.151455 0.0318619 0)
(-0.154835 0.0199375 0)
(-0.156749 0.00761238 0)
(-0.157161 -0.00490723 0)
(-0.156052 -0.0174093 0)
(-0.153422 -0.0296748 0)
(-0.149287 -0.0414778 0)
(-0.143688 -0.0525853 0)
(-0.136688 -0.0627591 0)
(-0.128376 -0.0717579 0)
(-0.11887 -0.0793417 0)
(-0.108322 -0.0852773 0)
(-0.0969167 -0.0893453 0)
(-0.0848757 -0.091349 0)
(-0.0724566 -0.0911244 0)
(-0.0599528 -0.0885509 0)
(-0.0476902 -0.083563 0)
(-0.0360233 -0.076161 0)
(-0.0253293 -0.0664213 0)
(-0.0159911 -0.0545037 0)
(-0.00837997 -0.040655 0)
(-0.00297356 -0.0252085 0)
(-0.000447741 -0.0086039 0)
(-0.00049514 0.0105255 0)
(-0.0032063 0.0300923 0)
(-0.00892368 0.0477221 0)
(-0.016879 0.0630935 0)
(-0.0265421 0.0759972 0)
(-0.0375203 0.0863085 0)
(-0.0494277 0.093979 0)
(-0.0618979 0.099027 0)
(-0.0745978 0.101526 0)
(-0.0872281 0.101593 0)
(-0.0995237 0.0993786 0)
(-0.111253 0.0950569 0)
(-0.122214 0.0888187 0)
(-0.132235 0.0808646 0)
(-0.141172 0.0714014 0)
(-0.148901 0.0606385 0)
(-0.155322 0.0487873 0)
(-0.16035 0.0360598 0)
(-0.163921 0.0226704 0)
(-0.165981 0.00883618 0)
(-0.166495 -0.00522082 0)
(-0.165442 -0.0192721 0)
(-0.162813 -0.0330812 0)
(-0.158622 -0.0464024 0)
(-0.152898 -0.0589808 0)
(-0.145696 -0.0705532 0)
(-0.137096 -0.08085 0)
(-0.127208 -0.0895996 0)
(-0.116177 -0.0965339 0)
(-0.104188 -0.101396 0)
(-0.0914648 -0.103951 0)
(-0.0782741 -0.103994 0)
(-0.0649262 -0.101369 0)
(-0.0517717 -0.095975 0)
(-0.0391981 -0.0877842 0)
(-0.0276231 -0.0768523 0)
(-0.0174755 -0.063328 0)
(-0.00917545 -0.0474578 0)
(-0.00326226 -0.0295862 0)
(-0.00049276 -0.0101769 0)
(-0.000535561 0.0122148 0)
(-0.00345861 0.0347122 0)
(-0.00960927 0.0548127 0)
(-0.0181457 0.0721964 0)
(-0.0284834 0.0866671 0)
(-0.0401895 0.0981219 0)
(-0.0528416 0.106541 0)
(-0.0660433 0.111975 0)
(-0.0794383 0.114535 0)
(-0.0927116 0.114374 0)
(-0.105589 0.111679 0)
(-0.117833 0.106659 0)
(-0.129245 0.0995355 0)
(-0.139656 0.0905396 0)
(-0.148926 0.0799028 0)
(-0.15694 0.0678573 0)
(-0.163602 0.0546336 0)
(-0.168837 0.0404609 0)
(-0.172581 0.0255685 0)
(-0.174786 0.0101875 0)
(-0.175414 -0.00544647 0)
(-0.174441 -0.021091 0)
(-0.171854 -0.0364941 0)
(-0.167656 -0.0513926 0)
(-0.161868 -0.0655111 0)
(-0.154531 -0.0785617 0)
(-0.145713 -0.0902464 0)
(-0.135513 -0.10026 0)
(-0.124067 -0.108297 0)
(-0.111552 -0.114059 0)
(-0.098192 -0.117264 0)
(-0.0842612 -0.117664 0)
(-0.0700843 -0.115054 0)
(-0.0560362 -0.109293 0)
(-0.0425385 -0.100314 0)
(-0.0300526 -0.0881451 0)
(-0.0190577 -0.0729184 0)
(-0.0100287 -0.0548764 0)
(-0.00357421 -0.0343738 0)
(-0.000542053 -0.0119018 0)
(-0.00057838 0.0140354 0)
(-0.00372312 0.0396799 0)
(-0.0103233 0.0624182 0)
(-0.0194568 0.0819321 0)
(-0.0304795 0.0980413 0)
(-0.0429142 0.11067 0)
(-0.0562997 0.119833 0)
(-0.0702078 0.125624 0)
(-0.0842595 0.128194 0)
(-0.098125 0.127743 0)
(-0.111522 0.1245 0)
(-0.124214 0.118713 0)
(-0.136004 0.110641 0)
(-0.146732 0.100545 0)
(-0.156267 0.088685 0)
(-0.164503 0.075315 0)
(-0.171356 0.0606847 0)
(-0.176757 0.0450388 0)
(-0.180651 0.0286195 0)
(-0.182992 0.0116694 0)
(-0.183744 -0.00556561 0)
(-0.182878 -0.022832 0)
(-0.180376 -0.0398655 0)
(-0.176231 -0.0563882 0)
(-0.17045 -0.072106 0)
(-0.163061 -0.0867081 0)
(-0.154114 -0.0998678 0)
(-0.143693 -0.111246 0)
(-0.131918 -0.120495 0)
(-0.118956 -0.127271 0)
(-0.105026 -0.131242 0)
(-0.0904036 -0.132103 0)
(-0.0754269 -0.129595 0)
(-0.0604934 -0.123523 0)
(-0.0460599 -0.113773 0)
(-0.0326343 -0.100335 0)
(-0.0207518 -0.0833161 0)
(-0.0109489 -0.0629506 0)
(-0.00391345 -0.0396022 0)
(-0.000596425 -0.0137917 0)
(-0.000624133 0.0159945 0)
(-0.00400258 0.0450109 0)
(-0.011072 0.0705564 0)
(-0.0208214 0.0923145 0)
(-0.0325403 0.110125 0)
(-0.0457018 0.123946 0)
(-0.0598028 0.133835 0)
(-0.0743819 0.139935 0)
(-0.0890374 0.142452 0)
(-0.103426 0.141637 0)
(-0.117263 0.137768 0)
(-0.130313 0.13114 0)
(-0.142387 0.122053 0)
(-0.153337 0.110801 0)
(-0.163046 0.0976733 0)
(-0.171423 0.0829464 0)
(-0.178398 0.0668879 0)
(-0.183912 0.049756 0)
(-0.18792 0.0318033 0)
(-0.190382 0.0132801 0)
(-0.191262 -0.00556063 0)
(-0.190531 -0.0244584 0)
(-0.188163 -0.0431406 0)
(-0.184139 -0.0613179 0)
(-0.178452 -0.0786808 0)
(-0.17111 -0.0948977 0)
(-0.162144 -0.109614 0)
(-0.151615 -0.122456 0)
(-0.139624 -0.133034 0)
(-0.12632 -0.140951 0)
(-0.111911 -0.145817 0)
(-0.0966698 -0.147264 0)
(-0.0809415 -0.144966 0)
(-0.0651452 -0.138662 0)
(-0.049773 -0.128178 0)
(-0.0353826 -0.113455 0)
(-0.0225711 -0.0945648 0)
(-0.0119454 -0.0717253 0)
(-0.00428421 -0.0453068 0)
(-0.000656745 -0.0158619 0)
(-0.000673488 0.0181005 0)
(-0.00430037 0.0507241 0)
(-0.0118631 0.0792483 0)
(-0.0222504 0.10336 0)
(-0.0346768 0.122922 0)
(-0.0485596 0.137936 0)
(-0.0633494 0.148514 0)
(-0.0785502 0.154858 0)
(-0.0937382 0.157239 0)
(-0.10856 0.155969 0)
(-0.12273 0.151386 0)
(-0.136021 0.143836 0)
(-0.148258 0.133665 0)
(-0.15931 0.121204 0)
(-0.169078 0.106771 0)
(-0.177492 0.0906661 0)
(-0.184498 0.073173 0)
(-0.190055 0.0545609 0)
(-0.194128 0.035089 0)
(-0.196686 0.0150116 0)
(-0.197696 -0.00541594 0)
(-0.197127 -0.025931 0)
(-0.194945 -0.0462572 0)
(-0.191121 -0.0660986 0)
(-0.185628 -0.0851345 0)
(-0.178453 -0.103016 0)
(-0.169601 -0.119362 0)
(-0.159107 -0.133765 0)
(-0.147042 -0.14579 0)
(-0.133533 -0.154985 0)
(-0.118767 -0.160894 0)
(-0.103007 -0.163074 0)
(-0.086601 -0.161122 0)
(-0.0699843 -0.154693 0)
(-0.0536837 -0.143541 0)
(-0.0383102 -0.127539 0)
(-0.0245292 -0.106711 0)
(-0.0130281 -0.0812498 0)
(-0.0046911 -0.0515275 0)
(-0.000723996 -0.0181299 0)
(-0.000727317 0.0203641 0)
(-0.00462082 0.0568422 0)
(-0.0127059 0.0885192 0)
(-0.0237573 0.115085 0)
(-0.0369024 0.136435 0)
(-0.0514954 0.152623 0)
(-0.0669357 0.163826 0)
(-0.0826912 0.170324 0)
(-0.0983174 0.172462 0)
(-0.113455 0.170628 0)
(-0.127822 0.165228 0)
(-0.141206 0.156667 0)
(-0.153453 0.145341 0)
(-0.164454 0.13162 0)
(-0.174137 0.115855 0)
(-0.182456 0.0983654 0)
(-0.189381 0.0794499 0)
(-0.194889 0.0593853 0)
(-0.198962 0.0384335 0)
(-0.201579 0.0168478 0)
(-0.202714 -0.00511934 0)
(-0.202332 -0.0272087 0)
(-0.200394 -0.0491461 0)
(-0.196857 -0.0706348 0)
(-0.191673 -0.0913482 0)
(-0.184806 -0.110924 0)
(-0.176228 -0.12896 0)
(-0.165941 -0.145015 0)
(-0.153982 -0.158607 0)
(-0.140442 -0.169226 0)
(-0.12548 -0.176343 0)
(-0.109339 -0.179431 0)
(-0.0923605 -0.177991 0)
(-0.074992 -0.171582 0)
(-0.0577925 -0.159859 0)
(-0.0414279 -0.142613 0)
(-0.0266397 -0.119801 0)
(-0.0142079 -0.0915776 0)
(-0.00513941 -0.0583093 0)
(-0.000799342 -0.0206158 0)
(-0.000786807 0.0227983 0)
(-0.00496974 0.0633936 0)
(-0.0136133 0.0983992 0)
(-0.0253594 0.12751 0)
(-0.0392343 0.150662 0)
(-0.0545187 0.167974 0)
(-0.0705558 0.17971 0)
(-0.0867761 0.18624 0)
(-0.102717 0.188002 0)
(-0.118018 0.185472 0)
(-0.132409 0.179136 0)
(-0.145701 0.169466 0)
(-0.157766 0.156911 0)
(-0.168528 0.141887 0)
(-0.177949 0.124772 0)
(-0.186012 0.105909 0)
(-0.192715 0.0856049 0)
(-0.198062 0.0641417 0)
(-0.202052 0.0417786 0)
(-0.204679 0.0187624 0)
(-0.205922 -0.00466354 0)
(-0.20575 -0.0282501 0)
(-0.204116 -0.0517322 0)
(-0.200962 -0.0748189 0)
(-0.196219 -0.0971845 0)
(-0.189822 -0.11846 0)
(-0.181707 -0.138226 0)
(-0.171836 -0.156011 0)
(-0.1602 -0.171289 0)
(-0.146848 -0.183487 0)
(-0.131896 -0.191997 0)
(-0.115557 -0.196195 0)
(-0.0981535 -0.19547 0)
(-0.0801367 -0.189264 0)
(-0.062093 -0.177113 0)
(-0.0447449 -0.158695 0)
(-0.0289175 -0.133881 0)
(-0.0154972 -0.102767 0)
(-0.00563548 -0.065703 0)
(-0.000884215 -0.0233428 0)
(-0.000853604 0.0254198 0)
(-0.00535506 0.0704136 0)
(-0.0146022 0.108925 0)
(-0.02708 0.140656 0)
(-0.0416943 0.165596 0)
(-0.0576411 0.183949 0)
(-0.0742009 0.196084 0)
(-0.0907667 0.202484 0)
(-0.106862 0.203703 0)
(-0.122134 0.200319 0)
(-0.136332 0.192909 0)
(-0.1493 0.182022 0)
(-0.16095 0.168166 0)
(-0.171245 0.151802 0)
(-0.180187 0.133336 0)
(-0.187799 0.11313 0)
(-0.194112 0.0914987 0)
(-0.19916 0.0687214 0)
(-0.202964 0.0450497 0)
(-0.205536 0.0207175 0)
(-0.206864 -0.00404789 0)
(-0.20692 -0.0290147 0)
(-0.205649 -0.0539347 0)
(-0.202981 -0.0785312 0)
(-0.198826 -0.102487 0)
(-0.193082 -0.125435 0)
(-0.18565 -0.146945 0)
(-0.17644 -0.166521 0)
(-0.165392 -0.183595 0)
(-0.152496 -0.197531 0)
(-0.137816 -0.207634 0)
(-0.121516 -0.213175 0)
(-0.103887 -0.213413 0)
(-0.0853695 -0.207645 0)
(-0.0665709 -0.19526 0)
(-0.0482686 -0.175793 0)
(-0.031379 -0.148994 0)
(-0.0169112 -0.114879 0)
(-0.0061872 -0.0737656 0)
(-0.000980449 -0.0263378 0)
(-0.00093003 0.02825 0)
(-0.00578772 0.0779475 0)
(-0.0156957 0.120144 0)
(-0.0289498 0.154549 0)
(-0.0443112 0.181225 0)
(-0.0608763 0.200487 0)
(-0.0778575 0.212836 0)
(-0.0946117 0.2189 0)
(-0.110656 0.219367 0)
(-0.125654 0.21494 0)
(-0.139391 0.2063 0)
(-0.151753 0.19408 0)
(-0.162703 0.178853 0)
(-0.172258 0.161122 0)
(-0.180466 0.141324 0)
(-0.187396 0.119832 0)
(-0.193121 0.0969641 0)
(-0.197705 0.0729923 0)
(-0.2012 0.0481534 0)
(-0.203635 0.0226614 0)
(-0.205012 -0.00328012 0)
(-0.205305 -0.0294649 0)
(-0.204458 -0.05567 0)
(-0.202386 -0.0816421 0)
(-0.198975 -0.107083 0)
(-0.194091 -0.131634 0)
(-0.187589 -0.154867 0)
(-0.179326 -0.176268 0)
(-0.169178 -0.195232 0)
(-0.157065 -0.211063 0)
(-0.142981 -0.222977 0)
(-0.127023 -0.230124 0)
(-0.109432 -0.231618 0)
(-0.09062 -0.226584 0)
(-0.0712014 -0.214224 0)
(-0.0520046 -0.193892 0)
(-0.0340436 -0.165179 0)
(-0.0184686 -0.127982 0)
(-0.00680479 -0.0825627 0)
(-0.00109047 -0.0296325 0)
(-0.00101939 0.0313171 0)
(-0.00628294 0.0860533 0)
(-0.0169254 0.132111 0)
(-0.0310097 0.169216 0)
(-0.047121 0.197526 0)
(-0.0642394 0.217502 0)
(-0.0815039 0.229819 0)
(-0.0982398 0.235281 0)
(-0.113969 0.234742 0)
(-0.128387 0.22905 0)
(-0.141331 0.219005 0)
(-0.152747 0.205332 0)
(-0.162661 0.188668 0)
(-0.171152 0.169561 0)
(-0.178329 0.148472 0)
(-0.184312 0.125782 0)
(-0.189218 0.101806 0)
(-0.19315 0.076799 0)
(-0.196191 0.0509777 0)
(-0.19839 0.024528 0)
(-0.199766 -0.00237803 0)
(-0.2003 -0.0295679 0)
(-0.199933 -0.0568534 0)
(-0.198567 -0.0840142 0)
(-0.196067 -0.110781 0)
(-0.192266 -0.136819 0)
(-0.186971 -0.161708 0)
(-0.179979 -0.18493 0)
(-0.171094 -0.205854 0)
(-0.160153 -0.223726 0)
(-0.147061 -0.237675 0)
(-0.131828 -0.246723 0)
(-0.114617 -0.249817 0)
(-0.0957885 -0.24588 0)
(-0.075945 -0.233886 0)
(-0.0559554 -0.212957 0)
(-0.0369346 -0.182466 0)
(-0.0201939 -0.142146 0)
(-0.00750185 -0.0921697 0)
(-0.00121758 -0.0332647 0)
(-0.00112643 0.0346587 0)
(-0.00686201 0.0948074 0)
(-0.0183341 0.144898 0)
(-0.0333133 0.184685 0)
(-0.0501683 0.214458 0)
(-0.0677437 0.234876 0)
(-0.0851026 0.246836 0)
(-0.101549 0.251362 0)
(-0.116626 0.249511 0)
(-0.130085 0.242298 0)
(-0.141832 0.230655 0)
(-0.151895 0.215406 0)
(-0.160377 0.197254 0)
(-0.167434 0.176786 0)
(-0.17324 0.15448 0)
(-0.177975 0.130718 0)
(-0.181805 0.105801 0)
(-0.184875 0.0799634 0)
(-0.187297 0.0533916 0)
(-0.189147 0.026236 0)
(-0.190461 -0.00137081 0)
(-0.191226 -0.0292987 0)
(-0.191387 -0.0574031 0)
(-0.190835 -0.085507 0)
(-0.189418 -0.113382 0)
(-0.186934 -0.140728 0)
(-0.183144 -0.167151 0)
(-0.177783 -0.192142 0)
(-0.170575 -0.215055 0)
(-0.161261 -0.235093 0)
(-0.149637 -0.2513 0)
(-0.135601 -0.262567 0)
(-0.119208 -0.267657 0)
(-0.100735 -0.265258 0)
(-0.0807418 -0.254069 0)
(-0.0601189 -0.232911 0)
(-0.0400802 -0.200872 0)
(-0.0221193 -0.157448 0)
(-0.00829703 -0.102676 0)
(-0.00136644 -0.0372807 0)
(-0.0012581 0.0383256 0)
(-0.00755494 0.10431 0)
(-0.0199798 0.158597 0)
(-0.0359298 0.200986 0)
(-0.0535046 0.23196 0)
(-0.071394 0.252443 0)
(-0.0885879 0.263623 0)
(-0.104387 0.266801 0)
(-0.118385 0.263273 0)
(-0.130414 0.254251 0)
(-0.14048 0.240809 0)
(-0.14871 0.223871 0)
(-0.155307 0.204202 0)
(-0.16051 0.182419 0)
(-0.16457 0.159009 0)
(-0.167729 0.134344 0)
(-0.170204 0.108703 0)
(-0.172182 0.0822884 0)
(-0.173807 0.0552483 0)
(-0.175182 0.0276905 0)
(-0.176357 -0.000299688 0)
(-0.177335 -0.0286419 0)
(-0.178061 -0.0572439 0)
(-0.178425 -0.0859821 0)
(-0.178256 -0.114681 0)
(-0.177327 -0.143089 0)
(-0.175356 -0.170855 0)
(-0.172013 -0.197496 0)
(-0.16694 -0.222372 0)
(-0.159771 -0.24466 0)
(-0.150177 -0.263332 0)
(-0.137914 -0.27715 0)
(-0.122892 -0.284681 0)
(-0.105263 -0.284348 0)
(-0.0855002 -0.274515 0)
(-0.0644839 -0.253627 0)
(-0.0435151 -0.220391 0)
(-0.024288 -0.173971 0)
(-0.00921646 -0.114188 0)
(-0.00154375 -0.0417388 0)
(-0.00142477 0.0423877 0)
(-0.00840448 0.114695 0)
(-0.0219416 0.173317 0)
(-0.0389464 0.218141 0)
(-0.0571846 0.249927 0)
(-0.0751734 0.269966 0)
(-0.0918438 0.279825 0)
(-0.106525 0.281153 0)
(-0.118902 0.275531 0)
(-0.128926 0.264385 0)
(-0.136734 0.248944 0)
(-0.142581 0.230226 0)
(-0.146781 0.209048 0)
(-0.149672 0.186044 0)
(-0.151582 0.161694 0)
(-0.152818 0.136348 0)
(-0.153649 0.110251 0)
(-0.154298 0.0835643 0)
(-0.154942 0.0563898 0)
(-0.155706 0.028785 0)
(-0.15666 0.0007823 0)
(-0.157818 -0.0275946 0)
(-0.159133 -0.0563128 0)
(-0.160496 -0.085311 0)
(-0.161728 -0.114478 0)
(-0.162583 -0.143625 0)
(-0.162742 -0.172461 0)
(-0.161819 -0.200553 0)
(-0.159373 -0.227291 0)
(-0.154928 -0.251849 0)
(-0.14801 -0.273152 0)
(-0.138207 -0.289847 0)
(-0.125245 -0.300304 0)
(-0.109092 -0.302651 0)
(-0.0900793 -0.29486 0)
(-0.0690226 -0.274905 0)
(-0.0472803 -0.240986 0)
(-0.026759 -0.1918 0)
(-0.0102977 -0.126838 0)
(-0.00175956 -0.0467141 0)
(-0.00164229 0.0469426 0)
(-0.00947229 0.126139 0)
(-0.0243259 0.189195 0)
(-0.0424695 0.236153 0)
(-0.0612547 0.268191 0)
(-0.0790192 0.287107 0)
(-0.0946683 0.294968 0)
(-0.107614 0.293849 0)
(-0.117686 0.285663 0)
(-0.125009 0.272073 0)
(-0.129888 0.254455 0)
(-0.13273 0.23391 0)
(-0.133978 0.211285 0)
(-0.13407 0.187214 0)
(-0.133417 0.162151 0)
(-0.132384 0.136407 0)
(-0.131284 0.110179 0)
(-0.130375 0.0835796 0)
(-0.129858 0.0566549 0)
(-0.129878 0.0294075 0)
(-0.130521 0.00181211 0)
(-0.131815 -0.0261681 0)
(-0.133725 -0.0545646 0)
(-0.136148 -0.0833848 0)
(-0.138908 -0.112591 0)
(-0.141749 -0.142072 0)
(-0.14433 -0.171614 0)
(-0.146221 -0.200858 0)
(-0.146907 -0.229256 0)
(-0.145803 -0.256014 0)
(-0.142286 -0.280043 0)
(-0.135749 -0.299906 0)
(-0.125686 -0.313789 0)
(-0.111821 -0.319511 0)
(-0.0942597 -0.314596 0)
(-0.0736742 -0.296436 0)
(-0.0514211 -0.262564 0)
(-0.0296124 -0.211022 0)
(-0.0115956 -0.14079 0)
(-0.00202936 -0.0523063 0)
(-0.00193574 0.0521285 0)
(-0.0108489 0.13888 0)
(-0.0272759 0.206388 0)
(-0.0466205 0.254985 0)
(-0.06573 0.286479 0)
(-0.0827787 0.303381 0)
(-0.0967134 0.308408 0)
(-0.107112 0.304155 0)
(-0.11403 0.29291 0)
(-0.117823 0.276573 0)
(-0.11901 0.256654 0)
(-0.118171 0.234306 0)
(-0.115885 0.210379 0)
(-0.112694 0.185477 0)
(-0.109079 0.160003 0)
(-0.105455 0.134211 0)
(-0.102168 0.108239 0)
(-0.0994973 0.0821365 0)
(-0.0976607 0.0558917 0)
(-0.0968155 0.0294478 0)
(-0.0970612 0.00272021 0)
(-0.0984385 -0.0243894 0)
(-0.100927 -0.0519781 0)
(-0.104438 -0.0801254 0)
(-0.108809 -0.108873 0)
(-0.113792 -0.138198 0)
(-0.11904 -0.167983 0)
(-0.1241 -0.197968 0)
(-0.128405 -0.227698 0)
(-0.131275 -0.256457 0)
(-0.131938 -0.283193 0)
(-0.129578 -0.306433 0)
(-0.123419 -0.324219 0)
(-0.112865 -0.334069 0)
(-0.0976943 -0.333015 0)
(-0.0783153 -0.317752 0)
(-0.0559782 -0.284946 0)
(-0.0329566 -0.231714 0)
(-0.0131924 -0.156252 0)
(-0.00237798 -0.0586529 0)
(-0.00234626 0.058146 0)
(-0.0126696 0.153236 0)
(-0.0309808 0.225064 0)
(-0.051521 0.274508 0)
(-0.0705456 0.304346 0)
(-0.0861318 0.318086 0)
(-0.0973894 0.319281 0)
(-0.104188 0.311142 0)