/*--------------------------------*- C++ -*----------------------------------*\
  =========                 |
  \\      /  F ield         | OpenFOAM: The Open Source CFD Toolbox
   \\    /   O peration     | Website:  https://openfoam.org
    \\  /    A nd           | Version:  7
     \\/     M anipulation  |
\*---------------------------------------------------------------------------*/
FoamFile
{
    version     2.0;
    format      ascii;
    class       volSymmTensorField;
    location    "1300";
    object      devReff;
}
// * * * * * * * * * * * * * * * * * * * * * * * * * * * * * * * * * * * * * //

dimensions      [0 2 -2 0 0 0 0];

internalField   nonuniform List<symmTensor> 
180
(
(-6.56712e-21 -0.0116951 -0 1.31342e-20 -0 -6.56712e-21)
(1.89344e-21 -0.0116929 -0 -3.78689e-21 -0 1.89344e-21)
(2.29785e-20 -0.0117813 -0 -1.22937e-20 -0 -1.06848e-20)
(-2.27031e-20 -0.0117809 -0 1.17461e-20 -0 1.0957e-20)
(8.68524e-21 -0.0112411 -0 -1.73705e-20 -0 8.68524e-21)
(-1.08533e-20 -0.0112408 -0 2.17066e-20 -0 -1.08533e-20)
(-1.40015e-20 -0.0108475 -0 2.8003e-20 -0 -1.40015e-20)
(8.78237e-21 -0.0108471 -0 -1.75647e-20 -0 8.78237e-21)
(-3.65944e-20 -0.0105995 -0 7.31888e-20 -0 -3.65944e-20)
(2.82083e-20 -0.0105992 -0 -5.64166e-20 -0 2.82083e-20)
(1.12789e-20 -0.0104049 -0 -2.25579e-20 -0 1.12789e-20)
(-1.67879e-20 -0.0104046 -0 3.35758e-20 -0 -1.67879e-20)
(6.77435e-20 -0.0102358 -0 -1.35487e-19 -0 6.77435e-20)
(-6.94393e-20 -0.0102354 -0 1.38879e-19 -0 -6.94393e-20)
(3.85703e-20 -0.0100801 -0 -7.71406e-20 -0 3.85703e-20)
(-3.53275e-20 -0.0100798 -0 7.06551e-20 -0 -3.53275e-20)
(2.73662e-21 -0.00993224 -0 -5.47325e-21 -0 2.73662e-21)
(6.09441e-21 -0.00993194 -0 -1.21888e-20 -0 6.09441e-21)
(1.11368e-20 -0.00978913 -0 -2.22735e-20 -0 1.11368e-20)
(6.46786e-21 -0.00978884 -0 -1.29357e-20 -0 6.46786e-21)
(-5.08197e-21 -0.00964902 -0 1.01639e-20 -0 -5.08197e-21)
(2.00518e-21 -0.00964874 -0 -4.01036e-21 -0 2.00518e-21)
(-2.41054e-20 -0.00951076 -0 4.82109e-20 -0 -2.41054e-20)
(-6.8342e-22 -0.00951048 -0 1.36684e-21 -0 -6.8342e-22)
(2.90238e-20 -0.00937351 -0 -5.80475e-20 -0 2.90238e-20)
(6.54536e-22 -0.00937322 -0 -1.30907e-21 -0 6.54536e-22)
(4.10812e-20 -0.00923661 -0 -8.21624e-20 -0 4.10812e-20)
(2.99302e-20 -0.00923632 -0 -5.98604e-20 -0 2.99302e-20)
(6.67832e-19 -0.0090995 -0 -3.47661e-19 -0 -3.2017e-19)
(-5.9826e-19 -0.0090992 -0 2.08582e-19 -0 3.89678e-19)
(3.85761e-20 -0.00896172 -0 -7.71521e-20 -0 3.85761e-20)
(2.84938e-20 -0.0089614 -0 -5.69877e-20 -0 2.84938e-20)
(3.67218e-20 -0.00882282 -0 -7.34437e-20 -0 3.67218e-20)
(-3.26443e-21 -0.0088225 -0 6.52885e-21 -0 -3.26443e-21)
(3.19963e-21 -0.00868246 -0 -6.39926e-21 -0 3.19963e-21)
(2.77214e-22 -0.00868212 -0 -5.54428e-22 -0 2.77214e-22)
(-9.81382e-21 -0.0085403 -0 1.96276e-20 -0 -9.81382e-21)
(1.89038e-21 -0.00853995 -0 -3.78076e-21 -0 1.89038e-21)
(-1.8977e-20 -0.00839609 -0 3.7954e-20 -0 -1.8977e-20)
(1.88832e-21 -0.00839572 -0 -3.77664e-21 -0 1.88832e-21)
(-2.06962e-20 -0.00824961 -0 4.13924e-20 -0 -2.06962e-20)
(1.25514e-21 -0.00824923 -0 -2.51028e-21 -0 1.25514e-21)
(-1.91314e-20 -0.00810071 -0 3.82627e-20 -0 -1.91314e-20)
(5.37334e-22 -0.00810031 -0 -1.07467e-21 -0 5.37334e-22)
(-1.62152e-20 -0.00794928 -0 3.24305e-20 -0 -1.62152e-20)
(2.14792e-22 -0.00794886 -0 -4.29584e-22 -0 2.14792e-22)
(-1.28097e-20 -0.00779528 -0 2.56194e-20 -0 -1.28097e-20)
(-6.94062e-22 -0.00779484 -0 1.38812e-21 -0 -6.94062e-22)
(-1.00495e-20 -0.00763871 -0 2.00989e-20 -0 -1.00495e-20)
(-1.17542e-21 -0.00763825 -0 2.35085e-21 -0 -1.17542e-21)
(-8.0593e-21 -0.00747962 -0 1.61186e-20 -0 -8.0593e-21)
(-1.36152e-21 -0.00747914 -0 2.72304e-21 -0 -1.36152e-21)
(-5.65127e-21 -0.00731811 -0 1.13025e-20 -0 -5.65127e-21)
(-1.36528e-21 -0.0073176 -0 2.73057e-21 -0 -1.36528e-21)
(-3.81057e-21 -0.0071543 -0 7.62114e-21 -0 -3.81057e-21)
(-1.28033e-21 -0.00715376 -0 2.56066e-21 -0 -1.28033e-21)
(-2.32987e-21 -0.00698836 -0 4.65973e-21 -0 -2.32987e-21)
(-1.14911e-21 -0.00698778 -0 2.29822e-21 -0 -1.14911e-21)
(-1.56262e-21 -0.00682049 -0 3.12525e-21 -0 -1.56262e-21)
(-1.02768e-21 -0.00681987 -0 2.05535e-21 -0 -1.02768e-21)
(-1.00554e-21 -0.0066509 -0 2.01109e-21 -0 -1.00554e-21)
(-9.05954e-22 -0.00665024 -0 1.81191e-21 -0 -9.05954e-22)
(-9.95703e-23 -0.00647984 -0 1.99141e-22 -0 -9.95703e-23)
(-8.61466e-22 -0.00647913 -0 1.72293e-21 -0 -8.61466e-22)
(6.15483e-22 -0.00630755 -0 -1.23097e-21 -0 6.15483e-22)
(-8.39448e-22 -0.00630679 -0 1.6789e-21 -0 -8.39448e-22)
(1.28301e-21 -0.0061343 -0 -2.56601e-21 -0 1.28301e-21)
(-8.76209e-22 -0.00613347 -0 1.75242e-21 -0 -8.76209e-22)
(1.97936e-21 -0.00596035 -0 -3.95873e-21 -0 1.97936e-21)
(-9.35893e-22 -0.00595945 -0 1.87179e-21 -0 -9.35893e-22)
(2.14917e-21 -0.00578597 -0 -4.29835e-21 -0 2.14917e-21)
(-1.06184e-21 -0.005785 -0 2.12368e-21 -0 -1.06184e-21)
(2.25379e-21 -0.00561142 -0 -4.50758e-21 -0 2.25379e-21)
(-1.22485e-21 -0.00561037 -0 2.4497e-21 -0 -1.22485e-21)
(2.8273e-21 -0.00543697 -0 -5.6546e-21 -0 2.8273e-21)
(-1.42082e-21 -0.00543583 -0 2.84163e-21 -0 -1.42082e-21)
(3.30584e-21 -0.00526287 -0 -6.61168e-21 -0 3.30584e-21)
(-1.66356e-21 -0.00526163 -0 3.32711e-21 -0 -1.66356e-21)
(3.68612e-21 -0.00508937 -0 -7.37223e-21 -0 3.68612e-21)
(-1.85764e-21 -0.00508803 -0 3.71528e-21 -0 -1.85764e-21)
(4.01088e-21 -0.00491669 -0 -8.02177e-21 -0 4.01088e-21)
(-2.1294e-21 -0.00491525 -0 4.25879e-21 -0 -2.1294e-21)
(4.31464e-21 -0.00474508 -0 -8.62927e-21 -0 4.31464e-21)
(-2.49887e-21 -0.00474353 -0 4.99774e-21 -0 -2.49887e-21)
(4.57763e-21 -0.00457472 -0 -9.15526e-21 -0 4.57763e-21)
(-2.44922e-21 -0.00457306 -0 4.89843e-21 -0 -2.44922e-21)
(4.75461e-21 -0.00440583 -0 -9.50923e-21 -0 4.75461e-21)
(-2.34081e-21 -0.00440405 -0 4.68161e-21 -0 -2.34081e-21)
(4.92301e-21 -0.00423858 -0 -9.84602e-21 -0 4.92301e-21)
(-2.7094e-21 -0.00423667 -0 5.41879e-21 -0 -2.7094e-21)
(5.17937e-21 -0.00407314 -0 -1.03587e-20 -0 5.17937e-21)
(-2.98745e-21 -0.00407111 -0 5.97489e-21 -0 -2.98745e-21)
(5.48214e-21 -0.00390967 -0 -1.09643e-20 -0 5.48214e-21)
(-3.17585e-21 -0.00390751 -0 6.3517e-21 -0 -3.17585e-21)
(5.83126e-21 -0.0037483 -0 -1.16625e-20 -0 5.83126e-21)
(-3.31677e-21 -0.00374602 -0 6.63354e-21 -0 -3.31677e-21)
(5.68315e-21 -0.00358916 -0 -1.13663e-20 -0 5.68315e-21)
(-3.36192e-21 -0.00358675 -0 6.72384e-21 -0 -3.36192e-21)
(5.52254e-21 -0.00343237 -0 -1.10451e-20 -0 5.52254e-21)
(-3.35873e-21 -0.00342983 -0 6.71746e-21 -0 -3.35873e-21)
(5.82297e-21 -0.00327803 -0 -1.16459e-20 -0 5.82297e-21)
(-3.25262e-21 -0.00327536 -0 6.50524e-21 -0 -3.25262e-21)
(6.04053e-21 -0.00312622 -0 -1.20811e-20 -0 6.04053e-21)
(-3.10989e-21 -0.00312343 -0 6.21978e-21 -0 -3.10989e-21)
(6.18895e-21 -0.00297703 -0 -1.23779e-20 -0 6.18895e-21)
(-2.87083e-21 -0.00297411 -0 5.74167e-21 -0 -2.87083e-21)
(6.29694e-21 -0.00283051 -0 -1.25939e-20 -0 6.29694e-21)
(-2.82052e-21 -0.00282748 -0 5.64105e-21 -0 -2.82052e-21)
(6.36746e-21 -0.00268674 -0 -1.27349e-20 -0 6.36746e-21)
(-2.71804e-21 -0.00268358 -0 5.43607e-21 -0 -2.71804e-21)
(6.40561e-21 -0.00254575 -0 -1.28112e-20 -0 6.40561e-21)
(-2.30661e-21 -0.00254248 -0 4.61322e-21 -0 -2.30661e-21)
(6.42171e-21 -0.00240758 -0 -1.28434e-20 -0 6.42171e-21)
(-1.84487e-21 -0.0024042 -0 3.68973e-21 -0 -1.84487e-21)
(6.41889e-21 -0.00227227 -0 -1.28378e-20 -0 6.41889e-21)
(-1.52865e-21 -0.00226879 -0 3.05731e-21 -0 -1.52865e-21)
(6.38659e-21 -0.00213983 -0 -1.27732e-20 -0 6.38659e-21)
(-1.17149e-21 -0.00213626 -0 2.34298e-21 -0 -1.17149e-21)
(6.31171e-21 -0.0020103 -0 -1.26234e-20 -0 6.31171e-21)
(-4.91825e-22 -0.00200663 -0 9.8365e-22 -0 -4.91825e-22)
(6.20438e-21 -0.00188367 -0 -1.24088e-20 -0 6.20438e-21)
(-4.93242e-23 -0.00187992 -0 9.86484e-23 -0 -4.93242e-23)
(6.07312e-21 -0.00175996 -0 -1.21462e-20 -0 6.07312e-21)
(4.30126e-22 -0.00175613 -0 -8.60253e-22 -0 4.30126e-22)
(5.91075e-21 -0.00163916 -0 -1.18215e-20 -0 5.91075e-21)
(1.19736e-21 -0.00163525 -0 -2.39471e-21 -0 1.19736e-21)
(5.71146e-21 -0.00152127 -0 -1.14229e-20 -0 5.71146e-21)
(1.88173e-21 -0.0015173 -0 -3.76346e-21 -0 1.88173e-21)
(5.4756e-21 -0.00140628 -0 -1.09512e-20 -0 5.4756e-21)
(2.49408e-21 -0.00140226 -0 -4.98816e-21 -0 2.49408e-21)
(5.35551e-21 -0.00129419 -0 -1.0711e-20 -0 5.35551e-21)
(3.14021e-21 -0.00129011 -0 -6.28041e-21 -0 3.14021e-21)
(5.20427e-21 -0.00118496 -0 -1.04085e-20 -0 5.20427e-21)
(3.83112e-21 -0.00118085 -0 -7.66224e-21 -0 3.83112e-21)
(4.88448e-21 -0.00107859 -0 -9.76896e-21 -0 4.88448e-21)
(4.5102e-21 -0.00107444 -0 -9.02039e-21 -0 4.5102e-21)
(4.68106e-21 -0.000975053 -0 -9.36212e-21 -0 4.68106e-21)
(5.16892e-21 -0.000970872 -0 -1.03378e-20 -0 5.16892e-21)
(4.47503e-21 -0.000874314 -0 -8.95006e-21 -0 4.47503e-21)
(5.9278e-21 -0.000870114 -0 -1.18556e-20 -0 5.9278e-21)
(4.11209e-21 -0.000776345 -0 -8.22418e-21 -0 4.11209e-21)
(6.73963e-21 -0.000772134 -0 -1.34793e-20 -0 6.73963e-21)
(3.7865e-21 -0.000681113 -0 -7.573e-21 -0 3.7865e-21)
(7.41816e-21 -0.000676898 -0 -1.48363e-20 -0 7.41816e-21)
(3.50574e-21 -0.000588578 -0 -7.01148e-21 -0 3.50574e-21)
(8.03118e-21 -0.000584366 -0 -1.60624e-20 -0 8.03118e-21)
(3.22164e-21 -0.000498697 -0 -6.44328e-21 -0 3.22164e-21)
(8.70158e-21 -0.000494495 -0 -1.74032e-20 -0 8.70158e-21)
(2.90264e-21 -0.000411421 -0 -5.80529e-21 -0 2.90264e-21)
(9.377e-21 -0.000407237 -0 -1.8754e-20 -0 9.377e-21)
(2.58151e-21 -0.000326699 -0 -5.16303e-21 -0 2.58151e-21)
(1.00039e-20 -0.000322539 -0 -2.00077e-20 -0 1.00039e-20)
(2.26235e-21 -0.000244471 -0 -4.5247e-21 -0 2.26235e-21)
(1.06012e-20 -0.000240342 -0 -2.12024e-20 -0 1.06012e-20)
(1.93129e-21 -0.000164674 -0 -3.86257e-21 -0 1.93129e-21)
(1.11857e-20 -0.000160582 -0 -2.23715e-20 -0 1.11857e-20)
(1.62272e-21 -8.72355e-05 -0 -3.24543e-21 -0 1.62272e-21)
(1.17413e-20 -8.31876e-05 -0 -2.34826e-20 -0 1.17413e-20)
(1.32084e-21 -1.20757e-05 -0 -2.64169e-21 -0 1.32084e-21)
(1.22557e-20 -8.07748e-06 -0 -2.45115e-20 -0 1.22557e-20)
(1.025e-21 6.0897e-05 -0 -2.04999e-21 -0 1.025e-21)
(1.27433e-20 6.484e-05 -0 -2.54866e-20 -0 1.27433e-20)
(7.37773e-22 0.000131791 -0 -1.47555e-21 -0 7.37773e-22)
(1.31951e-20 0.000135674 -0 -2.63903e-20 -0 1.31951e-20)
(4.81831e-22 0.000200741 -0 -9.63662e-22 -0 4.81831e-22)
(1.36039e-20 0.000204559 -0 -2.72079e-20 -0 1.36039e-20)
(2.62801e-22 0.000267923 -0 -5.25601e-22 -0 2.62801e-22)
(1.39543e-20 0.000271671 -0 -2.79085e-20 -0 1.39543e-20)
(6.47219e-23 0.000333575 -0 -1.29444e-22 -0 6.47219e-23)
(1.4276e-20 0.00033725 -0 -2.8552e-20 -0 1.4276e-20)
(-8.92234e-23 0.000398033 -0 1.78447e-22 -0 -8.92234e-23)
(1.45601e-20 0.000401633 -0 -2.91203e-20 -0 1.45601e-20)
(-2.15045e-22 0.000461757 -0 4.30089e-22 -0 -2.15045e-22)
(1.47384e-20 0.000465282 -0 -2.94768e-20 -0 1.47384e-20)
(-2.78733e-22 0.000525369 -0 5.57466e-22 -0 -2.78733e-22)
(1.48284e-20 0.000528818 -0 -2.96569e-20 -0 1.48284e-20)
(1.11975e-22 0.000589725 -0 -2.23949e-22 -0 1.11975e-22)
(1.44623e-20 0.000593099 -0 -2.89246e-20 -0 1.44623e-20)
(1.23563e-21 0.000311116 -0 -2.47125e-21 -0 1.23563e-21)
(1.33974e-20 0.000312784 -0 -2.67948e-20 -0 1.33974e-20)
)
;

boundaryField
{
    inlet
    {
        type            cyclic;
    }
    outlet
    {
        type            cyclic;
    }
    bottom
    {
        type            symmetry;
    }
    top
    {
        type            calculated;
        value           nonuniform List<symmTensor> 2((-6.75506e-21 -0.0110765 -0 1.35101e-20 -0 -6.75506e-21) (4.11739e-22 -0.011076 -0 -8.23478e-22 -0 4.11739e-22));
    }
    frontAndBack
    {
        type            empty;
    }
}


// ************************************************************************* //
