/*--------------------------------*- C++ -*----------------------------------*\
  =========                 |
  \\      /  F ield         | OpenFOAM: The Open Source CFD Toolbox
   \\    /   O peration     | Website:  https://openfoam.org
    \\  /    A nd           | Version:  7
     \\/     M anipulation  |
\*---------------------------------------------------------------------------*/
FoamFile
{
    version     2.0;
    format      ascii;
    class       volScalarField;
    location    "1300";
    object      k;
}
// * * * * * * * * * * * * * * * * * * * * * * * * * * * * * * * * * * * * * //

dimensions      [0 2 -2 0 0 0 0];

internalField   nonuniform List<scalar> 
180
(
0.0151141
0.0151067
0.0291912
0.0291894
0.0319011
0.0318998
0.0325563
0.032555
0.0327017
0.0327004
0.0326696
0.0326683
0.0325719
0.0325705
0.032456
0.0324545
0.0323449
0.0323433
0.0322509
0.0322492
0.0321803
0.0321784
0.0321363
0.0321343
0.0321204
0.0321183
0.0321326
0.0321303
0.0321722
0.0321698
0.0322383
0.0322357
0.0323294
0.0323266
0.0324439
0.032441
0.0325804
0.0325774
0.0327372
0.0327341
0.0329128
0.0329095
0.0331056
0.0331022
0.0333142
0.0333107
0.0335373
0.0335336
0.0337734
0.0337696
0.0340215
0.0340176
0.0342803
0.0342763
0.0345487
0.0345447
0.0348258
0.0348217
0.0351106
0.0351063
0.0354022
0.0353978
0.0356997
0.0356952
0.0360023
0.0359978
0.0363093
0.0363047
0.03662
0.0366153
0.0369336
0.0369289
0.0372496
0.0372448
0.0375673
0.0375625
0.0378862
0.0378813
0.0382058
0.0382008
0.0385254
0.0385204
0.0388447
0.0388396
0.039163
0.039158
0.0394801
0.039475
0.0397955
0.0397903
0.0401087
0.0401036
0.0404194
0.0404142
0.0407272
0.040722
0.0410318
0.0410266
0.0413328
0.0413276
0.0416299
0.0416247
0.0419228
0.0419176
0.0422111
0.0422059
0.0424947
0.0424895
0.0427732
0.0427681
0.0430465
0.0430413
0.0433141
0.043309
0.043576
0.0435709
0.0438318
0.0438267
0.0440814
0.0440763
0.0443245
0.0443195
0.044561
0.0445561
0.0447907
0.0447858
0.0450134
0.0450084
0.0452288
0.0452239
0.0454369
0.0454321
0.0456375
0.0456327
0.0458305
0.0458257
0.0460156
0.0460109
0.0461928
0.0461881
0.0463619
0.0463573
0.0465229
0.0465182
0.0466755
0.0466709
0.0468197
0.0468151
0.0469554
0.0469509
0.0470824
0.047078
0.0472008
0.0471963
0.0473103
0.0473059
0.047411
0.0474066
0.0475027
0.0474984
0.0475855
0.0475811
0.0476591
0.0476548
0.0477236
0.0477193
0.0477789
0.0477746
0.0478249
0.0478206
0.0478616
0.0478573
0.047889
0.0478847
0.0479068
0.0479025
0.0479151
0.0479108
0.0479135
0.0479093
)
;

boundaryField
{
    inlet
    {
        type            cyclic;
    }
    outlet
    {
        type            cyclic;
    }
    bottom
    {
        type            symmetry;
    }
    top
    {
        type            kqRWallFunction;
        value           nonuniform List<scalar> 2(0.0151141 0.0151067);
    }
    frontAndBack
    {
        type            empty;
    }
}


// ************************************************************************* //
