/*--------------------------------*- C++ -*----------------------------------*\
  =========                 |
  \\      /  F ield         | OpenFOAM: The Open Source CFD Toolbox
   \\    /   O peration     | Website:  https://openfoam.org
    \\  /    A nd           | Version:  7
     \\/     M anipulation  |
\*---------------------------------------------------------------------------*/
FoamFile
{
    version     2.0;
    format      ascii;
    class       volScalarField;
    location    "1300";
    object      nut;
}
// * * * * * * * * * * * * * * * * * * * * * * * * * * * * * * * * * * * * * //

dimensions      [0 2 -1 0 0 0 0];

internalField   nonuniform List<scalar> 
180
(
5.83106e-06
5.82819e-06
3.31234e-05
3.31193e-05
6.89263e-05
6.89231e-05
0.000107563
0.000107558
0.000147922
0.000147917
0.000189512
0.000189505
0.000232228
0.000232218
0.00027611
0.000276097
0.000321244
0.000321228
0.000367726
0.000367707
0.000415643
0.00041562
0.000465068
0.00046504
0.000516053
0.000516021
0.000568633
0.000568597
0.000622827
0.000622786
0.000678634
0.000678588
0.00073604
0.000735989
0.000795015
0.000794959
0.00085552
0.000855459
0.000917501
0.000917435
0.000980898
0.000980827
0.00104564
0.00104556
0.00111165
0.00111157
0.00117884
0.00117875
0.00124712
0.00124703
0.00131641
0.00131631
0.00138659
0.00138649
0.00145757
0.00145746
0.00152924
0.00152913
0.0016015
0.00160138
0.00167424
0.00167412
0.00174735
0.00174722
0.00182073
0.0018206
0.00189426
0.00189413
0.00196785
0.00196771
0.00204139
0.00204124
0.00211478
0.00211463
0.00218791
0.00218776
0.0022607
0.00226054
0.00233305
0.00233289
0.00240486
0.0024047
0.00247606
0.0024759
0.00254657
0.0025464
0.00261629
0.00261612
0.00268517
0.002685
0.00275312
0.00275295
0.00282009
0.00281992
0.00288601
0.00288584
0.00295082
0.00295064
0.00301446
0.00301429
0.0030769
0.00307673
0.00313808
0.00313791
0.00319795
0.00319778
0.00325649
0.00325632
0.00331364
0.00331348
0.00336939
0.00336923
0.0034237
0.00342353
0.00347653
0.00347637
0.00352788
0.00352772
0.00357771
0.00357756
0.00362601
0.00362586
0.00367277
0.00367262
0.00371795
0.0037178
0.00376156
0.00376141
0.00380357
0.00380343
0.00384399
0.00384385
0.0038828
0.00388266
0.00391999
0.00391986
0.00395557
0.00395543
0.00398951
0.00398938
0.00402183
0.0040217
0.00405251
0.00405239
0.00408156
0.00408144
0.00410897
0.00410885
0.00413474
0.00413462
0.00415888
0.00415876
0.00418137
0.00418126
0.00420223
0.00420211
0.00422144
0.00422133
0.00423902
0.00423891
0.00425497
0.00425486
0.00426927
0.00426916
0.00428194
0.00428183
0.00429297
0.00429287
0.00430237
0.00430226
0.00431013
0.00431002
0.00431625
0.00431615
0.00432074
0.00432063
0.00432358
0.00432347
0.00432476
0.00432466
)
;

boundaryField
{
    inlet
    {
        type            cyclic;
    }
    outlet
    {
        type            cyclic;
    }
    bottom
    {
        type            symmetry;
    }
    top
    {
        type            nutkWallFunction;
        Cmu             0.09;
        kappa           0.41;
        E               9.8;
        value           uniform 0;
    }
    frontAndBack
    {
        type            empty;
    }
}


// ************************************************************************* //
