/*--------------------------------*- C++ -*----------------------------------*\
  =========                 |
  \\      /  F ield         | OpenFOAM: The Open Source CFD Toolbox
   \\    /   O peration     | Website:  https://openfoam.org
    \\  /    A nd           | Version:  7
     \\/     M anipulation  |
\*---------------------------------------------------------------------------*/
FoamFile
{
    version     2.0;
    format      ascii;
    class       volScalarField;
    location    "1300";
    object      omega;
}
// * * * * * * * * * * * * * * * * * * * * * * * * * * * * * * * * * * * * * //

dimensions      [0 0 -1 0 0 0 0];

internalField   nonuniform List<scalar> 
180
(
2592
2592
873.299
873.317
462.828
462.831
302.672
302.672
221.073
221.073
172.388
172.388
140.258
140.258
117.547
117.547
100.686
100.686
87.7035
87.7035
77.4228
77.4227
69.1004
69.1002
62.2425
62.2422
56.5084
56.508
51.6552
51.6547
47.5047
47.5041
43.9234
43.9227
40.8092
40.8084
38.0826
38.0818
35.6809
35.68
33.5537
33.5528
31.6606
31.6597
29.9683
29.9673
28.4494
28.4483
27.081
27.08
25.8442
25.8431
24.7227
24.7217
23.703
23.702
22.7733
22.7722
21.9236
21.9225
21.1452
21.1442
20.4307
20.4297
19.7736
19.7725
19.168
19.167
18.6091
18.6081
18.0924
18.0913
17.614
17.6129
17.1704
17.1694
16.7586
16.7576
16.3759
16.3749
16.0198
16.0188
15.6881
15.6871
15.3788
15.3778
15.0901
15.0891
14.8205
14.8195
14.5684
14.5675
14.3327
14.3317
14.112
14.111
13.9052
13.9043
13.7115
13.7105
13.5298
13.5289
13.3594
13.3584
13.1994
13.1985
13.0493
13.0483
12.9082
12.9073
12.7757
12.7748
12.6513
12.6504
12.5343
12.5334
12.4244
12.4235
12.3211
12.3202
12.224
12.2232
12.1328
12.132
12.0471
12.0463
11.9667
11.9658
11.8911
11.8903
11.8202
11.8194
11.7538
11.7529
11.6915
11.6906
11.6331
11.6323
11.5786
11.5778
11.5276
11.5268
11.48
11.4792
11.4357
11.4349
11.3945
11.3937
11.3563
11.3555
11.321
11.3202
11.2884
11.2876
11.2584
11.2576
11.231
11.2302
11.2061
11.2053
11.1835
11.1828
11.1633
11.1626
11.1453
11.1446
11.1296
11.1288
11.1159
11.1152
11.1045
11.1037
11.095
11.0943
11.0877
11.0869
11.0823
11.0816
11.0789
11.0782
)
;

boundaryField
{
    inlet
    {
        type            cyclic;
    }
    outlet
    {
        type            cyclic;
    }
    bottom
    {
        type            symmetry;
    }
    top
    {
        beta1           0.075;
        blended         0;
        type            omegaWallFunction;
        value           uniform 2592;
    }
    frontAndBack
    {
        type            empty;
    }
}


// ************************************************************************* //
