/*--------------------------------*- C++ -*----------------------------------*\
  =========                 |
  \\      /  F ield         | OpenFOAM: The Open Source CFD Toolbox
   \\    /   O peration     | Website:  https://openfoam.org
    \\  /    A nd           | Version:  7
     \\/     M anipulation  |
\*---------------------------------------------------------------------------*/
FoamFile
{
    version     2.0;
    format      ascii;
    class       volScalarField;
    location    "1300";
    object      p;
}
// * * * * * * * * * * * * * * * * * * * * * * * * * * * * * * * * * * * * * //

dimensions      [0 2 -2 0 0 0 0];

internalField   nonuniform List<scalar> 
180
(
1.01356e-20
-9.26855e-17
3.22626e-20
-9.26986e-17
4.76702e-20
-9.27125e-17
2.36512e-20
-9.26868e-17
1.44436e-20
-9.26879e-17
8.10702e-20
-9.27221e-17
1.45581e-19
-9.2766e-17
1.32021e-19
-9.27283e-17
1.17409e-19
-9.26857e-17
1.32579e-19
-9.26691e-17
1.50999e-19
-9.26515e-17
1.33515e-19
-9.26332e-17
2.02433e-19
-9.25706e-17
2.3145e-19
-9.25508e-17
3.17134e-19
-9.26358e-17
2.96625e-19
-9.24997e-17
1.50625e-19
-9.24779e-17
1.28776e-19
-9.24555e-17
1.06323e-19
-9.24325e-17
8.32195e-20
-9.24088e-17
5.95599e-20
-9.23846e-17
3.52905e-20
-9.23598e-17
1.05115e-20
-9.23344e-17
-1.4834e-20
-9.23085e-17
-4.06452e-20
-9.22821e-17
-6.69636e-20
-9.22551e-17
-9.37037e-20
-9.22277e-17
-1.20883e-19
-9.21999e-17
-1.48439e-19
-9.21717e-17
-1.76358e-19
-9.21431e-17
-2.046e-19
-9.21142e-17
-2.3313e-19
-9.20851e-17
-2.61921e-19
-9.20556e-17
-2.90931e-19
-9.20261e-17
-3.20133e-19
-9.19963e-17
-3.4949e-19
-9.19664e-17
-3.78967e-19
-9.19365e-17
-4.08539e-19
-9.19065e-17
-4.38159e-19
-9.18765e-17
-4.67817e-19
-9.18464e-17
-4.97455e-19
-9.18165e-17
-5.27065e-19
-9.17864e-17
-5.56593e-19
-9.17566e-17
-5.86024e-19
-9.17267e-17
-6.15314e-19
-9.1697e-17
-6.44433e-19
-9.16674e-17
-6.73353e-19
-9.1638e-17
-7.02028e-19
-9.16089e-17
-7.30443e-19
-9.158e-17
-7.58548e-19
-9.15514e-17
-7.86332e-19
-9.15232e-17
-8.13745e-19
-9.14954e-17
-8.40775e-19
-9.1468e-17
-8.67385e-19
-9.1441e-17
-8.93552e-19
-9.14145e-17
-9.19254e-19
-9.13885e-17
-9.44458e-19
-9.13631e-17
-9.69154e-19
-9.13381e-17
-9.93303e-19
-9.13137e-17
-1.0169e-18
-9.12898e-17
-1.03991e-18
-9.12666e-17
-1.06233e-18
-9.12439e-17
-1.08411e-18
-9.12219e-17
-1.10526e-18
-9.12005e-17
-1.12575e-18
-9.11797e-17
-1.14555e-18
-9.11597e-17
-1.16467e-18
-9.11404e-17
-1.18306e-18
-9.11218e-17
-1.20073e-18
-9.11039e-17
-1.21765e-18
-9.10868e-17
-1.23381e-18
-9.10705e-17
-1.24919e-18
-9.10549e-17
-1.26379e-18
-9.10402e-17
-1.2776e-18
-9.10262e-17
-1.2906e-18
-9.10131e-17
-1.30278e-18
-9.10008e-17
-1.31413e-18
-9.09894e-17
-1.32465e-18
-9.09788e-17
-1.33433e-18
-9.0969e-17
-1.34315e-18
-9.09601e-17
-1.35112e-18
-9.09521e-17
-1.35823e-18
-9.09449e-17
-1.36447e-18
-9.09386e-17
-1.36983e-18
-9.09332e-17
-1.37432e-18
-9.09287e-17
-1.37792e-18
-9.09251e-17
-1.38065e-18
-9.09223e-17
-1.38248e-18
-9.09205e-17
-1.38344e-18
-9.09195e-17
-1.38356e-18
-9.09194e-17
)
;

boundaryField
{
    inlet
    {
        type            cyclic;
    }
    outlet
    {
        type            cyclic;
    }
    bottom
    {
        type            symmetry;
    }
    top
    {
        type            zeroGradient;
    }
    frontAndBack
    {
        type            empty;
    }
}


// ************************************************************************* //
