/*--------------------------------*- C++ -*----------------------------------*\
  =========                 |
  \\      /  F ield         | OpenFOAM: The Open Source CFD Toolbox
   \\    /   O peration     | Website:  https://openfoam.org
    \\  /    A nd           | Version:  7
     \\/     M anipulation  |
\*---------------------------------------------------------------------------*/
FoamFile
{
    version     2.0;
    format      ascii;
    class       surfaceScalarField;
    location    "1300";
    object      phi;
}
// * * * * * * * * * * * * * * * * * * * * * * * * * * * * * * * * * * * * * //

dimensions      [0 3 -1 0 0 0 0];

internalField   nonuniform List<scalar> 
268
(
0.000683719
-3.97224e-19
1.10887e-19
0.00114034
-4.15474e-19
1.77868e-19
0.00135831
-1.64328e-19
-1.00006e-19
0.00149201
-2.65448e-19
-1.01695e-20
0.00158613
-6.06678e-19
2.4575e-19
0.00165773
-6.16281e-19
2.52641e-19
0.0017149
-1.44337e-19
-2.26183e-19
0.00176207
-1.38483e-19
-2.27187e-19
0.00180189
-1.38751e-19
-2.00546e-19
0.00183611
-1.18865e-19
-1.91638e-19
0.00186588
-5.19678e-20
-1.81584e-19
0.00189208
-2.27848e-19
-1.99433e-19
0.00191532
-1.05892e-19
-1.93549e-19
0.00193608
-7.69436e-20
-1.11823e-19
0.00195473
-4.63947e-20
-9.65961e-20
0.00197158
1.97219e-20
-2.00514e-20
0.00198687
3.17396e-20
-3.41474e-20
0.00200078
4.27278e-20
-3.36136e-20
0.0020135
3.57517e-20
-3.20637e-20
0.00202515
1.63842e-20
-3.00893e-20
0.00203585
1.13272e-21
-2.92913e-20
0.0020457
-1.59992e-20
-2.8626e-20
0.0020548
-2.61492e-20
-2.86713e-20
0.0020632
-3.68788e-20
-2.90006e-20
0.00207099
-4.19321e-20
-2.98838e-20
0.00207821
-4.84914e-20
-3.06804e-20
0.00208491
-5.04781e-20
-3.1507e-20
0.00209114
-5.39085e-20
-3.22629e-20
0.00209695
-5.40129e-20
-3.2821e-20
0.00210235
-5.58937e-20
-3.34428e-20
0.0021074
-5.53984e-20
-3.37831e-20
0.0021121
-5.63582e-20
-3.42917e-20
0.0021165
-5.52387e-20
-3.45856e-20
0.00212061
-5.54634e-20
-3.50335e-20
0.00212445
-5.38941e-20
-3.53889e-20
0.00212805
-5.37032e-20
-3.58169e-20
0.00213142
-5.2187e-20
-3.63351e-20
0.00213457
-5.17108e-20
-3.67983e-20
0.00213753
-4.99389e-20
-3.75098e-20
0.00214029
-4.91447e-20
-3.80566e-20
0.00214289
-4.72841e-20
-3.8907e-20
0.00214532
-4.6283e-20
-3.96349e-20
0.0021476
-4.43773e-20
-4.05278e-20
0.00214974
-4.32467e-20
-4.12061e-20
0.00215174
-4.13797e-20
-4.2078e-20
0.00215362
-4.01369e-20
-4.29763e-20
0.00215538
-3.8228e-20
-4.38871e-20
0.00215703
-3.682e-20
-4.48847e-20
0.00215858
-3.4973e-20
-4.57753e-20
0.00216002
-3.3683e-20
-4.67605e-20
0.00216138
-3.18946e-20
-4.75806e-20
0.00216264
-3.04972e-20
-4.84467e-20
0.00216383
-2.87019e-20
-4.91651e-20
0.00216493
-2.72736e-20
-4.98927e-20
0.00216597
-2.55088e-20
-5.05827e-20
0.00216693
-2.40866e-20
-5.1128e-20
0.00216783
-2.23816e-20
-5.16092e-20
0.00216866
-2.09856e-20
-5.19348e-20
0.00216943
-1.93519e-20
-5.2252e-20
0.00217015
-1.80043e-20
-5.23305e-20
0.00217082
-1.64745e-20
-5.23699e-20
0.00217143
-1.51995e-20
-5.22539e-20
0.00217199
-1.37877e-20
-5.19955e-20
0.00217251
-1.26068e-20
-5.15793e-20
0.00217299
-1.1338e-20
-5.10274e-20
0.00217342
-1.02458e-20
-5.03598e-20
0.00217382
-9.07206e-21
-4.95254e-20
0.00217417
-8.08976e-21
-4.85821e-20
0.00217449
-7.05826e-21
-4.74846e-20
0.00217478
-6.17019e-21
-4.62572e-20
0.00217503
-5.27943e-21
-4.48596e-20
0.00217525
-4.54014e-21
-4.33388e-20
0.00217544
-3.79226e-21
-4.17048e-20
0.00217561
-3.17193e-21
-3.99404e-20
0.00217574
-2.55985e-21
-3.806e-20
0.00217585
-2.06922e-21
-3.60554e-20
0.00217593
-1.59715e-21
-3.39516e-20
0.00217599
-1.23465e-21
-3.17357e-20
0.00217603
-8.98004e-22
-2.94248e-20
0.00217604
-6.5263e-22
-2.70206e-20
0.00217604
-4.41762e-22
-2.45301e-20
0.00217601
-3.06573e-22
-2.19615e-20
0.00217596
-2.06435e-22
-1.93187e-20
0.00217589
-1.60833e-22
-1.66174e-20
0.0021758
-1.4364e-22
-1.38572e-20
0.0021757
-1.6449e-22
-1.10495e-20
0.00217558
-2.04522e-22
-8.21002e-21
0.00217543
-2.63229e-22
-5.349e-21
0.00217528
-3.37373e-22
-2.47162e-21
0.0021751
)
;

boundaryField
{
    inlet
    {
        type            cyclic;
        value           nonuniform List<scalar> 
90
(
-0.000683719
-0.00114034
-0.00135831
-0.00149201
-0.00158613
-0.00165773
-0.0017149
-0.00176207
-0.00180189
-0.00183611
-0.00186588
-0.00189208
-0.00191532
-0.00193608
-0.00195473
-0.00197158
-0.00198687
-0.00200078
-0.0020135
-0.00202515
-0.00203585
-0.0020457
-0.0020548
-0.0020632
-0.00207099
-0.00207821
-0.00208491
-0.00209114
-0.00209695
-0.00210235
-0.0021074
-0.0021121
-0.0021165
-0.00212061
-0.00212445
-0.00212805
-0.00213142
-0.00213457
-0.00213753
-0.00214029
-0.00214289
-0.00214532
-0.0021476
-0.00214974
-0.00215174
-0.00215362
-0.00215538
-0.00215703
-0.00215858
-0.00216002
-0.00216138
-0.00216264
-0.00216383
-0.00216493
-0.00216597
-0.00216693
-0.00216783
-0.00216866
-0.00216943
-0.00217015
-0.00217082
-0.00217143
-0.00217199
-0.00217251
-0.00217299
-0.00217342
-0.00217382
-0.00217417
-0.00217449
-0.00217478
-0.00217503
-0.00217525
-0.00217544
-0.00217561
-0.00217574
-0.00217585
-0.00217593
-0.00217599
-0.00217603
-0.00217604
-0.00217604
-0.00217601
-0.00217596
-0.00217589
-0.0021758
-0.0021757
-0.00217558
-0.00217543
-0.00217528
-0.0021751
)
;
    }
    outlet
    {
        type            cyclic;
        value           nonuniform List<scalar> 
90
(
0.000683719
0.00114034
0.00135831
0.00149201
0.00158613
0.00165773
0.0017149
0.00176207
0.00180189
0.00183611
0.00186588
0.00189208
0.00191532
0.00193608
0.00195473
0.00197158
0.00198687
0.00200078
0.0020135
0.00202515
0.00203585
0.0020457
0.0020548
0.0020632
0.00207099
0.00207821
0.00208491
0.00209114
0.00209695
0.00210235
0.0021074
0.0021121
0.0021165
0.00212061
0.00212445
0.00212805
0.00213142
0.00213457
0.00213753
0.00214029
0.00214289
0.00214532
0.0021476
0.00214974
0.00215174
0.00215362
0.00215538
0.00215703
0.00215858
0.00216002
0.00216138
0.00216264
0.00216383
0.00216493
0.00216597
0.00216693
0.00216783
0.00216866
0.00216943
0.00217015
0.00217082
0.00217143
0.00217199
0.00217251
0.00217299
0.00217342
0.00217382
0.00217417
0.00217449
0.00217478
0.00217503
0.00217525
0.00217544
0.00217561
0.00217574
0.00217585
0.00217593
0.00217599
0.00217603
0.00217604
0.00217604
0.00217601
0.00217596
0.00217589
0.0021758
0.0021757
0.00217558
0.00217543
0.00217528
0.0021751
)
;
    }
    bottom
    {
        type            symmetry;
        value           uniform 0;
    }
    top
    {
        type            calculated;
        value           uniform 0;
    }
    frontAndBack
    {
        type            empty;
        value           nonuniform 0();
    }
}


// ************************************************************************* //
