/*--------------------------------*- C++ -*----------------------------------*\
  =========                 |
  \\      /  F ield         | OpenFOAM: The Open Source CFD Toolbox
   \\    /   O peration     | Website:  https://openfoam.org
    \\  /    A nd           | Version:  7
     \\/     M anipulation  |
\*---------------------------------------------------------------------------*/
FoamFile
{
    version     2.0;
    format      ascii;
    class       volVectorField;
    location    "1300";
    object      U;
}
// * * * * * * * * * * * * * * * * * * * * * * * * * * * * * * * * * * * * * //

dimensions      [0 1 -1 0 0 0 0];

internalField   nonuniform List<vector> 
180
(
(0.61536 -5.62922e-19 0)
(0.615334 3.43116e-20 0)
(1.0263 -8.19829e-19 0)
(1.02631 3.64438e-19 0)
(1.22247 -5.21467e-19 0)
(1.22248 1.39784e-20 0)
(1.3428 -4.53021e-19 0)
(1.34281 -9.39534e-20 0)
(1.42751 -9.18461e-19 0)
(1.42752 2.63e-19 0)
(1.49195 -1.22544e-18 0)
(1.49196 5.01473e-19 0)
(1.5434 -7.30019e-19 0)
(1.54342 -1.74933e-20 0)
(1.58585 -2.93208e-19 0)
(1.58587 -4.54129e-19 0)
(1.6217 -2.80654e-19 0)
(1.62171 -4.29096e-19 0)
(1.65249 -2.65669e-19 0)
(1.6525 -3.92798e-19 0)
(1.67929 -1.82375e-19 0)
(1.6793 -3.72016e-19 0)
(1.70286 -3.05468e-19 0)
(1.70288 -3.77094e-19 0)
(1.72378 -3.51512e-19 0)
(1.72379 -3.76812e-19 0)
(1.74246 -1.21559e-19 0)
(1.74248 -3.72946e-19 0)
(1.75925 -1.14856e-19 0)
(1.75927 -2.04382e-19 0)
(1.77441 -7.32899e-20 0)
(1.77443 -5.49588e-20 0)
(1.78817 7.18718e-20 0)
(1.78819 -6.64481e-20 0)
(1.80069 9.07846e-20 0)
(1.80071 -6.95454e-20 0)
(1.81214 8.51205e-20 0)
(1.81216 -6.53002e-20 0)
(1.82262 5.29892e-20 0)
(1.82264 -6.22646e-20 0)
(1.83225 1.69193e-20 0)
(1.83227 -5.85133e-20 0)
(1.84112 -1.66318e-20 0)
(1.84114 -5.80421e-20 0)
(1.84931 -4.34907e-20 0)
(1.84933 -5.68165e-20 0)
(1.85687 -6.48204e-20 0)
(1.85689 -5.74037e-20 0)
(1.86388 -7.94072e-20 0)
(1.8639 -5.87627e-20 0)
(1.87037 -9.14671e-20 0)
(1.8704 -6.05206e-20 0)
(1.87641 -9.96607e-20 0)
(1.87643 -6.21845e-20 0)
(1.88202 -1.04955e-19 0)
(1.88204 -6.37795e-20 0)
(1.88724 -1.08316e-19 0)
(1.88726 -6.50927e-20 0)
(1.89211 -1.10001e-19 0)
(1.89213 -6.62681e-20 0)
(1.89665 -1.11548e-19 0)
(1.89667 -6.72186e-20 0)
(1.90088 -1.11991e-19 0)
(1.9009 -6.80613e-20 0)
(1.90484 -1.11737e-19 0)
(1.90486 -6.88528e-20 0)
(1.90854 -1.1087e-19 0)
(1.90856 -6.95898e-20 0)
(1.912 -1.09491e-19 0)
(1.91202 -7.03866e-20 0)
(1.91524 -1.07534e-19 0)
(1.91526 -7.11672e-20 0)
(1.91827 -1.05999e-19 0)
(1.91829 -7.21122e-20 0)
(1.92111 -1.03999e-19 0)
(1.92112 -7.30889e-20 0)
(1.92376 -1.01711e-19 0)
(1.92378 -7.42671e-20 0)
(1.92626 -9.91458e-20 0)
(1.92627 -7.55311e-20 0)
(1.92859 -9.64669e-20 0)
(1.92861 -7.69101e-20 0)
(1.93078 -9.36094e-20 0)
(1.9308 -7.84706e-20 0)
(1.93283 -9.06818e-20 0)
(1.93285 -8.02608e-20 0)
(1.93476 -8.7641e-20 0)
(1.93477 -8.16642e-20 0)
(1.93656 -8.46472e-20 0)
(1.93658 -8.3232e-20 0)
(1.93825 -8.15523e-20 0)
(1.93827 -8.50153e-20 0)
(1.93984 -7.83989e-20 0)
(1.93985 -8.68361e-20 0)
(1.94132 -7.50953e-20 0)
(1.94133 -8.87561e-20 0)
(1.94271 -7.16871e-20 0)
(1.94272 -9.0654e-20 0)
(1.94402 -6.86971e-20 0)
(1.94403 -9.25412e-20 0)
(1.94523 -6.56006e-20 0)
(1.94525 -9.43559e-20 0)
(1.94638 -6.24093e-20 0)
(1.94638 -9.60537e-20 0)
(1.94744 -5.92046e-20 0)
(1.94745 -9.7649e-20 0)
(1.94844 -5.59785e-20 0)
(1.94845 -9.90369e-20 0)
(1.94937 -5.27788e-20 0)
(1.94937 -1.00527e-19 0)
(1.95023 -4.95924e-20 0)
(1.95024 -1.01763e-19 0)
(1.95104 -4.64605e-20 0)
(1.95105 -1.02803e-19 0)
(1.95179 -4.33584e-20 0)
(1.9518 -1.03554e-19 0)
(1.95249 -4.03236e-20 0)
(1.95249 -1.04264e-19 0)
(1.95314 -3.73411e-20 0)
(1.95314 -1.04658e-19 0)
(1.95373 -3.44594e-20 0)
(1.95373 -1.04721e-19 0)
(1.95429 -3.16532e-20 0)
(1.95429 -1.04703e-19 0)
(1.9548 -2.89626e-20 0)
(1.95479 -1.04332e-19 0)
(1.95526 -2.63681e-20 0)
(1.95526 -1.03632e-19 0)
(1.95569 -2.39147e-20 0)
(1.95569 -1.02669e-19 0)
(1.95608 -2.15821e-20 0)
(1.95608 -1.01452e-19 0)
(1.95644 -1.92827e-20 0)
(1.95643 -9.99527e-20 0)
(1.95676 -1.71257e-20 0)
(1.95675 -9.81717e-20 0)
(1.95705 -1.51398e-20 0)
(1.95704 -9.61271e-20 0)
(1.95731 -1.3191e-20 0)
(1.9573 -9.38267e-20 0)
(1.95753 -1.14102e-20 0)
(1.95752 -9.11865e-20 0)
(1.95773 -9.79129e-21 0)
(1.95772 -8.82545e-20 0)
(1.95791 -8.30331e-21 0)
(1.95789 -8.50996e-20 0)
(1.95805 -6.93522e-21 0)
(1.95804 -8.17114e-20 0)
(1.95818 -5.69616e-21 0)
(1.95816 -7.80576e-20 0)
(1.95827 -4.60082e-21 0)
(1.95826 -7.41699e-20 0)
(1.95835 -3.63204e-21 0)
(1.95833 -7.00585e-20 0)
(1.9584 -2.80161e-21 0)
(1.95839 -6.57387e-20 0)
(1.95844 -2.10372e-21 0)
(1.95842 -6.12064e-20 0)
(1.95845 -1.52331e-21 0)
(1.95843 -5.64892e-20 0)
(1.95844 -1.06753e-21 0)
(1.95842 -5.15916e-20 0)
(1.95842 -7.22208e-22 0)
(1.9584 -4.65293e-20 0)
(1.95838 -4.92841e-22 0)
(1.95835 -4.1313e-20 0)
(1.95831 -3.47994e-22 0)
(1.95829 -3.59636e-20 0)
(1.95824 -2.8926e-22 0)
(1.95821 -3.0503e-20 0)
(1.95814 -2.97966e-22 0)
(1.95812 -2.49284e-20 0)
(1.95803 -3.58103e-22 0)
(1.958 -1.92684e-20 0)
(1.95791 -4.63656e-22 0)
(1.95788 -1.35723e-20 0)
(1.95776 -5.72642e-22 0)
(1.95773 -7.85475e-21 0)
(1.9576 -3.77526e-22 0)
(1.95757 -2.44779e-21 0)
)
;

boundaryField
{
    inlet
    {
        type            cyclic;
    }
    outlet
    {
        type            cyclic;
    }
    bottom
    {
        type            symmetry;
    }
    top
    {
        type            noSlip;
    }
    frontAndBack
    {
        type            empty;
    }
}


// ************************************************************************* //
