/*--------------------------------*- C++ -*----------------------------------*\
  =========                 |
  \\      /  F ield         | OpenFOAM: The Open Source CFD Toolbox
   \\    /   O peration     | Website:  https://openfoam.org
    \\  /    A nd           | Version:  7
     \\/     M anipulation  |
\*---------------------------------------------------------------------------*/
FoamFile
{
    version     2.0;
    format      ascii;
    class       volScalarField;
    location    "100";
    object      k;
}
// * * * * * * * * * * * * * * * * * * * * * * * * * * * * * * * * * * * * * //

dimensions      [0 2 -2 0 0 0 0];

internalField   nonuniform List<scalar> 
12842
(
0.0056736
0.00507167
0.00474271
0.00448126
0.0043168
0.00417819
0.0040998
0.00402816
0.00398626
0.00395004
0.00394488
0.00395758
0.00399371
0.00405295
0.00413239
0.00418013
0.00424518
0.00429902
0.00434625
0.00439726
0.00443962
0.00447495
0.00450124
0.00565707
0.00498417
0.0046547
0.0044277
0.00429592
0.00416042
0.00408641
0.00401325
0.00397984
0.00394384
0.00394088
0.00395465
0.00399259
0.00405452
0.00413744
0.00419316
0.00426211
0.0043095
0.00435917
0.00440763
0.00445114
0.00448539
0.00450874
0.00560321
0.00496358
0.00459056
0.00436734
0.00424403
0.00413313
0.00407241
0.00400272
0.00396843
0.00393377
0.00393627
0.00395271
0.00399975
0.004073
0.00414941
0.00421148
0.00428119
0.0043318
0.00437702
0.004426
0.00446906
0.0045003
0.00451961
0.00553253
0.00487592
0.00453813
0.00431032
0.00420537
0.00409896
0.00404748
0.00398627
0.00395945
0.00392886
0.0039328
0.0039538
0.00400455
0.00409129
0.00416663
0.00422497
0.00430059
0.0043538
0.00440348
0.00444791
0.00448763
0.00451479
0.00452944
0.00547499
0.0048163
0.00447211
0.0042567
0.00415427
0.00407092
0.00402551
0.00397
0.00394478
0.00392263
0.00392866
0.00395269
0.00401946
0.00411264
0.00419964
0.0042529
0.00432495
0.00437888
0.00442699
0.00446986
0.00450612
0.00452979
0.0045402
0.00539554
0.00473218
0.00442148
0.0042152
0.00412006
0.0040368
0.00400318
0.00395427
0.00393544
0.00391827
0.0039271
0.00395362
0.00402612
0.00414058
0.00422199
0.00427956
0.0043507
0.0044082
0.0044556
0.00449251
0.00452566
0.00454561
0.00455295
0.00533719
0.00467175
0.00436076
0.00416796
0.00408321
0.0040158
0.00398205
0.00393893
0.00392206
0.0039147
0.00392106
0.0039598
0.00404567
0.0041633
0.00425244
0.00430608
0.00437745
0.00443184
0.0044829
0.00451193
0.00453749
0.00455547
0.00456084
0.00525936
0.00460006
0.0043168
0.00413525
0.00405376
0.00398832
0.00396451
0.00392648
0.00391275
0.00391169
0.00392051
0.00396145
0.00405615
0.00419588
0.00428174
0.00433779
0.00440395
0.0044596
0.00450634
0.00453759
0.00455741
0.0045697
0.00457307
0.00520139
0.00454854
0.0042676
0.00409913
0.00402939
0.00397307
0.00394823
0.00391522
0.00390399
0.00390799
0.00392393
0.00397181
0.00407494
0.00421699
0.00430972
0.00436257
0.00443138
0.00448315
0.00452954
0.00455188
0.00456808
0.00457606
0.004578
0.00511455
0.00448113
0.00422796
0.0040714
0.00400822
0.00395615
0.00393619
0.00390697
0.00389971
0.00390556
0.00392763
0.00398135
0.00409446
0.00424549
0.00433281
0.00438895
0.00445074
0.00450414
0.0045453
0.00456719
0.00457815
0.00458367
0.00458518
0.00504942
0.00443331
0.00418695
0.00404355
0.00398918
0.00394312
0.0039241
0.00389875
0.00389454
0.00390212
0.00393373
0.00399678
0.00412345
0.00426864
0.00435862
0.0044115
0.00447358
0.0045213
0.00456038
0.00457595
0.00458712
0.00458878
0.00458995
0.00496305
0.00437602
0.00415271
0.00401887
0.00397207
0.00392964
0.00391315
0.00389161
0.00389152
0.00390179
0.00393993
0.00401051
0.0041516
0.00429998
0.00438208
0.0044365
0.0044915
0.00454033
0.00457609
0.00458987
0.00459451
0.00459908
0.00460028
0.00489788
0.00433471
0.00411899
0.00399697
0.00395527
0.00391722
0.00390321
0.00388516
0.00388784
0.00389595
0.00394526
0.00402532
0.00418489
0.00432381
0.00440753
0.00445996
0.00451293
0.00455531
0.0045868
0.00459967
0.00460782
0.0046065
0.00460692
0.0048168
0.00428727
0.00409024
0.00397641
0.00394095
0.0039058
0.00389335
0.00387884
0.00388537
0.00389833
0.00395422
0.00404226
0.0042173
0.00435462
0.00443131
0.00448249
0.00453053
0.00457236
0.00460429
0.00461329
0.00461549
0.00462006
0.00462256
0.00475877
0.00425303
0.00406306
0.00395937
0.00392613
0.00389455
0.00388512
0.00387406
0.00388288
0.00390106
0.00395895
0.00405654
0.0042511
0.00437696
0.00445669
0.00450683
0.00454979
0.0045865
0.00461331
0.00462506
0.00463239
0.00463194
0.00463131
0.00469606
0.00421398
0.00403897
0.00394308
0.00391341
0.00388471
0.00387658
0.00386869
0.00388107
0.00390489
0.00396889
0.00407651
0.00428402
0.00440421
0.00448004
0.00452746
0.00456781
0.00460309
0.00463141
0.00464156
0.00464249
0.00464551
0.00465252
0.00465102
0.00418598
0.00401715
0.00392946
0.00390004
0.00387494
0.00386959
0.00386502
0.00387945
0.00390797
0.00397447
0.00409009
0.00431414
0.0044257
0.00450619
0.00455055
0.00458563
0.00461728
0.00464221
0.00465396
0.00466146
0.00466498
0.00466567
0.00460263
0.00415349
0.00399666
0.00391624
0.0038884
0.0038666
0.00386244
0.00386068
0.00387824
0.00391144
0.00398383
0.00411446
0.0043447
0.00444743
0.00452852
0.00457105
0.00460522
0.00463574
0.00466155
0.00467414
0.0046779
0.0046772
0.00468845
0.00456762
0.00413064
0.0039789
0.00390474
0.00387608
0.00385815
0.00385646
0.00385754
0.00387688
0.00391435
0.0039906
0.00412654
0.00436731
0.00446812
0.00455292
0.00459175
0.0046217
0.00465303
0.00467748
0.00469157
0.0046936
0.00470565
0.00471952
0.00453034
0.00410344
0.00396119
0.00389318
0.0038654
0.00385118
0.00385038
0.00385413
0.00387603
0.00391729
0.00399971
0.00415316
0.00439555
0.00448593
0.00457651
0.00461336
0.0046447
0.00467452
0.0047008
0.0047115
0.00472586
0.00473206
0.00474765
0.00450306
0.00408473
0.00394621
0.00388254
0.00385407
0.00384362
0.00384497
0.00385095
0.00387453
0.0039191
0.00400683
0.00416593
0.00441115
0.00450738
0.00459767
0.00463104
0.00466253
0.00469833
0.00472055
0.00474254
0.00474962
0.00476448
0.00480603
0.00447401
0.00406178
0.00393058
0.00387152
0.00384457
0.00383767
0.00383984
0.0038483
0.00387361
0.0039227
0.00401785
0.00419407
0.00443471
0.00452419
0.00462154
0.00465386
0.00468769
0.00472248
0.00475601
0.00476852
0.00479496
0.00484717
0.004911
0.00445254
0.00404639
0.0039173
0.00386088
0.00383414
0.00383037
0.00383454
0.00384445
0.00387148
0.00392252
0.00402333
0.00420516
0.00444876
0.00454814
0.00464075
0.00467025
0.00471173
0.00475656
0.00478247
0.00481238
0.00487935
0.00494997
0.00504442
0.00443173
0.00403113
0.00390653
0.00385295
0.00382761
0.00382674
0.00383161
0.00384322
0.00387143
0.00392739
0.00403793
0.00423225
0.00446042
0.00456368
0.00466229
0.00469089
0.00473663
0.00478544
0.00482146
0.00488486
0.00496493
0.00507054
0.00522602
0.00442109
0.00402231
0.00389886
0.00384661
0.00382263
0.00382368
0.00382954
0.00384157
0.003871
0.00393165
0.00404703
0.00424981
0.0044666
0.00458209
0.00467863
0.0047101
0.00476933
0.00482191
0.00488533
0.00496319
0.00509489
0.00536874
0.00626654
0.00440531
0.00401336
0.00389158
0.00384129
0.00381888
0.00382131
0.00382746
0.0038404
0.00387045
0.00393614
0.00406361
0.00428033
0.00447335
0.00459194
0.00469407
0.00472547
0.00479204
0.00486723
0.00494283
0.00508609
0.00545656
0.00681905
0.0133411
0.00439413
0.00400467
0.00388376
0.00383499
0.0038143
0.00381828
0.00382516
0.00383788
0.00386952
0.00393966
0.00407328
0.00430238
0.00448896
0.0046112
0.00470952
0.00474696
0.00482843
0.00491815
0.00503362
0.00534404
0.00663809
0.0135828
0.0457291
0.00438054
0.00399696
0.00387656
0.0038298
0.00381108
0.00381591
0.00382286
0.00383623
0.00386882
0.00394554
0.00409226
0.00433361
0.00449877
0.00462319
0.00472319
0.00476895
0.00487008
0.00497716
0.00522749
0.00608453
0.0113571
0.0424714
0.166535
0.00436878
0.00398844
0.00386869
0.00382418
0.00380686
0.003813
0.00382023
0.00383346
0.00386829
0.00394911
0.00410221
0.004357
0.00451658
0.00464355
0.0047344
0.00478789
0.00490802
0.00509904
0.00549675
0.00759276
0.0208227
0.0812746
0.281602
0.00435702
0.00398114
0.00386192
0.00381935
0.00380422
0.00381063
0.00381761
0.00383172
0.00386696
0.00395462
0.00412424
0.0043886
0.00453102
0.00466574
0.00475387
0.00483461
0.00499342
0.00523225
0.00605283
0.011192
0.0392258
0.153582
0.485701
0.00434524
0.00397281
0.00385429
0.00381456
0.00380031
0.00380794
0.00381475
0.00382901
0.00386734
0.00395923
0.00413541
0.00440864
0.00454731
0.00468207
0.00477305
0.00487907
0.00507858
0.00541112
0.00694498
0.0168945
0.0673177
0.23013
0.658877
0.00433472
0.00396543
0.00384822
0.00381041
0.00379818
0.00380546
0.00381193
0.00382748
0.0038686
0.00396729
0.00415903
0.00444673
0.00458002
0.0047229
0.00481491
0.00494312
0.00519195
0.0058108
0.0094724
0.032902
0.136061
0.428122
1.00402
0.00432349
0.00395715
0.00384103
0.00380628
0.0037947
0.00380288
0.003809
0.00382509
0.00386843
0.00397114
0.00417119
0.00446615
0.00460229
0.00475155
0.0048644
0.00509473
0.00547859
0.00673923
0.0148878
0.0613599
0.239781
0.545224
1.14039
0.00431394
0.00394984
0.00383578
0.00380288
0.00379285
0.00380037
0.00380637
0.0038239
0.0038698
0.00397844
0.00419739
0.0045108
0.00466249
0.00482239
0.00494523
0.00517447
0.00571785
0.0084856
0.0281514
0.144787
0.33095
0.705323
1.59087
0.00430339
0.00394143
0.00382929
0.00379927
0.00378982
0.00379757
0.0038037
0.00382174
0.0038697
0.00398176
0.00421105
0.00453704
0.00470375
0.00487946
0.00508092
0.00547151
0.00707921
0.0169226
0.0671405
0.186716
0.383297
0.708906
1.56204
0.00429474
0.00393452
0.00382484
0.00379647
0.00378798
0.00379502
0.00380134
0.00382087
0.00387147
0.00399062
0.00424334
0.00459417
0.00479996
0.00499454
0.00517975
0.00572076
0.00846783
0.0245238
0.0940809
0.248355
0.425675
0.832955
1.54954
0.004285
0.00392612
0.00381913
0.00379306
0.00378543
0.00379211
0.00379925
0.00381848
0.00387181
0.00399556
0.00426126
0.00462941
0.00486208
0.00509909
0.00548007
0.00670811
0.0131233
0.0448325
0.139148
0.271742
0.439912
0.805117
1.45546
0.0042769
0.00391976
0.00381549
0.00379086
0.00378326
0.0037893
0.00379746
0.00381788
0.00387575
0.00401383
0.00431185
0.00471747
0.00500668
0.00525267
0.0056965
0.00770795
0.0181482
0.0620419
0.170723
0.298676
0.453197
0.727523
1.24979
0.00426822
0.00391186
0.00381049
0.00378726
0.00378092
0.00378605
0.0037956
0.00381713
0.00387798
0.00402503
0.00434143
0.00476951
0.00509073
0.0054442
0.00621837
0.00979535
0.0263428
0.0895687
0.18853
0.317552
0.462062
0.696516
1.11976
0.00426036
0.0039059
0.00380757
0.00378542
0.00377879
0.00378373
0.00379429
0.00381887
0.0038895
0.00406216
0.00442436
0.00489905
0.0052744
0.00563842
0.00683883
0.0131956
0.0427216
0.113406
0.23571
0.331684
0.496377
0.842495
1.20514
0.00425254
0.00389897
0.00380329
0.00378182
0.00377564
0.00377956
0.00379276
0.00382034
0.00390048
0.00408683
0.00447231
0.00497437
0.00538652
0.00592303
0.00769991
0.0160405
0.0500393
0.12282
0.245401
0.374711
0.687758
1.09288
1.37994
0.00424508
0.0038932
0.00380094
0.00377995
0.00377384
0.00377743
0.00379129
0.00382825
0.00392727
0.00414849
0.00459296
0.00514618
0.00562791
0.00632065
0.00944058
0.0254379
0.0788801
0.170411
0.268493
0.525517
0.954664
1.29572
1.50321
0.00423763
0.00388722
0.00379734
0.00377627
0.00377008
0.00377314
0.00378823
0.00383631
0.0039506
0.00419447
0.00466176
0.00524376
0.00576013
0.00659919
0.0105677
0.0296535
0.0890268
0.178971
0.395814
0.898679
1.31906
1.53139
1.65516
0.00423064
0.00388172
0.00379537
0.00377437
0.00376793
0.00377075
0.003789
0.00385229
0.00399024
0.00428149
0.00482091
0.00545786
0.00605405
0.00734842
0.0147001
0.0487587
0.14664
0.300165
0.648407
1.2455
1.55856
1.68022
1.73887
0.00422338
0.00387603
0.00379254
0.00377062
0.00376363
0.0037667
0.00378936
0.00386817
0.00402765
0.00434815
0.00491182
0.00557853
0.00626749
0.00801474
0.0180001
0.0575548
0.174472
0.45053
1.0831
1.61291
1.82897
1.8669
1.87218
0.00421656
0.00387083
0.00379043
0.00376853
0.0037612
0.00376368
0.00379871
0.00389428
0.00408215
0.00445232
0.00510376
0.00582478
0.00655127
0.00902808
0.0260947
0.11796
0.31563
0.612063
1.55618
1.97577
2.05822
2.06944
2.02609
0.00420956
0.0038651
0.00378848
0.00376456
0.00375662
0.00376235
0.00380955
0.00392073
0.00413508
0.00453955
0.00521941
0.00597065
0.00699394
0.0116836
0.0421231
0.154411
0.414333
1.124
1.96683
2.15326
2.14078
2.11427
2.0656
0.00420269
0.00385935
0.003786
0.00376168
0.00375409
0.0037657
0.00383253
0.00395984
0.0042051
0.00465862
0.00542541
0.00624812
0.00734483
0.014172
0.0583587
0.281798
0.552719
1.7699
2.28505
2.23446
2.17316
2.11527
2.04819
0.0041957
0.00385379
0.00378399
0.00375837
0.00375024
0.0037698
0.00385498
0.0039998
0.00427449
0.00476675
0.00556981
0.00641398
0.00800106
0.0199629
0.113105
0.481504
1.61368
2.45333
2.47021
2.27052
2.14919
2.02744
1.9327
0.0041897
0.00384784
0.00378228
0.00375513
0.00375127
0.00378727
0.00389353
0.0040569
0.00436295
0.00490135
0.00577497
0.00672679
0.00904579
0.0315422
0.189417
1.04851
2.32418
2.53677
2.45515
2.25583
2.07964
1.94454
1.83905
0.00418359
0.00384205
0.00377881
0.00375245
0.00375381
0.00381091
0.00393606
0.00411878
0.00445316
0.00502953
0.00594765
0.00690666
0.0096915
0.0416225
0.318525
1.61651
2.46565
2.5991
2.38685
2.0715
1.90931
1.80218
1.70432
0.00417866
0.00383678
0.00377585
0.00375409
0.00376971
0.00384971
0.0039939
0.00419543
0.00455615
0.0051707
0.00613906
0.0071965
0.0113223
0.0695746
0.533154
1.91918
2.56495
2.45717
2.00471
1.7348
1.65988
1.63188
1.58301
0.00417389
0.00383153
0.0037756
0.00375941
0.00379423
0.00389337
0.00405683
0.00427666
0.00465969
0.00530455
0.0063089
0.00738562
0.0122367
0.0824328
0.643779
2.12964
2.18937
1.97794
1.54774
1.38164
1.39681
1.46701
1.44489
0.00416884
0.00382662
0.00377857
0.00377816
0.00383339
0.00395089
0.00413277
0.00436934
0.00477199
0.00544588
0.00648404
0.00761274
0.0137475
0.088904
0.678841
2.43388
2.00718
1.44583
1.17404
1.10389
1.20584
1.33463
1.32252
0.00416409
0.0038233
0.00379114
0.00380614
0.00387831
0.00401413
0.00421253
0.00446385
0.00488127
0.00557641
0.00663588
0.00775827
0.013805
0.084976
0.640754
2.49563
1.82746
1.10827
0.900165
0.933419
1.09824
1.20897
1.18913
0.00415956
0.00382169
0.00381774
0.00384613
0.00393668
0.00408977
0.00430279
0.00456667
0.0049961
0.00571024
0.00678865
0.00792649
0.0137764
0.0766817
0.5519
2.5165
1.62814
0.928059
0.741908
0.852741
1.04681
1.11321
1.0768
0.00415544
0.00382137
0.00385119
0.00389073
0.0039977
0.00416464
0.00438773
0.00466017
0.00509617
0.00582148
0.00690986
0.00805129
0.0133593
0.0627587
0.414831
2.40334
1.49063
0.817438
0.663953
0.799559
0.98074
1.02668
0.953333
0.00415143
0.00382427
0.0038893
0.00394034
0.00406307
0.00424201
0.0044731
0.00475204
0.00519251
0.00592638
0.00702206
0.00818953
0.0128677
0.0501106
0.292305
2.02994
1.2598
0.705725
0.601381
0.755638
0.910583
0.922516
0.806182
0.00414779
0.00383846
0.00393255
0.00399453
0.00413271
0.00432161
0.00455854
0.00484221
0.005285
0.00602497
0.00712607
0.00835119
0.0128384
0.0417797
0.20325
1.54368
0.998151
0.603682
0.553909
0.719399
0.831414
0.812522
0.659667
0.00414492
0.00386093
0.00398036
0.00405424
0.00420594
0.00440299
0.00464328
0.00492953
0.00537292
0.00611743
0.00722368
0.00854418
0.0127099
0.040074
0.141321
1.06947
0.722712
0.512615
0.507351
0.698151
0.744338
0.677298
0.510613
0.00414282
0.00389415
0.00403336
0.00411772
0.00428265
0.00448512
0.00472707
0.00501397
0.00545618
0.00620346
0.0073186
0.00878249
0.0131725
0.0385604
0.107293
0.763666
0.555774
0.440649
0.4608
0.665111
0.669005
0.549455
0.382893
0.00414324
0.00393224
0.00409033
0.00418651
0.00436131
0.00456781
0.00480899
0.00509477
0.00553451
0.00628413
0.00741401
0.00907958
0.0142427
0.0373962
0.0894399
0.603501
0.434814
0.384372
0.423799
0.604061
0.575317
0.432687
0.288908
0.00414804
0.00397972
0.00415287
0.0042582
0.0044426
0.00465022
0.00488938
0.00517196
0.00560797
0.00635904
0.00751259
0.00944134
0.0156895
0.0360582
0.0788766
0.487466
0.381461
0.344427
0.388948
0.542014
0.480884
0.337929
0.227741
0.00416011
0.00403064
0.00421798
0.00433396
0.00452405
0.00473169
0.00496693
0.00524515
0.00567648
0.00642949
0.00761821
0.00988029
0.0175259
0.0371357
0.0777489
0.46928
0.377912
0.307047
0.361019
0.437445
0.374647
0.269133
0.194899
0.00417927
0.00409018
0.00428802
0.00441151
0.00460641
0.00481168
0.00504208
0.00531402
0.00574007
0.00649552
0.0077316
0.0104009
0.0196136
0.0399354
0.0767113
0.46197
0.375759
0.282757
0.313673
0.363444
0.307952
0.216875
0.173034
0.0042051
0.00415197
0.00435889
0.00449068
0.00468743
0.00488927
0.00511364
0.00537858
0.0057988
0.00655773
0.0078548
0.0109997
0.0218577
0.043083
0.0756568
0.474866
0.392628
0.247176
0.259935
0.286257
0.257067
0.200683
0.169724
0.00423707
0.00422132
0.00443274
0.00457049
0.00476686
0.00496393
0.00518177
0.00543856
0.00585274
0.00661705
0.00798838
0.0116662
0.0242138
0.046767
0.0727304
0.478874
0.379264
0.246866
0.223575
0.232656
0.220161
0.18454
0.161821
0.00427479
0.00429071
0.00450599
0.0046492
0.00484392
0.00503504
0.00524584
0.00549374
0.00590203
0.00667318
0.00812995
0.0123873
0.0265638
0.0502248
0.0742888
0.439917
0.335665
0.232219
0.190597
0.193094
0.189607
0.174067
0.162207
0.00431748
0.00436539
0.0045796
0.0047268
0.00491688
0.00510201
0.0053056
0.00554482
0.00594685
0.00672752
0.00828045
0.0131474
0.0289027
0.0533891
0.0761749
0.369776
0.284589
0.199025
0.169092
0.16896
0.17738
0.172023
0.164493
0.00436429
0.00443797
0.00465166
0.00480192
0.00498684
0.00516452
0.00536109
0.00559068
0.00598744
0.0067797
0.00843905
0.0139262
0.0311685
0.0570698
0.0834128
0.291794
0.21854
0.167473
0.152173
0.149521
0.169114
0.169295
0.187323
0.00441551
0.00451262
0.00472178
0.00487337
0.00505073
0.00522212
0.00541197
0.0056331
0.00602409
0.00683054
0.00859761
0.0146946
0.0332254
0.0588719
0.0888035
0.269227
0.191271
0.163959
0.143879
0.147212
0.171528
0.177002
0.251365
0.00446907
0.00458361
0.00478944
0.00494208
0.00511175
0.00527539
0.00545849
0.00567077
0.0060571
0.00688047
0.00876466
0.0154638
0.0352378
0.0624368
0.0977386
0.250704
0.182405
0.150485
0.145161
0.14522
0.194498
0.261811
0.436388
0.00452486
0.00465399
0.00485431
0.00500569
0.00516519
0.00532253
0.00550068
0.0057052
0.00608688
0.00692923
0.00892377
0.0161489
0.0368215
0.0644358
0.10738
0.234923
0.179099
0.150202
0.144169
0.153963
0.278071
0.474235
0.73021
0.00458386
0.00471901
0.00491541
0.00506521
0.00521661
0.00536694
0.0055389
0.00573606
0.00611376
0.00697804
0.00908594
0.0168108
0.038261
0.0668073
0.109969
0.220162
0.177946
0.157088
0.155502
0.224416
0.441666
0.785007
1.11227
0.0046404
0.00478252
0.00497347
0.00512082
0.00526046
0.00540457
0.00557265
0.00576387
0.00613811
0.00702526
0.00922577
0.0173647
0.0393623
0.0674823
0.112671
0.232119
0.179784
0.195423
0.212727
0.37437
0.68789
1.14902
1.5676
0.0047007
0.00483927
0.00502856
0.00517055
0.0053017
0.00543968
0.00560391
0.00578917
0.00616045
0.00707398
0.00937267
0.0179178
0.0401193
0.0678239
0.112737
0.259504
0.221616
0.288111
0.374489
0.61861
1.0319
1.56416
1.9661
0.00475845
0.00489456
0.00507728
0.00521676
0.00533889
0.00547129
0.00563056
0.0058119
0.00618065
0.00711718
0.00949279
0.0182989
0.0400644
0.0676503
0.116441
0.289441
0.303399
0.415207
0.607904
0.960505
1.40429
1.99173
2.4177
0.00481336
0.00494285
0.00512813
0.00525949
0.0053702
0.00549666
0.00565449
0.00583215
0.00619981
0.007167
0.00962318
0.0184122
0.0396481
0.0668024
0.116809
0.322386
0.454326
0.577005
0.875447
1.3063
1.78365
2.3541
2.61561
0.00487184
0.00498997
0.0051676
0.00529453
0.00540274
0.00552479
0.00567732
0.00585191
0.0062171
0.00720476
0.00972092
0.018391
0.0387828
0.0652858
0.112052
0.397375
0.657842
0.799193
1.17913
1.63965
2.21128
2.6321
2.79648
0.00492108
0.00503194
0.00521255
0.00533284
0.00542742
0.0055431
0.0056942
0.0058675
0.00623361
0.00724718
0.00973721
0.0181885
0.0374124
0.0635584
0.124169
0.495469
0.872274
1.08411
1.5458
2.05864
2.49591
2.8026
2.86797
0.0049739
0.00506979
0.00524719
0.00535855
0.00545452
0.00556673
0.00571287
0.0058836
0.00624899
0.00728279
0.00973238
0.0178421
0.0357615
0.0594279
0.122945
0.617574
1.10672
1.42255
1.94481
2.41732
2.74943
2.91725
2.88671
0.00502025
0.00511039
0.00528338
0.00539134
0.00547672
0.0055831
0.00572782
0.00589793
0.00626314
0.00730857
0.00966808
0.0173463
0.0337864
0.0611612
0.144213
0.812333
1.34743
1.74239
2.30202
2.7053
2.87132
2.89568
2.92587
0.00506687
0.00513883
0.00531653
0.00541397
0.00549984
0.00560176
0.00574154
0.00590824
0.00627681
0.00734219
0.00960239
0.016796
0.0317566
0.0610542
0.212901
1.10903
1.62898
2.11382
2.57905
2.8535
2.94101
2.92259
2.88771
0.00510724
0.00517794
0.00534466
0.0054387
0.00551879
0.00561935
0.00574272
0.00591668
0.00628903
0.00735614
0.00950721
0.0160774
0.0295135
0.0627736
0.741357
1.64213
1.99113
2.39597
2.79869
2.94635
2.95481
2.94073
2.77519
0.00514941
0.00520527
0.00537677
0.00546411
0.0055416
0.00563567
0.00574844
0.00591815
0.00630073
0.00737534
0.00937266
0.0154428
0.0275787
0.0637112
1.78982
2.0524
2.365
2.65832
2.90651
2.96241
2.99578
2.86018
2.61677
0.00519351
0.00523731
0.00540019
0.00548183
0.00556161
0.00564683
0.00574655
0.00591991
0.00631076
0.00737869
0.00927904
0.0146501
0.0260513
0.072479
2.63303
2.50272
2.71143
2.77401
2.95576
3.03715
2.95989
2.7179
2.44074
0.00519978
0.00526916
0.00542984
0.00549706
0.00556323
0.00565558
0.00574996
0.00592291
0.00632022
0.00738073
0.00909677
0.0140353
0.0240479
0.0782533
3.19188
2.96192
2.84376
2.94026
3.07679
3.04822
2.8515
2.56704
2.27718
0.00520671
0.00529755
0.00544568
0.00550571
0.00556584
0.00565435
0.00575011
0.0059251
0.0063279
0.00737254
0.00898989
0.0131424
0.0252605
0.0966477
3.24635
3.06694
3.00958
3.07743
3.1284
2.97743
2.71751
2.41547
2.12368
0.00522192
0.00530854
0.00544376
0.00551528
0.00557369
0.00565889
0.00575146
0.00592599
0.00633498
0.00734634
0.00894636
0.0131098
0.025904
0.1186
3.21618
3.06236
3.07896
3.16304
3.0807
2.86194
2.5585
2.26275
1.98538
0.00521871
0.00531459
0.00544534
0.00551077
0.00557649
0.00565479
0.00575012
0.00592641
0.00634079
0.0073524
0.00884967
0.0129705
0.0262747
0.13481
3.02303
3.05378
3.07696
3.15889
2.95646
2.69055
2.38587
2.1082
1.8447
0.00522394
0.00531547
0.00545073
0.00551027
0.00558174
0.00565571
0.00574959
0.00592655
0.00634617
0.00735107
0.00887616
0.0127734
0.0258185
0.184665
2.72315
2.99097
3.04403
3.03232
2.76758
2.49317
2.22724
1.97242
1.72779
0.00522836
0.00531761
0.0054494
0.00551074
0.00557847
0.00565503
0.00574999
0.00592657
0.00635076
0.00734547
0.00878552
0.0127619
0.0264167
0.230484
2.62751
2.90343
2.94479
2.81291
2.54836
2.30622
2.08378
1.84103
1.61289
0.00521889
0.005319
0.00545486
0.00551083
0.00557879
0.0056576
0.00575216
0.0059271
0.00635507
0.00734572
0.0088676
0.0128168
0.033979
0.299255
2.56186
2.79468
2.70636
2.59792
2.35329
2.14837
1.9505
1.72241
1.51083
0.00523053
0.00531967
0.00545606
0.00551127
0.0055798
0.00565534
0.00574769
0.0059258
0.00635888
0.00734161
0.00887322
0.0126888
0.0347263
0.329455
2.41581
2.57612
2.46136
2.38458
2.16281
1.98464
1.8121
1.59981
1.41235
0.00522372
0.00532045
0.00545859
0.00551463
0.00557831
0.0056551
0.00574721
0.00592562
0.00636101
0.00734822
0.00889328
0.012956
0.039363
0.439913
2.24436
2.33666
2.26273
2.20341
2.00813
1.84296
1.67599
1.49373
1.32156
0.00522214
0.00532019
0.00544999
0.00550655
0.00558094
0.00565596
0.00574712
0.00592866
0.00637301
0.00734198
0.00882389
0.0125561
0.0374116
0.431546
1.93359
2.07572
2.02863
2.00958
1.8341
1.67832
1.53156
1.3799
1.22769
0.00522198
0.00532052
0.00545186
0.00550565
0.00558432
0.00564684
0.00574588
0.00592554
0.00636389
0.00730098
0.00868448
0.0117372
0.0297874
0.426282
1.69814
1.90392
1.85234
1.85397
1.69594
1.54505
1.42516
1.29568
1.16306
0.0052252
0.00531904
0.00544912
0.00550111
0.00557491
0.00564428
0.00573565
0.00592061
0.00635383
0.00725872
0.00857638
0.0111807
0.0253034
0.375055
1.47931
1.70571
1.68855
1.69831
1.54836
1.41847
1.31797
1.21149
1.09171
0.00521071
0.00531725
0.00544535
0.00549952
0.00557414
0.00564705
0.00573271
0.00591502
0.0063417
0.00721893
0.00848543
0.0107956
0.023091
0.429004
1.18094
1.4812
1.52659
1.53832
1.40355
1.28598
1.20971
1.1121
1.00239
0.00520667
0.00532512
0.00544304
0.00549364
0.0055643
0.00564262
0.00573396
0.0059079
0.00632916
0.00717618
0.00840422
0.0105176
0.0204042
0.421777
0.967804
1.28622
1.37481
1.37578
1.24796
1.16577
1.0928
1.00526
0.899316
0.00520572
0.0053092
0.00542934
0.00548989
0.00555878
0.0056369
0.00572995
0.00589991
0.0063129
0.007136
0.00832686
0.0103561
0.0274739
0.39868
0.837566
1.09984
1.19819
1.21261
1.10968
1.04726
0.979539
0.891573
0.788802
0.00518231
0.00531106
0.00542441
0.00549451
0.00553767
0.00561815
0.00572164
0.00588978
0.00629602
0.00709179
0.00825547
0.0102166
0.0246942
0.296031
0.669986
0.918697
1.04475
1.05963
0.992323
0.933853
0.868885
0.777397
0.678774
0.00517542
0.00530122
0.00539948
0.00549133
0.00553141
0.00560498
0.00570949
0.00587781
0.00627474
0.0070514
0.00818788
0.0101846
0.034797
0.296407
0.568764
0.785221
0.891887
0.920017
0.881123
0.828869
0.76358
0.671051
0.575605
0.0051776
0.00528603
0.00539317
0.00547592
0.00553254
0.00558507
0.00569434
0.0058626
0.00625265
0.00700653
0.00812538
0.0101536
0.0338397
0.26247
0.488499
0.643419
0.763558
0.801979
0.776937
0.73014
0.663928
0.575109
0.486519
0.00516599
0.00525066
0.00539877
0.00545082
0.0055281
0.00557619
0.00567565
0.00584531
0.00622623
0.00696609
0.00806673
0.0100896
0.0364089
0.236024
0.426994
0.549999
0.671039
0.704166
0.684467
0.643176
0.581646
0.497188
0.411611
0.00513287
0.00523964
0.00538705
0.00541513
0.00551266
0.00556263
0.005652
0.00582336
0.00619766
0.00692011
0.00800772
0.0101157
0.0375394
0.17082
0.376498
0.492487
0.599209
0.618831
0.602474
0.567083
0.505465
0.42451
0.344113
0.0050833
0.00524304
0.00536786
0.00536714
0.00549201
0.00554566
0.00562918
0.00580007
0.00616474
0.00687733
0.0079509
0.0101308
0.0377398
0.131241
0.349968
0.465637
0.54388
0.551554
0.536887
0.497821
0.438771
0.361147
0.284909
0.00506654
0.00522742
0.00534369
0.00534944
0.00547413
0.00551702
0.00560324
0.00576925
0.00612711
0.00682648
0.00788572
0.0100737
0.0331423
0.139806
0.309719
0.416284
0.49273
0.498276
0.485763
0.443534
0.383868
0.306009
0.248592
0.00507117
0.00519604
0.00531019
0.00534642
0.00543865
0.00545354
0.00557401
0.00573657
0.00608539
0.00677546
0.00781891
0.0100874
0.0297512
0.138212
0.268851
0.386115
0.449196
0.45265
0.439744
0.388777
0.327796
0.279976
0.228423
0.00504229
0.0051579
0.00527344
0.00531848
0.0054098
0.00540877
0.00553611
0.00569248
0.00603418
0.00671333
0.00773562
0.00973771
0.0421738
0.151135
0.243429
0.361428
0.422752
0.425404
0.397133
0.340372
0.304196
0.258725
0.198528
0.00498555
0.00511029
0.0052276
0.00527574
0.00534435
0.00535868
0.00548814
0.00564663
0.00598051
0.00664539
0.00766459
0.0115131
0.0386121
0.146007
0.244674
0.34089
0.368978
0.356084
0.352873
0.309398
0.285277
0.222144
0.142084
0.00491336
0.0050625
0.00518006
0.00522776
0.00526738
0.0053026
0.00543606
0.00558549
0.00591032
0.00656702
0.00757167
0.0111357
0.0382138
0.136405
0.240641
0.319733
0.349278
0.334248
0.308587
0.287467
0.244479
0.149749
0.0911268
0.00479967
0.00500601
0.00511719
0.00516604
0.00519434
0.00528497
0.00537314
0.00552593
0.00584016
0.00647353
0.00747515
0.0121658
0.0495998
0.142694
0.251524
0.327802
0.342875
0.332904
0.299441
0.2567
0.164881
0.0937377
0.0776545
0.00474491
0.00494392
0.00505137
0.00509901
0.00510307
0.00523613
0.00530839
0.00544393
0.00574608
0.00637726
0.00736384
0.0102809
0.0474028
0.184893
0.296756
0.331077
0.314687
0.322252
0.26463
0.196654
0.11769
0.100997
0.0758618
0.00465546
0.00486268
0.00496572
0.00501144
0.00503126
0.00515835
0.00522598
0.00536801
0.00565632
0.00625657
0.00726281
0.0162667
0.103857
0.261543
0.343565
0.347666
0.337393
0.303864
0.220746
0.171186
0.14408
0.101987
0.0640055
0.0046508
0.00477533
0.00488155
0.00492439
0.00497597
0.00507602
0.00513972
0.00525688
0.00553329
0.00613763
0.00724471
0.0187612
0.130876
0.340464
0.351425
0.368023
0.333402
0.27128
0.225751
0.221144
0.149328
0.089895
0.0297272
0.00457699
0.0046617
0.00477563
0.00481632
0.0048876
0.0049631
0.0050288
0.0051618
0.00542479
0.0060045
0.00733246
0.0196904
0.169424
0.393708
0.354461
0.374934
0.343999
0.308885
0.309009
0.228117
0.137791
0.0425702
0.0137003
0.00448845
0.00455412
0.00467659
0.00471569
0.00479454
0.00485311
0.0049148
0.00501276
0.00526674
0.00585651
0.00711153
0.0172941
0.276393
0.405471
0.35834
0.412104
0.41355
0.410846
0.325956
0.216031
0.0698749
0.0165801
0.00858562
0.00436398
0.00442272
0.00454633
0.00458413
0.00465899
0.00470505
0.00477058
0.00489955
0.00514221
0.00573314
0.00787121
0.0481829
0.29399
0.464366
0.402512
0.481887
0.523228
0.4393
0.312612
0.113701
0.0235616
0.00860462
0.00679408
0.00424409
0.00430853
0.00442723
0.00446372
0.00453042
0.00457037
0.0046289
0.00470795
0.00494981
0.00554594
0.00770138
0.0590382
0.35208
0.519951
0.485536
0.611279
0.573511
0.426353
0.174029
0.0358213
0.00973661
0.0063857
0.00595522
0.00408617
0.00415663
0.0042613
0.00429549
0.00434975
0.00438419
0.00444767
0.00457677
0.00480816
0.00563785
0.0111934
0.0660537
0.496793
0.504244
0.573961
0.674937
0.557715
0.266997
0.0562323
0.0121126
0.00621569
0.00548706
0.00533017
0.00394877
0.00403016
0.00411885
0.00415155
0.00419581
0.00422968
0.00428331
0.00434411
0.00459707
0.00551954
0.0128092
0.144666
0.59569
0.519803
0.63813
0.662019
0.41995
0.0925131
0.017278
0.00635404
0.00522498
0.00501611
0.00494663
0.00376015
0.00384211
0.00390971
0.00393742
0.00396988
0.00400029
0.00405859
0.00419681
0.00444192
0.00609091
0.0198981
0.237722
0.631352
0.494067
0.611701
0.538724
0.142906
0.0267294
0.00712139
0.00485353
0.00463751
0.0045642
0.0045162
0.00361584
0.00370313
0.00375366
0.00377894
0.00380467
0.0038363
0.00388401
0.00392628
0.00432393
0.0068684
0.0363915
0.30978
0.544912
0.437739
0.509355
0.222309
0.042582
0.00897039
0.00482513
0.00437856
0.00432136
0.0042892
0.00426509
0.00339356
0.0034673
0.00349651
0.00351141
0.00352736
0.00355489
0.0036065
0.00378174
0.00434463
0.00936831
0.0777762
0.396465
0.360316
0.356259
0.316411
0.0660209
0.0125048
0.00475908
0.00401139
0.00391158
0.00389715
0.00387753
0.00387002
0.0032626
0.00333194
0.00335148
0.00336266
0.00337665
0.00340485
0.0034449
0.00350834
0.00483395
0.0154106
0.121158
0.338254
0.234588
0.265218