/*--------------------------------*- C++ -*----------------------------------*\
  =========                 |
  \\      /  F ield         | OpenFOAM: The Open Source CFD Toolbox
   \\    /   O peration     | Website:  https://openfoam.org
    \\  /    A nd           | Version:  7
     \\/     M anipulation  |
\*---------------------------------------------------------------------------*/
FoamFile
{
    version     2.0;
    format      ascii;
    class       volScalarField;
    location    "100";
    object      nut;
}
// * * * * * * * * * * * * * * * * * * * * * * * * * * * * * * * * * * * * * //

dimensions      [0 2 -1 0 0 0 0];

internalField   nonuniform List<scalar> 
12842
(
0.00180804
0.00178855
0.00180202
0.00178144
0.0017778
0.00176147
0.00176845
0.00175983
0.00176264
0.00175513
0.00176261
0.00176812
0.00177977
0.00118378
0.000584004
0.00033523
0.000221482
0.000161406
0.000125303
0.000101719
8.54829e-05
7.43229e-05
6.49265e-05
0.00181793
0.00176858
0.00177558
0.00177816
0.0017844
0.00176345
0.00176758
0.00175754
0.00176404
0.00175496
0.00176286
0.00176821
0.00178002
0.00118182
0.000582223
0.000334105
0.000221603
0.000161602
0.000125831
0.000102281
8.60507e-05
7.51812e-05
6.52938e-05
0.00181448
0.00179458
0.00176894
0.00176152
0.00177602
0.00176395
0.00177058
0.00175942
0.00176434
0.00175629
0.0017641
0.00176946
0.00178345
0.00115498
0.000572524
0.000331043
0.000220627
0.000161794
0.000126296
0.000102962
8.67413e-05
7.61559e-05
6.58292e-05
0.00180678
0.00178531
0.00178203
0.00176086
0.00177106
0.00176003
0.00176806
0.00175922
0.00176513
0.00175789
0.00176505
0.00177152
0.00178589
0.00111233
0.000555068
0.000323887
0.000218131
0.000160979
0.000126502
0.00010348
8.73134e-05
7.7053e-05
6.63611e-05
0.00180894
0.00178789
0.00177397
0.00175911
0.00176575
0.00175935
0.00176777
0.00175971
0.00176438
0.00175921
0.00176506
0.00177235
0.0017913
0.00107079
0.000539779
0.000318028
0.000215923
0.000160395
0.00012651
0.000103895
8.78282e-05
7.7945e-05
6.69602e-05
0.00180205
0.00178258
0.00178159
0.00175965
0.00176398
0.00175474
0.00176536
0.00175884
0.00176466
0.00176127
0.00176587
0.00177384
0.00179437
0.0010409
0.000527822
0.000313278
0.000214065
0.000160141
0.00012718
0.000104778
8.87269e-05
7.9187e-05
6.78894e-05
0.00180453
0.00178131
0.00177503
0.00176017
0.00176254
0.00175663
0.00176446
0.0017589
0.00176304
0.00176313
0.00176438
0.00177715
0.00180146
0.00101405
0.000518337
0.000310349
0.000213931
0.000160539
0.000127917
0.000105532
8.9357e-05
8.0123e-05
6.86444e-05
0.00179833
0.00177728
0.00177771
0.00175944
0.00176153
0.00175352
0.00176313
0.00175848
0.00176249
0.00176444
0.00176572
0.00177882
0.00180433
0.00102953
0.000521562
0.000311267
0.000214426
0.000162041
0.000130102
0.000107909
9.14185e-05
8.22792e-05
7.05122e-05
0.0018015
0.0017762
0.00177329
0.00175996
0.00176142
0.00175546
0.00176253
0.00175863
0.00176161
0.00176481
0.00176824
0.00178246
0.00181152
0.00105849
0.000529447
0.000314193
0.000217214
0.000164178
0.000132365
0.000110287
9.36149e-05
8.48166e-05
7.21691e-05
0.00179393
0.00177303
0.00177326
0.00175808
0.00176102
0.00175467
0.00176172
0.00175855
0.0017616
0.00176463
0.00177211
0.00178672
0.0018164
0.00102497
0.000518671
0.000310355
0.000215115
0.000163849
0.000132518
0.000110703
9.37977e-05
8.53563e-05
7.24229e-05
0.0017979
0.00177235
0.00177047
0.00175836
0.00176062
0.00175551
0.00176154
0.00175858
0.00176146
0.00176411
0.0017747
0.00179155
0.00182668
0.00099997
0.00050908
0.000307354
0.000215205
0.000164322
0.000133772
0.000112435
9.56003e-05
8.74925e-05
7.4215e-05
0.00178956
0.00176997
0.00176989
0.00175615
0.00176054
0.00175527
0.0017605
0.00175845
0.00176155
0.0017647
0.00177687
0.00179584
0.00183311
0.000985775
0.000504884
0.000306108
0.000215549
0.000166468
0.000136375
0.000115371
9.80311e-05
9.04323e-05
7.69189e-05
0.0017936
0.00176977
0.00176805
0.00175653
0.00175991
0.0017553
0.00176053
0.00175847
0.00176163
0.00176274
0.00177846
0.00179979
0.0018447
0.000964856
0.000496589
0.000304068
0.000215963
0.000167627
0.000138606
0.000118628
0.000101527
9.4454e-05
8.02988e-05
0.00178521
0.00176781
0.00176757
0.0017548
0.00175973
0.00175501
0.00175941
0.00175816
0.0017618
0.00176456
0.0017818
0.00180487
0.00185214
0.00094856
0.000490885
0.000302012
0.000216626
0.000170085
0.000142057
0.000123263
0.000105671
0.000100406
8.50115e-05
0.00178886
0.00176814
0.00176628
0.00175538
0.00175911
0.00175465
0.00175946
0.00175823
0.00176216
0.00176632
0.00178325
0.00180897
0.0018628
0.000927942
0.000482502
0.000299114
0.000215609
0.000170626
0.000144038
0.000127158
0.000110493
0.000106137
9.05246e-05
0.00178147
0.00176618
0.00176577
0.00175446
0.00175849
0.00175418
0.00175846
0.00175788
0.00176263
0.0017687
0.00178699
0.00181453
0.00186993
0.000911597
0.000475713
0.00029666
0.000216037
0.000172355
0.000147165
0.000131638
0.000116036
0.000111551
9.81407e-05
0.00178461
0.00176688
0.00176493
0.00175525
0.00175782
0.00175388
0.0017584
0.00175797
0.00176327
0.00177068
0.00178886
0.00181842
0.00187731
0.000891906
0.00046765
0.000292301
0.000213276
0.000171584
0.000148581
0.000135457
0.00012354
0.0001186
0.000108135
0.00177855
0.00176466
0.00176416
0.00175489
0.0017568
0.00175339
0.00175756
0.00175782
0.00176409
0.00177275
0.00179209
0.00182496
0.00188282
0.000872504
0.000458836
0.000289137
0.000212901
0.00017268
0.000151835
0.000140859
0.000132303
0.000126619
0.00012296
0.00178096
0.00176557
0.00176371
0.00175573
0.00175597
0.0017533
0.00175746
0.00175794
0.00176488
0.00177475
0.00179464
0.00182814
0.00188551
0.000852553
0.000449953
0.000283128
0.000208565
0.000170578
0.000152418
0.00014528
0.000141292
0.000139057
0.000145825
0.00177636
0.0017631
0.0017627
0.00175549
0.0017548
0.00175294
0.0017567
0.00175815
0.00176587
0.00177652
0.00179711
0.0018348
0.00188961
0.000830936
0.000440188
0.000279189
0.000207145
0.000170956
0.000154942
0.000149531
0.000150404
0.000152947
0.000167148
0.00177801
0.00176412
0.00176252
0.00175609
0.00175397
0.00175293
0.00175658
0.00175828
0.00176672
0.00177796
0.00180018
0.00183803
0.00186329
0.000812446
0.000429619
0.000271695
0.00020109
0.000166829
0.000152845
0.000151606
0.000154365
0.000161759
0.000182884
0.00177473
0.00176152
0.00176133
0.0017556
0.00175299
0.00175279
0.00175597
0.00175887
0.00176759
0.00178017
0.00180327
0.00184469
0.0017778
0.0007818
0.000418485
0.000266606
0.000198629
0.000166024
0.000152636
0.000149177
0.000153595
0.000170051
0.000181801
0.00177564
0.00176274
0.00176132
0.00175578
0.00175229
0.00175258
0.00175584
0.00175885
0.00176831
0.00178139
0.00180523
0.00184729
0.0018112
0.000774115
0.000405905
0.000256245
0.000189384
0.000158152
0.000146115
0.000146159
0.000152734
0.000167054
0.000167751
0.00177316
0.00176063
0.00176014
0.00175524
0.00175163
0.00175275
0.0017555
0.0017596
0.0017692
0.00178347
0.00180986
0.00185319
0.00186371
0.000770077
0.000400664
0.000250616
0.000184558
0.000154473
0.000141791
0.000139912
0.000144663
0.000159355
0.00016638
0.00177425
0.00176153
0.00175985
0.00175489
0.00175129
0.00175256
0.00175552
0.0017598
0.00176978
0.00178524
0.0018117
0.00185718
0.00176197
0.000740054
0.000384531
0.000239832
0.000175322
0.000145468
0.000134587
0.000132564
0.000138407
0.000166281
0.000181076
0.00177236
0.00176045
0.00175869
0.00175444
0.00175106
0.00175277
0.00175533
0.00176027
0.00177032
0.00178703
0.00181596
0.00186364
0.00169369
0.000715351
0.000373854
0.000233012
0.000171438
0.000142927
0.000129606
0.000128245
0.000148117
0.000183447
0.000254864
0.00177266
0.00176132
0.00175826
0.00175407
0.00175084
0.00175256
0.00175538
0.00176019
0.00177073
0.00178825
0.00181704
0.00186871
0.00164382
0.000696038
0.000363534
0.000225639
0.000163492
0.00013489
0.000126536
0.000136307
0.000178195
0.000311128
0.000799397
0.0017716
0.00176056
0.00175693
0.00175368
0.00175084
0.00175288
0.0017552
0.00176042
0.00177121
0.00179041
0.00182177
0.00187533
0.00160395
0.000679431
0.000351629
0.000217238
0.000159852
0.000135836
0.000130317
0.000150772
0.000241438
0.000662281
0.00232796
0.00177123
0.00176134
0.00175633
0.00175351
0.00175063
0.00175281
0.00175518
0.0017603
0.00177181
0.00179156
0.00182363
0.0018799
0.0015645
0.000664704
0.000347687
0.000216991
0.000159694
0.000134149
0.000131509
0.000158583
0.000327629
0.00138987
0.00259755
0.00177083
0.00176061
0.0017551
0.00175328
0.00175099
0.00175318
0.0017549
0.00176043
0.00177195
0.00179347
0.00183083
0.00188661
0.00152563
0.000650474
0.000337981
0.000211208
0.000155716
0.000135526
0.000138003
0.000206764
0.000641031
0.00223321
0.00325748
0.00177018
0.0017612
0.00175444
0.00175338
0.00175076
0.00175331
0.00175476
0.00176034
0.0017729
0.00179522
0.00183453
0.00188912
0.0014999
0.000646401
0.000339634
0.000217359
0.000164531
0.000142261
0.000144644
0.00028639
0.00141476
0.00227883
0.00339034
0.00177015
0.00176026
0.00175346
0.00175344
0.00175146
0.00175362
0.00175437
0.00176057
0.0017741
0.00179834
0.00184285
0.00189651
0.00146591
0.000636161
0.000334564
0.000216088
0.000166001
0.000150421
0.000195203
0.000599448
0.00207318
0.00309432
0.00456299
0.00176954
0.00176059
0.00175294
0.00175371
0.00175136
0.00175381
0.00175411
0.0017605
0.0017746
0.00179985
0.00184699
0.00189911
0.00145359
0.000642303
0.000347746
0.000234916
0.000187482
0.000177824
0.000285362
0.00126566
0.00257019
0.00327144
0.00469972
0.0017697
0.00175941
0.00175215
0.00175405
0.00175222
0.00175401
0.00175375
0.00176087
0.00177564
0.0018027
0.00185556
0.00190624
0.00142907
0.000643086
0.000349778
0.000243476
0.000206901
0.000243558
0.000600065
0.00237463
0.00270363
0.0037241
0.0061671
0.00176923
0.00175943
0.00175197
0.00175441
0.0017524
0.00175401
0.00175349
0.00176073
0.00177596
0.00180376
0.00185959
0.00191046
0.00143268
0.000656777
0.000375826
0.000273568
0.000256401
0.000388351
0.00146165
0.00227972
0.00268971
0.0034471
0.00556561
0.00176954
0.00175816
0.00175136
0.00175493
0.0017532
0.00175401
0.00175322
0.00176111
0.00177696
0.00180672
0.00186905
0.00191951
0.00142801
0.000674842
0.000395869
0.000315781
0.000372209
0.000858269
0.00182182
0.00235184
0.00265361
0.00386485
0.00562561
0.00176918
0.00175791
0.00175145
0.00175519
0.00175369
0.0017538
0.00175307
0.00176067
0.00177735
0.00180839
0.00187415
0.00192571
0.00143263
0.000689556
0.000433188
0.000379726
0.000545946
0.00159428
0.00209138
0.00224356
0.00255851
0.00375418
0.00564428
0.00176948
0.00175671
0.00175111
0.00175586
0.00175422
0.0017535
0.00175304
0.00176093
0.00177936
0.00181513
0.00189012
0.00194422
0.00145791
0.00073385
0.00050065
0.000549608
0.00113902
0.00159648
0.00198313
0.00211908
0.00241781
0.00341694
0.00511519
0.00176931
0.00175644
0.00175138
0.00175585
0.00175477
0.00175296
0.00175295
0.00176108
0.00178076
0.00181947
0.00189955
0.00195585
0.00146026
0.000763683
0.00059562
0.000812838
0.00126908
0.00171251
0.00185408
0.00199846
0.00239988
0.00329427
0.00477485
0.00176939
0.00175529
0.0017513
0.00175651
0.00175518
0.00175267
0.00175309
0.0017623
0.00178608
0.00183451
0.00192759
0.00198911
0.00149861
0.000806073
0.000689782
0.00118731
0.00148067
0.00166515
0.00187097
0.00191514
0.00254459
0.00400024
0.00527647
0.00176933
0.00175529
0.00175175
0.00175632
0.00175515
0.00175169
0.00175325
0.00176335
0.00179166
0.00184478
0.0019438
0.00200828
0.00151317
0.0008946
0.00101661
0.00102475
0.00124915
0.00141415
0.00163682
0.00205877
0.00345581
0.00516541
0.00617576
0.00176922
0.00175417
0.00175192
0.00175678
0.00175559
0.00175131
0.00175332
0.00176749
0.00180383
0.00186939
0.00198373
0.0020531
0.00156953
0.000963029
0.00126092
0.00131808
0.00148356
0.00152931
0.00167848
0.00282481
0.00479013
0.00618243
0.00688965
0.00176905
0.00175449
0.00175251
0.00175635
0.00175506
0.00175039
0.00175298
0.00177202
0.00181444
0.00188839
0.00200615
0.00207622
0.00161952
0.00113566
0.00109982
0.00108028
0.00129704
0.00134302
0.00224903
0.00480808
0.00655675
0.00728493
0.00761693
0.00176876
0.00175356
0.00175294
0.00175666
0.00175505
0.00174997
0.001754
0.00177987
0.00183125
0.00192
0.0020525
0.00212338
0.00171839
0.00129804
0.00131896
0.00144565
0.00160002
0.00191524
0.003568
0.00653968
0.00789237
0.00807957
0.00827464
0.00176838
0.00175381
0.00175369
0.00175609
0.00175434
0.0017494
0.00175579
0.00178824
0.00184718
0.00194446
0.00207778
0.00214536
0.00185457
0.00145208
0.00116896
0.00119102
0.00154789
0.00263942
0.00585034
0.00862492
0.00927143
0.00914308
0.00920044
0.00176786
0.00175327
0.0017542
0.00175617
0.00175407
0.00174877
0.00176094
0.00179951
0.00186564
0.00197347
0.00212077
0.00217798
0.00190465
0.0014432
0.00142737
0.00202887
0.00241425
0.00331684
0.00819572
0.0105246
0.0103417
0.0102729
0.0101609
0.00176728
0.00175322
0.00175531
0.0017555
0.00175318
0.00174995
0.00176756
0.00181172
0.00188239
0.00199508
0.00214518
0.00219524
0.00195534
0.00160172
0.00165581
0.00202756
0.00272929
0.00622116
0.0101944
0.0114564
0.010888
0.0106857
0.0105763
0.00176656
0.00175282
0.00175587
0.00175535
0.00175309
0.00175253
0.00177851
0.00182554
0.00189948
0.00201568
0.0021746
0.00221036
0.00186764
0.00153444
0.00192204
0.00301428
0.00336476
0.00917226
0.0119986
0.0118479
0.0112459
0.0110778
0.0108829
0.00176562
0.0017525
0.00175692
0.00175493
0.00175297
0.00175632
0.00178908
0.00183947
0.00191606
0.00203366
0.00219427
0.00221588
0.0019217
0.0018453
0.00259143
0.0037043
0.00808741
0.012823
0.0129922
0.0120432
0.0113552
0.0109522
0.0106148
0.00176496
0.00175212
0.00175811
0.00175447
0.00175494
0.00176469
0.00180501
0.00185519
0.00193252
0.00205056
0.00220867
0.00222332
0.00195606
0.00221586
0.00348085
0.00645727
0.0113333
0.0130508
0.0125664
0.0117834
0.0111368
0.0106788
0.0102577
0.00176351
0.0017514
0.0017584
0.00175466
0.00175747
0.00177642
0.00182197
0.00187117
0.00194796
0.00206452
0.00222073
0.0022265
0.00198909
0.00252568
0.00435361
0.00840611
0.0118474
0.0131149
0.0123745
0.0109097
0.0103729
0.010014
0.00960811
0.0017627
0.0017508
0.001759
0.00175668
0.0017649
0.00179337
0.00183971
0.00188617
0.00196076
0.00207534
0.00222647
0.00222726
0.00212882
0.00351455
0.00640099
0.00988934
0.0121595
0.0121594
0.0104467
0.00940041
0.00921812
0.00920549
0.00904247
0.00176145
0.00175035
0.00176074
0.00176021
0.00177608
0.00181073
0.00185642
0.0019003
0.00197125
0.0020825
0.0022294
0.00223074
0.00224756
0.00378553
0.00702719
0.0107049
0.0103602
0.0102266
0.00868694
0.00800234
0.00811245
0.00848193
0.00840125
0.00176061
0.00174986
0.00176372
0.00176917
0.00179047
0.00182859
0.00187126
0.00191185
0.00197826
0.00208617
0.0022272
0.00222979
0.0024213
0.00411612
0.00703452
0.0113423
0.00967478
0.00830031
0.00723187
0.00691715
0.00733603
0.00799193
0.00788435
0.00175972
0.00175005
0.00177077
0.0017819
0.00180381
0.00184492
0.00188468
0.00192108
0.00198252
0.00208642
0.00222167
0.00222065
0.00217572
0.00417476
0.0067536
0.0110113
0.00892495
0.00707963
0.0060931
0.00621105
0.00689303
0.00743084
0.00726907
0.00175954
0.00175093
0.00178385
0.00179734
0.00181706
0.00186035
0.00189535
0.00192745
0.00198379
0.00208399
0.00221301
0.00220892
0.00187491
0.00390444
0.00636532
0.0110054
0.00813729
0.00649382
0.00538262
0.0058219
0.00666344
0.00692109
0.00672022
0.00175984
0.00175215
0.00179968
0.00181015
0.00182844
0.00187216
0.00190231
0.00193053
0.00198263
0.00207958
0.00220355
0.0021943
0.00187237
0.00360887
0.00563272
0.0104615
0.00762112
0.00601533
0.00500994
0.00558173
0.00633097
0.00645876
0.0060239
0.00176048
0.00175455
0.00181682
0.00182183
0.00183811
0.00188169
0.00190663
0.00193157
0.00197979
0.00207385
0.00219292
0.00217837
0.00194777
0.00295878
0.00474063
0.00954881
0.00699921
0.00546926
0.00472534
0.00538934
0.00599641
0.00593945
0.00522034
0.00176169
0.00176195
0.00183312
0.00183228
0.00184663
0.00188868
0.00190883
0.00193076
0.00197576
0.00206736
0.00218205
0.00216393
0.00228048
0.00252812
0.00393475
0.00824481
0.00630511
0.00495791
0.00452204
0.00521472
0.00558224
0.00540583
0.0045652
0.00176338
0.00177291
0.00184763
0.00184206
0.00185361
0.0018939
0.00190911
0.00192875
0.00197096
0.00206064
0.00217123
0.00214939
0.00215165
0.00246995
0.00301892
0.0064303
0.00532801
0.00446504
0.00430836
0.00513577
0.00518158
0.0047735
0.00395848
0.0017656
0.00178836
0.00186058
0.00185074
0.00185987
0.00189704
0.00190837
0.00192579
0.00196575
0.00205381
0.00216105
0.00213548
0.00204653
0.00240438
0.00241534
0.00511537
0.00445907
0.00405532
0.00407391
0.00501658
0.00478203
0.00416635
0.0033331
0.00176824
0.0018052
0.00187185
0.0018588
0.00186461
0.00189884
0.00190635
0.00192224
0.00196037
0.00204741
0.00215156
0.00212125
0.00198602
0.00219048
0.00202004
0.00440871
0.00379563
0.00371044
0.00389763
0.00460701
0.0043191
0.00363305
0.0027688
0.00177227
0.00182422
0.00188189
0.00186564
0.00186882
0.00189893
0.00190402
0.00191822
0.00195492
0.00204112
0.00214245
0.00210361
0.00193529
0.0018933
0.00182258
0.00377137
0.0034287
0.00346445
0.00371248
0.0042486
0.00384143
0.00312492
0.00235358
0.0017788
0.00184091
0.0018897
0.00187148
0.00187141
0.00189786
0.00190076
0.00191389
0.00194952
0.00203542
0.00213367
0.00208295
0.00189678
0.00172102
0.00178815
0.00369268
0.00340671
0.00322347
0.00356406
0.00362156
0.00323549
0.00269675
0.00214649
0.00178758
0.00185806
0.00189629
0.00187595
0.00187333
0.00189536
0.00189753
0.00190925
0.00194421
0.00202996
0.00212471
0.00205885
0.00185859
0.00163305
0.00167296
0.00366335
0.00344455
0.00306936
0.00322395
0.00322679
0.00286152
0.00225776
0.0019885
0.00179861
0.00187178
0.0019001
0.00187903
0.00187386
0.00189207
0.00189363
0.00190451
0.00193901
0.00202501
0.0021154
0.0020314
0.00181978
0.00157412
0.00158802
0.00379418
0.00361338
0.00284997
0.00292449
0.00290388
0.00256612
0.00217799
0.00200906
0.00181006
0.00188504
0.00190258
0.0018808
0.00187342
0.0018876
0.00188996
0.00189961
0.00193406
0.00202049
0.00210553
0.00200033
0.00178174
0.00153921
0.00143869
0.00394406
0.00367885
0.00298444
0.00269717
0.00268075
0.00238616
0.0021225
0.00198344
0.00182092
0.00189415
0.00190245
0.00188122
0.00187222
0.00188293
0.00188586
0.00189479
0.00192922
0.00201634
0.00209463
0.00196784
0.00174161
0.00151917
0.00142325
0.00399515
0.00361519
0.00301007
0.00249986
0.00248194
0.00226406
0.00209861
0.00200778
0.00183069
0.00190183
0.00190098
0.00188032
0.00186978
0.0018774
0.00188206
0.00188998
0.00192479
0.00201274
0.00208243
0.00193154
0.00170386
0.0014959
0.00138452
0.00381725
0.00342119
0.00281298
0.00244038
0.00239857
0.00230484
0.00217803
0.00206107
0.0018388
0.00190561
0.00189776
0.00187876
0.00186725
0.00187218
0.001878
0.00188541
0.00192051
0.00200951
0.00206977
0.00189707
0.00167115
0.00149947
0.00148234
0.00345446
0.00308873
0.00257345
0.0023584
0.00225573
0.00231706
0.00220664
0.00231213
0.00184609
0.00190717
0.00189346
0.00187573
0.00186344
0.00186634
0.00187435
0.00188093
0.00191667
0.00200676
0.00205354
0.00185832
0.00163773
0.0014827
0.00152713
0.0037879
0.00297799
0.00277375
0.00232927
0.0022812
0.00237058
0.00225896
0.00277647
0.00185156
0.00190587
0.00188825
0.00187274
0.00186005
0.00186136
0.0018704
0.00187697
0.00191308
0.00200453
0.00203958
0.00182816
0.00161673
0.00150281
0.00166795
0.00385639
0.0030233
0.00255392
0.00240335
0.00223976
0.00253264
0.00287405
0.0039496
0.00185564
0.00190243
0.00188275
0.00186878
0.0018555
0.0018557
0.0018671
0.00187304
0.00190991
0.00200267
0.00202014
0.00179182
0.00158913
0.00151503
0.0018244
0.00373912
0.00311855
0.00258755
0.00237092
0.00223479
0.00313401
0.004239
0.00517338
0.00186004
0.00189714
0.00187689
0.00186466
0.00185183
0.00185138
0.00186343
0.00186979
0.00190707
0.00200136
0.00200583
0.00176693
0.00157715
0.00153667
0.0018789
0.00359476
0.00306241
0.0026111
0.00234289
0.0028175
0.00411886
0.00563985
0.00667333
0.00186107
0.00189064
0.00187107
0.0018607
0.00184723
0.00184659
0.00186045
0.00186671
0.00190461
0.00200065
0.00198568
0.0017406
0.00156409
0.00154133
0.0019391
0.00369595
0.00309679
0.00300621
0.00279044
0.00382817
0.00535795
0.00697612
0.00780504
0.00186475
0.00188303
0.00186653
0.00185639
0.00184367
0.00184262
0.00185739
0.00186412
0.00190256
0.00200028
0.00197403
0.00172993
0.00155144
0.00155115
0.00198208
0.00414674
0.0035966
0.00386628
0.00421107
0.0051922
0.00678604
0.00817289
0.00877523
0.0018652
0.00187515
0.0018602
0.00185217
0.00183985
0.00183953
0.00185477
0.00186199
0.00190083
0.00200059
0.00195665
0.00169977
0.00152273
0.00156083
0.0020679
0.00468115
0.004501
0.00484927
0.00569304
0.0068325
0.0080689
0.00946634
0.010302
0.00186674
0.00186693
0.00185821
0.00184904
0.00183654
0.00183568
0.00185222
0.00185986
0.00189956
0.00200163
0.00195172
0.00168153
0.00150584
0.00157532
0.00218825
0.00512655
0.00613257
0.00611386
0.00723478
0.00817547
0.00901548
0.010566
0.0107777
0.00186856
0.00185909
0.00185225
0.00184436
0.00183414
0.00183413
0.00185043
0.00185895
0.0018986
0.00200344
0.00193179
0.00164549
0.00148378
0.00158803
0.00209817
0.00586415
0.00787757
0.00779235
0.00877927
0.00933434
0.0106695
0.0113181
0.0113748
0.00186861
0.00185201
0.00185132
0.00184242
0.00183128
0.00183109
0.00184838
0.00185701
0.00189798
0.00200356
0.00192144
0.00163493
0.00146286
0.00161457
0.00235742
0.00701629
0.00941367
0.00965743
0.0105302
0.0111728
0.0121027
0.0120999
0.0114108
0.00187023
0.00184408
0.00184804
0.00183843
0.00183028
0.00183015
0.00184689
0.00185652
0.00189773
0.00200734
0.00189868
0.00161884
0.00144687
0.00159312
0.00238962
0.00825328
0.011702
0.0116767
0.0119423
0.01299
0.0129667
0.0125702
0.011255
0.00187079
0.00184053
0.00184604
0.00183658
0.00182826
0.00182833
0.00184651
0.00185568
0.00189763
0.00200558
0.00189095
0.00160524
0.00143199
0.00174768
0.00288745
0.0098756
0.0139406
0.0135375
0.0138774
0.0141546
0.0134692
0.0123118
0.0116068
0.001872
0.00183221
0.00184617
0.00183437
0.00182835
0.00182835
0.00184501
0.00185421
0.00189798
0.00201111
0.00189202
0.00160033
0.00142798
0.00188133
0.00397284
0.0121181
0.0162358
0.0159877
0.0152893
0.0148276
0.0136486
0.0122463
0.0112808
0.00187166
0.00183115
0.00184338
0.00183252
0.00182742
0.00182736
0.00184153
0.00185261
0.00189839
0.00200837
0.00189076
0.00159259
0.00141895
0.00208264
0.0102217
0.0158644
0.0185565
0.0170558
0.0164331
0.0151091
0.013477
0.0122621
0.0109542
0.00187434
0.00182679
0.00184495
0.00183215
0.00182777
0.00182848
0.00183911
0.0018506
0.00189924
0.00201514
0.00189102
0.0016001
0.00143402
0.00233315
0.0184379
0.0179429
0.0203303
0.0189475
0.0162317
0.0149846
0.0135468
0.0120618
0.0105279
0.00187503
0.00182375
0.00184322
0.00183065
0.00182946
0.00182642
0.00183506
0.00184995
0.00190015
0.00201853
0.00190168
0.00160328
0.00146582
0.00261168
0.0232167
0.0206682
0.0212436
0.0181634
0.0167653
0.0150601
0.0134847
0.0116796
0.0100568
0.00186718
0.00182516
0.00184419
0.00182735
0.00182332
0.00182441
0.00183265
0.00185074
0.00190147
0.00202165
0.00190255
0.00162469
0.00147608
0.00305545
0.0263146
0.0236032
0.02067
0.0191024
0.0168775
0.0151472
0.013205
0.0112951
0.00964504
0.00185646
0.00182208
0.00183958
0.00182371
0.00181859
0.00181889
0.00183294
0.00185116
0.00190283
0.00202472
0.00192043
0.0016178
0.00169206
0.00363234
0.0266924
0.0238534
0.0216827
0.0192159
0.0169544
0.0149915
0.0128628
0.0109272
0.00928
0.00184942
0.00181511
0.00183515
0.00181879
0.00181732
0.00182082
0.00183301
0.00185045
0.0019044
0.00202208
0.00194857
0.00172494
0.0018736
0.00447968
0.0278253
0.0243707
0.021422
0.0192303
0.0168155
0.0147422
0.0124636
0.0105889
0.00898829
0.00183677
0.00181061
0.00183344
0.00181292
0.00181828
0.00181794
0.00183051
0.00185071
0.00190559
0.00203007
0.00198686
0.00180728
0.00212563
0.00520215
0.0270786
0.0241904
0.0211273
0.0191455
0.0165232
0.0142859
0.0120439
0.0102629
0.00869741
0.00183777
0.00180498
0.00183316
0.00181062
0.00181937
0.00181735
0.00183104
0.00185066
0.00190711
0.00203656
0.00201765
0.00190779
0.00215553
0.00676562
0.0266295
0.0236169
0.020931
0.0187369
0.016052
0.0137703
0.0117187
0.0100281
0.00851962
0.00183736
0.00180511
0.00182844
0.00180889
0.00181628
0.00181683
0.00183116
0.00185007
0.00190873
0.00204345
0.00200787
0.00201634
0.00222296
0.0082397
0.026609
0.0230917
0.0206956
0.0179737
0.0155105
0.0132722
0.0114556
0.00979054
0.00832159
0.0018299
0.00180435
0.00182741
0.00180839
0.00181514
0.00181684
0.00183163
0.00185107
0.00190974
0.00204168
0.00205967
0.00206897
0.00304973
0.0102956
0.0264025
0.0226671
0.0197015
0.0174734
0.0150179
0.0129125
0.0112191
0.00959226
0.00816185
0.00182887
0.00179923
0.00182917
0.00180935
0.00181619
0.00181778
0.00183053
0.00185077
0.00191083
0.00204031
0.00205623
0.00208457
0.00303556
0.0101861
0.0248033
0.0215877
0.0188338
0.0169038
0.0144345
0.0124749
0.0109115
0.00932767
0.0079888
0.00182214
0.0018008
0.00182991
0.00181115
0.00181624
0.00181702
0.00183057
0.00185094
0.00191149
0.00204278
0.00206347
0.00219457
0.00343179
0.0142782
0.0230755
0.0204933
0.0183277
0.0164084
0.0140395
0.0121048
0.010563
0.00911887
0.00783575
0.00181906
0.00180103
0.00182768
0.00180903
0.00181692
0.0018164
0.00183079
0.00185116
0.00191443
0.00204299
0.00206537
0.00213399
0.00342077
0.0147376
0.0205616
0.0190854
0.0173244
0.0157139
0.0133982
0.0115173
0.0101182
0.00883139
0.00764196
0.00181911
0.001801
0.00182812
0.00180789
0.00181881
0.00181596
0.00183096
0.00185061
0.00191407
0.00204124
0.00206996
0.00205372
0.0029749
0.0143616
0.0201043
0.0184509
0.0167675
0.015294
0.0130149
0.011137
0.00989117
0.00870468
0.00760652
0.00182087
0.00180133
0.00182804
0.00180743
0.00181638
0.00181561
0.00182782
0.00184997
0.00191363
0.00203825
0.00207542
0.00200771
0.00268246
0.0125372
0.0194798
0.0176187
0.0159726
0.0148226
0.0124789
0.0107466
0.00960683
0.00854442
0.00750183
0.00181705
0.00180128
0.00182619
0.00180759
0.00181612
0.00181566
0.00183036
0.00185009
0.00191294
0.00203542
0.00207982
0.00198442
0.00256154
0.0146658
0.0167926
0.0165205
0.0153025
0.0142096
0.0119391
0.0102826
0.00930914
0.0082811
0.00727567
0.00181658
0.00180341
0.0018301
0.00180731
0.00181746
0.00181453
0.00183155
0.00185074
0.00191232
0.00203106
0.0020831
0.00197375
0.00232183
0.0158833
0.0153475
0.0157383
0.0148124
0.0134326
0.0112639
0.00988782
0.0089214
0.00794248
0.00692068
0.00181514
0.0018038
0.0018268
0.00180676
0.00181706
0.00181424
0.00182928
0.0018538
0.0019113
0.00202759
0.00208474
0.0019792
0.00315538
0.0131585
0.0148553
0.0144733
0.0137778
0.0125839
0.010691
0.00946736
0.00853381
0.00751669
0.00647154
0.00180806
0.00180592
0.00182545
0.00181464
0.00180956
0.00181305
0.00182802
0.00185293
0.00191016
0.00202271
0.00208623
0.00198555
0.00284623
0.010045
0.0133321
0.0126755
0.0128777
0.0118353
0.0102303
0.00906482
0.00812293
0.00703127
0.00597135
0.0018084
0.00180294
0.00182466
0.00181536
0.00180994
0.00181366
0.00182833
0.00185507
0.00190864
0.0020196
0.00208725
0.00200991
0.00400052
0.011185
0.0123197
0.011843
0.0119573
0.0110646
0.00981795
0.00869894
0.0077241
0.00656671
0.0054851
0.00181394
0.00179655
0.00182451
0.00180861
0.00181926
0.00181158
0.00182751
0.00184976
0.00190715
0.00201513
0.00208884
0.00203422
0.00396492
0.0100738
0.0113097
0.0109628
0.011066
0.0105147
0.00940372
0.00834197
0.00730405
0.00612687
0.00506739
0.00181931
0.00178897
0.0018247
0.00180397
0.00182149
0.00181108
0.001829
0.00184768
0.00190561
0.0020129
0.00209059
0.00204718
0.00412128
0.00917441
0.0104757
0.0104918
0.0106511
0.0101252
0.00906513
0.0080508
0.00701084
0.00581582
0.00474374
0.00182177
0.00179386
0.00182673
0.00179797
0.00182622
0.00181004
0.0018267
0.00184556
0.00190381
0.00200929
0.00209246
0.00208021
0.00432581
0.00689899
0.0104115
0.0104792
0.0105551
0.00978076
0.00879468
0.00781629
0.00671539
0.0055045
0.0044454
0.00180903
0.00180806
0.00182731
0.00179778
0.00182071
0.00180975
0.00182775
0.00184554
0.00190245
0.00200795
0.00209507
0.00210911
0.00434898
0.00549123
0.0106604
0.0109782
0.0105766
0.00960434
0.00866566
0.00757223
0.00646236
0.00525248
0.00415233
0.0018022
0.00182052
0.00182977
0.00179887
0.00182048
0.00180953
0.00182582
0.00184345
0.0019002
0.00200513
0.00209655
0.00212549
0.00384079
0.00609039
0.0104348
0.0107245
0.010591
0.00959372
0.00871255
0.00751985
0.00634579
0.00502268
0.00409779
0.00181137
0.00181602
0.0018263
0.00181929
0.0018232
0.00180152
0.00183045
0.00184366
0.00189923
0.00200417
0.00209938
0.00215617
0.0034111
0.00615232
0.00970897
0.0108408
0.0105713
0.00974247
0.00877075
0.00735354
0.00602565
0.00512199
0.00417896
0.00181506
0.00180196
0.001819
0.00181855
0.00182796
0.00179977
0.00183323
0.00184061
0.00189612
0.00200163
0.00209893
0.00211361
0.0049591
0.00688074
0.00923703
0.010843
0.0110473
0.0102236
0.00878886
0.00713748
0.00621008
0.00527949
0.0040893
0.00181322
0.00179646
0.00181441
0.00180655
0.00182091
0.00179689
0.00183139
0.00184068
0.00189578
0.00199982
0.00210504
0.0025339
0.00427194
0.00670353
0.00961614
0.0111236
0.0106549
0.00948556
0.00864912
0.00713849
0.00653939
0.00515017
0.00352195
0.00180411
0.00179307
0.00181029
0.001801
0.0018064
0.0017911
0.00182306
0.00183602
0.00189146
0.00199739
0.00210613
0.00247342
0.00385228
0.00637275
0.0100432
0.0111385
0.0111236
0.00982742
0.00821674
0.00743851
0.00631985
0.00416026
0.0029272
0.00177596
0.00179212
0.00180598
0.00179704
0.0017927
0.00180332
0.00181764
0.00183701
0.00189121
0.00199343
0.00210941
0.00271645
0.00503714
0.00624859
0.0108069
0.0123955
0.0120422
0.0105567
0.0088608
0.00757075
0.00513699
0.00330909
0.00313808
0.00177172
0.00179088
0.0018016
0.00179232
0.00177831
0.00180558
0.00181361
0.00183086
0.00188527
0.00199134
0.00211306
0.00239312
0.00438358
0.00860549
0.0132383
0.0135027
0.0119531
0.0111694
0.00900361
0.00693527
0.00453432
0.00425539
0.00376125
0.00176238
0.00178959
0.00179696
0.00178737
0.00177856
0.00180501
0.00181186
0.00183358
0.00188453
0.00198553
0.00211498
0.00339025
0.00913344
0.0124689
0.0164808
0.0158257
0.0138904
0.0120347
0.00875699
0.00707169
0.00631223
0.00501035
0.00448983
0.00178721
0.00178554
0.00179377
0.00178292
0.00178542
0.0018026
0.00180891
0.00182417
0.00187672
0.00198306
0.00214944
0.00371922
0.00991376
0.0152284
0.0192665
0.0179852
0.0151712
0.0121105
0.0101808
0.0104682
0.00742217
0.00575289
0.00399312
0.00179445
0.00177877
0.00179185
0.00178013
0.00178998
0.00179881
0.00180717
0.00182921
0.00187646
0.00197993
0.00222138
0.00429691
0.0113548
0.020063
0.0201606
0.0197875