/*--------------------------------*- C++ -*----------------------------------*\
  =========                 |
  \\      /  F ield         | OpenFOAM: The Open Source CFD Toolbox
   \\    /   O peration     | Website:  https://openfoam.org
    \\  /    A nd           | Version:  7
     \\/     M anipulation  |
\*---------------------------------------------------------------------------*/
FoamFile
{
    version     2.0;
    format      ascii;
    class       volScalarField;
    location    "100";
    object      omega;
}
// * * * * * * * * * * * * * * * * * * * * * * * * * * * * * * * * * * * * * //

dimensions      [0 0 -1 0 0 0 0];

internalField   nonuniform List<scalar> 
12842
(
3.13799
2.83563
2.63189
2.51553
2.42817
2.37199
2.3183
2.28895
2.26154
2.25057
2.23809
2.23831
2.24395
2.25919
2.2929
2.34601
2.43975
2.55601
2.70992
2.86653
3.02226
3.23182
3.35602
3.11181
2.81818
2.62151
2.49004
2.40749
2.35925
2.31187
2.28345
2.25609
2.24725
2.2355
2.23653
2.24301
2.25978
2.29307
2.3489
2.44257
2.55461
2.71655
2.864
3.0385
3.25115
3.38444
3.08805
2.76588
2.59509
2.4793
2.38963
2.34311
2.30005
2.27502
2.24924
2.23982
2.23132
2.23385
2.2427
2.26304
2.30191
2.3644
2.46094
2.58372
2.75803
2.90048
3.08236
3.28147
3.42524
3.06209
2.73114
2.5466
2.44785
2.37449
2.32892
2.28922
2.26593
2.24315
2.23498
2.22815
2.23187
2.24233
2.2647
2.30577
2.37224
2.47576
2.59608
2.78232
2.93695
3.14488
3.32474
3.4692
3.02663
2.69384
2.52096
2.4198
2.3527
2.31387
2.27717
2.25606
2.23579
2.22977
2.22579
2.23019
2.24388
2.27044
2.31761
2.39243
2.50846
2.64306
2.82925
2.97642
3.19835
3.3753
3.53724
2.99411
2.65468
2.48176
2.39547
2.33566
2.30051
2.26763
2.24822
2.23014
2.22468
2.2239
2.22885
2.24376
2.27421
2.32647
2.40629
2.52498
2.66256
2.88181
3.04528
3.28051
3.45043
3.64121
2.95766
2.62265
2.45672
2.36792
2.31666
2.28608
2.25681
2.23943
2.2246
2.22031
2.22235
2.22818
2.24578
2.28047
2.33703
2.42525
2.5656
2.71466
2.92882
3.08288
3.32491
3.49934
3.69268
2.92458
2.58825
2.42829
2.35032
2.30127
2.27447
2.24856
2.23289
2.22002
2.21696
2.22035
2.22701
2.24801
2.288
2.35204
2.44701
2.58381
2.74796
3.00368
3.18349
3.42871
3.58447
3.81174
2.88726
2.56082
2.4066
2.3291
2.28758
2.26326
2.2401
2.22629
2.21615
2.21439
2.21912
2.22827
2.24946
2.29099
2.35812
2.46047
2.62401
2.78738
3.04099
3.22301
3.50331
3.67793
3.88675
2.85103
2.52738
2.38429
2.31583
2.27607
2.25465
2.23429
2.2217
2.21373
2.21325
2.21636
2.2283
2.25417
2.29885
2.37176
2.48031
2.64413
2.84048
3.11907
3.31059
3.57269
3.73553
4.00257
2.80851
2.50137
2.36488
2.29962
2.26578
2.24614
2.22766
2.21699
2.21097
2.21195
2.21656
2.2309
2.25734
2.30389
2.37997
2.50028
2.68566
2.87266
3.15727
3.35237
3.66635
3.84472
4.06824
2.77334
2.47236
2.3463
2.28845
2.25616
2.23876
2.22275
2.21309
2.20915
2.21102
2.21734
2.23323
2.26478
2.31695
2.40094
2.5273
2.72561
2.94884
3.24967
3.45781
3.73618
3.91127
4.21698
2.73076
2.4493
2.32968
2.27549
2.24742
2.23165
2.21706
2.20941
2.20696
2.21017
2.21835
2.23655
2.2686
2.32389
2.41324
2.55385
2.76505
2.98553
3.29384
3.51811
3.85235
4.0429
4.29278
2.69818
2.42519
2.31405
2.26602
2.23952
2.22552
2.21288
2.20619
2.20534
2.20923
2.21923
2.23964
2.27699
2.33884
2.43795
2.58876
2.82735
3.0749
3.39956
3.64307
3.94042
4.12968
4.48887
2.66022
2.40537
2.30035
2.25556
2.23188
2.21956
2.20813
2.20339
2.20348
2.20858
2.22008
2.24246
2.2821
2.34882
2.45711
2.62042
2.8653
3.1208
3.45388
3.72406
4.08054
4.30369
4.59936
2.63606
2.38593
2.28738
2.24746
2.22544
2.21454
2.20453
2.20077
2.20186
2.20777
2.22099
2.2466
2.291
2.36485
2.48322
2.66675
2.94797
3.23001
3.5857
3.88478
4.20949
4.43131
4.86019
2.60618
2.36913
2.2761
2.23868
2.21869
2.20935
2.20063
2.19858
2.20014
2.20705
2.22178
2.24926
2.29804
2.37937
2.51069
2.70266
2.99015
3.28731
3.65761
4.00261
4.3854
4.69904
5.10042
2.58785
2.35371
2.26547
2.23162
2.21335
2.20522
2.19761
2.19629
2.19844
2.20642
2.22301
2.25455
2.30755
2.3968
2.54018
2.76124
3.0875
3.42094
3.82707
4.19779
4.57971
4.89195
5.35649
2.56469
2.33955
2.25599
2.22399
2.20737
2.20051
2.19434
2.19435
2.19668
2.20558
2.22362
2.25724
2.31626
2.4142
2.57095
2.80113
3.13744
3.49307
3.92423
4.37019
4.78441
5.23088
5.81142
2.55035
2.3274
2.24723
2.21771
2.20275
2.19698
2.19183
2.19214
2.19497
2.20504
2.22564
2.26355
2.32617
2.43426
2.60852
2.8716
3.24963
3.65864
4.13663
4.58594
5.08638
5.62101
6.10882
2.53264
2.31545
2.23897
2.2109
2.19735
2.19268
2.1889
2.19018
2.19306
2.20426
2.2258
2.26652
2.33623
2.45236
2.63574
2.91472
3.30911
3.75055
4.27425
4.86123
5.41019
5.96306
6.66291
2.52096
2.30584
2.2316
2.20523
2.19314
2.18946
2.18673
2.18794
2.19146
2.20355
2.22809
2.27359
2.34545
2.47392
2.68615
3.00034
3.4452
3.96051
4.54388
5.1362
5.76677
6.53943
7.32445
2.50757
2.29551
2.22407
2.19896
2.18807
2.18556
2.18387
2.18577
2.18936
2.20194
2.22871
2.2764
2.35702
2.49518
2.71109
3.0463
3.51341
4.07495
4.74383
5.50153
6.29599
7.2213
8.10382
2.49934
2.28959
2.21944
2.19511
2.18517
2.18327
2.18264
2.18414
2.18824
2.20211
2.23107
2.28377
2.36399
2.51293
2.76582
3.14438
3.67987
4.34375
5.09226
5.96182
6.92592
7.91856
8.9988
2.4918
2.28342
2.21545
2.19194
2.18275
2.18177
2.18143
2.18296
2.18728
2.20231
2.23383
2.28832
2.37355
2.53464
2.79914
3.20382
3.77192
4.50604
5.44937
6.51747
7.57764
8.96125
10.7741
2.48556
2.27973
2.21277
2.18946
2.1809
2.18015
2.18048
2.18171
2.1863
2.20261
2.23772
2.29676
2.38427
2.55656
2.84476
3.29111
3.95967
4.84312
5.87516
7.03937
8.61445
11.1896
16.0814
2.47883
2.27367
2.20887
2.18634
2.17856
2.17869
2.17912
2.18037
2.18527
2.20308
2.24171
2.30232
2.39443
2.58206
2.90092
3.39075
4.10029
5.05707
6.34663
8.11606
11.2995
18.1414
36.831
2.47265
2.27028
2.20644
2.18387
2.17671
2.17693
2.17802
2.17916
2.18428
2.20371
2.2463
2.31085
2.40716
2.60928
2.93508
3.45663
4.27467
5.46387
7.09156
9.9183
16.1389
32.128
71.5369
2.46652
2.26444
2.20272
2.18086
2.17456
2.17536
2.17655
2.17773
2.18324
2.20428
2.24947
2.31768
2.42196
2.64491
3.01678
3.61409
4.54156
5.84567
7.90899
11.9815
21.9084
48.7547
108.411
2.46044
2.26123
2.2004
2.1784
2.17261
2.17355
2.17539
2.17657
2.18232
2.205
2.25266
2.32618
2.43162
2.67164
3.06393
3.70878
4.71496
6.27689
8.95882
14.5433
29.8846
68.7716
149.103
2.45469
2.25574
2.19687
2.17554
2.17067
2.17186
2.17394
2.17516
2.18137
2.20543
2.2542
2.3337
2.45551
2.727
3.16544
3.91349
5.08628
6.88574
9.97804
18.2173
41.9848
100.986
194.34
2.4488
2.25276
2.19465
2.17311
2.16858
2.17005
2.17282
2.174
2.1806
2.20608
2.25685
2.34469
2.46956
2.76348
3.23109
4.04773
5.347
7.48327
12.0767
26.1941
65.6289
138.357
220.034
2.44328
2.24763
2.19119
2.17041
2.16672
2.16836
2.17146
2.17273
2.17989
2.20637
2.25837
2.3517
2.49987
2.83513
3.38088
4.34899
5.88978
8.46829
15.2055
37.7931
93.2932
166.662
242.65
2.43766
2.24498
2.18918
2.16806
2.1646
2.16667
2.17042
2.17159
2.17938
2.20694
2.26206
2.36633
2.52293
2.90125
3.48349
4.56539
6.3951
10.1392
22.588
60.9725
122.409
189.394
257.962
2.43236
2.24018
2.18571
2.16555
2.16264
2.16508
2.16921
2.17054
2.17894
2.20749
2.2645
2.37484
2.56487
2.9858
3.67785
4.94439
7.26242
13.1665
32.9753
81.903
142.505
205.653
280.659
2.42704
2.23786
2.18393
2.16332
2.1606
2.16362
2.16821
2.16958
2.17871
2.20876
2.27032
2.39341
2.60701
3.09755
3.87932
5.45136
9.02934
19.0323
51.6412
105.6
160.414
215.521
275.444
2.42202
2.23341
2.18055
2.16105
2.15855
2.16222
2.1672
2.16876
2.17842
2.20946
2.2737
2.404
2.6468
3.1811
4.12192
6.09576
10.8856
28.1208
66.5341
121.121
171.941
214.459
257.864
2.41704
2.23132
2.17889
2.15897
2.15666
2.16099
2.16621
2.1681
2.17817
2.21133
2.28126
2.42641
2.7126
3.33748
4.45365
7.20832
15.9332
38.8618
86.0875
140.946
187.441
212.917
244.329
2.41236
2.22716
2.17571
2.15694
2.15465
2.1598
2.16526
2.16749
2.17771
2.21219
2.2855
2.43859
2.75184
3.48686
5.05038
9.35076
20.7575
52.3026
101.684
158.898
192.535
211.432
234.513
2.40781
2.22522
2.17414
2.15509
2.15294
2.15883
2.16435
2.16698
2.17768
2.2143
2.29528
2.46294
2.82254
3.61347
5.41509
10.7922
28.8529
68.1056
125.983
173.19
195.071
210.611
228.399
2.40347
2.22126
2.17113
2.15326
2.15118
2.15766
2.16328
2.16652
2.17703
2.21535
2.30081
2.47693
2.8734
3.89842
6.65262
15.653
40.0587
86.8506
149.925
182.007
199.015
211.577
223.444
2.39941
2.21939
2.16959
2.15164
2.14962
2.15692
2.16235
2.16593
2.17719
2.21916
2.31531
2.50654
2.95109
4.07614
7.48709
19.2993
53.1693
111.43
159.962
186.036
199.298
209.581
218.184
2.39543
2.21559
2.1668
2.15007
2.14812
2.1556
2.16102
2.16494
2.1773
2.22119
2.32373
2.52563
3.02434
4.48623
9.60858
27.4498
68.6386
133.26
175.993
186.91
201.177
210.214
217.3
2.39186
2.21363
2.16515
2.14861
2.14691
2.15475
2.16021
2.16437
2.17897
2.22995
2.3488
2.57036
3.13027
4.83361
11.1452
33.7279
91.6485
156.725
181.729
190.453
197.477
207.959
210.145
2.38827
2.21006
2.16261
2.14717
2.14532
2.15313
2.15821
2.16312
2.18043
2.23617
2.36397
2.60027
3.25218
5.51949
15.3983
48.3241
112.716
170.693
185.134
187.005
197.27
204.187
203.489
2.38512
2.20778
2.16077
2.14588
2.14427
2.15218
2.15721
2.16407
2.18806
2.25609
2.40656
2.6744
3.43963
6.25561
18.2817
58.1408
130.736
184.532
189.877
187.729
199.022
201.447
199.401
2.38194
2.20457
2.15829
2.14444
2.14275
2.14998
2.15526
2.16409
2.19671
2.27538
2.43309
2.71982
3.57684
7.29436
25.4396
76.1558
151.81
180.674
192.932
187.953
196.618
197.86
195.305
2.37903
2.2018
2.15619
2.14298
2.14141
2.14872
2.15491
2.16914
2.21381
2.31119
2.4949
2.82674
3.93269
9.23595
30.3629
93.4879
164.267
192.962
190.443
188.596
193.24
190.947
188.203
2.37633
2.19902
2.15376
2.1416
2.13936
2.14642
2.15473
2.17443
2.23087
2.34393
2.53834
2.89455
4.16353
10.8183
43.6458
129.985
199.53
191.323
190.131
188.532
189.269
185.117
182.076
2.37382
2.1961
2.15134
2.14031
2.13755
2.14614
2.15707
2.18679
2.25765
2.39025
2.61468
3.02555
4.6245
14.2348
54.417
162.376
205.076
194.376
195.375
191.441
186.736
182.093
179.285
2.37231
2.1937
2.149
2.13857
2.13591
2.14528
2.16033
2.20118
2.28606
2.43617
2.67824
3.10203
4.87233
16.4798
73.1636
192.302
208.117
198.179
192.884
189.876
184.068
179.967
177.384
2.3706
2.19144
2.14658
2.13703
2.13594
2.14663
2.17094
2.22432
2.32367
2.49149
2.75731
3.23111
5.31858
19.7962
83.2924
194.065
210.943
202.08
191.899
184.545
180.067
177.273
175.064
2.36957
2.18901
2.14433
2.13578
2.1363
2.15017
2.18529
2.25052
2.36382
2.54721
2.82986
3.31084
5.44442
21.7758
91.6125
198.939
211.325
193.412
178.168
172.655
172.18
172.957
171.984
2.36784
2.18682
2.14238
2.13556
2.14099
2.16062
2.20855
2.2854
2.41222
2.61047
2.91129
3.4141
5.67773
21.599
96.5013
214.585
207.466
174.189
162.342
159.587
164.372
166.997
167.739
2.36634
2.18468
2.14095
2.13601
2.15006
2.17577
2.23515
2.32361
2.46215
2.67272
2.98689
3.49369
5.62809
20.3547
94.8759
226.644
204.758
156.543
147.735
150.284
159.327
162.696
163.588
2.36401
2.18266
2.14017
2.1399
2.16651
2.19839
2.27019
2.36928
2.51846
2.74005
3.06761
3.58841
5.5127
19.6396
86.7041
228.66
200.084
142.914
137.834
146.471
157.098
160.843
160.233
2.36125
2.18096
2.13993
2.14939
2.1864
2.22452
2.30653
2.41393
2.57041
2.79936
3.13579
3.66919
5.50554
17.3901
73.6466
229.733
195.591
135.892
132.527
143.246
154.912
158.96
158.259
2.35812
2.17963
2.14072
2.16285
2.21047
2.25437
2.34608
2.4602
2.62276
2.85767
3.20216
3.75948
5.45769
16.9363
61.6595
212.586
179.992
129.035
127.267
140.21
151.855
155.32
154.431
2.35444
2.17853
2.14528
2.18008
2.23798
2.28816
2.38814
2.50793
2.67492
2.91433
3.26577
3.85926
5.57655
16.526
51.6551
187.231
158.308
121.761
122.491
137.955
148.939
150.305
144.499
2.35055
2.17774
2.15431
2.20093
2.26905
2.32483
2.43217
2.55582
2.72604
2.96871
3.32699
3.97517
5.90708
16.2246
46.8118
166.317
135.644
114.806
117.76
135.939
143.651
141.887
128.992
2.34641
2.1775
2.1678
2.2249
2.30266
2.36428
2.47702
2.60359
2.77563
3.02046
3.38659
4.11265
6.43652
16.0376
44.4213
149.289
124.639
108.66
113.11
132.583
139.9
131.879
114.876
2.34314
2.17828
2.18519
2.25227
2.33899
2.40558
2.52262
2.65043
2.8232
3.0693
3.44588
4.28031
7.17148
17.0721
44.2763
136.888
114.556
103.592
108.732
131.118
133.203
119.098
104.344
2.34053
2.18161
2.20676
2.28243
2.37722
2.44886
2.56792
2.69623
2.86864
3.11547
3.50654
4.48815
8.10703
19.0451
43.2774
129.254
111.255
99.4174
104.768
127.575
125.184
108.14
96.7638
2.33872
2.18948
2.23209
2.3158
2.41746
2.49317
2.61313
2.74057
2.91172
3.1588
3.57048
4.74341
9.23982
21.5777
43.48
127.084
110.932
95.2536
101.294
120.789
115.793
99.7991
90.7988
2.33795
2.20132
2.26126
2.35161
2.45894
2.53866
2.65719
2.7833
2.95239
3.19982
3.63889
5.05182
10.5529
24.4546
45.8536
126.106
109.088
92.1225
97.2945
112.633
107.618
96.0576
87.0171
2.33798
2.21819
2.29404
2.3899
2.50148
2.58409
2.70044
2.82412
2.9906
3.23837
3.71316
5.41486
12.0112
27.3696
47.6422
125.156
108.659
86.7294
88.882
98.5775
100.178
92.1414
84.4794
2.34085
2.23938
2.32986
2.43007
2.54447
2.62975
2.74174
2.86298
3.02615
3.27497
3.79401
5.83212
13.59
30.3837
50.5534
121.416
103.093
82.7179
82.8923
86.7878
92.2657
86.9444
81.586
2.3476
2.26524
2.36852
2.47137
2.58726
2.67404
2.78167
2.8994
3.05928
3.30955
3.88134
6.29486
15.2525
33.0607
52.1966
110.113
92.8484
77.1473
76.2432
77.7996
83.7466
82.9438
80.7896
2.35838
2.29536
2.40908
2.51383
2.62966
2.7176
2.81904
2.9338
3.08961
3.34247
3.97635
6.8067
16.963
35.6903
55.0189
96.8697
83.1843
70.7526
69.2891
70.442
76.9595
78.9812
79.8096
2.37344
2.32889
2.45113
2.5559
2.67069
2.75856
2.85468
2.96523
3.11763
3.37381
4.07728
7.34091
18.651
38.06
56.271
84.4686
70.754
65.077
64.5236
66.2851
72.9867
76.7205
81.0175
2.39181
2.36614
2.49374
2.59812
2.71044
2.79805
2.88739
2.99485
3.14299
3.40376
4.18673
7.90748
20.2876
39.7057
58.1506
71.0756
64.2281
59.1111
61.7703
64.5329
72.357
78.3552
90.5341
2.41368
2.405
2.53644
2.63896
2.74817
2.83416
2.91836
3.02123
3.16615
3.43245
4.29729
8.45868
21.7957
41.5467
58.5982
65.0101
60.333
58.9232
60.3993
64.8372
76.7965
91.0949
110.489
2.43843
2.44634
2.57831
2.67858
2.78372
2.8682
2.94611
3.04595
3.187
3.46
4.41741
9.01254
23.1708
42.5312
58.8577
62.8284
57.4303
58.048
60.8072
68.8938
88.7267
111.874
141.147
2.46439
2.48743
2.61891
2.71643
2.817
2.89888
2.97242
3.06776
3.20585
3.48665
4.52977
9.51417
24.2595
43.4754
58.5282
61.2453
58.1066
60.1614
66.3719
79.6506
107.23
139.189
166.674
2.49341
2.52957
2.65809
2.75209
2.84775
2.92679
2.99532
3.08772
3.22277
3.51148
4.64615
9.97623
25.1662
43.782
58.1048
62.8037
58.0547
65.0066
76.2341
97.7935
128.387
164.708
200.845
2.52082
2.56994
2.69407
2.78527
2.87562
2.95214
3.01708
3.10558
3.23799
3.53649
4.74799
10.3575
25.8594
43.7248
56.8782
62.5802
61.6183
74.519
88.9297
119.142
152.062
191.383
224.051
2.55118
2.61022
2.72943
2.81657
2.9018
2.97429
3.03571
3.12133
3.25156
3.55755
4.85156
10.7656
26.3108
43.3425
56.3087
61.8312
67.407
85.6225
106.78
140.579
174.038
210.401
234.682
2.57849
2.64759
2.75972
2.84444
2.92408
2.99435
3.05282
3.1358
3.26381
3.58058
4.93062
10.9496
26.3295
42.4055
53.38
62.8856
74.0841
94.3766
121.005
159.783
197.843
222.8
242.688
2.60728
2.68409
2.78991
2.87066
2.94565
3.01221
3.0681
3.14797
3.27458
3.59619
5.03208
11.1767
26.1379
41.1113
53.4046
67.7634
83.5082
102.561
134.308
175.658
207.251
232.556
245.849
2.63355
2.71702
2.81558
2.89448
2.96373
3.02721
3.08064
3.15965
3.28434
3.61716
5.06766
11.125
25.5748
39.3657
52.6718
70.6169
92.6604
112.257
146.797
184.254
206.227
231.622
251.337
2.65951
2.74923
2.83933
2.91475
2.98015
3.04169
3.09323
3.16916
3.29288
3.62808
5.12587
11.0216
24.7165
37.3029
51.4496
74.8276
94.5753
121.828
162.851
186.092
212.039
232.076
256.482
2.68349
2.77659
2.86201
2.93554
2.99559
3.05365
3.10197
3.17831
3.3005
3.64412
5.11283
10.806
23.5941
34.9956
49.9449
82.2566
96.6551
128.708
165.883
191.125
213.177
235.195
252.082
2.70667
2.80472
2.87977
2.95141
3.00809
3.06383
3.11193
3.1864
3.3071
3.65081
5.0752
10.4954
22.2389
32.4527
53.5891
91.5185
100.333
132.215
168.684
192.445
215.48
238.652
255.985
2.72873
2.82769
2.89938
2.96789
3.01998
3.07512
3.11845
3.19369
3.31283
3.66274
5.02826
10.0951
20.7995
30.1414
72.5278
103.51
107.301
140.478
170.309
195.005
219.249
239.822
253.346
2.74732
2.8494
2.91432
2.98234
3.03189
3.08216
3.12567
3.19797
3.3175
3.65997
4.95642
9.65117
19.2317
27.3069
97.0731
114.385
116.329
140.299
179.064
197.697
221.143
237.128
248.557
2.76983
2.87172
2.92976
2.99446
3.04002
3.09175
3.13154
3.20004
3.32119
3.65548
4.87939
9.13756
17.7726
27.7519
113.411
121.091
127.635
152.725
176.303
201.669
219.5
232.705
242.695
2.78483
2.88695
2.94429
3.00821
3.05115
3.09995
3.13752
3.20029
3.32386
3.65084
4.78135
8.63872
16.2917
25.6111
121.297
125.488
137.579
153.921
182.301
201.239
215.941
227.271
236.099
2.80464
2.90743
2.96028
3.01896
3.06052
3.10868
3.1371
3.20075
3.32553
3.64127
4.68119
8.1236
14.9288
26.6075
121.621
128.575
138.801
160.15
184.519
198.607
211.269
221.051
228.845
2.82354
2.92464
2.96638
3.03238
3.06697
3.10789
3.13771
3.20246
3.3265
3.63306
4.59124
7.60014
13.8258
26.4751
115.584
125.658
143.729
164.482
183.206
194.133
205.278
213.692
220.886
2.84124
2.93525
2.97001
3.03972
3.0669
3.11054
3.14128
3.20223
3.32747
3.62174
4.45411
7.17677
12.3609
25.9142
111.639
126.239
145.639
164.994
178.928
188.336
198.098
205.419
212.097
2.84254
2.9449
2.9734
3.04331
3.06795
3.11207
3.14006
3.2024
3.32763
3.60955
4.39926
6.69539
11.9778
26.4713
102.261
126.646
145.432
161.837
172.413
181.054
190.059
196.689
202.802
2.84558
2.94587
2.98036
3.04648
3.07136
3.11259
3.14009
3.20343
3.32723
3.59464
4.37553
6.32925
11.8835
27.9724
98.745
125.735
142.291
156.501
164.299
173.764
181.901
188.041
193.82
2.85201
2.94788
2.98503
3.04736
3.07347
3.11397
3.14045
3.20198
3.32772
3.59788
4.30535
6.19478
11.1417
29.0664
97.0309
123.292
137.368
148.678
156.699
166.378
173.855
179.562
185.109
2.85998
2.95663
2.9828
3.04599
3.07226
3.11112
3.1399
3.20181
3.32781
3.59829
4.31529
6.087
11.4398
32.3435
97.3987
119.333
130.688
141.067
149.836
159.091
166.073
171.512
176.791
2.86681
2.95449
2.98299
3.04482
3.07134
3.11229
3.13957
3.2014
3.32778
3.59717
4.30987
5.90364
11.4701
30.81
97.2616
114.021
123.46
134.286
143.034
152.251
158.665
163.806
168.657
2.87079
2.95397
2.98191
3.04391
3.07166
3.11383
3.13914
3.20268
3.32894
3.59373
4.27231
5.88385
10.9366
29.2819
94.0389
108.759
117.097
127.886
136.891
145.722
151.366
156.249
160.651
2.87062
2.9542
2.98222
3.04534
3.07031
3.10956
3.13818
3.20194
3.3248
3.57674
4.19547
5.7151
10.0129
29.682
84.4668
103.188
110.472
121.222
130.307
138.731
144.085
148.849
152.903
2.86961
2.95284
2.98085
3.04362
3.06924
3.10876
3.13798
3.20039
3.32031
3.56125
4.13235
5.56888
9.43289
29.9154
75.9403
96.8127
105.715
114.576
124.079
131.993
137.191
141.788
145.526
2.86768
2.95194
2.98181
3.04245
3.06925
3.1102
3.13202
3.19715
3.31515
3.54665
4.07988
5.44017
9.0145
29.252
70.3249
89.6582
99.7606
108.259
117.559
125.064
129.949
134.294
137.773
2.8662
2.95282
2.97417
3.03968
3.06158
3.10968
3.13066
3.19218
3.30968
3.53321
4.03448
5.32875
8.78797
26.5548
63.0592
81.7251
92.8146
102.421
110.793
117.9
122.492
126.568
129.946
2.86794
2.94334
2.97206
3.03852
3.05922
3.10703
3.13235
3.18261
3.30294
3.51944
3.9942
5.23245
8.707
30.2982
56.3816
75.9909
86.9654
96.3619
103.796
110.618
114.783
118.612
121.888
2.86623
2.94091
2.97155
3.02787
3.06024
3.09873
3.12997
3.17863
3.29607
3.50609
3.95713
5.14545
8.6761
29.4704
50.2534
72.478
81.1285
89.5314
96.998
103.02
106.967
110.563
113.672
2.86187
2.94032
2.95916
3.02493
3.05613
3.09043
3.12279
3.16851
3.28754
3.49149
3.92282
5.06721
8.69812
26.5003
46.1671
66.3028
74.5894
83.1493
89.7462
95.2838
98.8568
102.19
104.94
2.85435
2.94233
2.95596
3.0277
3.0411
3.08299
3.1159
3.16939
3.27853
3.47696
3.8899
4.99139
8.53477
26.0548
43.1928
58.6912
69.0002
76.2725
82.6202
87.526
90.8986
93.8666
96.0098
2.83954
2.93501
2.95871
3.02156
3.03493
3.07893
3.10315
3.16359
3.26732
3.46072
3.85858
4.92855
8.83437
25.7263
40.7603
52.4218
63.002
69.5459
75.5054
79.8897
82.9639
85.4889
86.7693
2.81751
2.92087
2.94901
3.0118
3.01861
3.07322
3.09411
3.15533
3.2554
3.44405
3.82693
4.86283
8.67801
24.7602
36.1619
46.9966
56.7698
63.2702
68.5043
72.5514
75.2696
77.1205
77.4087
2.80996
2.89981
2.93757
2.98542
3.01642
3.06433
3.07983
3.14276
3.24042
3.42504
3.79505
4.80334
8.67786
23.9002
32.8289
42.4145
51.423
57.4275
61.9558
65.7431
67.8963
68.7573
68.6141
2.81131
2.87139
2.92043
2.97377
3.00697
3.04886
3.06888
3.1296
3.22445
3.40451
3.76128
4.73949
8.62902
22.9552
29.6813
38.8162
46.5234
51.9378
55.7544
58.9818
60.4917
60.9254
60.665
2.79964
2.86123
2.90762
2.93874
2.98302
3.02719
3.04516
3.11152
3.20413
3.38067
3.72439
4.67837
8.72188
22.465
27.691
35.6167
42.492
46.4615
50.1375
52.8694
54.4001
54.6616
54.6602
2.77803
2.86238
2.8991
2.92457
2.95947
3.00525
3.01987
3.09272
3.18238
3.35394
3.6855
4.60714
8.50433
21.9649
26.3536
33.333
38.2675
41.6098
45.1859
47.6879
48.9842
49.0056
48.5482
2.74956
2.84464
2.88116
2.92034
2.93498
2.98219
2.99671
3.06769
3.15464
3.32299
3.64106
4.54363
9.03854
21.7807
25.4441
30.6457
34.6298
37.5396
40.7987
43.3423
43.6243
43.1332
40.3423
2.72343
2.82337
2.86145
2.90271
2.91595
2.96053
2.98183
3.04217
3.12473
3.2878
3.59506
4.50215
9.91979
21.4044
23.9606
28.7052
31.3996
34.0118
37.5558
38.6458
38.6842
35.9951
31.1311
2.70259
2.79335
2.83347
2.87475
2.8975
2.93069
2.95611
3.00811
3.08805
3.24743
3.54371
4.47858
9.84682
22.8362
23.2745
26.4453
28.4727
31.5348
33.7939
33.9068
32.0968
28.3273
24.7458
2.67814
2.76061
2.80383
2.84492
2.86961
2.89997
2.92697
2.97343
3.04787
3.2025
3.48492
4.29601
10.8137
21.4854
22.4164
24.5193
26.3267
28.8514
29.3916
28.3557
25.9553
23.7339
20.1693
2.64157
2.7172
2.7634
2.80381
2.82883
2.85779
2.88432
2.92761
3.00146
3.15108
3.43398
4.79809
11.3711
20.9756
20.8463
21.9685
24.2897
25.2491
25.208
24.2072
22.8256
20.3553
14.2557
2.60227
2.67444
2.72139
2.76198
2.78701
2.81595
2.84133
2.88179
2.94839
3.09502
3.37051
5.04437
13.2015
22.3572
18.2402
20.4625
21.976
22.4003
22.1742
21.1254
20.1192
15.6261
7.44461
2.55063
2.62074
2.66519
2.70559
2.73053
2.75911
2.7827
2.82187
2.89097
3.03268
3.30086
4.58247
14.921
19.6235
17.5819
18.948
19.9252
20.1134
20.2823
19.7832
16.9937
8.91576
4.61719
2.50078
2.57063
2.60989
2.6509
2.67617
2.70469
2.72723
2.76365
2.82262
2.96299
3.23973
5.68737
18.0649
20.4289
17.4416
17.7079
18.4809
18.5609
18.9272
16.9485
11.0191
4.88239
3.55488
2.43693
2.50478
2.53788
2.57768
2.60282
2.62978
2.65109
2.68648
2.75146
2.89088
3.17541
6.03881
20.8529
16.6905
16.0354
16.8174
17.3721
18.1013
16.9043
12.7054
5.38667
3.44735
3.15267
2.37833
2.44469
2.47212
2.51103
2.53588
2.56169
2.58293
2.61534
2.66848
2.8069
3.06805
7.47914
20.8024
16.3246
14.9833
16.5858
16.6118
16.7015
13.615
5.92856
3.48837
3.02371
2.95676
2.29998
2.36161
2.38429
2.41941
2.44252
2.46534
2.4855
2.51666
2.57811
2.73104
3.27787
8.35226
19.3908
14.3336
14.2275
15.875
15.9784
13.9969
6.54368
3.49769
2.90455
2.79144
2.76944
2.23232
2.29057
2.30997
2.34275
2.36388
2.38508
2.40551
2.43439
2.48599
2.63892
3.23963
10.9671
16.6727
12.4938
13.6928
14.5093
13.5126
7.39244
3.66982
2.80539
2.68776
2.65475
2.64133
2.13609
2.1871
2.20273
2.22961
2.24687
2.26433
2.28271
2.30997
2.37379
2.5693
3.98204
10.27
13.8536
10.9856
12.9376
12.7693
8.25569
3.84424
2.70483
2.51014
2.4842
2.4727
2.46536
2.06273
2.11002
2.12249
2.14742
2.16152
2.17773
2.19608
2.22257
2.28081
2.52222
3.92545
10.5393
11.2551
10.188
11.6086
8.87851
4.24654
2.68298
2.42007
2.37818
2.37065
2.36607
2.36236
1.94711
1.98191
1.99028
2.00784
2.01631
2.02847
2.04359
2.06987
2.15851
2.54522
4.73992
9.73773
8.59534
9.01278
8.9725
4.47611
2.63725
2.23545
2.18519
2.17539
2.17337
2.17055
2.1691
1.87775
1.90911
1.91439
1.93003
1.93594
1.9474
1.96161
1.99017
2.06183
2.60276
5.71513
8.58011
7.11425
7.92062
5.28212
2.753
2.19338
2.10065
2.08501
2.08134
2.07971
2.07778
2.07698
1.72109
1.73049
1.73026
1.73496
1.73612
1.74329
1.75933
1.81092
2.03343
3.20242
5.7251
5.82427
5.35638
4.79984
2.58651
1.94803
1.83195
1.8181
1.81822
1.81818
1.81892
1.81817
1.8178
3.10057
2.78891
2.59823
2.47749
2.39097
2.34067
2.30033
2.27878
2.25407
2.24455
2.23424
2.23649
2.24578
2.26724
2.30696
2.3729
2.47974
2.59555
2.75067
2.92327
3.05442
3.27916
3.40081
3.10898
2.79651
2.60405
2.48737
2.40097
2.352
2.30792
2.28428
2.25764
2.24765
2.23528
2.23725
2.24613
2.26758
2.30684
2.37182
2.47585
2.59334
2.74042
2.91835
3.04422
3.2441
3.37159
3.1191
2.81631
2.62273
2.49977
2.40971
2.35769
2.31178
2.2874
2.25988
2.24927
2.23625
2.23781
2.24606
2.26557
2.30331
2.36551
2.46665
2.58067
2.71746
2.89063
3.01327
3.20887
3.33199
3.1309
2.8271
2.62866
2.5071
2.42071
2.36977
2.32025
2.29286
2.26341
2.25175
2.23716
2.2381
2.24518
2.26329
2.30114
2.36033
2.45948
2.57858
2.70331
2.87995
3.00025
3.18413
3.30142
3.13932
2.84123
2.64639
2.52787
2.43416
2.3762
2.32299
2.29427
2.26445
2.25239
2.23745
2.238
2.24469
2.26051
2.30046
2.35626
2.45143
2.57519
2.68919
2.86839
2.98981
3.17251
3.28378
3.14742
2.85278
2.65775
2.53311
2.43649
2.37725
2.32536
2.29713
2.26832
2.255
2.24004
2.23901
2.24506
2.257
2.30126
2.35035
2.44264
2.55988
2.6731
2.84328
2.96523
3.14898
3.26059
3.15049
2.85905
2.66296
2.53804
2.44184
2.38326
2.33054
2.30144
2.27166
2.25736
2.24302
2.24056
2.24616
2.25716
2.30037
2.34816
2.44267
2.55762
2.67754
2.8514
2.97577
3.16395
3.29003
3.14868
2.84926
2.65644
2.53409
2.43768
2.37804
2.32429
2.29806
2.26984
2.25647
2.24261
2.24017
2.24563
2.25888
2.29575
2.34616
2.44349
2.56058
2.69618
2.86746
3.00086
3.20994
3.34169
2.96911
2.63136
2.46442
2.37374
2.31011
2.27541
2.24736
2.23519
2.22296
2.21769
2.22008
2.22899
2.25146
2.2956
2.37618
2.50767
2.71508
3.00061
3.25035
3.58245
3.88577
4.2671
4.56591
2.97942
2.63823
2.46894
2.37808
2.31404
2.27911
2.25041
2.23741
2.2251
2.21947
2.22132
2.22951
2.25185
2.29445
2.3723
2.49949
2.70211
2.96281
3.21698
3.51231
3.83519
4.16145
4.46888
2.98025
2.64385
2.47483
2.38304
2.31732
2.28171
2.25283
2.2394
2.2268
2.22059
2.22207
2.22965
2.24967
2.29091
2.36474
2.48495
2.67857
2.9154
3.17873
3.43222
3.77838
4.05208
4.37184
2.99113
2.65221
2.4799
2.38751
2.32164
2.28568
2.25611
2.24163
2.22886
2.22242
2.22313
2.2299
2.24924
2.28932
2.36072
2.47684
2.66643
2.87781
3.1524
3.37692
3.73418
3.95425
4.28333
2.99331
2.65851
2.48703
2.39333
2.32584
2.28844
2.2586
2.24366
2.2305
2.22362
2.22365
2.23012
2.24842
2.286
2.35306
2.46253
2.64297
2.83152
3.11226
3.32148
3.65916
3.86412
4.17989
3.0053
2.66859
2.493
2.39809
2.33041
2.29258
2.26199
2.24598
2.23255
2.22556
2.22458
2.2305
2.24776
2.28397
2.34869
2.45415
2.6268
2.80141
3.07999
3.28211
3.59634
3.79033
4.07489
3.00869
2.67546
2.50174
2.40496
2.33571
2.29601
2.26457
2.24819
2.23423
2.22696
2.22506
2.23081
2.24704
2.28072
2.34118
2.44016
2.60135
2.76748
3.03541
3.22931
3.52279
3.7129
3.96557
3.02211
2.68761
2.50866
2.41025
2.34048
2.29989
2.268
2.25079
2.23634
2.229
2.22602
2.23121
2.24637
2.27837
2.33617
2.43059
2.58235
2.74235
3.00014
3.1856
3.46198
3.64892
3.86038
3.02649
2.695
2.51914
2.41846
2.34683
2.3045
2.27088
2.25346
2.23821
2.23065
2.22655
2.23157
2.24594
2.27581
2.32995
2.41864
2.5608
2.71362
2.9609
3.14025
3.39493
3.5879
3.76288
3.0414
2.70962
2.52713
2.42427
2.35186
2.30787
2.2745
2.25654
2.24039
2.2327
2.22761
2.23207
2.24559
2.27396
2.32556
2.41012
2.54572
2.69214
2.92645
3.10197
3.33393
3.53574
3.68312
3.04641
2.71736
2.53907
2.43422
2.35915
2.31395
2.27801
2.25992
2.24259
2.23459
2.22837
2.23263
2.24559
2.2726
2.32122
2.40101
2.52971
2.66995
2.89052
3.0646
3.27525
3.48136
3.62914
3.06223
2.73477
2.54845
2.44036
2.36435
2.31714
2.28211
2.26344
2.24476
2.23657
2.2295
2.23328
2.24575
2.2716
2.3183
2.3954
2.52024
2.6547
2.85987
3.03363
3.21932
3.44122
3.58831
3.06781
2.74226
2.56115
2.45201
2.37253
2.32445
2.28637
2.26736
2.24721
2.23851
2.23039
2.23388
2.24612
2.27056
2.31499
2.3887
2.50818
2.63655
2.82921
3.00297
3.17022
3.41542
3.54976
3.08308
2.76213
2.5723
2.45837
2.37746
2.32796
2.29087
2.27096
2.2493
2.24039
2.23164
2.23467
2.24578
2.2693
2.31233
2.38377
2.49903
2.62363
2.80635
2.97453
3.13542
3.38514
3.50314
3.08913
2.76959
2.58442
2.47084
2.38647
2.33642
2.29591
2.27513
2.25193
2.2424
2.23268
2.23549
2.24613
2.26901
2.31064
2.37912
2.48842
2.60639
2.77627
2.93735
3.09394
3.32626
3.45304
2.89935
2.56355
2.4071
2.32592
2.27414
2.23841
2.21957
2.20446
2.19555
2.19514
2.20214
2.22214
2.26989
2.37199
2.54748
2.82144
3.20435
3.72616
4.29175
4.79068
5.37965
6.10554
6.58068
2.90225
2.56542
2.40887
2.32723
2.27544
2.23929
2.22028
2.20499
2.19641
2.19582
2.20282
2.22146
2.26854
2.36711
2.53561
2.79918
3.16788
3.68013
4.23318
4.70803
5.27688
5.99768
6.47423
2.90304
2.56723
2.41088
2.32823
2.27711
2.24099
2.22158
2.20583
2.19778
2.1971
2.20365
2.22228
2.26758
2.3642
2.53002
2.78872
3.15067
3.6518
4.18072
4.65527
5.17845
5.88966
6.35144
2.90599
2.56924
2.4129
2.32901
2.2783
2.24187
2.22224
2.20649
2.19841
2.19781
2.20439
2.22276
2.2669
2.36044
2.52213
2.77561
3.12224
3.62873
4.14577
4.61264
5.12623
5.81712
6.28481
2.90685
2.57093
2.41527
2.33026
2.28
2.24362
2.22335
2.20761
2.19951
2.19861
2.20489
2.22173
2.26622
2.3571
2.51481
2.76299
3.10967
3.59887
4.09196
4.56385
5.04403
5.70739
6.16931
2.91004
2.57294
2.41743
2.33128
2.28117
2.24477
2.22393
2.20853
2.20032
2.19948
2.20553
2.22249
2.26539
2.35439
2.50906
2.75322
3.08616
3.58647
4.06992
4.54716
5.01803
5.64644
6.12186
2.91105
2.5747
2.41975
2.33255
2.28257
2.2463
2.22492
2.20987
2.2011
2.20018
2.20611
2.2217
2.26461
2.35105
2.50263
2.7431
3.07541
3.5605
4.01973
4.50081
4.96374
5.55812
6.02931
2.91445
2.57679
2.42196
2.33418
2.28391
2.24786
2.22552
2.21115
2.2022
2.20093
2.20659
2.22248
2.26374
2.34791
2.49564
2.73123
3.05307
3.54331
3.99304
4.48635
4.94176
5.494
5.98301
2.91557
2.57869
2.42396
2.33556
2.28491
2.24911
2.22626
2.21257
2.20288
2.2018
2.20729
2.22303
2.26299
2.34513
2.49029
2.72287
3.0425
3.52511
3.95245
4.45893
4.91074
5.43439
5.91884
2.91909
2.58109
2.42602
2.3377
2.28636
2.25086
2.22706
2.21403
2.20407
2.20242
2.20774
2.2236
2.26227
2.34171
2.48249
2.70932
3.02021
3.4994
3.92022
4.43185
4.88091
5.36914
5.8637
2.92032
2.58315
2.42778
2.33943
2.28723
2.25203
2.22781
2.21551
2.20497
2.20346
2.20854
2.22414
2.26175
2.3395
2.4779
2.70135
3.00993
3.48483
3.8831
4.41528
4.85572
5.32759
5.81948
2.92396
2.58599
2.42955
2.34167
2.28861
2.25363
2.22871
2.21694
2.20606
2.20409