/*--------------------------------*- C++ -*----------------------------------*\
  =========                 |
  \\      /  F ield         | OpenFOAM: The Open Source CFD Toolbox
   \\    /   O peration     | Website:  https://openfoam.org
    \\  /    A nd           | Version:  7
     \\/     M anipulation  |
\*---------------------------------------------------------------------------*/
FoamFile
{
    version     2.0;
    format      ascii;
    class       volScalarField;
    location    "100";
    object      p;
}
// * * * * * * * * * * * * * * * * * * * * * * * * * * * * * * * * * * * * * //

dimensions      [0 2 -2 0 0 0 0];

internalField   nonuniform List<scalar> 
12842
(
0.248395
0.265125
0.313555
0.426432
0.60881
0.867018
1.21813
1.68171
2.27189
2.99606
3.85769
4.85988
6.00656
7.29979
8.73152
10.2782
11.8965
13.5249
15.0925
16.5316
17.7906
18.8399
19.6776
0.134059
0.132287
0.149349
0.224107
0.353547
0.542867
0.807819
1.16142
1.60686
2.13977
2.75557
3.45787
4.26263
5.19484
6.27602
7.51057
8.87546
10.3187
11.769
13.1508
14.402
15.478
16.3772
0.0334369
0.0105558
0.0016899
0.041359
0.120778
0.247663
0.436102
0.691125
1.00244
1.35182
1.72533
2.12786
2.58983
3.16207
3.89684
4.82542
5.94114
7.19617
8.51478
9.81235
11.0208
12.0813
13.0017
-0.0570544
-0.0972221
-0.129272
-0.123413
-0.0914981
-0.0202314
0.101445
0.26898
0.455566
0.627004
0.758689
0.858073
0.972616
1.1827
1.57346
2.20217
3.07426
4.14034
5.31664
6.50898
7.64626
8.6582
9.56647
-0.138408
-0.186431
-0.24277
-0.269115
-0.28243
-0.260001
-0.196274
-0.106876
-0.0384704
-0.0427767
-0.156532
-0.368148
-0.61014
-0.76846
-0.722439
-0.389622
0.24329
1.11982
2.14526
3.2155
4.26043
5.198
6.06942
-0.209797
-0.254718
-0.338831
-0.393769
-0.450054
-0.468889
-0.454667
-0.434801
-0.478806
-0.656615
-1.01882
-1.54799
-2.15447
-2.68648
-2.986
-2.94653
-2.55073
-1.86683
-1.00206
-0.0701165
0.862394
1.70309
2.51558
-0.27053
-0.302821
-0.418115
-0.496163
-0.592927
-0.643714
-0.669966
-0.709923
-0.858205
-1.20345
-1.81266
-2.66158
-3.63713
-4.54674
-5.19359
-5.44796
-5.29136
-4.80718
-4.11555
-3.34043
-2.54074
-1.82215
-1.08911
-0.320383
-0.333425
-0.482459
-0.578372
-0.713565
-0.787541
-0.847548
-0.938824
-1.18187
-1.6838
-2.53044
-3.69072
-5.02945
-6.31256
-7.30545
-7.85604
-7.94542
-7.67345
-7.17129
-6.57481
-5.92995
-5.36297
-4.72921
-0.364025
-0.350193
-0.530262
-0.635542
-0.798519
-0.878326
-0.953716
-1.07199
-1.37765
-1.99786
-3.03814
-4.46374
-6.11921
-7.73192
-9.03109
-9.84428
-10.152
-10.0712
-9.74087
-9.31374
-8.81021
-8.40406
-7.86086
-0.406819
-0.361233
-0.57088
-0.682026
-0.862854
-0.938431
-1.01741
-1.14734
-1.49193
-2.19986
-3.39237
-5.03465
-6.95252
-8.8415
-10.3995
-11.4381
-11.9378
-12.0301
-11.8598
-11.5929
-11.2293
-10.9638
-10.5324
-0.44004
-0.366244
-0.60557
-0.724513
-0.918035
-0.988468
-1.06922
-1.20783
-1.58493
-2.37317
-3.70733
-5.55591
-7.72618
-9.88669
-11.7061
-12.982
-13.6942
-13.9853
-14.0029
-13.925
-13.7317
-13.633
-13.3423
-0.463832
-0.368026
-0.635695
-0.764264
-0.964755
-1.03122
-1.11241
-1.25686
-1.66095
-2.52197
-3.98712
-6.03078
-8.44343
-10.8714
-12.9567
-14.4841
-15.4298
-15.944
-16.1732
-16.3075
-16.3087
-16.4031
-16.2745
-0.480053
-0.36963
-0.663665
-0.802538
-1.00502
-1.0698
-1.14989
-1.29684
-1.7229
-2.64859
-4.23427
-6.46178
-9.10761
-11.8007
-14.158
-15.9516
-17.1501
-17.9068
-18.3646
-18.726
-18.936
-19.2419
-19.293
-0.489856
-0.372534
-0.691048
-0.83937
-1.04098
-1.10674
-1.18449
-1.33094
-1.77526
-2.75796
-4.4548
-6.8554
-9.72667
-12.6841
-15.3211
-17.3961
-18.8649
-19.8792
-20.5771
-21.1728
-21.5989
-22.1224
-22.3664
-0.493358
-0.376764
-0.718213
-0.873263
-1.07368
-1.14221
-1.21644
-1.35961
-1.81923
-2.85176
-4.65168
-7.21613
-10.3074
-13.5318
-16.4603
-18.8352
-20.5942
-21.881
-22.8292
-23.6601
-24.3082
-25.0392
-25.4895
-0.490823
-0.382106
-0.744569
-0.902532
-1.10356
-1.17507
-1.24465
-1.382
-1.85421
-2.93017
-4.82655
-7.54792
-10.8577
-14.3562
-17.5939
-20.2933
-22.3668
-23.9427
-25.1517
-26.2153
-27.0896
-28.0102
-28.6748
-0.483303
-0.38863
-0.768973
-0.926405
-1.13096
-1.20439
-1.26834
-1.39789
-1.88003
-2.99403
-4.9815
-7.8556
-11.386
-15.1708
-18.7401
-21.7929
-24.2079
-26.0902
-27.568
-28.8586
-29.9539
-31.0441
-31.911
-0.472214
-0.396405
-0.790111
-0.945155
-1.15615
-1.22981
-1.28741
-1.40789
-1.89723
-3.04511
-5.11947
-8.14463
-11.9008
-15.9876
-19.9146
-23.3529
-26.1388
-28.3444
-30.0943
-31.5995
-32.8949
-34.126
-35.157
-0.459071
-0.405268
-0.807076
-0.959854
-1.17941
-1.25172
-1.30261
-1.4134
-1.90714
-3.08549
-5.24294
-8.41875
-12.4068
-16.8128
-21.1252
-24.9831
-28.1716
-30.7185
-32.7396
-34.4402
-35.8981
-37.2304
-38.3627
-0.445381
-0.414785
-0.819549
-0.971921
-1.20095
-1.27094
-1.31502
-1.41589
-1.91109
-3.11681
-5.35337
-8.6795
-12.9052
-17.6475
-22.3731
-26.6871
-30.3141
-33.224
-35.515
-37.3859
-38.9577
-40.338
-41.4909
-0.432389
-0.424262
-0.827914
-0.982653
-1.22099
-1.28861
-1.32616
-1.41719
-1.9109
-3.14043
-5.45086
-8.92511
-13.3914
-18.4845
-23.6498
-28.4582
-32.566
-35.8699
-38.4365
-40.4543
-42.0858
-43.4504
-44.5349
-0.420908
-0.433052
-0.832697
-0.992746
-1.23912
-1.30441
-1.33474
-1.41469
-1.90261
-3.15107
-5.52891
-9.14792
-13.856
-19.3136
-24.9453
-30.2901
-34.9312
-38.6746
-41.538
-43.6914
-45.3354
-46.6186
-47.5521
-0.411068
-0.440113
-0.835196
-1.00303
-1.25652
-1.32142
-1.34572
-1.41487
-1.89365
-3.1548
-5.59013
-9.34464
-14.2882
-20.1173
-26.2386
-32.1666
-37.4104
-41.6669
-44.8798
-47.1869
-48.8261
-49.9829
-50.6967
-0.402422
-0.44413
-0.832893
-1.00785
-1.26226
-1.32163
-1.33175
-1.38109
-1.84002
-3.10242
-5.58129
-9.45817
-14.6263
-20.8292
-27.4618
-34.0272
-39.9706
-44.8659
-48.5509
-51.1124
-52.8119
-53.8524
-54.3128
-0.404423
-0.45029
-0.83312
-1.01169
-1.26171
-1.3107
-1.30052
-1.32339
-1.75462
-3.00819
-5.51727
-9.50185
-14.8799
-21.4511
-28.607
-35.855
-42.5979
-48.2852
-52.6214
-55.6175
-57.5212
-58.5214
-58.7379
-0.404493
-0.453136
-0.831872
-1.0134
-1.25722
-1.29465
-1.26335
-1.26027
-1.66679
-2.9156
-5.45785
-9.54941
-15.1301
-22.0614
-29.7391
-37.6933
-45.3118
-51.9345
-57.1183
-60.7776
-63.0971
-64.2236
-64.3097
-0.402421
-0.452733
-0.829187
-1.01232
-1.2486
-1.2741
-1.22256
-1.19594
-1.58221
-2.83012
-5.4061
-9.59922
-15.3679
-22.6428
-30.831
-39.5068
-48.0763
-55.8025
-62.0968
-66.7476
-69.8439
-71.4583
-71.7894
-0.401227
-0.451522
-0.826713
-1.0095
-1.23723
-1.25047
-1.17973
-1.13175
-1.50104
-2.74988
-5.35719
-9.64295
-15.5807
-23.1781
-31.8576
-41.26
-50.8483
-59.8573
-67.5766
-73.6603
-78.0796
-80.7899
-82.0137
-0.40171
-0.450715
-0.825101
-1.00559
-1.2245
-1.22576
-1.13764
-1.07101
-1.42633
-2.67694
-5.31125
-9.67803
-15.7614
-23.6543
-32.7954
-42.9125
-53.5695
-64.0288
-73.5069
-81.5562
-87.9981
-92.5839
-95.4644
-0.402729
-0.450185
-0.823686
-1.00032
-1.21078
-1.20084
-1.09771
-1.01533
-1.3593
-2.61139
-5.26675
-9.70057
-15.9025
-24.0578
-33.6186
-44.415
-56.1601
-68.1947
-79.7303
-90.2756
-99.4187
-106.595
-111.675
-0.402959
-0.449473
-0.821489
-0.993179
-1.19582
-1.17556
-1.0596
-0.963551
-1.29743
-2.54868
-5.21717
-9.70205
-15.9928
-24.3726
-34.2985
-45.7112
-58.5179
-72.1783
-85.9666
-99.3639
-111.63
-121.728
-129.019
-0.401622
-0.448243
-0.817831
-0.984015
-1.17958
-1.14971
-1.02251
-0.913667
-1.23699
-2.48305
-5.15514
-9.67408
-16.0229
-24.5857
-34.8099
-46.7448
-60.5276
-75.7609
-91.8158
-108.113
-123.523
-136.346
-145.371
-0.398441
-0.446387
-0.812582
-0.973246
-1.16253
-1.12366
-0.986208
-0.864414
-1.17533
-2.4105
-5.07587
-9.61197
-15.9878
-24.6896
-35.1347
-47.4658
-62.0725
-78.6994
-96.8065
-115.712
-133.859
-148.794
-158.931
-0.393564
-0.44398
-0.806059
-0.961745
-1.14556
-1.09825
-0.951091
-0.815627
-1.11152
-2.32976
-4.97801
-9.51508
-15.8867
-24.6807
-35.2593
-47.83
-63.0425
-80.7563
-100.494
-121.451
-141.619
-157.93
-168.728
-0.387508
-0.441286
-0.798907
-0.95048
-1.12958
-1.07434
-0.917608
-0.767482
-1.04532
-2.24073
-4.86171
-9.38441
-15.7201
-24.5576
-35.1744
-47.8005
-63.3453
-81.7412
-102.548
-124.799
-146.057
-163.043
-174.435
-0.381008
-0.438625
-0.791792
-0.940231
-1.11514
-1.05232
-0.885764
-0.719838
-0.976375
-2.14342
-4.72718
-9.22066
-15.4877
-24.317
-34.8718
-47.3462
-62.9108
-81.5364
-102.765
-125.44
-146.87
-164.012
-175.853
-0.374766
-0.436263
-0.785217
-0.931317
-1.10225
-1.03195
-0.854895
-0.671893
-0.903755
-2.03713
-4.57379
-9.02357
-15.1887
-23.9565
-34.3487
-46.4485
-61.702
-80.1068
-101.118
-123.407
-144.356
-161.388
-173.447
-0.369245
-0.434284
-0.77935
-0.923615
-1.09042
-1.01244
-0.823893
-0.622435
-0.826206
-1.9208
-4.40051
-8.79225
-14.8216
-23.4739
-33.6078
-45.1014
-59.7205
-77.4951
-97.7253
-119.03
-139.112
-155.661
-167.53
-0.364596
-0.43262
-0.774093
-0.916638
-1.07886
-0.99277
-0.791565
-0.570244
-0.742632
-1.79342
-4.20642
-8.52621
-14.3869
-22.8704
-32.6619
-43.316
-57.0112
-73.822
-92.8968
-112.909
-131.856
-147.355
-158.387
-0.360702
-0.431075
-0.769147
-0.909805
-1.06681
-0.972061
-0.757057
-0.514558
-0.652549
-1.65469
-3.99141
-8.22579
-13.8864
-22.1497
-31.5318
-41.1158
-53.6442
-69.2827
-87.0713
-105.653
-123.134
-137.07
-146.661
-0.357304
-0.429458
-0.764205
-0.902586
-1.05373
-0.949783
-0.720041
-0.455253
-0.556268
-1.5051
-3.75627
-7.89255
-13.3245
-21.3192
-30.2502
-38.5477
-49.7046
-64.1316
-80.6669
-97.7538
-113.389
-125.394
-133.436
-0.354107
-0.427607
-0.759001
-0.894674
-1.03939
-0.92584
-0.680748
-0.392825
-0.454738
-1.34584
-3.50246
-7.5286
-12.7068
-20.3869
-28.8501
-35.6704
-45.2791
-58.6061
-73.9915
-89.4105
-102.89
-112.823
-119.294
-0.35087
-0.425462
-0.753414
-0.885954
-1.02388
-0.900492
-0.639771
-0.328128
-0.349247
-1.17837
-3.23173
-7.13636
-12.0408
-19.364
-27.3647
-32.5498
-40.4762
-52.835
-67.125
-80.6605
-91.8697
-99.8371
-104.945
-0.347437
-0.42302
-0.747409
-0.876523
-1.00749
-0.874191
-0.597853
-0.262082
-0.240985
-1.00401
-2.94549
-6.71762
-11.3342
-18.2589
-25.8364
-29.2608
-35.3845
-46.8843
-60.3691
-72.2127
-81.3805
-87.9993
-92.0595
-0.343747
-0.420354
-0.74106
-0.866551
-0.990573
-0.84741
-0.555631
-0.195405
-0.130819
-0.823634
-2.64473
-6.27372
-10.5953
-17.0772
-24.3266
-25.886
-30.1209
-41.3339
-54.6749
-65.2906
-72.7889
-78.0539
-81.2877
-0.3398
-0.417534
-0.734448
-0.856265
-0.973454
-0.82053
-0.513546
-0.128515
-0.0191343
-0.637638
-2.32987
-5.80516
-9.83169
-15.8262
-22.8957
-22.482
-24.969
-36.8427
-49.9197
-59.4915
-65.7796
-69.5859
-71.7531
-0.335657
-0.414653
-0.727679
-0.845815
-0.956328
-0.793693
-0.471629
-0.0612732
0.0944086
-0.445441
-2.00025
-5.31057
-9.05145
-14.5179
-21.5551
-19.1334
-20.7468
-33.5882
-45.9671
-54.3934
-59.4935
-62.1124
-63.2758
-0.331273
-0.411691
-0.720752
-0.835291
-0.939256
-0.766875
-0.429698
0.00671231
0.210505
-0.246151
-1.65484
-4.7876
-8.26458
-13.155
-20.2868
-16.2883
-18.3684
-31.4713
-43.3618
-50.5227
-54.3926
-56.0334
-56.3161
-0.326499
-0.408662
-0.713621
-0.824625
-0.922044
-0.739602
-0.386772
0.0769641
0.331024
-0.0381242
-1.29377
-4.23591
-7.48179
-11.7105
-19.015
-14.5701
-18.2491
-30.9332
-42.2963
-48.2707
-50.9993
-51.8928
-51.1902
-0.323601
-0.406623
-0.707229
-0.814329
-0.904423
-0.710428
-0.339647
0.154863
0.463596
0.187924
-0.908591
-3.6434
-6.68445
-10.1107
-17.58
-13.9769
-19.6291
-31.4562
-41.8022
-46.9062
-48.5974
-48.3971
-46.6052
-0.319916
-0.404051
-0.70019
-0.803347
-0.885283
-0.677906
-0.286033
0.24373
0.612169
0.435331
-0.500164
-3.01428
-5.86449
-8.38139
-15.9301
-13.9409
-21.1903
-31.8029
-40.9263
-45.1127
-45.5203
-43.8286
-40.7808
-0.315532
-0.400979
-0.69249
-0.791557
-0.864166
-0.641146
-0.224498
0.345353
0.778187
0.70357
-0.0736271
-2.36261
-5.03444
-6.60933
-14.1103
-13.857
-22.3193
-31.8189
-39.471
-42.2975
-41.0408
-37.6937
-33.4121
-0.311232
-0.397802
-0.684528
-0.77913
-0.841062
-0.600061
-0.155128
0.458769
0.958558
0.985104
0.355894
-1.7189
-4.23543
-4.91968
-12.2393
-13.5621
-22.9087
-31.4552
-37.3373
-38.4723
-35.4994
-30.6674
-25.4063
-0.307347
-0.39463
-0.676465
-0.766113
-0.815943
-0.5547
-0.0783454
0.582551
1.1499
1.2726
0.774693
-1.11106
-3.50306
-3.41483
-10.4689
-13.1981
-23.1003
-30.6947
-34.6175
-34.0414
-29.5846
-23.7033
-17.8036
-0.303913
-0.391413
-0.668359
-0.752531
-0.789099
-0.505969
0.00372663
0.71242
1.34465
1.55336
1.16281
-0.573933
-2.88352
-2.19406
-8.93391
-13.0119
-23.2705
-29.8462
-31.863
-29.8012
-24.2696
-17.8479
-11.6679
-0.300787
-0.388
-0.66
-0.738056
-0.760141
-0.45349
0.0913258
0.848302
1.54227
1.82585
1.51703
-0.116255
-2.38783
-1.30215
-7.77655
-13.1904
-23.498
-28.9531
-29.2555
-25.8968
-19.6732
-13.0569
-6.93427
-0.298101
-0.384552
-0.651707
-0.723168
-0.729953
-0.398695
0.182289
0.987339
1.73981
2.08866
1.84098
0.268401
-2.02089
-0.672159
-6.7729
-13.4023
-23.5699
-27.9164
-26.7193
-22.133
-15.4709
-8.80376
-2.97712
-0.294736
-0.380118
-0.641886
-0.705903
-0.696167
-0.339223
0.278587
1.13073
1.93767
2.34181
2.13643
0.581995
-1.81225
-0.441949
-6.34426
-13.8966
-24.1011
-27.4237
-24.8994
-19.3607
-12.669
-6.187
-0.889489
-0.291706
-0.375691
-0.632118
-0.688299
-0.661911
-0.279705
0.373359
1.26859
2.122
2.56665
2.37868
0.793169
-1.79956
-0.615946
-6.38222
-14.5436
-25.0426
-27.6292
-24.0762
-18.0468
-11.724
-5.69265
-1.01148
-0.288993
-0.371306
-0.622501
-0.67065
-0.62786
-0.221291
0.46496
1.39906
2.2915
2.76368
2.57169
0.914283
-1.94933
-1.10463
-6.74504
-15.2705
-26.0954
-28.1762
-23.8729
-17.6167
-11.7685
-6.2595
-2.11345
-0.286195
-0.366708
-0.612614
-0.652585
-0.593727
-0.163752
0.553723
1.52315
2.44894
2.93942
2.72873
0.971846
-2.20962
-1.82145
-7.3373
-16.0844
-27.1465
-28.8918
-24.0747
-17.7397
-12.3227
-7.25484
-3.53002
-0.283116
-0.361839
-0.602323
-0.63412
-0.559624
-0.107213
0.639754
1.64179
2.59718
3.10072
2.86417
0.995433
-2.52572
-2.67745
-8.04856
-16.9812
-28.1255
-29.6902
-24.5286
-18.2411
-13.123
-8.37925
-5.0484
-0.279792
-0.356854
-0.591809
-0.615576
-0.525969
-0.0520946
0.72288
1.75555
2.73841
3.25309
2.99004
1.01159
-2.84976
-3.58192
-8.75524
-17.933
-28.9728
-30.5036
-25.0987
-18.9268
-13.9907
-9.34079
-6.28503
-0.276289
-0.351904
-0.581281
-0.597315
-0.493162
0.00128644
0.803107
1.86519
2.87474
3.40126
3.11598
1.04123
-3.14418
-4.45913
-9.35505
-18.8945
-29.651
-31.2894
-25.7079
-19.608
-14.861
-10.4917
-7.13996
-0.272685
-0.347108
-0.570915
-0.579551
-0.461358
0.0529441
0.88081
1.97174
3.00827
3.54905
3.24856
1.09719
-3.38464
-5.26549
-9.79456
-19.8468
-30.1608
-31.9895
-26.3684
-20.1795
-15.6323
-11.8564
-8.2716
-0.269044
-0.342514
-0.560817
-0.5624
-0.430578
0.103075
0.956537
2.07628
3.14076
3.69919
3.39169
1.18536
-3.55741
-5.98708
-10.0693
-20.7998
-30.5918
-32.533
-27.0706
-20.6685
-16.1866
-12.8592
-9.53065
-0.265456
-0.33816
-0.551062
-0.545857
-0.400687
0.15202
1.03087
2.17967
3.27328
3.85281
3.54637
1.30562
-3.65883
-6.63146
-10.2002
-21.7693
-31.1366
-33.0011
-27.7494
-21.226
-16.5777
-13.3935
-10.5642
-0.261966
-0.334015
-0.541634
-0.529832
-0.371484
0.200146
1.10432
2.28252
3.40633
4.01009
3.71207
1.45504
-3.69158
-7.21588
-10.2499
-22.8194
-31.9037
-33.6114
-28.4017
-21.8579
-17.0363
-13.9097
-11.589
-0.258602
-0.330029
-0.532459
-0.514131
-0.342665
0.247864
1.17733
2.38516
3.53988
4.17027
3.88693
1.62871
-3.66425
-7.76166
-10.2852
-23.9326
-32.8119
-34.3978
-29.0376
-22.3967
-17.497
-14.5841
-12.8086
-0.255331
-0.326107
-0.523404
-0.498552
-0.313976
0.295464
1.25016
2.48763
3.67359
4.3323
4.06865
1.82152
-3.58802
-8.28894
-10.3279
-24.9814
-33.6978
-35.2287
-29.6885
-22.8859
-17.863
-15.3226
-14.1441
-0.252132
-0.322181
-0.514355
-0.482907
-0.285199
0.343124
1.32282
2.58967
3.80672
4.4946
4.2542
2.02767
-3.47645
-8.81882
-10.3836
-25.8745
-34.4211
-36.0019
-30.3065
-23.4979
-18.3895
-16.1588
-15.4567
-0.248952
-0.318189
-0.50522
-0.467107
-0.256289
0.390794
1.39513
2.69077
3.93835
4.65553
4.44067
2.24103
-3.3425
-9.37175
-10.4648
-26.5784
-34.8894
-36.6171
-30.8304
-24.1729
-19.1736
-17.233
-16.8206
-0.245781
-0.314123
-0.495974
-0.451129
-0.227269
0.43832
1.46672
2.79026
4.06745
4.81339
4.62507
2.45652
-3.19641
-9.96042
-10.5923
-27.092
-35.0742
-36.9794
-31.1782
-24.7472
-20.1475
-18.5589
-18.3162
-0.24259
-0.30998
-0.486621
-0.435035
-0.198292
0.485419
1.53716
2.88751
4.19314
4.96694
4.80544
2.67189
-3.04281
-10.5796
-10.7941
-27.4833
-35.0407
-37.1411
-31.4484
-25.2007
-21.1942
-20.0315
-19.8663
-0.239392
-0.305794
-0.477212
-0.418902
-0.169489
0.531856
1.6061
2.98203
4.3148
5.11535
4.98056
2.88557
-2.88098
-11.2085
-11.0972
-27.8594
-34.9482
-37.2024
-31.8909
-25.8958
-22.4272
-21.5812
-21.3805
-0.236175
-0.301586
-0.467788
-0.402833
-0.141029
0.577396
1.67327
3.07352
4.43215
5.25855
5.15059
3.09732
-2.70423
-11.8173
-11.4741
-28.2444
-34.9605
-37.1989
-32.4686
-26.9963
-24.0333
-23.297
-22.91
-0.232962
-0.297394
-0.458405
-0.386896
-0.112992
0.621936
1.73856
3.16191
4.54523
5.3968
5.31642
3.30846
-2.50293
-12.3683
-11.868
-28.5226
-35.1085
-37.164
-33.0668
-28.3375
-25.8743
-25.0863
-24.4629
-0.229745
-0.293227
-0.449091
-0.371149
-0.0854577
0.665402
1.80193
3.24726
4.65423
5.5308
5.47996
3.5236
-2.26385
-12.8137
-12.2297
-28.6026
-35.2847
-37.1107
-33.6461
-29.6919
-27.6456
-26.772
-25.9424
-0.226548
-0.289109
-0.439872
-0.355606
-0.0584128
0.707831
1.86344
3.32971
4.75942
5.66114
5.64296
3.7488
-1.97107
-13.0998
-12.5132
-28.4666
-35.4041
-37.1367
-34.282
-31.0447
-29.3063
-28.3912
-27.4471
-0.223355
-0.28503
-0.430746
-0.340274
-0.0318678
0.749239
1.92316
3.40938
4.861
5.78837
5.807
3.98953
-1.60883
-13.1709
-12.6857
-28.0989
-35.3727
-37.3312
-35.1594
-32.5747
-31.07
-30.1301
-29.0636
-0.220192
-0.281001
-0.421716
-0.325128
-0.00576374
0.789703
1.98114
3.4863
4.959
5.9126
5.97266
4.24813
-1.16605
-12.9734
-12.7335
-27.4783
-35.091
-37.5646
-36.2121
-34.1835
-32.8057
-31.7833
-30.5849
-0.217036
-0.277002
-0.412763
-0.310157
0.0199017
0.829228
2.03737
3.56042
5.05329
6.03377
6.14009
4.52503
-0.635991
-12.4584
-12.6495
-26.6111
-34.5286
-37.6906
-37.1552
-35.5942
-34.3027
-33.1984
-31.9317
-0.213911
-0.273038
-0.403883
-0.295329
0.0451782
0.867844
2.0918
3.63158
5.14354
6.1513
6.3087
4.81878
-0.0171286
-11.57
-12.4455
-25.5732
-33.7456
-37.5818
-37.7877
-36.6799
-35.5453
-34.456
-33.1693
-0.210795
-0.26909
-0.395058
-0.280639
0.0700423
0.905497
2.14431
3.69955
5.22934
6.26462
6.47787
5.12745
0.684059
-10.2763
-12.1843
-24.4739
-32.8887
-37.2668
-38.1456
-37.4679
-36.505
-35.453
-34.156
-0.20771
-0.265165
-0.386286
-0.266069
0.0945121
0.942156
2.19476
3.76401
5.31018
6.37284
6.64659
5.4486
1.44953
-8.64389
-11.9341
-23.4247
-31.9983
-36.7957
-38.1959
-37.8536
-37.0122
-35.9743
-34.6926
-0.204631
-0.261247
-0.377556
-0.251631
0.118532
0.977712
2.24297
3.82464
5.38554
6.47523
6.81398
5.77911
2.25335
-6.82572
-11.7078
-22.4896
-30.9612
-36.0533
-37.8129
-37.7307
-36.9965
-36.0142
-34.8096
-0.201586
-0.257347
-0.368876
-0.237321
0.142094
1.0121
2.28875
3.88113
5.45493
6.57094
6.97893
6.11406
3.06429
-5.00185
-11.459
-21.5978
-29.7395
-34.9919
-36.9997
-37.1291
-36.5247
-35.6577
-34.5547
-0.198547
-0.253453
-0.360241
-0.223165
0.165123
1.04519
2.33191
3.93319
5.51792
6.65937
7.1408
6.44739
3.8489
-3.28103
-11.1294
-20.61
-28.4297
-33.6873
-35.8083
-36.0829
-35.6029
-34.8631
-33.8553
-0.195544
-0.24958
-0.351664
-0.20917
0.187601
1.0769
2.37228
3.98054
5.57411
6.73986
7.2989
6.77316
4.57752
-1.68138
-10.7133
-19.4879
-27.0423
-32.172
-34.2394
-34.584
-34.2209
-33.5988
-32.6874
-0.192548
-0.245717
-0.343145
-0.195366
0.209449
1.10712
2.40971
4.02295
5.6232
6.81193
7.45286
7.08725
5.22861
-0.173043
-10.2533
-18.3111
-25.5213
-30.3753
-32.2996
-32.6748
-32.4218
-31.9102
-31.0928
-0.189592
-0.241879
-0.3347
-0.181764
0.230647
1.13577
2.44405
4.06022
5.66485
6.8749
7.60199
7.38686
5.78479
1.25195
-9.71266
-17.0912
-23.8459
-28.268
-30.0251
-30.4307
-30.2944
-29.8947
-29.1695
-0.186646
-0.238057
-0.32633
-0.168393
0.251125
1.16276
2.47518
4.09217
5.6988
6.92827
7.74572
7.67016
6.23427
2.52353
-9.02002
-15.8073
-22.0168
-25.9123
-27.5058
-27.9726
-27.9711
-27.6758
-27.049
-0.183743
-0.234265
-0.31805
-0.155267
0.270858
1.188
2.50292
4.11853
5.72458
6.97103
7.88278
7.93472
6.57696
3.56268
-8.15441
-14.43
-20.0313
-23.4291
-24.8962
-25.4549
-25.5922
-25.4033
-24.8851
-0.180861
-0.230495
-0.30986
-0.142397
0.289828
1.2115
2.52734
4.13941
5.74225
7.00293
8.01354
8.18083
6.81134
4.31653
-7.1088
-12.9453
-17.947
-20.9466
-22.3507
-23.027
-23.2945
-23.2158
-22.8166
-0.178023
-0.226764
-0.301787
-0.129842
0.307901
1.23296
2.54786
4.15383
5.75025
7.02109
8.1326
8.40411
6.95718
4.81986
-5.83792
-11.345
-15.8541
-18.5717
-19.9997
-20.8094
-21.2066
-21.2369
-20.9594
-0.175359
-0.223131
-0.293796
-0.117289
0.325924
1.25407
2.56729
4.16588
5.75379
7.03217
8.25289
8.61089
6.92905
4.97658
-4.4979
-9.77142
-13.8993
-16.4293
-17.9249
-18.8562
-19.3643
-19.4955
-19.3395
-0.17314
-0.219876
-0.286062
-0.104854
0.344131
1.27474
2.58431
4.17135
5.74469
7.01825
8.30134
8.74747
7.13523
5.36824
-2.80169
-8.00828
-11.9934
-14.5551
-16.2117
-17.3139
-17.9713
-18.2402
-18.2172
-0.167677
-0.213561
-0.274046
-0.0879372
0.366692
1.29742
2.59944
4.16957
5.72479
6.98879
8.27666
8.68283
6.96653
5.15982
-1.62889
-6.46346
-10.2294
-12.7917
-14.5603
-15.7969
-16.5789
-16.9764
-17.089
-0.163609
-0.208026
-0.262812
-0.0720552
0.386322
1.31195
2.5977
4.13863
5.66416
6.90501
8.14048
8.43378
6.63826
4.80344
-0.640051
-4.98846
-8.53084
-11.0782
-12.932
-14.2659
-15.1471
-15.6598
-15.8989
-0.161284
-0.203713
-0.253415
-0.0587839
0.400393
1.31431
2.57272
4.06821
5.54433
6.73905
7.87372
8.032
6.26835
4.50309
0.251379
-3.62689
-6.97052
-9.48936
-11.3907
-12.7757
-13.7197
-14.3161
-14.6577
-0.159184
-0.199331
-0.244488
-0.0470787
0.409269
1.30384
2.52234
3.95401
5.35475
6.4703
7.46009
7.4835
5.82867
4.18543
0.881622
-2.55446
-5.66713
-8.09787
-9.97043
-11.3492
-12.3099
-12.9526
-13.3673
-0.156566
-0.194138
-0.235123
-0.0361862
0.413348
1.28039
2.44551
3.79413
5.0911
6.08923
6.89368
6.78438
5.2492
3.71926
1.10474
-1.89144
-4.69807
-6.95577
-8.71759
-10.0291
-10.9648
-11.6208
-12.0717
-0.153795
-0.188311
-0.225511
-0.0264988
0.411837
1.24255
2.34005
3.58595
4.75215
5.59753
6.18674
5.94402
4.49975
3.05856
0.943265
-1.62788
-4.07264
-6.08345
-7.67164
-8.86762
-9.7421
-10.3773
-10.8347
-0.151262
-0.18221
-0.216175
-0.018952
0.403256
1.18817
2.20323
3.3269
4.33869
5.00426
5.365
4.98838
3.60353
2.24631
0.507929
-1.66577
-3.73762
-5.46292
-6.84192
-7.89365
-8.67878
-9.26655
-9.7053
-0.149201
-0.17608
-0.207543
-0.0143958
0.386232
1.11536
2.0333
3.01646
3.85452
4.32346
4.45883
3.95677
2.61941
1.35952
-0.0854521
-1.8939
-3.60871
-5.04664
-6.20731
-7.10195
-7.78082
-8.30115
-8.70186
-0.147584
-0.170024
-0.19994
-0.0136055
0.359555
1.02274
1.82992
2.65712
3.3085
3.57673
3.50374
2.89798
1.6145
0.465988
-0.738867
-2.22083
-3.60963
-4.77677
-5.72241
-6.45935
-7.02977
-7.47465
-7.82373
-0.146462
-0.164169
-0.193726
-0.0173326
0.322134
0.909472
1.59429
2.25484
2.716
2.79553
2.5451
1.86519
0.653182
-0.374821
-1.37074
-2.56299
-3.66757
-4.59484
-5.34564
-5.9376
-6.40247
-6.77076
-7.06436
-0.145704
-0.158549
-0.189212
-0.0262889
0.27311
0.775616
1.32972
1.81993
2.09903
2.01754
1.6324
0.911802
-0.208912
-1.10943
-1.9225
-2.86565
-3.72845
-4.4497
-5.03446
-5.50154
-5.87329
-6.17034
-6.40962
-0.145223
-0.153188
-0.186652
-0.0409984
0.212203
0.622766
1.0427
1.36766
1.4842
1.27959
0.808221
0.0820787
-0.93096
-1.70396
-2.35642
-3.09008
-3.75378
-4.30728
-4.75996
-5.12518
-5.41813
-5.65328
-5.84355
-0.144778
-0.14802
-0.186193
-0.0617434
0.140012
0.45469
0.743468
0.917772
0.899609
0.612656
0.102484
-0.595067
-1.4897
-2.14104
-2.65786
-3.22072
-3.7264
-4.14774
-4.49329
-4.77502
-5.00366
-5.18836
-5.33805
-0.144327
-0.143131
-0.188018
-0.0884734
0.0582915
0.277585
0.445623
0.492392
0.371849
0.0403391
-0.467417
-1.10725
-1.87801
-2.42008
-2.82735
-3.25517
-3.63665
-3.95479
-4.21574
-4.43063
-4.60709
-4.75108
-4.86898
-0.143769
-0.138611
-0.19224
-0.120668
-0.0298029
0.0999546
0.164712
0.113104
-0.0765202
-0.421205
-0.895695
-1.45777
-2.10485
-2.55135
-2.87198
-3.1969
-3.48491
-3.72639
-3.92523
-4.08984
-4.22537
-4.3376
-4.43027
-0.14326
-0.134728
-0.198881
-0.157073
-0.119612
-0.0681317
-0.0839992
-0.202278
-0.42984
-0.764069
-1.18663
-1.66148
-2.19073
-2.55429
-2.80925
-3.05902
-3.27896
-3.46383
-3.61594
-3.74177
-3.84712
-3.93539
-4.00671
-0.142754
-0.131596
-0.207547
-0.195437
-0.205113
-0.216256
-0.2879
-0.442678
-0.681509
-0.989582
-1.35239
-1.74054
-2.16292
-2.45716
-2.65997
-2.85188
-3.02027
-3.16205
-3.27795
-3.37525
-3.45807
-3.5263
-3.57961
-0.142362
-0.129275
-0.217294
-0.23245
-0.279605
-0.335322
-0.439182
-0.605102
-0.83454
-1.10707
-1.40986
-1.71858
-2.04731
-2.28211
-2.44177
-2.58999
-2.72076
-2.82935
-2.91838
-2.99459
-3.05804
-3.10849
-3.14723
-0.141838
-0.127388
-0.226426
-0.264007
-0.336756
-0.41908
-0.535666
-0.694148
-0.899813
-1.13153
-1.37735
-1.6163
-1.86583
-2.04825
-2.17298
-2.2881
-2.38744
-2.46776
-2.53531
-2.59194
-2.63579
-2.66916
-2.69591
-0.140981
-0.125268
-0.232641
-0.28588
-0.371833
-0.465137
-0.580302
-0.720059
-0.89372
-1.08298
-1.27685
-1.45725
-1.64264
-1.78123
-1.87724
-1.96591
-2.03911
-2.0986
-2.14857
-2.18749
-2.21661
-2.24071
-2.26214
-0.139215
-0.121754
-0.233384
-0.294608
-0.382646
-0.474955
-0.57996
-0.696065
-0.835398
-0.984031
-1.13258
-1.26588
-1.40109
-1.50705
-1.58206
-1.64718
-1.69953
-1.7433
-1.77675
-1.80154
-1.82269
-1.84307
-1.86097
-0.135939
-0.115576
-0.22645
-0.288344
-0.369942
-0.45314
-0.543597
-0.635855
-0.742952
-0.855352
-0.96577
-1.06162
-1.15828
-1.24
-1.29857
-1.34528
-1.38331
-1.41232
-1.43283
-1.45011
-1.46767
-1.48517
-1.49931
-0.130426
-0.105547
-0.210708
-0.267424
-0.337139
-0.40657
-0.480805
-0.551652
-0.630997
-0.713066
-0.792123
-0.857878
-0.925873
-0.988952
-1.03164
-1.06492
-1.0915
-1.10933
-1.12349
-1.13816
-1.15386
-1.16836
-1.17947
-0.122092
-0.0912312
-0.186623
-0.234435
-0.289849
-0.343631
-0.40162
-0.454337
-0.511589
-0.569881
-0.623823
-0.665525
-0.712236
-0.760197
-0.791067
-0.816019
-0.832743
-0.84486
-0.857445
-0.87125
-0.884973
-0.897077
-0.906351
-0.110854
-0.0731589
-0.156419
-0.193902
-0.235261
-0.273788
-0.316632
-0.354588
-0.395068
-0.435011
-0.468645
-0.491663
-0.523069
-0.556459
-0.577874
-0.593808
-0.603832
-0.613119
-0.62362
-0.634771
-0.64524
-0.654452
-0.661442
-0.0969264
-0.0528985
-0.123524
-0.151315
-0.181001
-0.206871
-0.237037
-0.263558
-0.291786
-0.318244
-0.336482
-0.346649
-0.368135
-0.390783
-0.404842
-0.413308
-0.420577
-0.428878
-0.437735
-0.446433
-0.454714
-0.462158
-0.467855
-0.0813035
-0.0324149
-0.0914001
-0.111352
-0.132698
-0.149493
-0.170169
-0.188411
-0.208023
-0.224815
-0.232559
-0.236867
-0.252363
-0.267262
-0.274182
-0.27927
-0.285924
-0.292805
-0.299345
-0.305745
-0.312104
-0.317809
-0.322142
-0.0638302
-0.0121781
-0.0610822
-0.0752191
-0.09121
-0.102244
-0.116536
-0.129532
-0.14401
-0.154845
-0.156327
-0.157976
-0.16841
-0.175689
-0.176976
-0.180081
-0.184409
-0.188104
-0.19148
-0.195187
-0.199039
-0.202378
-0.204723
-0.0476407
0.00575237
-0.0330502
-0.041559
-0.0533612
-0.0598885
-0.0685307
-0.0762409
-0.0841623
-0.0882515
-0.094693
-0.116161
-0.140309
-0.148191
-0.14853
-0.150662
-0.152954
-0.154597
-0.156519
-0.159011
-0.161679
-0.164005
-0.165659
-0.0211345
0.0278791
0.00276938
-0.000118814
-0.0068242
-0.00958708
-0.0139918
-0.0183463
-0.0238066
-0.0222778
-0.00597275
0.0160551
0.02653
0.0236987
0.0154695
0.0112915
0.0107006
0.0105054
0.00988349
0.00903812
0.00820104
0.00773905
0.00790711
0.567141
0.508885
0.645195
0.898463
1.23888
1.70251
2.34909
3.21902
4.37919
5.90794
7.86427
10.2901
13.1605
16.4087
19.9083
23.5146
27.0709
30.4333
33.4832
36.138
38.3639
40.1569
41.5756
0.570314
0.556273
0.68156
0.94042
1.29248
1.76724
2.41914
3.29141
4.44303
5.94123
7.83859
10.1681
12.91
16.0016
19.3281
22.75
26.1152
29.281
32.1309
34.586
36.6159
38.2256
39.4719
0.571072
0.595032
0.714128
0.969674
1.32667
1.80534
2.45398
3.31628
4.44399
5.89377
7.71077
9.92043
12.5067
15.4132
18.5375
21.749
24.9034
27.8624
30.5124
32.7776
34.6289
36.0769
37.1744
0.567347
0.617671
0.735474
0.980193
1.33264
1.80557
2.44006
3.27819
4.36533
5.74853
7.4652
9.5344
11.9423
14.6389
17.5353
20.5127
23.4378
26.18
28.6307
30.7168
32.4095
33.7218
34.7022
0.554839
0.616182
0.734454
0.962834
1.29998
1.75552
2.36297
3.1611
4.18955
5.48698
7.08344
8.99282
11.2025
13.6695
16.3179
19.0434
21.7258
24.2451
26.4991
28.4176
29.9708
31.1714
32.0643
0.525225
0.582161
0.696685
0.903778
1.21421
1.63836
2.20308
2.94271
3.89171
5.08164
6.53634
8.26613
10.2605
12.4846
14.874
17.3386
19.7731
22.0696
24.1335
25.8971
27.3285
28.4352
29.2529
0.46709
0.51119
0.613885
0.795468
1.07043
1.45023
1.95694
2.62007
3.46876
4.52807
5.81609
7.34045
9.09378
11.0502
13.1568
15.3405
17.5136
19.5832
21.4637
23.0902
24.4267
25.4721
26.2472
0.370749
0.403026
0.484896
0.637217
0.871848
1.19869
1.6367
2.21066
2.94333
3.85198
4.94781
6.23537
7.71078
9.35853
11.1435
13.0149
14.9061
16.7408
18.4432
19.9495
21.2177
22.2349
23.0092
0.503407
0.0354609
0.290384
0.30631
0.597606
0.861857
1.3596
1.99314
2.94476
4.39685
6.35704
9.03059
12.2236
15.8925
19.777
23.7261
27.5437
31.0874
34.2436
36.9535
39.1981
41.0171
42.4438
0.505936
0.0546165
0.310845
0.336132
0.638397
0.919183
1.43586
2.09618
3.08066
4.56451
6.56092
9.2585
12.4822
16.1853
20.1308
24.1723
28.1263
31.8487
35.2209
38.1695
40.6612
42.7184
44.36
0.508686
0.0760037
0.33442
0.368784
0.680823
0.979528
1.51463
2.20143
3.21722
4.72953
6.75902
9.47492
12.7219
16.4472
20.4354
24.5441
28.6019
32.4655
36.0143
39.1639
41.8697
44.137
45.9763
0.511533
0.0986992
0.360699
0.404224
0.723686
1.04095
1.59343
2.30635
3.35225
4.89121
6.95227
9.68423
12.9502
16.6896
20.7053
24.8581
28.9878
32.9538
36.6355
39.9411
42.8189
45.2582
47.266
0.514677
0.12184
0.388789
0.442702
0.767987
1.10422
1.67351
2.41212
3.48669
5.05017
7.13993
9.88551
13.1661
16.9131
20.9438
25.1211
29.2942
33.3259
37.0973
40.5121
43.5144
46.081
48.219
0.51824
0.14479
0.416611
0.482195
0.810955
1.16574
1.75022
2.51304
3.6136
5.19812
7.31183
10.0669
13.3566
17.1046
21.1394
25.3249
29.517
33.582
37.4031
40.882
43.9615
46.6084
48.8325
0.522384
0.16753
0.442462
0.520786
0.849826
1.22118
1.81803
2.60192
3.72429
5.32491
7.4562
10.2154
13.5083
17.2519
21.2823
25.4631
29.6547
33.7255
37.5613
41.0631
44.1741
46.8545
49.1192
0.527092
0.19087
0.466302
0.559023
0.885098