/*--------------------------------*- C++ -*----------------------------------*\
  =========                 |
  \\      /  F ield         | OpenFOAM: The Open Source CFD Toolbox
   \\    /   O peration     | Website:  https://openfoam.org
    \\  /    A nd           | Version:  7
     \\/     M anipulation  |
\*---------------------------------------------------------------------------*/
FoamFile
{
    version     2.0;
    format      ascii;
    class       surfaceScalarField;
    location    "100";
    object      phi;
}
// * * * * * * * * * * * * * * * * * * * * * * * * * * * * * * * * * * * * * //

dimensions      [0 3 -1 0 0 0 0];

internalField   nonuniform List<scalar> 
25449
(
65.4348
59.1105
-35.9084
48.5781
44.0626
-27.2057
36.2272
32.9791
-20.6281
27.1125
24.7627
-15.648
20.3475
18.6419
-11.8768
15.3042
14.0653
-9.02196
11.5317
10.6339
-6.86141
8.70246
8.05618
-5.22698
6.57642
6.11694
-3.9909
4.97629
4.65605
-3.05591
3.77059
3.55357
-2.34786
2.86152
2.71943
-1.81037
2.17611
2.08615
-1.40073
1.65971
1.60341
-1.087
1.27114
1.23391
-0.845346
0.979301
0.95007
-0.658226
0.760535
0.731428
-0.512662
0.596854
0.562705
-0.399024
0.474571
0.432389
-0.310107
0.383303
0.331738
-0.240471
0.31521
0.254044
-0.185951
0.264378
0.194218
-0.143387
0.148062
-0.110116
0.226432
49.7073
76.4125
37.0463
56.7237
27.7148
42.3106
20.7961
31.6814
15.6422
23.7958
11.7894
17.9181
8.90165
13.5217
6.73275
10.2251
5.10104
7.74864
3.87173
5.88536
2.94453
4.48076
2.24476
3.4192
1.71672
2.61419
1.31868
2.00144
1.01923
1.53336
0.794511
1.17479
0.626323
0.899615
0.500754
0.688274
0.407184
0.525958
0.337543
0.401379
0.285734
0.305851
0.247169
0.232783
0.176776
0.218455
36.8445
88.8637
27.6262
65.9422
20.7676
49.1693
15.6443
36.8047
11.8059
27.6341
8.92421
20.7997
6.7576
15.6883
5.12667
11.856
3.89755
8.97776
2.97014
6.81278
2.2696
5.1813
1.74011
3.94868
1.34006
3.01425
1.03829
2.30322
0.811277
1.76038
0.641082
1.34499
0.513923
1.02677
0.419198
0.783
0.348782
0.596373
0.296499
0.453662
0.25769
0.344661
0.228858
0.261615
0.198213
0.20742
26.938
97.522
20.3962
72.4842
15.4498
54.1157
11.709
40.5456
8.87983
30.4633
6.74116
22.9384
5.12509
17.3043
3.90417
13.0769
2.9815
9.90042
2.28364
7.51063
1.75525
5.70969
1.35494
4.34899
1.05185
3.31732
0.822914
2.53215
0.650631
1.93266
0.521565
1.47405
0.425288
1.12305
0.353711
0.854577
0.300611
0.649473
0.261254
0.493019
0.232077
0.373837
0.210426
0.283267
0.214307
0.194332
19.5711
103.294
15.0481
77.0074
11.5325
57.6313
8.81929
43.2589
6.73619
32.5464
5.1443
24.5303
3.93198
18.5167
3.01096
13.9979
2.31198
10.5994
1.78138
8.04122
1.37821
6.11287
1.07167
4.65553
0.838824
3.55017
0.662508
2.70847
0.529668
2.0655
0.430159
1.57356
0.356008
1.1972
0.300959
0.909627
0.260172
0.69026
0.229967
0.523224
0.207581
0.396224
0.190969
0.299878
0.226666
0.178611
14.218
106.903
11.1903
80.0352
8.72302
60.0987
6.756
45.2259
5.21046
34.0919
4.01009
25.7306
3.08542
19.4413
2.37728
14.7061
1.83664
11.14
1.42418
8.45367
1.10924
6.4278
0.868583
4.89618
0.684892
3.73385
0.545237
2.84812
0.439738
2.17099
0.360619
1.65268
0.301657
1.25616
0.257898
0.953385
0.225479
0.722678
0.20146
0.547243
0.183638
0.414046
0.170398
0.313118
0.236539
0.160525
10.3975
108.905
8.46367
81.9692
6.75274
61.8096
5.31784
46.6608
4.15158
35.2582
3.22504
26.6572
2.50007
20.1663
1.9389
15.2672
1.50713
11.5718
1.17565
8.78515
0.92101
6.68244
0.72522
5.09197
0.574837
3.88424
0.459859
2.9631
0.372625
2.25823
0.307016
1.71829
0.25804
1.30514
0.221647
0.989779
0.194646
0.749679
0.1746
0.567289
0.159687
0.428959
0.148576
0.324228
0.244852
0.140263
7.71027
109.718
6.57033
83.1093
5.39882
62.9812
4.33749
47.7221
3.43376
36.1619
2.69457
27.3964
2.10499
20.7559
1.64283
15.7294
1.28408
11.9305
1.00669
9.06253
0.79209
6.89702
0.625813
5.25823
0.497054
4.01298
0.397842
3.0623
0.322088
2.33398
0.264855
1.77551
0.222005
1.34799
0.190086
1.0217
0.166345
0.773419
0.148654
0.58498
0.135447
0.442166
0.125555
0.33412
0.252271
0.118136
5.27408
111.444
3.98828
84.3952
3.01786
63.9516
2.288
48.452
1.73795
36.712
1.32472
27.8096
1.01473
21.0659
0.782586
15.9615
0.608431
12.1047
0.477027
9.19394
0.376964
6.99709
0.300077
5.33512
0.240724
4.07234
0.195019
3.10801
0.160156
2.36884
0.133899
1.80177
0.114357
1.36753
0.09991
1.03614
0.0892468
0.784083
0.0813498
0.592877
0.0754693
0.448047
0.0710822
0.338507
0.255599
0.0677537
3.39736
112.557
2.57163
85.221
1.94762
64.5756
1.479
48.9206
1.12617
37.0648
0.861843
28.0739
0.664314
21.2634
0.517136
16.1087
0.407191
12.2146
0.324322
9.27679
0.260951
7.06044
0.211778
5.38428
0.173311
4.11078
0.143281
3.13802
0.120128
2.39199
0.10258
1.81931
0.0894914
1.38061
0.0798111
1.04582
0.0726579
0.791234
0.0673361
0.598198
0.0633368
0.452045
0.0603203
0.341523
0.257923
0.0579967
2.02406
113.221
1.53473
85.7104
1.16399
64.9464
0.886147
49.1984
0.677292
37.2736
0.521586
28.2296
0.406072
21.3789
0.320832
16.1939
0.257673
12.2778
0.210142
9.32433
0.17345
7.09714
0.144381
5.41336
0.12101
4.13416
0.102252
3.15678
0.0874645
2.40678
0.0760974
1.83068
0.0675614
1.38915
0.0612272
1.05216
0.0565263
0.795935
0.0529957
0.601728
0.0502962
0.454744
0.0482233
0.343595
0.259562
0.0465838
1.03358
113.559
0.786537
85.9576
0.598191
65.1348
0.457505
49.3391
0.352067
37.3791
0.27428
28.3074
0.217555
21.4356
0.176688
16.2348
0.147029
12.3074
0.124789
9.34656
0.10717
7.11474
0.0924359
5.42808
0.0797736
4.1468
0.0689387
3.1676
0.0599645
2.41574
0.0528383
1.8378
0.0473926
1.39459
0.0433123
1.05623
0.0402549
0.79899
0.0379204
0.604061
0.0360865
0.456578
0.034636
0.345046
0.260755
0.0334429
0.332109
113.666
0.256104
86.0336
0.196473
65.1944
0.152355
49.3832
0.119607
37.4118
0.0964926
28.3305
0.0809688
21.4511
0.071172
16.2446
0.064957
12.3136
0.0604138
9.35111
0.0561254
7.11904
0.0513782
5.43283
0.0461223
4.15206
0.0406965
3.17303
0.0356201
2.42082
0.031283
1.84214
0.0278382
1.39804
0.0252064
1.05886
0.0232057
0.80099
0.0216453
0.605621
0.02038
0.457842
0.0193385
0.346087
0.261651
0.0184423
-0.152849
113.613
-0.11121
85.992
-0.0823782
65.1656
-0.0603501
49.3612
-0.0434468
37.3949
-0.0293089
28.3164
-0.0168087
21.4386
-0.00548993
16.2333
0.00422527
12.3039
0.0117087
9.34362
0.0164611
7.11427
0.0184467
5.43083
0.0181159
4.15237
0.0161994
3.17494
0.0135642
2.42345
0.010906
1.84479
0.00862755
1.40031
0.00683316
1.06066
0.0054511
0.80237
0.00436763
0.606703
0.00346558
0.458744
0.00271141
0.34684
0.26236
0.00200169
-0.476617
113.453
-0.357103
85.8725
-0.269785
65.0782
-0.204251
49.2957
-0.154852
37.3455
-0.116434
28.278
-0.085735
21.4079
-0.060735
16.2083
-0.0407036
12.2839
-0.0254225
9.32835
-0.0148127
7.10367
-0.0085004
5.42453
-0.00573935
4.14962
-0.00555777
3.17476
-0.00684656
2.42474
-0.00867469
1.84662
-0.0104398
1.40207
-0.0118911
1.06211
-0.0130276
0.803506
-0.0139156
0.60759
-0.0146697
0.459497
-0.0152977
0.347468
0.262973
-0.0159109
-0.682696
113.225
-0.51429
85.7042
-0.390461
64.9544
-0.298014
49.2032
-0.228682
37.2762
-0.175471
28.2248
-0.133743
21.3662
-0.100471
16.175
-0.0741927
12.2576
-0.0541781
9.30832
-0.0400206
7.0895
-0.0311292
5.41563
-0.0266078
4.14508
-0.025354
3.1735
-0.0260951
2.42547
-0.0277162
1.84823
-0.0294462
1.4038
-0.0309108
1.06357
-0.032054
0.804647
-0.0329217
0.608456
-0.0336237
0.460198
-0.0341949
0.348038
0.263513
-0.0347354
-0.803543
112.957
-0.607172
85.5078
-0.462711
64.81
-0.35534
49.0958
-0.275147
37.196
-0.213997
28.1636
-0.166422
21.3186
-0.128784
16.1374
-0.0991941
12.228
-0.0766493
9.28579
-0.0605974
7.07346
-0.0503758
5.40542
-0.0450478
4.13976
-0.0434672
3.17192
-0.044256
2.42626
-0.0461491
1.85012
-0.0482211
1.40587
-0.0499831
1.06533
-0.0513286
0.805991
-0.0523017
0.609429
-0.0530138
0.46091
-0.0535729
0.348596
0.263995
-0.0540557
-0.861737
112.67
-0.652731
85.2988
-0.49928
64.6565
-0.385779
48.9823
-0.301368
37.1116
-0.237302
28.0996
-0.187676
21.269
-0.148534
16.0982
-0.117773
12.1972
-0.0942975
9.26231
-0.0775422
7.05669
-0.0668828
5.39475
-0.061426
4.13428
-0.0600532
3.17054
-0.0613279
2.42753
-0.0638604
1.85265
-0.0665747
1.40858
-0.0688648
1.06762
-0.0705697
0.807694
-0.071741
0.610598
-0.0725146
0.461682
-0.0730869
0.349168
0.264414
-0.073507
-0.876598
112.378
-0.665522
85.0877
-0.511124
64.5021
-0.397563
48.8688
-0.313514
37.0276
-0.249999
28.036
-0.200934
21.22
-0.162247
16.0595
-0.131774
12.1668
-0.108448
9.239
-0.0917824
7.04004
-0.0812749
5.38425
-0.0761358
4.12915
-0.0753328
3.16974
-0.0774085
2.42961
-0.0808658
1.85611
-0.0844733
1.41219
-0.087494
1.07064
-0.0897
0.809899
-0.0911547
0.612052
-0.0920486
0.462576
-0.0926477
0.349767
0.264756
-0.0929909
-0.861471
112.09
-0.655624
84.8819
-0.505842
64.3523
-0.396416
48.7593
-0.315893
36.947
-0.255324
27.9755
-0.208626
21.1733
-0.171747
16.0227
-0.142558
12.1376
-0.120109
9.21654
-0.104058
7.02397
-0.0940824
5.37427
-0.0895449
4.1246
-0.0895525
3.16974
-0.0926615
2.4327
-0.0972823
1.86072
-0.102018
1.41692
-0.105976
1.07459
-0.10884
0.81276
-0.110685
0.613896
-0.111781
0.463672
-0.112441
0.350426
0.265053
-0.112738
-0.829698
111.813
-0.633144
84.6853
-0.491098
64.2103
-0.388153
48.6564
-0.312924
36.8718
-0.256635
27.9192
-0.213296
21.1299
-0.178948
15.9883
-0.151556
12.1102
-0.130338
9.19533
-0.115138
7.00879
-0.105856
5.365
-0.102035
4.12079
-0.102964
3.17068
-0.107245
2.43699
-0.11321
1.86669
-0.119285
1.423
-0.124386
1.0797
-0.128082
0.816454
-0.130465
0.616281
-0.131888
0.465094
-0.132688
0.351226
0.265372
-0.133009
-0.783456
111.552
-0.599707
84.5016
-0.468075
64.0787
-0.373612
48.5619
-0.305193
36.8034
-0.254353
27.8684
-0.21527
21.0908
-0.184134
15.9572
-0.159038
12.0851
-0.139395
9.17569
-0.125263
6.99465
-0.116793
5.35652
-0.113742
4.11772
-0.115644
3.17257
-0.121193
2.44253
-0.128674
1.87416
-0.136332
1.43066
-0.142851
1.08621
-0.147643
0.821243
-0.150798
0.619433
-0.1527
0.466999
-0.153732
0.352255
0.265792
-0.154152
-0.72722
111.309
-0.55881
84.3332
-0.439555
63.9594
-0.355061
48.4774
-0.294554
36.7429
-0.249931
27.8237
-0.215604
21.0565
-0.187982
15.9296
-0.165364
12.0624
-0.147415
9.15775
-0.134433
6.98168
-0.126849
5.34896
-0.124632
4.11552
-0.127595
3.17555
-0.13455
2.44949
-0.143762
1.88338
-0.15331
1.44021
-0.161612
1.09451
-0.167862
0.827492
-0.172067
0.623641
-0.174667
0.4696
-0.176171
0.353757
0.266563
-0.176944
-0.754317
111.081
-0.58964
84.1685
-0.469002
63.8388
-0.380567
48.389
-0.315498
36.6778
-0.267259
27.7755
-0.231026
21.0203
-0.203289
15.9018
-0.181709
12.0408
-0.165035
9.14107
-0.152856
6.9695
-0.14533
5.34142
-0.142685
4.11286
-0.145242
3.1781
-0.152501
2.45674
-0.163146
1.89402
-0.175218
1.45228
-0.186661
1.10595
-0.196051
0.836879
-0.203003
0.630592
-0.207828
0.474424
-0.210942
0.35687
0.268322
-0.212704
-0.73303
110.865
-0.576933
84.0124
-0.462404
63.7242
-0.378393
48.305
-0.316579
36.616
-0.27078
27.7297
-0.236394
20.9859
-0.210044
15.8755
-0.189452
12.0203
-0.173411
9.12505
-0.161534
6.95764
-0.154037
5.33394
-0.15122
4.11006
-0.153612
3.1805
-0.160957
2.4641
-0.17217
1.90524
-0.185397
1.46551
-0.198467
1.11902
-0.209692
0.848103
-0.218309
0.639213
-0.224139
0.480253
-0.227501
0.36023
0.270263
-0.229446
-0.712228
110.66
-0.564219
83.8644
-0.455445
63.6155
-0.375594
48.2251
-0.316839
36.5572
-0.273327
27.6862
-0.240665
20.9532
-0.215596
15.8504
-0.195908
12.0006
-0.180423
9.10956
-0.16878
6.94599
-0.16124
5.3264
-0.158158
4.10697
-0.160259
3.1826
-0.167544
2.47137
-0.179202
1.91689
-0.193588
1.47989
-0.208545
1.13397
-0.222055
0.861609
-0.232614
0.649771
-0.239768
0.487407
-0.244961
0.365422
0.275272
-0.249975
-0.691936
110.467
-0.551583
83.724
-0.448249
63.5121
-0.372326
48.1492
-0.316456
36.5014
-0.275102
27.6448
-0.244066
20.9222
-0.220203
15.8265
-0.201356
11.9817
-0.186374
9.09459
-0.174908
6.93454
-0.167253
5.31876
-0.163801
4.10353
-0.165457
3.18427
-0.172481
2.47841
-0.184387
1.92881
-0.199849
1.49536
-0.216803
1.15093
-0.232833
0.877638
-0.246145
0.663088
-0.25738
0.498641
-0.268555
0.376597
0.285433
-0.27872
-0.672178
110.284
-0.53909
83.591
-0.440914
63.4139
-0.368709
48.077
-0.315571
36.4482
-0.276261
27.6055
-0.246766
20.8927
-0.224047
15.8038
-0.205993
11.9636
-0.19147
9.08007
-0.180132
6.9232
-0.172294
5.31092
-0.168362
4.09959
-0.169397
3.1853
-0.175913
2.48492
-0.187777
1.94066
-0.204053
1.51163
-0.222826
1.1697
-0.24173
0.89654
-0.259988
0.681344
-0.278858
0.51751
-0.296484
0.394223
0.295982
-0.307037
-0.652962
110.111
-0.526787
83.4648
-0.433513
63.3206
-0.364838
48.0083
-0.314294
36.3977
-0.276924
27.5681
-0.248894
20.8647
-0.227263
15.7822
-0.209962
11.9463
-0.195861
9.06598
-0.184606
6.91196
-0.176522
5.30286
-0.171999
4.09509
-0.172222
3.18554
-0.177939
2.49065
-0.189359
1.95209
-0.205953
1.52823
-0.226158
1.18991
-0.248537
0.918918
-0.273432
0.706245
-0.299012
0.543089
-0.316677
0.411889
0.299326
-0.320024
-0.634293
109.948
-0.514707
83.3452
-0.426099
63.232
-0.360782
47.943
-0.312705
36.3496
-0.277182
27.5326
-0.250549
20.838
-0.229957
15.7616
-0.213371
11.9298
-0.199658
9.05227
-0.188449
6.90075
-0.180058
5.29446
-0.174833
4.08985
-0.174041
3.18474
-0.178626
2.49523
-0.18908
1.96254
-0.205281
1.54443
-0.226344
1.21096
-0.252121
0.944695
-0.282111
0.736232
-0.30838
0.569357
-0.318773
0.422283
0.292894
-0.312343
-0.616168
109.793
-0.502872
83.2319
-0.418714
63.1479
-0.356598
47.8809
-0.310871
36.3039
-0.277108
27.4988
-0.251809
20.8127
-0.232211
15.742
-0.216307
11.9138
-0.202954
9.03893
-0.191753
6.88957
-0.183001
5.28573
-0.176967
4.08384
-0.17495
3.18275
-0.178036
2.49833
-0.186902
1.97142
-0.201827
1.55936
-0.222786
1.23193
-0.250306
0.972215
-0.280929
0.766861
-0.301833
0.59026
-0.30292
0.423372
0.28
-0.290028
-0.598583
109.647
-0.491298
83.1246
-0.41139
63.068
-0.352327
47.8218
-0.308843
36.2604
-0.27676
27.4668
-0.252738
20.7887
-0.234091
15.7234
-0.21884
11.8986
-0.20582
9.02591
-0.194597
6.87834
-0.185432
5.27657
-0.178489
4.07689
-0.175038
3.1793
-0.176234
2.49952
-0.182827
1.97801
-0.195459
1.57199
-0.214792
1.25126
-0.24095
0.998377
-0.267275
0.793182
-0.280052
0.603037
-0.274273
0.417594
0.265263
-0.259537
-0.581532
109.51
-0.479997
83.0231
-0.404152
62.9921
-0.348006
47.7657
-0.306663
36.219
-0.276187
27.4363
-0.253387
20.7659
-0.235654
15.7056
-0.221027
11.884
-0.208319
9.01322
-0.197044
6.86709
-0.187424
5.26697
-0.179482
4.06897
-0.17439
3.17423
-0.173305
2.49846
-0.17693
1.98165
-0.186147
1.58121
-0.201831
1.26695
-0.22298
1.01953
-0.241421
0.811627
-0.24633
0.607946
-0.237288
0.408554
0.251611
-0.223634
-0.565005
109.38
-0.468977
82.9271
-0.397019
62.9202
-0.343664
47.7123
-0.304369
36.1797
-0.275429
27.4073
-0.253801
20.7443
-0.236947
15.6888
-0.222919
11.8699
-0.210502
9.0008
-0.199153
6.85574
-0.189039
5.25686
-0.180021
4.05995
-0.173094
3.1673
-0.169362
2.49473
-0.169364
1.98165
-0.174014
1.58586
-0.183868
1.27681
-0.196809
1.03247
-0.205385
0.820199
-0.203479
0.606041
-0.193647
0.398725
0.240597
-0.182629
-0.548993
109.258
-0.458243
82.8363
-0.390009
62.8519
-0.339325
47.6616
-0.30199
36.1424
-0.274523
27.3799
-0.254019
20.7238
-0.23801
15.6728
-0.22456
11.8565
-0.212417
8.98867
-0.200974
6.84432
-0.190337
5.24624
-0.18018
4.04981
-0.171247
3.15839
-0.164556
2.48805
-0.160365
1.97747
-0.159405
1.58491
-0.161656
1.27907
-0.164479
1.0353
-0.162849
0.818572
-0.155752
0.598944
-0.147342
0.39032
0.234005
-0.140745
-0.533486
109.143
-0.447799
82.7506
-0.383134
62.7873
-0.335011
47.6135
-0.299553
36.1069
-0.273497
27.3538
-0.254073
20.7043
-0.23888
15.6576
-0.225987
11.8436
-0.214104
8.97679
-0.20255
6.83276
-0.191368
5.23506
-0.180031
4.03848
-0.168954
3.14732
-0.159059
2.47816
-0.150233
1.96865
-0.142908
1.57759
-0.136571
1.27274
-0.128837
1.02758
-0.117866
0.807598
-0.107021
0.588101
-0.100691
0.383994
0.23201
-0.0986871
-0.518475
109.036
-0.437647
82.6698
-0.376408
62.726
-0.33074
47.5678
-0.297081
36.0733
-0.27238
27.3291
-0.253995
20.6859
-0.239589
15.6432
-0.227234
11.8312
-0.215599
8.96517
-0.203924
6.82111
-0.192184
5.22335
-0.179648
4.02596
-0.166327
3.13402
-0.153061
2.46492
-0.139323
1.95493
-0.125283
1.56356
-0.11017
1.25764
-0.092324
1.00974
-0.0727867
0.788062
-0.056686
0.572002
-0.0483417
0.375655
0.230426
-0.0467465
-0.503947
108.935
-0.427787
82.5936
-0.369839
62.6681
-0.326527
47.5245
-0.294595
36.0413
-0.271196
27.3057
-0.25381
20.6686
-0.240165
15.6296
-0.228333
11.8194
-0.216937
8.95378
-0.205133
6.80931
-0.192831
5.21105
-0.179107
4.01224
-0.163478
3.1184
-0.146751
2.4482
-0.128024
1.93621
-0.107331
1.54287
-0.0839629
1.23428
-0.0570978
0.982883
-0.0294617
0.760425
-0.00646789
0.549012
0.0066623
0.36253
0.226775
0.0103241
-0.489893
108.84
-0.418222
82.5219
-0.363436
62.6133
-0.322388
47.4834
-0.292116
36.011
-0.269966
27.2835
-0.253545
20.6521
-0.240636
15.6167
-0.229312
11.8081
-0.218149
8.94263
-0.206214
6.79739
-0.193356
5.19821
-0.17848
3.99738
-0.160515
3.10046
-0.140317
2.42802
-0.116724
1.91263
-0.0898158
1.51597
-0.0591872
1.20367
-0.0252876
0.948993
0.00857684
0.72656
0.0365757
0.521016
0.0525485
0.346562
0.22179
0.0575461
-0.476301
108.752
-0.408949
82.4546
-0.357207
62.5615
-0.318337
47.4446
-0.289659
35.9824
-0.268713
27.2626
-0.253222
20.6366
-0.241026
15.6045
-0.230198
11.7972
-0.219263
8.9317
-0.2072
6.78533
-0.1938
5.18482
-0.177832
3.98142
-0.157538
3.08018
-0.133943
2.40444
-0.105782
1.88447
-0.0733877
1.48359
-0.0370447
1.16734
0.00175152
0.910207
0.0394967
0.688816
0.0696244
0.490892
0.0869041
0.329287
0.215532
0.0931736
-0.463161
108.67
-0.399971
82.3914
-0.35116
62.5127
-0.314385
47.4078
-0.287242
35.9552
-0.267455
27.2428
-0.252862
20.622
-0.24136
15.593
-0.231016
11.7869
-0.220307
8.921
-0.208124
6.77316
-0.194199
5.17092
-0.177223
3.96446
-0.154665
3.05764
-0.127819
2.37761
-0.0955112
1.85218
-0.058458
1.44654
-0.0179223
1.12682
0.0236819
0.868613
0.0628625
0.649633
0.0930342
0.460724
0.110505
0.31182
0.208223
0.117825
-0.450463
108.594
-0.391285
82.3322
-0.3453
62.4667
-0.310544
47.373
-0.28488
35.9295
-0.266212
27.2241
-0.252487
20.6083
-0.241659
15.5821
-0.231791
11.777
-0.221308
8.91053
-0.209014
6.76088
-0.194586
5.1565
-0.176723
3.94661
-0.152035
3.03297
-0.122112
2.3477
-0.0860891
1.81617
-0.0451988
1.40566
-0.00187643
1.08351
0.0408242
0.825923
0.0795189
0.61094
0.108402
0.431845
0.125427
0.294799
0.200235
0.133427
-0.438198
108.524
-0.382892
82.2769
-0.339634
62.4234
-0.306826
47.3402
-0.282589
35.9053
-0.265
27.2065
-0.252117
20.5954
-0.241945
15.572
-0.232545
11.7676
-0.22229
8.90028
-0.209897
6.7485
-0.194996
5.14162
-0.176415
3.92804
-0.149782
3.00636
-0.116897
2.31483
-0.0775111
1.77679
-0.033668
1.36183
0.011022
1.03883
0.0535016
0.783453
0.0904603
0.573978
0.117327
0.404982
0.133487
0.278641
0.191967
0.141766
-0.426354
108.458
-0.37479
82.2253
-0.334167
62.3828
-0.303241
47.3093
-0.280383
35.8824
-0.263836
27.19
-0.251769
20.5834
-0.242237
15.5624
-0.2333
11.7587
-0.223275
8.89027
-0.210801
6.73603
-0.195467
5.12629
-0.176367
3.90896
-0.147982
2.97799
-0.112156
2.27903
-0.0697157
1.73436
-0.0238163
1.31594
0.0210675
0.993963
0.0622794
0.742249
0.0967357
0.539523
0.121383
0.380338
0.136442
0.263585
0.183862
0.144556
-0.414923
108.399
-0.366979
82.1774
-0.328906
62.3447
-0.2998
47.2802
-0.278274
35.8609
-0.262738
27.1744
-0.251463
20.5721
-0.242556
15.5535
-0.234076
11.7502
-0.224287
8.88049
-0.211751
6.72351
-0.19603
5.11059
-0.176622
3.88956
-0.146719
2.9481
-0.107966
2.24029
-0.0627298
1.68914
-0.0155623
1.26878
0.0285443
0.949867
0.0677305
0.703072
0.0995139
0.507737
0.121925
0.357931
0.135633
0.24988
0.176366
0.143137
-0.403897
108.344
-0.359458
82.1329
-0.323854
62.3092
-0.296511
47.2528
-0.276277
35.8407
-0.261719
27.1599
-0.251215
20.5616
-0.242921
15.5452
-0.234893
11.7422
-0.225344
8.87094
-0.21277
6.71094
-0.196704
5.09454
-0.177227
3.8701
-0.146129
2.91702
-0.104351
2.19853
-0.0564216
1.64122
-0.0087061
1.22107
0.0338903
0.907286
0.0707257
0.666244
0.0998333
0.478632
0.119924
0.337844
0.132108
0.237699
0.169762
0.138718
-0.393266
108.294
-0.352227
82.0919
-0.319018
62.2759
-0.293384
47.2272
-0.274402
35.8217
-0.260794
27.1463
-0.251041
20.5518
-0.243347
15.5376
-0.235771
11.7346
-0.226469
8.86165
-0.213886
6.69837
-0.197537
5.0782
-0.178293
3.85087
-0.146391
2.88514
-0.101199
2.15335
-0.0503059
1.59033
-0.00311084
1.17388
0.0374877
0.866695
0.0718993
0.631839
0.0981352
0.452393
0.115776
0.320208
0.126404
0.227072
0.164119
0.132053
-0.383022
108.249
-0.345284
82.0542
-0.314402
62.2451
-0.29043
47.2032
-0.272664
35.8039
-0.259981
27.1336
-0.250958
20.5428
-0.243851
15.5304
-0.236715
11.7275
-0.227656
8.8526
-0.215089
6.68582
-0.19852
5.06164
-0.179672
3.83204
-0.147136
2.85262
-0.098035
2.10427
-0.0446042
1.53692
0.000405087
1.12889
0.0391864
0.827929
0.0709783
0.600055
0.0940323
0.429349
0.109262
0.30498
0.118513
0.217826
0.159266
0.123371
-0.360434
108.192
-0.318107
82.0118
-0.286419
62.2133
-0.263299
47.1801
-0.246961
35.7875
-0.235783
27.1224
-0.228168
20.5352
-0.222369
15.5247
-0.216506
11.7216
-0.20874
8.84484
-0.197603
6.67469
-0.182515
5.04657
-0.165607
3.81513
-0.136325
2.82335
-0.0888111
2.05676
-0.0381545
1.48627
0.00172701
1.08901
0.0370545
0.792608
0.063928
0.573189
0.0818777
0.411395
0.0935432
0.293326
0.100942
0.210432
0.155144
0.105069
-0.286699
108.146
-0.253269
81.9784
-0.22824
62.1883
-0.209981
47.1618
-0.197095
35.7747
-0.188311
27.1136
-0.182372
20.5292
-0.177892
15.5202
-0.173365
11.7171
-0.167279
8.83877
-0.158483
6.6659
-0.146366
5.03446
-0.132943
3.80173
-0.111509
2.80193
-0.0734466
2.01871
-0.0305327
1.44337
0.0041625
1.05433
0.0337662
0.763023
0.0537725
0.553194
0.0655892
0.399594
0.072738
0.286177
0.0774708
0.205708
0.152097
0.0805253
-0.228028
108.111
-0.20161
81.952
-0.181828
62.1685
-0.167398
47.1474
-0.157225
35.7645
-0.150313
27.1067
-0.145676
20.5246
-0.142219
15.5167
-0.138739
11.7136
-0.134003
8.83404
-0.127087
6.65899
-0.117448
5.02483
-0.106986
3.79127
-0.091603
2.78656
-0.061068
1.98818
-0.0244508
1.40676
0.00628889
1.02359
0.0311738
0.738142
0.0465154
0.537855
0.0544458
0.39166
0.0586467
0.281988
0.0614058
0.202952
0.149907
0.0636026
-0.181326
108.082
-0.160417
81.9311
-0.144759
62.1529
-0.133334
47.136
-0.125287
35.7564
-0.119835
27.1012
-0.116205
20.521
-0.113532
15.5141
-0.110862
11.7109
-0.107194
8.83038
-0.101778
6.65359
-0.0941998
5.01726
-0.0861624
3.78325
-0.0750957
2.77551
-0.0504553
1.96356
-0.0194759
1.3758
0.00745124
0.996679
0.0284681
0.717145
0.0404861
0.525851
0.0458647
0.386293
0.0481565
0.279692
0.0494663
0.201649
0.148573
0.0508041
-0.144162
108.06
-0.127593
81.9145
-0.115182
62.1405
-0.106125
47.1269
-0.0997483
35.75
-0.0954391
27.0969
-0.092589
20.5181
-0.0905196
15.512
-0.0884739
11.7088
-0.0856447
8.82756
-0.0814217
6.64937
-0.0755296
5.01138
-0.0694224
3.77715
-0.0613971
2.76749
-0.0416207
1.94378
-0.0155121
1.34969
0.00799428
0.973167
0.0257602
0.69938
0.0352399
0.51637
0.0388547
0.382675
0.0398988
0.278656
0.04019
0.201356
0.148064
0.040702
-0.11455
108.042
-0.101369
81.9013
-0.0914922
62.1306
-0.0842805
47.1197
-0.0792022
35.7449
-0.0757746
27.0935
-0.0735197
20.5159
-0.0719049
15.5104
-0.0703333
11.7073
-0.0681577
8.82539
-0.0648843
6.64611
-0.06036
5.00686
-0.0557908
3.7726
-0.0499392
2.76165
-0.0342594
1.92812
-0.0123613
1.32781
0.00810453
0.952719
0.0230012
0.684503
0.030482
0.508902
0.0328851
0.380282
0.0330998
0.278437
0.0327302
0.201731
0.148215
0.032579
-0.0912295
108.028
-0.0809019
81.891
-0.0731644
62.1228
-0.0675171
47.114
-0.0635488
35.741
-0.060885
27.0908
-0.0591538
20.5141
-0.0579377
15.5092
-0.0567635
11.7061
-0.0551089
8.82374
-0.0525695
6.64357
-0.0490845
5.00338
-0.0456758
3.76919
-0.0412838
2.75726
-0.0285176
1.91535
-0.00983309
1.30912
0.00802813
0.93485
0.0205292
0.672001
0.0264991
0.502929
0.0281451
0.378632
0.0278699
0.278718
0.0271543
0.202443
0.148743
0.0266287
-0.0722834
108.017
-0.0639082
81.8826
-0.057629
62.1166
-0.053037
47.1094
-0.0497997
35.7377
-0.0476167
27.0886
-0.0461932
20.5127
-0.0452024
15.5082
-0.0442759
11.7052
-0.0430044
8.82248
-0.0410695
6.64165
-0.0384804
5.0008
-0.0360674
3.76679
-0.0328026
2.75401
-0.0224802
1.90505
-0.00689055
1.29355
0.00790963
0.920067
0.0177783
0.662151
0.0222553
0.498464
0.0232199
0.377676
0.0225355
0.279398
0.0215564
0.203426
0.149546
0.0207534
-0.0621919
108.003
-0.0515119
81.8719
-0.0432644
62.1083
-0.0370079
47.1032
-0.0323876
35.7331
-0.029089
27.0853
-0.0268039
20.5104
-0.0251879
15.5066
-0.0238407
11.7038
-0.0223102
8.82095
-0.0202116
6.63955
-0.0175819
4.99818
-0.0158635
3.76508
-0.0139964
2.75215
-0.00414998
1.8952
0.0123733
1.27702
0.0282137
0.904218
0.0383739
0.651987
0.0430089
0.493823
0.0435931
0.377087
0.041839
0.281158
0.0395996
0.205662
0.151393
0.0377541
-0.0653101
107.988
-0.0540917
81.8607
-0.0454272
62.0997
-0.0388516
47.0966
-0.0339951
35.7282
-0.0305307
27.0819
-0.028139
20.508
-0.0264639
15.5049
-0.0250905
11.7024
-0.0235464
8.81942
-0.0214246
6.63744
-0.0188186
4.99558
-0.0173501
3.76363
-0.015545
2.75036
-0.00460065
1.88427
0.0129384
1.2595
0.0294866
0.887687
0.0401498
0.641341
0.0455056
0.488477
0.0467553
0.375844
0.0453372
0.282571
0.0431074
0.207896
0.153323
0.0411765
-0.0685852
107.973
-0.0568012
81.8489
-0.0476983
62.0905
-0.0407874
47.0897
-0.0356825
35.7231
-0.0320433
27.0782
-0.0295392
20.5055
-0.027802
15.5032
-0.0264014
11.701
-0.0248439
8.81786
-0.0227002
6.6353
-0.0201325
4.99301
-0.0189381
3.76243
-0.0171353
2.74855
-0.00483584
1.87197
0.0136278
1.24103
0.0307286
0.870578
0.0418345
0.63023
0.0479788
0.482325
0.0500519
0.373765
0.0491812
0.283447
0.0471485
0.209925
0.15525
0.0452232
-0.072025
107.957
-0.0596465
81.8365
-0.0500831
62.081
-0.0428199
47.0824
-0.0374536
35.7177
-0.0336304
27.0744
-0.031008
20.5029
-0.0292052
15.5013
-0.0277763
11.6996
-0.0262052
8.8163
-0.0240402
6.63314
-0.0215248
4.99051
-0.0206319
3.76155
-0.0187736
2.74671
-0.00484654
1.85806
0.0144126
1.22179
0.0319609
0.853047
0.0435078
0.618699
0.050431
0.475409
0.0533789
0.370823
0.0531901
0.283631
0.0515592
0.21156
0.157029
0.0497795
-0.0756374
107.94
-0.0626347
81.8235
-0.0525876
62.0709
-0.0449538
47.0748
-0.0393126
35.7121
-0.0352958
27.0704
-0.0325486
20.5001
-0.0306768
15.4995
-0.0292184
11.6981
-0.0276335
8.81472
-0.0254482
6.63096
-0.0230018
4.98806
-0.0224393
3.76099
-0.020468
2.74474
-0.00471983
1.84231
0.0151087
1.20196
0.0330603
0.835086
0.0451433
0.606609
0.052784
0.46776
0.0565912
0.367008
0.0571941
0.283032
0.0561116
0.212639
0.158552
0.0545896
-0.0794315
107.922
-0.0657729
81.8098
-0.0552175
62.0604
-0.0471944
47.0668
-0.0412641
35.7061
-0.0370434
27.0661
-0.0341648
20.4972
-0.0322204
15.4975
-0.0307312
11.6966
-0.0291327
8.81313
-0.0269289
6.62877
-0.0245719
4.98572
-0.0243707
3.76081
-0.0222242
2.74261
-0.00447651
1.82458
0.0156625
1.18184
0.033934
0.816833
0.0467039
0.593854
0.0550407
0.459429
0.0596216
0.362432
0.0611067
0.281542
0.0605851
0.213163
0.159916
0.0592212
-0.0834159
107.903
-0.0690685
81.7955
-0.0579793
62.0493
-0.0495469
47.0583
-0.0433125
35.6999
-0.0388773
27.0617
-0.0358603
20.4942
-0.0338395
15.4955
-0.0323184
11.6951
-0.0307066
8.81153
-0.0284871
6.62655
-0.0262433
4.98347
-0.0264364
3.761
-0.0240453
2.74021
-0.00410142
1.80463
0.0161915
1.16154
0.0345884
0.798427
0.048227
0.580208
0.0573837
0.450264
0.062595
0.357214
0.0648541
0.279287
0.0648731
0.213141
0.161105
0.0636844
-0.0876007
107.884
-0.0725296
81.7804
-0.0608793
62.0376
-0.0520169
47.0495
-0.0454627
35.6933
-0.0408017
27.057
-0.0376389
20.4911
-0.0355379
15.4934
-0.0339839
11.6935
-0.0323592
8.80991
-0.0301274
6.62433
-0.0280242
4.98138
-0.0286439
3.76163
-0.0259341
2.73752
-0.00354163
1.78225
0.0168362
1.14118
0.0352025
0.780079
0.0497596
0.565664
0.0597817
0.440247
0.0655135
0.351486
0.0682158
0.27658
0.0688231
0.212537
0.161709
0.0682189
-0.0919955
107.863
-0.0761643
81.7646
-0.0639248
62.0254
-0.0546103
47.0402
-0.0477198
35.6865
-0.0428211
27.0521
-0.039505
20.4877
-0.0373196
15.4912
-0.0357318
11.6919
-0.0340946
8.80828
-0.0318549
6.62209
-0.0299228
4.97945
-0.0309926
3.7627
-0.0278904
2.73441
-0.00332337
1.75768
0.0173019
1.12055
0.0362558
0.761115
0.0514289
0.550482
0.0617955
0.429873
0.0680464
0.345228
0.0712601
0.27337
0.072383
0.211411
0.161726
0.0723662
-0.096611
107.842
-0.0799813
81.748
-0.0671228
62.0125
-0.0573334
47.0303
-0.0500892
35.6792
-0.0449405
27.047
-0.0414628
20.4843
-0.0391889
15.489
-0.0375661
11.6903
-0.0359171
8.80664
-0.0336742
6.61985
-0.0319474
4.97773
-0.0334938
3.76426
-0.0299146
2.73085
-0.00378531
1.73157
0.017703
1.09908
0.0380511
0.740785
0.0531962
0.53535
0.0631439
0.419931
0.0700084
0.338368
0.0744293
0.268944
0.0761388
0.209704
0.161741
0.0761243
-0.101458
107.819
-0.0839897
81.7305
-0.0704813
61.999
-0.0601925
47.0201
-0.0525765
35.6716
-0.0471647
27.0416
-0.0435171
20.4806
-0.0411503
15.4866
-0.0394914
11.6886
-0.037831
8.80498
-0.0355903
6.61761
-0.0341068
4.97625
-0.0361704
3.76632
-0.0319996
2.72667
-0.00383514
1.7034
0.0190711
1.07617
0.0402832
0.719563
0.0548221
0.520802
0.0641758
0.410572
0.0714952
0.331042
0.0772978
0.263145
0.0800904
0.206909
0.161607
0.0802246
-0.106549
107.795
-0.0881994
81.7121
-0.0740078
61.9848
-0.0631946
47.0092
-0.0551876
35.6636
-0.0494991
27.0358
-0.0456728
20.4768
-0.0432082
15.4841
-0.0415122
11.6869
-0.0398407
8.80332
-0.0376081
6.61539
-0.0364092
4.97506
-0.0390242
3.76895
-0.0341233
2.72178
-0.00301783
1.67231
0.0212625
1.05191
0.0425625
0.69828
0.056483
0.506892
0.0656168
0.401444
0.0729336
0.32373
0.0790928
0.256981
0.0830243
0.20298
0.160464
0.084167
-0.111895
107.77
-0.0926204
81.6928
-0.0777113
61.9699
-0.0663468
46.9979
-0.0579289
35.6551
-0.0519493
27.0299
-0.0479348
20.4728
-0.0453677
15.4816
-0.0436331
11.6852
-0.0419508
8.80164
-0.0397329
6.61317
-0.0388633
4.97419
-0.0420454
3.77213
-0.0362507
2.71598
-0.00205353
1.63811
0.0231583
1.02669
0.044598
0.676828
0.0584385
0.493042
0.0677613
0.392116
0.0749078
0.316578
0.0804493
0.251443
0.0846558
0.19877
0.158202
0.0869174
-0.11751
107.744
-0.097263
81.6726
-0.0816003
61.9542
-0.0696567
46.9859
-0.0608068
35.6463
-0.054521
27.0236
-0.0503086
20.4685
-0.0476338
15.4789
-0.0458592
11.6834
-0.0441661
8.79995
-0.0419705
6.61099
-0.0414772
4.97371
-0.0452243
3.77589
-0.0383387
2.70911
-0.00114235
1.60093
0.0245854
1.00098
0.0461143
0.655314
0.0604871
0.478677
0.0702037
0.382405
0.0773429
0.309442
0.0823435
0.246438
0.0860914
0.195024
0.15554
0.0887532
-0.123407