/*--------------------------------*- C++ -*----------------------------------*\
  =========                 |
  \\      /  F ield         | OpenFOAM: The Open Source CFD Toolbox
   \\    /   O peration     | Website:  https://openfoam.org
    \\  /    A nd           | Version:  7
     \\/     M anipulation  |
\*---------------------------------------------------------------------------*/
FoamFile
{
    version     2.0;
    format      ascii;
    class       volVectorField;
    location    "100";
    object      U;
}
// * * * * * * * * * * * * * * * * * * * * * * * * * * * * * * * * * * * * * //

dimensions      [0 1 -1 0 0 0 0];

internalField   nonuniform List<vector> 
12842
(
(14.9374 4.57261 -8.07126e-19)
(14.9341 4.5791 -5.27491e-19)
(14.9281 4.58884 -1.71514e-19)
(14.9177 4.60131 4.45424e-19)
(14.9026 4.61708 -1.80454e-18)
(14.8819 4.63746 0)
(14.8547 4.6644 0)
(14.8199 4.70062 -1.9763e-19)
(14.7758 4.74959 1.23521e-18)
(14.7201 4.81506 -1.44837e-20)
(14.6496 4.90033 2.44733e-19)
(14.5606 5.0075 -5.67997e-20)
(14.4499 5.13668 9.96546e-20)
(14.3155 5.28599 3.79158e-20)
(14.1578 5.45167 -3.44709e-20)
(13.9795 5.62878 -3.89617e-20)
(13.786 5.81161 -3.76723e-20)
(13.5842 5.99412 0)
(13.3819 6.17025 4.22093e-21)
(13.1867 6.33451 2.05671e-20)
(13.0042 6.48202 1.01194e-20)
(12.8409 6.61177 -1.94308e-20)
(12.6942 6.71367 2.23251e-20)
(14.9386 4.57342 6.57948e-19)
(14.9362 4.58297 0)
(14.9319 4.59475 -1.47985e-18)
(14.9234 4.6098 9.2928e-19)
(14.9104 4.62869 1.44708e-18)
(14.8926 4.65259 0)
(14.8696 4.68339 -1.76313e-18)
(14.841 4.72398 0)
(14.8059 4.77828 -1.53254e-18)
(14.7623 4.85074 -1.58776e-19)
(14.7069 4.94539 -5.06936e-19)
(14.6355 5.06471 8.64431e-20)
(14.5432 5.20865 -9.80872e-20)
(14.4267 5.3744 -2.46547e-19)
(14.2849 5.55689 0)
(14.1199 5.74973 4.25304e-20)
(13.9366 5.94603 2.46866e-20)
(13.7422 6.13903 1.32623e-19)
(13.5443 6.32239 0)
(13.351 6.49074 -3.91505e-20)
(13.1685 6.63941 3.91974e-20)
(13.0028 6.76864 2.57331e-20)
(12.8548 6.8661 3.26255e-21)
(14.9403 4.57413 0)
(14.9392 4.58607 0)
(14.9368 4.59947 4.23981e-20)
(14.9301 4.61674 -5.19442e-18)
(14.9191 4.63833 0)
(14.9038 4.66507 0)
(14.8842 4.69871 1.62898e-20)
(14.8609 4.74221 1.16016e-18)
(14.8338 4.79992 6.35312e-19)
(14.8014 4.87708 2.07633e-19)
(14.7607 4.97869 -2.64665e-19)
(14.7062 5.10792 -8.60739e-20)
(14.6319 5.26475 -1.33951e-19)
(14.5325 5.44558 4.1973e-19)
(14.4058 5.644 0)
(14.2533 5.85212 1.19931e-19)
(14.08 6.06186 -1.54749e-19)
(13.8933 6.26573 -1.1575e-19)
(13.7013 6.45713 -3.53782e-19)
(13.5121 6.63085 2.17682e-19)
(13.3324 6.78228 -4.07984e-20)
(13.1674 6.91303 0)
(13.021 7.00812 -1.14718e-20)
(14.9426 4.57466 1.41595e-20)
(14.9429 4.58827 -5.32323e-19)
(14.9423 4.60301 2.05197e-18)
(14.9375 4.62225 7.49678e-18)
(14.9283 4.64627 -6.68191e-19)
(14.9151 4.67544 2.09512e-18)
(14.8984 4.71127 3.74531e-19)
(14.8796 4.75666 -1.16017e-18)
(14.8597 4.81636 -9.42418e-19)
(14.8382 4.89644 -4.81319e-20)
(14.8117 5.00307 8.21871e-19)
(14.7742 5.14034 -2.58812e-19)
(14.7177 5.30846 3.37966e-19)
(14.6353 5.50314 1.75118e-18)
(14.5234 5.71656 -2.99755e-19)
(14.383 5.93929 3.8844e-19)
(14.2196 6.16203 1.38749e-19)
(14.0411 6.37668 4.36687e-19)
(13.8561 6.57642 1.05638e-20)
(13.6727 6.7563 2.78501e-19)
(13.4979 6.91169 8.66796e-20)
(13.3362 7.04558 1.30759e-19)
(13.1935 7.14015 -1.88084e-19)
(14.9452 4.57491 -4.77568e-19)
(14.9468 4.58946 0)
(14.9481 4.6054 -3.02985e-19)
(14.9452 4.62641 -2.60898e-18)
(14.9379 4.65268 -2.58486e-19)
(14.9264 4.68403 -5.52779e-18)
(14.9121 4.72164 -9.89171e-20)
(14.8973 4.7682 2.29989e-18)
(14.8841 4.82873 1.01856e-18)
(14.8729 4.91016 -1.1776e-19)
(14.8607 5.01994 -1.37191e-18)
(14.8402 5.16334 -1.97396e-18)
(14.8019 5.34109 5.02147e-19)
(14.7366 5.54832 -4.06762e-18)
(14.6393 5.77585 -1.78914e-18)
(14.511 6.01258 1.28076e-18)
(14.3576 6.24792 0)
(14.1878 6.47315 -4.34759e-19)
(14.0109 6.68136 0)
(13.8346 6.86795 1.29835e-19)
(13.6665 7.02817 1.72846e-19)
(13.5097 7.16647 -1.60542e-19)
(13.3723 7.26201 -3.31211e-20)
(14.9479 4.57483 2.39067e-19)
(14.9507 4.58969 0)
(14.954 4.60668 0)
(14.9528 4.62919 -3.73631e-18)
(14.9474 4.65749 2.79809e-18)
(14.9374 4.69075 3.14253e-18)
(14.925 4.72977 4.14016e-18)
(14.9135 4.77682 -2.59232e-18)
(14.9063 4.83707 0)
(14.9052 4.91827 3.56649e-19)
(14.9072 5.02929 1.46556e-18)
(14.9044 5.17688 1.04617e-18)
(14.8849 5.36257 0)
(14.8374 5.58115 2.3095e-18)
(14.7554 5.82205 1.51632e-18)
(14.6394 6.07237 -9.34123e-19)
(14.4963 6.32008 -2.47921e-19)
(14.3358 6.55582 1.74684e-18)
(14.1678 6.77259 0)
(13.9999 6.96631 -7.62433e-19)
(13.8397 7.13203 2.54665e-19)
(13.6891 7.27578 8.72257e-19)
(13.5583 7.37333 -1.84986e-19)
(14.9506 4.57441 -5.19905e-20)
(14.9542 4.58911 0)
(14.9598 4.60705 0)
(14.9604 4.63082 3.73632e-18)
(14.957 4.66101 -3.2433e-18)
(14.9485 4.69612 3.79369e-19)
(14.9379 4.73652 -2.51785e-18)
(14.9291 4.78382 -1.08313e-19)
(14.9271 4.84316 1.42518e-19)
(14.9348 4.92287 -5.08331e-19)
(14.95 5.03332 -2.86793e-19)
(14.9638 5.18292 2.38644e-18)
(14.9629 5.37444 0)
(14.9335 5.60274 -3.29611e-18)
(14.8672 5.85599 3.10523e-19)
(14.7644 6.11937 -4.03779e-19)
(14.6325 6.37915 1.24187e-18)
(14.4821 6.6252 -1.03107e-18)
(14.3238 6.8504 -1.36518e-18)
(14.1652 7.05138 -3.34988e-19)
(14.014 7.22289 4.71892e-20)
(13.8705 7.37288 -5.22946e-19)
(13.7473 7.47322 -3.49322e-19)
(14.9532 4.57372 0)
(14.9574 4.58787 1.86612e-19)
(14.9651 4.60653 -2.25076e-18)
(14.9671 4.63118 7.91599e-20)
(14.965 4.6628 3.48052e-18)
(14.9571 4.69915 -5.46494e-19)
(14.9474 4.74002 1.35627e-19)
(14.9406 4.78625 1.64846e-18)
(14.9437 4.84278 0)
(14.961 4.91863 -8.2147e-19)
(14.9909 5.02584 1.50265e-19)
(15.0237 5.17497 2.44184e-19)
(15.0432 5.3704 0)
(15.0331 5.6073 3.26049e-18)
(14.9832 5.87247 -2.8025e-18)
(14.8936 6.14897 0)
(14.7731 6.42103 -1.23657e-18)
(14.6339 6.67768 0)
(14.4868 6.91164 1.12426e-18)
(14.3395 7.12056 0)
(14.199 7.29855 -5.38433e-19)
(14.0645 7.45623 3.30593e-19)
(13.9495 7.55975 4.67056e-19)
(14.9555 4.57275 0)
(14.9601 4.58645 0)
(14.9705 4.60545 -5.30819e-21)
(14.9744 4.63074 1.59684e-19)
(14.9749 4.66379 -3.92835e-18)
(14.9683 4.70212 -3.54537e-18)
(14.959 4.7452 0)
(14.9519 4.79313 -1.52546e-18)
(14.955 4.85023 0)
(14.9746 4.92519 1.49652e-18)
(15.011 5.0307 1.85879e-18)
(15.0554 5.17868 -2.13533e-18)
(15.091 5.37528 -2.53743e-19)
(15.099 5.61694 0)
(15.0659 5.89048 2.94233e-18)
(14.9898 6.17764 2.26607e-18)
(14.8789 6.46055 -1.97749e-19)
(14.7469 6.72675 1.48844e-18)
(14.6064 6.96803 1.32597e-18)
(14.4659 7.18298 0)
(14.3333 7.36469 3.37133e-19)
(14.2057 7.52801 2.8588e-20)
(14.0992 7.63274 -2.6949e-19)
(14.958 4.57149 -5.08478e-20)
(14.9625 4.58494 -2.6209e-18)
(14.975 4.60439 2.10745e-18)
(14.9799 4.6304 0)
(14.9816 4.6646 -7.77176e-20)
(14.9752 4.7042 -2.90249e-19)
(14.9659 4.74828 3.19459e-18)
(14.9585 4.79638 0)
(14.9625 4.85247 0)
(14.9854 4.9254 -7.02863e-19)
(15.0287 5.02871 -1.95483e-18)
(15.0836 5.17564 -1.03212e-19)
(15.1326 5.37361 2.8849e-18)
(15.1547 5.61971 -9.42064e-20)
(15.1346 5.90028 -4.06768e-19)
(15.0693 6.1957 4.15522e-19)
(14.9674 6.48644 -1.48283e-18)
(14.8435 6.7592 -1.38334e-18)
(14.7113 7.00531 -1.51953e-18)
(14.5794 7.22459 -1.12589e-18)
(14.456 7.40901 3.76617e-19)
(14.336 7.57712 -1.71765e-18)
(14.2389 7.68344 3.1878e-19)
(14.9602 4.56995 5.9441e-19)
(14.9646 4.58338 2.89609e-18)
(14.9792 4.60322 -6.53594e-20)
(14.985 4.63009 -2.29411e-18)
(14.9879 4.6655 1.16072e-19)
(14.9819 4.70652 3.85752e-18)
(14.9726 4.75163 -6.27224e-18)
(14.9652 4.79983 -1.11547e-19)
(14.9702 4.8546 6.26959e-20)
(14.9964 4.92497 -5.60955e-19)
(15.0464 5.02536 1.01158e-19)
(15.1118 5.17053 -2.84621e-18)
(15.1739 5.36933 -2.5837e-18)
(15.2103 5.61964 0)
(15.2036 5.90727 3.41349e-18)
(15.1497 6.21105 -4.84329e-18)
(15.0574 6.50949 -3.21985e-19)
(14.9423 6.78833 1.40456e-18)
(14.8191 7.0384 -1.35062e-20)
(14.6967 7.26112 1.43448e-18)
(14.5836 7.44729 0)
(14.4725 7.61946 5.28272e-19)
(14.3864 7.72642 0)
(14.962 4.56817 -3.6725e-19)
(14.9665 4.58184 3.00159e-18)
(14.9831 4.60194 -1.10466e-19)
(14.9898 4.6297 4.52023e-18)
(14.9938 4.6663 -2.37444e-18)
(14.9882 4.70881 1.15936e-19)
(14.979 4.75504 3.29564e-18)
(14.9716 4.80341 -2.66408e-20)
(14.9775 4.85681 3.91681e-20)
(15.0068 4.92438 5.59245e-19)
(15.0632 5.02137 0)
(15.1387 5.16409 2.61845e-18)
(15.2139 5.36297 2.49861e-19)
(15.2648 5.61691 -1.33093e-19)
(15.2719 5.91132 -3.55493e-18)
(15.23 6.22343 5.57722e-20)
(15.1478 6.52955 1.3539e-18)
(15.042 6.81428 -2.31126e-18)
(14.9284 7.06767 0)
(14.8161 7.29302 -1.00576e-18)
(14.7144 7.47977 1.36994e-18)
(14.6135 7.65523 0)
(14.5397 7.76141 -8.52069e-19)
(14.9635 4.56623 -5.28372e-20)
(14.9682 4.58036 3.24508e-20)
(14.9867 4.60057 -1.0975e-19)
(14.9943 4.62924 -2.19369e-18)
(14.9994 4.66697 4.71931e-18)
(14.9942 4.71099 -2.12274e-20)
(14.9851 4.75836 -5.22228e-20)
(14.9775 4.80697 -2.51e-18)
(14.9841 4.85902 3.87267e-20)
(15.0163 4.92366 0)
(15.0789 5.01689 2.06665e-18)
(15.1643 5.1566 7.04735e-20)
(15.2527 5.35484 1.06076e-19)
(15.3185 5.61181 3.11695e-20)
(15.3401 5.91271 -3.49714e-19)
(15.311 6.23318 2.70667e-18)
(15.2395 6.54712 -1.52517e-18)
(15.1432 6.83771 -2.2465e-19)
(15.0391 7.09394 -5.01751e-19)
(14.9371 7.32103 1.38646e-18)
(14.8473 7.50686 -9.90945e-19)
(14.7575 7.68436 2.09628e-18)
(14.6968 7.78786 -1.41592e-18)
(14.9648 4.56406 -2.78289e-19)
(14.9698 4.57895 -2.96161e-18)
(14.99 4.59917 -8.84477e-21)
(14.9985 4.62873 -2.32975e-18)
(15.0046 4.66753 -4.87402e-18)
(14.9998 4.71307 2.16287e-20)
(14.9907 4.76161 5.48581e-20)
(14.9828 4.81049 -1.60316e-19)
(14.9901 4.86113 1.16323e-18)
(15.0249 4.92261 1.75753e-19)
(15.0935 5.01166 -2.20978e-18)
(15.1888 5.14774 -2.91539e-18)
(15.2906 5.34464 3.03081e-18)
(15.372 5.60407 0)
(15.4092 5.91122 2.033e-18)
(15.3936 6.2402 0)
(15.3331 6.56219 2.04761e-18)
(15.2462 6.85861 1.26412e-18)
(15.1514 7.11678 -2.11392e-20)
(15.0594 7.34421 -1.55836e-18)
(14.9817 7.52592 -3.70515e-20)
(14.9033 7.70394 3.52018e-21)
(14.8583 7.79968 -5.84596e-19)
(14.9659 4.56163 -1.10533e-19)
(14.9714 4.57758 -2.30664e-20)
(14.993 4.59775 7.93008e-21)
(15.0024 4.62815 2.3238e-18)
(15.0095 4.66796 2.44046e-18)
(15.0052 4.71504 0)
(14.9961 4.76481 -3.17658e-20)
(14.9879 4.81409 2.68356e-18)
(14.9956 4.86342 1.02602e-19)
(15.0327 4.92166 -1.75027e-19)
(15.107 5.00611 1.09165e-18)
(15.2123 5.13779 4.51313e-18)
(15.3278 5.33243 -2.92087e-18)
(15.4257 5.59356 2.56102e-18)
(15.4795 5.90672 2.18298e-19)
(15.4785 6.24453 1.80935e-20)
(15.4296 6.57534 -1.20221e-19)
(15.3519 6.87845 -3.90189e-19)
(15.2654 7.13941 2.66873e-19)
(15.1817 7.36752 -4.46066e-19)
(15.114 7.54653 -2.92673e-20)
(15.0452 7.72307 3.97793e-19)
(15.0123 7.81768 0)
(14.9668 4.55925 -1.17197e-19)
(14.973 4.57626 0)
(14.9958 4.59637 0)
(15.0061 4.62756 2.35779e-18)
(15.0142 4.66834 2.57911e-18)
(15.0103 4.71694 -2.52409e-18)
(15.0013 4.76798 -2.96473e-20)
(14.9927 4.81769 1.83722e-20)
(15.0006 4.86569 -1.28498e-18)
(15.0399 4.92054 -1.54673e-20)
(15.1196 5 1.92712e-20)
(15.2347 5.12661 -1.52037e-18)
(15.3643 5.31809 0)
(15.4796 5.58013 -2.69479e-18)
(15.5514 5.89898 -4.28294e-18)
(15.5664 6.24605 -1.70622e-18)
(15.5299 6.58668 -1.00701e-18)
(15.4611 6.89749 0)
(15.3819 7.1622 0)
(15.3052 7.39042 7.77643e-19)
(15.2456 7.56747 5.58002e-19)
(15.1862 7.73711 -1.12611e-18)
(15.1631 7.83454 0)
(14.9674 4.557 5.31132e-19)
(14.9745 4.57501 -1.08901e-20)
(14.9984 4.59503 3.00548e-21)
(15.0095 4.62695 -2.34431e-18)
(15.0186 4.66867 -5.16101e-18)
(15.0153 4.71878 5.08181e-18)
(15.0062 4.77113 3.07834e-20)
(14.9972 4.8213 1.9615e-20)
(15.0052 4.86795 -2.58735e-20)
(15.0463 4.91918 0)
(15.1313 4.99316 -1.06655e-18)
(15.2561 5.11389 1.57765e-18)
(15.4003 5.30119 0)
(15.5342 5.56324 0)
(15.6256 5.88747 2.02023e-18)
(15.6581 6.24424 1.21091e-19)
(15.635 6.59584 1.1258e-18)
(15.5752 6.91548 8.24557e-19)
(15.5025 7.18487 -1.1554e-18)
(15.4315 7.41245 -4.17029e-19)
(15.3776 7.58728 1.65848e-18)
(15.3268 7.746 -1.52574e-18)
(15.3108 7.84774 9.94643e-19)
(14.968 4.55489 -3.77551e-19)
(14.9759 4.5738 -1.22939e-18)
(15.0007 4.59375 -1.15027e-20)
(15.0128 4.62633 1.51749e-20)
(15.0229 4.66894 2.62287e-18)
(15.0201 4.72055 -2.61188e-18)
(15.011 4.77426 1.83575e-20)
(15.0015 4.82495 -3.33275e-21)
(15.0094 4.87022 -2.7554e-20)
(15.0521 4.91761 7.33865e-21)
(15.1421 4.98555 -9.63314e-21)
(15.2767 5.09946 -1.57596e-18)
(15.4359 5.28138 1.75177e-18)
(15.5896 5.54236 -8.15205e-20)
(15.7025 5.8715 0)
(15.7547 6.23847 -1.88383e-19)
(15.7464 6.60246 1.43136e-19)
(15.6957 6.93249 -8.09315e-19)
(15.6283 7.20793 1.40948e-18)
(15.5608 7.43479 8.00901e-19)
(15.5092 7.60667 -5.30028e-19)
(15.4652 7.75345 -7.69711e-19)
(15.4529 7.8577 9.59337e-19)
(14.9684 4.55292 -4.45297e-20)
(14.9772 4.57266 1.23934e-18)
(15.0029 4.59251 0)
(15.0158 4.62568 0)
(15.027 4.66916 0)
(15.0247 4.72226 0)
(15.0156 4.77737 -1.92005e-20)
(15.0055 4.82862 1.42309e-20)
(15.0131 4.87248 1.46407e-20)
(15.0572 4.91577 7.10064e-21)
(15.1519 4.97705 -9.31557e-21)
(15.2962 5.0831 0)
(15.4711 5.25824 -3.42404e-18)
(15.646 5.5168 1.06467e-19)
(15.7827 5.85019 -2.18296e-19)
(15.857 6.22785 1.92115e-18)
(15.8652 6.60592 -1.47748e-19)
(15.8241 6.94855 2.1809e-19)
(15.7604 7.23204 -2.65206e-19)
(15.6935 7.45916 3.96349e-19)
(15.6405 7.62801 -5.35318e-19)
(15.6 7.76445 0)
(15.5867 7.86673 4.82985e-19)
(14.9687 4.55112 8.59542e-19)
(14.9784 4.57157 5.59617e-19)
(15.0049 4.59133 6.94618e-21)
(15.0187 4.62501 -1.25858e-18)
(15.0309 4.66932 -1.3791e-18)
(15.0293 4.72389 -1.29714e-20)
(15.0203 4.78045 2.4958e-18)
(15.0097 4.83234 -1.80454e-18)
(15.0168 4.87478 -8.95398e-19)
(15.0618 4.91372 0)
(15.1608 4.96768 2.97617e-20)
(15.3147 5.06469 -1.69911e-18)
(15.5056 5.23142 1.80217e-18)
(15.7033 5.48588 1.5195e-18)
(15.8662 5.82254 1.27493e-18)
(15.9657 6.21128 0)
(15.9929 6.60546 0)
(15.962 6.9637 -8.7046e-19)
(15.9005 7.25827 -8.66568e-19)
(15.8308 7.48804 3.93898e-19)
(15.7723 7.6554 2.68774e-19)
(15.7301 7.78444 3.3587e-19)
(15.7094 7.88072 -4.50297e-19)
(14.969 4.54948 -4.45809e-19)
(14.9796 4.57053 -5.62857e-19)
(15.0066 4.59019 6.02457e-21)
(15.0214 4.62434 -1.91056e-20)
(15.0346 4.66948 1.38209e-18)
(15.0335 4.72553 1.43638e-18)
(15.0244 4.78357 -1.18215e-18)
(15.0131 4.83611 1.79577e-18)
(15.0195 4.87699 9.04761e-19)
(15.0652 4.91117 9.90913e-21)
(15.1684 4.95692 0)
(15.3321 5.04351 1.65994e-18)
(15.5397 5.19991 1.83665e-18)
(15.7619 5.44829 -1.60075e-18)
(15.954 5.78694 -1.09207e-18)
(16.0822 6.18706 -4.70752e-19)
(16.1316 6.59976 -3.50762e-19)
(16.1121 6.97767 1.73907e-18)
(16.0514 7.28776 0)
(15.9752 7.52463 0)
(15.9073 7.69502 2.47966e-19)
(15.8577 7.82166 -6.30843e-19)
(15.8248 7.91159 -4.09578e-19)
(14.9692 4.54799 4.58761e-19)
(14.9807 4.56953 0)
(15.0084 4.58904 0)
(15.0242 4.62351 2.5588e-18)
(15.0388 4.66934 -1.4136e-18)
(15.0387 4.72682 -1.47216e-18)
(15.03 4.78649 4.09227e-20)
(15.0182 4.84 -9.67908e-19)
(15.0236 4.87971 -2.17455e-20)
(15.0693 4.90928 1.71205e-19)
(15.1755 4.94647 3.00775e-20)
(15.3478 5.02139 -3.92e-20)
(15.5717 5.16514 -1.83387e-18)
(15.8198 5.40455 1.73008e-18)
(16.0444 5.74286 1.29899e-18)
(16.2062 6.15392 -1.02543e-18)
(16.2827 6.58756 8.2068e-19)
(16.2776 6.99017 -8.67821e-19)
(16.2171 7.32213 0)
(16.1317 7.57353 0)
(16.051 7.75359 -2.33335e-19)
(15.9877 7.88205 1.39961e-19)
(15.9363 7.96575 -3.61801e-19)
(14.9695 4.54673 -7.33739e-21)
(14.9816 4.56878 5.3248e-19)
(15.0094 4.5883 0)
(15.0259 4.6234 -6.36892e-19)
(15.0406 4.67022 2.89287e-18)
(15.0403 4.72922 -1.422e-20)
(15.0306 4.79004 6.98454e-20)
(15.0173 4.84328 9.96362e-19)
(15.0218 4.87995 -1.84793e-20)
(15.0686 4.90277 -1.60287e-19)
(15.1796 4.92917 -7.08572e-21)
(15.3629 4.99037 -8.13591e-19)
(15.6053 5.11953 -1.23199e-19)
(15.882 5.34826 -1.62761e-18)
(16.1423 5.68519 -1.47662e-18)
(16.3417 6.10759 6.22757e-20)
(16.4495 6.56535 0)
(16.4622 6.99916 -1.12262e-19)
(16.4035 7.36186 1.4123e-19)
(16.3081 7.63701 0)
(16.21 7.8334 2.07724e-19)
(16.1251 7.97037 -1.3355e-19)
(16.0513 8.05659 0)
(14.9693 4.54519 -4.53775e-19)
(14.9826 4.56712 -5.33129e-19)
(15.0114 4.58598 0)
(15.0292 4.62046 -6.49251e-19)
(15.0461 4.66713 -2.95339e-18)
(15.0476 4.72742 -1.56685e-18)
(15.0391 4.79121 -2.79797e-18)
(15.0255 4.84873 0)
(15.028 4.88888 -1.20028e-18)
(15.0723 4.9113 2.66245e-19)
(15.1829 4.93087 4.37727e-19)
(15.3714 4.97829 8.54129e-19)
(15.628 5.08848 -1.90678e-20)
(15.9319 5.29831 2.45695e-20)
(16.2324 5.62416 -1.51427e-18)
(16.4797 6.05098 1.04926e-18)
(16.6321 6.53243 0)
(16.6734 7.00437 4.71358e-19)
(16.6205 7.40916 0)
(16.5118 7.72069 0)
(16.3912 7.94696 -1.96564e-19)
(16.2846 8.10568 -3.22441e-19)
(16.1868 8.19842 2.55145e-19)
(14.9698 4.54435 0)
(14.9833 4.56652 2.17552e-23)
(15.0123 4.58529 -7.85971e-23)
(15.0305 4.61976 6.70652e-19)
(15.0478 4.66664 7.25513e-19)
(15.0497 4.72777 1.56739e-18)
(15.041 4.79308 1.42072e-18)
(15.0267 4.85246 9.8263e-22)
(15.028 4.89365 5.6333e-19)
(15.0713 4.91443 4.58742e-20)
(15.183 4.92772 -2.11465e-20)
(15.3775 4.96311 0)
(15.6479 5.05558 1.96281e-20)
(15.9788 5.2459 -2.52572e-20)
(16.32 5.5576 2.24594e-18)
(16.6193 5.98404 6.66983e-20)
(16.8257 6.48577 0)
(16.9091 6.99805 1.43484e-19)
(16.8757 7.45549 -1.43356e-19)
(16.7653 7.82247 0)
(16.6281 8.0953 0)
(16.4838 8.27209 1.91795e-19)
(16.3276 8.3569 -9.998e-20)
(14.97 4.54361 -3.90756e-19)
(14.9839 4.56606 -5.45743e-19)
(15.013 4.58481 0)
(15.0318 4.61935 -6.7174e-19)
(15.0495 4.66657 7.68589e-19)
(15.0517 4.72864 1.66766e-18)
(15.0431 4.79543 -1.52113e-18)
(15.0282 4.85648 1.1626e-18)
(15.0284 4.89827 6.37729e-19)
(15.0709 4.91684 -4.88992e-19)
(15.1836 4.92315 -4.18608e-19)
(15.3834 4.94557 -8.56233e-19)
(15.6669 5.0187 -1.02484e-18)
(16.0242 5.18673 0)
(16.4076 5.48014 -7.88869e-19)
(16.7637 5.90125 1.23926e-18)
(17.0338 6.42007 5.01592e-20)
(17.1734 6.97564 -5.45388e-19)
(17.1755 7.49833 0)
(17.0716 7.93614 0)
(16.8969 8.26 0)
(16.6848 8.4708 -2.37716e-19)
(16.5061 8.62192 1.57922e-19)
(14.9701 4.54293 3.91531e-19)
(14.9844 4.56564 -1.18122e-20)
(15.0138 4.58439 0)
(15.033 4.61901 7.10471e-19)
(15.0512 4.66659 8.08087e-23)
(15.054 4.72961 -2.53032e-18)
(15.0456 4.79791 3.09214e-18)
(15.0304 4.8606 -3.56959e-18)
(15.0296 4.90294 4.4207e-22)
(15.0712 4.91914 1.75885e-19)
(15.1843 4.91809 -1.98007e-19)
(15.3887 4.92669 8.61538e-19)
(15.6839 4.97863 1.0149e-18)
(16.0665 5.12093 -1.02608e-18)
(16.4928 5.39061 1.47049e-20)
(16.9104 5.79936 -1.24926e-18)
(17.2554 6.32925 0)
(17.4701 6.92808 0)
(17.5284 7.52269 3.14286e-19)
(17.4361 8.04158 0)
(17.2359 8.45994 0)
(17.0649 8.82817 4.48895e-20)
(17.0328 9.18793 5.31188e-20)
(14.9702 4.5423 0)
(14.9849 4.56526 5.59545e-19)
(15.0145 4.584 -1.74649e-23)
(15.0342 4.6187 2.26603e-20)
(15.053 4.66661 6.83484e-23)
(15.0562 4.73059 1.74673e-18)
(15.0481 4.80041 -1.57088e-18)
(15.0326 4.86476 2.4081e-18)
(15.0308 4.90768 7.22163e-19)
(15.0712 4.9215 0)
(15.1843 4.91283 1.97448e-19)
(15.3923 4.90688 1.87141e-21)
(15.6978 4.93579 1.05176e-21)
(16.1046 5.0486 1.02155e-18)
(16.5739 5.28815 0)
(17.057 5.67533 7.11535e-19)
(17.4884 6.20624 -1.38668e-20)
(17.7985 6.84035 0)
(17.9364 7.50335 -3.07786e-19)
(17.8971 8.13157 0)
(17.8003 8.75198 0)
(17.8329 9.39 0)
(17.8613 9.8907 -4.76247e-21)
(14.9703 4.54173 0)
(14.9854 4.56491 -2.93207e-19)
(15.0152 4.58364 3.51282e-24)
(15.0353 4.61839 -7.35404e-19)
(15.0547 4.66664 -8.71511e-19)
(15.0585 4.73154 -1.79681e-18)
(15.0506 4.80288 0)
(15.0348 4.86894 1.26981e-18)
(15.0319 4.91249 -1.46694e-18)
(15.0709 4.92394 -4.94531e-23)
(15.1833 4.90748 1.90196e-19)
(15.394 4.88633 -4.42636e-19)
(15.7082 4.89038 0)
(16.1374 4.96978 0)
(16.6491 5.17203 9.62295e-19)
(17.2004 5.5263 -6.97116e-19)
(17.728 6.04286 0)
(18.1528 6.69378 -6.64755e-19)
(18.4094 7.41737 -3.91195e-19)
(18.5285 8.19811 0)
(18.6788 9.07805 2.11032e-21)
(18.8144 9.87953 -1.10838e-21)
(18.434 10.2374 -1.63368e-20)
(14.9704 4.54122 -2.60269e-24)
(14.9859 4.5646 5.94317e-19)
(15.0159 4.5833 8.1996e-24)
(15.0365 4.61809 0)
(15.0564 4.66665 -2.45828e-20)
(15.0608 4.73247 1.84429e-18)
(15.0532 4.80533 3.61573e-22)
(15.037 4.87313 -1.27084e-18)
(15.033 4.91737 7.4443e-19)
(15.0703 4.9265 -2.29945e-19)
(15.1815 4.90211 -4.94625e-21)
(15.3938 4.86518 8.89455e-19)
(15.7148 4.84264 -1.10471e-18)
(16.1641 4.8846 3.65946e-21)
(16.7162 5.04181 -1.98013e-18)
(17.3362 5.34972 8.23254e-19)
(17.9666 5.83078 -3.35977e-20)
(18.5252 6.47118 6.81213e-19)
(18.9592 7.24168 3.81532e-19)
(19.3467 8.17747 0)
(19.7222 9.21879 1.27112e-19)
(19.5923 9.92883 0)
(18.3765 9.94507 -3.64982e-20)
(14.9704 4.54077 0)
(14.9864 4.56431 -3.01101e-19)
(15.0166 4.583 -3.3773e-19)
(15.0376 4.6178 -3.9597e-23)
(15.0581 4.66664 1.82058e-18)
(15.0631 4.73336 -9.34481e-19)
(15.0558 4.80774 0)
(15.0394 4.87732 0)
(15.0341 4.92234 2.61957e-22)
(15.0694 4.92922 2.29815e-19)
(15.1788 4.8968 -6.68631e-21)
(15.3915 4.8436 -4.4572e-19)
(15.7172 4.79282 1.10132e-18)
(16.1835 4.79337 0)
(16.7725 4.89746 1.00999e-18)
(17.4588 5.1438 -7.97887e-19)
(18.1939 5.56352 5.87209e-19)
(18.9039 6.15939 4.76323e-20)
(19.5706 6.94399 0)
(20.2585 7.95981 0)
(20.6692 8.9732 -5.93398e-20)
(19.9233 9.42289 -1.68831e-19)
(17.7712 9.13556 4.78684e-20)
(14.9705 4.54038 0)
(14.9868 4.56405 1.32977e-23)
(15.0172 4.58271 3.38208e-19)
(15.0387 4.61751 -4.193e-19)
(15.0598 4.66662 -9.23051e-19)
(15.0654 4.73422 -2.00062e-22)
(15.0585 4.81012 -8.80516e-19)
(15.0418 4.88152 -6.77546e-19)
(15.0352 4.92739 8.07046e-19)
(15.0683 4.93211 0)
(15.1751 4.89161 -8.91286e-21)
(15.387 4.82175 -4.45493e-19)
(15.715 4.74124 0)
(16.1945 4.69661 -2.32524e-20)
(16.8154 4.73948 1.13913e-18)
(17.5619 4.90796 0)
(18.3981 5.23797 -2.56504e-20)
(19.2693 5.74957 -1.03637e-20)
(20.1912 6.48688 7.74071e-19)
(21.1196 7.45279 0)
(21.3493 8.28122 0)
(19.8503 8.45858 9.46911e-20)
(16.9321 8.02738 -3.07307e-19)
(14.9706 4.54003 5.69162e-24)
(14.9873 4.56383 -7.50062e-24)
(15.0179 4.58245 0)
(15.0398 4.61722 -4.43657e-19)
(15.0615 4.66658 5.03998e-22)
(15.0677 4.73504 -4.08985e-22)
(15.0612 4.81247 8.80926e-19)
(15.0442 4.88571 6.78807e-19)
(15.0362 4.93254 -8.07773e-19)
(15.0668 4.9352 2.76419e-19)
(15.1703 4.88663 -1.70297e-19)
(15.3801 4.7998 4.51451e-19)
(15.7077 4.68834 5.58674e-19)
(16.1958 4.59506 5.864e-19)
(16.842 4.56889 -1.12402e-18)
(17.6388 4.64332 5.28264e-20)
(18.5658 4.85532 -7.88459e-19)
(19.5924 5.2378 -4.25477e-19)
(20.7454 5.84349 -2.59961e-19)
(21.806 6.62434 2.30312e-19)
(21.7341 7.19272 -2.77301e-19)
(19.5577 7.179 0)
(16.124 6.74853 2.15159e-19)
(14.9706 4.53974 0)
(14.9877 4.56363 -3.33818e-19)
(15.0185 4.58221 -3.75312e-19)
(15.0408 4.61694 4.21259e-19)
(15.0631 4.66652 -4.94912e-19)
(15.07 4.73582 0)
(15.0639 4.81477 -9.72037e-22)
(15.0467 4.88991 1.28011e-21)
(15.0372 4.93779 -4.27335e-19)
(15.0649 4.93852 -4.24701e-19)
(15.1646 4.88191 -1.43497e-19)
(15.3708 4.77798 -2.30398e-21)
(15.6952 4.63459 -1.11947e-22)
(16.1866 4.48961 -6.12135e-19)
(16.8496 4.38734 0)
(17.6833 4.35304 1.04435e-18)
(18.683 4.42101 -8.26341e-19)
(19.8377 4.6275 5.50423e-19)
(21.156 5.01225 2.83096e-19)
(22.236 5.50597 3.04448e-20)
(21.8425 5.7907 -3.68183e-19)
(19.1514 5.66638 2.87345e-19)
(15.3833 5.32132 3.14181e-19)
(14.9707 4.5395 -1.1938e-19)
(14.9881 4.56346 -7.67322e-21)
(15.0191 4.58199 3.75823e-19)
(15.0418 4.61666 4.43439e-19)
(15.0648 4.66644 1.00049e-18)
(15.0723 4.73655 1.03335e-18)
(15.0667 4.81702 9.9102e-22)
(15.0492 4.8941 -1.30503e-21)
(15.0382 4.94313 4.27694e-19)
(15.0628 4.9421 1.48223e-19)
(15.1578 4.87756 2.74638e-19)
(15.359 4.75648 -4.30384e-19)
(15.6771 4.58052 -5.67943e-19)
(16.1659 4.38137 6.31278e-19)
(16.8359 4.19723 -4.74571e-20)
(17.6897 4.04232 -9.13221e-19)
(18.7358 3.94442 8.60409e-19)
(19.9718 3.93335 -1.02498e-18)
(21.3643 4.03173 -2.2869e-19)
(22.3764 4.18474 0)
(21.7172 4.20279 5.13052e-19)
(18.7411 4.03656 -6.29993e-19)
(14.8372 3.85258 9.17648e-19)
(14.9707 4.53932 1.19516e-19)
(14.9885 4.56333 5.17155e-19)
(15.0197 4.58179 3.98249e-19)
(15.0429 4.61639 -4.63821e-19)
(15.0664 4.66634 -5.05442e-19)
(15.0746 4.73725 -1.03414e-18)
(15.0695 4.81923 -9.47104e-19)
(15.0518 4.89829 0)
(15.0392 4.94859 -4.54789e-19)
(15.0604 4.94596 1.71326e-19)
(15.1499 4.87365 -1.29354e-19)
(15.3448 4.73555 4.31076e-19)
(15.6535 4.52672 0)
(16.133 4.27167 -5.80531e-19)
(16.7989 4.00165 5.83413e-19)
(17.6532 3.71773 -5.86993e-19)
(18.7129 3.43812 2.71701e-19)
(19.9707 3.18304 3.69885e-19)
(21.3481 2.96519 -1.20799e-18)
(22.2408 2.7747 7.81989e-19)
(21.4453 2.56365 0)
(18.4993 2.38269 -1.83078e-18)
(14.735 2.36206 3.10732e-18)
(14.9707 4.53918 0)
(14.9889 4.56321 -1.75015e-19)
(15.0202 4.58161 -3.98571e-19)
(15.0438 4.61611 4.64427e-19)
(15.068 4.66622 1.24416e-22)
(15.077 4.7379 -4.40765e-22)
(15.0724 4.82139 4.65273e-19)
(15.0544 4.90248 0)
(15.0401 4.95416 4.55141e-19)
(15.0576 4.95014 1.31476e-20)
(15.1411 4.87026 0)
(15.328 4.7154 -2.0478e-19)
(15.6241 4.47383 0)
(16.0872 4.16208 5.44369e-20)
(16.7372 3.8041 -1.29105e-18)
(17.5704 3.38638 4.62531e-19)
(18.6072 2.91738 2.95528e-19)
(19.8258 2.41124 -1.2033e-18)
(21.1077 1.87834 6.12059e-19)
(21.856 1.3629 1.07688e-18)
(21.0473 0.91783 -1.86263e-18)
(18.2848 0.637672 1.83656e-18)
(14.7658 0.599267 -7.34458e-18)
(14.9707 4.53909 1.30032e-19)
(14.9893 4.56313 -1.82367e-19)
(15.0208 4.58146 2.09494e-19)
(15.0448 4.61584 2.58933e-22)
(15.0697 4.66608 -5.55496e-22)
(15.0793 4.7385 1.08842e-21)
(15.0753 4.8235 4.82393e-19)
(15.0571 4.90666 -2.83213e-21)
(15.0411 4.95985 1.90382e-21)
(15.0546 4.95466 1.41916e-20)
(15.1312 4.86748 -3.31675e-20)
(15.3088 4.69626 1.94847e-19)
(15.5891 4.42259 1.3347e-20)
(16.0282 4.05429 -5.53396e-20)
(16.65 3.60805 7.46816e-19)
(17.4397 3.05572 0)
(18.4171 2.39898 5.5281e-19)
(19.5403 1.65173 8.65621e-19)
(20.6594 0.830817 -7.9909e-19)
(21.2348 0.00981185 2.28606e-18)
(20.3457 -0.684064 -1.21308e-18)
(17.739 -1.15592 3.12674e-19)
(14.5606 -1.32475 3.77552e-18)
(14.9708 4.53905 -2.62515e-19)
(14.9897 4.56308 1.82575e-19)
(15.0213 4.58132 5.02452e-21)
(15.0458 4.61557 0)
(15.0713 4.66592 0)
(15.0817 4.73906 5.54785e-19)
(15.0782 4.82556 5.00296e-19)
(15.0599 4.91082 0)
(15.0421 4.96566 1.52751e-21)
(15.0514 4.95954 -2.01142e-19)
(15.1204 4.86538 3.60535e-20)
(15.2871 4.67838 -3.71007e-21)
(15.5485 4.37378 -2.48134e-20)
(15.9559 3.94988 8.79148e-20)
(16.537 3.41665 -7.1594e-20)
(17.2613 2.73326 0)
(18.1458 1.89873 -8.12905e-19)
(19.1264 0.935587 1.15442e-19)
(20.0367 -0.137047 -2.37428e-18)
(20.3888 -1.18278 1.13302e-18)
(19.4144 -2.06768 1.87276e-18)
(17.0695 -2.69745 -3.00435e-18)
(14.3506 -2.93423 0)
(14.9708 4.53905 2.67106e-19)
(14.9901 4.56305 -1.79002e-23)
(15.0218 4.5812 -2.15025e-19)
(15.0468 4.61531 0)
(15.0729 4.66574 0)
(15.0841 4.73957 9.27674e-21)
(15.0812 4.82756 -1.00982e-18)
(15.0627 4.91498 0)
(15.0431 4.9716 -2.60217e-19)
(15.0479 4.9648 0)
(15.1085 4.86404 0)
(15.263 4.66201 -9.70417e-21)
(15.5026 4.32809 1.2615e-20)
(15.8703 3.85022 2.51527e-19)
(16.3983 3.23298 7.20192e-20)
(17.0375 2.42608 -2.08082e-19)
(17.8014 1.43075 8.67966e-19)
(18.6063 0.284267 0)
(19.2821 -0.968523 8.24477e-19)
(19.4075 -2.16214 0)
(18.368 -3.1717 4.42421e-19)
(16.283 -3.87361 6.05157e-19)
(14.0107 -4.15414 0)
(14.9708 4.5391 -2.03276e-19)
(14.9904 4.56304 9.74553e-20)
(15.0223 4.58111 0)
(15.0477 4.61504 -2.57302e-19)
(15.0744 4.66553 2.83202e-19)
(15.0864 4.74002 -5.65567e-19)
(15.0842 4.8295 5.10384e-19)
(15.0656 4.91911 4.12989e-19)
(15.0441 4.97766 2.58296e-19)
(15.0442 4.97048 8.02626e-22)
(15.0958 4.86355 -1.05178e-21)
(15.2366 4.64735 1.70042e-19)
(15.4518 4.28609 2.35189e-20)
(15.7716 3.75659 -3.95686e-19)
(16.2349 3.06066 7.18366e-20)
(16.7713 2.14119 0)
(17.3938 1.00566 0)
(18.0056 -0.289193 0)
(18.4504 -1.65383 0)
(18.3567 -2.92399 -3.10352e-19)
(17.2794 -3.9873 -2.0923e-18)
(15.4514 -4.69407 1.97846e-18)
(13.5759 -4.9997 0)
(14.9709 4.53919 6.85998e-20)
(14.9908 4.56306 -1.97315e-19)
(15.0228 4.58103 0)
(15.0486 4.61478 2.57676e-19)
(15.076 4.6653 -5.7285e-19)
(15.0888 4.74043 0)
(15.0872 4.83138 0)
(15.0685 4.92323 -4.1164e-19)
(15.0451 4.98384 0)
(15.0402 4.97659 1.3129e-19)
(15.0822 4.86399 1.36014e-20)
(15.208 4.63453 -9.11937e-20)
(15.3965 4.24827 2.37439e-19)
(15.6606 3.67084 0)
(16.0482 2.90361 0)
(16.4675 1.88421 2.18998e-19)
(16.9339 0.627622 -2.89041e-19)
(17.3497 -0.778855 0)
(17.5815 -2.20227 -4.26084e-19)
(17.2955 -3.49256 3.19792e-19)
(16.2126 -4.54426 1.76667e-18)
(14.6189 -5.21691 -2.16773e-18)
(13.0722 -5.53788 0)
(14.9709 4.53933 -1.45112e-23)
(14.9911 4.56311 2.02077e-19)
(15.0233 4.58096 8.137e-23)
(15.0495 4.61452 1.34264e-19)
(15.0775 4.66505 2.8965e-19)
(15.0911 4.74079 -2.9803e-19)
(15.0902 4.8332 -9.24908e-22)
(15.0715 4.92733 2.1672e-19)
(15.0461 4.99016 -2.91405e-19)
(15.0361 4.98316 -1.29878e-19)
(15.0678 4.8654 -1.2349e-20)
(15.1773 4.62362 -7.93497e-20)
(15.3375 4.21539 -2.38357e-19)
(15.5382 3.59543 -5.29291e-20)
(15.8392 2.76482 6.9414e-20)
(16.129 1.65623 2.22454e-19)
(16.4315 0.295155 -2.97678e-19)
(16.6638 -1.18323 0)
(16.7069 -2.62054 4.40224e-19)
(16.2633 -3.89228 0)
(15.2015 -4.88654 -2.11219e-19)
(13.8094 -5.5046 0)
(12.5275 -5.83015 -7.41257e-20)
(14.9709 4.53951 -3.66964e-20)
(14.9914 4.56318 -1.02236e-19)
(15.0238 4.58092 -1.21826e-19)
(15.0504 4.61426 2.51374e-21)
(15.079 4.66477 4.84278e-22)
(15.0935 4.74109 -5.91576e-21)
(15.0933 4.83495 2.74629e-19)
(15.0745 4.9314 6.12593e-21)
(15.0473 4.9966 2.87462e-19)
(15.0319 4.99021 1.31692e-21)
(15.0526 4.86784 -3.15416e-20)
(15.1447 4.61475 0)
(15.2754 4.18832 -1.97938e-20)
(15.4057 3.53208 2.60121e-20)
(15.6085 2.64465 1.66304e-19)
(15.7596 1.45514 0)
(15.8986 0.00638858 0)
(15.965 -1.51133 -2.76427e-19)
(15.8421 -2.93257 0)
(15.2821 -4.14918 1.19407e-18)
(14.2615 -5.06333 -1.28368e-18)
(13.0443 -5.62219 1.10704e-19)
(11.9812 -5.94501 2.34563e-18)
(14.971 4.53973 7.43941e-20)
(14.9917 4.56328 5.35729e-20)
(15.0242 4.58089 1.84274e-19)
(15.0512 4.614 -1.37992e-19)
(15.0805 4.66447 -1.528e-19)
(15.0958 4.74134 4.59006e-19)
(15.0964 4.83663 -2.75017e-19)
(15.0777 4.93544 -2.18028e-19)
(15.0484 5.00318 -4.38288e-21)
(15.0276 4.99774 2.7086e-21)
(15.0368 4.87134 2.98458e-20)
(15.1103 4.60806 -2.88717e-20)
(15.2113 4.16766 8.07434e-20)
(15.2645 3.48153 1.32243e-19)
(15.3562 2.544 -1.6911e-19)
(15.3607 1.28329 0)
(15.3448 -0.238263 0)
(15.2712 -1.77608 -5.901e-19)
(15.0159 -3.15653 7.58756e-19)