/*--------------------------------*- C++ -*----------------------------------*\
  =========                 |
  \\      /  F ield         | OpenFOAM: The Open Source CFD Toolbox
   \\    /   O peration     | Website:  https://openfoam.org
    \\  /    A nd           | Version:  7
     \\/     M anipulation  |
\*---------------------------------------------------------------------------*/
FoamFile
{
    version     2.0;
    format      ascii;
    class       volScalarField;
    location    "100";
    object      yPlus;
}
// * * * * * * * * * * * * * * * * * * * * * * * * * * * * * * * * * * * * * //

dimensions      [0 0 0 0 0 0 0];

internalField   uniform 0;

boundaryField
{
    inlet
    {
        type            calculated;
        value           uniform 0;
    }
    outlet
    {
        type            calculated;
        value           uniform 0;
    }
    suction_side
    {
        type            calculated;
        value           nonuniform List<scalar> 
56
(
29.0656
31.4189
34.1746
37.6311
41.1079
45.5283
49.5695
53.6417
56.618
54.8943
44.911
24.9699
30.3984
34.3438
33.8328
33.6291
32.5147
39.0449
42.001
43.0461
42.0882
40.0451
30.5006
24.1851
23.6571
26.1746
26.548
28.0093
29.5229
33.5113
36.8284
30.5085
22.6078
28.0142
33.0281
35.8565
37.328
38.2697
38.1864
37.8016
37.0407
35.9585
34.63
33.2964
32.0206
30.9014
29.926
28.5924
28.3695
29.2052
28.9724
28.5398
24.298
21.7956
20.4169
20.3727
)
;
    }
    pressure_side
    {
        type            calculated;
        value           nonuniform List<scalar> 
56
(
35.6103
34.4134
34.7985
35.0351
35.3345
35.6972
36.0382
36.3516
36.6135
36.7194
36.7575
36.7494
36.734
36.712
36.6635
36.6239
36.5621
36.4922
36.4018
36.2859
36.144
35.9705
35.7882
35.6249
35.5191
35.4786
35.5108
35.6424
35.8914
36.2293
36.6053
36.9157
36.9635
36.2574
35.0848
33.2452
30.7186
27.3932
23.4085
19.0207
14.7029
11.0958
6.1425
5.08737
4.74153
5.155
5.80415
6.51291
7.06744
8.6489
9.18715
10.0653
15.798
19.2778
23.6622
26.3953
)
;
    }
    trailing_edge
    {
        type            calculated;
        value           nonuniform List<scalar> 2(131.248 106.869);
    }
    defaultFaces
    {
        type            empty;
    }
}


// ************************************************************************* //
