/*--------------------------------*- C++ -*----------------------------------*\
  =========                 |
  \\      /  F ield         | OpenFOAM: The Open Source CFD Toolbox
   \\    /   O peration     | Website:  https://openfoam.org
    \\  /    A nd           | Version:  7
     \\/     M anipulation  |
\*---------------------------------------------------------------------------*/
FoamFile
{
    version     2.0;
    format      ascii;
    class       volScalarField;
    location    "0.1";
    object      p;
}
// * * * * * * * * * * * * * * * * * * * * * * * * * * * * * * * * * * * * * //

dimensions      [0 2 -2 0 0 0 0];

internalField   nonuniform List<scalar> 
100
(
6.77379e-08
-0.0140308
-0.0157053
-0.00172006
0.0240664
0.0548855
0.0823257
0.0980658
0.0967039
0.0816668
0.0137223
-0.00259243
-0.00444421
0.00702633
0.0272407
0.051335
0.0732705
0.0865919
0.0849834
0.0672976
0.0183271
-0.00436632
-0.00712878
0.00484921
0.0251786
0.0495402
0.0726158
0.0878355
0.0859095
0.0609975
0.00512235
-0.0238657
-0.0254864
-0.00912989
0.0166146
0.0475121
0.0783121
0.101322
0.102763
0.0708806
-0.0355579
-0.0671158
-0.0625158
-0.0367449
-0.000430325
0.0428448
0.0883958
0.127477
0.140705
0.10743
-0.119086
-0.143378
-0.12288
-0.0806077
-0.0279569
0.0337909
0.102208
0.168926
0.209235
0.189797
-0.270393
-0.262892
-0.20868
-0.139852
-0.0643883
0.0216212
0.121109
0.229596
0.321797
0.351121
-0.541521
-0.432499
-0.311272
-0.203287
-0.0994021
0.0140596
0.149713
0.313731
0.498274
0.662144
-1.07572
-0.644058
-0.387548
-0.23437
-0.110251
0.0189647
0.18091
0.406309
0.757544
1.29423
-1.99483
-0.8515
-0.363677
-0.186072
-0.0793338
0.0266563
0.176548
0.443882
1.04972
2.30846
)
;

boundaryField
{
    movingWall
    {
        type            zeroGradient;
    }
    fixedWalls
    {
        type            zeroGradient;
    }
    frontAndBack
    {
        type            empty;
    }
}


// ************************************************************************* //
