/*--------------------------------*- C++ -*----------------------------------*\
  =========                 |
  \\      /  F ield         | OpenFOAM: The Open Source CFD Toolbox
   \\    /   O peration     | Website:  https://openfoam.org
    \\  /    A nd           | Version:  7
     \\/     M anipulation  |
\*---------------------------------------------------------------------------*/
FoamFile
{
    version     2.0;
    format      ascii;
    class       surfaceScalarField;
    location    "0.1";
    object      phi;
}
// * * * * * * * * * * * * * * * * * * * * * * * * * * * * * * * * * * * * * //

dimensions      [0 3 -1 0 0 0 0];

internalField   nonuniform List<scalar> 
180
(
-1.99423e-07
1.99422e-07
-1.10114e-06
9.01713e-07
-2.23942e-06
1.13828e-06
-3.14021e-06
9.00789e-07
-3.50619e-06
3.65985e-07
-3.21394e-06
-2.92256e-07
-2.3289e-06
-8.85039e-07
-1.14554e-06
-1.18336e-06
-1.97453e-07
-9.48085e-07
-1.97453e-07
-9.70366e-07
1.16979e-06
-3.16402e-06
3.09537e-06
-5.61594e-06
3.5902e-06
-7.48971e-06
2.77456e-06
-8.23646e-06
1.11273e-06
-7.62935e-06
-8.99366e-07
-5.79623e-06
-2.71816e-06
-3.27102e-06
-3.70858e-06
-9.82226e-07
-3.23688e-06
-1.17968e-06
-1.69437e-06
2.86416e-06
-5.02803e-06
6.42902e-06
-8.51458e-06
7.07675e-06
-1.10932e-05
5.35322e-06
-1.21226e-05
2.1421e-06
-1.13352e-05
-1.68678e-06
-8.85005e-06
-5.2033e-06
-5.26279e-06
-7.29584e-06
-1.75062e-06
-6.74905e-06
-2.9303e-06
-2.43151e-06
5.29567e-06
-6.85004e-06
1.08476e-05
-1.12114e-05
1.14381e-05
-1.43344e-05
8.47626e-06
-1.56065e-05
3.41412e-06
-1.47644e-05
-2.52883e-06
-1.18509e-05
-8.11681e-06
-7.36847e-06
-1.17783e-05
-2.6164e-06
-1.15011e-05
-5.5467e-06
-3.29179e-06
8.58746e-06
-8.66938e-06
1.62251e-05
-1.35639e-05
1.63327e-05
-1.69067e-05
1.1819e-05
-1.83083e-05
4.8157e-06
-1.75886e-05
-3.2485e-06
-1.4645e-05
-1.10604e-05
-9.65821e-06
-1.67651e-05
-3.73957e-06
-1.74198e-05
-9.28627e-06
-4.3282e-06
1.29157e-05
-1.02342e-05
2.21312e-05
-1.48501e-05
2.09486e-05
-1.76991e-05
1.4668e-05
-1.89226e-05
6.03921e-06
-1.85544e-05
-3.61675e-06
-1.63028e-05
-1.3312e-05
-1.17287e-05
-2.13392e-05
-5.14962e-06
-2.39988e-05
-1.44359e-05
-5.45987e-06
1.83755e-05
-1.07044e-05
2.73757e-05
-1.33999e-05
2.36441e-05
-1.44709e-05
1.5739e-05
-1.49206e-05
6.48891e-06
-1.51285e-05
-3.40884e-06
-1.46586e-05
-1.37819e-05
-1.22398e-05
-2.37579e-05
-6.52548e-06
-2.97132e-05
-2.09614e-05
-6.12451e-06
2.45e-05
-7.74132e-06
2.89925e-05
-5.78578e-06
2.16886e-05
-3.36864e-06
1.33219e-05
-2.27746e-06
5.39773e-06
-3.17241e-06
-2.5139e-06
-5.69787e-06
-1.12565e-05
-8.05902e-06
-2.13968e-05
-6.69413e-06
-3.10781e-05
-2.76555e-05
-2.15606e-06
2.66561e-05
5.48969e-06
2.13467e-05
1.48534e-05
1.23249e-05
2.15465e-05
6.62875e-06
2.43846e-05
2.55965e-06
2.29738e-05
-1.10309e-06
1.71694e-05
-5.45212e-06
7.81658e-06
-1.20439e-05
-7.65367e-07
-2.24961e-05
-2.84209e-05
2.66561e-05
4.80028e-05
6.03277e-05
6.69565e-05
6.95161e-05
6.8413e-05
6.29609e-05
5.0917e-05
2.84209e-05
)
;

boundaryField
{
    movingWall
    {
        type            calculated;
        value           uniform 0;
    }
    fixedWalls
    {
        type            calculated;
        value           uniform 0;
    }
    frontAndBack
    {
        type            empty;
        value           nonuniform 0();
    }
}


// ************************************************************************* //
