/*--------------------------------*- C++ -*----------------------------------*\
  =========                 |
  \\      /  F ield         | OpenFOAM: The Open Source CFD Toolbox
   \\    /   O peration     | Website:  https://openfoam.org
    \\  /    A nd           | Version:  7
     \\/     M anipulation  |
\*---------------------------------------------------------------------------*/
FoamFile
{
    version     2.0;
    format      ascii;
    class       volVectorField;
    location    "0.1";
    object      U;
}
// * * * * * * * * * * * * * * * * * * * * * * * * * * * * * * * * * * * * * //

dimensions      [0 1 -1 0 0 0 0];

internalField   nonuniform List<vector> 
100
(
(-0.00037491 0.000308694 0)
(-0.0056395 0.00326348 0)
(-0.0167109 0.00442688 0)
(-0.0276931 0.00359196 0)
(-0.034438 0.00150317 0)
(-0.0348501 -0.00111174 0)
(-0.028602 -0.0034677 0)
(-0.0174387 -0.00458225 0)
(-0.00581179 -0.00342997 0)
(-0.000315273 -0.000276499 0)
(-0.00361653 0.00545169 0)
(-0.0189844 0.0173758 0)
(-0.0441538 0.0210385 0)
(-0.0675946 0.0165324 0)
(-0.0815934 0.00672457 0)
(-0.0823837 -0.00528803 0)
(-0.0693997 -0.0160928 0)
(-0.0457391 -0.0216754 0)
(-0.0195377 -0.0181097 0)
(-0.00359488 -0.00540705 0)
(-0.00684583 0.0187996 0)
(-0.031524 0.0450926 0)
(-0.0683907 0.0509813 0)
(-0.101105 0.0390687 0)
(-0.120221 0.0156875 0)
(-0.121568 -0.0124532 0)
(-0.104317 -0.038016 0)
(-0.0715276 -0.0524379 0)
(-0.0330013 -0.0470368 0)
(-0.00703392 -0.0189863 0)
(-0.0103315 0.0394437 0)
(-0.0442677 0.0842392 0)
(-0.0915653 0.090929 0)
(-0.131592 0.0682255 0)
(-0.154568 0.0274017 0)
(-0.156906 -0.020983 0)
(-0.137423 -0.0658055 0)
(-0.0978808 -0.0935327 0)
(-0.0480278 -0.0885881 0)
(-0.0112063 -0.0406604 0)
(-0.0148301 0.0679994 0)
(-0.0582729 0.133868 0)
(-0.113252 0.138417 0)
(-0.156701 0.101628 0)
(-0.180984 0.041132 0)
(-0.184596 -0.0293744 0)
(-0.166086 -0.0964475 0)
(-0.124403 -0.14236 0)
(-0.066198 -0.142618 0)
(-0.0172006 -0.072176 0)
(-0.0210096 0.106231 0)
(-0.073174 0.191915 0)
(-0.128653 0.188502 0)
(-0.166928 0.134647 0)
(-0.186892 0.0549875 0)
(-0.191256 -0.0357522 0)
(-0.178788 -0.124929 0)
(-0.144196 -0.19343 0)
(-0.0862476 -0.207453 0)
(-0.0256228 -0.11684 0)
(-0.0288121 0.157247 0)
(-0.0851587 0.251565 0)
(-0.124954 0.229394 0)
(-0.142046 0.157318 0)
(-0.147858 0.0645146 0)
(-0.15092 -0.0375408 0)
(-0.151093 -0.141885 0)
(-0.138936 -0.233884 0)
(-0.100104 -0.275002 0)
(-0.0348948 -0.178885 0)
(-0.0334905 0.224372 0)
(-0.0795291 0.294931 0)
(-0.0721477 0.23813 0)
(-0.0447017 0.152926 0)
(-0.0243568 0.0624497 0)
(-0.0227424 -0.0316129 0)
(-0.0414743 -0.132869 0)
(-0.071509 -0.239404 0)
(-0.0846002 -0.32162 0)
(-0.0354682 -0.257209 0)
(0.000605107 0.277691 0)
(0.00170277 0.279185 0)
(0.0994545 0.186507 0)
(0.188474 0.107695 0)
(0.238212 0.0433251 0)
(0.24604 -0.0174718 0)
(0.209611 -0.0875449 0)
(0.126065 -0.180677 0)
(0.0229853 -0.293741 0)
(0.0154957 -0.301985 0)
(0.293926 0.147422 0)
(0.385964 0.127224 0)
(0.540046 0.0741739 0)
(0.642762 0.0387962 0)
(0.689373 0.0155822 0)
(0.696492 -0.00348333 0)
(0.664431 -0.0261478 0)
(0.572833 -0.0629317 0)
(0.414446 -0.123071 0)
(0.309542 -0.151123 0)
)
;

boundaryField
{
    movingWall
    {
        type            fixedValue;
        value           uniform (1 0 0);
    }
    fixedWalls
    {
        type            noSlip;
    }
    frontAndBack
    {
        type            empty;
    }
}


// ************************************************************************* //
