/*--------------------------------*- C++ -*----------------------------------*\
  =========                 |
  \\      /  F ield         | OpenFOAM: The Open Source CFD Toolbox
   \\    /   O peration     | Website:  https://openfoam.org
    \\  /    A nd           | Version:  7
     \\/     M anipulation  |
\*---------------------------------------------------------------------------*/
FoamFile
{
    version     2.0;
    format      ascii;
    class       volScalarField;
    location    "0.2";
    object      p;
}
// * * * * * * * * * * * * * * * * * * * * * * * * * * * * * * * * * * * * * //

dimensions      [0 2 -2 0 0 0 0];

internalField   nonuniform List<scalar> 
1600
(
2.38006e-07
-0.00118967
-0.00391926
-0.00759093
-0.0115331
-0.0152506
-0.0183858
-0.0206863
-0.021985
-0.0221819
-0.0212316
-0.019132
-0.0159167
-0.0116485
-0.00641477
-0.000323174
0.0065014
0.0139196
0.0217802
0.0299222
0.0381776
0.0463738
0.0543364
0.0618926
0.068875
0.0751249
0.0804977
0.0848676
0.0881329
0.0902223
0.0911009
0.0907774
0.0893119
0.0868256
0.0835117
0.079649
0.0756177
0.071926
0.0692414
0.0681263
0.00118822
-1.76319e-06
-0.00221703
-0.00506614
-0.00810629
-0.0109725
-0.0133804
-0.0151169
-0.0160319
-0.0160297
-0.0150602
-0.0131119
-0.0102056
-0.00638942
-0.00173449
0.00366854
0.0097125
0.0162765
0.0232282
0.0304264
0.037723
0.0449661
0.0520027
0.0586815
0.0648568
0.0703917
0.0751629
0.0790648
0.0820145
0.083957
0.0848704
0.0847715
0.0837223
0.0818358
0.0792823
0.0762958
0.0731781
0.0703048
0.0681227
0.0670132
0.00393112
0.00220471
-4.07869e-05
-0.00259834
-0.00522499
-0.00765109
-0.00965311
-0.0110596
-0.0117449
-0.0116253
-0.010655
-0.00882063
-0.00613765
-0.00264576
0.00159418
0.00650322
0.0119869
0.0179379
0.0242378
0.03076
0.0373716
0.0439359
0.0503152
0.0563737
0.0619807
0.0670144
0.0713652
0.0749405
0.0776684
0.0795026
0.0804263
0.0804573
0.0796519
0.078109
0.0759726
0.0734335
0.0707317
0.0681487
0.0659428
0.0643263
0.00769236
0.00508255
0.00244332
-0.0001838
-0.00273685
-0.00501608
-0.00684731
-0.00809894
-0.0086726
-0.00850157
-0.00754922
-0.00580612
-0.00328716
-2.85592e-05
0.00391476
0.00847148
0.013556
0.0190708
0.0249079
0.0309516
0.0370799
0.0431674
0.0490874
0.054715
0.0599297
0.0646191
0.0686823
0.0720339
0.0746072
0.0763588
0.0772718
0.0773594
0.076668
0.0752793
0.0733101
0.0709124
0.0682784
0.0656231
0.0630335
0.0605661
0.0118779
0.00824008
0.00503378
0.00215529
-0.000500214
-0.00278894
-0.0045784
-0.00577391
-0.00630444
-0.00612166
-0.00520063
-0.0035384
-0.00115203
0.00192318
0.00563572
0.00991954
0.0146958
0.0198745
0.0253562
0.0310338
0.0367942
0.0425207
0.0480953
0.053401
0.0583249
0.0627611
0.066614
0.0698019
0.0722603
0.0739452
0.0748363
0.0749396
0.0742895
0.0729495
0.0710107
0.0685896
0.0658399
0.0629247
0.0597734
0.056305
0.0160621
0.0113534
0.0074874
0.00423982
0.00135963
-0.0010522
-0.00289668
-0.00411186
-0.00465202
-0.00448715
-0.00360491
-0.00201031
0.000275467
0.00321613
0.00676155
0.010849
0.0154043
0.0203431
0.0255724
0.0309917
0.0364948
0.0419715
0.0473099
0.0523987
0.0571297
0.0614008
0.065119
0.0682035
0.0705888
0.0722278
0.0730945
0.0731858
0.0725234
0.0711529
0.0691416
0.0665765
0.0635811
0.0602808
0.056468
0.0519484
0.0199361
0.0141614
0.00958925
0.00589659
0.00270704
9.02302e-05
-0.00188076
-0.00317185
-0.00375986
-0.00363202
-0.00278871
-0.00124368
0.000976539
0.00383317
0.00727587
0.0112434
0.0156646
0.020459
0.0255379
0.0308056
0.0361608
0.0414976
0.0467082
0.0516846
0.0563209
0.0605161
0.0641773
0.0672218
0.0695811
0.0712026
0.0720525
0.0721177
0.0714064
0.069948
0.0677888
0.0649912
0.0616575
0.0578877
0.0533577
0.0477825
0.023267
0.0164506
0.0111544
0.00697305
0.00342152
0.000547044
-0.00159705
-0.00299985
-0.00365804
-0.00357462
-0.00276217
-0.00124341
0.000949077
0.00377294
0.00717634
0.0110983
0.015469
0.0202103
0.0252363
0.0304545
0.0357664
0.0410689
0.0462561
0.0512213
0.0558587
0.0600665
0.0637492
0.0668205
0.0692062
0.0708466
0.0716988
0.0717385
0.0709608
0.0693795
0.0670234
0.0639352
0.0602026
0.05591
0.0506341
0.0440156
0.0258729
0.0180419
0.0120184
0.00732594
0.00338273
0.000220091
-0.0021235
-0.0036564
-0.00439273
-0.00434977
-0.00355162
-0.00202987
0.000176454
0.00302075
0.00644876
0.0103985
0.0148006
0.0195777
0.0246455
0.0299132
0.0352835
0.0406545
0.0459207
0.0509746
0.055709
0.060019
0.0638048
0.0669743
0.0694459
0.0711511
0.0720366
0.0720661
0.0712216
0.0695028
0.0669227
0.0635086
0.0593396
0.0544913
0.0484532
0.0408028
0.0276035
0.0187796
0.0120316
0.00681831
0.00246921
-0.000995818
-0.0035494
-0.00521642
-0.00602632
-0.00600936
-0.00520049
-0.00364
-0.00137359
0.00154743
0.00506569
0.00911751
0.0136325
0.0185337
0.023737
0.0291517
0.0346812
0.040223
0.0456705
0.0509142
0.0558434
0.0603488
0.0643243
0.0676702
0.0702959
0.0721223
0.0730845
0.0731335
0.0722379
0.0703838
0.0675707
0.0638132
0.0591855
0.0537603
0.0469473
0.0382672
0.028326
0.0185224
0.0110536
0.00531705
0.000558477
-0.0032109
-0.00597231
-0.00776526
-0.00863298
-0.00861775
-0.00776487
-0.0061232
-0.0037452
-0.000687289
0.00298956
0.00721925
0.01193
0.0170438
0.0224762
0.028136
0.0339256
0.0397412
0.045474
0.0510109
0.0562367
0.0610357
0.0652941
0.068903
0.0717608
0.0737765
0.0748719
0.0749844
0.0740687
0.0720974
0.0690572
0.0649524
0.059855
0.0538383
0.0462358
0.0365146
0.027915
0.0171351
0.00894743
0.00268963
-0.00247455
-0.0065407
-0.00949741
-0.0113975
-0.0122971
-0.01225
-0.0113117
-0.0095394
-0.00699262
-0.00373314
0.000174052
0.00465994
0.00965076
0.0150671
0.0208233
0.0268271
0.0329792
0.0391737
0.0452984
0.051236
0.056865
0.0620624
0.066705
0.070673
0.0738524
0.0761381
0.0774372
0.0776721
0.0767823
0.0747267
0.0714795
0.067035
0.0614651
0.0548457
0.0464348
0.035646
0.0262449
0.0144827
0.00557534
-0.00119943
-0.00675984
-0.0111076
-0.014238
-0.0162168
-0.0171128
-0.0169912
-0.0159175
-0.013958
-0.0111791
-0.00764832
-0.00343502
0.00138857
0.00674634
0.0125571
0.0187337
0.0251822
0.0318014
0.0384826
0.0451096
0.0515599
0.0577052
0.0634135
0.0685512
0.0729857
0.0765886
0.0792391
0.0808277
0.0812594
0.0804574
0.0783654
0.0749441
0.070178
0.0641394
0.0569082
0.0476644
0.0357666
0.023185
0.0104252
0.00079414
-0.00649178
-0.0124345
-0.0170418
-0.0203159
-0.0223356
-0.0231829
-0.0229349
-0.0216676
-0.0194564
-0.0163753
-0.0124978
-0.00789802
-0.0026515
0.00316308
0.00946263
0.0161584
0.0231547
0.0303482
0.0376272
0.0448713
0.0519522
0.0587339
0.0650746
0.0708288
0.0758496
0.0799923
0.0831182
0.0850985
0.0858187
0.0851833
0.0831184
0.0795698
0.0745108
0.0680138
0.0601632
0.050056
0.0369932
0.0185949
0.00481377
-0.00554846
-0.0133385
-0.0196452
-0.0244833
-0.0278625
-0.0298757
-0.0306192
-0.0301828
-0.0286541
-0.0261183
-0.0226575
-0.0183517
-0.0132797
-0.00752084
-0.00115621
0.0057293
0.0130455
0.0206953
0.0285733
0.0365649
0.0445456
0.052381
0.0599271
0.0670315
0.0735354
0.0792761
0.0840906
0.0878197
0.0903126
0.0914323
0.0910609
0.0891043
0.0854902
0.0801785
0.0732409
0.0647651
0.0537588
0.0394608
0.0123209
-0.0025135
-0.0136175
-0.0219033
-0.0285509
-0.0335835
-0.0370195
-0.0389681
-0.0395414
-0.0388436
-0.0369751
-0.034032
-0.0301055
-0.0252825
-0.0196469
-0.0132816
-0.00626998
0.00130166
0.00934218
0.0177536
0.0264291
0.0352517
0.0440932
0.0528133
0.0612599
0.0692695
0.076669
0.0832784
0.0889142
0.0933938
0.0965412
0.0981928
0.0982044
0.0964572
0.0928571
0.0873469
0.0799951
0.0708915
0.0589454
0.0433285
0.00419326
-0.0117353
-0.0235947
-0.0323657
-0.0393253
-0.044507
-0.0479404
-0.0497533
-0.0500766
-0.0490311
-0.046732
-0.0432879
-0.0387999
-0.0333626
-0.0270654
-0.0199944
-0.0122349
-0.00387406
0.00499698
0.0142802
0.0238686
0.0336438
0.0434747
0.0532157
0.062707
0.0717737
0.0802281
0.0878712
0.0944967
0.0998959
0.103863
0.106204
0.106743
0.10533
0.101844
0.0962062
0.0884781
0.0787488
0.0658188
0.048786
-0.00597792
-0.023051
-0.0356824
-0.0449249
-0.05216
-0.0574338
-0.0607908
-0.0623814
-0.0623585
-0.0608629
-0.0580275
-0.0539752
-0.0488186
-0.0426605
-0.035596
-0.0277145
-0.0191023
-0.00984642
-3.67974e-05
0.0102301
0.0208483
0.0316998
0.0426519
0.0535553
0.0642429
0.0745293
0.0842113
0.0930702
0.100875
0.107386
0.112366
0.115582
0.116821
0.115896
0.11265
0.106977
0.0989251
0.0885798
0.0746189
0.05606
-0.0184063
-0.0366858
-0.050109
-0.0598048
-0.067268
-0.0725621
-0.0757506
-0.0770118
-0.0765259
-0.0744581
-0.0709622
-0.0661783
-0.0602321
-0.0532357
-0.0452899
-0.0364868
-0.0269131
-0.0166541
-0.0057967
0.00556591
0.0173312
0.0293834
0.0415906
0.0538016
0.0658437
0.0775218
0.0886179
0.0988924
0.108087
0.115931
0.122145
0.126456
0.128602
0.128353
0.125506
0.119915
0.111612
0.100671
0.0856313
0.0654223
-0.0333344
-0.0528969
-0.0671351
-0.0772589
-0.0848885
-0.0901104
-0.0930139
-0.0938126
-0.0927205
-0.0899332
-0.0856299
-0.0799712
-0.073098
-0.0651328
-0.056182
-0.0463399
-0.035692
-0.02432
-0.0123058
0.000263459
0.0132914
0.0266676
0.0402637
0.0539292
0.0674885
0.0807386
0.0934477
0.105355
0.116175
0.125599
0.133305
0.138968
0.142272
0.142927
0.140675
0.13532
0.126864
0.115362
0.0991967
0.0771984
-0.0510405
-0.0719819
-0.0870619
-0.0975779
-0.105292
-0.110322
-0.112791
-0.112959
-0.111084
-0.107398
-0.102112
-0.0954112
-0.087454
-0.0783742
-0.068284
-0.0572784
-0.0454402
-0.0328449
-0.0195665
-0.00568277
0.00871957
0.0235391
0.0386547
0.0539206
0.0691617
0.0841701
0.0987021
0.112478
0.125181
0.136465
0.145957
0.153275
0.158034
0.159874
0.158465
0.153542
0.145065
0.133059
0.115723
0.0917793
-0.0718489
-0.0942903
-0.110243
-0.1211
-0.128787
-0.133466
-0.135309
-0.134633
-0.131753
-0.126949
-0.12047
-0.11253
-0.103309
-0.0929513
-0.0815752
-0.0692748
-0.0561274
-0.0421994
-0.0275531
-0.0122528
0.00362858
0.0200034
0.0367627
0.0537701
0.0708557
0.0878111
0.104384
0.120278
0.135147
0.148604
0.160221
0.169547
0.176119
0.179487
0.17923
0.174993
0.166673
0.154248
0.135703
0.109636
-0.096143
-0.12024
-0.137099
-0.148223
-0.155731
-0.159847
-0.16081
-0.159018
-0.154855
-0.148662
-0.140736
-0.131325
-0.120631
-0.108814
-0.0959926
-0.0822594
-0.0676826
-0.0523154
-0.0362039
-0.0193942
-0.00193975
0.0160909
0.0346068
0.0534872
0.0725735
0.0916628
0.1105
0.128775
0.146116
0.162092
0.176219
0.187966
0.196778
0.202095
0.203377
0.200154
0.192232
0.179515
0.159732
0.131339
-0.124386
-0.15034
-0.168142
-0.179422
-0.186538
-0.189804
-0.189555
-0.186293
-0.180496
-0.17258
-0.162899
-0.151743
-0.139339
-0.125857
-0.111419
-0.0961099
-0.0799842
-0.0630773
-0.0454134
-0.0270144
-0.00790847
0.0118619
0.0322308
0.0531003
0.0743311
0.0957333
0.117057
0.137984
0.158123
0.177002
0.194074
0.208724
0.220285
0.228068
0.231381
0.229598
0.222397
0.209573
0.188537
0.157583
-0.157149
-0.185224
-0.204003
-0.215272
-0.221696
-0.22372
-0.221816
-0.216626
-0.208749
-0.198696
-0.186891
-0.173669
-0.159281
-0.143909
-0.127671
-0.11064
-0.092851
-0.074314
-0.0550251
-0.0349753
-0.0141601
0.00741143
0.0297066
0.0526592
0.0761584
0.100038
0.124062
0.147917
0.171195
0.193393
0.213901
0.232012
0.246934
0.257817
0.263782
0.263998
0.257958
0.245294
0.223019
0.189224
-0.195158
-0.225702
-0.245478
-0.25648
-0.26178
-0.262022
-0.25787
-0.250157
-0.239637
-0.226939
-0.212566
-0.196902
-0.180224
-0.162716
-0.144488
-0.125591
-0.106033
-0.0857915
-0.0648257
-0.043088
-0.0205331
0.00287174
0.0271361
0.0522356
0.0780991
0.104596
0.131518
0.158569
0.18534
0.211304
0.235795
0.258012
0.277023
0.291792
0.301201
0.30415
0.299875
0.287761
0.264303
0.227329
-0.239359
-0.272826
-0.293588
-0.303924
-0.307475
-0.305184
-0.297989
-0.286978
-0.273106
-0.25714
-0.239674
-0.22114
-0.201832
-0.181929
-0.161519
-0.140622
-0.119207
-0.0972095
-0.0745432
-0.0511123
-0.026822
-0.00158881
0.0246492
0.0519203
0.080206
0.109425
0.139416
0.169914
0.200532
0.230733
0.259812
0.286875
0.310845
0.330467
0.344335
0.350995
0.349323
0.338332
0.313817
0.273252
-0.291018
-0.328009
-0.349667
-0.358707
-0.359592
-0.353715
-0.342408
-0.327098
-0.308986
-0.289003
-0.267833
-0.245949
-0.223647
-0.201085
-0.178312
-0.155303
-0.131973
-0.108202
-0.0838494
-0.0587606
-0.0327825
-0.00577131
0.0223972
0.051816
0.0825328
0.114534
0.147721
0.181889
0.216693
0.251618
0.285939
0.318692
0.348652
0.374324
0.393954
0.405636
0.407741
0.398732
0.373416
0.328745
-0.351895
-0.393183
-0.415484
-0.42222
-0.41908
-0.408141
-0.391288
-0.370389
-0.346944
-0.322056
-0.29649
-0.270739
-0.245074
-0.219604
-0.194318
-0.16912
-0.143859
-0.118346
-0.092369
-0.0657084
-0.0381426
-0.00945852
0.0205405
0.0520236
0.0851195
0.119899
0.156354
0.194363
0.233662
0.273793
0.314053
0.353441
0.390604
0.423803
0.450879
0.469353
0.476909
0.471183
0.445552
0.396143
-0.42451
-0.471067
-0.493424
-0.49622
-0.487023
-0.468947
-0.444636
-0.416512
-0.386411
-0.355597
-0.324884
-0.294737
-0.265362
-0.236779
-0.208883
-0.181483
-0.154338
-0.127173
-0.0996978
-0.0716133
-0.0426224
-0.0124345
0.0192281
0.0526218
0.0879706
0.12545
0.165164
0.207115
0.251157
0.296945
0.343857
0.390916
0.436696
0.47923
0.515924
0.543598
0.559012
0.558586
0.533553
0.478654
-0.512629
-0.565575
-0.586723
-0.582895
-0.564595
-0.536474
-0.50218
-0.464795
-0.426485
-0.388623
-0.351994
-0.316963
-0.2836
-0.251783
-0.22127
-0.191743
-0.162846
-0.134202
-0.105429
-0.0761423
-0.0459613
-0.0145119
0.0185712
0.0536404
0.0910277
0.131032
0.173897
0.219785
0.268723
0.320545
0.374797
0.430623
0.486622
0.540681
0.589781
0.629939
0.656714
0.664767
0.642057
0.580876
-0.622121
-0.682476
-0.699782
-0.684895
-0.652925
-0.610718
-0.563176
-0.514071
-0.465814
-0.419751
-0.376503
-0.336211
-0.298719
-0.263687
-0.230682
-0.199225
-0.168818
-0.138969
-0.109191
-0.0790075
-0.0479527
-0.0155659
0.0186094
0.0550269
0.0941357
0.136373
0.182152
0.23183
0.285669
0.343767
0.405951
0.471631
0.5396
0.607769
0.67281
0.729914
0.77318
0.794795
0.777695
0.709721
-0.762601
-0.830448
-0.838541
-0.805253
-0.752804
-0.690994
-0.626104
-0.562453
-0.502446
-0.447139
-0.396761
-0.35106
-0.30952
-0.271498
-0.236311
-0.203278
-0.171741
-0.141075
-0.110687
-0.0800071
-0.0484828
-0.0155698
0.0192775
0.0566143
0.0970109
0.141055
0.189345
0.242477
0.301009
0.365398
0.435896
0.512382
0.594105
0.679309
0.764665
0.844714
0.91197
0.955346
0.950185
0.876176
-0.950757
-1.02276
-1.01073
-0.946944
-0.864042
-0.775332
-0.688207
-0.607028
-0.533658
-0.468407
-0.41078
-0.359894
-0.314721
-0.274217
-0.237392
-0.203331
-0.1712
-0.140239
-0.109747
-0.0790669
-0.0475679
-0.01463
0.0203737
0.0580925
0.0992141
0.144477
0.19468
0.250684
0.313399
0.383744
0.462559
0.550448
0.647496
0.752793
0.863623
0.974469
1.07656
1.15494
1.17406
1.09886
-1.2171
-1.27969
-1.22548
-1.11152
-0.984059
-0.859363
-0.744749
-0.643425
-0.555739
-0.480568
-0.416238
-0.360957
-0.313024
-0.270909
-0.233273
-0.198951
-0.166936
-0.136337
-0.10636
-0.0762725
-0.0453823
-0.0130089
0.0215395
0.0589909
0.100135
0.14585
0.197129
0.255111
0.321093
0.396539
0.483043
0.582228
0.695498
0.823546
0.965356
1.1167
1.26881
1.40344
1.47111
1.41113
-1.61763
-1.63093
-1.4915
-1.2967
-1.10589
-0.935003
-0.788313
-0.665548
-0.563986
-0.480143
-0.410644
-0.352518
-0.303268
-0.260832
-0.223516
-0.189928
-0.158903
-0.12945
-0.100705
-0.0718879
-0.0422657
-0.0111225
0.0222735
0.0587025
0.0990286
0.144241
0.195501
0.254201
0.322023
0.401017
0.493653
0.602842
0.731854
0.883968
1.06154
1.26421
1.48648
1.71004
1.87236
1.87263
-2.2544
-2.11585
-1.81358
-1.49443
-1.21742
-0.990513
-0.809418
-0.666457
-0.55363
-0.464018
-0.392072
-0.333476
-0.284906
-0.243807
-0.208189
-0.176484
-0.147426
-0.11997
-0.0932184
-0.0663774
-0.0387075
-0.00948739
0.0220225
0.0566192
0.0952007
0.138819
0.188747
0.246568
0.31429
0.3945
0.490563
0.606852
0.748983
0.923937
1.13977
1.4042
1.72094
2.07938
2.41781
2.589
-3.35613
-2.78295
-2.17272
-1.67591
-1.2926
-1.00574
-0.79416
-0.637285
-0.51934
-0.429184
-0.358983
-0.303191
-0.257846
-0.220065
-0.187707
-0.159139
-0.13308
-0.108493
-0.0845037
-0.0603455
-0.0353097
-0.00870679
0.0201727
0.0520989
0.0879501
0.128773
0.175864
0.23088
0.296001
0.374173
0.469456
0.58755
0.736531
0.927897
1.17797
1.50835
1.94104
2.49111
3.15771
3.79464
-5.52258
-3.65931
-2.43084
-1.71435
-1.24188
-0.921872
-0.704916
-0.554009
-0.445525
-0.365236
-0.30421
-0.256591
-0.21842
-0.186934
-0.16014
-0.136544
-0.114993
-0.0945613
-0.074473
-0.0540504
-0.0326688
-0.00972025
0.0154213
0.0434375
0.0751095
0.111375
0.153406
0.202726
0.261379
0.332206
0.41929
0.528695
0.669707
0.85711
1.11546
1.48399
2.01613
2.80528
4.12185
6.09342
-9.21003
-4.51833
-2.30602
-1.42124
-0.958916
-0.682869
-0.51223
-0.400571
-0.322911
-0.266417
-0.223897
-0.19092
-0.164578
-0.142863
-0.124317
-0.107844
-0.0925838
-0.0778383
-0.0630176
-0.0476005
-0.0311044
-0.0130582
0.0070229
0.0296646
0.0554656
0.0851386
0.119568
0.159891
0.20763
0.264893
0.334741
0.42184
0.533736
0.683712
0.897402
1.22407
1.75393
2.73302
5.06017
9.87238
)
;

boundaryField
{
    movingWall
    {
        type            zeroGradient;
    }
    fixedWalls
    {
        type            zeroGradient;
    }
    frontAndBack
    {
        type            empty;
    }
}


// ************************************************************************* //
