/*--------------------------------*- C++ -*----------------------------------*\
  =========                 |
  \\      /  F ield         | OpenFOAM: The Open Source CFD Toolbox
   \\    /   O peration     | Website:  https://openfoam.org
    \\  /    A nd           | Version:  7
     \\/     M anipulation  |
\*---------------------------------------------------------------------------*/
FoamFile
{
    version     2.0;
    format      ascii;
    class       surfaceScalarField;
    location    "0.2";
    object      phi;
}
// * * * * * * * * * * * * * * * * * * * * * * * * * * * * * * * * * * * * * //

dimensions      [0 3 -1 0 0 0 0];

internalField   nonuniform List<scalar> 
3120
(
2.53998e-09
-2.54066e-09
4.09622e-09
-1.556e-09
2.25035e-09
1.84588e-09
-3.55649e-09
5.80699e-09
-1.3136e-08
9.57947e-09
-2.59799e-08
1.28439e-08
-4.14492e-08
1.54692e-08
-5.88675e-08
1.74184e-08
-7.75678e-08
1.87002e-08
-9.69137e-08
1.93457e-08
-1.16311e-07
1.93972e-08
-1.35214e-07
1.89029e-08
-1.53128e-07
1.79141e-08
-1.69611e-07
1.64833e-08
-1.84275e-07
1.46638e-08
-1.96784e-07
1.25094e-08
-2.06859e-07
1.00743e-08
-2.14272e-07
7.41356e-09
-2.18856e-07
4.58334e-09
-2.20497e-07
1.64143e-09
-2.19145e-07
-1.35234e-09
-2.14809e-07
-4.33587e-09
-2.07564e-07
-7.24474e-09
-1.97552e-07
-1.00123e-08
-1.84982e-07
-1.25703e-08
-1.70132e-07
-1.48492e-08
-1.53352e-07
-1.67796e-08
-1.35059e-07
-1.82931e-08
-1.15735e-07
-1.9324e-08
-9.5924e-08
-1.98113e-08
-7.62232e-08
-1.97009e-08
-5.72753e-08
-1.89479e-08
-3.97545e-08
-1.75207e-08
-2.43482e-08
-1.54062e-08
-1.17283e-08
-1.26199e-08
-2.50034e-09
-9.22785e-09
2.89214e-09
-5.39243e-09
4.35485e-09
-1.46273e-09
2.55996e-09
1.7948e-09
2.55989e-09
1.61641e-09
-4.15724e-09
-1.17373e-09
1.23427e-09
-1.17162e-08
1.23883e-08
-3.10692e-08
2.51601e-08
-5.90311e-08
3.75415e-08
-9.46588e-08
4.84716e-08
-1.36604e-07
5.7414e-08
-1.83327e-07
6.4142e-08
-2.33231e-07
6.86036e-08
-2.84733e-07
7.08484e-08
-3.36322e-07
7.09858e-08
-3.8658e-07
6.91611e-08
-4.34207e-07
6.55412e-08
-4.7803e-07
6.03064e-08
-5.17011e-07
5.3645e-08
-5.50253e-07
4.57513e-08
-5.77004e-07
3.68246e-08
-5.96659e-07
2.70687e-08
-6.08769e-07
1.66932e-08
-6.13041e-07
5.91364e-09
-6.09346e-07
-5.04718e-09
-5.97722e-07
-1.59592e-08
-5.78382e-07
-2.65847e-08
-5.51715e-07
-3.66799e-08
-5.18289e-07
-4.59959e-08
-4.78856e-07
-5.42824e-08
-4.34344e-07
-6.12912e-08
-3.85856e-07
-6.67813e-08
-3.34654e-07
-7.05253e-08
-2.82148e-07
-7.23173e-08
-2.29866e-07
-7.19822e-08
-1.79427e-07
-6.93871e-08
-1.3249e-07
-6.44578e-08
-9.06942e-08
-5.72022e-08
-5.55659e-08
-4.77482e-08
-2.83816e-08
-3.64121e-08
-9.95204e-09
-2.38219e-08
-2.96794e-10
-1.11181e-08
1.85215e-09
-3.54263e-10
4.41208e-09
-1.6678e-09
-2.48928e-09
-1.21141e-08
1.16807e-08
-3.40801e-08
3.43544e-08
-6.8427e-08
5.95069e-08
-1.14741e-07
8.38556e-08
-1.71738e-07
1.05468e-07
-2.37584e-07
1.2326e-07
-3.10144e-07
1.36702e-07
-3.87151e-07
1.4561e-07
-4.66321e-07
1.50018e-07
-5.45435e-07
1.501e-07
-6.22392e-07
1.46119e-07
-6.95247e-07
1.38396e-07
-7.62234e-07
1.27293e-07
-8.21783e-07
1.13194e-07
-8.72534e-07
9.6502e-08
-9.13344e-07
7.76352e-08
-9.433e-07
5.70243e-08
-9.61719e-07
3.51131e-08
-9.68165e-07
1.23593e-08
-9.62448e-07
-1.07648e-08
-9.44634e-07
-3.37723e-08
-9.15057e-07
-5.61624e-08
-8.74313e-07
-7.7423e-08
-8.23274e-07
-9.70346e-08
-7.6308e-07
-1.14477e-07
-6.95134e-07
-1.29238e-07
-6.21091e-07
-1.40824e-07
-5.4284e-07
-1.48776e-07
-4.62472e-07
-1.52686e-07
-3.82238e-07
-1.52216e-07
-3.04498e-07
-1.47127e-07
-2.31642e-07
-1.37314e-07
-1.65993e-07
-1.22851e-07
-1.09676e-07
-1.04066e-07
-6.44316e-08
-8.16564e-08
-3.13772e-08
-5.68764e-08
-1.06909e-08
-3.18046e-08
-1.24012e-09
-9.80516e-09
3.17207e-09
-5.56673e-09
3.07747e-09
-2.49683e-08
3.10822e-08
-5.96612e-08
6.90475e-08
-1.09821e-07
1.09667e-07
-1.74559e-07
1.48593e-07
-2.52167e-07
1.83076e-07
-3.40375e-07
2.11469e-07
-4.36567e-07
2.32894e-07
-5.37954e-07
2.46998e-07
-6.4171e-07
2.53774e-07
-7.45065e-07
2.53454e-07
-8.45379e-07
2.46433e-07
-9.40194e-07
2.33211e-07
-1.02727e-06
2.14367e-07
-1.1046e-06
1.90527e-07
-1.17046e-06
1.62358e-07
-1.22338e-06
1.30556e-07
-1.26219e-06
9.58405e-08
-1.28604e-06
5.8957e-08
-1.29435e-06
2.06738e-08
-1.2869e-06
-1.82163e-08
-1.26377e-06
-5.68973e-08
-1.22541e-06
-9.45316e-08
-1.17256e-06
-1.30265e-07
-1.10636e-06
-1.63236e-07
-1.02826e-06
-1.92582e-07
-9.40033e-07
-2.17461e-07
-8.43791e-07
-2.37066e-07
-7.41915e-07
-2.50652e-07
-6.37036e-07
-2.57565e-07
-5.31973e-07
-2.57279e-07
-4.29664e-07
-2.49436e-07
-3.3307e-07
-2.33908e-07
-2.45052e-07
-2.10868e-07
-1.68223e-07
-1.80894e-07
-1.0476e-07
-1.4512e-07
-5.61786e-08
-1.05458e-07
-2.30937e-08
-6.48895e-08
-4.98534e-09
-2.79136e-08
-1.81326e-09
-9.46416e-09
1.25417e-08
-3.81567e-08
5.97747e-08
-8.60366e-08
1.16927e-07
-1.52319e-07
1.75949e-07
-2.35434e-07
2.31708e-07
-3.33147e-07
2.80789e-07
-4.4272e-07
3.21041e-07
-5.61088e-07
3.51262e-07
-6.85016e-07
3.70925e-07
-8.11227e-07
3.79985e-07
-9.36508e-07
3.78735e-07
-1.05779e-06
3.67711e-07
-1.17219e-06
3.47616e-07
-1.2771e-06
3.19274e-07
-1.37017e-06
2.83594e-07
-1.44935e-06
2.41546e-07
-1.51295e-06
1.94151e-07
-1.55958e-06
1.42468e-07
-1.58822e-06
8.7598e-08
-1.59822e-06
3.06742e-08
-1.5893e-06
-2.71331e-08
-1.56158e-06
-8.46208e-08
-1.51555e-06
-1.40556e-07
-1.45213e-06
-1.93685e-07
-1.37263e-06
-2.42743e-07
-1.27874e-06
-2.86471e-07
-1.17256e-06
-3.23642e-07
-1.05653e-06
-3.53087e-07
-9.33455e-07
-3.7373e-07
-8.06383e-07
-3.84637e-07
-6.78597e-07
-3.85065e-07
-5.53509e-07
-3.74524e-07
-4.34557e-07
-3.5286e-07
-3.25076e-07
-3.2035e-07
-2.28144e-07
-2.77826e-07
-1.46411e-07
-2.26854e-07
-8.19109e-08
-1.69958e-07
-3.59011e-08
-1.10899e-07
-8.75242e-09
-5.50622e-08
-1.05657e-08
-1.31558e-08
2.56975e-08
-5.10019e-08
9.76207e-08
-1.12038e-07
1.77963e-07
-1.94405e-07
2.58317e-07
-2.95732e-07
3.33035e-07
-4.13154e-07
3.98211e-07
-5.43415e-07
4.51301e-07
-6.82991e-07
4.90838e-07
-8.28225e-07
5.1616e-07
-9.75442e-07
5.27202e-07
-1.12105e-06
5.24341e-07
-1.26161e-06
5.08273e-07
-1.39392e-06
4.79929e-07
-1.51506e-06
4.40406e-07
-1.62238e-06
3.90924e-07
-1.71363e-06
3.32793e-07
-1.78688e-06
2.67397e-07
-1.84058e-06
1.96175e-07
-1.87361e-06
1.20621e-07
-1.88521e-06
4.22809e-08
-1.87509e-06
-3.7256e-08
-1.84336e-06
-1.16354e-07
-1.79057e-06
-1.93339e-07
-1.71775e-06
-2.66511e-07
-1.62634e-06
-3.34156e-07
-1.51823e-06
-3.94573e-07
-1.39577e-06
-4.46104e-07
-1.26169e-06
-4.87173e-07
-1.11908e-06
-5.16337e-07
-9.71375e-07
-5.32342e-07
-8.22241e-07
-5.34199e-07
-6.75503e-07
-5.21261e-07
-5.35037e-07
-4.93327e-07
-4.04633e-07
-4.50753e-07
-2.87859e-07
-3.94601e-07
-1.87899e-07
-3.26814e-07
-1.07413e-07
-2.50444e-07
-4.84313e-08
-1.69881e-07
-1.23306e-08
-9.11629e-08
-2.28964e-08
-1.66017e-08
4.22993e-08
-6.32784e-08
1.44297e-07
-1.37203e-07
2.51887e-07
-2.35433e-07
3.56547e-07
-3.54727e-07
4.5233e-07
-4.91524e-07
5.35008e-07
-6.41994e-07
6.01771e-07
-8.02128e-07
6.50973e-07
-9.67847e-07
6.81878e-07
-1.1351e-06
6.9445e-07
-1.29994e-06
6.89182e-07
-1.45863e-06
6.66964e-07
-1.60768e-06
6.28981e-07
-1.74391e-06
5.76634e-07
-1.86447e-06
5.11484e-07
-1.96689e-06
4.35211e-07
-2.04908e-06
3.4959e-07
-2.10938e-06
2.56473e-07
-2.14654e-06
1.57782e-07
-2.15976e-06
5.55007e-08
-2.14869e-06
-4.83251e-08
-2.11345e-06
-1.51594e-07
-2.05463e-06
-2.52157e-07
-1.97331e-06
-3.4783e-07
-1.87106e-06
-4.36413e-07
-1.7499e-06
-5.15725e-07
-1.61237e-06
-5.83636e-07
-1.46142e-06
-6.38124e-07
-1.30042e-06
-6.77336e-07
-1.1331e-06
-6.99661e-07
-9.63478e-07
-7.03822e-07
-7.95763e-07
-6.88977e-07
-6.34257e-07
-6.54833e-07
-4.83224e-07
-6.01785e-07
-3.4676e-07
-5.31065e-07
-2.2865e-07
-4.44923e-07
-1.32263e-07
-3.46831e-07
-6.04731e-08
-2.41671e-07
-1.56814e-08
-1.35955e-07
-3.85778e-08
-1.98312e-08
6.21305e-08
-7.49907e-08
1.99457e-07
-1.61469e-07
3.38365e-07
-2.75273e-07
4.70351e-07
-4.12271e-07
5.89328e-07
-5.68159e-07
6.90896e-07
-7.3849e-07
7.72102e-07
-9.18741e-07
8.31224e-07
-1.10439e-06
8.6753e-07
-1.29102e-06
8.81075e-07
-1.47436e-06
8.7252e-07
-1.65038e-06
8.42992e-07
-1.81537e-06
7.93965e-07
-1.96591e-06
7.27178e-07
-2.09899e-06
6.44562e-07
-2.21197e-06
5.48193e-07
-2.30265e-06
4.40265e-07
-2.36924e-06
3.23065e-07
-2.41042e-06
1.98965e-07
-2.42533e-06
7.04125e-08
-2.41359e-06
-6.00696e-08
-2.37529e-06
-1.8989e-07
-2.31105e-06
-3.16399e-07
-2.22198e-06
-4.36902e-07
-2.10971e-06
-5.48683e-07
-1.97639e-06
-6.49045e-07
-1.82467e-06
-7.35352e-07
-1.6577e-06
-8.05094e-07
-1.47907e-06
-8.55964e-07
-1.29279e-06
-8.85947e-07
-1.10318e-06
-8.93427e-07
-9.14848e-07
-8.77311e-07
-7.32522e-07
-8.37159e-07
-5.6097e-07
-7.73337e-07
-4.04862e-07
-6.87173e-07
-2.6865e-07
-5.81136e-07
-1.56464e-07
-4.59017e-07
-7.20613e-08
-3.26074e-07
-1.88416e-08
-1.89174e-07
-5.74194e-08
-2.28966e-08
8.50271e-08
-8.62447e-08
2.62805e-07
-1.84971e-07
4.37091e-07
-3.14078e-07
5.99458e-07
-4.68543e-07
7.43793e-07
-6.43293e-07
8.65646e-07
-8.33232e-07
9.62041e-07
-1.03329e-06
1.03128e-06
-1.2385e-06
1.07274e-06
-1.44405e-06
1.08663e-06
-1.64537e-06
1.07384e-06
-1.83818e-06
1.0358e-06
-2.01853e-06
9.74312e-07
-2.18284e-06
8.91487e-07
-2.32793e-06
7.89657e-07
-2.45106e-06
6.71324e-07
-2.54992e-06
5.39119e-07
-2.62264e-06
3.95783e-07
-2.66782e-06
2.44152e-07
-2.68456e-06
8.71534e-08
-2.67243e-06
-7.21999e-08
-2.63151e-06
-2.30813e-07
-2.56239e-06
-3.85517e-07
-2.46621e-06
-5.33088e-07
-2.34462e-06
-6.70271e-07
-2.19984e-06
-7.93823e-07
-2.03463e-06
-9.00565e-07
-1.85227e-06
-9.87457e-07
-1.65654e-06
-1.05169e-06
-1.4517e-06
-1.09079e-06
-1.24239e-06
-1.10273e-06
-1.03359e-06
-1.08612e-06
-8.30476e-07
-1.04027e-06
-6.38367e-07
-9.65447e-07
-4.6255e-07
-8.6299e-07
-3.08193e-07
-7.35492e-07
-1.8024e-07
-5.8697e-07
-8.33447e-08
-4.22969e-07
-2.18757e-08
-2.50644e-07
-7.92951e-08
-2.58538e-08
1.10881e-07
-9.71823e-08
3.34133e-07
-2.0793e-07
5.47839e-07
-3.52135e-07
7.43663e-07
-5.23887e-07
9.15545e-07
-7.17329e-07
1.05909e-06
-9.26691e-07
1.1714e-06
-1.14634e-06
1.25093e-06
-1.37083e-06
1.29723e-06
-1.59497e-06
1.31077e-06
-1.8139e-06
1.29277e-06
-2.02307e-06
1.24497e-06
-2.21834e-06
1.16959e-06
-2.39599e-06
1.06914e-06
-2.55273e-06
9.46396e-07
-2.68571e-06
8.04302e-07
-2.79254e-06
6.45948e-07
-2.8713e-06
4.74541e-07
-2.92054e-06
2.9339e-07
-2.93929e-06
1.05907e-07
-2.92709e-06
-8.44006e-08
-2.88397e-06
-2.73927e-07
-2.81051e-06
-4.58978e-07
-2.70781e-06
-6.35787e-07
-2.57755e-06
-8.00541e-07
-2.42194e-06
-9.49423e-07
-2.24383e-06
-1.07868e-06
-2.04659e-06
-1.1847e-06
-1.83417e-06
-1.26411e-06
-1.61106e-06
-1.3139e-06
-1.38219e-06
-1.3316e-06
-1.15293e-06
-1.31538e-06
-9.28945e-07
-1.26425e-06
-7.16112e-07
-1.17828e-06
-5.20397e-07
-1.0587e-06
-3.47733e-07
-9.08156e-07
-2.03915e-07
-7.30788e-07
-9.45174e-08
-5.32367e-07
-2.48547e-08
-3.20306e-07
-1.0415e-07
-2.87551e-08
1.39636e-07
-1.0795e-07
4.13328e-07
-2.30593e-07
6.70482e-07
-3.89779e-07
9.0285e-07
-5.78711e-07
1.10448e-06
-7.90735e-07
1.27111e-06
-1.01939e-06
1.40005e-06
-1.25844e-06
1.48999e-06
-1.50198e-06
1.54077e-06
-1.74444e-06
1.55323e-06
-1.98062e-06
1.52895e-06
-2.20577e-06
1.47012e-06
-2.41559e-06
1.3794e-06
-2.60621e-06
1.25976e-06
-2.77426e-06
1.11444e-06
-2.91682e-06
9.46867e-07
-3.03146e-06
7.6059e-07
-3.11622e-06
5.59293e-07
-3.16959e-06
3.46762e-07
-3.19057e-06
1.26889e-07
-3.17865e-06
-9.63251e-08
-3.1338e-06
-3.1877e-07
-3.05656e-06
-5.36226e-07
-2.94797e-06
-7.44377e-07
-2.80967e-06
-9.3884e-07
-2.64388e-06
-1.11521e-06
-2.45345e-06
-1.26911e-06
-2.24184e-06
-1.39631e-06
-2.01311e-06
-1.49283e-06
-1.77196e-06
-1.55506e-06
-1.52363e-06
-1.57994e-06
-1.27386e-06
-1.56515e-06
-1.02881e-06
-1.50929e-06
-7.9499e-07
-1.4121e-06
-5.79065e-07
-1.27463e-06
-3.87789e-07
-1.09943e-06
-2.27855e-07
-8.90722e-07
-1.05785e-07
-6.54437e-07
-2.78481e-08
-3.98243e-07
-1.31998e-07
-3.16466e-08
1.71283e-07
-1.18687e-07
5.00368e-07
-2.53201e-07
8.04997e-07
-4.27345e-07
1.07699e-06
-6.33426e-07
1.31056e-06
-8.63972e-07
1.50166e-06
-1.11181e-06
1.64789e-06
-1.37011e-06
1.74829e-06
-1.63247e-06
1.80313e-06
-1.89292e-06
1.81368e-06
-2.14599e-06
1.78202e-06
-2.38672e-06
1.71085e-06
-2.61065e-06
1.60333e-06
-2.81383e-06
1.46294e-06
-2.99283e-06
1.29344e-06
-3.1447e-06
1.09873e-06
-3.26697e-06
8.82862e-07
-3.35766e-06
6.49985e-07
-3.41525e-06
4.04356e-07
-3.4387e-06
1.50337e-07
-3.42743e-06
-1.07594e-07
-3.38137e-06
-3.64832e-07
-3.30095e-06
-6.16643e-07
-3.18716e-06
-8.58167e-07
-3.04156e-06
-1.08444e-06
-2.86631e-06
-1.29045e-06
-2.66424e-06
-1.47118e-06
-2.43882e-06
-1.62173e-06
-2.19423e-06
-1.73742e-06
-1.93533e-06
-1.81396e-06
-1.66763e-06
-1.84763e-06
-1.39728e-06
-1.8355e-06
-1.13096e-06
-1.77562e-06
-8.75793e-07
-1.66727e-06
-6.39231e-07
-1.51119e-06
-4.28895e-07
-1.30977e-06
-2.52429e-07
-1.06719e-06
-1.17351e-07
-7.89515e-07
-3.0921e-08
-4.84674e-07
-1.62919e-07
-3.45686e-08
2.05851e-07
-1.29517e-07
5.95317e-07
-2.75981e-07
9.5146e-07
-4.65151e-07
1.26616e-06
-6.88415e-07
1.53382e-06
-9.37462e-07
1.75071e-06
-1.20438e-06
1.91481e-06
-1.48173e-06
2.02564e-06
-1.76261e-06
2.084e-06
-2.04067e-06
2.09174e-06
-2.31017e-06
2.05153e-06
-2.56596e-06
1.96664e-06
-2.80347e-06
1.84083e-06
-3.01869e-06
1.67817e-06
-3.20817e-06
1.48292e-06
-3.36896e-06
1.25952e-06
-3.49862e-06
1.01251e-06
-3.59515e-06
7.46515e-07
-3.65703e-06
4.66235e-07
-3.68318e-06
1.76488e-07
-3.67297e-06
-1.17796e-07
-3.62626e-06
-4.11544e-07
-3.54338e-06
-6.99525e-07
-3.4252e-06
-9.76351e-07
-3.27315e-06
-1.23649e-06
-3.08931e-06
-1.47429e-06
-2.87642e-06
-1.68408e-06
-2.63793e-06
-1.86022e-06
-2.37806e-06
-1.99729e-06
-2.10181e-06
-2.09021e-06
-1.81495e-06
-2.1345e-06
-1.524e-06
-2.12645e-06
-1.23617e-06
-2.06344e-06
-9.59269e-07
-1.94417e-06
-7.0155e-07
-1.76891e-06
-4.71569e-07
-1.53975e-06
-2.77993e-07
-1.26076e-06
-1.29409e-07
-9.38099e-07
-3.41338e-08
-5.79949e-07
-1.97053e-07
-3.75562e-08
2.43407e-07
-1.40555e-07
6.98316e-07
-2.99135e-07
1.11004e-06
-5.03482e-07
1.47051e-06
-7.44018e-07
1.77436e-06
-1.01156e-06
2.01825e-06
-1.29743e-06
2.20068e-06
-1.59357e-06
2.32177e-06
-1.89256e-06
2.383e-06
-2.1877e-06
2.38689e-06
-2.473e-06
2.33683e-06
-2.74315e-06
2.23679e-06
-2.99351e-06
2.09119e-06
-3.22007e-06
1.90472e-06
-3.41939e-06
1.68224e-06
-3.58857e-06
1.42871e-06
-3.72523e-06
1.14917e-06
-3.82739e-06
8.48683e-07
-3.89357e-06
5.32407e-07
-3.92264e-06
2.05565e-07
-3.91395e-06
-1.26492e-07
-3.86723e-06
-4.58261e-07
-3.7827e-06
-7.84051e-07
-3.66109e-06
-1.09797e-06
-3.50366e-06
-1.39392e-06
-3.31231e-06
-1.66563e-06
-3.08966e-06
-1.90673e-06
-2.83907e-06
-2.11081e-06
-2.56473e-06
-2.27162e-06
-2.27174e-06
-2.38321e-06
-1.96607e-06
-2.44016e-06
-1.65462e-06
-2.4379e-06
-1.34513e-06
-2.37294e-06
-1.04609e-06
-2.24321e-06
-7.66628e-07
-2.04837e-06
-5.163e-07
-1.79008e-06
-3.04887e-07
-1.47218e-06
-1.42142e-07
-1.10084e-06
-3.75428e-08
-6.84548e-07
-2.34595e-07
-4.06415e-08
2.84049e-07
-1.51902e-07
8.09576e-07
-3.22851e-07
1.28099e-06
-5.42593e-07
1.69025e-06
-8.00528e-07
2.03229e-06
-1.08655e-06
2.30427e-06
-1.39118e-06
2.50531e-06
-1.70572e-06
2.63631e-06
-2.02225e-06
2.69953e-06
-2.33374e-06
2.69838e-06
-2.63396e-06
2.63705e-06
-2.91751e-06
2.52034e-06
-3.17972e-06
2.35341e-06
-3.41664e-06
2.14164e-06
-3.62491e-06
1.89051e-06
-3.80174e-06
1.60554e-06
-3.94482e-06
1.29225e-06
-4.05229e-06
9.56148e-07
-4.12266e-06
6.02782e-07
-4.15485e-06
2.37753e-07
-4.14812e-06
-1.33223e-07
-4.10212e-06
-5.04262e-07
-4.01691e-06
-8.69262e-07
-3.89301e-06
-1.22186e-06
-3.73149e-06
-1.55544e-06
-3.53401e-06
-1.86311e-06
-3.30297e-06
-2.13777e-06
-3.04157e-06
-2.37222e-06
-2.7539e-06
-2.55929e-06
-2.44507e-06
-2.69204e-06
-2.12122e-06
-2.76401e-06
-1.78956e-06
-2.76955e-06
-1.45836e-06
-2.70414e-06
-1.13683e-06
-2.56474e-06
-8.35007e-07
-2.3502e-06
-5.6354e-07
-2.06154e-06
-3.33429e-07
-1.70229e-06
-1.55722e-07
-1.27855e-06
-4.12016e-08
-7.99069e-07
-2.75797e-07
-4.3855e-08
3.27904e-07
-1.63659e-07
9.29381e-07
-3.47305e-07
1.46463e-06
-5.82721e-07
1.92567e-06
-8.58199e-07
2.30777e-06
-1.16264e-06
2.60871e-06
-1.48574e-06
2.82841e-06
-1.81812e-06
2.96869e-06
-2.15139e-06
3.03281e-06
-2.47819e-06
3.02518e-06
-2.79214e-06
2.951e-06
-3.08778e-06
2.81598e-06
-3.3605e-06
2.62613e-06
-3.60645e-06
2.38759e-06
-3.82245e-06
2.10651e-06
-4.00587e-06
1.78896e-06
-4.15456e-06
1.44094e-06
-4.26678e-06
1.06837e-06
-4.34114e-06
6.77137e-07
-4.37655e-06
2.73168e-07
-4.37225e-06
-1.37524e-07
-4.32777e-06
-5.48743e-07
-4.24299e-06
-9.5404e-07
-4.1182e-06
-1.34665e-06
-3.95418e-06
-1.71946e-06
-3.75229e-06
-2.06499e-06
-3.51463e-06
-2.37544e-06
-3.24411e-06
-2.64274e-06
-2.94466e-06
-2.85874e-06
-2.6213e-06
-3.01541e-06
-2.28023e-06
-3.10508e-06
-1.92895e-06
-3.12084e-06
-1.5762e-06
-3.05689e-06
-1.23194e-06
-2.909e-06
-9.0716e-07
-2.67497e-06
-6.13705e-07
-2.355e-06
-3.63921e-07
-1.95207e-06
-1.70319e-07
-1.47215e-06
-4.51622e-08
-9.24225e-07
-3.20959e-07
-4.72282e-08
3.75132e-07
-1.75926e-07
1.05808e-06
-3.72674e-07
1.66138e-06
-6.24093e-07
2.17709e-06
-9.17255e-07
2.60093e-06
-1.23999e-06
2.93144e-06
-1.5811e-06
3.16952e-06
-1.93053e-06
3.31812e-06
-2.27943e-06
3.38171e-06
-2.62015e-06
3.3659e-06
-2.9462e-06
3.27705e-06
-3.25218e-06
3.12195e-06
-3.5336e-06
2.90755e-06
-3.78683e-06
2.64083e-06
-4.00892e-06
2.32861e-06
-4.19751e-06
1.97755e-06
-4.35067e-06
1.59409e-06
-4.46684e-06
1.18454e-06
-4.54477e-06
7.55067e-07
-4.58343e-06
3.11826e-07
-4.58201e-06
-1.38943e-07
-4.53993e-06
-5.90822e-07
-4.45687e-06
-1.0371e-06
-4.33284e-06
-1.47069e-06
-4.16825e-06
-1.88405e-06
-3.96409e-06
-2.26915e-06
-3.72203e-06
-2.61749e-06
-3.44463e-06
-2.92014e-06
-3.13547e-06
-3.1679e-06
-2.79937e-06
-3.3515e-06
-2.44253e-06
-3.46193e-06
-2.07259e-06
-3.49077e-06
-1.69876e-06
-3.43071e-06
-1.33172e-06
-3.27605e-06
-9.83483e-07
-3.02321e-06
-6.67174e-07
-2.67131e-06
-3.96655e-07
-2.22259e-06
-1.86097e-07
-1.68271e-06
-4.94773e-08
-1.06085e-06
-3.70437e-07
-5.07969e-08
4.25929e-07
-1.88817e-07
1.1961e-06
-3.99152e-07
1.87172e-06
-6.66949e-07
2.44488e-06
-9.77913e-07
2.9119e-06
-1.31869e-06
3.27222e-06
-1.67715e-06
3.52798e-06
-2.04253e-06
3.6835e-06
-2.40554e-06
3.74471e-06
-2.75831e-06
3.71867e-06
-3.09434e-06
3.61308e-06
-3.40834e-06
3.43595e-06
-3.69611e-06
3.19531e-06
-3.95431e-06
2.89903e-06
-4.18036e-06
2.55466e-06
-4.37223e-06
2.16942e-06
-4.52832e-06
1.75019e-06
-4.64734e-06
1.30356e-06
-4.72821e-06
8.35933e-07
-4.76999e-06
3.53607e-07
-4.77187e-06
-1.37065e-07
-4.73314e-06
-6.29547e-07
-4.65326e-06
-1.11698e-06
-4.5319e-06
-1.59205e-06
-4.36907e-06
-2.04688e-06
-4.16526e-06
-2.47297e-06
-3.92161e-06
-2.86114e-06
-3.64015e-06
-3.2016e-06
-3.324e-06
-3.48404e-06
-2.97763e-06
-3.69788e-06
-2.60703e-06
-3.83252e-06
-2.21995e-06
-3.87786e-06
-1.82592e-06
-3.82474e-06
-1.43634e-06
-3.66563e-06
-1.06429e-06
-3.39526e-06
-7.24297e-07
-3.0113e-06
-4.31917e-07
-2.51497e-06
-2.03227e-07
-1.9114e-06
-5.42023e-08
-1.20987e-06
-4.24639e-07
-5.46044e-08
4.80534e-07
-2.02467e-07
1.34396e-06
-4.26969e-07
2.09622e-06
-7.11561e-07
2.72948e-06
-1.0404e-06
3.24074e-06
-1.39883e-06
3.63064e-06
-1.77368e-06
3.90283e-06
-2.15351e-06
4.06333e-06
-2.5286e-06
4.11981e-06
-2.89097e-06
4.08104e-06
-3.2342e-06
3.95631e-06
-3.55327e-06
3.75502e-06
-3.84435e-06
3.48639e-06
-4.10457e-06
3.15925e-06
-4.33183e-06
2.78191e-06
-4.52456e-06
2.36215e-06
-4.68158e-06
1.90721e-06
-4.80195e-06
1.42393e-06
-4.88483e-06
9.18812e-07
-4.92943e-06
3.98208e-07
-4.93495e-06
-1.31542e-07
-4.90058e-06
-6.63916e-07
-4.82552e-06
-1.19204e-06
-4.70908e-06
-1.7085e-06
-4.55075e-06
-2.20521e-06
-4.35044e-06
-2.67328e-06
-4.10863e-06
-3.10294e-06
-3.82668e-06
-3.48356e-06
-3.50703e-06
-3.80369e-06
-3.15362e-06
-4.05129e-06
-2.77207e-06
-4.21407e-06
-2.37001e-06
-4.27991e-06
-1.95724e-06
-4.23751e-06
-1.54579e-06
-4.07708e-06
-1.14982e-06
-3.79123e-06
-7.85399e-07
-3.37573e-06
-4.69998e-07
-2.83037e-06
-2.2189e-07
-2.15951e-06
-5.93978e-08
-1.37236e-06
-4.84037e-07
-5.8707e-08
5.39241e-07
-2.17052e-07
1.50231e-06
-4.56413e-07
2.33558e-06
-7.58264e-07
3.03133e-06
-1.10498e-06
3.58746e-06
-1.48044e-06
4.0061e-06
-1.87038e-06
4.29277e-06
-2.26263e-06
4.45558e-06
-2.64716e-06
4.50434e-06
-3.01595e-06
4.44983e-06
-3.36282e-06
4.30318e-06
-3.68319e-06
4.07538e-06
-3.97376e-06
3.77697e-06
-4.23231e-06
3.4178e-06
-4.45733e-06
3.00693e-06
-4.64786e-06
2.55268e-06
-4.80327e-06
2.06261e-06
-4.92303e-06
1.54369e-06
-5.00666e-06
1.00244e-06
-5.05355e-06
4.451e-07
-5.06296e-06
-1.2213e-07
-5.03398e-06
-6.92899e-07
-4.96555e-06
-1.26047e-06
-4.85655e-06
-1.8175e-06
-4.70593e-06
-2.35583e-06
-4.51288e-06
-2.86633e-06
-4.27709e-06
-3.33874e-06
-3.99903e-06
-3.76162e-06
-3.6803e-06
-4.12241e-06
-3.32403e-06
-4.40756e-06
-2.93525e-06
-4.60285e-06
-2.52126e-06
-4.6939e-06
-2.09193e-06
-4.66684e-06
-1.65982e-06
-4.50919e-06
-1.24021e-06
-4.21084e-06
-8.50788e-07
-3.76514e-06
-5.11206e-07
-3.16995e-06
-2.42287e-07
-2.42843e-06
-6.51338e-08
-1.54951e-06
-5.4917e-07
-6.318e-08
6.02421e-07
-2.32802e-07
1.67193e-06
-4.87861e-07
2.59064e-06
-8.0749e-07
3.35096e-06
-1.17199e-06
3.95196e-06
-1.56357e-06
4.39768e-06
-1.9668e-06
4.696e-06
-2.36882e-06
4.85759e-06
-2.75934e-06
4.89486e-06
-3.13049e-06
4.82098e-06
-3.47652e-06
4.64921e-06
-3.79347e-06
4.39233e-06
-4.07881e-06
4.06231e-06
-4.33109e-06
3.67008e-06
-4.54963e-06
3.22547e-06
-4.7342e-06
2.73726e-06
-4.88483e-06
2.21324e-06
-5.00154e-06
1.66041e-06
-5.08426e-06
1.08515e-06
-5.13264e-06
4.9348e-07
-5.14604e-06
-1.08731e-07
-5.12347e-06
-7.1547e-07
-5.06361e-06
-1.32032e-06
-4.9649e-06
-1.9162e-06
-4.82566e-06
-2.49507e-06
-4.64427e-06
-3.04772e-06
-4.41945e-06
-3.56355e-06
-4.15062e-06
-4.03046e-06
-3.83826e-06
-4.43477e-06
-3.48445e-06
-4.76137e-06
-3.09331e-06
-4.99399e-06
-2.67152e-06
-5.11569e-06
-2.22876e-06
-5.10961e-06
-1.77797e-06
-4.95998e-06
-1.33549e-06
-4.65333e-06
-9.20765e-07
-4.17986e-06
-5.55884e-07
-3.53484e-06
-2.64656e-07
-2.71966e-06
-7.14942e-08
-1.74268e-06
-6.20664e-07
-6.81269e-08
6.70548e-07
-2.50029e-07
1.85383e-06
-5.21817e-07
2.86243e-06
-8.59804e-07
3.68894e-06
-1.24185e-06
4.33401e-06
-1.64826e-06
4.8041e-06
-2.06236e-06
5.1101e-06
-2.47064e-06
5.26588e-06
-2.86274e-06
5.28696e-06
-3.23113e-06
5.18936e-06
-3.57072e-06
4.9888e-06
-3.87845e-06
4.70006e-06
-4.15276e-06
4.33663e-06
-4.39323e-06
3.91055e-06
-4.60016e-06
3.4324e-06
-4.77423e-06
2.91133e-06
-4.91625e-06
2.35525e-06
-5.0269e-06
1.77106e-06
-5.1066e-06
1.16485e-06
-5.15535e-06
5.42229e-07
-5.17265e-06
-9.14311e-08
-5.15747e-06
-7.30653e-07
-5.10824e-06
-1.36955e-06
-5.02294e-06
-2.0015e-06
-4.8992e-06
-2.61881e-06
-4.73451e-06
-3.21242e-06
-4.52647e-06
-3.77159e-06
-4.27324e-06
-4.28369e-06
-3.97393e-06
-4.73408e-06
-3.62921e-06
-5.10609e-06
-3.24194e-06
-5.38127e-06
-2.8178e-06
-5.53983e-06
-2.36594e-06
-5.56146e-06
-1.89945e-06
-5.42647e-06
-1.43558e-06
-5.1172e-06
-9.9563e-07
-4.61981e-06
-6.0443e-07
-3.92604e-06
-2.89284e-07
-3.0348e-06
-7.85841e-08
-1.95338e-06
-6.99249e-07
-7.36909e-08
7.44239e-07
-2.6916e-07
2.0493e-06
-5.58959e-07
3.15223e-06
-9.15949e-07
4.04593e-06
-1.31508e-06
4.73314e-06
-1.73451e-06
5.22353e-06
-2.15625e-06
5.53183e-06
-2.56626e-06
5.67589e-06
-2.95431e-06
5.67501e-06
-3.31351e-06
5.54857e-06
-3.63977e-06
5.31507e-06
-3.9312e-06
4.99149e-06
-4.18753e-06
4.59295e-06
-4.40957e-06
4.1326e-06
-4.59882e-06
3.62165e-06
-4.75701e-06
3.06953e-06
-4.88588e-06
2.48412e-06
-4.98688e-06
1.87206e-06
-5.061e-06
1.23897e-06
-5.10865e-06
5.89874e-07
-5.12953e-06
-7.05513e-08
-5.12261e-06
-7.37569e-07
-5.08612e-06
-1.40604e-06
-5.01757e-06
-2.07005e-06
-4.91387e-06
-2.72251e-06
-4.77155e-06
-3.35474e-06
-4.58698e-06
-3.95616e-06
-4.35682e-06
-4.51385e-06
-4.07854e-06
-5.01236e-06
-3.75105e-06
-5.43358e-06
-3.37549e-06
-5.75682e-06
-2.9561e-06
-5.95922e-06
-2.50101e-06
-6.01655e-06
-2.02307e-06
-5.90442e-06
-1.54023e-06
-5.60003e-06
-1.0757e-06
-5.08435e-06
-6.57325e-07
-4.34441e-06
-3.16535e-07
-3.37559e-06
-8.65397e-08
-2.18337e-06
-7.85788e-07
-8.00718e-08
8.24311e-07
-2.90782e-07
2.26001e-06
-6.00193e-07
3.46164e-06
-9.7689e-07
4.42263e-06
-1.39233e-06
5.14857e-06
-1.82224e-06
5.65344e-06
-2.2473e-06
5.95689e-06
-2.65315e-06
6.08174e-06
-3.03003e-06
6.05189e-06
-3.37208e-06
5.89062e-06
-3.67661e-06
5.61959e-06
-3.94326e-06
5.25814e-06
-4.17335e-06
4.82304e-06
-4.36922e-06
4.32847e-06
-4.53374e-06
3.78616e-06
-4.66986e-06
3.20565e-06
-4.78036e-06
2.59462e-06
-4.86754e-06
1.95923e-06
-4.93304e-06
1.30448e-06
-4.97774e-06
6.34572e-07
-5.00161e-06
-4.66787e-08
-5.00368e-06
-7.35496e-07
-4.98201e-06
-1.42772e-06
-4.93367e-06
-2.11839e-06
-4.85489e-06
-2.80128e-06
-4.74118e-06
-3.46846e-06
-4.58758e-06
-4.10976e-06
-4.38909e-06
-4.71233e-06
-4.14125e-06
-5.2602e-06
-3.84081e-06
-5.73402e-06
-3.4867e-06
-6.11093e-06
-3.0811e-06
-6.36482e-06
-2.63056e-06
-6.46709e-06
-2.14709e-06
-6.38789e-06
-1.64901e-06
-6.09811e-06
-1.16129e-06
-5.57206e-06
-7.15168e-07
-4.79053e-06
-3.46888e-07
-3.74387e-06
-9.55435e-08
-2.43472e-06
-8.81332e-07
-8.75511e-08
9.11862e-07
-3.15698e-07
2.48816e-06
-6.46735e-07
3.79268e-06
-1.04386e-06
4.81975e-06
-1.47432e-06
5.57903e-06
-1.91114e-06
6.09026e-06
-2.33376e-06
6.37951e-06
-2.72785e-06
6.47583e-06
-3.08459e-06
6.40863e-06
-3.3997e-06
6.20574e-06
-3.67236e-06
5.89225e-06
-3.90421e-06
5.48999e-06
-4.09848e-06
5.01731e-06
-4.25929e-06
4.48928e-06
-4.39108e-06
3.91795e-06
-4.49817e-06
3.31274e-06
-4.58444e-06
2.68089e-06
-4.6531e-06
2.02789e-06
-4.70651e-06
1.35789e-06
-4.74606e-06
6.7412e-07
-4.77204e-06
-2.06947e-08
-4.78361e-06
-7.23928e-07
-4.77871e-06
-1.43262e-06
-4.75408e-06
-2.14302e-06
-4.70529e-06
-2.85007e-06
-4.62685e-06
-3.5469e-06
-4.51245e-06
-4.22416e-06
-4.35531e-06
-4.86947e-06
-4.14875e-06
-5.46676e-06
-3.887e-06
-5.99578e-06
-3.56621e-06
-6.43172e-06
-3.18579e-06
-6.74523e-06
-2.74992e-06
-6.90297e-06
-2.26901e-06
-6.86879e-06
-1.76112e-06
-6.606e-06
-1.25274e-06
-6.08044e-06
-7.78726e-07
-5.26455e-06
-3.80981e-07
-4.14162e-06
-1.05846e-07
-2.70985e-06
-9.87178e-07
-9.65282e-08
1.00839e-06
-3.4502e-07
2.73665e-06
-7.00188e-07
4.14785e-06
-1.11837e-06
5.23793e-06
-1.56176e-06
6.02242e-06
-2.00046e-06
6.52896e-06
-2.41292e-06
6.79197e-06
-2.78542e-06
6.84833e-06
-3.1108e-06
6.73401e-06
-3.38703e-06
6.48196e-06
-3.61577e-06
6.121e-06
-3.80115e-06
5.67536e-06
-3.94868e-06
5.16484e-06
-4.0645e-06
4.60511e-06
-4.15477e-06
4.00821e-06
-4.22522e-06
3.38319e-06
-4.28091e-06
2.73658e-06
-4.32596e-06
2.07295e-06
-4.36347e-06
1.3954e-06
-4.39535e-06
7.05999e-07
-4.42227e-06
6.22111e-09
-4.44355e-06
-7.02638e-07
-4.45716e-06
-1.41902e-06
-4.45957e-06
-2.14061e-06
-4.44582e-06
-2.86382e-06
-4.40955e-06
-3.58317e-06
-4.3431e-06
-4.29061e-06
-4.23787e-06
-4.97469e-06
-4.08483e-06
-5.61981e-06
-3.87527e-06
-6.20534e-06
-3.60201e-06
-6.70498e-06
-3.26091e-06
-7.08634e-06
-2.85272e-06
-7.31115e-06
-2.38524e-06
-7.33628e-06
-1.8753e-06
-7.11594e-06
-1.35036e-06
-6.60538e-06
-8.48989e-07
-5.76592e-06
-4.19692e-07
-4.57091e-06
-1.17802e-07
-3.01174e-06
-1.10498e-06
-1.07577e-07
1.11597e-06
-3.80279e-07
3.00935e-06
-7.62651e-07
4.53022e-06
-1.20221e-06
5.6775e-06
-1.65514e-06
6.47535e-06
-2.08853e-06
6.96235e-06
-2.48048e-06
7.18392e-06
-2.81873e-06
7.18658e-06
-3.09876e-06
7.01404e-06
-3.3217e-06
6.7049e-06
-3.49243e-06
6.29172e-06
-3.61806e-06
5.80099e-06
-3.70673e-06
5.25351e-06
-3.76678e-06
4.66515e-06
-3.80614e-06
4.04758e-06
-3.83201e-06
3.40905e-06
-3.85053e-06
2.7551e-06
-3.86671e-06
2.08913e-06
-3.88433e-06
1.41301e-06
-3.9058e-06
7.27475e-07
-3.9322e-06
3.26159e-08
-3.9631e-06
-6.71734e-07
-3.99656e-06
-1.38556e-06
-4.02898e-06
-2.10819e-06
-4.05504e-06
-2.83775e-06
-4.06768e-06
-3.57053e-06
-4.0581e-06
-4.30019e-06
-4.01597e-06
-5.01683e-06
-3.9298e-06
-5.70598e-06
-3.78774e-06
-6.3474e-06
-3.57872e-06
-6.914e-06
-3.29413e-06
-7.37093e-06
-2.93016e-06
-7.67512e-06
-2.49052e-06
-7.77592e-06
-1.98944e-06
-7.61702e-06
-1.45433e-06
-7.14049e-06
-9.27228e-07
-6.29302e-06
-4.64239e-07
-5.0339e-06
-1.31924e-07
-3.34406e-06
-1.2369e-06
-1.2154e-07
1.23751e-06
-4.23604e-07
3.31141e-06
-8.36821e-07
4.94343e-06
-1.29732e-06
6.13799e-06
-1.75426e-06
6.93229e-06
-2.17207e-06
7.38016e-06
-2.52952e-06
7.54137e-06
-2.81724e-06
7.4743e-06
-3.03469e-06
7.23149e-06
-3.18723e-06
6.85744e-06
-3.28378e-06
6.38827e-06
-3.33493e-06
5.85214e-06
-3.35172e-06
5.2703e-06
-3.34476e-06
4.65819e-06
-3.32372e-06
4.02655e-06
-3.2971e-06
3.38243e-06
-3.27201e-06
2.73001e-06
-3.25421e-06
2.07133e-06
-3.24801e-06
1.40681e-06
-3.2563e-06
7.35767e-07
-3.28051e-06
5.68297e-08
-3.32055e-06
-6.31695e-07
-3.37469e-06
-1.33142e-06
-3.43945e-06
-2.04343e-06
-3.50943e-06
-2.76777e-06
-3.57718e-06
-3.50279e-06
-3.63304e-06
-4.24432e-06
-3.66523e-06
-4.98464e-06
-3.66e-06
-5.71121e-06
-3.60224e-06
-6.40516e-06
-3.47656e-06
-7.03968e-06
-3.26906e-06
-7.57843e-06
-2.96996e-06
-7.97422e-06
-2.57709e-06
-8.16879e-06
-2.10006e-06
-8.09405e-06
-1.56446e-06
-7.67609e-06
-1.01505e-06
-6.84243e-06
-5.1634e-07
-5.53261e-06
-1.48975e-07
-3.71142e-06
-1.38588e-06
-1.39675e-07
1.37718e-06
-4.77965e-07
3.6497e-06
-9.26065e-07
5.39153e-06
-1.40542e-06
6.61735e-06
-1.85742e-06
7.38429e-06
-2.24481e-06
7.76755e-06
-2.54894e-06
7.8455e-06
-2.76536e-06
7.69072e-06
-2.89923e-06
7.36536e-06
-2.96148e-06
6.91969e-06
-2.96583e-06
6.39263e-06
-2.9268e-06
5.81311e-06
-2.85838e-06
5.20189e-06
-2.77336e-06
4.57316e-06
-2.68292e-06
3.93611e-06
-2.59656e-06
3.29608e-06
-2.52212e-06
2.65557e-06
-2.46581e-06
2.01501e-06
-2.4323e-06
1.3733e-06
-2.42481e-06
7.28278e-07
-2.4451e-06
7.71118e-08
-2.4934e-06
-5.83391e-07
-2.56837e-06
-1.25645e-06
-2.66687e-06
-1.94492e-06
-2.78376e-06
-2.65088e-06
-2.91161e-06
-3.37494e-06
-3.04044e-06
-4.1155e-06
-3.15748e-06
-4.8676e-06
-3.24716e-06
-5.62153e-06
-3.29133e-06
-6.36098e-06
-3.27016e-06
-7.06086e-06
-3.16372e-06
-7.68486e-06
-2.95486e-06
-8.18309e-06
-2.63332e-06
-8.49033e-06
-2.20129e-06
-8.52607e-06
-1.67977e-06
-8.19761e-06
-1.11438e-06
-7.40783e-06
-5.78428e-07
-6.06857e-06
-1.70121e-07
-4.11973e-06
-1.556e-06
-1.63923e-07
1.5411e-06
-5.47508e-07
4.03329e-06
-1.03436e-06
5.87839e-06
-1.52727e-06
7.11025e-06
-1.95982e-06
7.81684e-06
-2.29539e-06
8.10312e-06
-2.52097e-06
8.07109e-06
-2.63988e-06
7.80963e-06
-2.66518e-06
7.39065e-06
-2.61469e-06
6.86921e-06
-2.50764e-06
6.28558e-06
-2.36258e-06
5.66805e-06
-2.19628e-06
5.03559e-06
-2.02331e-06
4.40018e-06