/*--------------------------------*- C++ -*----------------------------------*\
  =========                 |
  \\      /  F ield         | OpenFOAM: The Open Source CFD Toolbox
   \\    /   O peration     | Website:  https://openfoam.org
    \\  /    A nd           | Version:  7
     \\/     M anipulation  |
\*---------------------------------------------------------------------------*/
FoamFile
{
    version     2.0;
    format      ascii;
    class       volScalarField;
    location    "50";
    object      k;
}
// * * * * * * * * * * * * * * * * * * * * * * * * * * * * * * * * * * * * * //

dimensions      [0 2 -2 0 0 0 0];

internalField   nonuniform List<scalar> 
12842
(
0.00568791
0.00509116
0.00472227
0.00446846
0.00430734
0.00418807
0.00408916
0.00403341
0.00398065
0.0039583
0.00393473
0.00393807
0.00395423
0.00398906
0.00402791
0.00408325
0.00412106
0.00417596
0.00421867
0.00427087
0.00433382
0.00437644
0.00446012
0.00565564
0.00503461
0.00469945
0.00445521
0.00430015
0.00418226
0.00408868
0.00402478
0.00397237
0.00395218
0.00392844
0.00393257
0.00395177
0.00399052
0.00402994
0.00408819
0.00413282
0.00418453
0.00423786
0.00430521
0.00435554
0.00440127
0.00448949
0.00561191
0.0049694
0.00460592
0.00438327
0.00425091
0.00414684
0.00406813
0.0040091
0.00395946
0.00394342
0.00392495
0.00393024
0.00395108
0.00399692
0.00405008
0.0041275
0.0041802
0.00423469
0.00428127
0.00434
0.00443229
0.00450432
0.00459388
0.00555301
0.00492833
0.004572
0.00435452
0.00422848
0.00412857
0.0040569
0.00399863
0.00395228
0.00393785
0.00391895
0.00392604
0.0039524
0.0040043
0.00406315
0.00415567
0.00421987
0.00427724
0.00435684
0.00441511
0.00450354
0.00461178
0.00475105
0.00549143
0.00483251
0.00448311
0.00428837
0.00417748
0.00408501
0.00402925
0.00397965
0.00394382
0.00393147
0.00391615
0.00392545
0.00395916
0.00402983
0.00411522
0.00421817
0.00429609
0.00436515
0.00443472
0.00450508
0.00462388
0.00474369
0.00491502
0.0054341
0.00478706
0.00444194
0.00426
0.00415462
0.00406483
0.00401177
0.00396446
0.00393687
0.003926
0.00391091
0.00392422
0.00396942
0.004062
0.00416193
0.00427652
0.00436724
0.00444224
0.0045521
0.00463896
0.00476461
0.00491758
0.00510427
0.00536697
0.00471237
0.00437031
0.004202
0.00411211
0.00403438
0.00398904
0.00394853
0.00392982
0.00392227
0.00390936
0.00393281
0.0039993
0.00412409
0.00425896
0.00437503
0.00447025
0.00456782
0.00467448
0.00477764
0.00493848
0.00512945
0.00533393
0.00531037
0.00466237
0.00433059
0.00417926
0.00408337
0.00401403
0.00397335
0.00393653
0.00392354
0.00391203
0.00390698
0.00393872
0.00403899
0.00418261
0.00433872
0.00448825
0.00458703
0.00469344
0.00483718
0.00495644
0.00511902
0.00533964
0.00554516
0.00524451
0.00460222
0.00428468
0.00413723
0.00405282
0.00399248
0.00395096
0.00392609
0.00391962
0.00390375
0.00391329
0.00397133
0.0041116
0.00428925
0.0044714
0.00462504
0.00474089
0.00487536
0.00502171
0.00517687
0.00536233
0.00561172
0.00582148
0.00518121
0.00454815
0.00424513
0.00412042
0.00403127
0.00397605
0.00394164
0.00391926
0.00391763
0.00391143
0.00393501
0.00401428
0.00418472
0.00439163
0.0046002
0.00477057
0.00489878
0.00505663
0.00520988
0.00538527
0.00558433
0.0058412
0.00604534
0.00511201
0.00449084
0.00420957
0.0040873
0.00400321
0.00396138
0.00392294
0.00391233
0.00391351
0.00391837
0.00396756
0.00408586
0.00428642
0.00451945
0.00474531
0.00491532
0.00506445
0.00524154
0.00540033
0.00559379
0.00579934
0.00606353
0.00626423
0.00504366
0.00444356
0.00418069
0.0040724
0.00398913
0.00394632
0.00391382
0.00390647
0.00391071
0.00393706
0.00400986
0.00415515
0.00439894
0.00466414
0.0049071
0.00508741
0.00525675
0.00544829
0.00560718
0.00581136
0.00602025
0.00627836
0.00646422
0.00498036
0.00439287
0.0041465
0.00404309
0.00396413
0.00392996
0.0038978
0.00389867
0.0039055
0.00395175
0.0040576
0.00425559
0.00454401
0.00483041
0.00507916
0.00525517
0.00544372
0.0056459
0.00581628
0.0060188
0.006224
0.00647341
0.00665375
0.00491396
0.00435154
0.00412946
0.00402964
0.00395277
0.00392056
0.00389063
0.00389363
0.00390151
0.00398454
0.0041258
0.00436213
0.00469471
0.00501076
0.00527024
0.00545611
0.00566262
0.00586174
0.00602513
0.00623312
0.00642545
0.0066605
0.00682891
0.00485352
0.00430618
0.00410002
0.00400342
0.00393182
0.00390328
0.00387808
0.00388589
0.00389592
0.00401302
0.00419562
0.00449542
0.00487
0.00519943
0.00545533
0.0056315
0.00584687
0.00604456
0.00622875
0.0064196
0.00661217
0.00682409
0.00697913
0.0047967
0.00427121
0.00408687
0.00399125
0.00392201
0.00389527
0.00387254
0.00388332
0.00390658
0.00406958
0.0042993
0.00464552
0.00504749
0.00539617
0.00566187
0.0058476
0.00607317
0.00626033
0.00642053
0.00661181
0.00677644
0.00697589
0.00712215
0.00474686
0.00423143
0.00406338
0.00396827
0.00390309
0.00388076
0.0038591
0.00387485
0.00391696
0.00411903
0.00439292
0.00480255
0.00523391
0.00558936
0.00584493
0.00601771
0.0062354
0.00640972
0.00659131
0.00676204
0.00694151
0.00712369
0.00726583
0.00470426
0.00419727
0.00405081
0.00395762
0.00389405
0.00387435
0.00387204
0.00389977
0.00397408
0.0042087
0.00453331
0.00498794
0.00542805
0.00578805
0.00604932
0.00622174
0.00644529
0.00660947
0.00676638
0.00692975
0.00707999
0.00724273
0.0073673
0.00466615
0.00416682
0.00403396
0.00393796
0.00387609
0.00385987
0.00387578
0.00392005
0.00402435
0.00428287
0.00464757
0.00515304
0.00560729
0.0059724
0.00622267
0.00638677
0.00658543
0.00674285
0.00689874
0.00705001
0.00721412
0.00737561
0.00751916
0.00463195
0.00413266
0.00401585
0.00392852
0.00386811
0.00385666
0.00392828
0.00400324
0.00413193
0.00440729
0.00481399
0.00535067
0.00580094
0.00615895
0.00641059
0.00656433
0.0067683
0.00690334
0.00706973
0.00720256
0.00734207
0.00750232
0.00761047
0.00460301
0.00410639
0.00400567
0.0039103
0.00385101
0.0038537
0.00398419
0.00407169
0.00420764
0.00450679
0.00494576
0.00552063
0.0059738
0.00633632
0.00657478
0.00671698
0.00689827
0.00705809
0.00717647
0.00731154
0.0074857
0.00761621
0.00773162
0.00457542
0.00407504
0.00398507
0.00390172
0.00385409
0.00388561
0.00408779
0.00419728
0.0043453
0.00465743
0.00511959
0.00570676
0.00614834
0.0064977
0.00674007
0.00688681
0.00705224
0.00716857
0.00732706
0.0074649
0.00757719
0.00772302
0.00785102
0.00455202
0.00405274
0.00397431
0.00388331
0.00384741
0.00393547
0.0041645
0.00428382
0.00444416
0.0047756
0.00525786
0.00587011
0.00630972
0.00666361
0.00689587
0.00700136
0.00718276
0.00733703
0.0074682
0.00755984
0.00773245
0.0078912
0.00798995
0.00453148
0.00402682
0.00395839
0.00388002
0.00387406
0.00404234
0.00429264
0.00443172
0.00461373
0.0049512
0.00544102
0.00605504
0.00647686
0.00681172
0.00704496
0.00719579
0.00733454
0.0075
0.0075888
0.00773086
0.00791008
0.00801621
0.00812739
0.00451696
0.00400904
0.00395282
0.00388393
0.00393191
0.00414167
0.00440187
0.00455372
0.00474724
0.00509125
0.00558366
0.00620221
0.0066117
0.00695406
0.0071982
0.00729802
0.00749872
0.00760556
0.00778279
0.00795927
0.00804963
0.00812933
0.00829479
0.004501
0.00399403
0.00394375
0.00392467
0.00403085
0.00425475
0.00450415
0.00467311
0.00487923
0.00522633
0.00572348
0.0063431
0.00674439
0.00707071
0.00731822
0.00747447
0.00764561
0.00789947
0.00807478
0.00813416
0.00829033
0.00859777
0.00907885
0.00448317
0.00397998
0.00393409
0.00399204
0.0041289
0.00436406
0.00461332
0.00479287
0.00500727
0.00535483
0.00585095
0.00647036
0.00685967
0.00719889
0.0074849
0.00762559
0.00786575
0.00810063
0.00830579
0.00855517
0.00900994
0.00965415
0.0104051
0.00446872
0.00396361
0.0039432
0.00408432
0.00424127
0.00448374
0.00471888
0.0049069
0.00512851
0.00547231
0.00597182
0.0065887
0.00697745
0.0073005
0.00758182
0.00778334
0.00813323
0.00838786
0.00877487
0.00921147
0.00992436
0.0107509
0.0122439
0.00445016
0.00395936
0.00397756
0.0041764
0.00434953
0.00459523
0.00482423
0.00501768
0.00524134
0.00557996
0.00607869
0.00669409
0.00707271
0.00742263
0.00776688
0.00798142
0.00831719
0.00887633
0.00945442
0.0101614
0.0110049
0.0128358
0.0166199
0.00443096
0.00397281
0.0040352
0.00428238
0.00446287
0.00471035
0.00492628
0.00511936
0.00534432
0.00567587
0.00617907
0.00678656
0.00717683
0.00752396
0.00787028
0.00820887
0.0087087
0.00945645
0.0104987
0.0111621
0.0130012
0.0172922
0.021351
0.00441821
0.00401124
0.00411787
0.00438126
0.00457304
0.00481408
0.00502201
0.00521349
0.00543682
0.0057596
0.00626299
0.00686807
0.00724781
0.00762597
0.00806049
0.00842021
0.00931196
0.0103286
0.0115025
0.012956
0.0174095
0.022554
0.0262084
0.00440578
0.00407049
0.00419468
0.00449169
0.00467852
0.00491762
0.0051141
0.00529798
0.0055192
0.00583581
0.00634612
0.00693835
0.00734602
0.00775111
0.00818811
0.00889602
0.00971985
0.0117628
0.013726
0.0173786
0.0231048
0.0280802
0.0302821
0.00438396
0.00414185
0.00429787
0.00458665
0.00478536
0.00500656
0.00519598
0.00537366
0.0055911
0.00589879
0.00641106
0.00700485
0.00740469
0.00783289
0.00845079
0.00934433
0.010859
0.0138922
0.0180319
0.0224534
0.0286659
0.0319371
0.0328129
0.00437705
0.00421863
0.00438626
0.00469558
0.00487704
0.00509306
0.00527447
0.00543977
0.00565414
0.0059578
0.00647975
0.00705623
0.00748769
0.00797755
0.0086283
0.0099526
0.0133863
0.0183569
0.023093
0.0277533
0.0326767
0.0344024
0.0347115
0.00439249
0.00431225
0.00448727
0.00478315
0.00497081
0.00516739
0.00534292
0.00549865
0.00570825
0.00600634
0.0065332
0.00711929
0.00756345
0.00808373
0.00909621
0.0116345
0.0154032
0.022855
0.0281454
0.031507
0.0352215
0.0361243
0.0358173
0.00442553
0.00439795
0.00457722
0.00488136
0.00505346
0.00523767
0.00540603
0.005549
0.00575496
0.00605043
0.00658911
0.00715836
0.00762014
0.00825315
0.00973784
0.0140136
0.0200504
0.0295699
0.0324386
0.0339208
0.0369109
0.0367474
0.0359848
0.00447469
0.00449943
0.00467119
0.00496478
0.00512703
0.00529631
0.00546067
0.00559378
0.00579515
0.00608978
0.00663699
0.00721978
0.00772469
0.00852229
0.0108157
0.0165262
0.0280743
0.0351503
0.0345454
0.0353365
0.036784
0.0365872
0.0360221
0.00452895
0.00459266
0.0047547
0.00504366
0.0052001
0.00535506
0.00551238
0.00563266
0.00582928
0.00612202
0.00668317
0.00726084
0.00778725
0.00876609
0.0127892
0.0224489
0.0354157
0.0390606
0.0361909
0.0363798
0.0371958
0.0364277
0.0355128
0.00459065
0.0046831
0.00483784
0.00511958
0.0052585
0.0054028
0.00555372
0.00566671
0.00585914
0.00615572
0.00672754
0.00731573
0.0079229
0.00952339
0.0156122
0.0313915
0.0430563
0.0421464
0.0365368
0.0354259
0.0370925
0.0359855
0.0345885
0.00465865
0.00478639
0.00491863
0.00518623
0.00532122
0.00544931
0.00559066
0.00569764
0.00588464
0.00617914
0.00676842
0.00737051
0.00803121
0.0102399
0.0206484
0.0393107
0.0473521
0.0434448
0.036677
0.0360853
0.0367375
0.0359806
0.033643
0.00472619
0.00485589
0.00498834
0.00524368
0.00536693
0.00548678
0.0056283
0.0057245
0.0059069
0.0062097
0.00680933
0.00742192
0.00827704
0.0120973
0.0260406
0.0447498
0.0495706
0.0435718
0.0361544
0.0349829
0.0369278
0.035432
0.0326885
0.00479726
0.00495501
0.00506326
0.0052971
0.00541167
0.00552829
0.00564649
0.00574935
0.00592707
0.00622754
0.00684866
0.00750331
0.00857572
0.0139317
0.0309501
0.0479934
0.0507996
0.0436838
0.0363627
0.0356485
0.0360988
0.0362217
0.031643
0.00486531
0.00501724
0.0051238
0.00534272
0.00545585
0.00555319
0.00565347
0.00577109
0.00594414
0.00625545
0.00688727
0.00756458
0.00897187
0.0160306
0.034619
0.0496563
0.0510298
0.0439642
0.0364697
0.0359045
0.0371804
0.0368916
0.0304229
0.00493013
0.00508634
0.00517872
0.00537966
0.00548118
0.00558288
0.00566814
0.00579128
0.00596065
0.00627257
0.00692657
0.00766707
0.00947997
0.0182368
0.0370436
0.0502624
0.0512162
0.0438482
0.0365675
0.0348076
0.0377865
0.0362308
0.0319402
0.00499215
0.00514636
0.00523435
0.0054069
0.00549971
0.00560446
0.00568345
0.00580874
0.00597509
0.006296
0.00696456
0.00775554
0.00999478
0.0197841
0.0385175
0.050416
0.0513768
0.0435139
0.0363655
0.0359834
0.0368308
0.035163
0.0308958
0.00504621
0.00518963
0.00527472
0.0054312
0.00551496
0.00562079
0.00569383
0.00582424
0.00598799
0.00631776
0.00700648
0.00787486
0.0104612
0.0218549
0.0395735
0.0504991
0.0514658
0.0436924
0.0366969
0.0364909
0.0351875
0.0339216
0.033115
0.00509826
0.00522052
0.00528009
0.00545078
0.00552513
0.00563106
0.00570225
0.00583778
0.00600194
0.00633689
0.00704271
0.00796389
0.0111963
0.023047
0.0400682
0.050602
0.0517565
0.0436625
0.0371421
0.0365298
0.0334128
0.0326559
0.0313761
0.00514056
0.00524036
0.00530191
0.00546961
0.0055376
0.0056377
0.00571335
0.00584946
0.00601172
0.00636234
0.00708432
0.00813012
0.0116179
0.0245148
0.0404522
0.0511016
0.0527866
0.0439595
0.0377643
0.0367424
0.0313836
0.0309419
0.0296203
0.00518452
0.00526172
0.00532762
0.00548961
0.00554765
0.00564465
0.00572182
0.00585973
0.00602512
0.00638563
0.00712954
0.00822591
0.0122621
0.0254383
0.0409878
0.0520989
0.0535693
0.0442557
0.0391681
0.0355344
0.0291519
0.0290169
0.0278633
0.00522217
0.0052898
0.00535853
0.00550737
0.00556135
0.00565949
0.00573599
0.00587033
0.00603447
0.00640616
0.00715905
0.00839119
0.0127159
0.0264988
0.0412546
0.0524261
0.0538654
0.0447262
0.0384578
0.0326324
0.0263966
0.0261284
0.0253099
0.005263
0.00531953
0.00538619
0.00553042
0.00557523
0.00567137
0.00574637
0.00587855
0.00604622
0.00643261
0.00720451
0.008483
0.0131698
0.0272724
0.0418224
0.0524722
0.0539523
0.0443258
0.0355565
0.0282756
0.0232506
0.0231424
0.0224889
0.00529975
0.00535172
0.00542125
0.00554948
0.0055918
0.005686
0.00576055
0.00588703
0.00605459
0.0064583
0.00722622
0.00859377
0.013575
0.027341
0.0422238
0.0510256
0.052376
0.0414618
0.0306348
0.0243388
0.0204424
0.0201178
0.0196889
0.00533544
0.00538478
0.00545458
0.0055719
0.00560886
0.00569813
0.0057723
0.00589395
0.00606558
0.00647607
0.00726355
0.00869913
0.0136761
0.0262408
0.0416916
0.0445541
0.0454141
0.0349292
0.0259422
0.020438
0.0175241
0.0172694
0.0169512
0.00537157
0.00541698
0.00549029
0.00559366
0.00562912
0.0057125
0.00578551
0.00590047
0.00607138
0.00650269
0.00728196
0.00872946
0.0134059
0.0234804
0.0388648
0.0364245
0.0363053
0.0283346
0.0213458
0.017248
0.0151308
0.0149008
0.0146631
0.00540704
0.00545226
0.00552412
0.00561491
0.00564829
0.00572728
0.00579762
0.00590663
0.00608125
0.00652582
0.00731192
0.00869568
0.0125056
0.0201636
0.0322392
0.0282445
0.0280476
0.0224696
0.0176152
0.0144933
0.0130871
0.0128493
0.0127671
0.00544113
0.00548511
0.00555866
0.00563722
0.0056698
0.00574338
0.00581061
0.00591379
0.00608988
0.0065503
0.00733833
0.00859634
0.0114955
0.017114
0.0254075
0.0217741
0.0213798
0.0177807
0.0146015
0.012484
0.0115989
0.0115257
0.0115356
0.00547442
0.00551751
0.00558898
0.00565676
0.00568893
0.00575836
0.00582155
0.0059193
0.00609737
0.00656391
0.00734927
0.00846958
0.0106411
0.014688
0.0202981
0.0173033
0.0169653
0.0146395
0.0124773
0.0111153
0.0105365
0.0105243
0.0104771
0.00550405
0.00554553
0.00561792
0.00567672
0.00570835
0.00577341
0.00583227
0.00592453
0.00610273
0.00658177
0.00735288
0.00834457
0.00991353
0.0127449
0.0162897
0.0140552
0.0138334
0.0123552
0.0109549
0.0100546
0.00976204
0.00979141
0.00975195
0.0055337
0.00557572
0.00564498
0.00569629
0.00572802
0.00578851
0.00584317
0.00592967
0.00610997
0.00658856
0.00733749
0.00821886
0.00934078
0.0112647
0.0134478
0.0119633
0.0115903
0.0108787
0.0100048
0.00938656
0.00923995
0.00923766
0.00929016
0.00556334
0.00560221
0.00567179
0.00571716
0.0057478
0.00580358
0.00585362
0.00593483
0.00611353
0.00659618
0.0073089
0.00810534
0.00887764
0.0101931
0.0117275
0.0107121
0.0102836
0.00987941
0.00939771
0.00891517
0.00883179
0.00890287
0.00893401
0.00559155
0.0056322
0.00569783
0.00573734
0.00576834
0.00581921
0.00586528
0.00594041
0.00611912
0.00659209
0.00727852
0.00799659
0.00854417
0.00939609
0.010606
0.00996677
0.00949264
0.00925434
0.00890502
0.00883935
0.00881128
0.00882041
0.0087187
0.00561861
0.00565791
0.00572192
0.00575879
0.00578805
0.00583381
0.00587604
0.00594628
0.00612229
0.00658664
0.00720838
0.00789433
0.00827129
0.00885021
0.0100442
0.00961922
0.00922139
0.00918728
0.00885313
0.00877803
0.00877404
0.00876912
0.00874333
0.00564694
0.00568564
0.00574662
0.00577935
0.00580803
0.00584894
0.00588831
0.00595284
0.00612697
0.00656428
0.00717584
0.00779252
0.00805918
0.00845249
0.00960889
0.00943429
0.00913257
0.00913322
0.00870761
0.00861163
0.00863396
0.00862549
0.00872463
0.00567193
0.00571191
0.00577021
0.00579968
0.00582825
0.00586415
0.00589943
0.00595963
0.00612444
0.00655602
0.00711464
0.00770457
0.00790523
0.00816847
0.00932974
0.00945285
0.00899217
0.00907962
0.00873396
0.00864822
0.00853665
0.00867157
0.00867405
0.00569576
0.00573671
0.00579108
0.0058199
0.00584564
0.00587773
0.00591228
0.00596691
0.0061255
0.0065495
0.00704103
0.00759692
0.00773581
0.00792772
0.00931375
0.00938632
0.00901469
0.00906222
0.00874818
0.00859305
0.00861263
0.0086762
0.00874155
0.00572304
0.00576016
0.00581347
0.00583982
0.00586471
0.00589256
0.00592276
0.00597451
0.00612508
0.00654397
0.00699765
0.00750989
0.00763327
0.00783985
0.00928957
0.00943561
0.00901587
0.00903061
0.00873375
0.00866983
0.00860044
0.00868183
0.00874372
0.00574253
0.00578541
0.00583479
0.00585581
0.00588235
0.00590647
0.00593582
0.00598168
0.00612459
0.00653163
0.00699011
0.00743026
0.00751368
0.0078062
0.009174
0.00940576
0.00901713
0.00901852
0.0087472
0.00858451
0.00866575
0.00870659
0.0087657
0.00576347
0.00580277
0.00584838
0.00587429
0.00589482
0.00591877
0.00594562
0.0059898
0.00611896
0.00651238
0.00697082
0.00731996
0.00741567
0.00774197
0.00917568
0.00941988
0.00899879
0.00894458
0.00874212
0.008656
0.00861113
0.00872014
0.00874122
0.00578888
0.00582443
0.00586973
0.00588941
0.00591216
0.00593087
0.00595636
0.00599621
0.00611483
0.00648695
0.00695379
0.00727593
0.00731982
0.00775327
0.00913072
0.00938428
0.00905907
0.00901438
0.00868412
0.00861015
0.00868576
0.0086838
0.00877171
0.00579092
0.00584206
0.00588195
0.00589879
0.00592342
0.00594188
0.00596554
0.00600405
0.00611158
0.00648235
0.00693968
0.00725379
0.00732332
0.0077517
0.00910712
0.00941786
0.00919661
0.00901732
0.00869452
0.00863984
0.00866144
0.00870275
0.00888138
0.00579417
0.0058546
0.00589015
0.00590664
0.00592944
0.00595263
0.00597413
0.00600988
0.00610819
0.00647742
0.00693249
0.00722837
0.0072891
0.00773153
0.00916623
0.00949179
0.00932345
0.00908113
0.0087405
0.00868461
0.00869045
0.00876011
0.00895675
0.00580256
0.00585419
0.00588802
0.00590619
0.00592918
0.00595238
0.00597797
0.0060158
0.00610636
0.00647204
0.00692665
0.00722514
0.00731179
0.00771636
0.00917456
0.00956237
0.00945844
0.00919266
0.0088649
0.00878947
0.00877543
0.00888586
0.00922419
0.00580886
0.00585514
0.00588813
0.00590688
0.00592997
0.0059556
0.00598006
0.00602137
0.00610519
0.00647001
0.00692873
0.0072014
0.00729247
0.00768326
0.00919496
0.00966219
0.00956198
0.00927421
0.00898254
0.0089014
0.00889425
0.00906585
0.0093887
0.00581102
0.00585741
0.00588899
0.0059135
0.00593595
0.00595502
0.0059793
0.00602544
0.00610404
0.00646547
0.00691735
0.0071756
0.00730134
0.00772148
0.00925612
0.00972234
0.00966746
0.00938158
0.00908254
0.00897499
0.00898589
0.00918057
0.00986656
0.0058122
0.00586181
0.00588908
0.00591322
0.0059345
0.0059559
0.00597907
0.00602785
0.00610311
0.00646459
0.00691221
0.00716177
0.00731048
0.00770945
0.00937821
0.00982543
0.00974401
0.00944961
0.00924474
0.00910869
0.00924461
0.00976654
0.0106856
0.00581417
0.00586924
0.00589113
0.00591399
0.00593697
0.00595869
0.00597956
0.00602783
0.00610066
0.00645672
0.00691084
0.00717084
0.00731529
0.00774018
0.00954154
0.0099304
0.00989348
0.00955923
0.0093748
0.00923726
0.00943306
0.0102135
0.0114587
0.00580973
0.0058654
0.00589722
0.00591446
0.00593369
0.00596067
0.00597914
0.00602843
0.00610086
0.00645654
0.00690994
0.00715955
0.00732061
0.00781283
0.00976517
0.0100421
0.00998221
0.00969172
0.00958578
0.00946431
0.00980064
0.0109323
0.0132022
0.0058096
0.00586511
0.00589427
0.00591793
0.00593389
0.00595745
0.0059799
0.00602987
0.00610074
0.0064516
0.00689876
0.00717032
0.00729926
0.00792808
0.00990915
0.0102871
0.0102306
0.00989562
0.00977559
0.00972811
0.0103524
0.0124467
0.0159006
0.00580777
0.00586493
0.00589587
0.00592399
0.00593591
0.00596069
0.00598317
0.00602818
0.00610285
0.00645369
0.00690319
0.00716414
0.00730218
0.00830415
0.0103438
0.010448
0.0104072
0.0101578
0.0102075
0.0104714
0.0116895
0.0151728
0.020369
0.00580826
0.0058667
0.0058959
0.0059203
0.00593209
0.00595777
0.00598096
0.00602852
0.00610387
0.00645311
0.00690024
0.00716856
0.00730586
0.00850309
0.0105676
0.0108998
0.0108166
0.0105381
0.0105636
0.0111124
0.0128382
0.0170769
0.0249937
0.00580664
0.00586032
0.00589666
0.00592258
0.00593154
0.00595733
0.00597987
0.00602761
0.00610686
0.00645245
0.00690146
0.00717922
0.00732638
0.00901472
0.0111282
0.011286
0.0111894
0.0109636
0.0111197
0.0121481
0.01495
0.0206852
0.0293299
0.00581412
0.00585943
0.00589073
0.00592334
0.00593314
0.00595698
0.00598319
0.00602667
0.0061091
0.00645236
0.00690577
0.00719172
0.00735424
0.00987552
0.0117096
0.0119154
0.0117647
0.0115603
0.0117985
0.0131918
0.0162235
0.0234711
0.0339038
0.00580822
0.00585951
0.0058896
0.005923
0.00593379
0.00595786
0.00598079
0.00602651
0.00611019
0.00645069
0.00691315
0.00720868
0.00738176
0.0107176
0.0128642
0.0128914
0.012334
0.0121047
0.0124984
0.0143289
0.0188072
0.0271039
0.0375319
0.00581095
0.00586279
0.00588922
0.0059212
0.0059335
0.00595468
0.00598208
0.00602288
0.00610978
0.00645127
0.00691989
0.00721742
0.00743779
0.0117296
0.0138483
0.0135288
0.0129928
0.0130458
0.0134873
0.0156254
0.0202427
0.0301838
0.0444555
0.00581004
0.00586276
0.00588987
0.00591782
0.00592886
0.00595306
0.00598264
0.00602226
0.0061097
0.00645122
0.00692541
0.00724165
0.00750226
0.0128949
0.0158389
0.0148437
0.0135774
0.0136787
0.0143765
0.0170173
0.0222097
0.0334824
0.0476002
0.00580946
0.00586083
0.00588257
0.00591505
0.00592729
0.00595162
0.00598029
0.00602287
0.00610999
0.00645488
0.00693916
0.00724523
0.00760317
0.014573
0.0178357
0.0163828
0.0144904
0.0147191
0.0158635
0.0193842
0.0226745
0.0363588
0.0475369
0.00579852
0.00585819
0.00588166
0.00590743
0.00592699
0.00594919
0.0059789
0.00601874
0.0061086
0.00646083
0.00694651
0.00724454
0.00767434
0.0159809
0.0197993
0.0172925
0.0151604
0.0154116
0.0166434
0.0204907
0.0263516
0.043043
0.051888
0.00579549
0.00585566
0.00588173
0.00590605
0.00592064
0.0059467
0.00597575
0.00601785
0.00610843
0.00647261
0.00695922
0.00725493
0.00780916
0.0183084
0.0214608
0.0193304
0.0160782
0.0163211
0.0187031
0.0244956
0.0307051
0.0490257
0.0591859
0.00579504
0.00584278
0.00588445
0.00590289
0.00591923
0.00594691
0.00597363
0.00601584
0.00610771
0.00648061
0.00697564
0.00729121
0.00795298
0.0198616
0.0230869
0.0206828
0.0170679
0.0175628
0.0200948
0.0264229
0.0359111
0.05368
0.066846
0.00578303
0.0058396
0.00588155
0.00590232
0.00591946
0.0059405
0.00597255
0.00601492
0.00610894
0.00650103
0.00698752
0.0073176
0.00809341
0.0218443
0.0244188
0.0223264
0.0180357
0.0185331
0.022397
0.0300873
0.0402343
0.0596345
0.0781975
0.00578034
0.00583452
0.00587809
0.00589987
0.00591197
0.00593976
0.00596608
0.00601274
0.00611008
0.00651119
0.00699428
0.00737106
0.00828011
0.0235442
0.0250713
0.0233768
0.0193055
0.0207653
0.0255457
0.0311344
0.0489643
0.0691801
0.0822234
0.00577434
0.00583197
0.00587351
0.00590592
0.00591635
0.00594176
0.0059647
0.00601157
0.00611188
0.00653336
0.00700263
0.00741312
0.00857858
0.0252652
0.0258455
0.0243845
0.0203968
0.0220473
0.0287175
0.0351759
0.0553526
0.0727067
0.0840939
0.00577248
0.00583582
0.00586854
0.0058985
0.00590941
0.0059426
0.00596633
0.00600999
0.00611308
0.00654586
0.00701633
0.0074673
0.00890994
0.0273371
0.0265651
0.025041
0.0216922
0.0244313
0.0323772
0.0417192
0.0605325
0.0736478
0.085832
0.00576734
0.00583313
0.00585686
0.0059022
0.00591253
0.00594042
0.00596605
0.00601351
0.00611238
0.00656637
0.007046
0.00759476
0.00951306
0.0294329
0.0271469
0.0255002
0.0239599
0.028063
0.036551
0.0476002
0.0603246
0.0725093
0.0838129
0.00576463
0.0058286
0.00585437
0.00590063
0.00591067
0.00593574
0.00596074
0.00600854
0.00611249
0.00658715
0.00706374
0.00765444
0.00981973
0.0303747
0.0278216
0.0257648
0.0248758
0.0292343
0.0403031
0.0533857
0.0606949
0.0730238
0.0836459
0.00577037
0.00581638
0.00585655
0.00589713
0.00590726
0.00593072
0.00595209
0.00601236
0.0061167
0.00660717
0.00711396
0.00769631
0.0105969
0.0317401
0.0279938
0.0262788
0.0271641
0.0334079
0.0463736
0.0531838
0.0613002
0.0726057
0.0813135
0.00576783
0.00580053
0.00585488
0.00588993
0.00590294
0.00592648
0.00594907
0.00601069
0.00611347
0.00659427
0.00710859
0.00774562
0.010752
0.031465
0.0288524
0.0266749
0.0290692
0.0356916
0.0465185
0.0546396
0.0611652
0.0677856
0.0750599
0.00576213
0.00579639
0.00584124
0.00588236
0.00589232
0.00592251
0.00595072
0.00600649
0.00610925
0.0065905
0.00711709
0.00773992
0.0108941
0.0314062
0.0298658
0.0275731
0.0308997
0.0382474
0.0469383
0.0558412
0.0606319
0.0640525
0.0687629
0.00574349
0.0057996
0.0058339
0.00587573
0.005876
0.00591537
0.00594753
0.0059999
0.00610063
0.00657063
0.0071205
0.00777939
0.0111214
0.0319084
0.0303998
0.0283055
0.0314763
0.0396887
0.0473123
0.054923
0.0598316
0.0622122
0.0650272
0.00573287
0.00579554
0.00581733
0.00586466
0.00587027
0.00590435
0.00594165
0.00599208
0.00608983
0.00654317
0.00709287
0.00787003
0.011718
0.0325494
0.0308521
0.0294543
0.0331271
0.0392505
0.0477413
0.0545244
0.0586671
0.0598826
0.0613437
0.00571298
0.00578491
0.00580443
0.00585384
0.00586986
0.00589307
0.00593325
0.00598227
0.00607727
0.0065116
0.00710697
0.00797201
0.0120762
0.0333414
0.0324793
0.0315067
0.0339794
0.0392703
0.0472211
0.0520853
0.0547709
0.0561045
0.0581069
0.00569448
0.00576702
0.00579696
0.00584336
0.00586375
0.0058799
0.005924
0.00597158
0.00606459
0.00648075
0.00707286
0.00811804
0.0129918
0.0342548
0.0339921
0.0332068
0.0367524
0.0420397
0.0459951
0.0495184
0.051948
0.0539271
0.0554227
0.00568424
0.00575024
0.00578376
0.00582997
0.00584054
0.00587422
0.00591143
0.00595824
0.00605049
0.00645021
0.00705108
0.00828908
0.0138331
0.0347259
0.0365635
0.0360396
0.0393891
0.043735
0.0466196
0.0495695
0.0524365
0.0542677
0.055803
0.0056593
0.00573302
0.00576111
0.0058145
0.00582228
0.00586123
0.00589766
0.00594393
0.00603668
0.00642339
0.00707458
0.00845119
0.0153408
0.036623
0.0404115
0.0384976
0.0413949
0.0446554
0.0466486
0.0506329
0.0523255
0.0549591
0.0551878
0.00561412
0.00570973
0.00573609
0.00579397
0.00580139
0.00584295
0.00587921
0.00592565
0.00602001
0.00639725
0.00714276
0.00875553
0.0173459
0.0379246
0.0423152
0.0448986
0.0435214
0.0454617
0.0466018
0.0507041
0.0557289
0.0569862
0.0567776
0.00559135
0.0056839
0.00571545
0.0057707
0.00576884
0.00582268
0.00585927
0.00590625
0.00600328
0.00637521
0.00711118
0.00902195
0.018643
0.0418325
0.0464817
0.0484485
0.050085
0.0474648
0.0510889
0.05713
0.0587908
0.0617771
0.0664355
0.00554098
0.00565233
0.00568804
0.00574096
0.00574523
0.00579577
0.00583287
0.00588107
0.0059815
0.00635068
0.00710854
0.00950245
0.0221835
0.052911
0.0501821
0.0560744
0.0560603
0.0497906
0.0572177
0.0600604
0.0708551
0.0657577
0.0643184
0.00554207
0.00561862
0.00565738
0.00570858
0.00572863
0.00576647
0.00580467
0.00585466
0.0059593
0.00633021
0.00725799
0.0100069
0.0257133
0.0577153
0.0558127
0.060506
0.0694697
0.0665062
0.0611631
0.0764131
0.0782882
0.0785186
0.0626901
0.00551142
0.00557659
0.00561827
0.00566789
0.00569406
0.0057283
0.00576775
0.00582004
0.00592928
0.00630398
0.00746725
0.0106081
0.0288406
0.0713096
0.07281
0.0675262
0.0712223
0.0673134
0.0883154
0.0861315
0.0715046
0.0720245
0.0755933
0.00546906
0.00553142
0.00557507
0.00562458
0.00565415
0.00568788
0.00572885
0.005784
0.00589843
0.00627815
0.00773332
0.0113635
0.0336144
0.0983504
0.0804357
0.0678834
0.0718492
0.108942
0.0954462
0.0769262
0.0871096
0.0736906
0.0608047
0.0054123
0.00547464
0.00551951
0.00557018
0.00560159
0.00563603
0.00567829
0.00573626
0.00585585
0.00623955
0.00799936
0.0121361
0.0380507
0.0945274
0.0859291
0.0736696
0.123829
0.10429
0.080205
0.0877494
0.071577
0.0594901
0.0521539
0.00535019
0.0054148
0.00546049
0.00551304
0.00554559
0.00558209
0.0056258
0.00568684
0.00581155
0.00619574
0.00851175
0.0137884
0.0558495
0.0934273
0.0903673
0.121062
0.12702
0.0890731
0.0872752
0.0673477
0.0627963
0.0562852
0.0533617
0.00527429
0.00534008
0.00538622
0.00544101
0.00547425
0.00551276
0.00555754
0.00562074
0.00574913
0.0061303
0.00838244
0.0156667
0.0651234
0.110834
0.101661
0.134434
0.121882
0.0948116
0.0676679
0.068488
0.0677407
0.0664643
0.0671336
0.00519524
0.00526335
0.00530919
0.00536662
0.00540076
0.00544161
0.00548784
0.00555297
0.00568363
0.0060576
0.00918236
0.0200912
0.11217
0.0991785
0.111943
0.145839
0.112555
0.0738939
0.0753929
0.0844126
0.0884782
0.0874619
0.0844114
0.00509962
0.00516733
0.00521288
0.00527253
0.00530734
0.00534967
0.00539667
0.00546196
0.0055916
0.00594985
0.0101307
0.0237014
0.093669
0.090055
0.114468
0.108026
0.0921042
0.077799
0.0990562
0.101672
0.104968
0.0960181
0.0825884
0.00500215
0.00507153
0.00511697
0.00517762
0.00521386
0.00525725
0.00530557
0.00537084
0.00549782
0.005834
0.0101404
0.0398006
0.0804225
0.0964096
0.115677
0.11173
0.0811016
0.0937965
0.104604
0.107144
0.10522
0.0998549
0.0806049
0.00488299
0.00495081
0.00499738
0.00505673
0.0050938
0.00513695
0.00518537
0.00524834
0.00536899
0.00568048
0.0115301
0.045756
0.066994
0.103805
0.101001
0.0999393
0.084606
0.104568
0.11179
0.111307
0.114323
0.107497
0.0812623
0.00476462
0.00483462
0.00488291
0.00493897
0.00497763
0.00502007
0.00506912
0.00513076
0.00524486
0.00552783
0.011723
0.0761037
0.0579746
0.103972
0.0865468
0.0802336
0.0890699
0.106206
0.114454
0.120534
0.116506
0.109442
0.0802574
0.00461776
0.00468609
0.00473618
0.0047866
0.00482528
0.00486548
0.0049134
0.0049708
0.00507527
0.00532692
0.0119302
0.0825264
0.0494488
0.105046
0.0709882
0.0709576
0.0926445
0.115968
0.12994
0.12952
0.122279
0.0998774
0.0761771
0.0044783
0.00454983
0.00460157
0.00464587
0.00468507
0.00472308
0.00477054
0.00482649
0.00492292
0.00514002
0.0114466
0.0762863
0.0397704
0.0910299
0.061101
0.0691509
0.0981728
0.131821
0.142584
0.144874
0.121618
0.100251
0.0694574
0.00430112
0.00437055
0.00442107
0.00445778
0.0044945
0.0045285