/*--------------------------------*- C++ -*----------------------------------*\
  =========                 |
  \\      /  F ield         | OpenFOAM: The Open Source CFD Toolbox
   \\    /   O peration     | Website:  https://openfoam.org
    \\  /    A nd           | Version:  7
     \\/     M anipulation  |
\*---------------------------------------------------------------------------*/
FoamFile
{
    version     2.0;
    format      ascii;
    class       volScalarField;
    location    "50";
    object      nut;
}
// * * * * * * * * * * * * * * * * * * * * * * * * * * * * * * * * * * * * * //

dimensions      [0 2 -1 0 0 0 0];

internalField   nonuniform List<scalar> 
12842
(
0.00181321
0.00179009
0.00178063
0.00177297
0.00177657
0.00177034
0.00176196
0.00176197
0.00175429
0.00176066
0.00175846
0.00176732
0.00177322
0.00137759
0.000661959
0.000370887
0.000240447
0.000172971
0.000132369
0.000106277
8.87618e-05
7.65491e-05
6.7463e-05
0.00181204
0.00179094
0.0017895
0.00177423
0.00177844
0.00177143
0.00176426
0.00176066
0.00175487
0.00176097
0.0017576
0.00176642
0.00177339
0.00135846
0.000653196
0.000367018
0.000238619
0.000172193
0.000132406
0.000106936
8.9186e-05
7.73914e-05
6.79642e-05
0.00180974
0.00178482
0.00177277
0.00176903
0.00177125
0.00176772
0.00176551
0.00176031
0.00175494
0.00176218
0.00176072
0.00176772
0.00177469
0.00131839
0.000638596
0.000362617
0.000237798
0.000172477
0.000132808
0.000107296
9.04906e-05
7.94325e-05
6.94015e-05
0.00180879
0.00179801
0.00178247
0.00177236
0.00177939
0.00176838
0.00176577
0.00175864
0.00175491
0.00176193
0.0017595
0.00176811
0.00177732
0.00126388
0.000617947
0.000355251
0.000235265
0.000171691
0.000133691
0.000108346
9.14566e-05
8.13653e-05
7.14808e-05
0.00180274
0.00178257
0.00177058
0.00176953
0.00177469
0.00176557
0.00176461
0.00175684
0.00175657
0.00176309
0.00176085
0.00176894
0.00178094
0.00120756
0.000598904
0.00034949
0.000234314
0.000172553
0.000134596
0.000109733
9.3366e-05
8.36472e-05
7.36157e-05
0.00180545
0.0017909
0.001769
0.00176871
0.001776
0.00176639
0.00176562
0.00175588
0.00175778
0.00176233
0.00176113
0.00177059
0.00178719
0.00116501
0.000584539
0.000345651
0.000234478
0.000173924
0.000137429
0.000112727
9.60256e-05
8.6893e-05
7.63371e-05
0.00180036
0.00178695
0.00176688
0.00176789
0.00177338
0.00176492
0.00176274
0.0017563
0.00176072
0.00176404
0.00176191
0.00177547
0.00180028
0.00113203
0.000575947
0.00034445
0.000235964
0.000176817
0.000140009
0.000115418
9.89619e-05
9.03841e-05
7.94249e-05
0.00179965
0.00178517
0.00176188
0.00176799
0.00177007
0.00176529
0.00176294
0.00175487
0.00176199
0.00176147
0.00176282
0.00177974
0.00181949
0.00111883
0.000577483
0.000352595
0.0002449
0.000185072
0.000147674
0.000121783
0.000103813
9.51056e-05
8.32063e-05
0.00179846
0.00178453
0.00176485
0.00176726
0.00176845
0.00176454
0.00175811
0.0017567
0.00176443
0.0017603
0.00176816
0.0017957
0.00185135
0.00110558
0.000577353
0.000357557
0.00025214
0.000193302
0.000154877
0.000128792
0.000109897
0.000101069
8.79731e-05
0.0017956
0.00178043
0.00175854
0.0017679
0.00176599
0.00176243
0.0017573
0.00175691
0.00176545
0.00176471
0.00177904
0.00181534
0.00188423
0.0010857
0.000573765
0.000358902
0.000254381
0.000196434
0.000157754
0.000132027
0.000112954
0.00010415
9.04353e-05
0.00179615
0.00177919
0.00176304
0.00176828
0.00176314
0.00176349
0.00175334
0.00175836
0.00176554
0.00176955
0.00179546
0.00184796
0.00193011
0.00106923
0.000574057
0.000363899
0.000261302
0.000203605
0.000164054
0.000137935
0.000117872
0.000108749
9.42942e-05
0.00179173
0.00177567
0.00176008
0.00176831
0.00176253
0.00176014
0.00175171
0.0017579
0.00176525
0.00177903
0.00181539
0.0018792
0.00197887
0.0010613
0.000584729
0.000374984
0.000271861
0.000213173
0.000171821
0.00014482
0.000123498
0.000113632
9.83271e-05
0.00179346
0.00177444
0.00176229
0.0017678
0.00176013
0.0017588
0.00174886
0.00175789
0.00176477
0.00178759
0.0018381
0.00192441
0.00203965
0.00105894
0.00059328
0.000384394
0.000282352
0.000222449
0.000180303
0.000152007
0.000129118
0.000118497
0.000102526
0.0017883
0.00177111
0.0017632
0.00176765
0.00175923
0.00175748
0.00174764
0.00175737
0.00176423
0.00180377
0.00186934
0.00197057
0.00208703
0.00108612
0.000621882
0.000404719
0.000298365
0.000234866
0.000189707
0.000160175
0.000135544
0.000123923
0.000107086
0.00178918
0.00176978
0.00176497
0.00176648
0.00175701
0.00175456
0.0017457
0.00175727
0.00176466
0.00181952
0.00190124
0.00202272
0.00213585
0.00110028
0.000635602
0.000416527
0.00030983
0.000245077
0.000200372
0.000169114
0.000142685
0.000129706
0.000111927
0.00178536
0.00176591
0.00176735
0.00176581
0.00175598
0.00175349
0.00174524
0.00175784
0.00177096
0.00184598
0.00194358
0.00206676
0.00216303
0.00114898
0.000673485
0.000441571
0.0003309
0.000261401
0.000212537
0.000180116
0.00015126
0.000137279
0.000118676
0.0017844
0.00176464
0.00176932
0.00176428
0.00175328
0.00175183
0.0017433
0.0017576
0.00177909
0.00186924
0.00197732
0.002103
0.00218967
0.00117374
0.00069077
0.000457363
0.000344111
0.000274116
0.000227328
0.000193065
0.000162949
0.000146666
0.000127681
0.00178229
0.00175951
0.00177269
0.00176359
0.00175201
0.00175175
0.00175139
0.00176983
0.00180323
0.00190306
0.00201519
0.00213227
0.00220245
0.00123193
0.000732846
0.000483929
0.000370544
0.000296875
0.000245758
0.000210443
0.000177376
0.000156957
0.000138056
0.00178084
0.00175742
0.00177445
0.00176249
0.00174927
0.00175127
0.0017577
0.00178244
0.00182771
0.00192664
0.00203486
0.00214614
0.00220428
0.0012734
0.000758306
0.000509111
0.000387838
0.000316019
0.000270254
0.000231382
0.000198002
0.0001741
0.000156225
0.00177896
0.00175278
0.00177584
0.00176244
0.00174855
0.00175279
0.00178298
0.00181375
0.00186084
0.00194989
0.00205547
0.00215594
0.00220644
0.00132926
0.000798775
0.000535535
0.000423346
0.000350528
0.000301133
0.000266522
0.000231935
0.000200633
0.000179651
0.00177876
0.00174887
0.00177733
0.001761
0.0017467
0.00175766
0.00181246
0.00184301
0.00187808
0.00196167
0.00206118
0.00215351
0.00219032
0.00139433
0.000836878
0.000568781
0.00044426
0.000381554
0.000352451
0.00031967
0.000281956
0.000239897
0.000218747
0.00177633
0.00174413
0.0017767
0.00176368
0.00175098
0.0017739
0.00185408
0.00187831
0.0018945
0.0019712
0.0020653
0.00214842
0.00218596
0.00142958
0.000866478
0.000599592
0.000488515
0.000433319
0.000414731
0.000402677
0.000369665
0.000323976
0.000303244
0.00177761
0.0017412
0.00177682
0.00175968
0.00175299
0.00179792
0.00188352
0.00189321
0.00190433
0.00197651
0.00206256
0.0021389
0.00216229
0.00149968
0.000909807
0.000620647
0.000507004
0.000474545
0.000506999
0.000558568
0.000569417
0.000503217
0.000461563
0.00177468
0.0017365
0.00177544
0.00176614
0.00176935
0.0018396
0.00191954
0.00191574
0.00191728
0.00197913
0.00205749
0.00212811
0.00215349
0.00151826
0.000918421
0.000658938
0.00054737
0.000533025
0.00062354
0.00086479
0.000905966
0.000817164
0.000737707
0.00177638
0.00173364
0.00177626
0.00176984
0.0017936
0.00186518
0.00193593
0.00192383
0.00191793
0.0019767
0.00204837
0.00211494
0.00213123
0.00158256
0.000966317
0.000664639
0.000564695
0.000555761
0.000693938
0.000967435
0.000848236
0.000722044
0.000601681
0.00177526
0.00173278
0.00177658
0.00179216
0.00183285
0.00188415
0.00193907
0.00192721
0.00191675
0.00197156
0.00203904
0.00210285
0.00211644
0.00159963
0.0009698
0.000703651
0.00058925
0.000600415
0.0006835
0.000873929
0.000730097
0.000594447
0.000514279
0.00177458
0.00173378
0.00177596
0.00182163
0.00185593
0.00189719
0.00194096
0.00192572
0.00191444
0.00196521
0.00202864
0.00209145
0.00210316
0.00163933
0.00101601
0.000717916
0.000619867
0.000582044
0.000648849
0.000740419
0.000640977
0.000541298
0.000470897
0.00177655
0.00173175
0.00178492
0.00185891
0.0018787
0.00190712
0.00193621
0.00192246
0.00191089
0.00195733
0.00201908
0.00207886
0.0020809
0.00168399
0.00102428
0.00074906
0.000621922
0.000612718
0.000630247
0.000685805
0.000601496
0.00049662
0.000420629
0.0017756
0.00173783
0.00179882
0.00188036
0.0018881
0.00191058
0.00192944
0.00191604
0.00190656
0.00194923
0.00200935
0.00207049
0.00207544
0.0016983
0.00107163
0.000778913
0.000657242
0.000619197
0.000623615
0.000652248
0.000555203
0.000442008
0.000370386
0.00177612
0.00174771
0.00182557
0.00190117
0.00189559
0.00191208
0.00192217
0.00190902
0.00190158
0.00194083
0.00200173
0.00205922
0.00205103
0.001775
0.00111367
0.000823901
0.000718459
0.000654071
0.000615854
0.000652005
0.000490076
0.000377739
0.000335876
0.00177859
0.00176927
0.0018497
0.00190681
0.00189731
0.00190713
0.00191226
0.00190056
0.00189612
0.00193208
0.00199298
0.00205215
0.00204367
0.0017827
0.00114846
0.000888852
0.000735529
0.000649194
0.000678601
0.000588108
0.000421199
0.000350714
0.000325503
0.00178199
0.00180003
0.00186585
0.00191645
0.00189431
0.0019037
0.00190482
0.00189188
0.00189067
0.0019247
0.00198836
0.00204441
0.00202399
0.00184617
0.0012535
0.000959035
0.000834319
0.000719383
0.000785294
0.000514688
0.000398255
0.00034799
0.000324544
0.00178043
0.00182786
0.00188166
0.0019137
0.00189413
0.00189534
0.00189535
0.00188361
0.0018851
0.00191666
0.00198142
0.00203816
0.00201139
0.00181914
0.0012966
0.00104616
0.000845158
0.000913998
0.000697593
0.000466581
0.000393642
0.000348105
0.000327197
0.00178398
0.00185877
0.00188902
0.00191604
0.0018881
0.00188825
0.0018886
0.00187531
0.00188
0.00191062
0.00197925
0.00203358
0.00199302
0.00177293
0.00142195
0.00111021
0.00111837
0.000968814
0.000606635
0.000452028
0.000394956
0.000355572
0.000333292
0.00179821
0.00188451
0.00189605
0.00191131
0.00188697
0.00188161
0.00188202
0.0018683
0.00187524
0.00190451
0.00197506
0.00202837
0.00197548
0.0017327
0.00147731
0.00128382
0.0011537
0.000790172
0.000557851
0.000441334
0.000401119
0.000357166
0.000335824
0.00181536
0.00190031
0.00189696
0.00190843
0.00188394
0.00187376
0.00187606
0.00186185
0.001871
0.00189955
0.00197453
0.00202638
0.00196013
0.00170678
0.00145037
0.00141616
0.00102035
0.000729231
0.000532131
0.000439875
0.000395145
0.000357745
0.00033818
0.00184072
0.00191617
0.00189701
0.00190463
0.00188126
0.00186833
0.00187176
0.00185634
0.00186745
0.00189577
0.00197304
0.00202105
0.00193257
0.0016661
0.00150454
0.00137146
0.000961923
0.00068861
0.000509832
0.000438589
0.000391754
0.000360495
0.000344069
0.00185941
0.00192363
0.00189587
0.00189892
0.00187928
0.00186312
0.00186796
0.00185223
0.00186427
0.00189176
0.00197364
0.00202131
0.00191837
0.00163997
0.00151649
0.00123045
0.000873311
0.000662611
0.000508601
0.000439332
0.000402639
0.000372071
0.000353846
0.00187333
0.00192687
0.00189137
0.00189439
0.00187739
0.00185866
0.00186433
0.00184813
0.0018618
0.00189019
0.00197418
0.00201439
0.00188587
0.00162535
0.00147953
0.00116511
0.000874722
0.000664784
0.000501264
0.000434312
0.000421029
0.000390349
0.000365628
0.00187975
0.00193331
0.00189003
0.00188963
0.0018734
0.00185463
0.00186049
0.00184583
0.00185961
0.00188704
0.00197591
0.00201707
0.00185914
0.00151859
0.00135611
0.00107944
0.00086455
0.000668669
0.000505834
0.000462785
0.000445892
0.00041972
0.000379354
0.00188347
0.0019249
0.00188335
0.00188236
0.00187149
0.00184977
0.00185901
0.00184317
0.00185782
0.00188742
0.00197735
0.002004
0.00179473
0.00146898
0.00127528
0.00101625
0.000855475
0.000667244
0.000516519
0.000478977
0.000481867
0.000446341
0.000392973
0.00188421
0.00192813
0.00188008
0.00187668
0.00186146
0.00184623
0.00185183
0.00184157
0.00185645
0.00188529
0.00198028
0.00200665
0.00175244
0.00137294
0.00118444
0.000984141
0.000864052
0.000680153
0.000549549
0.000523507
0.000507854
0.000491826
0.000405398
0.00188543
0.00191643
0.00187021
0.00186844
0.00185994
0.00183916
0.00184254
0.00183942
0.00185501
0.00188692
0.00198156
0.00198553
0.00167813
0.00135011
0.00113652
0.000968676
0.000866789
0.000715554
0.000587203
0.000566553
0.000563315
0.000539233
0.000418892
0.00188426
0.00190813
0.00186043
0.00185972
0.00184798
0.00183662
0.00183643
0.00183825
0.00185413
0.00188657
0.0019852
0.00198417
0.00167061
0.00132924
0.00108365
0.000965386
0.000880741
0.000752555
0.000627623
0.000589067
0.000616201
0.000572844
0.000479174
0.00188397
0.00189604
0.00185324
0.00184799
0.00183911
0.00183444
0.00183317
0.00183616
0.00185316
0.00188816
0.00198582
0.00196247
0.00161206
0.0012849
0.00105731
0.000979829
0.000919434
0.000785385
0.0006647
0.000650678
0.000645359
0.000601416
0.000508167
0.00188038
0.00188121
0.00184435
0.00183877
0.001833
0.00183193
0.00182932
0.00183472
0.00185233
0.00189069
0.00199024
0.00196229
0.00158483
0.00130603
0.00104262
0.00101534
0.000968758
0.000822248
0.000707251
0.000700189
0.000662882
0.000629623
0.00059976
0.00187873
0.00186476
0.00182647
0.00183296
0.00182768
0.00182969
0.00182685
0.00183503
0.00185215
0.00189175
0.00199003
0.00193152
0.00156604
0.0012592
0.00104055
0.00106188
0.00101721
0.000849187
0.000753423
0.000738654
0.000669625
0.000649558
0.000615265
0.00187299
0.00184909
0.00181751
0.00182685
0.00182319
0.00182681
0.00182531
0.0018357
0.00185118
0.0018962
0.00199274
0.00193297
0.00149424
0.00123259
0.00103468
0.00110866
0.00107061
0.000876132
0.000786459
0.00076933
0.000657783
0.000644335
0.000614935
0.00187241
0.00183834
0.00181211
0.00182539
0.00182097
0.0018259
0.00182435
0.00183747
0.0018517
0.00189939
0.00199567
0.00190373
0.00148209
0.0012071
0.00105232
0.00115997
0.00111386
0.00089416
0.000838448
0.000765468
0.000633637
0.000632951
0.000609539
0.00186706
0.0018315
0.00180993
0.00182608
0.0018174
0.00182712
0.00182408
0.00183855
0.00185094
0.00190214
0.00199359
0.00188601
0.00142683
0.00119463
0.0010632
0.00118117
0.00113626
0.00092422
0.000847375
0.000730264
0.000596146
0.000593096
0.000576127
0.00186703
0.00182999
0.00180851
0.00182879
0.00181591
0.00182803
0.00182412
0.00183924
0.00185154
0.00190758
0.00199793
0.00186004
0.00137405
0.00118157
0.00109406
0.00119099
0.00115463
0.000954664
0.000818089
0.000669784
0.000557834
0.00056078
0.00054735
0.00186494
0.00182964
0.00181089
0.00183026
0.00181478
0.00182925
0.0018253
0.00183964
0.00185118
0.00191195
0.00199686
0.00183016
0.00134291
0.00115413
0.00110529
0.00117394
0.00115127
0.000950723
0.000743259
0.000618082
0.000528637
0.000525725
0.000519729
0.0018644
0.00183198
0.00181427
0.00183209
0.00181524
0.00182988
0.00182678
0.00183976
0.00185193
0.00191505
0.00200099
0.00180641
0.00131953
0.00110441
0.00110471
0.00108705
0.0010795
0.000880987
0.000683305
0.000573042
0.000503846
0.000502469
0.000500256
0.00186357
0.00183489
0.00181794
0.0018341
0.00181611
0.00183068
0.00182824
0.00183946
0.00185134
0.0019204
0.00200261
0.00178899
0.00130005
0.0010262
0.00106418
0.000996102
0.000970489
0.000801288
0.000620949
0.000540322
0.000487409
0.000486134
0.00048127
0.00186331
0.00183935
0.00182257
0.00183559
0.00181707
0.00183152
0.00182963
0.00183918
0.00185219
0.00192465
0.00200456
0.00178688
0.00126802
0.000972275
0.000985509
0.000906473
0.000870537
0.00073222
0.000587288
0.000519467
0.000484655
0.000478235
0.000383653
0.00186197
0.00184428
0.00182663
0.00183748
0.0018184
0.00183232
0.00183034
0.00183888
0.00185248
0.00192904
0.00200654
0.00179237
0.00125522
0.00094243
0.000935076
0.000843649
0.000781668
0.000676272
0.000568195
0.000517664
0.000489263
0.00039456
0.000303624
0.0018612
0.00184797
0.00183135
0.00183842
0.00182007
0.00183269
0.00183072
0.00183859
0.00185331
0.00193143
0.00200975
0.00181491
0.0012647
0.000925302
0.000901363
0.000804976
0.000731128
0.000646569
0.00056134
0.00052293
0.000494609
0.000357358
0.000251709
0.00185933
0.0018504
0.00183511
0.00183955
0.00182198
0.00183287
0.00183034
0.00183809
0.00185378
0.00193561
0.00201282
0.00183929
0.0012847
0.000926619
0.000881997
0.000785495
0.000704737
0.000629811
0.000567587
0.000533609
0.000391334
0.000289888
0.00021285
0.00185783
0.00185195
0.00183923
0.00184
0.0018245
0.00183284
0.0018302
0.0018377
0.00185522
0.0019363
0.00201333
0.00186629
0.00132635
0.000941576
0.000874634
0.000793989
0.000696693
0.000638323
0.000588837
0.000443851
0.000337184
0.000259187
0.000198321
0.00185603
0.00185142
0.00184249
0.00184062
0.00182694
0.00183232
0.00182927
0.00183704
0.00185579
0.00193798
0.00201038
0.00189101
0.00136883
0.000974891
0.000886554
0.000822498
0.000717807
0.000656438
0.000564744
0.000385598
0.00029962
0.000239266
0.000189128
0.00185434
0.00185146
0.00184568
0.00184068
0.00182985
0.0018322
0.00182893
0.00183656
0.00185721
0.00193581
0.00200905
0.00191614
0.00143015
0.0010178
0.000897822
0.000856144
0.000753732
0.000680516
0.000493412
0.000365141
0.000289694
0.000235872
0.000186195
0.00185226
0.00184919
0.00184761
0.00184063
0.00183203
0.00183118
0.00182808
0.00183578
0.00185795
0.00193371
0.00199676
0.00193346
0.00148541
0.0010798
0.000921964
0.000896086
0.000805776
0.000728008
0.000462664
0.000350233
0.000286305
0.000238305
0.000195092
0.00185129
0.00184788
0.00184954
0.00184053
0.00183442
0.00183071
0.00182765
0.00183525
0.00185918
0.0019265
0.00199533
0.00195094
0.0015437
0.00113743
0.000933518
0.000922817
0.000854055
0.00070321
0.000453549
0.000350893
0.000294442
0.000249428
0.000210751
0.00184929
0.00184596
0.00185043
0.00183969
0.00183607
0.00183013
0.00182715
0.00183448
0.00185817
0.00192436
0.00198769
0.00196063
0.00159917
0.00119507
0.000941337
0.000952021
0.000883057
0.000701244
0.000464811
0.000370259
0.000307268
0.000268992
0.000227888
0.00184779
0.00184415
0.00185071
0.00183951
0.00183724
0.00182908
0.00182689
0.00183397
0.00185813
0.00192277
0.00197463
0.00196573
0.0016476
0.00123549
0.000966201
0.000960081
0.00089112
0.00071904
0.000481078
0.000389196
0.000331614
0.000290638
0.000252824
0.00184739
0.00184211
0.00185053
0.00183865
0.00183784
0.00182895
0.00182659
0.00183334
0.00185753
0.00192094
0.00197361
0.00196934
0.00168906
0.00126597
0.000979075
0.000968962
0.000896093
0.000765864
0.000517217
0.000424308
0.000357946
0.00032047
0.000279277
0.00184514
0.00184164
0.00185077
0.00183742
0.00183873
0.00182839
0.00182651
0.00183282
0.0018567
0.00191842
0.00197498
0.00197263
0.00172049
0.00129332
0.000975772
0.00096544
0.000900309
0.000796501
0.000554308
0.000458567
0.000394482
0.000350048
0.000306281
0.00184377
0.0018387
0.00184776
0.00183657
0.00183716
0.00182773
0.00182643
0.00183243
0.00185419
0.00191402
0.00197215
0.00196224
0.00173329
0.00130504
0.000981868
0.000966081
0.000887461
0.000785003
0.000601159
0.000506493
0.000433872
0.000388168
0.000334432
0.00184324
0.00183722
0.0018479
0.00183504
0.00183731
0.00182753
0.00182586
0.0018319
0.00185189
0.0019073
0.0019685
0.00196485
0.00173029
0.00131547
0.000977518
0.000955931
0.000864181
0.000780171
0.000652624
0.000559906
0.000482718
0.000421045
0.000366333
0.00183723
0.00183596
0.00184459
0.00183239
0.00183617
0.00182626
0.00182558
0.00183151
0.00184979
0.00190652
0.00196642
0.00196166
0.00174058
0.00131925
0.00097555
0.000952731
0.000850861
0.000767443
0.000717553
0.000614549
0.000521229
0.000465922
0.000400523
0.00182859
0.00183172
0.00184048
0.00182784
0.0018319
0.00182614
0.00182487
0.00183103
0.00184741
0.00190521
0.00196643
0.00195733
0.00173832
0.0013191
0.000982289
0.000953364
0.00084153
0.000767984
0.000702712
0.000635924
0.000585554
0.000513626
0.000448016
0.00182455
0.00182556
0.00183264
0.00182332
0.00182747
0.00182138
0.00182292
0.00183045
0.00184552
0.00190464
0.00196622
0.00196133
0.00174204
0.00131538
0.000983053
0.000954991
0.000840255
0.000770392
0.000696
0.00063466
0.000598873
0.000562423
0.000489906
0.00182291
0.00182138
0.00182652
0.00182141
0.0018229
0.00182211
0.00182269
0.00182921
0.00184378
0.00190434
0.00196665
0.0019594
0.00173989
0.00131137
0.000978017
0.000961134
0.000838774
0.000773333
0.000677395
0.000623833
0.000596582
0.000567337
0.000541454
0.00182037
0.00182125
0.00182257
0.00182156
0.00182158
0.00182142
0.0018218
0.00182935
0.00184184
0.00190315
0.0019636
0.0019514
0.00174333
0.00131736
0.000975783
0.000962707
0.000845512
0.000778662
0.000679732
0.000623122
0.000594578
0.000573293
0.000562137
0.0018172
0.00182172
0.00181927
0.00181981
0.00181912
0.00182035
0.00182136
0.00182954
0.00184042
0.00190301
0.00196312
0.00194816
0.00174114
0.00131225
0.00097581
0.0009691
0.000845186
0.000778784
0.000679601
0.000618583
0.000594255
0.000591968
0.00059387
0.00181518
0.00182254
0.00182026
0.00181816
0.00181811
0.00182054
0.00182153
0.001829
0.00183809
0.00190096
0.0019634
0.00195071
0.00174344
0.00131343
0.000985181
0.000974865
0.000852493
0.0007771
0.000682415
0.000611244
0.000597581
0.00060691
0.000614933
0.00181485
0.00182226
0.00182201
0.00181901
0.00181761
0.00182128
0.00182131
0.00182896
0.00183677
0.00190109
0.00196345
0.00194822
0.00174324
0.00132049
0.00099774
0.000975584
0.000842912
0.000771758
0.000675512
0.000618068
0.000595652
0.000625609
0.000677327
0.00181495
0.0018212
0.00182074
0.00182034
0.00181691
0.00182038
0.00182061
0.00182902
0.00183679
0.00189977
0.00196075
0.00195205
0.00173849
0.00131101
0.00100738
0.000980679
0.000843689
0.000761357
0.000669038
0.000611137
0.000610365
0.000692779
0.000794543
0.0018141
0.00182249
0.00182138
0.00182235
0.00181708
0.00182137
0.001822
0.00182871
0.00183685
0.00190051
0.0019615
0.00195007
0.00173562
0.00133287
0.00104129
0.000980494
0.000822224
0.000748751
0.000680451
0.000636217
0.000657137
0.000805159
0.000958864
0.00181462
0.00182189
0.00182152
0.00182141
0.00181695
0.00182051
0.00182034
0.00182899
0.00183759
0.00190036
0.00196058
0.00195042
0.00173205
0.00133876
0.00105753
0.00100476
0.000817061
0.000737312
0.000674611
0.000646386
0.000702653
0.000835386
0.00104779
0.00181438
0.0018215
0.00182124
0.00182222
0.0018172
0.00182039
0.00182075
0.00182899
0.00183791
0.00190008
0.00196153
0.00194993
0.0017196
0.00132977
0.00110045
0.000987384
0.000801424
0.000724592
0.000683401
0.000682317
0.000761153
0.00090069
0.00107394
0.00181523
0.00182109
0.00182011
0.00182137
0.00181797
0.0018204
0.00182136
0.00182871
0.00183845
0.00190018
0.00196236
0.00194969
0.00171575
0.0013577
0.00114247
0.000985317
0.000803062
0.000732638
0.000683051
0.000700633
0.00077908
0.000909169
0.00112501
0.00181547
0.00182004
0.00182009
0.00182262
0.00181743
0.00182075
0.00182175
0.0018289
0.00183892
0.00189953
0.00196454
0.00195305
0.00169813
0.00136529
0.00123729
0.000997883
0.000800067
0.000728356
0.000695843
0.000723206
0.000826006
0.000908244
0.00109678
0.00181652
0.00182292
0.00181927
0.0018221
0.0018187
0.00181993
0.00182235
0.0018279
0.00183849
0.00189935
0.00196603
0.00195482
0.00169349
0.00139904
0.00126951
0.000987552
0.000810771
0.000757969
0.000714652
0.000744527
0.000823389
0.000985927
0.00119873
0.00181551
0.00182058
0.0018191
0.00182016
0.00181599
0.0018192
0.00182237
0.00182741
0.00183846
0.00189896
0.00196692
0.00195794
0.00167394
0.00148055
0.00131787
0.00101962
0.000819563
0.000768322
0.000736752
0.000761303
0.000834966
0.00107578
0.00119023
0.001818
0.00182176
0.00181813
0.00181915
0.00181674
0.00181895
0.00182297
0.00182876
0.00183884
0.0019003
0.00196894
0.00195552
0.00166234
0.00157517
0.00133853
0.0010634
0.00084707
0.00079789
0.000777509
0.000829875
0.000787919
0.0010798
0.00109752
0.00181508
0.0018195
0.00181761
0.00181879
0.00181651
0.0018166
0.00182276
0.00182771
0.00183858
0.00190143
0.00196863
0.00195084
0.00164122
0.00164452
0.00136184
0.0010753
0.000862432
0.000816723
0.000810043
0.000835772
0.000846395
0.00123955
0.00121118
0.00181542
0.00181948
0.0018179
0.00181888
0.00181458
0.00181709
0.00182104
0.00182745
0.00183856
0.00190436
0.00197042
0.00194324
0.00163383
0.00175673
0.00139252
0.00114092
0.000889086
0.000842628
0.000870776
0.000960835
0.000975813
0.00138826
0.00134148
0.00181621
0.00181615
0.00181924
0.00181793
0.00181577
0.00181636
0.00182073
0.0018267
0.00183935
0.00190633
0.0019738
0.00194101
0.00164126
0.00174522
0.00145179
0.00118715
0.000914753
0.000877434
0.000906352
0.000990885
0.00112912
0.00147152
0.00155882
0.00181342
0.00181608
0.00182034
0.00181999
0.00181694
0.00181453
0.00182068
0.00182792
0.00183985
0.00191159
0.00197389
0.00194357
0.00163488
0.00175612
0.00150888
0.00126371
0.00094663
0.000897092
0.000946711
0.00104171
0.0012377
0.00157907
0.00181671
0.00181327
0.00181786
0.00182083
0.00181778
0.00181507
0.00181505
0.00181935
0.00182749
0.00184059
0.00191367
0.00197231
0.0019503
0.00162932
0.00175011
0.00153238
0.00130842
0.000993481
0.000967985
0.00101714
0.00105027
0.00148845
0.0018159
0.00190935
0.00180997
0.00181781
0.00181991
0.0018217
0.00181729
0.00181687
0.00181972
0.0018265
0.00184031
0.00191997
0.00197206
0.0019557
0.00163376
0.00176316
0.00157001
0.0013632
0.00104509
0.00100719
0.00111692
0.00116944
0.00167214
0.00186593
0.00192251
0.00180977
0.00182049
0.00181944
0.00181854
0.00181558
0.001818
0.00182107
0.00182614
0.0018417
0.00192208
0.00197388
0.00196714
0.00165156
0.00183141
0.00161038
0.00140387
0.00111273
0.0011011
0.00124479
0.00139237
0.00180555
0.00187875
0.00196554
0.00180996
0.00181984
0.0018163
0.00182003
0.00181578
0.00181906
0.0018229
0.00182837
0.00184075
0.00192766
0.00198097
0.00198649
0.00169347
0.00191747
0.00164259
0.00143716
0.0012268
0.00125653
0.00138342
0.00158853
0.00179365
0.00184678
0.00190157
0.00181082
0.0018188
0.00181441
0.0018217
0.0018156
0.00181963
0.00182192
0.00182902
0.00184236
0.00193252
0.00198311
0.0019915
0.00170969
0.0019611
0.00168422
0.00147807
0.00128031
0.00129931
0.00152582
0.00174668
0.00178991
0.00188709
0.00189289
0.00181754
0.00181582
0.00181608
0.00182394
0.00181577
0.00181938
0.0018202
0.00183062
0.00184317
0.0019379
0.00199434
0.00197061
0.00176392
0.00203229
0.00172145
0.00151706
0.00139148
0.00146747
0.0017604
0.00173127
0.0017714
0.00186716
0.00191045
0.00181758
0.00180926
0.00181679
0.00182269
0.00181628
0.00181974
0.00182013
0.00182963
0.00184307
0.00193391
0.00199384
0.0019744
0.001789
0.0021005
0.00184254
0.00158712
0.00150564
0.00159198
0.00175968
0.00182074
0.00182666
0.00184263
0.00187988
0.00181466
0.0018089
0.00181614
0.00181971
0.00181625
0.00182224
0.00182055
0.00182895
0.00184293
0.00193459
0.00199559
0.00196742
0.00182037
0.00220917
0.00201768
0.00172069
0.00163892
0.00176488
0.00183132
0.00195895
0.00191699
0.00189605
0.00189659
0.00181127
0.00181289
0.00181601
0.00181851
0.00181596
0.00182123
0.00182172
0.00182874
0.00184206
0.0019299
0.00199992
0.00196631
0.00186469
0.00239376
0.00213566
0.00183907
0.00175072
0.00192808
0.0019183
0.00202573
0.00201532
0.00197986
0.00194633
0.00181229
0.00181472
0.00181484
0.00181805
0.00181596
0.00181707
0.00182282
0.00182834
0.00184088
0.00192466
0.00199502
0.00198617
0.00197956
0.00256868
0.0022376
0.00198361
0.00194366
0.00200406
0.00203513
0.00213707
0.00211438
0.00206792
0.00200421
0.00180921
0.0018194
0.00181481
0.00181861
0.0018158
0.00181492
0.0018231
0.00182788
0.00183986
0.00191922
0.00200451
0.00200993
0.0020386
0.00272488
0.0023978
0.00217645
0.00210953
0.00209834
0.0021102
0.00215951
0.00212059
0.00206103
0.0020132
0.00180814
0.00181734
0.00181399
0.00182
0.00181657
0.00181344
0.00182475
0.00182736
0.00183899
0.001914
0.00199927
0.00203818
0.00217223
0.00288158
0.00253735
0.00231279
0.00236076
0.00237048
0.00215921
0.00215992
0.00216494
0.002161
0.0021224
0.00181041
0.00182257
0.00181472
0.00181956
0.00181363
0.00181563
0.0018246
0.00182703
0.00183857
0.00190939
0.00200154
0.00207158
0.00228936
0.00292939
0.00273527
0.00253891
0.00259546
0.00261711
0.00237321
0.00236691
0.00239774
0.00240123
0.00236159
0.00180636
0.00182181
0.00181417
0.00181908
0.00181231
0.00181617
0.00182226
0.00182668
0.00183836
0.00190567
0.00200673
0.00208758
0.00248145
0.00311404
0.00303727
0.00271883
0.00275243
0.0027497
0.00260092
0.00263847
0.00261037
0.00264966
0.00252395
0.00179865
0.001816
0.00181289
0.00181949
0.00181126
0.00181653
0.0018214
0.00182644
0.00183847
0.00190279
0.00202338
0.00214639
0.00269235
0.0031772
0.00312778
0.00319133
0.00292334
0.00287009
0.00278619
0.00285488
0.0029342
0.00284761
0.00268422
0.00179976
0.00181411
0.00181279
0.00181992
0.00180716
0.00181677
0.00182089
0.0018261
0.00183868
0.00190069
0.00200629
0.00216711
0.00275534
0.00352535
0.00343863
0.00342791
0.00336489
0.00307001
0.0031138
0.00328246
0.00311989
0.00305494
0.0031838
0.00179421
0.00181304
0.00181231
0.00181989
0.00180795
0.00181673
0.00182051
0.00182586
0.00183909
0.00189907
0.00199787
0.00224549
0.0031695
0.00444659
0.00376137
0.00399201
0.00380675
0.00327469
0.00356221
0.00349653
0.00365886
0.00305032
0.00288659
0.00180613
0.0018122
0.00181147
0.00181904
0.00181239
0.00181648
0.00182011
0.00182558
0.00183949
0.00189809
0.00202813
0.00232825
0.00360953
0.00477667
0.00410442
0.00444794
0.00480446
0.00452711
0.00379198
0.00426406
0.00398378
0.00372418
0.00287442
0.00181008
0.00181119
0.00181049
0.00181767
0.00181459
0.00181596
0.00181959
0.00182539
0.00183996
0.00189745
0.00207592
0.0024279
0.00391046
0.00588727
0.00547876
0.00496625
0.00507184
0.00443802
0.00515696
0.00470218
0.003531
0.00343105
0.00355936
0.00181083
0.00180994
0.00180899
0.00181589
0.00181586
0.00181533
0.00181886
0.00182504
0.00184019
0.00189656
0.00211446
0.00253253
0.00431726
0.00772545
0.00591784
0.00513511
0.0052881
0.00630052
0.00554426
0.0040461
0.00435002
0.00362686
0.00306808
0.00180985
0.00180821
0.00180717
0.00181389
0.00181598
0.00181446
0.00181795
0.0018245
0.00184024
0.00189534
0.002205
0.0026368
0.0045992
0.00756571
0.00672719
0.00574263
0.008471
0.00612049
0.00444113
0.00482985
0.00381342
0.00318446
0.00285185
0.00180785
0.00180637
0.00180558
0.00181177
0.00181473
0.00181334
0.00181675
0.00182354
0.00183969
0.00189277
0.00229658
0.00282453
0.00654245
0.00766098
0.00782481
0.00911017
0.00860324
0.0054828
0.00511591
0.00398118
0.00358937
0.00323788
0.00313644
0.00180563
0.00180412
0.00180391
0.00180946
0.00181236
0.00181179
0.00181538
0.00182218
0.0018386
0.00188985
0.00220612
0.00304621
0.00639784
0.00961873
0.00901388
0.00976624
0.00864671
0.00623629
0.00437347
0.00426095
0.00409303
0.00403781
0.00407476
0.00180338
0.00180205
0.00180229
0.00180705
0.00180919
0.00180974
0.00181362
0.00182025
0.00183656
0.00188533
0.00236681
0.00358234
0.0116179
0.00943868
0.00983414
0.0108046
0.00838229
0.00539711
0.00514291
0.00540551
0.00556667
0.00541911
0.00527073
0.00180143
0.00179938
0.00179987
0.00180429
0.0018055