/*--------------------------------*- C++ -*----------------------------------*\
  =========                 |
  \\      /  F ield         | OpenFOAM: The Open Source CFD Toolbox
   \\    /   O peration     | Website:  https://openfoam.org
    \\  /    A nd           | Version:  7
     \\/     M anipulation  |
\*---------------------------------------------------------------------------*/
FoamFile
{
    version     2.0;
    format      ascii;
    class       volScalarField;
    location    "50";
    object      omega;
}
// * * * * * * * * * * * * * * * * * * * * * * * * * * * * * * * * * * * * * //

dimensions      [0 0 -1 0 0 0 0];

internalField   nonuniform List<scalar> 
12842
(
3.13692
2.84409
2.65202
2.52033
2.42453
2.36568
2.3208
2.28915
2.26909
2.24819
2.2376
2.22828
2.22997
2.23845
2.254
2.29434
2.35037
2.45008
2.54811
2.66918
2.7946
2.90065
3.04973
3.12115
2.81115
2.62612
2.51107
2.41794
2.36094
2.31751
2.28595
2.26363
2.24432
2.23512
2.2263
2.22837
2.23754
2.25476
2.29095
2.34805
2.44388
2.53878
2.67155
2.78204
2.91682
3.05438
3.10095
2.78426
2.59815
2.47779
2.39994
2.34587
2.30422
2.2775
2.25618
2.23781
2.22918
2.22333
2.22636
2.23707
2.25681
2.2943
2.35518
2.45268
2.55226
2.68567
2.79198
2.94124
3.07624
3.07002
2.74099
2.56498
2.4569
2.37636
2.33466
2.29752
2.27371
2.25213
2.23497
2.2273
2.22047
2.2238
2.23522
2.25757
2.29725
2.36181
2.46103
2.57136
2.70292
2.80552
2.94577
3.10676
3.04615
2.71098
2.532
2.42345
2.35392
2.31371
2.28336
2.26523
2.24518
2.22988
2.22402
2.2191
2.22308
2.23481
2.25941
2.30255
2.37163
2.47764
2.5867
2.71903
2.82043
2.94765
3.12608
3.00982
2.67299
2.51099
2.40854
2.33931
2.30121
2.27216
2.25782
2.23968
2.22773
2.22068
2.21633
2.22104
2.23491
2.26273
2.31091
2.38634
2.49548
2.62149
2.775
2.885
2.98558
3.15237
2.98106
2.63711
2.47346
2.37684
2.3188
2.28587
2.26298
2.24821
2.23194
2.22346
2.21882
2.21509
2.22149
2.2356
2.26493
2.3156
2.39484
2.5095
2.63805
2.80737
2.92316
3.1165
3.27784
2.95078
2.61172
2.45794
2.36385
2.3069
2.27386
2.25382
2.2432
2.22677
2.22089
2.21632
2.21309
2.21985
2.23684
2.26942
2.3261
2.4153
2.5459
2.68477
2.88043
3.03377
3.23358
3.36832
2.91611
2.57896
2.42779
2.34105
2.29174
2.26262
2.24728
2.23491
2.22147
2.21766
2.2132
2.21157
2.22087
2.23794
2.273
2.33366
2.42862
2.57319
2.71919
2.92703
3.08709
3.43527
3.61905
2.8855
2.55453
2.41401
2.33069
2.28272
2.256
2.24301
2.23077
2.21905
2.21647
2.21187
2.21131
2.22092
2.23994
2.28193
2.3535
2.46266
2.64132
2.81214
3.05557
3.27173
3.61215
3.86537
2.84609
2.5241
2.38767
2.31146
2.27051
2.24632
2.2374
2.22499
2.21661
2.21433
2.20977
2.21101
2.22082
2.24341
2.2891
2.36792
2.48792
2.68276
2.87949
3.17065
3.38144
3.81569
4.15183
2.81496
2.50247
2.37529
2.30299
2.26329
2.24206
2.23429
2.22224
2.21539
2.21304
2.20881
2.21112
2.22295
2.25537
2.32274
2.41959
2.56316
2.79701
3.01276
3.35458
3.64946
4.0916
4.44295
2.77695
2.47563
2.35291
2.28707
2.25218
2.23445
2.22876
2.21782
2.21303
2.21066
2.2075
2.21138
2.22784
2.26905
2.34873
2.45475
2.62136
2.85998
3.15985
3.55974
3.83316
4.32259
4.75212
2.74784
2.45695
2.34202
2.27966
2.24687
2.23078
2.22622
2.21561
2.21144
2.209
2.20709
2.21364
2.24947
2.3207
2.43673
2.56664
2.78202
3.04207
3.33269
3.76323
4.11174
4.64631
5.11708
2.7127
2.43318
2.323
2.26632
2.23779
2.22465
2.22151
2.21132
2.20774
2.20554
2.20678
2.22246
2.28013
2.35921
2.48848
2.63371
2.86197
3.13479
3.54201
4.01822
4.39349
4.92648
5.42716
2.68668
2.4187
2.31243
2.26029
2.23351
2.22144
2.21892
2.20914
2.20591
2.20456
2.21205
2.24773
2.33353
2.44776
2.61314
2.78052
3.0695
3.36937
3.74669
4.25518
4.65377
5.22857
5.82056
2.6602
2.39791
2.29658
2.24923
2.22617
2.21526
2.21367
2.20462
2.20167
2.20358
2.22165
2.28367
2.39028
2.51122
2.69091
2.89011
3.18057
3.4934
3.98615
4.49729
4.97949
5.61052
6.25818
2.63945
2.38548
2.28512
2.24406
2.22261
2.2117
2.21084
2.20347
2.20387
2.21154
2.24957
2.33926
2.46455
2.61482
2.83123
3.03964
3.41858
3.76772
4.20597
4.81261
5.29078
5.88414
6.55426
2.62019
2.37098
2.27336
2.23431
2.21583
2.20405
2.20503
2.19926
2.20185
2.22298
2.28398
2.40107
2.54382
2.70614
2.93686
3.19712
3.54491
3.92459
4.53238
5.07241
5.59139
6.34234
7.1718
2.60374
2.35778
2.26138
2.22903
2.21218
2.2003
2.20321
2.20716
2.22047
2.26028
2.34204
2.48182
2.62909
2.80732
3.0685
3.34541
3.82395
4.25406
4.73921
5.43839
6.09206
6.93578
7.69023
2.58776
2.34803
2.25376
2.2205
2.20474
2.19251
2.19822
2.20926
2.24039
2.29742
2.39948
2.56356
2.72736
2.93041
3.21188
3.52643
3.95958
4.44148
5.15983
5.87661
6.51611
7.3
8.07825
2.57577
2.33643
2.24296
2.21226
2.20111
2.19043
2.20475
2.2346
2.29364
2.36273
2.47886
2.65626
2.81265
3.01781
3.32285
3.71319
4.26337
4.81734
5.48261
6.2386
6.98221
8.0841
9.14183
2.56076
2.32755
2.23675
2.20683
2.19478
2.18891
2.21102
2.26272
2.33371
2.41618
2.54919
2.74445
2.91808
3.16139
3.50094
3.85715
4.42244
5.05502
5.85941
6.77346
7.88699
9.11907
10.0755
2.5534
2.31892
2.22953
2.19689
2.18953
2.1974
2.23629
2.31332
2.40639
2.50171
2.64449
2.84527
3.00761
3.24845
3.60592
4.136
4.7679
5.52016
6.41623
7.57553
8.7311
9.80979
11.0171
2.54279
2.3125
2.22537
2.19451
2.19219
2.22052
2.27378
2.36701
2.47519
2.57563
2.72591
2.93257
3.1023
3.38075
3.79551
4.27375
5.03191
5.83584
7.05798
8.2272
9.48985
11.2588
13.786
2.5354
2.30499
2.21985
2.18991
2.19922
2.25817
2.32284
2.4248
2.54557
2.65086
2.80695
3.01643
3.18666
3.47762
3.90062
4.54628
5.34882
6.51918
7.68547
9.15101
11.3551
14.4635
17.6536
2.52632
2.29555
2.21519
2.19147
2.22471
2.30027
2.37682
2.48887
2.61554
2.72481
2.88417
3.09372
3.26161
3.58151
4.10114
4.77319
5.82144
6.92114
8.56785
10.7686
14.0566
17.8352
22.0964
2.51539
2.28879
2.20918
2.19716
2.25755
2.35105
2.43718
2.55242
2.68384
2.7958
2.95769
3.16937
3.35309
3.71128
4.23368
5.06063
6.17832
7.74039
9.76289
12.7476
16.4995
21.6481
29.1085
2.50629
2.27833
2.2112
2.22106
2.30365
2.40515
2.50032
2.61877
2.74911
2.86265
3.0252
3.2331
3.40782
3.78718
4.42994
5.37
6.62733
8.51221
11.1673
14.5231
19.8214
29.0397
44.8719
2.49474
2.27315
2.21038
2.2525
2.35434
2.46347
2.56287
2.68167
2.81047
2.92446
3.08686
3.2957
3.49913
3.94758
4.6608
5.72049
7.46164
9.57631
12.4102
17.1196
26.5288
45.7782
63.568
2.48411
2.26717
2.22624
2.29769
2.41027
2.52425
2.62622
2.74313
2.86734
2.98104
3.14253
3.34676
3.54647
4.02838
4.82895
6.17283
7.92054
10.4091
14.2109
22.0299
41.3333
64.3089
80.5166
2.47239
2.26134
2.24813
2.34376
2.46977
2.58319
2.68481
2.80037
2.91919
3.03206
3.19164
3.39381
3.62947
4.19847
5.18694
6.66286
8.87008
11.6643
17.4788
33.7654
58.015
80.6925
93.3066
2.46231
2.26595
2.28409
2.39675
2.52641
2.64151
2.74143
2.85285
2.96595
3.07764
3.23559
3.43685
3.68139
4.30582
5.41757
7.21259
9.58339
13.7084
25.8487
48.1231
72.8222
91.7456
100.285
2.45354
2.26958
2.32197
2.45068
2.58303
2.69724
2.7928
2.90073
3.00753
3.11826
3.27384
3.46985
3.75695
4.49965
5.78102
7.73539
11.1893
18.9478
38.0675
61.3973
82.7351
96.7521
104.147
2.44271
2.28826
2.36664
2.50255
2.63428
2.74626
2.83893
2.94313
3.04402
3.15375
3.30785
3.50985
3.82865
4.66539
6.15729
8.61906
13.3512
28.9241
50.4533
71.3903
87.8083
101.142
106.655
2.43782
2.31433
2.41292
2.55779
2.68239
2.79527
2.88158
2.98037
3.07588
3.1852
3.33704
3.5326
3.88758
4.83551
6.71404
9.89547
19.6504
40.5494
60.9597
77.1146
93.411
102.719
106.407
2.43095
2.34814
2.46239
2.60669
2.72531
2.83478
2.9174
3.01333
3.10325
3.2123
3.36384
3.57229
3.99711
5.11511
7.18866
12.0501
29.1857
51.0453
67.7583
80.5685
93.8956
101.492
104.694
2.43569
2.38749
2.50792
2.65607
2.76707
2.87424
2.95102
3.04101
3.12685
3.23616
3.38621
3.59214
4.0593
5.34527
8.43343
18.2445
40.5534
58.9495
71.1577
82.8071
92.3801
97.9054
100.362
2.45053
2.43042
2.55785
2.70249
2.80097
2.90682
2.97894
3.06619
3.14702
3.25667
3.40776
3.63173
4.20118
5.85927
10.5521
26.943
49.2228
63.3987
72.8893
81.568
88.0996
92.188
94.6001
2.47834
2.47575
2.60241
2.74458
2.84041
2.93823
3.00494
3.08676
3.16444
3.27451
3.42546
3.65407
4.31985
6.74306
15.2262
36.4177
54.7708
64.9721
72.508
77.9742
82.391
85.7252
88.6849
2.5093
2.52267
2.64865
2.7857
2.86774
2.96619
3.02758
3.1058
3.17949
3.29005
3.44367
3.70355
4.61187
8.23514
20.4195
44.0342
57.9451
65.3012
69.9962
73.0369
76.6349
79.3832
83.1827
2.54603
2.56986
2.69311
2.82259
2.90722
2.99436
3.04913
3.12198
3.19269
3.30323
3.45844
3.73922
4.8936
10.1473
26.1307
48.7668
58.7923
64.2264
66.1682
68.0955
71.081
73.6474
78.0542
2.58047
2.61801
2.73969
2.85945
2.93335
3.01942
3.0683
3.13744
3.20437
3.31517
3.47568
3.80985
5.34636
11.8735
30.4604
51.262
58.8722
61.4407
62.1075
63.3736
66.0029
68.415
72.627
2.61649
2.66562
2.78361
2.89273
2.96604
3.03976
3.0865
3.15043
3.21479
3.32485
3.4891
3.86413
5.67455
13.7197
34.1842
52.0645
58.1512
58.2658
58.2635
59.0893
61.3217
63.2471
66.6568
2.6498
2.71427
2.82443
2.92583
2.99043
3.05513
3.10034
3.16353
3.22427
3.33446
3.50715
3.95193
6.20002
15.3974
36.4297
51.4539
55.8788
55.4045
54.7097
55.3014
57.0702
58.4669
60.7985
2.68362
2.75867
2.85993
2.95372
3.0087
3.06823
3.11253
3.17445
3.23268
3.34151
3.52042
4.0131
6.60081
16.7338
37.9558
49.7363
53.1255
53.1378
51.8866
52.1157
53.0826
53.876
55.2137
2.71367
2.79956
2.89087
2.97375
3.02303
3.0776
3.12136
3.18129
3.24052
3.34976
3.539
4.12311
7.14945
18.3029
38.5068
47.6532
50.881
51.4168
49.2979
49.4545
49.8978
50.2741
50.9961
2.74457
2.83403
2.91713
2.99401
3.03732
3.08609
3.13007
3.1865
3.2475
3.35532
3.55507
4.20604
7.7751
19.8889
39.0964
46.0933
49.305
50.1745
48.0182
47.759
47.7111
48.0215
48.1681
2.76891
2.86221
2.94001
3.00737
3.04654
3.09144
3.13636
3.18902
3.25383
3.36194
3.57251
4.32094
8.27352
21.0738
38.9499
44.914
48.0936
49.4941
46.715
46.4218
46.0073
45.8437
45.7121
2.797
2.88823
2.96062
3.01595
3.06005
3.0975
3.1446
3.19291
3.26023
3.36788
3.59104
4.44918
8.91202
22.1816
38.8023
44.3851
47.4058
48.3935
45.3847
44.6858
44.2788
44.0543
43.9311
2.81891
2.90687
2.97825
3.02408
3.07021
3.10245
3.15022
3.19618
3.26551
3.37213
3.60599
4.56065
9.58467
23.0814
38.2266
44.0577
46.7268
46.4308
43.4629
42.216
41.6802
41.2683
41.0869
2.84177
2.92501
2.9937
3.03207
3.08126
3.10839
3.15595
3.20011
3.27067
3.37786
3.61879
4.69563
10.1086
23.6898
38.2016
43.4651
45.4941
43.6108
41.2169
39.3779
38.67
38.2667
37.883
2.86174
2.93932
3.00649
3.04129
3.08987
3.11393
3.15983
3.20365
3.27527
3.38167
3.62997
4.8157
10.3643
23.7599
37.74
40.9863
42.0697
39.6478
37.9658
35.6658
34.7807
34.369
33.8851
2.88241
2.95221
3.02006
3.04981
3.09955
3.12042
3.16453
3.20772
3.27945
3.38611
3.63622
4.87954
10.3119
22.8808
36.5207
36.5671
37.4093
35.3614
34.3761
31.9216
31.0433
30.6516
30.4675
2.90184
2.96423
3.03096
3.05891
3.10845
3.12705
3.16874
3.21155
3.28328
3.39065
3.64764
4.8664
9.86233
20.7386
32.7133
31.1587
32.2188
30.6869
29.9941
27.9004
27.0029
26.8681
26.8533
2.92224
2.97412
3.04312
3.0679
3.11801
3.13448
3.1746
3.21598
3.28741
3.39563
3.6572
4.79608
9.15818
18.1594
27.1716
25.8095
27.3516
26.2923
25.698
24.1161
23.7068
23.8566
24.2199
2.94135
2.98571
3.05183
3.07698
3.12567
3.14203
3.17993
3.21949
3.28999
3.39848
3.6568
4.66666
8.4139
15.8738
22.5194
21.4954
23.2043
22.6418
22.2277
21.2558
21.1315
21.3344
21.827
2.96023
2.99693
3.06136
3.08592
3.13305
3.14993
3.18644
3.22319
3.29204
3.40037
3.65303
4.53685
7.7166
13.7541
18.4691
17.8934
19.6291
19.6173
19.3008
18.8426
19.0766
19.3851
19.896
2.97859
3.01073
3.0692
3.0958
3.13949
3.15822
3.19265
3.22667
3.29339
3.40265
3.64446
4.40386
7.04249
11.9637
15.3754
15.0673
16.6362
17.0426
16.9908
16.9369
17.5621
17.9601
18.4899
2.99744
3.0259
3.07832
3.1061
3.14614
3.16734
3.19997
3.23065
3.2943
3.40364
3.63558
4.28626
6.48556
10.4556
13.2282
13.0239
14.3264
15.05
15.2429
15.4924
16.4528
16.9737
17.5229
3.01539
3.04204
3.08711
3.11697
3.15236
3.17609
3.20694
3.23453
3.29479
3.40534
3.62286
4.17327
5.97434
9.23174
11.813
11.6415
12.5942
13.599
13.9711
14.532
15.7154
16.3377
16.8988
3.03338
3.05967
3.09694
3.1287
3.15936
3.18581
3.21433
3.23911
3.29518
3.40622
3.61003
4.083
5.56836
8.19617
10.8944
10.7347
11.4441
12.6198
13.1091
13.9192
15.2037
15.9902
16.5582
3.05027
3.07684
3.10705
3.14005
3.16614
3.19491
3.22179
3.2436
3.29552
3.40737
3.59632
3.99424
5.2207
7.43121
10.2932
10.2234
10.6932
12.005
12.5619
13.5825
14.89
15.8709
16.4243
3.06709
3.09427
3.11832
3.15252
3.17431
3.20423
3.22876
3.24868
3.29595
3.40685
3.57935
3.92965
4.94332
6.83514
9.91116
9.92924
10.183
11.6256
12.2242
13.3866
14.6929
15.7923
16.4235
3.08246
3.11076
3.12912
3.16383
3.18176
3.21348
3.23625
3.25355
3.29659
3.40629
3.56575
3.86469
4.69519
6.41664
9.63956
9.77659
10.1161
11.3915
12.033
13.2733
14.5306
15.7572
16.4239
3.0979
3.12694
3.14152
3.17615
3.1911
3.22183
3.24253
3.25881
3.29744
3.40665
3.54561
3.8134
4.51924
6.19274
9.4881
9.73785
10.0613
11.3473
11.9609
13.2138
14.4498
15.7405
16.5399
3.11224
3.14145
3.15263
3.18698
3.19914
3.23042
3.24981
3.26364
3.29864
3.40469
3.53933
3.76668
4.36719
6.03577
9.40179
9.74246
10.0156
11.3227
11.9166
13.1701
14.3914
15.7198
16.6011
3.12592
3.15592
3.16513
3.19851
3.20866
3.23832
3.25533
3.26877
3.30008
3.40246
3.53463
3.7304
4.27837
5.93236
9.34512
9.75062
10.1399
11.3943
11.9348
13.1547
14.3969
15.711
16.6618
3.1406
3.17024
3.17642
3.20941
3.21784
3.2453
3.26222
3.27321
3.30195
3.40112
3.53252
3.70305
4.23041
5.89392
9.34071
9.8169
10.4828
11.5544
11.9523
13.278
14.3934
15.6804
16.7546
3.15199
3.18202
3.18876
3.21917
3.22596
3.25358
3.26776
3.27821
3.30393
3.4001
3.52909
3.69779
4.20739
5.87583
9.33537
9.88513
10.8086
11.7498
12.1169
13.331
14.3935
15.7288
16.7599
3.16865
3.19623
3.20034
3.23148
3.23678
3.25967
3.27373
3.28224
3.30635
3.39984
3.52543
3.69297
4.19317
5.86121
9.33151
9.9561
11.0792
11.8246
12.4382
13.6567
14.566
15.811
16.904
3.18028
3.2068
3.21286
3.23925
3.24447
3.26806
3.27933
3.28651
3.30875
3.39803
3.52283
3.6838
4.19727
5.86626
9.33272
10.013
11.2566
11.9324
12.7369
13.8491
14.6532
15.7992
16.9151
3.18659
3.21468
3.22369
3.24303
3.25304
3.26852
3.28089
3.29179
3.31123
3.3975
3.52311
3.67532
4.19135
5.85896
9.40164
10.0529
11.4
11.9925
13.2604
14.2689
14.9087
15.9796
17.3398
3.19223
3.21615
3.23114
3.2464
3.25868
3.26944
3.28209
3.29377
3.3141
3.39725
3.52278
3.67716
4.18817
5.86133
9.48584
10.099
11.4339
12.0483
13.3619
14.4033
15.1131
16.0138
17.5519
3.19843
3.21774
3.23706
3.24936
3.26229
3.27185
3.28275
3.29475
3.31615
3.39704
3.52103
3.67618
4.19867
5.87497
9.61069
10.1387
11.5288
12.1338
13.6032
14.7251
15.5566
16.4984
17.9932
3.20309
3.22037
3.23642
3.25273
3.26547
3.27304
3.28272
3.2957
3.31902
3.39656
3.51984
3.67602
4.19589
5.89311
9.68506
10.1864
11.6054
12.3012
13.7377
15.1122
15.7854
16.8286
18.6341
3.20122
3.21875
3.23666
3.25148
3.26456
3.27279
3.28288
3.2961
3.32151
3.39623
3.51928
3.67492
4.19942
5.91661
9.78729
10.2934
11.8425
12.558
14.1904
15.3127
16.4536
17.4747
19.4917
3.20096
3.22047
3.2373
3.25101
3.26592
3.27265
3.28457
3.29677
3.32142
3.39599
3.51843
3.67322
4.19863
6.04731
9.8366
10.4897
12.126
12.9973
14.6114
15.9181
16.9611
17.9663
20.0122
3.20147
3.21808
3.23703
3.25074
3.26673
3.27264
3.28385
3.29641
3.32245
3.39577
3.51935
3.67379
4.20725
6.23028
9.93365
10.6558
12.6573
13.5664
15.0011
16.4589
17.7885
18.8445
21.2429
3.20081
3.22013
3.2368
3.25039
3.26485
3.27258
3.28563
3.29609
3.32167
3.39573
3.51949
3.67539
4.21804
6.35148
9.99277
10.8482
13.2384
14.2926
15.6589
17.1916
18.2711
20.442
23.8537
3.20034
3.21731
3.23772
3.25019
3.26411
3.27256
3.28429
3.29559
3.32271
3.39589
3.51841
3.68177
4.26053
6.77914
10.1124
11.4302
13.9619
15.1307
16.2712
17.8041
19.6412
22.9659
27.3107
3.20297
3.21753
3.23647
3.25213
3.2636
3.27235
3.28501
3.29558
3.32297
3.39565
3.51912
3.68865
4.28632
7.2737
10.2493
12.0929
14.6498
15.779
17.2732
18.8284
20.824
25.816
30.1365
3.1993
3.21945
3.23589
3.24971
3.26494
3.27221
3.283
3.29515
3.3227
3.39593
3.51897
3.69099
4.34701
7.85004
10.3971
12.9188
15.4162
16.6193
17.9615
19.813
22.7689
29.8421
34.2202
3.19896
3.21616
3.23713
3.24965
3.2625
3.27192
3.28261
3.29498
3.32327
3.39657
3.51972
3.69213
4.392
8.38408
10.9084
13.6993
16.0252
17.2116
18.8725
20.9871
24.5846
30.6147
37.0854
3.20022
3.22027
3.23779
3.25126
3.26481
3.27236
3.2829
3.29552
3.32327
3.39724
3.52094
3.6986
4.48181
8.70953
12.0185
14.558
16.5666
17.8034
19.5134
22.3528
26.5995
31.1237
39.9923
3.19552
3.21713
3.23551
3.25155
3.2626
3.27201
3.28052
3.29342
3.32274
3.39676
3.52431
3.70501
4.57378
9.25168
13.3248
15.4061
17.1065
18.4476
20.403
23.358
28.7777
33.6718
43.3131
3.19464
3.21968
3.23593
3.248
3.26284
3.2749
3.28013
3.29304
3.32245
3.39787
3.52861
3.71355
4.67599
9.71769
14.5386
16.0815
17.5787
18.8701
20.5463
24.5171
31.134
34.7247
42.8408
3.19237
3.21831
3.23545
3.24708
3.26281
3.27264
3.28151
3.29303
3.3224
3.39884
3.53185
3.73342
4.77967
10.4219
15.4115
16.9429
18.0839
19.3693
21.4787
25.494
31.4662
35.3145
44.1197
3.19072
3.21712
3.23456
3.24704
3.2599
3.27409
3.2809
3.29329
3.32059
3.39952
3.53413
3.75639
4.84566
11.3806
15.9023
17.4222
18.6585
20.0161
22.171
26.666
31.8045
36.4794
42.8824
3.18901
3.2155
3.23102
3.24305
3.25792
3.27385
3.2804
3.29058
3.32035
3.40086
3.53998
3.76503
4.95046
12.439
16.1834
17.6673
19.0526
20.6591
23.6577
28.8826
32.5073
37.7656
43.0434
3.1878
3.20955
3.22824
3.24565
3.25716
3.27251
3.27923
3.29016
3.31963
3.40246
3.54623
3.77946
5.08194
13.453
16.361
17.8665
19.4322
21.4521
25.1151
29.6442
32.8961
38.0969
43.0635
3.1903
3.20825
3.22736
3.24198
3.2556
3.27032
3.2778
3.2913
3.32111
3.40284
3.55093
3.79051
5.25082
14.3295
16.462
17.8876
19.5168
21.8899
25.7112
30.0793
33.1029
38.9654
43.7416
3.18962
3.20563
3.22547
3.24354
3.25483
3.26875
3.27627
3.29109
3.31926
3.40561
3.55459
3.79602
5.39485
14.9268
16.4962
17.8371
19.4946
22.1881
26.0102
29.9627
33.5258
39.2005
43.6685
3.18645
3.20531
3.22461
3.24291
3.25619
3.26566
3.27283
3.289
3.32058
3.40639
3.55684
3.8232
5.61749
15.3498
16.5269
17.7435
19.5304
22.3338
26.4208
29.9649
33.6324
39.2625
44.0756
3.18344
3.20464
3.22659
3.23908
3.25549
3.26205
3.27168
3.28512
3.31775
3.40857
3.56196
3.84356
5.74358
15.4886
16.519
17.4313
19.4295
22.4999
26.4141
30.5641
33.9095
38.6966
44.1895
3.17483
3.20317
3.22483
3.23319
3.25331
3.25974
3.27001
3.28434
3.31858
3.40945
3.56708
3.90555
6.00759
15.6179
16.2617
17.3221
19.5218
22.7656
26.3426
30.7195
34.6055
38.8856
42.5624
3.17336
3.20603
3.22266
3.23145
3.25003
3.25677
3.26849
3.2852
3.31701
3.40981
3.56528
3.92303
6.01007
14.9798
15.659
16.8071
19.3068
22.4196
26.4357
30.0095
33.4846
36.7874
39.928
3.17532
3.20438
3.21629
3.23258
3.24422
3.25012
3.26863
3.28413
3.31497
3.40667
3.56641
3.93405
5.98455
14.2163
14.8021
16.0244
18.8537
21.6715
25.6309
28.5057
31.6286
33.782
36.2561
3.17098
3.1991
3.21248
3.23106
3.23576
3.248
3.26479
3.28089
3.31185
3.40465
3.5604
3.95633
5.96423
13.3298
14.2344
15.3912
17.9791
20.5846
24.6636
27.1127
29.6884
31.4224
33.4101
3.16334
3.19363
3.20542
3.2258
3.2326
3.24939
3.25959
3.27732
3.30811
3.39965
3.55529
3.96241
5.91951
12.6716
13.788
14.8488
17.0436
19.5854
23.4586
25.5137
27.7466
28.9579
30.6074
3.15773
3.17957
3.19836
3.21886
3.23265
3.247
3.25448
3.27279
3.30311
3.39283
3.54549
3.96632
5.92378
12.2359
13.5454
14.4762
16.1076
18.7149
22.3776
24.119
25.8281
27.2215
28.8629
3.14936
3.17333
3.19569
3.21063
3.22792
3.24241
3.24648
3.26787
3.29778
3.38597
3.53772
3.98298
5.98088
11.8875
13.3967
14.3579
15.5681
17.7346
21.3018
22.9261
23.9951
24.9547
26.1132
3.13975
3.15501
3.18713
3.20405
3.22036
3.23537
3.23986
3.26116
3.29087
3.37815
3.52283
4.00133
6.04234
11.8543
13.3674
14.1949
15.1761
16.7112
19.6441
20.9427
21.8692
22.5999
23.6295
3.13298
3.14689
3.17562
3.1964
3.21263
3.22724
3.23645
3.25396
3.28374
3.37067
3.52543
4.04833
6.18219
11.7606
13.3052
14.1596
15.0394
16.2401
17.9354
19.1903
20.0453
20.7419
21.8657
3.1213
3.14412
3.16405
3.18439
3.20296
3.21655
3.22786
3.24438
3.27446
3.36204
3.53011
4.07918
6.44264
11.9365
13.5289
14.0689
14.8876
15.8398
16.726
17.7605
18.9929
20.012
21.1524
3.10673
3.13316
3.15284
3.17086
3.19221
3.20496
3.2178
3.23436
3.26499
3.35415
3.54445
4.16312
6.76612
11.8662
13.5175
14.1335
14.8846
15.4608
16.4073
17.4046
18.8439
20.222
20.8668
3.08827
3.11759
3.13856
3.15457
3.17775
3.19021
3.20398
3.221
3.25243
3.34411
3.55805
4.23179
6.99904
11.8992
13.3414
14.0467
14.7265
15.2047
16.0624
17.1771
19.3653
21.5577
22.2818
3.06848
3.10045
3.12309
3.13824
3.16082
3.17453
3.18918
3.20701
3.23965
3.33504
3.57866
4.29803
7.12374
12.0828
13.5982
13.6031
14.4594
14.6906
16.1296
17.9203
19.6517
21.0835
21.8096
3.04485
3.07897
3.10318
3.11822
3.13794
3.15442
3.1698
3.18838
3.2225
3.32235
3.59708
4.36925
7.37524
12.1125
13.2895
13.597
14.0427
15.1675
17.1255
18.3174
20.2505
20.992
21.2379
3.02019
3.05613
3.08186
3.09743
3.11375
3.13325
3.14969
3.16925
3.20534
3.31029
3.65734
4.48703
7.78605
12.7307
13.5921
13.2195
13.587
17.291
17.2153
19.0124
20.0251
20.318
19.8185
2.99047
3.02766
3.05422
3.07084
3.08461
3.10617
3.12346
3.14401
3.18211
3.29204
3.62782
4.60259
8.27335
12.4942
12.7734
12.8285
14.618
17.0394
18.0596
18.1682
18.7697
18.6814
18.2878
2.95942
2.99762
3.02423
3.0429
3.05588
3.07835
3.09662
3.11858
3.15899
3.27338
3.70627
4.88166
8.53648
12.1952
11.5488
13.2886
14.7642
16.2459
17.0596
16.9165
17.4951
17.3833
17.0135
2.92102
2.95994
2.98585
3.00698
3.02051
3.04272
3.06137
3.08463
3.1269
3.2438
3.79962
5.14303
10.179
11.5227
11.2782
13.7651
14.0958
15.2032
15.4724
16.0734
16.5503
16.4605
16.4755
2.88083
2.92076
2.94581
2.96982
2.98518
3.00685
3.02591
3.05066
3.09472
3.21301
3.87963
5.60841
9.65492
10.5077
11.3831
13.4978
13.4277
13.6914
14.6596
15.616
15.8943
16.1395
16.0151
2.83088
2.87172
2.89626
2.92221
2.93955
2.96032
2.97906
3.00466
3.04938
3.16638
3.94386
5.93676
9.357
9.70183
11.4809
12.5824
11.9892
12.8053
14.1166
15.3569
15.7112
15.7122
15.4963
2.78009
2.82235
2.84694
2.87433
2.89399
2.91461
2.93326
2.95951
3.00458
3.119
4.01115
6.64444
8.43914
9.17815
11.233
11.3794
11.0151
12.3334
13.8253
14.6409
14.8191
14.8576
14.5802
2.71745
2.76048
2.78574
2.81287
2.83397
2.85421
2.87208
2.89796
2.94181
3.05175
4.04741
7.72849
7.63793
8.96164
10.4237
10.1873
10.3984
11.9124
13.3313
13.8688
13.9501
13.9124
13.4475
2.65639
2.70073
2.72679
2.75332
2.77602
2.79682
2.81448
2.83989
2.88242
2.98779
4.15432
8.87982
6.77442
8.71507
9.38531
9.28895
9.9685
11.471
12.607
12.923
12.9217
12.7851
12.1474
2.58042
2.6244
2.65121
2.67567
2.69853
2.71905
2.73565
2.75952
2.79912
2.89797
4.2558
9.07477
6.1507
8.67159
8.28309
8.54085
9.47
10.8997
11.625
11.8843
11.8008
11.6036
10.8213
2.50969
2.55448
2.58146
2.60424
2.62778
2.64886
2.66531
2.68796
2.72518
2.81841
4.07726
10.0141
5.6736
8.17359
7.35979
7.90468
9.0017
10.2596
10.7161
10.805
10.8029
10.4611
9.4127
2.41878
2.4613
2.48783
2.5077
2.53001
2.55001
2.56498
2.58519
2.61839
2.70396
4.11788
9.99521
5.20375
7.48763
6.5238
7.36017
8.49194
9.38627
9.66312
9.72293
9.69594
9.26668
8.13899
2.33962
2.38275
2.40786
2.42578
2.44802
2.46804
2.4828
2.50151
2.53214
2.61293
4.06727
10.1518
4.66915
6.84413
5.82406
6.87359
7.8926
8.47643
8.69681
8.71426
8.60583
8.10391
6.85848
2.23168
2.2702
2.29264
2.30717
2.32672
2.34425
2.35678
2.37233
2.3982
2.4708
3.86698
10.0676
4.46446
6.14501
5.29499
6.33795
7.15885
7.55515
7.62452
7.63547
7.54045
6.84789
5.54895
2.14812
2.18765
2.20667
2.21898
2.23774
2.25529
2.26755
2.28182
2.30583
2.37291
3.62471
9.64855
4.25908
5.55561
4.8399
5.89059
6.52927
6.76217
6.88047
6.79822
6.58617
5.69839
4.27147
2.02095
2.05329
2.06538
2.07385
2.08839
2.10136
2.11053
2.12101
2.13955
2.19838
3.33494
9.234
4.07733
4.86501
4.4263
5.27263
5.67098
5.80241
5.83144
5.79819
5.37702
4.46479
3.03559
1.94845
1.97864
1.98736
1.99655
2.0106
2.01894
2.02747
2.03615
2.05164
2.11611
3.02785
8.73304
3.95028
4.44325
4.14754
4.93406
5.2281
5.33985
5.33005
5.23954
4.66026
3.44548
2.42871
1.7751
1.78692
1.78653
1.78486
1.78974
1.80088
1.80471
1.81024
1.82125
1.85354
2.93679
8.02075
3.70553
3.6913
3.55695
4.00406
4.14193
4.12847
4.0124
3.64756
2.89787
2.16242
1.94611
3.09332
2.7745
2.58861
2.47092
2.38799
2.33836
2.29897
2.27537
2.255
2.24114
2.2339
2.23182
2.23643
2.24955
2.27625
2.32272
2.39647
2.51341
2.61795
2.77658
2.88158
3.03939
3.13213
3.10501
2.7856
2.59483
2.47701
2.39314
2.34541
2.30362
2.27776
2.25807
2.24338
2.23608
2.23213
2.23629
2.24889
2.27514
2.3208
2.39263
2.50439
2.60616
2.75325
2.85623
3.01339
3.10433
3.11438
2.80171
2.61354
2.49535
2.40996
2.35539
2.31189
2.28192
2.26315
2.24623
2.2371
2.23229
2.23603
2.24753
2.27158
2.31404
2.38218
2.48806
2.59348
2.71579
2.84613
2.97753
3.08062
3.12618
2.82237
2.62509
2.50288
2.41696
2.35973
2.31821
2.28631
2.26707
2.24745
2.2381
2.23246
2.23561
2.246
2.26842
2.30963
2.37464
2.47457
2.58917
2.69155
2.8571
2.94244
3.07032
3.13814
2.83375
2.64058
2.52321
2.43352
2.36974
2.32623
2.28856
2.26935
2.24912
2.23957
2.23279
2.23542
2.24506
2.26486
2.30632
2.3634
2.46774
2.5582
2.68418
2.81546
2.90541
3.04474
3.14518
2.84986
2.65741
2.53006
2.43706
2.37128
2.32771
2.2897
2.27076
2.25019
2.24007
2.23274
2.23476
2.24389
2.25902
2.30591
2.35595
2.45312
2.54105
2.67185
2.78017
2.88671
3.01976
3.15071
2.85851
2.66303
2.53543
2.44481
2.3788
2.3353
2.29786
2.27605
2.25422
2.24271
2.2339
2.23562
2.24554
2.25845
2.31372
2.35991
2.45403
2.54381
2.66024
2.78714
2.87175
3.00602
3.14886
2.85596
2.65683
2.52781
2.43956
2.37723
2.33384
2.29774
2.27546
2.25248
2.23934
2.22997
2.23081
2.2395
2.25444
2.30699
2.35901
2.45161
2.55294
2.65901
2.79808
2.88272
3.01633
2.94547
2.60757
2.45075
2.35708
2.29558
2.26109
2.24545
2.2281
2.21094
2.2068
2.21728
2.24604
2.31203
2.4108
2.56328
2.75233
2.99538
3.37789
3.73027
4.23251
4.72942
5.30157
5.77171
2.95748
2.61485
2.45639
2.36272
2.29916
2.26354
2.24891
2.232
2.21464
2.2062
2.21002
2.22522
2.26385
2.34137
2.47451
2.64719
2.87923
3.25203
3.59084
4.06289
4.54068
5.11491
5.5451
2.95957
2.6182
2.46115
2.36908
2.30507
2.26745
2.25313
2.23576
2.21939
2.20915
2.21179
2.22603
2.25455
2.31144
2.42004
2.57356
2.79189
3.14097
3.46407
3.89843
4.34852
4.9148
5.29311
2.9719
2.62629
2.46641
2.37318
2.30827
2.26991
2.2558
2.23977
2.22344
2.21159
2.21343
2.22237
2.24126
2.28244
2.36982
2.50433
2.70521
3.03215
3.32563
3.72659
4.12768
4.68361
5.0332
2.97478
2.63259
2.47343
2.37934
2.31446
2.27348
2.25834
2.2417
2.22755
2.2148
2.21493
2.22226
2.23997
2.274
2.33748
2.44982
2.62919
2.92312
3.18208
3.54269
3.90606
4.46061
4.77982
2.98771
2.64382
2.47871
2.38398
2.31958
2.27768
2.26163
2.24469
2.2306
2.21885
2.21812
2.22377
2.2394
2.2695
2.32377
2.41842
2.57396
2.83674
3.05806
3.4017
3.71218
4.23164
4.54315
2.99151
2.65157
2.48771
2.38898
2.32508
2.28135
2.26339
2.24621
2.23232
2.22159
2.21994
2.22486
2.23835
2.26437
2.31068
2.38937
2.52087
2.7434
2.94193
3.2442
3.51809
4.01251
4.29174
3.00586
2.66528
2.49577
2.39583
2.33248
2.28717
2.26661
2.24884
2.23472
2.22559
2.2222
2.22646
2.2383
2.26264
2.30622
2.37897
2.49378
2.68728
2.86252
3.14152
3.3822
3.79686
4.04937
3.01066
2.67375
2.50527
2.40057
2.33725
2.29125
2.26825
2.25153
2.23604
2.22834
2.22411
2.22794
2.23856
2.26008
2.29964
2.3649
2.4673
2.63461
2.79276
3.04634
3.24381
3.61025
3.84251
3.02687
2.6892
2.51741
2.41006
2.34553
2.2986
2.27162
2.25418
2.23861
2.23097
2.22547
2.22873
2.23839
2.25897
2.29698
2.35934
2.4542
2.60646
2.75033
2.97228
3.15612
3.4783
3.66576
3.03274
2.69776
2.52643
2.41582
2.34965
2.30301
2.27339
2.25803
2.24057
2.23378
2.22721
2.22973
2.23804
2.25705
2.29242
2.35088
2.44102
2.58275
2.71369
2.92191
3.08181
3.3628
3.53029
3.05068
2.71576
2.54173
2.42808
2.35819
2.31122
2.27767
2.26089
2.24287
2.23523
2.22815
2.23023
2.23786
2.25603
2.29031
2.3466
2.43207
2.5673
2.69086
2.87944
3.02749
3.28786
3.42746
3.05726
2.72401
2.54911
2.4351
2.36233
2.31622
2.28017
2.26499
2.24617
2.23744
2.22991
2.23083
2.23748
2.25441
2.28665
2.34032
2.42273
2.55203
2.66775
2.84911
2.98275
3.21006
3.31965
3.0738
2.74513
2.56546
2.4493
2.37177
2.32428
2.28625
2.26799
2.24844
2.23839
2.23086
2.23117
2.23715
2.25286
2.28309
2.33373
2.41215
2.5369
2.64647
2.81463
2.92783
3.11601
3.20001
3.0827
2.75439
2.57243
2.45605
2.37618
2.32978
2.28992
2.27185
2.25199
2.24019
2.23285
2.23163
2.23696
2.25164
2.28056
2.32977
2.40703
2.52963
2.63508
2.79388
2.89905
3.06356
3.15166
2.8713
2.81019
2.87635
2.9811
3.02717
3.07264
3.11143
3.13655
3.16021
3.18752
3.21462
3.2565
3.32201
3.42214
3.57501
3.81071
4.11349
4.5168
4.91516
5.35561
5.75346
6.12333
6.41455
2.85835
2.76118
2.82443
2.94254
3.00267
3.05395
3.0984
3.12937
3.15663
3.1814
3.2146
3.253
3.31875
3.41851
3.56863
3.7974
4.09961
4.50725
4.92008
5.38768
5.8094
6.21328
6.5093
2.84525
2.73584
2.79012
2.9088
2.97136
3.02804
3.07732
3.11645
3.1544
3.17689
3.20899
3.24822
3.31476
3.41443
3.56248
3.78448
4.08675
4.50049
4.92864
5.41429
5.85666
6.2949
6.6243
2.84594
2.67818
2.73701
2.8635
2.94039
3.001
3.05652
3.09382
3.1406
3.17396
3.2013
3.2423
3.31053
3.41018
3.55753
3.77346
4.07428
4.48899
4.93039
5.44724
5.90676
6.38077
6.71588
2.84495
2.65046
2.69558
2.82151
2.90532
2.97386
3.02584
3.07192
3.12462
3.1583
3.19237
3.23455
3.3053
3.40473
3.5493
3.76168
4.05932
4.47552
4.92858
5.45657
5.96207
6.46325
6.8219
2.84926
2.60217
2.64165
2.76562
2.86142
2.93715
2.99525
3.04292
3.10629
3.14306
3.17746
3.22474
3.29907
3.39852
3.54307
3.75281
4.04399
4.46069
4.93109
5.45908
5.99998
6.51712
6.89025
2.85527
2.57648
2.60176
2.71508
2.81753
2.89983
2.9602
3.01162
3.08104
3.12193
3.16193
3.21186
3.2908
3.39037
3.53304
3.74052
4.02804
4.44108
4.92489
5.45387
6.02812
6.57365
6.95227
2.8614
2.54505
2.54906
2.65739
2.76537
2.85678
2.92009
2.9704
3.0568
3.09793
3.14155
3.19542
3.27962
3.38021
3.52252
3.73167
4.01531
4.42065
4.91489
5.44928
6.03057
6.59525
6.97289
2.87107
2.53492
2.51425
2.59881
2.70872
2.8049
2.87546
2.92919
3.02098
3.0686
3.11652
3.17473
3.2652
3.36729
3.50985
3.71395
3.99732
4.3982
4.90111
5.44455
6.02855
6.60533
6.97813
2.87848
2.53004
2.47147
2.54367
2.64917
2.75077
2.8246
2.87385
2.98345
3.03362
3.0872
3.14936
3.24611
3.3508
3.49352
3.70031
3.9833
4.37305
4.86345
5.41883
6.01625
6.60574
6.97848
2.8858
2.53485
2.44396
2.48687
2.5845
2.68861
2.76716
2.81767
2.93618
2.99064
3.05037
3.11805
3.22257
3.33087
3.4754
3.68025
3.96406
4.34901
4.83577
5.37822
6.01002
6.59546
6.96946
2.89137
2.53854
2.41628
2.4375
2.52184
2.62364
2.70606
2.75206
2.88181
2.94181
3.00861
3.08229
3.194