/*--------------------------------*- C++ -*----------------------------------*\
  =========                 |
  \\      /  F ield         | OpenFOAM: The Open Source CFD Toolbox
   \\    /   O peration     | Website:  https://openfoam.org
    \\  /    A nd           | Version:  7
     \\/     M anipulation  |
\*---------------------------------------------------------------------------*/
FoamFile
{
    version     2.0;
    format      ascii;
    class       volScalarField;
    location    "50";
    object      p;
}
// * * * * * * * * * * * * * * * * * * * * * * * * * * * * * * * * * * * * * //

dimensions      [0 2 -2 0 0 0 0];

internalField   nonuniform List<scalar> 
12842
(
1.47364
1.58322
1.73657
1.97544
2.26512
2.56574
2.85526
3.12353
3.36878
3.60095
3.84564
4.1434
4.54347
5.09394
5.82925
6.75815
7.85829
9.0773
10.3405
11.5657
12.6806
13.6373
14.4152
1.45094
1.59699
1.75655
2.00939
2.29824
2.56732
2.78475
2.9288
2.98739
2.96668
2.89812
2.83822
2.85987
3.03868
3.43563
4.08028
4.96149
6.02732
7.19526
8.37122
9.47165
10.4365
11.2482
1.42815
1.59862
1.77112
2.04242
2.33128
2.57061
2.7197
2.74456
2.62304
2.35929
1.99332
1.60017
1.27685
1.12406
1.22332
1.61589
2.2921
3.19325
4.22786
5.29439
6.31045
7.2113
7.99526
1.40368
1.58882
1.77926
2.07248
2.36295
2.57651
2.66292
2.57448
2.27891
1.78021
1.12948
0.422849
-0.218617
-0.671824
-0.841393
-0.682597
-0.211623
0.502246
1.36123
2.2648
3.14132
3.93032
4.64768
1.37408
1.57332
1.78201
2.10001
2.39359
2.58607
2.61579
2.41951
1.95477
1.22695
0.300453
-0.705414
-1.64639
-2.37989
-2.80265
-2.87345
-2.61963
-2.12135
-1.47671
-0.776952
-0.074115
0.574481
1.20351
1.33917
1.55656
1.7797
2.12659
2.42453
2.60183
2.58226
2.28578
1.65969
0.712228
-0.477842
-1.76682
-2.98994
-3.98819
-4.6564
-4.96166
-4.94373
-4.69094
-4.29419
-3.82869
-3.32425
-2.83609
-2.31545
1.30052
1.53991
1.77253
2.15436
2.45821
2.62901
2.57079
2.1864
1.41256
0.261417
-1.17449
-2.72677
-4.21481
-5.46597
-6.37846
-6.9299
-7.17091
-7.19352
-7.07441
-6.87051
-6.58713
-6.28402
-5.89238
1.26133
1.52249
1.75981
2.18094
2.49005
2.66301
2.57739
2.12078
1.21858
-0.112877
-1.77032
-3.56171
-5.29751
-6.79303
-7.95344
-8.7656
-9.28637
-9.60709
-9.78569
-9.86341
-9.82058
-9.72787
-9.48517
1.21586
1.50197
1.74575
2.21197
2.53098
2.72052
2.62594
2.12378
1.12771
-0.340628
-2.17268
-4.15508
-6.09822
-7.80532
-9.18876
-10.2415
-11.0214
-11.6172
-12.0672
-12.4065
-12.5854
-12.7104
-12.6011
1.17654
1.47961
1.73637
2.24749
2.578
2.78889
2.69156
2.15642
1.08644
-0.489247
-2.46014
-4.59476
-6.70885
-8.59498
-10.1711
-11.4338
-12.44
-13.2748
-13.9607
-14.53
-14.9109
-15.2302
-15.2809
1.14447
1.45661
1.73164
2.28043
2.61979
2.84909
2.74513
2.17539
1.03147
-0.647546
-2.75231
-5.03379
-7.31777
-9.38522
-11.1578
-12.633
-13.8654
-14.9369
-15.8564
-16.6586
-17.2556
-17.7879
-18.035
1.11808
1.43221
1.73147
2.30832
2.65464
2.89756
2.78215
2.17547
0.956975
-0.821387
-3.0543
-5.47509
-7.92401
-10.1696
-12.1356
-13.818
-15.268
-16.5675
-17.7164
-18.755
-19.5854
-20.3512
-20.8216
1.09523
1.40611
1.73489
2.3311
2.68456
2.93732
2.80789
2.16423
0.872705
-0.998891
-3.35181
-5.901
-8.50545
-10.9207
-13.0712
-14.9512
-16.6095
-18.1333
-19.5179
-20.8069
-21.8933
-22.9145
-23.6293
1.07426
1.37956
1.74101
2.34961
2.71165
2.97159
2.82766
2.1489
0.787447
-1.17063
-3.63554
-6.30305
-9.05464
-11.6328
-13.9623
-16.0353
-17.8993
-19.6492
-21.2785
-22.83
-24.1866
-25.4774
-26.4507
1.05469
1.35456
1.74927
2.36554
2.73794
3.00353
2.84627
2.13572
0.708358
-1.32991
-3.901
-6.68133
-9.57845
-12.3219
-14.8355
-17.1069
-19.1801
-21.1569
-23.0335
-24.8491
-26.4767
-28.0378
-29.2721
1.0358
1.33323
1.7592
2.38077
2.76501
3.03593
2.86758
2.12922
0.640116
-1.47389
-4.14923
-7.04378
-10.0944
-13.017
-15.7308
-18.2137
-20.5006
-22.6986
-24.8142
-26.8848
-28.7718
-30.5949
-32.0835
1.01656
1.31692
1.77011
2.3966
2.79341
3.07035
2.89362
2.13169
0.584794
-1.60205
-4.38262
-7.3975
-10.6151
-13.7368
-16.6718
-19.3825
-21.8887
-24.2993
-26.6401
-28.9507
-31.0801
-33.1467
-34.8815
0.996451
1.30596
1.78155
2.41342
2.82297
3.10727
2.92494
2.14367
0.542793
-1.71504
-4.60309
-7.74583
-11.1447
-14.4849
-17.6614
-20.6164
-23.3492
-25.962
-28.5072
-31.0346
-33.3806
-35.6466
-37.6097
0.975939
1.29975
1.79321
2.43096
2.85315
3.14649
2.96142
2.16527
0.514667
-1.812
-4.8088
-8.08478
-11.6752
-15.2483
-18.6811
-21.8928
-24.8574
-27.657
-30.3721
-33.0731
-35.5761
-37.9567
-40.0924
0.955511
1.29753
1.80507
2.44889
2.88376
3.18805
3.0031
2.1967
0.501107
-1.89165
-4.99698
-8.4086
-12.1964
-16.0106
-19.7071
-23.1809
-26.3768
-29.3423
-32.1773
-34.9747
-37.5511
-39.9707
-42.1872
0.936036
1.29831
1.81647
2.46603
2.91351
3.23037
3.04827
2.2364
0.50136
-1.95344
-5.16461
-8.71016
-12.6954
-16.7527
-20.7142
-24.4498
-27.8732
-30.9832
-33.8695
-36.6626
-39.2411
-41.6185
-43.752
0.917548
1.30188
1.8283
2.48388
2.94498
3.27677
3.10049
2.28805
0.518663
-1.99453
-5.30836
-8.98447
-13.1651
-17.4653
-21.691
-25.6862
-29.3345
-32.565
-35.4239
-38.1294
-40.6296
-42.8277
-44.7478
0.901424
1.30669
1.83769
2.49816
2.97223
3.3198
3.15195
2.34399
0.547219
-2.01859
-5.42899
-9.22879
-13.5986
-18.1396
-22.6288
-26.8861
-30.7616
-34.0913
-36.8728
-39.4508
-41.8455
-43.829
-45.422
0.884829
1.31542
1.85344
2.52398
3.01529
3.38228
3.22433
2.42293
0.60437
-2.00802
-5.50286
-9.41308
-13.9588
-18.7374
-23.4933
-28.0242
-32.1388
-35.5779
-38.3147
-40.7689
-42.9486
-44.568
-45.6688
0.871343
1.32784
1.87403
2.5571
3.0649
3.449
3.29829
2.50052
0.66344
-1.99124
-5.55848
-9.56891
-14.2765
-19.288
-24.3135
-29.1279
-33.4854
-37.0896
-39.8856
-42.1243
-43.849
-45.0138
-45.69
0.867458
1.34604
1.90013
2.59528
3.11688
3.5127
3.36039
2.55387
0.687007
-2.02292
-5.66863
-9.78166
-14.6456
-19.8841
-25.1786
-30.2811
-34.8862
-38.7235
-41.6
-43.5096
-44.7839
-45.6079
-45.9538
0.871714
1.36688
1.9267
2.6311
3.16127
3.56146
3.39832
2.57178
0.667593
-2.10513
-5.82937
-10.0399
-15.0478
-20.5021
-26.0644
-31.4748
-36.3698
-40.5137
-43.5018
-45.2223
-46.2705
-46.8581
-46.8858
0.877706
1.38648
1.94999
2.6611
3.19553
3.59458
3.41477
2.56193
0.618856
-2.21721
-6.01379
-10.3098
-15.445
-21.0999
-26.9271
-32.6762
-37.9033
-42.3735
-45.5921
-47.4535
-48.5561
-49.026
-48.7972
0.882092
1.40299
1.96868
2.68484
3.22054
3.61531
3.41662
2.53593
0.557373
-2.33709
-6.19594
-10.562
-15.8059
-21.6444
-27.7294
-33.8413
-39.4255
-44.2546
-47.8918
-50.185
-51.5558
-52.0275
-51.6995
0.884863
1.41683
1.98378
2.70398
3.23931
3.62877
3.41182
2.50508
0.497691
-2.44726
-6.35731
-10.7782
-16.1137
-22.1192
-28.4489
-34.9333
-40.9042
-46.1583
-50.35
-53.2767
-55.1673
-55.9759
-55.9767
0.887006
1.42899
1.99696
2.7209
3.25532
3.63996
3.40733
2.47842
0.450464
-2.53581
-6.48668
-10.9486
-16.3614
-22.5183
-29.0747
-35.9299
-42.351
-48.1308
-52.986
-56.7522
-59.5112
-61.2274
-62.2431
0.889308
1.44045
2.00968
2.73738
3.27111
3.65227
3.40736
2.46081
0.420477
-2.59857
-6.58201
-11.074
-16.5524
-22.8467
-29.6087
-36.8302
-43.7805
-50.1745
-55.8131
-60.7528
-64.7984
-67.7616
-70.057
0.892071
1.45165
2.02269
2.75437
3.28787
3.66705
3.4132
2.45307
0.407281
-2.63754
-6.64786
-11.1611
-16.6953
-23.113
-30.0589
-37.6382
-45.1676
-52.2319
-58.7798
-65.0925
-70.5811
-74.9386
-78.381
0.89535
1.46291
2.03634
2.77207
3.30582
3.68423
3.42411
2.45332
0.407099
-2.6586
-6.69268
-11.2198
-16.8008
-23.3267
-30.4329
-38.3498
-46.4447
-54.2222
-61.7641
-69.319
-75.9743
-81.5795
-86.4977
0.89899
1.47425
2.05057
2.79036
3.32464
3.70303
3.43853
2.45875
0.415256
-2.66815
-6.72469
-11.2584
-16.8768
-23.4925
-30.7322
-38.9476
-47.5293
-56.1083
-64.6255
-73.1976
-80.9337
-87.4872
-93.4866
0.902856
1.48574
2.06528
2.80894
3.34389
3.72259
3.45485
2.46669
0.427592
-2.67158
-6.75043
-11.2827
-16.9281
-23.6108
-30.9498
-39.4113
-48.3395
-57.8064
-67.1267
-76.1725
-84.7346
-92.4414
-98.9612
0.906763
1.49731
2.08025
2.82759
3.3632
3.74222
3.47189
2.47528
0.44122
-2.67227
-6.77367
-11.295
-16.9553
-23.6782
-31.0694
-39.728
-48.8022
-59.0692
-69.2749
-78.3787
-87.2012
-95.7652
-102.724
0.910655
1.50899
2.09536
2.84615
3.38234
3.76152
3.48895
2.48342
0.454542
-2.67181
-6.79603
-11.2947
-16.957
-23.6894
-31.0684
-39.8895
-48.9304
-59.5728
-70.624
-80.4037
-89.3057
-97.6976
-104.752
0.914462
1.52072
2.1105
2.86458
3.40128
3.78037
3.50577
2.49077
0.466997
-2.6703
-6.81737
-11.2796
-16.93
-23.6392
-30.923
-39.8705
-48.8605
-59.5205
-71.0367
-81.1492
-90.2662
-98.2816
-105.103
0.918249
1.53255
2.12567
2.88291
3.42005
3.79883
3.52237
2.4974
0.478724
-2.66691
-6.83669
-11.2466
-16.8713
-23.5229
-30.6148
-39.6218
-48.706
-59.1599
-70.2535
-80.1973
-89.3452
-97.1867
-103.699
0.922026
1.54444
2.14084
2.90122
3.43876
3.81702
3.53893
2.50368
0.490155
-2.66046
-6.85279
-11.1928
-16.779
-23.3364
-30.1426
-39.0713
-48.5275
-58.7753
-68.25
-77.6374
-86.8764
-94.5467
-100.715
0.925912
1.55645
2.15609
2.9196
3.45755
3.83512
3.55566
2.50999
0.501875
-2.6496
-6.86457
-11.1153
-16.6531
-23.0735
-29.5177
-38.1327
-47.9563
-58.068
-66.1525
-74.6482
-83.4705
-90.7794
-96.5829
0.929928
1.56854
2.17144
2.93816
3.47652
3.85326
3.57273
2.51673
0.514325
-2.63322
-6.87154
-11.012
-16.4966
-22.7282
-28.7821
-36.8378
-46.7523
-56.204
-64.033
-71.9673
-79.9914
-86.7148
-91.9093
0.934184
1.58078
2.18698
2.95692
3.49573
3.87156
3.59029
2.52421
0.527901
-2.6103
-6.87358
-10.8809
-16.3167
-22.2944
-27.9335
-35.2131
-45.2996
-53.7579
-61.6492
-69.6305
-76.5254
-82.6349
-87.3055
0.938663
1.5931
2.2027
2.97597
3.51523
3.89005
3.60841
2.53265
0.542748
-2.58022
-6.87138
-10.7208
-16.1245
-21.7495
-27.0064
-33.7374
-43.6786
-51.0146
-58.7538
-66.6949
-72.4435
-77.446
-81.4441
0.943456
1.60558
2.21868
2.99529
3.53502
3.90875
3.62709
2.5422
0.558953
-2.5424
-6.86589
-10.5301
-15.9324
-21.059
-26.1321
-32.683
-41.4575
-47.6941
-54.6775
-62.0435
-67.0306
-70.8825
-74.1538
0.948433
1.61813
2.23488
3.01494
3.55516
3.92774
3.64643
2.55304
0.576475
-2.49647
-6.85887
-10.307
-15.7506
-20.1918
-25.5738
-31.9096
-38.599
-43.878
-49.7224
-55.948
-60.4745
-63.7108
-66.2494
0.953807
1.63092
2.25149
3.03495
3.57568
3.94706
3.66644
2.56524
0.595139
-2.44224
-6.85248
-10.048
-15.5847
-19.1474
-25.5497
-31.1105
-35.5401
-39.8199
-44.7603
-49.8053
-53.7113
-56.5452
-58.5197
0.958385
1.64324
2.26812
3.05528
3.59682
3.96719
3.68767
2.57927
0.614104
-2.38106
-6.85068
-9.75156
-15.4324
-17.9694
-26.0631
-29.8859
-32.4513
-35.6029
-40.0843
-44.0203
-47.061
-49.3587
-50.85
0.963039
1.65603
2.28583
3.07747
3.62065
3.9907
3.71284
2.59738
0.633268
-2.31561
-6.85903
-9.42044
-15.2748
-16.6027
-26.5297
-27.9126
-29.1182
-31.0947
-34.9799
-37.7156
-39.9164
-41.6636
-42.7124
0.969642
1.67038
2.30616
3.10315
3.64909
4.01954
3.74301
2.61844
0.646958
-2.25954
-6.89548
-9.09454
-15.1615
-15.1679
-26.4715
-25.497
-25.5459
-26.4855
-29.399
-30.8918
-32.4523
-33.7497
-34.47
0.978425
1.68648
2.32944
3.1325
3.68203
4.05282
3.77555
2.63687
0.644554
-2.23199
-6.98622
-8.83143
-15.1973
-14.0604
-25.8735
-23.0289
-22.0663
-22.3516
-24.1999
-24.5631
-25.7218
-26.76
-27.3382
0.988344
1.70347
2.35467
3.1643
3.71764
4.08763
3.8057
2.64537
0.614963
-2.25063
-7.15296
-8.69029
-15.4461
-13.6041
-24.9037
-20.857
-19.1395
-19.2354
-20.2556
-19.8051
-20.7665
-21.7853
-22.4849
0.998858
1.72085
2.38111
3.19742
3.75428
4.12154
3.82981
2.63881
0.551426
-2.32554
-7.40598
-8.70983
-15.9169
-13.8694
-23.7578
-19.1454
-17.1339
-17.3157
-17.9196
-17.0977
-18.0307
-19.2584
-20.3653
1.00982
1.73836
2.4081
3.23093
3.79057
4.15278
3.84597
2.61612
0.455678
-2.45254
-7.73009
-8.88917
-16.5415
-14.698
-22.7125
-18.0657
-16.2476
-16.6542
-17.1787
-16.3947
-17.4156
-18.9884
-20.6858
1.02112
1.75584
2.43539
3.2644
3.82599
4.18084
3.85381
2.57759
0.330094
-2.62604
-8.10936
-9.20866
-17.2618
-15.9686
-21.8479
-17.5341
-16.2989
-17.0119
-17.642
-17.1262
-18.3067
-20.246
-22.5687
1.03325
1.77392
2.46359
3.29876
3.86178
4.20759
3.85661
2.52901
0.186199
-2.82753
-8.51545
-9.62558
-17.9737
-17.3979
-21.0731
-17.3166
-16.8682
-17.8618
-18.6556
-18.4891
-19.8554
-22.0521
-24.9089
1.04602
1.79231
2.49245
3.33321
3.89691
4.23202
3.85426
2.47298
0.0328978
-3.03791
-8.91346
-10.1005
-18.6847
-18.9681
-20.7197
-17.6616
-17.9655
-19.2592
-20.2793
-20.4966
-22.0771
-24.4558
-27.7541
1.05838
1.80987
2.51993
3.3654
3.9283
4.25048
3.84294
2.40653
-0.130098
-3.2548
-9.29165
-10.5979
-19.3111
-20.4494
-20.8557
-18.4896
-19.3907
-21.0386
-22.1857
-22.8349
-24.5299
-26.9863
-30.343
1.07005
1.82634
2.54556
3.39486
3.95575
4.26353
3.82451
2.33346
-0.29576
-3.46791
-9.63306
-11.0665
-19.7758
-21.6485
-21.337
-19.5198
-20.7181
-22.6728
-23.7503
-24.7753
-26.1047
-28.4683
-31.3406
1.08142
1.84226
2.57024
3.42298
3.98131
4.27424
3.8038
2.26105
-0.452877
-3.66125
-9.91503
-11.4554
-20.0206
-22.44
-21.9237
-20.5828
-21.7705
-23.8766
-24.7373
-25.8341
-26.4424
-28.3749
-30.3404
1.09284
1.85812
2.59469
3.45067
4.00638
4.28481
3.78421
2.19429
-0.594022
-3.82448
-10.1251
-11.735
-20.0183
-22.779
-22.3833
-21.5544
-22.5134
-24.4888
-25.1138
-25.7975
-25.7786
-26.7823
-27.673
1.1043
1.87397
2.61908
3.47834
4.03154
4.2961
3.76706
2.13475
-0.717503
-3.95651
-10.267
-11.9036
-19.7836
-22.7036
-22.6774
-22.32
-22.9707
-24.5008
-24.8527
-24.8195
-24.2653
-24.106
-23.9415
1.11579
1.88986
2.64346
3.50594
4.0568
4.30816
3.75237
2.08195
-0.825093
-4.06199
-10.354
-11.9787
-19.3647
-22.3078
-22.842
-22.8009
-23.112
-24.0269
-23.977
-23.1813
-22.0444
-20.8621
-19.7731
1.1272
1.90569
2.66772
3.53345
4.08208
4.32078
3.73966
2.03451
-0.920214
-4.1484
-10.4044
-11.9898
-18.8314
-21.7142
-22.9008
-23.0419
-23.0153
-23.2238
-22.6181
-21.145
-19.3966
-17.4726
-15.6255
1.13858
1.92149
2.69187
3.56073
4.10717
4.33366
3.72836
1.99101
-1.00622
-4.22275
-10.4355
-11.9672
-18.2568
-21.0431
-22.8569
-23.0836
-22.9223
-22.3023
-20.997
-18.9554
-16.6595
-14.2439
-11.8485
1.14982
1.93718
2.71578
3.58775
4.13202
4.34662
3.71803
1.95024
-1.08602
-4.29108
-10.4617
-11.9391
-17.7078
-20.3973
-22.7103
-22.843
-22.7857
-21.381
-19.3246
-16.7955
-14.076
-11.3761
-8.69789
1.161
1.95281
2.7395
3.61441
4.15648
4.35946
3.70834
1.9114
-1.16164
-4.35726
-10.4928
-11.9267
-17.2346
-19.8475
-22.4627
-22.3106
-22.3369
-20.4108
-17.723
-14.8217
-11.807
-8.99472
-6.30099
1.17201
1.96829
2.76292
3.64073
4.18057
4.37215
3.6991
1.87392
-1.2345
-4.4239
-10.5353
-11.9452
-16.8702
-19.4357
-22.1255
-21.611
-21.5777
-19.3334
-16.24
-13.1174
-9.98211
-7.23065
-4.69835
1.18293
1.9837
2.7861
3.66664
4.20421
4.38458
3.6902
1.83752
-1.30536
-4.49186
-10.5916
-12.0019
-16.6272
-19.1754
-21.7077
-20.8582
-20.6525
-18.1857
-14.8876
-11.6758
-8.63462
-6.1227
-3.85338
1.19366
1.99895
2.80896
3.6922
4.22744
4.39677
3.68156
1.80198
-1.37468
-4.56137
-10.6619
-12.0994
-16.5031
-19.0608
-21.2413
-20.1076
-19.6468
-17.0522
-13.6901
-10.5173
-7.71388
-5.55165
-3.58887
1.20431
2.0141
2.83156
3.71733
4.2502
4.40863
3.67311
1.76723
-1.44254
-4.6316
-10.744
-12.2345
-16.4805
-19.0701
-20.7737
-19.3777
-18.6172
-16.0036
-12.6838
-9.67293
-7.14919
-5.33364
-3.66215
1.21476
2.02908
2.85382
3.74209
4.27253
4.42018
3.66478
1.73318
-1.50896
-4.70165
-10.8348
-12.4018
-16.5345
-19.1744
-20.3312
-18.6918
-17.6339
-15.0746
-11.8898
-9.13557
-6.88914
-5.3363
-3.89793
1.22513
2.04394
2.87581
3.76639
4.29431
4.43127
3.65648
1.69986
-1.57368
-4.76997
-10.9298
-12.5924
-16.6337
-19.3381
-19.9126
-18.0918
-16.7709
-14.2828
-11.2927
-8.82748
-6.8495
-5.46454
-4.17804
1.23529
2.0586
2.89743
3.79027
4.31557
4.4419
3.64815
1.66722
-1.63651
-4.83532
-11.0248
-12.798
-16.7478
-19.5308
-19.5082
-17.6106
-16.0888
-13.6709
-10.8743
-8.66753
-6.90531
-5.58194
-4.35729
1.24537
2.07312
2.91874
3.81363
4.33619
4.45193
3.63968
1.63534
-1.69706
-4.89604
-11.1149
-13.0092
-16.8479
-19.7225
-19.1023
-17.2393
-15.607
-13.2691
-10.6342
-8.59388
-6.93539
-5.55756
-4.32323
1.25524
2.08741
2.93964
3.83649
4.35618
4.46134
3.63104
1.60424
-1.75505
-4.95098
-11.1962
-13.2183
-16.915
-19.9102
-18.7024
-16.9638
-15.2873
-13.0447
-10.5568
-8.56807
-6.87058
-5.3768
-4.11984
1.265
2.10153
2.96018
3.85875
4.3754
4.46998
3.62213
1.57402
-1.81003
-4.99869
-11.2646
-13.4196
-16.9356
-20.0699
-18.3355
-16.7687
-15.0346
-12.9128
-10.5479
-8.51735
-6.70095
-5.12226
-3.8786
1.27454
2.1154
2.98027
3.88044
4.39387
4.47786
3.61296
1.54476
-1.86171
-5.03833
-11.317
-13.6079
-16.9364
-20.2449
-18.0486
-16.6188
-14.8064
-12.7824
-10.4721
-8.34247
-6.42836
-4.85327
-3.66993
1.28396
2.12908
2.99995
3.90143
4.41146
4.48485
3.60345
1.51657
-1.90969
-5.06884
-11.3505
-13.7768
-16.9533
-20.4894
-17.8023
-16.4759
-14.6389
-12.6208
-10.2561
-8.02728
-6.09251
-4.58676
-3.48992
1.29313
2.14247
3.01911
3.92176
4.42819
4.49095
3.59361
1.48953
-1.95373
-5.08975
-11.363
-13.9294
-16.9505
-20.7161
-17.5104
-16.3336
-14.5268
-12.44
-9.94491
-7.67048
-5.77746
-4.36542
-3.36125
1.30216
2.15564
3.03781
3.94131
4.44392
4.49605
3.58339
1.46376
-1.99349
-5.10038
-11.3523
-14.0684
-16.8898
-20.8034
-17.1715
-16.1705
-14.4278
-12.245
-9.6436
-7.37214
-5.55146
-4.23899
-3.32085
1.31091
2.16848
3.05593
3.96012
4.45869
4.50017
3.57282
1.43932
-2.02881
-5.10059
-11.3167
-14.1928
-16.7547
-20.7906
-16.8838
-15.8877
-14.3051
-12.0441
-9.40224
-7.14421
-5.40602
-4.18764
-3.33192
1.3195
2.18106
3.07353
3.97806
4.47234
4.50318
3.56184
1.41632
-2.05942
-5.08996
-11.2541
-14.3017
-16.5416
-20.7492
-16.7462
-15.5949
-14.1402
-11.8335
-9.18791
-6.96427
-5.3147
-4.16932
-3.3493
1.32777
2.19329
3.09049
3.99516
4.48494
4.50511
3.55048
1.39479
-2.08519
-5.06857
-11.1634
-14.3997
-16.2227
-20.611
-16.8926
-15.4988
-13.9637
-11.6104
-8.97762
-6.83
-5.27023
-4.17895
-3.38062
1.33585
2.20522
3.10685
4.0113
4.49631
4.50583
3.53867
1.37484
-2.1059
-5.03612
-11.0431
-14.4906
-15.8211
-20.2389
-17.1426
-15.5268
-13.79
-11.3992
-8.80991
-6.75289
-5.27582
-4.22877
-3.43805
1.34359
2.21674
3.12251
4.02651
4.50651
4.50538
3.52644
1.3565
-2.12143
-4.99277
-10.8923
-14.5765
-15.4063
-19.6073
-17.2363
-15.5013
-13.6166
-11.2243
-8.69853
-6.71324
-5.2975
-4.29126
-3.4923
1.35111
2.22794
3.13751
4.04066
4.51537
4.50362
3.51372
1.33986
-2.13154
-4.93826
-10.7091
-14.6543
-15.0354
-18.8121
-17.0772
-15.3458
-13.4228
-11.0774
-8.61102
-6.67379
-5.31513
-4.33854
-3.5357
1.35824
2.23868
3.15173
4.05378
4.52293
4.50057
3.50055
1.32495
-2.13612
-4.87271
-10.4923
-14.7181
-14.7276
-17.9817
-16.7173
-15.0671
-13.1623
-10.8827
-8.50389
-6.64873
-5.34902
-4.38568
-3.59061
1.36514
2.24903
3.1652
4.06574
4.52903
4.4961
3.48686
1.31187
-2.1349
-4.79581
-10.2404
-14.7603
-14.47
-17.2103
-16.2197
-14.7115
-12.835
-10.6115
-8.37313
-6.63809
-5.39991
-4.44156
-3.65531
1.37159
2.25889
3.17782
4.07654
4.5337
4.49022
3.47268
1.30066
-2.12776
-4.70768
-9.95261
-14.7756
-14.2431
-16.5523
-15.6143
-14.3105
-12.4831
-10.3271
-8.23786
-6.62565
-5.43356
-4.4942
-3.71242
1.37777
2.26831
3.1896
4.08606
4.53677
4.48281
3.45795
1.29142
-2.11443
-4.60789
-9.62779
-14.7641
-14.0429
-15.9916
-14.9665
-13.8663
-12.1178
-10.0557
-8.12026
-6.60614
-5.44761
-4.54295
-3.77625
1.38348
2.27718
3.20042
4.0943
4.53826
4.47387
3.4427
1.28418
-2.09483
-4.49686
-9.26571
-14.7241
-13.8987
-15.4716
-14.3639
-13.4018
-11.7555
-9.79723
-8.01627
-6.57486
-5.46973
-4.60252
-3.86094
1.38885
2.28554
3.21032
4.10114
4.53803
4.46328
3.42687
1.27892
-2.06881
-4.37353
-8.8663
-14.6603
-13.8511
-14.9576
-13.8132
-12.9486
-11.416
-9.55954
-7.89904
-6.53672
-5.48316
-4.65124
-3.94056
1.39385
2.29337
3.21919
4.10653
4.53594
4.45087
3.41031
1.2757
-2.03643
-4.24175
-8.43083
-14.5328
-13.8574
-14.4801
-13.3337
-12.5174
-11.0934
-9.34642
-7.79438
-6.52434
-5.52766
-4.72459
-4.03699
1.39845
2.30073
3.2272
4.1105
4.53191
4.43608
3.39159
1.27171
-1.99974
-4.09571
-7.96514
-14.4081
-13.9536
-14.083
-12.942
-12.0849
-10.7094
-9.08718
-7.63555
-6.44854
-5.5221
-4.7599
-4.10146
1.40564
2.30943
3.23542
4.11281
4.52385
4.41465
3.36513
1.2641
-1.959
-3.98162
-7.49776
-13.8811
-13.6497
-13.4624
-12.4671
-11.6897
-10.4296
-8.98338
-7.66945
-6.55956
-5.65364
-4.89989
-4.24644
1.41079
2.31493
3.23897
4.10679
4.50472
4.38028
3.32814
1.25816
-1.89763
-3.88334
-7.11685
-13.4098
-13.5441
-13.0901
-12.0945
-11.3325
-10.0812
-8.73027
-7.50663
-6.44573
-5.55988
-4.83007
-4.20112
1.41261
2.31603
3.23491
4.08919
4.46957
4.32662
3.2729
1.244
-1.83113
-3.80224
-6.75669
-12.7906
-13.3177
-12.7325
-11.7714
-10.9689
-9.72677
-8.44139
-7.26554
-6.23173
-5.37458
-4.67256
-4.06378
1.41082
2.31209
3.22235
4.05908
4.41733
4.25199
3.1958
1.21274
-1.77415
-3.73239
-6.36641
-11.9348
-12.7795
-12.2298
-11.3878
-10.5366
-9.37169
-8.16867
-7.02731
-6.02735
-5.20664
-4.52566
-3.92802
1.40709
2.30429
3.20279
4.01846
4.35098
4.16108
3.1037
1.17261
-1.71545
-3.64535
-5.92285
-10.9118
-11.9945
-11.5777
-10.8584
-10.0342
-8.97987
-7.88088
-6.81515
-5.88403
-5.11145
-4.4637
-3.88628
1.40276
2.29346
3.17735
3.96851
4.27284
4.05847
3.00499
1.13696
-1.63344
-3.50929
-5.42242
-9.80281
-11.0683
-10.7909
-10.2081
-9.49108
-8.57609
-7.59852
-6.64999
-5.8145
-5.11044
-4.51254
-3.96831
1.39693
2.27888
3.14524
3.90876
4.18317
3.94617
2.90486
1.11574
-1.51063
-3.30362
-4.87109
-8.64349
-10.0538
-9.89277
-9.48473
-8.89854
-8.15607
-7.33204
-6.52243
-5.79529
-5.16801
-4.62905
-4.13179
1.38882
2.25943
3.10501
3.83731
4.0804
3.8238
2.80526
1.11407
-1.33806
-3.02136
-4.27921
-7.45501
-8.94395
-8.92402
-8.66654
-8.23334
-7.66319
-7.00755
-6.34137
-5.73132
-5.20184
-4.74173
-4.30898
1.37722
2.23378
3.05486
3.75233
3.9629
3.69068
2.707
1.13388
-1.11471
-2.66696
-3.65969
-6.27542
-7.73351
-7.87209
-7.75221
-7.47191
-7.05712
-6.55592
-6.03913
-5.55898
-5.13618
-4.75832
-4.39374
1.36187
2.20097
2.99344
3.65202
3.82931
3.54657
2.61085
1.17485
-0.846333
-2.25303
-3.02557
-5.12266
-6.47255
-6.70446
-6.7366
-6.58563
-6.31438
-5.95517
-5.57331
-5.20234
-4.87016
-4.57491
-4.28665
1.34188
2.1598
2.91925
3.53525
3.67927
3.39227
2.51786
1.2345
-0.544315
-1.79744
-2.39118
-4.00883
-5.19746
-5.48314
-5.60981
-5.57365
-5.42263
-5.17908
-4.9048
-4.63411
-4.38227
-4.15166
-3.9194
1.31713
2.10938
2.83127
3.40102
3.51293
3.22909
2.42842
1.30745
-0.224655
-1.32155
-1.77321
-2.96824
-3.94147
-4.24925
-4.43105
-4.47074
-4.40406
-4.25275
-4.06073
-3.85359
-3.65823
-3.48426
-3.30915
1.2866
2.04837
2.72819
3.24905
3.33122
3.05856
2.34155
1.38519
0.0933526
-0.849263
-1.19091
-2.03099
-2.77061
-3.05088
-3.2593
-3.33912
-3.32644
-3.23173
-3.09611
-2.9514
-2.81479
-2.69189
-2.56531
1.25008
1.97592
2.60941
3.07929
3.13533
2.88156
2.25402
1.45622
0.388461
-0.405995
-0.666401
-1.22388
-1.73947
-1.97108
-2.16828
-2.26191
-2.27702
-2.22917
-2.14813
-2.05785
-1.97415
-1.90149
-1.82464
1.20639
1.89059
2.47411
2.89247
2.92677
2.69796
2.16029
1.50714
0.639066
-0.0187305
-0.224044
-0.575176
-0.902185
-1.07184
-1.24386
-1.33379
-1.37148
-1.36354
-1.33237
-1.29646
-1.26798
-1.24846
-1.22465
1.15534
1.792
2.32242
2.68946
2.70659
2.50608
2.05282
1.52428
0.825503
0.287063
0.113287
-0.10319
-0.290032
-0.406086
-0.544659
-0.629233
-0.683491
-0.711103
-0.726953
-0.742671
-0.764613
-0.791532
-0.813185
1.09569
1.67904
2.1544
2.47184
2.47559
2.30304
1.9237
1.49618
0.933686
0.493697
0.332004
0.189357
0.0963972
0.021596
-0.0899863
-0.16936
-0.239678
-0.29855
-0.353469
-0.408991
-0.467215
-0.526459
-0.579057
1.0277
1.55212
1.97132
2.24107
2.2338
2.08548
1.76653
1.41642
0.958669
0.596608
0.435314
0.322308
0.285022
0.238017
0.1482
0.0693668
-0.0147852
-0.0960012
-0.175957
-0.255094
-0.333422
-0.409388
-0.477605
0.950439
1.41116
1.77438
1.99907
1.98136
1.85123
1.57887
1.28589
0.906681
0.606179
0.444074
0.335644
0.325747
0.294293
0.219184
0.139098
0.0476852
-0.0430877
-0.132318
-0.21855
-0.301083
-0.379267
-0.450033
0.864926
1.2579
1.56604
1.74783
1.71906
1.60076
1.36368
1.11314
0.793691
0.543108
0.385861
0.27337
0.274349
0.250999
0.184094
0.104817
0.0139811
-0.0757877
-0.162905
-0.245573
-0.323144
-0.395975
-0.462622
0.771186
1.09393
1.34888
1.49026
1.44965
1.33851
1.12929
0.912648
0.641141
0.432585
0.288071
0.172465
0.175255
0.15637
0.0950133
0.0200257
-0.064119
-0.145951
-0.224141
-0.297051
-0.364868
-0.428627
-0.487531
0.671118
0.92276
1.12688
1.23051
1.17836
1.07268
0.887942
0.701477
0.471413
0.299213
0.173911
0.0614156
0.0613739
0.0441106
-0.0111513
-0.0783538
-0.151897
-0.221996
-0.288094
-0.349192
-0.405776
-0.458454
-0.506988
0.566425
0.748231
0.904839
0.974429
0.913159
0.813879
0.653269
0.495822
0.303799
0.16322
0.0605396
-0.042266
-0.0456973
-0.0625246
-0.111703
-0.169584
-0.23119
-0.289097
-0.343158
-0.39292
-0.438756
-0.481272
-0.520569
0.460008
0.575952
0.688998
0.72988
0.663346
0.573274
0.437363
0.308514
0.15197
0.0386979
-0.0412021
-0.130018
-0.136942
-0.152887
-0.195328
-0.243586
-0.293943
-0.340991
-0.384432
-0.424321
-0.46101
-0.49493
-0.526291
0.355589
0.411946
0.4873
0.505262
0.438505
0.360284
0.24923
0.147646
0.0238787
-0.066188
-0.125495
-0.197974
-0.207237
-0.22182
-0.257009
-0.296117
-0.336356
-0.373605
-0.407741
-0.439007
-0.467534
-0.493807
-0.518132
0.256708
0.26393
0.30779
0.309489
0.246349
0.181731
0.0939716
0.0170029
-0.0777257
-0.14841
-0.190956
-0.246907
-0.256917
-0.269437
-0.297865
-0.328521
-0.359355
-0.387519
-0.413815
-0.43819
-0.460474
-0.481047
-0.500092
0.169114
0.139184
0.158935
0.149987
0.0930299
0.0416283
-0.0257864
-0.0824672
-0.152836
-0.208083
-0.238484
-0.280302
-0.290434
-0.301085
-0.323683
-0.346959
-0.369981
-0.391241
-0.41139
-0.429864
-0.44662
-0.461949
-0.476107
0.0962576
0.0446152
0.0476489
0.032938
-0.0167301
-0.0565681
-0.107665
-0.149049
-0.200487
-0.244043
-0.266809
-0.297867
-0.308407
-0.318223
-0.336993
-0.355362
-0.373259
-0.389702
-0.404936
-0.418663
-0.430997
-0.44207
-0.452329
0.0452671
-0.0124933
-0.0179492
-0.0336268
-0.0749445
-0.10454
-0.142355
-0.171974
-0.208333
-0.241823
-0.258847
-0.280846
-0.290333
-0.298196
-0.3126
-0.325411
-0.337514
-0.3482
-0.357782
-0.36632
-0.373814
-0.380352
-0.386314
0.00441912
-0.0391435
-0.0422497
-0.0507149
-0.0798522
-0.0984178
-0.125224
-0.147663
-0.176371
-0.207195
-0.22765
-0.251976
-0.267936
-0.281143
-0.29941
-0.315836
-0.331814
-0.34641
-0.359277
-0.370034
-0.378627
-0.385376
-0.39113
0.0326388
0.0018292
0.00491788
0.00497637
-0.00740437
-0.00796775
-0.0131821
-0.0138238
-0.0164977
-0.0217219
-0.0194597
-0.0176956
-0.0134325
-0.00940881
-0.00970688
-0.00858314
-0.0067404
-0.00403024
-0.00215359
-0.00177893
-0.00297973
-0.0047703
-0.00642063
1.03398
0.960115
1.08489
1.28697
1.55862
1.94573
2.50742
3.29514
4.37021
5.782
7.54009
9.63416
12.0181
14.6384
17.4268
20.305
23.1817
25.9585
28.5411
30.8542
32.8492
34.5093
35.8547
1.08058
1.06453
1.17039
1.3814
1.66068
2.04533
2.59126
3.34746
4.36889
5.7028
7.36615
9.35325
11.6269
14.1344
16.8052
19.5549
22.2855
24.8948
27.2887
29.3978
31.1823
32.6422
33.7997
1.13581
1.17439
1.27203
1.48444
1.77014
2.1503
2.67366
3.38564
4.33457
5.5647
7.09907
8.93893
11.0579
13.4091
15.9249
18.5188
21.0899
23.5323
25.75
27.6754
29.2731
30.5552
31.5452
1.2015
1.28351
1.38565
1.59528
1.88424
2.25835
2.75512
3.41449
4.27791
5.3854
6.76358
8.42097
10.3426
12.4914
14.8071
17.2081
19.5954
21.8632
23.9143
25.6797
27.1239
28.2634
29.1202
1.27866
1.38469
1.50078
1.70777
1.99592
2.36128
2.8281
3.42841
4.19663
5.16739
6.36873
7.81538
9.50375
11.4089
13.482
15.6507
17.8241
19.9011
21.7865
23.4095
24.7311
25.7653
26.5318
1.36257
1.46876
1.59983
1.80634
2.08954
2.44141
2.87333
3.40811
4.07245
4.89555
5.9046
7.11977
8.54764
10.1771
11.9735
13.8781
15.8107
17.6798
19.3949
20.8853
22.1077
23.0667
23.7761
1.43686
1.52667
1.66785
1.87867
2.15783
2.49333
2.8856
3.34722
3.8967
4.55694
5.35341
6.31028
7.4444
8.75925
10.2383
11.8402
13.5006
15.1409
16.6792
18.046
19.193
20.1118
20.806
1.47842
1.563
1.71198
1.9364
2.22107
2.54364
2.89369
3.27293
3.6903
4.16179
4.71113
5.36761
6.16057
7.11186
8.22748
9.48919
10.854
12.2591
13.6306
14.8973
16.0012
16.9158
17.6301
0.672522
0.220852
0.524989
0.562385
0.789585
1.14319
1.58965
2.43623
3.62693
5.27038
7.32094
9.73355
12.3932
15.2615
18.2481
21.2902
24.2755
27.0956
29.6487
31.868
33.7222
35.2336
36.4219
0.682309
0.244879
0.542135
0.582002
0.815124
1.16542
1.62057
2.46429
3.65474
5.29891
7.34822
9.7759
12.466
15.3918
18.4675
21.6345
24.7848
27.8082
30.598
33.0736
35.1905
36.9527
38.368
0.693857
0.273881
0.56554
0.607128
0.847736
1.19483
1.65741
2.49382
3.67787
5.31259
7.34965
9.77632
12.4803
15.443
18.5853
21.8508
25.1368
28.3318
31.3264
34.0291
36.3844
38.3778
40.0095
0.706749
0.306904
0.596198
0.639662
0.889957
1.23678
1.70842
2.53745
3.71359
5.33352
7.35156
9.76445
12.4671
15.4462
18.631
21.9664
25.3545
28.6832
31.8418
34.7307
37.2868
39.478
41.3016
0.721313
0.342906
0.634067
0.680779
0.943535
1.29448
1.77883
2.60301
3.77214
5.37545
7.37048
9.76034
12.4486
15.4259
18.6301
22.0074
25.4637
28.887
32.1652
35.1936
37.9035
40.2496
42.2285
0.737674
0.380674
0.677559
0.729433
1.00613
1.36574
1.86667
2.68965
3.85426
5.44133
7.41217
9.77289
12.4366
15.3965
18.5989
21.9915
25.4837
28.9634
32.3172
35.4364
38.2498
40.702
42.7918
0.756201
0.418462
0.722511
0.781345
1.07086
1.4418
1.96209
2.78792
3.95196
5.52654
7.47664
9.80834
12.4437
15.3765
18.5606
21.9454
25.4437
28.9435
32.3304
35.4932
38.3595
40.8672
43.0185
0.776954
0.455135
0.76456
0.831894
1.13052
1.51354
2.05483
2.88817
4.0577
5.62768
7.56642
9.87684
12.4879
15.3915
18.5468
21.9051
25.3828
28.8689
32.2486
35.4097
38.2799
40.7938
42.9599
0.799977
0.492268
0.802392
0.880194
1.18309
1.57726
2.13878
2.98203
4.16054
5.7319
7.66744
9.96526
12.559
15.4357
18.5577
21.8773
25.3141
28.7594
32.099
35.2207
38.0531
40.5305
42.6688
0.825316
0.532648
0.836554
0.927151
1.2286
1.63085
2.20858
3.06005
4.24618
5.81972
7.75537
10.0461
12.6284
15.4825
18.5711
21.846
25.2293
28.615
31.89
34.9437
37.7061
40.1131
42.1873
0.853269
0.579145
0.868319
0.974663
1.26939
1.67492
2.26249
3.11723
4.30521
5.87678
7.80997
10.0942
12.6668
15.5012
18.5567
21.7839
25.1056
28.4188
31.6124
34.5785
37.2483
39.5607
41.544
0.884088
0.634608
0.899956
1.02565
1.3107
1.71511
2.30558
3.1568
4.33795
5.8984
7.82087
10.0919
12.6503
15.4619
18.4815
21.6564
24.9092
28.1396
31.2391
34.1038
36.6661
38.8695
40.7444
0.917314
0.700763
0.93329
1.08087
1.35678
1.75723
2.34523
3.18684
4.35213
5.89069
7.79039
10.037
12.5707
15.3511
18.3272
21.4418
24.6165
27.7529
30.7463
33.4975
35.9415
38.0263
39.7832
0.952089
0.777467
0.970671
1.13971
1.40922
1.80432
2.38569
3.21262
4.35397
5.85965
7.72403
9.933
12.4297