/*--------------------------------*- C++ -*----------------------------------*\
  =========                 |
  \\      /  F ield         | OpenFOAM: The Open Source CFD Toolbox
   \\    /   O peration     | Website:  https://openfoam.org
    \\  /    A nd           | Version:  7
     \\/     M anipulation  |
\*---------------------------------------------------------------------------*/
FoamFile
{
    version     2.0;
    format      ascii;
    class       surfaceScalarField;
    location    "50";
    object      phi;
}
// * * * * * * * * * * * * * * * * * * * * * * * * * * * * * * * * * * * * * //

dimensions      [0 3 -1 0 0 0 0];

internalField   nonuniform List<scalar> 
25449
(
66.8262
53.9755
-30.2018
49.5823
40.0528
-22.8091
36.9624
29.8604
-17.2406
27.6612
22.334
-13.0329
20.7665
16.749
-9.85428
15.6317
12.5918
-7.45693
11.7929
9.4901
-5.65132
8.91412
7.17144
-4.29269
6.74986
5.435
-3.27073
5.11954
4.13185
-2.50154
3.88972
3.15135
-1.92152
2.96122
2.41123
-1.48274
2.26006
1.85047
-1.14931
1.73074
1.42385
-0.894529
1.33146
1.09791
-0.698626
1.03061
0.847828
-0.546978
0.804221
0.655198
-0.428811
0.634095
0.506309
-0.336183
0.506404
0.390926
-0.263235
0.410654
0.301379
-0.205628
0.338895
0.231862
-0.160104
0.285114
0.177988
-0.124206
0.136229
-0.0959371
0.244822
51.4408
71.9071
38.3299
53.1635
28.6752
39.515
21.5262
29.483
16.2073
22.0679
12.2342
16.5649
9.25653
12.4678
7.01849
9.40948
5.33229
7.12118
4.05943
5.40471
3.09731
4.11347
2.3696
3.13893
1.81927
2.4008
1.40342
1.8397
1.08963
1.4117
0.853276
1.08418
0.675592
0.832881
0.542268
0.639633
0.442397
0.490797
0.367678
0.376098
0.31182
0.28772
0.270059
0.219749
0.167437
0.238851
38.6636
84.9736
28.9901
62.8368
21.7997
46.7053
16.4374
34.8452
12.4254
26.0798
9.41519
19.5751
7.1509
14.7321
5.44359
11.1168
4.15342
8.41135
3.17673
6.3814
2.43653
4.85368
1.87541
3.70005
1.45031
2.8259
1.12874
2.16128
0.885996
1.65444
0.703211
1.26697
0.565917
0.970175
0.46303
0.74252
0.386075
0.567752
0.328595
0.433578
0.285693
0.330622
0.253665
0.251776
0.191342
0.229759
28.6973
94.1942
21.7268
69.807
16.4655
51.9666
12.4964
38.8143
9.50005
29.0761
7.23633
21.8388
5.52405
16.4444
4.22682
12.414
3.2423
9.39587
2.49403
7.12966
1.9249
5.4228
1.49214
4.1328
1.16352
3.15452
0.914542
2.41025
0.726467
1.84251
0.584846
1.40859
0.478523
1.0765
0.398904
0.822139
0.339398
0.627257
0.294982
0.477993
0.261847
0.363757
0.237118
0.276505
0.209804
0.218657
21.1966
100.459
16.2872
74.7162
12.4858
55.7679
9.56442
41.7357
7.32797
31.3126
5.6205
23.5462
4.31832
17.7465
3.32506
13.4072
2.56668
10.1542
1.98717
7.70918
1.54425
5.86572
1.20611
4.47095
0.9485
3.41213
0.752885
2.60587
0.604921
1.99048
0.493437
1.52007
0.409723
1.16021
0.347027
0.884835
0.300156
0.674128
0.26515
0.512998
0.239012
0.389895
0.219484
0.296032
0.224404
0.204883
15.6788
104.488
12.3127
78.082
9.59339
58.4872
7.44182
43.8873
5.75962
32.9948
4.45574
24.8501
3.44988
18.7524
2.67558
14.1815
2.07968
10.7501
1.62115
8.1677
1.26853
6.21833
0.997913
4.74156
0.790858
3.61918
0.633121
2.7636
0.513545
2.11005
0.423319
1.6103
0.355491
1.22804
0.304626
0.935699
0.266535
0.712218
0.238023
0.541509
0.216678
0.41124
0.200692
0.312018
0.236393
0.188703
11.6876
106.838
9.46382
80.3056
7.53462
60.4164
5.93867
45.4832
4.65261
34.2808
3.63511
25.8676
2.83834
19.5491
2.21795
14.8019
1.73593
11.2322
1.362
8.54163
1.07234
6.50799
0.848664
4.96524
0.676595
3.79125
0.544937
2.89526
0.444795
2.21019
0.369035
1.68606
0.311948
1.28512
0.269024
0.978622
0.236775
0.744466
0.212544
0.56574
0.194327
0.429457
0.180628
0.325717
0.246711
0.170309
8.83725
107.935
7.45288
81.6898
6.09487
61.7743
4.89461
46.6835
3.88718
35.2883
3.06922
26.6856
2.41701
20.2013
1.90239
15.3165
1.49815
11.6364
1.1817
8.85807
0.934573
6.75511
0.742448
5.15735
0.593764
3.93992
0.479441
3.00957
0.392146
2.29748
0.32589
1.75231
0.275802
1.33521
0.237989
1.01643
0.209443
0.773012
0.187868
0.587314
0.171554
0.44577
0.159207
0.338064
0.256052
0.149865
6.33908
110.087
4.75259
83.2761
3.58401
62.9429
2.72029
47.5472
2.07768
35.9309
1.59846
27.1648
1.2387
20.5611
0.966682
15.5885
0.759053
11.844
0.599508
9.01762
0.476279
6.87834
0.381117
5.25252
0.307751
4.01329
0.251505
3.06582
0.208694
2.34029
0.176326
1.78468
0.151961
1.35958
0.133635
1.03476
0.119831
0.786815
0.109399
0.597744
0.101493
0.453675
0.0954956
0.344061
0.260635
0.0909115
4.34608
111.572
3.25671
84.3653
2.45925
63.7403
1.87274
48.1337
1.43803
36.3656
1.1151
27.4877
0.87298
20.8032
0.689701
15.7718
0.549081
11.9846
0.440233
9.12646
0.355382
6.96317
0.289291
5.31859
0.237904
4.06466
0.198237
3.10547
0.167892
2.37063
0.144867
1.8077
0.12748
1.37696
0.114342
1.04789
0.104378
0.796778
0.0967747
0.605346
0.0909416
0.459508
0.0864585
0.348543
0.264109
0.0829841
2.86559
112.558
2.14681
85.084
1.62514
64.262
1.244
48.5148
0.963122
36.6465
0.755659
27.6952
0.600385
20.9585
0.482564
15.8896
0.391349
12.0758
0.319873
9.19794
0.263307
7.01974
0.218635
5.36327
0.183422
4.09987
0.155929
3.13297
0.13471
2.39185
0.118499
1.82391
0.106177
1.38928
0.0967849
1.05728
0.0895735
0.803987
0.0839838
0.610934
0.0796131
0.463877
0.0761952
0.351961
0.266809
0.0734947
1.77797
113.175
1.33259
85.5293
1.01339
64.5812
0.782476
48.7457
0.613944
36.815
0.490664
27.8185
0.398651
21.0505
0.328499
15.9598
0.273261
12.131
0.228995
9.2422
0.193011
7.05571
0.163904
5.39236
0.140411
4.12335
0.121696
3.15167
0.107019
2.40652
0.0956613
1.83526
0.0869241
1.39801
0.0801671
1.06404
0.074878
0.809274
0.070683
0.615127
0.0673162
0.467243
0.0646202
0.354656
0.268989
0.0624397
0.989582
113.52
0.743249
85.7756
0.57042
64.754
0.447629
48.8685
0.359754
36.9029
0.296781
27.8815
0.250052
21.0972
0.214015
15.9958
0.18453
12.1605
0.159741
9.26699
0.138474
7.07699
0.120473
5.41037
0.105302
4.13852
0.0927799
3.16419
0.0826803
2.41662
0.0746899
1.84325
0.0684246
1.40428
0.0634777
1.06898
0.0595049
0.813245
0.0562623
0.618367
0.0535782
0.469925
0.0513688
0.356864
0.270821
0.049535
0.428742
113.672
0.324795
85.8794
0.255634
64.8231
0.209006
48.9152
0.177735
36.9341
0.15697
27.9022
0.141907
21.1123
0.129718
16.008
0.118236
12.172
0.10705
9.27817
0.0960387
7.08798
0.0857432
5.42065
0.0762991
4.14795
0.0679866
3.17249
0.060953
2.42364
0.0551871
1.84901
0.0505389
1.40892
0.0467727
1.07274
0.043658
0.816356
0.0410362
0.620987
0.0387967
0.472163
0.0369024
0.358758
0.272432
0.0352907
0.0363804
113.685
0.0327623
85.883
0.0355627
64.8203
0.0414064
48.9093
0.0489011
36.9266
0.0569258
27.8942
0.0634431
21.1058
0.0675125
16.0039
0.0683221
12.1712
0.0664212
9.28008
0.0623923
7.09202
0.0573099
5.42574
0.0516893
4.15358
0.046129
3.17806
0.0410476
2.42873
0.0366619
1.8534
0.0329995
1.41258
0.0299531
1.07579
0.0273671
0.818939
0.0251332
0.623218
0.0231781
0.474117
0.0214855
0.360448
0.273899
0.0200171
-0.228331
113.603
-0.163592
85.8182
-0.112842
64.7696
-0.0724406
48.8689
-0.0396496
36.8939
-0.012936
27.8675
0.00757356
21.0853
0.022181
15.9893
0.0309604
12.1624
0.035063
9.27597
0.0355172
7.09155
0.0337395
5.4275
0.0304823
4.15682
0.026556
3.18197
0.0225747
2.4327
0.0189288
1.85703
0.0157818
1.41572
0.0131235
1.07844
0.0108436
0.821216
0.00885719
0.625201
0.0071034
0.475869
0.00557585
0.361975
0.275244
0.00422797
-0.400153
113.456
-0.290464
85.7085
-0.20917
64.6883
-0.147195
48.8069
-0.0988676
36.8455
-0.0607786
27.8294
-0.0317624
21.0562
-0.0107359
15.9683
0.00291206
12.1487
0.0106624
9.26823
0.0138063
7.08842
0.0139642
5.42735
0.0120199
4.15877
0.00891702
3.18508
0.00541205
2.4362
0.00203427
1.86041
-0.000942838
1.4187
-0.00345158
1.08095
-0.00558045
0.823342
-0.00741499
0.627034
-0.00902335
0.477476
-0.0104153
0.363366
0.276478
-0.0116509
-0.502847
113.269
-0.365665
85.5713
-0.266739
64.5893
-0.19282
48.733
-0.136185
36.7889
-0.0921299
27.7853
-0.0586614
21.0228
-0.0342598
15.9439
-0.0180284
12.1325
-0.00835915
9.25856
-0.00383925
7.08388
-0.00274909
5.42624
-0.00415023
4.16015
-0.00702585
3.18794
-0.0105162
2.43968
-0.0139773
1.86386
-0.0170424
1.42176
-0.0195763
1.08348
-0.0216536
0.825415
-0.0233811
0.628758
-0.0248457
0.47894
-0.0260812
0.3646
0.277558
-0.0271625
-0.555979
113.057
-0.40385
85.4191
-0.296507
64.482
-0.217509
48.654
-0.157704
36.7291
-0.111514
27.7391
-0.0764567
20.9877
-0.050826
15.9183
-0.0336236
12.1153
-0.0232585
9.2482
-0.0182934
7.07893
-0.016982
5.42495
-0.0183883
4.16157
-0.0214679
3.19102
-0.0252849
2.4435
-0.0290924
1.86767
-0.0324336
1.42511
-0.0351103
1.08616
-0.0371834
0.827486
-0.0387979
0.630371
-0.0400744
0.480215
-0.0410997
0.365625
0.278419
-0.0419621
-0.573784
112.832
-0.415683
85.261
-0.306475
64.3728
-0.227275
48.5748
-0.167942
36.6698
-0.122325
27.6935
-0.0876956
20.9531
-0.0623382
15.8929
-0.0452867
12.0982
-0.035076
9.23799
-0.0303139
7.07416
-0.0292754
5.42389
-0.0310704
4.16335
-0.0346631
3.1946
-0.0390612
2.44788
-0.0434205
1.87202
-0.0471875
1.42887
-0.0500983
1.08906
-0.0521943
0.829577
-0.0536656
0.631838
-0.0546887
0.481239
-0.0554315
0.366366
0.278975
-0.0559896
-0.56944
112.602
-0.411069
85.1026
-0.304095
64.2658
-0.227724
48.4984
-0.1711
36.6131
-0.127701
27.6501
-0.0947123
20.9201
-0.0705335
15.8687
-0.0543169
12.082
-0.0447873
9.22847
-0.0406343
7.07002
-0.0401761
5.42345
-0.0425991
4.16578
-0.0469042
3.19891
-0.0520571
2.45304
-0.0571192
1.87709
-0.061428
1.43318
-0.0646455
1.09228
-0.0667785
0.831707
-0.0680619
0.633123
-0.068766
0.48194
-0.0691514
0.366753
0.279151
-0.0693313
-0.547106
112.372
-0.393067
84.9485
-0.291686
64.1644
-0.220665
48.4274
-0.168638
36.5611
-0.12885
27.6103
-0.0985156
20.8898
-0.0762441
15.8465
-0.0613686
12.0671
-0.0528871
9.21998
-0.0496199
7.06674
-0.0499498
5.42376
-0.0531614
4.16898
-0.0583197
3.20405
-0.0643675
2.45907
-0.0702798
1.88299
-0.0752684
1.43816
-0.0789029
1.09591
-0.0811264
0.833925
-0.0822239
0.634216
-0.0825945
0.482314
-0.0825977
0.36675
0.278891
-0.0823365
-0.512012
112.148
-0.365629
84.8022
-0.272139
64.0709
-0.208095
48.3634
-0.161825
36.5148
-0.126515
27.575
-0.0995328
20.8628
-0.0797428
15.8267
-0.0666851
12.0541
-0.0596424
9.21295
-0.0575476
7.06466
-0.0588507
5.42508
-0.0629816
4.17312
-0.0691154
3.2102
-0.076191
2.46616
-0.0831092
1.88991
-0.088942
1.444
-0.0931452
1.10011
-0.0955856
0.836363
-0.0965843
0.635216
-0.0966512
0.48238
-0.0961896
0.366286
0.278044
-0.0953471
-0.640437
111.957
-0.497261
84.6589
-0.392387
63.966
-0.313474
48.2845
-0.253402
36.4548
-0.206952
27.5286
-0.170761
20.8266
-0.142904
15.7988
-0.122101
12.0333
-0.107503
9.19835
-0.0982537
7.0554
-0.0933662
5.42018
-0.0924022
4.17214
-0.0947128
3.21249
-0.0993369
2.47076
-0.105061
1.89562
-0.110553
1.44948
-0.114802
1.10435
-0.11729
0.838845
-0.118095
0.63602
-0.117689
0.481972
-0.116596
0.36519
0.276607
-0.115164
-0.622948
111.777
-0.487393
84.5234
-0.388026
63.8667
-0.313127
48.2095
-0.255993
36.3976
-0.211669
27.4842
-0.176978
20.7919
-0.150163
15.772
-0.130039
12.0131
-0.115883
9.18421
-0.106908
7.04644
-0.102167
5.41545
-0.101279
4.17127
-0.103677
3.21491
-0.108493
2.47559
-0.114602
1.90174
-0.120606
1.45549
-0.125387
1.10913
-0.128337
0.841791
-0.129443
0.63713
-0.129235
0.481762
-0.128348
0.364301
0.27544
-0.127187
-0.605779
111.607
-0.477396
84.395
-0.383195
63.7725
-0.312055
48.1384
-0.257665
36.3432
-0.215327
27.4419
-0.182034
20.7586
-0.156188
15.7462
-0.136688
11.9936
-0.122927
9.17044
-0.114181
7.03769
-0.10953
5.41079
-0.108655
4.17038
-0.111075
3.21731
-0.116035
2.48053
-0.122549
1.90824
-0.129199
1.46213
-0.134821
1.11475
-0.13873
0.845694
-0.140831
0.639228
-0.141611
0.48254
-0.141508
0.364196
0.274583
-0.140658
-0.588976
111.447
-0.467374
84.2734
-0.378047
63.6831
-0.310451
48.0708
-0.258649
36.2914
-0.218181
27.4014
-0.1862
20.7266
-0.161257
15.7212
-0.142325
11.9747
-0.12891
9.15704
-0.120347
7.02914
-0.11573
5.40619
-0.114805
4.16947
-0.117177
3.2197
-0.122222
2.48559
-0.129135
1.91516
-0.136567
1.46957
-0.143366
1.12154
-0.148765
0.851087
-0.152503
0.642971
-0.154635
0.48467
-0.155014
0.364573
0.27333
-0.153768
-0.572565
111.295
-0.457398
84.1582
-0.372685
63.5984
-0.308447
48.0066
-0.259093
36.2421
-0.220396
27.3627
-0.189653
20.6959
-0.165552
15.6971
-0.147142
11.9563
-0.134027
9.14392
-0.125604
7.02071
-0.120965
5.40154
-0.119926
4.16842
-0.122172
3.22193
-0.12722
2.49062
-0.134485
1.92241
-0.142792
1.47786
-0.151046
1.12979
-0.158401
0.858437
-0.164256
0.648822
-0.167888
0.4883
-0.168936
0.365619
0.27274
-0.168353
-0.556566
111.152
-0.447516
84.0492
-0.367186
63.5181
-0.306136
47.9455
-0.259109
36.195
-0.222094
27.3257
-0.192523
20.6663
-0.169212
15.6738
-0.15128
11.9383
-0.138421
9.13108
-0.130099
7.01241
-0.125384
5.39684
-0.124165
4.16722
-0.126198
3.22398
-0.131146
2.49559
-0.138668
1.92995
-0.147843
1.48705
-0.157692
1.13964
-0.167324
0.868062
-0.17571
0.657214
-0.181739
0.494327
-0.185666
0.369545
0.276229
-0.189162
-0.540985
111.017
-0.437764
83.9459
-0.361604
63.4419
-0.303589
47.8875
-0.258777
36.1502
-0.223363
27.2903
-0.194904
20.6378
-0.172335
15.6512
-0.154844
11.9208
-0.142203
9.11843
-0.133944
7.00415
-0.129103
5.39199
-0.127637
4.16575
-0.12936
3.22569
-0.134082
2.50029
-0.141703
1.93755
-0.151604
1.49693
-0.162988
1.15101
-0.174947
0.880017
-0.186241
0.668503
-0.195999
0.504084
-0.205089
0.378633
0.285615
-0.214481
-0.525827
110.89
-0.428169
83.8483
-0.355983
63.3697
-0.300862
47.8324
-0.258163
36.1075
-0.224277
27.2564
-0.196876
20.6104
-0.175006
15.6294
-0.157919
11.9038
-0.145459
9.10599
-0.137232
6.99594
-0.132214
5.38699
-0.130435
4.16399
-0.131745
3.22702
-0.136092
2.50466
-0.143589
1.94506
-0.153928
1.50728
-0.166513
1.1636
-0.180435
0.893935
-0.194514
0.682588
-0.208259
0.517826
-0.222117
0.39249
0.298859
-0.235367
-0.511092
110.771
-0.418749
83.7559
-0.350358
63.3013
-0.297999
47.78
-0.257319
36.0669
-0.224892
27.224
-0.198501
20.5841
-0.177288
15.6082
-0.160575
11.887
-0.148263
9.09367
-0.140037
6.98771
-0.134795
5.38174
-0.13264
4.16183
-0.133427
3.22779
-0.137221
2.50844
-0.144312
1.95214
-0.154647
1.5176
-0.167815
1.17675
-0.182887
0.909004
-0.198826
0.69852
-0.215145
0.534143
-0.231156
0.408498
0.312469
-0.244771
-0.496778
110.659
-0.409519
83.6687
-0.344754
63.2366
-0.295038
47.7303
-0.256289
36.0281
-0.225259
27.193
-0.199831
20.5586
-0.17924
15.5876
-0.162871
11.8707
-0.150675
9.08149
-0.142425
6.97947
-0.136913
5.37625
-0.134322
4.15926
-0.13447
3.22796
-0.137514
2.5115
-0.143869
1.95851
-0.153629
1.52737
-0.166508
1.18964
-0.181577
0.92407
-0.19784
0.714789
-0.214422
0.550722
-0.229613
0.423689
0.323883
-0.241031
-0.48288
110.553
-0.400491
83.5862
-0.339194
63.1752
-0.292008
47.6831
-0.255108
35.9912
-0.225418
27.1633
-0.200912
20.5341
-0.180908
15.5676
-0.164858
11.8546
-0.15275
9.06938
-0.144452
6.97118
-0.138629
5.37043
-0.135544
4.15617
-0.134938
3.22735
-0.137016
2.51357
-0.142286
1.96377
-0.150822
1.53589
-0.162422
1.20123
-0.176142
0.937791
-0.190943
0.729582
-0.205579
0.565357
-0.217833
0.435942
0.331909
-0.225861
-0.469395
110.454
-0.391672
83.5085
-0.333698
63.1173
-0.288936
47.6383
-0.25381
35.9561
-0.225406
27.1349
-0.201783
20.5105
-0.182335
15.5481
-0.166581
11.8389
-0.154535
9.05735
-0.14617
6.96283
-0.139995
5.36427
-0.136363
4.15256
-0.134891
3.2259
-0.135788
2.51449
-0.139624
1.96762
-0.146281
1.54256
-0.155644
1.2106
-0.166784
0.948929
-0.178463
0.741267
-0.189413
0.576304
-0.197654
0.444183
0.33637
-0.202117
-0.456315
110.361
-0.38307
83.4353
-0.328281
63.0625
-0.285844
47.5959
-0.252422
35.9227
-0.225253
27.1077
-0.202479
20.4877
-0.183558
15.5292
-0.168078
11.8234
-0.156071
9.04535
-0.147621
6.95438
-0.141057
5.3577
-0.136834
4.14833
-0.134391
3.22345
-0.133904
2.51399
-0.135959
1.96967
-0.140171
1.54676
-0.146452
1.21688
-0.153982
0.956462
-0.16145
0.748727
-0.167747
0.582599
-0.171656
0.44809
0.337502
-0.172787
-0.443637
110.275
-0.374689
83.3663
-0.322956
63.0108
-0.282753
47.5557
-0.250967
35.8909
-0.224988
27.0817
-0.20303
20.4658
-0.184611
15.5108
-0.169387
11.8081
-0.157397
9.03337
-0.148847
6.94584
-0.14186
5.35074
-0.137007
4.1435
-0.133503
3.21997
-0.131457
2.51197
-0.131393
1.96962
-0.132788
1.54817
-0.135393
1.2195
-0.138563
0.959632
-0.141261
0.751428
-0.142724
0.58406
-0.142468
0.447835
0.335715
-0.14068
-0.431351
110.194
-0.366533
83.3015
-0.317737
62.9619
-0.27968
47.5176
-0.24947
35.8607
-0.224637
27.0569
-0.203465
20.4446
-0.185524
15.4929
-0.170538
11.7932
-0.158545
9.02138
-0.149885
6.93719
-0.142442
5.34329
-0.136931
4.138
-0.13229
3.21533
-0.128561
2.50824
-0.126061
1.96712
-0.1244
1.5465
-0.123144
1.21824
-0.121674
0.958168
-0.119438
0.749183
-0.116299
0.580921
-0.112334
0.443869
0.331541
-0.108156
-0.419452
110.118
-0.358607
83.2407
-0.312633
62.916
-0.276641
47.4816
-0.247949
35.832
-0.224222
27.0332
-0.203809
20.4242
-0.186324
15.4754
-0.171562
11.7784
-0.159547
9.00937
-0.15077
6.92843
-0.142843
5.33538
-0.136658
4.13184
-0.130809
3.20951
-0.125346
2.5028
-0.120196
1.96199
-0.115323
1.54164
-0.110162
1.2131
-0.104168
0.952178
-0.0973574
0.742373
-0.0901904
0.573753
-0.0831226
0.436803
0.325438
-0.0770132
-0.407934
110.048
-0.350913
83.1836
-0.307655
62.8727
-0.273653
47.4476
-0.246425
35.8047
-0.223766
27.0105
-0.204086
20.4045
-0.187036
15.4583
-0.172485
11.7638
-0.160433
8.99733
-0.151532
6.91953
-0.143095
5.32695
-0.136234
4.12498
-0.129113
3.20239
-0.121932
2.49563
-0.114051
1.9541
-0.105913
1.5335
-0.0970265
1.20421
-0.0868307
0.941989
-0.0760156
0.73155
-0.0654567
0.563194
-0.0558388
0.427186
0.317614
-0.048008
-0.396788
109.983
-0.343453
83.1303
-0.302812
62.8321
-0.270728
47.4155
-0.244913
35.7789
-0.223288
26.9889
-0.204318
20.3855
-0.187686
15.4417
-0.173333
11.7495
-0.161229
8.98523
-0.152202
6.91052
-0.143232
5.318
-0.135714
4.11749
-0.12726
3.19396
-0.118419
2.48681
-0.107871
1.94357
-0.096571
1.52221
-0.0842289
1.19189
-0.0704033
0.928169
-0.0563033
0.71745
-0.0429665
0.549857
-0.0312332
0.415455
0.308171
-0.0217821
-0.386009
109.924
-0.336228
83.0805
-0.298113
62.7939
-0.26788
47.3853
-0.243432
35.7545
-0.222808
26.9683
-0.204527
20.3673
-0.188296
15.4255
-0.174131
11.7353
-0.161961
8.97307
-0.152808
6.90137
-0.143287
5.30848
-0.13515
4.10936
-0.125303
3.18412
-0.114856
2.47637
-0.101832
1.93055
-0.0877619
1.50814
-0.0722041
1.17634
-0.0553819
0.911356
-0.0388152
0.700877
-0.0235173
0.53456
-0.010412
0.402353
0.297653
0.000116911
-0.37559
109.868
-0.329243
83.0341
-0.293564
62.7583
-0.265121
47.3568
-0.241996
35.7313
-0.222344
26.9486
-0.204733
20.3496
-0.188887
15.4096
-0.174902
11.7213
-0.162654
8.96083
-0.153378
6.89211
-0.143292
5.29841
-0.134592
4.10068
-0.123304
3.17286
-0.111317
2.46441
-0.0960603
1.91531
-0.0796982
1.49178
-0.0613013
1.15795
-0.042203
0.892265
-0.0239795
0.682652
-0.0074485
0.51803
0.00640916
0.388499
0.28677
0.0173024
-0.365523
109.818
-0.322496
82.9911
-0.289174
62.7249
-0.262463
47.3301
-0.240621
35.7095
-0.221912
26.9299
-0.204953
20.3327
-0.189479
15.3942
-0.175666
11.7075
-0.163331
8.9485
-0.153939
6.88272
-0.143273
5.28775
-0.134079
4.0915
-0.12133
3.16012
-0.107949
2.45104
-0.090822
1.89819
-0.0724059
1.47337
-0.0517159
1.13728
-0.0309516
0.871511
-0.0118457
0.663541
0.00523568
0.50095
0.0193743
0.374364
0.275888
0.0302678
-0.355804
109.772
-0.31599
82.9513
-0.28495
62.6939
-0.259917
47.3051
-0.239321
35.6889
-0.221531
26.9121
-0.205207
20.3164
-0.190094
15.3791
-0.176446
11.6939
-0.164017
8.93608
-0.154515
6.87323
-0.143259
5.27651
-0.133652
4.08191
-0.119462
3.14595
-0.104885
2.43648
-0.0862749
1.87959
-0.065814
1.45291
-0.0434496
1.11493
-0.0215387
0.849609
-0.00188545
0.643885
0.0151707
0.483896
0.0290386
0.3605
0.265347
0.0395917
-0.346426
109.73
-0.309726
82.9146
-0.280899
62.665
-0.257494
47.2817
-0.238109
35.6695
-0.221214
26.8952
-0.205512
20.3007
-0.190748
15.3643
-0.17726
11.6804
-0.164729
8.92356
-0.155126
6.86364
-0.143282
5.26468
-0.133345
4.07199
-0.117738
3.13036
-0.102235
2.421
-0.082439
1.8598
-0.0599381
1.43042
-0.0364237
1.09143
-0.0139202
0.827117
0.00602506
0.623936
0.0227116
0.467211
0.0360659
0.347149
0.25529
0.0461363
-0.337382
109.693
-0.303706
82.8809
-0.277026
62.6384
-0.255205
47.2599
-0.237
35.6513
-0.220979
26.8792
-0.205887
20.2856
-0.191463
15.3499
-0.178131
11.667
-0.165493
8.91092
-0.155797
6.85395
-0.143379
5.25227
-0.133185
4.06181
-0.116234
3.11343
-0.100209
2.40499
-0.0792945
1.8389
-0.0550328
1.40616
-0.03072
1.06713
-0.00809651
0.804504
0.0118081
0.604026
0.0281229
0.4509
0.0409932
0.334282
0.245723
0.0505727
-0.328668
109.66
-0.29793
82.8501
-0.273338
62.6137
-0.253056
47.2396
-0.235998
35.6343
-0.220828
26.864
-0.206331
20.2711
-0.192241
15.3358
-0.17906
11.6539
-0.166317
8.89819
-0.156545
6.84419
-0.143571
5.23931
-0.133106
4.05136
-0.115022
3.09536
-0.0989811
2.38897
-0.0767233
1.81665
-0.0510959
1.38054
-0.0261579
1.04221
-0.00359698
0.781953
0.0162213
0.584214
0.0322258
0.43489
0.0445666
0.321949
0.236584
0.0537115
-0.309321
109.616
-0.274691
82.8155
-0.249365
62.5884
-0.229895
47.2201
-0.214325
35.6187
-0.200909
26.8506
-0.188239
20.2584
-0.175843
15.3234
-0.164117
11.6421
-0.152671
8.88675
-0.143698
6.83522
-0.131632
5.22725
-0.121641
4.04138
-0.104808
3.07854
-0.0902633
2.37444
-0.0687362
1.79513
-0.0448102
1.35662
-0.0218729
1.01929
-0.00149915
0.761594
0.0165481
0.566155
0.0310122
0.420444
0.0418897
0.311052
0.228444
0.0500541
-0.246048
109.581
-0.218789
82.7882
-0.198884
62.5685
-0.183603
47.2048
-0.171392
35.6065
-0.160861
26.8401
-0.15088
20.2484
-0.141003
15.3135
-0.131548
11.6327
-0.122394
8.87761
-0.114848
6.82769
-0.105145
5.21756
-0.0964844
4.03274
-0.0835094
3.06559
-0.071584
2.36253
-0.0541666
1.77773
-0.0355873
1.33805
-0.0178892
1.00161
-0.00217531
0.745892
0.0118648
0.552129
0.0230638
0.409233
0.031429
0.302698
0.222168
0.0376956
-0.195687
109.554
-0.174215
82.7668
-0.158558
62.5529
-0.146557
47.1928
-0.136979
35.5969
-0.128717
26.8318
-0.12086
20.2406
-0.113009
15.3057
-0.105411
11.6251
-0.0981035
8.8703
-0.0917937
6.82138
-0.0840625
5.20983
-0.0765772
4.02526
-0.0667653
3.05578
-0.0567899
2.35256
-0.0430009
1.76394
-0.0285766
1.32362
-0.0149703
0.988018
-0.00276139
0.733692
0.00818249
0.541186
0.0169295
0.400493
0.0233918
0.296229
0.217399
0.0281659
-0.155588
109.533
-0.138647
82.7498
-0.126309
62.5405
-0.116868
47.1834
-0.109345
35.5894
-0.102859
26.8253
-0.0966777
20.2344
-0.0904492
15.2995
-0.0843619
11.619
-0.0785396
8.86449
-0.0732996
6.81615
-0.0671894
5.20373
-0.0607718
4.01886
-0.0533496
3.04838
-0.0450072
2.34424
-0.0342677
1.75322
-0.0230611
1.31242
-0.012577
0.977553
-0.00304808
0.724176
0.00542905
0.532722
0.0122695
0.393649
0.017353
0.29115
0.213801
0.0209517
-0.123675
109.516
-0.110291
82.7364
-0.100553
62.5308
-0.093115
47.1759
-0.087199
35.5835
-0.0821055
26.8202
-0.0772427
20.2295
-0.0723106
15.2945
-0.0674455
11.6141
-0.0628143
8.85986
-0.0584914
6.81183
-0.0536853
5.19893
-0.0482564
4.01344
-0.0425344
3.04266
-0.0356672
2.33737
-0.0273984
1.74495
-0.0187141
1.30372
-0.0106007
0.969448
-0.00316333
0.716742
0.0033286
0.526232
0.00865292
0.388332
0.0127248
0.287074
0.211051
0.015477
-0.0982435
109.502
-0.0876229
82.7258
-0.0799015
62.523
-0.0740142
47.17
-0.0693429
35.5788
-0.0653307
26.8162
-0.0615012
20.2257
-0.0576008
15.2906
-0.0537236
11.6102
-0.0500473
8.85619
-0.0465085
6.8083
-0.0427443
5.19518
-0.0382332
4.00895
-0.0337195
3.03816
-0.0281878
2.33186
-0.0218824
1.73866
-0.0152077
1.29706
-0.00893185
0.96319
-0.00316814
0.71099
0.00173122
0.521345
0.00578959
0.384272
0.00905642
0.283813
0.208875
0.0112315
-0.0782273
109.492
-0.0699424
82.7175
-0.0639295
62.517
-0.0593543
47.1654
-0.05573
35.5752
-0.0526157
26.8131
-0.0496278
20.2227
-0.0465552
15.2876
-0.0434635
11.6071
-0.0405283
8.85326
-0.0376229
6.80539
-0.0346296
5.19218
-0.0308934
4.00521
-0.0272148
3.03449
-0.0227371
2.32738
-0.0178312
1.73376
-0.0126047
1.29182
-0.00765089
0.958242
-0.00310764
0.706448
0.000677439
0.517562
0.00382571
0.381131
0.00647296
0.281162
0.207086
0.00826508
-0.0619497
109.483
-0.0552326
82.7108
-0.050354
62.5121
-0.0466482
47.1618
-0.043724
35.5722
-0.041229
26.8106
-0.0388544
20.2203
-0.0364239
15.2851
-0.033976
11.6047
-0.0316625
8.85095
-0.0293307
6.80307
-0.0270081
5.18987
-0.0240312
4.00225
-0.0210774
3.03155
-0.0176508
2.32397
-0.0139937
1.73012
-0.0100589
1.28789
-0.00629219
0.954493
-0.00287448
0.703041
-8.50932e-05
0.514784
0.00221653
0.378827
0.00427473
0.279109
0.205576
0.00578404
-0.0525557
109.472
-0.0432792
82.7015
-0.0362805
62.5051
-0.0308678
47.1563
-0.0265917
35.568
-0.0230314
26.807
-0.0197784
20.2171
-0.0165525
15.2819
-0.013303
11.6014
-0.0100794
8.84773
-0.00695353
6.79994
-0.00372497
5.18664
3.62917e-05
3.9985
0.00348366
3.0281
0.00710975
2.32035
0.0105266
1.7267
0.014294
1.28412
0.017804
0.950986
0.0208124
0.70003
0.0231725
0.512423
0.0251984
0.376809
0.0270054
0.277299
0.204349
0.0282344
-0.0551656
109.459
-0.0454372
82.6917
-0.0380999
62.4978
-0.0324326
47.1507
-0.027964
35.5635
-0.0242523
26.8033
-0.0208641
20.2137
-0.0174978
15.2786
-0.0140947
11.598
-0.010693
8.84434
-0.0073762
6.79664
-0.00398829
5.18326
5.20169e-05
3.99447
0.00363009
3.02454
0.0074674
2.31652
0.0110317
1.72315
0.0149133
1.28024
0.0185083
0.947408
0.0216241
0.696923
0.024048
0.51001
0.0261518
0.374703
0.0279718
0.275486
0.203057
0.0292636
-0.0579049
109.447
-0.0477026
82.6816
-0.0400099
62.4901
-0.0340761
47.1447
-0.0294061
35.5588
-0.0255368
26.7995
-0.0220085
20.2101
-0.0184974
15.275
-0.0149344
11.5945
-0.0113476
8.84075
-0.00782879
6.79312
-0.00427958
5.17971
4.15492e-05
3.99015
0.00381289
3.02077
0.00786747
2.31247
0.0115689
1.71945
0.0155627
1.27624
0.0192346
0.943737
0.0224479
0.693706
0.0249137
0.507543
0.0270708
0.372554
0.0288479
0.273706
0.201733
0.0301743
-0.0607803
109.433
-0.0500807
82.6708
-0.0420153
62.482
-0.0358021
47.1385
-0.0309217
35.5539
-0.026888
26.7954
-0.0232145
20.2065
-0.0195538
15.2714
-0.0158245
11.5907
-0.0120459
8.83698
-0.00831487
6.78939
-0.00460398
5.17601
-4.6463e-06
3.98557
0.00400632
3.01678
0.00828801
2.3082
0.0121266
1.71563
0.01622
1.27216
0.0199594
0.940013
0.0232394
0.690433
0.0257076
0.505086
0.0278658
0.370393
0.0295428
0.272035
0.200423
0.0308536
-0.0637982
109.419
-0.0525773
82.6596
-0.0441211
62.4735
-0.0376149
47.132
-0.0325144
35.5488
-0.0283093
26.7912
-0.0244853
20.2026
-0.0206701
15.2676
-0.0167682
11.5868
-0.012791
8.833
-0.00883888
6.78544
-0.00496719
5.17214
-9.35713e-05
3.9807
0.00419177
3.01249
0.00871652
2.30368
0.0127023
1.71164
0.0168681
1.26798
0.0206662
0.936215
0.0239573
0.687136
0.0264031
0.502638
0.0284867
0.368318
0.0300218
0.270497
0.199195
0.0312522
-0.0669665
109.404
-0.0551983
82.6478
-0.046332
62.4647
-0.039519
47.1252
-0.0341881
35.5435
-0.0298046
26.7868
-0.0258244
20.1987
-0.0218499
15.2636
-0.0177689
11.5827
-0.0135862
8.82883
-0.00940515
6.78127
-0.00537446
5.16812
-0.000228608
3.97557
0.00437724
3.0079
0.00915802
2.29891
0.0132955
1.70752
0.0174963
1.26379
0.0213374
0.932388
0.0245763
0.683903
0.0269948
0.500231
0.0289259
0.366384
0.0303082
0.269122
0.198104
0.0313999
-0.0702918
109.389
-0.05795
82.6355
-0.0486536
62.4554
-0.0415188
47.118
-0.0359471
35.5379
-0.0313774
26.7823
-0.0272356
20.1945
-0.0230967
15.2595
-0.0188299
11.5785
-0.0144345
8.82443
-0.0100171
6.77685
-0.00582901
5.16393
-0.000409885
3.97015
0.0045645
3.00292
0.00960272
2.29387
0.0138935
1.70323
0.0180994
1.25958
0.0219591
0.928528
0.0251045
0.68075
0.027472
0.497861
0.0292172
0.364648
0.0304504
0.267886
0.197172
0.0313845
-0.0737828
109.372
-0.0608389
82.6225
-0.0510911
62.4456
-0.0436193
47.1106
-0.0377955
35.5321
-0.0330318
26.7775
-0.0287223
20.1902
-0.0244139
15.2552
-0.0199544
11.574
-0.0153383
8.81983
-0.0106773
6.7722
-0.00633213
5.1596
-0.000634193
3.96447
0.00474013
2.99757
0.0100393
2.28859
0.0144893
1.69879
0.0186762
1.25541
0.0225219
0.924695
0.0255626
0.677715
0.027832
0.495604
0.0294049
0.363072
0.0305023
0.266796
0.196378
0.0312975
-0.0774473
109.355
-0.0638719
82.609
-0.0536506
62.4354
-0.0458254
47.1027
-0.0397378
35.526
-0.0347718
26.7725
-0.0302886
20.1857
-0.025805
15.2507
-0.0211453
11.5693
-0.0163003
8.81498
-0.0113878
6.76728
-0.00688379
5.15509
-0.000895628
3.95848
0.00489721
2.99177
0.0104811
2.283
0.0151084
1.69416
0.0192475
1.25126
0.0230316
0.920909
0.0259684
0.674771
0.0280998
0.49347
0.0295396
0.361642
0.0305147
0.265818
0.195691
0.0312035
-0.081294
109.337
-0.0670561
82.5947
-0.0563381
62.4246
-0.0481424
47.0945
-0.0417789
35.5197
-0.0366018
26.7674
-0.0319382
20.181
-0.0272738
15.246
-0.022406
11.5645
-0.0173227
8.80991
-0.0121506
6.76212
-0.00748343
5.15043
-0.00118752
3.9522
0.00503665
2.98556
0.010929
2.27712
0.0157594
1.68935
0.0198395
1.24719
0.0235124
0.917249
0.02634
0.67195
0.0283247
0.491498
0.0296592
0.360304
0.0305407
0.264944
0.19508
0.0311537
-0.085332
109.318
-0.070399
82.5798
-0.0591602
62.4134
-0.050576
47.0859
-0.0439235
35.513
-0.0385262
26.7619
-0.0336755
20.1762
-0.028824
15.2412
-0.0237397
11.5594
-0.0184084
8.80457
-0.0129675
6.75667
-0.00813048
5.14559
-0.00150431
3.94557
0.00515709
2.9789
0.0113613
2.27092
0.0164009
1.6843
0.0204449
1.24314
0.023987
0.913704
0.0266996
0.669231
0.0285467
0.489648
0.029797
0.359065
0.0306178
0.26412
0.194515
0.0311845
-0.0895714
109.298
-0.073909
82.5641
-0.0621231
62.4016
-0.0531319
47.0769
-0.0461769
35.5061
-0.0405498
26.7563
-0.0355047
20.1711
-0.0304598
15.2361
-0.0251501
11.5541
-0.0195603
8.799
-0.0138408
6.75096
-0.00882506
5.14059
-0.00184282
3.93861
0.00525522
2.97182
0.0117812
2.26441
0.017007
1.67909
0.0210451
1.23912
0.0244629
0.910298
0.0270636
0.666637
0.0287999
0.487925
0.0299796
0.357881
0.0307735
0.263334
0.193976
0.0313138
-0.0940214
109.278
-0.0775941
82.5477
-0.0652346
62.3893
-0.0558163
47.0675
-0.0485446
35.4988
-0.0426775
26.7504
-0.0374305
20.1659
-0.0321853
15.2309
-0.0266408
11.5485
-0.0207817
8.79313
-0.0147732
6.74495
-0.00956845
5.13538
-0.00220268
3.93124
0.00532795
2.96428
0.0122162
2.25751
0.0176016
1.6737
0.0216489
1.23506
0.02495
0.906993
0.0274401
0.664141
0.0290972
0.486265
0.0302343
0.356755
0.0310164
0.262549
0.193454
0.0315403
-0.0986932
109.256
-0.081463
82.5304
-0.0685016
62.3763
-0.0586356
47.0576
-0.0510322
35.4912
-0.0449146
26.7443
-0.0394578
20.1604
-0.034005
15.2254
-0.028216
11.5427
-0.0220762
8.78701
-0.0157675
6.73865
-0.0103633
5.12999
-0.00258615
3.92348
0.00537072
2.95635
0.0126725
2.25023
0.0182078
1.66818
0.0222764
1.231