/*--------------------------------*- C++ -*----------------------------------*\
  =========                 |
  \\      /  F ield         | OpenFOAM: The Open Source CFD Toolbox
   \\    /   O peration     | Website:  https://openfoam.org
    \\  /    A nd           | Version:  7
     \\/     M anipulation  |
\*---------------------------------------------------------------------------*/
FoamFile
{
    version     2.0;
    format      ascii;
    class       volVectorField;
    location    "50";
    object      U;
}
// * * * * * * * * * * * * * * * * * * * * * * * * * * * * * * * * * * * * * //

dimensions      [0 1 -1 0 0 0 0];

internalField   nonuniform List<vector> 
12842
(
(15.1532 3.78063 -5.73931e-18)
(15.1467 3.77293 -1.06815e-18)
(15.1407 3.76815 -2.91375e-19)
(15.1322 3.76368 7.38598e-19)
(15.1222 3.76008 -2.46867e-18)
(15.1114 3.75986 0)
(15.0997 3.76609 0)
(15.0858 3.78225 -3.14328e-20)
(15.0675 3.81206 -1.70138e-19)
(15.0419 3.85904 -3.88443e-20)
(15.0056 3.92612 -3.65397e-19)
(14.9554 4.01537 -9.921e-22)
(14.8883 4.12769 -2.28435e-19)
(14.8027 4.26269 -3.77265e-21)
(14.6983 4.4186 1.59461e-20)
(14.5765 4.59202 2.97555e-20)
(14.4405 4.7779 -7.92031e-21)
(14.2945 4.96978 0)
(14.144 5.1603 5.44064e-21)
(13.9949 5.3422 3.16837e-20)
(13.8527 5.50898 1.01135e-20)
(13.7224 5.6573 -2.71035e-20)
(13.6056 5.78052 2.64338e-20)
(15.1506 3.78249 4.49367e-18)
(15.1417 3.77783 0)
(15.135 3.77449 -3.47999e-18)
(15.126 3.77031 1.64059e-18)
(15.1168 3.7664 1.93895e-18)
(15.1093 3.76558 0)
(15.1037 3.77148 -6.2292e-19)
(15.0991 3.78823 0)
(15.0933 3.82028 7.24295e-19)
(15.0832 3.87172 4.44354e-20)
(15.0645 3.94583 6.43822e-19)
(15.033 4.0446 1.25228e-18)
(14.9847 4.16854 2.22475e-19)
(14.917 4.31655 -5.92009e-19)
(14.8289 4.48594 0)
(14.7213 4.67245 -3.86136e-20)
(14.5969 4.87028 -6.30899e-21)
(14.4601 5.07236 1.08931e-19)
(14.316 5.27089 0)
(14.1707 5.45844 -4.93115e-20)
(14.0298 5.62835 -3.83219e-21)
(13.8988 5.77808 5.24952e-20)
(13.7808 5.89866 -3.12477e-20)
(15.1475 3.78508 0)
(15.1379 3.78345 0)
(15.1302 3.78111 -2.36709e-19)
(15.1201 3.77654 -9.71469e-18)
(15.1112 3.77143 0)
(15.1063 3.76883 0)
(15.106 3.77285 3.69672e-19)
(15.1099 3.78838 -7.01003e-19)
(15.116 3.82071 -3.65021e-19)
(15.1207 3.87468 -7.45905e-19)
(15.1189 3.95399 -1.83602e-18)
(15.1053 4.06068 -1.23726e-18)
(15.075 4.1949 -2.77455e-19)
(15.0243 4.35481 9.44229e-19)
(14.9518 4.53683 0)
(14.858 4.73581 1.20427e-19)
(14.7458 4.94525 -1.54516e-19)
(14.6191 5.15753 -8.92861e-20)
(14.4834 5.36444 -2.54734e-19)
(14.3444 5.55837 1.47014e-19)
(14.208 5.73247 -5.967e-21)
(14.0791 5.8851 0)
(13.9627 6.00458 3.42252e-21)
(15.1442 3.78877 1.17963e-18)
(15.1352 3.78971 -1.76166e-18)
(15.1261 3.78806 4.83867e-18)
(15.1143 3.78277 1.41577e-17)
(15.1054 3.77598 -1.03533e-18)
(15.1023 3.77083 1.49224e-18)
(15.1067 3.77188 4.75406e-19)
(15.1185 3.78478 6.97677e-19)
(15.136 3.81579 2.72879e-18)
(15.155 3.87053 -2.2516e-18)
(15.1696 3.9533 4.5645e-18)
(15.1733 4.06621 -5.41144e-19)
(15.1603 4.20914 7.04727e-19)
(15.1261 4.37957 2.25064e-18)
(15.0688 4.57302 -3.09347e-19)
(14.989 4.78351 3.98863e-19)
(14.8896 5.00384 1.13357e-19)
(14.7747 5.22596 3.38487e-19)
(14.6493 5.44129 -4.11798e-21)
(14.5187 5.64213 2.24149e-19)
(14.389 5.82133 6.00353e-20)
(14.2646 5.97825 9.45987e-20)
(14.152 6.09838 -1.24887e-19)
(15.1412 3.79361 1.0785e-17)
(15.1336 3.79632 0)
(15.1226 3.79526 -6.45699e-19)
(15.1088 3.7892 -5.16288e-18)
(15.0994 3.78053 -6.85008e-19)
(15.0976 3.77235 -3.48715e-18)
(15.1059 3.76961 3.16296e-19)
(15.1251 3.77867 -3.04584e-18)
(15.1534 3.80686 -3.17234e-18)
(15.1862 3.86072 2.72775e-18)
(15.2168 3.94528 -5.20343e-18)
(15.2375 4.0628 -3.97331e-18)
(15.2414 4.213 8.66451e-19)
(15.2235 4.39266 -4.92637e-18)
(15.1816 4.59635 -1.77169e-18)
(15.1164 4.81722 1.13844e-18)
(15.0308 5.04745 0)
(14.9288 5.27866 -3.43153e-19)
(14.8153 5.50205 0)
(14.6949 5.70998 1.20743e-19)
(14.5737 5.89498 1.40735e-19)
(14.4555 6.0574 -1.22224e-19)
(14.3485 6.17979 -3.17449e-20)
(15.1389 3.79941 -9.36919e-18)
(15.1327 3.80304 0)
(15.1197 3.80255 0)
(15.1035 3.7958 -7.30754e-18)
(15.0933 3.78524 3.66466e-18)
(15.0922 3.77375 1.87739e-18)
(15.1038 3.76659 -1.31798e-18)
(15.1296 3.77076 3.31076e-18)
(15.1683 3.79475 0)
(15.2145 3.84611 4.00972e-18)
(15.2607 3.93077 4.8086e-18)
(15.298 4.05124 2.01983e-18)
(15.3188 4.2072 0)
(15.3172 4.39475 2.66835e-18)
(15.2908 4.60743 1.51346e-18)
(15.2405 4.83746 -8.18446e-19)
(15.1695 5.07643 -2.03594e-19)
(15.0818 5.31578 1.43239e-18)
(14.9815 5.54671 0)
(14.873 5.76179 -6.08392e-19)
(14.762 5.9532 2.16975e-19)
(14.6519 6.12224 6.94859e-19)
(14.5522 6.24825 -1.52659e-19)
(15.1371 3.8058 8.63967e-19)
(15.1321 3.80967 0)
(15.1173 3.80981 0)
(15.0986 3.80257 7.29378e-18)
(15.0872 3.79033 -3.99909e-18)
(15.086 3.77552 -2.57897e-20)
(15.0996 3.76355 7.1291e-19)
(15.1307 3.76189 3.82977e-19)
(15.1784 3.78031 -5.02824e-19)
(15.2369 3.82745 -4.59814e-18)
(15.2982 3.9104 -5.82352e-19)
(15.3521 4.03201 4.17982e-18)
(15.3902 4.19207 0)
(15.4056 4.38603 -3.43031e-18)
(15.3953 4.60637 2.75845e-19)
(15.3604 4.84431 -3.56497e-19)
(15.3045 5.09082 1.03847e-18)
(15.2315 5.33735 -8.35236e-19)
(15.1454 5.57523 -1.14121e-18)
(15.0499 5.79743 -2.77083e-19)
(14.9509 5.99564 4.42033e-20)
(14.8505 6.17219 -4.25805e-19)
(14.7599 6.30285 -2.79758e-19)
(15.1362 3.81252 0)
(15.1319 3.81612 5.01829e-19)
(15.1154 3.81689 -5.78161e-18)
(15.0943 3.80922 -3.91482e-20)
(15.0818 3.79534 3.78882e-18)
(15.0804 3.77706 -2.02245e-19)
(15.0965 3.75991 1.19199e-19)
(15.1331 3.75175 -2.55875e-18)
(15.19 3.76371 0)
(15.2603 3.80545 -5.99756e-18)
(15.3356 3.88536 5.15018e-19)
(15.4045 4.00655 3.09164e-19)
(15.4587 4.16916 0)
(15.4902 4.36806 3.38179e-18)
(15.4961 4.59456 -2.5441e-18)
(15.4776 4.83877 0)
(15.4382 5.09117 -1.02935e-18)
(15.3819 5.34344 0)
(15.3122 5.58729 9.39817e-19)
(15.2321 5.8164 0)
(15.1469 6.02174 -4.53008e-19)
(15.0583 6.20696 2.75993e-19)
(14.9777 6.34328 3.84013e-19)
(15.1354 3.81957 0)
(15.132 3.82207 0)
(15.1138 3.82363 -9.56012e-20)
(15.0897 3.81637 2.25582e-19)
(15.0745 3.80216 -4.60494e-18)
(15.0699 3.78211 -1.22149e-18)
(15.0843 3.76121 0)
(15.1221 3.74723 2.45521e-18)
(15.1844 3.75224 0)
(15.2647 3.78703 1.22925e-17)
(15.3538 3.86161 4.98648e-18)
(15.4385 3.97992 -3.58753e-18)
(15.509 4.14284 -3.44597e-19)
(15.5556 4.34504 0)
(15.5743 4.57692 2.68393e-18)
(15.5665 4.82744 1.97986e-18)
(15.5372 5.08586 -1.71213e-19)
(15.4918 5.34354 1.2943e-18)
(15.4345 5.59207 1.16629e-18)
(15.368 5.82599 0)
(15.2969 6.03555 2.90413e-19)
(15.2211 6.22688 2.53538e-20)
(15.1523 6.36716 -2.22743e-19)
(15.1347 3.82725 9.04005e-20)
(15.1323 3.82776 -6.5686e-18)
(15.1124 3.82955 5.37037e-18)
(15.086 3.82212 0)
(15.0693 3.80696 -4.58141e-20)
(15.063 3.78483 9.76792e-20)
(15.0773 3.76048 -1.37823e-18)
(15.1171 3.7418 0)
(15.1845 3.74174 0)
(15.2723 3.77177 -6.25489e-18)
(15.3713 3.84296 -5.30071e-18)
(15.4671 3.95953 -1.40593e-19)
(15.5496 4.12282 3.53562e-18)
(15.6079 4.32735 -1.21615e-19)
(15.6376 4.56268 -3.75265e-19)
(15.6404 4.81694 4.00092e-19)
(15.6216 5.07867 -1.30189e-18)
(15.5874 5.33922 -1.20159e-18)
(15.542 5.59024 -1.32706e-18)
(15.4879 5.82723 -9.90998e-19)
(15.4294 6.03957 3.24874e-19)
(15.3649 6.23565 -1.45644e-18)
(15.3076 6.37919 2.64986e-19)
(15.1345 3.8349 -1.19079e-17)
(15.1327 3.8331 7.50091e-18)
(15.1111 3.83519 -1.71013e-19)
(15.0828 3.82767 -4.5328e-18)
(15.0646 3.8115 1.5879e-19)
(15.0566 3.78724 1.21739e-18)
(15.0708 3.75929 2.8283e-18)
(15.1123 3.73574 2.06115e-19)
(15.1843 3.73052 -1.82547e-19)
(15.2791 3.75582 -7.0705e-18)
(15.3874 3.82373 2.00057e-19)
(15.4936 3.93863 -4.83187e-18)
(15.5877 4.10223 -3.16547e-18)
(15.6576 4.30884 0)
(15.6986 4.54713 3.19043e-18)
(15.7122 4.80436 -4.30598e-18)
(15.7045 5.06833 -3.11113e-19)
(15.6822 5.33051 1.24891e-18)
(15.6498 5.58272 -1.34383e-20)
(15.6095 5.82162 1.25515e-18)
(15.5654 6.03564 0)
(15.5139 6.23544 4.44756e-19)
(15.47 6.38157 0)
(15.1348 3.84228 1.90625e-17)
(15.1332 3.83803 7.04697e-18)
(15.11 3.84055 -2.742e-19)
(15.08 3.83309 9.09583e-18)
(15.0603 3.81603 -2.41586e-18)
(15.0507 3.7898 6.12115e-20)
(15.0647 3.75833 -1.52778e-18)
(15.1076 3.72992 7.44343e-20)
(15.1839 3.71948 -2.49521e-19)
(15.2852 3.73991 7.30386e-18)
(15.4024 3.8044 0)
(15.5187 3.91738 4.43391e-18)
(15.6242 4.08101 3.17835e-19)
(15.7057 4.28938 -1.47216e-19)
(15.758 4.53025 -3.31098e-18)
(15.7827 4.78993 1.3383e-20)
(15.7863 5.05534 1.19564e-18)
(15.7764 5.31806 -2.06553e-18)
(15.7578 5.57007 0)
(15.7323 5.80943 -8.8438e-19)
(15.704 6.02363 1.18162e-18)
(15.6673 6.22567 0)
(15.6382 6.37316 -6.91293e-19)
(15.1354 3.84924 -6.66699e-18)
(15.1337 3.84251 -9.13916e-20)
(15.1089 3.84561 -2.7893e-19)
(15.0774 3.83836 -4.40914e-18)
(15.0563 3.82055 4.82226e-18)
(15.045 3.79256 -3.94723e-20)
(15.0586 3.75769 1.16461e-20)
(15.1029 3.72449 3.62127e-18)
(15.1831 3.70878 -1.04008e-19)
(15.2907 3.72418 0)
(15.4164 3.78498 6.47644e-18)
(15.5425 3.8957 1.44884e-19)
(15.6593 4.05891 1.19121e-19)
(15.7525 4.26866 1.28096e-20)
(15.8163 4.51173 -3.37459e-19)
(15.8523 4.77345 2.45322e-18)
(15.8673 5.03966 -1.3848e-18)
(15.8701 5.30195 -2.12586e-19)
(15.8659 5.55237 -4.47041e-19)
(15.8562 5.79054 1.21773e-18)
(15.8451 6.00306 -8.44847e-19)
(15.8246 6.20552 1.74787e-18)
(15.8117 6.35273 -1.14638e-18)
(15.1364 3.85572 -6.90532e-18)
(15.1343 3.84655 -6.80101e-18)
(15.108 3.8504 -3.48472e-20)
(15.0752 3.84347 -4.81139e-18)
(15.0526 3.82505 -4.92835e-18)
(15.0396 3.79546 4.08255e-20)
(15.0527 3.75731 -1.3105e-20)
(15.0981 3.71935 1.73506e-19)
(15.182 3.69832 -4.3765e-18)
(15.2954 3.70852 4.19036e-18)
(15.4294 3.76536 -6.82829e-18)
(15.565 3.87339 -5.12764e-18)
(15.6931 4.03571 3.88011e-18)
(15.7981 4.2464 0)
(15.8737 4.49131 1.96481e-18)
(15.9211 4.75469 0)
(15.9478 5.0211 1.85174e-18)
(15.9634 5.28194 1.13583e-18)
(15.9741 5.52923 -1.94081e-20)
(15.981 5.76428 -1.36757e-18)
(15.9881 5.97282 -2.91617e-20)
(15.985 6.17351 7.17664e-21)
(15.9896 6.31825 -4.65683e-19)
(15.1375 3.86173 1.03523e-19)
(15.1347 3.85017 -6.78181e-20)
(15.1072 3.85493 3.4833e-20)
(15.0731 3.84845 4.82958e-18)
(15.0491 3.82958 2.48511e-18)
(15.0343 3.79858 0)
(15.0468 3.75727 3.32809e-20)
(15.093 3.71459 -3.79044e-18)
(15.1803 3.68816 -1.60697e-19)
(15.2993 3.6929 -4.21043e-18)
(15.4412 3.74543 3.67956e-18)
(15.5863 3.8503 8.05176e-18)
(15.7257 4.0112 -3.76542e-18)
(15.8429 4.22239 2.7553e-18)
(15.9306 4.4688 2.32031e-19)
(15.9897 4.73355 1.40452e-20)
(16.0283 4.99963 -1.11798e-19)
(16.0569 5.25797 -3.63127e-19)
(16.0826 5.50037 2.47475e-19)
(16.1063 5.73005 -4.19375e-19)
(16.132 5.93182 -2.96701e-20)
(16.1472 6.12803 3.64388e-19)
(16.1701 6.26774 0)
(15.1388 3.86714 1.88848e-19)
(15.1351 3.85348 0)
(15.1066 3.8592 0)
(15.0714 3.8533 4.93389e-18)
(15.0457 3.83413 2.61996e-18)
(15.0292 3.80188 -6.00453e-19)
(15.041 3.75749 7.43812e-21)
(15.0877 3.7101 -4.52578e-20)
(15.1781 3.67817 4.63198e-18)
(15.3023 3.67724 -7.94403e-20)
(15.4521 3.72511 2.20192e-19)
(15.6064 3.82634 -2.76135e-18)
(15.7575 3.98526 0)
(15.8872 4.19651 -2.94118e-18)
(15.9876 4.44409 -4.27848e-18)
(16.0589 4.70998 -1.64913e-18)
(16.1095 4.97523 -9.69384e-19)
(16.1507 5.22997 0)
(16.191 5.46553 0)
(16.2311 5.6872 7.63492e-19)
(16.2753 5.87861 5.48029e-19)
(16.3088 6.06695 -1.13816e-18)
(16.351 6.19735 0)
(15.1403 3.87192 7.02891e-18)
(15.1354 3.85653 -3.48875e-20)
(15.1062 3.86323 1.75579e-20)
(15.0698 3.85801 -4.89204e-18)
(15.0426 3.83871 -5.28368e-18)
(15.0243 3.80537 1.19315e-18)
(15.0351 3.75804 -7.56279e-21)
(15.0821 3.70593 -4.6465e-20)
(15.1754 3.66832 6.11755e-20)
(15.3046 3.66142 0)
(15.462 3.70427 -3.72249e-18)
(15.6257 3.80133 2.96439e-18)
(15.7887 3.95768 0)
(15.9316 4.16853 0)
(16.0453 4.41702 2.05493e-18)
(16.1294 4.68388 1.19358e-19)
(16.1918 4.94794 1.10923e-18)
(16.2449 5.19804 8.26641e-19)
(16.2986 5.42487 -1.17902e-18)
(16.3538 5.63605 -4.31276e-19)
(16.4149 5.81428 1.73615e-18)
(16.4655 5.99101 -1.63044e-18)
(16.5255 6.11123 1.09181e-18)
(15.1418 3.87613 -3.3743e-18)
(15.1356 3.85935 -3.22744e-18)
(15.1059 3.86704 -2.92568e-20)
(15.0685 3.8626 3.8778e-20)
(15.0397 3.84331 2.68508e-18)
(15.0196 3.80904 -6.17974e-19)
(15.0292 3.75887 -1.80307e-20)
(15.0763 3.70206 -2.3639e-20)
(15.172 3.65865 6.24416e-20)
(15.306 3.64543 4.21263e-20)
(15.471 3.68279 -5.50844e-20)
(15.6441 3.77509 -2.97024e-18)
(15.8194 3.92821 2.37003e-18)
(15.9761 4.13813 -9.83782e-20)
(16.104 4.38721 0)
(16.2012 4.65495 -1.79221e-19)
(16.2754 4.91777 1.41897e-19)
(16.3392 5.16264 -8.12347e-19)
(16.4047 5.3794 1.44101e-18)
(16.4731 5.57749 8.38901e-19)
(16.5489 5.74018 -5.65821e-19)
(16.615 5.89972 -8.41793e-19)
(16.6908 6.00904 1.07969e-18)
(15.1434 3.87981 6.56305e-20)
(15.1357 3.86195 3.26e-18)
(15.1057 3.87064 0)
(15.0673 3.86706 0)
(15.037 3.84794 0)
(15.015 3.81285 0)
(15.0233 3.75994 1.82713e-20)
(15.0702 3.69843 1.74859e-23)
(15.1681 3.64905 -3.17532e-20)
(15.3066 3.62919 4.31108e-20)
(15.4792 3.66057 -5.63267e-20)
(15.6617 3.74744 0)
(15.8497 3.89654 -4.64905e-18)
(16.021 4.10487 1.12386e-19)
(16.1639 4.3542 -2.26093e-19)
(16.2747 4.62278 1.89499e-18)
(16.3605 4.88443 -1.45575e-19)
(16.4337 5.12353 2.21301e-19)
(16.5084 5.32878 -2.71361e-19)
(16.5873 5.51075 4.22163e-19)
(16.6743 5.65504 -5.88936e-19)
(16.753 5.79171 0)
(16.8415 5.88795 5.61747e-19)
(15.1449 3.883 6.47029e-18)
(15.1358 3.86434 1.65011e-18)
(15.1057 3.87404 2.4354e-20)
(15.0663 3.87143 -2.65385e-18)
(15.0345 3.85262 -1.45704e-18)
(15.0105 3.81685 2.68763e-21)
(15.0173 3.7613 -1.11051e-18)
(15.0637 3.69507 2.1725e-18)
(15.1634 3.63952 2.50727e-18)
(15.3063 3.61263 0)
(15.4862 3.6375 7.09688e-20)
(15.6781 3.7182 -3.31032e-18)
(15.8793 3.86237 2.4354e-18)
(16.066 4.06836 1.67955e-18)
(16.2248 4.31753 1.27508e-18)
(16.3499 4.58699 0)
(16.447 4.84785 0)
(16.5278 5.08111 -8.6008e-19)
(16.6083 5.27384 -9.00377e-19)
(16.6934 5.43709 4.25232e-19)
(16.7862 5.56025 3.0235e-19)
(16.8728 5.66958 3.94858e-19)
(16.9691 5.74896 -5.47064e-19)
(15.1464 3.88582 -3.20497e-18)
(15.1358 3.86659 -1.65707e-18)
(15.1057 3.87731 1.54486e-20)
(15.0654 3.87571 -6.01173e-20)
(15.0321 3.85728 1.45913e-18)
(15.0061 3.82087 4.08226e-19)
(15.0113 3.76266 5.57653e-19)
(15.057 3.69156 -2.15025e-18)
(15.1584 3.62958 -2.49062e-18)
(15.3055 3.59534 -6.62758e-20)
(15.4926 3.61322 0)
(15.694 3.687 3.21278e-18)
(15.9086 3.82527 2.4873e-18)
(16.1115 4.02804 -1.77544e-18)
(16.2872 4.27663 -1.0982e-18)
(16.4272 4.54715 -4.5084e-19)
(16.535 4.80805 -3.24475e-19)
(16.6213 5.03632 1.7057e-18)
(16.7032 5.21654 0)
(16.7881 5.35965 0)
(16.8799 5.45975 2.91566e-19)
(16.9687 5.53934 -7.50384e-19)
(17.0651 5.59885 -5.25328e-19)
(15.1477 3.88808 3.05528e-18)
(15.136 3.86857 0)
(15.106 3.88029 0)
(15.0649 3.87996 5.44007e-18)
(15.0301 3.86229 -1.5286e-18)
(15.0019 3.82569 -4.16607e-19)
(15.0047 3.76516 1.01046e-20)
(15.0492 3.68939 1.0658e-18)
(15.1515 3.62079 5.85526e-20)
(15.3023 3.57841 -2.52814e-18)
(15.4965 3.58834 7.41385e-20)
(15.7076 3.65409 -9.63759e-20)
(15.9362 3.78515 -2.48044e-18)
(16.1564 3.9835 1.87671e-18)
(16.3505 4.23083 1.25227e-18)
(16.5068 4.50271 -9.33167e-19)
(16.6253 4.76512 7.70733e-19)
(16.7148 4.9906 -8.45697e-19)
(16.7923 5.1602 0)
(16.8691 5.28368 0)
(16.9516 5.36025 -2.70814e-19)
(17.0348 5.4118 1.77655e-19)
(17.1234 5.44996 -4.95153e-19)
(15.1494 3.89055 -6.70217e-20)
(15.1357 3.87066 1.77365e-18)
(15.1059 3.88345 0)
(15.0639 3.88367 -1.35245e-18)
(15.0278 3.86589 3.11441e-18)
(14.998 3.82777 2.21232e-21)
(15.0003 3.76403 4.97203e-21)
(15.0452 3.68315 -1.11689e-18)
(15.1487 3.60778 3.31099e-20)
(15.3035 3.5579 2.54076e-18)
(15.5044 3.56053 -6.05339e-20)
(15.7239 3.6181 -1.65579e-18)
(15.9657 3.74096 -1.62054e-19)
(16.2033 3.93391 -1.75519e-18)
(16.4161 4.17963 -1.41634e-18)
(16.5888 4.45346 8.87758e-20)
(16.7177 4.71941 0)
(16.8082 4.94581 -1.08042e-19)
(16.8763 5.10901 1.38003e-19)
(16.9379 5.21616 0)
(17.0045 5.27269 2.45852e-19)
(17.0737 5.29943 -1.71503e-19)
(17.1424 5.31142 0)
(15.1504 3.89119 -2.99931e-18)
(15.1364 3.87202 -1.77325e-18)
(15.1066 3.88577 0)
(15.0636 3.88914 -1.38753e-18)
(15.0257 3.87431 -3.16303e-18)
(14.993 3.83936 -4.77747e-19)
(14.9914 3.7761 1.06228e-18)
(15.0332 3.6912 0)
(15.1372 3.6083 2.64635e-18)
(15.2951 3.54823 -2.55987e-18)
(15.5026 3.53978 2.19286e-18)
(15.732 3.58596 1.71421e-18)
(15.9884 3.69831 -2.20271e-20)
(16.2452 3.88319 2.84569e-20)
(16.4804 4.12484 -1.38965e-18)
(16.6742 4.4003 9.27382e-19)
(16.8161 4.67272 0)
(16.9062 4.90587 4.11735e-19)
(16.9588 5.06921 0)
(16.9952 5.16467 0)
(17.0322 5.20396 -2.36105e-19)
(17.0689 5.20906 -4.49402e-19)
(17.0979 5.19565 3.76419e-19)
(15.151 3.89187 0)
(15.1361 3.87283 7.66652e-23)
(15.1067 3.88717 -2.27447e-22)
(15.0631 3.89185 1.41072e-18)
(15.0245 3.87833 7.91586e-19)
(14.9905 3.84453 4.78239e-19)
(14.9875 3.78106 -5.33908e-19)
(15.0284 3.69393 -1.61356e-21)
(15.1322 3.60643 -1.29684e-18)
(15.2919 3.5393 -4.95841e-20)
(15.5041 3.52237 4.80204e-20)
(15.7405 3.55847 0)
(16.0091 3.65977 2.25119e-20)
(16.2836 3.83476 -2.90397e-20)
(16.541 4.06992 2.04789e-18)
(16.7578 4.3451 5.81847e-20)
(16.9161 4.62486 0)
(17.0091 4.87048 1.01044e-19)
(17.0477 5.04424 -1.2886e-19)
(17.0542 5.14228 0)
(17.0499 5.18396 0)
(17.0439 5.19282 2.57471e-19)
(17.0361 5.18123 -1.6727e-19)
(15.1519 3.89257 -2.99634e-18)
(15.136 3.87364 -1.87234e-18)
(15.1067 3.88859 0)
(15.0626 3.89445 -1.4126e-18)
(15.0231 3.88212 8.01138e-19)
(14.9879 3.84921 4.55084e-19)
(14.9835 3.78535 5.89351e-19)
(15.0234 3.69595 -1.19802e-18)
(15.1271 3.60384 -1.35252e-18)
(15.2889 3.52974 3.95395e-18)
(15.5054 3.50439 -2.24534e-18)
(15.749 3.53012 -1.80753e-18)
(16.0297 3.61956 -1.38282e-18)
(16.3222 3.78337 0)
(16.6026 4.01068 -7.0773e-19)
(16.8447 4.28526 9.90068e-19)
(17.0224 4.57473 3.95146e-20)
(17.122 4.83923 -4.50946e-19)
(17.149 5.03578 0)
(17.1242 5.15809 0)
(17.0811 5.23019 0)
(17.0441 5.26701 -3.19546e-19)
(17.0096 5.26974 2.59703e-19)
(15.1526 3.89319 3.00121e-18)
(15.1359 3.87443 -2.01568e-20)
(15.1068 3.88999 0)
(15.0622 3.89704 1.41083e-18)
(15.022 3.88591 1.04083e-22)
(14.9856 3.85388 -6.64661e-19)
(14.9798 3.78962 -1.2269e-18)
(15.0186 3.69795 3.71003e-18)
(15.1222 3.60118 -1.75425e-21)
(15.2857 3.52001 -1.3359e-18)
(15.5066 3.48607 -1.18394e-18)
(15.757 3.50097 1.8125e-18)
(16.0494 3.57754 1.36649e-18)
(16.3599 3.72868 -1.04225e-18)
(16.6642 3.94631 1.19114e-20)
(16.9347 4.2194 -9.99061e-19)
(17.137 4.5202 0)
(17.2508 4.80958 0)
(17.2744 5.04377 2.29148e-19)
(17.2286 5.21468 0)
(17.1592 5.33938 0)
(17.0842 5.40529 5.37617e-20)
(16.9781 5.39694 8.35091e-20)
(15.1533 3.89372 0)
(15.1359 3.87517 1.89825e-18)
(15.1069 3.89136 -4.44882e-23)
(15.0619 3.89961 -1.38407e-20)
(15.021 3.88972 3.04302e-23)
(14.9835 3.85861 3.94634e-19)
(14.9762 3.794 6.37712e-19)
(15.0139 3.70009 -2.51305e-18)
(15.1172 3.5986 -1.4744e-18)
(15.2824 3.51025 0)
(15.5073 3.4675 1.17924e-18)
(15.764 3.47104 3.69388e-21)
(16.0678 3.5337 4.28045e-22)
(16.3959 3.67047 1.03628e-18)
(16.725 3.87608 0)
(17.0273 4.14574 5.28244e-19)
(17.2612 4.45777 -1.01775e-20)
(17.4003 4.77667 0)
(17.4358 5.06259 -2.25535e-19)
(17.3877 5.30244 0)
(17.2915 5.49222 0)
(17.1377 5.58738 0)
(16.9121 5.5738 -1.86899e-20)
(15.1541 3.89415 0)
(15.1359 3.87587 -9.55589e-19)
(15.1071 3.8927 7.82906e-24)
(15.0618 3.90217 -1.40065e-18)
(15.0202 3.89355 -7.39952e-19)
(14.9815 3.86341 -3.45342e-19)
(14.9727 3.79852 0)
(15.0092 3.70241 -1.36865e-18)
(15.112 3.59618 2.98868e-18)
(15.2786 3.50051 -5.488e-23)
(15.5072 3.44873 1.22817e-18)
(15.7697 3.44038 -9.54978e-19)
(16.0843 3.48804 0)
(16.4296 3.6086 0)
(16.7841 3.79929 7.82898e-19)
(17.1214 4.06229 -5.17562e-19)
(17.3949 4.38325 0)
(17.5731 4.73329 -4.00702e-19)
(17.6421 5.07963 -2.19093e-19)
(17.6119 5.40134 0)
(17.4862 5.67268 1.14136e-21)
(17.2535 5.84163 -7.24542e-22)
(16.9787 5.91587 -1.59645e-20)
(15.1548 3.89449 -1.12831e-23)
(15.1359 3.87652 1.91138e-18)
(15.1074 3.89399 2.55234e-23)
(15.0616 3.90471 0)
(15.0194 3.89739 2.53218e-20)
(14.9796 3.86828 2.94237e-19)
(14.9692 3.80318 -8.86244e-23)
(15.0044 3.70494 1.36987e-18)
(15.1065 3.59393 -1.51383e-18)
(15.2742 3.49086 1.45592e-18)
(15.5062 3.42982 1.81307e-20)
(15.7739 3.40904 1.92333e-18)
(16.0986 3.44059 -1.47376e-18)
(16.4606 3.54294 4.00273e-21)
(16.8407 3.71531 -1.58943e-18)
(17.2159 3.96704 5.69215e-19)
(17.5368 4.29189 -2.11402e-20)
(17.7697 4.66942 4.10983e-19)
(17.8966 5.07529 2.14058e-19)
(17.9089 5.48231 0)
(17.7872 5.85616 4.24199e-20)
(17.5688 6.16128 0)
(17.3985 6.41128 -8.0354e-22)
(15.1556 3.89473 0)
(15.1359 3.87714 -9.55719e-19)
(15.1076 3.89525 -9.66648e-19)
(15.0615 3.90723 -8.09376e-23)
(15.0187 3.90126 1.40794e-18)
(14.9777 3.87323 -1.34407e-19)
(14.9657 3.808 0)
(14.9994 3.70768 0)
(15.1007 3.5919 -9.55316e-22)
(15.2693 3.4813 -1.45624e-18)
(15.5044 3.4108 1.57828e-20)
(15.7765 3.37708 -9.66849e-19)
(16.1106 3.39141 1.46798e-18)
(16.4884 3.4735 0)
(16.8939 3.62367 8.00419e-19)
(17.3088 3.85813 -5.50416e-19)
(17.6843 4.17871 3.50492e-19)
(17.9874 4.57338 2.73124e-20)
(18.1957 5.02549 0)
(18.2845 5.50556 0)
(18.2376 5.98192 -2.71817e-20)
(18.1527 6.43238 -3.24088e-20)
(18.1704 6.83716 -6.66168e-21)
(15.1563 3.89487 0)
(15.136 3.87771 3.80716e-23)
(15.1079 3.89646 9.67742e-19)
(15.0615 3.90973 -6.63194e-19)
(15.018 3.90515 -6.92229e-19)
(14.9758 3.87825 -6.0044e-23)
(14.9622 3.81297 4.36089e-19)
(14.9944 3.71064 7.53401e-19)
(15.0946 3.59007 -1.60113e-18)
(15.2637 3.47185 0)
(15.5015 3.39171 1.47297e-20)
(15.7775 3.34457 -9.86026e-19)
(16.12 3.34057 0)
(16.5125 3.4003 -1.92572e-20)
(16.9424 3.52404 8.70476e-19)
(17.3978 3.73396 0)
(17.8334 4.03883 -2.15984e-20)
(18.219 4.43348 4.17158e-21)
(18.5284 4.90698 3.44179e-19)
(18.73 5.42986 0)
(18.8229 5.97347 0)
(18.9235 6.51006 1.52407e-20)
(19.0884 6.97308 -4.35155e-21)
(15.157 3.89493 2.24633e-23)
(15.136 3.87823 -2.96815e-23)
(15.1082 3.89764 0)
(15.0615 3.91222 -6.44904e-19)
(15.0173 3.90905 2.6628e-22)
(14.974 3.88335 -1.10888e-22)
(14.9586 3.81809 -4.36164e-19)
(14.9892 3.71382 -7.54843e-19)
(15.0881 3.58847 1.60306e-18)
(15.2575 3.46253 -1.49944e-18)
(15.4978 3.3726 -1.285e-18)
(15.7768 3.31156 9.95349e-19)
(16.1268 3.2882 7.51563e-19)
(16.5323 3.32346 5.62811e-19)
(16.985 3.41635 -8.48701e-19)
(17.4803 3.59344 3.62862e-20)
(17.9781 3.86858 -4.45628e-19)
(18.4523 4.241 -2.07226e-19)
(18.8743 4.70167 -1.12873e-19)
(19.2118 5.22262 7.47086e-20)
(19.4703 5.77585 -9.00842e-20)
(19.7305 6.31235 0)
(19.9386 6.73726 3.63974e-20)
(15.1577 3.8949 0)
(15.1361 3.87872 -9.41951e-19)
(15.1085 3.89878 -9.42191e-19)
(15.0615 3.91468 6.64373e-19)
(15.0167 3.91297 -3.13173e-19)
(14.9722 3.88853 0)
(14.9551 3.82338 8.6054e-22)
(14.9839 3.71723 -1.13439e-21)
(15.0814 3.58711 8.25772e-19)
(15.2508 3.45338 2.263e-18)
(15.4932 3.35352 -1.30712e-18)
(15.7743 3.27816 -7.29061e-21)
(16.1308 3.23445 1.00079e-20)
(16.5474 3.24321 -5.8285e-19)
(17.0205 3.30079 0)
(17.5531 3.43632 6.56166e-19)
(18.1107 3.66655 -4.57506e-19)
(18.6717 3.99191 2.70527e-19)
(19.2058 4.40062 1.17684e-19)
(19.678 4.86897 -4.0788e-21)
(20.0833 5.36688 -1.241e-19)
(20.4396 5.83189 8.51416e-20)
(20.6013 6.16243 6.53944e-20)
(15.1584 3.89479 -7.60158e-19)
(15.1362 3.87916 4.51049e-21)
(15.1089 3.89988 9.43216e-19)
(15.0615 3.91713 6.46006e-19)
(15.0162 3.9169 6.16182e-19)
(14.9705 3.89377 2.43706e-20)
(14.9515 3.82882 -8.83314e-22)
(14.9785 3.72087 1.1645e-21)
(15.0744 3.586 -8.26762e-19)
(15.2435 3.4444 -7.59257e-19)
(15.4877 3.33451 2.64595e-18)
(15.7701 3.24446 -1.01588e-18)
(16.1318 3.17952 -7.73832e-19)
(16.5572 3.15989 6.06317e-19)
(17.0474 3.17786 -3.12688e-20)
(17.613 3.2634 -5.717e-19)
(18.223 3.43384 4.63856e-19)
(18.8614 3.68669 -5.03528e-19)
(19.4943 4.00731 -9.12353e-20)
(20.0779 4.3789 0)
(20.5866 4.76628 1.71466e-19)
(20.9692 5.10546 -1.72386e-19)
(21.0353 5.32276 2.30118e-19)
(15.1591 3.89459 7.6084e-19)
(15.1362 3.87957 1.4067e-18)
(15.1092 3.90095 9.27124e-19)
(15.0616 3.91955 -6.28517e-19)
(15.0157 3.92085 -3.03088e-19)
(14.9689 3.8991 -2.46965e-20)
(14.948 3.83442 5.04672e-19)
(14.973 3.72476 0)
(15.0672 3.58516 8.5388e-19)
(15.2356 3.43562 -7.73442e-19)
(15.4814 3.31564 -1.33327e-18)
(15.7639 3.21056 1.01701e-18)
(16.1297 3.12361 0)
(16.5612 3.07398 -5.64181e-19)
(17.0642 3.04831 4.24044e-19)
(17.6566 3.07653 -3.62595e-19)
(18.3076 3.17329 1.38261e-19)
(19.0075 3.33076 1.71515e-19)
(19.7128 3.53414 -5.29546e-19)
(20.3693 3.77465 3.24528e-19)
(20.9327 4.01972 0)
(21.2914 4.20728 -5.73232e-19)
(21.2417 4.30791 8.37503e-19)
(15.1598 3.89432 0)
(15.1363 3.87993 -4.67763e-19)
(15.1096 3.90198 -9.27794e-19)
(15.0618 3.92196 6.2901e-19)
(15.0152 3.92481 -1.0848e-22)
(14.9673 3.90449 -7.61703e-23)
(14.9445 3.84019 -2.44195e-19)
(14.9675 3.72888 0)
(15.0597 3.58461 -8.54891e-19)
(15.2272 3.42707 -7.28788e-21)
(15.4742 3.29695 0)
(15.7559 3.17656 -5.18709e-19)
(16.1243 3.06701 0)
(16.5588 2.98607 4.40377e-20)
(17.0696 2.91335 -9.60264e-19)
(17.6805 2.87819 2.77691e-19)
(18.3581 2.88949 1.51867e-19)
(19.0991 2.93561 -6.13761e-19)
(19.8445 3.00406 2.71522e-19)
(20.5243 3.09118 4.3668e-19)
(21.0916 3.1757 -7.01738e-19)
(21.4016 3.21488 6.43188e-19)
(21.2423 3.20805 -2.27087e-18)
(15.1604 3.89397 7.53514e-19)
(15.1365 3.88026 -4.63485e-19)
(15.1099 3.90298 4.5572e-19)
(15.0619 3.92435 2.71729e-22)
(15.0148 3.92879 -2.12893e-22)
(14.9657 3.90996 -1.64646e-22)
(14.941 3.84611 -2.61594e-19)
(14.9619 3.73326 3.47399e-21)
(15.052 3.58434 -2.90947e-21)
(15.2182 3.41876 -7.51686e-21)
(15.4662 3.27852 -6.9939e-19)
(15.7458 3.1426 5.0112e-19)
(16.1156 3.01001 2.35076e-20)
(16.5498 2.89684 -4.50989e-20)
(17.0626 2.77449 5.51635e-19)
(17.6819 2.6714 0)
(18.3697 2.5884 3.06859e-19)
(19.1264 2.51267 4.2841e-19)
(19.8803 2.44479 -3.6049e-19)
(20.5451 2.3763 9.77632e-19)
(21.0715 2.29138 -5.00383e-19)
(21.3125 2.1934 1.31841e-19)
(21.0682 2.09631 1.57827e-18)
(15.161 3.89355 -1.50472e-18)
(15.1366 3.88055 4.6392e-19)
(15.1103 3.90394 -4.22096e-21)
(15.0621 3.92671 0)
(15.0145 3.93277 0)
(14.9643 3.9155 -2.99409e-20)
(14.9376 3.8522 -2.78051e-19)
(14.9562 3.73789 0)
(15.0441 3.58439 -4.22196e-21)
(15.2087 3.41073 7.9661e-19)
(15.4573 3.2604 7.12246e-19)
(15.7337 3.1088 -1.55173e-20)
(16.1034 2.95293 -2.90383e-20)
(16.5336 2.80701 8.32466e-20)
(17.0426 2.63336 -5.8712e-20)
(17.6588 2.45982 0)
(18.3407 2.27828 -4.57298e-19)
(19.0861 2.07641 4.49474e-20)
(19.8154 1.87296 -1.13029e-18)
(20.4365 1.66076 5.18817e-19)
(20.8974 1.42619 8.77148e-19)
(21.0558 1.20648 -1.43347e-18)
(20.7529 1.03172 0)
(15.1616 3.89305 1.49885e-18)
(15.1367 3.88081 -5.79932e-23)
(15.1107 3.90487 -4.52387e-19)
(15.0623 3.92906 0)
(15.0142 3.93677 0)
(14.9629 3.92111 -1.04349e-20)
(14.9342 3.85846 5.64786e-19)
(14.9505 3.74278 0)
(15.036 3.58476 4.61148e-19)
(15.1986 3.40299 0)
(15.4476 3.24266 0)
(15.7195 3.07527 -1.86954e-20)
(16.0878 2.89605 2.40492e-20)
(16.5099 2.71728 2.80986e-19)
(17.0094 2.4919 5.98405e-20)
(17.6102 2.2472 -1.20776e-19)
(18.2711 1.96685 4.82774e-19)
(18.981 1.64156 0)
(19.6551 1.31227 3.90664e-19)
(20.201 0.970467 0)
(20.5811 0.611784 2.39704e-19)
(20.6592 0.293054 3.42757e-19)
(20.3167 0.0415506 0)
(15.1622 3.89249 -1.12045e-18)
(15.1368 3.88103 2.28813e-19)
(15.1112 3.90577 0)
(15.0626 3.93139 -2.92261e-19)
(15.014 3.94077 1.20521e-19)
(14.9615 3.92679 4.06859e-20)
(14.9309 3.86488 -2.87073e-19)
(14.9447 3.74792 -4.66964e-19)
(15.0276 3.58547 -4.58579e-19)
(15.1879 3.39557 -7.75357e-21)
(15.437 3.22538 1.00562e-20)
(15.703 3.04212 5.3575e-19)
(16.0688 2.83972 2.96466e-20)
(16.4785 2.6285 -4.14568e-19)
(16.9633 2.35222 6.07816e-20)
(17.5367 2.03738 0)
(18.1642 1.66146 0)
(18.8169 1.22161 0)
(19.4015 0.782141 0)
(19.8538 0.331269 -1.71472e-19)
(20.1432 -0.127783 -1.22444e-18)
(20.1445 -0.525478 1.28756e-18)
(19.7743 -0.857707 0)
(15.1628 3.89186 3.72548e-19)
(15.137 3.88121 -4.56769e-19)
(15.1116 3.90663 0)
(15.0629 3.93369 2.92564e-19)
(15.0138 3.94478 -2.36455e-19)
(14.9603 3.93254 0)
(14.9275 3.87146 0)
(14.9388 3.75334 4.65049e-19)
(15.0191 3.58653 0)
(15.1766 3.38849 -4.03204e-19)
(15.4256 3.2086 -3.85192e-19)
(15.6843 3.00947 -2.67681e-19)
(16.0466 2.78439 4.26888e-19)
(16.4392 2.54147 0)
(16.9047 2.21593 0)
(17.4382 1.83285 1.27637e-19)
(18.0228 1.368 -1.6362e-19)
(18.6045 0.833608 0)
(19.073 0.300677 -2.31004e-19)
(19.42 -0.24573 1.78108e-19)
(19.614 -0.778958 1.18921e-18)
(19.5402 -1.23471 -1.6013e-18)
(19.1226 -1.60319 0)
(15.1634 3.89118 -4.3337e-23)
(15.1371 3.88137 4.54801e-19)
(15.112 3.90747 1.06205e-22)
(15.0632 3.93598 1.41648e-19)
(15.0137 3.9488 1.15919e-19)
(14.959 3.93835 3.60433e-20)
(14.9243 3.8782 3.84911e-22)
(14.9329 3.75902 -2.44427e-19)
(15.0103 3.58796 4.97679e-19)
(15.1647 3.38176 4.05785e-19)
(15.4134 3.1924 3.75487e-19)
(15.6634 2.97745 -2.69583e-19)
(16.0214 2.73045 -4.27969e-19)
(16.3916 2.4568 -4.83199e-20)
(16.8341 2.08468 6.20502e-20)
(17.3169 1.63626 1.28664e-19)
(17.8457 1.09019 -1.65638e-19)
(18.3405 0.48376 0)
(18.6971 -0.121428 2.37767e-19)
(18.9335 -0.746522 0)
(19.0276 -1.33619 -1.46218e-19)
(18.8803 -1.81401 0)
(18.4304 -2.19191 -7.44909e-20)
(15.1639 3.89043 -1.84095e-19)
(15.1373 3.88149 -2.26856e-19)
(15.1125 3.90827 -2.1656e-19)
(15.0636 3.93824 -2.40923e-21)
(15.0136 3.95282 2.75804e-22)
(14.9579 3.94422 5.57813e-21)
(14.921 3.88511 -1.60268e-19)
(14.9269 3.76497 -5.89281e-21)
(15.0013 3.58977 -4.9054e-19)
(15.1522 3.37541 -8.0908e-21)
(15.4005 3.17685 3.98525e-19)
(15.6402 2.94613 0)
(15.9934 2.67817 -2.98476e-20)
(16.3358 2.37499 3.85152e-20)
(16.7523 1.9601 1.38499e-19)
(17.1743 1.45189 0)
(17.6388 0.836578 0)
(18.0275 0.172092 -1.4622e-19)
(18.2841 -0.487835 0)
(18.4212 -1.16855 8.40549e-19)
(18.4155 -1.78702 -9.82655e-19)
(18.2099 -2.26092 1.05717e-19)
(17.7417 -2.64607 2.53463e-18)
(15.1644 3.88963 3.67714e-19)
(15.1375 3.88158 1.12325e-19)
(15.113 3.90905 3.23892e-19)
(15.064 3.94048 -1.40055e-19)
(15.0136 3.95685 -5.02717e-20)
(14.9568 3.95016 -6.51174e-20)
(14.9178 3.89218 1.61079e-19)
(14.9208 3.77121 2.44297e-19)
(14.9921 3.59198 7.91414e-21)
(15.1391 3.36946 -5.95422e-21)
(15.3868 3.16202 -3.88557e-19)
(15.6148 2.91554 -1.3486e-19)
(15.9631 2.62795 1.87981e-19)
(16.2718 2.29669 2.00063e-19)
(16.6603 1.8441 -1.39437e-19)
(17.0139 1.28213 0)
(17.4114 0.610342 0)
(17.6871 -0.0988396 -3.28003e-19)
(17.8455 -0.80499 4.44909e-19)