/*--------------------------------*- C++ -*----------------------------------*\
  =========                 |
  \\      /  F ield         | OpenFOAM: The Open Source CFD Toolbox
   \\    /   O peration     | Website:  https://openfoam.org
    \\  /    A nd           | Version:  7
     \\/     M anipulation  |
\*---------------------------------------------------------------------------*/
FoamFile
{
    version     2.0;
    format      ascii;
    class       volScalarField;
    location    "50";
    object      yPlus;
}
// * * * * * * * * * * * * * * * * * * * * * * * * * * * * * * * * * * * * * //

dimensions      [0 0 0 0 0 0 0];

internalField   uniform 0;

boundaryField
{
    inlet
    {
        type            calculated;
        value           uniform 0;
    }
    outlet
    {
        type            calculated;
        value           uniform 0;
    }
    suction_side
    {
        type            calculated;
        value           nonuniform List<scalar> 
56
(
14.5253
18.3492
20.8338
26.504
31.3699
35.3793
39.8269
43.7219
47.5187
50.6038
54.0608
53.1544
47.5674
29.1245
26.2624
34.1294
39.9464
43.272
43.202
42.4939
40.5862
38.0259
35.4018
32.6703
30.3831
28.2496
26.7863
27.1527
28.5318
30.7551
36.6975
38.6618
35.3557
23.5423
18.1911
24.4301
27.8747
30.2475
32.1037
33.4518
34.4667
35.0273
35.1314
34.6005
33.8889
33.0021
32.1192
31.5328
30.6127
28.4685
24.8459
21.1884
19.5061
17.5309
18.392
20.9963
)
;
    }
    pressure_side
    {
        type            calculated;
        value           nonuniform List<scalar> 
56
(
38.6759
38.461
37.4766
37.8105
37.4725
37.1637
36.9283
36.8436
36.7926
36.8219
36.8741
36.9323
36.9868
37.0343
37.0768
37.1174
37.1565
37.195
37.2406
37.2769
37.3026
37.2664
37.167
37.0232
36.8273
36.6263
36.5473
36.6384
36.9534
37.4651
38.0713
38.6328
38.9972
38.5722
37.4618
36.0183
34.168
31.5789
28.0664
23.9392
19.512
14.8984
10.8705
7.95184
5.91109
5.93225
6.45653
6.83078
7.88402
8.06411
8.9775
9.48142
9.74292
11.1403
11.4196
12.8161
)
;
    }
    trailing_edge
    {
        type            calculated;
        value           nonuniform List<scalar> 2(129.743 107.11);
    }
    defaultFaces
    {
        type            empty;
    }
}


// ************************************************************************* //
