/*--------------------------------*- C++ -*----------------------------------*\
  =========                 |
  \\      /  F ield         | OpenFOAM: The Open Source CFD Toolbox
   \\    /   O peration     | Website:  https://openfoam.org
    \\  /    A nd           | Version:  7
     \\/     M anipulation  |
\*---------------------------------------------------------------------------*/
FoamFile
{
    version     2.0;
    format      ascii;
    class       volSymmTensorField;
    location    "1600";
    object      devReff;
}
// * * * * * * * * * * * * * * * * * * * * * * * * * * * * * * * * * * * * * //

dimensions      [0 2 -2 0 0 0 0];

internalField   nonuniform List<symmTensor> 
180
(
(-8.58944e-21 -0.00877762 -0 7.2728e-21 -0 1.31663e-21)
(7.57021e-21 -0.00877754 -0 -5.2344e-21 -0 -2.33581e-21)
(-2.98326e-21 -0.0106517 -0 5.96651e-21 -0 -2.98326e-21)
(2.53168e-20 -0.0106516 -0 -2.13402e-20 -0 -3.97668e-21)
(6.04917e-21 -0.0101622 -0 -1.20983e-20 -0 6.04917e-21)
(-1.98063e-21 -0.0101621 -0 3.96127e-21 -0 -1.98063e-21)
(-8.71866e-21 -0.00972232 -0 1.74373e-20 -0 -8.71866e-21)
(-3.08501e-21 -0.00972225 -0 6.17002e-21 -0 -3.08501e-21)
(-8.58096e-21 -0.00948288 -0 1.71619e-20 -0 -8.58096e-21)
(-3.86054e-21 -0.00948281 -0 7.72107e-21 -0 -3.86054e-21)
(9.88908e-21 -0.00929046 -0 -1.97782e-20 -0 9.88908e-21)
(-4.03573e-22 -0.00929039 -0 8.07145e-22 -0 -4.03573e-22)
(7.69041e-21 -0.00911991 -0 -1.53808e-20 -0 7.69041e-21)
(6.95175e-21 -0.00911983 -0 -1.39035e-20 -0 6.95175e-21)
(-1.90077e-20 -0.00896013 -0 3.80155e-20 -0 -1.90077e-20)
(5.44829e-21 -0.00896006 -0 -1.08966e-20 -0 5.44829e-21)
(-1.21605e-20 -0.00880594 -0 2.4321e-20 -0 -1.21605e-20)
(-1.45922e-21 -0.00880586 -0 2.91844e-21 -0 -1.45922e-21)
(6.52322e-21 -0.00865471 -0 -1.30464e-20 -0 6.52322e-21)
(-2.8376e-21 -0.00865463 -0 5.67521e-21 -0 -2.8376e-21)
(2.00853e-21 -0.00850505 -0 -4.01707e-21 -0 2.00853e-21)
(-3.13072e-21 -0.00850497 -0 6.26144e-21 -0 -3.13072e-21)
(1.75794e-21 -0.00835621 -0 -3.51588e-21 -0 1.75794e-21)
(-4.07077e-21 -0.00835612 -0 8.14154e-21 -0 -4.07077e-21)
(5.11785e-20 -0.00820776 -0 -1.02357e-19 -0 5.11785e-20)
(-9.12706e-21 -0.00820768 -0 1.82541e-20 -0 -9.12706e-21)
(8.50933e-20 -0.0080595 -0 -1.70187e-19 -0 8.50933e-20)
(-3.43936e-20 -0.00805941 -0 6.87871e-20 -0 -3.43936e-20)
(1.58839e-20 -0.00791132 -0 -3.17678e-20 -0 1.58839e-20)
(-4.01662e-20 -0.00791123 -0 8.03325e-20 -0 -4.01662e-20)
(-4.49968e-20 -0.00776318 -0 8.99936e-20 -0 -4.49968e-20)
(-5.20608e-21 -0.00776309 -0 1.04122e-20 -0 -5.20608e-21)
(-4.01213e-20 -0.00761511 -0 8.02425e-20 -0 -4.01213e-20)
(2.7155e-21 -0.00761502 -0 -5.43101e-21 -0 2.7155e-21)
(-7.06544e-21 -0.00746716 -0 1.41309e-20 -0 -7.06544e-21)
(-8.26409e-21 -0.00746707 -0 1.65282e-20 -0 -8.26409e-21)
(2.76682e-20 -0.00731939 -0 -5.53364e-20 -0 2.76682e-20)
(-6.25184e-21 -0.0073193 -0 1.25037e-20 -0 -6.25184e-21)
(3.42793e-20 -0.00717188 -0 -6.85586e-20 -0 3.42793e-20)
(-6.16403e-21 -0.00717179 -0 1.23281e-20 -0 -6.16403e-21)
(2.84636e-20 -0.00702472 -0 -5.69272e-20 -0 2.84636e-20)
(-6.38726e-21 -0.00702463 -0 1.27745e-20 -0 -6.38726e-21)
(2.45443e-20 -0.006878 -0 -4.90886e-20 -0 2.45443e-20)
(-6.77725e-21 -0.00687791 -0 1.35545e-20 -0 -6.77725e-21)
(2.15322e-20 -0.00673182 -0 -4.30645e-20 -0 2.15322e-20)
(-7.00818e-21 -0.00673173 -0 1.40164e-20 -0 -7.00818e-21)
(1.80877e-20 -0.00658626 -0 -3.61753e-20 -0 1.80877e-20)
(-5.85379e-21 -0.00658617 -0 1.17076e-20 -0 -5.85379e-21)
(1.46864e-20 -0.00644142 -0 -2.93728e-20 -0 1.46864e-20)
(-4.49623e-21 -0.00644133 -0 8.99247e-21 -0 -4.49623e-21)
(1.1368e-20 -0.00629738 -0 -2.2736e-20 -0 1.1368e-20)
(-3.09205e-21 -0.0062973 -0 6.18409e-21 -0 -3.09205e-21)
(8.20575e-21 -0.00615424 -0 -1.64115e-20 -0 8.20575e-21)
(-1.63735e-21 -0.00615416 -0 3.27471e-21 -0 -1.63735e-21)
(5.26995e-21 -0.00601207 -0 -1.05399e-20 -0 5.26995e-21)
(-2.97586e-22 -0.00601199 -0 5.95172e-22 -0 -2.97586e-22)
(2.67846e-21 -0.00587094 -0 -5.35692e-21 -0 2.67846e-21)
(8.36064e-22 -0.00587086 -0 -1.67213e-21 -0 8.36064e-22)
(4.87064e-22 -0.00573093 -0 -9.74128e-22 -0 4.87064e-22)
(1.72585e-21 -0.00573085 -0 -3.4517e-21 -0 1.72585e-21)
(-1.72093e-21 -0.0055921 -0 3.44185e-21 -0 -1.72093e-21)
(2.97683e-21 -0.00559202 -0 -5.95366e-21 -0 2.97683e-21)
(-3.43992e-21 -0.0054545 -0 6.87984e-21 -0 -3.43992e-21)
(4.06061e-21 -0.00545443 -0 -8.12122e-21 -0 4.06061e-21)
(-4.68248e-21 -0.00531821 -0 9.36495e-21 -0 -4.68248e-21)
(4.4631e-21 -0.00531814 -0 -8.9262e-21 -0 4.4631e-21)
(-6.00205e-21 -0.00518326 -0 1.20041e-20 -0 -6.00205e-21)
(4.67674e-21 -0.00518319 -0 -9.35347e-21 -0 4.67674e-21)
(-6.85128e-21 -0.00504969 -0 1.37026e-20 -0 -6.85128e-21)
(5.1802e-21 -0.00504963 -0 -1.03604e-20 -0 5.1802e-21)
(-7.37432e-21 -0.00491754 -0 1.47486e-20 -0 -7.37432e-21)
(5.52781e-21 -0.00491748 -0 -1.10556e-20 -0 5.52781e-21)
(-7.71157e-21 -0.00478686 -0 1.54231e-20 -0 -7.71157e-21)
(5.78507e-21 -0.0047868 -0 -1.15701e-20 -0 5.78507e-21)
(-7.82942e-21 -0.00465765 -0 1.56588e-20 -0 -7.82942e-21)
(5.9492e-21 -0.00465759 -0 -1.18984e-20 -0 5.9492e-21)
(-7.66589e-21 -0.00452994 -0 1.53318e-20 -0 -7.66589e-21)
(5.98784e-21 -0.00452989 -0 -1.19757e-20 -0 5.98784e-21)
(-7.27544e-21 -0.00440376 -0 1.45509e-20 -0 -7.27544e-21)
(5.90046e-21 -0.00440371 -0 -1.18009e-20 -0 5.90046e-21)
(-6.67112e-21 -0.00427911 -0 1.33422e-20 -0 -6.67112e-21)
(5.65469e-21 -0.00427906 -0 -1.13094e-20 -0 5.65469e-21)
(-5.87549e-21 -0.004156 -0 1.1751e-20 -0 -5.87549e-21)
(5.23427e-21 -0.00415595 -0 -1.04685e-20 -0 5.23427e-21)
(-5.46205e-21 -0.00403443 -0 1.09241e-20 -0 -5.46205e-21)
(4.6336e-21 -0.00403439 -0 -9.26721e-21 -0 4.6336e-21)
(-4.93505e-21 -0.00391441 -0 9.8701e-21 -0 -4.93505e-21)
(4.30209e-21 -0.00391437 -0 -8.60418e-21 -0 4.30209e-21)
(-3.73633e-21 -0.00379593 -0 7.47267e-21 -0 -3.73633e-21)
(3.70441e-21 -0.00379588 -0 -7.40881e-21 -0 3.70441e-21)
(-2.46797e-21 -0.00367898 -0 4.93594e-21 -0 -2.46797e-21)
(2.35032e-21 -0.00367894 -0 -4.70064e-21 -0 2.35032e-21)
(-1.60785e-21 -0.00356356 -0 3.2157e-21 -0 -1.60785e-21)
(1.3596e-21 -0.00356351 -0 -2.7192e-21 -0 1.3596e-21)
(-6.40642e-22 -0.00344964 -0 1.28128e-21 -0 -6.40642e-22)
(1.89644e-22 -0.00344959 -0 -3.79289e-22 -0 1.89644e-22)
(8.86015e-22 -0.00333721 -0 -1.77203e-21 -0 8.86015e-22)
(-1.4383e-21 -0.00333717 -0 2.87659e-21 -0 -1.4383e-21)
(2.14523e-21 -0.00322625 -0 -4.29046e-21 -0 2.14523e-21)
(-2.92831e-21 -0.00322621 -0 5.85661e-21 -0 -2.92831e-21)
(3.14579e-21 -0.00311675 -0 -6.29158e-21 -0 3.14579e-21)
(-4.23914e-21 -0.00311671 -0 8.47827e-21 -0 -4.23914e-21)
(4.13267e-21 -0.00300867 -0 -8.26535e-21 -0 4.13267e-21)
(-5.53108e-21 -0.00300863 -0 1.10622e-20 -0 -5.53108e-21)
(5.29582e-21 -0.00290199 -0 -1.05916e-20 -0 5.29582e-21)
(-7.24342e-21 -0.00290195 -0 1.44868e-20 -0 -7.24342e-21)
(6.32547e-21 -0.00279668 -0 -1.26509e-20 -0 6.32547e-21)
(-8.84016e-21 -0.00279664 -0 1.76803e-20 -0 -8.84016e-21)
(7.2227e-21 -0.00269272 -0 -1.44454e-20 -0 7.2227e-21)
(-1.00536e-20 -0.00269268 -0 2.01073e-20 -0 -1.00536e-20)
(7.95088e-21 -0.00259007 -0 -1.59018e-20 -0 7.95088e-21)
(-1.10826e-20 -0.00259002 -0 2.21653e-20 -0 -1.10826e-20)
(8.44918e-21 -0.00248869 -0 -1.68984e-20 -0 8.44918e-21)
(-1.18135e-20 -0.00248865 -0 2.3627e-20 -0 -1.18135e-20)
(8.95221e-21 -0.00238856 -0 -1.79044e-20 -0 8.95221e-21)
(-1.24132e-20 -0.00238852 -0 2.48264e-20 -0 -1.24132e-20)
(9.17951e-21 -0.00228965 -0 -1.8359e-20 -0 9.17951e-21)
(-1.28921e-20 -0.0022896 -0 2.57842e-20 -0 -1.28921e-20)
(9.14579e-21 -0.0021919 -0 -1.82916e-20 -0 9.14579e-21)
(-1.29887e-20 -0.00219186 -0 2.59774e-20 -0 -1.29887e-20)
(8.82419e-21 -0.0020953 -0 -1.76484e-20 -0 8.82419e-21)
(-1.26935e-20 -0.00209525 -0 2.53871e-20 -0 -1.26935e-20)
(8.20085e-21 -0.00199979 -0 -1.64017e-20 -0 8.20085e-21)
(-1.22391e-20 -0.00199974 -0 2.44781e-20 -0 -1.22391e-20)
(7.50077e-21 -0.00190534 -0 -1.50015e-20 -0 7.50077e-21)
(-1.13742e-20 -0.0019053 -0 2.27485e-20 -0 -1.13742e-20)
(6.74753e-21 -0.00181192 -0 -1.34951e-20 -0 6.74753e-21)
(-1.01473e-20 -0.00181187 -0 2.02946e-20 -0 -1.01473e-20)
(5.46197e-21 -0.00171948 -0 -1.09239e-20 -0 5.46197e-21)
(-8.83605e-21 -0.00171943 -0 1.76721e-20 -0 -8.83605e-21)
(3.91734e-21 -0.00162798 -0 -7.83468e-21 -0 3.91734e-21)
(-7.22753e-21 -0.00162793 -0 1.44551e-20 -0 -7.22753e-21)
(2.38218e-21 -0.00153739 -0 -4.76436e-21 -0 2.38218e-21)
(-5.36364e-21 -0.00153733 -0 1.07273e-20 -0 -5.36364e-21)
(6.17588e-22 -0.00144765 -0 -1.23518e-21 -0 6.17588e-22)
(-3.41606e-21 -0.0014476 -0 6.83212e-21 -0 -3.41606e-21)
(-1.19545e-21 -0.00135874 -0 2.3909e-21 -0 -1.19545e-21)
(-1.4416e-21 -0.00135868 -0 2.8832e-21 -0 -1.4416e-21)
(-3.13039e-21 -0.0012706 -0 6.26079e-21 -0 -3.13039e-21)
(6.2517e-22 -0.00127054 -0 -1.25034e-21 -0 6.2517e-22)
(-5.12113e-21 -0.0011832 -0 1.02423e-20 -0 -5.12113e-21)
(2.84223e-21 -0.00118314 -0 -5.68446e-21 -0 2.84223e-21)
(-7.12971e-21 -0.0010965 -0 1.42594e-20 -0 -7.12971e-21)
(5.04219e-21 -0.00109644 -0 -1.00844e-20 -0 5.04219e-21)
(-9.11706e-21 -0.00101045 -0 1.82341e-20 -0 -9.11706e-21)
(7.03664e-21 -0.00101039 -0 -1.40733e-20 -0 7.03664e-21)
(-1.10532e-20 -0.000925015 -0 2.21063e-20 -0 -1.10532e-20)
(9.06236e-21 -0.000924951 -0 -1.81247e-20 -0 9.06236e-21)
(-1.30314e-20 -0.000840149 -0 2.60629e-20 -0 -1.30314e-20)
(1.10753e-20 -0.000840083 -0 -2.21507e-20 -0 1.10753e-20)
(-1.48131e-20 -0.000755811 -0 2.96261e-20 -0 -1.48131e-20)
(1.29115e-20 -0.000755744 -0 -2.5823e-20 -0 1.29115e-20)
(-1.64443e-20 -0.00067196 -0 3.28886e-20 -0 -1.64443e-20)
(1.45728e-20 -0.00067189 -0 -2.91456e-20 -0 1.45728e-20)
(-1.80248e-20 -0.000588551 -0 3.60495e-20 -0 -1.80248e-20)
(1.60366e-20 -0.000588479 -0 -3.20732e-20 -0 1.60366e-20)
(-1.94878e-20 -0.000505542 -0 3.89756e-20 -0 -1.94878e-20)
(1.73698e-20 -0.000505468 -0 -3.47395e-20 -0 1.73698e-20)
(-2.07583e-20 -0.000422888 -0 4.15166e-20 -0 -2.07583e-20)
(1.85846e-20 -0.000422811 -0 -3.71693e-20 -0 1.85846e-20)
(-2.18735e-20 -0.000340539 -0 4.37469e-20 -0 -2.18735e-20)
(1.96343e-20 -0.00034046 -0 -3.92685e-20 -0 1.96343e-20)
(-2.28708e-20 -0.000258441 -0 4.57416e-20 -0 -2.28708e-20)
(2.05287e-20 -0.00025836 -0 -4.10574e-20 -0 2.05287e-20)
(-2.3739e-20 -0.000176529 -0 4.7478e-20 -0 -2.3739e-20)
(2.12903e-20 -0.000176446 -0 -4.25805e-20 -0 2.12903e-20)
(-2.44732e-20 -9.47231e-05 -0 4.89463e-20 -0 -2.44732e-20)
(2.19371e-20 -9.46371e-05 -0 -4.38742e-20 -0 2.19371e-20)
(-2.50727e-20 -1.29164e-05 -0 5.01455e-20 -0 -2.50727e-20)
(2.24676e-20 -1.28278e-05 -0 -4.49352e-20 -0 2.24676e-20)
(-2.55474e-20 6.90294e-05 -0 5.10948e-20 -0 -2.55474e-20)
(2.28771e-20 6.91202e-05 -0 -4.57541e-20 -0 2.28771e-20)
(-2.58771e-20 0.000151291 -0 5.17543e-20 -0 -2.58771e-20)
(2.31589e-20 0.000151383 -0 -4.63177e-20 -0 2.31589e-20)
(-2.6101e-20 0.000234072 -0 5.2202e-20 -0 -2.6101e-20)
(2.33097e-20 0.000234164 -0 -4.66194e-20 -0 2.33097e-20)
(-2.62043e-20 0.000317656 -0 5.24086e-20 -0 -2.62043e-20)
(2.33711e-20 0.000317745 -0 -4.67423e-20 -0 2.33711e-20)
(-2.62714e-20 0.000179844 -0 5.25428e-20 -0 -2.62714e-20)
(2.34112e-20 0.000179887 -0 -4.68224e-20 -0 2.34112e-20)
)
;

boundaryField
{
    inlet
    {
        type            cyclic;
    }
    outlet
    {
        type            cyclic;
    }
    bottom
    {
        type            symmetry;
    }
    top
    {
        type            calculated;
        value           nonuniform List<symmTensor> 2((-4.55954e-21 -0.00993217 -0 1.31282e-21 -0 3.24672e-21) (3.39373e-21 -0.00993213 -0 1.0188e-21 -0 -4.41253e-21));
    }
    frontAndBack
    {
        type            empty;
    }
}


// ************************************************************************* //
