/*--------------------------------*- C++ -*----------------------------------*\
  =========                 |
  \\      /  F ield         | OpenFOAM: The Open Source CFD Toolbox
   \\    /   O peration     | Website:  https://openfoam.org
    \\  /    A nd           | Version:  7
     \\/     M anipulation  |
\*---------------------------------------------------------------------------*/
FoamFile
{
    version     2.0;
    format      ascii;
    class       volScalarField;
    location    "1600";
    object      k;
}
// * * * * * * * * * * * * * * * * * * * * * * * * * * * * * * * * * * * * * //

dimensions      [0 2 -2 0 0 0 0];

internalField   nonuniform List<scalar> 
180
(
0.00697227
0.00697207
0.0252034
0.0252032
0.0281894
0.0281892
0.028773
0.0287728
0.0288235
0.0288232
0.0286608
0.0286606
0.0283963
0.0283961
0.0280783
0.0280781
0.0277317
0.0277315
0.0273712
0.0273709
0.0270059
0.0270056
0.0266422
0.026642
0.0262849
0.0262846
0.0259373
0.025937
0.0256022
0.0256019
0.0252815
0.0252812
0.0249769
0.0249765
0.0246894
0.0246891
0.0244201
0.0244197
0.0241694
0.024169
0.0239377
0.0239373
0.0237251
0.0237246
0.0235315
0.023531
0.0233567
0.0233562
0.0232004
0.0231999
0.023062
0.0230615
0.022941
0.0229404
0.0228367
0.0228361
0.0227485
0.0227478
0.0226754
0.0226748
0.0226169
0.0226162
0.022572
0.0225713
0.0225399
0.0225392
0.0225199
0.0225192
0.0225112
0.0225104
0.0225128
0.022512
0.0225241
0.0225233
0.0225444
0.0225435
0.0225729
0.022572
0.0226088
0.0226079
0.0226516
0.0226507
0.0227007
0.0226997
0.0227553
0.0227543
0.0228149
0.0228139
0.0228791
0.022878
0.0229472
0.0229461
0.0230188
0.0230177
0.0230933
0.0230923
0.0231705
0.0231694
0.0232499
0.0232487
0.023331
0.0233298
0.0234135
0.0234123
0.0234971
0.0234959
0.0235814
0.0235803
0.0236662
0.023665
0.0237512
0.0237499
0.023836
0.0238347
0.0239204
0.0239192
0.0240042
0.024003
0.0240872
0.0240859
0.0241691
0.0241678
0.0242498
0.0242485
0.024329
0.0243277
0.0244066
0.0244053
0.0244825
0.0244811
0.0245563
0.024555
0.0246281
0.0246268
0.0246977
0.0246963
0.0247649
0.0247635
0.0248296
0.0248282
0.0248917
0.0248903
0.0249511
0.0249497
0.0250077
0.0250062
0.0250613
0.0250599
0.025112
0.0251106
0.0251596
0.0251582
0.0252041
0.0252026
0.0252453
0.0252438
0.0252832
0.0252818
0.0253178
0.0253163
0.025349
0.0253475
0.0253767
0.0253752
0.0254009
0.0253994
0.0254215
0.02542
0.0254385
0.025437
0.0254519
0.0254504
0.0254616
0.02546
0.0254675
0.0254659
0.0254696
0.025468
0.0254677
0.0254662
)
;

boundaryField
{
    inlet
    {
        type            cyclic;
    }
    outlet
    {
        type            cyclic;
    }
    bottom
    {
        type            symmetry;
    }
    top
    {
        type            kqRWallFunction;
        value           nonuniform List<scalar> 2(0.00697227 0.00697207);
    }
    frontAndBack
    {
        type            empty;
    }
}


// ************************************************************************* //
