/*--------------------------------*- C++ -*----------------------------------*\
  =========                 |
  \\      /  F ield         | OpenFOAM: The Open Source CFD Toolbox
   \\    /   O peration     | Website:  https://openfoam.org
    \\  /    A nd           | Version:  7
     \\/     M anipulation  |
\*---------------------------------------------------------------------------*/
FoamFile
{
    version     2.0;
    format      ascii;
    class       volScalarField;
    location    "1600";
    object      nut;
}
// * * * * * * * * * * * * * * * * * * * * * * * * * * * * * * * * * * * * * //

dimensions      [0 2 -1 0 0 0 0];

internalField   nonuniform List<scalar> 
180
(
2.68992e-06
2.68984e-06
2.75259e-05
2.75257e-05
6.13512e-05
6.13509e-05
9.62093e-05
9.62088e-05
0.000131826
0.000131826
0.00016746
0.000167459
0.000202848
0.000202847
0.000237926
0.000237924
0.00027272
0.000272718
0.000307302
0.000307299
0.00034176
0.000341756
0.000376195
0.00037619
0.000410706
0.0004107
0.000445394
0.000445387
0.000480353
0.000480344
0.000515672
0.000515661
0.000551431
0.000551418
0.000587705
0.00058769
0.000624556
0.000624539
0.000662042
0.000662022
0.000700206
0.000700184
0.000739084
0.00073906
0.000778703
0.000778676
0.000819077
0.000819048
0.000860213
0.000860181
0.000902108
0.000902074
0.00094475
0.000944713
0.000988118
0.00098808
0.00103219
0.00103214
0.00107691
0.00107687
0.00112227
0.00112222
0.00116819
0.00116814
0.00121463
0.00121458
0.00126154
0.00126149
0.00130885
0.0013088
0.00135651
0.00135645
0.00140443
0.00140438
0.00145257
0.00145251
0.00150084
0.00150078
0.00154918
0.00154913
0.00159753
0.00159747
0.00164581
0.00164575
0.00169396
0.0016939
0.00174191
0.00174185
0.0017896
0.00178954
0.00183697
0.00183691
0.00188395
0.00188389
0.00193048
0.00193042
0.00197652
0.00197646
0.002022
0.00202194
0.00206687
0.00206681
0.00211109
0.00211103
0.00215461
0.00215455
0.00219737
0.00219732
0.00223935
0.0022393
0.0022805
0.00228045
0.00232078
0.00232073
0.00236016
0.0023601
0.0023986
0.00239855
0.00243607
0.00243602
0.00247255
0.0024725
0.002508
0.00250795
0.00254239
0.00254235
0.00257572
0.00257567
0.00260794
0.0026079
0.00263905
0.00263901
0.00266903
0.00266898
0.00269784
0.0026978
0.00272549
0.00272544
0.00275194
0.0027519
0.0027772
0.00277716
0.00280124
0.0028012
0.00282406
0.00282402
0.00284564
0.0028456
0.00286597
0.00286594
0.00288505
0.00288501
0.00290286
0.00290282
0.0029194
0.00291936
0.00293466
0.00293462
0.00294863
0.0029486
0.00296132
0.00296128
0.00297271
0.00297267
0.00298279
0.00298276
0.00299157
0.00299154
0.00299905
0.00299901
0.00300521
0.00300518
0.00301005
0.00301002
0.00301357
0.00301354
0.00301577
0.00301574
0.00301664
0.00301661
)
;

boundaryField
{
    inlet
    {
        type            cyclic;
    }
    outlet
    {
        type            cyclic;
    }
    bottom
    {
        type            symmetry;
    }
    top
    {
        type            nutkWallFunction;
        Cmu             0.09;
        kappa           0.41;
        E               9.8;
        value           uniform 0;
    }
    frontAndBack
    {
        type            empty;
    }
}


// ************************************************************************* //
