/*--------------------------------*- C++ -*----------------------------------*\
  =========                 |
  \\      /  F ield         | OpenFOAM: The Open Source CFD Toolbox
   \\    /   O peration     | Website:  https://openfoam.org
    \\  /    A nd           | Version:  7
     \\/     M anipulation  |
\*---------------------------------------------------------------------------*/
FoamFile
{
    version     2.0;
    format      ascii;
    class       volScalarField;
    location    "1600";
    object      omega;
}
// * * * * * * * * * * * * * * * * * * * * * * * * * * * * * * * * * * * * * //

dimensions      [0 0 -1 0 0 0 0];

internalField   nonuniform List<scalar> 
180
(
2592
2592
880.287
880.287
459.476
459.475
299.067
299.066
218.647
218.647
171.15
171.15
139.988
139.988
118.013
118.013
101.686
101.686
89.0693
89.0694
79.0199
79.0201
70.8203
70.8206
63.9993
63.9996
58.2346
58.2349
53.2987
53.2991
49.0264
49.0268
45.2946
45.295
42.0099
42.0104
39.0999
39.1003
36.5074
36.5078
34.1866
34.1871
32.1006
32.1011
30.2189
30.2193
28.5159
28.5163
26.9705
26.9709
25.5646
25.5649
24.2826
24.283
23.1113
23.1116
22.0391
22.0394
21.0559
21.0562
20.1529
20.1531
19.3222
19.3224
18.557
18.5571
17.8511
17.8512
17.1991
17.1992
16.5962
16.5962
16.0379
16.0379
15.5204
15.5204
15.0402
15.0401
14.594
14.594
14.1792
14.1791
13.793
13.7929
13.4332
13.4331
13.0976
13.0975
12.7844
12.7843
12.4919
12.4917
12.2184
12.2182
11.9625
11.9623
11.7229
11.7227
11.4985
11.4982
11.2881
11.2878
11.0907
11.0905
10.9055
10.9053
10.7317
10.7314
10.5683
10.5681
10.4149
10.4146
10.2707
10.2704
10.1351
10.1348
10.0076
10.0073
9.88773
9.88741
9.775
9.77468
9.669
9.66867
9.56934
9.569
9.47567
9.47532
9.38765
9.3873
9.30498
9.30463
9.22739
9.22703
9.15461
9.15424
9.0864
9.08604
9.02256
9.02219
8.96287
8.96249
8.90714
8.90676
8.85521
8.85483
8.80693
8.80654
8.76213
8.76174
8.7207
8.7203
8.6825
8.68211
8.64743
8.64703
8.61539
8.61499
8.58629
8.58588
8.56004
8.55963
8.53656
8.53616
8.51581
8.51539
8.4977
8.49729
8.4822
8.48179
8.46927
8.46885
8.45885
8.45843
8.45092
8.4505
8.44546
8.44503
8.44242
8.44199
)
;

boundaryField
{
    inlet
    {
        type            cyclic;
    }
    outlet
    {
        type            cyclic;
    }
    bottom
    {
        type            symmetry;
    }
    top
    {
        beta1           0.075;
        blended         0;
        type            omegaWallFunction;
        value           uniform 2592;
    }
    frontAndBack
    {
        type            empty;
    }
}


// ************************************************************************* //
