/*--------------------------------*- C++ -*----------------------------------*\
  =========                 |
  \\      /  F ield         | OpenFOAM: The Open Source CFD Toolbox
   \\    /   O peration     | Website:  https://openfoam.org
    \\  /    A nd           | Version:  7
     \\/     M anipulation  |
\*---------------------------------------------------------------------------*/
FoamFile
{
    version     2.0;
    format      ascii;
    class       volScalarField;
    location    "1600";
    object      p;
}
// * * * * * * * * * * * * * * * * * * * * * * * * * * * * * * * * * * * * * //

dimensions      [0 2 -2 0 0 0 0];

internalField   nonuniform List<scalar> 
180
(
2.89388e-21
-2.38862e-17
7.00629e-22
-2.38858e-17
8.54939e-21
-2.389e-17
4.44023e-20
-2.39344e-17
5.2893e-20
-2.39439e-17
5.00973e-20
-2.39281e-17
4.71414e-20
-2.39089e-17
8.37043e-20
-2.39461e-17
1.26223e-19
-2.39891e-17
1.74354e-19
-2.40115e-17
1.99215e-19
-2.40368e-17
2.26728e-19
-2.40646e-17
3.27282e-19
-2.40952e-17
4.36653e-19
-2.41667e-17
2.66668e-19
-2.40793e-17
2.61249e-19
-2.40742e-17
2.55519e-19
-2.41634e-17
3.50674e-19
-2.41579e-17
4.51844e-19
-2.41522e-17
4.45789e-19
-2.41464e-17
4.39367e-19
-2.41403e-17
4.3302e-19
-2.41343e-17
4.26306e-19
-2.41279e-17
4.19686e-19
-2.41216e-17
4.12717e-19
-2.4115e-17
4.05836e-19
-2.41084e-17
3.98638e-19
-2.41016e-17
3.91524e-19
-2.40948e-17
3.8414e-19
-2.40877e-17
3.76818e-19
-2.40807e-17
3.69275e-19
-2.40735e-17
3.61785e-19
-2.40664e-17
3.54128e-19
-2.40591e-17
3.46502e-19
-2.40517e-17
3.38762e-19
-2.40443e-17
3.31043e-19
-2.40369e-17
3.23262e-19
-2.40294e-17
3.15487e-19
-2.4022e-17
3.07694e-19
-2.40145e-17
2.99904e-19
-2.4007e-17
2.92135e-19
-2.39995e-17
2.84368e-19
-2.3992e-17
2.76653e-19
-2.39845e-17
2.68945e-19
-2.39771e-17
2.61315e-19
-2.39697e-17
2.537e-19
-2.39623e-17
2.46184e-19
-2.3955e-17
2.38693e-19
-2.39477e-17
2.31317e-19
-2.39405e-17
2.23982e-19
-2.39334e-17
2.16774e-19
-2.39264e-17
2.09621e-19
-2.39194e-17
2.02605e-19
-2.39126e-17
1.95662e-19
-2.39058e-17
1.88864e-19
-2.38991e-17
1.82157e-19
-2.38926e-17
1.75599e-19
-2.38862e-17
1.69151e-19
-2.38798e-17
1.62858e-19
-2.38737e-17
1.56692e-19
-2.38676e-17
1.50685e-19
-2.38617e-17
1.44823e-19
-2.3856e-17
1.39125e-19
-2.38504e-17
1.33587e-19
-2.38449e-17
1.28219e-19
-2.38397e-17
1.23025e-19
-2.38345e-17
1.18007e-19
-2.38296e-17
1.13175e-19
-2.38248e-17
1.08526e-19
-2.38203e-17
1.04072e-19
-2.38159e-17
9.98068e-20
-2.38117e-17
9.57454e-20
-2.38077e-17
9.18788e-20
-2.38039e-17
8.82246e-20
-2.38002e-17
8.47705e-20
-2.37968e-17
8.15401e-20
-2.37936e-17
7.85147e-20
-2.37907e-17
7.57228e-20
-2.37879e-17
7.31409e-20
-2.37853e-17
7.07995e-20
-2.3783e-17
6.86742e-20
-2.37809e-17
6.67882e-20
-2.37791e-17
6.51257e-20
-2.37774e-17
6.3699e-20
-2.3776e-17
6.25031e-20
-2.37748e-17
6.15425e-20
-2.37739e-17
6.08166e-20
-2.37731e-17
6.03271e-20
-2.37727e-17
6.00737e-20
-2.37724e-17
6.00412e-20
-2.37724e-17
)
;

boundaryField
{
    inlet
    {
        type            cyclic;
    }
    outlet
    {
        type            cyclic;
    }
    bottom
    {
        type            symmetry;
    }
    top
    {
        type            zeroGradient;
    }
    frontAndBack
    {
        type            empty;
    }
}


// ************************************************************************* //
