/*--------------------------------*- C++ -*----------------------------------*\
  =========                 |
  \\      /  F ield         | OpenFOAM: The Open Source CFD Toolbox
   \\    /   O peration     | Website:  https://openfoam.org
    \\  /    A nd           | Version:  7
     \\/     M anipulation  |
\*---------------------------------------------------------------------------*/
FoamFile
{
    version     2.0;
    format      ascii;
    class       surfaceScalarField;
    location    "1600";
    object      phi;
}
// * * * * * * * * * * * * * * * * * * * * * * * * * * * * * * * * * * * * * //

dimensions      [0 3 -1 0 0 0 0];

internalField   nonuniform List<scalar> 
268
(
0.000613097
-1.24533e-19
2.58683e-20
0.0010948
-2.2212e-19
1.79318e-19
0.00131396
-7.21437e-20
2.31363e-19
0.00144647
-2.30161e-19
1.42018e-19
0.00153998
-2.41163e-19
1.1357e-19
0.00161156
-2.42428e-19
1.05742e-19
0.00166924
-8.12423e-20
1.62179e-19
0.00171736
-2.78904e-19
1.73378e-19
0.00175848
-2.74248e-19
1.56097e-19
0.00179426
-2.46467e-19
1.54989e-19
0.00182583
-2.35324e-19
1.46409e-19
0.00185396
-2.52887e-19
1.32589e-19
0.00187925
-2.3133e-19
1.47336e-19
0.00190214
1.20742e-19
7.5354e-20
0.00192295
2.06243e-20
-5.93028e-20
0.00194197
-1.80197e-20
1.47127e-21
0.00195942
-9.99894e-20
-2.60679e-20
0.00197546
-1.09623e-19
-2.76728e-20
0.00199026
-5.25958e-20
-3.53107e-20
0.00200394
-1.96976e-20
-4.35485e-20
0.00201661
1.28892e-20
-5.04477e-20
0.00202837
4.09661e-20
-5.85711e-20
0.00203929
6.29926e-20
-6.54193e-20
0.00204944
8.183e-20
-7.18056e-20
0.0020589
9.5305e-20
-7.56675e-20
0.00206772
1.06221e-19
-7.88795e-20
0.00207595
1.12914e-19
-7.99804e-20
0.00208364
1.17714e-19
-8.04835e-20
0.00209082
1.19518e-19
-7.96257e-20
0.00209755
1.20177e-19
-7.84339e-20
0.00210384
1.18672e-19
-7.61612e-20
0.00210974
1.16429e-19
-7.33231e-20
0.00211527
1.13095e-19
-7.02883e-20
0.00212046
1.09276e-19
-6.71935e-20
0.00212534
1.04861e-19
-6.39683e-20
0.00212992
1.00423e-19
-6.05405e-20
0.00213422
9.58408e-20
-5.71913e-20
0.00213827
9.14037e-20
-5.37442e-20
0.00214209
8.71632e-20
-5.04931e-20
0.00214568
8.32773e-20
-4.72995e-20
0.00214906
7.98232e-20
-4.43963e-20
0.00215225
7.68573e-20
-4.1745e-20
0.00215526
7.41978e-20
-3.94854e-20
0.0021581
7.18369e-20
-3.74428e-20
0.00216077
7.01206e-20
-3.57153e-20
0.0021633
6.8993e-20
-3.46723e-20
0.00216569
6.8299e-20
-3.40527e-20
0.00216795
6.80116e-20
-3.39949e-20
0.00217008
6.83938e-20
-3.45732e-20
0.0021721
6.92645e-20
-3.57986e-20
0.002174
7.05339e-20
-3.74755e-20
0.0021758
7.21524e-20
-3.96723e-20
0.0021775
7.41942e-20
-4.2437e-20
0.00217911
7.65808e-20
-4.57981e-20
0.00218063
7.92563e-20
-4.94986e-20
0.00218207
8.21511e-20
-5.35565e-20
0.00218343
8.5168e-20
-5.77527e-20
0.00218471
8.83212e-20
-6.2147e-20
0.00218591
9.14897e-20
-6.65754e-20
0.00218705
9.46146e-20
-7.10348e-20
0.00218813
9.75662e-20
-7.52597e-20
0.00218914
1.00292e-19
-7.93487e-20
0.00219009
1.02728e-19
-8.30228e-20
0.00219098
1.04916e-19
-8.63314e-20
0.00219182
1.06642e-19
-8.91077e-20
0.0021926
1.07886e-19
-9.14149e-20
0.00219333
1.08615e-19
-9.30529e-20
0.00219402
1.08817e-19
-9.41306e-20
0.00219465
1.08441e-19
-9.45465e-20
0.00219525
1.07508e-19
-9.43788e-20
0.00219579
1.05965e-19
-9.35092e-20
0.00219629
1.03865e-19
-9.20359e-20
0.00219675
1.0117e-19
-8.99435e-20
0.00219717
9.79606e-20
-8.73264e-20
0.00219755
9.41669e-20
-8.40862e-20
0.00219789
8.99215e-20
-8.04027e-20
0.0021982
8.51983e-20
-7.61999e-20
0.00219846
8.00886e-20
-7.16704e-20
0.00219869
7.45572e-20
-6.67247e-20
0.00219889
6.87236e-20
-6.15144e-20
0.00219905
6.25789e-20
-5.5989e-20
0.00219917
5.6196e-20
-5.02666e-20
0.00219926
4.95817e-20
-4.43298e-20
0.00219932
4.27898e-20
-3.82446e-20
0.00219934
3.58446e-20
-3.20191e-20
0.00219933
2.87848e-20
-2.56982e-20
0.00219928
2.16439e-20
-1.93069e-20
0.0021992
1.44497e-20
-1.28819e-20
0.00219909
7.2285e-21
-6.44088e-21
0.00219894
)
;

boundaryField
{
    inlet
    {
        type            cyclic;
        value           nonuniform List<scalar> 
90
(
-0.000613097
-0.0010948
-0.00131396
-0.00144647
-0.00153998
-0.00161156
-0.00166924
-0.00171736
-0.00175848
-0.00179426
-0.00182583
-0.00185396
-0.00187925
-0.00190214
-0.00192295
-0.00194197
-0.00195942
-0.00197546
-0.00199026
-0.00200394
-0.00201661
-0.00202837
-0.00203929
-0.00204944
-0.0020589
-0.00206772
-0.00207595
-0.00208364
-0.00209082
-0.00209755
-0.00210384
-0.00210974
-0.00211527
-0.00212046
-0.00212534
-0.00212992
-0.00213422
-0.00213827
-0.00214209
-0.00214568
-0.00214906
-0.00215225
-0.00215526
-0.0021581
-0.00216077
-0.0021633
-0.00216569
-0.00216795
-0.00217008
-0.0021721
-0.002174
-0.0021758
-0.0021775
-0.00217911
-0.00218063
-0.00218207
-0.00218343
-0.00218471
-0.00218591
-0.00218705
-0.00218813
-0.00218914
-0.00219009
-0.00219098
-0.00219182
-0.0021926
-0.00219333
-0.00219402
-0.00219465
-0.00219525
-0.00219579
-0.00219629
-0.00219675
-0.00219717
-0.00219755
-0.00219789
-0.0021982
-0.00219846
-0.00219869
-0.00219889
-0.00219905
-0.00219917
-0.00219926
-0.00219932
-0.00219934
-0.00219933
-0.00219928
-0.0021992
-0.00219909
-0.00219894
)
;
    }
    outlet
    {
        type            cyclic;
        value           nonuniform List<scalar> 
90
(
0.000613097
0.0010948
0.00131396
0.00144647
0.00153998
0.00161156
0.00166924
0.00171736
0.00175848
0.00179426
0.00182583
0.00185396
0.00187925
0.00190214
0.00192295
0.00194197
0.00195942
0.00197546
0.00199026
0.00200394
0.00201661
0.00202837
0.00203929
0.00204944
0.0020589
0.00206772
0.00207595
0.00208364
0.00209082
0.00209755
0.00210384
0.00210974
0.00211527
0.00212046
0.00212534
0.00212992
0.00213422
0.00213827
0.00214209
0.00214568
0.00214906
0.00215225
0.00215526
0.0021581
0.00216077
0.0021633
0.00216569
0.00216795
0.00217008
0.0021721
0.002174
0.0021758
0.0021775
0.00217911
0.00218063
0.00218207
0.00218343
0.00218471
0.00218591
0.00218705
0.00218813
0.00218914
0.00219009
0.00219098
0.00219182
0.0021926
0.00219333
0.00219402
0.00219465
0.00219525
0.00219579
0.00219629
0.00219675
0.00219717
0.00219755
0.00219789
0.0021982
0.00219846
0.00219869
0.00219889
0.00219905
0.00219917
0.00219926
0.00219932
0.00219934
0.00219933
0.00219928
0.0021992
0.00219909
0.00219894
)
;
    }
    bottom
    {
        type            symmetry;
        value           uniform 0;
    }
    top
    {
        type            calculated;
        value           uniform 0;
    }
    frontAndBack
    {
        type            empty;
        value           nonuniform 0();
    }
}


// ************************************************************************* //
