/*--------------------------------*- C++ -*----------------------------------*\
  =========                 |
  \\      /  F ield         | OpenFOAM: The Open Source CFD Toolbox
   \\    /   O peration     | Website:  https://openfoam.org
    \\  /    A nd           | Version:  7
     \\/     M anipulation  |
\*---------------------------------------------------------------------------*/
FoamFile
{
    version     2.0;
    format      ascii;
    class       volVectorField;
    location    "1600";
    object      U;
}
// * * * * * * * * * * * * * * * * * * * * * * * * * * * * * * * * * * * * * //

dimensions      [0 1 -1 0 0 0 0];

internalField   nonuniform List<vector> 
180
(
(0.551787 5.37194e-20 0)
(0.551785 -1.5087e-19 0)
(0.985324 -5.75233e-19 0)
(0.985322 4.04668e-19 0)
(1.18256 -2.11276e-19 0)
(1.18256 3.63251e-19 0)
(1.30182 -2.92632e-19 0)
(1.30182 3.12138e-19 0)
(1.38598 -4.84907e-19 0)
(1.38598 2.66429e-19 0)
(1.45041 -4.9431e-19 0)
(1.4504 2.21403e-19 0)
(1.50232 -2.99155e-19 0)
(1.50232 2.58848e-19 0)
(1.54562 -3.73873e-19 0)
(1.54562 3.30273e-19 0)
(1.58263 -5.54712e-19 0)
(1.58263 3.321e-19 0)
(1.61484 -5.17248e-19 0)
(1.61484 3.13068e-19 0)
(1.64325 -4.86184e-19 0)
(1.64324 3.0229e-19 0)
(1.66857 -4.98215e-19 0)
(1.66857 2.834e-19 0)
(1.69133 -4.71011e-19 0)
(1.69133 2.67154e-19 0)
(1.71192 -9.27181e-20 0)
(1.71192 2.11084e-19 0)
(1.73066 1.51843e-19 0)
(1.73066 1.54005e-20 0)
(1.74778 1.52579e-20 0)
(1.74777 -6.1964e-20 0)
(1.76348 -1.33486e-19 0)
(1.76347 -1.76124e-20 0)
(1.77792 -2.2295e-19 0)
(1.77792 -4.58411e-20 0)
(1.79124 -1.72889e-19 0)
(1.79124 -6.37015e-20 0)
(1.80355 -7.76089e-20 0)
(1.80355 -7.8683e-20 0)
(1.81495 -2.86314e-21 0)
(1.81495 -9.42761e-20 0)
(1.82553 5.59843e-20 0)
(1.82553 -1.08662e-19 0)
(1.83536 1.06356e-19 0)
(1.83536 -1.24435e-19 0)
(1.8445 1.46987e-19 0)
(1.8445 -1.38282e-19 0)
(1.85301 1.79078e-19 0)
(1.85301 -1.47971e-19 0)
(1.86095 2.03243e-19 0)
(1.86095 -1.55506e-19 0)
(1.86835 2.20623e-19 0)
(1.86835 -1.59272e-19 0)
(1.87527 2.31892e-19 0)
(1.87527 -1.61223e-19 0)
(1.88174 2.38223e-19 0)
(1.88174 -1.60265e-19 0)
(1.88779 2.40459e-19 0)
(1.88779 -1.58548e-19 0)
(1.89346 2.39716e-19 0)
(1.89346 -1.54972e-19 0)
(1.89877 2.35392e-19 0)
(1.89877 -1.49784e-19 0)
(1.90374 2.29984e-19 0)
(1.90374 -1.43484e-19 0)
(1.90842 2.22647e-19 0)
(1.90842 -1.37636e-19 0)
(1.9128 2.1425e-19 0)
(1.9128 -1.31223e-19 0)
(1.91693 2.05331e-19 0)
(1.91693 -1.24543e-19 0)
(1.9208 1.96262e-19 0)
(1.9208 -1.17739e-19 0)
(1.92445 1.87157e-19 0)
(1.92445 -1.10909e-19 0)
(1.92788 1.78417e-19 0)
(1.92788 -1.04179e-19 0)
(1.93111 1.70244e-19 0)
(1.93111 -9.76973e-20 0)
(1.93415 1.62864e-19 0)
(1.93415 -9.15644e-20 0)
(1.93702 1.56411e-19 0)
(1.93702 -8.59714e-20 0)
(1.93973 1.51036e-19 0)
(1.93973 -8.10269e-20 0)
(1.94229 1.45726e-19 0)
(1.94229 -7.69067e-20 0)
(1.9447 1.41646e-19 0)
(1.9447 -7.28411e-20 0)
(1.94697 1.38806e-19 0)
(1.94697 -7.0045e-20 0)
(1.94912 1.37192e-19 0)
(1.94912 -6.85992e-20 0)
(1.95115 1.35976e-19 0)
(1.95116 -6.7652e-20 0)
(1.95307 1.36091e-19 0)
(1.95307 -6.82734e-20 0)
(1.95489 1.37462e-19 0)
(1.95489 -7.00655e-20 0)
(1.9566 1.3961e-19 0)
(1.9566 -7.30772e-20 0)
(1.95822 1.42511e-19 0)
(1.95822 -7.68694e-20 0)
(1.95975 1.46105e-19 0)
(1.95975 -8.17696e-20 0)
(1.9612 1.50667e-19 0)
(1.9612 -8.8024e-20 0)
(1.96257 1.55657e-19 0)
(1.96257 -9.51194e-20 0)
(1.96386 1.6137e-19 0)
(1.96386 -1.02923e-19 0)
(1.96508 1.67228e-19 0)
(1.96508 -1.11248e-19 0)
(1.96623 1.73453e-19 0)
(1.96624 -1.19818e-19 0)
(1.96732 1.79818e-19 0)
(1.96732 -1.28706e-19 0)
(1.96835 1.86157e-19 0)
(1.96835 -1.37661e-19 0)
(1.96931 1.92281e-19 0)
(1.96931 -1.46407e-19 0)
(1.97022 1.98006e-19 0)
(1.97022 -1.54705e-19 0)
(1.97108 2.03137e-19 0)
(1.97108 -1.62609e-19 0)
(1.97188 2.07801e-19 0)
(1.97188 -1.69559e-19 0)
(1.97264 2.11836e-19 0)
(1.97264 -1.75691e-19 0)
(1.97334 2.14756e-19 0)
(1.97334 -1.8081e-19 0)
(1.974 2.16765e-19 0)
(1.974 -1.84785e-19 0)
(1.97462 2.1772e-19 0)
(1.97462 -1.87484e-19 0)
(1.97519 2.17525e-19 0)
(1.97519 -1.8899e-19 0)
(1.97572 2.16263e-19 0)
(1.97572 -1.8924e-19 0)
(1.97621 2.13747e-19 0)
(1.97621 -1.88236e-19 0)
(1.97666 2.10139e-19 0)
(1.97666 -1.85841e-19 0)
(1.97708 2.05293e-19 0)
(1.97708 -1.82257e-19 0)
(1.97746 1.99415e-19 0)
(1.97746 -1.77565e-19 0)
(1.9778 1.92391e-19 0)
(1.9778 -1.71679e-19 0)
(1.9781 1.84312e-19 0)
(1.97811 -1.64728e-19 0)
(1.97838 1.75336e-19 0)
(1.97838 -1.56812e-19 0)
(1.97862 1.65493e-19 0)
(1.97862 -1.48051e-19 0)
(1.97882 1.54826e-19 0)
(1.97883 -1.38564e-19 0)
(1.979 1.43433e-19 0)
(1.979 -1.28389e-19 0)
(1.97914 1.31438e-19 0)
(1.97914 -1.17626e-19 0)
(1.97925 1.18895e-19 0)
(1.97925 -1.06362e-19 0)
(1.97933 1.05879e-19 0)
(1.97934 -9.46836e-20 0)
(1.97938 9.24548e-20 0)
(1.97939 -8.2649e-20 0)
(1.9794 7.87008e-20 0)
(1.97941 -7.03215e-20 0)
(1.97939 6.468e-20 0)
(1.9794 -5.77598e-20 0)
(1.97935 5.04579e-20 0)
(1.97935 -4.50305e-20 0)
(1.97928 3.61185e-20 0)
(1.97928 -3.21983e-20 0)
(1.97918 2.16829e-20 0)
(1.97918 -1.93325e-20 0)
(1.97905 7.25059e-21 0)
(1.97905 -6.45126e-21 0)
)
;

boundaryField
{
    inlet
    {
        type            cyclic;
    }
    outlet
    {
        type            cyclic;
    }
    bottom
    {
        type            symmetry;
    }
    top
    {
        type            noSlip;
    }
    frontAndBack
    {
        type            empty;
    }
}


// ************************************************************************* //
