/*--------------------------------*- C++ -*----------------------------------*\
  =========                 |
  \\      /  F ield         | OpenFOAM: The Open Source CFD Toolbox
   \\    /   O peration     | Website:  https://openfoam.org
    \\  /    A nd           | Version:  7
     \\/     M anipulation  |
\*---------------------------------------------------------------------------*/
FoamFile
{
    version     2.0;
    format      ascii;
    class       volScalarField;
    location    "77";
    object      k;
}
// * * * * * * * * * * * * * * * * * * * * * * * * * * * * * * * * * * * * * //

dimensions      [0 2 -2 0 0 0 0];

internalField   nonuniform List<scalar> 
12842
(
0.00565967
0.00508712
0.00470098
0.00445466
0.0042725
0.00417858
0.00409313
0.00404728
0.0040193
0.00403163
0.00407542
0.0041739
0.00432151
0.00445668
0.00450978
0.00454856
0.004602
0.00463802
0.00467171
0.00468667
0.0046981
0.00473282
0.00473094
0.00563239
0.00501593
0.0046663
0.00443705
0.00426024
0.00416633
0.00408451
0.00403916
0.00401618
0.00403376
0.00408506
0.00419693
0.00433483
0.00446485
0.0045266
0.00455934
0.00460438
0.00464268
0.00467346
0.00469629
0.00470493
0.00473765
0.00473622
0.00556584
0.0049412
0.00458773
0.0043669
0.00421073
0.00412465
0.00405455
0.0040158
0.00400767
0.00403184
0.00409795
0.00423166
0.00436213
0.00448003
0.00453736
0.00456728
0.00461338
0.00464446
0.00468336
0.00470465
0.00471396
0.00472962
0.00473678
0.00552141
0.00486805
0.00452793
0.00432649
0.00418471
0.00410646
0.00404199
0.00400356
0.00400291
0.00403621
0.00411076
0.00426343
0.00438395
0.00449465
0.00455266
0.00457561
0.00463323
0.00466054
0.00469003
0.00470043
0.00472804
0.00475212
0.00473503
0.00543087
0.00479128
0.00445826
0.00426414
0.00414178
0.00406785
0.00401498
0.00398668
0.00399416
0.00403491
0.00412927
0.00429235
0.00440632
0.00450554
0.00457043
0.00459014
0.00463153
0.00466602
0.00467962
0.00469476
0.00471806
0.00473103
0.00473859
0.00537844
0.00471228
0.0043953
0.00421862
0.00410726
0.00404983
0.00400031
0.00397551
0.00398757
0.00403655
0.00414223
0.00432071
0.00442465
0.00451452
0.00458577
0.00460648
0.00464106
0.00469881
0.0047041
0.0047131
0.00472774
0.00475039
0.00472013
0.00528758
0.00464633
0.00433592
0.00417246
0.00407452
0.0040191
0.00397981
0.00396311
0.00397963
0.00403916
0.00416542
0.00435699
0.00444216
0.00451995
0.00460562
0.00462392
0.00465461
0.00467819
0.00469027
0.00471902
0.00473498
0.00473622
0.00474131
0.00523155
0.00457823
0.00428328
0.0041321
0.00404472
0.00400312
0.00396585
0.00395342
0.00397326
0.00404153
0.0041749
0.00438027
0.00444931
0.00453052
0.00466031
0.00467357
0.00469408
0.0047112
0.00470397
0.00471217
0.00473403
0.00474258
0.00475223
0.00513697
0.00452335
0.00423762
0.00409801
0.00401956
0.00398274
0.0039513
0.00394391
0.00396554
0.00404424
0.00419407
0.0043983
0.00445551
0.0045411
0.0046722
0.00469243
0.00470082
0.00469868
0.00471134
0.0047211
0.00475886
0.0047386
0.0047556
0.00507846
0.0044578
0.00419326
0.00406556
0.00399824
0.00396988
0.00394095
0.00393686
0.00396047
0.00404688
0.00420175
0.00443879
0.00446184
0.00454832
0.00467618
0.00469968
0.00470059
0.00470465
0.00472428
0.00472376
0.00474217
0.00476479
0.00476098
0.00497976
0.00440818
0.0041557
0.00403736
0.00397947
0.0039551
0.00393027
0.00392942
0.00395948
0.00405134
0.00421909
0.00446487
0.00446621
0.00456655
0.00467594
0.00470481
0.00472861
0.00471334
0.0047229
0.00475262
0.00476255
0.00475762
0.00476259
0.00490852
0.00435197
0.00411708
0.00400934
0.00396114
0.00394127
0.00392115
0.00392274
0.00395464
0.00405534
0.0042324
0.00448604
0.00447806
0.00458567
0.00467368
0.00471148
0.00473361
0.00471551
0.00475057
0.00475544
0.0047723
0.00475378
0.00476563
0.0048216
0.00430898
0.00408507
0.00398584
0.00394541
0.00392861
0.00391206
0.00391556
0.0039579
0.00406558
0.00425613
0.00450343
0.00448635
0.00460652
0.00470431
0.00472993
0.00472998
0.00473225
0.00475418
0.0047634
0.00477834
0.00474846
0.00476655
0.00474892
0.00426327
0.00405169
0.00396242
0.00392898
0.00391496
0.00390365
0.00390883
0.00395669
0.00407205
0.00427805
0.00451663
0.00450493
0.00461491
0.00470964
0.00473668
0.00475541
0.00474014
0.00475376
0.0047692
0.00478387
0.00476965
0.00477149
0.00468662
0.00422556
0.00402399
0.00394378
0.00391406
0.00390391
0.00389534
0.00390183
0.00395687
0.00408127
0.00430379
0.0045565
0.00451798
0.00464617
0.00469264
0.00472472
0.00475992
0.00477141
0.004769
0.00476408
0.00478297
0.00476667
0.00481096
0.00462759
0.00418969
0.00399595
0.00392521
0.00389973
0.0038925
0.00388672
0.00389549
0.00395841
0.00409277
0.00432536
0.0045578
0.00453819
0.00464837
0.00471807
0.00474963
0.00476185
0.00477737
0.00477138
0.00477684
0.004808
0.00483996
0.00498403
0.00458071
0.00415501
0.00397265
0.00391023
0.00388535
0.00388223
0.00387856
0.00388906
0.00395951
0.00410206
0.00435591
0.00456602
0.00455407
0.00465674
0.00471749
0.00475202
0.00476365
0.00477713
0.00479224
0.00483686
0.00486347
0.00497852
0.00513899
0.00453564
0.00412669
0.00395016
0.00389523
0.00387367
0.00387367
0.00386959
0.00388381
0.00395556
0.00411337
0.0043725
0.00453616
0.00457113
0.0046594
0.00470142
0.00474361
0.00478718
0.00480678
0.00487748
0.00495481
0.0050842
0.00527531
0.00550842
0.00449818
0.00409428
0.0039313
0.00388247
0.00386092
0.00386371
0.00386197
0.00387897
0.00396236
0.00412635
0.00440629
0.00456329
0.00458906
0.00464712
0.00470343
0.00476271
0.00481552
0.00489293
0.00498695
0.00514725
0.00528975
0.00561612
0.00597369
0.00446499
0.0040715
0.00391415
0.00386988
0.00385208
0.00385662
0.00385366
0.0038757
0.00396334
0.0041353
0.00442742
0.00455043
0.00460219
0.00465493
0.00472813
0.0047961
0.00489948
0.00502072
0.0051782
0.00541009
0.00593865
0.00653422
0.0068817
0.00443477
0.00404229
0.00389849
0.00385753
0.00384097
0.00384738
0.00384719
0.0038726
0.00396053
0.00414976
0.00445699
0.00457939
0.00462797
0.0046958
0.00476641
0.00491963
0.005018
0.00516869
0.00540286
0.00593702
0.00660804
0.00729373
0.00768717
0.0044098
0.00402323
0.00388597
0.00384734
0.00383488
0.00384031
0.0038407
0.00387143
0.00395967
0.00416079
0.00448921
0.0045962
0.00465161
0.00473178
0.00486085
0.00498976
0.00514302
0.00540232
0.00587519
0.00660226
0.0075
0.008282
0.00938381
0.00438504
0.0039992
0.00387246
0.00383444
0.00382496
0.00383233
0.00383533
0.00386906
0.00396729
0.00418438
0.00451577
0.00461219
0.00470986
0.00484483
0.00496535
0.0051543
0.00535842
0.00570991
0.00635931
0.00743601
0.00888296
0.0115466
0.0178725
0.00436902
0.00398525
0.00386551
0.00382857
0.00382185
0.00382681
0.00383212
0.00386965
0.00396752
0.00421999
0.00453481
0.0046279
0.00476981
0.00491113
0.0050644
0.00526114
0.00552563
0.00611333
0.00714588
0.00917885
0.0145649
0.0318778
0.0856478
0.00435351
0.00397251
0.00386037
0.00382212
0.00381829
0.00382304
0.00382997
0.00386937
0.00396806
0.00422158
0.00454724
0.00468563
0.00486816
0.00505399
0.00525611
0.00549276
0.00588856
0.00676578
0.00887741
0.0148903
0.0357424
0.110685
0.335246
0.00434216
0.00396328
0.00385581
0.00381875
0.00381635
0.00382034
0.00382866
0.00386953
0.00396535
0.00421559
0.00457189
0.00476335
0.00500375
0.00515797
0.00535235
0.00564108
0.00620299
0.00763694
0.0115963
0.0250511
0.0731743
0.21746
0.513781
0.00432764
0.00395364
0.00385124
0.00381269
0.00381268
0.00381756
0.00382701
0.00386981
0.00396705
0.00421784
0.0046041
0.00486635
0.00508383
0.00530823
0.00557732
0.0059291
0.00668111
0.00877911
0.0150888
0.038697
0.117601
0.301683
0.572119
0.00431666
0.00394453
0.00384692
0.00380946
0.00381014
0.00381566
0.00382605
0.00387071
0.00398306
0.0042644
0.0046978
0.00501192
0.00527531
0.00549043
0.00571802
0.00617983
0.00723068
0.00988796
0.0193526
0.0565542
0.169866
0.397748
0.730386
0.00430329
0.00393721
0.00384185
0.00380409
0.00380671
0.00381329
0.00382385
0.00387298
0.00400645
0.00430859
0.00477624
0.00510833
0.00536841
0.00561439
0.00599775
0.00651253
0.00767691
0.0113328
0.0252127
0.0829759
0.2485
0.550894
0.966125
0.00429262
0.00392885
0.00383872
0.00380046
0.00380271
0.00381154
0.00382307
0.00387705
0.00404123
0.00439755
0.00492267
0.00529301
0.005565
0.00586973
0.00617677
0.00683935
0.00830077
0.0125606
0.0319971
0.117431
0.357549
0.766495
1.24633
0.00427996
0.0039221
0.00383322
0.00379589
0.0037993
0.00380873
0.00382314
0.00388336
0.00408194
0.00446293
0.00501653
0.00539031
0.00568017
0.00602754
0.00651614
0.00718579
0.00878106
0.014545
0.0460352
0.189112
0.550593
1.07775
1.61413
0.00426966
0.0039145
0.00383048
0.00379177
0.00379487
0.0038061
0.00382315
0.00389579
0.00413376
0.00457714
0.00519141
0.0055975
0.00593298
0.00631176
0.00672819
0.0075698
0.00942227
0.0173159
0.0666616
0.278444
0.724181
1.28523
1.82222
0.00425771
0.0039076
0.00382548
0.00378714
0.00379015
0.00380309
0.00382527
0.00392103
0.00419408
0.00466357
0.0053085
0.00572166
0.00606688
0.00651506
0.007131
0.00798036
0.0100904
0.0204208
0.0878187
0.356685
0.86981
1.4495
1.99437
0.00424754
0.00389972
0.00382286
0.00378312
0.00378466
0.00380025
0.00383049
0.00395507
0.00426473
0.00479761
0.00549585
0.00593984
0.00635563
0.00685488
0.00738731
0.00831402
0.0107314
0.0236532
0.108327
0.412509
0.926613
1.43492
1.91635
0.0042363
0.00389214
0.00381768
0.00377841
0.00378013
0.00379587
0.00384246
0.00400333
0.00434593
0.00490558
0.00564321
0.0061156
0.00654214
0.00708633
0.00779458
0.00884711
0.0114886
0.0267356
0.122523
0.456297
1.01152
1.51764
1.92277
0.00422588
0.0038834
0.00381471
0.00377302
0.00377577
0.00379573
0.00386596
0.00406026
0.00443538
0.00505449
0.00583458
0.00632603
0.00683965
0.00747056
0.00815517
0.00920329
0.0122951
0.0303533
0.142346
0.524797
1.11133
1.5942
1.73625
0.00421576
0.00387434
0.0038086
0.0037687
0.00376992
0.0038014
0.00389793
0.00413104
0.004536
0.00518348
0.00601258
0.00656035
0.0070962
0.00773572
0.00845306
0.00993417
0.0133701
0.0340445
0.174349
0.57
1.1704
1.57934
1.50781
0.00420399
0.00386448
0.00380522
0.00376464
0.00376878
0.0038238
0.00394282
0.00420837
0.00464135
0.00533875
0.00620089
0.00675993
0.0073524
0.00811458
0.00898935
0.0106319
0.0149266
0.0381517
0.191925
0.653623
1.39501
1.53543
1.14226
0.00419517
0.00385396
0.0037981
0.0037584
0.00377302
0.00385416
0.00399772
0.00429641
0.00475564
0.0054844
0.00639746
0.00701972
0.00766412
0.0084613
0.00945745
0.0120806
0.0167701
0.0450008
0.27063
0.627918
0.982508
0.873678
0.284497
0.00418126
0.00384424
0.00379487
0.00375311
0.00379317
0.00390063
0.00406545
0.00438918
0.00487279
0.00563837
0.00658379
0.00722958
0.00788413
0.00873011
0.0103012
0.0140132
0.0186527
0.0439264
0.247093
0.619403
0.913607
0.394572
0.135637
0.0041733
0.00383291
0.00378693
0.00375528
0.00382333
0.00395345
0.00414164
0.00448727
0.00499118
0.00578888
0.00677199
0.0074629
0.00820022
0.00931786
0.0118704
0.0165798
0.0207628
0.0404189
0.234194
0.486397
0.518688
0.169252
0.0988857
0.00415761
0.00382475
0.003788
0.00377065
0.00386746
0.00402281
0.00422803
0.00459008
0.00511496
0.00593696
0.00695469
0.00768345
0.00849849
0.010019
0.0141248
0.0195793
0.0232725
0.0412147
0.152404
0.232201
0.276768
0.119057
0.0821971
0.00414889
0.00381609
0.00379652
0.00379871
0.00392019
0.00409719
0.00431921
0.00469141
0.00522838
0.00607899
0.00712422
0.0079053
0.00879609
0.0111549
0.0174512
0.0228874
0.0258038
0.0353091
0.0829588
0.134654
0.0940688
0.076448
0.0803657
0.0041325
0.00380713
0.00382353
0.0038387
0.00398656
0.00418467
0.00441741
0.00479818
0.00535157
0.0062176
0.00728226
0.00810784
0.00942777
0.0132838
0.0208243
0.026234
0.028628
0.0341184
0.0557713
0.0712728
0.0699082
0.0715846
0.0701274
0.0041228
0.00380409
0.00385942
0.0038883
0.00406051
0.0042745
0.00451606
0.00489762
0.00545464
0.00634056
0.00744391
0.00838832
0.0100508
0.0165894
0.0253016
0.0295049
0.0312973
0.0352262
0.0470132
0.0608445
0.0646267
0.0698042
0.0746359
0.0041074
0.00381287
0.00390701
0.00394924
0.00414463
0.00437214
0.00461862
0.00500159
0.00556983
0.00647053
0.00757618
0.00865003
0.0115792
0.0215073
0.029603
0.0325338
0.0339972
0.0374028
0.0491407
0.0581704
0.0659639
0.0669506
0.0751656
0.00410017
0.00383165
0.00396422
0.00402049
0.00423334
0.00447037
0.00471812
0.00509579
0.00565994
0.00656592
0.00772393
0.00913123
0.0135555
0.0270974
0.0348046
0.0352131
0.0364736
0.0396184
0.0488341
0.0592807
0.0651791
0.0691005
0.0743429
0.00408752
0.00386987
0.00402985
0.00409934
0.00432795
0.0045706
0.00481854
0.00519143
0.00576283
0.00669313
0.0079006
0.00977017
0.0172264
0.0339037
0.0400371
0.0374324
0.0386489
0.0417906
0.0512371
0.0610001
0.0670596
0.0714308
0.0777539
0.00408365
0.00390952
0.00410639
0.00418939
0.00442749
0.00467459
0.00491738
0.0052807
0.00584136
0.00676393
0.00804723
0.0108371
0.0215776
0.0397776
0.0454719
0.0392864
0.0406394
0.0438306
0.0531524
0.0613021
0.0686369
0.0708765
0.0763302
0.00408988
0.00397476
0.00419176
0.00428722
0.00453236
0.00477829
0.00501673
0.00536932
0.00593029
0.00688393
0.00834449
0.0122011
0.0267897
0.0456028
0.0494797
0.0398584
0.0414912
0.0446913
0.054907
0.0631315
0.0691931
0.0724293
0.0758441
0.00411389
0.00404067
0.00428163
0.00438849
0.004635
0.00487969
0.0051084
0.00544735
0.00599461
0.00694302
0.00851876
0.0136765
0.0323943
0.0505553
0.0520266
0.0423027
0.0434765
0.0463752
0.0560219
0.0645117
0.0704458
0.0743218
0.0766038
0.00415058
0.00412538
0.00437251
0.00448958
0.00473364
0.00497246
0.00519301
0.00551863
0.00605896
0.00703607
0.00888193
0.0155277
0.0376805
0.0553896
0.0538391
0.0415003
0.0435856
0.0462736
0.0569442
0.0661402
0.0700708
0.0751196
0.0770292
0.00419358
0.00420845
0.00446242
0.00458877
0.0048278
0.00506018
0.00527001
0.00558074
0.00610846
0.00709421
0.00912665
0.0171316
0.0430541
0.0597815
0.055294
0.0412424
0.0440722
0.0487445
0.0573976
0.0616383
0.0633459
0.069793
0.0704599
0.00424529
0.00430369
0.00455184
0.00468659
0.00491644
0.0051403
0.00533986
0.00563675
0.00615539
0.0071727
0.00952894
0.0191461
0.0480487
0.0631947
0.0558458
0.0425218
0.0440531
0.0474948
0.0541286
0.0585817
0.0608746
0.0654343
0.0650217
0.00430315
0.00439513
0.00463731
0.00477913
0.00499927
0.00521331
0.00540261
0.00568515
0.00619209
0.00723069
0.00983998
0.0207852
0.0523876
0.0659939
0.0566484
0.0415035
0.0451143
0.0459448
0.0503651
0.0545615
0.0563259
0.0577415
0.0567953
0.00436722
0.00449097
0.00472073
0.0048688
0.005076
0.00528032
0.00545917
0.00572875
0.00622715
0.00730014
0.0102491
0.0229077
0.0562202
0.0678001
0.0570038
0.0419454
0.0442006
0.0444615
0.0478649
0.0513576
0.0522941
0.0532477
0.0530461
0.00443262
0.004577
0.00479415
0.00494577
0.0051409
0.00533443
0.00550498
0.00576266
0.00625202
0.00735159
0.0105811
0.0245742
0.0586393
0.0690857
0.0574313
0.0417867
0.0428586
0.0430148
0.0455615
0.0477361
0.0477539
0.0473176
0.0480937
0.00449592
0.00465788
0.00486206
0.00501642
0.00519851
0.00538252
0.00554582
0.0057928
0.00627415
0.00740201
0.0109259
0.0262969
0.0604866
0.069809
0.0580362
0.0421208
0.0414427
0.0415044
0.0434491
0.0445749
0.0436595
0.0423326
0.0444184
0.00456315
0.00473607
0.00492715
0.00508236
0.00525218
0.00542456
0.00558319
0.00581986
0.00629333
0.00745247
0.0112848
0.0278254
0.0618555
0.0702066
0.0594852
0.0421896
0.0400109
0.039813
0.04132
0.0415747
0.040102
0.0384226
0.0400709
0.00462848
0.00481014
0.0049891
0.00514366
0.00530032
0.00546211
0.00561708
0.00584414
0.00631044
0.00750263
0.0116282
0.029128
0.0624591
0.0701226
0.0593466
0.0414849
0.0383772
0.0378738
0.0390065
0.0386367
0.0369811
0.0354231
0.0350445
0.00469597
0.00488059
0.00504768
0.00519972
0.00534428
0.00549362
0.00564767
0.00586583
0.00632561
0.00755353
0.0119313
0.0301899
0.0625918
0.0688352
0.0579879
0.0404067
0.0364817
0.0357567
0.0365888
0.0363725
0.0343566
0.0325101
0.0310419
0.00475856
0.00494478
0.00510198
0.00525015
0.00538282
0.0055216
0.0056754
0.00588531
0.00633951
0.00760342
0.0121895
0.0307262
0.0622552
0.065961
0.0554451
0.0388917
0.0343419
0.0330604
0.0336677
0.032707
0.0303623
0.0287783
0.0281761
0.0048222
0.0050047
0.00515283
0.00529562
0.0054177
0.00554469
0.00570011
0.00590278
0.00635255
0.00765011
0.0123843
0.0309035
0.060568
0.0620762
0.0520257
0.0369372
0.0319345
0.030561
0.0310722
0.0305471
0.0283501
0.0266907
0.0248073
0.00487882
0.00505796
0.005199
0.0053357
0.00544765
0.00556548
0.00572246
0.0059187
0.00636524
0.00769528
0.0124862
0.0307477
0.0576107
0.0572448
0.0478402
0.0344867
0.0294076
0.027977
0.028069
0.0277063
0.025798
0.0239215
0.0224153
0.00493718
0.00510752
0.00524172
0.00537128
0.00547494
0.00558335
0.00574243
0.00593319
0.00637798
0.00773067
0.0125248
0.0298611
0.0537756
0.0518482
0.0431929
0.0317085
0.0268011
0.0250472
0.0254681
0.0257719
0.0239004
0.0215393
0.0197837
0.00498692
0.00515061
0.00528077
0.00540325
0.00549849
0.00559949
0.00576025
0.00594669
0.00639094
0.00775931
0.012457
0.0283717
0.0491558
0.0460496
0.0383519
0.0287601
0.0242487
0.022802
0.0229223
0.0230536
0.0218976
0.0200304
0.0187376
0.00503968
0.00519185
0.00531598
0.00543089
0.00551988
0.00561498
0.00577646
0.00595911
0.00640447
0.00779136
0.0122432
0.0265162
0.0441277
0.0403887
0.0336382
0.0257546
0.021867
0.0204046
0.0206381
0.0212884
0.020287
0.0185626
0.0176755
0.00508371
0.00522682
0.00534929
0.00545724
0.00553956
0.00562845
0.00579049
0.00597071
0.00641823
0.0078034
0.0119436
0.0244099
0.0388708
0.0348663
0.029249
0.0229684
0.019655
0.0183225
0.01837
0.0189779
0.0181276
0.0169932
0.0162802
0.00513063
0.00526192
0.00537853
0.00547968
0.00555706
0.00564293
0.0058035
0.00598119
0.00643231
0.00779388
0.011572
0.0222112
0.0337834
0.0298506
0.0253157
0.020348
0.0178051
0.0166778
0.0164868
0.0175097
0.0168784
0.0160225
0.0156729
0.00517077
0.00529132
0.00540719
0.00550216
0.00557443
0.00565548
0.00581441
0.00599073
0.00644598
0.00776544
0.0111669
0.0200399
0.029036
0.0253594
0.0219842
0.0181105
0.0161261
0.0153503
0.0152388
0.0156819
0.0158779
0.015397
0.01576
0.00521218
0.0053224
0.0054328
0.00552208
0.00559071
0.00566892
0.00582455
0.00599891
0.00645939
0.0077229
0.0107379
0.0179955
0.0247864
0.0215633
0.0191163
0.0162139
0.0148567
0.0143833
0.0144013
0.0146357
0.0154318
0.0151458
0.015757
0.00524934
0.00534835
0.00545706
0.00554166
0.00560618
0.00568204
0.00583294
0.006006
0.00647184
0.00767178
0.0103265
0.0161704
0.0211936
0.0184432
0.0168409
0.0146421
0.0137771
0.0136213
0.0137883
0.0142427
0.0145088
0.0146479
0.0152463
0.00528576
0.00537701
0.00548169
0.00556123
0.00562319
0.00569433
0.00584108
0.00601164
0.00648396
0.00760962
0.00993009
0.0145522
0.0181759
0.0159242
0.0149982
0.0134346
0.0130034
0.013055
0.0135756
0.0138091
0.0142477
0.0145526
0.0147917
0.00532136
0.00540151
0.00550244
0.00557822
0.00563786
0.00570823
0.00584706
0.00601626
0.00649486
0.00754743
0.00957846
0.0132217
0.0157795
0.0141017
0.0136191
0.0126664
0.0124136
0.0127169
0.0133294
0.0138619
0.0139874
0.0148897
0.0148904
0.00535169
0.00542871
0.00552578
0.00559856
0.00565486
0.00572063
0.00585477
0.00601961
0.0065057
0.00748122
0.00925445
0.0120874
0.0138471
0.0126825
0.012543
0.0119987
0.012314
0.0127021
0.0132125
0.013683
0.0142941
0.014542
0.0153313
0.00538563
0.00545259
0.00554675
0.00561448
0.00567118
0.0057338
0.00585888
0.00602228
0.00651526
0.00741782
0.00898344
0.0111923
0.0125018
0.0117404
0.011764
0.0117041
0.0122179
0.0125684
0.0130267
0.0136603
0.0140554
0.01493
0.0154683
0.00541598
0.00547804
0.00556717
0.0056329
0.00568585
0.00574755
0.00586643
0.006024
0.0065243
0.00735772
0.00873433
0.0104756
0.0115183
0.0110502
0.0113546
0.0115166
0.0120169
0.0126508
0.0131753
0.0136203
0.0140603
0.0145579
0.0154678
0.00543795
0.00550678
0.00558838
0.0056526
0.00570572
0.00576031
0.00587047
0.00602553
0.00653289
0.00730883
0.00852949
0.00993755
0.0107304
0.0107738
0.011312
0.0115424
0.0118786
0.0124904
0.0131685
0.0136925
0.0136803
0.015759
0.0159873
0.00547343
0.00552226
0.00561043
0.00566598
0.00571679
0.00577368
0.00587647
0.00602643
0.00653979
0.00724493
0.00835835
0.00944042
0.0104621
0.0106357
0.0112577
0.0115348
0.0119525
0.0125859
0.0130715
0.0137185
0.0138544
0.0141514
0.0156154
0.00549494
0.00555787
0.00562567
0.00568598
0.00573735
0.00578624
0.00588342
0.00602756
0.00654671
0.00722916
0.00820775
0.0092504
0.0103427
0.010546
0.0111218
0.0115275
0.0117984
0.012598
0.0130323
0.0136471
0.0139396
0.0142906
0.014993
0.00550499
0.00557454
0.00565567
0.00570668
0.00575196
0.00579947
0.00588289
0.00602825
0.00655196
0.00721658
0.00806738
0.00914614
0.0102756
0.0104799
0.0110251
0.0114507
0.0118835
0.0125726
0.0132882
0.0135449
0.0136906
0.0143358
0.0145173
0.00551722
0.0055876
0.00565601
0.00570734
0.00575729
0.00581113
0.00588341
0.0060296
0.00655672
0.00720316
0.0080704
0.00915757
0.0101452
0.0104059
0.0110979
0.0114292
0.0117867
0.0125812
0.0132952
0.0137445
0.0143822
0.0142347
0.0148125
0.00551134
0.00558659
0.00565993
0.00570976
0.00576597
0.00581849
0.00588508
0.00603032
0.00656029
0.00719567
0.00805716
0.00914291
0.0101982
0.0104835
0.0111004
0.011444
0.0117432
0.0125866
0.0133281
0.0138395
0.0140839
0.0146509
0.0149027
0.00551033
0.00559523
0.00566866
0.00571744
0.00577137
0.00581629
0.005889
0.00603223
0.0065635
0.00719091
0.00803399
0.00905943
0.0102223
0.0105108
0.0111107
0.0114595
0.011923
0.0126261
0.0133097
0.0137025
0.0144463
0.0143367
0.015159
0.00551252
0.00558971
0.00567437
0.00572534
0.00577033
0.0058163
0.00588725
0.00603317
0.00656563
0.00718811
0.00802869
0.00904272
0.0101644
0.0105203
0.011107
0.0114532
0.0119629
0.0124748
0.0131318
0.013991
0.0144361
0.0149779
0.0149189
0.0055107
0.00559987
0.00566839
0.00572338
0.00577082
0.00581809
0.0058879
0.00603528
0.00656846
0.00718613
0.00799227
0.00906784
0.0101913
0.0105105
0.0111493
0.01161
0.0120568
0.0126663
0.0131187
0.0140172
0.0143614
0.0146737
0.015048
0.0055163
0.00559623
0.00566867
0.00572432
0.0057733
0.00582294
0.00588751
0.00603714
0.0065711
0.00718158
0.007933
0.00908188
0.010138
0.0104998
0.0111584
0.0116341
0.0120775
0.0126008
0.0132153
0.0139221
0.014437
0.0148237
0.0153633
0.00551917
0.00560093
0.00566673
0.00572438
0.00577735
0.00581905
0.00588854
0.00603878
0.00657282
0.00719268
0.00796489
0.00909199
0.0101504
0.0106328
0.011196
0.011615
0.0121771
0.0126171
0.0134189
0.0139731
0.0147001
0.0152733
0.0160988
0.0055118
0.00559996
0.00566524
0.0057266
0.00577482
0.00581902
0.00589165
0.00604122
0.00657566
0.0071789
0.00795083
0.00910266
0.0101972
0.0106661
0.0112049
0.0118114
0.0122375
0.0127192
0.0136459
0.0142301
0.0150063
0.0157676
0.0168885
0.00551416
0.00559889
0.00566908
0.00573175
0.00577379
0.00581887
0.00588842
0.00604321
0.00657764
0.00716308
0.00795412
0.00909907
0.0101867
0.0106612
0.0111858
0.0118319
0.0121611
0.01287
0.013896
0.0146752
0.0156833
0.0169377
0.018802
0.00551379
0.0055965
0.00566175
0.00573569
0.00577317
0.00582097
0.00588859
0.00604468
0.0065844
0.00717839
0.00794933
0.00907392
0.010337
0.0107336
0.0112006
0.0118444
0.012213
0.0132852
0.0142806
0.0150778
0.0162759
0.0179559
0.0204224
0.00552109
0.00559705
0.00566289
0.00572845
0.00577589
0.00581552
0.00589123
0.0060465
0.00658648
0.00718559
0.00799905
0.00904116
0.0102464
0.010839
0.0113321
0.0117783
0.0123435
0.0135381
0.0145814
0.0159657
0.0178003
0.0206167
0.0247014
0.00551017
0.00558656
0.00566143
0.00572758
0.00577858
0.00581464
0.00589189
0.00604761
0.00658952
0.00719069
0.00800572
0.00914546
0.010383
0.0108877
0.0114968
0.0119003
0.0126323
0.0139821
0.0152129
0.0167452
0.0190435
0.0227488
0.0292058
0.00551946
0.00558524
0.0056613
0.00572838
0.00577095
0.00581742
0.00589259
0.00604849
0.00659118
0.00719147
0.00797996
0.00915208
0.0103441
0.0111029
0.0116531
0.0121643
0.0130091
0.0143513
0.0158672
0.0185839
0.0222716
0.0275414
0.0351811
0.00550837
0.00559281
0.00566944
0.00572415
0.00576913
0.00581751
0.00588784
0.00604831
0.00659435
0.00719755
0.00803078
0.00916121
0.0103354
0.0111414
0.0118955
0.0124
0.0133269
0.0147955
0.0171506
0.0200562
0.0244923
0.0327642
0.043582
0.00551089
0.00558109
0.00566281
0.00572484
0.00576827
0.00581751
0.00589073
0.00605163
0.00659585
0.00718903
0.00799783
0.00916108
0.0105054
0.0113146
0.0121409
0.0129916
0.0141289
0.0158213
0.0186596
0.0232953
0.0299211
0.0396663
0.0517973
0.00549687
0.00557898
0.00566256
0.00571894
0.00576657
0.00580901
0.00588589
0.00604755
0.00657932
0.00715927
0.0079438
0.00908682
0.0106213
0.011772
0.0127065
0.0134355
0.014722
0.0172394
0.021164
0.0262195
0.0343547
0.0470445
0.0589981
0.00550769
0.00557241
0.00564872
0.00572055
0.00575734
0.00580712
0.00588478
0.00604397
0.00656364
0.00713973
0.00790871
0.00909322
0.0109033
0.0120797
0.0130528
0.0145374
0.016185
0.0186139
0.0228185
0.0293523
0.038085
0.0517217
0.0649425
0.00549374
0.00556996
0.00564446
0.00570623
0.00575403
0.00579379
0.00587873
0.00603727
0.00654933
0.00712279
0.00791385
0.00911401
0.0113225
0.0127826
0.0138279
0.0152504
0.0172942
0.0206338
0.0256837
0.0331844
0.0437101
0.0583824
0.0728489
0.00549874
0.00556253
0.00564768
0.0057026
0.00573721
0.00578978
0.00587596
0.00603026
0.00653463
0.00711178
0.00790034
0.00935473
0.0118003
0.0139692
0.0147041
0.0166381
0.0193708
0.0225029
0.0275989
0.0356234
0.0482367
0.0642243
0.0800988
0.00549243
0.00555798
0.00564272
0.00570657
0.00573227
0.00579224
0.00586926
0.00602151
0.00651904
0.00709822
0.00790957
0.00942277
0.0123587
0.0151444
0.0166051
0.0186492
0.0208298
0.0244663
0.0304851
0.0402329
0.0537205
0.0715515
0.0882007
0.0054818
0.00556455
0.00563444
0.00570197
0.00573552
0.00578391
0.00585069
0.00600928
0.00650476
0.00708646
0.00791689
0.0102441
0.0163966
0.01867
0.0183004
0.0198131
0.0235792
0.0271328
0.0326129
0.043273
0.0594084
0.0778739
0.0942404
0.00546353
0.00555683
0.00562263
0.00568156
0.0057297
0.00577264
0.00583932
0.00599367
0.00648014
0.00706842
0.00799211
0.0103058
0.0214101
0.0231538
0.0226314
0.0235424
0.025516
0.0291717
0.0360679
0.0476757
0.0668798
0.0842924
0.099345
0.00542696
0.00554001
0.00560473
0.00566573
0.00571654
0.00574504
0.00582131
0.00598217
0.00646239
0.00704931
0.00805121
0.01277
0.0292506
0.0304815
0.0278443
0.025991
0.0292679
0.0332053
0.0398334
0.05261
0.0733163
0.0895163
0.103194
0.00540425
0.0055161
0.00558481
0.00563562
0.00570154
0.00572807
0.00579558
0.00596923
0.00643263
0.00702951
0.00834901
0.0172524
0.040211
0.040069
0.0357414
0.029961
0.0321704
0.0372414
0.0452779
0.0598066
0.0795313
0.0935552
0.106765
0.00538041
0.00548656
0.0055593
0.0056089
0.00567859
0.00570472
0.0057885
0.00594741
0.00639725
0.00699536
0.00853854
0.0182223
0.0509358
0.0542986
0.0485008
0.0363289
0.0387478
0.0422292
0.0512591
0.0676523
0.0856752
0.0976081
0.112407
0.00536951
0.00544904
0.00553548
0.00558462
0.00565375
0.00566594
0.00577303
0.00592417
0.00636197
0.00696405
0.00863205
0.0312402
0.0665125
0.0647429
0.057404
0.0426258
0.0419054
0.0476748
0.0590412
0.0748729
0.0908395
0.1022
0.123015
0.00533035
0.00539374
0.00550291
0.0055678
0.00561979
0.0056594
0.00573886
0.00588965
0.00631936
0.00691612
0.00875598
0.0430975
0.0767927
0.0821256
0.0707848
0.0496864
0.0484578
0.0544015
0.0657016
0.0809883
0.0965088
0.107739
0.127612
0.00528538
0.00532207
0.00545643
0.0055322
0.0055847
0.00563743
0.00571027
0.00585669
0.0062663
0.0068713
0.00863453
0.0438841
0.0842829
0.0992748
0.0863061
0.0615363
0.055622
0.061252
0.0715976
0.0870715
0.101263
0.117846
0.14928
0.00523795
0.00529568
0.00542174
0.00549022
0.00554002
0.00559348
0.00565962
0.00580666
0.00623319
0.00681054
0.00861154
0.0450432
0.093937
0.100782
0.0917147
0.0646781
0.061361
0.0667011
0.0773266
0.0920526
0.10874
0.126694
0.169997
0.00517204
0.00529543
0.00538136
0.00543947
0.00549228
0.00555011
0.00561874
0.00576147
0.00616543
0.00674885
0.00866946
0.0496421
0.101755
0.108999
0.0977521
0.0673506
0.0636212
0.0707557
0.0822234
0.0971933
0.121746
0.167699
0.172428
0.00512009
0.00525257
0.00533121
0.0053858
0.00542682
0.00548873
0.00555119
0.00569703
0.00611711
0.00666066
0.00866742
0.0463939
0.0991465
0.105309
0.0945061
0.0684182
0.0642701
0.074248
0.0881536
0.113119
0.153606
0.159437
0.218751
0.00506358
0.00519617
0.00526812
0.00531824
0.00536169
0.00542703
0.0054962
0.00563175
0.00602346
0.00660101
0.00870634
0.0528367
0.0983123
0.107913
0.0926278
0.0660287
0.0657778
0.0786897
0.101986
0.138801
0.141659
0.197629
0.319929
0.00498879
0.00511815
0.0051949
0.00524793
0.00527294
0.00534544
0.00541045
0.00555653
0.00593134
0.00647584
0.00881379
0.0650952
0.103873
0.100046
0.0891585
0.0666237
0.0688936
0.0907119
0.125597
0.128734
0.184421
0.303508
0.124383
0.00490211
0.00503826
0.00510693
0.00515849
0.0051971
0.00526725
0.00533134
0.00545812
0.00583787
0.00637448
0.00982271
0.0657909
0.0984576
0.0982709
0.0816046
0.0678286
0.0782278
0.108588
0.122769
0.203042
0.38757
0.122194
0.0372929
0.00478957
0.00493349
0.00500823
0.00506318
0.00508165
0.00515485
0.00523114
0.00536662
0.0056826
0.00625742
0.0141058
0.0716657
0.0985141
0.0986828
0.080419
0.0713427
0.0926899
0.119738
0.203355
0.443808
0.166378
0.0380895
0.0152357
0.00468138
0.00483443
0.00489662
0.00495097
0.00499527
0.00505956
0.0051128
0.00525036
0.00556898
0.00609475
0.018875
0.078557
0.0955746
0.0947349
0.0767647
0.0782376
0.103273
0.184783
0.428142
0.271721
0.0490556
0.0153574
0.0098384
0.0045548
0.00469855
0.00476697
0.00482242
0.00484543
0.00491135
0.00498835
0.00508798
0.00541687
0.00624577
0.0271762
0.0777327
0.0926899
0.0891168
0.0789686
0.0867064
0.151028
0.362626
0.371086
0.0793693
0.0164214
0.0093662
0.00813179
0.00443717
0.00458082
0.00463777
0.00469062
0.00473828
0.00479252
0.00485707
0.0049701
0.00514086
0.00803926
0.0460608
0.0766894
0.0835906
0.0870263
0.0818452
0.10421
0.250307
0.357812
0.127448
0.0215373
0.00880975
0.00729096
0.00674628
0.0042967
0.0044107
0.00446974
0.00452113
0.00455509
0.00460362
0.00465584
0.00479846
0.00508336
0.0117306
0.0573703
0.076462
0.0827297
0.0871785
0.0872324
0.16986
0.314504
0.178527
0.0313354
0.00906856
0.00670952
0.00626461
0.00603205
0.00415301
0.00427642
0.00433019
0.00437487
0.00441253
0.00447057
0.0045261
0.00449167
0.00556036
0.019501
0.06526
0.0755334
0.0837683
0.0857856
0.118668
0.24079
0.199516
0.0434039
0.0101656
0.00624968
0.00571045
0.00557121
0.00548015
0.00399727
0.00407843
0.00411836
0.0041587
0.00420476
0.00422697
0.00429901
0.00438113
0.00784591
0.035632
0.06484
0.0757238
0.0839446
0.0941232
0.17538
0.193714
0.0517169
0.0121507
0.00604159
0.00533774
0.00520125
0.00513712
0.00509117