/*--------------------------------*- C++ -*----------------------------------*\
  =========                 |
  \\      /  F ield         | OpenFOAM: The Open Source CFD Toolbox
   \\    /   O peration     | Website:  https://openfoam.org
    \\  /    A nd           | Version:  7
     \\/     M anipulation  |
\*---------------------------------------------------------------------------*/
FoamFile
{
    version     2.0;
    format      ascii;
    class       volScalarField;
    location    "77";
    object      nut;
}
// * * * * * * * * * * * * * * * * * * * * * * * * * * * * * * * * * * * * * //

dimensions      [0 2 -1 0 0 0 0];

internalField   nonuniform List<scalar> 
12842
(
0.00180676
0.00179648
0.00177679
0.00177602
0.00176519
0.00177345
0.00176494
0.00176604
0.00176813
0.00177875
0.0017932
0.00182153
0.00141277
0.00068827
0.000379577
0.000236219
0.000164848
0.000123345
9.83302e-05
8.08979e-05
6.85094e-05
5.95725e-05
5.36718e-05
0.00181046
0.00179414
0.00178272
0.00177609
0.00176434
0.00177221
0.00176532
0.0017657
0.00176942
0.00178034
0.00179584
0.00182644
0.0013393
0.000655039
0.000363263
0.000228711
0.000161636
0.000121986
9.75526e-05
8.08819e-05
6.88041e-05
6.0021e-05
5.42941e-05
0.00180286
0.00179115
0.00177733
0.00177268
0.00176308
0.00176988
0.00176527
0.00176525
0.00177267
0.0017815
0.00180148
0.00183818
0.00125662
0.000619825
0.000347569
0.000221133
0.000158032
0.000120376
9.68311e-05
8.09037e-05
6.87275e-05
6.03205e-05
5.4598e-05
0.0018098
0.00178835
0.0017772
0.00177024
0.0017617
0.00176888
0.00176533
0.00176477
0.00177357
0.0017849
0.00180602
0.00184882
0.00117436
0.000584258
0.000331122
0.000213899
0.000154455
0.000119484
9.62641e-05
8.05754e-05
6.88741e-05
6.10358e-05
5.49915e-05
0.00179881
0.00178949
0.00177603
0.00176784
0.0017625
0.00176741
0.00176581
0.00176623
0.00177532
0.00178701
0.00181262
0.00185742
0.0010994
0.000551126
0.000316421
0.000206877
0.000151506
0.000118018
9.58617e-05
8.06452e-05
6.91171e-05
6.14507e-05
5.55788e-05
0.00180553
0.00178235
0.00177325
0.0017649
0.00176044
0.00176675
0.00176482
0.00176642
0.00177513
0.00178943
0.00181699
0.00186709
0.00103788
0.00052349
0.000303174
0.000200259
0.000148372
0.000117977
9.66503e-05
8.11756e-05
6.96177e-05
6.24183e-05
5.58125e-05
0.00179624
0.00178541
0.00177171
0.00176422
0.00176037
0.0017661
0.00176642
0.001768
0.00177592
0.00179243
0.00182512
0.00187803
0.00100015
0.000505576
0.00029543
0.000198866
0.000148256
0.00011905
9.8812e-05
8.41769e-05
7.19456e-05
6.44839e-05
5.77299e-05
0.00180082
0.00177974
0.00176911
0.00176203
0.00176024
0.00176616
0.00176559
0.00176871
0.00177552
0.00179622
0.0018278
0.00188554
0.000941443
0.000477793
0.00028254
0.000191013
0.000145596
0.000117552
9.85144e-05
8.37765e-05
7.17931e-05
6.48217e-05
5.77427e-05
0.0017907
0.00178159
0.00176875
0.00176076
0.00175873
0.00176607
0.00176648
0.00176928
0.00177572
0.00179658
0.00183316
0.00189116
0.000894636
0.000453217
0.000269256
0.000183774
0.000140748
0.000115256
9.84916e-05
8.52995e-05
7.36398e-05
6.65787e-05
5.93317e-05
0.00179736
0.00177776
0.00176561
0.00175915
0.00175975
0.0017665
0.00176638
0.00176973
0.00177541
0.00179928
0.00183474
0.0019063
0.000889522
0.000452351
0.000270366
0.000184907
0.000143417
0.000118978
0.000104849
9.19911e-05
7.86181e-05
7.27636e-05
6.33167e-05
0.00178791
0.00177828
0.00176623
0.00175764
0.00175896
0.0017662
0.0017666
0.00176979
0.00177786
0.00179966
0.00183995
0.00191343
0.000863807
0.000436266
0.000258709
0.000178092
0.000140204
0.000118124
0.000105164
9.46254e-05
8.08108e-05
7.51334e-05
6.41871e-05
0.00179052
0.00177659
0.00176214
0.00175593
0.00175949
0.00176597
0.00176697
0.00176993
0.00177762
0.00180111
0.00184319
0.00191356
0.000835384
0.000426334
0.00025149
0.000174092
0.000138728
0.000117448
0.000108747
9.96141e-05
8.50462e-05
7.8941e-05
6.69371e-05
0.00178421
0.00177586
0.00176246
0.00175534
0.00175953
0.00176528
0.00176683
0.0017696
0.0017818
0.00180779
0.0018501
0.00185584
0.000808021
0.000411509
0.00024397
0.00017051
0.000135762
0.000118599
0.000112242
0.000105057
9.15584e-05
8.47804e-05
7.14636e-05
0.00178399
0.0017758
0.00175827
0.00175388
0.00175882
0.00176469
0.00176705
0.00176934
0.00178328
0.00180838
0.00185576
0.00179545
0.000781548
0.00039939
0.000237095
0.000165534
0.000134442
0.000118205
0.00011584
0.000112741
0.000100862
9.3088e-05
7.94691e-05
0.00178047
0.00177383
0.00175758
0.00175438
0.00175882
0.00176398
0.00176646
0.00176874
0.00178589
0.00181268
0.00186371
0.00175361
0.00075446
0.000388805
0.000226935
0.000161475
0.000132811
0.00011902
0.000120018
0.000120348
0.000113582
0.000107196
9.44508e-05
0.00177956
0.0017746
0.00175411
0.0017538
0.00175746
0.00176378
0.00176568
0.00176844
0.00178853
0.00181807
0.00186766
0.0017084
0.000729474
0.000379054
0.00022069
0.000157062
0.000128415
0.000117123
0.00012177
0.000128951
0.000135352
0.000137187
0.00013151
0.0017774
0.00177105
0.00175323
0.00175477
0.00175718
0.00176308
0.00176473
0.00176785
0.00179113
0.00181824
0.00187721
0.00165389
0.000703454
0.000365292
0.000213347
0.000153446
0.000126658
0.000116981
0.000121398
0.000134884
0.000166714
0.000206693
0.000222628
0.0017773
0.00177193
0.00175093
0.0017547
0.00175623
0.00176323
0.00176295
0.00176782
0.00179094
0.00182237
0.00188079
0.00159855
0.000680453
0.000353846
0.000205147
0.000148028
0.000123085
0.000111926
0.000116095
0.000132368
0.000199883
0.000476241
0.000793783
0.00177542
0.00176703
0.00175073
0.0017554
0.00175612
0.00176248
0.00176206
0.00176769
0.00179562
0.0018273
0.00189331
0.00156213
0.000658338
0.000346179
0.000197936
0.000144233
0.000118121
0.000108199
0.000107326
0.000123955
0.000182893
0.00028227
0.000271595
0.00177621
0.00176773
0.00174994
0.00175547
0.00175615
0.00176214
0.00176021
0.00176796
0.00179717
0.00183103
0.00190028
0.00150722
0.000637953
0.000342851
0.000192413
0.000139893
0.000115298
0.000103318
0.000100161
0.000108776
0.000146707
0.000200962
0.000208103
0.0017748
0.00176266
0.00175015
0.00175494
0.00175618
0.00176166
0.00175971
0.00176852
0.00179754
0.00183882
0.00191119
0.00146191
0.00061723
0.00032832
0.000186761
0.000136258
0.000111778
9.63828e-05
9.13081e-05
0.00010507
0.000144776
0.000182206
0.000161603
0.00177541
0.00176283
0.00175099
0.00175556
0.00175706
0.00176052
0.00175868
0.00176893
0.00179664
0.00183899
0.00192284
0.00141385
0.000595842
0.000305496
0.000181465
0.00013356
0.000107078
9.40133e-05
9.28323e-05
0.000116112
0.000143785
0.000162316
0.00016393
0.00177467
0.00175921
0.00175125
0.00175355
0.00175706
0.00176024
0.00175855
0.00176948
0.00180008
0.0018492
0.00193122
0.00137007
0.000573262
0.000290996
0.000177935
0.000132309
0.000102366
9.15234e-05
9.96801e-05
0.000127405
0.000177368
0.000272039
0.000443003
0.00177479
0.00175839
0.00175287
0.00175448
0.00175817
0.00175905
0.0017587
0.00177065
0.00180066
0.00186678
0.00193571
0.00131099
0.000546818
0.000282569
0.000177104
0.000134257
9.79001e-05
9.62071e-05
0.000118535
0.00018814
0.000404873
0.00068737
0.000952638
0.00177437
0.00175714
0.00175414
0.00175291
0.00175856
0.00175832
0.00175877
0.00177074
0.00180109
0.00186798
0.00193342
0.00127145
0.000530719
0.000280261
0.000182911
0.000141417
9.8483e-05
0.000109045
0.000167669
0.000376954
0.00071357
0.00103248
0.00152373
0.00177439
0.00175648
0.00175467
0.00175347
0.00175897
0.00175797
0.00175922
0.00177084
0.00180095
0.00186053
0.00194215
0.00124215
0.000519628
0.000285103
0.000190796
0.000133424
0.000101733
0.000130227
0.000257102
0.000659894
0.000900004
0.00124463
0.00164376
0.0017737
0.00175668
0.00175609
0.00175189
0.00175895
0.00175747
0.00175927
0.00177153
0.00180094
0.00186093
0.00195465
0.00122002
0.000512443
0.000292042
0.000180591
0.000118625
0.000109427
0.000165438
0.000409509
0.000759931
0.00102367
0.00135336
0.00174056
0.00177344
0.00175565
0.00175625
0.00175233
0.00175872
0.00175758
0.0017598
0.00177199
0.00180873
0.00188186
0.00199403
0.00119161
0.000503372
0.000282304
0.00016493
0.000116914
0.000122165
0.000226105
0.000596447
0.000859651
0.00117618
0.00160734
0.00223597
0.00177259
0.00175694
0.00175722
0.00175095
0.00175852
0.00175752
0.00175954
0.00177358
0.00181819
0.00189953
0.00202017
0.00117594
0.000501875
0.000265888
0.000157553
0.000120019
0.000140919
0.000331087
0.000743985
0.00103423
0.00146921
0.00206946
0.00288655
0.00177197
0.00175607
0.00175796
0.00175101
0.00175739
0.00175772
0.00175992
0.00177551
0.00183381
0.00193652
0.00207435
0.00117268
0.000498706
0.000262579
0.000158594
0.000126135
0.000173466
0.000459724
0.000818178
0.00118339
0.00177398
0.00262974
0.00365851
0.00177097
0.0017571
0.00175817
0.00174999
0.00175711
0.00175793
0.00176095
0.00177827
0.00185195
0.00195955
0.00209915
0.00118352
0.000509091
0.000260932
0.000161423
0.000138301
0.000225308
0.000553533
0.000978052
0.00154745
0.0023931
0.00351409
0.00468816
0.00176998
0.00175713
0.00175954
0.00174956
0.00175585
0.00175795
0.00176193
0.00178439
0.00187205
0.00199279
0.00214076
0.00120496
0.000520148
0.000274375
0.000170899
0.000154865
0.000310514
0.000581364
0.00122894
0.00196745
0.00288648
0.00406008
0.00526736
0.00176914
0.00175701
0.0017595
0.00174859
0.00175514
0.00175843
0.00176373
0.0017957
0.00189012
0.00200581
0.00214801
0.00124085
0.000539036
0.000281203
0.000181247
0.000180148
0.00045644
0.000631348
0.00134757
0.00212126
0.00318211
0.00446511
0.00584071
0.00176756
0.00175755
0.00176105
0.00174825
0.00175348
0.00175886
0.00176736
0.00180933
0.00190684
0.00203586
0.00218392
0.00128352
0.000568736
0.000302736
0.000197826
0.000211384
0.000670047
0.00070174
0.0014673
0.00223338
0.00324041
0.00437845
0.00565125
0.00176712
0.00175634
0.00176104
0.00174747
0.00175347
0.00175863
0.00177432
0.00182607
0.00192389
0.00204287
0.00218108
0.00134924
0.000594291
0.000320633
0.000216813
0.000256706
0.000929388
0.000839075
0.00143113
0.00223442
0.00337148
0.00455268
0.00572906
0.00176498
0.00175658
0.00176243
0.00174654
0.00175253
0.00176024
0.00178472
0.00184157
0.00193722
0.00206524
0.00220542
0.00140801
0.000639873
0.000349661
0.000243
0.000304827
0.000951148
0.00101223
0.00152786
0.00252559
0.00371019
0.00488661
0.00532262
0.0017649
0.0017545
0.00176221
0.00174665
0.00175202
0.001765
0.00179648
0.00185962
0.00195154
0.00207016
0.00220423
0.0015061
0.000683964
0.000377666
0.000268445
0.000378038
0.000970526
0.00104565
0.00181652
0.00260286
0.00380511
0.00492852
0.00485703
0.0017624
0.00175413
0.00176365
0.00174683
0.00175261
0.00177561
0.0018076
0.00187458
0.00195998
0.002081
0.00220875
0.00158908
0.000736166
0.000414786
0.00029915
0.000473239
0.000981744
0.00102188
0.00151206
0.00276026
0.00475005
0.00493442
0.00428675
0.00176228
0.00175136
0.00176326
0.00174567
0.00175691
0.00178818
0.00181981
0.00188937
0.0019697
0.00208541
0.00221448
0.00169606
0.000801437
0.000453113
0.000340867
0.000619039
0.000964906
0.0011229
0.00217218
0.00293338
0.00350692
0.00330981
0.0016287
0.00175981
0.00175108
0.00176509
0.00174547
0.00176623
0.00180096
0.00183171
0.00189991
0.00197373
0.00208719
0.00220553
0.00182423
0.000859127
0.000490949
0.000404527
0.000892274
0.000905537
0.00101452
0.00194762
0.00294036
0.00341855
0.00205481
0.001082
0.00175975
0.00174793
0.00176414
0.00174928
0.00177591
0.0018132
0.00184325
0.00190832
0.00197781
0.00208811
0.0022069
0.00193152
0.000934009
0.000553345
0.0005152
0.00116124
0.00085047
0.00090122
0.00195179
0.00254574
0.00235972
0.0011581
0.000885099
0.0017571
0.00174819
0.00176713
0.00175563
0.0017853
0.00182564
0.00185317
0.00191336
0.00197865
0.00208662
0.0021996
0.0020722
0.00101762
0.000655076
0.000758603
0.00108377
0.000791505
0.000866268
0.00141068
0.0019316
0.00207112
0.00109948
0.000815244
0.00175782
0.00174626
0.00177435
0.0017658
0.00179348
0.0018379
0.00186087
0.00191551
0.00197802
0.00208325
0.00219269
0.0021252
0.00112787
0.000833528
0.00126235
0.00102271
0.000760509
0.000727156
0.00095551
0.00135805
0.000965724
0.000793366
0.000832624
0.00175509
0.00174595
0.00178932
0.00177358
0.00180359
0.00184851
0.00186693
0.00191593
0.00197623
0.00208005
0.00218156
0.00211229
0.0013257
0.00122616
0.00128629
0.000944199
0.000723503
0.000660437
0.000769493
0.000860117
0.000780963
0.000777959
0.000732319
0.00175662
0.00174652
0.00180342
0.00178382
0.00181146
0.00185735
0.00187013
0.00191378
0.00197289
0.00207477
0.00217659
0.00208389
0.00169727
0.00157365
0.00122336
0.000899174
0.000714824
0.000646019
0.000673577
0.000754051
0.000751903
0.000769238
0.000808433
0.0017549
0.00175289
0.00181721
0.00179184
0.00182009
0.00186378
0.00187246
0.0019111
0.0019693
0.00207086
0.00215764
0.00202564
0.00172974
0.00157512
0.00114653
0.000862939
0.000700474
0.000644482
0.000690259
0.00071882
0.000783076
0.000752236
0.000827739
0.00175802
0.00176491
0.00183108
0.00180302
0.00182586
0.00186833
0.00187217
0.00190679
0.00196436
0.0020634
0.00213813
0.00197215
0.00166641
0.00151448
0.00112738
0.00083064
0.000707633
0.000665155
0.000685685
0.000741124
0.000804286
0.000822473
0.000874688
0.001758
0.00178043
0.00184402
0.00181031
0.00183155
0.00187032
0.00187177
0.00190244
0.00196023
0.00205898
0.00211945
0.00189309
0.00165338
0.00150483
0.00112488
0.000821763
0.000710432
0.000672899
0.000707998
0.000783903
0.000849997
0.000883745
0.000953035
0.00176131
0.00179356
0.0018573
0.00182019
0.00183497
0.00187141
0.0018695
0.0018972
0.00195395
0.00205035
0.00207663
0.00182147
0.00164346
0.00145384
0.00115036
0.000818921
0.000715161
0.000682514
0.000745837
0.000820063
0.000909135
0.000941942
0.00100113
0.0017687
0.0018103
0.00186741
0.00182623
0.00183784
0.00186989
0.00186719
0.00189177
0.00194868
0.00203945
0.00203911
0.00175155
0.00162199
0.00143396
0.00116897
0.000792388
0.000721727
0.00070504
0.000794408
0.000881083
0.000970307
0.00101306
0.00106793
0.00178265
0.00182406
0.00187643
0.00183286
0.00183911
0.00186808
0.0018641
0.00188619
0.00194192
0.00203101
0.00199458
0.00169841
0.00162784
0.00142227
0.00117611
0.000820333
0.000765424
0.000759816
0.000858358
0.000960724
0.00106378
0.00113801
0.00119246
0.00179958
0.00184011
0.00188104
0.00183681
0.00183966
0.00186469
0.00186126
0.00188118
0.00193608
0.00201665
0.00194545
0.00165428
0.001608
0.00144321
0.00119606
0.000812815
0.000796083
0.000796749
0.000918178
0.00104388
0.00110904
0.00120093
0.00126098
0.00181678
0.00185196
0.00188452
0.00184041
0.00183973
0.00186136
0.00185855
0.00187644
0.00193023
0.00200768
0.00191177
0.00162668
0.00161946
0.00148312
0.0012104
0.000829486
0.000840219
0.000887093
0.000987168
0.00106041
0.00108199
0.00121337
0.00103945
0.00182981
0.00186373
0.00188457
0.00184266
0.00183915
0.00185737
0.00185603
0.00187239
0.00192512
0.00199643
0.00187412
0.00161029
0.00162914
0.00152009
0.00121838
0.000885505
0.000881483
0.000913232
0.000989414
0.0010684
0.00111386
0.00103743
0.00088019
0.00183823
0.00187046
0.00188366
0.00184409
0.00183843
0.00185348
0.00185395
0.00186876
0.00192023
0.00198748
0.0018504
0.00160992
0.00165433
0.00155582
0.00123254
0.000894868
0.000948946
0.000937076
0.000981549
0.0010593
0.00109626
0.000827232
0.000672635
0.00184534
0.00187582
0.00188047
0.00184472
0.00183717
0.00184953
0.00185193
0.00186569
0.00191619
0.00197891
0.00183205
0.00162961
0.00168047
0.00158574
0.00124388
0.000940141
0.000976448
0.000957664
0.000985886
0.00104971
0.00103881
0.000722712
0.00061748
0.00185128
0.00187714
0.00187672
0.00184431
0.00183578
0.0018459
0.0018504
0.00186326
0.00191275
0.00197244
0.0018204
0.00165305
0.00169824
0.00161469
0.00127128
0.000970313
0.000988786
0.000974362
0.000982002
0.000897118
0.000819867
0.00064672
0.000617649
0.00185435
0.00187705
0.00187192
0.00184341
0.00183427
0.00184252
0.00184882
0.00186116
0.00190981
0.0019666
0.00181275
0.00169108
0.00173007
0.00163378
0.00132091
0.00101702
0.000999809
0.000988936
0.000883279
0.000719812
0.000684014
0.000569862
0.000571962
0.00185654
0.00187488
0.00186676
0.00184179
0.00183254
0.00183903
0.00184747
0.00185933
0.00190704
0.0019612
0.00180905
0.00172401
0.00176705
0.0016656
0.00140662
0.00106377
0.00101264
0.000999405
0.000800616
0.000625643
0.000639077
0.000554409
0.000548366
0.00185608
0.00187149
0.00186071
0.00183965
0.00183088
0.00183577
0.00184598
0.00185766
0.00190464
0.00195645
0.00180989
0.00175205
0.00179103
0.00171847
0.0014725
0.00109895
0.00102367
0.00100511
0.000730108
0.00056747
0.000575191
0.000508834
0.000477605
0.00185494
0.00186721
0.00185484
0.00183733
0.00182913
0.00183254
0.00184475
0.00185624
0.00190249
0.00195299
0.00181341
0.00179104
0.00183367
0.00176839
0.0015259
0.00113235
0.00103116
0.00100752
0.000676292
0.000505314
0.000511659
0.000463115
0.000419778
0.0018522
0.00186221
0.00184846
0.00183459
0.00182752
0.00182969
0.00184347
0.00185487
0.00190073
0.00195082
0.00181821
0.0018157
0.00189226
0.00180307
0.00156441
0.00116187
0.0010355
0.000994964
0.000607473
0.000447359
0.000454333
0.000420664
0.00036572
0.00184941
0.00185735
0.00184293
0.0018322
0.0018262
0.00182701
0.00184257
0.00185382
0.0018994
0.00195053
0.00182677
0.00183055
0.00193451
0.00183309
0.00159211
0.00118594
0.00103495
0.000962232
0.000548802
0.00039438
0.000405161
0.000391963
0.000313944
0.00184599
0.00185219
0.00183731
0.00182984
0.0018248
0.00182498
0.00184165
0.00185275
0.0018986
0.00195223
0.00183322
0.00185968
0.001959
0.00185202
0.00160585
0.00120338
0.00103273
0.000848215
0.000486242
0.000346017
0.000355708
0.000345768
0.000266112
0.00184354
0.00184808
0.0018329
0.00182784
0.00182409
0.00182304
0.00184126
0.0018521
0.00189835
0.0019535
0.00184933
0.00187803
0.00197135
0.00186367
0.00160742
0.0012083
0.00102701
0.000728884
0.000440582
0.000299601
0.000310066
0.000314292
0.000227982
0.00184074
0.00184348
0.00182881
0.00182651
0.0018231
0.00182198
0.00184077
0.00185136
0.00189867
0.00195581
0.00187403
0.00188127
0.00196816
0.00186163
0.00159329
0.00120269
0.00101882
0.000632855
0.00038749
0.000256937
0.000281807
0.00029935
0.000208436
0.00183966
0.00184069
0.00182579
0.00182525
0.00182279
0.00182085
0.00184086
0.0018511
0.00189963
0.001966
0.00189331
0.0018777
0.00195289
0.00185347
0.00157262
0.0012
0.000936845
0.00053866
0.000347556
0.000233802
0.000250774
0.000278967
0.000194447
0.00183835
0.00183705
0.00182342
0.00182479
0.00182242
0.00182059
0.00184076
0.00185069
0.00190106
0.00197698
0.00191314
0.00186693
0.00192308
0.0018284
0.00154791
0.00119653
0.000790157
0.000465672
0.00030711
0.000213611
0.000208692
0.000253589
0.00018802
0.00183857
0.00183517
0.00182148
0.00182443
0.00182224
0.00182013
0.00184098
0.00185067
0.00190306
0.00198679
0.00193249
0.00185264
0.00188516
0.00179373
0.00152202
0.00118523
0.000678432
0.0004142
0.000275356
0.000198135
0.00019062
0.000244546
0.000194668
0.00183886
0.00183275
0.00182066
0.00182438
0.00182241
0.00182045
0.00184113
0.00185054
0.00190526
0.00199502
0.00195204
0.00183507
0.00183988
0.0017496
0.00150041
0.00107212
0.000596832
0.000379283
0.000260549
0.00018874
0.000163782
0.000233797
0.000218417
0.00183997
0.00183128
0.00181924
0.00182448
0.00182254
0.00182037
0.0018411
0.00185048
0.00190786
0.00200191
0.00197106
0.001818
0.00178983
0.00170277
0.0014735
0.000922478
0.000540331
0.000360366
0.000254324
0.000182869
0.000150541
0.000230149
0.000240172
0.00184106
0.00182976
0.00181935
0.00182474
0.00182277
0.001821
0.00184125
0.00185055
0.00191045
0.00200798
0.00198958
0.00180444
0.00174138
0.00165487
0.00143225
0.000811219
0.00050454
0.000354842
0.000248757
0.00019017
0.000149566
0.000207062
0.000261357
0.00184253
0.00182876
0.00181844
0.00182476
0.00182356
0.00182118
0.00184088
0.00185026
0.00191334
0.00201148
0.0020077
0.00179296
0.00169432
0.00160646
0.00123044
0.000730443
0.000485288
0.00035381
0.000256224
0.000200703
0.000163617
0.000182072
0.000251718
0.00184393
0.0018275
0.00181871
0.00182496
0.00182357
0.00182171
0.00184063
0.0018503
0.00191605
0.0020146
0.00202381
0.0017908
0.001652
0.00157536
0.00109105
0.000678083
0.000474764
0.000358601
0.000269307
0.000220803
0.000176566
0.000185912
0.000241206
0.00184435
0.00182751
0.00181828
0.00182516
0.0018248
0.00182225
0.0018402
0.00184999
0.0019191
0.00201546
0.00203881
0.00179107
0.00161049
0.00154391
0.00100203
0.000647244
0.000488627
0.000380629
0.000289192
0.000235889
0.00019727
0.000184251
0.000223374
0.0018461
0.00182582
0.00181851
0.00182497
0.00182522
0.00182231
0.00183941
0.0018495
0.00192128
0.00201538
0.00204945
0.00179826
0.00159026
0.00153326
0.000939877
0.000626088
0.000492902
0.000396533
0.000302365
0.000258812
0.000220818
0.000209004
0.000204789
0.00184595
0.00182649
0.00181901
0.00182475
0.00182545
0.00182309
0.00183879
0.00184953
0.00192397
0.0020146
0.00206016
0.00181059
0.0015776
0.00151642
0.000907168
0.000622613
0.000498861
0.000421398
0.000329227
0.000278028
0.000242861
0.000238821
0.000215619
0.00184539
0.00182696
0.00181818
0.00182576
0.00182784
0.00182321
0.00183811
0.00184854
0.00192667
0.00201372
0.00206244
0.00182725
0.00156076
0.00153932
0.000930943
0.000643111
0.000510078
0.000442509
0.000357148
0.000314169
0.000264258
0.0002881
0.000243012
0.00184584
0.00182424
0.00182035
0.00182372
0.00182608
0.00182301
0.00183657
0.0018486
0.00192894
0.0020083
0.00206654
0.00182197
0.0015878
0.00155837
0.000950558
0.000658573
0.000534155
0.000472988
0.00038462
0.000338716
0.000300749
0.000291639
0.000275413
0.00184608
0.00182756
0.00181927
0.00182554
0.00182845
0.00182396
0.00183689
0.00184806
0.0019312
0.00201199
0.0020672
0.00187043
0.00162497
0.00156517
0.00098341
0.000687461
0.000557689
0.000498046
0.000418195
0.000379838
0.000347372
0.000331902
0.00030738
0.00183949
0.00182718
0.00182296
0.00182503
0.00183006
0.00182347
0.00183373
0.00184775
0.00193295
0.00201623
0.0020557
0.00188832
0.00165545
0.00156549
0.00103161
0.000718864
0.000604395
0.000532172
0.000469279
0.00041727
0.00038551
0.000386206
0.000348238
0.00183326
0.00182234
0.00181807
0.00182211
0.00182475
0.00182334
0.00183111
0.00184786
0.00193459
0.00201877
0.00207685
0.00190831
0.00165162
0.00155869
0.00110542
0.000765114
0.000634248
0.00056966
0.000521543
0.000473508
0.000455423
0.00043088
0.000405862
0.00183088
0.00181652
0.00181721
0.00182143
0.00182672
0.00182331
0.0018294
0.00184753
0.00193583
0.00202086
0.00207248
0.00193348
0.00166855
0.00157011
0.00119072
0.000822109
0.000685032
0.000623646
0.000581761
0.000541535
0.000494824
0.000506092
0.000497328
0.00182927
0.00181454
0.00181956
0.00182045
0.00182627
0.00182066
0.00183097
0.00184822
0.00193698
0.002019
0.00206792
0.00191652
0.00167314
0.00157425
0.00127746
0.000892044
0.000756756
0.00068572
0.000655993
0.000600773
0.000581261
0.000577755
0.000600015
0.00182643
0.00181392
0.00182197
0.00182334
0.00182631
0.00182128
0.00183028
0.00184841
0.00193779
0.0020185
0.00207043
0.00191657
0.00166375
0.00158017
0.00138256
0.000968737
0.000835449
0.000748407
0.000734008
0.000698506
0.000676046
0.000725789
0.000708152
0.00182539
0.00181716
0.00182024
0.0018226
0.00182626
0.00182205
0.00183012
0.00184902
0.00193886
0.00201865
0.0020662
0.00192895
0.00167367
0.0015754
0.00145665
0.0010807
0.000923307
0.000856703
0.000826757
0.000809624
0.000780448
0.000826348
0.000833085
0.00182648
0.00181575
0.00182018
0.00182076
0.00182609
0.00182349
0.00182866
0.00184882
0.00193984
0.00201741
0.00204963
0.00194664
0.00165859
0.00157502
0.00145534
0.00119443
0.00104677
0.000951618
0.000959239
0.000932615
0.000908412
0.000870744
0.00083875
0.00182584
0.00181438
0.00181768
0.00182221
0.00182554
0.00182187
0.00182996
0.00184873
0.00194061
0.00202072
0.00205698
0.00194296
0.00166502
0.00159192
0.00145341
0.00131744
0.00117116
0.00105706
0.000973989
0.000935459
0.000908149
0.000884975
0.000856151
0.00182253
0.00181598
0.00181913
0.00182228
0.00182593
0.00182148
0.00182941
0.00185014
0.00194164
0.00201853
0.0020552
0.00194505
0.00167083
0.00159181
0.00144026
0.0013301
0.00117204
0.00105545
0.000984109
0.000934398
0.000907232
0.000878776
0.000862326
0.00182079
0.00181594
0.00181902
0.00182226
0.00182454
0.00182304
0.001829
0.00185114
0.00194254
0.00201458
0.00205546
0.00194419
0.0016675
0.00158079
0.00142498
0.00131499
0.00114035
0.00104184
0.000975536
0.00093829
0.000903787
0.000917867
0.000923526
0.0018188
0.00181379
0.00181701
0.00182306
0.00182485
0.00182384
0.00182917
0.00185178
0.00194475
0.00201953
0.00205657
0.00194218
0.00169142
0.00156999
0.00139381
0.00127926
0.00113188
0.00105351
0.000991337
0.00093409
0.000921286
0.000924834
0.000931831
0.00182452
0.00181035
0.00181771
0.00182186
0.00182616
0.00182236
0.00183
0.00185187
0.0019457
0.00201967
0.00207179
0.00192406
0.00167873
0.00155563
0.00138256
0.00123229
0.00109581
0.00102568
0.000972373
0.000940795
0.000943754
0.00101514
0.00107218
0.00182039
0.00180895
0.00181743
0.00182152
0.00182737
0.00182156
0.00183022
0.00185316
0.00194682
0.00202102
0.00206679
0.0019445
0.00169044
0.00154017
0.00134833
0.00119385
0.00109202
0.00102727
0.000978172
0.000940079
0.000964159
0.00102748
0.00115186
0.00182145
0.00180945
0.00181581
0.00182202
0.0018235
0.00182425
0.00183006
0.00185362
0.00194768
0.00202213
0.00205917
0.00194612
0.00168205
0.00151662
0.00130667
0.00114767
0.0010502
0.000981433
0.000965925
0.000976695
0.00106125
0.00117857
0.00125975
0.00181602
0.0018117
0.00181808
0.00182144
0.00182494
0.00182436
0.00183036
0.00185388
0.00194875
0.00202196
0.00207128
0.00194378
0.00168222
0.00149941
0.00126186
0.00111565
0.00102188
0.000974288
0.000989248
0.000995072
0.00106557
0.00127548
0.00144081
0.00182049
0.00180872
0.0018169
0.0018223
0.00182483
0.00182367
0.0018315
0.00185415
0.00194856
0.00202003
0.00206653
0.00192063
0.00169955
0.00143933
0.00119943
0.00107982
0.000997427
0.000956032
0.000990933
0.00105829
0.00119709
0.0013776
0.00149471
0.00181633
0.00180819
0.00181705
0.0018213
0.00182428
0.00182068
0.00183074
0.00185324
0.00194563
0.00201533
0.00206345
0.00191014
0.00172162
0.00143236
0.00116409
0.00104667
0.000962734
0.000988076
0.00107581
0.00112075
0.00129011
0.00153487
0.00156024
0.00181963
0.00180478
0.00181559
0.00182215
0.00182225
0.00182112
0.00183084
0.0018529
0.00194265
0.00201266
0.00206018
0.00191577
0.00177287
0.00136644
0.00110712
0.00105693
0.000998727
0.000993252
0.00107805
0.00118178
0.00129897
0.00155649
0.00165324
0.00181464
0.00180327
0.00181551
0.00182158
0.00182214
0.00181887
0.00183255
0.00185202
0.00193989
0.00201044
0.00206711
0.00192887
0.00184254
0.00133692
0.0010899
0.00104244
0.000995907
0.00104234
0.00115157
0.00125954
0.00137976
0.00165204
0.00177843
0.00182218
0.00180208
0.00182009
0.0018211
0.00181783
0.00181938
0.00183288
0.00185141
0.00193768
0.00200984
0.00206535
0.00194445
0.00177648
0.00135542
0.00104576
0.00104345
0.00104444
0.00107265
0.00117541
0.00129746
0.00148474
0.00177437
0.00193792
0.00182187
0.00180467
0.0018208
0.00182825
0.00181848
0.00182452
0.00183036
0.00185143
0.00193554
0.0020091
0.00207241
0.00191424
0.00176883
0.00129685
0.00110305
0.00111142
0.0010839
0.00110105
0.00123697
0.00143794
0.00164165
0.00196141
0.00213136
0.00181875
0.00180976
0.00182567
0.0018284
0.0018213
0.00182857
0.0018261
0.00185135
0.00193495
0.00200948
0.00207432
0.00200256
0.00201797
0.00147191
0.00111401
0.00108389
0.00114177
0.00117649
0.00128004
0.00151753
0.00180688
0.00211976
0.00227026
0.00182208
0.00181378
0.00182406
0.00182058
0.00182126
0.0018273
0.00182598
0.00184952
0.00193077
0.00200912
0.00209155
0.00192042
0.00219522
0.00156685
0.00125595
0.00121257
0.00120033
0.00124334
0.00140648
0.00166474
0.00204197
0.0022837
0.00238719
0.00181224
0.00181379
0.00181703
0.0018181
0.00182057
0.0018179
0.0018246
0.00185063
0.00193145
0.00200934
0.00210551
0.00231388
0.00260093
0.00199952
0.00153148
0.00128808
0.00133436
0.00140788
0.00154482
0.00183689
0.00224924
0.00242271
0.00247061
0.00180159
0.00181375
0.00181506
0.00181311
0.00182223
0.00181567
0.00182247
0.00185301
0.00192738
0.00201068
0.00219606
0.00300038
0.00322175
0.00245606
0.00194239
0.00149728
0.0014779
0.00157842
0.00176986
0.00209773
0.0024462
0.00253178
0.00253064
0.00179663
0.00181021
0.00181447
0.00181148
0.00182145
0.00181427
0.00182558
0.00185204
0.0019257
0.00200865
0.00225073
0.00294524
0.00415242
0.00341129
0.00251674
0.00182027
0.00177992
0.00179351
0.00200995
0.00238013
0.0026397
0.00265678
0.00263606
0.00180069
0.00180352
0.00181735
0.00181336
0.00182136
0.00180938
0.00182715
0.00185261
0.00192168
0.00201032
0.00227912
0.00524023
0.00522415
0.00403256
0.0030452
0.00214155
0.00193311
0.00201828
0.00231327
0.00264083
0.0028243
0.00273301
0.00288039
0.0017964
0.00179151
0.00182287
0.00181668
0.00181823
0.00181569
0.00182402
0.00185311
0.0019216
0.00200624
0.00231442
0.00712299
0.00635746
0.00517492
0.00374478
0.00248696
0.00228632
0.00231778
0.00261088
0.00286381
0.00296029
0.00288866
0.00296181
0.0017937
0.00177778
0.00182913
0.00181495
0.00181846
0.00181964
0.00182529
0.00185254
0.0019147
0.00200823
0.00230859
0.00697979
0.00697258
0.00630973
0.00457899
0.00320384
0.00265936
0.00266104
0.00284911
0.00307052
0.00310007
0.00305512
0.00331602
0.00179186
0.00178108
0.00182572
0.00181268
0.00181634
0.00181759
0.00182194
0.00184593
0.00192135
0.00200352
0.00231243
0.00703705
0.00792881
0.00652923
0.00495819
0.00340313
0.00306108
0.00295301
0.00306579
0.0032337
0.00327183
0.00320002
0.00358577
0.00178651
0.00179711
0.00181253
0.00181024
0.00181541
0.00181914
0.0018248
0.00184749
0.00191303
0.00200382
0.00234648
0.00818213
0.00870348
0.00716824
0.00551632
0.00350516
0.00321155
0.00317476
0.00326059
0.00334678
0.00345224
0.00394697
0.00392414
0.00178632
0.001801
0.00180718
0.0018091
0.00180837
0.00181467
0.00181959
0.00184186
0.00192106
0.00199917
0.00235421
0.00765021
0.0085237
0.00680875
0.00573789
0.00361436
0.00322914
0.00341828
0.00347403
0.00358649
0.00415686
0.00419473
0.00592011
0.00178814
0.00180364
0.00180366
0.00180637
0.00180653
0.00181543
0.00182262
0.0018451
0.0019099
0.00200047
0.00238472
0.00846987
0.00842282
0.00710569
0.00575404
0.00364833
0.00335975
0.00357837
0.00373969
0.00438478
0.0043738
0.00634807
0.00944237
0.0017848
0.00180086
0.00180089
0.00180555
0.00179692
0.00180843
0.00181506
0.00183966
0.00191017
0.00199432
0.00239881
0.0108203
0.00936337
0.00690936
0.0055043
0.00389659
0.0036192
0.00396595
0.00464747
0.0047025
0.00677368
0.010421
0.00793528
0.00178273
0.00180081