/*--------------------------------*- C++ -*----------------------------------*\
  =========                 |
  \\      /  F ield         | OpenFOAM: The Open Source CFD Toolbox
   \\    /   O peration     | Website:  https://openfoam.org
    \\  /    A nd           | Version:  7
     \\/     M anipulation  |
\*---------------------------------------------------------------------------*/
FoamFile
{
    version     2.0;
    format      ascii;
    class       volScalarField;
    location    "77";
    object      omega;
}
// * * * * * * * * * * * * * * * * * * * * * * * * * * * * * * * * * * * * * //

dimensions      [0 0 -1 0 0 0 0];

internalField   nonuniform List<scalar> 
12842
(
3.13249
2.83172
2.64577
2.50823
2.42042
2.35618
2.31913
2.29172
2.27319
2.26655
2.27271
2.29142
2.32247
2.38357
2.47909
2.62372
2.82144
3.02384
3.29579
3.58983
3.8794
4.19063
4.38222
3.11103
2.79573
2.61751
2.49821
2.41464
2.35093
2.31375
2.28758
2.26978
2.26573
2.27473
2.29788
2.33183
2.39309
2.49222
2.64123
2.85598
3.06719
3.33066
3.61311
3.97411
4.19195
4.45457
3.08722
2.75867
2.58125
2.46345
2.38828
2.33046
2.29685
2.27493
2.2608
2.26318
2.27476
2.30209
2.34033
2.40673
2.51428
2.66721
2.8955
3.11302
3.36316
3.68877
3.9735
4.25368
4.5002
3.05084
2.72209
2.5478
2.44401
2.37538
2.3215
2.28965
2.2686
2.25698
2.26131
2.27614
2.30603
2.34975
2.42404
2.54017
2.70723
2.92936
3.18968
3.42211
3.74467
3.98354
4.29297
4.55442
3.01915
2.67746
2.51024
2.41206
2.34994
2.30159
2.27374
2.25717
2.24983
2.25792
2.27807
2.31092
2.35804
2.4387
2.56628
2.74719
2.98676
3.24069
3.47949
3.7991
4.04663
4.31781
4.63984
2.97886
2.64386
2.47867
2.39028
2.33309
2.29225
2.26669
2.25061
2.24636
2.25578
2.27972
2.31414
2.36736
2.45911
2.59961
2.78749
3.04544
3.32503
3.5984
3.85083
4.10689
4.37611
4.65442
2.9437
2.60239
2.44731
2.36504
2.31458
2.27569
2.25304
2.24158
2.24088
2.25345
2.28228
2.31998
2.37641
2.47272
2.6252
2.84216
3.08998
3.3828
3.66609
3.94835
4.1979
4.44973
4.63853
2.90509
2.57241
2.42115
2.34509
2.29782
2.26656
2.24619
2.2352
2.2378
2.25002
2.28412
2.32309
2.38412
2.49146
2.6572
2.88199
3.16915
3.44579
3.76662
4.02201
4.25527
4.58624
4.70874
2.8687
2.53893
2.39583
2.3274
2.28549
2.25514
2.23682
2.22911
2.23321
2.25108
2.28789
2.32571
2.38953
2.50112
2.67629
2.91748
3.21025
3.52104
3.84594
4.13038
4.36917
4.67155
4.79793
2.8255
2.50753
2.37496
2.31109
2.27205
2.24731
2.23109
2.22455
2.23073
2.24916
2.29011
2.32849
2.39386
2.51787
2.7048
2.95903
3.27007
3.55577
3.93046
4.21727
4.42314
4.80743
4.87635
2.78524
2.47889
2.35287
2.29704
2.2624
2.23932
2.22476
2.22028
2.2271
2.25117
2.29304
2.33344
2.40058
2.52743
2.71989
2.98612
3.31426
3.63837
3.99658
4.28764
4.51524
4.99311
4.97418
2.74139
2.44962
2.33641
2.28332
2.2513
2.23179
2.21913
2.21632
2.22468
2.25158
2.29624
2.33671
2.40545
2.54876
2.75379
3.02859
3.38774
3.69506
4.1162
4.4297
4.62675
5.09484
5.11387
2.70237
2.42642
2.31783
2.2707
2.2423
2.22549
2.21417
2.21268
2.22129
2.24892
2.30049
2.34105
2.41229
2.56592
2.77361
3.08344
3.45274
3.80082
4.23826
4.52536
4.75846
5.24153
5.19621
2.66197
2.40075
2.30436
2.25923
2.23387
2.21849
2.20913
2.20921
2.21877
2.25177
2.30528
2.34466
2.42199
2.58791
2.80965
3.1253
3.53171
3.90148
4.38264
4.67959
4.90928
5.33566
5.39287
2.63224
2.38217
2.28951
2.24796
2.22539
2.21313
2.20517
2.20599
2.21563
2.25151
2.30926
2.35107
2.43011
2.61108
2.83696
3.2023
3.65134
4.06075
4.56296
4.81214
5.01356
5.45739
5.52866
2.60042
2.36092
2.27805
2.23811
2.21895
2.2069
2.20125
2.20278
2.21322
2.25117
2.31593
2.3547
2.44188
2.64029
2.87599
3.26584
3.73559
4.17317
4.7346
4.9471
5.124
5.60358
5.92392
2.5772
2.34607
2.26591
2.22835
2.21113
2.20196
2.19783
2.19988
2.21062
2.25606
2.32041
2.36114
2.44973
2.66854
2.91771
3.35743
3.88726
4.41182
4.92037
5.10287
5.31344
5.81572
6.23227
2.55198
2.32893
2.25604
2.21988
2.20568
2.19692
2.19495
2.19695
2.20864
2.25715
2.32482
2.36688
2.46067
2.69313
2.9656
3.44549
4.02967
4.57594
5.12716
5.29883
5.60521
6.20037
6.93945
2.53359
2.31704
2.24552
2.21173
2.19855
2.1922
2.19173
2.19438
2.20668
2.25816
2.3273
2.37004
2.47082
2.72963
3.01668
3.55736
4.17958
4.81408
5.28732
5.54225
6.10485
7.07125
7.9947
2.51377
2.30324
2.23674
2.20447
2.19348
2.18861
2.18933
2.19219
2.20532
2.25846
2.32988
2.37773
2.48688
2.79211
3.08952
3.68854
4.38947
5.0794
5.58488
6.12611
7.48817
8.8274
10.1778
2.49875
2.2933
2.22752
2.1981
2.18712
2.18395
2.18627
2.18974
2.20331
2.25675
2.33205
2.38183
2.50042
2.87555
3.16841
3.83336
4.60815
5.31102
6.06573
7.22936
9.08667
11.2027
13.6502
2.48383
2.28225
2.2193
2.19152
2.18255
2.18135
2.18385
2.18857
2.20393
2.26254
2.33468
2.38668
2.51807
2.89644
3.26021
4.00361
4.8561
5.8119
6.93064
8.88039
11.8584
15.317
18.6606
2.47091
2.27328
2.21125
2.18668
2.17691
2.17717
2.18096
2.18656
2.20395
2.2628
2.3383
2.3927
2.53548
2.8753
3.35915
4.20824
5.13691
6.32152
8.13237
11.5157
16.4429
22.5307
32.1578
2.46172
2.26642
2.20525
2.18217
2.17377
2.17549
2.17895
2.18544
2.20337
2.26057
2.34271
2.39734
2.54633
2.90894
3.50328
4.46048
5.44351
7.16684
10.4417
16.5484
26.4386
46.3765
89.9059
2.45355
2.26079
2.20072
2.18045
2.17126
2.17425
2.17764
2.18517
2.20314
2.25997
2.35192
2.40714
2.56764
2.97327
3.68174
4.8128
5.86688
8.585
14.3584
25.7476
50.0895
107.203
220.017
2.44713
2.25638
2.19745
2.17782
2.16966
2.17315
2.17634
2.18514
2.20181
2.2658
2.35403
2.41383
2.58278
3.06343
3.92345
5.28302
6.44186
10.5332
19.0697
37.4329
81.3044
174.718
312.564
2.43989
2.25063
2.19307
2.17633
2.16758
2.1722
2.17534
2.18444
2.20276
2.26652
2.35546
2.42365
2.61958
3.19006
4.20284
5.41344
7.26774
12.617
23.8704
50.9218
114.882
222.915
328.699
2.43406
2.24677
2.19042
2.17394
2.16643
2.17097
2.17413
2.18439
2.20213
2.26605
2.35593
2.4392
2.64631
3.34114
4.24101
5.36798
8.1844
14.5018
28.7778
65.7874
144.422
247.458
326.653
2.42769
2.24095
2.18632
2.17258
2.16472
2.1697
2.17321
2.18371
2.20353
2.26824
2.36427
2.4464
2.69263
3.3692
4.19122
5.66785
8.97456
16.1095
33.4587
80.23
169.139
266.201
334.699
2.42252
2.2373
2.18362
2.17044
2.16384
2.16845
2.1723
2.18362
2.20374
2.27085
2.37311
2.46809
2.72724
3.34601
4.24913
6.01528
9.69315
17.4885
39.1077
99.2321
201.552
291.471
340.665
2.41673
2.23215
2.18024
2.16909
2.16225
2.1666
2.17106
2.18379
2.20414
2.27753
2.38979
2.50627
2.79672
3.38617
4.40817
6.42488
10.3068
19.2333
47.0682
122.209
230.075
306.693
344.3
2.41227
2.22778
2.17698
2.16727
2.16127
2.16508
2.16987
2.18325
2.20814
2.29685
2.42504
2.55449
2.87248
3.52861
4.66883
6.79506
10.8199
20.6967
54.2431
141.526
250.888
316.554
345.945
2.40665
2.22401
2.17418
2.16583
2.15946
2.16278
2.16885
2.18357
2.21895
2.32503
2.47136
2.61698
2.95948
3.65417
4.92367
7.19301
11.3873
22.8076
65.168
168.148
273.344
324.628
341.46
2.40305
2.21884
2.17078
2.16395
2.15836
2.16063
2.16735
2.18594
2.23654
2.35655
2.51651
2.68501
3.09061
3.86714
5.2249
7.53497
11.8015
24.6467
73.8275
184.701
285.956
327.723
339.102
2.39729
2.21605
2.16785
2.16222
2.1558
2.15842
2.1656
2.19232
2.25893
2.40132
2.58734
2.77602
3.19831
4.05747
5.52803
7.95813
12.3363
27.355
85.6123
204.213
300.024
333.351
335.617
2.39429
2.21077
2.16446
2.16028
2.15447
2.15637
2.16615
2.20478
2.28955
2.44741
2.64556
2.85845
3.35865
4.305
5.85916
8.26307
12.9266
29.9866
93.1673
207.792
299.534
326.238
326.202
2.38866
2.20823
2.16127
2.15767
2.15175
2.15377
2.16976
2.22144
2.32431
2.50391
2.72775
2.97351
3.51352
4.53284
6.18271
8.70379
13.7761
32.5581
95.9796
218.99
307.586
320.448
310.438
2.38538
2.20307
2.15758
2.15514
2.15039
2.15352
2.18125
2.24496
2.36807
2.56547
2.80742
3.08022
3.67937
4.80012
6.51779
9.29385
15.2042
37.3348
126.93
236.798
293.682
311.167
266.462
2.38053
2.20055
2.15402
2.15299
2.14753
2.15535
2.19678
2.27399
2.4144
2.62989
2.88892
3.19425
3.87358
5.05841
6.88968
10.2069
17.38
40.0754
124.589
214.059
280.163
263.966
174.677
2.37598
2.19536
2.14996
2.1502
2.14761
2.16586
2.21948
2.3102
2.46882
2.70142
2.98513
3.3299
4.0429
5.30664
7.51157
11.8457
20.5985
43.2978
126.87
210.656
267.25
192.024
125.358
2.37154
2.19283
2.14662
2.14676
2.15289
2.18038
2.24693
2.35142
2.52359
2.7723
3.06856
3.44604
4.24192
5.64291
8.3951
14.2776
24.4133
44.849
119.989
191.063
219.809
146.147
111.723
2.36618
2.18783
2.14359
2.14776
2.16629
2.20351
2.28151
2.39897
2.58508
2.84526
3.1618
3.57102
4.44334
6.12723
9.98461
18.0658
29.4028
47.5773
108.036
120.212
133.632
108.285
100.825
2.36024
2.18529
2.13966
2.15127
2.1858
2.22927
2.32107
2.44917
2.64324
2.91803
3.24907
3.71978
4.69551
6.88615
12.4921
22.3792
33.9297
48.5578
86.8215
99.1526
97.4075
96.3591
96.521
2.35458
2.18055
2.13686
2.16438
2.21034
2.26381
2.36613
2.50436
2.70797
2.98916
3.3381
3.8384
5.05645
8.17635
16.1894
27.7844
39.5687
51.6603
72.478
82.8641
89.5154
92.0159
95.7607
2.34701
2.17809
2.14006
2.17976
2.24157
2.3014
2.41483
2.55913
2.7648
3.05603
3.41999
4.02532
5.6378
10.542
20.6822
32.8134
43.7832
54.528
69.7964
80.6903
85.9509
90.7446
92.3216
2.34053
2.17519
2.15
2.20402
2.27715
2.34584
2.46661
2.61712
2.82833
3.12455
3.51132
4.27027
6.6942
13.6544
25.8196
37.7011
48.5345
58.0355
71.1917
80.9249
84.237
89.0021
90.8084
2.33227
2.17102
2.16496
2.22986
2.31855
2.39271
2.52013
2.67245
2.88132
3.18209
3.61247
4.63008
8.13458
17.8922
30.872
42.3928
51.5431
59.5628
71.2194
79.9876
81.0397
84.0155
84.9936
2.32509
2.17356
2.18536
2.26444
2.363
2.44375
2.57432
2.72882
2.93987
3.2507
3.72767
5.16098
10.4189
22.53
35.5924
45.5514
54.402
62.1052
72.369
77.8158
78.894
80.8274
81.5856
2.31854
2.17975
2.21094
2.30162
2.41285
2.4979
2.63032
2.78342
2.98951
3.29892
3.87513
5.94961
13.1294
27.3603
39.5285
47.9733
56.8255
64.2193
71.2654
74.753
75.4969
75.245
76.2443
2.31236
2.19564
2.2447
2.34758
2.46613
2.55538
2.68677
2.83826
3.04324
3.37539
4.09223
6.96591
16.5165
31.802
42.3277
50.3016
57.4887
63.3883
69.1168
71.6522
71.3105
71.4958
71.0199
2.30774
2.2152
2.2818
2.39434
2.52025
2.61214
2.74041
2.88802
3.08695
3.4185
4.27094
8.05254
19.9002
35.5454
44.2361
51.5677
56.8006
61.0347
65.2664
67.1491
66.2223
65.3086
64.2404
2.30642
2.24193
2.32452
2.44423
2.5731
2.66664
2.79006
2.9336
3.1295
3.48898
4.56549
9.38642
23.4331
38.3794
45.0136
51.0575
54.75
58.078
62.0187
63.36
63.1817
62.551
61.0867
2.30825
2.27243
2.36793
2.49334
2.62419
2.71854
2.83555
2.97411
3.16463
3.53353
4.77393
10.5316
26.5855
40.308
45.6825
49.7205
52.4532
54.9485
58.1437
58.1267
58.5455
57.2394
56.2583
2.32007
2.30918
2.41531
2.54339
2.67321
2.76752
2.87704
3.01046
3.19741
3.59276
5.08449
11.8898
29.4933
41.5729
45.836
48.0199
49.9761
52.0073
54.7077
54.8313
54.6522
53.7654
54.2832
2.34092
2.34976
2.46187
2.59159
2.71932
2.81272
2.91411
3.04221
3.22467
3.63812
5.31775
12.9107
31.6669
42.4174
45.9605
46.3795
47.5415
49.0299
51.3119
51.5071
51.3799
50.8205
51.0786
2.36662
2.39414
2.5104
2.63932
2.76294
2.85496
2.94784
3.07058
3.24976
3.68897
5.59435
14.0572
33.455
42.7562
45.8274
44.616
45.2667
46.427
48.5502
48.9256
48.7236
48.0907
49.035
2.39436
2.43829
2.55454
2.68164
2.80039
2.88988
2.97502
3.09279
3.2686
3.72716
5.81252
14.866
34.5294
42.7858
45.1758
43.0651
43.3446
44.1466
45.9622
46.3618
46.2261
45.5937
46.659
2.42452
2.48148
2.59737
2.72128
2.83411
2.92128
2.99966
3.11247
3.28522
3.76386
6.02725
15.5503
34.962
42.7286
43.9366
41.4159
41.4506
41.9688
43.533
43.9516
43.7947
43.2519
44.2996
2.45788
2.52606
2.63941
2.75947
2.86606
2.94969
3.02208
3.13008
3.30005
3.79996
6.23794
16.14
35.0049
42.1509
42.2895
39.6607
39.5114
39.8367
41.1753
41.4958
41.0484
40.529
41.3975
2.49369
2.57023
2.68129
2.79599
2.89496
2.97537
3.04287
3.14598
3.31319
3.83481
6.42481
16.625
34.8733
40.8053
40.3033
37.7496
37.4899
37.6813
38.8162
38.9749
38.29
38.0948
38.5165
2.5316
2.61384
2.72136
2.83004
2.92176
2.99782
3.06148
3.16006
3.32492
3.86768
6.57949
16.8561
34.1348
38.9253
38.0025
35.684
35.3794
35.4898
36.4275
36.4881
35.755
35.5922
35.7197
2.56914
2.65533
2.76013
2.86175
2.94543
3.01778
3.07865
3.17291
3.3353
3.89756
6.70412
16.9225
32.8999
36.5827
35.4415
33.4733
33.1647
33.2277
34.0225
34.06
33.4098
33.2316
33.4188
2.60743
2.69453
2.79599
2.89031
2.96666
3.03484
3.09357
3.18412
3.3445
3.92206
6.77933
16.8821
31.3092
33.8643
32.6771
31.1458
30.8562
30.905
31.5818
31.7237
31.1514
31.174
31.1819
2.64293
2.73079
2.82969
2.91593
2.98534
3.04962
3.10725
3.19455
3.3526
3.94178
6.81109
16.5338
29.4082
30.9093
29.7913
28.6582
28.4757
28.526
29.1209
29.4241
29.2128
29.0884
29.4071
2.6781
2.76369
2.8598
2.93859
3.00146
3.06267
3.11874
3.2035
3.35975
3.95734
6.77262
15.9002
27.2786
27.8205
26.871
26.2423
26.0964
26.1553
26.6773
27.5328
27.4457
27.1241
27.5092
2.7092
2.79396
2.88755
2.95824
3.01601
3.0733
3.12925
3.21206
3.366
3.96732
6.64719
15.0812
24.9755
24.7361
24.0709
23.9132
23.8007
23.8735
24.2804
26.014
25.7783
25.457
26.243
2.73947
2.8206
2.9116
2.97542
3.02826
3.08372
3.13792
3.21923
3.37143
3.96305
6.46659
14.1216
22.5961
21.7909
21.3899
21.4622
21.4946
21.6341
21.9848
24.4834
24.0553
23.9844
24.8913
2.76537
2.84522
2.93366
2.99062
3.03966
3.09155
3.1457
3.2262
3.37613
3.94713
6.24292
13.0749
20.2128
19.0693
18.8959
19.1958
19.3383
19.594
20.0248
22.3324
22.2969
22.682
23.6983
2.79055
2.86727
2.95283
3.00351
3.04958
3.10028
3.1524
3.23191
3.37998
3.92284
5.98816
11.989
17.9207
16.6416
16.633
17.168
17.4919
17.9592
18.4736
20.518
20.9572
21.6668
22.5941
2.81195
2.88709
2.96991
3.0159
3.05882
3.10664
3.15807
3.23729
3.38326
3.89242
5.72063
10.9205
15.7814
14.4944
14.6521
15.4247
15.9745
16.6761
17.3176
18.9838
19.9786
20.6915
21.7172
2.83276
2.90638
2.9863
3.02667
3.06754
3.11416
3.16362
3.24182
3.38568
3.85776
5.44777
9.89854
13.8485
12.6637
12.9734
13.9678
14.7817
15.7326
16.4474
17.8434
19.3687
19.9598
21.2201
2.85125
2.92298
2.99946
3.03695
3.07565
3.12029
3.16793
3.24552
3.38759
3.82064
5.19031
8.96147
12.1706
11.1448
11.5967
12.7709
13.8572
15.0274
15.833
17.0056
18.8562
19.3696
20.7232
2.86876
2.94024
3.0145
3.04765
3.08362
3.12673
3.17298
3.24908
3.38883
3.78309
4.946
8.11627
10.7275
9.91263
10.4978
11.8233
13.167
14.5468
15.4041
16.3982
18.4147
18.8695
20.1976
2.88589
2.95568
3.02547
3.05663
3.09166
3.13344
3.17666
3.2515
3.38971
3.74636
4.73289
7.38311
9.55176
8.95141
9.63943
11.079
12.6556
14.201
15.104
15.9803
17.9455
18.5994
19.7543
2.90166
2.97055
3.03902
3.06744
3.09889
3.13932
3.1816
3.25387
3.38997
3.71193
4.53913
6.74867
8.59806
8.21457
8.98963
10.5059
12.2613
13.9693
14.862
15.7497
17.4235
18.3667
19.372
2.9173
2.98638
3.05017
3.07648
3.10712
3.14645
3.1852
3.25617
3.39109
3.68061
4.38334
6.22397
7.86146
7.65714
8.50718
10.0668
11.9425
13.7702
14.6714
15.5866
16.9057
18.0698
19.191
2.93398
2.99921
3.06056
3.08695
3.11476
3.15264
3.19038
3.25705
3.39106
3.6522
4.23963
5.78574
7.30114
7.28703
8.16824
9.72925
11.6612
13.5854
14.5069
15.4324
16.5458
17.7231
18.9082
2.94678
3.01418
3.0736
3.09603
3.12156
3.15943
3.19376
3.25961
3.39076
3.62951
4.13562
5.43853
6.8751
6.99906
7.93877
9.46899
11.3954
13.3686
14.349
15.29
16.2062
17.3896
18.7439
2.96527
3.02715
3.08205
3.10682
3.13064
3.16711
3.19969
3.26
3.39036
3.60749
4.04461
5.18144
6.58905
6.82487
7.78822
9.26045
11.1555
13.139
14.2051
15.1507
16.2662
16.9956
18.5497
2.97655
3.04115
3.09226
3.11467
3.13782
3.17236
3.20293
3.26157
3.38997
3.59303
3.97047
4.9456
6.36488
6.73794
7.70587
9.10123
10.9268
12.8743
14.0584
14.9935
16.191
16.9929
18.1101
2.99267
3.0509
3.10246
3.1269
3.14304
3.18046
3.20816
3.26248
3.38961
3.57925
3.92439
4.84352
6.20714
6.69435
7.66008
8.97865
10.7522
12.6411
13.9464
15.0167
16.0284
16.8445
17.7965
3.00951
3.06617
3.11101
3.13227
3.15511
3.18708
3.21303
3.26303
3.3892
3.5681
3.88588
4.79878
6.14255
6.67602
7.65577
8.89908
10.5941
12.4005
13.8143
15.0057
15.8029
16.6795
17.726
3.01021
3.07544
3.11463
3.13477
3.15646
3.19116
3.21694
3.264
3.38888
3.56069
3.8877
4.72872
6.11201
6.67688
7.65147
8.83765
10.5072
12.2339
13.7231
14.9314
15.8304
16.6308
17.7072
3.01232
3.08356
3.1154
3.14068
3.16019
3.19461
3.21633
3.2638
3.38852
3.56162
3.88505
4.72701
6.10968
6.67672
7.64827
8.80388
10.4298
12.1241
13.6575
14.802
15.6975
16.5608
17.7137
3.01819
3.08157
3.11442
3.14003
3.15955
3.19352
3.21658
3.26397
3.38821
3.56112
3.87779
4.71817
6.10929
6.6577
7.64461
8.78032
10.3602
11.9767
13.6235
14.8059
15.6786
16.619
17.9251
3.01892
3.08166
3.1141
3.14022
3.15991
3.19315
3.21722
3.26404
3.38779
3.55987
3.86811
4.70091
6.08918
6.67163
7.65408
8.77301
10.3368
11.899
13.58
14.7751
15.6803
16.6615
17.9941
3.02017
3.08204
3.11435
3.14391
3.16156
3.1933
3.21957
3.26541
3.38745
3.5598
3.87045
4.66542
6.11244
6.66641
7.66719
8.76265
10.3186
11.8435
13.6329
14.7875
15.8925
17.0242
18.3169
3.02281
3.08697
3.11756
3.14144
3.16473
3.194
3.21785
3.26644
3.38698
3.55946
3.87212
4.67946
6.09627
6.67927
7.70324
8.79692
10.3975
11.9361
13.7772
14.9372
16.1868
17.2584
18.8037
3.02425
3.08371
3.11425
3.14254
3.16268
3.19467
3.22051
3.26528
3.38666
3.5565
3.86864
4.67992
6.10307
6.70063
7.77981
8.88006
10.4412
12.0509
13.8663
15.2292
16.5408
17.9427
19.5848
3.02844
3.0832
3.11655
3.14541
3.16452
3.19185
3.21948
3.26459
3.3861
3.55563
3.86975
4.68013
6.10899
6.74423
7.8498
8.9977
10.6643
12.3531
14.2445
15.6404
17.3529
18.4534
20.3589
3.03155
3.08554
3.11597
3.14619
3.16365
3.19161
3.21927
3.26426
3.38573
3.55449
3.86534
4.67202
6.11148
6.83676
8.03599
9.25878
10.79
12.6104
14.4054
16.1417
17.6665
19.4152
21.9164
3.02605
3.0917
3.11539
3.14429
3.16285
3.1912
3.21925
3.26508
3.38514
3.55781
3.86093
4.69901
6.10366
6.9676
8.19646
9.55805
11.2643
13.1992
14.9957
16.9704
18.8612
20.3093
23.0385
3.02692
3.08829
3.11507
3.1444
3.16223
3.19212
3.21923
3.26341
3.38476
3.55795
3.8735
4.70325
6.14221
7.06913
8.52675
9.96795
11.5679
13.6108
15.5524
17.8125
19.7514
22.1403
25.3554
3.03025
3.08671
3.11778
3.14396
3.16477
3.18894
3.21988
3.26308
3.38412
3.55638
3.87533
4.70274
6.14968
7.32081
8.91813
10.5991
12.3872
14.6228
16.427
19.0274
20.9861
23.3685
27.9271
3.03321
3.08706
3.11837
3.14265
3.16127
3.1888
3.21677
3.26252
3.38388
3.55969
3.87721
4.71309
6.14389
7.43055
9.42692
11.1146
13.0415
15.1859
17.337
20.1556
22.9851
25.6878
30.2483
3.02714
3.08566
3.11674
3.14155
3.161
3.19
3.21634
3.26383
3.38498
3.55887
3.87018
4.76982
6.18128
7.86101
10.1223
12.0312
14.1654
16.5489
18.8304
22.0122
24.9949
28.7938
34.6537
3.02637
3.08539
3.11634
3.14003
3.16101
3.19058
3.21503
3.26322
3.38159
3.5524
3.84976
4.75715
6.16935
8.21861
10.9153
12.8364
15.2919
17.4475
19.6726
23.3946
26.6293
30.6504
37.8136
3.02682
3.08759
3.11124
3.13946
3.15947
3.18877
3.21426
3.2619
3.3787
3.54741
3.83885
4.7465
6.15012
8.84028
11.7899
13.7543
16.2056
18.7403
21.1665
24.8373
29.3194
33.2297
39.2819
3.02746
3.08881
3.10902
3.13258
3.15784
3.18538
3.20795
3.25984
3.37613
3.5429
3.82846
4.72505
6.14507
9.56118
12.6873
14.6295
17.3652
19.7955
22.3032
26.3464
31.6795
35.3395
40.9625
3.01767
3.08673
3.10297
3.1314
3.15607
3.18229
3.20586
3.25712
3.3724
3.53848
3.82518
4.811
6.64253
10.3062
14.0606
15.9453
18.5466
20.9787
23.4803
27.4563
32.4883
36.1956
41.3323
3.01472
3.07977
3.09904
3.12133
3.15223
3.17468
3.20662
3.25235
3.36808
3.53304
3.81661
4.92246
6.98692
11.6779
15.0538
16.7796
19.2174
22.2209
24.645
27.9795
32.7234
36.4797
41.3825
3.01404
3.07474
3.08623
3.11857
3.14913
3.16309
3.20393
3.2459
3.36172
3.52651
3.81662
5.11552
8.12529
12.6842
16.4275
18.2795
20.6515
23.0625
25.478
28.5154
32.879
36.737
41.5109
2.99852
3.06367
3.08248
3.12075
3.14601
3.15912
3.1979
3.24066
3.35625
3.51817
3.82113
5.36644
9.75308
14.7773
18.0194
19.4152
21.2575
23.4624
25.6441
28.6385
32.7526
36.9104
41.6159
2.99461
3.05438
3.08455
3.11629
3.13997
3.16026
3.19046
3.23251
3.34588
3.50827
3.82387
5.51889
11.2462
15.2444
18.1813
20.178
21.9339
23.5852
25.7852
28.6408
32.5961
36.9488
41.7685
2.99972
3.04127
3.07692
3.10827
3.12887
3.1548
3.18006
3.22138
3.3375
3.49609
3.80182
5.75007
12.4811
16.3143
18.4007
20.0102
21.7676
23.5941
25.5828
28.5102
32.5121
36.9524
42.1889
2.99472
3.0309
3.06388
3.09631
3.11761
3.14436
3.17078
3.21128
3.32203
3.48262
3.79368
6.18702
12.2665
15.9173
19.2713
19.9579
21.7694
23.5456
25.5027
28.4238
32.4565
36.7392
42.6419
2.98191
3.02134
3.04591
3.0797
3.10414
3.13142
3.15959
3.19775
3.31064
3.46414
3.78746
5.96161
12.7317
16.055
18.8506
19.9042
21.6778
23.6215
25.5228
28.352
32.1635
37.3948
42.7079
2.96725
3.01073
3.01883
3.06483
3.0908
3.11693
3.14628
3.17826
3.2886
3.44731
3.78322
6.05049
12.0791
15.8699
18.9022
19.9788
21.1947
23.4714
25.1645
28.28
32.6011
37.2971
43.0857
2.94663
2.99366
2.98307
3.04812
3.07111
3.0981
3.12842
3.16144
3.27274
3.42157
3.74017
6.28731
12.0878
15.7336
18.8483
19.207
20.9155
23.018
25.1298
28.3573
32.6648
38.5734
45.0177
2.92318
2.9733
2.96965
3.02879
3.05011
3.07742
3.10638
3.14566
3.24417
3.39929
3.72401
6.40086
11.8476
15.4355
18.4976
19.0055
20.0456
22.5875
25.2224
28.4666
33.2351
39.5915
47.4089
2.89505
2.94664
2.96898
3.00483
3.02537
3.05095
3.0791
3.11854
3.22286
3.36799
3.69466
6.06714
11.6912
15.2059
17.7205
19.2147
19.8102
22.2869
25.2173
29.0408
35.2659
42.488
43.9404
2.86628
2.91647
2.95001
2.97706
3.00094
3.02464
3.05079
3.09308
3.18423
3.33172
3.68167
6.06439
11.6319
15.4668
16.4705
18.9295
19.9032
21.7209
25.375
31.5403
36.9525
38.0089
36.9504
2.83175
2.88093
2.9208
2.94415
2.96794
2.98939
3.01554
3.05228
3.1538
3.29973
3.65088
6.23819
11.6721
15.1869
16.0979
18.0983
19.5782
21.9904
27.2712
31.6551
32.3881
31.1322
33.8823
2.79515
2.84206
2.88463
2.90655
2.93443
2.95585
2.98087
3.0204
3.10514
3.24714
3.67423
6.01602
11.0935
14.4797
16.198
17.0979
19.0356
22.8727
27.0249
27.3758
27.2261
29.1246
15.6747
2.74977
2.79777
2.84092
2.86282
2.88801
2.90852
2.93453
2.96596
3.05846
3.19105
3.89395
6.04552
10.9043
13.5272
15.5864
16.2839
19.3126
22.7465
23.3939
26.4397
29.2798
14.2064
7.48432
2.70189
2.7494
2.79092
2.81285
2.84132
2.86401
2.88838
2.92611
3.00636
3.15247
4.08747
6.04777
10.1422
12.3853
14.927
16.1164
19.2626
20.4326
23.7457
28.2681
16.0613
7.05722
4.78526
2.64298
2.69367
2.73296
2.75604
2.78051
2.80135
2.82665
2.86129
2.93585
3.05716
4.25634
6.32592
9.93646
12.006
14.15
16.1063
17.9231
20.0105
24.9295
19.2633
7.60163
4.5753
3.88669
2.58381
2.63434
2.6698
2.69166
2.71846
2.74273
2.76588
2.79767
2.86006
2.97034
4.39567
6.38659
10.0267
11.8881
13.8559
15.442
16.6756
21.2308
21.2661
8.73747
4.50048
3.71867
3.54383
2.51047
2.56324
2.59584
2.6193
2.64307
2.66303
2.68717
2.73509
2.79806
3.01322
4.60161
6.61667
9.76089
11.7545
13.1682
13.439
17.6912
19.488
9.77918
4.61767
3.54653
3.34036
3.20032
2.4414
2.4933
2.52123
2.54142
2.56475
2.58648
2.60743
2.63439
2.67872
3.19286
4.81869
6.58297
9.499
11.013
11.2345
13.7868
16.5706
11.4172
4.87935
3.42342
3.15946
3.0611
3.01474
2.35245
2.4034
2.42809
2.44938
2.47264
2.49213
2.51463
2.55154
2.58036
3.41725
4.96913
6.78568
8.99909
9.7687
10.5461
13.2557
11.5807
5.17571
3.30044
2.97451
2.88783
2.85338
2.83728
2.27541
2.32556
2.34525
2.36305
2.38106
2.39522
2.41777
2.46402
2.62585
3.65426
5.08629
6.85192
8.29176
8.42741
10.5163
11.0109
5.2781
3.25995
2.8364
2.75167
2.72361
2.71108
2.70308
2.16972
2.2145
2.22939
2.2456
2.26483
2.2843
2.30514
2.3038
2.716
3.81893
5.18128
6.61877
6.94534
8.34754
9.23616
5.26576
3.14735
2.66914
2.56836
2.54492
2.53581
2.53086
2.52639
2.09012
2.13192
2.14287
2.15797
2.17173
2.17847
2.19085
2.2635
2.85592
3.90274
5.12893
5.92991
6.70834
7.65482
5.65018
3.12297
2.56462
2.45563
2.42988
2.42246
2.41819
2.41418
2.41217
1.96635
1.99522
2.00141
2.01173
2.02166
2.0385
2.08593
2.25855
2.99559
3.90059
4.89881
5.42952
6.1812
5.49991
3.07914
2.38461
2.2584
2.23314
2.22713
2.22506
2.22257
2.22229
2.22336
1.8932
1.91811
1.92163
1.93133
1.94054
1.95517
2.00486
2.32019
3.02524
3.90429
4.6239
5.1086
5.18747
3.11247
2.34916
2.18084
2.14639
2.1356
2.1333
2.13219
2.13317
2.13414
2.13334
1.72663
1.73167
1.72904
1.73217
1.73898
1.773
1.92035
2.34288
2.96593
3.53359
3.86805
3.89524
2.71905
2.08066
1.90859
1.87769
1.87271
1.87727
1.87761
1.87942
1.8804
1.88255
1.88643
3.10593
2.79414
2.60472
2.4795
2.39906
2.34217
2.30879
2.27705
2.26077
2.25067
2.25476
2.26926
2.29858
2.35451
2.44532
2.58196
2.78799
2.97583
3.23969
3.4885
3.71558
3.95244
4.20423
3.11407
2.80107
2.61027
2.48858
2.41012
2.35111
2.31407
2.28274
2.26426
2.25288
2.25689
2.27135
2.30022
2.3552
2.44737
2.58229
2.78652
2.97583
3.23505
3.48264
3.71136
3.95452
4.18526
3.1231
2.81903
2.62913
2.50119
2.41894
2.35516
2.3193
2.28722
2.26879
2.25547
2.25891
2.27208
2.30176
2.35522
2.44898
2.58374
2.78501
2.97073
3.22005
3.47127
3.71269
3.93415
4.17616
3.13437
2.82961
2.63521
2.50594
2.42581
2.36417
2.32475
2.29104
2.27119
2.25681
2.26011
2.27295
2.30154
2.36072
2.44797
2.58734
2.77563
2.96284
3.22944
3.45567
3.71354
3.93269
4.17569
3.14262
2.8412
2.65091
2.52474
2.44062
2.37337
2.33027
2.29544
2.27448
2.25903
2.2617
2.27521
2.30052
2.36871
2.45198
2.5986
2.75575
3.00499
3.2046
3.49881
3.69916
3.99043
4.18362
3.14977
2.85113
2.66245
2.52982
2.44292
2.37451
2.33057
2.29567
2.27453
2.25974
2.26226
2.2775
2.30184
2.37465
2.45726
2.60214
2.77377
3.0008
3.21436
3.52627
3.73898
4.01268
4.24485
3.15293
2.85424
2.66672
2.5334
2.44785
2.38021
2.33612
2.30106
2.28021
2.26607
2.2699
2.28535
2.30886
2.37388
2.45624
2.59174
2.77632
2.99048
3.21219
3.53922
3.75856
4.01594
4.25635
3.14972
2.84493
2.65554
2.52002
2.4382
2.37559
2.3341
2.30077
2.27981
2.2679
2.27311
2.29127
2.3177
2.38379
2.47257
2.615
2.7943
3.0371
3.25199
3.59232
3.83516
4.10135
4.36795
2.98507
2.6444
2.47802
2.37873
2.32193
2.28058
2.25447
2.23829
2.22731
2.22565
2.23385
2.25814
2.30329
2.379
2.50617
2.69581
2.94656
3.39173
3.66655
4.062
4.38806
4.88149
5.2715
2.99458
2.65062
2.48168
2.38253
2.3249
2.28375
2.25696
2.24082
2.22834
2.22642
2.23469
2.25853
2.30284
2.37706
2.5001
2.68591
2.92728
3.33912
3.68375
4.03003
4.3173
4.75801
5.13755
2.99548
2.65525
2.48788
2.38807
2.32799
2.28822
2.25886
2.24337
2.23014
2.22751
2.23546
2.25873
2.30189
2.37452
2.50069
2.67246
2.9044
3.27272
3.66707
3.98104
4.24489
4.65074
5.01135
3.00566
2.66353
2.49175
2.39238
2.33083
2.29175
2.2618
2.24561
2.2313
2.2284
2.23616
2.25903
2.30058
2.37506
2.49791
2.66637
2.89684
3.21848
3.60215
3.93384
4.18009
4.56273
4.85624
3.00766
2.66921
2.49875
2.39858
2.33465
2.29615
2.26417
2.24782
2.23318
2.22957
2.23723
2.25958
2.30005
2.37384
2.49759
2.66536
2.90707
3.17245
3.53491
3.88505
4.11859
4.47839
4.71051
3.01863
2.67976
2.50314
2.40335
2.33791
2.29987
2.26758
2.24975
2.23471
2.23087
2.23825
2.26006
2.29987
2.3716
2.48931
2.65878
2.91482
3.13883
3.47799
3.83342
4.06176
4.41262
4.61369
3.0216
2.68624
2.51151
2.41025
2.34282
2.30406
2.2707
2.25166
2.23677
2.23225
2.23952
2.25989
2.29901
2.3682
2.48047
2.64201
2.90817
3.11571
3.42821
3.77438
3.99385
4.32191
4.51428
3.03385
2.69891
2.51704
2.41522
2.3473
2.30791
2.27432
2.25356
2.23863
2.23372
2.24053
2.26018
2.29812
2.36471
2.47177
2.62896
2.88548
3.09443
3.38671
3.72188
3.94091
4.25018
4.44408
3.03772
2.7057
2.52714
2.42348
2.35334
2.31192
2.27804
2.25546
2.24096
2.23546
2.24196
2.26104
2.29707
2.36143
2.46546
2.6176
2.85974
3.07134
3.36008
3.66853
3.86927
4.17436
4.37764
3.05139
2.7204
2.53447
2.42851
2.35871
2.31599
2.28199
2.25772
2.24334
2.23729
2.24329
2.26147
2.29686
2.35984
2.46219
2.61152
2.84115
3.04918
3.32723
3.61941
3.82787
4.13894
4.36067
3.0561
2.72696
2.54626
2.43894
2.36594
2.32007
2.28606
2.26014
2.24604
2.23964
2.24535
2.26248
2.29673
2.3585
2.45835
2.60344
2.81916
3.04678
3.30641
3.59445
3.81374
4.12433
4.38302
3.07064
2.74367
2.55576
2.4442
2.37111
2.32398
2.29042
2.26287
2.24882
2.24178
2.24713
2.26384
2.29701
2.35733
2.45591
2.60005
2.81058
3.04769
3.28492
3.57977
3.82508
4.1224
4.30811
3.076
2.75057
2.56813
2.456
2.37961
2.32874
2.29492
2.26621
2.25165
2.24419
2.24931
2.26527
2.29714
2.35641
2.45338
2.59408
2.80387
3.03128
3.2593
3.56146
3.85446
4.01903
4.24068
3.08993
2.7693
2.58004
2.4614
2.38433
2.33215
2.29924
2.26937
2.25456
2.24623
2.25101
2.26656
2.29755
2.35582
2.45102
2.59005
2.80295
3.00583
3.23496
3.56811
3.75881
3.97376
4.21789
3.09578
2.77618
2.5903
2.47355
2.39431
2.33875
2.30437
2.27382
2.25737
2.24834
2.25284
2.26762
2.29804
2.35446
2.44673
2.58286
2.79567
2.9803
3.24116
3.50436
3.72636
3.95165
4.19654
2.91156
2.58806
2.40947
2.31364
2.27982
2.2747
2.29242
2.34717
2.38295
2.42817
2.53815
2.6644
2.84155
3.04537
3.33115
3.69222
4.08804
4.63613
5.26238
5.83305
6.49352
7.17138
7.67101
2.91468
2.59065
2.41427
2.31693
2.27931
2.25894
2.26175
2.30104
2.33138
2.3683
2.46375
2.58459
2.75975
2.96521
3.25508
3.61078
4.01293
4.61256
5.21882
5.79523
6.45683
7.12131
7.65232
2.91568
2.59177
2.41729
2.32049
2.28041
2.2545
2.24835
2.27856
2.30461
2.33757
2.42222
2.53524
2.70346
2.90326
3.19553
3.55817
3.98053
4.5533
5.17575
5.76751
6.44415
7.12518
7.58164
2.91928
2.59351
2.42073
2.32421
2.28183
2.24646
2.22928
2.24469
2.26282
2.2874
2.35608
2.46012
2.61923
2.81857
3.1146
3.47377
3.9058
4.49689
5.12051
5.72972
6.41907
7.09603
7.58831
2.92101
2.59446
2.42351
2.32904
2.28493
2.24695
2.2289
2.23759
2.24996
2.26992
2.32529
2.41726
2.56381
2.75452
3.04614
3.40139
3.84996
4.43284
5.05708
5.68133
6.39542
7.07271
7.57262
2.92468
2.59552
2.42533
2.33225
2.28695
2.2476
2.22227
2.22172
2.22587
2.23963
2.283
2.36363
2.49522
2.68121
2.96949
3.32196
3.78556
4.36411
5.00052
5.63909
6.35879
7.05845
7.5695
2.92662
2.59703
2.42774
2.3366
2.28973
2.25033
2.22402
2.22167
2.22125
2.23085
2.26347
2.33172
2.44805
2.62299
2.9009
3.24324
3.7162
4.28779
4.92717
5.57102
6.31505
7.03254
7.55391
2.93016
2.59811
2.42889
2.33948
2.29093
2.25272
2.22515
2.21792
2.21243
2.21805
2.24317
2.30148
2.40208
2.5672
2.83389
3.17206
3.65808
4.2139
4.87039
5.51764
6.26457
7.00632
7.53387
2.93199
2.60002
2.43095
2.34277
2.29258
2.25531
2.22787
2.21944
2.21239
2.21614
2.23494
2.28427
2.37198
2.52332
2.77596
3.10288
3.58887
4.13186
4.79695
5.43785
6.20217
6.96568
7.49164
2.93517
2.60155
2.43218
2.34528
2.29365
2.25743
2.22981
2.22083
2.2122
2.21404
2.22986
2.27213
2.34819
2.48762
2.72428
3.0452
3.53471
4.0564
4.74037
5.36957
6.13618
6.91196
7.47083
2.93707
2.60393
2.43419
2.34814
2.29457
2.25962
2.23189
2.22158
2.2138
2.21459
2.2286
2.26622
2.33426
2.46175
2.68361
2.99511
3.47442
3.98032
4.67202
5.28507
6.06022
6.84768
7.41801
2.93975
2.60595
2.43581
2.34992
2.29545
2.26135
2.23384
2.22265
2.21534
2.21594
2.22866
2.26345