/*--------------------------------*- C++ -*----------------------------------*\
  =========                 |
  \\      /  F ield         | OpenFOAM: The Open Source CFD Toolbox
   \\    /   O peration     | Website:  https://openfoam.org
    \\  /    A nd           | Version:  7
     \\/     M anipulation  |
\*---------------------------------------------------------------------------*/
FoamFile
{
    version     2.0;
    format      ascii;
    class       volScalarField;
    location    "77";
    object      p;
}
// * * * * * * * * * * * * * * * * * * * * * * * * * * * * * * * * * * * * * //

dimensions      [0 2 -2 0 0 0 0];

internalField   nonuniform List<scalar> 
12842
(
0.888765
0.883789
0.78274
0.650213
0.539384
0.487019
0.522919
0.683629
1.02343
1.62165
2.57728
3.99144
5.93737
8.42467
11.3757
14.6281
17.9676
21.1813
24.108
26.6593
28.8189
30.6031
32.0785
0.370902
0.31912
0.134295
-0.130418
-0.415742
-0.682866
-0.910319
-1.06713
-1.0986
-0.910143
-0.375693
0.646176
2.27303
4.54907
7.40832
10.6716
14.0903
17.4174
20.4702
23.1512
25.4421
27.3512
28.9553
-0.034782
-0.140081
-0.402947
-0.790533
-1.23404
-1.69425
-2.16627
-2.62471
-3.01767
-3.23389
-3.12164
-2.49501
-1.18767
0.882652
3.66003
6.94086
10.4325
13.8487
16.9864
19.7426
22.1054
24.0729
25.7469
-0.352787
-0.50175
-0.843418
-1.35126
-1.94236
-2.58101
-3.28905
-4.04182
-4.7964
-5.42087
-5.74175
-5.52116
-4.53918
-2.66962
0.040351
3.35397
6.92361
10.4169
13.6108
16.4001
18.7847
20.7553
22.4478
-0.600233
-0.777983
-1.20308
-1.82706
-2.55386
-3.35651
-4.29398
-5.33234
-6.44934
-7.48584
-8.25525
-8.4575
-7.81572
-6.15075
-3.49985
-0.140769
3.51311
7.0753
10.3014
13.086
15.4487
17.3732
19.0442
-0.789188
-0.983326
-1.49677
-2.22693
-3.07434
-4.02369
-5.18074
-6.48793
-7.96236
-9.40749
-10.6393
-11.2828
-11.0054
-9.56156
-6.97521
-3.56919
0.168424
3.78798
7.02164
9.76529
12.0653
13.9028
15.5212
-0.929947
-1.13233
-1.73701
-2.55789
-3.50933
-4.58583
-5.94806
-7.49874
-9.31836
-11.1599
-12.8645
-13.968
-14.0884
-12.8951
-10.392
-6.94528
-3.12575
0.542882
3.76516
6.43725
8.64115
10.3536
11.8978
-1.03282
-1.23866
-1.93331
-2.82536
-3.86432
-5.04665
-6.59459
-8.35649
-10.5019
-12.7194
-14.9035
-16.4872
-17.0529
-16.1613
-13.7864
-10.3264
-6.43771
-2.72969
0.467491
3.04466
5.12652
6.67185
8.12691
-1.10891
-1.31221
-2.08944
-3.02708
-4.13187
-5.39089
-7.08305
-9.00254
-11.4098
-13.9332
-16.5286
-18.5336
-19.5062
-18.8853
-16.6104
-13.0993
-9.09516
-5.30386
-2.09554
0.405961
2.39057
3.73574
5.11157
-1.18027
-1.37421
-2.23564
-3.20353
-4.36302
-5.68723
-7.49109
-9.54063
-12.1526
-14.9264
-17.8504
-20.1969
-21.497
-21.082
-18.8608
-15.2659
-11.1212
-7.22392
-3.98606
-1.5461
0.340763
1.51736
2.7745
-1.23157
-1.42341
-2.36932
-3.35779
-4.57032
-5.95853
-7.8587
-10.0356
-12.831
-15.8466
-19.0786
-21.7599
-23.3884
-23.1968
-21.0593
-17.4095
-13.1441
-9.14973
-5.88904
-3.52219
-1.75792
-0.766307
0.338036
-1.2655
-1.46332
-2.4871
-3.48682
-4.74883
-6.19634
-8.17476
-10.4743
-13.4307
-16.6807
-20.2054
-23.2268
-25.201
-25.2725
-23.267
-19.6015
-15.2338
-11.1401
-7.84648
-5.54183
-3.90904
-3.09341
-2.15677
-1.28647
-1.49842
-2.5885
-3.5933
-4.90021
-6.40106
-8.44077
-10.8579
-13.9561
-17.4367
-21.2487
-24.6305
-26.9859
-27.3774
-25.5627
-21.9223
-17.4626
-13.2518
-9.89378
-7.61647
-6.10709
-5.4418
-4.68869
-1.2987
-1.53177
-2.67382
-3.68245
-5.02951
-6.57822
-8.6663
-11.1964
-14.4226
-18.1337
-22.2365
-26.0091
-28.7936
-29.5747
-28.0207
-24.4527
-19.9072
-15.5446
-12.0641
-9.75244
-8.33741
-7.79197
-7.23571
-1.30403
-1.56488
-2.74394
-3.75929
-5.14173
-6.73373
-8.86216
-11.5002
-14.8463
-18.7881
-23.1894
-27.3852
-30.6514
-31.8975
-30.6807
-27.2348
-22.6016
-18.0323
-14.3418
-11.9077
-10.5328
-10.0672
-9.70194
-1.30503
-1.59791
-2.80012
-3.8278
-5.24051
-6.87222
-9.03665
-11.7767
-15.2387
-19.4098
-24.119
-28.768
-32.5685
-34.3556
-33.553
-30.2763
-25.5424
-20.6905
-16.6736
-13.9981
-12.5704
-12.1196
-11.9027
-1.30387
-1.63017
-2.84452
-3.8903
-5.3279
-6.99629
-9.19419
-12.0292
-15.6048
-20.0019
-25.0269
-30.1542
-34.5391
-36.9417
-36.6322
-33.5734
-28.7224
-23.4998
-19.0169
-15.944
-14.3202
-13.7768
-13.6063
-1.30274
-1.66034
-2.87939
-3.94789
-5.40503
-7.10713
-9.33643
-12.2589
-15.9458
-20.5638
-25.9107
-31.538
-36.5559
-39.6523
-39.9258
-37.1506
-32.1802
-26.4995
-21.3917
-17.7151
-15.6853
-14.8802
-14.6057
-1.30272
-1.68718
-2.907
-4.00051
-5.47229
-7.20476
-9.46321
-12.4647
-16.26
-21.0925
-26.7652
-32.9123
-38.6145
-42.4937
-43.4646
-41.074
-36.0155
-29.8013
-23.8915
-19.3556
-16.6377
-15.3253
-14.6834
-1.30474
-1.70976
-2.92918
-4.04813
-5.53031
-7.28934
-9.57431
-12.6465
-16.5464
-21.5869
-27.5891
-34.2777
-40.7234
-45.4943
-47.3135
-45.4592
-40.3944
-33.595
-26.6974
-20.9981
-17.2033
-14.973
-13.5699
-1.30867
-1.7277
-2.94716
-4.09002
-5.57915
-7.36053
-9.66906
-12.8032
-16.8031
-22.0439
-28.3785
-35.6323
-42.889
-48.6829
-51.544
-50.4384
-45.5175
-38.1247
-30.0372
-22.8095
-17.4463
-13.7966
-11.1372
-1.31461
-1.74152
-2.9627
-4.12758
-5.62085
-7.42024
-9.74932
-12.9373
-17.0324
-22.467
-29.138
-36.9846
-45.1299
-52.1009
-56.24
-56.1616
-51.6188
-43.688
-34.19
-25.1131
-17.8284
-12.2831
-7.69547
-1.32057
-1.75066
-2.97477
-4.1584
-5.65394
-7.46729
-9.81383
-13.0475
-17.2315
-22.8505
-29.8581
-38.3209
-47.4339
-55.7528
-61.4535
-62.7712
-58.9591
-50.6733
-39.7561
-28.7091
-19.1106
-10.8513
-3.47344
-1.3248
-1.75696
-2.98891
-4.18817
-5.68455
-7.50724
-9.86965
-13.1386
-17.4018
-23.1815
-30.4996
-39.5598
-49.6641
-59.4528
-66.998
-70.1751
-67.6558
-59.5417
-47.716
-34.868
-22.505
-10.6339
0.472198
-1.35057
-1.77642
-3.01669
-4.22593
-5.72149
-7.54898
-9.92492
-13.2183
-17.5488
-23.4604
-31.0568
-40.6768
-51.7677
-63.1146
-72.7739
-78.3324
-77.8901
-70.9601
-59.2999
-45.3657
-30.7133
-15.8867
-2.01705
-1.37564
-1.79635
-3.04769
-4.26495
-5.76168
-7.59428
-9.9895
-13.3087
-17.7145
-23.7549
-31.6308
-41.8016
-53.8964
-66.8953
-78.9327
-87.4128
-89.958
-85.505
-75.3745
-61.9406
-47.5465
-33.3305
-20.6541
-1.39606
-1.81271
-3.07464
-4.29517
-5.79305
-7.62841
-10.0446
-13.3863
-17.8666
-24.0232
-32.1673
-42.8683
-55.9727
-70.7084
-85.3965
-97.4311
-104.077
-103.626
-96.9002
-86.9047
-76.7463
-67.1488
-58.835
-1.41227
-1.82564
-3.09565
-4.31495
-5.81286
-7.64771
-10.0827
-13.441
-17.9874
-24.2456
-32.6409
-43.8556
-57.9803
-74.5424
-92.1648
-108.459
-120.415
-125.497
-124.137
-119.869
-115.285
-110.098
-104.706
-1.4236
-1.83565
-3.11111
-4.32646
-5.82416
-7.657
-10.108
-13.4791
-18.0816
-24.4296
-33.0589
-44.7751
-59.932
-78.409
-99.2474
-120.514
-138.94
-150.837
-155.887
-157.19
-156.371
-153.123
-148.492
-1.42975
-1.84333
-3.12249
-4.33371
-5.83243
-7.66416
-10.1297
-13.5134
-18.1635
-24.5948
-33.4426
-45.6492
-61.8439
-82.3127
-106.627
-133.51
-159.373
-178.858
-190.031
-195.109
-195.719
-192.693
-187.84
-1.43199
-1.85019
-3.13221
-4.3407
-5.84244
-7.67536
-10.1547
-13.5526
-18.2437
-24.7541
-33.8052
-46.4867
-63.7109
-86.2237
-114.23
-147.236
-181.229
-208.493
-224.641
-231.636
-232.364
-228.896
-223.508
-1.4326
-1.85768
-3.14239
-4.35043
-5.85704
-7.69354
-10.1855
-13.5994
-18.3256
-24.9109
-34.149
-47.2832
-65.5109
-90.0846
-121.927
-161.396
-203.927
-238.674
-258.504
-266.211
-266.461
-262.307
-256.209
-1.43368
-1.86689
-3.15436
-4.3639
-5.87641
-7.71797
-10.2206
-13.6508
-18.4059
-25.0598
-34.4662
-48.0217
-67.2078
-93.8144
-129.545
-175.645
-226.86
-268.477
-291.005
-298.929
-298.656
-294.027
-287.446
-1.43635
-1.87785
-3.16809
-4.38065
-5.89896
-7.74581
-10.256
-13.7011
-18.4786
-25.1923
-34.7461
-48.6844
-68.7663
-97.3277
-136.891
-189.627
-249.427
-297.188
-321.871
-330.156
-330.011
-325.514
-318.851
-1.44085
-1.89012
-3.18298
-4.39911
-5.92212
-7.77334
-10.2874
-13.7445
-18.5376
-25.3002
-34.9786
-49.2548
-70.1534
-100.541
-143.775
-202.947
-271.015
-324.236
-350.872
-359.976
-360.673
-356.759
-350.241
-1.44686
-1.90284
-3.19797
-4.41773
-5.9437
-7.79766
-10.3121
-13.7775
-18.5799
-25.3796
-35.159
-49.7234
-71.3449
-103.387
-150.023
-215.2
-291.028
-349.052
-377.481
-387.677
-389.453
-386.339
-380.179
-1.45391
-1.91542
-3.21238
-4.43519
-5.96214
-7.81708
-10.3287
-13.7987
-18.6053
-25.4299
-35.2863
-50.0851
-72.321
-105.806
-155.452
-226.013
-308.811
-370.885
-400.79
-411.986
-414.826
-412.649
-406.958
-1.46154
-1.92728
-3.22567
-4.45092
-5.97705
-7.83143
-10.3381
-13.8097
-18.6162
-25.454
-35.3636
-50.3389
-73.066
-107.737
-159.859
-235.06
-323.659
-388.866
-419.826
-431.92
-435.646
-434.257
-429.072
-1.46945
-1.93834
-3.23783
-4.46474
-5.98863
-7.84137
-10.342
-13.8128
-18.6161
-25.4558
-35.394
-50.4838
-73.5631
-109.131
-163.077
-242.02
-334.926
-402.251
-433.952
-446.998
-451.561
-451.214
-446.62
-1.47738
-1.94848
-3.24891
-4.47695
-5.99769
-7.84823
-10.3427
-13.811
-18.6086
-25.4391
-35.3803
-50.5172
-73.7973
-109.968
-165.044
-246.568
-342.037
-410.415
-442.728
-456.796
-462.885
-463.611
-459.004
-1.48525
-1.95793
-3.25925
-4.48789
-6.00501
-7.85319
-10.3418
-13.8063
-18.5959
-25.4059
-35.323
-50.4343
-73.7529
-110.171
-165.733
-248.446
-344.522
-412.841
-445.65
-460.311
-466.901
-467.921
-463.244
-1.49294
-1.96675
-3.26904
-4.49806
-6.01146
-7.85735
-10.3408
-13.8003
-18.5791
-25.3569
-35.2213
-50.2301
-73.4187
-109.65
-165.097
-247.511
-342.158
-409.093
-441.293
-455.135
-460.371
-459.525
-451.713
-1.50048
-1.97524
-3.27861
-4.50773
-6.01754
-7.8613
-10.3403
-13.7934
-18.5581
-25.2913
-35.0728
-49.9016
-72.8026
-108.398
-163.095
-243.745
-334.975
-399.194
-429.058
-439.823
-441.597
-438.018
-428.499
-1.50782
-1.98345
-3.28805
-4.51724
-6.0237
-7.86541
-10.3403
-13.7853
-18.532
-25.2077
-34.8751
-49.4465
-71.9022
-106.487
-159.714
-237.307
-323.403
-383.155
-408.869
-415.893
-414.231
-407.977
-397.867
-1.51502
-1.99162
-3.29755
-4.52667
-6.03005
-7.86968
-10.3405
-13.7755
-18.4996
-25.1046
-34.6271
-48.8599
-70.681
-103.975
-155.011
-228.515
-308.345
-362.001
-382.501
-385.542
-381.141
-373.259
-363.384
-1.52206
-1.99972
-3.30708
-4.53615
-6.03669
-7.874
-10.3405
-13.7631
-18.4595
-24.981
-34.3281
-48.1414
-69.1293
-100.9
-149.105
-217.774
-290.677
-337.326
-352.412
-351.786
-345.366
-336.829
-327.781
-1.52897
-2.00789
-3.31675
-4.54564
-6.04349
-7.87812
-10.3397
-13.7476
-18.4111
-24.8365
-33.9791
-47.2973
-67.2736
-97.2714
-142.128
-205.451
-271.125
-310.686
-320.785
-317.179
-309.411
-300.946
-293.127
-1.53569
-2.016
-3.32642
-4.55516
-6.0504
-7.88185
-10.3377
-13.7286
-18.3539
-24.6718
-33.5824
-46.3416
-65.1726
-93.1326
-134.217
-191.893
-250.397
-283.456
-289.341
-283.552
-275.076
-267.141
-260.696
-1.54078
-2.02356
-3.33578
-4.56434
-6.05725
-7.88532
-10.3354
-13.7083
-18.2937
-24.4993
-33.1658
-45.3527
-62.9937
-88.7141
-125.833
-177.93
-229.957
-257.724
-260.38
-253.142
-244.465
-237.249
-232.044
-1.55043
-2.03404
-3.3479
-4.57582
-6.06621
-7.89079
-10.3359
-13.6937
-18.2446
-24.3489
-32.7927
-44.4806
-60.9941
-84.4957
-117.892
-164.969
-211.764
-235.72
-236.221
-228.23
-219.653
-213.093
-208.758
-1.56069
-2.04483
-3.36133
-4.58866
-6.07715
-7.89921
-10.342
-13.6902
-18.2182
-24.2456
-32.5129
-43.8
-59.3587
-80.908
-111.171
-153.991
-196.717
-217.99
-217.218
-209.046
-200.649
-194.569
-190.72
-1.57185
-2.05587
-3.37603
-4.60257
-6.08942
-7.9096
-10.3522
-13.6967
-18.2128
-24.1896
-32.3273
-43.272
-58.1223
-78.0945
-105.831
-145.031
-184.543
-203.841
-202.359
-194.355
-186.101
-180.308
-176.643
-1.58432
-2.06719
-3.39158
-4.61649
-6.1014
-7.91984
-10.3637
-13.7091
-18.2217
-24.1707
-32.2171
-42.8662
-57.249
-76.0012
-101.756
-137.863
-174.711
-192.482
-190.626
-182.948
-174.858
-169.182
-165.509
-1.59763
-2.07827
-3.40711
-4.62945
-6.1118
-7.92836
-10.3742
-13.7239
-18.2381
-24.1766
-32.1577
-42.5716
-56.6502
-74.434
-98.6437
-132.129
-166.678
-183.132
-181.027
-173.694
-165.887
-160.177
-156.421
-1.61136
-2.08888
-3.42209
-4.64083
-6.12002
-7.93471
-10.383
-13.7396
-18.2576
-24.197
-32.1308
-42.3799
-56.2389
-73.2651
-96.2263
-127.54
-159.987
-175.182
-172.913
-165.855
-158.358
-152.528
-148.66
-1.62487
-2.09865
-3.43596
-4.65034
-6.12593
-7.93899
-10.3904
-13.7563
-18.2796
-24.2284
-32.1307
-42.2951
-55.9342
-72.448
-94.3987
-123.926
-154.398
-168.387
-165.955
-159.085
-151.776
-145.82
-141.851
-1.63938
-2.10887
-3.45033
-4.66008
-6.13212
-7.94427
-10.3997
-13.7767
-18.3062
-24.2686
-32.1479
-42.2835
-55.6573
-71.8473
-92.9284
-120.791
-149.314
-162.051
-159.339
-152.631
-145.411
-139.433
-135.432
-1.65228
-2.11715
-3.46207
-4.66623
-6.13411
-7.9448
-10.4032
-13.7893
-18.3205
-24.2897
-32.145
-42.2806
-55.3621
-71.3407
-91.6411
-117.973
-144.669
-156.196
-153.113
-146.497
-139.283
-133.335
-129.381
-1.66512
-2.12529
-3.47319
-4.6716
-6.13549
-7.94528
-10.4069
-13.801
-18.3312
-24.2993
-32.1228
-42.2597
-55.054
-70.853
-90.4196
-115.356
-140.19
-150.469
-147.09
-140.554
-133.288
-127.358
-123.495
-1.6776
-2.1332
-3.48377
-4.67692
-6.1375
-7.9474
-10.4129
-13.8144
-18.3427
-24.3017
-32.0839
-42.2128
-54.7134
-70.2834
-89.1527
-112.702
-135.543
-144.474
-140.925
-134.467
-127.154
-121.283
-117.546
-1.68969
-2.14107
-3.49411
-4.68251
-6.14047
-7.95126
-10.421
-13.8284
-18.3541
-24.2966
-32.031
-42.1406
-54.3517
-69.61
-87.8027
-109.867
-130.641
-138.244
-134.586
-128.175
-120.828
-115.142
-111.495
-1.70144
-2.14904
-3.50459
-4.68895
-6.1449
-7.95688
-10.4307
-13.8416
-18.3639
-24.283
-31.9666
-42.0291
-53.9859
-68.8732
-86.3629
-106.865
-125.562
-131.947
-128.138
-121.723
-114.416
-109.048
-105.452
-1.71322
-2.15747
-3.51573
-4.69654
-6.15093
-7.96404
-10.4413
-13.8531
-18.371
-24.2611
-31.8916
-41.8532
-53.6219
-68.0845
-84.8098
-103.726
-120.37
-125.618
-121.578
-115.133
-108.005
-102.976
-99.4061
-1.7251
-2.16634
-3.52757
-4.70533
-6.1583
-7.97207
-10.4517
-13.862
-18.374
-24.2295
-31.8029
-41.5924
-53.2422
-67.2016
-83.095
-100.42
-115.052
-119.175
-114.853
-108.391
-101.576
-96.8148
-93.245
-1.73717
-2.17561
-3.53999
-4.71477
-6.16617
-7.97974
-10.4603
-13.8666
-18.3708
-24.1865
-31.6966
-41.2449
-52.8083
-66.2047
-81.1816
-96.908
-109.586
-112.573
-107.965
-101.523
-95.0824
-90.4893
-86.9243
-1.74921
-2.18495
-3.55253
-4.72432
-6.17368
-7.98595
-10.4658
-13.8659
-18.3593
-24.1303
-31.5693
-40.8302
-52.2895
-65.0955
-79.0666
-93.1957
-103.992
-105.863
-101.003
-94.6262
-88.5899
-84.0657
-80.5417
-1.76124
-2.19426
-3.56496
-4.73343
-6.18014
-7.98999
-10.4675
-13.8598
-18.3395
-24.062
-31.4215
-40.3839
-51.6967
-63.8711
-76.7914
-89.3409
-98.3434
-99.1663
-94.1069
-87.8553
-82.2135
-77.7227
-74.2853
-1.77308
-2.20333
-3.57696
-4.74189
-6.18534
-7.99184
-10.4658
-13.8492
-18.3125
-23.9842
-31.2567
-39.9388
-51.0478
-62.5304
-74.4118
-85.418
-92.7351
-92.6123
-87.4094
-81.3335
-76.0355
-71.6066
-68.3001
-1.78479
-2.2122
-3.58856
-4.74958
-6.18924
-7.99179
-10.4614
-13.8358
-18.2804
-23.901
-31.0811
-39.5167
-50.342
-61.097
-71.9745
-81.4988
-87.254
-86.2981
-81.0002
-75.1242
-70.0925
-65.7889
-62.6075
-1.79623
-2.22077
-3.59966
-4.75662
-6.19214
-7.99042
-10.4553
-13.821
-18.2454
-23.8153
-30.8994
-39.124
-49.5684
-59.6066
-69.5074
-77.6302
-81.9526
-80.266
-74.9066
-69.2249
-64.3993
-60.2677
-57.177
-1.80753
-2.22917
-3.61038
-4.76307
-6.19426
-7.98826
-10.4483
-13.8059
-18.209
-23.7293
-30.7142
-38.7574
-48.7285
-58.0938
-67.0342
-73.8388
-76.8504
-74.5153
-69.1078
-63.5897
-58.9185
-55.0092
-51.9899
-1.81854
-2.23732
-3.6207
-4.76914
-6.19593
-7.98578
-10.4411
-13.791
-18.1715
-23.6424
-30.5243
-38.4049
-47.8332
-56.575
-64.5644
-70.1256
-71.9324
-69.0085
-63.5454
-58.1474
-53.601
-49.9242
-46.9809
-1.8294
-2.24537
-3.63076
-4.77487
-6.19729
-7.98321
-10.4338
-13.7763
-18.1326
-23.553
-30.326
-38.0513
-46.8986
-55.0533
-62.0975
-66.4786
-67.1699
-63.6987
-58.1553
-52.8335
-48.3912
-44.8986
-42.0491
-1.83994
-2.25324
-3.64052
-4.78044
-6.19854
-7.98069
-10.4265
-13.761
-18.091
-23.4579
-30.113
-37.6781
-45.9342
-53.5173
-59.6203
-62.8721
-62.5266
-58.5385
-52.8872
-47.6002
-43.2506
-39.8829
-37.1703
-1.85032
-2.26105
-3.65008
-4.7858
-6.19966
-7.97813
-10.4189
-13.7444
-18.045
-23.3538
-29.8793
-37.2688
-44.9456
-51.9534
-57.1211
-59.2862
-57.9754
-53.4949
-47.7212
-42.4431
-38.1762
-34.9198
-32.3612
-1.86036
-2.26871
-3.65937
-4.79105
-6.20069
-7.97542
-10.4104
-13.7251
-17.993
-23.2368
-29.6182
-36.8086
-43.9307
-50.3443
-54.5845
-55.7059
-53.496
-48.5482
-42.6581
-37.3888
-33.2101
-30.0675
-27.6486
-1.87022
-2.27632
-3.66846
-4.79609
-6.20151
-7.97229
-10.4008
-13.7024
-17.9335
-23.1043
-29.3256
-36.2884
-42.8866
-48.6781
-52.0015
-52.1277
-49.0838
-43.7047
-37.7208
-32.4885
-28.4113
-25.3964
-23.1179
-1.87971
-2.28379
-3.67726
-4.80097
-6.20209
-7.96856
-10.3895
-13.6752
-17.8651
-22.9539
-28.9983
-35.7029
-41.8079
-46.9453
-49.3682
-48.5504
-44.7435
-38.9888
-32.9492
-27.7966
-23.8519
-20.9858
-18.8649
-1.88901
-2.29119
-3.68582
-4.80556
-6.20226
-7.96392
-10.376
-13.643
-17.7871
-22.7847
-28.6359
-35.0524
-40.6922
-45.1467
-46.6928
-44.986
-40.4961
-34.4425
-28.4007
-23.3787
-19.5984
-16.8983
-14.9359
-1.89791
-2.29842
-3.69402
-4.80989
-6.20198
-7.95822
-10.3601
-13.6051
-17.699
-22.596
-28.239
-34.3394
-39.5316
-43.2826
-43.9838
-41.4536
-36.3749
-30.1119
-24.1342
-19.2903
-15.7012
-13.1689
-11.3593
-1.9066
-2.30555
-3.70192
-4.8138
-6.20106
-7.9512
-10.3414
-13.5615
-17.6007
-22.3886
-27.8104
-33.5698
-38.3197
-41.3584
-41.257
-37.9839
-32.4259
-26.046
-20.1964
-15.5666
-12.1787
-9.81171
-8.14772
-1.91485
-2.31247
-3.70939
-4.81733
-6.19948
-7.94275
-10.3199
-13.5117
-17.4921
-22.1628
-27.3526
-32.75
-37.0517
-39.3825
-38.5306
-34.6082
-28.6869
-22.281
-16.6102
-12.2114
-9.02938
-6.82454
-5.29852
-1.92286
-2.31925
-3.71648
-4.82032
-6.19707
-7.93269
-10.2952
-13.456
-17.3734
-21.92
-26.8697
-31.8887
-35.7319
-37.3714
-35.831
-31.36
-25.1853
-18.8378
-13.3805
-9.222
-6.24528
-4.20319
-2.80775
-1.9304
-2.32577
-3.72305
-4.8228
-6.19381
-7.92096
-10.2675
-13.3943
-17.2449
-21.6607
-26.3643
-30.9937
-34.3689
-35.34
-33.1817
-28.2645
-21.9377
-15.7186
-10.5011
-6.58899
-3.8219
-1.94187
-0.667774
-1.93766
-2.33212
-3.72917
-4.82462
-6.18956
-7.90743
-10.2364
-13.3266
-17.1066
-21.3862
-25.8409
-30.0731
-32.9762
-33.304
-30.6047
-25.3431
-18.9612
-12.9195
-7.96009
-4.29968
-1.74361
-0.0200976
1.14502
-1.94439
-2.33816
-3.73469
-4.82582
-6.18432
-7.89208
-10.2021
-13.253
-16.9585
-21.0967
-25.3009
-29.128
-31.5602
-31.2796
-28.1153
-22.6082
-16.2618
-10.4318
-5.74049
-2.33053
0.0217297
1.60257
2.67368
-1.95081
-2.34398
-3.73966
-4.82626
-6.17797
-7.8748
-10.1644
-13.1734
-16.8005
-20.7925
-24.7445
-28.1649
-30.1195
-29.2919
-25.7308
-20.0681
-13.8349
-8.2427
-3.82059
-0.651975
1.51715
2.97538
3.9677
-1.95664
-2.34944
-3.74396
-4.82597
-6.1705
-7.85555
-10.1233
-13.0876
-16.6324
-20.4724
-24.1713
-27.1868
-28.6572
-27.3559
-23.4609
-17.7192
-11.6588
-6.32425
-2.16842
0.776821
2.78706
4.14297
5.07052
-1.96211
-2.35465
-3.74764
-4.82482
-6.16179
-7.83422
-10.0785
-12.9955
-16.4538
-20.1372
-23.57
-26.1915
-27.1897
-25.4781
-21.311
-15.5595
-9.70718
-4.64172
-0.744584
1.99862
3.87367
5.14434
6.01732
-1.96692
-2.35945
-3.75056
-4.82285
-6.15183
-7.81077
-10.0299
-12.8968
-16.2641
-19.7879
-22.9392
-25.1751
-25.7215
-23.6665
-19.2816
-13.5857
-7.9562
-3.16118
0.487185
3.04944
4.80675
6.00334
6.82646
-1.97132
-2.36395
-3.75277
-4.8199
-6.14049
-7.78503
-9.97739
-12.7913
-16.0628
-19.425
-22.2999
-24.1613
-24.2497
-21.9124
-17.367
-11.7887
-6.38824
-1.85817
1.55325
3.94999
5.6003
6.72596
7.49836
-1.97498
-2.368
-3.75412
-4.81603
-6.12776
-7.75694
-9.92065
-12.6784
-15.8492
-19.0464
-21.6678
-23.1774
-22.78
-20.2045
-15.5606
-10.1464
-4.98331
-0.715272
2.47049
4.71121
6.25725
7.30962
8.0278
-1.97818
-2.3717
-3.75469
-4.81106
-6.11347
-7.72629
-9.85945
-12.5578
-15.6227
-18.65
-21.0362
-22.2206
-21.3355
-18.5519
-13.8743
-8.64194
-3.72583
0.276993
3.24745
5.33806
6.77957
7.75424
8.41413
-1.98055
-2.37489
-3.75429
-4.80504
-6.09759
-7.69298
-9.79352
-12.429
-15.3826
-18.2334
-20.3835
-21.263
-19.9282
-16.9545
-12.3144
-7.26472
-2.60946
1.1227
3.88431
5.82653
7.16124
8.05548
8.65477
-1.98257
-2.37776
-3.75304
-4.79778
-6.07992
-7.65673
-9.72248
-12.2918
-15.1291
-17.7941
-19.6893
-20.2793
-18.5655
-15.4075
-10.8634
-6.00815
-1.62798
1.83791
4.39599
6.18948
7.41272
8.22566
8.76539
-1.98397
-2.38029
-3.75086
-4.7893
-6.06032
-7.61731
-9.64606
-12.1454
-14.8603
-17.3363
-18.9588
-19.2678
-17.2657
-13.935
-9.51766
-4.88903
-0.801056
2.40388
4.75805
6.3984
7.5089
8.24246
8.72734
-1.98904
-2.38446
-3.74907
-4.77927
-6.03695
-7.57052
-9.55631
-11.9792
-14.565
-16.8132
-18.1085
-18.1545
-15.9578
-12.4963
-8.20373
-3.82723
-0.0253779
2.95262
5.12938
6.63511
7.64518
8.30504
8.73931
-1.98331
-2.37818
-3.734
-4.75251
-5.99272
-7.49553
-9.42563
-11.7556
-14.204
-16.2409
-17.2188
-17.0717
-14.7981
-11.2914
-7.11964
-3.01629
0.483524
3.22771
5.2361
6.62927
7.56499
8.17788
8.58106
-1.97719
-2.36974
-3.71361
-4.71694
-5.9351
-7.40029
-9.26237
-11.4784
-13.7616
-15.6033
-16.2693
-15.938
-13.6763
-10.2133
-6.20111
-2.38675
0.812737
3.30945
5.1438
6.42653
7.29517
7.87048
8.25336
-1.97045
-2.35982
-3.68909
-4.67549
-5.86819
-7.29074
-9.07462
-11.1565
-13.2359
-14.8808
-15.2411
-14.6693
-12.4553
-9.1422
-5.37635
-1.8779
1.02542
3.27452
4.92626
6.08998
6.88802
7.42598
7.79249
-1.96177
-2.34709
-3.65901
-4.62671
-5.79054
-7.16489
-8.8594
-10.7893
-12.6354
-14.0743
-14.1607
-13.3049
-11.1371
-8.04661
-4.5976
-1.43913
1.16249
3.17096
4.64142
5.68139
6.40226
6.89633
7.2424
-1.95012
-2.33068
-3.62213
-4.56917
-5.69986
-7.01862
-8.61073
-10.3741
-11.971
-13.1895
-13.0521
-11.9363
-9.80888
-6.95763
-3.85761
-1.05029
1.25183
3.02273
4.31811
5.23642
5.87808
6.32345
6.64358
-1.93584
-2.3105
-3.57809
-4.5016
-5.59426
-6.8489
-8.32535
-9.91122
-11.2488
-12.2258
-11.9175
-10.6137
-8.53188
-5.91311
-3.17459
-0.722413
1.28644
2.82584
3.95327
4.75696
5.32393
5.72214
6.01492
-1.91786
-2.28575
-3.52574
-4.4225
-5.47151
-6.65299
-8.00145
-9.40093
-10.4705
-11.1825
-10.7534
-9.34686
-7.33993
-4.95666
-2.56989
-0.468586
1.24813
2.56695
3.53804
4.23599
4.7336
5.087
5.35123
-1.8955
-2.25526
-3.46335
-4.329
-5.32796
-6.42696
-7.63606
-8.84227
-9.64159
-10.0748
-9.56239
-8.15224
-6.26306
-4.13718
-2.08064
-0.300746
1.14259
2.24897
3.06895
3.66542
4.09744
4.40863
4.64444
-1.86702
-2.21728
-3.38839
-4.21795
-5.15937
-6.16621
-7.22546
-8.23462
-8.77532
-8.94076
-8.36917
-7.03943
-5.32443
-3.46872
-1.72811
-0.242023
0.957679
1.88088
2.56918
3.07357
3.44362
3.71389
3.91986
-1.83203
-2.17057
-3.29887
-4.08606
-4.96164
-5.86682
-6.76733
-7.58108
-7.89225
-7.82202
-7.21663
-6.00958
-4.51542
-2.93703
-1.48936
-0.261105
0.728934
1.4883
2.05917
2.48393
2.80167
3.03878
3.21917
-1.78936
-2.11354
-3.19262
-3.93084
-4.73181
-5.52679
-6.26288
-6.88931
-7.01479
-6.75733
-6.13574
-5.07433
-3.81191
-2.505
-1.31678
-0.315292
0.495892
1.12563
1.60049
1.95583
2.22505
2.42908
2.58196
-1.73906
-2.04527
-3.06822
-3.75003
-4.46792
-5.14632
-5.71727
-6.17015
-6.16016
-5.77525
-5.14744
-4.23254
-3.19424
-2.13375
-1.17486
-0.362623
0.292846
0.807659
1.20693
1.51129
1.74258
1.91839
2.04528
-1.67996
-1.96407
-2.92379
-3.54215
-4.16935
-4.72795
-5.13908
-5.43575
-5.3369
-4.88392
-4.26397
-3.47952
-2.63858
-1.79724
-1.03858
-0.391183
0.138128
0.554888
0.881868
1.13677
1.33411
1.4848
1.58906
-1.61204
-1.86911
-2.75828
-3.30594
-3.8365
-4.27607
-4.53905
-4.69865
-4.54839
-4.08008
-3.48926
-2.81706
-2.13924
-1.48307
-0.895594
-0.391367
0.0285682
0.36595
0.629534
0.834477
0.995131
1.11762
1.20037
-1.53395
-1.75845
-2.57023
-3.04129
-3.47143
-3.79688
-3.92916
-3.97185
-3.79758
-3.35729
-2.81919
-2.24874
-1.70181
-1.19196
-0.744204
-0.357991
-0.0345209
0.229113
0.435653
0.595031
0.718453
0.811758
0.878917
-1.44596
-1.63172
-2.35959
-2.74891
-3.07781
-3.29799
-3.32175
-3.2688
-3.08782
-2.70515
-2.24037
-1.76581
-1.32628
-0.930783
-0.591794
-0.302536
-0.0630855
0.13028
0.280124
0.393306
0.482078
0.556281
0.620705
-1.34683
-1.48764
-2.12645
-2.43158
-2.66161
-2.78851
-2.72864
-2.60195
-2.42215
-2.11003
-1.73094
-1.3477
-0.997953
-0.693372
-0.439107
-0.227307
-0.0563949
0.0768809
0.175537
0.249757
0.316865
0.387385
0.45956
-1.23755
-1.32729
-1.87331
-2.09393
-2.23114
-2.27869
-2.1602
-1.98089
-1.80254
-1.55749
-1.26346
-0.965006
-0.692687
-0.46099
-0.271126
-0.117302
0.00117175
0.0863253
0.144985
0.195681
0.258103
0.334882
0.41343
-1.1178
-1.15162
-1.60383
-1.7436
-1.79753
-1.78034
-1.62544
-1.41239
-1.23083
-1.03693
-0.815355
-0.59081
-0.385226
-0.212533
-0.0726025
0.0366824
0.112884
0.159478
0.193056
0.238556
0.306192
0.384661
0.459981
-0.989867
-0.964717
-1.32504
-1.3911
-1.37474
-1.30742
-1.13407
-0.903449
-0.713945
-0.55051
-0.38234
-0.216159
-0.0647252
0.0617546
0.163411
0.237123
0.279223
0.302259
0.33216
0.384131
0.451789
0.522295
0.588437
-0.855614
-0.771674
-1.0462
-1.05012
-0.979687
-0.876873
-0.699476
-0.466467
-0.269257
-0.119081
0.0158255
0.141108
0.25262
0.345081
0.41647
0.459683
0.478705
0.49802
0.535915
0.58892
0.647099
0.704395
0.758725
-0.719224
-0.580958
-0.779852
-0.736835
-0.63083
-0.508012
-0.338713
-0.118607
0.0791182
0.225116
0.343205
0.444146
0.530701
0.60017
0.647035
0.669229
0.685044
0.715003
0.757066
0.802847
0.848914
0.894357
0.937863
-0.585595
-0.40229
-0.540041
-0.467452
-0.345629
-0.218078
-0.0669147
0.127603
0.314567
0.45718
0.568066
0.658165
0.732496
0.78674
0.817644
0.836943
0.865888
0.904581
0.943223
0.980224
1.01754
1.05447
1.08903
-0.460468
-0.246948
-0.339607
-0.255428
-0.135219
-0.0163605
0.110136
0.271188
0.436931
0.571397
0.677941
0.76431
0.831922
0.875929
0.904258
0.937118
0.978439
1.01637
1.0493
1.0815
1.11431
1.14558
1.17328
-0.35025
-0.123312
-0.187463
-0.105857
-0.000430587
0.101009
0.200075
0.325272
0.462362
0.582091
0.681634
0.762479
0.82133
0.860891
0.899338
0.945299
0.986615
1.01946
1.04939
1.07982
1.10967
1.13671
1.15909
-0.258359
-0.0360899
-0.0848617
-0.0153765
0.0682728
0.14796
0.220604
0.312145
0.418618
0.519136
0.606261
0.674986
0.724773
0.768616
0.818616
0.864811
0.899915
0.929584
0.958623
0.987481
1.01457
1.03802
1.05636
-0.184728
0.0185946
-0.0238388
0.0300546
0.0910394
0.14885
0.197275
0.258165
0.333979
0.41094
0.478146
0.530629
0.575344
0.624955
0.673198
0.7099
0.738839
0.765979
0.792644
0.818421
0.841974
0.861708
0.876468
-0.130088
0.0473812
0.00431766
0.0402007
0.077167
0.111544
0.138014
0.174736
0.225927
0.280131
0.325941
0.365083
0.408748
0.454993
0.491075
0.517924
0.541621
0.564531
0.586735
0.60804
0.627127
0.642678
0.653853
-0.0681893
0.0708726
0.0243702
0.0506068
0.0816393
0.106259
0.109552
0.105045
0.0989597
0.0910121
0.0939221
0.122257
0.169696
0.213342
0.24459
0.269363
0.291245
0.311483
0.330647
0.348658
0.36429
0.376597
0.385073
-0.0780925
0.0426661
-0.00956089
-0.0203653
-0.0314884
-0.0234905
0.00137664
0.0420395
0.0921933
0.135808
0.152625
0.143874
0.128944
0.123872
0.127188
0.132505
0.137711
0.144078
0.1515
0.159262
0.165833
0.170337
0.172317
3.67786
3.81678
4.17776
4.83272
5.68452
6.77058
8.12887
9.80879
11.8569
14.3169
17.2298
20.5988
24.3971
28.5336
32.8699
37.2212
41.3992
45.2314
48.5959
51.4305
53.7444
55.5735
57.0552
3.53231
3.68183
4.00627
4.60992
5.41361
6.44648
7.75018
9.37006
11.3518
13.7382
16.5657
19.8372
23.5198
27.5206
31.6965
35.8636
39.8353
43.4449
46.5762
49.1766
51.2627
52.8833
54.1744
3.35326
3.49493
3.77719
4.31556
5.05249
6.01002
7.23212
8.76268
10.6463
12.925
15.6324
18.7721
22.3087
26.1497
30.1511
34.1298
37.9042
41.3129
44.2443
46.6511
48.5526
50.0103
51.1538
3.1342
3.24773
3.48311
3.94236
4.59216
5.45025
6.56039
7.96691
9.71403
11.8437
14.3891
17.3562
20.7114
24.3656
28.1769
31.9614
35.5476
38.7801
41.551
43.8167
45.6001
46.965
48.0312
2.86387
2.935
3.1201
3.4886
4.03071
4.76447
5.73115
6.97559
8.54286
10.4757
12.81
15.5565
18.688
22.1228
25.7254
29.3232
32.7507
35.853
38.5229
40.7182
42.4639
43.8139
44.8751
2.52161
2.55493
2.68697
2.95572
3.37107
3.95561
4.74648
5.78811
7.12708
8.81024
10.8791
13.3555
16.2236
19.4161
22.81
26.2523
29.5728
32.6108
35.253
37.4519
39.2238
40.6112
41.7088
2.07792
2.09474
2.16552
2.32052
2.5868
2.99265
3.57187
4.36627
5.42505
6.80186
8.55012
10.7086
13.2821
16.2241
19.4296
22.7544
26.021
29.0592
31.7446
34.0157
35.8739
37.3545
38.5392
1.50586
1.5225
1.51623
1.53579
1.62459
1.81611
2.14267
2.64368
3.3708
4.38838
5.76853
7.5756
9.84322
12.5501
15.6064
18.8621
22.1284
25.2199
27.9958
30.3808
32.3648
33.9755
35.2869
4.31475
3.95599
4.97294
5.83325
6.87688
8.15543
9.72613
11.5873
13.8141
16.3764
19.3841
22.7781
26.6757
31.0131
35.7501
40.6926
45.622
50.3076
54.5653
58.2806
61.4079
63.9703
66.0132
4.3225
3.9581
4.95534
5.81719
6.85461
8.13272
9.70071
11.5641
13.7944
16.3706
19.3978
22.8306
26.7788
31.1889
36.0146
41.0716
46.1435
51.0036
55.4654
59.4052
62.7649
65.5541
67.8044
4.32849
3.95926
4.92992
5.79228
6.82165
8.09697
9.6609
11.5261
13.7595
16.3494
19.3936
22.8589
26.8445
31.3056
36.1903
41.3232
46.4926
51.4771
56.0913
60.2056
63.7535
66.7307
69.1598
4.33226
3.96121
4.89785
5.75842
6.77712
8.04566
9.60221
11.4663
13.7001
16.3018
19.3604
22.8531
26.8663
31.3615
36.2805
41.4556
46.6803
51.7395
56.4512
60.6834
64.3655
67.4812
70.0488
4.33318
3.96619
4.86288
5.72048
6.72686
7.98626
9.53264
11.3926
13.6236
16.2337
19.3034
22.8185
26.8516
31.3672
36.3002
41.4885
46.7306
51.8176
56.5723
60.8631
64.6191
67.8162
70.4731
4.32981
3.97473
4.82697
5.68184
6.67634
7.92547
9.46013
11.3135
13.5381
16.1519
19.2274
22.7582
26.8027
31.3264
36.2565
41.4343
46.6626
51.7376
56.4871
60.7819
64.5534
67.7734
70.4662
4.32061
3.98551
4.78832
5.64025
6.62379
7.86171
9.38328
11.228
13.4432
16.056
19.132
22.671
26.7182
31.238
36.1502
41.2976
46.4861
51.5165
56.2211
60.4736
64.2098
67.4
70.0772
4.3038
3.99749
4.74573
5.593
6.56737
7.79402
9.30245
11.1379
13.3428
15.9521
19.0253
22.5668
26.6098
31.1157
35.997
41.0964
46.2227
51.1805
55.8064
59.9778
63.6356
66.7507
69.368
4.27753
4.00921
4.69833
5.53667
6.50244
7.71718
9.21181
11.0369
13.2312
15.835
18.9035
22.4435
26.4776
30.9618
35.8022
40.8397
45.8854
50.7477
55.2679
59.3278
62.8741
65.8794
68.4028
4.2397
4.01899
4.64661
5.46985
6.42599
7.62678
9.10518
10.9166
13.0974
15.6917
18.7518
22.2852
26.3052
30.7613
35.5526
40.5174
45.4682
50.217
54.6103
58.5357
61.9469
64.8192
67.225
4.18844
4.02437
4.59196
5.39467
6.33992
7.52542
8.9857
10.7796
12.9439
15.5238
18.571
22.0918
26.0927
30.5138
35.2494
40.132