/*--------------------------------*- C++ -*----------------------------------*\
  =========                 |
  \\      /  F ield         | OpenFOAM: The Open Source CFD Toolbox
   \\    /   O peration     | Website:  https://openfoam.org
    \\  /    A nd           | Version:  7
     \\/     M anipulation  |
\*---------------------------------------------------------------------------*/
FoamFile
{
    version     2.0;
    format      ascii;
    class       surfaceScalarField;
    location    "77";
    object      phi;
}
// * * * * * * * * * * * * * * * * * * * * * * * * * * * * * * * * * * * * * //

dimensions      [0 3 -1 0 0 0 0];

internalField   nonuniform List<scalar> 
25449
(
64.3709
62.5643
-39.775
47.8037
47.011
-30.4437
35.6506
35.4445
-23.2915
26.6712
26.8195
-17.84
19.999
20.3638
-13.6916
15.0191
15.514
-10.5341
11.2892
11.8581
-8.12828
8.48802
9.09284
-6.29164
6.38021
6.99334
-4.88553
4.7925
5.39255
-3.80484
3.59658
4.16612
-2.9702
2.69697
3.22172
-2.32211
2.02211
2.4911
-1.81625
1.51788
1.92407
-1.41985
1.14291
1.48357
-1.1086
0.865345
1.14174
-0.864184
0.660682
0.877157
-0.672494
0.510163
0.672924
-0.522406
0.399605
0.515641
-0.405083
0.318398
0.39471
-0.313502
0.258686
0.301864
-0.242153
0.214692
0.230583
-0.186588
0.176142
-0.143683
0.182233
48.4361
79.4226
36.0988
59.3484
26.9976
44.5458
20.2409
33.5761
15.2011
25.4036
11.4284
19.2867
8.59615
14.6904
6.4652
11.2238
4.85949
8.59904
3.64889
6.60315
2.7368
5.0782
2.05127
3.90725
1.53826
3.00412
1.15662
2.30571
0.87463
1.76556
0.66755
1.34882
0.516188
1.02852
0.40585
0.783261
0.32549
0.596001
0.266931
0.453269
0.224193
0.344603
0.192916
0.261859
0.199076
0.169983
35.5379
91.4483
26.6394
68.2471
20.0133
51.1719
15.0566
38.5328
11.3373
29.1229
8.54025
22.0837
6.43259
16.7981
4.84216
12.8142
3.64083
9.80037
2.73345
7.51053
2.04914
5.76251
1.53504
4.42135
1.1513
3.38786
0.867354
2.58965
0.659249
1.97367
0.507991
1.50008
0.398657
1.13785
0.319813
0.862105
0.262948
0.652865
0.221864
0.494353
0.192103
0.374364
0.170467
0.283495
0.214851
0.154691
25.6899
99.723
19.4451
74.4921
14.7177
55.8993
11.136
42.1145
8.42197
31.8369
6.36556
24.1401
4.80662
18.357
3.62457
13.9963
2.728
10.6969
2.04854
8.18998
1.53488
6.27617
1.14875
4.80749
0.861149
3.67546
0.6496
2.8012
0.496079
2.12719
0.385925
1.61023
0.307414
1.21636
0.251546
0.917972
0.211712
0.692698
0.183203
0.522862
0.162708
0.394858
0.147908
0.298293
0.225589
0.13717
18.4273
105.162
14.1702
78.7494
10.8529
59.2167
8.28575
44.6816
6.30949
33.8132
4.79427
25.6553
3.63468
19.5166
2.74884
14.8821
2.07253
11.3732
1.55716
8.70536
1.16573
6.6676
0.870721
5.10249
0.651153
3.89502
0.490544
2.96181
0.375268
2.24246
0.293823
1.69168
0.236772
1.27341
0.196833
0.95791
0.168737
0.720793
0.148835
0.542763
0.134635
0.409057
0.124446
0.308481
0.232956
0.117078
13.1959
108.491
10.4005
81.5448
8.10852
61.5088
6.27287
46.5172
4.82443
35.2616
3.69395
26.7858
2.81672
20.3938
2.13937
15.5594
1.61728
11.8953
1.21614
9.1065
0.909134
6.9746
0.676473
5.33515
0.502927
4.06857
0.376437
3.0883
0.286603
2.3323
0.224198
1.75408
0.181359
1.31625
0.151942
0.987326
0.131561
0.741173
0.11727
0.557054
0.107131
0.419196
0.0998863
0.315725
0.238194
0.0946472
9.49839
110.262
7.76402
83.2794
6.20592
63.0669
4.8879
47.8353
3.80897
36.3405
2.9455
27.6493
2.26284
21.0765
1.72821
16.0941
1.311
12.3125
0.986903
9.43059
0.736184
7.22532
0.544434
5.5269
0.400485
4.21252
0.295519
3.19326
0.221516
2.4063
0.170897
1.8047
0.136864
1.35028
0.113966
1.01022
0.0983425
0.756795
0.0874724
0.567923
0.0797693
0.426898
0.0742523
0.321241
0.242208
0.0702372
6.9275
110.889
5.9562
84.2508
4.91688
64.1063
3.95914
48.793
3.13374
37.1659
2.45125
28.3318
1.89913
21.6286
1.45932
16.5339
1.11111
12.6607
0.837047
9.70465
0.622177
7.44019
0.455767
5.6933
0.329482
4.3388
0.23692
3.28582
0.171862
2.47136
0.12794
1.84862
0.0990131
1.37921
0.0799648
1.02927
0.0671608
0.769598
0.0582782
0.576804
0.0519651
0.433211
0.0473539
0.325852
0.245614
0.0439476
4.53608
112.33
3.45549
85.3315
2.62347
64.9383
1.9915
49.425
1.51026
37.6472
1.14454
28.6975
0.865604
21.9075
0.652093
16.7474
0.487431
12.8254
0.359746
9.83233
0.260368
7.53957
0.18374
5.76993
0.12602
4.39652
0.0845349
3.3273
0.0565461
2.49934
0.0389793
1.86619
0.0286333
1.38955
0.0227443
1.03516
0.0193562
0.772984
0.0172918
0.578867
0.0159352
0.434566
0.015013
0.326774
0.246301
0.0143254
2.74094
113.196
2.09384
85.9787
1.59066
65.4415
1.20864
49.807
0.917198
37.9386
0.695425
28.9192
0.525932
22.077
0.39531
16.878
0.293585
12.9271
0.213426
9.91249
0.149842
7.60315
0.0998907
5.81988
0.0618369
4.43457
0.0346994
3.35444
0.017125
2.51692
0.00714699
1.87617
0.00237046
1.39433
0.000574915
1.03695
0.00016765
0.773391
0.000247959
0.578786
0.000403782
0.43441
0.000530368
0.326646
0.246271
0.000559935
1.44241
113.648
1.10754
86.3136
0.842023
65.707
0.640542
50.0084
0.486276
38.0929
0.368509
29.037
0.278132
22.1674
0.207353
16.9488
0.151056
12.9834
0.105093
9.95845
0.0671579
7.64108
0.0361374
5.8509
0.0118417
4.45887
-0.00543593
3.37172
-0.0159466
2.52743
-0.0208047
1.88102
-0.0218215
1.39534
-0.0208358
1.03596
-0.0192091
0.771762
-0.0176682
0.577243
-0.0165095
0.43325
-0.0157037
0.325839
0.245799
-0.0152327
0.519371
113.805
0.405074
86.428
0.308264
65.8038
0.234742
50.0819
0.177793
38.1498
0.133793
29.081
0.09954
22.2016
0.0711672
16.9771
0.0470295
13.0075
0.02517
9.9803
0.00518264
7.66106
-0.0127988
5.86888
-0.0278262
4.47389
-0.0386815
3.38257
-0.0447726
2.53352
-0.046491
1.88274
-0.0451667
1.39402
-0.0423905
1.03319
-0.0394148
0.768785
-0.0369019
0.574729
-0.0350852
0.431432
-0.0338791
0.324632
0.245072
-0.0331534
-0.121945
113.758
-0.0845171
86.3906
-0.0645006
65.7838
-0.0496513
50.0671
-0.0393001
38.1394
-0.0322945
29.074
-0.0277524
22.1971
-0.0268305
16.9762
-0.0287935
13.0095
-0.0341172
9.98563
-0.041918
7.66887
-0.0512612
5.87822
-0.0604121
4.48304
-0.0674572
3.38961
-0.0710955
2.53716
-0.0711182
1.88276
-0.0684698
1.39137
-0.0645883
1.0293
-0.06071
0.764904
-0.0575233
0.571541
-0.0552475
0.429155
-0.0537896
0.323173
0.244179
-0.0528974
-0.554453
113.575
-0.416251
86.2524
-0.317958
65.6855
-0.2441
49.9932
-0.188741
38.0841
-0.147623
29.0329
-0.117169
22.1666
-0.0966902
16.9557
-0.0839178
12.9967
-0.0783556
9.98006
-0.0783067
7.66881
-0.0823489
5.88226
-0.0882102
4.4889
-0.0934498
3.39485
-0.0961616
2.53987
-0.0956041
1.88221
-0.0923933
1.38816
-0.0878866
1.02479
-0.0833844
0.7604
-0.0796843
0.567839
-0.0770445
0.426513
-0.075387
0.321515
0.243139
-0.0743484
-0.831075
113.306
-0.6299
86.0513
-0.482198
65.5378
-0.371246
49.8823
-0.287542
38.0004
-0.224932
28.9703
-0.178195
22.1199
-0.145421
16.9229
-0.123459
12.9747
-0.111209
9.96781
-0.106536
7.66414
-0.107769
5.88349
-0.112304
4.49343
-0.117305
3.39985
-0.120331
2.54289
-0.12013
1.882
-0.117
1.38503
-0.112253
1.02005
-0.107323
0.755468
-0.103191
0.563705
-0.100211
0.423532
-0.0983212
0.319623
0.241904
-0.0970872
-0.996939
112.988
-0.759567
85.8139
-0.583105
65.3613
-0.450683
49.7498
-0.350535
37.9002
-0.27545
28.8952
-0.219304
22.0637
-0.179427
16.8831
-0.152245
12.9476
-0.136319
9.95188
-0.129344
7.65716
-0.12957
5.88371
-0.134213
4.49807
-0.140134
3.40577
-0.144398
2.54715
-0.145242
1.88285
-0.142633
1.38242
-0.137853
1.01526
-0.132524
0.750138
-0.127878
0.559057
-0.124415
0.420068
-0.122097
0.317304
0.240314
-0.120509
-1.08276
112.646
-0.828435
85.5596
-0.638119
65.171
-0.495471
49.6072
-0.387459
37.7922
-0.306398
28.8141
-0.245793
22.0031
-0.202547
16.8398
-0.172995
12.918
-0.155553
9.93444
-0.147952
7.64956
-0.148495
5.88425
-0.154346
4.50392
-0.162137
3.41356
-0.16846
2.55347
-0.171005
1.88539
-0.169346
1.38076
-0.164708
1.01063
-0.158954
0.744382
-0.153637
0.553739
-0.149479
0.415908
-0.146505
0.314329
0.238192
-0.144384
-1.11028
112.299
-0.852943
85.3023
-0.659606
64.9777
-0.514888
49.4625
-0.405242
37.6826
-0.322923
28.7318
-0.261442
21.9416
-0.217528
16.7959
-0.187657
12.8881
-0.170246
9.91702
-0.163214
7.64252
-0.165029
5.88606
-0.172915
4.5118
-0.183344
3.42398
-0.192452
2.56258
-0.197323
1.89026
-0.197041
1.38047
-0.192725
1.00631
-0.186532
0.738187
-0.18039
0.547595
-0.175219
0.410737
-0.171151
0.31026
0.235072
-0.168032
-1.09867
111.961
-0.847611
85.0512
-0.658525
64.7886
-0.517194
49.3211
-0.410095
37.5755
-0.329681
28.6514
-0.269717
21.8816
-0.226939
16.7531
-0.198114
12.8593
-0.181761
9.90068
-0.176099
7.63686
-0.179848
5.88981
-0.190389
4.52234
-0.204103
3.43769
-0.216683
2.57516
-0.224532
1.89811
-0.226133
1.38207
-0.222418
1.00259
-0.215748
0.731515
-0.208298
0.540144
-0.201295
0.403733
-0.195361
0.304326
0.230447
-0.190738
-1.06067
111.638
-0.822129
84.8127
-0.642193
64.6086
-0.507924
49.1868
-0.406191
37.4737
-0.329813
28.575
-0.272975
21.8248
-0.23254
16.7127
-0.205667
12.8324
-0.19105
9.88605
-0.18729
7.6331
-0.193435
5.89595
-0.207122
4.53602
-0.224718
3.45528
-0.241496
2.59193
-0.253113
1.90972
-0.257266
1.38622
-0.254424
0.999749
-0.247001
0.724089
-0.237745
0.530886
-0.228737
0.394726
-0.221129
0.296717
0.224418
-0.215101
-1.00977
111.337
-0.786775
84.5897
-0.618409
64.4403
-0.493009
49.0614
-0.398032
37.3787
-0.326733
28.5037
-0.273797
21.7719
-0.236285
16.6752
-0.211788
12.8079
-0.199216
9.87348
-0.197598
7.63148
-0.206375
5.90473
-0.223528
4.55317
-0.245501
3.47726
-0.267198
2.61363
-0.283433
1.92596
-0.29085
1.39364
-0.289386
0.998283
-0.281861
0.716562
-0.271657
0.520683
-0.260893
0.383959
-0.250524
0.286349
0.214816
-0.240925
-0.946733
111.059
-0.742142
84.3851
-0.587583
64.2857
-0.472737
48.9466
-0.385818
37.2918
-0.320581
28.4385
-0.272276
21.7236
-0.238215
16.6411
-0.216469
12.7862
-0.206195
9.8632
-0.206899
7.63218
-0.218479
5.9163
-0.23938
4.57407
-0.266252
3.50412
-0.293707
2.64108
-0.31566
1.94791
-0.327715
1.40569
-0.329369
0.999935
-0.322808
0.709998
-0.310259
0.508132
-0.294154
0.367855
-0.277761
0.269954
0.200291
-0.263237
-0.875678
110.809
-0.691444
84.2008
-0.552229
64.1465
-0.449075
48.8434
-0.371053
37.2138
-0.3125
28.3799
-0.269287
21.6803
-0.239022
16.6108
-0.220273
12.7674
-0.212449
9.85538
-0.215586
7.63532
-0.230107
5.93082
-0.255031
4.59899
-0.287349
3.53644
-0.321512
2.67524
-0.350725
1.97712
-0.369484
1.42445
-0.375388
1.00584
-0.368563
0.703173
-0.352775
0.492342
-0.334901
0.349981
-0.319629
0.254681
0.187834
-0.307174
-0.833269
110.559
-0.654053
84.0216
-0.521997
64.0144
-0.425272
48.7467
-0.353536
37.142
-0.30049
28.3269
-0.261891
21.6417
-0.234898
16.5838
-0.218013
12.7505
-0.210709
9.84807
-0.213483
7.63809
-0.227547
5.94488
-0.253523
4.62496
-0.290169
3.57308
-0.333224
2.71829
-0.375729
2.01962
-0.409535
1.45826
-0.428627
1.02493
-0.433573
0.708115
-0.430486
0.489255
-0.422053
0.341548
-0.406345
0.238972
0.165182
-0.383695
-0.809188
110.322
-0.639217
83.8516
-0.513751
63.8889
-0.421781
48.6547
-0.353525
37.0738
-0.303012
28.2763
-0.266264
21.605
-0.240573
16.5582
-0.224594
12.7345
-0.217864
9.84135
-0.221053
7.64128
-0.235625
5.95946
-0.262703
4.65204
-0.301757
3.61213
-0.349333
2.76587
-0.398652
2.06894
-0.440809
1.50041
-0.470879
1.05499
-0.488748
0.725982
-0.488299
0.488807
-0.460756
0.314004
-0.410417
0.188631
0.106439
-0.351677
-0.785684
110.098
-0.62444
83.6904
-0.505177
63.7697
-0.417674
48.5672
-0.352679
37.0088
-0.304533
28.2282
-0.269506
21.57
-0.245014
16.5337
-0.229849
12.7194
-0.223598
9.83509
-0.227096
7.64477
-0.242037
5.97439
-0.270057
4.68005
-0.311401
3.65347
-0.363486
2.81794
-0.420103
2.12555
-0.473512
1.55382
-0.517814
1.09929
-0.539756
0.747922
-0.521448
0.470498
-0.468958
0.261513
-0.408858
0.128529
0.0557149
-0.358137
-0.762783
109.885
-0.609809
83.5374
-0.496413
63.6563
-0.413128
48.4839
-0.351206
36.9469
-0.305288
28.1823
-0.271867
21.5365
-0.248484
16.5103
-0.234045
12.7049
-0.228184
9.82924
-0.231869
7.64847
-0.247011
5.98954
-0.275749
4.70879
-0.319121
3.69685
-0.375526
2.87435
-0.440449
2.19048
-0.507056
1.62042
-0.559196
1.15143
-0.567807
0.75653
-0.527741
0.430432
-0.474131
0.207901
-0.432936
0.0873321
0.0272166
-0.404441
-0.740504
109.684
-0.595391
83.3923
-0.487559
63.5484
-0.408272
48.4046
-0.349256
36.8879
-0.305442
28.1385
-0.273525
21.5046
-0.251172
16.4879
-0.237379
12.6911
-0.231822
9.82368
-0.235574
7.65221
-0.250733
6.00469
-0.279912
4.73796
-0.324908
3.74183
-0.385451
2.93488
-0.459543
2.26456
-0.536642
1.69752
-0.582946
1.19773
-0.567365
0.740946
-0.514907
0.377972
-0.470502
0.163495
-0.44073
0.0575579
0.00603362
-0.419551
-0.718858
109.493
-0.581231
83.2546
-0.478691
63.4459
-0.403202
48.3291
-0.346943
36.8316
-0.305119
28.0966
-0.274618
21.4741
-0.253222
16.4665
-0.240002
12.6779
-0.23467
9.81835
-0.238366
7.65591
-0.253347
6.01968
-0.282632
4.76726
-0.328747
3.78795
-0.393257
2.9994
-0.475996
2.3473
-0.556356
1.77788
-0.584735
1.22611
-0.546093
0.7023
-0.491901
0.32378
-0.45475
0.126342
-0.428061
0.030867
-0.0127253
-0.409307
-0.697847
109.313
-0.567361
83.1242
-0.469862
63.3484
-0.397989
48.2573
-0.344349
36.7779
-0.304415
28.0567
-0.275247
21.4449
-0.254744
16.446
-0.242031
12.6652
-0.236847
9.81316
-0.240367
7.65943
-0.25496
6.03426
-0.283961
4.79625
-0.330637
3.83462
-0.398725
3.06748
-0.487638
2.43621
-0.562685
1.85292
-0.567902
1.23132
-0.514638
0.649032
-0.465388
0.274528
-0.433094
0.0940464
-0.409524
0.00729511
-0.0288343
-0.39342
-0.677469
109.142
-0.553802
83.0005
-0.461113
63.2557
-0.392688
48.1888
-0.341542
36.7268
-0.303405
28.0186
-0.275495
21.417
-0.255825
16.4264
-0.243558
12.6529
-0.23845
9.80806
-0.241675
7.66266
-0.255659
6.04825
-0.283943
4.82454
-0.330583
3.88126
-0.401382
3.13828
-0.492473
2.5273
-0.555316
1.91577
-0.53867
1.21467
-0.480432
0.59079
-0.439078
0.233175
-0.411833
0.0667983
-0.393068
-0.0114715
-0.0433001
-0.378607
-0.657715
108.981
-0.540569
82.8833
-0.452475
63.1676
-0.387343
48.1237
-0.338574
36.678
-0.302147
27.9821
-0.275428
21.3903
-0.256535
16.4075
-0.244659
12.641
-0.239558
9.80295
-0.242369
7.66547
-0.25551
6.06139
-0.282619
4.85164
-0.328571
3.92721
-0.400602
3.2103
-0.489289
2.61598
-0.536067
1.96254
-0.502735
1.18133
-0.447456
0.535508
-0.415419
0.201133
-0.394115
0.0454924
-0.37862
-0.0269678
-0.0585802
-0.363345
-0.638578
108.829
-0.52767
82.7724
-0.443972
63.0839
-0.381986
48.0617
-0.335486
36.6315
-0.30069
27.9473
-0.275098
21.3647
-0.25693
16.3893
-0.245395
12.6295
-0.240233
9.7978
-0.242516
7.66775
-0.254571
6.07345
-0.280037
4.87711
-0.324555
3.97173
-0.395795
3.28155
-0.477761
2.69795
-0.507557
1.99234
-0.464162
1.13794
-0.417415
0.488756
-0.395016
0.178736
-0.37888
0.0293537
-0.363015
-0.0428339
-0.0762425
-0.345357
-0.620044
108.685
-0.515112
82.6675
-0.435622
63.0044
-0.376646
48.0027
-0.332314
36.5872
-0.299071
27.9141
-0.27455
21.3402
-0.257059
16.3718
-0.245816
12.6183
-0.240532
9.79251
-0.242174
7.66939
-0.252899
6.08417
-0.276254
4.90046
-0.318473
4.01394
-0.386535
3.3496
-0.458243
2.76965
-0.472272
2.00636
-0.424924
1.09058
-0.388723
0.452551
-0.373263
0.163272
-0.359723
0.0158111
-0.34228
-0.0602776
-0.0952929
-0.323234
-0.602102
108.55
-0.502897
82.5682
-0.427439
62.9289
-0.371345
47.9466
-0.329087
36.5449
-0.297327
27.8823
-0.273822
21.3167
-0.256962
16.355
-0.24597
12.6073
-0.240504
9.78705
-0.241397
7.67029
-0.250553
6.09333
-0.271337
4.92125
-0.310274
4.05289
-0.372638
3.41197
-0.43152
2.82854
-0.43215
2.00699
-0.384932
1.04336
-0.356775
0.42439
-0.343564
0.150064
-0.331406
0.00365037
-0.314109
-0.0775751
-0.114245
-0.295161
-0.584737
108.422
-0.491026
82.4746
-0.419434
62.8573
-0.366102
47.8933
-0.325829
36.5047
-0.295486
27.852
-0.272946
21.2941
-0.256675
16.3387
-0.245895
12.5965
-0.240192
9.78134
-0.240234
7.67033
-0.247596
6.10069
-0.265359
4.93901
-0.299941
4.08746
-0.354172
3.4662
-0.3986
2.87296
-0.388437
1.99682
-0.342725
0.997645
-0.31736
0.399023
-0.303354
0.136053
-0.293849
-0.00585587
-0.278013
-0.0934115
-0.133006
-0.259257
-0.567937
108.303
-0.479499
82.3861
-0.411619
62.7894
-0.360935
47.8426
-0.322563
36.4663
-0.293574
27.823
-0.271955
21.2725
-0.256233
16.323
-0.245628
12.5859
-0.239639
9.77536
-0.238736
7.66944
-0.244095
6.10606
-0.258405
4.95333
-0.287528
4.11659
-0.331449
3.51012
-0.36054
2.90206
-0.341823
1.97811
-0.297516
0.953338
-0.26995
0.371453
-0.253188
0.119294
-0.246864
-0.0121823
-0.232369
-0.107906
-0.152029
-0.213349
-0.551688
108.19
-0.468315
82.3027
-0.404
62.7251
-0.355857
47.7944
-0.31931
36.4297
-0.291618
27.7953
-0.270874
21.2518
-0.255667
16.3078
-0.245204
12.5754
-0.238884
9.76904
-0.236951
7.6675
-0.240121
6.10922
-0.250572
4.96378
-0.273169
4.13918
-0.304987
3.54194
-0.318415
2.91548
-0.292937
1.95263
-0.2502
0.910597
-0.217639
0.338892
-0.197784
0.0994346
-0.196996
-0.0129704
-0.184573
-0.120329
-0.171899
-0.164706
-0.535976
108.085
-0.457475
82.2242
-0.396586
62.6642
-0.350884
47.7488
-0.316088
36.3949
-0.289638
27.7689
-0.269731
21.2319
-0.255005
16.293
-0.244654
12.5651
-0.237966
9.76236
-0.234927
7.66447
-0.23575
6.11006
-0.241978
4.97002
-0.257085
4.1543
-0.275481
3.56034
-0.273306
2.91331
-0.242288
1.92161
-0.202124
0.870435
-0.164984
0.301749
-0.141568
0.0760252
-0.145993
-0.00854741
-0.136062
-0.130259
-0.190884
-0.117079
-0.520789
107.986
-0.446974
82.1504
-0.389383
62.6066
-0.346028
47.7054
-0.312915
36.3618
-0.287656
27.7436
-0.268548
21.2128
-0.254273
16.2788
-0.24401
12.5548
-0.236918
9.75527
-0.232711
7.66026
-0.231058
6.1084
-0.232758
4.97171
-0.239572
4.16111
-0.24373
3.56449
-0.226223
2.8958
-0.189997
1.88538
-0.15354
0.833975
-0.118143
0.266354
-0.0987935
0.05667
-0.105206
-0.00213396
-0.0846928
-0.150772
-0.209369
-0.0662099
-0.506114
107.894
-0.436813
82.0811
-0.382396
62.5522
-0.3413
47.6643
-0.309807
36.3303
-0.285692
27.7195
-0.267349
21.1944
-0.253498
16.2649
-0.243298
12.5446
-0.235775
9.74775
-0.23035
7.65484
-0.226121
6.10418
-0.223058
4.96866
-0.220985
4.15905
-0.210595
3.55411
-0.178285
2.86349
-0.136733
1.84383
-0.103884
0.801128
-0.073286
0.235752
-0.0765633
0.0599574
-0.0675321
-0.0111657
-0.0179523
-0.200351
-0.235262
0.00793926
-0.491939
107.808
-0.426988
82.0161
-0.375632
62.5008
-0.336712
47.6254
-0.306778
36.3004
-0.283764
27.6965
-0.266153
21.1768
-0.252703
16.2515
-0.242545
12.5344
-0.234569
9.73977
-0.227892
7.64816
-0.22102
6.09731
-0.213029
4.96067
-0.20174
4.14776
-0.17703
3.5294
-0.130984
2.81744
-0.0847798
1.79763
-0.0625651
0.77891
-0.0610776
0.234271
-0.0481875
0.0470592
0.0473651
-0.106717
0.0961075
-0.249093
-0.238313
0.0991607
-0.478252
107.728
-0.417499
81.9553
-0.369095
62.4524
-0.332273
47.5885
-0.303843
36.272
-0.28189
27.6745
-0.264981
21.1599
-0.251909
16.2384
-0.241776
12.5243
-0.233332
9.73134
-0.225381
7.64022
-0.215837
6.08777
-0.202829
4.94767
-0.182308
4.12724
-0.143948
3.49105
-0.0853944
2.75889
-0.030148
1.74238
0.00438796
0.744379
0.0418386
0.196818
0.0866458
0.00226394
0.148726
-0.168796
0.141764
-0.242128
-0.225943
0.129396
-0.465041
107.655
-0.408341
81.8987
-0.362789
62.4069
-0.327993
47.5537
-0.301015
36.245
-0.280084
27.6536
-0.26385
21.1437
-0.251137
16.2257
-0.241014
12.5142
-0.232091
9.72241
-0.22286
7.63099
-0.210653
6.07556
-0.192633
4.92965
-0.163127
4.09774
-0.11202
3.43994
-0.0418779
2.68875
0.0235846
1.67692
0.0654742
0.702489
0.103636
0.158665
0.140796
-0.034902
0.169959
-0.197956
0.16201
-0.234178
-0.214629
0.1507
-0.452295
107.587
-0.399513
81.8458
-0.356719
62.3641
-0.323881
47.5209
-0.298308
36.2194
-0.278363
27.6336
-0.26278
21.1281
-0.250408
16.2133
-0.240283
12.5041
-0.230877
9.71301
-0.220371
7.62049
-0.205551
6.06075
-0.182619
4.90673
-0.144577
4.05971
-0.0819284
3.3773
-0.00158665
2.60841
0.0702873
1.60505
0.111104
0.661679
0.139695
0.130075
0.172525
-0.0677216
0.182915
-0.208344
0.174251
-0.22551
-0.20319
0.162816
-0.440002
107.524
-0.391013
81.7969
-0.350889
62.3239
-0.319946
47.4899
-0.295732
36.1952
-0.276743
27.6146
-0.261787
21.1131
-0.24974
16.2013
-0.239603
12.4939
-0.229717
9.70313
-0.217954
7.60872
-0.200599
6.0434
-0.172944
4.87908
-0.126968
4.01373
-0.0542221
3.30455
0.034055
2.52013
0.108245
1.53086
0.144318
0.625609
0.164401
0.110002
0.192438
-0.0957633
0.19211
-0.208012
0.182644
-0.216042
-0.192122
0.171582
-0.428153
107.467
-0.382838
81.7515
-0.345302
62.2864
-0.316196
47.4608
-0.293299
36.1723
-0.275236
27.5966
-0.260886
21.0988
-0.249153
16.1895
-0.238998
12.4838
-0.228639
9.69278
-0.215658
7.59575
-0.195874
6.02362
-0.163797
4.84701
-0.110628
3.96057
-0.0292096
3.22314
0.0647639
2.42617
0.137677
1.45795
0.167487
0.595808
0.181685
0.0958074
0.20289
-0.116959
0.19807
-0.203189
0.188957
-0.206927
-0.182186
0.179026
-0.416736
107.415
-0.374987
81.7098
-0.339962
62.2514
-0.31264
47.4335
-0.291022
36.1507
-0.273857
27.5794
-0.260094
21.085
-0.248661
16.1781
-0.238484
12.4736
-0.227661
9.68195
-0.213496
7.58158
-0.191382
6.00151
-0.155175
4.81081
-0.0954414
3.90084
-0.00652615
3.13423
0.0911741
2.32847
0.159794
1.38933
0.181853
0.573753
0.189819
0.0878491
0.205717
-0.132862
0.200928
-0.1984
0.193732
-0.199727
-0.174112
0.185661
-0.391941
107.35
-0.345185
81.663
-0.309363
62.2155
-0.283062
47.4072
-0.263184
36.1308
-0.2479
27.5641
-0.235873
21.073
-0.225913
16.1681
-0.216881
12.4645
-0.206902
9.67198
-0.193262
7.56795
-0.171457
5.97971
-0.135468
4.77483
-0.0764196
3.8418
0.00936773
3.04845
0.100937
2.2369
0.160674
1.32959
0.175314
0.559123
0.176088
0.0870813
0.188908
-0.145674
0.185246
-0.194733
0.180481
-0.194974
-0.168309
0.17469
-0.311589
107.298
-0.274659
81.6261
-0.24633
62.1872
-0.22554
47.3864
-0.209818
36.1151
-0.197705
27.552
-0.188121
21.0634
-0.180109
16.1601
-0.172713
12.4571
-0.164397
9.66366
-0.152884
7.55643
-0.134509
5.96134
-0.10442
4.74474
-0.0558701
3.79325
0.0129897
2.97959
0.086472
2.16342
0.134238
1.28182
0.145017
0.548348
0.140551
0.0915539
0.149946
-0.155074
0.146369
-0.19116
0.143369
-0.191972
-0.164588
0.139639
-0.247702
107.257
-0.218514
81.5969
-0.196102
62.1648
-0.179661
47.37
-0.167223
36.1026
-0.157624
27.5424
-0.149997
21.0558
-0.143569
16.1537
-0.137556
12.4511
-0.130712
9.65683
-0.121169
7.5469
-0.10599
5.94616
-0.0813369
4.7201
-0.0421431
3.75407
0.0124826
2.92497
0.0709928
2.10492
0.109346
1.24347
0.118195
0.539508
0.111641
0.0981173
0.117851
-0.161265
0.114573
-0.187884
0.112609
-0.190012
-0.162159
0.11018
-0.19688
107.225
-0.173778
81.5738
-0.156023
62.147
-0.143003
47.3569
-0.13315
36.0928
-0.125536
27.5348
-0.119465
21.0497
-0.114316
16.1486
-0.10945
12.4463
-0.103863
9.65124
-0.0960426
7.53907
-0.0836591
5.93378
-0.0636921
4.70013
-0.0323571
3.72273
0.0107253
2.88189
0.0570253
2.05862
0.0878454
1.21265
0.0956322
0.531725
0.0892685
0.104486
0.0917014
-0.163697
0.0894533
-0.185632
0.0880023
-0.188564
-0.160388
0.0862303
-0.156462
107.199
-0.138154
81.5554
-0.124073
62.1329
-0.113749
47.3466
-0.105936
36.085
-0.0998921
27.5287
-0.0950589
21.0449
-0.0909379
16.1444
-0.0870116
12.4423
-0.082478
9.64671
-0.0761182
7.53272
-0.0660996
5.92377
-0.0500445
4.68409
-0.0251355
3.69783
0.00874883
2.84801
0.0452401
2.02213
0.0700214
1.18786
0.0770798
0.524676
0.0725547
0.109021
0.0716878
-0.162805
0.0701191
-0.184064
0.0687433
-0.187186
-0.158756
0.0671106
-0.124275
107.179
-0.109711
81.5409
-0.0985021
62.1217
-0.0902847
47.3384
-0.0840649
36.0787
-0.0792501
27.5239
-0.0753915
21.041
-0.0720887
16.1411
-0.0689257
12.4392
-0.0652638
9.64305
-0.0601297
7.52758
-0.0520927
5.91573
-0.039288
4.67128
-0.0196331
3.67818
0.00686904
2.82151
0.0354432
1.99356
0.0553158
1.16799
0.0617195
0.518276
0.0591978
0.111547
0.0567906
-0.160393
0.0550922
-0.182359
0.0534494
-0.185544
-0.157018
0.0517123
-0.0989325
107.162
-0.0875157
81.5294
-0.078723
62.1129
-0.0722823
47.332
-0.0674084
36.0739
-0.0636322
27.5202
-0.0605965
21.038
-0.0579807
16.1385
-0.0554513
12.4366
-0.0524956
9.6401
-0.0483279
7.52342
-0.0418118
5.90922
-0.0314587
4.66094
-0.0156921
3.66242
0.00543972
2.80039
0.0282296
1.97077
0.044415
1.1518
0.050175
0.512525
0.0489955
0.112736
0.0461023
-0.157475
0.0442152
-0.180471
0.0422225
-0.183548
-0.155181
0.0403863
-0.0783639
107.149
-0.0691122
81.5202
-0.061985
62.1058
-0.0567585
47.3267
-0.0528023
36.0699
-0.0497374
27.5171
-0.0472739
21.0355
-0.0451532
16.1364
-0.04311
12.4346
-0.040742
9.63773
-0.0374373
7.52011
-0.0323246
5.9041
-0.0242686
4.65289
-0.01213
3.65028
0.00402038
2.78424
0.0214467
1.95335
0.0341623
1.13908
0.0391559
0.507535
0.0388553
0.113041
0.035835
-0.154446
0.0341308
-0.17876
0.03198
-0.181397
-0.153388
0.0301882
-0.0678198
107.134
-0.0563983
81.5088
-0.0473738
62.0967
-0.0404964
47.3198
-0.0351145
36.0645
-0.0307956
27.5128
-0.0271809
21.0319
-0.0239372
16.1332
-0.0207228
12.4314
-0.0170541
9.63407
-0.0122474
7.51531
-0.00537957
5.89724
0.00459501
4.64292
0.0183644
3.63652
0.0346687
2.76794
0.0488016
1.93922
0.0545756
1.13331
0.0512924
0.510827
0.0434406
0.120901
0.0322605
-0.143243
0.025406
-0.171904
0.0200142
-0.176001
-0.14967
0.0162973
-0.0711958
107.118
-0.0591974
81.4968
-0.049715
62.0873
-0.0424878
47.3126
-0.0368324
36.0589
-0.0322927
27.5082
-0.0284893
21.0281
-0.0250693
16.1298
-0.0216728
12.428
-0.0177938
9.63019
-0.0127163
7.51023
-0.00549667
5.89002
0.00494492
4.63248
0.0192813
3.62219
0.0362132
2.75101
0.050861
1.92458
0.056819
1.12735
0.0536053
0.514045
0.0459369
0.128573
0.0335103
-0.130807
0.0266877
-0.165074
0.0210602
-0.170372
-0.145912
0.0173037
-0.0747403
107.101
-0.0621356
81.4841
-0.0521716
62.0773
-0.0445767
47.305
-0.0386336
36.0529
-0.0338618
27.5034
-0.0298598
21.0241
-0.0262538
16.1262
-0.0226653
12.4244
-0.018564
9.6261
-0.0132011
7.50487
-0.00561085
5.88244
0.00531519
4.62156
0.0202356
3.60727
0.0378032
2.73345
0.0529597
1.90942
0.0591044
1.1212
0.0559687
0.517189
0.0482695
0.13628
0.0346158
-0.117134
0.0279786
-0.158433
0.0221415
-0.164531
-0.142128
0.0183592
-0.0784617
107.083
-0.0652196
81.4709
-0.0547496
62.0668
-0.0467679
47.297
-0.0405223
36.0467
-0.0355064
27.4984
-0.0312953
21.0199
-0.0274931
16.1223
-0.0237018
12.4206
-0.0193652
9.62176
-0.0137016
7.49921
-0.00571978
5.87445
0.00570743
4.61014
0.0212284
3.59176
0.0394308
2.71525
0.0550752
1.89378
0.0613973
1.11488
0.0583323
0.520259
0.0504515
0.144165
0.0357699
-0.102442
0.0294053
-0.15206
0.0232965
-0.158419
-0.138298
0.0194689
-0.0823686
107.064
-0.068457
81.457
-0.0574551
62.0558
-0.0490667
47.2886
-0.0425028
36.0401
-0.03723
27.4932
-0.0327988
21.0154
-0.0287895
16.1183
-0.0247839
12.4166
-0.0201982
9.61718
-0.0142182
7.49323
-0.00582205
5.86606
0.00612348
4.5982
0.0222596
3.57563
0.0410886
2.69643
0.0571945
1.87768
0.063688
1.10839
0.0606791
0.523275
0.0525345
0.152316
0.037058
-0.0869483
0.0309572
-0.145953
0.0243856
-0.151843
-0.134386
0.0204758
-0.0864707
107.045
-0.0718553
81.4424
-0.0602943
62.0443
-0.0514781
47.2798
-0.0445796
36.0332
-0.0390365
27.4876
-0.0343735
21.0108
-0.0301458
16.1141
-0.0259137
12.4123
-0.021064
9.61233
-0.0147517
7.48692
-0.0059172
5.85723
0.00656522
4.58572
0.0233274
3.55887
0.0427708
2.67699
0.0593108
1.86114
0.0659726
1.10173
0.0630009
0.526252
0.054549
0.160772
0.0384796
-0.070867
0.0326329
-0.140096
0.0254748
-0.14468
-0.1303
0.021392
-0.0907771
107.024
-0.0754226
81.427
-0.0632739
62.0321
-0.0540078
47.2705
-0.0467571
36.026
-0.0409297
27.4818
-0.0360228
21.0059
-0.0315645
16.1097
-0.027093
12.4079
-0.0219638
9.60721
-0.0153033
7.48026
-0.00600545
5.84794
0.00703314
4.57269
0.0244282
3.54148
0.044471
2.65695
0.0614166
1.8442
0.0682388
1.09491
0.0652807
0.529216
0.0565035
0.169554
0.0400307
-0.0543797
0.0344303
-0.134484
0.0265569
-0.136803
-0.125914
0.0221737
-0.0952989
107.002
-0.0791671
81.4109
-0.0664004
62.0193
-0.0566614
47.2608
-0.0490405
36.0183
-0.0429139
27.4756
-0.0377502
21.0007
-0.0330487
16.105
-0.028324
12.4031
-0.0228988
9.60178
-0.0158735
7.47324
-0.00608817
5.83815
0.00752621
4.55908
0.0255575
3.52345
0.0461809
2.63633
0.0635007
1.82689
0.0704663
1.08795
0.0675002
0.532187
0.0584136
0.178645
0.0417176
-0.0376711
0.0363781
-0.129132
0.0277313
-0.12815
-0.120857
0.0226782
-0.100046
106.979
-0.0830977
81.3939
-0.0696817
62.0059
-0.0594452
47.2506
-0.0514347
36.0103
-0.0449935
27.4692
-0.0395592
20.9953
-0.0346011
16.1
-0.0296088
12.3982
-0.0238707
9.59605
-0.016462
7.46583
-0.00616708
5.82786
0.00804317
4.54487
0.0267111
3.50479
0.0478913
2.61516
0.0655496
1.80923
0.0726356
1.08086
0.0696498
0.535179
0.0603141
0.187985
0.0435591
-0.0209044
0.0379815
-0.123538
0.0290869
-0.119251
-0.114748
0.0229808
-0.10503
106.955
-0.0872237
81.3761
-0.0731251
61.9918
-0.0623654
47.2398
-0.0539452
36.0019
-0.047173
27.4624
-0.0414538
20.9895
-0.0362249
16.0948
-0.0309495
12.3929
-0.0248808
9.58999
-0.0170675
7.45802
-0.00624289
5.81704
0.00858298
4.53005
0.0278858
3.48549
0.0495946
2.59345
0.0675528
1.79128
0.074737
1.07368
0.0717317
0.53819
0.0622505
0.197471
0.0456916
-0.00433262
0.0382843
-0.116115
0.0302437
-0.111202
-0.107765
0.0232648
-0.110263
106.93
-0.0915547
81.3574
-0.0767389
61.977
-0.0654289
47.2285
-0.0565777
35.9931
-0.0494571
27.4553
-0.0434378
20.9835
-0.0379232
16.0893
-0.0323484
12.3873
-0.0259306
9.58357
-0.0176882
7.44978
-0.00631489
5.80567
0.00914478
4.5146
0.0290794
3.46556
0.0512854
2.57125
0.0695039
1.77306
0.0767678
1.06642
0.0737527
0.541209
0.0642513
0.206976
0.049005
0.0109229
0.0379134
-0.105005
0.0311522
-0.104436
-0.100152
0.0235444
-0.115758
106.904
-0.0961012
81.3377
-0.080531
61.9614
-0.0686426
47.2166
-0.059338
35.9837
-0.0518508
27.4478
-0.0455153
20.9772
-0.0396991
16.0835
-0.0338073
12.3814
-0.0270211
9.57679
-0.0183225
7.44108
-0.00638238
5.79373
0.00972796
4.49849
0.0302897
3.445
0.0529591
2.54859
0.0713968
1.75463
0.0787248
1.0591
0.0757127
0.544227
0.0662761
0.216417
0.0526257
0.0245856
0.0381367
-0.0905051
0.0322097
-0.098498
-0.0919359
0.023998
-0.121526
106.876
-0.100874
81.3171
-0.0845109
61.945
-0.0720138
47.2041
-0.0622321
35.974
-0.0543592
27.44
-0.0476903
20.9705
-0.0415557
16.0773
-0.0353283
12.3752
-0.028153
9.56962
-0.0189692
7.4319
-0.00644563
5.78121
0.0103324
4.48172
0.0315142
3.42383
0.0546113
2.5255
0.0732235
1.73602
0.0805995
1.05172
0.0776013
0.547229
0.0682414
0.22578
0.0552205
0.037613
0.0386282
-0.0738967
0.0332276
-0.0930911
-0.0835187
0.0248157
-0.127583
106.847
-0.105883
81.2954
-0.0886874
61.9278
-0.0755502
47.1909
-0.0652667
35.9637
-0.0569876
27.4317
-0.0499672
20.9635
-0.0434964
16.0709
-0.0369136
12.3686
-0.0293272
9.56204
-0.0196284
7.4222
-0.00650518
5.76809
0.0109582
4.46426
0.0327488
3.40204
0.0562359
2.50201
0.0749745
1.71729