/*--------------------------------*- C++ -*----------------------------------*\
  =========                 |
  \\      /  F ield         | OpenFOAM: The Open Source CFD Toolbox
   \\    /   O peration     | Website:  https://openfoam.org
    \\  /    A nd           | Version:  7
     \\/     M anipulation  |
\*---------------------------------------------------------------------------*/
FoamFile
{
    version     2.0;
    format      ascii;
    class       volVectorField;
    location    "77";
    object      U;
}
// * * * * * * * * * * * * * * * * * * * * * * * * * * * * * * * * * * * * * //

dimensions      [0 1 -1 0 0 0 0];

internalField   nonuniform List<vector> 
12842
(
(14.7695 5.11005 -2.67376e-18)
(14.7677 5.17319 -1.81684e-18)
(14.7642 5.2348 -4.01842e-19)
(14.7528 5.3044 1.15387e-18)
(14.7317 5.38716 -3.89716e-18)
(14.6983 5.48697 0)
(14.6489 5.60742 0)
(14.5785 5.75156 -5.36187e-19)
(14.4807 5.92146 3.298e-18)
(14.3481 6.11747 1.74253e-20)
(14.1736 6.3375 1.48749e-18)
(13.9521 6.57668 -2.59101e-19)
(13.682 6.82768 1.52879e-18)
(13.3675 7.08245 3.83348e-19)
(13.0183 7.334 -5.25772e-19)
(12.6483 7.57769 -1.48919e-18)
(12.2728 7.81104 -1.26671e-18)
(11.906 8.03269 0)
(11.5598 8.24147 8.96147e-20)
(11.2421 8.43583 6.88543e-19)
(10.9591 8.61495 7.69781e-20)
(10.7102 8.77471 -4.04165e-19)
(10.5045 8.92841 2.65193e-19)
(14.7744 5.11167 2.13903e-18)
(14.7849 5.17556 0)
(14.7931 5.23911 -2.66923e-18)
(14.7946 5.31236 8.97111e-19)
(14.7874 5.40053 2.99138e-18)
(14.7691 5.50788 0)
(14.7365 5.63882 -2.18346e-18)
(14.6844 5.79737 0)
(14.6055 5.98661 -3.60826e-18)
(14.4913 6.20744 -2.64066e-19)
(14.3324 6.45751 -2.7604e-18)
(14.1213 6.73032 -2.89096e-18)
(13.8552 7.01556 -1.51866e-18)
(13.5379 7.30142 2.37269e-18)
(13.1811 7.57767 0)
(12.8019 7.83789 1.66125e-18)
(12.418 8.07979 1.93472e-18)
(12.0453 8.30345 -2.7076e-18)
(11.6954 8.50939 0)
(11.3756 8.69769 -9.00795e-19)
(11.0917 8.86854 -1.51364e-18)
(10.8423 9.01973 1.18663e-18)
(10.6382 9.16134 -1.25575e-18)
(14.7807 5.11239 0)
(14.8016 5.17467 0)
(14.8198 5.23857 1.70317e-18)
(14.833 5.31393 -4.96944e-18)
(14.8388 5.40586 0)
(14.8352 5.5188 0)
(14.8192 5.65809 1.38122e-18)
(14.7857 5.82875 7.66447e-19)
(14.7268 6.03519 1.26746e-18)
(14.6322 6.27921 9.783e-19)
(14.4902 6.55862 1.57863e-18)
(14.2905 6.86546 2.8912e-18)
(14.0277 7.18621 7.70019e-19)
(13.7059 7.50475 -3.38489e-18)
(13.339 7.80689 0)
(12.9479 8.08431 -8.90425e-19)
(12.5544 8.33519 1.16223e-18)
(12.176 8.5616 1.84301e-18)
(11.8241 8.76616 2.6127e-18)
(11.505 8.95062 -1.79773e-18)
(11.2234 9.11582 1.20855e-18)
(10.9766 9.26146 0)
(10.7779 9.39355 5.01971e-19)
(14.788 5.11202 -1.77187e-19)
(14.817 5.1711 -7.34394e-19)
(14.8442 5.23439 2.2408e-18)
(14.8681 5.31058 2.61993e-18)
(14.886 5.40475 -1.59805e-19)
(14.8963 5.52135 -5.83378e-19)
(14.8969 5.66676 1.34004e-18)
(14.8824 5.84698 -7.67993e-19)
(14.8445 6.06809 2.03767e-19)
(14.7711 6.33309 1.22591e-19)
(14.6478 6.64053 -3.03017e-18)
(14.4608 6.98127 6.89419e-19)
(14.202 7.33861 -9.03713e-19)
(13.8747 7.69149 -3.99928e-18)
(13.4957 8.02104 1.09805e-18)
(13.0908 8.31655 -1.44066e-18)
(12.6866 8.57687 -6.73971e-19)
(12.3028 8.80658 -1.95523e-18)
(11.9505 9.01081 -6.85487e-19)
(11.6342 9.19324 -8.75638e-19)
(11.3575 9.355 -6.2361e-19)
(11.1151 9.49777 -8.16972e-19)
(10.9241 9.62262 1.50407e-18)
(14.7959 5.11031 -3.49775e-18)
(14.8305 5.16545 0)
(14.8662 5.22742 4.7096e-20)
(14.8998 5.30332 -3.25388e-19)
(14.9289 5.39834 5.12769e-20)
(14.9524 5.51667 2.80116e-18)
(14.9693 5.66593 1.21079e-18)
(14.9739 5.85293 -2.58421e-18)
(14.958 6.08588 -1.34507e-20)
(14.9075 6.36924 -5.37526e-19)
(14.8053 6.70307 1.23642e-18)
(14.6335 7.07746 1.89623e-18)
(14.3804 7.47275 -7.15088e-19)
(14.0482 7.86238 7.61347e-18)
(13.6562 8.22176 3.53793e-18)
(13.2362 8.53704 -3.09804e-18)
(12.8204 8.80756 0)
(12.4313 9.04094 1.87277e-18)
(12.0797 9.24542 0)
(11.7676 9.427 1.01756e-20)
(11.4974 9.58691 -5.98473e-19)
(11.2603 9.72904 8.19119e-19)
(11.0784 9.84827 -1.97217e-20)
(14.8038 5.10718 2.73076e-18)
(14.842 5.15829 0)
(14.8857 5.21839 0)
(14.9279 5.29301 3.82808e-18)
(14.9671 5.38761 -3.21812e-18)
(15.003 5.50586 -2.55634e-18)
(15.0356 5.65667 -4.81099e-18)
(15.0594 5.84757 2.983e-18)
(15.0661 6.08919 0)
(15.0401 6.38777 1.73707e-18)
(14.9617 6.74566 -3.15595e-19)
(14.808 7.15286 -9.72117e-19)
(14.5633 7.58717 0)
(14.2271 8.01605 -3.60319e-18)
(13.8214 8.40808 -3.01278e-18)
(13.3844 8.74508 2.4184e-18)
(12.9554 9.02652 6.81204e-19)
(12.5605 9.26358 -4.68124e-18)
(12.2101 9.46838 0)
(11.9035 9.64988 2.85521e-18)
(11.6411 9.8092 -5.80211e-19)
(11.4101 9.95295 -3.31469e-18)
(11.238 10.068 5.04801e-19)
(14.8111 5.10284 -3.53422e-19)
(14.8514 5.15023 0)
(14.9026 5.20797 0)
(14.9523 5.28043 -3.83297e-18)
(15.0006 5.37349 3.65522e-18)
(15.0477 5.48987 -5.66174e-19)
(15.0952 5.63999 3.53197e-18)
(15.1373 5.8317 3.51654e-19)
(15.1671 6.07848 -4.59656e-19)
(15.167 6.38846 -1.79287e-18)
(15.1156 6.76728 -2.95823e-20)
(14.9848 7.20572 1.77799e-19)
(14.7536 7.67998 0)
(14.4177 8.15142 2.76411e-18)
(14.0007 8.58062 -5.03075e-19)
(13.5471 8.94333 6.67702e-19)
(13.1041 9.23805 -2.49676e-18)
(12.7025 9.47963 2.81991e-18)
(12.3531 9.68479 3.3735e-18)
(12.0522 9.86652 9.35863e-19)
(11.7982 10.0259 -1.38158e-20)
(11.5733 10.1732 1.68554e-18)
(11.4114 10.2847 1.10693e-18)
(14.8176 5.09748 0)
(14.8589 5.14152 -2.16854e-19)
(14.9171 5.19671 3.48829e-18)
(14.9728 5.26648 -1.4097e-19)
(15.0292 5.35723 -5.85696e-18)
(15.0865 5.47056 9.03895e-19)
(15.1478 5.61817 -1.72017e-19)
(15.2075 5.80839 -4.20174e-18)
(15.2597 6.05721 0)
(15.2856 6.3752 -4.17872e-18)
(15.2619 6.77167 2.49099e-19)
(15.1546 7.23919 6.15069e-19)
(14.9369 7.75306 0)
(14.5989 8.26834 -2.7356e-18)
(14.1654 8.73632 2.94143e-18)
(13.6888 9.12508 0)
(13.2268 9.43143 2.5082e-18)
(12.8168 9.67478 0)
(12.4697 9.87775 -2.81646e-18)
(12.178 10.0587 0)
(11.9364 10.2179 1.3496e-18)
(11.7219 10.3719 -8.59095e-19)
(11.573 10.4815 -1.14369e-18)
(14.8235 5.09119 0)
(14.8649 5.13309 0)
(14.929 5.18547 7.41976e-19)
(14.9894 5.2524 -2.80506e-19)
(15.0519 5.34053 6.59542e-18)
(15.1166 5.4499 6.26858e-18)
(15.1888 5.59352 0)
(15.2632 5.77914 3.93884e-18)
(15.3362 6.02539 0)
(15.3886 6.34425 9.17835e-18)
(15.3971 6.74934 2.78679e-18)
(15.3226 7.23587 -7.66526e-19)
(15.133 7.78091 -1.3713e-20)
(14.8099 8.33648 0)
(14.375 8.84652 -3.04113e-18)
(13.8833 9.27052 -3.01437e-18)
(13.401 9.59997 3.58122e-19)
(12.9746 9.85493 -2.80758e-18)
(12.6195 10.0617 -2.64534e-18)
(12.3274 10.2445 0)
(12.0913 10.4027 -7.18831e-19)
(11.8821 10.5632 -4.92656e-21)
(11.7434 10.6682 6.40557e-19)
(14.8298 5.08392 -3.45441e-20)
(14.8703 5.12529 2.96448e-18)
(14.9399 5.17571 -4.0787e-18)
(15.0033 5.24098 0)
(15.0704 5.32752 1.42021e-19)
(15.1407 5.43425 7.643e-19)
(15.221 5.57519 -6.4027e-18)
(15.3064 5.75804 0)
(15.3945 6.00314 0)
(15.4659 6.32411 -4.95222e-18)
(15.4968 6.73756 -2.97626e-18)
(15.4442 7.24104 -1.9339e-20)
(15.2714 7.81248 1.44051e-19)
(14.9537 8.40062 -3.45802e-20)
(14.5111 8.94244 3.79441e-19)
(14.0019 9.39011 -3.15195e-19)
(13.5009 9.73137 2.33216e-18)
(13.0621 9.98839 2.59306e-18)
(12.7042 10.192 3.07405e-18)
(12.4168 10.3726 2.17779e-18)
(12.1911 10.5269 -7.43945e-19)
(11.9897 10.6936 3.47564e-18)
(11.863 10.7953 -6.62865e-19)
(14.8352 5.07604 7.42285e-18)
(14.875 5.11795 -3.47161e-18)
(14.9496 5.16637 1.28789e-19)
(15.0156 5.23029 4.94537e-18)
(15.0868 5.31532 -2.30542e-19)
(15.1623 5.41949 -7.06785e-18)
(15.2496 5.55765 1.26372e-17)
(15.3453 5.73762 3.39692e-19)
(15.4472 5.98119 -2.44539e-19)
(15.5367 6.30382 -6.4663e-18)
(15.5891 6.72512 1.03803e-19)
(15.5586 7.24547 -2.27232e-18)
(15.4037 7.84418 -1.72072e-19)
(15.0932 8.46723 0)
(14.645 9.04366 -2.57077e-18)
(14.1211 9.5171 5.87101e-18)
(13.6033 9.87127 3.95582e-19)
(13.1533 10.1302 -2.34504e-18)
(12.7934 10.3295 2.25629e-20)
(12.512 10.5061 -2.63527e-18)
(12.2988 10.6564 0)
(12.1089 10.8274 -9.44823e-19)
(11.9966 10.9302 0)
(14.8398 5.06782 -1.13986e-17)
(14.8792 5.11111 -4.37281e-18)
(14.9583 5.15738 2.50457e-19)
(15.0265 5.22015 -1.00445e-17)
(15.1013 5.30369 4.79168e-18)
(15.1815 5.40529 -2.23179e-19)
(15.2751 5.5405 -6.67666e-18)
(15.3803 5.71734 1.02678e-19)
(15.4951 5.95881 -2.89802e-19)
(15.6022 6.28234 6.70612e-18)
(15.6759 6.71054 0)
(15.6683 7.24707 2.09787e-18)
(15.5332 7.8729 5.36196e-20)
(15.2331 8.53147 1.19236e-20)
(14.7823 9.14508 2.64816e-18)
(14.2438 9.64813 -2.67079e-19)
(13.7078 10.0177 -1.98557e-18)
(13.2447 10.2786 3.71185e-18)
(12.8817 10.4722 0)
(12.607 10.6418 1.57369e-18)
(12.4074 10.7878 -2.07472e-18)
(12.234 10.9589 0)
(12.1372 11.0667 1.14613e-18)
(14.8436 5.05949 3.97475e-18)
(14.883 5.10479 -4.92508e-19)
(14.9661 5.14877 2.69125e-19)
(15.0361 5.21052 4.97218e-18)
(15.1142 5.29254 -9.6111e-18)
(15.1986 5.39155 3.97267e-20)
(15.2979 5.52364 1.03531e-19)
(15.4121 5.69707 6.57812e-18)
(15.539 5.93583 -1.44191e-19)
(15.6634 6.25936 0)
(15.7585 6.69314 5.21589e-18)
(15.7751 7.2445 9.31307e-20)
(15.662 7.89712 7.58426e-22)
(15.3747 8.59299 -7.63853e-20)
(14.9229 9.24698 2.07825e-19)
(14.3699 9.78333 -2.79291e-18)
(13.8137 10.171 1.9765e-18)
(13.3345 10.4344 2.43904e-19)
(12.9663 10.6207 7.50056e-19)
(12.6983 10.7798 -2.04639e-18)
(12.5134 10.9202 1.33032e-18)
(12.3616 11.0866 -2.55134e-18)
(12.2814 11.2008 1.60483e-18)
(14.8466 5.05113 4.46523e-18)
(14.8866 5.09882 4.65835e-18)
(14.9729 5.14053 2.18635e-20)
(15.0448 5.20132 5.6685e-18)
(15.1258 5.28176 1.00304e-17)
(15.214 5.37817 -4.14944e-20)
(15.3184 5.50694 -1.08322e-19)
(15.4412 5.67669 3.54422e-19)
(15.5797 5.91211 -5.45005e-18)
(15.7212 6.23479 4.25715e-18)
(15.8379 6.67305 -5.42257e-18)
(15.88 7.23843 -3.36741e-18)
(15.7912 7.91789 1.45822e-18)
(15.5196 8.65282 0)
(15.0688 9.35085 -9.80232e-19)
(14.501 9.92492 0)
(13.9218 10.3341 -2.59234e-18)
(13.4226 10.6006 -1.79543e-18)
(13.0456 10.7775 2.15994e-20)
(12.7834 10.9214 2.04359e-18)
(12.6142 11.0531 -8.52479e-21)
(12.4886 11.2098 -1.03083e-20)
(12.4267 11.3281 4.83106e-19)
(14.849 5.04313 2.11883e-19)
(14.89 5.09317 6.48306e-20)
(14.9789 5.13266 -2.31404e-20)
(15.0527 5.19251 -5.66518e-18)
(15.1362 5.27131 -5.06677e-18)
(15.2279 5.3651 0)
(15.337 5.49035 7.46656e-20)
(15.4679 5.65614 -6.8807e-18)
(15.6175 5.88762 -3.10171e-19)
(15.776 6.20857 -4.25101e-18)
(15.9147 6.65015 3.2545e-18)
(15.984 7.22856 5.42378e-18)
(15.9221 7.93489 -1.4258e-18)
(15.6698 8.71087 1.64676e-19)
(15.2225 9.45734 4.18791e-20)
(14.64 10.0748 -8.27347e-20)
(14.0343 10.51 9.41735e-20)
(13.5095 10.781 5.18685e-19)
(13.1185 10.9458 -3.64025e-19)
(12.8595 11.0694 5.43901e-19)
(12.7065 11.1869 1.10836e-20)
(12.6104 11.3281 -3.97485e-19)
(12.5687 11.4426 0)
(14.8509 5.03559 1.66174e-19)
(14.8933 5.08781 0)
(14.9842 5.12515 0)
(15.0598 5.18407 -5.99703e-18)
(15.1456 5.26114 -5.47253e-18)
(15.2405 5.3523 4.93808e-18)
(15.3539 5.47387 5.86379e-20)
(15.4926 5.63541 -6.4968e-20)
(15.6528 5.86239 5.82961e-18)
(15.8282 6.18073 -7.64027e-20)
(15.9894 6.62447 3.72034e-19)
(16.0876 7.21487 -1.96047e-18)
(16.0558 7.94808 0)
(15.8266 8.76731 -1.93157e-19)
(15.3861 9.56722 1.49837e-18)
(14.7888 10.2348 1.31175e-18)
(14.1525 10.702 1.14117e-18)
(13.5949 10.9797 0)
(13.1825 11.1299 0)
(12.922 11.2273 -1.00577e-18)
(12.7846 11.3216 -5.96686e-19)
(12.7182 11.437 1.15744e-18)
(12.6967 11.5346 0)
(14.8524 5.02853 -4.94918e-18)
(14.8963 5.0827 3.44674e-20)
(14.9889 5.11796 -1.22608e-20)
(15.0662 5.17593 5.96377e-18)
(15.154 5.25122 1.10078e-17)
(15.252 5.3397 -9.94505e-18)
(15.3694 5.45742 -6.07313e-20)
(15.5153 5.61439 -6.80559e-20)
(15.686 5.8363 8.85681e-20)
(15.8782 6.15109 0)
(16.0625 6.59571 -3.42327e-18)
(16.1915 7.19692 2.44773e-18)
(16.1932 7.95696 0)
(15.9918 8.82182 0)
(15.5617 9.68098 -5.87197e-19)
(14.95 10.4071 -1.62002e-19)
(14.2781 10.9141 -1.25475e-18)
(13.6783 11.2023 -1.09771e-18)
(13.2342 11.3351 1.63498e-18)
(12.9639 11.3986 5.25017e-19)
(12.837 11.4577 -1.93011e-18)
(12.7954 11.5355 1.52476e-18)
(12.794 11.6049 -8.94182e-19)
(14.8535 5.02196 2.68949e-18)
(14.8991 5.07783 2.96676e-18)
(14.993 5.11106 3.3878e-20)
(15.0721 5.16803 -4.44851e-20)
(15.1617 5.24148 -5.61776e-18)
(15.2623 5.32724 5.11496e-18)
(15.3836 5.44093 -4.20036e-20)
(15.5363 5.59301 -1.62268e-20)
(15.7172 5.80923 9.23971e-20)
(15.9261 6.11943 4.38788e-20)
(16.1343 6.56351 -5.66677e-20)
(16.2961 7.17409 -2.44135e-18)
(16.3352 7.96064 1.54257e-18)
(16.167 8.87354 -4.01781e-20)
(15.7522 9.79851 0)
(15.1271 10.5933 2.98613e-20)
(14.4141 11.1506 -1.28035e-19)
(13.7601 11.4551 1.07443e-18)
(13.2697 11.57 -2.0221e-18)
(12.9767 11.5951 -1.08796e-18)
(12.8527 11.609 6.8255e-19)
(12.8305 11.6335 7.57609e-19)
(12.8483 11.6555 -9.04465e-19)
(14.8543 5.01588 1.09736e-19)
(14.9017 5.07317 -3.00099e-18)
(14.9966 5.10443 0)
(15.0774 5.16036 0)
(15.1686 5.23191 0)
(15.2717 5.31488 0)
(15.3965 5.42438 4.3382e-20)
(15.5557 5.57122 -1.96509e-20)
(15.7466 5.78111 -4.80173e-20)
(15.9722 6.08563 4.66741e-20)
(16.205 6.52759 -6.02011e-20)
(16.4019 7.14582 0)
(16.4828 7.95823 -3.23455e-18)
(16.3541 8.9215 1.037e-20)
(15.9607 9.91955 1.6808e-20)
(15.3245 10.7952 -1.16953e-18)
(14.5644 11.4166 1.2389e-19)
(13.8423 11.7491 -3.12776e-19)
(13.2886 11.852 3.32198e-19)
(12.9575 11.8318 -6.18549e-19)
(12.818 11.7717 7.72581e-19)
(12.7905 11.7049 0)
(12.809 11.6509 -4.3871e-19)
(14.855 5.01026 -5.65394e-18)
(14.9041 5.06869 -1.51171e-18)
(14.9997 5.09802 -2.3907e-20)
(15.0822 5.15283 3.34849e-18)
(15.1748 5.22244 2.98343e-18)
(15.2802 5.30256 2.53024e-20)
(15.4083 5.40769 -4.82072e-18)
(15.5736 5.54892 4.26781e-18)
(15.7742 5.7518 3.52541e-18)
(16.0163 6.04944 0)
(16.2745 6.48749 7.18879e-20)
(16.509 7.1113 -3.29465e-18)
(16.6366 7.94847 1.76768e-18)
(16.555 8.96421 8.2978e-19)
(16.1914 10.0433 7.93047e-20)
(15.5483 11.0148 0)
(14.7368 11.7202 0)
(13.932 12.0975 1.19476e-18)
(13.2906 12.1892 1.35863e-18)
(12.8822 12.1033 -6.47266e-19)
(12.6819 11.9497 -3.85467e-19)
(12.6253 11.8013 -4.98502e-19)
(12.6489 11.6967 4.77653e-19)
(14.8556 5.00508 2.88435e-18)
(14.9062 5.0644 1.52148e-18)
(15.0026 5.09182 -1.80718e-20)
(15.0866 5.14548 8.0565e-20)
(15.1805 5.21309 -2.99191e-18)
(15.2879 5.29025 -2.74087e-18)
(15.4192 5.39085 2.31501e-18)
(15.5902 5.52606 -4.23858e-18)
(15.8005 5.72125 -3.5151e-18)
(16.0591 6.01074 -8.50317e-20)
(16.3437 6.44287 0)
(16.6184 7.0698 3.19349e-18)
(16.7984 7.93006 2.21229e-18)
(16.7729 8.99993 -8.80602e-19)
(16.4494 10.1687 -1.11842e-19)
(15.8068 11.254 2.14724e-19)
(14.9408 12.0667 3.66147e-19)
(14.0327 12.5063 -2.39113e-18)
(13.2641 12.6026 0)
(12.7437 12.4884 0)
(12.4806 12.2902 -5.06623e-19)
(12.4052 12.0661 9.96316e-19)
(12.4123 11.8506 5.50729e-19)
(14.856 5.00026 -3.02562e-18)
(14.9081 5.06016 0)
(15.005 5.0857 0)
(15.0905 5.13805 -6.89812e-18)
(15.1856 5.20364 3.05318e-18)
(15.2948 5.2778 2.81259e-18)
(15.4287 5.37369 -4.64353e-20)
(15.6051 5.50252 2.17654e-18)
(15.8243 5.68918 8.7032e-20)
(16.0993 5.96906 -3.2082e-18)
(16.4107 6.39289 8.30278e-20)
(16.7282 7.01968 -1.06225e-19)
(16.967 7.90016 -2.19826e-18)
(17.0088 9.0247 1.33144e-18)
(16.7404 10.2919 4.08515e-19)
(16.1108 11.5106 2.98516e-19)
(15.1897 12.4594 -6.73089e-19)
(14.1616 13.008 1.18991e-18)
(13.2534 13.1773 0)
(12.6084 13.0572 0)
(12.2058 12.7165 4.61403e-19)
(11.9554 12.2555 -3.3632e-19)
(11.7818 11.8144 6.67181e-19)
(14.8566 4.99596 -5.26304e-20)
(14.9097 5.05647 -1.54036e-18)
(15.0076 5.08011 0)
(15.0942 5.13133 1.72084e-18)
(15.1904 5.19474 -6.21642e-18)
(15.3013 5.26563 2.6871e-20)
(15.439 5.35662 -8.23967e-20)
(15.6205 5.47858 -2.26271e-18)
(15.8501 5.65623 5.42616e-20)
(16.1418 5.9253 3.22203e-18)
(16.4823 6.33869 -7.37835e-20)
(16.8462 6.96247 -1.95484e-18)
(17.1505 7.86055 -1.55264e-19)
(17.2702 9.04009 -1.21958e-18)
(17.0704 10.4135 -3.96972e-19)
(16.4663 11.7866 -1.19457e-19)
(15.498 12.9174 0)
(14.3535 13.6403 1.92156e-19)
(13.26 13.8849 -2.42959e-19)
(12.3201 13.6707 0)
(11.5679 13.1966 -6.2854e-19)
(11.0849 12.7345 3.15992e-19)
(10.8297 12.4027 0)
(14.8558 4.99188 3.09684e-18)
(14.9109 5.05214 1.54375e-18)
(15.0085 5.07466 0)
(15.0967 5.1244 1.76444e-18)
(15.1935 5.18663 6.28303e-18)
(15.3054 5.25547 2.86676e-18)
(15.444 5.34236 5.14299e-18)
(15.6292 5.45826 0)
(15.865 5.62633 4.01276e-18)
(16.1705 5.88285 -3.36862e-18)
(16.5354 6.28158 2.73513e-18)
(16.9434 6.8935 2.02754e-18)
(17.317 7.79551 -2.17387e-20)
(17.5307 9.01574 2.74848e-20)
(17.4312 10.4911 -8.19419e-19)
(16.8946 12.0427 -9.84975e-20)
(15.9139 13.4144 0)
(14.6307 14.3577 -6.17249e-19)
(13.2438 14.7375 0)
(11.9943 14.7263 0)
(11.1576 14.5813 5.65042e-19)
(10.754 14.2787 1.21546e-18)
(10.4827 13.7622 -8.97607e-19)
(14.8568 4.98888 0)
(14.9124 5.04954 -7.5797e-23)
(15.0101 5.07123 2.48608e-22)
(15.0988 5.12012 -1.78684e-18)
(15.1961 5.1813 -1.56803e-18)
(15.3087 5.24836 -2.8683e-18)
(15.4489 5.3323 -2.58889e-18)
(15.637 5.44346 -2.71656e-21)
(15.8789 5.6042 -1.96933e-18)
(16.1958 5.85034 -7.79854e-20)
(16.5831 6.23595 1.05605e-19)
(17.0323 6.83594 0)
(17.4736 7.73855 2.45077e-20)
(17.7845 8.99219 -3.08307e-20)
(17.7999 10.5627 1.31644e-18)
(17.3628 12.2979 1.99926e-20)
(16.4045 13.9252 0)
(15.0174 15.1582 -1.92842e-19)
(13.4869 15.9539 2.49189e-19)
(12.1553 16.3693 0)
(10.9998 16.0432 0)
(9.72383 14.7322 -9.45869e-19)
(8.23981 12.8882 6.2112e-19)
(14.8574 4.98584 3.29896e-18)
(14.9137 5.04702 1.57346e-18)
(15.0116 5.0678 0)
(15.101 5.11586 1.79003e-18)
(15.1988 5.17593 -1.59042e-18)
(15.3122 5.24111 -2.89932e-18)
(15.454 5.32202 2.64782e-18)
(15.6449 5.42832 -2.35242e-18)
(15.8926 5.58155 -2.04643e-18)
(16.2209 5.81686 5.21368e-18)
(16.6302 6.18815 -2.83854e-18)
(17.1205 6.77375 -2.36727e-18)
(17.6319 7.67243 -1.79582e-18)
(18.0483 8.95318 0)
(18.1989 10.6147 -5.18182e-19)
(17.8948 12.5341 4.37169e-19)
(17.0084 14.4435 -3.81615e-20)
(15.6289 16.1141 6.00007e-19)
(14.0091 17.3931 0)
(12.0463 17.6556 0)
(9.38847 16.4028 0)
(6.34612 14.3016 1.73177e-18)
(3.59522 12.3704 -1.53047e-18)
(14.8576 4.98282 -3.30621e-18)
(14.9148 5.04452 -1.16461e-21)
(15.0129 5.06437 0)
(15.1029 5.1116 -1.78968e-18)
(15.2013 5.17053 -1.73779e-22)
(15.3154 5.23382 4.35967e-18)
(15.4587 5.31166 -5.32424e-18)
(15.6524 5.41298 7.11608e-18)
(15.9058 5.55847 -2.42989e-21)
(16.2449 5.78232 -1.75835e-18)
(16.6758 6.13781 -1.52426e-18)
(17.2071 6.70586 2.36786e-18)
(17.7906 7.59463 1.76588e-18)
(18.321 8.89357 -1.34667e-18)
(18.6269 10.6351 8.75576e-21)
(18.4962 12.7334 -4.35853e-19)
(17.7648 14.9826 0)
(16.4505 17.1424 0)
(14.4095 18.4764 -5.23211e-19)
(11.1609 17.9527 0)
(7.12262 16.1262 0)
(3.62437 14.4713 -3.0504e-19)
(1.1147 13.4259 -7.41967e-19)
(14.8578 4.97985 0)
(14.9159 5.04202 -1.57853e-18)
(15.0141 5.06095 5.04323e-23)
(15.1047 5.10733 8.60422e-21)
(15.2035 5.16512 -1.20096e-22)
(15.3184 5.22649 -2.91787e-18)
(15.4631 5.30123 2.67618e-18)
(15.6593 5.39748 -4.76563e-18)
(15.9181 5.53498 -2.14434e-18)
(16.2675 5.74676 0)
(16.7195 6.0849 1.51596e-18)
(17.2916 6.63194 5.06061e-21)
(17.9493 7.50402 6.66645e-22)
(18.6013 8.80961 1.32683e-18)
(19.0828 10.6135 0)
(19.1775 12.8895 5.00849e-19)
(18.6772 15.5197 -4.33364e-21)
(17.3093 17.9663 0)
(14.4033 18.7594 5.15221e-19)
(9.88429 17.3851 0)
(5.44615 15.6545 0)
(2.26097 14.5702 0)
(-0.0756502 13.8093 6.2579e-20)
(14.8579 4.97693 0)
(14.9169 5.03954 7.8575e-19)
(15.0152 5.05755 -9.41586e-24)
(15.1064 5.10307 1.78726e-18)
(15.2056 5.1597 1.60722e-18)
(15.3211 5.21915 2.93014e-18)
(15.4671 5.29076 0)
(15.6657 5.38185 -2.42909e-18)
(15.9295 5.51113 4.31816e-18)
(16.2889 5.7102 -6.85105e-23)
(16.7612 6.02942 1.60675e-18)
(17.3738 6.55182 -1.35495e-18)
(18.1071 7.39971 0)
(18.8873 8.69755 0)
(19.566 10.5421 1.1484e-18)
(19.9432 12.9975 -4.82553e-19)
(19.6882 15.9703 0)
(17.9968 18.3312 -3.34183e-21)
(13.9373 18.2443 2.67418e-19)
(8.5507 16.3983 0)
(4.22293 15.0486 -1.17657e-20)
(1.16445 14.1471 -1.08633e-21)
(-1.14793 13.4186 3.67954e-19)
(14.858 4.97406 1.06165e-23)
(14.9179 5.03706 -1.57301e-18)
(15.0162 5.05416 -2.54382e-23)
(15.108 5.09881 0)
(15.2076 5.15429 3.8727e-21)
(15.3237 5.2118 -2.9463e-18)
(15.4709 5.28026 -5.83173e-22)
(15.6717 5.3661 2.43116e-18)
(15.9402 5.48695 -2.17304e-18)
(16.309 5.6727 1.90237e-18)
(16.8011 5.9714 4.42486e-20)
(17.4535 6.46539 2.76651e-18)
(18.263 7.28088 -2.36334e-18)
(19.1764 8.55395 6.24384e-21)
(20.0749 10.4165 -2.48463e-18)
(20.7815 13.0423 8.92572e-19)
(20.7001 16.2252 -1.85128e-20)
(18.3733 18.1451 9.91244e-21)
(13.1089 17.1953 -2.7795e-19)
(7.30079 15.3385 0)
(3.14844 14.3548 -2.12539e-19)
(0.0834798 13.5125 0)
(-2.12644 12.9043 8.45284e-20)
(14.8581 4.97124 0)
(14.9188 5.0346 7.87192e-19)
(15.0171 5.05079 1.06096e-18)
(15.1095 5.09456 9.87424e-23)
(15.2096 5.14888 -3.23837e-18)
(15.3262 5.20445 1.47922e-18)
(15.4745 5.26975 0)
(15.6773 5.35026 0)
(15.9504 5.46246 -1.29934e-21)
(16.328 5.63429 -1.90137e-18)
(16.8389 5.9109 4.40747e-20)
(17.5301 6.37264 -1.40909e-18)
(18.4154 7.14682 2.34299e-18)
(19.4656 8.37634 0)
(20.6055 10.2335 1.32361e-18)
(21.6625 12.9957 -8.45871e-19)
(21.6156 16.2003 6.08512e-19)
(18.4028 17.461 3.29545e-20)
(12.0826 15.9021 0)
(6.19406 14.3688 0)
(2.15551 13.6737 1.38918e-19)
(-0.869293 12.9756 2.18237e-19)
(-2.99681 12.4871 -2.37626e-19)
(14.8581 4.96847 0)
(14.9197 5.03216 -3.89809e-23)
(15.018 5.04743 -1.06261e-18)
(15.1109 5.09031 8.94193e-19)
(15.2114 5.14347 1.62433e-18)
(15.3286 5.19709 3.21254e-22)
(15.4779 5.25921 1.39227e-18)
(15.6827 5.33434 1.25596e-18)
(15.9599 5.43769 -2.25494e-18)
(16.3458 5.59502 0)
(16.8746 5.84801 4.31951e-20)
(17.6031 6.27359 -1.52742e-18)
(18.5623 6.99702 0)
(19.7515 8.16342 -3.90701e-20)
(21.1495 9.98944 1.8323e-18)
(22.5457 12.8246 0)
(22.3664 15.8593 1.45564e-19)
(18.1302 16.4023 3.68341e-20)
(11.0244 14.5765 5.95305e-19)
(5.29027 13.5456 0)
(1.36386 13.0998 0)
(-1.54741 12.6058 -1.02146e-19)
(-3.78946 12.0762 2.24927e-19)
(14.858 4.96575 -2.1402e-23)
(14.9205 5.02973 2.81115e-23)
(15.0189 5.0441 0)
(15.1123 5.08606 9.01679e-19)
(15.2132 5.13806 -8.47853e-22)
(15.3309 5.18974 6.47591e-22)
(15.4812 5.24867 -1.3931e-18)
(15.6878 5.31834 -1.25837e-18)
(15.9688 5.41265 2.25679e-18)
(16.3624 5.55494 -1.99637e-18)
(16.9079 5.78281 -1.74069e-18)
(17.6715 6.16837 1.54012e-18)
(18.702 6.8313 1.39022e-18)
(20.03 7.91497 1.17352e-18)
(21.6944 9.67935 -1.77568e-18)
(23.3887 12.5001 8.01035e-20)
(22.9209 15.2098 -9.44979e-19)
(17.6433 15.1018 -5.22128e-19)
(10.0751 13.3396 -8.93209e-20)
(4.64769 12.866 1.60592e-19)
(0.811746 12.6364 -2.30487e-19)
(-2.1372 12.2848 0)
(-4.71577 11.5776 2.83749e-20)
(14.858 4.96309 0)
(14.9213 5.02731 8.02298e-19)
(15.0197 5.04079 1.07311e-18)
(15.1137 5.08183 -8.96801e-19)
(15.215 5.13266 8.25962e-19)
(15.3331 5.18239 0)
(15.4843 5.23811 1.68763e-21)
(15.6925 5.30228 -2.19325e-21)
(15.9769 5.38738 1.15135e-18)
(16.3776 5.51412 3.01734e-18)
(16.9384 5.71545 -1.80668e-18)
(17.7347 6.05718 -1.09684e-20)
(18.8322 6.64989 8.13327e-20)
(20.2968 7.63162 -1.20911e-18)
(22.2242 9.29751 0)
(24.1545 12.004 1.8235e-18)
(23.2783 14.286 -1.3301e-18)
(17.04 13.6654 7.08044e-19)
(9.32144 12.2091 4.57608e-19)
(4.23811 12.2071 -7.36339e-20)
(0.373869 12.1035 -4.90878e-19)
(-2.8567 11.7837 3.01703e-19)
(-5.80125 10.9302 9.27637e-20)
(14.8579 4.96048 8.54193e-19)
(14.9221 5.02491 3.28144e-21)
(15.0205 5.03749 -1.07468e-18)
(15.115 5.0776 -9.03227e-19)
(15.2166 5.12727 -1.65579e-18)
(15.3352 5.17505 -1.5323e-18)
(15.4871 5.22755 -1.69927e-21)
(15.6968 5.28616 2.20813e-21)
(15.9844 5.36188 -1.1523e-18)
(16.3914 5.47261 -1.01578e-18)
(16.9659 5.64609 3.66813e-18)
(17.7919 5.94033 -1.69062e-18)
(18.9512 6.45347 -1.48165e-18)
(20.5468 7.31458 1.41661e-18)
(22.7215 8.83906 -9.18848e-20)
(24.8138 11.331 -1.55889e-18)
(23.4577 13.1344 1.34588e-18)
(16.4031 12.1601 -1.7261e-18)
(8.76627 11.1105 -2.85849e-19)
(3.94637 11.3556 0)
(0.00479049 11.2819 7.07573e-19)
(-3.58132 10.9767 -6.99709e-19)
(-6.88567 10.0851 4.39841e-19)
(14.8579 4.95792 -8.5532e-19)
(14.9229 5.02253 -1.21254e-18)
(15.0213 5.03422 -1.07861e-18)
(15.1163 5.07339 9.07893e-19)
(15.2182 5.12188 8.29644e-19)
(15.3372 5.16771 1.53374e-18)
(15.4898 5.21698 1.4239e-18)
(15.7007 5.26999 0)
(15.991 5.3362 1.17075e-18)
(16.4035 5.43049 -1.04125e-18)
(16.9903 5.57492 -1.85298e-18)
(17.8424 5.81821 1.68936e-18)
(19.0571 6.24309 0)
(20.7744 6.9656 -1.29114e-18)
(23.1684 8.30167 1.22612e-18)
(25.3462 10.4873 -1.18055e-18)
(23.4885 11.8042 4.32525e-19)
(15.7787 10.6166 5.63501e-19)
(8.33234 9.92255 -2.39417e-18)
(3.7026 10.1521 1.78679e-18)
(-0.224942 10.1273 0)
(-4.18836 9.92664 -2.04794e-18)
(-7.92076 8.99789 2.12124e-18)
(14.8578 4.95542 0)
(14.9236 5.02017 4.05235e-19)
(15.022 5.03097 1.07969e-18)
(15.1175 5.06918 -9.09075e-19)
(15.2197 5.1165 -1.46522e-22)
(15.339 5.16037 6.59002e-22)
(15.4922 5.20641 -7.10855e-19)
(15.7042 5.25378 0)
(15.9969 5.31037 -1.17172e-18)
(16.4141 5.38784 -1.11461e-20)
(17.0112 5.50215 0)
(17.8855 5.69137 -8.93735e-19)
(19.1482 6.0202 0)
(20.9738 6.58695 1.291e-19)
(23.5489 7.6869 -2.75596e-18)
(25.739 9.48931 9.12527e-19)
(23.3985 10.3397 5.12921e-19)
(15.176 9.04237 -2.70973e-18)
(7.92248 8.576 1.41507e-18)
(3.43383 8.58699 2.26139e-18)
(-0.37664 8.71562 -4.67072e-18)
(-4.80436 8.64155 2.4996e-18)
(-9.00518 7.59442 -5.5266e-18)
(14.8577 4.95297 -8.78052e-19)
(14.9243 5.01782 4.04927e-19)
(15.0226 5.02774 -5.39343e-19)
(15.1186 5.06498 -4.74184e-22)
(15.2211 5.11113 8.61381e-22)
(15.3407 5.15304 -1.59564e-21)
(15.4943 5.19584 -7.14456e-19)
(15.7073 5.23754 5.38191e-21)
(16.0019 5.2844 -4.06131e-21)
(16.423 5.34476 -1.05913e-20)
(17.0286 5.42801 -9.76233e-19)
(17.9208 5.56044 8.56282e-19)
(19.2227 5.78651 4.58953e-20)
(21.1394 6.18162 -1.38701e-19)
(23.8485 7.00077 1.63686e-18)
(25.9857 8.36037 0)
(23.2094 8.77961 1.25518e-18)
(14.5891 7.44705 1.95711e-18)
(7.4354 7.09651 -1.89038e-18)
(3.06877 6.80196 6.43399e-18)
(-0.368083 7.27104 -4.29243e-18)
(-5.2566 7.36847 7.04048e-19)
(-10.0522 6.07 3.86394e-18)
(14.8576 4.95057 1.76389e-18)
(14.925 5.0155 -4.05441e-19)
(15.0232 5.02453 1.05888e-21)
(15.1197 5.06079 0)
(15.2224 5.10576 0)
(15.3422 5.14572 -7.72201e-19)
(15.4963 5.18528 -7.17035e-19)
(15.71 5.22128 0)
(16.0062 5.25833 -5.73173e-21)
(16.4303 5.30133 1.07262e-18)
(17.0424 5.35275 9.96734e-19)
(17.9478 5.42613 -2.47872e-20)
(19.2793 5.54401 -7.5988e-20)
(21.2653 5.75354 2.38488e-19)
(24.0558 6.2537 -1.71494e-19)
(26.0845 7.12891 0)
(22.9378 7.15608 -2.02629e-18)
(14.0224 5.83819 -4.8867e-20)
(6.83301 5.55306 -7.42976e-18)
(2.61173 4.96507 4.52056e-18)
(-0.317306 5.90013 7.8306e-18)
(-5.93389 6.1891 -9.61716e-18)
(-11.3463 4.44212 0)
(14.8574 4.94823 -1.77669e-18)
(14.9256 5.01319 5.8392e-23)
(15.0238 5.02135 5.39663e-19)
(15.1207 5.05661 0)
(15.2236 5.10039 0)
(15.3437 5.13841 9.30221e-22)
(15.4981 5.17473 1.43581e-18)
(15.7123 5.20502 0)
(16.0098 5.23221 6.02971e-19)
(16.4359 5.25764 0)
(17.0525 5.27666 0)
(17.9661 5.28928 -3.96325e-20)
(19.3167 5.29489 4.87056e-20)
(21.3473 5.30757 7.67235e-19)
(24.163 5.45968 1.81477e-19)
(26.0364 5.82562 -4.92209e-19)
(22.5936 5.49218 2.14485e-18)
(13.4954 4.2095 0)
(6.2326 3.99868 2.87323e-18)
(2.41458 3.41957 0)
(0.562529 5.22569 3.42698e-18)
(-6.00845 5.32376 2.99643e-18)
(-12.4395 2.53225 0)
(14.8573 4.94595 1.33976e-18)
(14.9262 5.01091 -2.0054e-19)
(15.0243 5.01818 0)
(15.1217 5.05244 4.51805e-19)
(15.2248 5.09504 -4.12045e-19)
(15.345 5.13111 7.73597e-19)
(15.4996 5.16418 -7.19976e-19)
(15.7143 5.18876 -6.67591e-19)
(16.0126 5.20605 -5.99347e-19)
(16.4399 5.2138 -1.07819e-20)
(17.0588 5.20002 1.3668e-20)
(17.9755 5.15076 9.68207e-19)
(19.3337 5.04143 8.1628e-20)
(21.3821 4.84936 -1.18723e-18)
(24.1668 4.63508 1.9062e-19)
(25.8428 4.48363 0)
(22.1681 3.81214 0)
(12.9766 2.55684 0)
(5.39373 2.43888 0)
(1.27622 2.45533 -2.22827e-18)
(0.151747 5.5733 -2.08693e-17)
(-7.04067 3.41345 1.28361e-17)
(-13.3658 0.461375 0)
(14.8571 4.94372 -4.48441e-19)
(14.9267 5.00864 4.00405e-19)
(15.0248 5.01504 0)
(15.1226 5.04829 -4.52468e-19)
(15.2259 5.08969 8.24751e-19)
(15.3462 5.12382 0)
(15.501 5.15366 0)
(15.7159 5.17252 6.64948e-19)
(16.0147 5.17989 0)
(16.4423 5.16989 -5.41365e-19)
(17.0612 5.12314 -5.26908e-19)
(17.9757 5.0115 -4.79592e-19)
(19.3296 4.78604 9.78828e-19)
(21.3667 4.38495 0)
(24.0666 3.79857 0)
(25.5116 3.14162 5.69248e-19)
(21.6752 2.16097 -8.19855e-19)
(12.6308 0.967691 0)
(5.44256 1.29555 -2.34472e-18)
(3.50253 3.08542 3.50595e-18)
(0.566896 3.57117 2.14846e-17)
(-10.9594 -1.75646 -6.98108e-18)
(-15.0363 -2.39282 0)
(14.8569 4.94155 4.45942e-23)
(14.9273 5.0064 -3.98753e-19)
(15.0253 5.01193 -1.52571e-22)
(15.1235 5.04414 -2.24768e-19)
(15.2269 5.08434 -4.12687e-19)
(15.3474 5.11654 3.87255e-19)
(15.5023 5.14315 1.23735e-21)
(15.7172 5.1563 -3.39026e-19)
(16.0161 5.15377 6.25679e-19)
(16.443 5.12603 5.45211e-19)
(17.0597 5.04632 5.13784e-19)
(17.9665 4.8724 -4.91302e-19)
(19.304 4.53114 -9.82362e-19)
(21.2997 3.92073 -1.72934e-19)
(23.866 2.96977 2.05528e-19)
(25.0543 1.83657 6.01383e-19)
(21.1172 0.543313 -8.83711e-19)
(12.2115 -0.819134 0)
(4.89896 -0.958736 2.19996e-18)
(0.806657 -0.520036 0)
(-5.37843 -2.38812 -1.15155e-18)
(-11.6112 -3.60158 0)
(-14.4893 -3.13198 -1.41243e-19)
(14.8567 4.93944 2.26953e-19)
(14.9278 5.00418 1.98918e-19)
(15.0257 5.00883 2.67884e-19)
(15.1243 5.04001 1.07719e-21)
(15.2279 5.07901 -7.08256e-22)
(15.3484 5.10927 1.39893e-21)
(15.5034 5.13266 -3.65176e-19)
(15.7181 5.14012 -3.71651e-21)
(16.0167 5.12771 -6.16093e-19)
(16.4421 5.0823 -1.10493e-20)
(17.0543 4.96986 5.34029e-19)
(17.9482 4.73436 0)
(19.257 4.27929 -8.6082e-20)
(21.1823 3.46388 1.04304e-19)
(23.5706 2.16522 5.11409e-19)
(24.4814 0.594541 0)
(20.3899 -1.02933 0)
(11.5863 -2.61941 -1.02096e-18)
(4.07971 -3.05925 0)
(0.122577 -2.45771 9.61733e-18)
(-6.5708 -4.02717 -6.10006e-18)
(-11.28 -4.1117 2.95198e-19)
(-13.8717 -3.66068 4.45188e-18)
(14.8565 4.93738 -4.54865e-19)
(14.9283 5.00198 -9.85864e-20)
(15.0261 5.00576 -4.01716e-19)
(15.1251 5.03588 2.25577e-19)
(15.2289 5.07368 2.05144e-19)
(15.3494 5.10201 -5.84069e-19)
(15.5042 5.1222 3.6598e-19)
(15.7187 5.12398 3.34456e-19)
(16.0166 5.10175 1.023e-20)
(16.4395 5.03881 -7.67976e-21)
(17.0451 4.89409 -5.20859e-19)
(17.9208 4.59827 -2.49381e-19)
(19.1889 4.03304 4.13015e-19)
(21.0171 3.02097 6.10457e-19)
(23.1875 1.39911 -5.23321e-19)
(23.8029 -0.55749 0)
(19.5537 -2.47393 0)
(10.9238 -4.14355 -1.99134e-18)