/*--------------------------------*- C++ -*----------------------------------*\
  =========                 |
  \\      /  F ield         | OpenFOAM: The Open Source CFD Toolbox
   \\    /   O peration     | Website:  https://openfoam.org
    \\  /    A nd           | Version:  7
     \\/     M anipulation  |
\*---------------------------------------------------------------------------*/
FoamFile
{
    version     2.0;
    format      ascii;
    class       volScalarField;
    location    "77";
    object      yPlus;
}
// * * * * * * * * * * * * * * * * * * * * * * * * * * * * * * * * * * * * * //

dimensions      [0 0 0 0 0 0 0];

internalField   uniform 0;

boundaryField
{
    inlet
    {
        type            calculated;
        value           uniform 0;
    }
    outlet
    {
        type            calculated;
        value           uniform 0;
    }
    suction_side
    {
        type            calculated;
        value           nonuniform List<scalar> 
56
(
56.7911
59.1862
61.4469
62.6666
62.0606
59.4156
52.4802
37.6111
27.1631
24.318
23.1225
26.1088
31.8718
36.5228
36.3879
35.6038
37.8251
38.3755
33.645
39.6207
42.5352
42.089
40.7368
39.582
37.9927
38.8786
41.586
43.0124
42.5092
42.5963
44.6873
49.8649
55.4193
56.3863
38.5277
33.3526
40.6937
45.9157
48.778
49.9008
50.097
49.5196
48.0713
45.9076
42.9531
39.1756
34.3888
28.3165
20.8439
16.852
20.1914
19.788
20.9207
20.1937
19.2103
19.245
)
;
    }
    pressure_side
    {
        type            calculated;
        value           nonuniform List<scalar> 
56
(
56.5042
53.039
50.0034
49.0157
47.7078
45.8292
44.3993
42.7091
41.3355
40.381
39.5866
38.9304
38.3767
37.8971
37.4877
37.1392
36.8399
36.5715
36.3245
36.0878
35.8631
35.6566
35.4791
35.3282
35.1927
35.048
34.8681
34.6181
34.2976
33.8692
33.2199
32.2322
30.7286
28.5174
25.941
23.2166
20.341
17.494
14.9828
12.6875
11.9535
12.7077
14.2757
17.9544
20.6661
24.0905
27.106
29.856
32.9938
36.4897
39.789
43.1438
46.2817
49.4409
52.1161
54.4874
)
;
    }
    trailing_edge
    {
        type            calculated;
        value           nonuniform List<scalar> 2(159.332 122.716);
    }
    defaultFaces
    {
        type            empty;
    }
}


// ************************************************************************* //
