/*--------------------------------*- C++ -*----------------------------------*\
  =========                 |
  \\      /  F ield         | OpenFOAM: The Open Source CFD Toolbox
   \\    /   O peration     | Website:  https://openfoam.org
    \\  /    A nd           | Version:  7
     \\/     M anipulation  |
\*---------------------------------------------------------------------------*/
FoamFile
{
    version     2.0;
    format      ascii;
    class       volScalarField;
    location    "10";
    object      k;
}
// * * * * * * * * * * * * * * * * * * * * * * * * * * * * * * * * * * * * * //

dimensions      [0 2 -2 0 0 0 0];

internalField   nonuniform List<scalar> 
17475
(
0.00764634
0.0125001
0.0125511
0.0125509
0.0125507
0.0125512
0.0125503
0.0125499
0.0125498
0.01255
0.0125506
0.0125503
0.0125496
0.0125496
0.0125501
0.0125502
0.0125502
0.0125507
0.0125503
0.0125498
0.0125505
0.0125507
0.0125493
0.0125515
0.0125473
0.0125585
0.0125588
0.012559
0.0125588
0.0125585
0.0125584
0.0125584
0.0125584
0.0125587
0.0125588
0.0125581
0.0125579
0.0125577
0.0125583
0.0125631
0.0125696
0.0125762
0.0125821
0.0125875
0.0125924
0.012597
0.0126012
0.0126052
0.012609
0.0126123
0.0126152
0.0126182
0.0126207
0.0126106
0.0120214
0.000258014
0.00439817
0.00528247
0.00530574
0.0052932
0.00529473
0.00528493
0.00528081
0.00528096
0.00528256
0.00528831
0.00528069
0.00527622
0.00527791
0.00528217
0.00528576
0.00528512
0.00529058
0.00528584
0.00527872
0.00528087
0.00528076
0.00528223
0.00528494
0.00529415
0.00528824
0.00529185
0.00529541
0.00529582
0.00529433
0.00529306
0.00529146
0.00529102
0.00529303
0.00529625
0.00528801
0.00528615
0.00528643
0.00528864
0.00529486
0.00529701
0.00530027
0.00529883
0.00529814
0.00530007
0.005302
0.0053027
0.00530484
0.00530885
0.00531403
0.0053179
0.00532177
0.00531867
0.00502673
0.00163003
3.18958e-05
0.00183399
0.00307052
0.00319548
0.00318255
0.00318186
0.00316947
0.0031621
0.00316262
0.00315776
0.00315857
0.00315027
0.00315066
0.00315397
0.00315967
0.00317425
0.0031704
0.00317024
0.00316621
0.003154
0.00315829
0.00315551
0.00315807
0.00316719
0.00317962
0.00316117
0.00316392
0.00316951
0.00317965
0.00317172
0.00317194
0.00316924
0.00316917
0.00316735
0.00316554
0.00315644
0.00315968
0.00315843
0.00316235
0.00317025
0.00317207
0.00317105
0.0031654
0.00316764
0.00317266
0.00317487
0.00317166
0.00317188
0.00317589
0.00319474
0.00319243
0.00319676
0.00314819
0.00249088
0.000283964
1.00432e-05
0.000837162
0.0020079
0.00222131
0.00223851
0.00222429
0.00222957
0.0022238
0.0022153
0.00220987
0.00222946
0.00221961
0.00222145
0.00220492
0.00219964
0.00222632
0.00221996
0.00220582
0.00220592
0.00221403
0.00220825
0.00221154
0.00221534
0.00220757
0.0022261
0.00221092
0.00220886
0.00220741
0.0022242
0.00221033
0.00220536
0.0022147
0.00221543
0.00220733
0.00221625
0.0022061
0.00220584
0.00220899
0.00221322
0.0022289
0.00221309
0.00222204
0.00222877
0.00221707
0.0022171
0.00222308
0.0022141
0.0022068
0.00221608
0.00223602
0.00223373
0.00224149
0.00213446
0.00132632
8.91441e-05
4.55369e-06
0.000433337
0.00139131
0.00165683
0.00169849
0.00169586
0.00171924
0.00170701
0.001636
0.00161723
0.00166655
0.00163536
0.00170168
0.0016969
0.00167422
0.00170561
0.0016929
0.00167085
0.0016618
0.00170108
0.00165591
0.00167425
0.00167938
0.00166637
0.00166529
0.00167515
0.00167872
0.00169114
0.00169703
0.00167318
0.00167085
0.00168149
0.00170043
0.00166182
0.00166029
0.001671
0.00167497
0.00167999
0.00167899
0.00167129
0.00170032
0.00172145
0.00169132
0.00168266
0.00168294
0.00169069
0.00169131
0.00169446
0.00167678
0.00169298
0.00172088
0.0017267
0.0015695
0.000785436
4.20791e-05
2.54966e-06
0.000260083
0.00103011
0.00136873
0.00135967
0.00138057
0.00137203
0.0013651
0.00133638
0.00136153
0.00133275
0.00131616
0.00134824
0.00133148
0.00133515
0.00132819
0.00131604
0.00135273
0.00132902
0.00134254
0.00133844
0.00136646
0.00135533
0.00131733
0.00137068
0.00137976
0.00136076
0.00136455
0.0013503
0.00133411
0.00134786
0.00133241
0.00133926
0.00138157
0.00135808
0.00136206
0.00135192
0.00134756
0.00135042
0.00129059
0.00134249
0.00132292
0.00134997
0.0013693
0.00139595
0.0013886
0.00135933
0.00139525
0.00137137
0.00138145
0.00140337
0.00139847
0.00119744
0.000518951
2.55979e-05
1.67159e-06
0.000178921
0.000801338
0.00114966
0.00121512
0.00116963
0.00118036
0.0011715
0.00121031
0.00117379
0.00129426
0.00117185
0.00122286
0.0012678
0.00113244
0.00113872
0.00113062
0.00116141
0.00117136
0.00113664
0.00114258
0.0011431
0.00112296
0.00120806
0.00115604
0.00118721
0.00114802
0.00111545
0.00112891
0.00110009
0.00117354
0.00112232
0.00112727
0.00117662
0.0011507
0.00116707
0.00115681
0.00115906
0.00116241
0.00116822
0.00113415
0.00120795
0.00114522
0.00116785
0.00122324
0.00116566
0.00112598
0.00113907
0.00117025
0.00124121
0.00119938
0.00118594
0.000954685
0.000371362
1.75879e-05
1.21538e-06
0.000132405
0.000608457
0.000977619
0.00107673
0.0011207
0.00113348
0.00111648
0.00120571
0.00136378
0.00120796
0.00139157
0.0012177
0.00117043
0.00111207
0.00119367
0.0011166
0.00105301
0.0010532
0.00104849
0.00113214
0.00118726
0.00118014
0.00105815
0.00106128
0.0010551
0.00101601
0.00101659
0.00104414
0.00102176
0.00103221
0.00116959
0.00105779
0.00110473
0.00115791
0.00108099
0.00104049
0.00105418
0.00105522
0.00112228
0.00109592
0.00115771
0.00108608
0.00109448
0.00107726
0.00114006
0.00116873
0.00115592
0.0011589
0.00119638
0.00105795
0.00102185
0.000766401
0.00027295
1.32139e-05
9.50238e-07
0.000102534
0.000594889
0.00103195
0.00116863
0.00114749
0.00126184
0.00128939
0.00127104
0.00152602
0.00139795
0.00132431
0.00119736
0.00121117
0.00139713
0.0013426
0.00134031
0.00111478
0.0010745
0.00104099
0.00113368
0.00116343
0.00115228
0.00113851
0.00127734
0.00110577
0.00106587
0.00106029
0.00106163
0.00106145
0.00115162
0.00111425
0.00126199
0.00119541
0.00115585
0.00117762
0.00109016
0.00110432
0.0011602
0.00124602
0.00137857
0.0011756
0.00121334
0.00119061
0.00112515
0.00116016
0.00128461
0.00132927
0.00133231
0.00129362
0.00103873
0.00105266
0.000667152
0.00023284
1.1118e-05
8.78333e-07
9.7494e-05
0.000503716
0.00112914
0.00125452
0.00128511
0.00156101
0.00140981
0.00135716
0.00155876
0.00140583
0.00140561
0.0012891
0.00140945
0.00136144
0.00135124
0.00135399
0.00126188
0.00110772
0.00110776
0.00110725
0.00121777
0.00120233
0.00124513
0.00121856
0.00117347
0.00113037
0.00107987
0.00117477
0.00117702
0.00130985
0.00118817
0.00131821
0.00131533
0.00126118
0.00124962
0.0012843
0.00126982
0.0012951
0.00127732
0.00132259
0.00129035
0.00130936
0.00123568
0.00115458
0.00118526
0.00131946
0.00147802
0.0014666
0.00127023
0.00125189
0.00108726
0.000654507
0.000229042
1.12685e-05
9.66533e-07
0.000101472
0.000493981
0.00102275
0.00133271
0.00144168
0.00178864
0.00155437
0.00149516
0.00173617
0.00151373
0.00148109
0.00143045
0.00150333
0.00141737
0.00142004
0.00146202
0.00138251
0.00130538
0.00126151
0.00129445
0.0012953
0.00132026
0.00138844
0.00127443
0.00124642
0.00128475
0.00117067
0.00124456
0.00124375
0.00150664
0.00134989
0.00135351
0.00136739
0.00136604
0.00128325
0.00142118
0.00141704
0.00135078
0.00138062
0.00150438
0.00151122
0.0013262
0.00125721
0.00139045
0.00123709
0.00140824
0.00143755
0.00151711
0.00146541
0.00120934
0.00109327
0.000706476
0.000352046
1.46816e-05
9.98543e-07
0.000107019
0.000514338
0.00112426
0.00153197
0.00158881
0.0016527
0.00159061
0.00153889
0.00179254
0.0016323
0.0016397
0.00164535
0.00180362
0.00155352
0.00155831
0.00148391
0.00147309
0.00133704
0.00143373
0.00144205
0.00159173
0.00136446
0.00138714
0.00136851
0.00132927
0.00127377
0.00126972
0.0013491
0.00134799
0.00146842
0.00139451
0.00145698
0.0013909
0.00141892
0.00147012
0.00152674
0.00156688
0.0015977
0.00140809
0.00151061
0.00152777
0.00141977
0.00129227
0.00132816
0.00131478
0.00145029
0.0014546
0.0015244
0.00141558
0.00129536
0.00110789
0.000753255
0.000338569
1.80302e-05
1.20568e-06
0.000136229
0.000577967
0.00115264
0.00155248
0.00163325
0.00164258
0.00161391
0.00163066
0.00168875
0.00170879
0.00192174
0.0019408
0.00181758
0.00179814
0.00198752
0.00152049
0.00141399
0.00139553
0.0014785
0.00151682
0.00149315
0.00146823
0.00151693
0.00144006
0.00143892
0.00134195
0.0013615
0.00145677
0.00148488
0.00146546
0.00138944
0.00156003
0.00147618
0.00145589
0.00155889
0.00165389
0.00155857
0.00152509
0.00148942
0.00159532
0.00158459
0.00150902
0.00137958
0.00133459
0.00138905
0.00155935
0.00154232
0.00164457
0.00148068
0.00145017
0.00117535
0.000824612
0.000391141
2.08244e-05
1.27923e-06
0.000135789
0.000652092
0.00123029
0.00170723
0.00167749
0.00190099
0.00168497
0.00183415
0.00172861
0.00193707
0.00199183
0.00192568
0.00172116
0.00193059
0.00181082
0.00162843
0.00169313
0.00169611
0.00156489
0.00173994
0.00150544
0.00152746
0.00151691
0.00155706
0.00145225
0.00140858
0.00144474
0.0014759
0.00154662
0.00156563
0.00143343
0.00144408
0.00160901
0.00151875
0.00158827
0.00181027
0.00159575
0.00157357
0.00163763
0.00183698
0.00168041
0.00163133
0.00142791
0.00144965
0.00144765
0.00161988
0.0016192
0.00164497
0.00149533
0.00148432
0.00123963
0.000895527
0.000427632
2.12754e-05
1.39755e-06
0.000145677
0.000697619
0.00128964
0.0018191
0.00174986
0.0019771
0.00188723
0.00194486
0.00180116
0.00190857
0.00209371
0.00186901
0.00177774
0.00185958
0.00177094
0.00167511
0.00173451
0.00162863
0.00164381
0.00165277
0.00155921
0.00161074
0.00159559
0.00161262
0.00155737
0.00148057
0.00149714
0.00150732
0.00156511
0.00158963
0.00150754
0.0014626
0.00152575
0.00156174
0.00174195
0.001847
0.00191914
0.00179394
0.00171502
0.00172687
0.00170038
0.00167572
0.00152201
0.00145905
0.00148076
0.00169182
0.00185902
0.00165237
0.00157378
0.00154511
0.00135521
0.000987308
0.00040758
2.23745e-05
1.47577e-06
0.000158582
0.000781007
0.0015477
0.00178736
0.00200385
0.00197748
0.0018995
0.0019696
0.00181854
0.00192468
0.00193087
0.00186812
0.00191277
0.00186761
0.00183026
0.00179377
0.00165178
0.00174126
0.00173668
0.00167355
0.00163053
0.00174067
0.0016145
0.00166221
0.00168671
0.00173822
0.00181812
0.00179356
0.00184273
0.00185179
0.00157937
0.00152427
0.0015633
0.00161214
0.00169137
0.00187073
0.00185964
0.0018201
0.0018245
0.00174031
0.00171919
0.00178675
0.00160968
0.00158547
0.00151345
0.00166431
0.00185833
0.00180249
0.00164715
0.00157368
0.00140341
0.00104761
0.000423578
2.22777e-05
1.5183e-06
0.000158707
0.000796385
0.00149616
0.00193454
0.00204956
0.0021247
0.00188428
0.00210982
0.00185903
0.00211917
0.00212692
0.00219318
0.00193236
0.00206014
0.00198637
0.00195178
0.00169953
0.00175059
0.00176565
0.00173877
0.00178219
0.00177189
0.00201828
0.00214394
0.00204899
0.00174478
0.0016126
0.00160534
0.00199214
0.00221745
0.00214372
0.0017417
0.00166827
0.00169794
0.00185783
0.00178849
0.00184334
0.00182579
0.0018201
0.00175381
0.00177024
0.0018427
0.00168957
0.00167585
0.00159136
0.00170972
0.00183157
0.0018234
0.00173818
0.00158271
0.00139104
0.00105339
0.000453993
2.37331e-05
1.51623e-06
0.000170338
0.000875971
0.00148176
0.0019392
0.00203249
0.00214813
0.00194711
0.00202141
0.00208084
0.00202874
0.00211407
0.00211984
0.00192293
0.00198583
0.00199511
0.00193062
0.00177263
0.00176651
0.00191428
0.00188293
0.00202852
0.00191877
0.00221459
0.00178073
0.000539157
1.06353e-05
5.93121e-05
0.00145698
0.00230994
0.00216227
0.00183063
0.00173596
0.00177769
0.0018577
0.00191126
0.00185859
0.00192999
0.00185561
0.0018299
0.00186318
0.00187341
0.00170068
0.00165257
0.00174058
0.00181395
0.00181319
0.0017967
0.00173049
0.00140445
0.00110101
0.000484389
2.50081e-05
6.9334e-07
0.000154731
0.000872002
0.0014929
0.00199839
0.00207491
0.00217115
0.0020282
0.00203894
0.00202541
0.00203691
0.00205034
0.00204965
0.00194621
0.0019563
0.00194952
0.0018708
0.0018126
0.00183223
0.00190136
0.00186333
0.00193194
0.00198987
0.0018207
0.000565154
2.6442e-06
0.00129038
0.00211677
0.00188153
0.00178931
0.00199176
0.0018894
0.00191825
0.0019242
0.0020387
0.0018746
0.00186525
0.00189142
0.0019721
0.0017502
0.00180921
0.00179699
0.00183521
0.00184547
0.00180431
0.00172712
0.0015068
0.00117938
0.000477291
2.32778e-05
1.35366e-06
0.000235528
0.00118495
0.00198416
0.00216914
0.00234852
0.00238721
0.00226658
0.00231093
0.00239802
0.00220138
0.00224986
0.00217842
0.0022502
0.00211224
0.00202315
0.00204436
0.00209035
0.0022957
0.00228073
0.00208653
0.00218674
0.00189
0.00118431
8.3199e-05
0.000432652
0.00181453
0.00207228
0.00214371
0.00225494
0.00211998
0.00215002
0.00223773
0.00209541
0.00202904
0.00206483
0.00219198
0.00219978
0.00197703
0.00212761
0.00204195
0.00200109
0.00216787
0.00219143
0.00197524
0.00196994
0.00148326
0.000670335
3.75299e-05
2.06502e-06
0.000233392
0.00117585
0.00191178
0.00212236
0.00225265
0.00227009
0.00226302
0.00223182
0.0021985
0.00216169
0.00218829
0.00217412
0.00225326
0.00207431
0.0019905
0.00203657
0.00217298
0.00234054
0.00214528
0.0020672
0.00196468
0.00177883
0.000830804
5.25304e-05
9.78422e-07
3.78779e-06
0.000281932
0.00132562
0.00195013
0.00207888
0.0021063
0.00207227
0.00218898
0.00215052
0.00206134
0.00218255
0.00201089
0.00221728
0.00206229
0.0019859
0.00204352
0.00200578
0.00200677
0.0021051
0.00208856
0.00212889
0.00191018
0.00152922
0.000655158
3.52726e-05
2.28352e-06
0.000243071
0.0011893
0.00189995
0.00207702
0.00214014
0.00223504
0.00224836
0.00212456
0.00224221
0.00223051
0.002194
0.0021938
0.00210027
0.00216092
0.00193854
0.00201006
0.00220985
0.00230671
0.00219694
0.00220692
0.00187613
0.00154759
0.000690905
9.56268e-05
2.01041e-05
4.51036e-05
7.66314e-05
5.70524e-05
2.65343e-05
4.12287e-05
0.000369813
0.00119614
0.00198412
0.00201282
0.00214205
0.00209571
0.00201859
0.00204097
0.00205317
0.00207315
0.0020631
0.00202534
0.00205374
0.00208777
0.00202926
0.00198191
0.00218501
0.00220128
0.0021814
0.00208832
0.00180404
0.00146503
0.000679174
3.48367e-05
2.21168e-06
0.000230329
0.00108111
0.00176658
0.00221677
0.00204516
0.00207774
0.00209719
0.00205638
0.00206546
0.00211609
0.00209475
0.00209371
0.00200923
0.002086
0.00205731
0.00198459
0.00210046
0.00212161
0.00208149
0.00202989
0.00189008
0.00150257
0.00074972
0.000211058
0.00013493
0.000374612
0.000499844
0.00040031
0.000177612
0.000127099
0.000512969
0.00113502
0.00192093
0.00200314
0.00202725
0.00208328
0.00196759
0.00217806
0.00204697
0.00188439
0.00192591
0.00198348
0.0020062
0.00213483
0.00224101
0.00202123
0.00214635
0.00205426
0.0020192
0.00201407
0.0017146
0.00143611
0.000599461
3.15774e-05
2.16208e-06
0.000229834
0.00108372
0.00174652
0.00201839
0.00203271
0.00199111
0.00201898
0.0021001
0.00201827
0.00207146
0.00211838
0.00208098
0.00202718
0.00190761
0.00195097
0.00202469
0.0020473
0.00203747
0.00213592
0.00204009
0.00199639
0.00139236
0.000828904
0.000505924
0.000397739
0.000765227
0.000838678
0.000693737
0.000365983
0.000363595
0.00079812
0.00120804
0.00175872
0.0019264
0.00200609
0.00204656
0.00207962
0.00210028
0.00189168
0.00182184
0.00183442
0.00194316
0.00198178
0.00207098
0.00225924
0.00211669
0.00214976
0.00207202
0.00193573
0.00189105
0.00170129
0.00148772
0.000564767
2.96257e-05
2.07929e-06
0.000225519
0.00113441
0.00177731
0.00205031
0.00213339
0.00199394
0.00205556
0.0021101
0.00206272
0.00196467
0.00201301
0.00209281
0.00204791
0.00193984
0.00192445
0.00203183
0.00197176
0.00203394
0.00192203
0.00194083
0.00181666
0.001366
0.000976734
0.000861987
0.00089047
0.00130662
0.00125608
0.00109934
0.000709386
0.000755257
0.000999769
0.00124006
0.00170968
0.00193106
0.00200235
0.00197819
0.00189839
0.00207763
0.0018142
0.00186887
0.00183352
0.00195785
0.00208809
0.00200959
0.00223218
0.00211988
0.00211682
0.00203597
0.0018996
0.00204927
0.00178581
0.00140826
0.000572809
2.73297e-05
1.8773e-06
0.000205216
0.00102518
0.00164098
0.00189257
0.00198342
0.00193258
0.00192846
0.00191649
0.00187442
0.00188309
0.00185894
0.00192709
0.00193072
0.00185689
0.00182237
0.00184298
0.00186465
0.00188215
0.00185008
0.00178821
0.00174798
0.00135816
0.00129225
0.00132449
0.00152908
0.00198022
0.00170606
0.00165278
0.00126998
0.00121173
0.00125161
0.00131319
0.00175238
0.00177358
0.00185944
0.00190439
0.00195571
0.00195753
0.00174365
0.0017593
0.00191994
0.00188892
0.00208512
0.00204452
0.00201257
0.0021084
0.00205564
0.00189048
0.00197846
0.00194315
0.00175649
0.00127781
0.000513188
2.51472e-05
1.65693e-06
0.000180193
0.000933965
0.00144524
0.00176481
0.00177945
0.00176556
0.00183197
0.00181714
0.00181017
0.00190563
0.00185461
0.00188641
0.00184214
0.00173498
0.00166409
0.00180118
0.00184153
0.00180797
0.00186711
0.0017523
0.00167489
0.00140331
0.00128634
0.00152016
0.00198905
0.00255662
0.00210405
0.00223528
0.00186777
0.00153453
0.00126178
0.00136701
0.00170911
0.00178205
0.00175757
0.0017962
0.00181225
0.0017504
0.00171994
0.00171092
0.00183686
0.00182735
0.00206772
0.00192821
0.00192868
0.00195884
0.00191689
0.00181141
0.0018116
0.00177601
0.00170466
0.00131376
0.000489868
2.34772e-05
1.49797e-06
0.000162859
0.000798425
0.00139184
0.0016538
0.00168562
0.00182074
0.00173045
0.00176809
0.00176771
0.00177694
0.00183686
0.00172317
0.00171775
0.00167504
0.00176187
0.00176605
0.00171389
0.00177865
0.00180209
0.00184195
0.00174204
0.0015882
0.00145665
0.0016068
0.00218906
0.00285138
0.00234938
0.00264963
0.00225776
0.0016009
0.0013903
0.00142373
0.00168165
0.00170495
0.00164041
0.00165386
0.00171048
0.00166159
0.00161106
0.00169207
0.00179223
0.00179002
0.00197514
0.00197353
0.00193946
0.0018185
0.00177048
0.00175155
0.0017527
0.00178822
0.00157782
0.00124002
0.000471122
2.17056e-05
1.39676e-06
0.000149336
0.000816204
0.00126965
0.0015041
0.00169474
0.00175111
0.00167083
0.00177383
0.00179332
0.00179944
0.00181391
0.00172695
0.00169375
0.00166967
0.00165207
0.00174772
0.00177231
0.00167487
0.00166202
0.00166786
0.00170429
0.00158153
0.00147559
0.00165889
0.00217943
0.00285714
0.00241074
0.00273982
0.00233854
0.00165504
0.00148175
0.00145944
0.00154759
0.00158011
0.00156496
0.00159428
0.00159626
0.00157594
0.0015711
0.00165832
0.00169147
0.001782
0.00181715
0.00187537
0.00189979
0.00172962
0.00171107
0.0017279
0.00170745
0.00164133
0.00153155
0.00112975
0.000407248
1.9808e-05
1.40035e-06
0.000144641
0.000778756
0.0012408
0.00145314
0.00158024
0.00164995
0.00165038
0.00178111
0.00192944
0.00215209
0.00185668
0.00186573
0.0019292
0.00169616
0.00167811
0.00171145
0.00165463
0.00178497
0.00164385
0.00165098
0.00159759
0.00152464
0.00147909
0.00170881
0.00219306
0.0027014
0.00231112
0.00264678
0.00235111
0.00184922
0.00154103
0.00145355
0.00151747
0.00153549
0.00155524
0.00160042
0.00169585
0.00165293
0.00156415
0.00179537
0.0017991
0.00170054
0.00189363
0.00175738
0.00185073
0.00170156
0.00168758
0.00181596
0.00167388
0.00162511
0.00156581
0.00107937
0.000399475
1.91013e-05
1.42564e-06
0.000150458
0.000768204
0.00123484
0.00145101
0.00155596
0.00161123
0.00170009
0.0018207
0.00202622
0.00200848
0.00191112
0.00186834
0.00181487
0.00172205
0.00168565
0.00174587
0.00173778
0.00171417
0.00177657
0.00164209
0.00154479
0.00154195
0.00160243
0.00170437
0.00215745
0.0024917
0.00214509
0.0024465
0.00229261
0.00179467
0.00152789
0.00148895
0.00154864
0.00155962
0.00162635
0.00159374
0.00158463
0.00165047
0.0016054
0.00166066
0.0016972
0.00166963
0.00181382
0.00174567
0.00172145
0.00171827
0.00171177
0.0018169
0.00171084
0.00166445
0.00155458
0.00105838
0.000419345
1.95346e-05
1.45105e-06
0.000152641
0.00083052
0.00126252
0.0015218
0.00161916
0.00166451
0.00176563
0.00183386
0.00192509
0.00205146
0.00194691
0.00202152
0.00182148
0.00179978
0.00184431
0.00172982
0.00176615
0.00171159
0.00162914
0.00159693
0.00164776
0.00156521
0.00162536
0.00174821
0.0020632
0.00236214
0.00200092
0.00228575
0.00227967
0.00182937
0.00161038
0.00153947
0.00162377
0.00159367
0.00166136
0.00170622
0.00159553
0.00163731
0.00166896
0.00163554
0.00168354
0.00167197
0.00174445
0.00172676
0.00189183
0.00181616
0.00177373
0.00175368
0.00172368
0.00191306
0.00171504
0.00107288
0.000380518
1.83509e-05
1.50457e-06
0.000164762
0.000804653
0.00130411
0.00161556
0.00166672
0.00187819
0.00202628
0.0019861
0.00190066
0.0019774
0.00207697
0.00204352
0.00190231
0.00186447
0.0018784
0.00191613
0.00184171
0.00180251
0.00167292
0.00177633
0.00156961
0.00160522
0.00163786
0.00178005
0.002062
0.00221613
0.00189245
0.00212141
0.0021976
0.00183791
0.00173237
0.00175205
0.00162628
0.00170679
0.00177504
0.00178348
0.0016679
0.00165436
0.00168711
0.00166329
0.00171453
0.00180989
0.00197405
0.00185372
0.00180041
0.00179922
0.00181638
0.0018215
0.00192772
0.00186546
0.00170113
0.00108407
0.000413219
1.84734e-05
1.48819e-06
0.000154385
0.000798837
0.0013532
0.00166705
0.00183412
0.00186085
0.0020986
0.00215984
0.00190477
0.00193076
0.00209018
0.00197578
0.00190757
0.00186665
0.00188429
0.00183339
0.00187085
0.00181906
0.00177587
0.00174944
0.00165334
0.00159249
0.00176274
0.00182935
0.00202304
0.0020616
0.00180921
0.00202818
0.00215691
0.00188578
0.00165924
0.00172451
0.0017208
0.0018836
0.00182233
0.00181546
0.00172107
0.00184569
0.00173549
0.00175097
0.00180485
0.00199393
0.00183067
0.0018487
0.00180719
0.00177642
0.00182808
0.00187096
0.00182041
0.00176059
0.0016027
0.00120434
0.00038648
1.8077e-05
1.47012e-06
0.000152382
0.000878098
0.00136134
0.00171706
0.00188552
0.00195217
0.00197229
0.00202622
0.00194625
0.00193016
0.00210032
0.00197134
0.00206773
0.00187804
0.00185245
0.0018504
0.00185171
0.00182935
0.00179464
0.00178237
0.00167493
0.00164377
0.0019706
0.00191936
0.00195532
0.00192779
0.00170635
0.00192591
0.00209535
0.00188872
0.00172898
0.00170258
0.00179745
0.00184701
0.00184549
0.00198803
0.00185281
0.00197132
0.00196125
0.00196224
0.00187696
0.00195527
0.00179856
0.00187691
0.00195838
0.00179575
0.00186044
0.00200227
0.00177923
0.00169712
0.00160275
0.00117905
0.000387995
1.79534e-05
1.48117e-06
0.000154576
0.000800829
0.00142383
0.0018355
0.00193018
0.00202397
0.00197187
0.00198585
0.00204742
0.00204688
0.00203858
0.0020479
0.00197954
0.00202626
0.00183501
0.00184687
0.00188477
0.00201212
0.00195932
0.00182253
0.00170744
0.00178226
0.00182036
0.00196096
0.00198285
0.00184076
0.00165162
0.00180915
0.00199266
0.00185789
0.00164299
0.0016678
0.00191317
0.00184218
0.00186491
0.00192328
0.00195377
0.00186924
0.00213743
0.00192916
0.00189309
0.00200139
0.0019093
0.00182709
0.00192334
0.00202303
0.0020055
0.00184401
0.00178
0.00171573
0.00170625
0.00112158
0.000406349
1.87441e-05
1.49319e-06
0.000156076
0.000788358
0.0014292
0.00186407
0.00199857
0.00224607
0.00207092
0.00218498
0.00204389
0.00200243
0.00193289
0.00208371
0.00198443
0.00194517
0.00205546
0.00201194
0.00192226
0.00190608
0.00203851
0.00188453
0.00174652
0.00199787
0.00192741
0.00190862
0.00189697
0.00184133
0.0017601
0.00178489
0.00186794
0.00175703
0.00162377
0.00167462
0.00183704
0.0019171
0.00188327
0.00191393
0.00208286
0.0018665
0.00197986
0.00193655
0.00188243
0.00186684
0.00198062
0.00186684
0.00191401
0.00196444
0.00201522
0.00194418
0.00173948
0.00173049
0.00170878
0.00109052
0.000386415
1.82102e-05
1.54082e-06
0.000161803
0.000871806
0.00161699
0.00201128
0.00215064
0.00219811
0.00205643
0.00205946
0.0020798
0.00195065
0.00194311
0.00192878
0.00203136
0.00191912
0.00201462
0.00193737
0.00196974
0.00189675
0.00194871
0.00193693
0.00182764
0.00185751
0.00191627
0.00196562
0.00195593
0.00178894
0.00166571
0.00175206
0.00185085
0.00176328
0.00167008
0.00171345
0.00183432
0.00200498
0.00189379
0.00204988
0.00197884
0.00189296
0.00209634
0.00216631
0.00188211
0.00196474
0.00192586
0.00179406
0.0017737
0.00183182
0.00202703
0.0018177
0.00173646
0.00172943
0.00177213
0.00119433
0.000400288
1.84091e-05
1.57908e-06
0.000167852
0.000915453
0.00151181
0.00203512
0.00210626
0.00218894
0.00203045
0.00208104
0.00219384
0.00199696
0.00196023
0.0020907
0.0021086
0.00194007
0.00195799
0.00190367
0.00193695
0.00192508
0.00196505
0.00190305
0.00209361
0.00193455
0.00184638
0.00185577
0.00184863
0.00185531
0.0017582
0.00179952
0.00189946
0.00183896
0.00170213
0.0018463
0.00181191
0.0018484
0.00197921
0.00194211
0.00197876
0.0020019
0.00210428
0.0020903
0.00210448
0.0018538
0.00184954
0.00192065
0.00186669
0.00180702
0.00196673
0.00181412
0.00176525
0.0017123
0.00164262
0.00117935
0.000410066
1.88655e-05
1.53895e-06
0.000159643
0.000827825
0.00155503
0.00198036
0.00212339
0.00206543
0.00201559
0.00219052
0.00206841
0.00201423
0.00214942
0.0020742
0.00210678
0.00195268
0.00199772
0.00199376
0.00199043
0.0019503
0.00199205
0.00192918
0.00200813
0.00192597
0.00195184
0.00191268
0.00192142
0.00180371
0.00176962
0.00188104
0.0018822
0.00180524
0.00173783
0.00179175
0.00181793
0.00194436
0.00184876
0.00206172
0.00193778
0.00198241
0.00198386
0.00199239
0.00209433
0.00189914
0.00188126
0.00181609
0.00176635
0.00185952
0.00186783
0.00184944
0.00179697
0.00174896
0.00157283
0.00113686
0.000426922
1.99577e-05
1.55021e-06
0.000158572
0.000808663
0.00150498
0.00184742
0.00200963
0.00202896
0.00201224
0.00213005
0.00200585
0.0019756
0.00209733
0.00228543
0.00220958
0.00200219
0.00211439
0.0021178
0.00199462
0.00192855
0.00196174
0.00204126
0.00189742
0.00181316
0.00183137
0.00193281
0.0017977
0.0017661
0.00172888
0.00173858
0.00191456
0.00182134
0.001816
0.00183518
0.00188962
0.00187282
0.00181888
0.0019176
0.00192532
0.00195419
0.00205876
0.00202561
0.00210006
0.00190096
0.00182219
0.00177393
0.00175303
0.00185111
0.0018144
0.00198165
0.0018312
0.00181849
0.00154576
0.00118363
0.000476798
2.12375e-05
1.5842e-06
0.000163839
0.000812581
0.0014818
0.00182474
0.00203456
0.00209409
0.00211443
0.00215889
0.00197852
0.00209264
0.00202071
0.00210461
0.00224894
0.0020713
0.00215017
0.00216553
0.00195297
0.00193022
0.00198387
0.00197563
0.00183683
0.00176715
0.00190924
0.00191
0.0018255
0.00165817
0.00163989
0.00170985
0.00193273
0.00189921
0.00171873
0.00174415
0.00178846
0.00179073
0.00185184
0.00197507
0.00204365
0.00194112
0.00194178
0.00204584
0.0019788
0.00206426
0.00197863
0.00179652
0.00180999
0.00185085
0.00185144
0.00199455
0.00197682
0.00180633
0.00167988
0.00141807
0.000468099
2.21363e-05
1.56223e-06
0.000164663
0.00087139
0.00166678
0.00181283
0.00211391
0.00218239
0.00209752
0.00203543
0.00195539
0.00204072
0.00204604
0.00206598
0.00221357
0.00208988
0.00208127
0.00208297
0.0020155
0.00193526
0.00198822
0.00195045
0.00183735
0.00177655
0.00192765
0.00186285
0.00174797
0.00166244
0.0015878
0.00166615
0.00180532
0.0017967
0.00167607
0.00168939
0.00171039
0.00172864
0.00178912
0.00188381
0.0019214
0.00201771
0.00187969
0.0019741
0.00201071
0.00199025
0.00187058
0.00186771
0.00194921
0.00196845
0.00189985
0.00190704
0.00195422
0.00185227
0.00170806
0.00131198
0.000462912
2.22769e-05
1.53681e-06
0.000161106
0.000826484
0.00156078
0.00194025
0.0020005
0.0020321
0.00203998
0.00198088
0.00199854
0.00213848
0.00222451
0.0021454
0.00209576
0.00212923
0.00203632
0.00196255
0.00193355
0.00192832
0.00187582
0.00189897
0.0018243
0.00179535
0.00179923
0.00181507
0.00176341
0.00162849
0.0015923
0.00167264
0.0018396
0.00172448
0.00165977
0.00174086
0.00166646
0.00170006
0.00177935
0.00184656
0.0020112
0.00197019
0.00183603
0.001868
0.00198136
0.00194745
0.0018227
0.00185394
0.00189366
0.00196129
0.00198215
0.00183387
0.0018797
0.00181279
0.00170713
0.00127935
0.000475516
2.24644e-05
1.5565e-06
0.000165876
0.000874715
0.00157983
0.00192575
0.00208899
0.0021615
0.00210321
0.0020581
0.00218758
0.00213905
0.00222326
0.00215332
0.00206482
0.0020722
0.0021078
0.001912
0.00213271
0.00206975
0.00182864
0.00179347
0.00176434
0.00177238
0.00175465
0.00175355
0.00190914
0.0017167
0.00162871
0.00168151
0.00188288
0.00176689
0.00165595
0.0016541
0.00165434
0.0016701
0.00177824
0.00191394
0.00194937
0.00188061
0.00186143
0.00183023
0.00183776
0.00191575
0.00187713
0.00186693
0.00184667
0.00183661
0.00194141
0.00182408
0.00176977
0.00194989
0.00170998
0.00141379
0.000509023
2.38142e-05
1.52628e-06
0.000158999
0.000859103
0.00144289
0.00174792
0.00204397
0.00213745
0.00212276
0.00203545
0.00218303
0.00219633
0.00217425
0.00213372
0.00210616
0.00206349
0.00208757
0.00192763
0.00204496
0.00204027
0.00201679
0.0018122
0.00177214
0.00180694
0.0018557
0.00176451
0.00186453
0.00189816
0.00167804
0.00170847
0.00180306
0.00179082
0.00170391
0.00161017
0.00166255
0.00166283
0.00173772
0.00188112
0.00187742
0.00191299
0.00193246
0.00184014
0.00178887
0.00179897
0.00185236
0.00191644
0.00180859
0.00187918
0.00179068
0.00171185
0.00172118
0.00180534
0.00173633
0.00135239
0.000504637
2.39907e-05
1.53301e-06
0.000161066
0.000806497
0.00160101
0.00171706
0.00189833
0.00198393
0.00205111
0.00216683
0.00215889
0.00231411
0.00237862
0.00219148
0.00209839
0.00217354
0.00204888
0.00203223
0.00203707
0.00192598
0.00194783
0.0018104
0.00183171
0.00182595
0.0018238
0.00178279
0.00186146
0.00189877
0.00169506
0.00192516
0.00186248
0.00174401
0.0016621
0.00162713
0.00170524
0.00176312
0.00175509
0.0019475
0.00198029
0.00188307
0.00189685
0.00190025
0.0018179
0.00177259
0.00178872
0.00182907
0.00184579
0.00181418
0.00182263
0.00169308
0.00172033
0.00179233
0.00185611
0.00145219
0.000492472
2.36435e-05
1.52767e-06
0.000157831
0.000832132
0.00161319
0.00176708
0.00184302
0.00199501
0.00210198
0.00206667
0.00220587
0.00238427
0.00236786
0.00232534
0.00222574
0.00220614
0.00208011
0.00193036
0.00190521
0.00186653
0.00187769
0.00181953
0.0018554
0.00185042
0.00178859
0.00187343
0.0019631
0.0017781
0.00171981
0.00178859
0.00179424
0.00190969
0.00189389
0.00181006
0.00194144
0.00194308
0.00187661
0.00185774
0.00193779
0.00186224
0.0019162
0.00191003
0.00176743
0.00188032
0.00178928
0.00181387
0.00178606
0.00173405
0.00173305
0.0017617
0.00186932
0.00180783
0.00185121
0.00138269
0.000492257
2.3981e-05
1.57793e-06
0.000164458
0.000843905
0.00153573
0.00181334
0.00182669
0.00196207
0.00201338
0.00211525
0.00228329
0.0022351
0.00234914
0.00225314
0.00210656
0.00205161
0.00200941
0.00189405
0.00186235
0.00186531
0.00192263
0.00185534
0.00183008
0.00205116
0.00183855
0.00201765
0.00200646
0.00181583
0.00172776
0.00179293
0.00173515
0.00185026
0.00187072
0.00196273
0.00196573
0.00182485
0.00175677
0.00194883
0.00188358
0.00188744
0.00195399
0.00197933
0.00173028
0.00177346
0.00180107
0.00183768
0.00181701
0.00171995
0.0016932