/*--------------------------------*- C++ -*----------------------------------*\
  =========                 |
  \\      /  F ield         | OpenFOAM: The Open Source CFD Toolbox
   \\    /   O peration     | Website:  https://openfoam.org
    \\  /    A nd           | Version:  7
     \\/     M anipulation  |
\*---------------------------------------------------------------------------*/
FoamFile
{
    version     2.0;
    format      ascii;
    class       volScalarField;
    location    "10";
    object      nut;
}
// * * * * * * * * * * * * * * * * * * * * * * * * * * * * * * * * * * * * * //

dimensions      [0 2 -1 0 0 0 0];

internalField   nonuniform List<scalar> 
17475
(
3.13997e-05
0.000188961
0.000188076
0.000188031
0.000188029
0.000188036
0.000188023
0.000188017
0.000188016
0.000188021
0.000188029
0.000188022
0.000188015
0.000188014
0.00018802
0.000188024
0.000188023
0.000188029
0.000188025
0.000188018
0.00018802
0.000188022
0.000188021
0.000188024
0.000188029
0.000188024
0.000188027
0.000188027
0.000188022
0.000188023
0.000188022
0.000188024
0.000188023
0.000188028
0.000188032
0.000188021
0.00018802
0.000188021
0.000188023
0.000188031
0.000188031
0.000188034
0.000188033
0.000188031
0.00018803
0.000188031
0.00018803
0.000188032
0.000188036
0.000188036
0.000188036
0.000188039
0.000188053
0.000188295
0.000150709
1.00987e-06
0.000114675
0.000172066
0.000176644
0.000176699
0.000176903
0.000176639
0.000176543
0.000176573
0.000176643
0.000176844
0.000176598
0.000176452
0.00017651
0.000176659
0.000176784
0.000176768
0.000176951
0.000176795
0.000176557
0.000176629
0.000176625
0.000176643
0.000176806
0.000176994
0.000176665
0.000176693
0.000176806
0.000176818
0.000176783
0.000176748
0.000176698
0.000176683
0.000176749
0.000176854
0.000176581
0.000176523
0.000176539
0.000176641
0.000176813
0.000176824
0.000176863
0.000176739
0.000176646
0.000176642
0.000176638
0.000176592
0.000176593
0.000176648
0.000176729
0.00017673
0.000176619
0.000175278
0.000153808
1.68536e-05
1.28853e-07
5.8623e-05
0.000150805
0.000168225
0.000169682
0.000170251
0.000169857
0.000169627
0.000169764
0.000169562
0.00016965
0.000169235
0.000169273
0.000169462
0.000169791
0.000170596
0.000170413
0.000170404
0.000170201
0.000169549
0.000169787
0.000169606
0.000169767
0.000170207
0.00017083
0.000169752
0.000169796
0.000170047
0.000170597
0.000170183
0.000170207
0.00017007
0.000170056
0.000169954
0.000169846
0.000169353
0.000169535
0.000169468
0.000169691
0.000170073
0.000170151
0.000170068
0.0001697
0.000169764
0.000169983
0.000170026
0.000169758
0.000169648
0.000169694
0.000170476
0.000169944
0.0001691
0.000160719
0.00010277
3.05831e-06
4.09532e-08
2.99562e-05
0.000127622
0.000158025
0.000164299
0.000164571
0.000165547
0.000165499
0.000165115
0.000164811
0.000166378
0.000165716
0.000165911
0.000164713
0.000164374
0.0001664
0.000165979
0.000164918
0.000164969
0.000165579
0.000165139
0.000165387
0.000165635
0.000165065
0.000166369
0.000165192
0.00016497
0.000164765
0.000166032
0.000165028
0.000164635
0.000165336
0.000165349
0.000164766
0.000165409
0.00016461
0.000164612
0.0001648
0.000165115
0.000166207
0.000165061
0.000165716
0.000166118
0.000165146
0.000165081
0.000165398
0.000164564
0.000163828
0.000164207
0.000165244
0.000164194
0.00016194
0.000143881
6.38374e-05
1.08298e-06
1.86884e-08
1.68224e-05
0.000105452
0.000146524
0.000158076
0.000160268
0.000163546
0.000163059
0.000156604
0.000154878
0.000159828
0.000156952
0.000163413
0.00016299
0.000160973
0.000163998
0.000162865
0.000160772
0.000159957
0.000163666
0.00015933
0.000161116
0.000161611
0.000160383
0.000160054
0.000161053
0.00016137
0.000162431
0.000163001
0.000160823
0.000160506
0.000161508
0.000163242
0.000159629
0.000159417
0.000160318
0.000160748
0.000161133
0.000160999
0.000160161
0.000163104
0.000164979
0.00016191
0.000160991
0.000160875
0.000161423
0.000161217
0.000161272
0.000159138
0.000159914
0.000161024
0.000156339
0.000128817
4.26866e-05
5.51351e-07
1.05024e-08
1.06967e-05
8.90579e-05
0.000144119
0.000153079
0.000159764
0.00016054
0.00016067
0.00015756
0.000160588
0.000157667
0.000155896
0.000159556
0.00015739
0.000158357
0.000157324
0.000155838
0.000160321
0.00015743
0.000158745
0.000158206
0.000161807
0.000160358
0.000155742
0.000161825
0.000163021
0.000160675
0.000161038
0.000159367
0.000157705
0.00015919
0.000157227
0.000157975
0.000163134
0.000160223
0.000160669
0.000159713
0.000159016
0.000159113
0.000151939
0.000158314
0.000155489
0.000158244
0.000160712
0.000163644
0.000162672
0.000158885
0.000162588
0.000159118
0.000159119
0.000159281
0.000151454
0.000114515
3.11302e-05
3.48697e-07
6.89254e-09
7.67753e-06
7.66613e-05
0.000140329
0.000161121
0.000161583
0.000166108
0.000165891
0.000171452
0.000166764
0.000184857
0.00016779
0.000174634
0.000180192
0.000162335
0.000162897
0.000161664
0.000165944
0.000166646
0.000161009
0.000161829
0.000162402
0.000159107
0.000170704
0.000163705
0.000168012
0.000162067
0.000157076
0.000159022
0.000155881
0.000166051
0.00015805
0.000159355
0.000166592
0.00016253
0.000164926
0.000163408
0.000163391
0.000163081
0.000164084
0.000159521
0.000169209
0.000160025
0.000163243
0.000170766
0.000163164
0.000157236
0.00015807
0.000161147
0.000169377
0.000160593
0.000150299
0.000103995
2.40503e-05
2.44521e-07
5.01584e-09
5.85931e-06
6.30191e-05
0.000135004
0.000164967
0.000180871
0.000188
0.000185776
0.000200879
0.000226838
0.00020277
0.000235625
0.000206307
0.00019727
0.00018881
0.00020193
0.000188266
0.000176673
0.00017585
0.000174914
0.000188771
0.000197681
0.000198052
0.00017595
0.000177952
0.000176269
0.000168389
0.000167275
0.000171741
0.000169669
0.000172023
0.000193625
0.000175583
0.000183194
0.000192026
0.000180128
0.000172943
0.000174282
0.000173111
0.000185029
0.000180849
0.000189721
0.000177366
0.000178484
0.000176102
0.000187032
0.000190762
0.000187404
0.00018583
0.000189352
0.000163577
0.00014915
9.36216e-05
1.86971e-05
1.84944e-07
3.92504e-09
4.64476e-06
6.58956e-05
0.000158376
0.000202876
0.00020852
0.000237605
0.000251887
0.000239045
0.000287465
0.000267385
0.000255868
0.000232015
0.000234654
0.000270912
0.000258926
0.000263142
0.000220534
0.000210845
0.000201878
0.000219879
0.00022682
0.000216595
0.000222283
0.000250332
0.000216223
0.000204289
0.000201453
0.000201132
0.000202302
0.000220244
0.000213698
0.000242103
0.000228247
0.000219099
0.000228406
0.000210962
0.000208486
0.000218687
0.000234836
0.000260323
0.000222138
0.000227162
0.000221523
0.000209627
0.000223411
0.00024714
0.000245981
0.000243004
0.000232487
0.00018124
0.000172388
8.936e-05
1.6642e-05
1.57153e-07
3.63517e-09
4.4793e-06
5.90211e-05
0.000191172
0.000239504
0.000258406
0.000326894
0.000295103
0.000284265
0.000328073
0.000300151
0.000306276
0.000281423
0.000306347
0.000296441
0.000294079
0.000288162
0.000268977
0.000234812
0.000233047
0.000232716
0.000254589
0.00025317
0.000261882
0.000259451
0.000251952
0.000244225
0.000231671
0.000251309
0.000251223
0.000280039
0.000255378
0.000282741
0.000280979
0.000269845
0.000263921
0.000269414
0.000269756
0.000274432
0.000270272
0.00027952
0.000273816
0.000276365
0.000258261
0.000244745
0.000248646
0.000275256
0.000309086
0.000301578
0.000255304
0.000243565
0.000196852
9.40348e-05
1.69232e-05
1.6079e-07
4.00325e-09
4.72587e-06
6.03942e-05
0.000181308
0.000262771
0.000296975
0.000379713
0.00033052
0.000319341
0.000375089
0.000331933
0.000327111
0.000316492
0.000334672
0.000314663
0.000313109
0.000318153
0.000299609
0.000282106
0.000272284
0.000278174
0.000276558
0.000281614
0.000298995
0.000279172
0.00027503
0.000283401
0.00025592
0.000271307
0.000271717
0.000332289
0.000298878
0.000297231
0.00029821
0.00029777
0.000278369
0.000306353
0.000306026
0.000293728
0.000300361
0.000326209
0.000330702
0.000289437
0.000272133
0.000299597
0.000265307
0.000299706
0.000304398
0.000316645
0.00029811
0.000238024
0.000202626
0.00010581
2.66755e-05
2.11466e-07
4.13319e-09
5.03485e-06
6.41511e-05
0.000203739
0.000306956
0.000330531
0.000353827
0.000342461
0.000332769
0.000392126
0.000361721
0.000364446
0.000366191
0.000402666
0.000346298
0.000345896
0.000326223
0.000322708
0.000291512
0.000311492
0.000312275
0.000344755
0.000296341
0.000303622
0.000302979
0.000296306
0.000284144
0.000282666
0.000300446
0.000300196
0.000327918
0.000311036
0.00032297
0.000306653
0.000312335
0.000322061
0.000332025
0.00034077
0.000349416
0.000308874
0.000330305
0.000335527
0.000311345
0.000281472
0.000288648
0.000284125
0.00031079
0.000310217
0.000320166
0.00028947
0.000256487
0.000207826
0.00011548
2.61641e-05
2.62144e-07
4.99077e-09
6.46545e-06
7.29732e-05
0.000212329
0.000315685
0.000342975
0.000354413
0.000351403
0.00035631
0.000373043
0.000381512
0.000428902
0.000433581
0.000405781
0.000400911
0.000443041
0.000336592
0.000311335
0.000305551
0.000322724
0.000330492
0.000326501
0.000322674
0.000335211
0.000320866
0.000322838
0.000302582
0.000308488
0.000330869
0.000335922
0.000330821
0.000312043
0.000348639
0.000328335
0.000322231
0.000343277
0.000361665
0.000340935
0.000336155
0.000329515
0.000352071
0.000350187
0.000332788
0.000302854
0.000292089
0.000302053
0.00033619
0.000330985
0.000347803
0.000304902
0.000289328
0.00022415
0.000128236
3.0733e-05
3.05642e-07
5.29181e-09
6.48588e-06
8.33417e-05
0.000229112
0.000350555
0.000354274
0.000412138
0.000370043
0.000403929
0.00038349
0.000432451
0.000444268
0.000429237
0.000382145
0.000428294
0.00040303
0.000360442
0.000371691
0.000370503
0.00034146
0.000379763
0.00033015
0.000336809
0.000335544
0.000345609
0.000324467
0.000317247
0.00032858
0.000337294
0.000351236
0.000353073
0.000320852
0.000322213
0.000357359
0.000335002
0.000348412
0.00039518
0.000348815
0.000347478
0.000363817
0.000406742
0.000371696
0.000359995
0.00031441
0.000317925
0.000315478
0.000350422
0.000348572
0.000349899
0.000310171
0.000298657
0.000239248
0.000141583
3.39726e-05
3.13184e-07
5.77848e-09
6.9961e-06
8.99555e-05
0.000241539
0.000375633
0.000371339
0.000430171
0.000416754
0.000431162
0.000400175
0.000423941
0.000464849
0.000414071
0.000391885
0.000409792
0.000391221
0.000368037
0.000377267
0.000352853
0.000356329
0.000358669
0.000339583
0.000351487
0.000347725
0.000351412
0.000339982
0.000328402
0.000336784
0.000339813
0.00034923
0.000350279
0.000328757
0.000320906
0.000334235
0.000340301
0.000377732
0.000399381
0.000416351
0.00039426
0.000380005
0.000381257
0.000375418
0.000370585
0.0003356
0.000319583
0.00032242
0.000366488
0.0004009
0.000353145
0.000328961
0.000314029
0.000264415
0.000158155
3.26751e-05
3.29743e-07
6.10561e-09
7.64406e-06
0.000101445
0.000290685
0.000369591
0.000426614
0.000431228
0.000420664
0.000438048
0.000403401
0.000424552
0.000425436
0.000410782
0.000419061
0.000408872
0.000399505
0.000389242
0.000355028
0.000372546
0.000371316
0.000357209
0.000344311
0.000366435
0.000338112
0.000347118
0.000352162
0.000369535
0.000387368
0.00038318
0.000392004
0.000387997
0.000331074
0.000321417
0.000330904
0.000341836
0.000360148
0.0003996
0.000398681
0.000394794
0.000399188
0.000380199
0.000376599
0.000395109
0.000354214
0.000345934
0.000328622
0.000360518
0.000401418
0.000386639
0.000346846
0.000322984
0.000276175
0.00016909
3.41585e-05
3.28408e-07
6.28147e-09
7.66889e-06
0.000104046
0.000281387
0.00039945
0.000436527
0.000463546
0.000417698
0.00046852
0.000410281
0.000464336
0.000465077
0.0004791
0.000420995
0.000447414
0.000427841
0.000418169
0.000361245
0.000369725
0.000370286
0.000359342
0.000360637
0.000349364
0.000387653
0.000406837
0.000292634
0.000152517
9.38584e-05
9.2972e-05
0.000245303
0.000373665
0.000415975
0.000339665
0.000330187
0.000341876
0.000384646
0.000376415
0.000390144
0.000389895
0.000391128
0.000376796
0.000382249
0.000403453
0.000368723
0.000363193
0.000344088
0.000369729
0.000395781
0.000392076
0.000367868
0.000326874
0.000274855
0.000170674
3.67946e-05
3.49984e-07
5.83687e-09
8.17239e-06
0.000114185
0.00027847
0.00039975
0.00043238
0.00046817
0.000430934
0.000446939
0.000456112
0.000441992
0.000459598
0.000460922
0.000416622
0.000426879
0.000423558
0.000408794
0.000372603
0.000367046
0.000388231
0.000370213
0.000386571
0.000350556
0.000355008
8.94631e-05
4.59091e-06
7.19425e-09
7.07515e-08
2.88316e-05
0.000396467
0.000375852
0.000337754
0.000333612
0.000355274
0.000382634
0.000398908
0.000390909
0.000407492
0.000391801
0.00038853
0.000401185
0.00040464
0.00036615
0.000356072
0.000375427
0.000391564
0.000390464
0.000381041
0.000357762
0.000277336
0.000178756
3.93761e-05
3.68692e-07
1.78907e-09
6.3208e-06
0.000110561
0.000277346
0.000403484
0.000431886
0.00046205
0.000437432
0.000439223
0.000431864
0.000431891
0.000434431
0.000434026
0.000408258
0.000404432
0.000398411
0.000382238
0.000367465
0.000364743
0.000364577
0.000342817
0.000343552
0.000299775
0.000123694
8.24418e-06
1.46013e-09
4.12295e-05
0.000254459
0.000316457
0.000324104
0.000379691
0.000375321
0.000386845
0.000390386
0.000415632
0.000381659
0.000382514
0.000392781
0.000413084
0.000367905
0.000381717
0.000379181
0.000387252
0.00038938
0.00037482
0.000349456
0.000291673
0.000191437
3.89985e-05
3.44405e-07
3.3999e-09
1.06152e-05
0.000148638
0.000347283
0.000399364
0.000445253
0.000458058
0.000439086
0.000449648
0.000462548
0.000423024
0.000434134
0.000415242
0.000421275
0.000386577
0.00036497
0.000369573
0.000376747
0.000407145
0.000388318
0.00033799
0.000332
0.000208813
5.31928e-05
8.74738e-07
9.64699e-06
0.000144538
0.000289878
0.000338538
0.000378215
0.000367785
0.00038253
0.000403234
0.000379124
0.000366215
0.000377835
0.000407728
0.000415349
0.000380151
0.00041216
0.000395672
0.000382733
0.000412512
0.000415664
0.000366614
0.000350127
0.000227339
5.56529e-05
5.62834e-07
7.82722e-09
1.08584e-05
0.000149631
0.000331109
0.000384402
0.000418549
0.000429373
0.000431832
0.000426758
0.0004171
0.000405945
0.000411604
0.000407512
0.000415683
0.000375298
0.000352464
0.000357859
0.000382024
0.000403773
0.000356655
0.000327121
0.000286523
0.000186646
4.09884e-05
1.43556e-06
5.13775e-09
4.87023e-08
9.57582e-06
0.000101098
0.00025767
0.000318831
0.000346565
0.000351847
0.000376215
0.000379426
0.000366559
0.000388855
0.000360551
0.000404073
0.00038473
0.000378341
0.000393531
0.000384032
0.000377995
0.000394466
0.000391444
0.00039117
0.000335342
0.000233355
5.39531e-05
5.22536e-07
9.3977e-09
1.16312e-05
0.000150319
0.000324584
0.000373932
0.000393226
0.0004152
0.000419849
0.000399096
0.000420952
0.000416324
0.000411059
0.000407217
0.000383246
0.000385881
0.000339278
0.000350454
0.000384099
0.000392379
0.00036292
0.000347113
0.000269776
0.000168025
4.29067e-05
5.16583e-06
1.29641e-06
1.97399e-06
2.9053e-06
2.05235e-06
1.52755e-06
2.51455e-06
1.88562e-05
0.000101464
0.000262704
0.000308047
0.000349418
0.000353963
0.000347882
0.000358949
0.000363368
0.000367483
0.000371506
0.000370963
0.000380765
0.000394203
0.000386129
0.000376486
0.000410049
0.000411265
0.00040711
0.000381476
0.000315286
0.000223268
5.55037e-05
5.13178e-07
9.15573e-09
1.1115e-05
0.00013569
0.000295132
0.000388805
0.000368168
0.000378309
0.000385132
0.000381561
0.000384131
0.000389156
0.000386165
0.000384033
0.000361599
0.000364321
0.000354172
0.000339142
0.000359541
0.000355676
0.000340254
0.000318602
0.000273616
0.000168611
5.89319e-05
1.65873e-05
1.8071e-05
7.34068e-05
0.000112913
8.53289e-05
2.91451e-05
1.21195e-05
3.63531e-05
0.000112489
0.000257811
0.000308211
0.000329528
0.000348664
0.00033646
0.000377642
0.000357968
0.00033133
0.000341415
0.00035843
0.000368987
0.000400666
0.000422601
0.000380939
0.000400685
0.000380017
0.000372672
0.00036519
0.000298769
0.000217555
4.86349e-05
4.65041e-07
8.94671e-09
1.1097e-05
0.000134831
0.000284267
0.000346286
0.000359925
0.000355175
0.000362891
0.000382109
0.000364274
0.000372943
0.00038024
0.000374103
0.000361391
0.000332744
0.000334326
0.000338241
0.000346203
0.000320929
0.000349576
0.000321517
0.000292834
0.000166251
7.94035e-05
4.84779e-05
5.89571e-05
0.000158498
0.000209168
0.00015681
6.2927e-05
3.92766e-05
7.28991e-05
0.000138243
0.000250626
0.00029913
0.000310043
0.000336893
0.00035244
0.000355232
0.000324013
0.000313968
0.00030521
0.000349046
0.000358582
0.00038388
0.000419673
0.000387916
0.000394106
0.000375953
0.000350087
0.000337311
0.000293666
0.000223357
4.55514e-05
4.36807e-07
8.60986e-09
1.08919e-05
0.000141104
0.000284709
0.000357367
0.000377144
0.000340241
0.000348682
0.000365265
0.000357516
0.00033677
0.000343874
0.000356494
0.000347077
0.000331377
0.000316227
0.000346223
0.000324272
0.000337193
0.000304495
0.000294266
0.000273354
0.000178127
0.000110817
9.5068e-05
0.000126832
0.000253472
0.000304669
0.000231446
0.000113021
8.77282e-05
0.000111009
0.000160836
0.000254467
0.000299268
0.000333415
0.000325327
0.000320556
0.000350305
0.000311597
0.000310455
0.000326514
0.000346716
0.000380265
0.000352935
0.000414985
0.000387083
0.000367049
0.00035556
0.00034326
0.000364252
0.000306255
0.000210752
4.61666e-05
4.03199e-07
7.77325e-09
9.9118e-06
0.000126967
0.000260923
0.000323819
0.000345215
0.000343135
0.00035558
0.000350946
0.000333032
0.000331682
0.000331498
0.00033409
0.000332651
0.000323179
0.000323211
0.000318629
0.000330182
0.000326593
0.000308504
0.00028979
0.000272093
0.000194938
0.00017008
0.000167462
0.000213801
0.000365777
0.000406036
0.000331572
0.00019367
0.000155493
0.000162371
0.000184627
0.000265659
0.000284937
0.000306827
0.000314373
0.00032625
0.000337808
0.000293967
0.000306666
0.000355536
0.000351907
0.000394371
0.000379958
0.00036225
0.000378825
0.000375618
0.000353836
0.000358342
0.000348187
0.000294388
0.000188865
4.12279e-05
3.69306e-07
6.85898e-09
8.71066e-06
0.000118332
0.000245283
0.000314871
0.000331336
0.000327954
0.00035646
0.000355204
0.000352175
0.000368215
0.000358924
0.000362399
0.000347912
0.000325318
0.000307748
0.00033396
0.000337462
0.000328218
0.000336993
0.000305276
0.000287537
0.000226392
0.000193655
0.000218519
0.000294117
0.000460847
0.000493981
0.000435806
0.000289107
0.000221757
0.000186257
0.000213787
0.000274346
0.000297283
0.000310852
0.000325849
0.00032923
0.000321113
0.000316942
0.000318624
0.000347425
0.000352534
0.000404873
0.000383455
0.000377537
0.000369542
0.000375388
0.00035172
0.000346711
0.000327253
0.00030602
0.000199031
3.93655e-05
3.42415e-07
6.2135e-09
7.88293e-06
0.000102753
0.000251422
0.000322633
0.000335972
0.000370354
0.000349067
0.000357917
0.00036264
0.000362018
0.000368104
0.000345781
0.000340402
0.000331526
0.000334613
0.000335987
0.000323661
0.000331271
0.000334587
0.000338324
0.000317704
0.000286727
0.000247267
0.000265067
0.000356349
0.000524642
0.000550544
0.000518466
0.000371148
0.000257463
0.000232707
0.000253841
0.000293325
0.000300044
0.000298541
0.000301018
0.00031199
0.000320183
0.000306835
0.000326581
0.000346722
0.000348128
0.000390366
0.000398162
0.000397027
0.000372343
0.000359207
0.000349885
0.000350115
0.000344388
0.000298404
0.000197119
3.79132e-05
3.14609e-07
5.7934e-09
7.23448e-06
0.000105487
0.000232773
0.000300375
0.000347808
0.000360254
0.000344671
0.000366071
0.000371906
0.000371888
0.000368874
0.000349157
0.00034128
0.000335782
0.000322333
0.000336563
0.0003412
0.000320014
0.000315571
0.000315119
0.000317659
0.000295376
0.000274899
0.000299068
0.000384535
0.000542309
0.000569535
0.000554959
0.000415195
0.000291653
0.00027289
0.000272098
0.000295484
0.000304418
0.000303775
0.000309918
0.000312885
0.00030739
0.000308833
0.000325111
0.000332377
0.000352178
0.000364381
0.00038269
0.000392973
0.000357729
0.000348619
0.000352281
0.000344219
0.000324485
0.000294585
0.000182303
3.27843e-05
2.855e-07
5.81015e-09
7.01516e-06
0.000101192
0.000228461
0.000291288
0.000324991
0.0003435
0.000346086
0.000373598
0.000405112
0.000449631
0.000383242
0.000382049
0.000394527
0.00034597
0.000337902
0.000340398
0.000327721
0.000351018
0.000320178
0.000318596
0.000304844
0.000290545
0.000282248
0.000322657
0.000415707
0.000542264
0.000552972
0.000557196
0.000447858
0.000351173
0.000292136
0.000277005
0.000295149
0.000304253
0.000311846
0.000317483
0.000338178
0.000331493
0.000314471
0.000362396
0.000361977
0.000342485
0.000385674
0.000362901
0.000385583
0.000353973
0.000347822
0.000373425
0.000341514
0.000325221
0.000305311
0.00017442
3.21454e-05
2.74049e-07
5.91238e-09
7.31055e-06
0.000100229
0.000228776
0.000292923
0.000322622
0.000338128
0.000359429
0.000385145
0.000429625
0.000423246
0.000398124
0.000386765
0.000375433
0.000355199
0.000345653
0.000354834
0.000351075
0.000343352
0.000351026
0.000322042
0.000300563
0.000299906
0.00031478
0.000336054
0.000427459
0.000517857
0.000520181
0.000535708
0.000455459
0.000352221
0.000297911
0.000290293
0.000307137
0.00031543
0.000331577
0.000325416
0.000323041
0.000336928
0.000328772
0.000341818
0.000348622
0.000342373
0.000373857
0.000363424
0.00036042
0.00035909
0.000355328
0.000376574
0.000351725
0.000337227
0.000306662
0.000171795
3.37474e-05
2.79135e-07
6.02352e-09
7.43127e-06
0.000108744
0.000234892
0.000308821
0.000337272
0.000350914
0.000374513
0.00038944
0.000410333
0.000433448
0.00040657
0.000421317
0.000379734
0.000374408
0.000383222
0.000357097
0.000361918
0.000347293
0.000326452
0.000318394
0.000326455
0.000310876
0.000328327
0.000355574
0.000421126
0.000506091
0.000490055
0.00051678
0.000469383
0.000371319
0.000323406
0.000305407
0.000326131
0.000325844
0.000342243
0.000353741
0.000329634
0.000337879
0.000345849
0.000340821
0.000351323
0.00034808
0.000362402
0.000360223
0.000396302
0.000380332
0.000370061
0.000365536
0.000356982
0.000391453
0.000341338
0.000174848
3.064e-05
2.61356e-07
6.24885e-09
8.03876e-06
0.000105808
0.000243675
0.000329585
0.000348865
0.00039749
0.000430264
0.000422558
0.000405951
0.000417848
0.000433791
0.000427795
0.000399117
0.000391268
0.000395131
0.000400833
0.000381861
0.000370876
0.000341734
0.000360739
0.000317263
0.000327302
0.000339396
0.000370069
0.000431388
0.00048589
0.000466028
0.000491061
0.000467543
0.000383297
0.000355594
0.00035476
0.000331634
0.000351765
0.000367457
0.000372081
0.000347516
0.000344101
0.000352789
0.000349799
0.000361021
0.000380051
0.000411624
0.000386212
0.000376557
0.00037745
0.000381365
0.000381613
0.000401084
0.000384249
0.000340563
0.000177206
3.33071e-05
2.62337e-07
6.18498e-09
7.55014e-06
0.000105466
0.000254444
0.000342246
0.000386302
0.000395411
0.000445801
0.000459545
0.000406855
0.000409038
0.000438549
0.000415638
0.000402753
0.000395436
0.000400579
0.000387766
0.000392523
0.000379733
0.000368898
0.000361226
0.00034122
0.000333
0.000371394
0.000386405
0.000430869
0.000459368
0.000445809
0.00047711
0.000470661
0.000401799
0.000346485
0.000356067
0.000356523
0.000391995
0.000379782
0.000380476
0.000361178
0.000387312
0.000365872
0.00037058
0.000381771
0.000420093
0.000382511
0.000384984
0.000378052
0.000373978
0.00038677
0.000394008
0.000380277
0.00036428
0.000322406
0.000197485
3.11958e-05
2.56074e-07
6.11659e-09
7.46771e-06
0.000116408
0.000257899
0.00035517
0.000399894
0.000417228
0.00042049
0.000431864
0.000416317
0.000411449
0.000444907
0.000417921
0.00043898
0.000400684
0.000396933
0.000394629
0.000391952
0.000386033
0.000377056
0.000372693
0.000351788
0.000349749
0.000419974
0.000409964
0.000422211
0.000434858
0.000419145
0.000457075
0.000466426
0.000409496
0.000366652
0.000357203
0.000377914
0.000388759
0.000387705
0.00041881
0.000391376
0.00041764
0.000417102
0.00041825
0.000398405
0.000412608
0.000376956
0.000391854
0.000410915
0.000380287
0.000396102
0.000423961
0.000373019
0.000352393
0.000323841
0.000194085
3.13712e-05
2.53779e-07
6.16144e-09
7.59032e-06
0.000106606
0.000271616
0.000382501
0.000412569
0.000435913
0.000424515
0.000426256
0.000440214
0.000439691
0.000436603
0.000438518
0.000422021
0.000433876
0.000395003
0.000395591
0.000401034
0.000427279
0.000415026
0.000385329
0.00036345
0.000382571
0.000390992
0.000423024
0.00043319
0.000418763
0.000403733
0.000431007
0.000449631
0.000408732
0.000353345
0.000354387
0.000406695
0.000391677
0.00039489
0.000407725
0.000415171
0.000398503
0.00045758
0.000414399
0.0004038
0.000423291
0.000401851
0.000383107
0.000405021
0.000430672
0.000428417
0.000392219
0.000374551
0.000357241
0.000345954
0.000185316
3.29128e-05
2.64436e-07
6.20728e-09
7.68029e-06
0.000105341
0.000273814
0.000390366
0.000429554
0.000486641
0.00045062
0.000473506
0.000442082
0.000432653
0.000417766
0.000450364
0.000425006
0.000417345
0.00044343
0.000431862
0.00041077
0.0004075
0.000435302
0.000402484
0.00037528
0.000430793
0.000416739
0.000416292
0.000419003
0.000421456
0.000427558
0.000424937
0.00042448
0.000390561
0.000353242
0.000358784
0.000393173
0.000410312
0.000401708
0.000408867
0.000445196
0.000399424
0.000425271
0.000417926
0.000403594
0.000396025
0.000418784
0.000393499
0.000404698
0.000419277
0.000431222
0.000414924
0.000367516
0.00036141
0.00034759
0.000180753
3.13531e-05
2.56485e-07
6.40459e-09
7.97795e-06
0.00011684
0.000309936
0.000421351
0.000462228
0.000477314
0.000449829
0.000449903
0.000451807
0.000422637
0.000421957
0.000419608
0.000438305
0.000413278
0.000436296
0.000417716
0.000423965
0.000409369
0.000419913
0.000417326
0.000394787
0.000401956
0.000417034
0.000433101
0.000435933
0.000411028
0.000401569
0.000415498
0.00042184
0.000394311
0.00036605
0.000369271
0.000394434
0.000430044
0.000405757
0.000441144
0.000425666
0.000406501
0.000451322
0.000468651
0.000405539
0.000418834
0.000409439
0.000380769
0.000376844
0.000391579
0.00043435
0.000389036
0.000368331
0.000362904
0.000362043
0.000198548
3.25336e-05
2.58852e-07
6.56608e-09
8.29165e-06
0.000122934
0.000289323
0.000425265
0.000451005
0.000475076
0.000445222
0.000457099
0.000477875
0.000432492
0.000425176
0.000456374
0.000459694
0.000422096
0.00042699
0.000413453
0.000420669
0.00041943
0.000427202
0.000413042
0.000453811
0.000419886
0.000404477
0.000412172
0.000414799
0.000426811
0.000420002
0.000424118
0.000433201
0.000412219
0.000374563
0.000400369
0.000391632
0.000396522
0.000424097
0.000419899
0.000427631
0.000430749
0.000453568
0.000452975
0.000455312
0.0003975
0.00039587
0.000411053
0.000398686
0.000386923
0.000422004
0.000388962
0.000375812
0.000361444
0.000337242
0.000196705
3.3382e-05
2.64912e-07
6.40119e-09
7.89802e-06
0.000111312
0.000297111
0.000412944
0.000452961
0.000448023
0.000443496
0.000483448
0.000451442
0.000435117
0.000464154
0.000454043
0.000464346
0.000430785
0.000439262
0.000435805
0.000434954
0.000427189
0.000435125
0.000420034
0.000435099
0.000417353
0.000430078
0.000427223
0.0004328
0.000414524
0.000418574
0.000440348
0.000429209
0.000404991
0.000383249
0.00039076
0.000394922
0.000417789
0.000396192
0.000447106
0.000419925
0.000426635
0.000427692
0.000432232
0.000454259
0.000408981
0.000405019
0.00039182
0.000379526
0.000399052
0.000401427
0.000396906
0.000383976
0.000371291
0.000324393
0.000190365
3.48642e-05
2.80768e-07
6.45061e-09
7.85636e-06
0.000108893
0.000287469
0.000385291
0.000428771
0.000441441
0.000445139
0.000472971
0.000439677
0.000428226
0.000454196
0.000502551
0.000492107
0.000446968
0.00046795
0.000464149
0.000436535
0.00042271
0.00042856
0.000444275
0.000410699
0.000392715
0.00040471
0.000433053
0.000405764
0.000405497
0.000405168
0.000404134
0.000436062
0.000408474
0.000401047
0.000402041
0.000411961
0.000403391
0.000391136
0.000417031
0.000418349
0.000420982
0.000444359
0.000440265
0.000456271
0.000410461
0.000393924
0.000384978
0.000378744
0.000398464
0.000390487
0.000425556
0.000392078
0.000387777
0.000320015
0.000198804
3.90712e-05
2.99999e-07
6.60597e-09
8.12838e-06
0.000109648
0.000283241
0.000380922
0.000435993
0.000457938
0.000470681
0.000482929
0.000438266
0.00045793
0.000441491
0.000465732
0.000505074
0.000466155
0.00047748
0.000473519
0.000426268
0.000422196
0.0004326
0.000429622
0.000396893
0.000381978
0.000422115
0.000428634
0.000412597
0.000380592
0.000381639
0.000395272
0.00043902
0.000424771
0.000379505
0.000382895
0.000390422
0.000386668
0.000400288
0.00043027
0.00044539
0.000419843
0.000420743
0.000446202
0.000430542
0.000446517
0.000429129
0.000391489
0.000392989
0.000399766
0.000398913
0.000428447
0.000423291
0.000385929
0.000348448
0.000238536
3.84775e-05
3.13994e-07
6.51973e-09
8.17841e-06
0.000117856
0.00031892
0.000378323
0.000454541
0.000478944
0.000469376
0.000458603
0.000439277
0.000452015
0.000451564
0.000460573
0.000499667
0.000472408
0.000462819
0.000453925
0.000438501
0.000422737
0.000433774
0.000424501
0.000398576
0.000386485
0.000426718
0.000418388
0.000395189
0.000381316
0.000367658
0.000383515
0.00040845
0.0003997
0.000368509
0.000369815
0.00037275
0.000374231
0.000388162
0.000410604
0.000419385
0.00043857
0.000409377
0.000432115
0.00043815
0.000431152
0.000406867
0.000408686
0.000425097
0.000426621
0.000410363
0.000410098
0.000418811
0.000395511
0.000354006
0.000220965
3.81651e-05
3.17288e-07
6.40484e-09
8.00897e-06
0.000112064
0.000299361
0.000405036
0.000430189
0.000446404
0.000457569
0.000448578
0.000453644
0.00047983
0.000496255
0.000481073
0.000474256
0.000481622
0.000453633
0.000428399
0.000421355
0.000421679
0.000409915
0.000414571
0.000398293
0.000394128
0.000400149
0.000407488
0.000398374
0.000373048
0.000367307
0.000383517
0.000414597
0.000381735
0.000363311
0.000379621
0.000361773
0.000369043
0.000387921
0.000403094
0.00043922
0.000429291
0.000400877
0.000409409
0.000432091
0.000422585
0.000397468
0.000406757
0.000413895
0.000426338
0.000429725
0.000395452
0.000403922
0.000386803
0.000353115
0.000215903
3.9315e-05
3.21319e-07
6.48225e-09
8.25359e-06
0.000118883
0.000304147
0.000403374
0.000449395
0.000474358
0.000470835
0.000466591
0.000498826
0.000484405
0.000499726
0.00048341
0.000466351
0.000467458
0.000470471
0.000420936
0.000468151
0.000453993
0.000399828
0.00039322
0.000389099
0.000394152
0.00039288
0.000393863
0.0004314
0.000392827
0.000374511
0.000383976
0.000423394
0.000390055
0.00036107
0.000359392
0.000358564
0.000363522
0.000388984
0.000418711
0.000425922
0.000409413
0.000405606
0.000399941
0.000400286
0.000416619
0.000410431
0.000409641
0.000403262
0.00039956
0.000422081
0.000394551
0.000381448
0.000416369
0.000353186
0.000239069
4.22018e-05
3.42071e-07
6.3565e-09
7.91763e-06
0.000117047
0.000278964
0.000368632
0.000441423