/*--------------------------------*- C++ -*----------------------------------*\
  =========                 |
  \\      /  F ield         | OpenFOAM: The Open Source CFD Toolbox
   \\    /   O peration     | Website:  https://openfoam.org
    \\  /    A nd           | Version:  7
     \\/     M anipulation  |
\*---------------------------------------------------------------------------*/
FoamFile
{
    version     2.0;
    format      ascii;
    class       volScalarField;
    location    "10";
    object      omega;
}
// * * * * * * * * * * * * * * * * * * * * * * * * * * * * * * * * * * * * * //

dimensions      [0 0 -1 0 0 0 0];

internalField   nonuniform List<scalar> 
17475
(
243.516
66.1521
66.734
66.7492
66.7489
66.7487
66.7491
66.749
66.7485
66.7475
66.748
66.7493
66.7479
66.748
66.7489
66.7479
66.7479
66.7488
66.7479
66.7475
66.7508
66.7516
66.7442
66.7544
66.7305
66.7922
66.7928
66.7936
66.7942
66.7927
66.7921
66.7919
66.7917
66.7914
66.7911
66.7907
66.7902
66.7889
66.7913
66.8138
66.8486
66.8824
66.9142
66.9439
66.9701
66.9946
67.017
67.0375
67.0559
67.0737
67.0892
67.1042
67.1123
66.9725
79.7654
255.492
38.3533
30.7003
30.0364
29.9559
29.9302
29.9193
29.9123
29.9081
29.9054
29.9038
29.9024
29.9017
29.9015
29.9004
29.8995
29.8986
29.8986
29.8981
29.8981
29.898
29.8981
29.9034
29.8911
29.9116
29.9337
29.9494
29.9505
29.9507
29.9482
29.9469
29.9463
29.9464
29.9466
29.9469
29.9466
29.9459
29.9448
29.9401
29.9461
29.9565
29.9683
29.9812
29.993
30.0046
30.0161
30.0279
30.0399
30.0534
30.0688
30.0906
30.1313
30.3442
32.6819
96.7174
247.536
31.2844
20.3609
18.9953
18.756
18.6892
18.6597
18.6414
18.6295
18.623
18.6181
18.6148
18.6129
18.6117
18.6092
18.6068
18.6042
18.6043
18.6028
18.6023
18.6015
18.605
18.6024
18.6079
18.6128
18.6222
18.6336
18.639
18.6383
18.6371
18.6357
18.6349
18.636
18.6365
18.6377
18.6383
18.6373
18.6373
18.6359
18.6406
18.6427
18.6458
18.6529
18.6591
18.6645
18.6728
18.6834
18.6969
18.7153
18.7402
18.7852
18.9046
19.5882
24.2374
92.8498
245.236
27.9462
15.7333
14.0567
13.6246
13.5157
13.4679
13.437
13.4167
13.4085
13.4
13.3941
13.3894
13.3865
13.3819
13.3793
13.3749
13.3752
13.3717
13.3715
13.3721
13.3719
13.3748
13.3739
13.3805
13.3839
13.3894
13.3973
13.3962
13.3937
13.3954
13.3951
13.3985
13.3967
13.3986
13.402
13.4002
13.4041
13.4041
13.4104
13.4077
13.4087
13.4168
13.4249
13.4304
13.4408
13.4543
13.4702
13.4956
13.5316
13.6042
13.8415
14.8349
20.7766
82.3139
243.664
25.7595
13.1938
11.3076
10.7448
10.5814
10.5123
10.4687
10.4467
10.442
10.4271
10.4195
10.4134
10.411
10.4006
10.4002
10.3945
10.3927
10.389
10.3936
10.393
10.3916
10.3915
10.39
10.4046
10.4013
10.403
10.4114
10.4112
10.4039
10.4099
10.4112
10.4166
10.4105
10.4147
10.423
10.4199
10.4261
10.4286
10.4351
10.4247
10.4344
10.446
10.4519
10.4612
10.4737
10.4909
10.5068
10.5367
10.5868
10.6871
11.0446
12.184
18.4
76.32
242.769
24.3145
11.5667
9.49724
8.88217
8.64129
8.54631
8.49632
8.48171
8.47837
8.45294
8.44255
8.44993
8.45974
8.43131
8.44236
8.44493
8.43765
8.44195
8.45724
8.46007
8.44502
8.4519
8.45839
8.47016
8.46366
8.469
8.47346
8.47286
8.45952
8.46703
8.47443
8.47772
8.46894
8.47615
8.47739
8.46472
8.47441
8.48719
8.49412
8.47992
8.50812
8.53094
8.52019
8.5304
8.5362
8.55544
8.58152
8.61858
8.68182
8.8107
9.23364
10.4566
16.6704
73.4102
242.522
23.3045
10.453
8.19261
7.54166
7.23856
7.10598
7.06188
7.05918
7.03861
7.00139
6.98403
7.00242
7.03583
6.97593
6.99042
6.99365
6.99881
7.02906
7.05951
7.06043
7.03873
7.05793
7.07693
7.06173
7.06621
7.08361
7.10132
7.0991
7.05724
7.06736
7.10106
7.07398
7.06287
7.07989
7.07632
7.07926
7.09376
7.12783
7.11961
7.10973
7.1388
7.1565
7.15405
7.16324
7.14406
7.16106
7.20609
7.262
7.32807
7.46847
7.89048
9.18011
15.4411
71.928
242.308
22.5974
9.65512
7.24143
6.52692
6.19614
6.02914
6.00984
6.00214
6.01212
5.95729
5.90585
5.90236
5.93313
5.88989
5.91133
5.93096
5.96022
5.98918
5.99428
5.99742
6.00595
5.95872
6.01392
5.96384
5.98571
6.03373
6.07733
6.07973
6.02209
6.00043
6.0405
6.02441
6.03042
6.02998
6.00125
6.01639
6.04872
6.09566
6.06542
6.05985
6.10216
6.12336
6.1321
6.11726
6.09553
6.12664
6.16809
6.23637
6.31826
6.46759
6.85116
8.18616
14.5985
71.4483
242.096
22.0752
9.02775
6.51582
5.76031
5.50301
5.31067
5.1189
5.31716
5.30854
5.2282
5.17577
5.1607
5.16153
5.15712
5.18527
5.09349
5.05491
5.09615
5.15651
5.15591
5.12932
5.31996
5.1219
5.10256
5.114
5.21748
5.26323
5.27828
5.24687
5.22884
5.21416
5.21262
5.23736
5.27548
5.15582
5.16757
5.29684
5.30529
5.30593
5.29561
5.29222
5.34128
5.37466
5.36737
5.19295
5.19789
5.40394
5.48267
5.56427
5.73121
6.10634
7.46589
13.9911
70.7467
241.621
21.7655
8.53451
5.90641
5.23797
4.97324
4.77526
4.77733
4.77429
4.75125
4.68375
4.58937
4.58065
4.60084
4.59264
4.59481
4.69872
4.69141
4.71749
4.75338
4.75793
4.78327
4.74911
4.75457
4.69668
4.65752
4.6284
4.66123
4.6746
4.68516
4.67739
4.6526
4.66225
4.68125
4.67374
4.73482
4.76701
4.70729
4.7192
4.72606
4.73165
4.71247
4.73778
4.78462
4.71746
4.76685
4.79357
4.7819
4.8631
4.97535
5.13985
5.52326
6.96027
13.5342
70.0817
241.437
21.4716
8.17929
5.64095
5.07178
4.85456
4.71051
4.70281
4.68203
4.62869
4.56036
4.52778
4.51971
4.49196
4.5044
4.5353
4.59534
4.61438
4.62725
4.63307
4.65339
4.68366
4.6882
4.64369
4.56503
4.53193
4.53333
4.57435
4.5873
4.57736
4.53412
4.51652
4.55371
4.58533
4.58757
4.60988
4.63905
4.63044
4.59876
4.59655
4.6117
4.56975
4.58199
4.61984
4.64108
4.66289
4.69873
4.7226
4.79122
4.91567
5.08075
5.3955
6.67686
13.1973
69.4277
241.592
21.2556
8.0176
5.51813
4.99084
4.80683
4.67093
4.64464
4.6245
4.57134
4.51261
4.49915
4.49314
4.4792
4.48606
4.50515
4.54875
4.56478
4.58656
4.60277
4.61789
4.61698
4.60435
4.56866
4.51686
4.48613
4.48284
4.49194
4.49033
4.49035
4.478
4.48343
4.51119
4.53574
4.54294
4.56472
4.59825
4.59807
4.57248
4.55879
4.57337
4.55336
4.56013
4.59109
4.60131
4.62749
4.66646
4.68898
4.76129
4.89024
5.05039
5.33084
6.52284
12.9402
68.7799
241.583
21.0703
7.92026
5.42852
4.9178
4.76202
4.63464
4.59276
4.57652
4.52696
4.479
4.4806
4.4762
4.47922
4.48513
4.48608
4.51731
4.5417
4.56725
4.58131
4.58958
4.57319
4.55022
4.52529
4.48804
4.45708
4.435
4.41344
4.40287
4.42033
4.42977
4.45271
4.47464
4.49596
4.51815
4.54122
4.573
4.57147
4.53686
4.52003
4.53123
4.52498
4.53448
4.55526
4.56912
4.59869
4.6383
4.6598
4.72843
4.85626
5.01218
5.24357
6.43041
12.7271
68.1335
241.737
20.936
7.82431
5.36981
4.87006
4.73502
4.61251
4.55346
4.54079
4.50759
4.47928
4.4834
4.48629
4.50396
4.50763
4.49301
4.51787
4.55521
4.57786
4.58293
4.58166
4.55988
4.53509
4.52075
4.50526
4.4758
4.44001
4.39692
4.3757
4.40336
4.4343
4.46759
4.48175
4.5025
4.53357
4.55859
4.58087
4.57477
4.52854
4.50123
4.51633
4.52092
4.53153
4.54156
4.55972
4.58876
4.62265
4.64524
4.70129
4.82097
4.96998
5.18138
6.32512
12.5875
67.9326
241.855
20.8226
7.75516
5.33925
4.84276
4.71229
4.59609
4.52841
4.51075
4.50093
4.50198
4.50407
4.51374
4.53638
4.53786
4.5267
4.55148
4.59757
4.6156
4.61318
4.60807
4.59155
4.58266
4.58865
4.58898
4.58074
4.50842
4.4454
4.43573
4.48161
4.53818
4.58558
4.55772
4.56492
4.58929
4.61161
4.62467
4.60943
4.55014
4.51315
4.52939
4.52928
4.52183
4.53521
4.56549
4.59263
4.61631
4.63711
4.67902
4.78409
4.92028
5.12529
6.24266
12.4737
67.8544
241.707
20.7458
7.69883
5.32431
4.83604
4.69711
4.58569
4.51547
4.49631
4.50802
4.53344
4.53858
4.5477
4.56442
4.5677
4.58133
4.60836
4.65254
4.67394
4.6771
4.68507
4.73564
4.75028
4.77504
4.7886
4.78959
4.70382
4.69351
4.68072
4.7008
4.7727
4.77044
4.74234
4.72435
4.71612
4.69633
4.68152
4.66448
4.61024
4.57053
4.57737
4.56504
4.52218
4.54438
4.58315
4.60545
4.61643
4.62941
4.66194
4.74895
4.87232
5.0816
6.19556
12.4004
67.8355
241.711
20.6949
7.65417
5.31709
4.84299
4.69515
4.58358
4.5111
4.50315
4.5311
4.56387
4.57327
4.57772
4.58998
4.60455
4.64277
4.66746
4.70464
4.73486
4.76834
4.83876
4.94179
5.07176
5.20641
5.26977
6.21796
11.4399
17.1812
17.2669
7.82121
5.20517
5.15349
5.12769
5.05251
4.96653
4.82997
4.75138
4.72476
4.68277
4.65347
4.65453
4.63112
4.56732
4.58222
4.6142
4.62485
4.62425
4.62772
4.65061
4.72502
4.84197
5.061
6.17196
12.3386
67.812
259.767
20.8432
7.67153
5.32108
4.85102
4.70071
4.58836
4.51835
4.52278
4.56214
4.58999
4.59982
4.59913
4.61552
4.65198
4.71036
4.72271
4.75743
4.81279
4.93076
5.08607
5.24747
5.47351
6.23813
19.9047
117.44
1478.31
838.316
50.5341
5.43209
5.75299
5.42
5.20353
5.00371
4.85503
4.79122
4.75454
4.73627
4.7361
4.7098
4.6442
4.62984
4.64476
4.64112
4.63626
4.63256
4.64369
4.71525
4.83699
5.06409
6.15931
12.3016
67.8292
387.543
24.4796
7.8871
5.38278
4.95284
4.8043
4.69896
4.6366
4.64215
4.68992
4.71625
4.71959
4.72243
4.76711
4.83716
4.89322
4.89434
4.93272
5.02336
5.21525
5.43535
5.62343
6.63789
14.7194
68.5519
1810.94
31.2975
8.31869
5.94561
5.52079
5.24576
5.03408
4.9587
4.92898
4.90506
4.9117
4.87628
4.81546
4.77409
4.75721
4.73968
4.73914
4.73906
4.73951
4.8138
4.94231
5.16605
6.16069
12.2387
67.5882
398.146
22.1877
7.97208
5.71338
5.43149
5.27458
5.2116
5.16203
5.13941
5.18438
5.2039
5.18241
5.24614
5.3414
5.46396
5.54333
5.53168
5.54842
5.63853
5.87335
6.17335
6.58657
9.05115
22.2645
95.1131
44.8484
12.554
7.14881
6.33226
5.96205
5.76419
5.62053
5.54945
5.52698
5.54055
5.4649
5.37608
5.29622
5.20065
5.1621
5.1607
5.22842
5.25529
5.27212
5.3878
5.62634
6.52442
12.0449
66.6802
263.826
21.4942
7.85831
5.77388
5.5212
5.38203
5.28699
5.24051
5.22972
5.27092
5.32509
5.31648
5.3351
5.42063
5.52711
5.64738
5.69098
5.68808
5.79668
6.01499
6.31938
6.85695
9.5305
20.2693
36.5922
190.438
77.7745
29.442
13.1122
7.56834
6.52031
6.07765
5.88969
5.81843
5.66784
5.6235
5.61276
5.57727
5.48732
5.36035
5.24898
5.19278
5.22295
5.30899
5.33658
5.33552
5.44237
5.69623
6.55322
12.1431
67.5027
242.987
20.8983
7.91187
5.85349
5.55454
5.44251
5.38303
5.35517
5.32343
5.32653
5.35764
5.33742
5.38729
5.48022
5.59997
5.71371
5.73561
5.75333
5.87878
6.05352
6.35794
6.95441
9.21049
16.1025
18.5114
15.5075
22.849
26.3764
27.7986
17.3705
16.396
19.6123
11.7888
7.55267
6.53411
6.13035
5.9207
5.80249
5.68596
5.65038
5.64151
5.55334
5.45967
5.39373
5.29618
5.2554
5.26424
5.32864
5.35247
5.35824
5.47431
5.72193
6.56175
12.2366
67.8843
241.563
20.7223
7.9675
5.98574
5.7015
5.55495
5.49217
5.44539
5.38939
5.37698
5.43764
5.42448
5.45192
5.55653
5.72574
5.80879
5.85178
5.84207
5.965
6.11746
6.37123
6.90779
8.91149
12.7218
12.724
7.46666
5.10324
4.42681
4.69138
6.09406
10.4871
14.1107
10.0901
7.45092
6.49926
6.15198
5.97503
5.84791
5.76751
5.71831
5.68735
5.64096
5.53381
5.43705
5.32821
5.30291
5.3059
5.3567
5.40571
5.41817
5.51514
5.73888
6.60114
12.3258
67.9024
241.662
20.7114
8.03763
6.14394
5.82869
5.64758
5.60599
5.5636
5.49606
5.54053
5.55436
5.57117
5.56258
5.60939
5.73296
5.83552
5.98592
5.91359
6.34867
6.11003
6.34522
6.81751
8.37503
10.4391
10.4362
6.74624
4.828
4.00959
4.42406
5.81599
9.25731
10.9483
8.73856
7.01733
6.44
6.47036
6.0748
5.90065
5.91241
5.83827
5.80263
6.01035
5.56707
5.52672
5.39486
5.38333
5.45656
5.45479
5.51138
5.5293
5.60626
5.7933
6.66073
12.3985
67.8233
241.501
20.7053
8.03957
6.24256
5.73727
5.65671
5.86038
5.89524
5.7769
5.7696
5.83386
5.85392
5.87054
5.90046
5.85387
6.08567
5.86856
6.08058
6.03196
6.31221
6.59548
6.64579
7.66865
8.81392
9.06706
7.02085
5.15491
4.12279
4.74986
6.27658
8.60905
9.0062
7.71006
6.71866
6.45262
6.00558
6.08062
5.92218
5.93093
5.82225
6.01978
5.61544
5.64683
5.49115
5.69394
5.37895
5.47655
5.76713
5.7261
5.53401
5.62597
5.83112
6.68207
12.4074
67.7822
241.508
20.7042
8.07438
6.28916
5.84453
5.74545
5.63212
5.42343
5.46094
5.62834
5.67739
5.60768
5.76817
5.80404
5.74571
5.63834
5.78411
5.64735
5.76299
5.99694
6.17072
6.4242
6.96713
7.59785
7.9092
7.1519
5.41374
4.20175
4.98469
6.55744
7.79279
7.70831
7.11267
6.59635
6.22445
6.06022
6.05775
5.9945
5.79481
5.93144
5.73687
5.40011
5.36767
5.2872
5.3809
5.55575
5.56564
5.47268
5.34283
5.52113
5.58077
5.9666
6.76574
12.4476
68.0933
241.571
20.6864
7.89273
5.89213
5.60486
5.37053
5.38356
5.13935
5.11578
5.13998
5.1753
5.16713
5.20534
5.29486
5.3332
5.40733
5.39341
5.457
5.50845
5.54052
5.74006
5.82495
6.19857
6.64241
6.95663
6.76278
5.54766
4.25936
5.12906
6.46047
6.91985
6.77437
6.39423
6.22976
5.99448
5.65403
5.51238
5.5045
5.45104
5.42668
5.36971
5.28705
5.18346
5.10708
5.02852
5.10859
5.30073
5.10642
5.15015
5.22511
5.42704
5.57043
6.60081
12.4441
68.5636
241.083
20.6597
7.77034
5.53587
5.12594
5.01716
4.91621
4.95737
4.93993
4.87457
4.90843
4.99006
4.98342
5.04624
5.05253
5.2654
5.2563
5.29534
5.36916
5.38602
5.44433
5.48321
5.53905
5.89101
6.06187
6.14302
5.43491
4.26739
5.11052
6.08317
6.21797
5.97449
5.60876
5.73307
5.68235
5.49477
5.49423
5.48249
5.1895
5.25059
5.18116
5.16907
5.14185
5.05971
4.9566
4.88496
4.88394
4.92885
5.00609
5.00609
5.19246
5.28752
6.29071
12.4263
68.9924
241.096
20.6422
7.73751
5.45446
5.00742
4.87262
4.86075
4.84759
4.84558
4.82197
4.83865
4.91743
4.94604
4.96292
4.97248
5.12536
5.19284
5.19435
5.23374
5.26672
5.2928
5.36515
5.35428
5.36777
5.54686
5.66769
5.26847
4.23283
4.93698
5.63238
5.67468
5.42983
5.36364
5.23749
5.19059
5.1517
5.14421
5.10174
5.12684
5.08722
5.10079
5.089
5.05995
4.98694
4.9005
4.83439
4.83499
4.90813
4.90489
4.96034
5.05826
5.19901
6.19712
12.4221
69.3799
241.018
20.6184
7.69582
5.43113
4.98867
4.86243
4.80336
4.76869
4.76745
4.76274
4.78634
4.84466
4.88349
4.8899
4.90263
4.96626
5.02778
5.0489
5.08513
5.13416
5.18205
5.24068
5.24753
5.24039
5.29608
5.27548
4.98171
4.17946
4.75018
5.24968
5.26583
5.27506
5.24739
5.14135
5.04677
4.98719
5.04097
5.01466
4.98631
4.97392
4.95418
4.97022
4.9653
4.90994
4.8426
4.79981
4.80703
4.85186
4.86297
4.90136
4.99694
5.12858
6.18835
12.4271
69.7003
241.127
20.581
7.66445
5.39758
4.95356
4.82285
4.76516
4.72996
4.72732
4.71625
4.74542
4.80032
4.83068
4.83407
4.84813
4.87671
4.92025
4.94989
4.99245
5.06109
5.09898
5.13968
5.14144
5.09064
5.07171
5.04714
4.81157
4.12373
4.56684
5.03362
5.0953
5.12868
5.12912
5.04216
4.94441
4.90489
4.89754
4.90535
4.8986
4.88301
4.8583
4.8683
4.87663
4.85163
4.8034
4.77624
4.78506
4.81744
4.8248
4.86412
4.93569
5.06935
6.16072
12.426
69.9826
240.898
20.5404
7.63738
5.37492
4.92778
4.80077
4.74336
4.71448
4.70897
4.69152
4.73289
4.78861
4.7981
4.79673
4.807
4.81265
4.84411
4.87996
4.92837
4.99043
5.01558
5.04742
5.03483
4.95043
4.9166
4.89924
4.66743
4.08307
4.42307
4.85673
4.92669
4.97945
5.04071
4.97889
4.89089
4.85432
4.82337
4.84033
4.84584
4.82568
4.79883
4.79199
4.80341
4.81356
4.79357
4.77369
4.7752
4.79308
4.79756
4.82848
4.88707
5.02446
6.13607
12.419
70.2141
240.776
20.496
7.60487
5.35183
4.9018
4.77755
4.72512
4.70939
4.70019
4.68201
4.73234
4.78795
4.77686
4.76631
4.7652
4.75386
4.78036
4.82299
4.86014
4.89538
4.92414
4.94734
4.90441
4.82581
4.81004
4.77991
4.56097
4.06081
4.32005
4.70031
4.79501
4.87177
4.9387
4.90383
4.85206
4.8306
4.79326
4.79949
4.80778
4.78219
4.75499
4.7491
4.76223
4.79578
4.79975
4.78125
4.76678
4.76285
4.77316
4.80627
4.85483
4.99504
6.11755
12.4063
70.4186
240.614
20.4479
7.57435
5.31826
4.87092
4.74789
4.70611
4.70748
4.69996
4.68169
4.72025
4.76613
4.75361
4.73633
4.72049
4.70393
4.72808
4.76622
4.79037
4.81398
4.84306
4.84539
4.78225
4.74628
4.73427
4.69526
4.48791
4.05825
4.25096
4.58272
4.69333
4.78879
4.84321
4.82661
4.80516
4.79836
4.77154
4.76516
4.76538
4.74344
4.72494
4.72756
4.7464
4.78594
4.80202
4.78028
4.75006
4.72652
4.74855
4.78705
4.83307
4.97107
6.09838
12.3889
70.5927
240.35
20.4055
7.54329
5.27858
4.83447
4.71504
4.67891
4.69046
4.69179
4.67492
4.69112
4.72079
4.71702
4.7103
4.68709
4.6669
4.68896
4.72432
4.73886
4.75963
4.7824
4.76118
4.69987
4.69219
4.68177
4.63115
4.43315
4.07102
4.21356
4.49234
4.61229
4.71558
4.76643
4.75625
4.75104
4.76004
4.74685
4.7341
4.72014
4.7021
4.69156
4.71118
4.73882
4.77127
4.78981
4.7659
4.72208
4.69686
4.72276
4.76981
4.81599
4.9492
6.07491
12.3679
70.7442
240.394
20.3649
7.51205
5.24207
4.79867
4.67843
4.64307
4.64501
4.65882
4.65098
4.65527
4.66918
4.67006
4.69062
4.67013
4.64556
4.66864
4.69978
4.70915
4.72096
4.7298
4.69787
4.65863
4.65573
4.63557
4.57732
4.39571
4.09087
4.1975
4.43177
4.54551
4.6498
4.70616
4.70418
4.70333
4.72259
4.7171
4.70593
4.69065
4.67116
4.65531
4.68819
4.72817
4.75127
4.76916
4.74874
4.69738
4.6812
4.70148
4.75235
4.80274
4.93201
6.05226
12.3462
70.8836
240.555
20.3216
7.48388
5.21961
4.77519
4.65267
4.61546
4.59572
4.61447
4.62332
4.62826
4.62674
4.62671
4.66917
4.66081
4.63537
4.65875
4.67964
4.6775
4.68298
4.68224
4.65391
4.63767
4.62498
4.5848
4.52733
4.36899
4.11664
4.20036
4.40054
4.49873
4.59676
4.66748
4.67235
4.67229
4.68815
4.68105
4.67852
4.67298
4.65552
4.63371
4.66417
4.71394
4.72946
4.74422
4.72948
4.6853
4.67327
4.68563
4.73308
4.78816
4.91608
6.03321
12.3246
70.9991
240.58
20.2813
7.46153
5.21718
4.77341
4.65277
4.60516
4.57159
4.57756
4.60329
4.61542
4.60498
4.59662
4.63458
4.64365
4.61755
4.63802
4.646
4.63336
4.64075
4.64129
4.62942
4.62118
4.595
4.53849
4.48677
4.35236
4.148
4.21678
4.38756
4.47182
4.56242
4.64009
4.6505
4.66227
4.66729
4.64674
4.64882
4.65673
4.64488
4.62243
4.641
4.69096
4.70367
4.71167
4.70673
4.67805
4.66681
4.6723
4.71441
4.76554
4.8948
6.01534
12.3038
71.118
240.491
20.2435
7.44672
5.22534
4.78554
4.67015
4.60756
4.56053
4.55272
4.59083
4.61733
4.61041
4.58111
4.58697
4.59628
4.58555
4.60431
4.60446
4.58974
4.5998
4.60741
4.6134
4.60732
4.56485
4.50242
4.45667
4.34691
4.18617
4.24298
4.3847
4.46112
4.54432
4.61149
4.62658
4.66152
4.66689
4.62518
4.62725
4.64749
4.6394
4.61461
4.62206
4.66366
4.6721
4.67251
4.68209
4.67022
4.66045
4.664
4.69716
4.73739
4.87076
5.99555
12.284
71.2141
240.416
20.2131
7.437
5.23384
4.79571
4.68779
4.61008
4.54477
4.53104
4.58177
4.62916
4.63084
4.56827
4.53708
4.53284
4.54789
4.5749
4.57619
4.56543
4.57809
4.59291
4.61535
4.61472
4.53834
4.47701
4.43952
4.35129
4.22773
4.27171
4.38528
4.45748
4.53446
4.5853
4.60326
4.65393
4.66634
4.61125
4.61458
4.64662
4.63853
4.60954
4.61042
4.64358
4.64486
4.63501
4.65411
4.65985
4.65298
4.65964
4.6799
4.71047
4.84854
5.97198
12.2453
71.0828
240.32
20.1839
7.42618
5.23528
4.79486
4.68695
4.59622
4.52047
4.50354
4.5621
4.61346
4.61767
4.54766
4.49003
4.4795
4.51841
4.56275
4.5692
4.56235
4.57752
4.59458
4.61997
4.61697
4.52513
4.46321
4.43041
4.3554
4.26707
4.30199
4.39057
4.45888
4.52814
4.56465
4.58688
4.64269
4.65026
4.59822
4.60218
4.64198
4.6331
4.60089
4.60266
4.63128
4.62574
4.60787
4.62854
4.64562
4.6465
4.6566
4.67049
4.68951
4.83028
5.95374
12.2033
70.7918
239.814
20.1565
7.41081
5.23158
4.79033
4.66651
4.57286
4.49227
4.47041
4.51442
4.56978
4.577
4.51893
4.45269
4.44336
4.50316
4.57327
4.58155
4.57186
4.58593
4.59853
4.62802
4.62631
4.52303
4.45601
4.42442
4.35683
4.29697
4.32577
4.40239
4.47113
4.52887
4.55516
4.58085
4.63119
4.62627
4.59031
4.58844
4.62344
4.61513
4.58501
4.59606
4.62304
4.6108
4.58895
4.6057
4.62983
4.64122
4.65529
4.67013
4.68048
4.82103
5.94487
12.1655
70.499
239.616
20.1339
7.39367
5.22633
4.79176
4.65065
4.55667
4.46875
4.43833
4.45137
4.51473
4.531
4.48568
4.4301
4.42389
4.49694
4.5888
4.59634
4.57793
4.58354
4.59468
4.60978
4.59669
4.51739
4.45245
4.42312
4.35973
4.3187
4.34443
4.41994
4.49511
4.54825
4.56819
4.58857
4.61916
4.6092
4.5879
4.58147
4.60065
4.59158
4.56846
4.58908
4.61612
4.59752
4.57004
4.58534
4.61406
4.62967
4.65019
4.66613
4.68322
4.82494
5.93753
12.1292
70.2103
239.945
20.1157
7.37508
5.2137
4.79033
4.65029
4.55215
4.4583
4.41591
4.40553
4.45674
4.4826
4.45961
4.41904
4.42094
4.48893
4.58113
4.58888
4.57296
4.57614
4.58056
4.5803
4.55524
4.49641
4.45429
4.42653
4.36535
4.33508
4.36132
4.43708
4.51747
4.56845
4.58579
4.60636
4.60666
4.58689
4.58096
4.57901
4.5894
4.58004
4.56267
4.58551
4.60844
4.58577
4.55786
4.57521
4.60031
4.61259
4.63741
4.65362
4.6866
4.83448
5.92555
12.095
69.9131
240.118
20.0975
7.35779
5.19429
4.77411
4.64844
4.55668
4.46698
4.41094
4.38545
4.41582
4.44895
4.45444
4.42762
4.43291
4.48019
4.54225
4.5556
4.559
4.57357
4.56098
4.53443
4.49669
4.46613
4.45218
4.42546
4.37013
4.3489
4.3792
4.4471
4.52985
4.58622
4.60248
4.61379
4.59423
4.57151
4.57103
4.57683
4.59343
4.58925
4.57625
4.59111
4.59833
4.57357
4.55748
4.57933
4.59657
4.59962
4.62317
4.6396
4.68309
4.84157
5.91374
12.0617
69.6175
240.113
20.0817
7.33978
5.17231
4.74163
4.6304
4.55751
4.48344
4.42569
4.38756
4.39851
4.43421
4.45923
4.44324
4.45379
4.47705
4.50001
4.51625
4.53804
4.56793
4.54317
4.49311
4.44218
4.4353
4.43999
4.41543
4.37283
4.36326
4.39468
4.45068
4.52901
4.58598
4.59902
4.6034
4.58576
4.56829
4.56788
4.58656
4.60655
4.60622
4.5997
4.60028
4.58063
4.55355
4.55739
4.58986
4.59736
4.58963
4.61043
4.63
4.67823
4.84576
5.90813
12.0319
69.331
240.017
20.0665
7.31356
5.13138
4.69446
4.59589
4.53584
4.48925
4.44613
4.40223
4.40074
4.43079
4.44977
4.4563
4.47508
4.48243
4.47789
4.48352
4.51137
4.55178
4.5287
4.46289
4.40399
4.41061
4.42234
4.39889
4.36851
4.37571
4.40395
4.45159
4.52189
4.56597
4.57222
4.57417
4.57594
4.56577
4.56844
4.60627
4.62234
4.61891
4.61452
4.59712
4.5513
4.5221
4.54406
4.59132
4.59103
4.57374
4.588
4.62152
4.68071
4.85086
5.90586
12.0047
69.0311
239.66
20.0516
7.28208
5.07663
4.65112
4.55631
4.49857
4.484
4.46066
4.41776
4.40986
4.4301
4.44288
4.47092
4.49678
4.49576
4.4702
4.46214
4.48448
4.52693
4.51201
4.44286
4.38367
4.3927
4.40641
4.38304
4.35678
4.37767
4.40686
4.44614
4.5089
4.53946
4.53967
4.54152
4.56717
4.56915
4.56968
4.61078
4.61978
4.61044
4.61472
4.582
4.51673
4.48753
4.52114
4.57886
4.57408
4.54521
4.55286
4.60435
4.68623
4.85434
5.89996
11.9772
68.7312
239.848
20.0401
7.25618
5.0436
4.62756
4.52878
4.47291
4.47787
4.4675
4.43266
4.41968
4.42894
4.4519
4.48589
4.51997
4.51517
4.47784
4.45864
4.46767
4.50396
4.49967
4.43396
4.3743
4.38195
4.3945
4.37078
4.34346
4.36619
4.39822
4.43018
4.48158
4.51266
4.51533
4.52138
4.55908
4.57069
4.56328
4.59482
4.60689
4.59743
4.59167
4.54963
4.49511
4.47152
4.50781
4.56164
4.54682
4.50452
4.51164
4.57788
4.68139
4.85117
5.89178
11.9525
68.4424
239.764
20.0275
7.23955
5.03471
4.62438
4.52449
4.47208
4.47733
4.46847
4.44508
4.42881
4.43299
4.4585
4.49786
4.5339
4.5306
4.49643
4.46725
4.46717
4.4998
4.49943
4.43835
4.37744
4.37916
4.38136
4.35828
4.33544
4.35216
4.3779
4.40837
4.45113
4.48553
4.49295
4.50927
4.54937
4.5691
4.54921
4.56534
4.5918
4.58725
4.56692
4.52401
4.48451
4.47077
4.50134
4.55027
4.52378
4.46839
4.47866
4.55398
4.66486
4.84381
5.88945
11.9282
68.1477
239.625
20.0185
7.23255
5.04305
4.64585
4.54877
4.48953
4.48102
4.46653
4.44958
4.43367
4.44084
4.46506
4.49905
4.53108
4.53426
4.50435
4.47025
4.47073
4.50233
4.49729
4.44934
4.39319
4.37991
4.36427
4.34625
4.33582
4.3486
4.36327
4.39181
4.43118
4.45945
4.46375
4.49407
4.54251
4.56547
4.53409
4.53376
4.5695
4.57573
4.55589
4.51712
4.48907
4.48339
4.50275
4.53746
4.50901
4.45999
4.47181
4.54366
4.64343
4.83672
5.89106
11.9051
67.8569
239.702
20.0145
7.23505
5.06615
4.68145
4.58539
4.51321
4.48446
4.46455
4.44513
4.43368
4.4484
4.46842
4.49243
4.52039
4.52854
4.49244
4.45623
4.46117
4.48451
4.47855
4.45278
4.40989
4.3796
4.35225
4.33973
4.34188
4.35591
4.37551
4.3927
4.41955
4.43619
4.43014
4.46967
4.53404
4.55795
4.52193
4.50835
4.53934
4.55667
4.55433
4.52995
4.50567
4.50144
4.50652
4.51618
4.49343
4.46222
4.48441
4.5494
4.63123
4.83129
5.88554
11.8808
67.5712
239.631
20.0081
7.24102
5.08123
4.70791
4.61265
4.53442
4.48738
4.46092
4.43897
4.43361
4.45165
4.47008
4.4844
4.50837
4.51492
4.46813
4.43413
4.44216
4.45144
4.45075
4.44647
4.41916
4.38218
4.35735
4.34511
4.34779
4.36809
4.40638
4.40932
4.41416
4.41648
4.40019
4.43362
4.50896
4.54069
4.51049
4.49113
4.50902
4.53057
4.5435
4.53909
4.51855
4.51577
4.50846
4.49195
4.46541
4.45733
4.49889
4.55677
4.63137
4.82949
5.88042
11.8891
67.2963
239.638
20.0077
7.24352
5.08195
4.7127
4.62505
4.54642
4.4881
4.45324
4.43637
4.43408
4.44938
4.4668
4.47537
4.49318
4.49311
4.43976
4.41425
4.42556
4.42521
4.43187
4.44326
4.42964
4.39484
4.38
4.36563
4.35239
4.37494
4.42133
4.4206
4.41553
4.40256
4.3774
4.39301
4.46205
4.50713
4.49219
4.4767
4.48611
4.50099
4.51447
4.51962
4.51776
4.52437
4.51132
4.48326
4.44471
4.44838
4.50334
4.55637
4.63645
4.82584
5.86672
11.8836
67.3936
239.418
19.9975
7.24305
5.081
4.71167
4.62882
4.54658
4.48079
4.44372
4.43587
4.43122
4.44463
4.46073
4.46344
4.47447
4.46603
4.41282
4.39905
4.41224
4.41442
4.43046
4.45107
4.44573
4.41492
4.40611
4.3941
4.36173
4.37274
4.40099
4.41257
4.41547
4.39435
4.3616
4.35925
4.4128
4.46459
4.46407
4.45944
4.46827
4.47166
4.48196
4.48688
4.51716
4.53448
4.51597
4.49801
4.45498
4.44728
4.49644
4.55371
4.64545
4.82595
5.86176
11.879
67.3871
239.238
19.9955
7.24256
5.08764
4.72097
4.62924
4.5355
4.46792
4.43796
4.43577
4.42684
4.44443
4.45924
4.45023
4.45257
4.43799
4.39306
4.38704
4.39508
4.40382
4.43119
4.45495
4.45679
4.42889
4.42076
4.41585
4.37812
4.36996
4.3685
4.39394
4.40603
4.3867
4.35097
4.3371
4.38532
4.43623
4.4422
4.44295
4.45028
4.44492
4.45753
4.47315
4.53493
4.55864
4.52445
4.51529
4.48033
4.45018
4.48447
4.56081
4.67239
4.84822
5.86967
11.8781
67.3869
239.542
19.9959
7.24719
5.09967
4.72956
4.62202
4.51828
4.45755
4.43999
4.43444
4.42535
4.44953
4.46563
4.44183
4.43198
4.41396
4.38216
4.37731
4.37131
4.37934
4.41475
4.44157
4.45423
4.42994
4.42554
4.42689
4.39675
4.37449
4.35164
4.37459
4.39397
4.38261
4.34742
4.33502
4.40526
4.45176
4.44365
4.43944
4.43606
4.42478
4.43942
4.47299
4.57092
4.59402
4.54
4.5307
4.50113
4.45501
4.47462
4.57595
4.7236
4.89976
5.89165
11.8816
67.3869
239.54
19.9894
7.25366
5.11235
4.7216
4.60709
4.50243
4.45364
4.44762
4.4304
4.42478
4.45134
4.47442
4.44253
4.41825
4.39901
4.37734
4.3689
4.34506
4.34676
4.38382
4.41702
4.44408
4.42812
4.43032
4.43591
4.42104
4.60982
4.35405
4.36159
4.39112
4.39112
4.35826
4.35446
4.4239
4.46547
4.47167
4.45776
4.42731
4.41361
4.42863
4.47091
4.56872
4.60194
4.54892
4.5437
4.51523
4.46557
4.47186
4.58449
4.77123
4.96416
5.9224
11.8853
67.3874
239.579
19.9881
7.25357
5.11614
4.70541
4.61856
4.50158
4.45469
4.44925
4.42438
4.42021
4.44633
4.47854
4.44467
4.41305
4.39555
4.37443
4.36082
4.32384
4.31862
4.35183
4.39022
4.4376
4.43554
4.43656
4.4453
4.44143
4.3614
4.36478
4.35974
4.39641
4.40591
4.37945
4.37434
4.44701
4.47173
4.4492
4.4371
4.40681
4.4013
4.42248
4.45706
4.51995
4.46278
4.51121
4.50534
4.56854
4.46657
4.46354
4.55879
4.87651
4.99593
5.96018
11.8995
67.3874
239.716
19.9817
7.24333
5.10335
4.68356
4.64959
4.51511
4.45713
4.43683
4.41514
4.41392
4.43683
4.46917
4.43945
4.41532
4.40163
4.3769
4.35555
4.31414
4.30086
4.3285
4.37032
4.43524
4.45034
4.44659
4.45351
4.45757
4.41986
4.38048
4.3662
4.39893
4.40939
4.39361
4.37373
4.42577
4.4211
4.36396
4.35823
4.35283
4.37427
4.41076
4.42663
4.44676
4.35476
4.41989
4.41726
4.35705
4.43175
4.43686
4.49432
4.59994
5.06399
5.92306
11.8863
67.3871
239.723
19.9774
7.22593
5.07825
4.65736
4.59546
4.52823
4.45729
4.41697
4.40238
4.40781
4.42037
4.44008
4.42876
4.42016
4.41266
4.39077
4.35621
4.31141
4.29216
4.31676
4.36616
4.43541
4.46842
4.46667
4.46841
4.46588
4.44447
4.38142
4.37501
4.39501
4.39388
4.38455
4.34726
4.34707
4.32968
4.28456
4.2734
4.28297
4.33349
4.38814
4.38986
4.38606
4.34006
4.32649
4.31499
4.25693
4.37585
4.39866
4.42611
4.53359
4.72944
5.8288
11.8415
67.3883
239.677
19.9724
7.21348
5.0741
4.64174
4.54923
4.52721
4.45096
4.40248
4.39186
4.39654
4.39549
4.40335
4.41624
4.42417
4.42432
4.40892
4.36309
4.31122
4.29471
4.31793
4.38043
4.44754
4.49012
4.49385
4.49763
4.49646
4.43341
4.39129
4.38843
4.3893
4.36948
4.3521
4.3014
4.26671
4.24661
4.21382
4.20487
4.2228
4.2892
4.36121
4.35771
4.34582
4.29232
4.25504
4.23645
4.24517
4.31871
4.36285
4.37363
4.44102
4.64791
5.73462
11.8284
67.3876
239.671
19.9706
7.20297
5.08098
4.62861
4.55121
4.50516
4.43983
4.40003
4.39118
4.37932
4.36942
4.3756
4.40083
4.42731
4.43426
4.41704
4.37433
4.32662
4.31286
4.33337
4.40408
4.47245
4.50965
4.52949
4.54984
4.55377
4.46631
4.40443
4.39512
4.37705
4.34613
4.31703
4.25512
4.20142
4.17796
4.15692
4.15304
4.17413
4.25271
4.33801
4.3365
4.32313
4.25478
4.20032
4.17953
4.20047
4.27278
4.33721
4.3361
4.37355
4.55889
5.67193
11.8171
67.3867
239.662
19.9624
7.18706
5.02358
4.62615
4.52299
4.47596
4.42868
4.40619
4.39281
4.36284
4.35281
4.36066
4.38648
4.42705
4.44114
4.41694
4.38934
4.36149
4.34211
4.35481
4.42271
4.50682
4.53986
4.59442
4.63931
4.60678
4.4842
4.41232
4.37862
4.34255
4.3167
4.29507
4.22228
4.15979
4.13279
4.12055
4.12049
4.14548
4.22928
4.32155
4.32508
4.31228
4.23064
4.1615
4.14173
4.16615
4.24349
4.31965
4.312
4.33157
4.50491
5.63338
11.8101
67.3867
239.631
19.9593
7.17647
4.99411
4.63073
4.51095
4.448
4.42089
4.4073
4.383
4.34812
4.34841
4.36203
4.38245
4.42359
4.44658
4.42626
4.41075
4.39492
4.36677
4.37046
4.42904
4.52387
4.56253
4.59862
4.61859
4.56088
4.47318
4.38568
4.3221
4.28297
4.2792
4.28233
4.20554
4.13619
4.10884
4.10131
4.10356
4.13106
4.21648
4.31133
4.31832
4.3066
4.2163
4.14031
4.12014
4.14543
4.22583
4.30838
4.29829
4.30786
4.47599
5.61418
11.8058
67.3885
239.603
19.952
7.16626
5.01176
4.62307
4.49504
4.43311
4.41382
4.39847
4.36247
4.33244
4.35139
4.38232
4.39816
4.42573
4.45647
4.45186
4.43339
4.41229
4.37687
4.37154
4.42532
4.56265
4.57116
4.51462
4.5752
4.41893
4.39739
4.29809
4.23312
4.21948
4.24519
4.27387
4.19919
4.12499
4.09694
4.09077
4.0942
4.12379
4.20898
4.30488
4.31392
4.30225
4.20848
4.12903
4.10749
4.13353
4.2165
4.30141
4.29061
4.29551
4.46174
5.60453
11.8039
67.3875
239.582
19.9505
7.17243
5.01362
4.61199
4.48115
4.42627
4.40623
4.38493
4.3417
4.31764
4.35627
4.41566
4.43331
4.43696
4.46707
4.46945
4.4384
4.41422
4.37434
4.35853
4.4021
4.4153
4.52287
4.47063
4.47375
4.31707
4.29408
4.21128
4.16876
4.17119
4.22107
4.26839
4.19558
4.11872
4.08996
4.08401
4.08841
4.11862
4.20422
4.30066
4.31059
4.29914
4.20367
4.12232
4.09971
4.12615
4.21075
4.29684
4.28557
4.28877
4.4538
5.59913
11.8034
67.3873
239.572
19.951
7.1879
5.03608
4.60747
4.46723
4.42438
4.40298
4.37375
4.33128
4.31072
4.35851
4.43772
4.46003
4.44591
4.46693
4.45304
4.42138
4.40969
4.36779
4.33824
4.36063
4.33158
4.43284
4.42117
4.31399
4.25851
4.1991
4.15027
4.12716
4.14194
4.20716
4.2641
4.1927
4.11425
4.08504
4.07948
4.08426
4.11477
4.20068
4.2976
4.30798
4.29669
4.20014
4.11746
4.09439