/*--------------------------------*- C++ -*----------------------------------*\
  =========                 |
  \\      /  F ield         | OpenFOAM: The Open Source CFD Toolbox
   \\    /   O peration     | Website:  https://openfoam.org
    \\  /    A nd           | Version:  7
     \\/     M anipulation  |
\*---------------------------------------------------------------------------*/
FoamFile
{
    version     2.0;
    format      ascii;
    class       volScalarField;
    location    "10";
    object      p;
}
// * * * * * * * * * * * * * * * * * * * * * * * * * * * * * * * * * * * * * //

dimensions      [0 2 -2 0 0 0 0];

internalField   nonuniform List<scalar> 
17475
(
0.721938
0.416469
0.333038
0.296384
0.274182
0.259194
0.24853
0.240723
0.234931
0.230628
0.227468
0.225208
0.223672
0.222725
0.222258
0.222181
0.222416
0.222892
0.223547
0.224319
0.225153
0.225997
0.226803
0.227525
0.228128
0.22858
0.228856
0.22894
0.228827
0.228518
0.228027
0.227375
0.22659
0.225711
0.224779
0.223843
0.222956
0.222176
0.221562
0.22118
0.221103
0.221409
0.22219
0.223551
0.225626
0.228584
0.232653
0.23815
0.245535
0.255501
0.269148
0.288287
0.315668
0.357059
0.381118
0.312523
0.330613
0.307069
0.284853
0.267816
0.255212
0.245834
0.238792
0.233489
0.229516
0.226589
0.224503
0.2231
0.22226
0.221883
0.221883
0.222188
0.222728
0.223442
0.22427
0.225157
0.226049
0.226898
0.22766
0.228295
0.228771
0.229061
0.22915
0.229032
0.228709
0.228195
0.227511
0.226689
0.225764
0.224783
0.223793
0.222848
0.222006
0.221326
0.220874
0.220719
0.220938
0.221615
0.222851
0.224765
0.227512
0.231289
0.236368
0.243128
0.252121
0.264179
0.280607
0.303614
0.33751
0.354539
0.254323
0.259771
0.260442
0.256242
0.249816
0.243285
0.237514
0.232726
0.2289
0.225943
0.223744
0.2222
0.221221
0.220724
0.220636
0.22089
0.221423
0.222175
0.223087
0.224102
0.225164
0.226219
0.227216
0.228107
0.228848
0.229402
0.229741
0.229849
0.229717
0.22935
0.22876
0.227973
0.227024
0.225952
0.224805
0.223636
0.222501
0.221455
0.220558
0.219874
0.219465
0.219397
0.219738
0.220566
0.221966
0.224034
0.226884
0.230647
0.235464
0.241476
0.248747
0.257066
0.265542
0.272088
0.259069
0.216074
0.222892
0.229188
0.231619
0.23117
0.229281
0.226886
0.224508
0.222416
0.220729
0.219487
0.218687
0.218307
0.21831
0.218655
0.219297
0.220187
0.221274
0.222506
0.223827
0.22518
0.226508
0.227755
0.228865
0.229785
0.230476
0.230902
0.231043
0.230891
0.230449
0.229733
0.228775
0.227613
0.226295
0.224877
0.223414
0.221966
0.220592
0.219351
0.218303
0.217501
0.216996
0.216838
0.217073
0.217743
0.21888
0.220505
0.222602
0.225102
0.227812
0.230314
0.23178
0.230826
0.225611
0.209543
0.19726
0.20309
0.209792
0.213999
0.215909
0.216434
0.216203
0.21564
0.215021
0.214522
0.214245
0.214245
0.214544
0.215138
0.216017
0.217153
0.218512
0.220052
0.221725
0.223476
0.225245
0.226973
0.228586
0.230018
0.231209
0.232106
0.232667
0.232862
0.232681
0.232129
0.231227
0.230014
0.22854
0.226865
0.225053
0.223172
0.221288
0.219461
0.217758
0.216231
0.214926
0.213879
0.213122
0.212674
0.212538
0.212702
0.213122
0.213703
0.214286
0.21459
0.214156
0.212261
0.208075
0.201106
0.190716
0.186237
0.190691
0.196457
0.20077
0.203437
0.205079
0.206083
0.206724
0.207206
0.207687
0.208274
0.209045
0.210036
0.211269
0.212748
0.214463
0.216392
0.2185
0.220743
0.223064
0.225403
0.227676
0.229798
0.231688
0.233268
0.234465
0.235221
0.235498
0.235275
0.234565
0.233397
0.231821
0.229906
0.227731
0.225379
0.222934
0.220469
0.218057
0.215773
0.213662
0.211762
0.210101
0.208694
0.207539
0.206618
0.205892
0.205289
0.204696
0.203952
0.202811
0.20093
0.197807
0.192966
0.186762
0.180522
0.177555
0.180892
0.18567
0.189727
0.192617
0.194797
0.196516
0.197941
0.199215
0.200462
0.20178
0.203239
0.204891
0.206765
0.208879
0.211233
0.213817
0.216606
0.219553
0.222606
0.225679
0.228675
0.231491
0.234015
0.236141
0.237766
0.238802
0.239196
0.238918
0.237981
0.236434
0.234346
0.23182
0.228963
0.225887
0.222699
0.219488
0.216356
0.213372
0.210582
0.208019
0.205702
0.203636
0.201806
0.200176
0.198697
0.197296
0.195861
0.194261
0.192321
0.189811
0.186367
0.181628
0.176317
0.172284
0.169319
0.171826
0.175816
0.179626
0.182633
0.18513
0.187297
0.189251
0.191099
0.192941
0.194856
0.196913
0.199165
0.201652
0.204404
0.207436
0.210749
0.214321
0.21812
0.222069
0.226077
0.230022
0.233769
0.237168
0.240059
0.242291
0.243732
0.244295
0.243939
0.242678
0.240589
0.237781
0.234406
0.230622
0.226587
0.222441
0.2183
0.214298
0.210499
0.20695
0.203678
0.200694
0.197991
0.195541
0.193301
0.191213
0.189203
0.187179
0.185035
0.182653
0.179878
0.176437
0.171999
0.167282
0.164202
0.161134
0.162993
0.16632
0.169911
0.173015
0.17574
0.17821
0.180531
0.182795
0.185083
0.18747
0.190024
0.192807
0.195867
0.199247
0.202974
0.207062
0.211526
0.216308
0.221342
0.226532
0.23172
0.236725
0.241335
0.245314
0.248427
0.250464
0.251282
0.250811
0.249077
0.246197
0.242356
0.237794
0.232747
0.227438
0.222054
0.216775
0.211744
0.20702
0.202647
0.198643
0.195004
0.191707
0.188711
0.185963
0.183395
0.180934
0.178502
0.176009
0.17336
0.170459
0.167098
0.163042
0.15898
0.156497
0.153021
0.154385
0.157125
0.160463
0.163593
0.166448
0.169108
0.171667
0.174208
0.176811
0.179548
0.182487
0.1857
0.189254
0.19321
0.197614
0.202535
0.207958
0.213862
0.220192
0.226853
0.233679
0.2404
0.246718
0.252281
0.256714
0.259659
0.260873
0.26023
0.257777
0.253716
0.248354
0.242094
0.235298
0.228285
0.221322
0.214668
0.208436
0.202688
0.197451
0.192723
0.188471
0.184652
0.181203
0.178056
0.175137
0.172363
0.169661
0.166947
0.164151
0.161197
0.157949
0.154248
0.15073
0.148738
0.145092
0.1461
0.148326
0.151342
0.154372
0.157226
0.15994
0.162598
0.165273
0.168044
0.170983
0.174171
0.17769
0.181625
0.18606
0.191081
0.196777
0.20319
0.210331
0.21818
0.22666
0.235613
0.244703
0.253483
0.261421
0.267902
0.272292
0.27415
0.273241
0.269651
0.263738
0.256074
0.247321
0.238066
0.228766
0.219834
0.211531
0.203945
0.197113
0.191025
0.18563
0.180857
0.176624
0.172841
0.169429
0.166298
0.163369
0.16056
0.157786
0.154976
0.152066
0.14898
0.145675
0.142746
0.141204
0.137349
0.13812
0.13993
0.142576
0.145372
0.148076
0.150692
0.153289
0.155934
0.158702
0.161671
0.16493
0.168574
0.17271
0.177439
0.182932
0.189282
0.196603
0.205006
0.214539
0.225188
0.236846
0.249199
0.261595
0.273204
0.282998
0.289829
0.292794
0.291447
0.285934
0.276987
0.2657
0.253218
0.240459
0.228149
0.216815
0.206625
0.19761
0.189732
0.182897
0.176972
0.171839
0.16736
0.16344
0.159967
0.156828
0.153924
0.151169
0.148481
0.14579
0.143043
0.140209
0.137342
0.134982
0.133816
0.129706
0.130321
0.131805
0.134064
0.136526
0.138949
0.141322
0.143699
0.14614
0.148716
0.151509
0.154612
0.15814
0.162216
0.166984
0.172638
0.179356
0.187338
0.196818
0.208025
0.221087
0.23604
0.252729
0.270448
0.287902
0.303334
0.314528
0.319553
0.317422
0.308448
0.294232
0.277008
0.258823
0.241162
0.225072
0.210952
0.198796
0.188472
0.17976
0.172427
0.166259
0.161072
0.15667
0.152887
0.14958
0.146634
0.143942
0.141415
0.138973
0.136547
0.134087
0.131592
0.129181
0.127314
0.126445
0.122128
0.122608
0.123817
0.125679
0.127747
0.12979
0.131793
0.133797
0.135856
0.138039
0.140423
0.143108
0.146211
0.14986
0.154277
0.159637
0.166202
0.174299
0.18432
0.196723
0.212023
0.230577
0.252636
0.277949
0.304862
0.330328
0.349909
0.35905
0.355377
0.339675
0.315719
0.288435
0.261554
0.237443
0.217017
0.200134
0.186361
0.175207
0.166203
0.158965
0.153107
0.148312
0.144349
0.141017
0.13815
0.135641
0.133374
0.131252
0.129214
0.12719
0.125135
0.12306
0.121104
0.119625
0.118924
0.11459
0.114963
0.115897
0.117353
0.118973
0.120559
0.122087
0.123586
0.125102
0.126692
0.128427
0.130397
0.132712
0.135519
0.139018
0.143425
0.149043
0.156277
0.165697
0.178046
0.194298
0.215632
0.243262
0.278191
0.319957
0.364033
0.40111
0.419434
0.412319
0.382052
0.33892
0.294464
0.25537
0.224025
0.199746
0.181168
0.167038
0.15635
0.14822
0.141961
0.137117
0.133289
0.130245
0.127769
0.125684
0.123881
0.122257
0.120728
0.119237
0.117728
0.116165
0.114568
0.113078
0.11199
0.111463
0.107007
0.107276
0.10796
0.109028
0.110189
0.111276
0.112254
0.113141
0.113971
0.114787
0.115641
0.116605
0.117763
0.119245
0.1212
0.123832
0.127422
0.132373
0.139285
0.149079
0.163151
0.183531
0.21334
0.256467
0.317699
0.396025
0.472723
0.513567
0.498045
0.433204
0.350425
0.278853
0.227043
0.191384
0.166951
0.150265
0.138779
0.130772
0.125118
0.121106
0.118227
0.116122
0.114551
0.113323
0.112344
0.111503
0.110721
0.109932
0.109099
0.108194
0.107184
0.106093
0.105057
0.104306
0.103938
0.0994316
0.0995623
0.100006
0.100738
0.101483
0.102068
0.10245
0.102647
0.102683
0.102586
0.102382
0.102099
0.101766
0.101475
0.10129
0.101315
0.101683
0.102628
0.104573
0.10815
0.11442
0.125536
0.145293
0.180729
0.248005
0.374589
0.544882
0.646559
0.608739
0.454321
0.295022
0.199801
0.152465
0.126899
0.112701
0.104866
0.100562
0.0982441
0.0972001
0.096886
0.096938
0.0972512
0.0976703
0.0980927
0.0984884
0.0988051
0.0990124
0.0990873
0.0990119
0.0987635
0.0983244
0.0977209
0.0970886
0.0966471
0.0964375
0.0914986
0.0915001
0.0919351
0.0926429
0.0931488
0.0932596
0.0929956
0.092421
0.0915731
0.0904571
0.0890572
0.0873711
0.085407
0.0831255
0.0804271
0.0772583
0.0735297
0.0690918
0.0637806
0.0572879
0.0491729
0.0389726
0.0254458
0.00552516
-0.024206
0.0880393
0.33857
0.218527
0.0280961
-0.0232498
0.00674079
0.0242205
0.0369376
0.0467984
0.0547543
0.0611255
0.0664282
0.0708815
0.0746272
0.0778013
0.0804829
0.0827436
0.0846339
0.0861963
0.087465
0.0884613
0.0891913
0.0896407
0.0897713
0.0895713
0.089182
0.0889498
0.0890078
0.0819718
0.0822146
0.0837068
0.0851594
0.0856602
0.0852424
0.0842242
0.0828084
0.0810684
0.0789514
0.0764084
0.0733678
0.0697816
0.0654737
0.0602591
0.0539092
0.0460541
0.0361525
0.0232731
0.00592747
-0.0185785
-0.0554958
-0.11675
-0.233537
-0.392941
-0.565439
-0.342265
-0.1764
-0.0914442
-0.0430052
-0.0119988
0.00934987
0.0248649
0.0366398
0.0458461
0.0532003
0.0591567
0.0640253
0.068034
0.0713665
0.074142
0.076449
0.0783718
0.0799393
0.0811647
0.081939
0.0820435
0.0813632
0.0803918
0.079896
0.0865935
0.0849043
0.0815939
0.0783484
0.0759836
0.0741542
0.0724052
0.0704369
0.0680947
0.0653269
0.0620085
0.0579552
0.0529793
0.0469547
0.0396767
0.030803
0.0198117
0.00593747
-0.0118741
-0.0353627
-0.0673322
-0.112372
-0.179125
-0.285281
-0.422647
-0.373186
-0.237763
-0.150839
-0.094745
-0.0558761
-0.0278068
-0.00684643
0.00924607
0.0218728
0.0319494
0.0400736
0.0466866
0.0521247
0.0566286
0.0603245
0.0633331
0.0657653
0.0677375
0.0693774
0.0709017
0.0725761
0.074696
0.0769897
0.0781782
0.074356
0.0748768
0.0743013
0.0725794
0.0705775
0.068608
0.0665814
0.0643214
0.0616559
0.0584541
0.0546068
0.0499407
0.044238
0.0373405
0.0290466
0.0189427
0.00650343
-0.0089499
-0.0283455
-0.0529555
-0.0844239
-0.124435
-0.17337
-0.226867
-0.252523
-0.270791
-0.290137
-0.26916
-0.209945
-0.154286
-0.108519
-0.0723083
-0.0440545
-0.0218878
-0.00434534
0.00968779
0.0210354
0.0302859
0.0378806
0.0441498
0.0493073
0.0535468
0.0570336
0.0598961
0.0622715
0.0643039
0.0661517
0.0679898
0.0697712
0.0709291
0.0709572
0.0662951
0.0664607
0.0664126
0.065503
0.063959
0.0620484
0.0598307
0.0572513
0.0542031
0.0505699
0.0462187
0.0409899
0.0346923
0.027107
0.0180284
0.00707307
-0.0062198
-0.022364
-0.0420455
-0.0660399
-0.0950097
-0.129457
-0.168962
-0.208776
-0.225692
-0.223828
-0.222704
-0.216206
-0.228202
-0.237595
-0.237694
-0.225418
-0.190232
-0.150699
-0.114315
-0.0829608
-0.0566662
-0.0348968
-0.0170483
-0.00235375
0.00979443
0.0198406
0.0281728
0.0350987
0.0408473
0.0456255
0.0496046
0.0529299
0.0557208
0.0580887
0.0601148
0.0618082
0.0629786
0.0633252
0.0631656
0.0609093
0.0608586
0.0604553
0.0594684
0.0579356
0.0559698
0.0536029
0.0508033
0.0474976
0.0435834
0.0389485
0.0334733
0.0269877
0.0192084
0.00990055
-0.00121644
-0.0144705
-0.0302651
-0.0490794
-0.0714316
-0.0979062
-0.129246
-0.166311
-0.206474
-0.230328
-0.231179
-0.228009
-0.225502
-0.233355
-0.241068
-0.23976
-0.222176
-0.185541
-0.147411
-0.114299
-0.0861247
-0.0622245
-0.0419603
-0.024866
-0.0104935
0.0015976
0.0117491
0.0202883
0.0274654
0.03347
0.0385216
0.0427803
0.0463785
0.0494176
0.051974
0.0540991
0.0557734
0.0568856
0.0573685
0.0575014
0.056288
0.0562355
0.055682
0.0545842
0.0530101
0.0510117
0.0485963
0.0457328
0.042364
0.0384077
0.0337631
0.0283313
0.021971
0.0144606
0.00552362
-0.00501309
-0.0173909
-0.0319059
-0.0489039
-0.0687798
-0.0920889
-0.119656
-0.152605
-0.189513
-0.216606
-0.224081
-0.221543
-0.218198
-0.224328
-0.231507
-0.228886
-0.208398
-0.172239
-0.136459
-0.106528
-0.0815368
-0.060352
-0.0422696
-0.0268118
-0.0136119
-0.00235879
0.00724567
0.0154164
0.0223629
0.0282651
0.0332833
0.0375519
0.041183
0.0442646
0.0468628
0.0490169
0.0507242
0.0519428
0.0526412
0.0528634
0.0523193
0.0523143
0.0517163
0.0505719
0.0490013
0.0470413
0.0446838
0.0418958
0.0386332
0.0348322
0.030409
0.0252821
0.019348
0.0124383
0.00436892
-0.0049962
-0.01583
-0.0283143
-0.0426782
-0.0592011
-0.0782849
-0.100663
-0.12728
-0.157234
-0.18191
-0.191778
-0.189506
-0.185315
-0.190079
-0.196539
-0.193256
-0.174125
-0.144282
-0.115084
-0.0903966
-0.069742
-0.0521536
-0.0369825
-0.0238463
-0.0124595
-0.00259414
0.00594467
0.0133178
0.0196802
0.0251655
0.0298755
0.0339259
0.0374017
0.0403662
0.0428754
0.0449631
0.0466415
0.0478972
0.0486683
0.0488515
0.0486995
0.0487441
0.0482309
0.0471831
0.0457286
0.0439078
0.0417194
0.0391412
0.036132
0.0326509
0.028638
0.0240363
0.0187808
0.0127835
0.0059117
-0.00191445
-0.0107822
-0.0207848
-0.0320394
-0.0446955
-0.0590285
-0.075459
-0.0944226
-0.115058
-0.132265
-0.139366
-0.136908
-0.132761
-0.136107
-0.141205
-0.139296
-0.126545
-0.10652
-0.0862474
-0.0683805
-0.0529442
-0.0395408
-0.0277576
-0.0173482
-0.008144
-1.56559e-05
0.00714717
0.0134469
0.0189708
0.023806
0.0280219
0.0316832
0.0348473
0.0375638
0.039872
0.0418004
0.0433539
0.0445088
0.0451699
0.0452216
0.0454772
0.0455599
0.0451813
0.0443131
0.0430572
0.0414611
0.0395337
0.0372633
0.0346272
0.0316012
0.0281486
0.0242402
0.0198418
0.0149144
0.00940037
0.00327429
-0.00348698
-0.0109028
-0.0189915
-0.027799
-0.0374101
-0.0478642
-0.059038
-0.0701082
-0.0783372
-0.0804301
-0.0770332
-0.0732354
-0.0755242
-0.0798511
-0.0806982
-0.075672
-0.0659033
-0.0546715
-0.0438799
-0.0338607
-0.0247075
-0.0163888
-0.00878818
-0.0018657
0.00440861
0.0100706
0.0151635
0.0197212
0.0237816
0.0273761
0.0305339
0.0332855
0.0356601
0.0376843
0.0393716
0.0407162
0.0416794
0.0421811
0.0421613
0.0427157
0.042812
0.0425633
0.0419161
0.0409148
0.0396058
0.0380066
0.0361183
0.0339334
0.0314414
0.0286325
0.025498
0.0220254
0.0182212
0.0140848
0.0096183
0.00486037
-0.000152538
-0.00537217
-0.0107431
-0.0161516
-0.021354
-0.0259531
-0.0293302
-0.0301726
-0.0275775
-0.022683
-0.0192039
-0.0206917
-0.0251589
-0.0290201
-0.0302572
-0.0285196
-0.0247401
-0.019975
-0.0148285
-0.00953818
-0.00436261
0.000617243
0.00538097
0.00987796
0.0140653
0.0179389
0.0214912
0.0247207
0.0276271
0.0302143
0.0324906
0.0344672
0.0361526
0.037546
0.0386326
0.039366
0.0396945
0.0396108
0.0404314
0.0405441
0.040422
0.0400075
0.0392877
0.0382953
0.037057
0.0355864
0.0338851
0.031957
0.0298083
0.0274488
0.0248884
0.0221567
0.0192862
0.0163051
0.0132943
0.0103299
0.00750049
0.00494941
0.00289561
0.00170635
0.00176649
0.00356669
0.00759742
0.0136057
0.0198189
0.0232828
0.0221082
0.0171117
0.0108868
0.0055008
0.00209298
0.000762473
0.00109368
0.00253597
0.00464964
0.00719761
0.00997247
0.0128511
0.0157554
0.0185993
0.0213317
0.0239168
0.0263267
0.0285382
0.0305376
0.0323136
0.0338628
0.0351799
0.0362525
0.0370569
0.0375529
0.0377348
0.0376321
0.0387488
0.0388845
0.0388732
0.0386563
0.0381963
0.0375103
0.036627
0.0355629
0.0343302
0.0329438
0.0314222
0.0297853
0.0280561
0.0262715
0.0244899
0.0227702
0.0211876
0.0198549
0.0188833
0.0184468
0.0188159
0.0203196
0.0232918
0.0281025
0.0347847
0.0425723
0.0494822
0.0530087
0.0518139
0.0464254
0.0389243
0.0313883
0.0252107
0.0209023
0.0183599
0.0172247
0.017085
0.017611
0.0186449
0.0199927
0.0215609
0.0232515
0.0249785
0.0266891
0.0283385
0.0298904
0.0313201
0.0326064
0.033731
0.0346792
0.035433
0.0359648
0.0362525
0.036315
0.0361959
0.0376728
0.0378284
0.0379
0.0378386
0.0375974
0.037182
0.0366162
0.0359211
0.0351124
0.0342128
0.0332469
0.0322376
0.0312234
0.0302486
0.0293691
0.0286494
0.0281752
0.0280597
0.028439
0.0294919
0.0314608
0.0345901
0.0391709
0.0454165
0.0531309
0.0613568
0.0681588
0.0714729
0.0702832
0.0649915
0.0572574
0.049036
0.0417419
0.0359894
0.0318405
0.0290783
0.027415
0.0265615
0.0262871
0.0264735
0.0269738
0.0277097
0.0285935
0.0295508
0.0305311
0.0314937
0.0324047
0.0332363
0.0339633
0.0345648
0.0350196
0.0353074
0.0354172
0.0353852
0.0352424
0.0370089
0.037179
0.0373297
0.0374059
0.0373573
0.0371804
0.0368932
0.0365209
0.0360821
0.035602
0.0351065
0.0346242
0.034194
0.0338594
0.0336796
0.0337278
0.0340868
0.0348569
0.0361694
0.0381906
0.0411064
0.0451019
0.050383
0.0570243
0.0647123
0.0724824
0.0786189
0.0815083
0.0804019
0.0756013
0.0683744
0.0604253
0.0530449
0.0468491
0.0419773
0.0383302
0.0357186
0.033938
0.0327854
0.0320997
0.0318014
0.0317826
0.0319777
0.0323151
0.0327324
0.0331882
0.0336467
0.034076
0.034451
0.0347452
0.0349389
0.0350148
0.0349734
0.034856
0.0346956
0.0367053
0.0368754
0.0370747
0.0372516
0.0373623
0.0373868
0.0373392
0.0372403
0.0371103
0.0369743
0.0368575
0.0367946
0.0368245
0.0369941
0.0373583
0.03798
0.0389374
0.0403147
0.0422234
0.0448042
0.0481981
0.0525352
0.0579199
0.0643235
0.0713891
0.078242
0.0834754
0.0858621
0.0848992
0.0807897
0.074455
0.0672872
0.0603996
0.0543598
0.049343
0.0453231
0.0421987
0.0398369
0.0380963
0.036824
0.0359363
0.0353578
0.0350148
0.0348543
0.0348155
0.0348552
0.0349371
0.035029
0.0351033
0.0351346
0.0351036
0.0349996
0.0348313
0.0346402
0.0344579
0.0366228
0.03679
0.037015
0.0372718
0.0375085
0.0377001
0.037848
0.0379713
0.0380915
0.038232
0.0384205
0.0386913
0.0390812
0.0396314
0.0403926
0.0414214
0.0427794
0.0445453
0.046806
0.0496549
0.0531949
0.0575167
0.0626355
0.0684603
0.0746428
0.0804379
0.0847576
0.0866931
0.08589
0.0824814
0.0771375
0.0709552
0.0648389
0.0592766
0.0544569
0.0504091
0.0470907
0.0444222
0.0423151
0.040669
0.0393799
0.0383876
0.0376406
0.0370969
0.0367019
0.036411
0.0361886
0.0360055
0.0358332
0.0356474
0.0354313
0.0351777
0.0348984
0.0346536
0.0344622
0.0366323
0.0367844
0.0370432
0.0373756
0.0377241
0.0380509
0.038357
0.0386597
0.0389793
0.0393392
0.0397663
0.040291
0.0409476
0.0417727
0.0428108
0.0441086
0.0457199
0.0477036
0.050125
0.0530418
0.0565115
0.0605812
0.0652326
0.0703379
0.0755867
0.0803825
0.0838917
0.0854535
0.0847942
0.0820138
0.0776146
0.072423
0.0671476
0.062203
0.0577706
0.0539091
0.0506086
0.0478383
0.0455451
0.043667
0.0421335
0.0408685
0.0398401
0.0390086
0.0383437
0.0377993
0.0373406
0.0369395
0.0365709
0.0362126
0.0358478
0.0354725
0.0351117
0.0348268
0.0346333
0.0367736
0.0369203
0.0371958
0.0375754
0.0379995
0.0384207
0.0388427
0.0392805
0.0397511
0.0402759
0.04088
0.0415895
0.0424377
0.0434516
0.0446669
0.0461262
0.0478706
0.0499396
0.0523736
0.0552122
0.0584768
0.062172
0.0662681
0.0706357
0.0750154
0.0789376
0.0817831
0.0830519
0.0825189
0.0802648
0.0766698
0.0723672
0.0679014
0.0636071
0.059647
0.056087
0.0529473
0.0502214
0.047882
0.0458963
0.0442215
0.0428032
0.0415927
0.0405682
0.0397088
0.0389789
0.0383443
0.03778
0.0372626
0.0367712
0.0362937
0.0358303
0.0354069
0.0350946
0.0349083
0.0370421
0.0371764
0.0374395
0.0378343
0.0382905
0.0387716
0.0392752
0.0398089
0.0403875
0.0410316
0.0417604
0.0425983
0.0435719
0.0447033
0.0460216
0.0475558
0.0493357
0.0513879
0.0537327
0.0563899
0.0593674
0.0626439
0.0661708
0.0698526
0.0734764
0.0766764
0.0790046
0.0800483
0.0796138
0.0777654
0.0748249
0.0712793
0.0675353
0.0638555
0.0603807
0.0571803
0.054285
0.0517011
0.0494197
0.0474282
0.045702
0.0442092
0.0429061
0.0417664
0.0407798
0.0399234
0.0391669
0.0384875
0.0378635
0.0372778
0.0367206
0.0361969
0.0357418
0.035407
0.0352399
0.0372892
0.0374088
0.0376674
0.0380669
0.0385445
0.0390666
0.0396246
0.0402245
0.0408796
0.0416042
0.042415
0.0433323
0.0443768
0.0455676
0.0469219
0.048461
0.0502044
0.0521658
0.054356
0.0567797
0.0594299
0.0622837
0.0652973
0.0683755
0.0713569
0.073982
0.0758922
0.0767526
0.0763828
0.0748454
0.072432
0.069507
0.0663762
0.0632461
0.0602344
0.0574055
0.0547914
0.0524066
0.0502563
0.0483342
0.0466297
0.0451262
0.0437993
0.042613
0.0415533
0.0406216
0.0397899
0.0390372
0.0383449
0.0376997
0.0370943
0.0365385
0.0360677
0.0357311
0.0355673
0.0375393
0.0376457
0.037881
0.0382674
0.0387491
0.03929
0.0398791
0.040519
0.0412185
0.0419894
0.0428453
0.0438013
0.0448725
0.0460702
0.0474095
0.0489017
0.0505571
0.052382
0.0543804
0.0565496
0.058878
0.0613418
0.063891
0.0664516
0.0689047
0.0710586
0.0726441
0.0733462
0.0730221
0.0717376
0.0697336
0.0673011
0.0646808
0.0620277
0.0594362
0.0569609
0.0546387
0.0524826
0.0505031
0.0487005
0.047071
0.0456068
0.044296
0.043116
0.0420408
0.0410748
0.0402078
0.0394183
0.0386911
0.0380167
0.03739
0.0368233
0.0363485
0.0360282
0.0358661
0.037713
0.0378074
0.0380316
0.0383988
0.0388752
0.0394218
0.0400242
0.0406818
0.0414003
0.042189
0.0430573
0.0440159
0.0450743
0.0462403
0.0475239
0.0489305
0.0504642
0.0521294
0.0539248
0.0558433
0.0578692
0.0599758
0.0621259
0.0642653
0.0662954
0.0680669
0.0693609
0.0699273
0.0696282
0.0685466
0.0668778
0.0648492
0.0626512
0.0604035
0.058182
0.0560338
0.0539908
0.0520685
0.0502772
0.0486209
0.0471002
0.0457119
0.0444511
0.0433062
0.0422565
0.0412928
0.0404222
0.0396267
0.0388935
0.0382165
0.0375945
0.0370446
0.0365977
0.0363038
0.0361633
0.0377601
0.0378464
0.0380663
0.0384335
0.0389053
0.0394497
0.0400502
0.0407058
0.041421
0.0422024
0.0430555
0.0439855
0.0450009
0.0461061
0.0473051
0.0486019
0.049998
0.0514956
0.0530883
0.0547668
0.0565152
0.0583128
0.06013
0.061916
0.0635948
0.0650521
0.0661197
0.066579
0.0663132
0.0653862
0.0639805
0.0622876
0.0604414
0.0585375
0.0566388
0.0547821
0.0529969
0.0512967
0.0496929
0.0481917
0.0467967
0.0455065
0.0443183
0.0432302
0.0422284
0.0412944
0.040443
0.0396661
0.03895
0.0382903
0.0376872
0.0371522
0.0367199
0.0364368
0.0363222
0.0377757
0.037855
0.0380597
0.0384059
0.0388553
0.0393779
0.0399574
0.0405921
0.0412827
0.0420334
0.0428471
0.0437281
0.0446801
0.0457044
0.0468034
0.0479805
0.049235
0.0505654
0.0519636
0.053421
0.0549262
0.0564592
0.0579895
0.0594809
0.0608769
0.0620819
0.062958
0.0633334
0.0631079
0.0623332
0.0611762
0.0597261
0.0581702
0.0565553
0.0549319
0.0533296
0.0517725
0.050276
0.048851
0.0475036
0.0462371
0.0450532
0.0439516
0.0429337
0.0419931
0.0411158
0.0402969
0.0395525
0.0388682
0.0382381
0.0376642
0.0371567
0.0367521
0.0365011
0.0363952
0.0376934
0.0377681
0.0379561
0.0382739
0.0386934
0.0391848
0.0397331
0.0403332
0.0409852
0.041691
0.0424504
0.0432667
0.0441427
0.0450777
0.0460726
0.0471289
0.0482438
0.0494153
0.0506356
0.0518981
0.0531895
0.0544944
0.0557874
0.05704
0.0582043
0.0591998
0.0599151
0.0602205
0.0600326
0.0593893
0.0584023
0.0572071
0.0559127
0.0545374
0.0531473
0.0517637
0.0504078
0.0490937
0.0478302
0.0466262
0.045485
0.0444083
0.0433992
0.0424587
0.0415857
0.0407727
0.040008
0.0393042
0.0386598
0.0380682
0.0375314
0.0370611
0.0366898
0.0364593
0.0363631
0.0374818
0.0375449
0.0377151
0.0380097
0.0383989
0.0388573
0.0393699
0.0399301
0.0405353
0.041188
0.0418862
0.0426314
0.0434261
0.044271
0.045164
0.0461029
0.0470877
0.0481156
0.0491786
0.0502697
0.0513777
0.0524895
0.0535865
0.0546415
0.0556137
0.0564369
0.0570222
0.0572704
0.0571127
0.0565803
0.0557619
0.0547594
0.0536535
0.0525011
0.0513357
0.0501387
0.0489586
0.0478061
0.0466897
0.0456169
0.0445925
0.0436204
0.0427028
0.0418416
0.0410384
0.0402907
0.0395885
0.0389315
0.0383319
0.0377836
0.0372887
0.036859
0.0365213
0.0363132
0.0362245
0.0371172
0.0371734
0.0373315
0.0376082
0.0379772
0.0384056
0.0388804
0.039396
0.0399511
0.0405455
0.0411794
0.0418533
0.0425675
0.0433226
0.0441175
0.0449506
0.045819
0.0467191
0.0476442
0.0485878
0.0495411
0.0504931
0.0514248
0.0523138
0.0531273
0.0538074
0.0542864
0.0544864
0.054354
0.0539134
0.0532347
0.0523952
0.0514592
0.0504712
0.0494636
0.0484697
0.0474552
0.0464478
0.0454635
0.0445107
0.0435955
0.0427216
0.0418925
0.0411097
0.0403749
0.0396889
0.0390476
0.0384436
0.0378866
0.0373827
0.0369291
0.0365393
0.0362378
0.036051
0.0359799
0.0366826
0.0367217
0.0368703
0.0371306
0.0374692
0.0378597
0.0382906
0.0387557
0.0392551
0.0397897
0.0403586
0.0409618
0.0415995
0.0422708
0.0429756
0.0437121
0.044476
0.0452638
0.0460693
0.0468866
0.0477087
0.048523
0.0493157
0.0500662
0.0507459
0.0513077
0.0517001
0.05186
0.0517489
0.0513854
0.0508221
0.0501193
0.0493272
0.048484
0.0476121
0.0467357
0.0458674
0.0450233
0.0441694
0.0433275
0.0425117
0.041729
0.0409823
0.040274
0.039606
0.0389782
0.0383925
0.0378435
0.0373314
0.0368689
0.036456
0.036107
0.0358448
0.0356707
0.0356104
0.0362098
0.0362608
0.0363918
0.0366148
0.0369037
0.0372405
0.037616
0.0380251
0.0384658
0.0389399
0.0394449
0.0399806
0.0405468
0.0411427
0.041766
0.0424152
0.0430867
0.0437762
0.0444784
0.0451871
0.0458944
0.0465913
0.0472642
0.0478959
0.0484611
0.0489239
0.0492432
0.0493708
0.0492775
0.0489775
0.0485104
0.0479235
0.0472564
0.0465382
0.0457883
0.045025
0.0442605
0.0435061
0.0427704
0.0420654
0.0413505
0.0406512
0.039981
0.039342
0.0387362
0.0381648
0.0376323
0.0371362
0.0366729
0.0362517
0.0358793
0.0355656
0.0353324
0.0351929
0.0351386
0.0356987
0.0357277
0.0358312
0.0360055
0.0362415
0.0365243
0.0368446
0.0371996
0.0375866
0.0380042
0.038452
0.038927
0.0394284
0.0399558
0.0405068
0.0410787
0.0416687
0.0422724
0.0428838
0.0434975
0.0441058
0.0446997
0.0452686
0.0457976
0.0462642
0.0466424
0.0468985
0.0469968
0.0469172
0.0466712
0.0462859
0.0457972
0.0452367
0.0446278
0.0439868
0.0433259
0.0426578
0.0419918
0.0413374
0.0406989
0.0400828
0.0394947
0.0389008
0.038328
0.0377832
0.0372666
0.0367843
0.036338
0.0359239
0.035545
0.0352109
0.0349314
0.034729
0.0346088
0.0345652
0.0350098
0.0350292
0.03511
0.0352521
0.0354503
0.0356939
0.0359738
0.0362855
0.0366273
0.0369971
0.0373929
0.0378135
0.0382578
0.0387239
0.0392093
0.039713
0.0402308
0.0407574
0.0412881
0.0418176
0.0423387
0.0428424
0.0433188
0.0437577
0.0441401
0.0444457
0.0446471
0.0447198
0.0446504
0.0444493
0.0441342
0.0437296
0.0432606
0.0427468
0.0421999
0.0416309
0.0410505
0.040466
0.0398844
0.0393127
0.0387589
0.0382255
0.0377163
0.0372342
0.0367574
0.0362976
0.0358653
0.0354665
0.0350989
0.0347623
0.0344649
0.0342171
0.0340395
0.0339345
0.0338988
0.034177
0.0342016
0.0342721
0.034396
0.0345716
0.0347856
0.0350314
0.0353048
0.0356036
0.0359289
0.0362774
0.0366487
0.037041
0.0374526
0.0378804
0.0383225
0.0387745
0.0392319
0.0396897
0.0401425
0.0405849
0.0410088
0.0414062
0.0417671
0.0420771
0.0423195
0.0424752
0.042528
0.0424684
0.0423041
0.0420466
0.0417135
0.0413235
0.0408907
0.0404255
0.0399381
0.0394367
0.0389276
0.038418
0.0379151
0.0374235
0.0369457
0.0364846
0.0360461
0.0356329
0.0352439
0.0348824
0.0345335
0.0342069
0.0339086
0.0336432
0.0334257
0.0332683
0.0331716
0.0331396
0.0333425
0.03335
0.0334005
0.0334977
0.0336393
0.0338163
0.0340237
0.0342585
0.034519
0.0348036
0.03511
0.0354373
0.0357837
0.036146
0.0365211
0.0369073
0.0373005
0.0376954
0.0380879
0.0384734
0.0388455
0.039199
0.0395267
0.03982
0.040068
0.0402571
0.0403768
0.0404129
0.040361
0.040226
0.0400153
0.0397423
0.0394197
0.0390579
0.0386647
0.0382497
0.0378201
0.0373822
0.0369419
0.0365036
0.0360725
0.0356533
0.0352489
0.0348611
0.0344916
0.034143
0.0338165
0.0335148
0.0332369
0.0329819
0.0327477
0.0325544
0.0324147
0.0323298
0.0323045
0.0323623
0.0323642
0.0323962
0.0324719
0.0325888
0.0327407
0.0329227
0.0331314
0.0333636
0.0336175
0.0338903
0.0341813
0.0344879
0.0348069
0.0351358
0.0354715
0.0358108
0.0361496
0.0364832
0.0368079
0.0371183
0.0374104
0.0376779
0.037913
0.0381087
0.0382553
0.0383445
0.0383673
0.0383216
0.0382105
0.0380383
0.0378143
0.0375476
0.0372485
0.0369205
0.0365698
0.0362057
0.0358339
0.0354571
0.03508
0.0347066
0.0343414
0.0339878
0.0336471
0.0333208
0.0330117
0.0327205
0.0324489
0.0321982
0.0319673
0.0317488
0.0315997
0.0314908
0.0314106
0.0313824
0.0311958
0.031198
0.0312355
0.0313114
0.0314269
0.0315752
0.031749
0.031944
0.0321575
0.0323877
0.0326325
0.032891
0.0331614
0.0334413
0.0337273
0.0340174
0.0343083
0.0345958
0.0348768
0.0351477
0.0354048
0.0356439
0.0358601
0.0360477
0.0361993
0.0363098
0.0363745
0.0363876
0.0363462
0.0362532
0.036112
0.035928
0.0357092
0.0354628
0.0351926
0.0349015
0.0345968
0.0342828
0.0339633
0.0336419
0.0333216
0.0330057
0.0326977
0.0323996
0.032113
0.0318401
0.0315826
0.0313416
0.0311195
0.0309186
0.0307399
0.0305957
0.0304692
0.0303306
0.0303907
0.0300661
0.0300642
0.0301064
0.0301812
0.0302873
0.0304193
0.0305741
0.0307472
0.0309361
0.0311386
0.0313537
0.031579
0.0318132
0.0320544
0.0323006
0.0325483
0.0327941
0.0330361
0.0332703
0.0334943
0.033705
0.033898
0.0340708
0.0342181
0.0343344
0.0344163
0.0344606
0.0344651
0.0344288
0.0343525
0.0342373
0.034088
0.0339097
0.0337078
0.0334858
0.0332466
0.0329938
0.0327314
0.0324629
0.0321895
0.0319153
0.0316435
0.0313757
0.0311158
0.0308641
0.0306237
0.0303963
0.0301835
0.0299871
0.0298114
0.0296587
0.0295345
0.0294388
0.0293735
0.0293376
0.0290286
0.0290419
0.0290628
0.0291047
0.0291726
0.029271
0.0293946
0.0295374
0.029696
0.0298682
0.0300521
0.0302451
0.0304453
0.0306502
0.0308574
0.0310652
0.0312717
0.0314732
0.0316667
0.0318504
0.0320216
0.0321761
0.0323119
0.0324257
0.0325128
0.0325718
0.0326007
0.0325983
0.0325657
0.0325043
0.0324127
0.0322929
0.032149
0.0319855
0.0318053
0.0316093
0.0313998
0.0311814
0.0309557
0.0307246
0.0304898
0.0302552
0.0300229
0.0297958
0.0295757
0.0293639
0.0291635
0.0289762
0.0288025
0.0286462
0.0285114
0.0284004
0.0283151
0.0282628
0.0282356
0.0278086
0.027812
0.0278237
0.0278633
0.0279313
0.0280255
0.0281401
0.0282689
0.0284099
0.0285604
0.0287182
0.0288827
0.0290525
0.0292246
0.029398
0.0295718
0.0297431
0.0299094
0.0300682
0.0302176
0.0303545
0.0304771
0.0305827
0.0306691
0.030734
0.0307758
0.0307932
0.0307873
0.0307591
0.0307105