/*--------------------------------*- C++ -*----------------------------------*\
  =========                 |
  \\      /  F ield         | OpenFOAM: The Open Source CFD Toolbox
   \\    /   O peration     | Website:  https://openfoam.org
    \\  /    A nd           | Version:  7
     \\/     M anipulation  |
\*---------------------------------------------------------------------------*/
FoamFile
{
    version     2.0;
    format      ascii;
    class       surfaceScalarField;
    location    "10";
    object      phi;
}
// * * * * * * * * * * * * * * * * * * * * * * * * * * * * * * * * * * * * * //

dimensions      [0 3 -1 0 0 0 0];

internalField   nonuniform List<scalar> 
34768
(
7.96611e-05
0.000972425
-0.000149976
-4.18196e-05
2.32558e-05
0.000920808
-1.40811e-05
9.89611e-06
0.000906674
-7.78166e-06
6.51177e-06
0.000903977
-5.29824e-06
4.63921e-06
0.00090347
-4.35714e-06
3.98927e-06
0.000903179
-3.714e-06
3.59944e-06
0.000903125
-3.54057e-06
3.51623e-06
0.000903133
-3.2285e-06
3.16083e-06
0.000903274
-3.31962e-06
3.08979e-06
0.000903333
-3.18039e-06
3.07693e-06
0.000903304
-3.09055e-06
3.30645e-06
0.000903282
-3.13728e-06
3.06791e-06
0.000903565
-3.31234e-06
3.25486e-06
0.000903551
-3.31026e-06
3.46263e-06
0.000903539
-3.4274e-06
3.38837e-06
0.000903829
-3.66122e-06
3.62991e-06
0.000903721
-3.6101e-06
3.78595e-06
0.000903813
-3.77276e-06
3.75528e-06
0.000903906
-3.94829e-06
3.83718e-06
0.000904099
-4.23585e-06
4.8307e-06
0.000904093
-5.63461e-06
6.43504e-06
0.000905188
-5.29366e-06
4.4392e-06
0.000904863
-3.68201e-06
4.14214e-06
0.000904599
-5.40818e-06
-3.07635e-07
0.000909276
-7.61417e-07
1.32822e-06
0.000908624
-1.22867e-06
8.77482e-07
0.000909433
-5.80722e-07
2.31835e-08
0.000909641
5.38363e-07
-8.3047e-07
0.000909375
1.19056e-06
-1.31164e-06
0.000909206
1.34386e-06
-1.39689e-06
0.000909149
1.40214e-06
-1.38807e-06
0.000909074
1.37713e-06
-1.36674e-06
0.000909079
1.31036e-06
-1.30439e-06
0.000909094
1.30311e-06
-1.30216e-06
0.0009091
1.30654e-06
-1.31116e-06
0.000909107
1.32157e-06
-1.33221e-06
0.000909114
1.34911e-06
-1.46628e-06
0.000909222
1.79e-06
-1.21432e-06
0.00090993
7.45669e-07
-5.77633e-07
0.000910338
5.16643e-07
-4.56677e-07
0.000910347
5.04218e-07
-5.53503e-07
0.000910257
6.10869e-07
-6.71094e-07
0.000910269
7.40435e-07
-7.14222e-07
0.000910083
7.98612e-07
-8.89802e-07
0.000910102
9.94052e-07
-1.10852e-06
0.000910026
1.23982e-06
-1.38657e-06
0.000909959
1.55619e-06
-1.74957e-06
0.000910006
1.97555e-06
-2.33896e-06
0.000910078
2.5513e-06
-2.92507e-06
0.000910089
3.37661e-06
-4.03068e-06
0.00091027
4.60862e-06
-5.44363e-06
0.000910449
6.41318e-06
-7.40107e-06
0.000910497
8.27199e-06
-6.61624e-06
0.000907849
-3.52052e-06
-2.66944e-05
0.000939717
-0.000832658
0.000146104
0.000705485
-1.89991e-05
-0.000970661
-0.000151
0.000118878
0.00100272
-0.000924575
-9.19985e-05
7.2363e-05
0.000944192
-0.000911481
-5.79458e-05
4.71801e-05
0.000922258
-0.00090723
-3.89224e-05
3.26854e-05
0.000913484
-0.000905531
-2.78063e-05
2.39611e-05
0.000909398
-0.000904569
-2.03453e-05
1.81263e-05
0.000906813
-0.000904022
-1.58234e-05
1.39849e-05
0.000905885
-0.000903884
-1.23013e-05
1.10539e-05
0.000905152
-0.000903759
-9.97417e-06
8.95269e-06
0.000904795
-0.000903802
-7.94994e-06
7.35628e-06
0.000904402
-0.000903685
-6.55448e-06
5.92798e-06
0.000904309
-0.000903594
-5.47883e-06
4.88116e-06
0.000904181
-0.00090382
-4.35331e-06
4.06033e-06
0.000904096
-0.000903757
-3.73324e-06
3.32845e-06
0.000904138
-0.000903702
-3.28849e-06
2.96182e-06
0.000903999
-0.000903853
-2.69919e-06
2.54318e-06
0.000903974
-0.000903807
-2.55164e-06
2.36166e-06
0.000903959
-0.000903864
-2.33605e-06
2.20803e-06
0.00090395
-0.000903924
-2.3444e-06
2.37527e-06
0.000903849
-0.000904187
-2.16967e-06
2.25579e-06
0.000904054
-0.000903952
-2.6041e-06
1.94202e-06
0.000904567
-0.000907001
-2.12071e-06
5.01556e-06
0.000904058
-0.000903336
-3.91387e-06
-1.60811e-06
0.000908809
-0.000907851
3.77605e-07
-2.86503e-07
0.000907712
-0.000908315
2.9877e-07
-2.61885e-07
0.000908232
-0.000909596
1.94367e-07
1.39016e-07
0.000909218
-0.000910088
-3.31506e-07
1.1635e-08
0.000910367
-0.000909517
2.88052e-07
-1.36817e-07
0.000909328
-0.000909324
-1.2956e-07
-2.32417e-07
0.000909653
-0.00090911
3.25776e-07
-2.68842e-07
0.000909025
-0.000908982
1.11571e-07
3.58435e-08
0.000908812
-0.000908999
-1.75763e-07
2.86372e-07
0.000908871
-0.00090905
-4.31715e-07
4.98904e-07
0.000908972
-0.000909085
-4.43716e-07
5.62163e-07
0.000908962
-0.000909123
-5.51267e-07
5.16258e-07
0.00090916
-0.000909164
-4.45521e-07
3.5317e-07
0.000909266
-0.000909608
-1.18648e-07
-1.34847e-07
0.000909877
-0.000909855
8.36805e-07
-1.15604e-06
0.000910197
-0.000910205
1.131e-06
-1.22144e-06
0.000910325
-0.00091046
1.27503e-06
-1.44359e-06
0.000910665
-0.000910521
1.78438e-06
-2.1416e-06
0.000910921
-0.000910492
2.58189e-06
-3.04312e-06
0.000911002
-0.000910479
3.60195e-06
-4.29104e-06
0.000911221
-0.000910488
4.99682e-06
-5.84931e-06
0.000911399
-0.000910534
6.74582e-06
-7.91661e-06
0.000911766
-0.000910736
9.07128e-06
-1.04448e-05
0.000912173
-0.000910929
1.19642e-05
-1.38758e-05
0.000912908
-0.000911375
1.59331e-05
-1.8404e-05
0.000913919
-0.000911985
2.12887e-05
-2.49023e-05
0.000915679
-0.000913167
2.92269e-05
-3.4478e-05
0.000918505
-0.000915224
4.11038e-05
-4.93584e-05
0.000923562
-0.00091887
6.03364e-05
-7.44858e-05
0.000933076
-0.000924456
9.38228e-05
-0.000123607
0.000954257
-0.000981075
0.00016391
-0.000139541
0.000956689
-0.000599281
8.71023e-05
0.000516909
-4.70633e-06
-0.00102029
-0.000136813
0.000134057
0.00102305
-0.000962869
-0.000114269
9.59638e-05
0.000981139
-0.000933915
-8.16837e-05
7.00063e-05
0.000945522
-0.000921028
-6.04543e-05
5.23959e-05
0.000929005
-0.000914548
-4.55572e-05
3.99084e-05
0.000920123
-0.000910813
-3.50648e-05
3.08798e-05
0.000914937
-0.000908194
-2.73201e-05
2.35997e-05
0.000911866
-0.000907113
-2.10235e-05
1.8751e-05
0.000909345
-0.000906209
-1.65938e-05
1.46489e-05
0.000908119
-0.000905695
-1.29414e-05
1.13857e-05
0.00090722
-0.000905162
-1.02167e-05
8.85828e-06
0.000906492
-0.000905046
-7.65116e-06
6.8291e-06
0.000905841
-0.000904707
-5.73529e-06
4.90739e-06
0.000905507
-0.000904518
-4.29386e-06
3.63247e-06
0.00090515
-0.000904463
-2.97589e-06
2.5627e-06
0.000904847
-0.000904133
-2.14803e-06
1.76981e-06
0.000904479
-0.000904119
-1.38643e-06
1.13466e-06
0.000904337
-0.000904018
-9.74906e-07
9.42627e-07
0.000904014
-0.000904028
-6.00152e-07
5.8166e-07
0.000904009
-0.000903751
-8.50513e-07
2.39893e-07
0.000904322
-0.000904785
8.4658e-08
1.00555e-06
0.000903654
-0.000906051
1.05008e-06
-2.68527e-06
0.000907644
-0.000907905
2.16977e-06
-1.81515e-06
0.000907508
-0.000907759
1.22391e-06
-1.19526e-06
0.000907688
-0.00090801
1.0982e-06
-1.09718e-06
0.000907967
-0.000908562
7.28417e-07
-2.84506e-07
0.000908078
-0.000910585
-2.7008e-07
1.38622e-07
0.000910679
-0.000909131
-2.52899e-08
2.68616e-07
0.000908853
-0.000909811
-6.61184e-07
8.89108e-07
0.000909551
-0.000908837
-9.04892e-07
1.05911e-06
0.000908656
-0.00090858
-1.37838e-06
1.67175e-06
0.000908264
-0.000908687
-1.93935e-06
2.15779e-06
0.000908451
-0.000908766
-2.39e-06
2.4209e-06
0.000908722
-0.000909032
-2.60644e-06
2.63956e-06
0.000908991
-0.000909212
-2.61911e-06
2.54592e-06
0.000909283
-0.000909406
-2.41204e-06
2.12568e-06
0.000909695
-0.000910611
-1.37213e-06
6.64813e-08
0.000911924
-0.00091043
-8.51912e-08
5.08073e-08
0.000910477
-0.000910566
3.6458e-07
-8.35386e-07
0.000911053
-0.000911023
1.29475e-06
-1.91448e-06
0.000911661
-0.000911411
2.53247e-06
-3.31934e-06
0.000912218
-0.000911745
4.21706e-06
-5.1974e-06
0.000912746
-0.000912149
6.30592e-06
-7.51897e-06
0.000913381
-0.00091266
8.98509e-06
-1.04885e-05
0.00091418
-0.000913234
1.21805e-05
-1.41602e-05
0.000915226
-0.000914161
1.62824e-05
-1.8766e-05
0.000916653
-0.000915391
2.15758e-05
-2.46559e-05
0.000918476
-0.000917382
2.82942e-05
-3.23711e-05
0.000921462
-0.000920391
3.72133e-05
-4.28603e-05
0.000926042
-0.000925482
4.95059e-05
-5.73791e-05
0.000933362
-0.000934138
6.66815e-05
-7.79749e-05
0.000945437
-0.000949748
9.16296e-05
-0.000108544
0.000966647
-0.000984543
0.000130504
-0.000154944
0.00100893
-0.000906303
0.000157281
-9.19538e-05
0.000840898
-0.000454743
4.96508e-05
0.000407947
-2.84785e-06
-0.00101259
-0.000101972
0.000121766
0.000992805
-0.000997684
-0.000115898
0.000102345
0.00101124
-0.000956747
-8.94943e-05
7.88203e-05
0.000967416
-0.000937176
-6.96537e-05
6.17706e-05
0.000945044
-0.000926136
-5.48776e-05
4.87864e-05
0.000932209
-0.000919492
-4.34244e-05
3.865e-05
0.00092425
-0.000915272
-3.44258e-05
3.06396e-05
0.000919044
-0.000912493
-2.73751e-05
2.43375e-05
0.000915518
-0.000910198
-2.15244e-05
1.85573e-05
0.000913154
-0.000908972
-1.65547e-05
1.44418e-05
0.000911074
-0.000908009
-1.24369e-05
1.08866e-05
0.000909549
-0.000907086
-9.30959e-06
7.85578e-06
0.000908528
-0.000906424
-6.55327e-06
5.35389e-06
0.000907611
-0.00090607
-4.18953e-06
3.31437e-06
0.000906931
-0.000905388
-2.56491e-06
1.79367e-06
0.000906142
-0.000905055
-1.04116e-06
3.59823e-07
0.000905717
-0.000904657
5.43714e-09
-4.04984e-07
0.000905034
-0.000904386
7.91593e-07
-1.1168e-06
0.000904685
-0.000903938
1.03026e-06
-1.78636e-06
0.000904666
-0.000904612
2.13055e-06
-1.22388e-06
0.000903674
-0.000905826
3.42254e-06
-5.14041e-06
0.00090751
-0.000907152
4.68206e-06
-4.59042e-06
0.000907025
-0.00090702
4.06399e-06
-3.64775e-06
0.000906567
-0.000907155
3.25976e-06
-2.52879e-06
0.000906387
-0.000908309
1.87734e-06
-1.88651e-06
0.000908281
-0.000907289
1.22281e-06
-5.62604e-07
0.000906593
-0.000910494
2.06681e-09
3.06114e-07
0.000910152
-0.000908398
-4.48012e-07
9.61262e-07
0.000907853
-0.000908607
-1.70533e-06
2.45769e-06
0.000907826
-0.000908756
-2.4177e-06
2.67262e-06
0.000908476
-0.000907875
-3.15312e-06
3.62054e-06
0.000907387
-0.00090815
-4.05021e-06
4.40993e-06
0.000907774
-0.000908544
-4.62874e-06
4.94221e-06
0.000908219
-0.000908938
-5.08365e-06
5.14678e-06
0.000908869
-0.000909366
-5.12845e-06
5.13e-06
0.000909363
-0.000909921
-4.84239e-06
4.37423e-06
0.000910392
-0.000913
-3.41049e-06
2.96473e-06
0.000913453
-0.000910913
-2.41607e-06
1.7847e-06
0.000911556
-0.000911657
-1.14502e-06
4.19566e-07
0.000912396
-0.000912346
4.21771e-07
-1.45496e-06
0.000913396
-0.000913202
2.51347e-06
-3.57262e-06
0.00091428
-0.000913958
4.8709e-06
-6.28569e-06
0.000915392
-0.000914964
7.95856e-06
-9.57011e-06
0.000916595
-0.000916093
1.15669e-05
-1.36364e-05
0.000918181
-0.000917457
1.59277e-05
-1.85415e-05
0.000920089
-0.000919332
2.13307e-05
-2.45098e-05
0.00092253
-0.000922097
2.79422e-05
-3.18595e-05
0.000926033
-0.000926106
3.61399e-05
-4.10379e-05
0.000931024
-0.000932128
4.65558e-05
-5.26709e-05
0.000938264
-0.000941407
5.97269e-05
-6.77341e-05
0.000949437
-0.000956546
7.68691e-05
-8.70966e-05
0.000966798
-0.000982281
9.84303e-05
-0.000112524
0.000996388
-0.00102398
0.000127506
-0.000131994
0.00102845
-0.000772117
0.000103634
-4.05132e-05
0.000708959
-0.000372352
2.90945e-05
0.000344982
-1.70183e-06
-0.000967505
-7.14601e-05
9.95699e-05
0.000939434
-0.00102157
-0.000105556
9.90642e-05
0.00102811
-0.000977378
-8.93145e-05
7.98564e-05
0.000986893
-0.000952577
-7.16157e-05
6.44302e-05
0.000959818
-0.000938311
-5.79257e-05
5.21498e-05
0.000944138
-0.000929094
-4.6875e-05
4.20876e-05
0.000933924
-0.000922991
-3.77035e-05
3.38124e-05
0.000926918
-0.000918658
-3.01465e-05
2.67962e-05
0.000922038
-0.000915634
-2.38184e-05
2.10984e-05
0.000918379
-0.000913405
-1.86035e-05
1.62195e-05
0.000915809
-0.000911609
-1.36235e-05
1.1509e-05
0.000913739
-0.000910173
-9.76532e-06
8.07243e-06
0.000911877
-0.000909182
-6.22936e-06
4.92168e-06
0.000910497
-0.000907853
-3.6552e-06
2.30578e-06
0.000909204
-0.000907037
-1.19337e-06
8.9175e-08
0.000908138
-0.000906396
7.80527e-07
-1.34759e-06
0.000906954
-0.000905704
2.2822e-06
-2.71862e-06
0.000906126
-0.00090465
2.91983e-06
-4.1293e-06
0.000905841
-0.000905128
4.59782e-06
-3.7781e-06
0.000904285
-0.000905961
6.24308e-06
-8.26952e-06
0.00090796
-0.000907001
7.80032e-06
-7.84572e-06
0.000907016
-0.000906588
7.36101e-06
-6.82852e-06
0.000906023
-0.000906122
6.35938e-06
-5.66024e-06
0.000905388
-0.000905715
4.89581e-06
-4.19798e-06
0.000904981
-0.000907638
3.43069e-06
-2.80369e-06
0.000906976
-0.000905841
1.82157e-06
-8.53632e-07
0.000904839
-0.00090973
1.7445e-08
5.19163e-07
0.000909161
-0.000907222
-1.11724e-06
1.7864e-06
0.000906524
-0.000907149
-2.7241e-06
3.52201e-06
0.000906326
-0.000907984
-4.03143e-06
4.64979e-06
0.000907344
-0.000906804
-5.37952e-06
6.06693e-06
0.0009061
-0.000907325
-6.68854e-06
7.20664e-06
0.000906795
-0.000907945
-7.67258e-06
7.99862e-06
0.000907612
-0.000908676
-8.21875e-06
8.33405e-06
0.00090856
-0.000909463
-8.33363e-06
8.22796e-06
0.000909573
-0.000911692
-7.7992e-06
6.66462e-06
0.000912837
-0.000912965
-5.80175e-06
5.7316e-06
0.000913051
-0.00091208
-5.12558e-06
4.41793e-06
0.000912809
-0.000913243
-3.46897e-06
2.51895e-06
0.000914219
-0.000914374
-1.42107e-06
1.18684e-07
0.000915708
-0.00091571
1.23928e-06
-2.70692e-06
0.000917213
-0.000916999
4.34306e-06
-6.20021e-06
0.000918896
-0.000918618
8.14244e-06
-1.02213e-05
0.00092074
-0.000920475
1.26113e-05
-1.50612e-05
0.000922973
-0.000922833
1.77539e-05
-2.06406e-05
0.000925771
-0.00092583
2.38147e-05
-2.74349e-05
0.000929505
-0.000930141
3.11943e-05
-3.52552e-05
0.000934259
-0.000935929
3.97327e-05
-4.46944e-05
0.000940949
-0.000944431
5.01603e-05
-5.61135e-05
0.000950441
-0.000957092
6.21674e-05
-6.8419e-05
0.000963399
-0.000975799
7.62134e-05
-8.48054e-05
0.000984447
-0.00100862
9.45891e-05
-0.000104633
0.00101871
-0.00102401
0.000109993
-9.90104e-05
0.00101306
-0.00065473
6.33719e-05
-1.8328e-05
0.000609709
-0.00032347
1.82823e-05
0.000306237
-1.03625e-06
-0.000910884
-5.01891e-05
7.79532e-05
0.000883151
-0.00103125
-9.07368e-05
9.06011e-05
0.00103142
-0.000995086
-8.44531e-05
7.70953e-05
0.00100249
-0.000966725
-7.01549e-05
6.39019e-05
0.000973032
-0.000950236
-5.81542e-05
5.31844e-05
0.000955259
-0.000938652
-4.78263e-05
4.28339e-05
0.00094369
-0.000930951
-3.80313e-05
3.40557e-05
0.000934964
-0.000925388
-3.03325e-05
2.68681e-05
0.000928882
-0.00092134
-2.37276e-05
2.08087e-05
0.000924284
-0.000918251
-1.80869e-05
1.55571e-05
0.0009208
-0.000915919
-1.33066e-05
1.11227e-05
0.000918118
-0.000913936
-9.30479e-06
7.23173e-06
0.000916019
-0.000912059
-5.21271e-06
3.4338e-06
0.000913844
-0.000910693
-1.80556e-06
3.06175e-07
0.000912193
-0.000909262
1.0424e-06
-2.16643e-06
0.000910381
-0.00090812
3.4395e-06
-4.39081e-06
0.00090906
-0.000906533
4.88221e-06
-6.45849e-06
0.000908093
-0.000906485
7.3632e-06
-6.74683e-06
0.000905847
-0.000906997
9.79994e-06
-1.1954e-05
0.000909125
-0.000907495
1.15874e-05
-1.18969e-05
0.000907773
-0.000906492
1.14305e-05
-1.11546e-05
0.000906182
-0.000905671
1.07166e-05
-9.95228e-06
0.00090487
-0.000904594
9.12348e-06
-8.29688e-06
0.000903729
-0.000904049
7.27171e-06
-6.33468e-06
0.000903074
-0.000906111
5.58762e-06
-4.27523e-06
0.000904761
-0.000903658
2.89866e-06
-1.53192e-06
0.000902255
-0.000908444
2.46085e-07
7.77036e-07
0.000907387
-0.000905486
-1.73089e-06
2.99917e-06
0.000904188
-0.000905345
-4.23062e-06
5.60844e-06
0.000903942
-0.000906603
-6.94787e-06
7.42162e-06
0.00090611
-0.000905269
-8.27419e-06
9.22426e-06
0.000904305
-0.000906156
-1.00942e-05
1.08408e-05
0.000905401
-0.000907311
-1.13762e-05
1.19483e-05
0.000906737
-0.000908405
-1.22753e-05
1.2566e-05
0.000908119
-0.000909777
-1.2502e-05
1.21034e-05
0.000910186
-0.000914499
-1.07453e-05
9.45814e-06
0.000915804
-0.000913086
-9.89387e-06
9.70408e-06
0.0009133
-0.00091381
-8.84757e-06
7.97235e-06
0.000914715
-0.000915387
-6.92664e-06
5.66634e-06
0.000916684
-0.000917047
-4.23295e-06
2.78942e-06
0.000918533
-0.000918835
-1.16804e-06
-5.64205e-07
0.000920615
-0.000920817
2.58284e-06
-4.6148e-06
0.000922901
-0.000922989
6.84304e-06
-9.29711e-06
0.000925499
-0.00092569
1.18614e-05
-1.45643e-05
0.000928452
-0.00092891
1.7601e-05
-2.06966e-05
0.000932066
-0.000933035
2.41538e-05
-2.76971e-05
0.000936639
-0.00093837
3.15288e-05
-3.56902e-05
0.000942591
-0.000945753
4.00718e-05
-4.41221e-05
0.00094986
-0.000955161
4.833e-05
-5.36475e-05
0.000960528
-0.000970083
5.94767e-05
-6.56746e-05
0.000976325
-0.000992388
7.22485e-05
-7.94596e-05
0.000999642
-0.00102647
8.69341e-05
-9.24353e-05
0.00103201
-0.000997878
9.01143e-05
-7.23838e-05
0.000980181
-0.000572866
4.03271e-05
-1.00746e-05
0.000542646
-0.000292104
1.24781e-05
0.000280292
-6.65457e-07
-0.00085673
-3.63023e-05
6.08162e-05
0.000832229
-0.00102909
-7.61419e-05
8.03201e-05
0.00102492
-0.00100904
-7.75647e-05
7.20797e-05
0.00101454
-0.000978831
-6.61911e-05
6.05335e-05
0.000984519
-0.00096033
-5.54754e-05
5.06533e-05
0.000965188
-0.000948055
-4.60877e-05
4.18841e-05
0.000952292
-0.000939442
-3.78909e-05
3.41173e-05
0.000943242
-0.000933214
-3.05359e-05
2.73553e-05
0.000936414
-0.000927386
-2.33214e-05
1.94634e-05
0.000931258
-0.00092344
-1.53676e-05
1.2665e-05
0.000926151
-0.000920227
-1.01244e-05
7.72619e-06
0.00092263
-0.000917721
-5.58647e-06
3.57948e-06
0.000919729
-0.000915762
-1.93125e-06
5.11434e-07
0.000917178
-0.000913723
6.50204e-07
-2.29491e-06
0.000915358
-0.000912027
4.28027e-06
-5.83447e-06
0.000913566
-0.000909807
6.91109e-06
-8.96532e-06
0.000911841
-0.000909234
1.03229e-05
-1.00329e-05
0.000908918
-0.000909216
1.36117e-05
-1.52367e-05
0.00091081
-0.000909433
1.56187e-05
-1.66364e-05
0.000910415
-0.000907437
1.66304e-05
-1.65781e-05
0.000907345
-0.000905729
1.6311e-05
-1.57864e-05
0.000905162
-0.000904007
1.48468e-05
-1.41151e-05
0.000903232
-0.00090267
1.30154e-05
-1.17972e-05
0.000901408
-0.000902409
1.04036e-05
-9.15883e-06
0.00090112
-0.000902543
8.20901e-06
-6.19752e-06
0.000900489
-0.000900536
4.2022e-06
-2.297e-06
0.000898591
-0.000906105
4.68075e-07
1.08388e-06
0.000904516
-0.000902702
-2.66793e-06
4.47643e-06
0.000900862
-0.000901695
-6.32535e-06
8.23351e-06
0.00089976
-0.000906481
-1.02941e-05
1.09456e-05
0.00090581
-0.0009033
-1.20797e-05
1.3377e-05
0.000901989
-0.000904516
-1.45697e-05
1.55931e-05
0.000903486
-0.000906171
-1.6447e-05
1.71033e-05
0.000905513
-0.000907979
-1.75669e-05
1.78506e-05
0.000907702
-0.000911278
-1.79322e-05
1.73448e-05
0.000911878
-0.000915533
-1.60588e-05
1.60976e-05
0.000915514
-0.000913858
-1.56314e-05
1.49135e-05
0.000914602
-0.000915687
-1.3897e-05
1.27425e-05
0.000916874
-0.000917963
-1.14937e-05
1.00174e-05
0.000919477
-0.000920212
-8.45286e-06
6.66927e-06
0.000922037
-0.000922592
-4.79994e-06
2.71731e-06
0.00092472
-0.000925078
-5.51288e-07
-1.82684e-06
0.000927504
-0.00092799
4.29099e-06
-6.86722e-06
0.000930616
-0.000931276
9.63501e-06
-1.2625e-05
0.000934316
-0.000935255
1.57125e-05
-1.90339e-05
0.000938625
-0.000940229
2.24617e-05
-2.61397e-05
0.000943953
-0.000946326
2.88139e-05
-3.21622e-05
0.000949718
-0.00095419
3.65569e-05
-4.09286e-05
0.000958598
-0.000965819
4.56476e-05
-5.03632e-05
0.000970561
-0.00098202
5.56573e-05
-6.10017e-05
0.000987384
-0.00100623
6.67932e-05
-7.26661e-05
0.00101212
-0.00103536
7.79458e-05
-7.95928e-05
0.00103703
-0.000961497
7.27649e-05
-5.38697e-05
0.000942619
-0.000517594
2.75354e-05
-6.48235e-06
0.000496566
-0.000270295
9.18989e-06
0.000261598
-4.63536e-07
-0.000809661
-2.71933e-05
4.79563e-05
0.000788938
-0.00101925
-6.33019e-05
6.99526e-05
0.00101263
-0.00101922
-6.96754e-05
6.60048e-05
0.00102292
-0.000989769
-6.11367e-05
5.60898e-05
0.000994845
-0.000969836
-5.13735e-05
4.69182e-05
0.000974325
-0.000956499
-4.2655e-05
3.85826e-05
0.000960605
-0.000946873
-3.47616e-05
3.0997e-05
0.000950668
-0.000939712
-2.75785e-05
2.40973e-05
0.000943218
-0.000934248
-2.10588e-05
1.79456e-05
0.00093738
-0.000930082
-1.51707e-05
1.25202e-05
0.000932744
-0.000926578
-1.00015e-05
7.49853e-06
0.000929087
-0.000921859
-4.00671e-06
4.30233e-07
0.000925435
-0.000918931
2.99593e-06
-6.40321e-06
0.000922331
-0.000916422
9.24197e-06
-1.10416e-05
0.000918207
-0.000914436
1.23653e-05
-1.29532e-05
0.000915004
-0.000914406
1.22407e-05
-9.89487e-06
0.000912034
-0.000912892
1.76548e-05
-1.98977e-05
0.000915102
-0.000911454
2.07935e-05
-2.18029e-05
0.000912425
-0.000910432
2.16501e-05
-2.16198e-05
0.000910359
-0.000907457
2.25106e-05
-2.27985e-05
0.000907698
-0.000904539
2.24103e-05
-2.18235e-05
0.000903903
-0.000902179
2.085e-05
-1.96338e-05
0.000900913
-0.000899961
1.8172e-05
-1.65419e-05
0.000898281
-0.000899482
1.46912e-05
-1.27312e-05
0.000897472
-0.000898512
1.07989e-05
-8.50634e-06
0.000896172
-0.000896364
5.9814e-06
-3.39949e-06
0.000893738
-0.000902612
8.41741e-07
1.45117e-06
0.00090028
-0.000898696
-3.75788e-06
6.30922e-06
0.000896111
-0.000897627
-8.91188e-06
1.13849e-05
0.000895126
-0.0009044
-1.35919e-05
1.52019e-05
0.000902768
-0.000900427
-1.70915e-05
1.88929e-05
0.000898611
-0.000902289
-2.04866e-05
2.1866e-05
0.000900901
-0.000904745
-2.29905e-05
2.3965e-05
0.000903768
-0.000907363
-2.44812e-05
2.46623e-05
0.000907187
-0.000913157
-2.34973e-05
2.13202e-05
0.000915345
-0.000915129
-2.23594e-05
2.29843e-05
0.000914521
-0.000915404
-2.24757e-05
2.14872e-05
0.000916416
-0.000918141
-2.02717e-05
1.88944e-05
0.000919547
-0.000920982
-1.7409e-05
1.57813e-05
0.000922643
-0.000923758
-1.39582e-05
1.18072e-05
0.000925946
-0.000926741
-9.77547e-06
7.42964e-06
0.000929126
-0.000929917
-4.90843e-06
2.38726e-06
0.000932479
-0.000933415
4.05863e-07
-3.19387e-06
0.000936245
-0.000937302
6.25063e-06
-9.30034e-06
0.000940392
-0.00094201
1.23077e-05
-1.44886e-05
0.00094423
-0.000946523
1.77579e-05
-2.13358e-05
0.000950137
-0.000953631
2.50739e-05
-2.90295e-05
0.000957619
-0.000962958
3.30446e-05
-3.71796e-05
0.000967118
-0.00097529
4.15921e-05
-4.61401e-05
0.000979853
-0.000992555
5.08834e-05
-5.5932e-05
0.000997611
-0.00101756
6.16354e-05
-6.66636e-05
0.00102259
-0.00103724
6.99799e-05
-6.94382e-05
0.00103671
-0.000924128
6.12314e-05
-4.35628e-05
0.000906469
-0.000478449
2.18631e-05
-5.61119e-06
0.000462222
-0.000254097
7.04894e-06
0.000247431
-3.35727e-07
-0.000770147
-2.09434e-05
3.80446e-05
0.000753108
-0.00100491
-5.23224e-05
6.02933e-05
0.000996979
-0.00102577
-6.218e-05
6.00057e-05
0.00102798
-0.000999516
-5.6133e-05
5.1664e-05
0.00100402
-0.000979095
-4.73086e-05
4.34493e-05
0.000982991
-0.000964609
-3.91799e-05
3.51688e-05
0.00096866
-0.000954307
-3.11469e-05
2.7248e-05
0.000958245
-0.000946618
-2.31182e-05
1.97365e-05
0.000950036
-0.00094045
-1.64382e-05
1.32428e-05
0.000943678
-0.000935486
-1.02381e-05
7.33455e-06
0.000938416
-0.000931502
-4.6289e-06
2.02079e-06
0.000934129
-0.000928336
2.75775e-07
-2.26806e-06
0.000930338
-0.000924568
5.06393e-06
-8.06078e-06
0.000927567
-0.000921189
9.7875e-06
-1.20132e-05
0.000923407
-0.000919198
1.53999e-05
-1.68131e-05
0.000920596
-0.000913753
1.68456e-05
-2.66024e-05
0.000923486
-0.000915645
2.69735e-05
-2.86377e-05
0.000917278
-0.0009129
2.92289e-05
-2.98307e-05
0.000913463
-0.000910465
3.01414e-05
-2.98232e-05
0.000910103
-0.000908053
2.89835e-05
-2.9852e-05
0.000908873
-0.00090301
3.03606e-05
-2.98985e-05
0.000902497
-0.000899563
2.86719e-05
-2.71328e-05
0.000897972
-0.0008964
2.52664e-05
-2.30741e-05
0.000894156
-0.000895196
2.05965e-05
-1.79282e-05
0.000892477
-0.000893492
1.51872e-05
-1.20453e-05
0.000890302
-0.000890681
8.60029e-06
-5.01998e-06
0.000887056
-0.000897503
1.42723e-06
1.88216e-06
0.000894154
-0.000893078
-5.222e-06
8.77786e-06
0.000889488
-0.000892197
-1.23726e-05
1.58097e-05
0.000888732
-0.000900663
-1.89168e-05
2.16029e-05
0.000897955
-0.000896499
-2.3931e-05
2.63033e-05
0.000894111
-0.000899317
-2.84286e-05
3.0216e-05
0.000897519
-0.000902771
-3.1655e-05
3.27633e-05
0.000901657
-0.000907252
-3.32329e-05
3.20058e-05
0.00090848
-0.00091654
-2.99686e-05
3.13839e-05
0.000915131
-0.000914268
-3.24768e-05
3.20285e-05
0.00091473
-0.000917417
-3.11025e-05
2.97573e-05
0.000918782
-0.000920962
-2.83618e-05
2.66859e-05
0.000922664
-0.000924628
-2.48845e-05
2.29355e-05
0.000926608
-0.000928056
-2.06825e-05
1.83105e-05
0.000930463
-0.000931526
-1.58564e-05
1.32015e-05
0.000934219
-0.000935247
-1.04873e-05
7.58592e-06
0.000938189
-0.000939261
-4.63786e-06
2.1374e-06
0.000941802
-0.000942712
8.57173e-08
-3.20449e-06
0.000945872
-0.000947706
6.663e-06
-1.00796e-05
0.000951162
-0.000953842
1.37284e-05
-1.74379e-05
0.000957588
-0.00096155
2.14836e-05
-2.59265e-05
0.000966024
-0.000971395
3.01724e-05
-3.50442e-05
0.000976292
-0.000984392
4.05035e-05
-4.52981e-05
0.000989204
-0.00100306
4.95708e-05
-5.31648e-05
0.00100666
-0.00102748
5.60221e-05
-5.90925e-05
0.00103056
-0.00103345
6.05095e-05
-5.71896e-05
0.00103014
-0.000888908
4.69174e-05
-3.11942e-05
0.000873195
-0.00044891
1.46443e-05
-3.21184e-06
0.000437506
-0.000241608
5.52069e-06
0.000236386
-2.51723e-07
-0.000737578
-1.64216e-05
3.03513e-05
0.000723712
-0.00098869
-4.31835e-05
5.15345e-05
0.00098038
-0.00102948
-5.4557e-05
5.38148e-05
0.00103025
-0.00100822
-5.0894e-05
4.71175e-05
0.00101204
-0.000987087
-4.33289e-05
3.92569e-05
0.000991195
-0.000972529
-3.52541e-05
3.12452e-05
0.000976578
-0.000961943
-2.72914e-05
2.31006e-05
0.000966177
-0.000953788
-1.9594e-05
1.61655e-05
0.000957262
-0.000947382
-1.27757e-05
9.56489e-06
0.000950637
-0.000942167
-6.39498e-06
3.403e-06
0.0009452
-0.000936879
3.69269e-07
-4.06199e-06
0.000940607
-0.0009327
7.89201e-06
-1.20527e-05
0.000936887
-0.000929106
1.49808e-05
-1.72996e-05
0.000931443
-0.000927271
1.89923e-05
-1.90421e-05
0.000927329
-0.000920917
1.95873e-05
-3.03866e-05
0.000931715
-0.000923232
3.04146e-05
-3.31449e-05
0.000925949
-0.000919555
3.54155e-05
-3.69781e-05
0.000921095
-0.00091462
3.85775e-05
-4.00451e-05
0.000916056
-0.000909966
4.12686e-05
-4.20008e-05
0.000910659
-0.000907958
4.17389e-05
-4.08287e-05
0.000907004
-0.000902337
4.08201e-05
-4.08123e-05
0.000902283
-0.000896316
3.95297e-05
-3.74958e-05
0.000894235
-0.000891674
3.50622e-05
-3.22111e-05
0.000888778
-0.000889379
2.89278e-05
-2.53039e-05
0.000885712
-0.000886604
2.14433e-05
-1.71783e-05
0.000882298
-0.00088282
1.24158e-05
-7.4603e-06
0.000877827
-0.000890147
2.42439e-06
2.36851e-06
0.00088532
-0.000885243
-7.17998e-06
1.22093e-05
0.000880185
-0.000884717
-1.71718e-05
2.18683e-05
0.000879998
-0.000894725
-2.6094e-05
2.99435e-05
0.000890856
-0.00089169
-3.35157e-05
3.6693e-05
0.000888497
-0.000895471
-3.91715e-05
4.14378e-05
0.000893193
-0.000900622
-4.32092e-05
4.42344e-05
0.000899588
-0.000910069
-4.35326e-05
4.19294e-05
0.000911669
-0.00091331
-4.34165e-05
4.44103e-05
0.00091232
-0.000915513
-4.40474e-05
4.30905e-05
0.000916482
-0.000920099
-4.16998e-05
4.01619e-05
0.000921657
-0.00092454
-3.82481e-05
3.61385e-05
0.000926679
-0.000928869
-3.3796e-05
3.14069e-05
0.000931295
-0.000932943
-2.87167e-05
2.60243e-05
0.000935678
-0.000937068
-2.30572e-05
2.01197e-05
0.000940052
-0.000940949
-1.77785e-05
1.52761e-05
0.000943501
-0.000944447
-1.1912e-05
8.50806e-06
0.000947901
-0.000949423
-4.78117e-06
6.02874e-07
0.000953651
-0.000954981
3.47397e-06
-8.00515e-06
0.00095956
-0.000961569
1.32841e-05
-1.75272e-05
0.000965855
-0.000971466
2.04612e-05
-2.23282e-05
0.000973371
-0.000979396
2.53413e-05
-2.892e-05
0.000983006
-0.000992556
3.23636e-05
-3.62954e-05
0.000996512
-0.00101086
4.04463e-05
-4.44908e-05
0.00101492
-0.00103372
4.83914e-05
-5.12107e-05
0.00103656
-0.00102645
5.1454e-05
-4.72159e-05
0.00102222
-0.000858644
3.75883e-05
-2.42368e-05
0.000845305
-0.00042765
1.11191e-05
-2.43168e-06
0.00041899
-0.000231829
4.345e-06
0.000227753
-1.98869e-07
-0.000710923
-1.29744e-05
2.44264e-05
0.000699559
-0.000972252
-3.54902e-05
4.35414e-05
0.000964253
-0.0010306
-4.73711e-05
4.76274e-05
0.00103038
-0.00101589
-4.55623e-05
4.25878e-05
0.0010189
-0.000995186
-3.88197e-05
3.50699e-05
0.000998973
-0.00098025
-3.10888e-05
2.7156e-05
0.000984224
-0.000969546
-2.29087e-05
1.93572e-05
0.000973145
-0.000961195
-1.58027e-05
1.23952e-05
0.000964656
-0.000954703
-8.87773e-06
5.61355e-06
0.000958023
-0.000948444
-2.23803e-06
-1.72812e-06
0.000952466
-0.000943544
5.78913e-06
-1.01119e-05
0.00094792
-0.000939294
1.4725e-05
-1.81249e-05
0.000942742
-0.000935775
2.09608e-05
-2.31084e-05
0.000937963
-0.000932372
2.36367e-05
-2.47301e-05
0.000933497
-0.000932665
3.73752e-05
-3.96966e-05
0.000935007
-0.000928246
4.26408e-05
-4.43071e-05
0.00092992
-0.000923662
4.5988e-05
-4.80391e-05
0.000925709
-0.000917558
5.05183e-05
-5.26483e-05
0.000919672
-0.000911584
5.40998e-05
-5.51002e-05
0.000912559
-0.000906124
5.56338e-05
-5.5143e-05
0.000905601
-0.000902934
5.36046e-05
-5.34263e-05
0.00090272
-0.000892365
5.34778e-05
-5.1921e-05
0.000890773
-0.000885455
4.90828e-05
-4.55181e-05
0.000881859
-0.000881214
4.10499e-05
-3.50121e-05
0.000875148
-0.000877831
2.75421e-05
-2.33405e-05
0.000873604
-0.000871959
1.79894e-05
-1.12239e-05
0.000865171
-0.000879532
4.09344e-06
2.89989e-06
0.000872521
-0.00087421
-9.90461e-06
1.70241e-05
0.000867076
-0.00087475
-2.37613e-05
2.88257e-05
0.000869673
-0.000885567
-3.24695e-05
4.007e-05
0.000877954
-0.000884768
-4.62965e-05
5.07282e-05
0.000880323
-0.000890819
-5.4249e-05
5.67532e-05
0.000888301
-0.000899254
-5.79778e-05
5.66018e-05
0.000900618
-0.000911453
-5.51186e-05
5.80508e-05
0.000908516
-0.000911885
-5.97388e-05
5.95142e-05
0.000912115
-0.00091768
-5.82581e-05
5.67399e-05
0.000919217
-0.000923567
-5.47509e-05
5.25005e-05
0.000925849
-0.000928973
-4.99478e-05
4.73192e-05
0.000931647
-0.000933968
-4.4449e-05
4.13601e-05
0.000937112
-0.000938746
-3.82902e-05
3.5696e-05
0.000941404
-0.000942387
-3.26254e-05
2.87873e-05
0.000946292
-0.000947165
-2.40017e-05
1.9094e-05
0.000952141
-0.000951916
-1.32439e-05
8.94482e-06
0.000956284
-0.000959258
-6.22592e-06
4.79729e-06
0.000960753
-0.00096221
-1.94556e-06
-1.50923e-06
0.000965726
-0.000968659
4.70067e-06
-8.29114e-06
0.000972305
-0.000976658
1.20466e-05
-1.58896e-05
0.000980549
-0.000986912
1.97842e-05
-2.36721e-05
0.00099084
-0.00100041
2.7619e-05
-3.15766e-05
0.0010044
-0.00101894
3.54596e-05
-3.93248e-05
0.00102283
-0.00103884
4.26986e-05
-4.46979e-05
0.00104086
-0.00101758
4.38995e-05
-3.91916e-05
0.00101289
-0.000832949
3.01837e-05
-1.88568e-05
0.000821634
-0.00041135
8.47508e-06
-1.7855e-06
0.000404681
-0.000224177
3.34708e-06
0.00022103
-1.41751e-07
-0.000689179
-1.02386e-05
1.96476e-05
0.000679851