/*--------------------------------*- C++ -*----------------------------------*\
  =========                 |
  \\      /  F ield         | OpenFOAM: The Open Source CFD Toolbox
   \\    /   O peration     | Website:  https://openfoam.org
    \\  /    A nd           | Version:  7
     \\/     M anipulation  |
\*---------------------------------------------------------------------------*/
FoamFile
{
    version     2.0;
    format      ascii;
    class       volVectorField;
    location    "10";
    object      U;
}
// * * * * * * * * * * * * * * * * * * * * * * * * * * * * * * * * * * * * * //

dimensions      [0 1 -1 0 0 0 0];

internalField   nonuniform List<vector> 
17475
(
(1.01308 0.209395 -1.61199e-20)
(0.994542 0.0201658 -2.56901e-20)
(0.999329 0.0087041 0)
(0.999816 0.00462003 0)
(0.999926 0.00301999 0)
(0.999962 0.00212001 0)
(0.999978 0.00154375 0)
(0.999986 0.00114695 0)
(0.99999 0.000858882 -5.43216e-20)
(0.999992 0.000641328 0)
(0.999994 0.000471672 0)
(0.999995 0.000336466 0)
(0.999996 0.000227042 0)
(0.999996 0.000137786 0)
(0.999997 6.4894e-05 0)
(0.999997 5.97474e-06 0)
(0.999998 -4.07715e-05 0)
(0.999998 -7.64258e-05 0)
(0.999998 -0.00010194 0)
(0.999999 -0.000117911 0)
(0.999999 -0.000125002 -2.06969e-19)
(0.999999 -0.00012383 3.84623e-22)
(1 -0.00011515 0)
(1 -9.96883e-05 -6.5288e-21)
(1 -7.86635e-05 0)
(1 -5.27443e-05 -1.30657e-20)
(1 -2.40041e-05 0)
(1 6.50425e-06 0)
(1 3.72886e-05 -1.63508e-21)
(1 6.68501e-05 5.22153e-20)
(1 9.37103e-05 5.13437e-20)
(1 0.000116463 0)
(1 0.000133881 0)
(1 0.000144824 -5.15468e-20)
(1 0.000148384 -5.14406e-20)
(1 0.000143704 0)
(1 0.000130134 -3.9817e-22)
(1 0.000106958 0)
(0.999999 7.35301e-05 5.05588e-20)
(0.999999 2.88295e-05 2.52292e-20)
(0.999998 -2.77285e-05 -2.51916e-20)
(0.999998 -9.7554e-05 0)
(0.999997 -0.000182763 -2.52702e-20)
(0.999996 -0.000286687 0)
(0.999995 -0.000414195 -1.27726e-20)
(0.999993 -0.000572721 0)
(0.999991 -0.000773534 2.63759e-20)
(0.999987 -0.00103432 0)
(0.999982 -0.0013836 0)
(0.999971 -0.00186897 0)
(0.999954 -0.00257409 0)
(0.999928 -0.00363286 -1.62227e-20)
(0.999875 -0.00520692 3.60584e-20)
(0.99903 -0.00281637 3.95954e-20)
(1.02819 -0.0897825 -3.91915e-20)
(0.873062 0.0823038 1.71022e-20)
(1.09683 0.0972333 0)
(1.03357 0.0598925 0)
(1.01484 0.0380074 0)
(1.00795 0.0255909 -1.24627e-19)
(1.00484 0.0179956 -1.18972e-19)
(1.00322 0.0130356 1.12613e-19)
(1.00229 0.00959276 0)
(1.0017 0.00707713 0)
(1.00132 0.00516351 0)
(1.00104 0.00366162 0)
(1.00084 0.00245646 0)
(1.00068 0.00147545 0)
(1.00055 0.000672243 0)
(1.00044 1.64598e-05 0)
(1.00035 -0.000512015 0)
(1.00026 -0.000926826 0)
(1.00018 -0.00123719 0)
(1.0001 -0.00145019 0)
(1.00003 -0.00157138 0)
(0.999968 -0.00160627 0)
(0.999907 -0.00156062 0)
(0.999853 -0.00144053 2.21258e-19)
(0.999806 -0.0012556 -5.53781e-20)
(0.999769 -0.00101325 -1.11601e-19)
(0.999741 -0.000726411 1.03324e-22)
(0.999724 -0.000408716 -1.40245e-20)
(0.999718 -7.43492e-05 0)
(0.999724 0.00026264 -7.02773e-21)
(0.999741 0.000586676 7.02062e-21)
(0.999769 0.000883452 -1.12227e-19)
(0.999808 0.00113923 1.13663e-19)
(0.999855 0.00134196 0)
(0.999911 0.00148093 -2.21447e-19)
(0.999973 0.00154717 1.72063e-21)
(1.00004 0.00153308 2.18891e-19)
(1.00011 0.00143228 0)
(1.00019 0.00123894 1.08072e-19)
(1.00027 0.000947171 0)
(1.00036 0.000549193 -1.07259e-19)
(1.00046 3.65292e-05 1.06934e-19)
(1.00056 -0.000603506 0)
(1.00069 -0.00138987 0)
(1.00084 -0.00235137 0)
(1.00103 -0.00353126 1.01531e-22)
(1.00129 -0.00499579 5.48562e-20)
(1.00164 -0.00684666 -5.59252e-20)
(1.00214 -0.00924442 -2.8514e-20)
(1.00291 -0.0124488 0)
(1.00413 -0.016896 0)
(1.00616 -0.0233571 0)
(1.00971 -0.0332866 -3.27146e-20)
(1.01606 -0.0499336 3.42704e-20)
(1.0281 -0.0720621 2.18917e-21)
(1.07106 -0.175714 2.96317e-21)
(0.610295 0.0248066 8.59396e-21)
(1.13827 0.107943 -1.22934e-20)
(1.07876 0.0776889 -5.24452e-20)
(1.04194 0.0556152 0)
(1.02535 0.0410054 0)
(1.0165 0.0305935 -1.08198e-19)
(1.01141 0.0230093 0)
(1.00829 0.0173476 0)
(1.00626 0.0130098 0)
(1.00488 0.0096032 2.08476e-19)
(1.0039 0.00687216 0)
(1.00316 0.00464788 0)
(1.00258 0.00281796 0)
(1.00211 0.00130798 0)
(1.00171 6.72801e-05 0)
(1.00135 -0.000938571 -2.08535e-19)
(1.00103 -0.001732 0)
(1.00073 -0.00232925 0)
(1.00045 -0.00274166 0)
(1.00018 -0.00297871 0)
(0.999929 -0.00304919 4.3464e-19)
(0.999698 -0.00296279 0)
(0.999489 -0.00273233 1.65834e-19)
(0.999308 -0.00237007 -1.11338e-19)
(0.99916 -0.00189825 0)
(0.999048 -0.00133849 -2.81311e-20)
(0.998979 -0.000716475 0)
(0.998954 -6.05843e-05 3.52989e-20)
(0.998972 0.000600759 2.12083e-20)
(0.999035 0.00123605 0)
(0.999141 0.00181746 -9.85671e-20)
(0.999286 0.00231729 3.5081e-21)
(0.999464 0.00271222 -1.74707e-21)
(0.999672 0.00298171 -1.10981e-19)
(0.999905 0.00310861 1.10235e-19)
(1.00016 0.00307897 0)
(1.00043 0.00288144 2.1029e-19)
(1.00072 0.00250598 -2.15264e-19)
(1.00102 0.00194249 2.28264e-19)
(1.00135 0.00117848 0)
(1.0017 0.000199514 2.6694e-20)
(1.0021 -0.00101629 -2.72368e-22)
(1.00257 -0.00250095 1.05738e-19)
(1.00313 -0.00430206 -4.02697e-22)
(1.00383 -0.00649026 -5.29848e-20)
(1.00476 -0.00916995 0)
(1.00603 -0.0124973 0)
(1.00785 -0.0167073 2.70522e-20)
(1.01054 -0.0221603 -2.80294e-20)
(1.01472 -0.0294169 -4.61123e-22)
(1.0215 -0.0393671 8.6298e-20)
(1.03301 -0.0534309 -5.92901e-20)
(1.05337 -0.0743174 5.80366e-20)
(1.09868 -0.104105 0)
(0.96337 -0.117947 2.9898e-20)
(0.475429 0.0106201 0)
(1.11458 0.0908306 0)
(1.11538 0.0815353 2.3098e-20)
(1.06744 0.0619868 0)
(1.04388 0.048126 9.97634e-20)
(1.03039 0.0374801 0)
(1.022 0.0291281 0)
(1.01652 0.0224831 0)
(1.01279 0.0171253 0)
(1.01015 0.0127466 0)
(1.00821 0.00912882 0)
(1.00673 0.00611138 0)
(1.00555 0.00358402 2.02451e-19)
(1.00457 0.00146799 0)
(1.00372 -0.00029118 0)
(1.00297 -0.00173012 0)
(1.00228 -0.00287339 0)
(1.00163 -0.00373752 0)
(1.00102 -0.004334 0)
(1.00044 -0.00467224 -2.13953e-19)
(0.999887 -0.00476106 0)
(0.999373 -0.00461328 0)
(0.998906 -0.00424095 -1.10817e-19)
(0.998499 -0.0036689 0)
(0.998163 -0.00292514 -1.69139e-19)
(0.997909 -0.00204375 2.81153e-20)
(0.997749 -0.00106423 -1.13586e-19)
(0.997687 -3.09798e-05 2.22259e-22)
(0.997726 0.0010127 5.69605e-20)
(0.997865 0.00201326 4.2613e-20)
(0.998099 0.00293115 1.13318e-19)
(0.99842 0.00371998 3.5155e-21)
(0.998817 0.00434497 0)
(0.999277 0.00477574 -4.24596e-22)
(0.99979 0.00498767 0)
(1.00034 0.00496187 -1.02038e-19)
(1.00093 0.00468407 -1.07903e-19)
(1.00156 0.00414285 1.07193e-19)
(1.00221 0.00332759 2.12543e-19)
(1.00291 0.00222564 8.60916e-20)
(1.00367 0.000822115 -2.63282e-20)
(1.00451 -0.000906591 -5.21644e-20)
(1.00547 -0.00299475 0)
(1.00663 -0.00549406 0)
(1.00806 -0.00847938 -5.16743e-20)
(1.00991 -0.0120584 5.1646e-20)
(1.01239 -0.0163843 1.29359e-19)
(1.01584 -0.0216748 2.6266e-20)
(1.02081 -0.0282362 -1.60846e-22)
(1.02821 -0.0364968 -2.58147e-20)
(1.03961 -0.0470539 1.03698e-19)
(1.05781 -0.0607147 -7.70116e-20)
(1.08914 -0.0792583 7.21648e-20)
(1.1323 -0.100479 4.63751e-20)
(0.813247 -0.061714 -1.35663e-20)
(0.396327 0.00510792 0)
(1.05851 0.0685999 -2.22725e-20)
(1.13812 0.0772274 4.31018e-20)
(1.08992 0.0622815 4.52251e-20)
(1.06101 0.0500257 4.63327e-20)
(1.04415 0.0401515 9.42375e-20)
(1.0332 0.0319551 -9.48442e-20)
(1.02572 0.0250925 -9.56545e-20)
(1.02042 0.0193051 0)
(1.01654 0.0143948 -1.93119e-19)
(1.01359 0.010207 -3.88279e-19)
(1.01128 0.00662315 -1.95447e-19)
(1.0094 0.00355649 -1.97006e-19)
(1.00781 0.000943837 0)
(1.00642 -0.00126034 0)
(1.00516 -0.00308448 0)
(1.00399 -0.00454675 -4.15069e-19)
(1.00287 -0.00565711 -2.68472e-21)
(1.00181 -0.00642126 -4.2562e-19)
(1.00078 -0.00684276 -2.14243e-19)
(0.999803 -0.0069289 -5.42257e-20)
(0.998881 -0.00668389 1.09708e-19)
(0.998039 -0.0061291 -1.11091e-19)
(0.9973 -0.00529129 1.12229e-19)
(0.996686 -0.00420787 0)
(0.99622 -0.00292443 -5.76054e-20)
(0.995922 -0.0014974 1.15018e-19)
(0.995804 8.43526e-06 0)
(0.995873 0.00153046 -2.87905e-20)
(0.996125 0.00298884 -1.44122e-20)
(0.996549 0.00432803 -1.1423e-19)
(0.997131 0.00547995 1.0654e-20)
(0.997847 0.00639621 0)
(0.998674 0.00703657 1.18583e-19)
(0.999589 0.00737017 0)
(1.00057 0.00737531 0)
(1.00161 0.00703819 -2.14471e-19)
(1.00269 0.00635106 -5.19367e-20)
(1.00382 0.00530524 1.11683e-19)
(1.00501 0.00389596 9.80674e-20)
(1.00628 0.00211424 -1.16271e-19)
(1.00767 -5.62754e-05 -1.02676e-19)
(1.00924 -0.00264285 -1.26983e-19)
(1.01109 -0.00568624 7.57029e-20)
(1.01334 -0.00924813 1.00135e-19)
(1.01618 -0.0134139 -2.46538e-20)
(1.01989 -0.0182996 0)
(1.0249 -0.0240612 -4.92704e-20)
(1.03185 -0.0308985 -4.89521e-20)
(1.04181 -0.0390647 -2.46053e-20)
(1.05649 -0.0488561 -2.33977e-20)
(1.07893 -0.0606337 -6.94971e-20)
(1.11622 -0.0755685 -4.29533e-20)
(1.1223 -0.0830025 0)
(0.693307 -0.0302915 7.22302e-20)
(0.348557 0.00283886 0)
(0.995524 0.0504417 0)
(1.14553 0.0691323 -8.06333e-20)
(1.10879 0.059562 -8.3594e-20)
(1.07632 0.0489325 0)
(1.05698 0.0400468 0)
(1.04416 0.0323638 8.89047e-20)
(1.03513 0.0256547 0)
(1.02854 0.0197798 0)
(1.02356 0.0146238 0)
(1.01968 0.0100933 -1.86493e-19)
(1.01656 0.00611559 -1.8889e-19)
(1.01395 0.00263482 0)
(1.01171 -0.000390017 0)
(1.0097 -0.00298334 -2.66983e-21)
(1.00786 -0.0051602 0)
(1.00611 -0.00692381 8.14237e-19)
(1.00442 -0.00827193 8.30496e-19)
(1.00278 -0.00919644 -4.22456e-19)
(1.00118 -0.00969354 2.12119e-19)
(0.999628 -0.00975078 2.70514e-19)
(0.998157 -0.00937582 -5.52609e-20)
(0.9968 -0.00858419 3.35683e-19)
(0.995597 -0.00740555 -5.62556e-20)
(0.99459 -0.00588521 2.72714e-22)
(0.993821 -0.00408223 -1.15478e-19)
(0.993326 -0.00207535 1.46787e-19)
(0.993127 4.53049e-05 1.16576e-19)
(0.993239 0.00219017 -5.19829e-22)
(0.993652 0.00424458 5.82431e-20)
(0.994348 0.00612961 5.78094e-20)
(0.995298 0.00775114 0)
(0.996461 0.00904368 -1.02372e-19)
(0.997794 0.0099569 0)
(0.999256 0.0104551 0)
(1.00081 0.0105179 1.36049e-19)
(1.00243 0.0101381 -1.08197e-19)
(1.00411 0.00931405 0)
(1.00582 0.0080475 6.50898e-21)
(1.0076 0.00634847 0)
(1.00947 0.00421999 0)
(1.01148 0.0016612 -1.13002e-19)
(1.01372 -0.00134116 1.24366e-20)
(1.01629 -0.00480732 2.01029e-22)
(1.01935 -0.00877608 -1.19261e-20)
(1.02312 -0.0133006 -1.19235e-19)
(1.02791 -0.0184518 -1.16313e-20)
(1.0342 -0.024322 1.04554e-19)
(1.04268 -0.0310187 -9.18522e-20)
(1.05443 -0.0386567 0)
(1.07121 -0.0473554 4.33625e-20)
(1.09639 -0.0573377 8.03856e-22)
(1.13324 -0.0687621 -4.0055e-20)
(1.08878 -0.065035 -6.05393e-20)
(0.612093 -0.0167461 0)
(0.317245 0.00186442 7.99593e-21)
(0.937283 0.0374067 -2.07032e-20)
(1.14087 0.0599631 3.72941e-20)
(1.12358 0.055418 0)
(1.08992 0.0463258 0)
(1.06871 0.0382972 -8.08336e-20)
(1.05455 0.0311631 0)
(1.04438 0.0247296 -1.68659e-19)
(1.03678 0.0189106 -1.7148e-19)
(1.0309 0.0136525 0)
(1.02622 0.00890137 -8.9039e-20)
(1.02236 0.00463139 1.81484e-19)
(1.01907 0.000809537 -3.68844e-19)
(1.01618 -0.00257993 0)
(1.01353 -0.00554145 0)
(1.01104 -0.0080685 0)
(1.00864 -0.0101451 -3.10017e-21)
(1.00627 -0.0117474 0)
(1.00393 -0.0128547 0)
(1.0016 -0.0134298 2.10815e-19)
(0.999324 -0.0134549 4.67415e-22)
(0.997131 -0.0129205 0)
(0.995082 -0.0118329 0)
(0.993244 -0.01022 3.45127e-19)
(0.99169 -0.00813268 2.33551e-19)
(0.990493 -0.00564436 2.96139e-20)
(0.989716 -0.00287311 0)
(0.989401 6.66782e-05 2.39526e-19)
(0.98957 0.00304405 8.94281e-20)
(0.990214 0.00588903 -2.80514e-22)
(0.991293 0.00849413 0)
(0.992758 0.0107328 0)
(0.994537 0.012511 6.30582e-21)
(0.996555 0.0137706 0)
(0.998741 0.0144752 0)
(1.00104 0.0146115 5.16013e-24)
(1.0034 0.0141879 -2.10508e-19)
(1.00579 0.0132106 -1.05365e-19)
(1.00821 0.0117072 1.02419e-19)
(1.01066 0.00970637 6.22247e-21)
(1.01319 0.00723291 -9.8071e-20)
(1.01587 0.00430292 7.29881e-22)
(1.01877 0.000927196 6.45931e-22)
(1.02203 -0.00289358 1.18401e-20)
(1.02582 -0.00717107 -8.08322e-20)
(1.03039 -0.0119282 0)
(1.03607 -0.017197 -1.0058e-19)
(1.04333 -0.023016 0)
(1.0529 -0.0294308 -4.28268e-20)
(1.06585 -0.0364914 0)
(1.08399 -0.0442455 4.08417e-20)
(1.11087 -0.0528858 -1.91983e-22)
(1.14086 -0.0609951 -1.81006e-20)
(1.04764 -0.0504661 -5.671e-20)
(0.55698 -0.0106601 2.76822e-20)
(0.295063 0.00138121 0)
(0.887354 0.0283351 -1.93783e-20)
(1.12853 0.0511433 0)
(1.13422 0.050648 0)
(1.10207 0.0430523 3.59795e-20)
(1.07952 0.0356828 5.33371e-22)
(1.06437 0.0289961 0)
(1.05338 0.0228149 -7.80385e-20)
(1.04502 0.0170777 -1.60692e-19)
(1.03845 0.0117606 0)
(1.0331 0.00683399 0)
(1.02861 0.00229525 0)
(1.0247 -0.0018586 0)
(1.02118 -0.00561915 -2.70505e-19)
(1.0179 -0.00896977 -9.1774e-20)
(1.01474 -0.0118832 0)
(1.01162 -0.0143211 1.20901e-20)
(1.00848 -0.0162453 2.96337e-19)
(1.0053 -0.0175861 -9.28398e-22)
(1.00209 -0.0182913 -1.05127e-19)
(0.998882 -0.0183081 0)
(0.995746 -0.0176062 1.10614e-19)
(0.992767 -0.0161682 -2.39979e-22)
(0.990059 -0.0140137 1.18348e-19)
(0.987738 -0.0111936 0)
(0.985931 -0.00779851 -6.04046e-20)
(0.984749 -0.00399526 -6.15534e-20)
(0.984262 5.78287e-05 1.2447e-19)
(0.984513 0.00416856 6.20164e-20)
(0.985484 0.0080848 -1.21667e-19)
(0.98711 0.0116553 0)
(0.989299 0.0147015 -1.48511e-20)
(0.991927 0.0170984 -1.16213e-19)
(0.994873 0.0187814 1.41641e-20)
(0.998014 0.0197186 1.26212e-21)
(1.00126 0.0199186 2.10662e-19)
(1.00455 0.0194106 1.05827e-19)
(1.0078 0.0182222 1.02718e-19)
(1.01102 0.0164215 -9.90274e-20)
(1.01423 0.014063 0)
(1.01746 0.0111994 1.0054e-19)
(1.02079 0.00787075 0)
(1.02433 0.00411314 0)
(1.02822 -5.13124e-05 -9.02294e-20)
(1.03264 -0.00461062 0)
(1.03786 -0.00956014 4.23009e-20)
(1.04422 -0.0149003 8.38471e-20)
(1.0522 -0.0206439 2.10707e-20)
(1.06252 -0.026808 -7.97133e-20)
(1.07626 -0.0334074 0)
(1.09537 -0.0404938 3.81657e-20)
(1.12283 -0.0481328 0)
(1.14105 -0.0532378 -1.62078e-20)
(1.00655 -0.0393695 3.49162e-20)
(0.516844 -0.00759673 0)
(0.278421 0.00103583 0)
(0.845811 0.0218784 -1.79674e-20)
(1.11216 0.0431712 -3.08013e-20)
(1.14108 0.0456066 3.10635e-20)
(1.11295 0.039489 -3.20792e-20)
(1.08965 0.0326589 -6.70513e-20)
(1.07375 0.0262898 0)
(1.06218 0.0202897 0)
(1.05328 0.0145905 0)
(1.0462 0.00919468 0)
(1.04034 0.0040764 1.57046e-19)
(1.03534 -0.000745476 0)
(1.0309 -0.00526315 -3.33351e-19)
(1.02681 -0.00944673 0)
(1.02291 -0.0132603 0)
(1.01907 -0.0166583 3.41579e-19)
(1.01519 -0.0195747 2.78823e-19)
(1.01117 -0.0219289 -9.8726e-20)
(1.00702 -0.0236269 -9.99331e-20)
(1.00274 -0.0245728 1.03742e-19)
(0.998359 -0.0246653 4.3209e-19)
(0.993983 -0.023827 2.24319e-19)
(0.98975 -0.0220089 -1.14646e-19)
(0.985827 -0.0191963 0)
(0.98241 -0.015432 1.90423e-21)
(0.979716 -0.0108266 6.22224e-20)
(0.97793 -0.00561052 -6.24229e-20)
(0.977184 -1.42854e-05 -1.61173e-19)
(0.977555 0.00567295 4.91016e-22)
(0.979003 0.0110675 0)
(0.981424 0.0159461 -6.17028e-20)
(0.984654 0.0200533 -1.19962e-19)
(0.988473 0.0232253 1.16519e-19)
(0.992685 0.0253973 -1.12949e-19)
(0.997095 0.0265584 -1.38307e-19)
(1.00157 0.026763 -2.12725e-19)
(1.00599 0.0260602 5.15519e-20)
(1.01026 0.0245412 2.48565e-20)
(1.0144 0.0223195 0)
(1.01841 0.0194898 0)
(1.02236 0.0161358 -5.75242e-21)
(1.02633 0.0123276 1.78029e-19)
(1.03045 0.00812596 8.74476e-20)
(1.03489 0.00357348 0)
(1.03983 -0.00129129 8.29967e-20)
(1.04555 -0.00645367 1.96293e-20)
(1.05241 -0.011902 -2.01238e-20)
(1.06088 -0.0176238 4.76731e-21)
(1.07171 -0.0236349 7.19896e-20)
(1.08603 -0.0299425 2.83104e-19)
(1.10586 -0.0366037 1.36777e-19)
(1.13254 -0.0434004 -3.17209e-20)
(1.13597 -0.0459742 -3.17421e-20)
(0.969364 -0.0311315 -5.05886e-20)
(0.487297 -0.00577918 9.96638e-20)
(0.265513 0.000753703 0)
(0.811715 0.0171184 -3.33385e-20)
(1.09428 0.0361293 2.7978e-20)
(1.1447 0.0404576 -2.74205e-20)
(1.12257 0.0357542 5.7608e-20)
(1.09926 0.0294385 6.14881e-20)
(1.08285 0.0233049 -1.2736e-19)
(1.07088 0.017408 8.51148e-22)
(1.06163 0.0116919 -6.82675e-20)
(1.0542 0.00616103 -1.43057e-19)
(1.04798 0.000799072 -1.46281e-19)
(1.0426 -0.00436826 0)
(1.03775 -0.0093197 1.55817e-19)
(1.03318 -0.0140179 0)
(1.02873 -0.0184072 -3.46396e-19)
(1.02424 -0.0224316 -4.20004e-20)
(1.01956 -0.0260011 -1.79898e-19)
(1.0146 -0.0289908 2.82723e-19)
(1.00934 -0.0312587 -3.89814e-19)
(1.00377 -0.0326535 0)
(0.997918 -0.0330066 2.1407e-19)
(0.991908 -0.0321459 -3.34136e-19)
(0.985957 -0.0299714 1.16154e-19)
(0.980307 -0.0263958 0)
(0.975287 -0.0214322 -1.2529e-19)
(0.971251 -0.0151911 6.33855e-20)
(0.968543 -0.00800509 1.34541e-19)
(0.967387 -0.000216974 1.32872e-19)
(0.967932 0.00772432 -1.33431e-19)
(0.970112 0.0152051 0)
(0.973727 0.0218821 0)
(0.978491 0.0273793 1.53617e-19)
(0.984027 0.0314954 1.92179e-21)
(0.989994 0.0341803 -2.00523e-19)
(0.996108 0.03549 -3.29467e-19)
(1.00215 0.0355339 5.27645e-20)
(1.00795 0.0344263 -2.52032e-20)
(1.01342 0.0323637 0)
(1.01856 0.0295145 0)
(1.02342 0.0260244 7.94843e-20)
(1.02807 0.0220173 9.7264e-20)
(1.03264 0.0175951 -9.05624e-21)
(1.03726 0.0128453 0)
(1.04213 0.00782671 -7.96068e-20)
(1.04746 0.00258035 5.6784e-20)
(1.05353 -0.00286637 1.48391e-19)
(1.06074 -0.00849583 0)
(1.06954 -0.0142801 0)
(1.08071 -0.0202318 4.18822e-21)
(1.0954 -0.0263723 -9.64531e-20)
(1.11564 -0.0327574 9.26803e-20)
(1.14004 -0.0387582 -1.51195e-20)
(1.12788 -0.0393379 1.29343e-19)
(0.937583 -0.0248286 -1.27669e-19)
(0.465569 -0.00459366 2.02197e-19)
(0.255409 0.000521838 0)
(0.783873 0.0134932 -1.52878e-20)
(1.0765 0.0299843 3.80374e-20)
(1.14575 0.0353606 -2.47033e-20)
(1.1309 0.0319299 -5.27859e-20)
(1.1084 0.0261438 -1.1019e-19)
(1.09175 0.0202072 -5.81632e-20)
(1.07957 0.0143581 -6.07515e-20)
(1.07014 0.00857128 0)
(1.06255 0.0028507 0)
(1.05614 -0.00281462 0)
(1.05053 -0.00840488 0)
(1.0454 -0.0138886 7.20385e-20)
(1.04049 -0.0192236 -1.49566e-19)
(1.0356 -0.0243499 0)
(1.03052 -0.0292201 1.23823e-19)
(1.02509 -0.033687 -8.44438e-20)
(1.01916 -0.0375955 4.07815e-21)
(1.01267 -0.0407637 1.92285e-19)
(1.00558 -0.0429616 2.78286e-21)
(0.997902 -0.0439242 2.14847e-19)
(0.989748 -0.0433406 -2.24534e-19)
(0.981403 -0.0409538 0)
(0.973253 -0.0365805 -1.26471e-19)
(0.965819 -0.0301284 -1.33508e-19)
(0.959683 -0.0216831 0)
(0.955486 -0.0116622 -1.41928e-19)
(0.953656 -0.000654134 1.82212e-19)
(0.954473 0.0105985 3.60178e-20)
(0.957824 0.021115 -1.903e-19)
(0.96333 0.030319 -6.77986e-20)
(0.970429 0.0376161 -1.10675e-19)
(0.978492 0.0428113 1.20534e-19)
(0.986941 0.0459306 0)
(0.99536 0.0471648 2.18395e-19)
(1.00339 0.0466937 -2.60621e-20)
(1.01084 0.0448276 2.47132e-20)
(1.01767 0.0418733 0)
(1.02389 0.0380784 2.25205e-20)
(1.02958 0.0336528 1.07508e-19)
(1.03488 0.028767 0)
(1.03994 0.0235537 -7.90836e-20)
(1.04494 0.018107 -7.49289e-20)
(1.05011 0.0124938 0)
(1.05569 0.00676721 7.01672e-20)
(1.06196 0.000962917 -3.39713e-20)
(1.06932 -0.00490741 0)
(1.07827 -0.010833 -3.13621e-20)
(1.08959 -0.0168177 -6.157e-20)
(1.10451 -0.0228869 -5.93761e-20)
(1.12476 -0.0290468 2.87713e-20)
(1.1456 -0.0342619 8.05756e-20)
(1.11818 -0.0333922 5.33779e-20)
(0.910597 -0.0198988 -1.05064e-19)
(0.448839 -0.00364914 -6.69321e-20)
(0.247533 0.000281662 0)
(0.761174 0.0106402 0)
(1.05976 0.0246699 0)
(1.14491 0.0304628 0)
(1.13797 0.028115 0)
(1.11706 0.0228747 0)
(1.10051 0.0171328 0)
(1.08832 0.0113075 0)
(1.07891 0.00541404 1.1431e-19)
(1.07131 -0.000543389 0)
(1.06491 -0.00656673 -1.21938e-19)
(1.05926 -0.0126539 0)
(1.05405 -0.0187688 0)
(1.04898 -0.0248839 2.79707e-19)
(1.04383 -0.0309529 0)
(1.03832 -0.0369081 0)
(1.03226 -0.0425988 0)
(1.02543 -0.0478457 1.7206e-19)
(1.01767 -0.052403 -1.78951e-19)
(1.00887 -0.0559623 0)
(0.99898 -0.0581323 -1.03954e-19)
(0.988065 -0.058424 -2.34062e-19)
(0.976387 -0.0562698 0)
(0.964539 -0.051257 -1.27719e-19)
(0.953327 -0.0430664 3.95421e-21)
(0.943757 -0.0316256 -4.41923e-19)
(0.93702 -0.0174418 -1.57127e-19)
(0.934021 -0.00151333 -1.22627e-21)
(0.935293 0.0148257 -7.76236e-20)
(0.940636 0.0299086 9.33822e-21)
(0.949279 0.0426922 1.39825e-19)
(0.9601 0.0522865 1.64441e-20)
(0.971974 0.0585637 3.85566e-21)
(0.983994 0.0618011 -6.87845e-19)
(0.995475 0.0623791 1.58981e-19)
(1.00596 0.0607751 2.51491e-20)
(1.01535 0.0575578 4.73077e-20)
(1.02363 0.0531777 2.2017e-20)
(1.0309 0.0479875 2.01509e-20)
(1.03734 0.0422646 -2.36146e-19)
(1.04315 0.0362109 -2.18335e-19)
(1.04853 0.0299802 -2.97856e-19)
(1.05373 0.0236694 -6.91901e-20)
(1.059 0.0173407 0)
(1.0646 0.0110415 1.63998e-20)
(1.07087 0.00479956 0)
(1.07822 -0.00138364 -2.95551e-20)
(1.08716 -0.00750251 -2.82941e-20)
(1.09849 -0.0135683 -1.38008e-20)
(1.11346 -0.0196124 5.31663e-20)
(1.13325 -0.0255429 0)
(1.1495 -0.0300009 0)
(1.10791 -0.0281519 0)
(0.887948 -0.0159777 1.32845e-20)
(0.435967 -0.0028602 6.29459e-20)
(0.241446 0.000118876 0)
(0.742806 0.0083698 0)
(1.04458 0.02015 1.04479e-20)
(1.14279 0.0259195 1.99073e-20)
(1.14384 0.0244341 0)
(1.12522 0.0197428 0)
(1.10912 0.0142117 4.55827e-20)
(1.09715 0.00841437 0)
(1.08794 0.00240463 1.0124e-19)
(1.08055 -0.00380906 0)
(1.07435 -0.010225 -2.17123e-19)
(1.0689 -0.0168572 -5.56829e-20)
(1.06385 -0.0236853 2.3499e-19)
(1.05889 -0.0307059 5.16416e-19)
(1.05374 -0.037921 -1.32175e-19)
(1.04811 -0.0452333 3.57319e-20)
(1.04169 -0.0525264 7.23266e-20)
(1.03419 -0.0596256 0)
(1.02531 -0.0662603 0)
(1.01476 -0.0720274 0)
(1.00235 -0.0764025 1.00385e-19)
(0.987975 -0.0786577 -1.18151e-19)
(0.971796 -0.0778209 -7.28424e-19)
(0.954416 -0.072839 1.30995e-19)
(0.937112 -0.0629199 -2.95597e-19)
(0.921624 -0.0474789 -6.37904e-19)
(0.910254 -0.0269795 2.56311e-19)
(0.905067 -0.00310494 -1.77779e-19)
(0.907168 0.0214078 -1.72712e-19)
(0.916157 0.0437043 -2.25793e-20)
(0.930326 0.0616232 -7.68514e-20)
(0.947336 0.073941 -1.40396e-19)
(0.965123 0.0809011 -2.56967e-19)
(0.982215 0.0833074 -4.68856e-19)
(0.99764 0.0820738 1.03099e-19)
(1.01107 0.0782817 -9.81695e-20)
(1.02253 0.0727817 6.83422e-20)
(1.03219 0.0662162 -2.47456e-19)
(1.04034 0.0590358 -7.89897e-20)
(1.04728 0.0515685 -7.10868e-20)
(1.0533 0.0440271 1.39692e-19)
(1.0587 0.036542 0)
(1.06379 0.0292039 -4.71216e-20)
(1.06889 0.0220492 0)
(1.0743 0.0151083 0)
(1.08037 0.0083786 2.8782e-20)
(1.08752 0.00185206 4.11782e-20)
(1.09627 -0.00448366 2.50738e-20)
(1.10744 -0.0106474 2.4002e-20)
(1.12225 -0.0166596 2.29507e-20)
(1.14107 -0.022322 0)
(1.15203 -0.0260611 -1.15619e-20)
(1.09773 -0.0236169 -2.25244e-20)
(0.868985 -0.0128659 5.14946e-20)
(0.426124 -0.00223514 -1.67792e-19)
(0.236783 4.89567e-05 0)
(0.727968 0.00656952 -1.1162e-20)
(1.03117 0.0163588 0)
(1.1399 0.0218315 0)
(1.14864 0.0210114 3.6025e-20)
(1.1328 0.0168562 3.83712e-20)
(1.11753 0.0115663 -2.00551e-20)
(1.10601 0.00581915 0)
(1.09723 -0.000276819 2.1844e-20)
(1.09025 -0.00672017 -4.48473e-20)
(1.08449 -0.0135115 0)
(1.0795 -0.0206893 -4.76304e-20)
(1.07491 -0.0282672 -1.63638e-21)
(1.07041 -0.0362934 -3.98064e-20)
(1.06565 -0.0447784 2.58367e-20)
(1.06034 -0.0536871 -4.27288e-21)
(1.05407 -0.0629662 1.32015e-19)
(1.04641 -0.0724829 0)
(1.03686 -0.0820229 3.00622e-19)
(1.02495 -0.0911842 -9.62524e-22)
(1.01006 -0.0993123 0)
(0.991723 -0.105443 -3.13886e-19)
(0.969731 -0.108113 -1.16683e-19)
(0.944283 -0.105224 5.29161e-19)
(0.916889 -0.0945398 4.67386e-21)
(0.890633 -0.0742173 0)
(0.870128 -0.0437969 1.80711e-19)
(0.86041 -0.00625427 -1.07659e-19)
(0.864196 0.0326834 9.82787e-20)
(0.880518 0.0670122 -3.68335e-19)
(0.905154 0.092178 1.5806e-19)
(0.932851 0.106949 2.91409e-19)
(0.959868 0.112967 4.98985e-19)
(0.983846 0.112261 -1.08042e-19)
(1.00403 0.107141 -1.08535e-19)
(1.02058 0.0994161 8.74657e-20)
(1.0339 0.0902876 -3.17522e-19)
(1.04454 0.0805536 2.32334e-19)
(1.05305 0.0706926 7.07144e-20)
(1.05992 0.0610061 0)
(1.06565 0.051663 8.75786e-20)
(1.07064 0.0427431 -2.53351e-20)
(1.07527 0.0342734 0)
(1.0799 0.0262416 -5.15649e-20)
(1.08486 0.0186313 -5.20753e-20)
(1.09049 0.0114192 4.84746e-20)
(1.09723 0.00455981 -1.20526e-19)
(1.10562 -0.0019682 -4.6691e-20)
(1.11646 -0.00820328 2.17692e-20)
(1.13086 -0.0141428 2.0841e-20)
(1.14817 -0.0194757 -9.96732e-21)
(1.1534 -0.022541 -2.93895e-20)
(1.08781 -0.0197572 4.83273e-21)
(0.852634 -0.0103782 -5.63095e-21)
(0.417747 -0.00178845 0)
(0.233223 -6.62147e-05 0)
(0.716029 0.0051674 0)
(1.01949 0.0132601 -1.57346e-20)
(1.13661 0.0182879 0)
(1.15248 0.0179569 -1.52548e-20)
(1.13979 0.0143234 1.58888e-20)
(1.12568 0.00932668 3.30849e-20)
(1.11483 0.00369636 0)
(1.10666 -0.00242366 7.12574e-20)
(1.10032 -0.00902133 0)
(1.09523 -0.0161315 -1.53635e-19)
(1.09098 -0.0237966 -7.94966e-20)
(1.0872 -0.0320886 -2.58292e-21)
(1.08355 -0.041059 -8.98677e-20)
(1.07971 -0.050843 8.98428e-20)
(1.07533 -0.0614536 9.84102e-20)
(1.06996 -0.072963 -4.90452e-20)
(1.06304 -0.0853853 -1.71106e-19)
(1.05389 -0.0986694 -5.69034e-20)
(1.04168 -0.112569 1.37558e-19)
(1.0253 -0.126602 0)
(1.00344 -0.139695 -1.06475e-20)
(0.974785 -0.14994 2.12191e-19)
(0.938421 -0.154123 0)
(0.89456 -0.146944 0)
(0.84755 -0.122352 3.85684e-19)
(0.807144 -0.0761673 -5.93484e-21)
(0.786853 -0.0128268 6.86647e-21)
(0.79456 0.0541799 -4.83279e-19)
(0.827466 0.109851 4.20398e-19)
(0.873583 0.144486 3.49654e-19)
(0.920231 0.158711 5.82693e-19)
(0.96082 0.158745 4.05622e-19)
(0.99327 0.15032 2.10385e-19)
(1.01834 0.137745 0)
(1.03728 0.123539 0)
(1.05139 0.109083 1.77762e-19)
(1.06186 0.0950793 1.57695e-21)
(1.06969 0.0818884 -6.54138e-20)
(1.07569 0.0696302 -5.07552e-20)
(1.08045 0.0583292 -9.86649e-20)
(1.0845 0.0479213 7.2078e-20)
(1.08822 0.0383302 0)
(1.092 0.0294709 2.27213e-20)
(1.09618 0.0212698 -2.11159e-20)
(1.10112 0.013645 0)
(1.10725 0.006532 0)
(1.11507 -0.000118498 -1.78686e-21)
(1.12539 -0.00635139 0)
(1.1391 -0.0121416 0)
(1.15446 -0.0170871 -2.46173e-22)
(1.15389 -0.0195426 0)
(1.07859 -0.0166116 -2.45309e-20)
(0.838902 -0.0084699 0)
(0.410516 -0.0014153 -3.49862e-20)
(0.230366 -7.92605e-05 0)
(0.70647 0.00414225 1.99167e-21)
(1.00952 0.0108135 1.63589e-21)
(1.13322 0.0153421 0)
(1.1555 0.0153617 1.55096e-21)
(1.1461 0.0122281 0)
(1.13343 0.00758579 0)
(1.12346 0.00215953 0)
(1.11608 -0.00386947 0)
(1.11057 -0.0105003 0)
(1.10639 -0.017772 0)
(1.10315 -0.025761 0)
(1.10051 -0.0345643 0)
(1.09815 -0.0443528 9.91895e-20)
(1.0958 -0.0552572 -3.54046e-20)
(1.0931 -0.0674215 -7.50138e-20)
(1.08961 -0.0810948 -7.70064e-20)
(1.08474 -0.096524 4.67946e-21)
(1.07771 -0.113995 -5.70605e-20)
(1.06742 -0.133745 -3.06035e-21)
(1.0522 -0.155854 2.61622e-19)
(1.02965 -0.179963 -1.74227e-19)
(0.996389 -0.204615 0)
(0.948036 -0.226154 2.12222e-19)
(0.879869 -0.235934 -1.21869e-18)
(0.791905 -0.216225 7.78717e-19)
(0.703213 -0.14671 5.12636e-19)
(0.654525 -0.028494 2.06347e-18)
(0.672625 0.101681 0)
(0.748398 0.197881 9.12407e-19)
(0.841873 0.239257 -1.25323e-18)
(0.921027 0.23993 -3.73853e-19)
(0.978636 0.221634 -1.04033e-19)
(1.01868 0.197098 -5.44032e-19)
(1.04599 0.171821 4.28359e-21)
(1.0644 0.148085 4.15662e-19)
(1.07676 0.126707 -3.29129e-20)
(1.08512 0.107712 1.55285e-19)
(1.0908 0.0909603 4.75253e-20)
(1.09474 0.0761496 8.22935e-20)
(1.09767 0.0630115 0)
(1.10008 0.0512988 2.02335e-20)
(1.1024 0.0407868 2.97886e-20)
(1.10498 0.0312813 3.17007e-20)
(1.1081 0.0226638 -1.76163e-20)
(1.11212 0.0147893 5.74298e-20)
(1.11743 0.00756264 -1.39375e-20)
(1.12453 0.000910384 -6.64296e-20)
(1.13416 -0.00519985 -6.96968e-21)
(1.14692 -0.0107295 -1.47563e-20)
(1.15997 -0.015214 -1.35075e-20)
(1.15364 -0.0170979 7.55721e-21)
(1.07001 -0.0141322 7.36965e-21)
(0.827193 -0.00707562 8.53833e-22)
(0.404477 -0.0011968 1.57386e-20)
(0.227702 3.22368e-05 3.54891e-20)
(0.698563 0.00349631 -5.07006e-20)
(1.001 0.00897403 1.42876e-22)
(1.12989 0.0129772 1.91947e-20)
(1.15786 0.0132591 -1.90243e-20)
(1.15176 0.0106337 -1.94947e-20)
(1.14072 0.00643941 0)
(1.1318 0.0013467 4.03036e-23)
(1.12538 -0.00445221 -1.02525e-20)
(1.12084 -0.010943 5.14621e-21)
(1.11773 -0.0181732 -5.13681e-21)
(1.11571 -0.0262385 -5.11846e-21)
(1.11449 -0.0352648 2.72529e-21)
(1.11382 -0.0454638 9.73374e-21)
(1.11349 -0.0570306 2.04011e-20)
(1.11323 -0.0702307 3.98786e-20)
(1.1127 -0.0854902 1.41408e-19)
(1.11144 -0.103319 2.95358e-20)
(1.10879 -0.124436 0)
(1.10373 -0.14985 0)
(1.09465 -0.180766 -7.24936e-20)
(1.07846 -0.218813 2.99875e-20)
(1.04998 -0.265732 -3.33429e-19)
(0.999705 -0.322518 1.64053e-19)
(0.908159 -0.384053 -2.18754e-19)
(0.743659 -0.412619 0)
(0.524492 -0.32517 3.29051e-18)
(0.388556 -0.0716976 -1.13862e-18)
(0.438861 0.226816 -4.78466e-18)
(0.642172 0.401218 1.81728e-18)
(0.842482 0.414958 0)
(0.966443 0.358451 -7.2049e-19)
(1.03363 0.297407 2.54818e-19)
(1.07122 0.245078 2.09639e-19)
(1.09252 0.202212 9.69193e-20)
(1.10442 0.167399 8.26619e-20)
(1.11095 0.138969 1.1196e-19)
(1.11444 0.1154 0)
(1.11603 0.0957036 -2.27267e-20)
(1.11664 0.0789586 1.69802e-19)
(1.11687 0.0645583 0)
(1.11703 0.0520373 -1.40518e-21)
(1.11748 0.0410334 -5.54472e-21)
(1.11849 0.0312579 -1.88504e-20)
(1.1203 0.022511 -6.02575e-21)
(1.1232 0.0146303 1.0823e-20)
(1.12753 0.00749858 -5.82656e-21)
(1.13375 0.0010359 -6.23204e-21)
(1.14251 -0.00480702 -8.79646e-22)
(1.1541 -0.00994451 4.5415e-21)
(1.16461 -0.0138855 3.63406e-21)
(1.15287 -0.0152282 -7.58384e-21)
(1.06233 -0.0122978 -1.10701e-20)
(0.817408 -0.00614921 -6.10488e-21)
(0.399397 -0.00110522 -1.13924e-20)
(0.220521 0.000137483 -4.1912e-19)
(0.689044 0.00327936 0)
(0.992434 0.0075446 -1.14634e-19)
(1.1263 0.0109755 1.04885e-19)
(1.15954 0.0115671 1.04637e-19)
(1.1567 0.00957586 0)
(1.14743 0.0059796 1.05673e-19)
(1.13971 0.00137442 0)
(1.13435 -0.00403012 0)
(1.1309 -0.0101859 5.07381e-20)
(1.12897 -0.0171307 0)
(1.1283 -0.0249558 -4.45531e-20)
(1.12867 -0.0337992 -1.62514e-21)
(1.12991 -0.0438721 5.47568e-21)
(1.13192 -0.0554203 8.12606e-21)
(1.1346 -0.0687831 7.76521e-21)
(1.13781 -0.0844455 3.79275e-21)
(1.14143 -0.103115 -2.27852e-21)
(1.14527 -0.125807 -1.21791e-20)
(1.14906 -0.154135 7.33166e-21)
(1.15228 -0.190518 -4.74961e-20)
(1.15372 -0.239103 -6.27332e-22)
(1.15089 -0.306748 0)
(1.13837 -0.411005 0)
(1.08268 -0.573534 1.02743e-19)
(0.832834 -0.676403 0)
(0.218496 -0.361132 5.82736e-17)
(0.376307 0.462619 1.43589e-19)
(0.945943 0.676151 1.77091e-20)
(1.12738 0.485959 -3.66061e-20)
(1.15245 0.356343 7.776e-20)
(1.15888 0.273351 1.67317e-19)
(1.15879 0.215339 1.20827e-19)
(1.15602 0.172934 -1.53332e-20)
(1.15205 0.140469 4.22438e-22)
(1.14783 0.114796 6.67326e-21)
(1.14372 0.0939647 2.73102e-23)
(1.14 0.0766771 -1.30431e-20)
(1.13682 0.0620922 1.7805e-21)