/*--------------------------------*- C++ -*----------------------------------*\
  =========                 |
  \\      /  F ield         | OpenFOAM: The Open Source CFD Toolbox
   \\    /   O peration     | Website:  https://openfoam.org
    \\  /    A nd           | Version:  7
     \\/     M anipulation  |
\*---------------------------------------------------------------------------*/
FoamFile
{
    version     2.0;
    format      ascii;
    class       volScalarField;
    location    "80";
    object      k;
}
// * * * * * * * * * * * * * * * * * * * * * * * * * * * * * * * * * * * * * //

dimensions      [0 2 -2 0 0 0 0];

internalField   nonuniform List<scalar> 
12842
(
0.00570539
0.00510334
0.00473666
0.00449265
0.00433661
0.00420458
0.00411774
0.0040465
0.00399831
0.00396721
0.00393823
0.00393687
0.00394627
0.00397014
0.00400001
0.00402827
0.00404758
0.0040741
0.00409593
0.00410752
0.00411994
0.00412626
0.00412801
0.00567489
0.00508582
0.00470946
0.00444821
0.00430043
0.00418961
0.00411283
0.00404489
0.00399782
0.00396681
0.00393777
0.00393685
0.00394691
0.00397296
0.00400163
0.00402816
0.00404897
0.00407353
0.00409358
0.00410958
0.00411815
0.00412486
0.00412569
0.00563852
0.00502568
0.00467535
0.00442549
0.00427956
0.00416129
0.00408938
0.00402775
0.00398704
0.00395839
0.00393298
0.00393481
0.00394696
0.00397569
0.00400915
0.00403224
0.00405014
0.00407429
0.00409766
0.00410764
0.00411839
0.00412325
0.00412626
0.00559971
0.00497114
0.00461182
0.00437199
0.00423118
0.00413572
0.00407663
0.00401917
0.00398161
0.00395407
0.00393054
0.00393381
0.00394852
0.00397895
0.00401231
0.00403452
0.00405293
0.00407923
0.0040933
0.00410996
0.00411867
0.0041238
0.00412643
0.00555383
0.00491567
0.004566
0.00433847
0.00420738
0.00410677
0.00404935
0.00399848
0.00396787
0.00394287
0.00392468
0.00393032
0.00394941
0.00398453
0.00401732
0.00403986
0.00405554
0.00408542
0.00409356
0.00411006
0.00411572
0.00412275
0.00412504
0.00550298
0.00485945
0.00451606
0.00428441
0.00416264
0.00408022
0.00403467
0.00398905
0.00396144
0.0039377
0.00392173
0.00392843
0.00394944
0.00398971
0.00402127
0.00404463
0.00405992
0.00408637
0.00409279
0.00411032
0.00411865
0.00412345
0.00412437
0.00545838
0.00480345
0.00447451
0.00425857
0.00413906
0.00405601
0.00401266
0.00397044
0.00394795
0.0039268
0.00391609
0.00392476
0.00395254
0.00399713
0.00402589
0.00404792
0.00406659
0.00408397
0.00409366
0.00410957
0.00411655
0.00412237
0.00412777
0.00540796
0.00475216
0.00443264
0.00421759
0.00410522
0.00403166
0.00399695
0.0039618
0.00394196
0.00392187
0.00391309
0.00392218
0.00395217
0.00400005
0.00403072
0.00405728
0.00407226
0.00408402
0.00409552
0.00410633
0.00411527
0.00412177
0.00412769
0.0053661
0.00470441
0.00439532
0.00419466
0.0040887
0.0040168
0.003983
0.0039485
0.00393094
0.00391302
0.00390785
0.00391864
0.0039495
0.00400002
0.00403702
0.00405722
0.00408247
0.00408607
0.00409581
0.00410587
0.00411575
0.00412365
0.00412716
0.00531067
0.00465273
0.00435736
0.00416221
0.00406356
0.00399861
0.00397147
0.00394052
0.00392629
0.00390894
0.00390538
0.00391618
0.00394935
0.00400872
0.0040429
0.00406698
0.0040866
0.00408701
0.0040966
0.00410638
0.00411809
0.00412676
0.00413149
0.00526454
0.00460767
0.00432357
0.00414142
0.00405003
0.00398763
0.00396138
0.00393161
0.0039176
0.00390199
0.00390086
0.00391399
0.00395131
0.00400826
0.00404617
0.0040683
0.00408987
0.0040881
0.00409828
0.00410764
0.00412183
0.00413202
0.00413695
0.00520914
0.00456209
0.00428897
0.00411426
0.0040298
0.00397218
0.00395083
0.00392254
0.0039129
0.00389839
0.00389841
0.00391078
0.00395173
0.00401116
0.00404082
0.00407001
0.00408871
0.00409088
0.00410098
0.00411075
0.0041266
0.00413649
0.00414534
0.00516365
0.00452221
0.00426119
0.00409579
0.00401753
0.00396265
0.00394208
0.00391565
0.00390563
0.0038928
0.00389448
0.00391061
0.00395289
0.00400348
0.0040484
0.00406824
0.00409029
0.00409278
0.00410716
0.00411632
0.00413425
0.00414417
0.00415075
0.00511188
0.00448325
0.00423005
0.00407351
0.00400159
0.00394927
0.00393272
0.00390649
0.00390103
0.0038899
0.00389238
0.00391014
0.00395968
0.0040097
0.00405248
0.00407066
0.00409066
0.00409887
0.00411169
0.00412258
0.00413946
0.00415168
0.00416268
0.0050687
0.00444929
0.00420824
0.00405782
0.00399015
0.00394107
0.00392439
0.00390082
0.00389513
0.00388572
0.0038893
0.00390955
0.00396135
0.00400579
0.0040529
0.00406133
0.00408764
0.00410242
0.00412147
0.00413063
0.00415044
0.00416006
0.00417164
0.00502244
0.00441654
0.0041819
0.00403923
0.00397726
0.00392914
0.00391693
0.00389287
0.00389059
0.00388298
0.00388742
0.00390975
0.00396194
0.00400767
0.00405629
0.00407225
0.00408489
0.00411134
0.00413049
0.00414186
0.0041587
0.00417146
0.00418492
0.00498269
0.00438813
0.00416368
0.00402643
0.00396628
0.00392172
0.00390853
0.00388778
0.00388606
0.00387967
0.00388499
0.00390922
0.00397064
0.0040106
0.0040469
0.00406679
0.00408679
0.00411672
0.0041392
0.00414961
0.00417204
0.00418319
0.00420146
0.00494277
0.00436065
0.00414251
0.00401028
0.00395528
0.00391144
0.00390298
0.00388133
0.00388129
0.00387668
0.00388293
0.0039093
0.00396437
0.00401868
0.00405769
0.00406636
0.00409638
0.00412947
0.00415391
0.00416584
0.00418437
0.00419749
0.00421434
0.00490688
0.00433689
0.00412584
0.00400001
0.00394498
0.00390441
0.00389497
0.00387668
0.00387757
0.00387337
0.00388063
0.00390978
0.0039721
0.00402459
0.00405265
0.00406872
0.00410288
0.00413689
0.00416234
0.00417484
0.0042016
0.00421641
0.00424235
0.00487411
0.0043138
0.00410816
0.00398555
0.00393506
0.00389587
0.00389066
0.00387112
0.00387266
0.00387015
0.00387843
0.00391021
0.0039672
0.00403374
0.0040534
0.0040782
0.00411669
0.00415347
0.00418095
0.00419527
0.00421882
0.00423411
0.00426087
0.00484186
0.00429381
0.00409255
0.003977
0.0039255
0.0038895
0.00388348
0.00386687
0.0038689
0.00386649
0.00387606
0.00390896
0.00396981
0.00404275
0.00405631
0.00408438
0.00412921
0.00416418
0.00419253
0.00420805
0.00424509
0.00426668
0.00430666
0.00481645
0.00427444
0.00407636
0.00396389
0.0039162
0.00388232
0.00387966
0.00386164
0.00386425
0.00386329
0.00387415
0.00390931
0.00397641
0.00405433
0.00406534
0.00409916
0.00414198
0.00418438
0.0042186
0.00423874
0.00427218
0.00429824
0.00434687
0.00478791
0.00425811
0.00406193
0.00395607
0.0039072
0.00387657
0.00387317
0.00385755
0.00386011
0.00385969
0.00387184
0.0039092
0.00398121
0.00406177
0.00407284
0.00410808
0.00416321
0.00420626
0.00423658
0.00426034
0.00431675
0.00435752
0.00442699
0.00477316
0.00424583
0.00404969
0.00394738
0.00390035
0.00387246
0.00387045
0.00385358
0.00385644
0.00385708
0.00387031
0.00390971
0.0039908
0.00407612
0.00408079
0.00412428
0.00417658
0.00423045
0.00427357
0.00431655
0.00436977
0.00442747
0.00451258
0.00475533
0.00423393
0.00404057
0.00394303
0.00389528
0.00387038
0.00386723
0.00385119
0.00385371
0.00385497
0.00386895
0.00391052
0.00399655
0.00408787
0.00409253
0.00413899
0.00420702
0.00427534
0.00431636
0.00436092
0.00444717
0.00452928
0.00464378
0.00474535
0.00422725
0.00403319
0.0039373
0.00389105
0.00386799
0.00386463
0.00384843
0.00385124
0.00385342
0.00386731
0.00391121
0.00400184
0.00409487
0.0041
0.00415291
0.00422857
0.00431053
0.00437224
0.00445854
0.00454996
0.00466726
0.00480198
0.00472867
0.00421553
0.00402521
0.00393282
0.00388601
0.00386564
0.00386104
0.00384606
0.0038483
0.00385122
0.00386583
0.00391226
0.00400947
0.00411233
0.00411532
0.00417682
0.00427679
0.00438476
0.00445016
0.0045396
0.00467408
0.00482317
0.0049896
0.00471917
0.00420996
0.00401883
0.00392724
0.00388245
0.00386315
0.00385757
0.00384325
0.00384601
0.00384956
0.00386344
0.00391252
0.00400661
0.00410417
0.00412766
0.00420358
0.00432089
0.00444849
0.00454292
0.00469107
0.00483837
0.00503087
0.00521521
0.00470404
0.00419891
0.0040119
0.00392292
0.00387759
0.00386003
0.00385333
0.00384073
0.00384319
0.00384645
0.00386203
0.00391461
0.00401919
0.00411789
0.00415231
0.00424722
0.00439503
0.00455638
0.00466376
0.00482575
0.00502274
0.00525399
0.00546604
0.00469437
0.00419377
0.00400628
0.00391776
0.0038749
0.00385719
0.00384928
0.00383762
0.00384064
0.00384406
0.00386155
0.00391717
0.00401921
0.00411363
0.00418355
0.00430585
0.00447928
0.00466781
0.0048135
0.0050352
0.0052516
0.00551458
0.00572724
0.00468119
0.00418338
0.00399955
0.00391382
0.00387012
0.00385354
0.00384433
0.00383462
0.00383737
0.00384159
0.0038616
0.00391842
0.00401649
0.00412135
0.00422658
0.00437731
0.00458142
0.00480168
0.00497698
0.00522494
0.00548138
0.00577165
0.00599746
0.00467099
0.0041785
0.00399431
0.00390916
0.00386774
0.00385037
0.00383932
0.00383084
0.00383431
0.00383956
0.00386136
0.00391733
0.00401699
0.00415714
0.00429394
0.00448269
0.00471557
0.00496598
0.00517527
0.00546333
0.0057364
0.00604103
0.00625428
0.00466013
0.00416841
0.00398687
0.00390556
0.00386306
0.00384651
0.00383362
0.00382696
0.00383084
0.00383789
0.00386136
0.0039195
0.00402576
0.00419706
0.0043648
0.00458337
0.00484195
0.00511561
0.00536108
0.00568099
0.00598042
0.00629361
0.00650429
0.00464956
0.0041636
0.0039818
0.00390133
0.00386049
0.00384272
0.0038279
0.0038225
0.00382773
0.00383887
0.00386499
0.00392937
0.00406461
0.0042711
0.00447747
0.00473719
0.00502065
0.00531911
0.00558692
0.00592119
0.00622617
0.00653758
0.00673018
0.00464063
0.00415353
0.00397306
0.00389807
0.00385523
0.00383791
0.00382205
0.00381799
0.00382513
0.00384403
0.00387552
0.00394603
0.00410616
0.00434633
0.00458087
0.00486154
0.00516171
0.0054751
0.0057718
0.00613425
0.0064539
0.00675662
0.00693645
0.00463087
0.00414865
0.00396799
0.00389406
0.00385154
0.00383287
0.00381589
0.00381412
0.00382533
0.00386365
0.00390646
0.00399343
0.00418435
0.00445766
0.00473412
0.00504969
0.00536522
0.00569111
0.00599902
0.00635434
0.00666464
0.00695674
0.00711814
0.00462256
0.00413843
0.00395858
0.00389045
0.00384469
0.00382713
0.00381075
0.00381015
0.00382976
0.00389399
0.00394601
0.00404316
0.0042593
0.00456906
0.00486603
0.00518886
0.00551176
0.00584512
0.00616856
0.0065429
0.00686056
0.00713281
0.00727667
0.00461496
0.00413338
0.00395292
0.00388559
0.00383851
0.00382116
0.0038056
0.00380896
0.0038464
0.00394108
0.0040059
0.0041234
0.00436823
0.00471131
0.00504538
0.00539016
0.0057171
0.00605149
0.00637374
0.00672919
0.00702976
0.00728695
0.00741327
0.00460633
0.00412303
0.0039428
0.00388021
0.00383165
0.00381604
0.00380174
0.00381034
0.00387733
0.00399773
0.00407365
0.00420295
0.00447226
0.00485132
0.00519434
0.00553265
0.00585875
0.00619225
0.00652424
0.00688982
0.00718575
0.00741787
0.00753309
0.00460104
0.00411732
0.0039356
0.00387383
0.00382643
0.00381067
0.00380079
0.0038203
0.00392363
0.00406983
0.00415911
0.0043102
0.00460532
0.00501265
0.00538324
0.00572993
0.00605174
0.00637876
0.0066945
0.00703582
0.00731713
0.00752859
0.00762726
0.00459247
0.00410728
0.00392343
0.00386618
0.00381934
0.00380921
0.00380501
0.00384598
0.00398382
0.00414875
0.00424961
0.00441223
0.00472832
0.00516756
0.00553484
0.00586296
0.00617729
0.00649746
0.00682579
0.00717236
0.00743336
0.00761215
0.00769075
0.00458844
0.00409928
0.0039147
0.00385964
0.00381763
0.00380977
0.00381836
0.00388712
0.0040574
0.00424065
0.00435403
0.0045374
0.0048753
0.00533611
0.00571911
0.00604529
0.00635019
0.00665873
0.00696067
0.00728791
0.00752227
0.00765941
0.00771994
0.0045809
0.00408835
0.00390242
0.00385135
0.00381369
0.00381998
0.00384958
0.0039439
0.00414182
0.00433548
0.0044594
0.00465233
0.0050048
0.00549064
0.00586092
0.00615995
0.00645438
0.0067538
0.00707708
0.00738844
0.00757568
0.00768498
0.00774371
0.00457636
0.00407792
0.00389566
0.00384874
0.00381818
0.00384187
0.00389285
0.00401536
0.00423568
0.00444016
0.00457446
0.00478498
0.0051547
0.00565694
0.00603071
0.00632155
0.00660418
0.00689372
0.00718399
0.00746825
0.00761064
0.00772005
0.007796
0.00456977
0.00406562
0.00388657
0.00384424
0.00382896
0.0038804
0.00395348
0.00409837
0.00433604
0.00454364
0.00468608
0.00490288
0.00527949
0.00579787
0.00615474
0.00641461
0.00668632
0.0069665
0.00727241
0.00751529
0.00765972
0.00779668
0.00791596
0.00456392
0.00405491
0.00388344
0.00384772
0.0038594
0.00393113
0.00402468
0.00419248
0.00444127
0.0046533
0.00480329
0.00503359
0.00542336
0.00595189
0.0063058
0.00655622
0.00681996
0.00709137
0.00735428
0.00757206
0.00776164
0.00809111
0.00883972
0.00455698
0.00404369
0.003878
0.00385615
0.00389754
0.00399646
0.00410875
0.00429234
0.00454833
0.00475787
0.00491278
0.0051454
0.00553481
0.00606795
0.00640879
0.00663031
0.00688626
0.00715252
0.0074081
0.0076637
0.00809819
0.00976181
0.0156305
0.00455064
0.00403448
0.00388084
0.00387978
0.00395389
0.00407164
0.00419962
0.00439797
0.00465535
0.00486456
0.00502443
0.00526689
0.00566726
0.0062035
0.00654186
0.00675683
0.0070124
0.00728096
0.00751769
0.00799178
0.00993811
0.0216985
0.0518924
0.00454259
0.00402338
0.00388487
0.0039121
0.00401745
0.00415818
0.00429942
0.00450704
0.00476325
0.00496607
0.00512763
0.00536877
0.00576288
0.00629672
0.00662522
0.00682143
0.00707557
0.00735438
0.00768451
0.00915413
0.0190309
0.0570383
0.112828
0.0045349
0.00401976
0.00390364
0.00396165
0.00409938
0.0042564
0.00440792
0.00462189
0.00487169
0.00507031
0.00523416
0.00548031
0.00588127
0.00641346
0.00674069
0.00693513
0.00719914
0.00758059
0.00850295
0.0143973
0.0423103
0.110454
0.194588
0.00452619
0.00401561
0.00393196
0.0040229
0.00418749
0.00436027
0.0045176
0.00473408
0.00497502
0.00516497
0.00532786
0.00557025
0.00596279
0.0064878
0.00680667
0.0069923
0.00727003
0.00779076
0.0100856
0.023575
0.070471
0.160489
0.264399
0.00451751
0.00401891
0.0039761
0.00409669
0.0042849
0.00446712
0.00462772
0.00484268
0.00507146
0.00525467
0.0054169
0.00565927
0.00605318
0.00657588
0.00689573
0.00709139
0.00743726
0.00843315
0.013785
0.0372892
0.102151
0.213072
0.325529
0.00450915
0.00402751
0.00402727
0.00417879
0.0043841
0.00457397
0.00473376
0.00494543
0.00516054
0.00533478
0.00549474
0.00573296
0.00612109
0.0066379
0.006952
0.0071514
0.00755888
0.00893462
0.0166668
0.0479486
0.127817
0.247242
0.365713
0.00450267
0.00405185
0.00409184
0.00426913
0.004487
0.00467899
0.00483737
0.00504215
0.00524204
0.00540851
0.00556608
0.00580222
0.00619037
0.00670618
0.00702502
0.00725243
0.00780163
0.00987007
0.0205059
0.0599416
0.152449
0.277949
0.39867
0.00449876
0.00408748
0.00416295
0.00436333
0.00458745
0.00477982
0.00493404
0.00513081
0.00531512
0.00547324
0.0056279
0.00586016
0.00624532
0.00675926
0.00707567
0.00732842
0.00796022
0.0104081
0.0225806
0.0660629
0.166213
0.296724
0.415204
0.00449776
0.00413865
0.00424403
0.00446213
0.00468827
0.00487674
0.00502721
0.00521321
0.00538176
0.00553215
0.00568378
0.00591388
0.00630018
0.0068157
0.00713813
0.00743167
0.00820949
0.0112308
0.0246449
0.0737345
0.175693
0.308773
0.42712
0.00449935
0.00419864
0.00432665
0.00455534
0.0047779
0.00496059
0.0051052
0.00528022
0.00543503
0.00557846
0.0057271
0.00595453
0.00634074
0.00685844
0.00718263
0.00750753
0.00837104
0.0116081
0.024855
0.0719755
0.175091
0.308809
0.427531
0.00450737
0.00426515
0.00440889
0.00464383
0.00486164
0.00503722
0.00517673
0.00534068
0.00548315
0.00562032
0.00576592
0.00599106
0.00637832
0.00689992
0.00723084
0.00758301
0.0085291
0.011935
0.0255102
0.0725208
0.173979
0.308037
0.42308
0.00452512
0.00433853
0.00449486
0.00473122
0.00494149
0.00510874
0.00524146
0.00539422
0.00552577
0.00565714
0.00580023
0.00602413
0.00641403
0.00694172
0.00727564
0.00765522
0.00867031
0.0123186
0.0259281
0.0719866
0.168756
0.30552
0.414103
0.00454931
0.00441741
0.00457982
0.00481396
0.005016
0.0051743
0.00529989
0.00544214
0.00556416
0.00569047
0.00583126
0.00605415
0.0064483
0.00698366
0.00732374
0.00772359
0.00876894
0.0123909
0.0261767
0.0709858
0.16232
0.299421
0.402583
0.00458171
0.00449909
0.00466623
0.00489362
0.00508623
0.00523441
0.00535196
0.00548382
0.00559798
0.00571953
0.00585865
0.00608182
0.00648194
0.00702704
0.00736994
0.00778806
0.00886379
0.0124725
0.0259212
0.0695599
0.15586
0.290382
0.390666
0.00461827
0.00458295
0.00474874
0.00496744
0.00515033
0.00528902
0.00539763
0.00552057
0.00562789
0.00574578
0.00588371
0.00610715
0.00651514
0.00707044
0.00741833
0.0078435
0.0088986
0.0125311
0.0259957
0.0683524
0.150357
0.280803
0.37765
0.00466112
0.00466514
0.00483061
0.00503653
0.00521003
0.00533818
0.00543832
0.00555237
0.00565429
0.00576841
0.00590573
0.00613081
0.00654832
0.00711547
0.00746502
0.0078962
0.00891816
0.0125821
0.0260538
0.0669382
0.145788
0.27179
0.366014
0.00470561
0.00474652
0.00490628
0.00510012
0.0052635
0.00538272
0.00547345
0.00558027
0.00567716
0.00578898
0.00592614
0.00615254
0.00658132
0.00715974
0.00751255
0.00793741
0.00892424
0.0124943
0.0254845
0.0650944
0.141718
0.26388
0.355436
0.00475428
0.00482271
0.00497982
0.00515775
0.00531278
0.00542213
0.00550512
0.00560445
0.00569734
0.00580638
0.00594392
0.00617277
0.00661429
0.00720461
0.00755839
0.00797711
0.00893949
0.0125028
0.0254205
0.0627818
0.137788
0.256228
0.345825
0.00480244
0.00489586
0.0050458
0.00521099
0.00535599
0.005458
0.00553266
0.00562605
0.00571483
0.00582254
0.00596047
0.00619144
0.00664688
0.00724869
0.00760366
0.00801002
0.00894125
0.0124766
0.0255503
0.0600416
0.13349
0.247539
0.337889
0.00485295
0.00496167
0.00510875
0.00525803
0.00539578
0.00548931
0.00555783
0.00564461
0.00572997
0.00583612
0.00597482
0.00620857
0.00667917
0.00729115
0.00764693
0.00804042
0.0089477
0.0124931
0.0249683
0.0592561
0.12851
0.236669
0.330808
0.00490117
0.00502387
0.00516412
0.00530155
0.00542977
0.00551822
0.0055802
0.00566203
0.0057437
0.00584852
0.00598795
0.00622444
0.00671076
0.00733203
0.00768761
0.00807354
0.00897022
0.0125925
0.024939
0.0592659
0.122475
0.22344
0.321084
0.0049507
0.00507748
0.00521575
0.0053398
0.00546138
0.00554317
0.00560073
0.00567647
0.00575498
0.00586003
0.00599943
0.00623892
0.00674157
0.0073699
0.00772552
0.00810507
0.00902145
0.012492
0.0252599
0.0575532
0.115562
0.208322
0.306365
0.00499662
0.00512858
0.00526148
0.00537479
0.00548779
0.00556675
0.00561965
0.00569105
0.00576619
0.00586897
0.00600991
0.00625199
0.00677183
0.00740394
0.00776187
0.00814733
0.00909346
0.0125225
0.0250067
0.0550193
0.107989
0.191924
0.285711
0.00504321
0.00517127
0.00530239
0.00540622
0.00551279
0.00558715
0.00563644
0.00570265
0.00577485
0.00587912
0.00601987
0.00626451
0.00680021
0.00743459
0.00779572
0.00819101
0.00922804
0.0125454
0.0244557
0.0521306
0.100215
0.175111
0.260609
0.00508645
0.00521235
0.00534068
0.00543408
0.00553338
0.00560675
0.00565294
0.00571501
0.00578434
0.00588607
0.00602827
0.00627458
0.00682856
0.00746105
0.00782999
0.0082439
0.00931744
0.0125252
0.0238067
0.0491143
0.0923832
0.158434
0.233942
0.00512843
0.0052474
0.00537281
0.00546081
0.00555374
0.00562395
0.00566681
0.00572488
0.00579131
0.0058941
0.00603765
0.00628569
0.00685452
0.00748448
0.00786317
0.00829829
0.00937407
0.0124483
0.0231253
0.0461069
0.0848229
0.142374
0.207906
0.00517005
0.00528036
0.00540574
0.00548316
0.00557015
0.0056412
0.00568098
0.00573566
0.00580006
0.00590062
0.00604145
0.00629297
0.0068795
0.00750657
0.00789376
0.00835138
0.009401
0.0123795
0.0224325
0.0431198
0.0773843
0.127208
0.184514
0.00520671
0.00531138
0.0054324
0.00550687
0.00558775
0.00565565
0.00569347
0.00574438
0.00580555
0.00590911
0.00604348
0.00630262
0.0069056
0.00752439
0.00792232
0.00840361
0.00941538
0.0122953
0.0217044
0.0401996
0.0703458
0.113124
0.163716
0.00524659
0.00533829
0.0054607
0.00552595
0.00560211
0.00567152
0.00570496
0.00575416
0.00581364
0.00590982
0.00604406
0.00630893
0.00692723
0.00754312
0.00794533
0.00842049
0.00944259
0.0121704
0.0209277
0.0372651
0.0634702
0.100234
0.145931
0.00527837
0.00536741
0.0054839
0.00554638
0.00561707
0.00568368
0.00571699
0.00576194
0.0058191
0.00591106
0.00604468
0.00631292
0.00695307
0.00755711
0.00795003
0.00843966
0.00942822
0.0120118
0.0200902
0.0343622
0.0569425
0.088542
0.130471
0.00531415
0.00539021
0.00550892
0.00556415
0.00563195
0.00569805
0.00572612
0.00577063
0.00582425
0.00591444
0.00604553
0.00631316
0.00697478
0.0075607
0.00795371
0.0084381
0.00945189
0.0119658
0.0191677
0.0314034
0.0506194
0.0778779
0.116718
0.00534312
0.00541689
0.00552957
0.00558192
0.00564363
0.00570945
0.00573793
0.00577902
0.005833
0.00591397
0.00604748
0.00631403
0.00699422
0.00756191
0.00795977
0.00844541
0.00942184
0.0119708
0.0181518
0.0284997
0.0446871
0.0682829
0.104074
0.00537736
0.00543936
0.00555551
0.00560058
0.00566014
0.00572458
0.00574678
0.00578717
0.00583715
0.0059143
0.00604555
0.00631546
0.00700332
0.00756486
0.00796197
0.0084381
0.00941839
0.0118399
0.0170455
0.0256623
0.0392018
0.0594815
0.0920318
0.00540944
0.00546736
0.00558068
0.00562162
0.005674
0.00573853
0.00576015
0.00580202
0.0058399
0.0059164
0.00604546
0.00631577
0.00700626
0.0075641
0.00796102
0.00843745
0.00942063
0.0115696
0.0159124
0.0230197
0.034257
0.0516318
0.0808164
0.00544646
0.00549387
0.00560868
0.00564406
0.00569252
0.00575525
0.00577375
0.00580409
0.00584313
0.00591697
0.00604482
0.00631623
0.00700693
0.00756173
0.00796169
0.00844088
0.00935741
0.0112197
0.0147952
0.0206101
0.0299359
0.0446675
0.0702305
0.00547407
0.00552757
0.00561907
0.00566591
0.00571145
0.0057549
0.00578525
0.00580678
0.00584413
0.00591659
0.00604455
0.00631624
0.00701045
0.00754904
0.00796069
0.00843225
0.00925842
0.0108444
0.0137641
0.0185247
0.0262775
0.0388442
0.0609365
0.00549369
0.00554805
0.00562653
0.00566778
0.00572479
0.00575917
0.00579211
0.00581227
0.00584709
0.00591717
0.00604512
0.00631634
0.00701343
0.00753125
0.00795503
0.00841739
0.0091432
0.0104726
0.0128445
0.0167657
0.0232827
0.0339277
0.0527012
0.00549132
0.00555856
0.0056262
0.00567103
0.00572524
0.00576411
0.00579409
0.00581749
0.00584685
0.00591402
0.00604196
0.00631576
0.00700846
0.00751031
0.00794757
0.00839939
0.0090294
0.0101393
0.0120696
0.0153577
0.0209715
0.0302185
0.0461647
0.00549263
0.00556391
0.00562762
0.00567522
0.00572729
0.00576384
0.00579376
0.00581655
0.00584937
0.00591375
0.00604143
0.00631526
0.00700788
0.00748967
0.00793993
0.00838145
0.00892667
0.00985474
0.0114406
0.0142339
0.0191261
0.0270774
0.0405649
0.00549367
0.00556176
0.00563144
0.00567748
0.0057309
0.00576419
0.00579737
0.0058165
0.00585017
0.00591242
0.00604187
0.0063142
0.00700765
0.00747143
0.00793157
0.00836374
0.00884227
0.0096261
0.0109433
0.0133811
0.0177807
0.0249156
0.0365226
0.0054941
0.00557153
0.00563831
0.00568115
0.00573574
0.0057643
0.00579345
0.00581697
0.00584826
0.00591149
0.00604192
0.00631345
0.00699891
0.00745579
0.00792386
0.0083489
0.00877449
0.00945383
0.010579
0.0127496
0.0168149
0.0230973
0.0331218
0.0054943
0.00556708
0.00563808
0.00568957
0.0057343
0.00576844
0.00579321
0.0058168
0.00584654
0.00591117
0.00604019
0.00631379
0.00698092
0.0074428
0.00791546
0.0083359
0.00872504
0.0093171
0.0102888
0.0122395
0.0159569
0.0217855
0.0308583
0.00549413
0.00557545
0.00563756
0.00568461
0.00573316
0.00576918
0.00579259
0.00582182
0.00584626
0.0059128
0.0060381
0.00630862
0.00696211
0.0074337
0.0079095
0.00832582
0.00868822
0.00922277
0.0100973
0.0118636
0.0152394
0.0204879
0.0290638
0.00549393
0.00556834
0.00563581
0.00568571
0.00573231
0.00576751
0.00579219
0.00581825
0.00584488
0.00591297
0.0060332
0.00630775
0.00693809
0.00742333
0.00790194
0.00831773
0.0086626
0.00914023
0.00993162
0.0115314
0.0146189
0.0194947
0.0275132
0.00549432
0.00557806
0.00563677
0.00569
0.00573445
0.00576854
0.00579624
0.00581979
0.00584434
0.00591128
0.00603528
0.00630875
0.0069169
0.00741772
0.0078963
0.00831083
0.00864429
0.00908942
0.00983589
0.0113313
0.0141802
0.018518
0.026248
0.0054911
0.00557071
0.00563539
0.00568323
0.0057362
0.00576535
0.00579086
0.00582217
0.00584494
0.00591011
0.00603093
0.00630719
0.00689357
0.00740615
0.00788747
0.00830353
0.00863255
0.00903525
0.00973137
0.0111053
0.013714
0.0177524
0.0249438
0.00549137
0.00557117
0.0056355
0.005683
0.00572908
0.00576219
0.00579126
0.00582189
0.00584319
0.00590375
0.00603229
0.00630472
0.00687216
0.00740015
0.0078805
0.00829995
0.0086211
0.00900854
0.00968126
0.0110062
0.0134366
0.0172355
0.0242647
0.00548819
0.00557424
0.00563692
0.00568017
0.00572785
0.00576038
0.00579258
0.00582025
0.00584117
0.00590246
0.00602798
0.006296
0.00685315
0.0073848
0.00786663
0.00827875
0.00859216
0.0089575
0.00956759
0.010735
0.0129259
0.0163924
0.0230267
0.00548689
0.00556957
0.00563688
0.00567997
0.00573148
0.0057636
0.0057916
0.00581797
0.00584161
0.00590073
0.00602998
0.00629835
0.00685331
0.00739128
0.00787289
0.00828884
0.00860421
0.00895797
0.00957098
0.0107411
0.0128965
0.0160987
0.0227997
0.00549206
0.00556846
0.00563215
0.00567667
0.00572944
0.00575497
0.00579
0.00581406
0.005835
0.00589765
0.00602212
0.00627827
0.00680968
0.00735538
0.00784144
0.00825684
0.00857894
0.00889573
0.00943805
0.0104872
0.012473
0.015347
0.0215031
0.00548905
0.00555761
0.00563239
0.00567389
0.00572779
0.00575245
0.00578657
0.00580855
0.00583342
0.00589862
0.00601401
0.00625715
0.00676541
0.00731623
0.00780502
0.00822479
0.00855185
0.00884645
0.0093267
0.0102369
0.011996
0.0148145
0.0206424
0.00548385
0.00555469
0.00562277
0.00567497
0.00572369
0.00575389
0.00578246
0.00580246
0.00582185
0.00589274
0.00600281
0.00623402
0.00671757
0.00726851
0.00776547
0.00818736
0.00851346
0.00879124
0.00922261
0.0100057
0.0115898
0.0142941
0.0197396
0.00547181
0.00553634
0.00561962
0.00566921
0.00571529
0.00574959
0.005779
0.00578845
0.00581852
0.00588365
0.00599037
0.00621004
0.00666678
0.0072158
0.00771638
0.00814485
0.00846642
0.00872631
0.00912004
0.00978142
0.0110798
0.0136178
0.0189988
0.00546118
0.0055314
0.0056081
0.00565812
0.00570701
0.00573651
0.00577366
0.00578359
0.00582127
0.00587375
0.00597653
0.00618346
0.00661126
0.00715508
0.00765544
0.0080875
0.00839725
0.00865478
0.00902117
0.00959942
0.0106501
0.0128034
0.0178408
0.00543999
0.00553502
0.00559868
0.00563461
0.0056901
0.00571462
0.00576462
0.00578503
0.00581466
0.005858
0.00596123
0.00615627
0.00655206
0.00708897
0.00758307
0.00801713
0.00830584
0.00856482
0.00890484
0.00942082
0.0102983
0.0117817
0.0165564
0.00542774
0.00552925
0.005571
0.00562676
0.00566415
0.00570665
0.00575143
0.00577561
0.00580221
0.00584023
0.00594243
0.00612446
0.00648621
0.00701701
0.0074931
0.00792573
0.00819445
0.00844468
0.00875737
0.00922444
0.0100272
0.0113957
0.0155578
0.0054041
0.0054954
0.00556254
0.00562938
0.00565621
0.00570512
0.00573303
0.00575891
0.00578783
0.00582602
0.00592426
0.00609005
0.0064164
0.00693566
0.00739471
0.00782497
0.00806993
0.00829834
0.00857778
0.0089898
0.00974708
0.0108075
0.0147129
0.0054002
0.00547453
0.00556677
0.00561536
0.00565968
0.00569126
0.0057119
0.00573831
0.00576922
0.00581475
0.00589968
0.00604975
0.00634119
0.00684497
0.00727953
0.00770244
0.007944
0.00814327
0.00837931
0.00872797
0.00934711
0.0105834
0.013556
0.00539301
0.00544208
0.00555521
0.00559254
0.0056492
0.00566759
0.00569693
0.00572063
0.00575037
0.00579406
0.00587085
0.00600692
0.00626518
0.00673691
0.0071594
0.00757972
0.0078116
0.00798732
0.00818357
0.00847129
0.00896797
0.00996089
0.0124863
0.00537113
0.00541462
0.00553112
0.005566
0.00562782
0.00563643
0.00568053
0.00569925
0.0057262
0.00576543
0.00583429
0.00595722
0.0061837
0.00662116
0.00701876
0.00743916
0.00767791
0.00783392
0.00799595
0.00822928
0.00862329
0.00938455
0.0114031
0.00534443
0.00540312
0.00550363
0.00554401
0.0056009
0.00561185
0.00565756
0.00567631
0.00570016
0.00573495
0.00579669
0.00590674
0.00610279
0.00648674
0.00687658
0.00729414
0.00754317
0.00769155
0.00782797
0.00801587
0.00832557
0.00889902
0.0104474
0.00531109
0.00534907
0.00546482
0.0055099
0.0055643
0.00558501
0.00562446
0.00564419
0.00566541
0.0056971
0.00575233
0.00584906
0.00601591
0.00635091
0.00670413
0.00712903
0.00739327
0.00754704
0.00766953
0.00782052
0.00806257
0.00849833
0.00958681
0.0052714
0.00529128
0.0054185
0.00546857
0.00552497
0.0055533
0.00558548
0.00560716
0.00562812
0.005658
0.00570803
0.00579172
0.00593064
0.00620235
0.00655278
0.0069216
0.00724534
0.007427
0.00754244
0.00766143
0.007844
0.00816785
0.00889759
0.00521586
0.00523765
0.00535942
0.0054153
0.0054743
0.00550763
0.00553313
0.00555731
0.00557923
0.00560763
0.00565233
0.00572398
0.00583791
0.00604404
0.00638451
0.00671048
0.00702653
0.00728079
0.00742717
0.00752984
0.00766502
0.00789888
0.00838682
0.00515448
0.00516318
0.00529928
0.00536095
0.00542055
0.00545624
0.0054775
0.00550449
0.00552791
0.00555525
0.00559533
0.00565533
0.00574823
0.00590519
0.00620709
0.00648141
0.00682195
0.00708575
0.00727034
0.0073879
0.00749853
0.00767715
0.00801288
0.00508158
0.00508361
0.00523075
0.00529598
0.00535147
0.00538734
0.00540845
0.00543796
0.00546168
0.005487
0.00552168
0.00557197
0.00564562
0.00576495
0.00600663
0.00624421
0.00655382
0.00689217
0.00708645
0.00720263
0.00730252
0.00744238
0.00769099
0.00501019
0.00507583
0.00516438
0.00523119
0.00528031
0.00531463
0.00533885
0.00537069
0.00539454
0.00541803
0.00544782
0.00548997
0.00554984
0.00563843
0.00581246
0.00602074
0.00626875
0.0066041
0.00691647
0.00705964
0.00713156
0.00722835
0.0074002
0.00492636
0.00501293
0.00508252
0.00514934
0.0051909
0.00522237
0.00525134
0.00528478
0.00530751
0.00532821
0.00535365
0.00538832
0.00543828
0.00550137
0.00561234
0.00579003
0.00598038
0.00624194
0.00656047
0.0068483
0.00698872
0.00705826
0.00716898
0.00484305
0.00493497
0.00499923
0.0050657
0.00510253
0.00513067
0.00516381
0.00519883
0.00522143
0.0052403
0.00526279
0.00529169
0.00533462
0.00538284
0.0054539
0.00557806
0.0057271
0.00592191
0.00615843
0.0064482
0.00672546
0.00688766
0.00699164
0.00473884
0.00482559
0.00489033
0.00495565
0.00499021
0.00501507
0.00505043
0.00508554
0.0051073
0.00512409
0.00514364
0.00516739
0.00520114
0.00524257
0.00528739
0.00536513
0.00547227
0.00560944
0.00578736
0.00598778
0.00624866
0.00650311
0.0066988
0.00463447
0.00471376
0.00478079
0.00484484
0.00488133
0.00490385
0.00493975
0.00497497
0.00499732
0.00501406
0.00503213
0.00505366
0.00507931
0.00511514
0.00515075
0.00519481
0.00526869
0.00535472
0.00547904
0.00562714
0.00580288
0.00601861
0.00627657
0.00450141
0.00457057
0.0046381
0.00469864
0.00473826
0.00475885
0.0047929
0.00482592
0.00484731
0.0048631
0.00487903
0.00489799
0.00491749