/*--------------------------------*- C++ -*----------------------------------*\
  =========                 |
  \\      /  F ield         | OpenFOAM: The Open Source CFD Toolbox
   \\    /   O peration     | Website:  https://openfoam.org
    \\  /    A nd           | Version:  7
     \\/     M anipulation  |
\*---------------------------------------------------------------------------*/
FoamFile
{
    version     2.0;
    format      ascii;
    class       volScalarField;
    location    "80";
    object      nut;
}
// * * * * * * * * * * * * * * * * * * * * * * * * * * * * * * * * * * * * * //

dimensions      [0 2 -1 0 0 0 0];

internalField   nonuniform List<scalar> 
12842
(
0.00181287
0.00179044
0.0017819
0.00177414
0.00177858
0.00177004
0.00176943
0.00176451
0.00176124
0.00176243
0.00175661
0.00176341
0.00176721
0.00157628
0.000759876
0.000421033
0.000269471
0.000190954
0.000144271
0.000113832
9.31707e-05
7.89984e-05
6.80002e-05
0.00181291
0.00179458
0.0017834
0.00176129
0.00176587
0.00176469
0.00176798
0.00176437
0.00176186
0.00176306
0.00175729
0.0017641
0.00176775
0.00153179
0.000736859
0.000409133
0.000262125
0.000186234
0.000141076
0.000111787
9.16803e-05
7.82117e-05
6.7247e-05
0.00180689
0.00179312
0.00179103
0.00177398
0.00177288
0.00176346
0.00176646
0.00176312
0.00176266
0.00176346
0.00175872
0.00176542
0.00176932
0.00146738
0.000708729
0.000395464
0.00025417
0.000181293
0.000137926
0.000109488
9.00956e-05
7.72657e-05
6.63532e-05
0.00181062
0.00178583
0.00177995
0.00176387
0.00176475
0.00176079
0.00176583
0.00176241
0.00176275
0.00176328
0.00175915
0.00176592
0.00177065
0.00139937
0.000678871
0.000380945
0.000246035
0.000176263
0.000134281
0.000107117
8.83316e-05
7.61647e-05
6.53002e-05
0.00180694
0.0017917
0.0017845
0.00176824
0.00176643
0.00175831
0.00176391
0.00176079
0.00176288
0.00176255
0.00176011
0.00176639
0.00177238
0.00133867
0.000652586
0.000368153
0.000238669
0.000171674
0.000130951
0.000104747
8.65002e-05
7.49712e-05
6.41941e-05
0.00180552
0.00178506
0.00178147
0.00176255
0.00176336
0.00175776
0.0017639
0.0017603
0.00176287
0.00176213
0.0017604
0.00176649
0.00177303
0.00129496
0.000632653
0.000358193
0.000232861
0.000167756
0.000128144
0.000102718
8.49844e-05
7.38945e-05
6.31842e-05
0.00180574
0.00178681
0.00178282
0.00176445
0.00176284
0.00175581
0.00176243
0.00175868
0.00176243
0.00176114
0.00176108
0.00176661
0.0017754
0.00126421
0.000618773
0.000350683
0.000228359
0.000164295
0.000125733
0.000100855
8.34578e-05
7.27604e-05
6.2228e-05
0.00180164
0.00178139
0.00178239
0.00176396
0.00176141
0.00175453
0.00176188
0.00175901
0.00176283
0.00176076
0.00176143
0.00176646
0.00177622
0.00126641
0.000618631
0.00035012
0.000227335
0.000162959
0.000124528
9.96541e-05
8.2375e-05
7.18802e-05
6.14579e-05
0.00180497
0.00178146
0.00177895
0.00176326
0.00176278
0.00175498
0.0017615
0.00175726
0.00176145
0.00175943
0.00176157
0.00176643
0.0017759
0.00126294
0.000617007
0.000347822
0.000225875
0.000161498
0.000123294
9.86356e-05
8.14675e-05
7.11455e-05
6.07487e-05
0.0017982
0.00177804
0.00177972
0.00176305
0.0017611
0.00175399
0.00176143
0.00175733
0.00176226
0.00175938
0.00176205
0.0017663
0.00177621
0.0012364
0.000603456
0.000341351
0.000221717
0.000158586
0.000121202
9.71109e-05
8.02907e-05
7.0211e-05
5.99054e-05
0.0018034
0.00177732
0.00177525
0.00176208
0.00176261
0.00175483
0.00176103
0.00175642
0.00176068
0.00175796
0.00176182
0.00176662
0.00177735
0.00121865
0.000595308
0.000336923
0.000219128
0.000156806
0.000119955
9.61759e-05
7.95714e-05
6.9632e-05
5.93895e-05
0.0017957
0.00177536
0.00177553
0.00176161
0.00176148
0.00175397
0.00176067
0.00175558
0.00176139
0.00175831
0.00176228
0.00176623
0.00177781
0.00120195
0.000587279
0.000333281
0.000216952
0.000155335
0.000118831
9.53239e-05
7.8891e-05
6.9044e-05
5.89936e-05
0.00180086
0.00177438
0.00177241
0.00176086
0.00176253
0.00175487
0.0017601
0.00175528
0.00175998
0.00175718
0.00176198
0.00176728
0.00177843
0.00118136
0.000580259
0.000329238
0.000214368
0.00015363
0.000117699
9.44604e-05
7.82407e-05
6.84723e-05
5.85712e-05
0.00179385
0.00177335
0.00177171
0.00176009
0.00176204
0.00175381
0.00175952
0.00175372
0.00176033
0.00175774
0.00176239
0.00176795
0.00178152
0.00116457
0.000571969
0.000325214
0.000212122
0.000152196
0.000116578
9.36548e-05
7.75808e-05
6.7915e-05
5.82988e-05
0.00179759
0.00177242
0.00177065
0.00175977
0.0017624
0.00175471
0.00175882
0.00175391
0.0017593
0.00175708
0.00176204
0.00176848
0.00178278
0.0011442
0.000564632
0.000320463
0.000209472
0.000150671
0.000115642
9.29616e-05
7.71412e-05
6.74484e-05
5.80994e-05
0.00179224
0.00177177
0.00176975
0.0017586
0.00176195
0.0017533
0.00175864
0.00175251
0.00175918
0.00175738
0.00176223
0.00176917
0.00178226
0.00112687
0.000557232
0.000318018
0.000207303
0.000149584
0.00011488
9.24956e-05
7.67816e-05
6.71561e-05
5.81157e-05
0.00179393
0.00177098
0.00176986
0.00175893
0.00176159
0.00175394
0.00175795
0.00175301
0.00175874
0.00175704
0.00176183
0.00176942
0.00178602
0.0011112
0.000549397
0.000313926
0.000205247
0.000148496
0.000114211
9.21023e-05
7.67335e-05
6.70458e-05
5.83764e-05
0.0017906
0.00177031
0.00176938
0.00175758
0.0017608
0.00175265
0.00175842
0.00175225
0.00175824
0.00175686
0.00176156
0.00176978
0.00178268
0.00109807
0.000545255
0.000311095
0.000204228
0.000147955
0.000114043
9.21751e-05
7.6922e-05
6.72562e-05
5.8851e-05
0.00179022
0.00176957
0.00176945
0.00175858
0.00176004
0.00175299
0.00175805
0.00175298
0.00175827
0.00175657
0.00176101
0.0017703
0.00178594
0.00108645
0.000538786
0.000308378
0.00020305
0.0001476
0.000113931
9.23995e-05
7.7582e-05
6.78745e-05
5.98394e-05
0.00178907
0.00176879
0.00176902
0.00175738
0.00175896
0.00175234
0.00175896
0.00175271
0.00175762
0.00175606
0.00176041
0.00177064
0.00178381
0.00107768
0.000534246
0.000307281
0.000203039
0.000147881
0.000114603
9.32878e-05
7.86578e-05
6.898e-05
6.11422e-05
0.00178711
0.00176804
0.00176855
0.00175878
0.00175825
0.00175269
0.00175896
0.0017536
0.00175773
0.00175569
0.00175981
0.00177027
0.00178429
0.00107152
0.000530958
0.000306311
0.000203377
0.000148704
0.000115565
9.45477e-05
8.05107e-05
7.08248e-05
6.33276e-05
0.00178763
0.00176731
0.00176754
0.00175783
0.00175708
0.00175278
0.00176006
0.00175354
0.00175721
0.00175521
0.00175933
0.00177056
0.00178642
0.00106645
0.000528958
0.000306744
0.000204357
0.000150116
0.000117499
9.67042e-05
8.2941e-05
7.32988e-05
6.5998e-05
0.00178518
0.00176648
0.0017667
0.00175922
0.0017567
0.00175319
0.00176023
0.00175442
0.00175718
0.00175493
0.00175883
0.0017707
0.0017885
0.00106739
0.000530309
0.000308685
0.000207
0.000152721
0.000119961
9.92822e-05
8.62767e-05
7.68139e-05
6.99058e-05
0.00178692
0.00176637
0.00176507
0.00175891
0.00175562
0.00175414
0.00176137
0.00175464
0.00175688
0.00175467
0.0017585
0.00177072
0.00179061
0.00106235
0.000528401
0.000309595
0.00020878
0.00015515
0.000123127
0.000103098
9.03755e-05
8.13185e-05
7.47548e-05
0.00178394
0.00176515
0.00176392
0.00175962
0.00175535
0.00175495
0.00176172
0.00175528
0.00175674
0.00175442
0.00175816
0.00177107
0.00179301
0.00104797
0.000526354
0.000311077
0.000212007
0.000159166
0.000127378
0.000107538
9.57765e-05
8.71643e-05
8.12055e-05
0.00178647
0.00176582
0.00176272
0.00175909
0.00175492
0.00175575
0.001762
0.00175537
0.0017565
0.00175425
0.0017577
0.00177131
0.0017959
0.00104179
0.000525861
0.000312522
0.000214881
0.000163105
0.00013223
0.00011364
0.000102097
9.42759e-05
8.8617e-05
0.00178364
0.00176462
0.00176176
0.00175939
0.00175477
0.00175633
0.00176189
0.00175574
0.00175602
0.00175374
0.00175733
0.00177174
0.00179973
0.00103878
0.000527304
0.000316206
0.000219983
0.000168931
0.000138294
0.000119969
0.00010951
0.000102155
9.74039e-05
0.00178567
0.00176569
0.00176079
0.00175846
0.00175473
0.00175687
0.00176144
0.00175567
0.00175557
0.00175337
0.00175664
0.00177221
0.00179805
0.00103415
0.000529022
0.000319437
0.000224596
0.000175243
0.000145477
0.000128619
0.000118241
0.000112196
0.000107846
0.00178333
0.00176475
0.00176006
0.00175852
0.00175466
0.00175698
0.00176065
0.0017555
0.00175488
0.00175247
0.0017566
0.00177399
0.00180262
0.00103664
0.000531308
0.000324614
0.000231417
0.000182701
0.000153571
0.000137521
0.000128639
0.000122987
0.000119742
0.00178453
0.0017659
0.0017593
0.00175735
0.00175503
0.00175697
0.00175954
0.001755
0.00175415
0.00175201
0.00175724
0.00177512
0.00180136
0.00103284
0.000535096
0.000330662
0.000238725
0.000192158
0.000164191
0.000149405
0.000140297
0.000135973
0.000133038
0.0017831
0.00176507
0.00175863
0.00175755
0.00175485
0.00175665
0.00175803
0.00175428
0.00175326
0.00175185
0.0017585
0.00177577
0.00179896
0.00103166
0.00053953
0.000337508
0.000247361
0.00020158
0.000174617
0.000161159
0.000153764
0.000149411
0.000147337
0.00178326
0.00176606
0.00175805
0.00175651
0.00175528
0.00175617
0.00175615
0.00175314
0.00175255
0.00175219
0.00175991
0.00177541
0.00179791
0.0010348
0.000548445
0.000348788
0.00025914
0.000214378
0.000188432
0.000175617
0.000167581
0.000164251
0.000162752
0.00178308
0.00176493
0.00175719
0.0017571
0.00175486
0.00175542
0.00175412
0.00175213
0.00175202
0.0017531
0.00176164
0.00177645
0.00180105
0.00104
0.000557109
0.000358901
0.000270037
0.000225698
0.000200856
0.000189569
0.000183424
0.000179707
0.000178561
0.00178235
0.00176554
0.00175681
0.00175641
0.0017549
0.00175449
0.00175198
0.00175087
0.00175193
0.00175549
0.00176498
0.00178096
0.00181725
0.0010541
0.00057518
0.000377097
0.000286933
0.000242025
0.000217255
0.000205802
0.000198431
0.000195201
0.00019504
0.00178321
0.00176383
0.00175556
0.00175746
0.00175382
0.00175304
0.00174991
0.00175004
0.00175241
0.00176003
0.00177125
0.00178876
0.00183448
0.00106825
0.000590563
0.000391581
0.000300375
0.000255093
0.000230988
0.000220826
0.000215561
0.00021158
0.000211359
0.00178231
0.00176404
0.00175526
0.00175701
0.00175297
0.00175175
0.00174824
0.00174962
0.00175438
0.00177116
0.00178643
0.00181
0.00186535
0.00110445
0.000621355
0.00041695
0.000321788
0.000274276
0.000249164
0.000238027
0.000230788
0.000226887
0.000227746
0.00178335
0.00176175
0.00175375
0.00175816
0.00175083
0.00175012
0.00174715
0.00174953
0.00175847
0.00178699
0.0018051
0.00183226
0.00189384
0.00113774
0.000645507
0.0004362
0.000337981
0.000289041
0.000263563
0.000253267
0.000248175
0.000242721
0.000243362
0.00178305
0.00176177
0.00175311
0.00175735
0.00174875
0.00174897
0.00174642
0.00175059
0.00176783
0.00181003
0.00183265
0.00186436
0.00192131
0.00120192
0.000689889
0.000468238
0.00036294
0.00031029
0.000282532
0.000270466
0.000262974
0.000257116
0.000258519
0.00178349
0.0017592
0.00175097
0.00175758
0.00174669
0.00174831
0.00174649
0.0017533
0.00178378
0.00183731
0.00186351
0.00189055
0.00194465
0.00125657
0.000723666
0.000492332
0.000381993
0.000326092
0.000297165
0.00028556
0.000279193
0.000270754
0.000272118
0.0017841
0.00175897
0.00174906
0.00175603
0.00174534
0.00174795
0.00174775
0.00175879
0.0018064
0.00187067
0.00189853
0.00191476
0.00196016
0.00134348
0.000780263
0.000529937
0.000409238
0.00034872
0.000316102
0.000301307
0.000293304
0.000283162
0.000284602
0.00178375
0.00175679
0.00174532
0.00175521
0.0017438
0.00174923
0.00175163
0.00177183
0.00183438
0.00190625
0.00192883
0.00193158
0.0019747
0.00141799
0.00082276
0.000559177
0.000431509
0.000364844
0.000330717
0.000317018
0.000307087
0.000293759
0.000294837
0.00178503
0.00175566
0.00174222
0.00175373
0.00174449
0.00175166
0.00175842
0.00179
0.00186619
0.00194129
0.0019541
0.00194484
0.00198066
0.00152635
0.000888999
0.000599988
0.000458668
0.000388609
0.000349685
0.00033061
0.000320502
0.00030305
0.000301777
0.00178441
0.00175372
0.00173829
0.00175305
0.00174544
0.00175821
0.00177252
0.00181198
0.0018975
0.00196999
0.0019718
0.00195068
0.00198617
0.00161687
0.000939021
0.00063483
0.000486373
0.000405356
0.000364589
0.000347378
0.000331802
0.000309233
0.00030756
0.00178533
0.00175159
0.0017362
0.00175369
0.00174879
0.0017688
0.00178901
0.00183418
0.00192397
0.00199172
0.00198296
0.00195372
0.00198505
0.00174386
0.00101391
0.000678452
0.000512071
0.000431267
0.000385635
0.000361916
0.000341877
0.000316761
0.000315425
0.00178504
0.00174997
0.00173422
0.0017548
0.00175592
0.00178582
0.00180789
0.0018543
0.00194528
0.0020052
0.00198654
0.00195112
0.00198399
0.0018455
0.00106927
0.000716643
0.000544664
0.000449984
0.000401994
0.000375032
0.000352203
0.000328225
0.000326823
0.00178506
0.00174791
0.0017341
0.00175801
0.00176976
0.00180511
0.00182414
0.00187238
0.00195997
0.00201162
0.00198513
0.00194764
0.00197926
0.00198821
0.00115284
0.000768649
0.000575871
0.000481344
0.000429413
0.000398706
0.000370031
0.00034771
0.000377737
0.00178486
0.00174793
0.00173465
0.00176454
0.00178695
0.00182536
0.00184049
0.00188576
0.0019683
0.00201041
0.00197834
0.00194049
0.00197445
0.00202724
0.00121232
0.000806959
0.000608477
0.000505338
0.000450973
0.00041777
0.000394931
0.000448595
0.000675539
0.00178492
0.00174724
0.00173737
0.00177631
0.00180626
0.00184353
0.00185194
0.00189613
0.00197112
0.00200492
0.00196942
0.00193447
0.00196926
0.00201427
0.00130436
0.000872743
0.00065777
0.000550814
0.000497538
0.000482489
0.000561876
0.0010028
0.00209462
0.0017845
0.00174789
0.00174187
0.00179283
0.00182574
0.00186109
0.00186291
0.00190235
0.00196896
0.00199401
0.00195737
0.0019259
0.00196255
0.00201302
0.0013705
0.000920502
0.000694202
0.000587321
0.000543861
0.000587188
0.00102694
0.00218249
0.00292784
0.00178432
0.00175059
0.00175022
0.00181481
0.00184347
0.00187459
0.00186895
0.00190515
0.00196271
0.00198094
0.00194482
0.00191902
0.00195761
0.00200038
0.0014628
0.000992046
0.000766515
0.000668662
0.0006678
0.000939558
0.0021166
0.00281787
0.00322384
0.00178411
0.00175328
0.00176415
0.00184064
0.00185954
0.00188566
0.00187318
0.00190486
0.00195324
0.00196485
0.00193118
0.00191106
0.00195069
0.00199546
0.00152203
0.0010415
0.00081494
0.000726699
0.000805555
0.00170735
0.00227465
0.00281922
0.00327987
0.0017841
0.00175713
0.00178165
0.00186487
0.00187193
0.00189132
0.00187419
0.00190189
0.00194229
0.00194926
0.00191894
0.00190494
0.00194627
0.00198573
0.00160894
0.00112499
0.000916458
0.000896572
0.00127726
0.00195471
0.00256497
0.00292652
0.00337567
0.00178484
0.00176275
0.00180026
0.00188582
0.00188213
0.00189526
0.00187416
0.00189797
0.00193091
0.00193314
0.0019071
0.00189895
0.00194127
0.00198031
0.00167566
0.00118998
0.00100229
0.00104717
0.00152847
0.00210488
0.00247957
0.00287921
0.00343333
0.00178643
0.00177441
0.00181882
0.0019016
0.00188987
0.00189532
0.00187341
0.00189287
0.00191965
0.00191835
0.00189688
0.00189415
0.0019378
0.00197254
0.00175924
0.00128343
0.00114674
0.00126426
0.00154265
0.00199258
0.00251366
0.00277836
0.00344401
0.00178883
0.00178998
0.00183775
0.00191379
0.00189593
0.00189489
0.00187244
0.00188791
0.00190918
0.00190452
0.00188782
0.00188991
0.00193442
0.00196746
0.00183163
0.00137324
0.00127612
0.00123236
0.00150749
0.00198091
0.00243551
0.00277599
0.00334793
0.0017915
0.00181086
0.00185559
0.00192076
0.00190059
0.00189237
0.00187181
0.0018827
0.00189914
0.0018922
0.00188015
0.00188651
0.00193211
0.00196095
0.00183994
0.00146578
0.00130646
0.00118694
0.00140336
0.0018502
0.00219591
0.00257442
0.00325859
0.00179411
0.00183024
0.00187193
0.00192352
0.00190361
0.00189004
0.00187084
0.00187806
0.0018907
0.00188251
0.00187437
0.00188402
0.00193032
0.0019567
0.00182457
0.00152889
0.00127362
0.00114053
0.00125198
0.00163278
0.00208692
0.00245011
0.00305649
0.00179837
0.00184704
0.00188482
0.00192299
0.00190528
0.00188667
0.00186988
0.0018735
0.00188288
0.00187431
0.00186954
0.00188187
0.00192908
0.00195305
0.00181053
0.00152735
0.001237
0.00109008
0.00115252
0.00153461
0.0020745
0.00243309
0.00288189
0.00180592
0.00186115
0.00189686
0.00192032
0.00190588
0.00188337
0.00186817
0.00186893
0.00187577
0.0018673
0.00186552
0.00188045
0.00192853
0.00195024
0.00179613
0.00149959
0.00120218
0.00102586
0.00105228
0.00146303
0.00200668
0.00239754
0.00273318
0.00181535
0.00187297
0.00190489
0.00191535
0.0019047
0.00187906
0.00186601
0.00186437
0.00186914
0.00186165
0.00186237
0.00187925
0.00192865
0.00194827
0.00178422
0.00147499
0.00116831
0.000983061
0.00102237
0.00141338
0.00192279
0.00229119
0.00264889
0.00182513
0.00188094
0.00191169
0.0019093
0.00190259
0.00187468
0.0018631
0.00185979
0.0018635
0.0018569
0.00185967
0.00187879
0.0019295
0.0019474
0.00177303
0.0014587
0.00114728
0.000963993
0.000992955
0.00136357
0.00184279
0.00224229
0.00255741
0.00183262
0.00188663
0.0019142
0.00190186
0.00189857
0.00186957
0.00185953
0.00185534
0.00185823
0.00185329
0.00185778
0.0018784
0.00193102
0.00194716
0.0017649
0.00144873
0.00112705
0.000933659
0.000979242
0.00131938
0.0017734
0.00214769
0.00243966
0.00183885
0.00188839
0.00191544
0.00189408
0.001894
0.0018644
0.00185572
0.00185105
0.00185413
0.00185022
0.00185597
0.00187859
0.0019332
0.00194823
0.0017582
0.00144469
0.00112833
0.000913447
0.000973378
0.00131444
0.00173001
0.00212002
0.00234575
0.0018428
0.00188878
0.00191299
0.00188583
0.00188797
0.00185903
0.00185139
0.00184719
0.00185026
0.00184806
0.0018549
0.00187888
0.00193596
0.00194943
0.00175389
0.00144431
0.00112626
0.000889182
0.00094829
0.00125878
0.00168853
0.0020636
0.00229279
0.0018458
0.00188592
0.00190952
0.00187761
0.00188196
0.00185384
0.00184743
0.00184364
0.00184748
0.00184613
0.00185367
0.00187934
0.00193919
0.00195192
0.00175184
0.001447
0.00112442
0.000896814
0.000943435
0.00124125
0.00164944
0.00199364
0.00221917
0.00184777
0.00188293
0.0019036
0.00186977
0.00187521
0.001849
0.00184335
0.00184087
0.00184493
0.00184494
0.00185304
0.00188013
0.00194281
0.00195407
0.00175001
0.00145004
0.00112409
0.000889227
0.000947732
0.00118847
0.00159931
0.00194182
0.00220724
0.00184928
0.00187761
0.00189711
0.0018622
0.00186905
0.00184452
0.00183997
0.00183825
0.00184306
0.00184381
0.00185212
0.00188068
0.00194672
0.00195698
0.00175101
0.00145722
0.00112055
0.000893958
0.00093197
0.00116673
0.00152796
0.00188967
0.00216761
0.00185067
0.0018734
0.00188972
0.00185553
0.0018627
0.00184091
0.00183696
0.00183674
0.00184157
0.00184318
0.00185173
0.0018816
0.00195085
0.00195902
0.00174944
0.00145503
0.00112404
0.000889247
0.000920962
0.00118985
0.00149221
0.00186579
0.00211139
0.00185248
0.00186747
0.00188213
0.00184947
0.00185732
0.00183751
0.0018345
0.00183496
0.00184019
0.00184278
0.00185098
0.00188236
0.00195491
0.00196092
0.00175066
0.00145823
0.00113216
0.000892782
0.000940542
0.00120436
0.00147327
0.00183187
0.00208453
0.00185367
0.00186363
0.00187535
0.0018442
0.00185204
0.00183543
0.00183291
0.00183441
0.00183945
0.00184227
0.00185077
0.00188302
0.00195933
0.00196172
0.00174705
0.00145983
0.00114242
0.000891739
0.000958794
0.00120323
0.00145231
0.00179036
0.00204605
0.00185654
0.00185857
0.0018682
0.00184015
0.00184798
0.0018332
0.00183137
0.00183325
0.00183831
0.00184252
0.00185041
0.00188411
0.00196295
0.00196115
0.00174766
0.00145931
0.00116053
0.000902009
0.000962806
0.00118945
0.00142246
0.00173129
0.00197625
0.00185785
0.00185564
0.0018635
0.00183617
0.00184388
0.00183246
0.00183097
0.00183311
0.00183794
0.00184208
0.00185004
0.0018844
0.00196729
0.00196049
0.00174037
0.00146057
0.00116865
0.000909359
0.000964516
0.00116781
0.00137974
0.00164793
0.00188447
0.001861
0.00185243
0.00185779
0.00183417
0.0018414
0.00183125
0.0018303
0.00183233
0.00183697
0.00184243
0.0018497
0.00188546
0.00197034
0.00195746
0.00173859
0.00145353
0.00115372
0.000914144
0.000959517
0.00113281
0.00132417
0.00155552
0.00175934
0.00186324
0.00185014
0.00185545
0.00183153
0.0018384
0.00183159
0.00183037
0.0018323
0.00183686
0.00184239
0.00184869
0.0018857
0.00197415
0.00195543
0.00172923
0.00144715
0.00113676
0.000916235
0.000948161
0.00109785
0.00125587
0.00145289
0.00164477
0.00186537
0.00184912
0.00185194
0.00183098
0.00183724
0.00183096
0.00183063
0.0018317
0.00183582
0.001843
0.00184812
0.00188582
0.00197711
0.00195103
0.00171684
0.00142414
0.00112696
0.00091951
0.000937291
0.00104554
0.00118208
0.00134888
0.00152
0.00186866
0.00184704
0.00185097
0.00183004
0.00183566
0.00183201
0.00183042
0.00183156
0.00183594
0.00184195
0.00184714
0.00188656
0.00198022
0.00194634
0.00170699
0.00140749
0.00111651
0.000917132
0.00091491
0.000994331
0.00110293
0.00124488
0.00141417
0.00186906
0.00184738
0.00184955
0.00182985
0.0018347
0.00183148
0.00183126
0.00183121
0.00183492
0.00183984
0.00184762
0.00188716
0.00198346
0.00194173
0.00169682
0.00139506
0.00110394
0.00091096
0.00089861
0.000937984
0.00102497
0.00114053
0.00132416
0.00187206
0.0018458
0.00184914
0.00183045
0.00183497
0.00183256
0.00183057
0.00183065
0.00183455
0.00184026
0.00184789
0.00188637
0.00198458
0.0019379
0.0016869
0.00138937
0.0010998
0.000913191
0.000871295
0.000875554
0.000946808
0.00103241
0.00123199
0.00187131
0.00184543
0.00184893
0.00183041
0.00183314
0.00183241
0.00183128
0.0018309
0.00183477
0.00183829
0.00184839
0.00188534
0.00198917
0.00193397
0.00168945
0.00138738
0.00110016
0.000919995
0.000840779
0.000816451
0.000871256
0.000930089
0.0011407
0.00187387
0.00184567
0.00184989
0.00183219
0.00183499
0.00183374
0.0018311
0.00183064
0.00183405
0.00183678
0.00184757
0.00188633
0.00199086
0.00193665
0.00168934
0.00138208
0.00109898
0.000910076
0.000804799
0.000752191
0.000795718
0.0008327
0.00104778
0.00187526
0.00184532
0.00185214
0.0018342
0.00183421
0.00183507
0.00183172
0.00183261
0.00183307
0.00183532
0.00184731
0.00188653
0.00199017
0.00193673
0.00168779
0.00137854
0.00110057
0.000904724
0.000764747
0.000682351
0.000730692
0.000750471
0.000949148
0.00187786
0.0018483
0.00185488
0.00183769
0.00183647
0.00183646
0.0018336
0.00183148
0.00183205
0.00183568
0.00184793
0.0018866
0.00199109
0.00193591
0.00168757
0.00138171
0.00109327
0.000879097
0.000720733
0.000617181
0.000648597
0.000677269
0.0008501
0.00187904
0.00185088
0.00185276
0.00184011
0.00183858
0.00183313
0.00183345
0.00182866
0.00182954
0.00183459
0.00184795
0.00188617
0.0019921
0.00193075
0.00168658
0.00138064
0.00108258
0.000846436
0.000681019
0.000566853
0.000588502
0.000622132
0.000767902
0.00187373
0.00185086
0.00184914
0.00183694
0.00183745
0.00182862
0.00183174
0.00182778
0.00183009
0.00183551
0.00184827
0.00188709
0.00199144
0.00192911
0.00168229
0.00137348
0.00106839
0.000831291
0.000652313
0.000534328
0.000519893
0.000576697
0.00069816
0.00186243
0.00184721
0.00184325
0.00183129
0.00183304
0.00182634
0.00182809
0.00182791
0.00182927
0.00183432
0.00184733
0.00188665
0.00199115
0.00192409
0.00168708
0.001368
0.00104997
0.000806381
0.00061786
0.000519365
0.000484689
0.000550343
0.000651025
0.00184954
0.00183779
0.00183515
0.00182686
0.00182992
0.00182435
0.00182798
0.00182576
0.00182834
0.0018336
0.00184686
0.00188686
0.0019907
0.00191822
0.00168571
0.00137429
0.00105102
0.000778752
0.000607533
0.000515517
0.000465961
0.000529871
0.00061387
0.00183955
0.00183042
0.00183099
0.00182392
0.0018272
0.00182229
0.00182828
0.00182552
0.00182703
0.00183332
0.00184808
0.00188665
0.001991
0.00191723
0.00168056
0.00137214
0.00104348
0.000776786
0.000615772
0.000524794
0.000464848
0.000525441
0.000598406
0.00183385
0.00182888
0.00183009
0.00182243
0.0018285
0.00182192
0.00182487
0.00182378
0.00182691
0.00183317
0.00184827
0.00188637
0.0019884
0.00191378
0.00167956
0.00136695
0.0010343
0.000791965
0.000635495
0.000543212
0.000474315
0.00052111
0.00058936
0.00182839
0.00182584
0.00182835
0.00182251
0.00182723
0.00182245
0.00182526
0.00182468
0.00182583
0.00183358
0.0018476
0.0018878
0.00198497
0.00190998
0.00168672
0.00138
0.00105061
0.00082306
0.000667011
0.000569761
0.000490153
0.000526078
0.000598974
0.00182951
0.00182833
0.00182725
0.00182187
0.00182566
0.00182274
0.00182497
0.00182499
0.00182439
0.00183413
0.00184822
0.00188653
0.00197995
0.0019119
0.00170149
0.00140283
0.00107717
0.000859759
0.000702809
0.000598551
0.000506173
0.000523882
0.000612321
0.00182669
0.00182485
0.00182527
0.00182244
0.00182501
0.00182172
0.00182388
0.00182515
0.00182504
0.00183399
0.00184677
0.001886
0.00197232
0.00191892
0.00172297
0.00143803
0.00112155
0.000909449
0.000749256
0.000635064
0.000528526
0.000531879
0.000630705
0.00182955
0.00182549
0.00182513
0.00182368
0.00182544
0.00182176
0.00182351
0.00182579
0.00182536
0.00183337
0.00184747
0.00188667
0.00196691
0.00192666
0.00174522
0.00147078
0.00116178
0.000953436
0.000789451
0.000666833
0.000546946
0.000531335
0.000647853
0.00182665
0.00182452
0.00182344
0.00182211
0.00182544
0.00182048
0.00182309
0.00182577
0.00182578
0.00183456
0.00184525
0.00188644
0.00196415
0.00193959
0.00177525
0.00151889
0.00122351
0.00101456
0.000844158
0.000709227
0.000571885
0.000544851
0.00066565
0.00182713
0.00182303
0.00182587
0.0018225
0.00182341
0.00182052
0.00182378
0.00182569
0.00182556
0.00183196
0.00184584
0.0018874
0.00196041
0.00194606
0.00179423
0.00154835
0.00126334
0.00105381
0.000875756
0.000732158
0.000581048
0.000552248
0.000690253
0.00182443
0.00182302
0.00182592
0.00182013
0.00182261
0.00182037
0.00182411
0.00182478
0.00182513
0.00183137
0.00184546
0.00188578
0.00196176
0.00196244
0.00183206
0.00160303
0.00133092
0.00112041
0.000932227
0.000772666
0.000606232
0.000563746
0.000704014
0.00182269
0.00182485
0.00182477
0.00182237
0.00182406
0.00182159
0.00182424
0.00182593
0.00182526
0.00183065
0.00184613
0.00188543
0.001963
0.00196866
0.00184219
0.00162631
0.00136573
0.0011485
0.000949661
0.000779214
0.000606049
0.000570175
0.000732764
0.00182812
0.00182482
0.00182223
0.00181964
0.00182384
0.00181859
0.0018241
0.00182518
0.00182393
0.00183028
0.00184588
0.00188112
0.00195943
0.00197856
0.00187338
0.00167681
0.00143207
0.00120968
0.00100127
0.000823716
0.000639356
0.000584937
0.000739396
0.00182463
0.00182197
0.00182578
0.00182184
0.00182308
0.00182091
0.00182335
0.00182269
0.00182396
0.00183181
0.00184486
0.0018776
0.00195525
0.00198631
0.00190079
0.00172278
0.00149185
0.00126835
0.00105351
0.000863231
0.000660023
0.00060051
0.000751318
0.00182706
0.00182178
0.00182353
0.00182296
0.00182216
0.00182234
0.00182303
0.00182134
0.00182241
0.00183172
0.00184334
0.00187394
0.00195013
0.00199186
0.00192711
0.00176705
0.00154849
0.00132695
0.00110863
0.000910699
0.000697917
0.000619874
0.000759312
0.00182315
0.0018182
0.00182254
0.00182079
0.00182143
0.00182068
0.00182359
0.00181837
0.00182246
0.00183046
0.00184213
0.00187086
0.00194404
0.00199544
0.00194987
0.00180909
0.00160262
0.00138404
0.00116602
0.000960514
0.000735386
0.000635871
0.000774006
0.00182315
0.00181782
0.00182458
0.00181949
0.0018211
0.00181945
0.00182361
0.00181884
0.0018278
0.00183171
0.00184151
0.00186751
0.00193707
0.00199696
0.00196898
0.0018472
0.00165221
0.00144009
0.00122412
0.00101735
0.000789339
0.000652116
0.000774824
0.00181895
0.00182211
0.00181896
0.00181514
0.00181844
0.00181475
0.00182274
0.0018221
0.00182712
0.00182968
0.00184032
0.00186455
0.00192923
0.00199657
0.00198397
0.00188138
0.00169689
0.00149606
0.00127965
0.00107811
0.000854152
0.000660879
0.000775119
0.00181672
0.00182238
0.00181649
0.00182056
0.00181755
0.00181959
0.00182097
0.0018232
0.00182313
0.00182793
0.00183845
0.00186123
0.0019206
0.00199523
0.0019942
0.00191101
0.00173801
0.00155131
0.00134075
0.00114114
0.000923409
0.00070871
0.000792191
0.00181901
0.00181001
0.00181248
0.00182406
0.00181747
0.00182167
0.00181871
0.00182063
0.00182158
0.00183025
0.00183739
0.00185835
0.00191141
0.00199104
0.00200122
0.00193796
0.00177668
0.00160538
0.00140788
0.00120978
0.00100134
0.000755224
0.000824584
0.00182035
0.00180641
0.00182007
0.00181831
0.00181878
0.00181648
0.00181829
0.00181819
0.00182425
0.00182752
0.00183554
0.00185516
0.00190232
0.0019856
0.00200405
0.00195992
0.0018163
0.00165948
0.00147927
0.00128762
0.00108393
0.00084846
0.000850552
0.00181565
0.00180338
0.00182462
0.00181379
0.00182003
0.00181272
0.00181988
0.00181791
0.00182462
0.00182572
0.00183385
0.0018523
0.00189351
0.00197495
0.00200445
0.00198125
0.00185462
0.0017123
0.00155188
0.00137412
0.00117988
0.000937733
0.000892357
0.0018134
0.00180238
0.00182605
0.00181713
0.00182831
0.00181127
0.00181936
0.00181758
0.00182423
0.00182381
0.00183213
0.00184961
0.00188487
0.00196382
0.0019998
0.00199708
0.00189417
0.0017655
0.00162368
0.00146515
0.00128416
0.00104999
0.000944224
0.00181231
0.00181216
0.00182964
0.00182222
0.00182612
0.00181266
0.00181962
0.00181781
0.00182345
0.00182115
0.00182974
0.00184622
0.00187625
0.00194649
0.00199394
0.00201074
0.00193009
0.00181749
0.00169394
0.00155651
0.00139151
0.00118829
0.00101503
0.00181772
0.00180542
0.00182709
0.00182304
0.00183529
0.0018146
0.00182029
0.00181931
0.00181697
0.00181864
0.00182698
0.00184206
0.00186774
0.00193046
0.00197947
0.00201919
0.00196306
0.00186637
0.00176104
0.0016446
0.00149993
0.00132465
0.00111289
0.00182202
0.00179433
0.00181589
0.0018258
0.00183076
0.00181463
0.00181878
0.00181969
0.00181533
0.00181641
0.00182414
0.00183744
0.00185905
0.00190928
0.00196776
0.00201022
0.00199458
0.00191838
0.00182841
0.00173045
0.0016086
0.00145621
0.00123969
0.00182247
0.00178943
0.00180818
0.00182108
0.00181665
0.00181401
0.0018156
0.00181819
0.00181377
0.00181431
0.00182123
0.0018328
0.00185091
0.00188726
0.00195178
0.00199762
0.0020049
0.00196386
0.00189707
0.0018171
0.00171706
0.0015882
0.00139627
0.00181857
0.00178403
0.0018028
0.00180922
0.00181065
0.00181293
0.0018118
0.00181509
0.00181128
0.00181199
0.00181811
0.00182778
0.0018424
0.0018698
0.00192913
0.0019732
0.00201026
0.00199034
0.00194847
0.00189222
0.00181557
0.00171482
0.00157243
0.00180706
0.00178085
0.001801
0.00180476
0.00180633
0.00181058
0.00180847
0.00181178
0.00180847
0.00180931
0.00181451
0.00182265
0.00183366
0.00185472
0.00190217
0.00194462
0.00199427
0.00201682
0.00199007
0.00194955
0.00189663
0.00182478
0.00171957
0.0017991
0.00180553
0.00180175
0.00180307
0.00180291
0.00180667
0.00180546
0.00180849
0.00180575
0.00180648
0.00181049
0.00181727
0.00182544
0.00184095
0.00187374
0.00191381
0.00195995
0.00200714
0.0020272
0.00200487
0.00196395
0.00191452
0.00184067
0.00179419
0.00180961
0.00180241
0.00180264
0.00179987
0.00180151
0.00180258
0.0018057
0.00180328
0.00180352
0.00180641
0.00181184
0.00181837