/*--------------------------------*- C++ -*----------------------------------*\
  =========                 |
  \\      /  F ield         | OpenFOAM: The Open Source CFD Toolbox
   \\    /   O peration     | Website:  https://openfoam.org
    \\  /    A nd           | Version:  7
     \\/     M anipulation  |
\*---------------------------------------------------------------------------*/
FoamFile
{
    version     2.0;
    format      ascii;
    class       volScalarField;
    location    "80";
    object      omega;
}
// * * * * * * * * * * * * * * * * * * * * * * * * * * * * * * * * * * * * * //

dimensions      [0 0 -1 0 0 0 0];

internalField   nonuniform List<scalar> 
12842
(
3.14717
2.85033
2.6582
2.53231
2.43824
2.37542
2.32716
2.29327
2.27017
2.25099
2.24195
2.23253
2.23305
2.23951
2.25078
2.28454
2.32176
2.40334
2.47276
2.57922
2.65819
2.7563
2.81603
3.13027
2.83399
2.64073
2.52554
2.43531
2.37413
2.32629
2.29254
2.26908
2.24995
2.24082
2.23165
2.23273
2.23896
2.2516
2.28142
2.32243
2.40117
2.47765
2.58584
2.655
2.75447
2.81274
3.12057
2.80275
2.61042
2.49466
2.4139
2.35974
2.31501
2.28445
2.26195
2.24467
2.23628
2.22882
2.23078
2.2379
2.25308
2.28302
2.32839
2.40451
2.49075
2.59262
2.66323
2.76061
2.81755
3.0927
2.78366
2.59099
2.47863
2.39761
2.34878
2.30862
2.2805
2.25875
2.24244
2.23434
2.22763
2.22998
2.23863
2.25533
2.28613
2.33479
2.40958
2.50448
2.60577
2.68109
2.77479
2.8262
3.0736
2.74358
2.5587
2.45355
2.38186
2.33563
2.29567
2.27085
2.25079
2.23703
2.22979
2.22506
2.22831
2.23876
2.25801
2.29169
2.34416
2.4206
2.51955
2.60897
2.69565
2.7958
2.8466
3.04786
2.72229
2.53502
2.4308
2.36063
2.32127
2.28736
2.26611
2.24716
2.23462
2.22775
2.22386
2.22751
2.23832
2.25943
2.29564
2.35184
2.43171
2.53935
2.62669
2.70969
2.80295
2.85561
3.02279
2.68828
2.50979
2.41354
2.34795
2.31005
2.27677
2.25763
2.24007
2.2297
2.22369
2.22163
2.22628
2.23938
2.26242
2.30067
2.36042
2.44031
2.55515
2.63885
2.7405
2.82775
2.87632
3.00168
2.66768
2.48691
2.39098
2.33065
2.29786
2.26857
2.25229
2.23616
2.22738
2.22154
2.22036
2.22505
2.23899
2.26429
2.30536
2.36938
2.45508
2.57157
2.65537
2.76308
2.84384
2.90818
2.97296
2.64076
2.47073
2.37892
2.31946
2.28881
2.26115
2.24696
2.23165
2.22403
2.21839
2.2184
2.22394
2.23871
2.26467
2.30617
2.37143
2.45807
2.58447
2.66624
2.78457
2.86355
2.93785
2.95333
2.61677
2.44834
2.3608
2.3074
2.27973
2.25468
2.24233
2.22799
2.22177
2.21638
2.21716
2.22347
2.24021
2.26629
2.30975
2.37827
2.46827
2.59484
2.68129
2.79825
2.87202
2.95627
2.91922
2.59248
2.43547
2.35031
2.29774
2.27238
2.24947
2.23843
2.22505
2.21962
2.21411
2.21553
2.22315
2.24032
2.26726
2.3114
2.38155
2.4731
2.60535
2.69121
2.82284
2.89846
2.99261
2.90089
2.56966
2.4156
2.33551
2.28773
2.26468
2.24393
2.23432
2.22149
2.21713
2.21214
2.2142
2.2228
2.24189
2.26961
2.31611
2.39109
2.48787
2.62302
2.71573
2.83917
2.91612
3.01947
2.86732
2.54861
2.40418
2.32602
2.27941
2.25809
2.23969
2.23079
2.21913
2.21537
2.21029
2.21279
2.22269
2.24268
2.27048
2.31842
2.39603
2.49548
2.63425
2.72774
2.87704
2.9556
3.06651
2.84966
2.52813
2.38755
2.31437
2.271
2.25182
2.23511
2.22754
2.21608
2.21301
2.20858
2.21168
2.22264
2.24349
2.27286
2.32499
2.40928
2.51488
2.65978
2.76305
2.89833
3.00077
3.11728
2.81971
2.51029
2.37667
2.30588
2.26405
2.246
2.23127
2.22407
2.21402
2.21147
2.20727
2.21068
2.222
2.24357
2.2742
2.3285
2.4161
2.52787
2.67307
2.78112
2.9538
3.04559
3.1711
2.80233
2.49273
2.36298
2.29685
2.2573
2.241
2.22725
2.22132
2.21159
2.20953
2.20596
2.20994
2.22298
2.24271
2.27791
2.33743
2.43348
2.55077
2.70543
2.82886
2.98254
3.12925
3.25307
2.77752
2.4778
2.35254
2.28913
2.25154
2.23595
2.22334
2.21777
2.20956
2.20807
2.20509
2.20932
2.22318
2.24321
2.28037
2.34227
2.44239
2.57208
2.72281
2.86253
3.0556
3.18028
3.32215
2.76039
2.46321
2.34122
2.2817
2.2463
2.23172
2.2196
2.21506
2.20749
2.2066
2.20426
2.20892
2.22383
2.24517
2.28553
2.35325
2.46346
2.59718
2.76481
2.92143
3.09849
3.29644
3.43852
2.74094
2.45081
2.33171
2.27457
2.24142
2.22729
2.21551
2.21148
2.20533
2.20508
2.20364
2.20855
2.22409
2.24707
2.28906
2.3597
2.47652
2.62932
2.79152
2.97984
3.18989
3.36504
3.53123
2.72438
2.43885
2.32228
2.26789
2.23715
2.22325
2.21192
2.20865
2.20335
2.20388
2.20314
2.20836
2.22401
2.25017
2.2946
2.37216
2.49913
2.65605
2.83877
3.04249
3.25181
3.49664
3.6756
2.70933
2.42857
2.31407
2.26123
2.23262
2.21917
2.20782
2.2051
2.20108
2.20226
2.20255
2.20812
2.22487
2.25401
2.29964
2.38221
2.52148
2.70083
2.88854
3.12697
3.36131
3.59498
3.79736
2.69432
2.41862
2.30623
2.25499
2.22881
2.21496
2.20428
2.2022
2.19907
2.20104
2.20206
2.20795
2.22591
2.25851
2.30519
2.39498
2.54355
2.72986
2.93363
3.19232
3.43888
3.72609
3.9471
2.68203
2.4105
2.29917
2.24876
2.22417
2.21116
2.20037
2.19876
2.19676
2.19934
2.20138
2.20771
2.226
2.26003
2.31192
2.41112
2.57633
2.78431
3.0069
3.29174
3.55929
3.85364
4.11044
2.67116
2.40371
2.29435
2.24421
2.22163
2.20761
2.19741
2.19623
2.19505
2.19818
2.20092
2.20798
2.22874
2.26997
2.31726
2.42221
2.59694
2.8177
3.0537
3.36717
3.65448
3.99944
4.26518
2.66564
2.39862
2.29068
2.24084
2.21909
2.20541
2.19514
2.19407
2.19366
2.19729
2.20057
2.208
2.22897
2.27175
2.32503
2.44181
2.6346
2.87142
3.13333
3.47036
3.78662
4.14505
4.48631
2.65627
2.39393
2.28804
2.23826
2.21722
2.20305
2.19332
2.19237
2.19257
2.19663
2.20021
2.20808
2.22832
2.27451
2.33143
2.45243
2.655
2.91481
3.19648
3.56277
3.89954
4.34528
4.68126
2.65114
2.38892
2.28477
2.23533
2.21455
2.20097
2.19142
2.19056
2.19149
2.196
2.19983
2.20815
2.22782
2.27571
2.33888
2.47084
2.68907
2.95425
3.25798
3.66167
4.0542
4.48803
4.92134
2.64279
2.38432
2.28241
2.23334
2.21256
2.19888
2.19001
2.18906
2.19075
2.19551
2.19934
2.20771
2.22831
2.27247
2.34538
2.48169
2.70874
3.01684
3.35285
3.7819
4.18367
4.75652
5.21063
2.63778
2.37932
2.27941
2.23081
2.20988
2.19697
2.18859
2.18783
2.19
2.19487
2.19859
2.20667
2.22964
2.27182
2.35034
2.49695
2.73856
3.05233
3.41278
3.90624
4.4176
4.97279
5.50607
2.6306
2.37487
2.2772
2.22935
2.20788
2.19536
2.18767
2.18668
2.18946
2.19408
2.1975
2.2067
2.23121
2.27239
2.35588
2.51248
2.76664
3.13044
3.55539
4.08142
4.58673
5.26883
5.83645
2.62532
2.37009
2.27424
2.22686
2.20538
2.19368
2.18673
2.18586
2.1887
2.19287
2.19596
2.2066
2.23267
2.27389
2.36082
2.52341
2.78993
3.17422
3.63007
4.22851
4.86145
5.5312
6.13341
2.61936
2.366
2.27201
2.22553
2.20349
2.19248
2.18621
2.18514
2.18785
2.1913
2.19406
2.20644
2.23426
2.27561
2.37029
2.54972
2.84135
3.26945
3.79348
4.42589
5.04385
5.80765
6.46445
2.61352
2.36181
2.26889
2.22274
2.20135
2.19122
2.1855
2.18417
2.18652
2.1892
2.19191
2.20637
2.23523
2.27867
2.37928
2.56869
2.87291
3.32276
3.8832
4.58334
5.33098
6.09929
6.7558
2.60867
2.35826
2.2665
2.2212
2.19983
2.19022
2.18489
2.1832
2.18487
2.18678
2.18982
2.20632
2.23668
2.28661
2.40245
2.61425
2.95052
3.44189
4.05794
4.7897
5.51524
6.34867
7.06246
2.60241
2.35484
2.26313
2.21801
2.19819
2.18929
2.18415
2.18165
2.18279
2.18407
2.18802
2.20601
2.23833
2.29339
2.41933
2.64487
2.99658
3.50686
4.15637
4.94444
5.79212
6.63577
7.33584
2.59824
2.35179
2.26062
2.2163
2.19715
2.18802
2.1827
2.17997
2.18045
2.18143
2.18674
2.20632
2.2432
2.31761
2.46647
2.71793
3.09951
3.64631
4.33698
5.14986
5.97112
6.86794
7.60759
2.59206
2.34904
2.25721
2.2128
2.19592
2.18678
2.18112
2.17781
2.17789
2.17908
2.18603
2.20665
2.24903
2.33755
2.49674
2.76224
3.1591
3.72216
4.43818
5.29949
6.22307
7.11718
7.84418
2.58823
2.34616
2.2548
2.21105
2.195
2.1848
2.17908
2.17581
2.17577
2.17735
2.18585
2.2117
2.27357
2.39012
2.57061
2.85915
3.28091
3.8759
4.61701
5.49063
6.39578
7.33034
8.0771
2.58276
2.34369
2.25178
2.2077
2.19366
2.1827
2.17679
2.17325
2.17366
2.17587
2.18601
2.22314
2.29978
2.42926
2.61581
2.91762
3.35673
3.956
4.71663
5.64137
6.60286
7.52492
8.26889
2.57892
2.34075
2.25012
2.20602
2.19237
2.18008
2.17467
2.17212
2.17207
2.1756
2.1907
2.25104
2.34946
2.50129
2.71065
3.02557
3.47667
4.11072
4.88627
5.7927
6.77225
7.70342
8.4438
2.57462
2.33795
2.24797
2.20268
2.19024
2.17765
2.17227
2.17063
2.17175
2.1764
2.2032
2.28426
2.39445
2.55402
2.76696
3.09888
3.57283
4.18652
4.97974
5.95907
6.92417
7.84376
8.5885
2.5705
2.33489
2.24696
2.20082
2.18839
2.17495
2.17147
2.17157
2.17416
2.18445
2.22815
2.33305
2.46145
2.63808
2.86891
3.20232
3.66808
4.33711
5.1427
6.06783
7.08334
7.98361
8.67149
2.56717
2.33125
2.24498
2.19694
2.18494
2.17266
2.17181
2.17657
2.18278
2.20076
2.26159
2.38498
2.51983
2.69805
2.93029
3.28432
3.78851
4.40975
5.22732
6.23043
7.21413
8.06315
8.72621
2.56331
2.32813
2.24379
2.19465
2.18333
2.17202
2.17598
2.18919
2.20153
2.22931
2.30689
2.44916
2.59676
2.78808
3.03461
3.38478
3.86206
4.55889
5.40099
6.37952
7.33337
8.15145
8.80617
2.56003
2.32326
2.24111
2.1907
2.1806
2.1729
2.18679
2.2102
2.22901
2.26592
2.35892
2.51285
2.66105
2.84811
3.09385
3.45681
3.97781
4.63523
5.49471
6.47479
7.42953
8.30346
9.00983
2.55674
2.31986
2.23946
2.18868
2.18075
2.17778
2.20635
2.23912
2.26598
2.31321
2.41964
2.58445
2.74009
2.93862
3.1972
3.56944
4.07815
4.79809
5.70036
6.70239
7.61871
8.59938
9.74652
2.55313
2.31341
2.23561
2.18536
2.18111
2.18942
2.23242
2.27619
2.3108
2.36662
2.48329
2.6516
2.80321
2.99321
3.25124
3.62449
4.15446
4.88976
5.82842
6.86554
7.9039
9.8351
12.974
2.54949
2.30906
2.23375
2.18418
2.18899
2.20861
2.26768
2.31944
2.36178
2.42631
2.55123
2.72265
2.87786
3.07977
3.3503
3.74342
4.31535
5.10526
6.1411
7.32253
9.39668
14.5219
24.7741
2.54557
2.30185
2.23028
2.18209
2.20045
2.23427
2.3079
2.36919
2.41917
2.49049
2.61966
2.78767
2.93642
3.12799
3.40201
3.80774
4.39328
5.23083
6.39275
8.26423
13.1023
26.1346
38.5361
2.54152
2.29623
2.23037
2.18295
2.22373
2.27058
2.3585
2.426
2.48212
2.55955
2.69134
2.85579
3.00432
3.20613
3.49472
3.93022
4.59086
5.58295
7.17877
10.2937
19.9897
39.1977
60.359
2.53695
2.29034
2.22882
2.1856
2.25189
2.31233
2.41173
2.48526
2.54706
2.62868
2.75885
2.91473
3.05675
3.25128
3.54278
3.99926
4.71368
5.79661
7.81985
13.808
30.981
56.9268
80.6127
2.5321
2.2872
2.2317
2.19677
2.28903
2.3619
2.46918
2.54625
2.61108
2.69573
2.82286
2.97083
3.11015
3.31156
3.62405
4.13726
4.98386
6.4036
9.69031
19.0766
39.8254
72.8073
96.4339
2.52635
2.28479
2.23705
2.2159
2.32933
2.41338
2.52581
2.60565
2.6726
2.75964
2.88121
3.01902
3.15315
3.35194
3.67186
4.23096
5.19148
6.90557
10.9043
22.7797
51.548
85.8714
106.519
2.52049
2.28349
2.24972
2.24502
2.37424
2.46871
2.58212
2.66377
2.73073
2.81936
2.93434
3.06323
3.19453
3.39977
3.74947
4.38851
5.56291
7.80701
13.2926
30.0823
60.6483
100.041
115.758
2.51492
2.28353
2.26524
2.27994
2.41963
2.52248
2.63508
2.71771
2.78398
2.87382
2.98116
3.10076
3.22852
3.43553
3.80273
4.5113
5.83994
8.44568
14.979
33.3497
68.2456
106.889
124.018
2.51061
2.28546
2.28716
2.32311
2.46674
2.57705
2.68574
2.76901
2.83379
2.92367
3.02305
3.13482
3.26078
3.47572
3.87955
4.68799
6.28378
9.462
17.5613
39.8521
80.0093
119.939
131.075
2.50784
2.29404
2.31133
2.36823
2.50991
2.6246
2.72882
2.81153
2.87461
2.9633
3.05548
3.16054
3.28482
3.5051
3.93662
4.82906
6.57265
10.1778
19.8526
44.0815
83.8994
126.039
139.877
2.50636
2.30918
2.33916
2.4149
2.55166
2.66989
2.76848
2.85064
2.91211
2.99861
3.08414
3.18357
3.30641
3.53289
3.99378
4.96481
6.89499
10.9487
22.1343
47.2569
83.8658
126.603
146.806
2.50571
2.33111
2.36963
2.46377
2.59276
2.71256
2.80566
2.88626
2.94588
3.02958
3.10918
3.20355
3.32586
3.55941
4.05073
5.10488
7.21217
12.0081
24.64
49.2038
84.0973
127.431
151.509
2.50602
2.35851
2.40425
2.51336
2.63349
2.75366
2.84023
2.91902
2.97685
3.05668
3.1311
3.22157
3.34342
3.58455
4.10473
5.23637
7.50564
12.6044
25.6038
50.224
84.4187
130.683
151.982
2.51034
2.39193
2.44089
2.56304
2.67331
2.79216
2.87261
2.94863
3.00401
3.08014
3.15038
3.2371
3.3594
3.60842
4.15669
5.33905
7.7259
12.9384
26.1052
51.0132
84.5784
129.503
152.758
2.52004
2.42917
2.4808
2.61188
2.71275
2.82901
2.90268
2.97551
3.02864
3.10032
3.16707
3.25125
3.37393
3.63116
4.20326
5.41406
7.8955
13.4215
26.5468
51.8065
84.7845
130.746
154.796
2.5348
2.47043
2.52193
2.65909
2.75081
2.86321
2.93057
2.99958
3.04957
3.11768
3.18202
3.26352
3.3873
3.65227
4.24583
5.46567
7.90385
13.7743
26.7664
50.925
84.2701
128.202
156.033
2.55352
2.513
2.56472
2.70445
2.78791
2.89544
2.9564
3.02095
3.0683
3.13247
3.19485
3.27458
3.39951
3.67273
4.28337
5.49565
7.9238
14.0515
26.8742
51.7121
83.9295
127.873
155.024
2.57572
2.55721
2.60789
2.74697
2.82299
2.92482
2.97987
3.03989
3.08384
3.14516
3.20658
3.28454
3.41085
3.69103
4.31455
5.51286
7.95033
13.9414
26.9447
50.5795
83.5366
128.523
155.835
2.59905
2.60012
2.65066
2.78697
2.85621
2.95187
3.00141
3.0562
3.09759
3.15595
3.21659
3.2931
3.42127
3.70953
4.34494
5.52401
7.95418
14.0308
26.9594
50.5203
83.4669
127.478
153.082
2.62425
2.64255
2.69292
2.82355
2.88692
2.97601
3.02061
3.07065
3.10895
3.16524
3.22594
3.30124
3.43098
3.72572
4.36715
5.51766
7.98507
13.975
26.7908
50.7881
84.1055
125.243
152.614
2.64832
2.68169
2.73274
2.85717
2.915
2.99756
3.03774
3.08265
3.11891
3.17307
3.23371
3.30805
3.43991
3.7427
4.39434
5.54873
7.98032
14.1609
27.0792
49.8094
82.0759
119.756
152.073
2.67248
2.71891
2.77119
2.88721
2.94047
3.01667
3.053
3.09352
3.12739
3.17999
3.24121
3.31441
3.44853
3.75839
4.41291
5.55814
7.96835
13.9922
26.8567
47.7875
78.4395
113.721
146.97
2.69553
2.75193
2.8056
2.91443
2.9631
3.03294
3.06597
3.10238
3.13474
3.18572
3.24724
3.32019
3.45619
3.7742
4.44285
5.58102
7.95981
14.0428
26.0814
45.7263
74.3567
107.199
139.64
2.71645
2.78239
2.83823
2.93792
2.98315
3.04776
3.07772
3.11068
3.14139
3.19081
3.25326
3.32491
3.46428
3.79094
4.46066
5.61295
7.9516
13.9083
25.4004
43.8274
70.4517
101.144
131.87
2.73782
2.80892
2.86595
2.95946
3.00094
3.05969
3.0874
3.11765
3.14718
3.19534
3.25846
3.32975
3.47105
3.8057
4.49903
5.6443
7.97284
13.7737
24.6826
42.0569
66.9569
96.1417
124.142
2.75574
2.83271
2.89204
2.97726
3.01605
3.0711
3.0961
3.12437
3.15264
3.19908
3.26411
3.33377
3.47885
3.82356
4.52274
5.70908
8.12506
13.6174
24.101
40.7013
64.0575
91.5279
118.173
2.77477
2.85403
2.91343
2.99376
3.02989
3.07995
3.10373
3.13031
3.15759
3.2027
3.26797
3.33721
3.48479
3.83883
4.56491
5.77091
8.26997
13.5113
23.659
39.2765
61.6182
87.5555
112.182
2.79125
2.87239
2.93337
3.00761
3.04138
3.0889
3.11011
3.13609
3.16238
3.20624
3.27007
3.34211
3.49278
3.85663
4.61449
5.90085
8.35468
13.3716
23.1565
38.4486
59.5102
83.865
107.708
2.80767
2.89018
2.95019
3.01957
3.05183
3.09579
3.11675
3.14167
3.16657
3.20846
3.27211
3.34414
3.4982
3.87554
4.65458
5.98263
8.45722
13.2701
22.8741
37.4776
57.5467
80.5168
103.192
2.82408
2.90543
2.965
3.03106
3.06158
3.10333
3.1219
3.14653
3.17131
3.21282
3.27161
3.3452
3.50553
3.89195
4.68526
6.04968
8.54054
13.1858
22.357
36.6341
55.5553
77.6321
98.5313
2.83867
2.92025
2.97918
3.03977
3.06922
3.10934
3.12806
3.15223
3.17475
3.21391
3.27159
3.34672
3.51449
3.90148
4.71498
6.07332
8.59417
13.1033
21.9991
35.8669
53.4632
75.4327
94.7392
2.85528
2.9353
2.99069
3.04955
3.07867
3.1158
3.13328
3.15638
3.17915
3.2171
3.27177
3.34901
3.51616
3.91005
4.71145
6.08732
8.56405
13.0118
21.5893
34.9068
51.2905
73.4154
91.2376
2.86965
2.94709
3.00316
3.05677
3.08456
3.12181
3.13843
3.16128
3.18267
3.21993
3.27215
3.34802
3.51774
3.90616
4.71305
6.10536
8.57013
13.0098
21.1798
34.1167
49.266
71.4321
87.8348
2.88464
2.96283
3.01309
3.06489
3.09343
3.12715
3.14467
3.16599
3.18586
3.22363
3.27258
3.34782
3.52043
3.90561
4.71683
6.12055
8.55974
12.788
20.8074
33.7359
46.8829
68.7992
85.1463
2.90035
2.97239
3.02375
3.07128
3.09971
3.13388
3.14886
3.16907
3.1894
3.22331
3.27113
3.34794
3.51913
3.90604
4.71784
6.10903
8.55908
12.7628
20.528
33.3939
46.1548
65.9524
82.6143
2.91322
2.98646
3.03281
3.07911
3.10645
3.13938
3.15539
3.17543
3.19431
3.22503
3.27094
3.34872
3.51913
3.90991
4.72002
6.10751
8.55221
12.8118
20.2111
32.6799
44.6515
62.4372
79.3545
2.93195
2.99754
3.04279
3.08546
3.11562
3.14946
3.16208
3.17996
3.19498
3.22372
3.27069
3.34714
3.52179
3.90399
4.72869
6.12853
8.55792
12.598
19.6907
31.3771
44.7837
58.8311
75.4858
2.94847
3.00916
3.05232
3.09674
3.12336
3.15609
3.16947
3.18259
3.19628
3.22409
3.27064
3.3476
3.5198
3.90331
4.71084
6.13988
8.59969
12.5738
19.5346
29.5702
43.2679
54.9084
70.9108
2.96973
3.0275
3.06658
3.10655
3.12981
3.15939
3.16949
3.18582
3.19928
3.22522
3.27118
3.34696
3.52031
3.9045
4.71013
6.09875
8.49332
12.6545
18.8313
27.6109
41.0466
51.1018
66.0806
2.98643
3.03851
3.07562
3.11278
3.13644
3.16316
3.17094
3.18621
3.202
3.22499
3.26927
3.34679
3.51966
3.89699
4.71959
6.09539
8.47381
12.3922
17.7717
25.4977
38.2505
47.4185
61.0332
2.99594
3.04642
3.08089
3.11736
3.13685
3.16386
3.17472
3.18952
3.20117
3.22473
3.26895
3.34688
3.51986
3.89585
4.71782
6.10768
8.48347
11.9372
16.6468
23.4707
35.451
44.3232
56.1996
3.005
3.04906
3.0837
3.12183
3.13824
3.16521
3.17391
3.18785
3.20212
3.22385
3.26921
3.34452
3.51689
3.89679
4.69282
6.04051
8.30473
11.3201
15.4253
21.4818
32.5548
41.4111
51.5186
3.00305
3.04948
3.08528
3.1202
3.14032
3.16511
3.17408
3.19005
3.2045
3.22377
3.26698
3.34403
3.5163
3.88813
4.64856
5.93502
8.06577
10.7272
14.3671
19.8205
30.1071
39.1079
47.4649
3.00759
3.05139
3.08765
3.11984
3.14097
3.16596
3.17575
3.18781
3.2026
3.22411
3.2669
3.34451
3.51773
3.8685
4.58624
5.78409
7.72379
10.0503
13.2553
18.1579
27.6597
36.6525
43.623
3.0031
3.05566
3.08842
3.12006
3.14141
3.16646
3.17862
3.18755
3.20175
3.22427
3.26678
3.34386
3.51664
3.85004
4.52453
5.65062
7.44053
9.53333
12.4592
16.9927
25.9261
34.8518
40.5153
3.00611
3.05325
3.09052
3.11904
3.14236
3.16693
3.1764
3.18888
3.20134
3.22154
3.26836
3.34344
3.50969
3.8184
4.44301
5.46684
7.05559
8.90557
11.5279
15.6583
23.9803
32.582
37.4728
3.00546
3.056
3.08647
3.11823
3.14196
3.16514
3.17542
3.18888
3.20077
3.22264
3.26804
3.34043
3.50546
3.80263
4.39214
5.36052
6.82404
8.54856
11.0548
15.0325
23.1248
31.2096
35.1533
3.00817
3.05769
3.08716
3.12074
3.14266
3.1644
3.17556
3.18956
3.20042
3.22297
3.26639
3.33866
3.49338
3.76308
4.29388
5.16445
6.45579
7.99484
10.2632
13.8934
21.3217
29.0777
32.7077
3.01032
3.05207
3.08909
3.1168
3.14216
3.16405
3.1748
3.1863
3.20043
3.22329
3.26628
3.34055
3.49125
3.75447
4.27365
5.09672
6.30008
7.79968
10.0783
13.7846
21.2797
28.2347
31.1146
3.00421
3.0515
3.09081
3.11966
3.14141
3.16452
3.17418
3.18548
3.19914
3.22227
3.26247
3.33751
3.47535
3.71753
4.18571
4.92412
5.99059
7.35379
9.42607
12.7316
19.5087
26.237
29.0819
3.00831
3.05033
3.08492
3.11437
3.14182
3.15912
3.17359
3.18679
3.19821
3.22011
3.25987
3.33252
3.46013
3.68334
4.10619
4.77413
5.7324
6.97477
8.85301
11.8588
18.1751
24.6698
27.4749
3.00147
3.04904
3.08345
3.11305
3.14116
3.15742
3.17189
3.18582
3.1946
3.21706
3.25649
3.32668
3.44467
3.6491
4.0296
4.63334
5.49789
6.62512
8.31889
10.9868
16.6063
23.0596
25.9967
3.0013
3.04496
3.08339
3.1136
3.1378
3.15794
3.16902
3.18332
3.19267
3.2143
3.25187
3.31935
3.42933
3.61615
3.95738
4.50219
5.28285
6.30493
7.82152
10.1835
15.0667
21.416
24.5461
2.99546
3.04287
3.07364
3.10973
3.13383
3.15288
3.16605
3.17982
3.18485
3.20669
3.24545
3.31107
3.41303
3.58298
3.88803
4.37824
5.08245
6.00991
7.3695
9.43573
13.4925
19.6337
23.0256
2.99074
3.0377
3.07796
3.10423
3.12911
3.14898
3.1626
3.17492
3.18242
3.20165
3.23924
3.30174
3.39621
3.55057
3.82217
4.2613
4.89474
5.7249
6.9588
8.73824
12.0567
17.8274
21.3598
2.98766
3.03408
3.0669
3.09067
3.11637
3.13623
3.15845
3.16785
3.18255
3.195
3.23231
3.29054
3.37717
3.51689
3.75744
4.14741
4.71486
5.44359
6.53167
8.08355
10.8589
16.0795
19.6389
2.97091
3.03611
3.06902
3.08617
3.11214
3.1318
3.15225
3.16314
3.17737
3.18319
3.22428
3.27713
3.35689
3.48344
3.69511
4.03774
4.54215
5.16909
6.0927
7.43093
9.73408
14.3103
17.8429
2.96657
3.03061
3.05855
3.08823
3.1118
3.13313
3.14135
3.15606
3.16251
3.18177
3.21414
3.26103
3.3334
3.44731
3.6324
3.92998
4.37374
4.90713
5.6645
6.77836
8.62337
12.4737
15.9379
2.9703
3.0177
3.04458
3.08335
3.1039
3.12656
3.13038
3.14681
3.15153
3.17358
3.20137
3.24295
3.30876
3.41117
3.57176
3.82573
4.21197
4.66468
5.27333
6.1649
7.60077
10.6223
13.9925
2.96192
3.00416
3.029
3.06307
3.07816
3.11187
3.12228
3.13563
3.13897
3.1612
3.18444
3.22079
3.28071
3.37158
3.50973
3.72502
4.05344
4.43723
4.92458
5.61666
6.71514
8.93779
12.0767
2.94897
2.9816
3.00805
3.04244
3.06711
3.09592
3.10919
3.12261
3.12602
3.14908
3.16805
3.19938
3.25265
3.33254
3.44874
3.62759
3.9082
4.23196
4.62117
5.1499
5.98311
7.48893
10.2927
2.92185
2.96278
2.991
3.02238
3.03184
3.07781
3.08987
3.10238
3.11805
3.13262
3.14855
3.17528
3.22096
3.28985
3.38682
3.53064
3.7662
4.04371
4.35512
4.75527
5.37531
6.41555
8.61436
2.89316
2.94889
2.98393
2.99517
3.01786
3.0603
3.071
3.08139
3.10032
3.11493
3.12917
3.15205
3.19014
3.24853
3.33006
3.4432
3.63252
3.87149
4.12514
4.42743
4.87628
5.60899
7.17725
2.86198
2.92699
2.96398
2.97367
3.01341
3.03616
3.04755
3.05651
3.07603
3.09078
3.10357
3.12308
3.15408
3.20254
3.27112
3.35924
3.50468
3.70738
3.91508
4.14387
4.46404
4.97346
6.0066
2.83436
2.89412
2.93948
2.96313
2.9937
3.00962
3.02324
3.03263
3.05194
3.06582
3.07755
3.09409
3.11997
3.15819
3.21755
3.28472
3.39357
3.56007
3.73131
3.90435
4.13012
4.47694
5.09584
2.81207
2.8546
2.90435
2.93444
2.96262
2.97547
2.99062
3.00145
3.02006
3.03264
3.04307
3.05707
3.07888
3.10826
3.15778
3.21103
3.28633
3.41734
3.5609
3.69451
3.85027
4.07851
4.47262
2.78483
2.81127
2.86631
2.90127
2.92878
2.94167
2.95706
2.96971
2.98742
2.99922
3.00904
3.021
3.04028
3.06279
3.10206
3.14595
3.19843
3.29031
3.41183
3.52125
3.63124
3.77553
4.02039
2.74573
2.77017
2.81984
2.85656
2.88405
2.89888
2.91324
2.92672
2.94324
2.95435
2.9637
2.97395
2.99074
3.00778
3.03708
3.07564
3.11086
3.16777
3.26221
3.35833
3.44511
3.53337
3.68348
2.7038
2.73482
2.77521
2.81117
2.83885
2.85661
2.87019
2.8839
2.89929
2.91004
2.91949
2.92891
2.94402
2.9575
2.97719
3.01073
3.04098
3.07508
3.13434
3.2116
3.29211
3.35379
3.4451
2.64934
2.6875
2.72012
2.75315
2.78014
2.80023
2.81328
2.82627
2.84009
2.85006
2.85914
2.86742
2.88117
2.89237
2.90512
2.92816
2.95515
2.97967
3.01682
3.06545
3.13204
3.18627
3.24905
2.59505
2.63883
2.66769
2.69724
2.72314
2.74483
2.75851
2.77105
2.78372
2.79314
2.80218
2.80973
2.82198
2.83392
2.8428
2.85735
2.87856
2.8985
2.92349
2.95486
3.00124
3.04525
3.0999
2.52598
2.57077
2.59871
2.6245
2.6481
2.66953
2.68359
2.69533
2.70654
2.71496
2.72296
2.72936
2.73882
2.74983
2.75865
2.76708
2.78138
2.79533
2.81342
2.83144
2.86378
2.89308
2.93749
2.46073
2.50492
2.53398
2.55734
2.57884
2.59942
2.61428
2.626
2.63676
2.64489
2.65287
2.65866
2.66647
2.67534
2.68544
2.6919
2.70316
2.71203
2.72589
2.73686
2.75724
2.77718
2.80611
2.37622
2.41597
2.44538
2.46624
2.48459
2.50251
2.51677
2.52759
2.53707
2.54428
2.55119
2.55612
2.56198
2.5671
2.5758
2.5808
2.58945
2.59515
2.60512
2.61187
2.62357
2.63584
2.65397
2.30169
2.33829
2.36792
2.38788
2.40429
2.42003
2.43383
2.4448
2.45421
2.46128
2.46844
2.47325
2.47956
2.4833
2.49038
2.49463
2.50218
2.50681
2.51489
2.52054
2.52869
2.53545
2.54788
2.20029
2.23049
2.25697
2.27437
2.28751
2.29945
2.31054
2.31956
2.3276
2.33335
2.33891
2.34239
2.34699
2.3494
2.35353
2.35624
2.36091
2.36401
2.36931
2.37324
2.37945
2.38342
2.39088
2.12069
2.14823
2.17245
2.18905
2.20104
2.21104
2.22072
2.22882
2.23653
2.2426
2.24872
2.25231
2.25743
2.25977
2.26373
2.26582
2.26969
2.27194
2.27613
2.27881
2.28388
2.28716
2.29245
1.99867
2.0186
2.03572
2.04777
2.05625
2.0623
2.0682
2.07291
2.07747
2.08092
2.08499
2.08712
2.0902
2.09175
2.0939
2.09498
2.09682
2.09802
2.10007
2.10154
2.10424
2.10627
2.10964
1.92825
1.94662
1.95901
1.96858
1.97579
1.98086
1.98592
1.99
1.99399
1.99698
2.00064
2.00273
2.00555
2.00716
2.00913
2.01019
2.01181
2.01275
2.01444
2.01554
2.01767
2.01929
2.0219
1.75418
1.76047
1.76637
1.76959
1.7721
1.77187
1.77271
1.77194
1.77276
1.77192
1.77283
1.77237
1.77264
1.77283
1.7731
1.77322
1.77345
1.77354
1.77424
1.77412
1.77484
1.77572
1.77677
3.07031
2.74659
2.55887
2.4491
2.37219
2.32812
2.28845
2.26496
2.24378
2.23199
2.22501
2.22243
2.22458
2.23093
2.24423
2.26903
2.31223
2.38245
2.45694
2.56361
2.63691
2.73682
2.79821
3.08182
2.75724
2.56996
2.46495
2.38345
2.3334
2.29298
2.26965
2.24851
2.23616
2.23022
2.22544
2.22726
2.23317
2.24623
2.27219
2.31278
2.38586
2.45774
2.56458
2.63911
2.74312
2.79861
3.09791
2.78428
2.5956
2.47993
2.39575
2.344
2.30165
2.27623
2.25445
2.24104
2.23414
2.22761
2.22897
2.23455
2.2468
2.27362
2.31262
2.38634
2.46078
2.57092
2.6426
2.73544
2.78834
3.11293
2.79788
2.60628
2.49478
2.40804
2.3536
2.31127
2.28241
2.25962
2.24611
2.23871
2.2301
2.23113
2.23616
2.24809
2.27674
2.31413
2.38861
2.46268
2.56784
2.6392
2.73881
2.79577
3.12513
2.82433
2.63789
2.51451
2.42237
2.36261
2.31601
2.28508
2.26503
2.2499
2.24089
2.23141
2.23214
2.23754
2.24849
2.28111
2.31709
2.39254
2.46408
2.57154
2.64724
2.74199
2.79915
3.13926
2.8443
2.64652
2.51942
2.42654
2.36772
2.32432
2.29434
2.27297
2.25398
2.24461
2.23454
2.23502
2.24015
2.25021
2.28606
2.32008
2.39486
2.4665
2.57774
2.64814
2.74395
2.80592
3.14913
2.85478
2.66039
2.53456
2.44421
2.38208
2.33563
2.3012
2.27799
2.25745
2.24779
2.23604
2.23638
2.24174
2.25098
2.2898
2.32371
2.39936
2.47342
2.58429
2.65937
2.76333
2.83203
3.15091
2.85878
2.66376
2.53679
2.44417
2.38103
2.3346
2.30039
2.27744
2.25701
2.24744
2.23626
2.2365
2.24215
2.2517
2.29319
2.32821
2.40358
2.47956
2.59
2.66546
2.77315
2.83857
2.87855
2.54972
2.40201
2.32246
2.27766
2.25049
2.2306
2.21872
2.20938
2.20453
2.20234
2.20235
2.20637
2.21682
2.23773
2.27708
2.33664
2.42819
2.58421
2.76878
2.94213
3.16
3.29015
2.89347
2.55724
2.40644
2.32792
2.28157
2.25405
2.23372
2.22107
2.21114
2.20616
2.20324
2.2033
2.20738
2.21702
2.23829
2.27503
2.33742
2.42396
2.57327
2.74382
2.9018
3.10926
3.22821
2.89539
2.56472
2.41413
2.33327
2.28579
2.25801
2.23623
2.22386
2.21304
2.20772
2.2044
2.20445
2.20827
2.21793
2.23887
2.27654
2.34105
2.41897
2.55851
2.72333
2.86031
3.0516
3.16662
2.91043
2.5738
2.41992
2.33862
2.28958
2.26113
2.23904
2.2262
2.21494
2.20941
2.20527
2.20529
2.20912
2.21838
2.23928
2.27576
2.33815
2.4145
2.54606
2.70387
2.82277
3.00778
3.11396
2.91419
2.58262
2.42817
2.34579
2.29471
2.26583
2.24238
2.22944
2.21693
2.21112
2.20642
2.2063
2.20987
2.21862
2.23796
2.27199
2.32799
2.40725
2.53055
2.68103
2.79183
2.96129
3.06004
2.93085
2.59357
2.43572
2.35086
2.29858
2.26872
2.24479
2.23185
2.21896
2.21276
2.20753
2.20715
2.21072
2.21938
2.2384
2.27111
2.32644
2.40244
2.51723
2.66221
2.75933
2.91273
3.0041
2.93622
2.60391
2.44432
2.35972
2.30485
2.27426
2.24896
2.23528
2.22089
2.21435
2.20859
2.20804
2.21141
2.21968
2.2388
2.2698
2.32112
2.39649
2.50474
2.64467
2.73966
2.88433
2.96628
2.95493
2.61692
2.45429
2.36535
2.30915
2.27718
2.25118
2.23801
2.22315
2.21614
2.20997
2.20894
2.21223
2.22036
2.23864
2.27043
2.31826
2.38941
2.49276
2.6275
2.71277
2.84248
2.91831
2.96168
2.62881
2.46312
2.37536
2.31651
2.28338
2.256
2.24135
2.225
2.21752
2.21109
2.2099
2.21303
2.22096
2.23813
2.2702
2.31614
2.38658
2.48598
2.61391
2.69507
2.81546
2.88404
2.98253
2.644
2.47573
2.38233
2.32172
2.28703
2.25851
2.2444
2.22747
2.21945
2.21262
2.21106
2.2141
2.22184
2.23915
2.26776
2.31812
2.38476
2.47676
2.60129
2.68072
2.79361
2.85781
2.9902
2.65747
2.48535
2.39375
2.33002
2.29334
2.26376
2.24787
2.22962
2.2211
2.21405
2.21231
2.21519
2.2228
2.23908
2.26867
2.31703
2.38455
2.4719
2.59155
2.66717
2.76287
2.82511
3.01287
2.67481
2.50023
2.40196
2.33642
2.29885
2.26711
2.25083
2.23206
2.22294
2.21568
2.21398
2.2168
2.22423
2.2399
2.26926
2.31279
2.38732
2.46923
2.58547
2.65837
2.75127
2.81687
3.02068
2.68968
2.51145
2.41536
2.34547
2.30462
2.27247
2.25488
2.23506
2.22528
2.21769
2.21558
2.21817
2.22539
2.24132
2.26975
2.31223
2.3849
2.46938
2.5801
2.64399
2.74568
2.7989
3.04416
2.70939
2.5278
2.42425
2.3531
2.31255
2.27702
2.25747
2.23728
2.22694
2.21945
2.2177
2.22025
2.22716
2.24146
2.26918
2.31129
2.38083
2.47188
2.57559
2.63858
2.74612
2.7981
3.05143
2.72403
2.54084
2.4393
2.36276
2.31766
2.28202
2.26199
2.24109
2.22989
2.22246
2.21981
2.22211
2.22885
2.24354
2.26977
2.31173
2.38166
2.47216
2.57188
2.63703
2.74582
2.79653
2.77615
2.47593
2.32887
2.26219
2.2243
2.21488
2.24166
2.27863
2.30928
2.35399
2.41564
2.50549
2.61371
2.71694
2.82523
2.96273
3.12674
3.3643
3.63643
3.97852
4.33667
4.75077
5.14441
2.78084
2.47926
2.3307
2.26516
2.22627
2.2065
2.21603
2.24379
2.26274
2.29637
2.35066
2.4357
2.54141
2.64452
2.7537
2.89401
3.05575
3.30626
3.57524
3.9206
4.28377
4.70326
5.09285
2.78243
2.48086
2.33417
2.26825
2.22759
2.20659
2.20795
2.22394
2.23497
2.26008
2.30501
2.38107
2.48138
2.58299
2.69137
2.83139
2.99137
3.23408
3.50657
3.85698
4.21847
4.64101
5.03508
2.78746
2.48253
2.33686
2.27292
2.23102
2.20781
2.20157
2.20736
2.20972
2.22829
2.2629
2.32743
2.4194
2.51592
2.62183
2.76162
2.92209
3.1693
3.43916
3.79207
4.15251
4.57796
4.97244
2.78939
2.48322
2.33897
2.27556
2.23284
2.20895
2.19944
2.19672
2.19363
2.20132
2.22959
2.28383
2.36579
2.45714
2.55909
2.69735
2.85048
3.09116
3.36197
3.71975
4.0781
4.50945
4.90807
2.7946
2.48427
2.34237
2.28006
2.23641
2.21186
2.2014
2.19365
2.18545
2.19048
2.20691
2.24947
2.31884
2.40055
2.4967
2.62909
2.78272
3.02077
3.28459
3.6448
4.00174
4.42874
4.83151
2.79657
2.48518
2.34487
2.28212
2.23862
2.2134
2.20311
2.19297
2.18237
2.18052
2.19086
2.22148
2.27852
2.35232
2.44123
2.57023
2.71416
2.94378
3.20635
3.5681
3.91824
4.35269
4.75823
2.80165
2.48606
2.3475
2.28495
2.24057
2.21521
2.20438
2.19364
2.18285
2.17975
2.18343
2.20458
2.24858
2.31035
2.39116
2.50968
2.65129
2.87371
3.12594
3.48779
3.83462
4.26032
4.66872
2.80362
2.48779
2.35104
2.2873
2.24291
2.21723
2.20666
2.19596
2.18501
2.18092
2.18261
2.19226
2.22494
2.27736
2.34879
2.46059
2.59328
2.80446
3.05126
3.4105
3.74801
4.17597
4.58474
2.8084
2.48939
2.3535
2.28873
2.24408
2.21844
2.20777
2.19751
2.18722
2.18179
2.18232
2.18738
2.20977
2.25155
2.31421
2.4136
2.53998
2.74121
2.97829
3.33293
3.66276
4.08085
4.48847
2.81063
2.4917
2.35674
2.29114
2.24607
2.22069
2.20978
2.19998
2.18989
2.18404
2.18406
2.1867
2.20059
2.2337
2.28717
2.37682
2.49639
2.68487
2.91181
3.25984
3.5799
3.99318
4.395
2.81503
2.49444
2.35975
2.29253
2.24761
2.22198
2.21076
2.20115
2.19217
2.18628
2.18523