/*--------------------------------*- C++ -*----------------------------------*\
  =========                 |
  \\      /  F ield         | OpenFOAM: The Open Source CFD Toolbox
   \\    /   O peration     | Website:  https://openfoam.org
    \\  /    A nd           | Version:  7
     \\/     M anipulation  |
\*---------------------------------------------------------------------------*/
FoamFile
{
    version     2.0;
    format      ascii;
    class       volScalarField;
    location    "80";
    object      p;
}
// * * * * * * * * * * * * * * * * * * * * * * * * * * * * * * * * * * * * * //

dimensions      [0 2 -2 0 0 0 0];

internalField   nonuniform List<scalar> 
12842
(
-0.161407
-0.173936
-0.199212
-0.243886
-0.306536
-0.385096
-0.476138
-0.572811
-0.66378
-0.732511
-0.757027
-0.710547
-0.563484
-0.286947
0.141815
0.731956
1.47592
2.34787
3.30587
4.29799
5.27254
6.18269
7.00096
-0.226492
-0.251243
-0.295248
-0.371316
-0.480623
-0.623908
-0.801335
-1.00999
-1.24195
-1.48306
-1.71217
-1.90097
-2.01496
-2.01622
-1.86892
-1.5474
-1.04231
-0.365232
0.450879
1.35569
2.29317
3.2042
4.05321
-0.274846
-0.313432
-0.375087
-0.480384
-0.632617
-0.835228
-1.09192
-1.40337
-1.76475
-2.1644
-2.58262
-2.99068
-3.35063
-3.61725
-3.74358
-3.68986
-3.43204
-2.96905
-2.32514
-1.54811
-0.694827
0.165582
0.995578
-0.310843
-0.361598
-0.439672
-0.572241
-0.763955
-1.02102
-1.35067
-1.75681
-2.23752
-2.78393
-3.37867
-3.99385
-4.5895
-5.11457
-5.51247
-5.73089
-5.73239
-5.50393
-5.0607
-4.44645
-3.71663
-2.94762
-2.1755
-0.337612
-0.396967
-0.490288
-0.647506
-0.874538
-1.18054
-1.57616
-2.06821
-2.65766
-3.33913
-4.09878
-4.91117
-5.73591
-6.51759
-7.19106
-7.69222
-7.97041
-8.00021
-7.78647
-7.3674
-6.79437
-6.15049
-5.46629
-0.357231
-0.421116
-0.528545
-0.706835
-0.964106
-1.31243
-1.76557
-2.33296
-3.01873
-3.82189
-4.73346
-5.73228
-6.77918
-7.81584
-8.76949
-9.56473
-10.1375
-10.4493
-10.4931
-10.3001
-9.91565
-9.4284
-8.86126
-0.371161
-0.435922
-0.55611
-0.751121
-1.03298
-1.41618
-1.91718
-2.54792
-3.316
-4.22575
-5.27444
-6.44702
-7.70715
-8.99508
-10.2314
-11.3299
-12.2131
-12.8294
-13.1584
-13.2236
-13.0614
-12.7659
-12.3469
-0.380612
-0.443229
-0.574501
-0.781533
-1.08204
-1.49206
-2.03047
-2.71188
-3.54768
-4.54838
-5.71853
-7.05077
-8.5129
-10.0452
-11.5624
-12.9688
-14.1739
-15.1133
-15.7526
-16.1071
-16.2014
-16.1346
-15.896
-0.386705
-0.444541
-0.584537
-0.798508
-1.11111
-1.53865
-2.10163
-2.81716
-3.69953
-4.7651
-6.0254
-7.48096
-9.1041
-10.8362
-12.5882
-14.2573
-15.7425
-16.9699
-17.8926
-18.5202
-18.8608
-19.0263
-18.9652
-0.39321
-0.443124
-0.592089
-0.811289
-1.13385
-1.57525
-2.15737
-2.89957
-3.81801
-4.93401
-6.2648
-7.81758
-9.56828
-11.4597
-13.4001
-15.2823
-16.9988
-18.4694
-19.638
-20.5093
-21.0779
-21.4577
-21.5808
-0.39781
-0.438974
-0.597395
-0.821244
-1.15337
-1.60745
-2.20737
-2.97474
-3.92716
-5.09087
-6.48845
-8.13345
-10.0053
-12.0487
-14.1704
-16.2612
-18.209
-19.9298
-21.3592
-22.4972
-23.324
-23.952
-24.2978
-0.400449
-0.432734
-0.600625
-0.82842
-1.16932
-1.63441
-2.25052
-3.04108
-4.02482
-5.2329
-6.69296
-8.42473
-10.4112
-12.5998
-14.8973
-17.1944
-19.3764
-21.3573
-23.065
-24.494
-25.6093
-26.5174
-27.118
-0.401578
-0.425272
-0.602455
-0.833524
-1.18213
-1.65646
-2.28726
-3.09893
-4.11124
-5.36029
-6.87859
-8.69205
-10.7875
-13.1163
-15.5866
-18.091
-20.5137
-22.7674
-24.7723
-26.5164
-27.9476
-29.1633
-30.047
-0.401436
-0.417268
-0.603558
-0.837414
-1.19252
-1.67468
-2.31904
-3.14999
-4.18843
-5.47543
-7.04817
-8.93889
-11.1388
-13.6041
-16.2461
-18.9605
-21.6313
-24.1705
-26.4898
-28.5695
-30.3391
-31.8844
-33.0756
-0.400112
-0.409226
-0.604453
-0.840675
-1.20102
-1.69004
-2.34708
-3.19564
-4.25803
-5.58015
-7.20375
-9.16758
-11.4678
-14.0668
-16.88
-19.8075
-22.7336
-25.5694
-28.2172
-30.6483
-32.7734
-34.6644
-36.181
-0.397672
-0.401605
-0.605534
-0.843601
-1.20794
-1.70322
-2.37208
-3.23658
-4.32076
-5.67515
-7.34598
-9.37871
-11.7752
-14.5051
-17.4891
-20.6323
-23.8193
-26.9597
-29.9453
-32.7373
-35.2273
-37.4716
-39.3228
-0.394237
-0.3948
-0.607061
-0.846204
-1.21339
-1.71458
-2.39425
-3.27297
-4.37673
-5.76038
-7.47458
-9.57182
-12.0603
-14.9181
-18.0719
-21.4323
-24.8833
-28.3322
-31.6588
-34.8131
-37.6677
-40.2619
-42.4452
-0.389951
-0.389117
-0.609098
-0.848324
-1.2175
-1.72433
-2.41361
-3.30476
-4.42579
-5.83553
-7.58904
-9.74611
-12.3221
-15.3041
-18.6254
-22.2021
-25.9166
-29.6723
-33.3351
-36.8426
-40.0492
-42.976
-45.4739
-0.38497
-0.384734
-0.611499
-0.849705
-1.22033
-1.73246
-2.43
-3.33183
-4.46777
-5.90034
-7.68893
-9.90092
-12.5593
-15.6608
-19.1457
-22.9347
-26.9071
-30.9601
-34.9444
-38.7836
-42.3141
-45.5399
-48.3174
-0.37947
-0.381724
-0.613973
-0.850125
-1.22201
-1.73898
-2.44336
-3.3542
-4.50273
-5.95489
-7.7743
-10.0361
-12.7713
-15.9866
-19.6286
-23.6218
-27.8402
-32.1726
-36.452
-40.5869
-44.3973
-47.8708
-50.8745
-0.373673
-0.380015
-0.61613
-0.849453
-1.22254
-1.74364
-2.4534
-3.37163
-4.53048
-5.999
-7.8449
-10.1511
-12.9568
-16.2784
-20.0682
-24.2525
-28.6979
-33.2817
-37.8174
-42.1968
-46.2265
-49.8808
-53.043
-0.36769
-0.37951
-0.617638
-0.847666
-1.22213
-1.74658
-2.46048
-3.38466
-4.55154
-6.03314
-7.90096
-10.2457
-13.1144
-16.5325
-20.4569
-24.8136
-29.4589
-34.2555
-38.9965
-43.5569
-47.7351
-51.4928
-54.7345
-0.361763
-0.379773
-0.618085
-0.844807
-1.2204
-1.74703
-2.46372
-3.39239
-4.56524
-6.05686
-7.94213
-10.3191
-13.2419
-16.7445
-20.786
-25.2901
-30.0999
-35.0614
-39.9475
-44.6158
-48.8616
-52.6379
-55.8718
-0.355492
-0.380881
-0.617495
-0.842078
-1.21987
-1.74887
-2.46834
-3.40067
-4.57715
-6.07462
-7.97078
-10.3702
-13.3336
-16.902
-21.0365
-25.6566
-30.5908
-35.6656
-40.6339
-45.3362
-49.5696
-53.2823
-56.424
-0.352302
-0.383519
-0.618278
-0.842441
-1.22332
-1.75528
-2.47782
-3.41324
-4.59171
-6.09185
-7.99393
-10.4081
-13.4008
-17.0182
-21.2212
-25.9216
-30.9307
-36.0523
-41.0218
-45.6671
-49.7957
-53.3614
-56.3425
-0.349114
-0.38621
-0.619259
-0.844899
-1.23013
-1.76638
-2.49359
-3.43358
-4.61548
-6.11942
-8.02762
-10.4544
-13.4694
-17.1209
-21.3662
-26.1056
-31.1318
-36.2265
-41.1148
-45.6207
-49.572
-52.9355
-55.717
-0.34609
-0.388617
-0.620224
-0.848822
-1.23875
-1.77953
-2.51153
-3.45587
-4.64077
-6.14768
-8.06008
-10.4949
-13.5229
-17.1917
-21.4516
-26.1892
-31.1792
-36.1848
-40.9283
-45.2387
-48.97
-52.1035
-54.6669
-0.343962
-0.390901
-0.621453
-0.853754
-1.24802
-1.79277
-2.52861
-3.47577
-4.66176
-6.1691
-8.08195
-10.5185
-13.5488
-17.2169
-21.4638
-26.1611
-31.0677
-35.9333
-40.4846
-44.5627
-48.0498
-50.9417
-53.283
-0.342841
-0.393029
-0.623085
-0.859311
-1.25724
-1.80517
-2.54364
-3.49198
-4.67711
-6.18234
-8.09185
-10.5238
-13.5455
-17.195
-21.4022
-26.0232
-30.8041
-35.4876
-39.8108
-43.6317
-46.8612
-49.5094
-51.633
-0.342415
-0.394875
-0.625095
-0.865123
-1.26601
-1.8164
-2.55652
-3.50483
-4.68777
-6.18898
-8.09195
-10.5134
-13.5158
-17.1292
-21.2707
-25.7819
-30.3999
-34.8663
-38.9348
-42.483
-45.45
-47.8588
-49.774
-0.342374
-0.396409
-0.627415
-0.870851
-1.27404
-1.8263
-2.56737
-3.51488
-4.6948
-6.19055
-8.08408
-10.4893
-13.4618
-17.0218
-21.0728
-25.4436
-29.8665
-34.0885
-37.8839
-41.1524
-43.8589
-46.0372
-47.7559
-0.342543
-0.397707
-0.629968
-0.876235
-1.28118
-1.83486
-2.5764
-3.52268
-4.69903
-6.18804
-8.06922
-10.4521
-13.3841
-16.8738
-20.811
-25.014
-29.2149
-33.1719
-36.6836
-39.6719
-42.1248
-44.084
-45.6191
-0.342713
-0.398845
-0.632622
-0.881088
-1.28736
-1.84216
-2.58392
-3.52878
-4.70118
-6.18218
-8.04802
-10.4025
-13.2834
-16.6864
-20.4883
-24.4992
-28.4563
-32.1336
-35.3566
-38.0687
-40.2772
-42.0294
-43.3928
-0.342659
-0.399864
-0.635224
-0.885329
-1.2927
-1.8485
-2.59043
-3.53387
-4.70202
-6.17377
-8.02116
-10.3411
-13.1604
-16.4612
-20.108
-23.9059
-27.6016
-30.9893
-33.9226
-36.3647
-38.3387
-39.895
-41.0978
-0.342166
-0.400779
-0.637646
-0.888992
-1.29739
-1.85423
-2.59647
-3.5386
-4.70223
-6.16341
-7.98924
-10.2686
-13.0163
-16.2006
-19.6745
-23.2414
-26.662
-29.7536
-32.3988
-34.5782
-36.3269
-37.6979
-38.7495
-0.341162
-0.401632
-0.639854
-0.892233
-1.30176
-1.85981
-2.60258
-3.54353
-4.70227
-6.15147
-7.95256
-10.1854
-12.8521
-15.9066
-19.1919
-22.513
-25.648
-28.4397
-30.8
-32.7244
-34.2572
-35.4523
-36.362
-0.339683
-0.402481
-0.641884
-0.895277
-1.30613
-1.86562
-2.60912
-3.54894
-4.70229
-6.13797
-7.91111
-10.0917
-12.6686
-15.5815
-18.6649
-21.7279
-24.5701
-27.0602
-29.1393
-30.8175
-32.144
-33.1722
-33.9484
-0.337885
-0.403403
-0.643838
-0.898355
-1.31079
-1.87192
-2.61631
-3.55488
-4.70214
-6.12263
-7.86461
-9.98746
-12.4665
-15.2272
-18.0977
-20.8932
-23.4378
-25.627
-27.4292
-28.8695
-29.9997
-30.8692
-31.5201
-0.335936
-0.404455
-0.645811
-0.901645
-1.31588
-1.8788
-2.62412
-3.56116
-4.70146
-6.10498
-7.81268
-9.87272
-12.2468
-14.8463
-17.4949
-20.0163
-22.261
-24.1518
-25.6814
-26.8913
-27.8336
-28.5513
-29.0824
-0.33401
-0.405668
-0.647885
-0.905243
-1.32146
-1.88624
-2.63235
-3.56741
-4.69977
-6.08451
-7.75493
-9.74749
-12.0103
-14.4411
-16.8613
-19.1043
-21.0486
-22.6452
-23.9072
-24.8919
-25.6525
-26.2237
-26.6394
-0.332211
-0.407039
-0.650091
-0.909163
-1.32744
-1.89404
-2.64072
-3.57324
-4.69662
-6.06082
-7.69122
-9.61212
-11.7583
-14.0145
-16.2018
-18.1649
-19.8101
-21.1176
-22.1177
-22.8812
-23.4636
-23.8937
-24.198
-0.330611
-0.408544
-0.652435
-0.913352
-1.33372
-1.90201
-2.64893
-3.5783
-4.69169
-6.0337
-7.62159
-9.46712
-11.4923
-13.5694
-15.5214
-17.2055
-18.5543
-19.5787
-20.3234
-20.869
-21.2763
-21.5698
-21.7661
-0.329208
-0.41014
-0.654887
-0.91773
-1.34011
-1.90993
-2.65676
-3.58237
-4.68482
-6.00317
-7.54635
-9.31339
-11.2141
-13.1092
-14.8253
-16.2336
-17.2908
-18.0382
-18.5343
-18.8664
-19.1005
-19.259
-19.3482
-0.32799
-0.411786
-0.657415
-0.922201
-1.34652
-1.91766
-2.66404
-3.58535
-4.67605
-5.96944
-7.46602
-9.15185
-10.9256
-12.637
-14.1184
-15.2563
-16.0286
-16.5058
-16.7604
-16.8832
-16.9446
-16.9659
-16.9459
-0.326903
-0.413442
-0.659977
-0.926695
-1.35282
-1.9251
-2.67075
-3.5873
-4.66557
-5.9329
-7.38123
-8.98365
-10.6286
-12.1561
-13.4057
-14.2803
-14.777
-14.9917
-15.0112
-14.9292
-14.8181
-14.6976
-14.5641
-0.325912
-0.415084
-0.662551
-0.931155
-1.35899
-1.93225
-2.67692
-3.58836
-4.65364
-5.89394
-7.29264
-8.80982
-10.3249
-11.6694
-12.692
-13.312
-13.5446
-13.5059
-13.2975
-13.0152
-12.7326
-12.4655
-12.2117
-0.324959
-0.416698
-0.665119
-0.935566
-1.36503
-1.93916
-2.68269
-3.58876
-4.64062
-5.85307
-7.20094
-8.63145
-10.0163
-11.18
-11.9817
-12.3574
-12.3398
-12.0591
-11.6306
-11.1534
-10.7011
-10.2872
-9.90955
-0.324006
-0.41828
-0.66768
-0.939929
-1.37097
-1.94592
-2.68822
-3.58874
-4.62683
-5.81072
-7.10676
-8.44953
-9.70454
-10.6905
-11.2794
-11.4221
-11.1704
-10.6627
-10.0236
-9.36008
-8.74212
-8.18623
-7.68734
-0.322881
-0.419794
-0.670174
-0.944218
-1.37688
-1.95276
-2.69404
-3.5893
-4.61406
-5.77003
-7.01558
-8.27347
-9.40471
-10.2239
-10.6169
-10.5479
-10.0872
-9.38007
-8.54847
-7.72047
-6.94927
-6.26483
-5.65673
-0.322183
-0.421507
-0.67293
-0.948816
-1.38335
-1.96059
-2.70161
-3.59282
-4.60631
-5.7379
-6.93935
-8.12332
-9.14836
-9.82647
-10.0573
-9.81507
-9.18449
-8.32533
-7.33203
-6.37924
-5.48843
-4.70429
-4.01315
-0.321317
-0.423137
-0.675726
-0.953725
-1.39065
-1.97013
-2.71222
-3.60137
-4.60669
-5.71905
-6.88529
-8.01018
-8.95131
-9.51985
-9.62611
-9.25524
-8.49392
-7.53552
-6.41835
-5.37941
-4.41495
-3.56278
-2.80789
-0.32034
-0.424754
-0.678661
-0.959112
-1.39906
-1.98173
-2.72627
-3.61522
-4.61515
-5.71285
-6.85163
-7.93039
-8.80643
-9.29218
-9.30412
-8.84321
-7.97995
-6.96477
-5.76243
-4.65521
-3.65043
-2.75477
-1.94149
-0.319411
-0.426463
-0.681839
-0.965104
-1.40868
-1.99538
-2.74347
-3.63362
-4.63018
-5.71664
-6.83396
-7.87696
-8.70272
-9.1271
-9.06726
-8.54775
-7.60347
-6.55821
-5.30793
-4.13499
-3.10367
-2.18021
-1.31849
-0.318588
-0.428298
-0.685312
-0.971748
-1.4195
-2.01093
-2.76336
-3.65557
-4.64991
-5.72724
-6.82712
-7.84176
-8.6277
-9.00616
-8.88952
-8.33378
-7.32361
-6.2583
-4.9922
-3.75599
-2.69769
-1.74726
-0.862342
-0.317865
-0.430228
-0.689038
-0.978954
-1.43126
-2.02785
-2.785
-3.67952
-4.67202
-5.74134
-6.82623
-7.81744
-8.57046
-8.9131
-8.74879
-8.16958
-7.10547
-6.01807
-4.75744
-3.46579
-2.37093
-1.39987
-0.514958
-0.317235
-0.432234
-0.692997
-0.986658
-1.44384
-2.04585
-2.80784
-3.70462
-4.69522
-5.75695
-6.82832
-7.79948
-8.5243
-8.83792
-8.63178
-8.03533
-6.92767
-5.80988
-4.56712
-3.24045
-2.11497
-1.1448
-0.271131
-0.316796
-0.434352
-0.697258
-0.994915
-1.45724
-2.0649
-2.83173
-3.73051
-4.71876
-5.7726
-6.83054
-7.78254
-8.48042
-8.76706
-8.52036
-7.90589
-6.76215
-5.60459
-4.37365
-3.01592
-1.85321
-0.882152
-0.0134885
-0.316306
-0.436404
-0.70148
-1.00317
-1.47049
-2.08337
-2.85424
-3.75375
-4.73805
-5.7823
-6.82521
-7.75699
-8.42763
-8.68852
-8.40427
-7.77339
-6.6055
-5.4089
-4.20396
-2.86312
-1.69933
-0.737135
0.107173
-0.316005
-0.438545
-0.705883
-1.01159
-1.48371
-2.10134
-2.87537
-3.77443
-4.75341
-5.78677
-6.81352
-7.72433
-8.36743
-8.60272
-8.28258
-7.63426
-6.4506
-5.20869
-4.02389
-2.71964
-1.55718
-0.593861
0.220108
-0.315882
-0.440741
-0.710399
-1.02002
-1.49671
-2.11862
-2.8951
-3.79288
-4.76576
-5.78771
-6.79797
-7.68759
-8.30296
-8.51196
-8.15579
-7.48659
-6.29152
-4.99501
-3.81141
-2.53661
-1.36442
-0.395261
0.3924
-0.315816
-0.442884
-0.714848
-1.02824
-1.50918
-2.13492
-2.91328
-3.80926
-4.77577
-5.78638
-6.78052
-7.64942
-8.23763
-8.42042
-8.02841
-7.33485
-6.1328
-4.77968
-3.58455
-2.33359
-1.16324
-0.206978
0.553988
-0.315752
-0.444932
-0.719145
-1.03611
-1.52102
-2.15019
-2.93004
-3.82402
-4.78429
-5.78412
-6.76304
-7.61233
-8.17488
-8.33301
-7.90725
-7.18741
-5.98455
-4.58183
-3.36978
-2.14719
-1.00542
-0.0828228
0.652832
-0.315677
-0.446899
-0.723291
-1.04366
-1.5323
-2.16467
-2.94586
-3.83797
-4.79251
-5.78251
-6.74749
-7.5787
-8.1178
-8.25403
-7.79911
-7.05349
-5.85786
-4.41858
-3.18471
-1.99563
-0.900917
-0.0125689
0.714234
-0.315586
-0.448813
-0.727313
-1.05093
-1.54316
-2.1786
-2.96119
-3.85178
-4.80131
-5.7825
-6.73477
-7.54929
-8.06704
-8.1843
-7.70643
-6.93777
-5.75876
-4.2993
-3.03875
-1.88026
-0.831261
0.0397466
0.787954
-0.315452
-0.450682
-0.731214
-1.05799
-1.55373
-2.19224
-2.9764
-3.86591
-4.81111
-5.78429
-6.72465
-7.52322
-8.02082
-8.12104
-7.62635
-6.83854
-5.68542
-4.22379
-2.93481
-1.7945
-0.769749
0.100772
0.891465
-0.315261
-0.452524
-0.73502
-1.06489
-1.5641
-2.20574
-2.99168
-3.88049
-4.82183
-5.78734
-6.71585
-7.49813
-7.97534
-8.05864
-7.55149
-6.7479
-5.62735
-4.1813
-2.86699
-1.72393
-0.69526
0.185128
0.999318
-0.31501
-0.454352
-0.73876
-1.07171
-1.57441
-2.21927
-3.00718
-3.89554
-4.83317
-5.79087
-6.70679
-7.47137
-7.92642
-7.99094
-7.47299
-6.65502
-5.56904
-4.15299
-2.8189
-1.65421
-0.602185
0.296635
1.10457
-0.314715
-0.456195
-0.742489
-1.07852
-1.58474
-2.23289
-3.02289
-3.91085
-4.84462
-5.79383
-6.69572
-7.44028
-7.87005
-7.91218
-7.38212
-6.54833
-5.49343
-4.11634
-2.76921
-1.57922
-0.497431
0.427404
1.21562
-0.314394
-0.458063
-0.74624
-1.08539
-1.59515
-2.24664
-3.03872
-3.92617
-4.85562
-5.79527
-6.68122
-7.40284
-7.80336
-7.81824
-7.2722
-6.41829
-5.38604
-4.05161
-2.69964
-1.49253
-0.386903
0.560144
1.30742
-0.314066
-0.459966
-0.750037
-1.09232
-1.60562
-2.26043
-3.05449
-3.94109
-4.86552
-5.79428
-6.66205
-7.35754
-7.72446
-7.70663
-7.13898
-6.25854
-5.23696
-3.94465
-2.60023
-1.38052
-0.271846
0.690138
1.39504
-0.313738
-0.461892
-0.753874
-1.09929
-1.61612
-2.27415
-3.06997
-3.95528
-4.87382
-5.79024
-6.6376
-7.30388
-7.63307
-7.5772
-6.98168
-6.06748
-5.04294
-3.7878
-2.46652
-1.2404
-0.15649
0.785597
1.49041
-0.313418
-0.463837
-0.757739
-1.10627
-1.62654
-2.28765
-3.08491
-3.96837
-4.8801
-5.78275
-6.60763
-7.24205
-7.53005
-7.43164
-6.80253
-5.84811
-4.8076
-3.5811
-2.29561
-1.08368
-0.0349804
0.856734
1.56371
-0.313105
-0.465782
-0.761603
-1.11322
-1.63683
-2.30081
-3.09916
-3.98019
-4.88423
-5.77185
-6.57253
-7.17313
-7.41759
-7.27359
-6.60685
-5.60794
-4.54119
-3.33455
-2.08964
-0.921086
0.0894446
0.934685
1.60546
-0.3128
-0.467723
-0.76545
-1.12007
-1.64689
-2.31352
-3.11257
-3.99059
-4.88614
-5.75771
-6.53293
-7.0985
-7.29837
-7.10757
-6.40163
-5.35733
-4.25826
-3.06674
-1.86198
-0.758845
0.198664
1.00034
1.62994
-0.312498
-0.469645
-0.769253
-1.12681
-1.65671
-2.32574
-3.12511
-3.99962
-4.88603
-5.74076
-6.48975
-7.0199
-7.1754
-6.93857
-6.19471
-5.10815
-3.97537
-2.79975
-1.63559
-0.606508
0.278221
1.01827
1.61
-0.312199
-0.471553
-0.773006
-1.13341
-1.66623
-2.3374
-3.13675
-4.0073
-4.88404
-5.72139
-6.44374
-6.9387
-7.05119
-6.77089
-5.99319
-4.87151
-3.70806
-2.55269
-1.43272
-0.47695
0.323515
0.979835
1.522
-0.311899
-0.473438
-0.776694
-1.13987
-1.67547
-2.34856
-3.14756
-4.01376
-4.88041
-5.70003
-6.39563
-6.85609
-6.92771
-6.60791
-5.80267
-4.65639
-3.46889
-2.3382
-1.26689
-0.378368
0.33845
0.910138
1.39117
-0.311597
-0.475308
-0.780323
-1.14618
-1.68439
-2.35919
-3.15754
-4.01905
-4.87526
-5.67685
-6.34573
-6.77256
-6.80586
-6.45135
-5.62629
-4.46811
-3.26586
-2.16158
-1.14174
-0.308914
0.341246
0.846437
1.27309
-0.311292
-0.477159
-0.783887
-1.15235
-1.69305
-2.36933
-3.16677
-4.02326
-4.8687
-5.65201
-6.29419
-6.68828
-6.68583
-6.3016
-5.46482
-4.30812
-3.10213
-2.0231
-1.0525
-0.260133
0.352154
0.814066
1.19992
-0.310982
-0.478998
-0.787394
-1.15837
-1.70141
-2.37897
-3.17521
-4.02635
-4.86068
-5.62537
-6.24078
-6.60278
-6.56689
-6.15761
-5.31667
-4.17396
-2.97597
-1.921
-0.991188
-0.226914
0.372289
0.81314
1.17219
-0.310669
-0.48082
-0.790841
-1.16427
-1.70951
-2.38813
-3.18289
-4.02834
-4.85114
-5.59681
-6.18523
-6.51554
-6.44801
-6.01755
-5.17874
-4.0604
-2.88122
-1.85045
-0.952399
-0.210368
0.384912
0.823613
1.16943
-0.310353
-0.482632
-0.794234
-1.17003
-1.71731
-2.39678
-3.18974
-4.0291
-4.83992
-5.56602
-6.12702
-6.42569
-6.32778
-5.87901
-5.04687
-3.96047
-2.80884
-1.80295
-0.932134
-0.212191
0.377157
0.820967
1.1619
-0.310032
-0.484425
-0.797569
-1.17565
-1.72485
-2.40492
-3.19575
-4.02859
-4.82688
-5.53279
-6.06579
-6.33258
-6.20499
-5.73971
-4.91682
-3.86678
-2.74922
-1.76847
-0.923785
-0.227588
0.348951
0.793489
1.13261
-0.309708
-0.486205
-0.800848
-1.18113
-1.73206
-2.41248
-3.20082
-4.02665
-4.8118
-5.49679
-6.00107
-6.23554
-6.0785
-5.59756
-4.78475
-3.77253
-2.69383
-1.73885
-0.919524
-0.247846
0.308545
0.747422
1.08355
-0.309379
-0.487961
-0.804063
-1.18647
-1.73897
-2.41947
-3.20491
-4.0232
-4.79456
-5.45784
-5.93265
-6.13424
-5.94768
-5.45114
-4.64786
-3.67227
-2.63569
-1.70878
-0.91397
-0.265805
0.265393
0.693297
1.02227
-0.309045
-0.4897
-0.807216
-1.19163
-1.7455
-2.42578
-3.20791
-4.0181
-4.77495
-5.41573
-5.86026
-6.0284
-5.81217
-5.29963
-4.50444
-3.56249
-2.56957
-1.67465
-0.90497
-0.27895
0.226156
0.638262
0.955482
-0.308705
-0.491408
-0.810293
-1.19663
-1.75169
-2.43144
-3.20979
-4.01128
-4.75291
-5.37038
-5.7839
-5.91811
-5.67209
-5.14296
-4.35409
-3.44169
-2.49191
-1.63292
-0.891217
-0.286803
0.193544
0.586142
0.887985
-0.308357
-0.493092
-0.813298
-1.20144
-1.75746
-2.43634
-3.21043
-4.00259
-4.72828
-5.32167
-5.70353
-5.80348
-5.52777
-4.98159
-4.19743
-3.3103
-2.4013
-1.58053
-0.870841
-0.28954
0.166923
0.537989
0.8218
-0.308
-0.49474
-0.816215
-1.20605
-1.76282
-2.44048
-3.20981
-3.99202
-4.70102
-5.26961
-5.6193
-5.68486
-5.37988
-4.81647
-4.03595
-3.1703
-2.29852
-1.51632
-0.842447
-0.287445
0.144629
0.492692
0.756842
-0.307632
-0.496357
-0.819046
-1.21044
-1.7677
-2.44377
-3.20782
-3.97942
-4.67102
-5.21414
-5.53126
-5.56257
-5.22913
-4.64882
-3.87166
-3.02492
-2.18663
-1.44215
-0.806657
-0.281808
0.124902
0.449004
0.693026
-0.307251
-0.49793
-0.821775
-1.21461
-1.77214
-2.44622
-3.20445
-3.96478
-4.63827
-5.15534
-5.43965
-5.43706
-5.07641
-4.48002
-3.70681
-2.87792
-2.0702
-1.36207
-0.766013
-0.27433
0.106595
0.40658
0.630624
-0.306855
-0.499468
-0.824405
-1.21852
-1.77604
-2.44775
-3.19958
-3.94798
-4.60267
-5.09315
-5.34458
-5.30869
-4.9225
-4.3115
-3.54365
-2.73326
-1.95447
-1.28113
-0.72406
-0.266909
0.0883937
0.364739
0.569888
-0.306441
-0.500955
-0.826916
-1.22219
-1.77943
-2.44833
-3.1932
-3.92898
-4.5642
-5.02764
-5.24625
-5.17787
-4.76821
-4.14457
-3.38408
-2.59422
-1.84398
-1.20366
-0.683554
-0.260161
0.0694119
0.323167
0.510933
-0.306009
-0.5024
-0.829316
-1.22557
-1.78224
-2.44791
-3.18524
-3.90771
-4.5228
-4.95881
-5.14482
-5.04495
-4.61427
-3.98053
-3.2298
-2.46343
-1.742
-1.13336
-0.649642
-0.257369
0.0483196
0.28111
0.453397
-0.305556
-0.50379
-0.831581
-1.22867
-1.78446
-2.44641
-3.17553
-3.88399
-4.47831
-4.88658
-5.04037
-4.91023
-4.46118
-3.8202
-3.08162
-2.34211
-1.6505
-1.06957
-0.618406
-0.253835
0.0280452
0.240152
0.398198
-0.305116
-0.505173
-0.833795
-1.23158
-1.78623
-2.44402
-3.16428
-3.85789
-4.43066
-4.81087
-4.93299
-4.77405
-4.30978
-3.66515
-2.94129
-2.23238
-1.57168
-1.01739
-0.615101
-0.273675
-0.00281315
0.192833
0.339614
-0.304885
-0.506662
-0.836103
-1.23443
-1.78734
-2.43966
-3.14896
-3.82517
-4.37404
-4.72489
-4.8159
-4.63062
-4.15558
-3.5126
-2.80677
-2.13211
-1.51131
-0.957547
-0.544837
-0.22843
0.00266175
0.16571
0.296834
-0.303923
-0.507392
-0.837042
-1.2349
-1.78415
-2.42815
-3.12279
-3.77777
-4.3
-4.62153
-4.68566
-4.48306
-4.00957
-3.38149
-2.70408
-2.07232
-1.51577
-1.02312
-0.641596
-0.337377
-0.10557
0.0616308
0.195519
-0.303161
-0.508077
-0.837491
-1.23376
-1.77723
-2.40967
-3.08546
-3.71499
-4.20737
-4.49857
-4.53794
-4.32357
-3.85932
-3.25393
-2.60777
-2.01455
-1.51522
-1.08501
-0.736061
-0.446441
-0.218829
-0.0506817
0.0843329
-0.302584
-0.508742
-0.837561
-1.23121
-1.76694
-2.38481
-3.0378
-3.63758
-4.09621
-4.35443
-4.36833
-4.14382
-3.69265
-3.11491
-2.50087
-1.93521
-1.46488
-1.06592
-0.740093
-0.475097
-0.268372
-0.114372
0.0117236
-0.301827
-0.509027
-0.836775
-1.22669
-1.75264
-2.35282
-2.97901
-3.54461
-3.96528
-4.18711
-4.17381
-3.93955
-3.50435
-2.95986
-2.38454
-1.84729
-1.39528
-1.01591
-0.711172
-0.47072
-0.284539
-0.14602
-0.0302821
-0.300785
-0.508739
-0.834812
-1.21966
-1.73352
-2.31267
-2.9079
-3.43485
-3.81342
-3.99577
-3.95397
-3.71059
-3.29384
-2.78765
-2.26036
-1.76374
-1.34005
-0.985774
-0.702293
-0.479907
-0.305758
-0.17618
-0.0680492
-0.299553
-0.50785
-0.831552
-1.20989
-1.7092
-2.26387
-2.82403
-3.30816
-3.64115
-3.78196
-3.71153
-3.46027
-3.06354
-2.59769
-2.1232
-1.67735
-1.2936
-0.971832
-0.711717
-0.505508
-0.341012
-0.216936
-0.114119
-0.298211
-0.506332
-0.826877
-1.1971
-1.67928
-2.20602
-2.72726
-3.16501
-3.45012
-3.54898
-3.45165
-3.19506
-2.81984
-2.39413
-1.97156
-1.57906
-1.24044
-0.956048
-0.723377
-0.536564
-0.384511
-0.266412
-0.169104
-0.296698
-0.504036
-0.820498
-1.18092
-1.64324
-2.13867
-2.61746
-3.00612
-3.24243
-3.30097
-3.18077
-2.92352
-2.57281
-2.18761
-1.81469
-1.47381
-1.1806
-0.93465
-0.731608
-0.566546
-0.429965
-0.320356
-0.229819
-0.294939
-0.500786
-0.812079
-1.1608
-1.6004
-2.06121
-2.49451
-2.83236
-3.02064
-3.04261
-2.90583
-2.65458
-2.33299
-1.99009
-1.66507
-1.3724
-1.12134
-0.910831
-0.735663
-0.591647
-0.471301
-0.371942
-0.288891
-0.292857
-0.49639
-0.80125
-1.13623
-1.55018
-1.97327
-2.35871
-2.64532
-2.78808
-2.7791
-2.63336
-2.39525
-2.10695
-1.80753
-1.5278
-1.27845
-1.06417
-0.884136
-0.73333
-0.607995
-0.502667
-0.414465
-0.33948
-0.290401
-0.490667
-0.787651
-1.10665
-1.49203
-1.87471
-2.21091
-2.44738
-2.54885
-2.51571
-2.36846
-2.14912
-1.89568
-1.6382
-1.39953
-1.18784
-1.00512
-0.850793
-0.720945
-0.612009
-0.519951
-0.442548
-0.376043
-0.287435
-0.483338
-0.770804
-1.07148
-1.42553
-1.76576
-2.05255
-2.24156
-2.3073
-2.25694
-2.1142
-1.91648
-1.69654
-1.47701
-1.27442
-1.09509
-0.93973
-0.807495
-0.695778
-0.601395
-0.521084
-0.453308
-0.394929
-0.283789
-0.474064
-0.750159
-1.03008
-1.35034
-1.64692
-1.88551
-2.03112
-2.06734
-2.00605
-1.87172
-1.69622
-1.5067
-1.32043
-1.14908
-0.997633
-0.866194
-0.753529
-0.657781
-0.576488
-0.506834
-0.447605
-0.396682
-0.279189
-0.462373
-0.725049
-0.981844
-1.26638
-1.51915
-1.71203
-1.81924
-1.83212
-1.76499
-1.64137
-1.4875
-1.32527
-1.16805
-1.02396
-0.8967
-0.78629
-0.691246
-0.609958
-0.540634
-0.480939
-0.429609
-0.385403
-0.273369
-0.447787
-0.694848
-0.926328
-1.17392
-1.38387
-1.53465
-1.60893
-1.60417
-1.53528
-1.42372
-1.29068
-1.15329
-1.02181
-0.901847
-0.795882
-0.703962
-0.624679
-0.556505
-0.498071
-0.447627
-0.403816
-0.365706
-0.265984
-0.429763
-0.65898
-0.863405
-1.07376
-1.24303
-1.35618
-1.40318
-1.3859
-1.3187
-1.2202
-1.1073
-0.992832
-0.884502
-0.786037
-0.698966
-0.623207
-0.557703
-0.501047
-0.452162
-0.409825
-0.37289
-0.340366
-0.256749
-0.407854
-0.617116
-0.793355
-0.967265
-1.09909
-1.17978
-1.20514
-1.18005
-1.11749
-1.0329
-0.939369
-0.846175
-0.758777
-0.679595
-0.609409
-0.548002
-0.494604
-0.448113
-0.407635
-0.372349
-0.34148
-0.31412
-0.245313
-0.381661
-0.569196
-0.716985
-0.856375
-0.954992
-1.00884
-1.01815
-0.989465
-0.933935
-0.863645
-0.788354
-0.714529
-0.645796
-0.583624
-0.528304
-0.479509
-0.436657
-0.398982
-0.365797
-0.336539
-0.310758
-0.28783
-0.23144
-0.351023
-0.515592
-0.635634
-0.743527
-0.813943
-0.846794
-0.84528
-0.816417
-0.769336
-0.712932
-0.654149
-0.59734
-0.544796
-0.497321
-0.454926
-0.417236
-0.383785
-0.354053
-0.327571
-0.303947
-0.282925
-0.264154
-0.214895
-0.315998
-0.457122
-0.551157
-0.631504
-0.679147
-0.696631
-0.688708
-0.661977
-0.623513
-0.579598
-0.534893
-0.492252
-0.453033
-0.417635
-0.385906
-0.357495
-0.33201
-0.309103
-0.288467
-0.269859
-0.253123
-0.238081
-0.19565
-0.277053
-0.395113
-0.465822
-0.523181
-0.553455
-0.56048
-0.54945
-0.525954
-0.49527
-0.461693
-0.428239
-0.396693
-0.367833
-0.341806
-0.318415
-0.29735
-0.2783
-0.261019
-0.245314
-0.231037
-0.218099
-0.206411
-0.173841
-0.235045
-0.331355
-0.38215
-0.421271
-0.439109
-0.439609
-0.427709
-0.407795
-0.383701
-0.358322
-0.33358
-0.310533
-0.289592
-0.270752
-0.253811
-0.2385
-0.224582
-0.211873
-0.200252
-0.189629
-0.179957
-0.171194
-0.149912
-0.191323
-0.268009
-0.302727
-0.328154
-0.337752
-0.334755
-0.323472
-0.30721
-0.288652
-0.269735
-0.251666
-0.235048
-0.220058
-0.206612
-0.194515
-0.183552
-0.173542
-0.164356
-0.155918
-0.148178
-0.141112
-0.134711
-0.124634
-0.147614
-0.207467
-0.230012
-0.245811
-0.250543
-0.246327
-0.236662
-0.224003
-0.210144
-0.196358
-0.183389
-0.17158
-0.160978
-0.15148
-0.142912
-0.135114
-0.127951
-0.121344
-0.115245
-0.109639
-0.10451
-0.0998723
-0.0990572
-0.105975
-0.152121
-0.166165
-0.175685
-0.178102
-0.174262
-0.16685
-0.157672
-0.14792
-0.138381
-0.129519
-0.121506
-0.114345
-0.107925
-0.102115
-0.0967865
-0.0918569
-0.0872711
-0.0830128
-0.0790787
-0.075472
-0.0722059
-0.0745251
-0.0684759
-0.104076
-0.112735
-0.118477
-0.120201
-0.117599
-0.112549
-0.106399
-0.09995
-0.0936762
-0.0878557
-0.0825739
-0.0778224
-0.0735164
-0.06957
-0.0658975
-0.0624539
-0.059212
-0.0561757
-0.0533537
-0.0507592
-0.0484052
-0.052366
-0.0369474
-0.0648197
-0.0704571
-0.0740227
-0.0758477
-0.0747511
-0.0718593
-0.0681966
-0.06434
-0.0605799
-0.0570811
-0.0538759
-0.0509531
-0.0482543
-0.0457313
-0.0433342
-0.041045
-0.0388562
-0.0367831
-0.0348413
-0.0330495
-0.0314183
-0.0337847
-0.0124779
-0.0348287
-0.0390476
-0.0413236
-0.0434448
-0.0437039
-0.0425333
-0.0406869
-0.0386206
-0.036528
-0.0345272
-0.0326259
-0.0308244
-0.0290869
-0.0274052
-0.0257586
-0.0241572
-0.0226051
-0.0211288
-0.019743
-0.0184724
-0.0173195
-0.0192862
0.00411531
-0.0143702
-0.0179491
-0.0194253
-0.0221174
-0.0241374
-0.0253121
-0.0261228
-0.0268882
-0.0276695
-0.0284931
-0.0292889
-0.0300077
-0.0305783
-0.0309866
-0.0312122
-0.0312757
-0.0311862
-0.0309799
-0.0306764
-0.0303145
-0.0298993
-0.00933582
0.0130515
0.000673206
-0.00153464
-0.000362917
-0.000344475
-0.000201093
0.00067501
0.00205074
0.00358025
0.00516251
0.00668763
0.00816117
0.00955944
0.0109217
0.0122226
0.0134677
0.0146154
0.0156602
0.0165674
0.0173356
0.0179444
0.0184012
0.264543
0.262726
0.346866
0.482685
0.669663
0.933675
1.289
1.76765
2.3849
3.16511
4.12488
5.28986
6.67944
8.31022
10.1795
12.2572
14.4806
16.7601
18.9935
21.0817
22.954
24.5577
25.9124
0.241277
0.244045
0.314351
0.439367
0.612688
0.856762
1.1888
1.6361
2.21741
2.95587
3.87009
4.98297
6.31243
7.8706
9.65139
11.6219
13.7191
15.8552
17.932
19.8572
21.5654
23.0141
24.2222
0.211949
0.218107
0.274222
0.384164
0.538885
0.756529
1.05588
1.46096
1.99235
2.67278
3.52247
4.56262
5.80978
7.27253
8.94209
10.784
12.7361
14.7139
16.6245
18.3829
19.9294
21.2307
22.304
0.175221
0.182649
0.225358
0.316257
0.447554
0.632622
0.890167
1.24195
1.70904
2.31402
3.07825
4.02235
5.16212
6.50424
8.0387
9.73129
11.5222
13.3317
15.0726
16.667
18.0607
19.2274
20.1822
0.129448
0.135539
0.166149
0.23469
0.337495
0.483855
0.690651
0.977696
1.36559
1.87656
2.53272
3.35491
4.35921
5.55236
6.92536
8.4468
10.0617
11.6964
13.2703
14.7113
15.969
17.0212
17.8792
0.0726211
0.0753375
0.0947601
0.138705
0.208033
0.309554
0.457117
0.668165
0.962045
1.36014
1.88479
2.55748
3.39559
4.40797
5.5892
6.91389
8.33485
9.78717
11.1981
12.5013
13.648
14.6159
15.4098
0.00298352
0.00218113
0.0100342
0.0278655
0.059167
0.109627
0.189674
0.313728
0.499061
0.765666
1.13558
1.63115
2.27202
3.07093
4.02864
5.12823
6.33335
7.59074
8.83801
10.0151
11.0751
11.9924
12.7639
-0.0794698
-0.0837943
-0.0900549
-0.101141
-0.113457
-0.122472
-0.121078
-0.0983635
-0.0396879
0.0733838
0.262781
0.552569
0.966278
1.52298
2.23216
3.08735
4.06469
5.12392
6.21337
7.27875
8.27276
9.16199
9.93324
0.385902
0.320918
0.494023
0.661469
0.897049
1.26159
1.69884
2.32918
3.08998
4.03256
5.13751
6.42481
7.88653
9.52118
11.2969
13.1687
15.0606
16.885
18.5575
20.0163
21.2283
22.207
22.9577
0.383938
0.321062
0.489386
0.65389
0.887922
1.25112
1.68706
2.31602
3.07684
4.02318
5.13703
6.4424
7.9337
9.61643
11.4657
13.4442
15.4824
17.4929
19.3869
21.0891
22.5534
23.7745
24.7469
0.381553
0.321315
0.485487
0.645963
0.877182
1.23741
1.67063
2.29575
3.05442
4.00157
5.12174
6.44217
7.95992
9.68556
11.6
13.672
15.838
18.0122
20.1038
22.0269
23.7253
25.1749
26.3637
0.378827
0.321496
0.482856
0.639183
0.866831
1.22272
1.65232
2.27128
3.02551
3.96999
5.09282
6.42396
7.96359
9.72596
11.6966
13.8485
16.1232
18.4366
20.6973
22.8119
24.7165
26.3701
27.7579
0.375697
0.321199
0.480892
0.633718
0.8574
1.20801