/*--------------------------------*- C++ -*----------------------------------*\
  =========                 |
  \\      /  F ield         | OpenFOAM: The Open Source CFD Toolbox
   \\    /   O peration     | Website:  https://openfoam.org
    \\  /    A nd           | Version:  7
     \\/     M anipulation  |
\*---------------------------------------------------------------------------*/
FoamFile
{
    version     2.0;
    format      ascii;
    class       surfaceScalarField;
    location    "80";
    object      phi;
}
// * * * * * * * * * * * * * * * * * * * * * * * * * * * * * * * * * * * * * //

dimensions      [0 3 -1 0 0 0 0];

internalField   nonuniform List<scalar> 
25449
(
69.4317
41.5258
-16.6745
51.4661
30.6481
-12.6825
38.3494
22.7578
-9.64111
28.6961
16.9895
-7.33618
21.5461
12.7417
-5.59177
16.2235
9.59438
-4.27176
12.2453
7.25083
-3.27269
9.26274
5.49875
-2.51614
7.02102
4.18437
-1.94266
5.33291
3.19533
-1.50721
4.05978
2.44882
-1.17569
3.09853
1.88352
-0.922275
2.3722
1.45382
-0.727496
1.82316
1.12574
-0.57669
1.40812
0.873974
-0.458936
1.09448
0.679727
-0.366092
0.857643
0.529063
-0.292221
0.678959
0.411667
-0.232983
0.54429
0.319895
-0.185226
0.44289
0.248043
-0.146643
0.366595
0.191798
-0.115503
0.309206
0.147875
-0.090486
0.113614
-0.0704698
0.266063
55.0374
60.7586
41.0054
44.6801
30.6831
33.0802
23.0397
24.6329
17.3508
18.4306
13.0995
13.8457
9.91242
10.4379
7.51713
7.89404
5.71341
5.9881
4.35307
4.55566
3.32593
3.47596
2.54971
2.65975
1.9628
2.04073
1.51899
1.56955
1.18347
1.20949
0.930002
0.933195
0.738727
0.720338
0.594578
0.555816
0.486098
0.428375
0.404561
0.32958
0.343333
0.253026
0.29737
0.193838
0.148097
0.262887
42.6198
75.1576
31.9751
55.3247
24.061
40.9943
18.1512
30.5427
13.7234
22.8584
10.3973
17.1718
7.89369
12.9416
6.00607
9.78166
4.58108
7.41309
3.50424
5.63249
2.68988
4.29032
2.0737
3.27593
1.60736
2.50707
1.25448
1.92243
0.987621
1.47635
0.786017
1.1348
0.633933
0.872422
0.519396
0.670354
0.43328
0.514492
0.368623
0.394237
0.320128
0.301522
0.283763
0.230202
0.175354
0.256507
32.6389
85.6322
24.7337
63.2299
18.7604
46.9676
14.2439
35.0593
10.8272
26.2751
8.24152
19.7574
6.28404
14.8991
4.80163
11.2641
3.67865
8.53607
2.82772
6.48342
2.1828
4.93524
1.69397
3.76477
1.32349
2.87755
1.04283
2.20309
0.830416
1.68877
0.669861
1.29535
0.548714
0.993569
0.457475
0.761593
0.388885
0.583082
0.337396
0.445725
0.298783
0.340135
0.269832
0.259154
0.197057
0.248129
24.9219
93.0168
19.1585
68.9934
14.6932
51.4328
11.2535
38.499
8.61494
28.9136
6.59709
21.7753
5.05724
16.4389
3.88397
12.4373
2.99099
9.42905
2.31185
7.16255
1.79563
5.45147
1.4034
4.157
1.10553
3.17541
0.879502
2.42911
0.708181
1.86009
0.578529
1.42501
0.480596
1.0915
0.40677
0.83542
0.351218
0.638635
0.309477
0.487466
0.278141
0.371471
0.254623
0.282672
0.21471
0.23697
19.0916
98.0079
14.9713
73.1137
11.6531
54.751
9.02655
41.1256
6.97199
30.9682
5.37812
23.3691
4.14883
17.6682
3.20469
13.3815
2.48173
10.152
1.92932
7.71497
1.50785
5.87294
1.18662
4.47822
0.942031
3.42
0.755985
2.61516
0.614657
2.00142
0.507475
1.53219
0.426345
1.17263
0.365053
0.896712
0.318829
0.684859
0.284015
0.52228
0.257816
0.39767
0.238108
0.302381
0.229539
0.22328
14.7545
101.161
11.8805
75.9877
9.42302
57.2085
7.40088
43.1477
5.77687
32.5922
4.49346
24.6525
3.49033
18.6713
2.71229
14.1595
2.11216
10.7521
1.65102
8.17611
1.29762
6.22633
1.02729
4.74855
0.820783
3.62651
0.663227
2.77272
0.543185
2.12146
0.451869
1.6235
0.382526
1.24198
0.329959
0.94928
0.29017
0.724648
0.26009
0.552361
0.237367
0.420394
0.220211
0.319537
0.242492
0.207258
11.5595
102.908
9.62577
77.9214
7.80899
59.0253
6.23148
44.7252
4.92088
33.9028
3.86146
25.712
3.02029
19.5125
2.36051
14.8193
1.84741
11.2652
1.45071
8.57281
1.14523
6.53181
0.910611
4.98317
0.730738
3.80638
0.593019
2.91043
0.487711
2.22677
0.40729
1.70392
0.345963
1.3033
0.299258
0.995985
0.263735
0.760172
0.236742
0.579355
0.21625
0.440885
0.200701
0.335087
0.254282
0.188912
8.95218
106.075
6.66637
80.2072
4.99644
60.6952
3.76739
45.9543
2.85668
34.8135
2.17814
26.3905
1.67031
20.0203
1.28885
15.2007
1.0015
11.5526
0.784511
8.7898
0.62029
6.69603
0.49575
5.10771
0.401136
3.901
0.329159
2.98241
0.274358
2.28157
0.232622
1.74566
0.200838
1.33509
0.176634
1.02019
0.158207
0.7786
0.144177
0.593384
0.133496
0.451567
0.125371
0.343211
0.260472
0.119181
6.71021
108.454
4.99822
81.9192
3.75004
61.9434
2.83321
46.8711
2.15476
35.4919
1.64975
26.8955
1.27197
20.3981
0.988244
15.4845
0.774495
11.7663
0.613021
8.95127
0.49073
6.81832
0.39788
5.20056
0.32722
3.97166
0.273338
3.03629
0.232184
2.32273
0.20071
1.77713
0.176614
1.35918
0.158144
1.03866
0.143972
0.792773
0.133086
0.60427
0.124718
0.459935
0.118292
0.349638
0.265414
0.113349
4.99422
110.222
3.72471
83.1887
2.80022
62.8679
2.12207
47.5492
1.62064
35.9934
1.24754
27.2686
0.968449
20.6772
0.758781
15.6941
0.600747
11.9244
0.481266
9.07075
0.390668
6.90892
0.32175
5.26948
0.269161
4.02424
0.228906
3.07655
0.198002
2.35363
0.174211
1.80092
0.155844
1.37755
0.141624
1.05288
0.130584
0.803813
0.121996
0.612858
0.115305
0.466627
0.110101
0.354843
0.269465
0.106051
3.68846
111.516
2.7587
84.1185
2.08129
63.5453
1.58443
48.0461
1.21692
36.3609
0.943323
27.5422
0.738488
20.882
0.584449
15.8482
0.468208
12.0406
0.380192
9.15877
0.313315
6.9758
0.262291
5.3205
0.22319
4.06334
0.193081
3.10666
0.169784
2.37693
0.151665
1.81904
0.137502
1.39171
0.126375
1.06401
0.117594
0.812594
0.110646
0.619807
0.105138
0.472134
0.100786
0.359196
0.272903
0.0973473
2.70099
112.446
2.03078
84.7887
1.54076
64.0353
1.18052
48.4063
0.913431
36.628
0.714148
27.7415
0.564605
21.0316
0.451887
15.9609
0.366633
12.1259
0.301911
9.22349
0.252572
7.02514
0.214757
5.35832
0.185593
4.09251
0.162939
3.12931
0.145208
2.39466
0.131218
1.83303
0.120094
1.40284
0.111186
1.07292
0.104011
0.81977
0.0982162
0.625602
0.0935324
0.476818
0.089765
0.362964
0.275927
0.0867422
1.9635
113.096
1.48979
85.2624
1.14026
64.3848
0.881588
48.665
0.688654
36.8209
0.543953
27.8862
0.434848
21.1407
0.352251
16.0435
0.289524
12.1886
0.2417
9.27132
0.205059
7.06178
0.176785
5.38659
0.154778
4.11452
0.13747
3.14662
0.123706
2.40842
0.112635
1.8441
0.103639
1.41183
0.0962641
1.08029
0.0901846
0.82585
0.0851651
0.630622
0.0810258
0.480958
0.0776389
0.366351
0.278685
0.0748813
1.4084
113.529
1.08486
85.5859
0.841492
64.6282
0.658784
48.8477
0.520859
36.9588
0.416377
27.9907
0.336912
21.2201
0.276301
16.1041
0.229965
12.2349
0.194404
9.30688
0.166955
7.08923
0.14557
5.40798
0.128712
4.13137
0.115229
3.1601
0.104282
2.41937
0.095262
1.85312
0.087741
1.41935
0.081414
1.08662
0.0760701
0.831194
0.0715625
0.63513
0.0677769
0.484744
0.0646344
0.369494
0.281274
0.0620447
1.00276
113.797
0.791435
85.7972
0.626089
64.7935
0.498381
48.9754
0.399793
37.0574
0.323775
28.0667
0.265115
21.2788
0.219833
16.1494
0.184863
12.2699
0.157769
9.33397
0.136642
7.11035
0.119976
5.42464
0.106625
4.14472
0.0957285
3.171
0.0866674
2.42843
0.0790036
1.86079
0.072443
1.42591
0.0667877
1.09227
0.0619097
0.836072
0.0577244
0.639316
0.0541632
0.488305
0.0511785
0.372478
0.283752
0.0487012
0.706143
113.938
0.579248
85.9241
0.47139
64.9014
0.38343
49.0634
0.312801
37.128
0.256731
28.1228
0.212482
21.3231
0.177718
16.1842
0.150488
12.2971
0.129124
9.35534
0.112254
7.12722
0.0987477
5.43815
0.08773
4.15574
0.078538
3.18019
0.0707034
2.43626
0.0639066
1.86758
0.0579499
1.43187
0.0527116
1.09751
0.048123
0.840662
0.0441432
0.643296
0.0407332
0.491715
0.0378649
0.375347
0.286139
0.0354787
0.492442
113.98
0.428794
85.9878
0.362808
64.9674
0.303018
49.1232
0.251728
37.1793
0.209163
28.1653
0.174494
21.3577
0.146617
16.212
0.124391
12.3194
0.106698
9.37303
0.0925331
7.14139
0.08102
5.44966
0.0714622
4.1653
0.0633248
3.18833
0.0562384
2.44335
0.0499631
1.87386
0.0443674
1.43747
0.039383
1.1025
0.0349823
0.845063
0.0311525
0.647127
0.0278709
0.494997
0.0251182
0.3781
0.288421
0.0228358
0.34225
113.947
0.325632
86.0044
0.289584
65.0034
0.249139
49.1636
0.210626
37.2178
0.176668
28.1993
0.147909
21.3865
0.124161
16.2358
0.104866
12.3387
0.0892824
9.38861
0.0766511
7.15402
0.0662546
5.46006
0.0575047
4.17405
0.0499427
3.19589
0.0432589
2.45003
0.0372637
1.87985
0.031869
1.44286
0.0270423
1.10732
0.022782
0.849324
0.0190904
0.650819
0.0159494
0.498138
0.0133388
0.38071
0.290567
0.011194
0.239574
113.855
0.257834
85.9861
0.242802
65.0184
0.215122
49.1913
0.184505
37.2485
0.155517
28.2283
0.129948
21.412
0.108286
16.2574
0.0903893
12.3566
0.0757642
9.40324
0.0638047
7.16598
0.0538845
5.46998
0.045472
4.18246
0.0381465
3.20322
0.031629
2.45655
0.0257583
1.88572
0.0204729
1.44815
0.0157622
1.11203
0.0116378
0.853449
0.00810645
0.654351
0.00514463
0.5011
0.00272458
0.38313
0.292525
0.00076587
0.172452
113.716
0.216472
85.9421
0.215777
65.0191
0.195947
49.2111
0.169586
37.2748
0.142859
28.255
0.118452
21.4365
0.0973566
16.2785
0.0797161
12.3742
0.0651959
9.41776
0.0532734
7.1779
0.0433628
5.47989
0.0349519
4.19088
0.0276299
3.21054
0.0211274
2.46306
0.0152951
1.89156
0.0100846
1.45336
0.00549547
1.11662
0.00154035
0.857404
-0.00178125
0.657672
-0.00451081
0.50383
-0.00669304
0.385312
0.294257
-0.00842363
0.131421
113.541
0.194473
85.8791
0.203199
65.0104
0.187612
49.2267
0.162846
37.2996
0.136406
28.2814
0.111692
21.4612
0.0900633
16.3002
0.0718555
12.3924
0.0568256
9.43279
0.0444867
7.19024
0.0342584
5.49012
0.0256211
4.19951
0.0181539
3.21801
0.0115815
2.46963
0.00575442
1.89738
0.000625215
1.45849
-0.00380778
1.12106
-0.00754538
0.861142
-0.0106041
0.660731
-0.0130471
0.506272
-0.0149408
0.387207
0.295717
-0.0164015
0.110061
113.335
0.187099
85.802
0.201551
64.996
0.187489
49.2408
0.162299
37.3248
0.134635
28.3091
0.108482
21.4873
0.0854787
16.3232
0.0660834
12.4118
0.0500897
9.44879
0.0370065
7.20332
0.0262303
5.5009
0.017214
4.20853
0.00951177
3.22571
0.00282996
2.47631
-0.00299197
1.90321
-0.00801286
1.46351
-0.0122459
1.12529
-0.0157115
0.864608
-0.0184538
0.663473
-0.0205597
0.508378
-0.0221281
0.388775
0.296875
-0.0232858
-0.306847
113.234
-0.232949
85.7281
-0.178054
64.9411
-0.137089
49.1998
-0.106454
37.2941
-0.0835517
28.2862
-0.0664763
21.4702
-0.0537896
16.3105
-0.0443995
12.4024
-0.0375187
9.4419
-0.0325971
7.1984
-0.0292709
5.49757
-0.0272752
4.20654
-0.0263893
3.22483
-0.0263758
2.4763
-0.0269633
1.90379
-0.0278658
1.46441
-0.0288225
1.12625
-0.0296519
0.865438
-0.03026
0.664082
-0.0306287
0.508747
-0.0308005
0.388947
0.296921
-0.0308453
-0.299593
113.139
-0.230446
85.659
-0.178989
64.8896
-0.140539
49.1614
-0.11175
37.2654
-0.0902085
28.2647
-0.0741387
21.4542
-0.0621936
16.2985
-0.0533415
12.3936
-0.0468308
9.43539
-0.0421304
7.1937
-0.0388818
5.49432
-0.0368179
4.20447
-0.0357107
3.22372
-0.0353197
2.47591
-0.0353785
1.90385
-0.0356254
1.46466
-0.0358405
1.12646
-0.0358971
0.865495
-0.0357582
0.663942
-0.035448
0.508437
-0.0350394
0.388539
0.296484
-0.0346024
-0.292325
113.05
-0.227569
85.5942
-0.179285
64.8413
-0.143152
49.1252
-0.116061
37.2383
-0.0957675
28.2444
-0.0806175
21.439
-0.0693466
16.2873
-0.0609777
12.3852
-0.0547908
9.42921
-0.0502707
7.18918
-0.0470613
5.49112
-0.0448908
4.2023
-0.0435241
3.22235
-0.0427198
2.4751
-0.0422229
1.90336
-0.0418043
1.46424
-0.0412932
1.12595
-0.0406214
0.864824
-0.0398032
0.663124
-0.0388963
0.50753
-0.037991
0.387634
0.295644
-0.0371501
-0.285101
112.967
-0.224431
85.5336
-0.179094
64.796
-0.145111
49.0913
-0.119591
37.2127
-0.100451
28.2252
-0.0861475
21.4247
-0.0754938
16.2766
-0.0675626
12.3773
-0.0616618
9.42331
-0.0572887
7.18481
-0.0540872
5.48791
-0.0517795
4.19999
-0.0501236
3.2207
-0.0488805
2.47386
-0.0478134
1.90229
-0.0467342
1.46316
-0.0455277
1.12475
-0.0441826
0.863479
-0.0427577
0.661699
-0.0413348
0.506107
-0.0400127
0.386312
0.294474
-0.0388421
-0.277959
112.89
-0.221109
85.4767
-0.178526
64.7534
-0.146546
49.0593
-0.122489
37.1887
-0.104419
28.2072
-0.0908997
21.4112
-0.0808142
16.2665
-0.0732818
12.3697
-0.067635
9.41766
-0.0633809
7.18056
-0.0601614
5.4847
-0.0576918
4.19753
-0.0557241
3.21873
-0.0540257
2.47216
-0.0523856
1.90065
-0.0506629
1.46144
-0.0488017
1.12289
-0.0468446
0.861522
-0.0448866
0.659741
-0.043026
0.504247
-0.0413609
0.384647
0.293039
-0.0399254
-0.270927
112.817
-0.217661
85.4234
-0.17766
64.7134
-0.147557
49.0292
-0.124866
37.166
-0.107795
28.1901
-0.0950044
21.3984
-0.0854443
16.257
-0.0782768
12.3626
-0.0728563
9.41224
-0.0686974
7.1764
-0.0654384
5.48144
-0.0627871
4.19487
-0.0604915
3.21643
-0.0583297
2.47
-0.0561232
1.89844
-0.0537835
1.4591
-0.0513153
1.12042
-0.04881
0.859017
-0.0463909
0.657322
-0.0441645
0.50202
-0.0422208
0.382703
0.291393
-0.0405749
-0.264021
112.749
-0.21413
85.3736
-0.176559
64.6758
-0.148218
49.0008
-0.126809
37.1446
-0.110673
28.174
-0.0985615
21.3863
-0.089489
16.2479
-0.0826567
12.3557
-0.0774383
9.40702
-0.0733542
7.17232
-0.0700376
5.47812
-0.0671893
4.19203
-0.0645554
3.2138
-0.0619296
2.46738
-0.0591714
1.89569
-0.0562487
1.45618
-0.0532253
1.1174
-0.0502356
0.856027
-0.0474223
0.654509
-0.0448936
0.499492
-0.0427258
0.380536
0.289582
-0.0409146
-0.257254
112.686
-0.21055
85.3268
-0.175271
64.6406
-0.148589
48.9742
-0.128386
37.1244
-0.113127
28.1587
-0.101652
21.3748
-0.0930331
16.2393
-0.0865097
12.3492
-0.0814722
9.40199
-0.0774453
7.16829
-0.0740564
5.47473
-0.0709999
4.18897
-0.0680228
3.21082
-0.0649388
2.46429
-0.0616508
1.8924
-0.0581843
1.45271
-0.0546594
1.11387
-0.0512462
0.852615
-0.0480996
0.651362
-0.0453233
0.496716
-0.0429767
0.378189
0.287642
-0.0410365
-0.250636
112.627
-0.206947
85.2832
-0.173835
64.6074
-0.148719
48.949
-0.129653
37.1053
-0.115219
28.1443
-0.104341
21.364
-0.0961456
16.2311
-0.0899076
12.343
-0.0850322
9.39711
-0.0810474
7.16431
-0.0775744
5.47126
-0.0743023
4.1857
-0.0709821
3.20751
-0.0674518
2.46076
-0.063661
1.88861
-0.0596935
1.44874
-0.0557206
1.1099
-0.051941
0.848835
-0.0485146
0.647936
-0.0455373
0.493738
-0.0430489
0.375701
0.285602
-0.0410088
-0.244172
112.572
-0.203342
85.2423
-0.172281
64.5764
-0.148648
48.9254
-0.130656
37.0873
-0.117001
28.1306
-0.106683
21.3536
-0.0988841
16.2233
-0.0929102
12.337
-0.0881806
9.39238
-0.084225
7.16035
-0.0806587
5.4677
-0.0771671
4.18221
-0.0735083
3.20385
-0.0695485
2.4568
-0.0652867
1.88434
-0.0608628
1.44432
-0.0564937
1.10553
-0.0523995
0.844741
-0.0487405
0.644276
-0.0456007
0.490599
-0.0430007
0.373101
0.283485
-0.0408836
-0.237867
112.521
-0.199751
85.2042
-0.170637
64.5473
-0.14841
48.9032
-0.131435
37.0704
-0.118515
28.1177
-0.108725
21.3439
-0.101298
16.2159
-0.0955697
12.3313
-0.0909711
9.38779
-0.0870339
7.15641
-0.0833674
5.46403
-0.0796559
4.1785
-0.0756672
3.19986
-0.0712993
2.45244
-0.0666011
1.87965
-0.0617662
1.43948
-0.0570502
1.10081
-0.0526885
0.840379
-0.0488371
0.640425
-0.0455674
0.487329
-0.0428798
0.370414
0.281309
-0.040704
-0.231725
112.473
-0.196191
85.1687
-0.168928
64.52
-0.148034
48.8823
-0.132024
37.0544
-0.1198
28.1055
-0.110509
21.3346
-0.103432
16.2088
-0.0979311
12.3258
-0.0934507
9.38331
-0.0895229
7.15249
-0.085752
5.46026
-0.081823
4.17457
-0.0775168
3.19555
-0.0727659
2.44768
-0.0676685
1.87455
-0.0624677
1.43428
-0.0574513
1.0958
-0.0528638
0.835792
-0.0488552
0.636416
-0.0454819
0.483956
-0.0427264
0.367658
0.279089
-0.0405061
-0.225746
112.429
-0.192673
85.1356
-0.167171
64.4945
-0.147547
48.8627
-0.132453
37.0393
-0.12089
28.0939
-0.112071
21.3257
-0.105322
16.202
-0.100034
12.3205
-0.0956605
9.37893
-0.0917348
7.14856
-0.0878572
5.45638
-0.0837161
4.17043
-0.0791083
3.19094
-0.0740025
2.44258
-0.0685448
1.86909
-0.0630228
1.42876
-0.0577495
1.09052
-0.0529739
0.831016
-0.0488376
0.63228
-0.045383
0.480501
-0.0425749
0.36485
0.276835
-0.0403213
-0.219934
112.389
-0.189207
85.1049
-0.165386
64.4707
-0.146972
48.8443
-0.13275
37.025
-0.121815
28.083
-0.113443
21.3174
-0.107004
16.1956
-0.101915
12.3154
-0.0976386
9.37466
-0.0937094
7.14463
-0.0897251
5.4524
-0.0853799
4.16608
-0.0804891
3.18605
-0.0750592
2.43715
-0.0692813
1.86331
-0.0634816
1.42296
-0.0579926
1.08503
-0.0530622
0.826086
-0.0488237
0.628041
-0.0453056
0.476983
-0.0424569
0.362001
0.274557
-0.040178
-0.214289
112.351
-0.185805
85.0764
-0.163588
64.4485
-0.146329
48.827
-0.13294
37.0117
-0.122602
28.0726
-0.114656
21.3094
-0.10851
16.1895
-0.103607
12.3105
-0.0994188
9.37047
-0.095482
7.1407
-0.0913927
5.44831
-0.0868538
4.16154
-0.0817016
3.1809
-0.0759804
2.43143
-0.0699233
1.85726
-0.0638882
1.41693
-0.0582218
1.07937
-0.0531671
0.821031
-0.0488478
0.623722
-0.0452808
0.473416
-0.0424005
0.359121
0.272258
-0.0401019
-0.20881
112.317
-0.182474
85.0501
-0.161794
64.4278
-0.145639
48.8108
-0.133046
36.9991
-0.123279
28.0629
-0.115736
21.3019
-0.109868
16.1836
-0.105141
12.3058
-0.101034
9.36636
-0.0970866
7.13675
-0.0928959
5.44412
-0.0881757
4.15682
-0.0827857
3.17551
-0.0768079
2.42545
-0.0705132
1.85096
-0.0642839
1.4107
-0.058476
1.07356
-0.0533245
0.815879
-0.0489437
0.619341
-0.0453392
0.469811
-0.0424344
0.356216
0.269944
-0.0401205
-0.2035
112.286
-0.179223
85.0258
-0.160015
64.4086
-0.14492
48.7958
-0.133088
36.9872
-0.123867
28.0537
-0.11671
21.2947
-0.111107
16.178
-0.106544
12.3012
-0.102513
9.36233
-0.0985537
7.13279
-0.0942668
5.43983
-0.0893798
4.15194
-0.0837776
3.16991
-0.0775787
2.41925
-0.0710886
1.84447
-0.0647055
1.40431
-0.05879
1.06764
-0.0535678
0.810657
-0.0491426
0.614916
-0.0455112
0.46618
-0.0425881
0.353293
0.267618
-0.0402627
-0.198357
112.257
-0.176059
85.0035
-0.158266
64.3908
-0.144188
48.7817
-0.133089
36.9761
-0.12439
28.045
-0.117602
21.2879
-0.112251
16.1726
-0.107845
12.2968
-0.103884
9.35837
-0.0999129
7.12882
-0.0955364
5.43546
-0.0904986
4.1469
-0.0847115
3.16412
-0.0783282
2.41287
-0.0716845
1.83783
-0.0651878
1.39782
-0.0591975
1.06165
-0.0539294
0.805389
-0.0494773
0.610464
-0.0458288
0.462531
-0.0428934
0.350357
0.265285
-0.0405603
-0.193381
112.231
-0.172988
84.9831
-0.156559
64.3744
-0.143461
48.7686
-0.133065
36.9658
-0.124869
28.0368
-0.118435
21.2815
-0.113325
16.1675
-0.109068
12.2925
-0.105173
9.35448
-0.101192
7.12484
-0.0967338
5.431
-0.0915625
4.14173
-0.0856189
3.15818
-0.0790884
2.40634
-0.0723331
1.83107
-0.0657629
1.39125
-0.0597302
1.05562
-0.0544413
0.8001
-0.0499792
0.606002
-0.0463239
0.458876
-0.043382
0.347415
0.262947
-0.0410441
-0.188573
112.208
-0.170019
84.9645
-0.154906
64.3593
-0.142753
48.7564
-0.133036
36.956
-0.125325
28.0291
-0.119232
21.2754
-0.114352
16.1626
-0.110238
12.2884
-0.106408
9.35065
-0.102418
7.12085
-0.097887
5.42647
-0.0926005
4.13644
-0.0865298
3.15211
-0.0798894
2.3997
-0.0730642
1.82425
-0.0664605
1.38464
-0.0604188
1.04958
-0.0551341
0.794815
-0.0506801
0.601548
-0.0470291
0.455225
-0.0440866
0.344473
0.260606
-0.0417466
-0.183932
112.187
-0.167157
84.9478
-0.153316
64.3454
-0.142078
48.7452
-0.133019
36.947
-0.125777
28.0218
-0.120012
21.2697
-0.115355
16.158
-0.111379
12.2844
-0.107611
9.34688
-0.103615
7.11686
-0.0990217
5.42187
-0.093639
4.13106
-0.0874709
3.14594
-0.0807583
2.39298
-0.0739044
1.81739
-0.0673074
1.37804
-0.0612911
1.04356
-0.0560374
0.789561
-0.0516108
0.597121
-0.0479781
0.451592
-0.0450444
0.341539
0.258271
-0.0427097
-0.179458
112.169
-0.164408
84.9327
-0.151803
64.3328
-0.141452
48.7348
-0.133031
36.9386
-0.126243
28.015
-0.120797
21.2642
-0.116355
16.1535
-0.112512
12.2806
-0.108806
9.34317
-0.104808
7.11286
-0.100163
5.41723
-0.0947042
4.1256
-0.0884686
3.1397
-0.0817208
2.38623
-0.0748793
1.81055
-0.068329
1.37149
-0.0623744
1.03761
-0.057181
0.784367
-0.0528049
0.592745
-0.0492093
0.447996
-0.0462999
0.338629
0.25595
-0.043979
-0.17515
112.153
-0.161777
84.9194
-0.150374
64.3214
-0.140888
48.7254
-0.133088
36.9308
-0.126742
28.0087
-0.121606
21.2591
-0.117374
16.1493
-0.113661
12.2769
-0.110015
9.33953
-0.106021
7.10886
-0.101336
5.41254
-0.0958197
4.12008
-0.0895465
3.13343
-0.0827996
2.37949
-0.0760112
1.80376
-0.0695475
1.36503
-0.0636929
1.03175
-0.0585935
0.779267
-0.0542969
0.588449
-0.0507615
0.444461
-0.0478902
0.335758
0.25365
-0.0455901
-0.171009
112.14
-0.159271
84.9076
-0.149041
64.3112
-0.140399
48.7167
-0.133205
36.9236
-0.127291
28.0028
-0.122457
21.2542
-0.11843
16.1453
-0.114844
12.2733
-0.111261
9.33595
-0.107275
7.10488
-0.102561
5.40783
-0.0970081
4.11453
-0.0907266
3.12715
-0.084015
2.37278
-0.0773208
1.79707
-0.0709819
1.35869
-0.0652685
1.02604
-0.0603011
0.7743
-0.0561172
0.584265
-0.0526613
0.441005
-0.0498399
0.332936
0.251387
-0.0475773
-0.167034
112.128
-0.156894
84.8975
-0.147811
64.3021
-0.139995
48.7089
-0.133396
36.917
-0.127906
27.9973
-0.123368
21.2497
-0.119542
16.1415
-0.116083
12.2698
-0.112564
9.33243
-0.108591
7.10091
-0.103862
5.4031
-0.0982907
4.10896
-0.0920297
3.12089
-0.0853857
2.36613
-0.0788274
1.79051
-0.0726499
1.35251
-0.0671213
1.02051
-0.0623272
0.769505
-0.0582885
0.580226
-0.0549417
0.437658
-0.0522087
0.330203
0.249193
-0.0500152
-0.157539
112.112
-0.145325
84.8853
-0.135768
64.2925
-0.128235
48.7014
-0.122225
36.911
-0.117398
27.9925
-0.113486
21.2458
-0.110208
16.1382
-0.107225
12.2669
-0.104139
9.32934
-0.100588
7.09736
-0.096313
5.39883
-0.0912561
4.1039
-0.0855934
3.11522
-0.0796109
2.36015
-0.073765
1.78466
-0.0682784
1.34703
-0.0634111
1.01564
-0.0592023
0.765296
-0.0556588
0.576682
-0.0527257
0.434725
-0.0503347
0.327812
0.24727
-0.0484116
-0.125498
112.099
-0.11602
84.8758
-0.108597
64.2851
-0.102736
48.6955
-0.0980475
36.9063
-0.094269
27.9887
-0.0911928
21.2427
-0.0886023
16.1356
-0.0862306
12.2645
-0.0837635
9.32687
-0.0809164
7.09451
-0.0774942
5.3954
-0.0734636
4.09987
-0.0689873
3.11075
-0.0642941
2.35545
-0.0597602
1.78013
-0.0555273
1.34279
-0.0518067
1.01192
-0.0486113
0.762101
-0.0459288
0.574
-0.0437187
0.432515
-0.0419249
0.326018
0.245827
-0.0404825
-0.0999435
112.089
-0.0925693
84.8684
-0.0867885
64.2793
-0.0822181
48.6909
-0.0785534
36.9026
-0.07559
27.9857
-0.0731675
21.2403
-0.0711182
16.1335
-0.0692329
12.2626
-0.0672645
9.32491
-0.0649877
7.09223
-0.0622556
5.39267
-0.0590492
4.09666
-0.0555123
3.10721
-0.0518274
2.35177
-0.0483013
1.7766
-0.0450279
1.33952
-0.0421679
1.00906
-0.0397386
0.759671
-0.0377023
0.571963
-0.036032
0.430844
-0.0346838
0.32467
0.244747
-0.0336033
-0.0795564
112.082
-0.0737935
84.8626
-0.0692735
64.2748
-0.0656955
48.6874
-0.0628206
36.8998
-0.0604892
27.9834
-0.0585764
21.2384
-0.0569522
16.1319
-0.0554527
12.2611
-0.0538835
9.32334
-0.0520664
7.09042
-0.04989
5.3905
-0.0473438
4.09412
-0.0445506
3.10442
-0.0416572
2.34888
-0.0389076
1.77385
-0.0363737
1.33699
-0.0341644
1.00685
-0.0323126
0.757819
-0.0307614
0.570412
-0.0294936
0.429577
-0.0284757
0.323653
0.243936
-0.0276646
-0.0633034
112.076
-0.0587822
84.8581
-0.0552352
64.2713
-0.0524248
48.6846
-0.0501626
36.8975
-0.0483232
27.9816
-0.0468094
21.2369
-0.0455199
16.1306
-0.0443264
12.2599
-0.0430759
9.32209
-0.0416275
7.08897
-0.0398962
5.38876
-0.0378763
4.0921
-0.0356702
3.10221
-0.0333975
2.3466
-0.0312468
1.7717
-0.0292819
1.33502
-0.0275685
1.00514
-0.0261487
0.756399
-0.0249625
0.569226
-0.0239961
0.42861
-0.0232215
0.322878
0.243324
-0.0226101
-0.0503253
112.071
-0.0467439
84.8545
-0.0439347
64.2685
-0.0417081
48.6823
-0.039914
36.8957
-0.0384528
27.9801
-0.0372477
21.2357
-0.0362192
16.1296
-0.0352667
12.259
-0.0342698
9.32109
-0.0331173
7.08782
-0.0317435
5.38739
-0.030146
4.0905
-0.0284074
3.10047
-0.0266264
2.34482
-0.0249441
1.77002
-0.0234217
1.3335
-0.0220941
1.00381
-0.0210007
0.755306
-0.0200925
0.568318
-0.0193558
0.427873
-0.018765
0.322287
0.242864
-0.0183041
-0.0401315
112.067
-0.0373878
84.8518
-0.0352333
64.2663
-0.0335217
48.6806
-0.0321375
36.8943
-0.0310046
27.979
-0.0300648
21.2347
-0.0292574
16.1288
-0.0285046
12.2582
-0.0277116
9.3203
-0.0267902
7.08689
-0.0256893
5.38629
-0.0244088
4.08922
-0.0230166
3.09908
-0.0215961
2.3434
-0.0202543
1.76868
-0.0190492
1.33229
-0.0179998
1.00276
-0.0171371
0.754443
-0.0164253
0.567606
-0.0158506
0.427299
-0.0153906
0.321827
0.242508
-0.0150354
-0.0317723
112.064
-0.0294996
84.8495
-0.0277188
64.2645
-0.0263071
48.6792
-0.0251684
36.8932
-0.0242391
27.978
-0.0234701
21.234
-0.0228123
16.1281
-0.0222038
12.2576
-0.0215699
9.31966
-0.0208412
7.08617
-0.0199779
5.38543
-0.01898
4.08822
-0.0178995
3.098
-0.0168043
2.34231
-0.0157696
1.76764
-0.0148474
1.33137
-0.0140487
1.00196
-0.0133896
0.753784
-0.0128505
0.567066
-0.0124185
0.426866
-0.0120736
0.321482
0.242244
-0.0118093
-0.0245459
112.057
-0.0188564
84.8438
-0.0142697
64.26
-0.0105589
48.6755
-0.0075339
36.8902
-0.00504932
27.9756
-0.00298901
21.2319
-0.00125195
16.1264
0.000264075
12.2561
0.00166435
9.31826
0.00303926
7.08479
0.00443892
5.38403
0.0058641
4.0868
0.00725849
3.0966
0.00856351
2.341
0.00970777
1.7665
0.0106622
1.33042
0.011451
1.00117
0.0120578
0.753177
0.0125252
0.566599
0.0128855
0.426506
0.013157
0.32121
0.242048
0.0133533
-0.0257787
112.049
-0.0198043
84.8379
-0.0149888
64.2551
-0.0110926
48.6716
-0.00791554
36.887
-0.0053046
27.973
-0.00313782
21.2297
-0.00130974
16.1246
0.00028596
12.2545
0.00175884
9.31679
0.003203
7.08335
0.00466998
5.38256
0.00616028
4.08531
0.00761353
3.09515
0.00896907
2.33965
0.0101554
1.76531
0.0111359
1.32944
0.0119466
1.00036
0.0125692
0.752554
0.0130434
0.566124
0.0134076
0.426142
0.0136819
0.320936
0.241849
0.0138809
-0.0270737
112.042
-0.0208
84.8316
-0.0157441
64.2501
-0.0116533
48.6675
-0.00831666
36.8837
-0.00557304
27.9702
-0.00329437
21.2275
-0.00137052
16.1226
0.000308997
12.2528
0.00185825
9.31524
0.00337506
7.08183
0.00491236
5.38102
0.00647025
4.08375
0.00798431
3.09364
0.00939109
2.33824
0.0106205
1.76408
0.011627
1.32843
0.0124574
0.99953
0.0130961
0.751915
0.0135766
0.565644
0.0139431
0.425775
0.0142191
0.32066
0.241648
0.0144192
-0.0284337
112.033
-0.0218455
84.825
-0.0165374
64.2448
-0.0122424
48.6632
-0.0087382
36.8802
-0.00585526
27.9673
-0.00345895
21.2251
-0.00143436
16.1206
0.000333424
12.251
0.00196303
9.31361
0.00355613
7.08024
0.00516699
5.37941
0.00679507
4.08212
0.00837197
3.09206
0.00983064
2.33678
0.0111038
1.76281
0.0121362
1.3274
0.0129843
0.998682
0.013638
0.751261
0.0141242
0.565157
0.0144925
0.425407
0.0147684
0.320384
0.241449
0.0149681
-0.0298617
112.025
-0.0229436
84.8181
-0.0173708
64.2392
-0.0128613
48.6587
-0.0091812
36.8765
-0.00615189
27.9643
-0.00363198
21.2225
-0.00150137
16.1185
0.000359385
12.2492
0.00207363
9.3119
0.00374687
7.07856
0.0054347
5.37772
0.0071357
4.08042
0.00877752
3.09042
0.0102887
2.33527
0.0116061
1.76149
0.0126646
1.32634
0.0135282
0.997818
0.0141954
0.750594
0.0146874
0.564665
0.0150576
0.425037
0.0153319
0.32011
0.24125
0.0155308
-0.0313617
112.015
-0.0240969
84.8108
-0.018246
64.2334
-0.0135114
48.654
-0.00964671
36.8726
-0.0064637
27.9611
-0.00381382
21.2199
-0.00157163
16.1162
0.000387088
12.2472
0.00219046
9.31009
0.00394793
7.07681
0.00571632
5.37596
0.00749313
4.07864
0.0092021
3.08871
0.0107665
2.3337
0.0121285
1.76013
0.0132137
1.32526
0.0140909
0.996941
0.0147698
0.749915
0.0152683
0.564166
0.0156399
0.424665
0.0159108
0.319839
0.241052
0.0161086
-0.0329365
112.006
-0.025308
84.8032
-0.0191654
64.2272
-0.0141944
48.649
-0.0101358
36.8686
-0.00679144
27.9578
-0.00400492
21.2171
-0.00164525
16.1139
0.000416662
12.2452
0.00231397
9.3082
0.00416
7.07496
0.00601269
5.3741
0.00786827
4.07679
0.00964674
3.08693
0.0112653
2.33208
0.0126719
1.75872
0.0137851
1.32414
0.0146741
0.996052
0.0153631
0.749226
0.0158677
0.563662
0.0162388
0.424294
0.0165034
0.319574
0.240857
0.016698
-0.0345908
111.996
-0.0265799
84.7952
-0.0201307
64.2208
-0.0149119
48.6438
-0.0106498
36.8643
-0.00713585
27.9543
-0.00420568
21.2142
-0.00172236
16.1114
0.000448342
12.243
0.00244458
9.3062
0.00438362
7.07302
0.00632451
5.37216
0.00826188
4.07485
0.0101122
3.08508
0.0117858
2.33041
0.0132373
1.75727
0.0143795
1.323
0.015279
0.995152
0.0159759
0.748529
0.0164842
0.563153
0.0168521
0.423926
0.0171076
0.319318
0.24067
0.0172945
-0.0363278
111.985
-0.0279156
84.7868
-0.0211448
64.214
-0.0156655
48.6383
-0.0111898
36.8598
-0.00749776
27.9506
-0.00441655
21.2111
-0.00180305
16.1088
0.000482237
12.2407
0.00258263
9.3041
0.00461938
7.07099
0.00665238
5.37013
0.0086745
4.07283
0.0105989
3.08316
0.0123286
2.32868
0.0138247
1.75578
0.0149971
1.32183
0.0159061
0.994243
0.0166076
0.747827
0.0171154
0.562645
0.0174768
0.423564
0.0177232
0.319072
0.240496
0.0178976
-0.0381519
111.974
-0.0293183
84.778
-0.0222097
64.2069
-0.0164571
48.6326
-0.0117572
36.8551
-0.00787808
27.9467
-0.00463807
21.2079
-0.00188753
16.106
0.000518483
12.2383
0.0027285
9.30189
0.00486768
7.06885
0.00699677
5.368
0.00910648
4.07072
0.0111071
3.08116
0.0128936
2.32689
0.0144338
1.75424
0.0156368
1.32062
0.0165548
0.993325
0.0172567
0.747125
0.0177591
0.562142
0.018111
0.423212
0.0183499
0.318833
0.240335
0.0185108
-0.0400674
111.962
-0.0307912
84.7687
-0.0233283
64.1994
-0.0172887
48.6265
-0.0123533
36.8502
-0.00827766
27.9426
-0.00487072
21.2045
-0.00197597
16.1031
0.00055715
12.2358
0.00288244
9.29956
0.00512898
7.0666
0.00735807
5.36577
0.0095581
4.06852
0.0116365
3.07908
0.0134806
2.32505
0.0150635
1.75265
0.0162969
1.31939
0.0172232
0.992398
0.0179215
0.746427
0.0184155
0.561648
0.0187552
0.422872
0.0189876
0.318601
0.240185
0.0191378
-0.0420792
111.95
-0.0323381
84.7589
-0.0245027
64.1916
-0.0181621
48.6202
-0.0129795
36.845
-0.0086975
27.9383
-0.00511505
21.2009
-0.00206855
16.1001
0.000598308
12.2331
0.00304479
9.29712
0.00540368
7.06424
0.00773672
5.36344
0.0100296
4.06623
0.012187
3.07692
0.014089
2.32315
0.0157128
1.75103
0.0169752
1.31813
0.0179088
0.991464
0.0186007
0.745735
0.0190851
0.561164
0.0194126
0.422545
0.0196388
0.318374
0.240042
0.0197814
-0.0441914
111.937
-0.0339625
84.7487
-0.0257364
64.1834
-0.0190795
48.6135
-0.0136373
36.8396
-0.0091386
27.9338
-0.00537169
21.1971
-0.00216556
16.0969
0.000642063
12.2303
0.00321581
9.29454
0.00569221
7.06176
0.00813309
5.361
0.0105212
4.06384
0.0127586
3.07468
0.0147183
2.32119
0.0163803
1.74937
0.0176697
1.31684
0.0186098
0.990524
0.0192934
0.745051
0.0197685
0.560688
0.0200845
0.422228
0.0203052
0.318154
0.239904
0.0204435
-0.0464097
111.924
-0.0356682
84.738
-0.0270318
64.1747
-0.020043
48.6066
-0.0143284
36.8339
-0.00960201
27.9291
-0.00564125
21.1932
-0.00226722
16.0935
0.000688459
12.2273
0.00339584
9.29184
0.00599502
7.05917
0.0085477
5.35845