/*--------------------------------*- C++ -*----------------------------------*\
  =========                 |
  \\      /  F ield         | OpenFOAM: The Open Source CFD Toolbox
   \\    /   O peration     | Website:  https://openfoam.org
    \\  /    A nd           | Version:  7
     \\/     M anipulation  |
\*---------------------------------------------------------------------------*/
FoamFile
{
    version     2.0;
    format      ascii;
    class       volVectorField;
    location    "80";
    object      U;
}
// * * * * * * * * * * * * * * * * * * * * * * * * * * * * * * * * * * * * * //

dimensions      [0 1 -1 0 0 0 0];

internalField   nonuniform List<vector> 
12842
(
(15.504 1.9062 8.49396e-19)
(15.5065 1.91694 3.84884e-19)
(15.5089 1.92678 1.33462e-19)
(15.5117 1.93902 -3.30016e-19)
(15.5146 1.95536 1.40021e-18)
(15.5173 1.97723 0)
(15.5194 2.0063 0)
(15.5202 2.04452 1.15834e-19)
(15.5189 2.09417 -1.01483e-18)
(15.5143 2.15772 -2.42821e-20)
(15.5046 2.23766 -3.74496e-19)
(15.4877 2.33622 9.55094e-21)
(15.4613 2.45498 -2.05359e-19)
(15.423 2.59432 -1.20393e-20)
(15.3709 2.75322 2.51015e-20)
(15.304 2.92878 6.91588e-20)
(15.2228 3.11623 3.62908e-20)
(15.1292 3.30931 0)
(15.0269 3.50094 2.2412e-21)
(14.9204 3.68424 7.56224e-21)
(14.8147 3.85314 7.0277e-21)
(14.7143 4.0042 -1.72165e-20)
(14.623 4.13224 2.1158e-20)
(15.5049 1.90592 -7.00489e-19)
(15.5096 1.91511 0)
(15.5141 1.92426 1.64727e-18)
(15.5198 1.93598 -1.06235e-18)
(15.5265 1.95189 -1.12814e-18)
(15.5338 1.97349 0)
(15.5418 2.00254 1.98119e-18)
(15.5499 2.04116 0)
(15.5574 2.09184 1.7592e-18)
(15.5632 2.15733 1.58174e-19)
(15.5657 2.24043 6.94836e-19)
(15.5627 2.3437 9.88895e-19)
(15.5514 2.46893 1.96222e-19)
(15.5289 2.61658 -4.84811e-19)
(15.4925 2.78538 0)
(15.4404 2.97191 -7.76889e-20)
(15.3719 3.1707 -6.96177e-20)
(15.2885 3.37466 1.89475e-19)
(15.1933 3.57592 0)
(15.0909 3.76703 -1.70084e-20)
(14.9867 3.94154 2.82805e-20)
(14.8856 4.09653 2.79982e-20)
(14.7927 4.22486 -1.65635e-20)
(15.506 1.90541 0)
(15.5121 1.91291 0)
(15.5183 1.92114 3.7826e-19)
(15.5265 1.93203 5.99181e-18)
(15.5364 1.94713 0)
(15.5479 1.96795 0)
(15.5611 1.99636 4.74565e-19)
(15.5758 2.03463 -1.92457e-18)
(15.5915 2.08543 -8.10281e-19)
(15.6071 2.15174 -7.62659e-19)
(15.6212 2.23672 -1.39427e-18)
(15.6315 2.34324 -9.62859e-19)
(15.6349 2.4734 -2.15094e-19)
(15.628 2.62781 7.49852e-19)
(15.6074 2.8051 0)
(15.5703 3.00151 1.28866e-19)
(15.5154 3.21091 -1.6437e-19)
(15.4434 3.42542 -1.4009e-19)
(15.357 3.6364 -3.07702e-19)
(15.2608 3.83583 1.7572e-19)
(15.1606 4.01673 -3.00754e-20)
(15.0616 4.17672 0)
(14.9698 4.30651 -5.4219e-22)
(15.5071 1.90464 -3.14905e-19)
(15.5139 1.9105 8.09797e-19)
(15.5216 1.9177 -2.5101e-18)
(15.5318 1.92757 -9.56868e-18)
(15.5445 1.94155 8.61951e-19)
(15.5598 1.9612 -2.93327e-18)
(15.5778 1.98847 -1.87821e-19)
(15.5985 2.02575 1.89121e-18)
(15.6217 2.07586 3.07733e-18)
(15.6466 2.14203 -1.80901e-18)
(15.6717 2.2277 3.37872e-18)
(15.6948 2.33612 -3.88115e-19)
(15.7126 2.46972 5.04137e-19)
(15.7213 2.62932 1.72547e-18)
(15.7166 2.81357 -2.78792e-19)
(15.6951 3.01847 3.57557e-19)
(15.6547 3.23736 1.20999e-19)
(15.5953 3.46171 3.61885e-19)
(15.5196 3.68213 1.95079e-20)
(15.4317 3.8901 2.13685e-19)
(15.3379 4.07803 5.92498e-20)
(15.2433 4.24405 8.17892e-20)
(15.155 4.37667 -1.10963e-19)
(15.5082 1.90362 -3.27138e-18)
(15.5151 1.90804 0)
(15.5239 1.91417 4.2367e-19)
(15.536 1.92284 3.41724e-18)
(15.5511 1.93545 3.47428e-19)
(15.5696 1.95357 7.87491e-18)
(15.5919 1.97923 3.37875e-19)
(15.6182 2.01491 -4.9647e-18)
(15.6483 2.06357 -3.468e-18)
(15.6818 2.12864 2.29494e-18)
(15.7173 2.21384 -3.63091e-18)
(15.7528 2.3228 -2.69666e-18)
(15.7849 2.45833 6.01549e-19)
(15.8091 2.62154 -3.73851e-18)
(15.8207 2.81118 -1.47779e-18)
(15.8155 3.0231 1.03728e-18)
(15.7907 3.25027 0)
(15.7455 3.48362 -3.57078e-19)
(15.6821 3.7131 0)
(15.6046 3.92971 9.87832e-20)
(15.5193 4.12523 1.28307e-19)
(15.4312 4.2982 -1.05595e-19)
(15.3483 4.43488 -2.77943e-20)
(15.5092 1.90241 2.90304e-18)
(15.5158 1.90564 0)
(15.5256 1.9107 0)
(15.5391 1.91807 5.47927e-18)
(15.5563 1.9291 -4.06278e-18)
(15.5776 1.94538 -4.55621e-18)
(15.6036 1.969 -6.77705e-18)
(15.6348 2.00253 5.47735e-18)
(15.6712 2.049 0)
(15.7126 2.11202 2.91534e-18)
(15.758 2.19557 3.27848e-18)
(15.8054 2.30366 1.34997e-18)
(15.8514 2.43951 0)
(15.8911 2.60459 2.00777e-18)
(15.9194 2.79787 1.24174e-18)
(15.9313 3.01519 -7.50683e-19)
(15.9231 3.24928 -1.9686e-19)
(15.8936 3.49063 1.37019e-18)
(15.8445 3.72867 0)
(15.7795 3.95396 -5.6525e-19)
(15.7048 4.15754 1.91044e-19)
(15.6252 4.33837 5.88722e-19)
(15.5496 4.48023 -1.25441e-19)
(15.51 1.90109 -3.1316e-19)
(15.5162 1.90338 0)
(15.5267 1.90742 0)
(15.5413 1.91343 -5.43622e-18)
(15.56 1.92274 4.67377e-18)
(15.5836 1.93694 -5.85503e-19)
(15.6128 1.95817 4.0177e-18)
(15.6483 1.98907 3.84165e-19)
(15.6902 2.0327 -5.03764e-19)
(15.7388 2.09281 -3.29847e-18)
(15.7934 2.17361 -3.75729e-19)
(15.852 2.27947 2.68219e-18)
(15.9113 2.41405 0)
(15.9664 2.57924 -2.56449e-18)
(16.0114 2.77435 2.3855e-19)
(16.0409 2.99532 -3.06429e-19)
(16.0505 3.23479 9.56827e-19)
(16.0383 3.48298 -7.97517e-19)
(16.0053 3.72885 -1.04524e-18)
(15.9548 3.96261 -2.49161e-19)
(15.8929 4.17447 3.06373e-20)
(15.8239 4.36382 -3.59309e-19)
(15.7573 4.51173 -2.23801e-19)
(15.5105 1.89974 0)
(15.5162 1.90132 -2.87141e-19)
(15.5273 1.90437 3.44894e-18)
(15.5427 1.90899 -1.04532e-19)
(15.5627 1.91651 -4.86908e-18)
(15.5882 1.9285 7.81849e-19)
(15.62 1.94712 -1.50258e-19)
(15.659 1.97502 -3.21364e-18)
(15.7057 2.01526 0)
(15.7606 2.07164 -3.94821e-18)
(15.8234 2.14855 3.30327e-19)
(15.8926 2.25069 1.65333e-19)
(15.9649 2.38218 0)
(16.0351 2.54544 2.51438e-18)
(16.0971 2.7402 -2.06522e-18)
(16.1448 2.96273 0)
(16.1733 3.20571 -9.42363e-19)
(16.18 3.45934 0)
(16.1651 3.71216 8.49011e-19)
(16.1314 3.95414 0)
(16.0846 4.1745 -3.76335e-19)
(16.0284 4.37324 2.30348e-19)
(15.9726 4.5282 3.06059e-19)
(15.511 1.89827 0)
(15.516 1.89945 0)
(15.5274 1.90181 4.51832e-20)
(15.543 1.90535 -2.25249e-19)
(15.5636 1.91134 5.51782e-18)
(15.5903 1.92135 4.55921e-18)
(15.6241 1.93758 0)
(15.6658 1.96274 3.00838e-18)
(15.716 1.99992 0)
(15.7756 2.05296 8.00882e-18)
(15.8444 2.12635 3.01817e-18)
(15.9213 2.22505 -2.25824e-18)
(16.0031 2.35349 -2.26556e-19)
(16.085 2.51454 0)
(16.1606 2.70825 2.19271e-18)
(16.2235 2.93118 1.71513e-18)
(16.2681 3.17606 -1.55482e-19)
(16.2914 3.43308 1.16367e-18)
(16.2931 3.6905 1.03017e-18)
(16.2752 3.93825 0)
(16.243 4.16459 2.42534e-19)
(16.1996 4.37049 1.87447e-20)
(16.1546 4.53124 -1.78453e-19)
(15.5116 1.89676 -3.73324e-20)
(15.5158 1.89783 3.49256e-18)
(15.5275 1.89963 -3.22797e-18)
(15.5434 1.9023 0)
(15.5646 1.9071 9.9297e-20)
(15.5922 1.91562 1.4607e-19)
(15.6275 1.93005 -4.11338e-18)
(15.6712 1.95314 0)
(15.7241 1.98794 0)
(15.7873 2.0383 -4.00583e-18)
(15.8608 2.10877 -3.20171e-18)
(15.9439 2.20448 -9.11689e-20)
(16.0336 2.33012 2.35185e-18)
(16.1249 2.48885 -7.60991e-20)
(16.2117 2.681 -3.03113e-19)
(16.2871 2.90333 3.14721e-19)
(16.3454 3.14865 -1.14367e-18)
(16.3831 3.40724 -1.07175e-18)
(16.3994 3.66718 -1.16661e-18)
(16.3958 3.91853 -8.45122e-19)
(16.3773 4.14876 2.68628e-19)
(16.3459 4.35968 -1.18459e-18)
(16.3118 4.52456 2.11163e-19)
(15.512 1.89527 4.21175e-18)
(15.5155 1.89641 -3.95423e-18)
(15.5277 1.89766 9.69243e-20)
(15.5437 1.89952 3.28521e-18)
(15.5654 1.90317 -1.55308e-19)
(15.5939 1.91027 -4.67719e-18)
(15.6305 1.92301 7.81399e-18)
(15.6761 1.94414 2.0724e-19)
(15.7315 1.97665 -1.50405e-19)
(15.7979 2.02438 -4.26047e-18)
(15.8759 2.09187 1.19614e-19)
(15.9648 2.18441 -2.90762e-18)
(16.062 2.3069 -2.09322e-18)
(16.1627 2.46277 0)
(16.2605 2.6526 2.50155e-18)
(16.3486 2.87336 -3.63389e-18)
(16.4211 3.11799 -2.57637e-19)
(16.474 3.37688 1.08863e-18)
(16.5062 3.63802 -1.04813e-20)
(16.5185 3.89171 1.06358e-18)
(16.5156 4.1247 0)
(16.4983 4.33966 3.58374e-19)
(16.4773 4.5078 0)
(15.5122 1.89384 -6.70936e-18)
(15.5152 1.89516 -3.79257e-18)
(15.5277 1.89588 1.64108e-19)
(15.5438 1.89698 -6.47529e-18)
(15.566 1.89953 2.9485e-18)
(15.5953 1.90526 -1.36708e-19)
(15.6331 1.91636 -3.99107e-18)
(15.6803 1.93559 5.87127e-20)
(15.738 1.96586 -1.7214e-19)
(15.8075 2.01094 4.39019e-18)
(15.8896 2.07538 0)
(15.9841 2.16456 2.65634e-18)
(16.0885 2.28353 2.06193e-19)
(16.1982 2.43598 -1.00918e-19)
(16.307 2.62272 -2.59216e-18)
(16.408 2.84094 3.78639e-20)
(16.4952 3.08369 1.03463e-18)
(16.5643 3.34156 -1.79053e-18)
(16.6137 3.60249 0)
(16.6434 3.85712 -7.43978e-19)
(16.6579 4.0915 9.75906e-19)
(16.6568 4.30928 0)
(16.6507 4.47967 -5.4078e-19)
(15.5123 1.89251 2.33041e-18)
(15.5149 1.89407 5.29432e-21)
(15.5277 1.89428 1.65086e-19)
(15.5438 1.89466 3.12914e-18)
(15.5664 1.89614 -5.79045e-18)
(15.5964 1.90055 2.50415e-20)
(15.6352 1.91005 5.86692e-20)
(15.684 1.92741 3.46699e-18)
(15.7437 1.95545 -7.88389e-20)
(15.816 1.99788 0)
(15.902 2.05916 3.56871e-18)
(16.0017 2.14475 8.32494e-20)
(16.1131 2.25983 8.05758e-20)
(16.2318 2.40831 1.99289e-20)
(16.3516 2.59119 -2.56399e-19)
(16.4658 2.80587 2.01014e-18)
(16.5682 3.04552 -1.17164e-18)
(16.6543 3.30098 -1.77678e-19)
(16.7221 3.56013 -3.806e-19)
(16.7709 3.81408 1.0234e-18)
(16.8045 4.04819 -6.89591e-19)
(16.8214 4.26722 1.40346e-18)
(16.8319 4.43861 -8.98575e-19)
(15.5123 1.89128 2.39029e-18)
(15.5146 1.89314 3.66634e-18)
(15.5277 1.89283 1.41526e-20)
(15.5437 1.89254 3.3478e-18)
(15.5667 1.89299 5.87724e-18)
(15.5972 1.8961 -2.53672e-20)
(15.637 1.90404 -5.97058e-20)
(15.6871 1.91955 5.97122e-20)
(15.7487 1.94538 -2.81864e-18)
(15.8236 1.98509 2.32975e-18)
(15.9132 2.0431 -3.75577e-18)
(16.018 2.12486 -2.92551e-18)
(16.1362 2.23566 2.40944e-18)
(16.2637 2.37957 0)
(16.3946 2.55777 1.46717e-18)
(16.5223 2.76786 0)
(16.6405 3.00312 1.56119e-18)
(16.7445 3.25465 9.69076e-19)
(16.8318 3.51026 -1.73774e-20)
(16.9009 3.76163 -1.1457e-18)
(16.9551 3.99347 -2.21473e-20)
(16.9915 4.21175 9.14653e-21)
(17.0201 4.38251 -3.62138e-19)
(15.5122 1.89019 -4.07051e-20)
(15.5143 1.89233 3.68558e-20)
(15.5276 1.89153 -1.39117e-20)
(15.5436 1.89061 -3.35087e-18)
(15.5668 1.89005 -2.93328e-18)
(15.5978 1.8919 0)
(15.6385 1.89829 3.81642e-20)
(15.6898 1.91198 -3.52297e-18)
(15.7531 1.93557 -4.65076e-20)
(15.8305 1.97252 -2.33314e-18)
(15.9235 2.02711 1.95351e-18)
(16.0331 2.10478 4.55763e-18)
(16.1578 2.21087 -2.32838e-18)
(16.2941 2.34958 1.84775e-18)
(16.4363 2.52223 1.52205e-19)
(16.5778 2.72659 2.06397e-20)
(16.7123 2.95602 -8.6188e-20)
(16.8349 3.20189 -3.07655e-19)
(16.9426 3.45196 2.08717e-19)
(17.0331 3.69854 -3.5524e-19)
(17.109 3.92571 -2.61556e-20)
(17.1663 4.14075 2.92037e-19)
(17.2142 4.30879 0)
(15.512 1.88921 -7.08179e-20)
(15.514 1.89164 0)
(15.5274 1.89036 0)
(15.5434 1.88884 -3.37119e-18)
(15.5668 1.8873 -3.02832e-18)
(15.5983 1.88791 2.60097e-18)
(15.6397 1.89277 3.07778e-20)
(15.6922 1.90464 -3.16626e-20)
(15.757 1.92597 2.91142e-18)
(15.8366 1.96009 -4.20699e-20)
(15.9328 2.0111 8.79244e-20)
(16.0471 2.0844 -1.54399e-18)
(16.1783 2.1853 0)
(16.3233 2.31813 -1.96485e-18)
(16.4767 2.48427 -3.10081e-18)
(16.6322 2.68165 -1.28385e-18)
(16.7834 2.90367 -7.9689e-19)
(16.9251 3.14196 0)
(17.0539 3.3842 0)
(17.1665 3.62342 6.36059e-19)
(17.2651 3.84309 4.42681e-19)
(17.344 4.05191 -9.03167e-19)
(17.4121 4.21469 0)
(15.5118 1.88836 -2.56673e-18)
(15.5138 1.89106 1.86522e-20)
(15.5273 1.8893 -6.87473e-21)
(15.5431 1.88721 3.34931e-18)
(15.5667 1.88472 6.03149e-18)
(15.5985 1.88411 -5.18401e-18)
(15.6406 1.88745 -3.11786e-20)
(15.6941 1.89748 -3.20973e-20)
(15.7604 1.91653 4.2171e-20)
(15.842 1.94772 0)
(15.9413 1.99498 -1.93631e-18)
(16.06 2.06358 1.60304e-18)
(16.1975 2.15879 0)
(16.3511 2.28497 0)
(16.5158 2.44356 1.46856e-18)
(16.6855 2.63258 1.0271e-19)
(16.8536 2.84542 9.06261e-19)
(17.0148 3.07399 6.97e-19)
(17.165 3.30581 -1.012e-18)
(17.3002 3.53474 -3.68895e-19)
(17.4215 3.74368 1.46622e-18)
(17.5223 3.94283 -1.36144e-18)
(17.6106 4.0974 9.00556e-19)
(15.5116 1.88761 1.26223e-18)
(15.5136 1.89055 1.75177e-18)
(15.5271 1.88836 1.79487e-20)
(15.5428 1.88572 -2.37227e-20)
(15.5665 1.88228 -3.04426e-18)
(15.5986 1.88047 2.63769e-18)
(15.6413 1.88229 -1.98612e-20)
(15.6957 1.89048 -6.33669e-21)
(15.7633 1.90719 4.2665e-20)
(15.8468 1.93536 2.166e-20)
(15.9489 1.97867 -2.83673e-20)
(16.0718 2.04222 -1.60474e-18)
(16.2154 2.13119 1.36702e-18)
(16.3775 2.24991 -6.04584e-20)
(16.5535 2.39979 0)
(16.7373 2.57893 -1.2677e-19)
(16.9225 2.78064 1.13377e-19)
(17.1032 2.99709 -7.02099e-19)
(17.2747 3.21562 1.27918e-18)
(17.4321 3.43101 7.55203e-19)
(17.5758 3.62569 -5.12156e-19)
(17.6978 3.8114 -7.64233e-19)
(17.8057 3.95447 9.89584e-19)
(15.5113 1.88698 -1.89324e-20)
(15.5135 1.89013 -1.76696e-18)
(15.5268 1.88751 0)
(15.5424 1.88434 0)
(15.5661 1.87998 0)
(15.5985 1.87697 0)
(15.6417 1.87727 2.00522e-20)
(15.6969 1.8836 -9.99564e-21)
(15.7657 1.89793 -2.15374e-20)
(15.851 1.92296 2.18983e-20)
(15.9557 1.9621 -2.8687e-20)
(16.0826 2.02024 0)
(16.2321 2.10236 -2.6652e-18)
(16.4025 2.21272 7.53115e-20)
(16.5895 2.35264 -1.57162e-19)
(16.7874 2.52025 1.46592e-18)
(16.9893 2.7087 -1.17713e-19)
(17.1892 2.91043 2.01692e-19)
(17.3814 3.11258 -2.39707e-19)
(17.5601 3.311 4.07154e-19)
(17.7248 3.48775 -5.79877e-19)
(17.8664 3.65618 0)
(17.9921 3.78439 5.68276e-19)
(15.5111 1.88644 -2.49072e-18)
(15.5133 1.88976 -8.7975e-19)
(15.5266 1.88674 -1.25846e-20)
(15.542 1.88307 1.71825e-18)
(15.5657 1.8778 1.54619e-18)
(15.5983 1.8736 1.21792e-20)
(15.6419 1.87237 -2.28055e-18)
(15.6978 1.87681 1.8776e-18)
(15.7676 1.88869 1.49231e-18)
(15.8545 1.91046 0)
(15.9616 1.9452 3.62868e-20)
(16.0923 1.99753 -1.71546e-18)
(16.2474 2.07217 1.39218e-18)
(16.4258 2.17321 1.03993e-18)
(16.6235 2.30182 8.78808e-19)
(16.835 2.45609 0)
(17.0532 2.629 0)
(17.2713 2.81325 -7.94853e-19)
(17.4829 2.99586 -8.74864e-19)
(17.6811 3.17386 4.33459e-19)
(17.8646 3.32912 3.15499e-19)
(18.0232 3.47661 4.33537e-19)
(18.1642 3.58653 -6.12496e-19)
(15.5108 1.88598 1.24529e-18)
(15.5132 1.88944 8.83387e-19)
(15.5263 1.88604 -9.07923e-21)
(15.5415 1.88187 1.30873e-20)
(15.5652 1.87569 -1.54565e-18)
(15.5979 1.87031 -1.33985e-18)
(15.6419 1.86754 1.10839e-18)
(15.6984 1.87007 -1.85986e-18)
(15.7691 1.87945 -1.48601e-18)
(15.8574 1.89783 -3.55818e-20)
(15.9667 1.92793 0)
(16.1008 1.974 1.6682e-18)
(16.2611 2.04046 1.37888e-18)
(16.4472 2.13115 -1.10395e-18)
(16.6551 2.24702 -7.5607e-19)
(16.8796 2.38606 -3.54475e-19)
(17.113 2.54106 -2.92397e-19)
(17.348 2.70508 1.62099e-18)
(17.577 2.86502 0)
(17.7921 3.01943 0)
(17.9911 3.15028 3.3731e-19)
(18.1631 3.27401 -8.54958e-19)
(18.3155 3.36378 -6.21464e-19)
(15.5106 1.88564 -1.19562e-18)
(15.513 1.88921 0)
(15.526 1.88547 0)
(15.541 1.88082 -3.43708e-18)
(15.5646 1.87377 1.5433e-18)
(15.5973 1.86718 1.37015e-18)
(15.6416 1.86283 -5.45156e-21)
(15.6986 1.86337 9.22158e-19)
(15.7701 1.87015 3.55178e-20)
(15.8596 1.885 -1.26523e-18)
(15.9709 1.91021 3.68336e-20)
(16.1082 1.94963 -4.82099e-20)
(16.2733 2.00722 -1.37918e-18)
(16.4664 2.08652 1.13597e-18)
(16.6839 2.18816 8.49428e-19)
(16.9203 2.31004 -7.36161e-19)
(17.1675 2.44475 6.73791e-19)
(17.4172 2.58589 -8.2331e-19)
(17.6609 2.7205 0)
(17.8894 2.84871 0)
(18.1 2.95319 -3.10549e-19)
(18.2809 3.05081 2.21277e-19)
(18.4408 3.11895 -6.17743e-19)
(15.5102 1.88525 2.17625e-20)
(15.513 1.88886 -9.15472e-19)
(15.5257 1.88469 0)
(15.5406 1.87954 8.58814e-19)
(15.5643 1.8716 -3.11902e-18)
(15.5971 1.86389 1.23446e-20)
(15.6415 1.85807 -2.16276e-20)
(15.6989 1.85673 -9.54141e-19)
(15.7709 1.86091 2.19544e-20)
(15.8613 1.87209 1.26809e-18)
(15.9742 1.89208 -2.93629e-20)
(16.1142 1.92429 -8.20244e-19)
(16.2837 1.97219 -8.98711e-20)
(16.4831 2.03893 -1.07081e-18)
(16.7091 2.12479 -9.78087e-19)
(16.9561 2.22761 7.28546e-20)
(17.2152 2.3399 0)
(17.4771 2.45592 -1.13681e-19)
(17.7321 2.56312 1.46978e-19)
(17.9699 2.66317 0)
(18.1876 2.74022 3.16708e-19)
(18.3731 2.81077 -2.16338e-19)
(18.5359 2.85681 0)
(15.51 1.88537 1.17533e-18)
(15.5126 1.88909 9.14617e-19)
(15.5253 1.88493 0)
(15.5399 1.87953 8.58774e-19)
(15.5632 1.87093 3.13436e-18)
(15.596 1.86208 1.37042e-18)
(15.6407 1.85467 2.2991e-18)
(15.6986 1.85141 0)
(15.7713 1.85322 1.53297e-18)
(15.8626 1.86123 -1.25154e-18)
(15.9768 1.87664 1.0255e-18)
(16.1191 1.90216 8.55885e-19)
(16.292 1.94056 -1.25401e-20)
(16.4967 1.99435 1.63708e-20)
(16.7299 2.06324 -9.25588e-19)
(16.9857 2.14486 7.21623e-19)
(17.2545 2.23172 0)
(17.5257 2.31891 4.21815e-19)
(17.7884 2.39498 0)
(18.0315 2.46322 0)
(18.2515 2.51032 -3.0953e-19)
(18.4371 2.55203 -6.57978e-19)
(18.5985 2.57519 5.67913e-19)
(15.5099 1.88531 0)
(15.5127 1.88915 -3.76256e-23)
(15.5252 1.8849 1.2058e-22)
(15.5396 1.87931 -8.65597e-19)
(15.5629 1.87028 -7.79885e-19)
(15.5957 1.86074 -1.36956e-18)
(15.6405 1.8523 -1.15193e-18)
(15.6985 1.84763 -1.04854e-21)
(15.7715 1.84748 -7.6454e-19)
(15.8633 1.85264 3.73717e-22)
(15.9784 1.8637 1.64471e-21)
(16.1223 1.88269 0)
(16.298 1.91153 1.25777e-20)
(16.5069 1.95195 -1.64106e-20)
(16.7458 2.00297 1.35397e-18)
(17.0085 2.06198 4.21122e-20)
(17.2842 2.12167 0)
(17.5611 2.17818 1.15643e-19)
(17.8272 2.22175 -1.46092e-19)
(18.0709 2.25732 0)
(18.2883 2.27465 0)
(18.4697 2.28846 4.23015e-19)
(18.6262 2.28983 -2.92808e-19)
(15.5098 1.88524 1.16249e-18)
(15.5127 1.88919 9.34852e-19)
(15.5251 1.88484 0)
(15.5395 1.87905 8.66084e-19)
(15.5627 1.86959 -7.91334e-19)
(15.5955 1.85936 -1.3885e-18)
(15.6404 1.84993 1.16485e-18)
(15.6987 1.84388 -9.51307e-19)
(15.7719 1.84178 -7.67659e-19)
(15.8642 1.84404 1.87792e-18)
(15.9802 1.85069 -1.02772e-18)
(16.1254 1.86301 -8.53216e-19)
(16.3034 1.88207 -7.09957e-19)
(16.5155 1.90878 0)
(16.7587 1.94152 -4.62904e-19)
(17.0257 1.97754 7.31359e-19)
(17.305 2.01003 3.82502e-20)
(17.5833 2.03641 -4.68568e-19)
(17.848 2.049 0)
(18.0874 2.0543 0)
(18.2978 2.04503 0)
(18.4714 2.03465 -6.3049e-19)
(18.6202 2.01735 5.60528e-19)
(15.5096 1.88517 -1.16343e-18)
(15.5126 1.88923 4.13769e-21)
(15.525 1.88478 0)
(15.5392 1.8788 -8.79176e-19)
(15.5625 1.8689 -8.6413e-23)
(15.5953 1.858 2.08813e-18)
(15.6403 1.84757 -2.33598e-18)
(15.6988 1.84015 2.86112e-18)
(15.7723 1.83609 -8.56949e-22)
(15.8651 1.83544 -6.24366e-19)
(15.9817 1.83764 -5.17689e-19)
(16.1281 1.8432 8.55337e-19)
(16.3077 1.85231 7.0165e-19)
(16.522 1.86508 -5.77568e-19)
(16.7676 1.8793 8.1439e-21)
(17.0365 1.89225 -7.39981e-19)
(17.3161 1.89793 0)
(17.5922 1.89528 0)
(17.8515 1.87896 3.0133e-19)
(18.0828 1.85682 0)
(18.2832 1.82426 0)
(18.4469 1.79336 1.01116e-19)
(18.5863 1.76039 2.68799e-19)
(15.5095 1.88513 0)
(15.5126 1.88928 -9.4033e-19)
(15.5248 1.88473 2.43109e-23)
(15.539 1.87856 -6.36089e-21)
(15.5622 1.86823 -5.8382e-23)
(15.595 1.85666 -1.40136e-18)
(15.6401 1.84524 1.17104e-18)
(15.6988 1.83645 -1.90978e-18)
(15.7726 1.83042 -7.70425e-19)
(15.8657 1.82685 0)
(15.9828 1.82455 5.1513e-19)
(16.1298 1.82328 1.71971e-21)
(16.3103 1.82234 3.26088e-22)
(16.5258 1.82104 5.7482e-19)
(16.7721 1.81668 0)
(17.0406 1.80677 3.68568e-19)
(17.3176 1.78639 -8.09981e-21)
(17.588 1.75625 0)
(17.8388 1.71339 -3.00869e-19)
(18.0595 1.66684 0)
(18.2478 1.61426 0)
(18.4004 1.5663 0)
(18.5294 1.52044 -4.01008e-21)
(15.5094 1.8851 0)
(15.5126 1.88934 4.72761e-19)
(15.5247 1.8847 -4.53885e-24)
(15.5388 1.87833 8.86621e-19)
(15.5619 1.86758 8.13595e-19)
(15.5947 1.85535 1.40772e-18)
(15.6398 1.84294 0)
(15.6987 1.83277 -9.55976e-19)
(15.7727 1.82478 1.54006e-18)
(15.866 1.81827 -1.75264e-23)
(15.9833 1.81146 5.14317e-19)
(16.1306 1.80332 -4.25599e-19)
(16.3114 1.79227 0)
(16.5268 1.77687 0)
(16.7722 1.75405 4.59414e-19)
(17.038 1.72175 -3.61899e-19)
(17.3096 1.6764 0)
(17.5717 1.62059 -4.0131e-19)
(17.8114 1.55375 -2.92277e-19)
(18.0194 1.48582 0)
(18.1944 1.41628 4.60124e-21)
(18.3353 1.35435 2.7927e-22)
(18.4536 1.29802 -1.38991e-19)
(15.5092 1.8851 5.06676e-24)
(15.5126 1.8894 -9.46585e-19)
(15.5246 1.88468 -1.2618e-23)
(15.5386 1.87813 0)
(15.5616 1.86696 3.08726e-21)
(15.5943 1.85406 -1.41217e-18)
(15.6395 1.84066 -2.62069e-22)
(15.6985 1.82912 9.55989e-19)
(15.7726 1.81916 -7.69358e-19)
(15.866 1.80971 6.23816e-19)
(15.9833 1.79838 -1.38975e-21)
(16.1305 1.78336 8.50164e-19)
(16.3109 1.7622 -7.01221e-19)
(16.5251 1.73278 2.0399e-21)
(16.7679 1.69181 -9.18291e-19)
(17.0288 1.63781 3.65594e-19)
(17.2928 1.56883 -1.70636e-20)
(17.5441 1.48939 4.14979e-19)
(17.7709 1.40119 2.90405e-19)
(17.9648 1.3148 0)
(18.1258 1.23108 1.36171e-19)
(18.2547 1.15788 0)
(18.3624 1.0931 -5.86663e-20)
(15.5091 1.88511 0)
(15.5126 1.88948 4.73808e-19)
(15.5244 1.88467 4.87879e-19)
(15.5384 1.87795 4.84082e-23)
(15.5613 1.86637 -1.63728e-18)
(15.594 1.85281 7.07316e-19)
(15.6392 1.83842 0)
(15.6982 1.8255 0)
(15.7724 1.81357 -4.26263e-22)
(15.8658 1.80119 -6.23312e-19)
(15.9829 1.78534 -1.59082e-21)
(16.1296 1.76345 -4.23848e-19)
(16.3088 1.73226 6.98238e-19)
(16.5208 1.68901 0)
(16.7594 1.63034 4.55072e-19)
(17.0135 1.55556 -3.54333e-19)
(17.2676 1.46448 2.44853e-19)
(17.5062 1.36356 2.31452e-20)
(17.7186 1.25658 0)
(17.8976 1.15445 0)
(18.0444 1.05904 -6.77379e-20)
(18.1615 0.976801 -1.77156e-19)
(18.2586 0.905266 1.22607e-19)
(15.509 1.88515 0)
(15.5125 1.88957 -1.92477e-23)
(15.5243 1.88469 -4.88138e-19)
(15.5382 1.87778 4.52996e-19)
(15.561 1.8658 8.19969e-19)
(15.5936 1.85159 1.55922e-22)
(15.6388 1.83622 5.89885e-19)
(15.6978 1.82192 4.77313e-19)
(15.772 1.80803 -7.66206e-19)
(15.8653 1.79272 0)
(15.982 1.77237 -1.74576e-21)
(16.1278 1.74366 -4.19948e-19)
(16.3052 1.70255 0)
(16.5138 1.64575 -9.90889e-21)
(16.7469 1.57 4.56152e-19)
(16.9923 1.47553 0)
(17.2346 1.36402 -4.14005e-20)
(17.4591 1.24383 -5.15367e-21)
(17.6559 1.12052 3.31433e-19)
(17.8196 1.00514 0)
(17.9524 0.900174 0)
(18.0579 0.810788 8.89586e-20)
(18.1449 0.733863 -2.90088e-19)
(15.5089 1.8852 -1.01558e-23)
(15.5125 1.88966 1.34049e-23)
(15.5242 1.88471 0)
(15.5379 1.87764 4.55933e-19)
(15.5606 1.86526 -4.15233e-22)
(15.5932 1.8504 3.12426e-22)
(15.6384 1.83404 -5.89764e-19)
(15.6974 1.81837 -4.7788e-19)
(15.7716 1.80252 7.66374e-19)
(15.8646 1.7843 -6.18151e-19)
(15.9807 1.75948 -5.11122e-19)
(16.1252 1.72403 4.23717e-19)
(16.3001 1.67318 3.366e-19)
(16.5043 1.60322 2.66202e-19)
(16.7303 1.51112 -4.46046e-19)
(16.9654 1.3982 1.97357e-20)
(17.1945 1.26805 -2.91044e-19)
(17.4035 1.13075 -1.37404e-19)
(17.5842 0.993431 -1.38818e-19)
(17.7325 0.866992 9.40314e-20)
(17.8515 0.754323 -1.21443e-19)
(17.9459 0.659331 0)
(18.0231 0.578126 1.10205e-19)
(15.5088 1.88527 0)
(15.5125 1.88977 4.75662e-19)
(15.524 1.88475 4.9331e-19)
(15.5377 1.87751 -4.53604e-19)
(15.5603 1.86474 4.13188e-19)
(15.5928 1.84923 0)
(15.6379 1.8319 6.53541e-22)
(15.6969 1.81486 -8.58905e-22)
(15.771 1.79705 3.82566e-19)
(15.8637 1.77594 9.28757e-19)
(15.9789 1.7467 -5.03088e-19)
(16.1217 1.70462 -2.96558e-21)
(16.2934 1.64427 -3.55659e-21)
(16.4923 1.56162 -2.76076e-19)
(16.7099 1.45404 0)
(16.9333 1.32401 3.26335e-19)
(17.1478 1.17703 -2.42216e-19)
(17.3406 1.02475 1.81949e-19)
(17.5048 0.875539 6.0098e-20)
(17.6376 0.739989 5.05636e-21)
(17.7433 0.621181 -1.16389e-19)
(17.8271 0.52185 7.74157e-20)
(17.8949 0.437272 1.07825e-19)
(15.5087 1.88536 2.90375e-19)
(15.5125 1.88988 6.58175e-22)
(15.5239 1.88481 -4.93589e-19)
(15.5375 1.8774 -4.55793e-19)
(15.5599 1.86425 -8.27741e-19)
(15.5923 1.8481 -7.13921e-19)
(15.6374 1.8298 -6.54282e-22)
(15.6964 1.81139 8.59841e-22)
(15.7703 1.79164 -3.82652e-19)
(15.8625 1.76765 -3.09172e-19)
(15.9767 1.73406 1.0085e-18)
(16.1174 1.68547 -4.1143e-19)
(16.2853 1.6159 -3.38068e-19)
(16.4778 1.52114 2.67398e-19)
(16.6859 1.39904 -1.45302e-20)
(16.8964 1.25334 -2.86286e-19)
(17.0952 1.09137 2.46354e-19)
(17.2711 0.926144 -2.5452e-19)
(17.4186 0.766968 -6.54922e-20)
(17.5363 0.624008 0)
(17.629 0.500388 1.15699e-19)
(17.7027 0.397751 -1.53617e-19)
(17.7615 0.310541 2.04935e-19)
(15.5086 1.88547 -2.90486e-19)
(15.5124 1.89 -7.15597e-19)
(15.5238 1.88488 -4.96382e-19)
(15.5372 1.87731 4.58668e-19)
(15.5595 1.86378 4.14486e-19)
(15.5918 1.847 7.14074e-19)
(15.6369 1.82773 5.94469e-19)
(15.6957 1.80795 0)
(15.7694 1.78627 3.82452e-19)
(15.8611 1.75944 -3.07716e-19)
(15.974 1.72157 -5.03149e-19)
(16.1123 1.66665 4.11509e-19)
(16.2758 1.5882 0)
(16.4611 1.48195 -2.49142e-19)
(16.6586 1.34639 1.79682e-19)
(16.8551 1.18652 -1.53649e-19)
(17.0374 1.0114 6.09869e-20)
(17.1959 0.83514 8.97396e-20)
(17.3267 0.667758 -2.32246e-19)
(17.4295 0.518876 1.55188e-19)
(17.5099 0.391555 0)
(17.5737 0.28645 -2.95292e-19)
(17.6239 0.197217 4.21794e-19)
(15.5085 1.88559 0)
(15.5124 1.89013 2.38918e-19)
(15.5236 1.88496 4.96462e-19)
(15.537 1.87724 -4.58902e-19)
(15.5592 1.86334 -5.9627e-23)
(15.5913 1.84594 3.15689e-22)
(15.6363 1.82569 -2.96279e-19)
(15.6951 1.80456 0)
(15.7685 1.78096 -3.82533e-19)
(15.8595 1.75133 9.29693e-22)
(15.971 1.70926 0)
(16.1063 1.64819 -2.01836e-19)
(16.2649 1.56125 0)
(16.4422 1.44422 1.79926e-20)
(16.6281 1.29631 -3.98065e-19)
(16.8097 1.12383 1.18393e-19)
(16.975 0.937354 5.838e-20)
(17.1158 0.751891 -2.29462e-19)
(17.23 0.577889 1.13167e-19)
(17.3182 0.424387 1.5423e-19)
(17.3867 0.294302 -2.48831e-19)
(17.4412 0.187397 2.03727e-19)
(17.4831 0.0966223 -7.52244e-19)
(15.5084 1.88572 -2.83867e-19)
(15.5124 1.89026 2.40375e-19)
(15.5235 1.88505 -2.49655e-19)
(15.5367 1.87719 -2.36299e-22)
(15.5588 1.86292 4.21428e-22)
(15.5908 1.8449 -7.21373e-22)
(15.6357 1.82369 -2.98048e-19)
(15.6943 1.80121 1.91776e-21)
(15.7674 1.77571 -1.38177e-21)
(15.8576 1.74332 1.12241e-21)
(15.9674 1.69715 -2.47014e-19)
(16.0997 1.63015 1.94792e-19)
(16.2527 1.53515 9.25735e-21)
(16.4213 1.40809 -1.75136e-20)
(16.5949 1.24902 2.21207e-19)
(16.7608 1.06548 0)
(16.9085 0.869435 1.03267e-19)
(17.0316 0.676491 1.54283e-19)
(17.1292 0.497307 -1.07125e-19)
(17.2033 0.340321 2.84216e-19)
(17.2603 0.208269 -1.3854e-19)
(17.3057 0.100102 3.04777e-20)
(17.3397 0.00815024 3.77938e-19)
(15.5083 1.88587 5.66017e-19)
(15.5124 1.89041 -2.40488e-19)
(15.5234 1.88516 -8.09202e-22)
(15.5365 1.87715 0)
(15.5584 1.86253 0)
(15.5903 1.84389 -3.62468e-19)
(15.635 1.82173 -2.99697e-19)
(15.6935 1.79791 0)
(15.7662 1.77052 -1.6803e-21)
(15.8555 1.73542 3.07997e-19)
(15.9635 1.68526 2.5142e-19)
(16.0922 1.61256 -5.69586e-21)
(16.2393 1.50997 -1.10239e-20)
(16.3985 1.37369 3.13909e-20)
(16.5591 1.20469 -2.21705e-20)
(16.7089 1.01167 0)
(16.8387 0.807783 -1.49088e-19)
(16.9439 0.608991 4.74049e-21)
(17.0252 0.425939 -2.91058e-19)
(17.0854 0.266463 1.30746e-19)
(17.1314 0.133144 1.80926e-19)
(17.1678 0.0241588 -2.92572e-19)
(17.1941 -0.0686899 0)
(15.5082 1.88604 -5.62727e-19)
(15.5124 1.89056 2.66754e-23)
(15.5233 1.88528 2.5074e-19)
(15.5362 1.87713 0)
(15.558 1.86216 0)
(15.5898 1.84292 -1.00526e-21)
(15.6343 1.81981 5.99802e-19)
(15.6926 1.79465 0)
(15.7649 1.7654 1.90551e-19)
(15.8533 1.72764 0)
(15.9592 1.67362 0)
(16.0841 1.59548 -6.87398e-21)
(16.2247 1.48578 8.96395e-21)
(16.3741 1.34114 1.02455e-19)
(16.5211 1.16346 2.14871e-20)
(16.6542 0.962543 -3.5401e-20)
(16.766 0.752493 1.44792e-19)
(16.8535 0.549412 0)
(16.9186 0.363715 9.52797e-20)
(16.9652 0.202641 0)
(17.0004 0.0686926 3.96815e-20)
(17.028 -0.0407114 5.46245e-20)
(17.0468 -0.134222 0)
(15.5081 1.88622 4.20323e-19)
(15.5123 1.89072 -1.21798e-19)
(15.5231 1.88541 0)
(15.536 1.87713 2.34342e-19)
(15.5576 1.86182 -2.12277e-19)
(15.5892 1.84198 3.64065e-19)
(15.6336 1.81792 -3.00634e-19)
(15.6917 1.79143 -2.41882e-19)
(15.7635 1.76035 -1.89196e-19)
(15.8508 1.71999 -2.66182e-21)
(15.9545 1.66223 3.48284e-21)
(16.0753 1.57892 1.9136e-19)
(16.2091 1.46266 1.04863e-20)
(16.3481 1.31052 -1.48646e-19)
(16.4811 1.12544 2.07725e-20)
(16.5974 0.918195 0)
(16.6911 0.703623 0)
(16.7609 0.49775 0)
(16.8101 0.310578 0)
(16.8433 0.148746 -2.75108e-20)
(16.8679 0.0147711 -1.7598e-19)
(16.8868 -0.0946772 1.72933e-19)
(16.8982 -0.188617 0)
(15.508 1.88641 -1.39717e-19)
(15.5123 1.89089 2.4419e-19)
(15.523 1.88555 0)
(15.5357 1.87715 -2.34536e-19)
(15.5572 1.8615 4.25953e-19)
(15.5887 1.84107 0)
(15.6329 1.81608 0)
(15.6907 1.78827 2.40868e-19)
(15.762 1.75537 0)
(15.8481 1.71246 -1.46929e-19)
(15.9495 1.65111 -1.22395e-19)
(16.0659 1.56294 -9.73308e-20)
(16.1926 1.44064 1.4685e-19)
(16.3208 1.28192 0)
(16.4395 1.0907 0)
(16.5389 0.878692 3.17312e-20)
(16.6144 0.661197 -4.1437e-20)
(16.6668 0.453981 0)
(16.7003 0.266487 -3.79261e-20)
(16.7203 0.104733 2.76719e-20)
(16.7343 -0.0286996 1.38965e-19)
(16.7445 -0.137838 -1.81711e-19)
(16.7486 -0.231945 0)
(15.508 1.88662 2.03037e-23)
(15.5123 1.89107 -2.45334e-19)
(15.5229 1.8857 -7.68082e-23)
(15.5355 1.87718 -1.18145e-19)
(15.5568 1.86121 -2.13673e-19)
(15.5881 1.84019 1.83592e-19)
(15.6321 1.81427 5.40356e-22)
(15.6897 1.78515 -1.21391e-19)
(15.7604 1.75046 1.9193e-19)
(15.8452 1.70508 1.47431e-19)
(15.9441 1.64029 1.18979e-19)
(16.0559 1.54755 -9.41807e-20)
(16.1751 1.41978 -1.46989e-19)
(16.2923 1.25538 -1.47263e-20)
(16.3966 1.0593 1.92696e-20)
(16.479 0.844059 2.98573e-20)
(16.5366 0.625207 -3.9025e-20)
(16.5719 0.418061 0)
(16.5897 0.231399 3.81254e-20)
(16.5967 0.0705994 0)
(16.6002 -0.061723 -1.66834e-20)
(16.6017 -0.170215 0)
(16.5984 -0.264162 -6.22819e-21)
(15.5079 1.88683 6.92357e-20)
(15.5123 1.89125 1.22901e-19)
(15.5228 1.88587 1.27817e-19)
(15.5353 1.87723 -2.41835e-22)
(15.5564 1.86094 -3.71625e-22)
(15.5875 1.83934 9.40297e-22)
(15.6313 1.8125 -1.51356e-19)
(15.6885 1.78209 -7.51447e-22)
(15.7587 1.74563 -1.8893e-19)
(15.8421 1.69784 -2.58614e-21)
(15.9384 1.62977 1.19539e-19)
(16.0454 1.53277 0)
(16.1569 1.4001 -9.59433e-21)
(16.2629 1.23094 1.25357e-20)
(16.3527 1.03127 3.76969e-20)
(16.4183 0.814285 0)
(16.4583 0.59561 0)
(16.4766 0.389926 -2.39561e-20)
(16.4792 0.205279 0)
(16.4732 0.0463755 8.71642e-20)
(16.4662 -0.0842237 -9.97961e-20)
(16.4586 -0.191657 8.55356e-21)
(16.4478 -0.284951 1.93926e-19)
(15.5078 1.88706 -1.38341e-19)
(15.5123 1.89144 -6.19592e-20)
(15.5227 1.88604 -1.91904e-19)
(15.535 1.87729 1.19236e-19)
(15.556 1.86069 1.07669e-19)
(15.5869 1.83852 -2.77121e-19)
(15.6305 1.81077 1.51497e-19)
(15.6874 1.77907 1.19213e-19)
(15.7568 1.74088 2.99697e-21)
(15.8389 1.69076 -2.1357e-21)
(15.9323 1.61956 -1.16196e-19)
(16.0344 1.51863 -4.45442e-20)
(16.138 1.38164 5.86181e-20)
(16.2327 1.20863 6.22788e-20)
(16.308 1.00657 -3.77738e-20)
(16.3572 0.789317 0)
(16.3799 0.572323 0)