/*--------------------------------*- C++ -*----------------------------------*\
  =========                 |
  \\      /  F ield         | OpenFOAM: The Open Source CFD Toolbox
   \\    /   O peration     | Website:  https://openfoam.org
    \\  /    A nd           | Version:  7
     \\/     M anipulation  |
\*---------------------------------------------------------------------------*/
FoamFile
{
    version     2.0;
    format      ascii;
    class       volScalarField;
    location    "80";
    object      yPlus;
}
// * * * * * * * * * * * * * * * * * * * * * * * * * * * * * * * * * * * * * //

dimensions      [0 0 0 0 0 0 0];

internalField   uniform 0;

boundaryField
{
    inlet
    {
        type            calculated;
        value           uniform 0;
    }
    outlet
    {
        type            calculated;
        value           uniform 0;
    }
    suction_side
    {
        type            calculated;
        value           nonuniform List<scalar> 
56
(
6.90731
7.27352
7.32485
7.75555
7.98539
8.25454
9.18744
9.27544
10.8961
10.9709
14.249
16.3646
26.8184
36.6529
43.8328
42.9923
37.887
28.0467
21.1089
33.801
38.8921
40.7935
42.1032
43.215
43.5701
43.3269
42.7952
42.0731
41.2564
40.3468
39.4274
38.5212
37.6455
36.8088
36.0171
35.2678
34.5562
33.8721
33.2078
32.5582
31.9191
31.2901
30.6594
30.0262
29.3545
28.6616
27.8541
26.9503
25.8146
24.6799
23.4859
22.3916
21.3703
20.3161
19.8366
18.4686
)
;
    }
    pressure_side
    {
        type            calculated;
        value           nonuniform List<scalar> 
56
(
30.3579
30.8745
31.1039
31.7056
32.1251
32.6783
33.2222
33.7403
34.2148
34.6323
35.0036
35.3297
35.6197
35.8801
36.1114
36.3163
36.5021
36.6736
36.834
36.9887
37.143
37.2851
37.3938
37.4366
37.3809
37.234
37.0835
37.0784
37.2939
37.845
38.7343
39.8447
40.9923
41.6899
41.7408
41.0821
39.4933
37.1463
33.7954
29.4622
24.2506
18.4212
12.3234
7.65762
6.23037
4.72463
4.34659
4.3483
4.53922
4.93132
5.23247
5.86874
6.02161
6.40669
6.51217
6.84253
)
;
    }
    trailing_edge
    {
        type            calculated;
        value           nonuniform List<scalar> 2(105.827 87.3509);
    }
    defaultFaces
    {
        type            empty;
    }
}


// ************************************************************************* //
