/*--------------------------------*- C++ -*----------------------------------*\
  =========                 |
  \\      /  F ield         | OpenFOAM: The Open Source CFD Toolbox
   \\    /   O peration     | Website:  https://openfoam.org
    \\  /    A nd           | Version:  7
     \\/     M anipulation  |
\*---------------------------------------------------------------------------*/
FoamFile
{
    version     2.0;
    format      ascii;
    class       volScalarField;
    location    "0.5";
    object      p;
}
// * * * * * * * * * * * * * * * * * * * * * * * * * * * * * * * * * * * * * //

dimensions      [0 2 -2 0 0 0 0];

internalField   nonuniform List<scalar> 
100
(
1.67547e-06
-0.0142995
-0.0161249
-0.00210418
0.0238797
0.0549718
0.0826302
0.0984144
0.0968847
0.0815584
0.0140098
-0.00258313
-0.00458325
0.00685449
0.0271205
0.0513157
0.0733356
0.08665
0.0848873
0.0669099
0.0187609
-0.00423538
-0.00716346
0.00473058
0.0250281
0.0494057
0.0725106
0.0877108
0.0856356
0.0604058
0.00545158
-0.0237944
-0.0255777
-0.00933882
0.0163276
0.0472083
0.0780355
0.101056
0.102394
0.0702376
-0.0355612
-0.0672421
-0.0627647
-0.0371288
-0.000922877
0.0423218
0.0879223
0.127073
0.140298
0.106892
-0.1195
-0.14373
-0.123285
-0.0811511
-0.0286336
0.0330752
0.101571
0.168426
0.208853
0.189488
-0.271067
-0.263333
-0.209096
-0.140408
-0.0651111
0.0208427
0.120433
0.229112
0.321531
0.351113
-0.542126
-0.432767
-0.311465
-0.203642
-0.0999812
0.0133865
0.149148
0.313393
0.498201
0.662427
-1.07596
-0.643933
-0.387337
-0.23437
-0.110562
0.018468
0.180458
0.406067
0.757571
1.29461
-1.99465
-0.850959
-0.363008
-0.185644
-0.079345
0.026264
0.176012
0.443453
1.04955
2.30862
)
;

boundaryField
{
    movingWall
    {
        type            zeroGradient;
    }
    fixedWalls
    {
        type            zeroGradient;
    }
    frontAndBack
    {
        type            empty;
    }
}


// ************************************************************************* //
