0.00189574 6.08785e-07
0.00575991 5.35058e-06
0.00977224 1.48803e-05
 0.0139384 2.92511e-05
 0.0182644 4.82627e-05
 0.0227562 7.13022e-05
 0.0274202 9.73105e-05
 0.0322631 0.000124895
 0.0372917 0.000152537
  0.042513 0.000178818
 0.0479346 0.00020259
 0.0535641 0.000223065
 0.0594095 0.000239827
 0.0654789 0.000252781
 0.0717811 0.000262077
  0.078325 0.000268026
 0.0851197 0.000271031
  0.092175 0.00027153
 0.0995009 0.000269952
  0.107108 0.000266702
  0.115006 0.000262147
  0.123207 0.000256619
  0.131723 0.000250413
  0.140565 0.000243777
  0.149747 0.000236909
   0.15928 0.000229963
  0.169179 0.000223054
  0.179457 0.00021625
   0.19013 0.000209572
  0.201212 0.000203007
  0.212718 0.000196552
  0.224666 0.000190249
  0.237072 0.000184142
  0.249954 0.000178209
   0.26333 0.000172388
  0.277218 0.000166657
   0.29164 0.000161045
  0.306614 0.000155585
  0.322162 0.000150303
  0.338306 0.000145182
   0.35507 0.000140196
  0.372476 0.000135318
   0.39055 0.00013052
  0.409316 0.000125822
  0.428803 0.000121259
  0.449036 0.000116798
  0.470045 0.000112373
   0.49186 0.000107962
  0.514512 0.000103555
  0.538031 9.91532e-05
  0.562453 9.47461e-05
  0.587811 9.02851e-05
  0.614142 8.57046e-05
  0.641482 8.10606e-05
   0.66987 7.6446e-05
  0.699347 7.19527e-05
  0.729954 6.76376e-05
  0.761735 6.34667e-05
  0.794735 5.9548e-05
  0.828999 5.60798e-05
  0.864578 5.31972e-05
  0.901521 5.09262e-05
   0.93988 4.92683e-05
   0.97971 4.83441e-05
