0.00189574 2.40729e-08
0.00575991 2.40461e-08
0.00977224 2.40421e-08
 0.0139384 2.4075e-08
 0.0182644 2.4146e-08
 0.0227562 2.42547e-08
 0.0274202 2.44008e-08
 0.0322631 2.45833e-08
 0.0372917 2.48003e-08
  0.042513 2.5049e-08
 0.0479346 2.53259e-08
 0.0535641 2.56266e-08
 0.0594095 2.5946e-08
 0.0654789 2.62784e-08
 0.0717811 2.66175e-08
  0.078325 2.69568e-08
 0.0851197 2.72899e-08
  0.092175 2.76101e-08
 0.0995009 2.79114e-08
  0.107108 2.81878e-08
  0.115006 2.84337e-08
  0.123207 2.86446e-08
  0.131723 2.88163e-08
  0.140565 2.89459e-08
  0.149747 2.9031e-08
   0.15928 2.90705e-08
  0.169179 2.90646e-08
  0.179457 2.90146e-08
   0.19013 2.89222e-08
  0.201212 2.87893e-08
  0.212718 2.86165e-08
  0.224666 2.8404e-08
  0.237072 2.81521e-08
  0.249954 2.78627e-08
   0.26333 2.75389e-08
  0.277218 2.7183e-08
   0.29164 2.67971e-08
  0.306614 2.63841e-08
  0.322162 2.59458e-08
  0.338306 2.5484e-08
   0.35507 2.50009e-08
  0.372476 2.44986e-08
   0.39055 2.3981e-08
  0.409316 2.3452e-08
  0.428803 2.29132e-08
  0.449036 2.23672e-08
  0.470045 2.18235e-08
   0.49186 2.12929e-08
  0.514512 2.07795e-08
  0.538031 2.02792e-08
  0.562453 1.97866e-08
  0.587811 1.93012e-08
  0.614142 1.88287e-08
  0.641482 1.83743e-08
   0.66987 1.79415e-08
  0.699347 1.75325e-08
  0.729954 1.7147e-08
  0.761735  1.678e-08
  0.794735 1.6433e-08
  0.828999 1.61188e-08
  0.864578 1.58484e-08
  0.901521 1.56313e-08
   0.93988 1.54792e-08
   0.97971   1.54e-08
