0.00189574 0.000971993
0.00575991 0.00294129
0.00977224 0.00497382
 0.0139384 0.00705201
 0.0182644 0.00913949
 0.0227562  0.0111856
 0.0274202   0.013134
 0.0322631  0.0149316
 0.0372917  0.0165366
  0.042513  0.0179213
 0.0479346  0.0190735
 0.0535641   0.019994
 0.0594095  0.0206937
 0.0654789  0.0211908
 0.0717811  0.0215069
  0.078325  0.0216654
 0.0851197  0.0216895
  0.092175  0.0216008
 0.0995009   0.021419
  0.107108  0.0211613
  0.115006  0.0208428
  0.123207  0.0204775
  0.131723  0.0200776
  0.140565  0.0196543
  0.149747  0.0192168
   0.15928   0.018773
  0.169179  0.0183285
  0.179457  0.0178868
   0.19013  0.0174489
  0.201212  0.0170149
  0.212718  0.0165858
  0.224666  0.0161649
  0.237072  0.0157545
  0.249954  0.0153534
   0.26333  0.0149584
  0.277218  0.0145694
   0.29164  0.0141894
  0.306614  0.0138212
  0.322162  0.0134661
  0.338306  0.0131242
   0.35507  0.0127956
  0.372476  0.0124802
   0.39055  0.0121756
  0.409316  0.0118816
  0.428803  0.0115988
  0.449036  0.0113257
  0.470045  0.0110601
   0.49186  0.0108012
  0.514512  0.0105467
  0.538031  0.0102949
  0.562453  0.0100442
  0.587811 0.00978976
  0.614142 0.00951952
  0.641482 0.00922862
   0.66987  0.0089213
  0.699347 0.00860402
  0.729954 0.00827897
  0.761735 0.00794686
  0.794735 0.00762325
  0.828999  0.0073293
  0.864578 0.00708126
  0.901521   0.006889
   0.93988   0.006757
   0.97971 0.00668781
