0.00189574  0.0028373
0.00575991 0.00859751
0.00977224   0.014545
 0.0139384  0.0206645
 0.0182644  0.0269263
 0.0227562  0.0332848
 0.0274202  0.0396811
 0.0322631  0.0460468
 0.0372917  0.0523107
  0.042513  0.0584044
 0.0479346   0.064268
 0.0535641  0.0698535
 0.0594095  0.0751265
 0.0654789  0.0800664
 0.0717811   0.084665
  0.078325  0.0889247
 0.0851197  0.0928559
  0.092175  0.0964749
 0.0995009  0.0998017
  0.107108   0.102858
  0.115006   0.105667
  0.123207    0.10825
  0.131723   0.110629
  0.140565   0.112824
  0.149747   0.114854
   0.15928   0.116735
  0.169179   0.118483
  0.179457   0.120111
   0.19013   0.121634
  0.201212   0.123069
  0.212718   0.124429
  0.224666   0.125728
  0.237072   0.126976
  0.249954   0.128182
   0.26333   0.129356
  0.277218   0.130503
   0.29164   0.131627
  0.306614   0.132733
  0.322162   0.133822
  0.338306   0.134898
   0.35507   0.135961
  0.372476   0.137012
   0.39055    0.13805
  0.409316   0.139078
  0.428803   0.140095
  0.449036   0.141103
  0.470045   0.142104
   0.49186   0.143096
  0.514512   0.144079
  0.538031   0.145053
  0.562453   0.146019
  0.587811   0.146976
  0.614142   0.147926
  0.641482    0.14887
   0.66987   0.149797
  0.699347   0.150697
  0.729954   0.151562
  0.761735   0.152388
  0.794735   0.153158
  0.828999   0.153842
  0.864578   0.154414
  0.901521   0.154858
   0.93988   0.155164
   0.97971   0.155322
