0.00189574 -1.06348e-09
0.00575991 -4.83053e-08
0.00977224 -2.49808e-07
 0.0139384 -7.41179e-07
 0.0182644 -1.65385e-06
 0.0227562 -3.09055e-06
 0.0274202 -5.10277e-06
 0.0322631 -7.6783e-06
 0.0372917 -1.07439e-05
  0.042513 -1.41804e-05
 0.0479346 -1.78438e-05
 0.0535641 -2.15865e-05
 0.0594095 -2.52735e-05
 0.0654789 -2.87937e-05
 0.0717811 -3.20648e-05
  0.078325 -3.50336e-05
 0.0851197 -3.76721e-05
  0.092175 -3.99732e-05
 0.0995009 -4.19446e-05
  0.107108 -4.3604e-05
  0.115006 -4.49756e-05
  0.123207 -4.60868e-05
  0.131723 -4.69654e-05
  0.140565 -4.76383e-05
  0.149747 -4.81302e-05
   0.15928 -4.84623e-05
  0.169179 -4.86504e-05
  0.179457 -4.8704e-05
   0.19013 -4.86288e-05
  0.201212 -4.84317e-05
  0.212718 -4.81244e-05
  0.224666 -4.77216e-05
  0.237072 -4.7233e-05
  0.249954 -4.66625e-05
   0.26333 -4.60171e-05
  0.277218 -4.5307e-05
   0.29164 -4.45373e-05
  0.306614 -4.3709e-05
  0.322162 -4.28224e-05
  0.338306 -4.18809e-05
   0.35507 -4.08901e-05
  0.372476 -3.98459e-05
   0.39055 -3.87451e-05
  0.409316 -3.75891e-05
  0.428803 -3.6376e-05
  0.449036 -3.51037e-05
  0.470045 -3.37733e-05
   0.49186 -3.23906e-05
  0.514512 -3.09554e-05
  0.538031 -2.94613e-05
  0.562453 -2.7906e-05
  0.587811 -2.62859e-05
  0.614142 -2.45944e-05
  0.641482 -2.28466e-05
   0.66987 -2.10448e-05
  0.699347 -1.91829e-05
  0.729954 -1.72385e-05
  0.761735 -1.52195e-05
  0.794735 -1.31466e-05
  0.828999 -1.09972e-05
  0.864578 -8.75928e-06
  0.901521 -6.4048e-06
   0.93988 -3.92705e-06
   0.97971 -1.33085e-06
