0.00189574 6.42127e-06
0.00575991 6.23083e-05
0.00977224 0.000162615
 0.0139384 0.000302691
 0.0182644 0.000474627
 0.0227562 0.000672247
 0.0274202 0.000890751
 0.0322631 0.00112616
 0.0372917 0.00137513
  0.042513 0.00163486
 0.0479346   0.001903
 0.0535641 0.00217745
 0.0594095 0.00245628
 0.0654789 0.00273762
 0.0717811 0.00301963
  0.078325 0.00330046
 0.0851197 0.00357831
  0.092175 0.00385143
 0.0995009 0.00411815
  0.107108 0.00437692
  0.115006 0.00462631
  0.123207 0.00486505
  0.131723 0.00509205
  0.140565 0.00530648
  0.149747 0.00550769
   0.15928 0.00569528
  0.169179 0.00586901
  0.179457 0.00602876
   0.19013 0.00617442
  0.201212 0.00630585
  0.212718 0.00642283
  0.224666 0.00652509
  0.237072 0.00661246
  0.249954 0.00668507
   0.26333 0.00674322
  0.277218 0.00678734
   0.29164 0.00681811
  0.306614 0.00683661
  0.322162 0.00684349
  0.338306 0.00683877
   0.35507 0.00682244
  0.372476 0.00679494
   0.39055 0.00675704
  0.409316  0.0067091
  0.428803 0.00665155
  0.449036 0.00658513
  0.470045  0.0065113
   0.49186 0.00643133
  0.514512 0.00634627
  0.538031 0.00625647
  0.562453 0.00616139
  0.587811 0.00606002
  0.614142 0.00595334
  0.641482 0.00584389
   0.66987 0.00573471
  0.699347  0.0056296
  0.729954 0.00553144
  0.761735 0.00544276
  0.794735 0.00536343
  0.828999 0.00529441
  0.864578 0.00523526
  0.901521 0.00518659
   0.93988  0.0051501
   0.97971 0.00512952
