0.00189574 0.000522263
0.00575991 0.00143042
0.00977224 0.00223502
 0.0139384 0.00294614
 0.0182644  0.0035735
 0.0227562 0.00412724
 0.0274202 0.00461805
 0.0322631 0.00505647
 0.0372917 0.00545212
  0.042513 0.00581293
 0.0479346 0.00614493
 0.0535641 0.00645221
 0.0594095 0.00673728
 0.0654789 0.00700139
 0.0717811 0.00724493
  0.078325 0.00746778
 0.0851197 0.00766964
  0.092175 0.00785047
 0.0995009 0.00801075
  0.107108 0.00815157
  0.115006 0.00827447
  0.123207 0.00838105
  0.131723 0.00847266
  0.140565 0.00855013
  0.149747 0.00861381
   0.15928 0.00866406
  0.169179 0.00870217
  0.179457 0.00873022
   0.19013 0.00874968
  0.201212 0.00876033
  0.212718 0.00876132
  0.224666 0.00875321
  0.237072  0.0087382
  0.249954 0.00871798
   0.26333 0.00869202
  0.277218 0.00865897
   0.29164 0.00861759
  0.306614 0.00856773
  0.322162 0.00851087
  0.338306 0.00844691
   0.35507 0.00837366
  0.372476 0.00828921
   0.39055 0.00819379
  0.409316 0.00809072
  0.428803 0.00798396
  0.449036 0.00787161
  0.470045 0.00774746
   0.49186 0.00760895
  0.514512 0.00745666
  0.538031 0.00729238
  0.562453 0.00711641
  0.587811  0.0069287
  0.614142 0.00673392
  0.641482 0.00654237
   0.66987 0.00635732
  0.699347 0.00617931
  0.729954  0.0060114
  0.761735 0.00584442
  0.794735 0.00567589
  0.828999 0.00551455
  0.864578  0.0053705
  0.901521 0.00524341
   0.93988  0.0051338
   0.97971 0.00506453
