/*--------------------------------*- C++ -*----------------------------------*\
  =========                 |
  \\      /  F ield         | OpenFOAM: The Open Source CFD Toolbox
   \\    /   O peration     | Website:  https://openfoam.org
    \\  /    A nd           | Version:  7
     \\/     M anipulation  |
\*---------------------------------------------------------------------------*/
FoamFile
{
    version     2.0;
    format      ascii;
    class       volScalarField;
    location    "70";
    object      k;
}
// * * * * * * * * * * * * * * * * * * * * * * * * * * * * * * * * * * * * * //

dimensions      [0 2 -2 0 0 0 0];

internalField   nonuniform List<scalar> 
12842
(
0.00570038
0.00511599
0.00475552
0.00449797
0.00433177
0.004197
0.00411499
0.00403724
0.00399839
0.00395796
0.00394211
0.00392515
0.00392777
0.00394001
0.00396157
0.00397821
0.00399957
0.00401666
0.0040398
0.00405846
0.00407364
0.00408419
0.00408929
0.00568536
0.00508324
0.00472223
0.00448461
0.00432697
0.00419589
0.00411483
0.00403722
0.00399778
0.00395786
0.0039422
0.00392554
0.003929
0.00394284
0.00396567
0.0039826
0.00400404
0.00401936
0.00404167
0.00405823
0.00407336
0.00408351
0.00408915
0.0056541
0.00503831
0.0046704
0.00443347
0.00428744
0.00416832
0.00409385
0.00402275
0.00398688
0.00395099
0.00393811
0.00392487
0.00392955
0.0039456
0.00397054
0.00398809
0.00400899
0.00402551
0.00404863
0.00406335
0.0040757
0.00408446
0.00408897
0.00561584
0.00500238
0.00463
0.00439557
0.00426032
0.00415309
0.00408299
0.00401561
0.00398184
0.00394774
0.00393599
0.00392454
0.00393083
0.00394971
0.00397575
0.00399338
0.00401485
0.00402954
0.00405264
0.00406637
0.00407844
0.0040873
0.00409053
0.00557218
0.00493198
0.00457813
0.00436214
0.00422712
0.00412147
0.0040564
0.00399718
0.00396882
0.00393943
0.00393058
0.00392362
0.00393124
0.00395289
0.00398269
0.00399875
0.00402028
0.00403804
0.00405774
0.00407217
0.00408265
0.00409112
0.00409397
0.00553262
0.00490084
0.00452965
0.0043145
0.00419108
0.00410159
0.00404298
0.00398855
0.00396288
0.00393565
0.00392801
0.00392306
0.0039323
0.00395746
0.00398688
0.00400346
0.00402489
0.00404123
0.00406368
0.00407596
0.00408597
0.00409346
0.00409595
0.00548272
0.00483032
0.00448967
0.00429022
0.00416772
0.0040762
0.00402
0.00397134
0.00395057
0.00392775
0.00392271
0.00392205
0.00393277
0.00396099
0.00399283
0.0040099
0.00403041
0.00404829
0.00406915
0.00408174
0.0040902
0.00409789
0.00409947
0.00544943
0.00480178
0.0044433
0.00425073
0.0041356
0.00405679
0.00400439
0.0039621
0.00394454
0.00392388
0.00391985
0.00392102
0.00393271
0.00396391
0.00399622
0.00401418
0.00403584
0.0040517
0.0040743
0.004088
0.00409449
0.00410138
0.00410366
0.00539203
0.00474456
0.00441538
0.0042297
0.00411756
0.00403779
0.00398742
0.00394796
0.00393389
0.00391699
0.00391513
0.00391937
0.00393337
0.00396694
0.00399972
0.00401822
0.00403964
0.00405723
0.00407618
0.00409129
0.00409841
0.00410471
0.00410698
0.0053688
0.00470827
0.00437311
0.00420323
0.00409408
0.00402201
0.00397264
0.0039386
0.00392682
0.00391236
0.00391251
0.00391789
0.00393358
0.00396924
0.00400169
0.00402034
0.00404212
0.00405938
0.00407957
0.00409432
0.00410093
0.00410711
0.00410934
0.00530121
0.0046558
0.00434729
0.00418071
0.00407736
0.00400785
0.00396104
0.00392899
0.00391756
0.00390584
0.00390779
0.00391546
0.00393419
0.00397301
0.00400427
0.0040235
0.0040442
0.00406397
0.00408211
0.00409712
0.00410385
0.00410944
0.00411164
0.00527661
0.00461893
0.00431075
0.00416172
0.00405867
0.00399371
0.00394804
0.00392036
0.00391033
0.00390056
0.003904
0.00391311
0.00393541
0.00397522
0.00400647
0.0040259
0.00404637
0.00406645
0.00408661
0.00410101
0.00410781
0.00411308
0.00411483
0.0052122
0.0045759
0.00428734
0.00413806
0.00404248
0.00398286
0.00393969
0.00391404
0.00390285
0.00389519
0.00389957
0.00391037
0.00393562
0.00397899
0.00400895
0.00402869
0.00404863
0.00407063
0.00409082
0.00410561
0.00411238
0.00411776
0.0041196
0.00518853
0.00454148
0.00425603
0.00412244
0.00402716
0.00397143
0.00393037
0.003907
0.00389662
0.00389045
0.00389584
0.00390777
0.00393545
0.00398195
0.00401185
0.00403152
0.00405154
0.00407435
0.00409576
0.00411026
0.00411725
0.00412377
0.00412592
0.00512919
0.00450734
0.00423574
0.00409929
0.00401266
0.00396321
0.00392431
0.00390302
0.00389124
0.00388689
0.00389238
0.00390513
0.00393717
0.00398609
0.00401456
0.00403404
0.00405473
0.00407846
0.00410146
0.00411602
0.00412334
0.00413083
0.0041344
0.00510817
0.00447651
0.00420905
0.00408443
0.00399899
0.0039542
0.00391875
0.00389798
0.00388674
0.00388339
0.00388923
0.00390276
0.00393747
0.00399132
0.00401828
0.00403728
0.00405868
0.00408367
0.00410721
0.00412263
0.00413103
0.0041398
0.00414384
0.00505483
0.00444931
0.00419186
0.00406383
0.00398715
0.00394656
0.00391374
0.0038949
0.00388291
0.00388115
0.0038866
0.00390062
0.00393679
0.00399836
0.00402168
0.00404028
0.00406282
0.00408875
0.00411306
0.00413059
0.00413984
0.00415078
0.00415511
0.00503749
0.00442278
0.00416903
0.00404948
0.00397441
0.00393887
0.00391011
0.00389175
0.00388027
0.00387876
0.00388405
0.00389888
0.00393737
0.00400326
0.00402582
0.00404404
0.00406808
0.00409522
0.0041209
0.00414001
0.00415035
0.00416252
0.0041658
0.00499016
0.00440044
0.00415425
0.0040329
0.00396532
0.00393024
0.00390499
0.00388841
0.0038772
0.00387667
0.00388198
0.00389759
0.00393962
0.00401142
0.00403
0.00404784
0.00407356
0.00410213
0.00413083
0.00415191
0.00416171
0.00417433
0.00417509
0.00497712
0.00437798
0.00413516
0.00402007
0.00395393
0.00392308
0.0039011
0.00388618
0.00387565
0.00387436
0.00387985
0.00389675
0.00394359
0.00401957
0.00403508
0.00405274
0.00408088
0.00411306
0.00414418
0.00416531
0.00417437
0.00418361
0.00418192
0.0049344
0.00435904
0.00412202
0.00400726
0.00394661
0.00391373
0.00389547
0.00388166
0.00387256
0.00387167
0.00387798
0.00389628
0.00394453
0.00402526
0.00404019
0.00405871
0.00408924
0.00412451
0.00415863
0.00417934
0.00418472
0.00418986
0.00418833
0.00492708
0.00433963
0.00410707
0.00399659
0.00393729
0.00390598
0.00388996
0.00387878
0.00387057
0.00386877
0.0038764
0.00389617
0.00394346
0.00403242
0.00404655
0.00406673
0.00409966
0.00413933
0.00417448
0.00419121
0.00419383
0.004195
0.00419723
0.00488335
0.00432304
0.00409526
0.00398609
0.00393022
0.00389735
0.00388378
0.00387321
0.00386708
0.00386573
0.00387473
0.0038959
0.00394438
0.00404525
0.00405328
0.00407642
0.00411027
0.0041536
0.00418831
0.00420021
0.00420053
0.00420336
0.00421555
0.00487645
0.00430921
0.00408753
0.00397994
0.00392531
0.00388982
0.00387788
0.0038695
0.00386459
0.00386307
0.00387395
0.00389658
0.00394611
0.00404699
0.00406067
0.00408762
0.00412043
0.00416704
0.00419908
0.00420725
0.00421139
0.00421859
0.00425165
0.00486177
0.00429848
0.00408178
0.00397517
0.00392117
0.00388507
0.003873
0.00386613
0.00386245
0.00386155
0.00387323
0.00389671
0.00394948
0.00404325
0.00406838
0.004098
0.00412735
0.00417644
0.00420659
0.0042174
0.00422879
0.00426231
0.00432942
0.00484956
0.00428896
0.00407755
0.00397111
0.00391683
0.00388103
0.00386898
0.00386366
0.00386063
0.00385987
0.00387195
0.00389556
0.00395188
0.00404339
0.00407561
0.0041059
0.00413124
0.00418255
0.00421547
0.00423534
0.0042705
0.00433409
0.00443742
0.00483392
0.00427967
0.00407093
0.00396613
0.00391116
0.00387744
0.00386501
0.00386119
0.00385855
0.00385845
0.00386986
0.00389132
0.00395619
0.00404841
0.00408091
0.00411096
0.00413399
0.00419012
0.00423109
0.0042803
0.00434129
0.00445227
0.00459945
0.00482221
0.00427092
0.00406624
0.00396128
0.0039056
0.00387401
0.0038625
0.00385916
0.00385667
0.00385654
0.00386695
0.00389138
0.00395927
0.00405463
0.00408543
0.004114
0.00413987
0.00420301
0.00426852
0.0043536
0.00445385
0.00461007
0.00479386
0.00480725
0.00426313
0.00405821
0.00395606
0.00389928
0.0038711
0.00386028
0.00385681
0.00385417
0.00385445
0.00386329
0.00389078
0.00396345
0.00405992
0.00408925
0.00411719
0.00415141
0.00423682
0.00433144
0.00446162
0.00459846
0.00480554
0.00502491
0.00479617
0.00425476
0.00405269
0.00395056
0.00389419
0.00386859
0.00385892
0.00385421
0.00385141
0.00385161
0.00385925
0.00389069
0.00396794
0.00406322
0.00409315
0.00412485
0.00417754
0.00429017
0.00442502
0.00460074
0.00477925
0.00502929
0.00527104
0.00478227
0.00424784
0.00404437
0.00394533
0.00388933
0.00386601
0.00385752
0.0038505
0.00384772
0.00384841
0.00385518
0.00389052
0.00397174
0.00406608
0.00409944
0.00414165
0.0042315
0.00437605
0.00454928
0.00477054
0.00498598
0.00527398
0.0055331
0.00477188
0.00423965
0.00403851
0.00393993
0.00388636
0.0038629
0.00385593
0.00384598
0.00384374
0.00384479
0.00385147
0.00389048
0.00397568
0.00406917
0.00410728
0.00418172
0.0043062
0.00448457
0.0047011
0.00496424
0.00521384
0.0055286
0.0057919
0.0047594
0.00423328
0.00403175
0.00393509
0.00388375
0.00385915
0.00385315
0.00384032
0.00383897
0.00384082
0.00384847
0.00389025
0.00397954
0.00407648
0.0041345
0.00424718
0.00441148
0.00462475
0.00487747
0.00517554
0.00545329
0.00578471
0.00604538
0.00474963
0.00422558
0.00402681
0.00393067
0.00388223
0.00385504
0.00384899
0.00383418
0.00383422
0.00383739
0.00384645
0.00388912
0.00398371
0.00409578
0.00418891
0.00433897
0.00453786
0.00478362
0.00507114
0.00539717
0.00569513
0.0060316
0.00628124
0.00473881
0.00422036
0.00402196
0.00392588
0.00388039
0.00385071
0.00384418
0.00382761
0.00382925
0.00383396
0.00384521
0.00389021
0.00398873
0.00413197
0.00426695
0.00445501
0.00468901
0.00496406
0.00527666
0.00562151
0.00593282
0.00626563
0.00649921
0.00472943
0.00421426
0.00401831
0.00392207
0.00387828
0.00384625
0.00383802
0.00382104
0.00382487
0.00383128
0.00384524
0.00389251
0.00400585
0.00419649
0.00437304
0.00459507
0.0048554
0.00515461
0.00548666
0.00584205
0.00615818
0.00647807
0.0066915
0.00472021
0.00421116
0.00401359
0.00391622
0.00387399
0.00384524
0.00383205
0.00381544
0.0038212
0.00383061
0.00384813
0.003906
0.00404242
0.00427517
0.00449916
0.00475106
0.00503573
0.00535267
0.00569533
0.00605345
0.00636737
0.00667006
0.00686263
0.00471143
0.00420737
0.00400921
0.0039117
0.00386848
0.00384562
0.00382591
0.00381041
0.00381841
0.00383327
0.00386712
0.00394613
0.00411247
0.00438164
0.00464752
0.00492325
0.00522188
0.00555142
0.00589687
0.00625027
0.00655662
0.00683764
0.00700813
0.00470341
0.00420519
0.0040009
0.00390367
0.00386112
0.00384309
0.00382073
0.00380663
0.00381839
0.00384733
0.0039033
0.00400292
0.0041958
0.00449868
0.00480819
0.00510044
0.0054107
0.00574394
0.00608709
0.00643177
0.00672471
0.00698326
0.00713349
0.00469627
0.00420218
0.00399261
0.0038973
0.00385337
0.00383854
0.00381576
0.00380587
0.00382553
0.0038822
0.00396339
0.00408526
0.00430843
0.00463718
0.00498012
0.00528372
0.00559484
0.00593
0.00626316
0.00659263
0.00687134
0.00710774
0.00723918
0.00468949
0.00419827
0.00397832
0.00388701
0.00384506
0.00383396
0.00381409
0.00380848
0.00384778
0.00393484
0.0040386
0.00418031
0.00442589
0.00477901
0.00515645
0.00546184
0.0057733
0.00609992
0.00642172
0.00673763
0.00699745
0.00721335
0.00732787
0.00468457
0.00419199
0.00396597
0.00387953
0.00383735
0.00382875
0.00381489
0.00382549
0.00389206
0.00400865
0.00413503
0.00429449
0.0045647
0.00493292
0.00533128
0.00563702
0.00593859
0.00625888
0.00656459
0.00686019
0.00710606
0.00730292
0.00740325
0.00467972
0.00418205
0.00394947
0.00386865
0.00383098
0.00382702
0.0038254
0.0038594
0.00395432
0.00409707
0.00424126
0.00441471
0.00469809
0.00508236
0.00550496
0.00579902
0.00609256
0.00639793
0.00668788
0.0069705
0.00719587
0.00737808
0.00746622
0.00467664
0.0041702
0.00393481
0.00386312
0.00382523
0.00382808
0.00385331
0.00391445
0.00403668
0.00420226
0.00436211
0.00454527
0.00484502
0.00523496
0.00566626
0.00595271
0.00623051
0.00652339
0.00679679
0.0070589
0.00727541
0.00744166
0.00751985
0.00467395
0.00415258
0.00392095
0.00385674
0.00382333
0.0038394
0.00389927
0.00398544
0.00413381
0.00431558
0.00448579
0.00467537
0.00497782
0.00537681
0.00582293
0.00608779
0.00635223
0.00663005
0.00688796
0.00714023
0.00733775
0.00749645
0.00756663
0.00467221
0.00413721
0.00391065
0.00385155
0.00382543
0.00387007
0.00396308
0.00407407
0.00424349
0.00443881
0.00461627
0.00480756
0.00511823
0.00551586
0.00596211
0.00621302
0.00646079
0.00672317
0.00696747
0.00720304
0.00739652
0.00754132
0.00760385
0.00467105
0.00411702
0.0039009
0.00385097
0.0038391
0.00391842
0.0040429
0.00417434
0.0043614
0.00456271
0.00474304
0.00493416
0.00523879
0.00563913
0.00609202
0.00631771
0.00655018
0.00680015
0.00703192
0.00726037
0.00744046
0.00758313
0.00764144
0.00466811
0.0041016
0.00389623
0.003857
0.00387243
0.00398514
0.00413495
0.00428401
0.00448171
0.00468778
0.0048691
0.00505633
0.00536289
0.00575871
0.00620577
0.00641266
0.00663089
0.00686609
0.00708938
0.00730928
0.00748589
0.00761744
0.00766762
0.0046652
0.0040854
0.00389359
0.00387313
0.00392147
0.00406682
0.00423993
0.00440217
0.00460748
0.00481098
0.00499051
0.005173
0.00546777
0.00586053
0.00630586
0.00649096
0.00669347
0.00691967
0.00713316
0.00734614
0.00751822
0.00764655
0.00769647
0.00466075
0.00407749
0.00389733
0.00390962
0.0039945
0.00416633
0.00435572
0.00452693
0.00473327
0.00493331
0.00511018
0.00528519
0.005575
0.00596217
0.00639186
0.00655566
0.00674729
0.00695865
0.00716885
0.00738178
0.00754793
0.00766791
0.00771518
0.00465389
0.00407091
0.00390976
0.00396035
0.00408101
0.00427395
0.00447557
0.00465074
0.00485649
0.00504778
0.00521884
0.00538613
0.0056609
0.00603929
0.00645757
0.00660553
0.0067808
0.0069871
0.00718994
0.00739761
0.00756505
0.00767717
0.00771738
0.00464443
0.00407004
0.00394269
0.00403005
0.00418114
0.00438588
0.00459343
0.0047683
0.00496947
0.00515263
0.00531629
0.00547609
0.0057411
0.00611175
0.00650738
0.00663815
0.00680424
0.00699913
0.00720513
0.00741388
0.00757676
0.00768389
0.00774449
0.00463356
0.00406776
0.00398601
0.00410852
0.00428552
0.00449659
0.00470656
0.00487898
0.00507606
0.0052494
0.00540217
0.00555485
0.00580509
0.00616373
0.00654443
0.00666163
0.00681449
0.00701198
0.00721315
0.00742022
0.00758536
0.00768984
0.00774465
0.00462298
0.00407257
0.00404435
0.00419954
0.00439416
0.00460511
0.00481466
0.00498162
0.00517099
0.00533546
0.00547695
0.00562389
0.00586341
0.0062119
0.00656981
0.00667739
0.00682329
0.0070158
0.00721689
0.00742836
0.00759175
0.00770712
0.00774564
0.00461493
0.0040875
0.0041097
0.00429326
0.00450121
0.00470808
0.00491524
0.00507582
0.00525712
0.00541186
0.00554128
0.00568259
0.00590944
0.0062446
0.00658509
0.00668427
0.0068273
0.00702483
0.00721755
0.00743183
0.00759214
0.00770653
0.00774311
0.00461039
0.00412297
0.00418651
0.00439456
0.00460839
0.00480836
0.00501226
0.005164
0.00533274
0.00547769
0.00559728
0.00573396
0.00595126
0.00627538
0.00659889
0.0066925
0.00683315
0.00702358
0.00722558
0.00744389
0.00760523
0.00770176
0.00774415
0.00460814
0.00417284
0.00426557
0.00448997
0.00470524
0.00489606
0.00509483
0.00523711
0.00539307
0.00552788
0.00564026
0.00577256
0.00598074
0.00629297
0.00660524
0.00669569
0.00683315
0.00701571
0.00722051
0.00744053
0.00760185
0.00768792
0.0077337
0.00460794
0.00423394
0.00434712
0.00458371
0.00479564
0.0049783
0.00517113
0.00530343
0.00544526
0.00557055
0.0056781
0.00580613
0.006006
0.00630732
0.00660817
0.00669678
0.00683148
0.00700835
0.007216
0.00743735
0.00759787
0.00767369
0.00772139
0.00461257
0.00430473
0.0044324
0.00467603
0.00488327
0.00505611
0.00524132
0.005363
0.00549129
0.00560635
0.00571076
0.00583535
0.00602804
0.00631859
0.00660935
0.00669619
0.00682856
0.00699907
0.00721113
0.00743428
0.00759202
0.00766469
0.00771107
0.00462716
0.00438465
0.00452023
0.00476706
0.00496515
0.00512991
0.00530496
0.00541594
0.00553083
0.00563642
0.00573972
0.00586051
0.00604642
0.00632686
0.00661038
0.00669082
0.00682019
0.00698841
0.00720406
0.00743091
0.00758377
0.00765661
0.00770703
0.00465112
0.00446942
0.00460916
0.00485408
0.00504317
0.00519812
0.00536188
0.00546173
0.00556544
0.00566164
0.00576444
0.00588284
0.00606259
0.00633366
0.00661101
0.00669041
0.00681186
0.00697583
0.00719362
0.00742629
0.00757484
0.00765654
0.0077066
0.00468279
0.00455769
0.00469724
0.00493756
0.00511463
0.00526208
0.00541156
0.00550115
0.00559508
0.00568268
0.00578657
0.00590194
0.00607622
0.00633774
0.0066105
0.00668929
0.00680181
0.00696397
0.00718138
0.00741761
0.00756738
0.00765556
0.00770576
0.00472164
0.00464612
0.00478397
0.00501477
0.00518113
0.00531944
0.00545494
0.00553407
0.00562092
0.00570087
0.00580527
0.00591905
0.00608802
0.00634281
0.00661078
0.00668611
0.00679494
0.00695331
0.00716874
0.00740956
0.0075626
0.00765467
0.00770682
0.00476337
0.00473257
0.00486648
0.00508694
0.00524117
0.00537236
0.00549183
0.00556192
0.00564333
0.00571602
0.00582218
0.00593431
0.00609896
0.00634604
0.00660957
0.00668564
0.00679462
0.00694659
0.0071578
0.00740151
0.00755994
0.00765632
0.0077339
0.00480994
0.00481648
0.00494575
0.00515157
0.00529521
0.00541839
0.00552351
0.00558493
0.00566285
0.00572978
0.00583634
0.00594728
0.0061084
0.00635269
0.00661034
0.00668605
0.00679374
0.00694359
0.00714951
0.0073945
0.0075588
0.00770103
0.00817306
0.00485507
0.00489445
0.00501896
0.00521107
0.00534388
0.00546004
0.00555068
0.00560463
0.00568024
0.0057414
0.00584943
0.00595973
0.00611806
0.00635887
0.00661053
0.00668423
0.0067906
0.00694296
0.00714463
0.00738894
0.00756356
0.00793605
0.00896934
0.00490339
0.0049692
0.00508763
0.00526303
0.00538602
0.00549562
0.00557366
0.00562156
0.00569563
0.00575252
0.00586022
0.00597019
0.00612685
0.00636947
0.00661063
0.00668444
0.0067914
0.00694309
0.00714259
0.00738806
0.00767608
0.00823042
0.00959148
0.00494818
0.00503615
0.00515012
0.00531083
0.00542431
0.00552701
0.00559421
0.00563672
0.00570956
0.00576215
0.0058706
0.00597934
0.00613637
0.00638064
0.00661051
0.00668532
0.00679113
0.00694732
0.00714959
0.00741825
0.00786001
0.00874588
0.0101327
0.00499476
0.00510006
0.00520747
0.00535227
0.00545675
0.00555437
0.00561178
0.00565074
0.00572247
0.00577204
0.00587917
0.00598906
0.00614453
0.00639604
0.00661239
0.00668737
0.00679849
0.0069695
0.00717597
0.00749754
0.0080737
0.00886901
0.0106235
0.00503783
0.00515603
0.00525952
0.00539047
0.00548632
0.0055776
0.00562773
0.00566431
0.00573405
0.00578047
0.0058871
0.0059963
0.00615518
0.00641144
0.00662008
0.00669969
0.00682057
0.00700481
0.00723986
0.00761011
0.00824004
0.0089723
0.0109965
0.0050817
0.00520924
0.0053059
0.00542425
0.00551223
0.00559918
0.00564262
0.00567697
0.00574502
0.00579013
0.00589523
0.00600528
0.00616446
0.00643134
0.0066324
0.00671912
0.00685389
0.00705572
0.00731867
0.00772399
0.00832745
0.00906796
0.0109273
0.00512255
0.00525503
0.00534926
0.00545521
0.00553526
0.00561726
0.00565556
0.00569072
0.00575544
0.00579795
0.00590047
0.00601353
0.00617603
0.00645047
0.00664978
0.00674607
0.00689874
0.00711681
0.00739796
0.00781179
0.00837051
0.00927351
0.010924
0.00516369
0.00529863
0.00538519
0.00548317
0.0055575
0.00563448
0.00566899
0.00570256
0.00576411
0.00580707
0.00590911
0.00601443
0.0061882
0.00647495
0.0066685
0.00677582
0.00694828
0.00718277
0.00747494
0.007882
0.0083802
0.0092197
0.011206
0.00520276
0.00533544
0.00542189
0.00550971
0.00557658
0.00565045
0.005681
0.00571636
0.0057743
0.00581559
0.00591486
0.00601588
0.00619739
0.00649863
0.00669124
0.00681194
0.00700356
0.00725228
0.00753879
0.0078886
0.00838124
0.00922184
0.0109847
0.00524029
0.00537085
0.00544985
0.00553242
0.00559647
0.00566445
0.0056932
0.00572844
0.00578104
0.00582299
0.0059171
0.00601736
0.00620252
0.00652738
0.00671415
0.00684789
0.00705676
0.00731015
0.00759468
0.00792352
0.00838239
0.00923931
0.0110946
0.00527819
0.00540064
0.00548006
0.00555675
0.00561466
0.00567939
0.00570554
0.00574088
0.00579073
0.00583238
0.00592117
0.00601789
0.00620653
0.00655438
0.00673922
0.00688702
0.00711213
0.00736161
0.00761591
0.00791228
0.00838963
0.00932027
0.0108201
0.0053119
0.00543001
0.00550444
0.00557584
0.0056319
0.00569256
0.00571695
0.00575363
0.00579697
0.00583911
0.00592064
0.00601882
0.0062044
0.00658075
0.00676574
0.00692579
0.00715617
0.00740022
0.00762408
0.00791411
0.00838384
0.00921764
0.0107952
0.00534438
0.00545372
0.00552663
0.00559699
0.00565034
0.00570455
0.00572926
0.00576396
0.00580512
0.0058463
0.00592117
0.00601882
0.00620418
0.00659543
0.00678962
0.00696016
0.00719465
0.00740697
0.00763388
0.00791353
0.00838056
0.00927879
0.0108018
0.00537652
0.00547891
0.00555022
0.00561432
0.00566465
0.00571846
0.00573922
0.00577619
0.00581248
0.00585639
0.00592382
0.00601883
0.00620697
0.00660462
0.00681396
0.00699354
0.00721892
0.00741884
0.00762846
0.00791636
0.0084179
0.00935366
0.010813
0.00540057
0.0054976
0.00556707
0.00563122
0.0056816
0.00572769
0.00575308
0.00578533
0.00581778
0.00585779
0.00592251
0.00601866
0.00620463
0.00660328
0.00682769
0.00701237
0.00722161
0.00742661
0.00762559
0.00791672
0.00837258
0.00924978
0.0105763
0.00542892
0.00551964
0.00559046
0.0056472
0.00569472
0.00573991
0.00576157
0.00579819
0.00582893
0.00586007
0.00592229
0.00601893
0.0062046
0.00660325
0.00683644
0.00702265
0.00722412
0.00742114
0.00762648
0.00790988
0.00836578
0.00928396
0.0105253
0.00546453
0.00553827
0.00561259
0.00566424
0.00571196
0.00575692
0.00577997
0.00580946
0.00583539
0.00586549
0.00592217
0.00601878
0.00620465
0.00660586
0.00683574
0.00702624
0.0072267
0.00742064
0.00762248
0.00790344
0.0083812
0.00913988
0.0101633
0.005469
0.00556619
0.00563278
0.00568388
0.0057289
0.00575864
0.00578316
0.00582127
0.0058341
0.0058675
0.00592452
0.0060192
0.00620595
0.00661176
0.00683913
0.00702705
0.00723055
0.00742164
0.00761936
0.00790121
0.00830949
0.00890389
0.00970014
0.00547523
0.00557724
0.0056337
0.00570078
0.00574046
0.00576169
0.00578701
0.00582052
0.00583456
0.00587185
0.00592167
0.0060192
0.00620144
0.00660735
0.00683574
0.00702906
0.00723106
0.00741693
0.00761688
0.00785591
0.00818816
0.0086355
0.00922905
0.00548914
0.0055878
0.00563677
0.00569962
0.00575172
0.00576928
0.00579467
0.0058256
0.00583676
0.00587027
0.00592146
0.00601732
0.00620058
0.00660939
0.00683526
0.00702467
0.00721933
0.00739112
0.00758371
0.00777989
0.00804322
0.00836904
0.00879737
0.00549771
0.00558467
0.00564527
0.00570124
0.00575061
0.00577274
0.00580119
0.00582426
0.00583964
0.00587272
0.0059232
0.00601776
0.0062018
0.00660248
0.00683455
0.00702483
0.00719583
0.00735406
0.00753167
0.00769029
0.00789154
0.00812089
0.00842272
0.00550585
0.00558494
0.00565062
0.00570238
0.00575695
0.00577409
0.00580015
0.00582335
0.00583835
0.0058725
0.00592271
0.00601443
0.00620116
0.00660213
0.00683408
0.00701199
0.00715978
0.00730348
0.00746455
0.00759026
0.00774307
0.00790008
0.00810919
0.00551354
0.00558742
0.00565617
0.00570295
0.00575257
0.00577509
0.00580354
0.00582304
0.00583851
0.00587307
0.00592198
0.00601401
0.00619927
0.00660384
0.00683532
0.00699405
0.00712137
0.00725075
0.00739362
0.00749184
0.00760306
0.00770744
0.00785142
0.00550674
0.00559353
0.00565431
0.00570488
0.00575374
0.00577725
0.00580433
0.00582622
0.00583913
0.00586851
0.00592126
0.00601025
0.00619612
0.00660172
0.00682685
0.00696609
0.00707538
0.0071908
0.00731768
0.00739432
0.00747608
0.00754409
0.00764261
0.00550374
0.00559395
0.00565457
0.00570869
0.00575966
0.00578259
0.00580617
0.00582221
0.00583887
0.00586747
0.0059176
0.00600917
0.00619004
0.00659617
0.00681694
0.00694056
0.00703423
0.00713657
0.00724766
0.00730586
0.0073627
0.00740732
0.00747512
0.00551079
0.0055958
0.00566137
0.00571056
0.00575411
0.00577773
0.00580084
0.00582149
0.00583914
0.00586844
0.00591629
0.00600354
0.00618167
0.00657393
0.00679342
0.00690828
0.00698882
0.00707948
0.00717807
0.00722418
0.00726489
0.00729424
0.00734058
0.00550231
0.00558636
0.00565437
0.00570747
0.00575378
0.00577743
0.00580188
0.0058205
0.0058377
0.00586937
0.00591406
0.00600256
0.00617959
0.00655997
0.00677835
0.00688295
0.00695253
0.00703317
0.00711928
0.00715417
0.00718166
0.00720205
0.00723536
0.00550654
0.00558432
0.00565428
0.00571057
0.00575556
0.00577662
0.00580002
0.00582501
0.00583686
0.00586423
0.00591235
0.00600452
0.00618143
0.00652829
0.00674988
0.00685186
0.00691341
0.00698555
0.00706278
0.00709192
0.00711189
0.00712588
0.00714952
0.00549488
0.0055824
0.0056554
0.00570291
0.00574835
0.00577606
0.00580053
0.00582008
0.00584036
0.00586819
0.0059133
0.00600403
0.00617938
0.00651316
0.0067351
0.00683062
0.00688478
0.00695104
0.00701846
0.0070417
0.00705537
0.0070663
0.00708501
0.00549726
0.00558171
0.00565357
0.00570447
0.00574754
0.0057776
0.00579828
0.00581993
0.0058348
0.00586336
0.00591109
0.00599603
0.00617052
0.00647845
0.00670633
0.00680249
0.00685288
0.00691363
0.00697543
0.00699645
0.00700767
0.00701554
0.00702937
0.00549373
0.00557824
0.00565376
0.00570392
0.00574908
0.00576991
0.00579721
0.00582019
0.00583903
0.00586604
0.00590974
0.00599622
0.00617121
0.00646741
0.00669366
0.00678655
0.00683185
0.00689037
0.0069449
0.00696301
0.00697152
0.00697858
0.00699061
0.00549737
0.0055765
0.00564679
0.00570151
0.00573984
0.00576841
0.00579766
0.00581325
0.00583355
0.00586545
0.00590329
0.0059898
0.00615345
0.00643087
0.00666651
0.00676129
0.00680562
0.00686035
0.00691176
0.00693019
0.00693791
0.00694365
0.00695345
0.00548424
0.00557211
0.00564364
0.00569933
0.00574694
0.00577141
0.00579591
0.00581159
0.00583351
0.00586272
0.00589217
0.0059831
0.00613528
0.00639557
0.006637
0.00673941
0.00678164
0.00683478
0.00688383
0.00690433
0.00691329
0.00691831
0.00692649
0.00548221
0.00556879
0.00563474
0.00570166
0.00573646
0.00577074
0.00578975
0.00579982
0.00582899
0.00585676
0.00588789
0.00597495
0.00611476
0.00635723
0.00660609
0.00671469
0.00675944
0.0068093
0.00685732
0.00688017
0.00688954
0.00689572
0.00690274
0.00548884
0.00556866
0.00562704
0.00569944
0.0057399
0.00576456
0.00578346
0.00579628
0.00582193
0.00584539
0.00588794
0.00596591
0.00609395
0.00631702
0.0065714
0.00669003
0.00673546
0.00678505
0.00683182
0.00685781
0.00687014
0.00687593
0.00688138
0.00548682
0.00554809
0.00560555
0.00569087
0.0057367
0.00575297
0.00577067
0.00579771
0.00580627
0.00582847
0.00588157
0.0059536
0.00607021
0.00627361
0.00653073
0.00666094
0.00671147
0.00675767
0.00680466
0.00683311
0.00684824
0.00685776
0.00686272
0.00547814
0.00554395
0.00559872
0.0056796
0.00572539
0.00573518
0.00574967
0.00578783
0.00580122
0.00582247
0.00587295
0.00593933
0.00604533
0.00622536
0.00648751
0.00662821
0.00668554
0.00673168
0.00677712
0.00680932
0.00682493
0.006835
0.0068425
0.0054621
0.00554692
0.00560092
0.00565828
0.00570687
0.00570983
0.00574281
0.00576999
0.00580195
0.0058223
0.00586071
0.00592108
0.0060162
0.00617398
0.00643168
0.00658871
0.00665438
0.00670089
0.0067458
0.00678124
0.00680236
0.00681334
0.00682
0.00544221
0.00554307
0.00558399
0.00562629
0.00568987
0.00570088
0.00574411
0.00574326
0.00579022
0.0058124
0.00584741
0.00590211
0.00598678
0.00612344
0.0063664
0.00653974
0.00662087
0.00666687
0.00671141
0.00674801
0.00677198
0.00678814
0.00680018
0.00542366
0.00553046
0.00555343
0.00561537
0.00566593
0.00569933
0.00573004
0.00573395
0.0057739
0.00579544
0.00582805
0.00587791
0.00595276
0.00607046
0.00628655
0.00647878
0.00657368
0.00663087
0.00667117
0.00671183
0.00673937
0.00675698
0.00676873
0.00540578
0.00549589
0.00550878
0.00561805
0.00564103
0.00568272
0.00570988
0.00573372
0.00575636
0.00577639
0.00580663
0.00585247
0.0059185
0.00601874
0.00620327
0.00640463
0.00651929
0.00658061
0.00662897
0.00666512
0.00670174
0.00672898
0.00674918
0.00538191
0.00546141
0.00549289
0.00560066
0.00562412
0.00565864
0.00568601
0.00571215
0.00573304
0.00575184
0.00577902
0.00582024
0.00587879
0.0059629
0.00610733
0.00631425
0.00644857
0.00652699
0.00657392
0.00661239
0.00664231
0.00667631
0.00670852
0.00534362
0.00541891
0.00549513
0.00557732
0.00560088
0.00563292
0.00566166
0.00568626
0.00570859
0.00572689
0.00575134
0.00578815
0.00583974
0.0059087
0.00601928
0.00620638
0.00636102
0.00645487
0.00652527
0.00656212
0.00659022
0.00661718
0.00665439
0.00529722
0.00537702
0.00546451
0.00554413
0.00556207
0.0055985
0.00562603
0.00565136
0.00567584
0.00569489
0.00571642
0.00574846
0.00579414
0.00584996
0.0059332
0.00607524
0.00624673
0.00635909
0.00644384
0.006511
0.00654037
0.00656128
0.00659845
0.00526311
0.00534896
0.00542434
0.00550794
0.00551916
0.00556184
0.00558644
0.00561375
0.00564026
0.00566077
0.00568089
0.00570939
0.00574894
0.0057958
0.00585593
0.00595205
0.00610612
0.00623962
0.00633816
0.00642398
0.00648405
0.00650936
0.00654137
0.00521259
0.00531703
0.00537493
0.00546013
0.00547022
0.00551563
0.00553706
0.00556567
0.00559219
0.00561484
0.00563364
0.00565915
0.00569323
0.00573225
0.00577918
0.00584185
0.00594628
0.00607712
0.00619332
0.00629157
0.00637282
0.00641952
0.00645985
0.00514656
0.00527005
0.00532412
0.00540696
0.00542252
0.0054676
0.00548747
0.0055169
0.00554146
0.0055652
0.00558407
0.00560775
0.00563789
0.00567004
0.0057079
0.00575056
0.00581566
0.00590616
0.00601841
0.00612663
0.00622339
0.00629191
0.00634587
0.0050693
0.00520387
0.00525752
0.00533556
0.00536131
0.00540305
0.00542502
0.0054538
0.00547587
0.00550017
0.00551804
0.00553907
0.00556609
0.00559365
0.00562544
0.00565648
0.00569842
0.00574957
0.00582743
0.00592034
0.00601936
0.00610334
0.00617239
0.00498129
0.00513092
0.00518536
0.00525842
0.00529654
0.00533382
0.0053602
0.00538919
0.00540927
0.0054327
0.00545126
0.0054699
0.0054934
0.00551643
0.00554429
0.00557063
0.00560178
0.00563114
0.00567729
0.00573388
0.00581329
0.00589127
0.00597119
0.00490019
0.00504033
0.00509429
0.00516233
0.00521063
0.00524394
0.00527463
0.0053041
0.00532358
0.00534576
0.00536272
0.00537964
0.00540021
0.00541928
0.00544066
0.00546287
0.00549016
0.00550932
0.00553943
0.0055682
0.0056178
0.00566822
0.00574098
0.00482965
0.00494961
0.00500344
0.00506689
0.00512213
0.00515335
0.00518637
0.00521706
0.00523718
0.00525867
0.00527614
0.00529022
0.00530861
0.00532616
0.00534442
0.00535925
0.0053848
0.00539968
0.00542346
0.0054406
0.00547145
0.00549827
0.00554823
0.00473939
0.00483876
0.00489219
0.00495101
0.00500778
0.00503811
0.00507124
0.00510216
0.00512273
0.00514312
0.00516009
0.00517291
0.00518706
0.00520189
0.00521963
0.00523033
0.00524982
0.00526172
0.00528095
0.00529252
0.00531296
0.00532833
0.00535712