/*--------------------------------*- C++ -*----------------------------------*\
  =========                 |
  \\      /  F ield         | OpenFOAM: The Open Source CFD Toolbox
   \\    /   O peration     | Website:  https://openfoam.org
    \\  /    A nd           | Version:  7
     \\/     M anipulation  |
\*---------------------------------------------------------------------------*/
FoamFile
{
    version     2.0;
    format      ascii;
    class       volScalarField;
    location    "70";
    object      nut;
}
// * * * * * * * * * * * * * * * * * * * * * * * * * * * * * * * * * * * * * //

dimensions      [0 2 -1 0 0 0 0];

internalField   nonuniform List<scalar> 
12842
(
0.00181018
0.00179358
0.00178826
0.00177548
0.00177577
0.00176442
0.00176667
0.00175697
0.00176073
0.00175552
0.0017599
0.00175847
0.00176365
0.00176784
0.00102342
0.000559572
0.000354258
0.000248569
0.000186533
0.000146177
0.000118768
9.98757e-05
8.60209e-05
0.00181246
0.00179102
0.00178428
0.00177396
0.00177534
0.00176453
0.00176676
0.00175687
0.0017604
0.00175551
0.00175997
0.00175889
0.00176431
0.00176898
0.000984401
0.000539179
0.000341892
0.000240615
0.000181201
0.000142511
0.000116247
9.84419e-05
8.47954e-05
0.00180924
0.00179125
0.00178577
0.00177672
0.00177649
0.00176494
0.00176594
0.001756
0.00175966
0.00175555
0.00176024
0.00176042
0.00176507
0.00177029
0.000942272
0.000519318
0.00033093
0.000234046
0.000176928
0.000139599
0.000114116
9.71539e-05
8.34887e-05
0.00181032
0.00178787
0.00177823
0.0017695
0.00177276
0.00176439
0.00176536
0.00175564
0.00175942
0.0017557
0.00176041
0.00176197
0.00176629
0.00177229
0.000898023
0.000498089
0.000319265
0.000226746
0.000172037
0.000136186
0.000111634
9.5586e-05
8.1995e-05
0.00180853
0.00178856
0.00177725
0.00177622
0.00177704
0.00176549
0.00176412
0.00175489
0.00175893
0.00175623
0.00176151
0.00176442
0.00176769
0.00177425
0.000859004
0.000479021
0.00030848
0.000220032
0.000167303
0.000132894
0.000109158
9.39587e-05
8.05035e-05
0.00180723
0.00178913
0.00177334
0.00176584
0.00177048
0.0017637
0.00176301
0.00175448
0.00175903
0.00175667
0.00176233
0.00176579
0.00176921
0.00171776
0.000828523
0.000463544
0.000299456
0.000214076
0.000163255
0.000129928
0.000106893
9.23925e-05
7.90681e-05
0.00180598
0.00178579
0.00177267
0.00177347
0.00177494
0.00176589
0.00176273
0.00175387
0.00175875
0.00175727
0.001763
0.00176717
0.00177047
0.00167705
0.000809512
0.000453394
0.000293114
0.000209818
0.000160118
0.00012761
0.000105004
9.10268e-05
7.77625e-05
0.00180493
0.00178803
0.00176943
0.00176426
0.00176989
0.0017649
0.00176043
0.00175333
0.00175841
0.00175703
0.00176319
0.00176774
0.00177093
0.00166418
0.000801525
0.000447838
0.000288978
0.000206512
0.000157561
0.000125594
0.000103211
8.95923e-05
7.64984e-05
0.00180321
0.00178454
0.0017709
0.00176965
0.00176986
0.00176543
0.00176041
0.00175249
0.00175728
0.00175649
0.00176254
0.00176771
0.0017722
0.00165644
0.000795984
0.000443719
0.00028575
0.000204079
0.000155505
0.000124052
0.000101897
8.85451e-05
7.55458e-05
0.00180249
0.00178474
0.00176853
0.00176591
0.00176773
0.00176391
0.00175837
0.00175211
0.0017564
0.00175546
0.00176184
0.00176818
0.00177227
0.00163022
0.000783787
0.000437179
0.000281709
0.000201335
0.000153564
0.000122629
0.000100728
8.76381e-05
7.47068e-05
0.00180064
0.00178208
0.00176927
0.00176813
0.00176616
0.00176317
0.00175797
0.00175233
0.00175539
0.00175455
0.00176066
0.00176716
0.00177244
0.00160532
0.000772299
0.000431161
0.000277942
0.000198859
0.000151672
0.000121226
9.95813e-05
8.66803e-05
7.38755e-05
0.00180001
0.0017801
0.00176822
0.00176768
0.00176506
0.00176147
0.00175673
0.0017524
0.00175485
0.00175364
0.00175956
0.00176624
0.00177294
0.00158107
0.000761273
0.000425369
0.000274315
0.00019636
0.00014986
0.000119829
9.84493e-05
8.57258e-05
7.31121e-05
0.00179827
0.00177964
0.00176785
0.00176723
0.00176361
0.00176071
0.0017563
0.00175352
0.00175451
0.00175366
0.00175887
0.00176502
0.00177273
0.00155678
0.000750157
0.000419527
0.000270635
0.000193868
0.000148018
0.000118463
9.7359e-05
8.47933e-05
7.24331e-05
0.00179767
0.00177647
0.00176749
0.00176768
0.00176229
0.00175978
0.00175634
0.00175392
0.00175457
0.00175352
0.00175835
0.00176354
0.00177261
0.00153177
0.000738933
0.000413736
0.00026709
0.000191494
0.000146287
0.000117158
9.63498e-05
8.39238e-05
7.1869e-05
0.00179606
0.00177764
0.00176653
0.00176553
0.00176158
0.00175981
0.00175629
0.00175538
0.00175481
0.00175432
0.00175846
0.00176276
0.00177321
0.00150736
0.000727955
0.000408063
0.000263637
0.000189173
0.000144665
0.000115985
9.54833e-05
8.31507e-05
7.14713e-05
0.00179553
0.00177421
0.00176606
0.00176547
0.00175984
0.00175951
0.0017574
0.00175626
0.00175557
0.00175481
0.00175849
0.0017624
0.0017733
0.00148376
0.000717576
0.00040277
0.000260488
0.000187144
0.000143221
0.00011496
9.48097e-05
8.25403e-05
7.12648e-05
0.0017941
0.00177595
0.00176492
0.00176278
0.00175982
0.00175998
0.00175785
0.00175762
0.00175615
0.00175583
0.00175878
0.0017624
0.00177298
0.00146206
0.00070765
0.000397688
0.000257495
0.000185216
0.000141948
0.000114171
9.43902e-05
8.21676e-05
7.13211e-05
0.00179368
0.00177301
0.00176413
0.00176243
0.00175835
0.00175969
0.00175914
0.00175915
0.00175755
0.00175664
0.0017589
0.00176243
0.00177322
0.00144214
0.000698818
0.000393277
0.000255049
0.000183786
0.000141072
0.000113681
9.43138e-05
8.20978e-05
7.16656e-05
0.00179245
0.00177439
0.00176289
0.00176009
0.00175861
0.00175966
0.00175967
0.00175988
0.00175827
0.00175723
0.00175895
0.0017625
0.0017742
0.00142381
0.000690538
0.00038927
0.00025293
0.000182637
0.000140596
0.000113632
9.4659e-05
8.24259e-05
7.23526e-05
0.00179217
0.00177209
0.00176222
0.00176029
0.00175813
0.00175927
0.00176022
0.0017616
0.00175993
0.00175779
0.00175897
0.00176267
0.00177601
0.00140912
0.000684018
0.000386375
0.0002517
0.000182319
0.000140743
0.000114057
9.55085e-05
8.32053e-05
7.34288e-05
0.00179109
0.0017727
0.00176114
0.0017584
0.00175819
0.00175832
0.0017605
0.00176127
0.00176047
0.00175761
0.00175865
0.00176278
0.00177617
0.00139693
0.000678582
0.000384187
0.000250931
0.000182412
0.000141432
0.000115062
9.68769e-05
8.4532e-05
7.49914e-05
0.001791
0.00177091
0.00176116
0.00175946
0.00175882
0.00175775
0.00175997
0.00176226
0.00176139
0.00175747
0.00175857
0.00176301
0.00177564
0.00138547
0.000674962
0.000383241
0.00025127
0.000183469
0.00014285
0.000116621
9.88408e-05
8.65193e-05
7.71601e-05
0.00178979
0.00177065
0.00176043
0.0017578
0.00175843
0.00175674
0.00175979
0.00176141
0.0017614
0.00175696
0.00175839
0.00176337
0.00177593
0.00138347
0.000673645
0.000383445
0.000252066
0.00018501
0.000144843
0.00011877
0.000101407
8.92926e-05
8.01597e-05
0.0017901
0.00176949
0.00176144
0.00175902
0.00175973
0.00175582
0.00175857
0.00176137
0.00176079
0.00175644
0.00175868
0.00176418
0.0017766
0.00137318
0.000670072
0.000383075
0.000253238
0.00018703
0.00014735
0.000121484
0.000104779
9.29892e-05
8.42834e-05
0.0017883
0.0017691
0.00176179
0.00175876
0.00175968
0.00175572
0.00175736
0.00176052
0.00176003
0.00175668
0.00175943
0.00176529
0.00177799
0.00135772
0.000665781
0.000382556
0.00025427
0.000189364
0.000150409
0.000125078
0.000109058
9.80747e-05
9.00387e-05
0.00178987
0.00176837
0.00176293
0.00175921
0.00176012
0.00175566
0.00175614
0.00175965
0.00175965
0.00175743
0.00176055
0.00176645
0.001779
0.00134696
0.000662983
0.000382811
0.000256452
0.000192508
0.00015444
0.000129652
0.000114615
0.000104432
9.71428e-05
0.00178765
0.00176823
0.00176313
0.00175921
0.00175939
0.0017559
0.001755
0.00175885
0.00175896
0.00175864
0.0017618
0.00176654
0.00178116
0.00134392
0.000661989
0.000384602
0.000259401
0.000196549
0.000159369
0.000135787
0.000121602
0.000112608
0.000106266
0.00178893
0.00176765
0.00176381
0.00175913
0.00175911
0.00175565
0.00175424
0.00175798
0.00175869
0.00176005
0.00176302
0.00176881
0.00178285
0.00134072
0.000662769
0.000387332
0.000263778
0.000201576
0.000165782
0.000143513
0.000130427
0.000122425
0.00011696
0.00178679
0.00176773
0.00176332
0.00175905
0.00175783
0.00175565
0.00175389
0.00175633
0.00175886
0.00176153
0.00176407
0.00177056
0.00178389
0.00134119
0.000665552
0.000392599
0.000269525
0.000208363
0.000173702
0.000152986
0.000140759
0.00013394
0.00012938
0.00178766
0.00176702
0.00176291
0.00175862
0.00175714
0.00175525
0.0017539
0.00175598
0.00175957
0.00176272
0.00176477
0.00177219
0.00178574
0.00134032
0.000672493
0.000399916
0.000277344
0.000216838
0.000183542
0.000164323
0.00015302
0.000146949
0.000143072
0.00178609
0.00176693
0.0017617
0.00175803
0.00175602
0.00175511
0.00175432
0.00175639
0.00175999
0.00176372
0.00176514
0.00177302
0.00178734
0.00134502
0.000686174
0.000410886
0.000288182
0.000227787
0.000195239
0.00017731
0.00016664
0.000161277
0.000158031
0.00178637
0.00176621
0.00176034
0.00175741
0.00175578
0.00175434
0.0017549
0.00175691
0.00176037
0.00176409
0.00176517
0.00177331
0.00178911
0.00136597
0.000704461
0.000425274
0.000301489
0.000240679
0.000208759
0.000191988
0.000181833
0.000176575
0.000173744
0.0017857
0.00176586
0.0017593
0.00175671
0.00175532
0.00175387
0.00175528
0.00175716
0.00176034
0.0017641
0.00176501
0.00177333
0.00178963
0.00140181
0.000729515
0.000444976
0.000318145
0.000255977
0.000224011
0.000207774
0.000197801
0.000192488
0.000189975
0.00178552
0.0017656
0.00175808
0.00175597
0.00175576
0.00175293
0.00175553
0.00175703
0.00175992
0.00176384
0.00176453
0.0017721
0.00178097
0.001454
0.000762927
0.000468345
0.000337266
0.000273189
0.000240585
0.000224671
0.000214665
0.000208624
0.000206297
0.00178537
0.00176536
0.00175784
0.00175574
0.00175612
0.00175278
0.00175548
0.00175622
0.00175937
0.00176263
0.00176359
0.00176669
0.00176197
0.00151964
0.000802684
0.000496599
0.000359209
0.000292053
0.000258353
0.000241973
0.000231499
0.000224609
0.000222441
0.00178524
0.001766
0.00175721
0.00175529
0.00175697
0.00175267
0.00175494
0.00175515
0.00175783
0.00175962
0.00175776
0.00174963
0.00173616
0.00160393
0.000850863
0.000528441
0.000383327
0.000312585
0.000276813
0.000259621
0.000248567
0.00024024
0.000238102
0.00178505
0.00176623
0.00175721
0.00175548
0.00175704
0.00175453
0.00175427
0.00175326
0.00175531
0.00175216
0.00174366
0.00172824
0.00171257
0.00169765
0.000903495
0.000563552
0.000409097
0.000333658
0.000295639
0.00027705
0.000264899
0.000255035
0.000253058
0.00178551
0.00176766
0.00175632
0.00175505
0.00175698
0.0017566
0.00175308
0.00175039
0.0017473
0.00173645
0.00172596
0.00170822
0.00169518
0.00169624
0.000963501
0.000601882
0.000436613
0.000356006
0.000314675
0.000294126
0.000280867
0.000269132
0.000267098
0.0017851
0.00176816
0.00175477
0.00175506
0.00175634
0.00175769
0.00175093
0.00174298
0.00173272
0.00171856
0.00170753
0.00168961
0.00168158
0.00169288
0.00102572
0.000641396
0.000464524
0.000377875
0.000333181
0.000310516
0.000295808
0.00028196
0.000280076
0.00178656
0.00176984
0.00175217
0.00175448
0.00175512
0.00175738
0.00174566
0.0017281
0.00171257
0.00170179
0.00169151
0.00167575
0.00167584
0.00169556
0.00109355
0.000683587
0.000493607
0.000400546
0.000351706
0.000326182
0.000309875
0.000293858
0.000291854
0.0017863
0.0017698
0.00174809
0.00175355
0.00175387
0.00175571
0.00173564
0.0017067
0.0016927
0.00168727
0.00167707
0.00166572
0.00167373
0.00170263
0.00116161
0.000725318
0.000522365
0.000422225
0.00036902
0.000340869
0.000322948
0.000304483
0.00030257
0.0017884
0.00177043
0.00174379
0.0017517
0.00175071
0.00175138
0.00171665
0.00168454
0.00167584
0.00167665
0.0016679
0.00166118
0.0016785
0.0017135
0.00123351
0.000768987
0.000551517
0.000444163
0.000386458
0.000354884
0.000335188
0.000314192
0.000312089
0.001789
0.001769
0.00173909
0.00174949
0.00174765
0.00174253
0.00169561
0.00166422
0.00166319
0.00166973
0.00166159
0.00166074
0.00168502
0.00172731
0.00130426
0.000811621
0.000580582
0.000465439
0.000402464
0.00036804
0.000346333
0.000322811
0.000320598
0.00179102
0.00176819
0.0017339
0.0017474
0.0017384
0.00172607
0.0016748
0.00164921
0.00165545
0.00166745
0.00166087
0.0016646
0.0016966
0.00174229
0.00137772
0.000855351
0.000609135
0.000486324
0.000418915
0.00038071
0.00035739
0.000330871
0.000328217
0.00179286
0.00176499
0.00173047
0.00174385
0.00172545
0.0017058
0.0016585
0.00163822
0.00165334
0.00166885
0.00166298
0.00167168
0.00170796
0.00175887
0.00144927
0.000898687
0.00063867
0.00050775
0.00043432
0.000393291
0.000367254
0.000338157
0.000334997
0.0017954
0.00176325
0.00172699
0.00173635
0.00170594
0.0016882
0.00164627
0.00163361
0.0016554
0.00167393
0.00166926
0.0016813
0.00172257
0.00177459
0.0015235
0.000942216
0.00066742
0.000528409
0.000450669
0.000405635
0.000377997
0.000345662
0.000341274
0.00179821
0.00175857
0.00172361
0.0017259
0.00168799
0.00167251
0.00164062
0.00163336
0.00166234
0.00168167
0.00167766
0.00169283
0.00173564
0.00179072
0.00159554
0.00098735
0.000697686
0.000550801
0.000466801
0.000419096
0.00038823
0.00035312
0.000347508
0.00180128
0.00175607
0.00171991
0.00171347
0.00167371
0.0016627
0.00163986
0.00163794
0.00167092
0.00169088
0.00168832
0.00170531
0.00175044
0.00180536
0.00167093
0.00103136
0.000728881
0.000573341
0.000485085
0.000433332
0.000400292
0.000362132
0.000353816
0.00180457
0.00175246
0.00171688
0.00170063
0.00166395
0.00165614
0.00164486
0.00164581
0.00168272
0.00170156
0.00170057
0.00171866
0.0017634
0.00181944
0.00174245
0.00107832
0.00075983
0.000597262
0.000503059
0.000448916
0.000413205
0.000372443
0.000360777
0.00180791
0.00175148
0.00171055
0.00169141
0.00166052
0.00165552
0.00165446
0.00165659
0.00169491
0.00171261
0.00171402
0.00173252
0.00177712
0.00183288
0.00181027
0.00111806
0.000788713
0.000618726
0.000520854
0.00046447
0.000426812
0.000383698
0.000368174
0.00181026
0.00174854
0.00170524
0.00168422
0.00166197
0.00165958
0.00166758
0.00166894
0.00170816
0.00172392
0.00172821
0.00174586
0.00178856
0.00184379
0.00186552
0.00115272
0.000812986
0.000637322
0.000536509
0.000477978
0.000438528
0.000394519
0.000373446
0.00181114
0.00174603
0.00170187
0.00168183
0.00166803
0.00166711
0.0016819
0.00168126
0.00172062
0.00173466
0.00174173
0.00175851
0.00179931
0.00185385
0.0018819
0.00118199
0.000832627
0.000653486
0.00055021
0.000490908
0.000450445
0.000404902
0.000381312
0.00181029
0.00173934
0.00170062
0.00168118
0.00167592
0.00167719
0.00169579
0.00169328
0.00173249
0.0017452
0.00175452
0.00176991
0.00180815
0.00186108
0.00188731
0.00120454
0.000849513
0.000668809
0.000561795
0.000501834
0.000460855
0.000414278
0.000387389
0.00180798
0.00172904
0.00169889
0.00168343
0.00168507
0.00168787
0.00170903
0.00170493
0.00174337
0.00175544
0.00176595
0.00178041
0.00181616
0.00186771
0.00188977
0.00122404
0.000862524
0.00067918
0.000574556
0.00051193
0.000469485
0.000424032
0.000394192
0.00180533
0.00171791
0.00169718
0.00168645
0.00169442
0.00169895
0.00172101
0.00171626
0.00175312
0.00176518
0.00177603
0.0017893
0.00182259
0.00187208
0.00189193
0.00124018
0.000876496
0.00069396
0.000584853
0.000522366
0.000479766
0.000435373
0.00040182
0.0018026
0.00170878
0.00169467
0.00169101
0.00170377
0.00170946
0.0017326
0.00172788
0.00176215
0.00177466
0.00178508
0.00179731
0.00182825
0.00187604
0.00189315
0.00124231
0.000877698
0.000692165
0.000584111
0.00052231
0.000481828
0.000437017
0.000402768
0.00179617
0.00170165
0.00169309
0.00169625
0.00171267
0.00171865
0.00174275
0.00173856
0.0017697
0.00178239
0.00179215
0.00180316
0.00183235
0.00187828
0.00189525
0.0012481
0.000880594
0.000692135
0.000585021
0.000522091
0.000481657
0.000436396
0.000400254
0.00178669
0.00169739
0.00169241
0.00170228
0.00172095
0.00172712
0.00175224
0.00174877
0.00177672
0.00178954
0.00179868
0.00180838
0.00183563
0.00187994
0.00189612
0.00127965
0.000905997
0.000712043
0.0006039
0.000538364
0.000498215
0.000453631
0.000414987
0.00177659
0.00169478
0.0016931
0.0017092
0.00172956
0.00173502
0.00176131
0.0017587
0.00178328
0.00179571
0.00180429
0.00181276
0.0018387
0.0018813
0.00189627
0.00129832
0.000918799
0.000720157
0.000612766
0.000546017
0.000506438
0.000463829
0.00042314
0.0017684
0.00169531
0.00169518
0.00171671
0.00173759
0.00174282
0.00176939
0.0017676
0.00178933
0.00180112
0.00180956
0.00181655
0.00184095
0.00188186
0.00189667
0.00131076
0.000925905
0.000724518
0.000616627
0.000550216
0.000511937
0.000471359
0.00042985
0.00176287
0.00169795
0.00169887
0.00172479
0.00174586
0.00174988
0.00177682
0.00177561
0.00179471
0.00180557
0.00181394
0.00181984
0.00184312
0.00188257
0.00189694
0.0013337
0.000939456
0.000733841
0.000625055
0.000559243
0.000521878
0.000485424
0.000442542
0.0017597
0.00170336
0.00170365
0.00173289
0.00175337
0.00175722
0.00178273
0.00178212
0.00179947
0.00180915
0.00181809
0.00182263
0.00184467
0.00188237
0.00189733
0.00135658
0.00095514
0.00074648
0.000635611
0.000569901
0.000534397
0.000501848
0.000457978
0.00175905
0.00171081
0.00171007
0.00174084
0.00176084
0.00176362
0.00178793
0.00178739
0.0018033
0.00181198
0.00182136
0.00182511
0.0018461
0.00188291
0.0018974
0.00138382
0.000974317
0.000762471
0.000649402
0.000583151
0.000548482
0.000520908
0.00047763
0.00175954
0.00171998
0.00171702
0.00174854
0.00176747
0.00177036
0.00179143
0.00179131
0.00180658
0.00181402
0.00182443
0.0018273
0.00184735
0.00188271
0.00189706
0.00141314
0.000996668
0.000781038
0.000665261
0.00059831
0.000564279
0.000549757
0.000510448
0.00176218
0.00173051
0.00172531
0.00175528
0.00177362
0.00177601
0.00179442
0.00179403
0.00180889
0.00181554
0.00182664
0.00182916
0.00184829
0.0018836
0.0018965
0.00144599
0.00102176
0.000802189
0.000683799
0.000615943
0.0005844
0.000593324
0.000591327
0.00176397
0.00174149
0.00173394
0.00176205
0.00177906
0.00178185
0.00179608
0.00179619
0.00181093
0.00181662
0.00182866
0.00183086
0.00184966
0.00188429
0.00189508
0.0014848
0.00105014
0.000827072
0.00070732
0.000639022
0.000628175
0.000699469
0.000852301
0.00176843
0.00175281
0.00174301
0.00176745
0.00178358
0.00178659
0.00179753
0.00179729
0.0018122
0.00181729
0.00182996
0.0018323
0.00185049
0.00188587
0.0018937
0.00152786
0.00108421
0.000860811
0.000735619
0.000677658
0.000702065
0.000886515
0.000828594
0.00177044
0.00176339
0.00175247
0.0017732
0.00178758
0.0017913
0.00179829
0.00179881
0.0018135
0.00181794
0.00183106
0.00183352
0.00185212
0.00188792
0.00188999
0.0015856
0.00113268
0.000900369
0.00078699
0.000744811
0.000839078
0.000914403
0.000753247
0.00177589
0.00177372
0.00176132
0.00177789
0.0017906
0.00179516
0.00179913
0.00179931
0.00181427
0.00181838
0.00183178
0.00183463
0.00185309
0.00189046
0.0018871
0.00164552
0.00119059
0.000977103
0.000859844
0.000864296
0.00103174
0.000824169
0.00069053
0.00177855
0.0017821
0.00177034
0.00178274
0.00179316
0.00179867
0.0017997
0.00180093
0.00181526
0.00181881
0.00183208
0.00183558
0.00185474
0.00189306
0.00188306
0.00173454
0.00127473
0.00105732
0.000983544
0.00102943
0.000963624
0.000774086
0.000684405
0.00178462
0.00179056
0.00177803
0.00178712
0.00179498
0.00180172
0.00180063
0.00180149
0.00181573
0.00181951
0.00183274
0.00183662
0.0018556
0.00189615
0.00187863
0.00178324
0.00137232
0.00118819
0.00113249
0.00109127
0.00089326
0.000737839
0.000665505
0.0017886
0.00179599
0.00178567
0.00179145
0.00179665
0.00180427
0.00180145
0.00180336
0.00181673
0.00181977
0.00183242
0.00183696
0.00185895
0.0018984
0.00187244
0.00176136
0.00149385
0.00130845
0.00122472
0.00103128
0.000879462
0.000759194
0.000657451
0.00179486
0.00180204
0.00179145
0.00179497
0.00179754
0.00180626
0.0018025
0.00180417
0.00181668
0.00182055
0.00183315
0.00183701
0.00186232
0.00190113
0.00186731
0.00174647
0.00157934
0.00137991
0.00120333
0.000996008
0.000864386
0.000749945
0.000676217
0.00180003
0.00180482
0.00179735
0.00179911
0.00179889
0.00180822
0.00180381
0.001806
0.00181772
0.001821
0.00183332
0.00183707
0.00186389
0.0019039
0.00186027
0.00173379
0.0015641
0.00137183
0.00120169
0.000990668
0.000837521
0.000741884
0.000662832
0.00180545
0.00180816
0.00180118
0.00180116
0.00179936
0.00180907
0.00180474
0.00180704
0.00181714
0.0018211
0.00183205
0.00183653
0.00186554
0.00190954
0.00185846
0.00173045
0.00156059
0.00136222
0.00118195
0.000973008
0.000822991
0.000742819
0.000668611
0.00181097
0.00180896
0.00180521
0.00180477
0.00180069
0.00181026
0.00180614
0.00180828
0.00181794
0.00182219
0.00183163
0.0018369
0.00186661
0.00191497
0.00186089
0.00173247
0.00156663
0.00136879
0.00118718
0.000977441
0.00081413
0.000729922
0.000644421
0.00181471
0.0018106
0.00180754
0.00180607
0.00180123
0.00181117
0.00180732
0.00180962
0.00181736
0.00182176
0.0018301
0.00183711
0.00186496
0.001923
0.00186534
0.00174287
0.00157348
0.00137243
0.00117717
0.000977431
0.000824767
0.000734542
0.000663065
0.00181894
0.00180953
0.00181015
0.00180832
0.00180293
0.0018108
0.00180825
0.00180992
0.00181758
0.00182243
0.00182799
0.00183684
0.00186536
0.00192641
0.00186966
0.00175021
0.00157684
0.00136894
0.00117649
0.00097739
0.000813174
0.000741281
0.000664391
0.00182118
0.00181097
0.00181127
0.00180972
0.00180331
0.00181187
0.00180939
0.00181147
0.00181741
0.00182276
0.00182751
0.00183599
0.00186583
0.00192855
0.00187571
0.00175065
0.00158579
0.00137131
0.00116931
0.00096485
0.000828896
0.000748563
0.000663336
0.00182328
0.00180755
0.00181375
0.00180959
0.00180501
0.0018105
0.00181049
0.00181143
0.0018166
0.00182047
0.00182532
0.00183657
0.00186593
0.00192943
0.00188002
0.00175791
0.00158764
0.0013712
0.00117374
0.000978873
0.000825406
0.000740206
0.000674467
0.00182238
0.00180708
0.00181428
0.00181046
0.00180498
0.00180889
0.00181021
0.00181255
0.00181672
0.00181715
0.00182522
0.00183647
0.00186603
0.00192949
0.00188298
0.00175704
0.00158702
0.00136458
0.00117714
0.000979278
0.000819535
0.00073953
0.000674279
0.00182574
0.00180347
0.00181696
0.00180811
0.00180475
0.00180883
0.00181175
0.00181319
0.00181463
0.00181739
0.00182488
0.0018365
0.00186567
0.00193014
0.00188299
0.00175789
0.00158897
0.00136194
0.00117182
0.000985167
0.000819436
0.000747826
0.00064647
0.00181636
0.00180142
0.00181576
0.00180822
0.00180919
0.00180837
0.00180832
0.00181199
0.00181347
0.00181687
0.00182441
0.00183627
0.00186614
0.00193227
0.00188301
0.00176013
0.00158962
0.00137392
0.00117581
0.000986355
0.000829127
0.000729092
0.000639338
0.00180419
0.00180069
0.00180763
0.0018085
0.00181171
0.00180809
0.00180648
0.00180931
0.0018127
0.0018183
0.00182382
0.00183724
0.00186492
0.00193088
0.0018857
0.00176014
0.00158653
0.00137461
0.00117182
0.000981867
0.000817625
0.000702873
0.000643177
0.001803
0.00180199
0.0018077
0.0018056
0.00181296
0.00180785
0.00180662
0.00180944
0.00181165
0.00181757
0.0018225
0.00183678
0.00186554
0.00193302
0.00188619
0.00176558
0.0015938
0.00136527
0.00118207
0.000972037
0.000799334
0.000704295
0.000659326
0.00180292
0.00179813
0.00180897
0.00180479
0.00181058
0.00180714
0.0018064
0.00180809
0.00181061
0.00181765
0.00182378
0.00183673
0.0018662
0.00193126
0.00188571
0.00176699
0.0015896
0.00136027
0.00117687
0.000953811
0.000802522
0.000720091
0.000681692
0.00180183
0.00179671
0.00180801
0.00180408
0.00181291
0.00180765
0.00180692
0.0018081
0.00181075
0.001816
0.00182366
0.00183686
0.00186745
0.00193298
0.00189
0.00176206
0.00158085
0.00136866
0.00116932
0.000960345
0.000823918
0.000750097
0.000714355
0.00179903
0.00179678
0.00180681
0.00180285
0.00181115
0.00180644
0.00180811
0.00180677
0.00180951
0.00181667
0.00182339
0.00183691
0.00186714
0.00193389
0.00189121
0.001761
0.00158278
0.00138195
0.00118164
0.000978513
0.000852172
0.000783762
0.000748259
0.00179865
0.00179815
0.00180361
0.00180483
0.00180983
0.00180797
0.00180836
0.00180887
0.00181082
0.0018153
0.0018227
0.00183498
0.00186636
0.00193578
0.00188909
0.0017595
0.00159626
0.00140504
0.00121261
0.00101076
0.000890889
0.000826188
0.000790695
0.00179799
0.00179867
0.00180437
0.00180502
0.00181322
0.00180983
0.0018091
0.00180755
0.00181084
0.0018147
0.00182284
0.00183561
0.00186412
0.00193474
0.0018893
0.00176251
0.00160951
0.0014241
0.00124381
0.0010438
0.000929023
0.000865185
0.000828301
0.00180053
0.00179965
0.00180651
0.0018049
0.00181
0.00180831
0.00180741
0.00180576
0.0018111
0.00181411
0.00182249
0.00183391
0.001862
0.00192795
0.00189212
0.0017739
0.00163119
0.00145248
0.00128552
0.001087
0.000975375
0.000911881
0.000874505
0.00179562
0.0017968
0.00180397
0.00180601
0.00181153
0.00180839
0.00180713
0.00180667
0.00181075
0.00181575
0.00182228
0.00183452
0.00186227
0.00192466
0.00189447
0.00178159
0.00164547
0.00147018
0.00131568
0.00112298
0.00101473
0.00094993
0.000909825
0.00180012
0.00179644
0.00180451
0.00180735
0.00181237
0.0018081
0.00180822
0.00180767
0.00181083
0.00181422
0.00182175
0.00183517
0.00186416
0.00191872
0.00189876
0.00179731
0.00167005
0.0015008
0.00135587
0.00116898
0.00106325
0.000997066
0.000954131
0.00179631
0.0017952
0.00180474
0.00180411
0.00181032
0.00180718
0.00180842
0.00180787
0.00181207
0.00181556
0.00182246
0.00183687
0.00186546
0.00191629
0.00190092
0.00180465
0.00168058
0.00151394
0.00137521
0.00119977
0.00109866
0.00103151
0.000981224
0.00179605
0.00179529
0.00180486
0.00180464
0.00181008
0.00180972
0.00180643
0.00180806
0.00180998
0.00181416
0.00182189
0.00183456
0.00186517
0.001911
0.00190553
0.00182107
0.00170512
0.00154576
0.00141005
0.00124487
0.00114641
0.00108016
0.00102296
0.00179763
0.00179079
0.00180548
0.001806
0.00180975
0.0018075
0.00180688
0.00180892
0.00181313
0.00181437
0.00182041
0.00183501
0.00186485
0.00190874
0.00190639
0.00182569
0.00171065
0.0015537
0.00141818
0.00126667
0.00117449
0.0011108
0.00104381
0.00179924
0.00179274
0.00180255
0.0018056
0.00180943
0.00180625
0.00180741
0.00180706
0.00181185
0.00181462
0.00181885
0.00183374
0.00186053
0.00190408
0.00191107
0.00184166
0.00173366
0.0015857
0.00144955
0.00131098
0.00122093
0.00116155
0.00108731
0.0017941
0.00178922
0.00180259
0.00180366
0.00181196
0.00180704
0.00180837
0.00180764
0.00181181
0.00181484
0.00181653
0.00183119
0.00185677
0.0018992
0.00191389
0.00185618
0.00175489
0.00161552
0.00147906
0.00135166
0.00126396
0.00120827
0.00113299
0.00179812
0.00178862
0.00180015
0.00180473
0.00180849
0.00180771
0.00180812
0.00180481
0.00181332
0.00181446
0.00181786
0.00183029
0.00185327
0.00189366
0.00191618
0.00186928
0.00177672
0.0016474
0.00151003
0.00139291
0.00130803
0.00125644
0.00118399
0.00180104
0.00179067
0.00180238
0.00180519
0.00180901
0.00180785
0.00181042
0.00180293
0.00181198
0.0018133
0.00182217
0.00182936
0.00184978
0.00188748
0.00191692
0.00188147
0.00179798
0.00168018
0.0015447
0.00143536
0.00135444
0.00130666
0.00123841
0.00179795
0.00178708
0.00179622
0.00180586
0.00180939
0.0018066
0.00180753
0.00180471
0.00180741
0.00181244
0.00182181
0.00182893
0.00184698
0.00188111
0.00191634
0.00189226
0.00182017
0.00171386
0.00158204
0.0014797
0.00140262
0.0013598
0.0012967
0.00179583
0.00178859
0.00180086
0.00180801
0.00180948
0.00180497
0.00180002
0.00180398
0.00180629
0.00181204
0.00181878
0.00182877
0.00184474
0.00187354
0.00191493
0.0019016
0.001841
0.00175117
0.00162309
0.00152528
0.00145136
0.00141396
0.00135904
0.00179223
0.00179404
0.00180347
0.00180949
0.00180983
0.00180307
0.00179896
0.0018048
0.00180956
0.00181233
0.00181807
0.0018277
0.0018417
0.00186597
0.00191069
0.00190884
0.00186024
0.0017874
0.00167197
0.00157506
0.00150199
0.00146683
0.00142182
0.00178904
0.00179678
0.00179643
0.0018021
0.00181333
0.00180886
0.0018022
0.00180082
0.00181066
0.00181231
0.00181733
0.00182752
0.0018392
0.00185879
0.00190349
0.00191344
0.00187672
0.00182002
0.00172558
0.00162954
0.00155577
0.00152039
0.00148407
0.00178959
0.00179769
0.00178923
0.00179824
0.00180881
0.00181115
0.00180221
0.00180344
0.00181131
0.0018116
0.00181566
0.00182533
0.00183543
0.00185187
0.00189289
0.00191546
0.00188928
0.00185026
0.00177772
0.00169154
0.00161485
0.00157546
0.00154352
0.00179216
0.00179363
0.0017815
0.00180224
0.00180072
0.00180462
0.00180153
0.00180897
0.00180995
0.00181033
0.00181411
0.00182237
0.00183097
0.00184517
0.00188075
0.00191275
0.00189898
0.00187231
0.00182341
0.00175285
0.00168158
0.00163853
0.0016064
0.00179293
0.00179
0.00178399
0.00180349
0.00180213
0.00180156
0.00180204
0.00180523
0.00180864
0.00181007
0.00181312
0.00181941
0.00182657
0.00183863
0.00186588
0.00190587
0.00190607
0.00188909
0.00185819
0.0018093
0.00174422
0.00170354
0.0016715
0.00178711
0.00178505
0.00179435
0.00180487
0.00180281
0.0018002
0.00180276
0.00180363
0.00180831
0.00181055
0.00181267
0.00181697
0.00182295
0.00183255
0.0018526
0.00189222
0.00190821
0.00189905
0.00188456
0.00185587
0.00180429
0.00176507
0.00173387
0.00178188
0.00178244
0.00179545
0.00180591
0.00180066
0.00179936
0.00180186
0.00180201
0.00180787
0.00181065
0.00181163
0.0018146
0.00181987
0.00182721
0.00184142
0.00187199
0.00190279
0.00190381
0.00189819
0.00189148
0.00185643
0.00182437
0.00179518
0.00178499
0.00178733
0.00179657
0.00180643
0.00179789
0.00179874
0.00179988
0.00180017
0.00180653
0.00180954
0.00181017
0.00181264
0.00181724
0.00182325
0.0018322
0.00185211
0.00188517
0.00190116
0.00190178
0.00190838
0.0018945
0.00187379
0.00185029
0.00178669
0.00179497
0.00179865
0.00180617
0.00179672
0.00179858
0.00179805
0.00179853
0.00180435
0.00180755
0.00180815
0.00181051
0.00181467
0.00181959
0.00182567
0.00183731
0.00186036
0.00188613
0.00189529
0.0019092
0.00191042
0.001904
0.00189104
0.00178504
0.0017972
0.00180393
0.00180506
0.00179681
0.00179858
0.0017969
0.00179743
0.00180171
0.00180502
0.00180599
0.00180854
0.00181254
0.00181647
0.00182079
0.00182713
0.00184063
0.00186024
0.00187799
0.00189632
0.00190734
0.00191268
0.00190992
0.0017785
0.00179539
0.00180249
0.00180151
0.0017966
0.00179775
0.00179658
0.00179659
0.00179915
0.00180265
0.0018035
0.00180573
0.00180982
0.00181354
0.00181684
0.00182011
0.00182756
0.00183849
0.00185284
0.00187263
0.0018882
0.00190236
0.00190794
0.00176616
0.00179061
0.00179631
0.00179604
0.00179541
0.00179578
0.00179612
0.00179595
0.00179683
0.00180007
0.00180144
0.001803
0.00180653
0.00181004
0.00181349
0.00181546
0.00181912
0.00182473
0.00183265
0.00184512
0.00186012
0.00187676
0.00188879
0.00176146
0.00178457
0.00178858
0.00179022
0.00179274
0.00179285
0.00179522
0.00179516
0.00179499
0.00179772
0.00179882
0.00179999