/*--------------------------------*- C++ -*----------------------------------*\
  =========                 |
  \\      /  F ield         | OpenFOAM: The Open Source CFD Toolbox
   \\    /   O peration     | Website:  https://openfoam.org
    \\  /    A nd           | Version:  7
     \\/     M anipulation  |
\*---------------------------------------------------------------------------*/
FoamFile
{
    version     2.0;
    format      ascii;
    class       volScalarField;
    location    "70";
    object      omega;
}
// * * * * * * * * * * * * * * * * * * * * * * * * * * * * * * * * * * * * * //

dimensions      [0 0 -1 0 0 0 0];

internalField   nonuniform List<scalar> 
12842
(
3.14908
2.85238
2.6593
2.53338
2.43937
2.37868
2.32924
2.29785
2.27087
2.25458
2.23996
2.23214
2.22707
2.22872
2.23349
2.24945
2.27085
2.3156
2.37325
2.44907
2.51602
2.60569
2.65706
3.13681
2.83819
2.64657
2.52802
2.43727
2.37791
2.32903
2.29796
2.27094
2.25453
2.23993
2.23183
2.22693
2.22888
2.23491
2.25002
2.27359
2.31839
2.38539
2.45211
2.53043
2.61027
2.65845
3.12513
2.81273
2.61535
2.49531
2.41344
2.36174
2.31823
2.29086
2.26572
2.25057
2.23726
2.22951
2.22629
2.22879
2.23631
2.25253
2.27967
2.32513
2.39438
2.46719
2.54499
2.62188
2.67338
3.10212
2.79795
2.60371
2.48408
2.40321
2.35383
2.31284
2.28726
2.26315
2.24852
2.23584
2.22736
2.22547
2.22859
2.23729
2.25476
2.28442
2.33173
2.40983
2.472
2.56701
2.62397
2.69648
3.08105
2.75751
2.57596
2.45585
2.37875
2.33446
2.29938
2.27773
2.25639
2.24311
2.23137
2.22375
2.22394
2.22792
2.23829
2.25829
2.29144
2.34233
2.42098
2.49637
2.57592
2.64728
2.70622
3.06138
2.73924
2.55431
2.44331
2.3672
2.32557
2.29323
2.27335
2.25288
2.2404
2.22888
2.2217
2.22263
2.22764
2.23906
2.26083
2.29675
2.35141
2.43674
2.50557
2.60555
2.66323
2.72578
3.03587
2.70487
2.53272
2.41911
2.34809
2.3083
2.28055
2.26433
2.24624
2.23515
2.22503
2.21939
2.22132
2.22766
2.24075
2.26462
2.30362
2.36217
2.45176
2.52361
2.61386
2.69922
2.75688
3.01919
2.68551
2.51114
2.40936
2.33665
2.2986
2.27466
2.25976
2.24325
2.23324
2.22316
2.21809
2.22071
2.22741
2.24168
2.26748
2.30921
2.37208
2.46845
2.54586
2.6344
2.71172
2.79418
2.99024
2.65871
2.4933
2.39013
2.32648
2.28714
2.26505
2.25277
2.23863
2.23002
2.22131
2.2172
2.21948
2.22757
2.24307
2.27031
2.31437
2.38022
2.47999
2.55982
2.65819
2.73133
2.81898
2.97855
2.63806
2.47274
2.38021
2.31601
2.28017
2.25927
2.24792
2.23572
2.22868
2.2207
2.21578
2.21951
2.2279
2.24438
2.27323
2.31965
2.38965
2.4954
2.57635
2.67173
2.74926
2.83372
2.94407
2.61257
2.4571
2.36447
2.3086
2.27309
2.25319
2.24215
2.23173
2.22612
2.21951
2.21569
2.21965
2.22866
2.2461
2.27643
2.32511
2.39756
2.50602
2.59501
2.69734
2.7726
2.85769
2.93144
2.59476
2.43791
2.35434
2.29946
2.26726
2.24737
2.23714
2.2283
2.22426
2.21874
2.21551
2.2197
2.22932
2.24789
2.2801
2.33192
2.41016
2.52425
2.61476
2.71783
2.80433
2.88104
2.89845
2.57126
2.42517
2.34155
2.29216
2.26208
2.24317
2.2321
2.22446
2.22118
2.21709
2.21548
2.22009
2.23042
2.25009
2.28411
2.3387
2.41983
2.53742
2.64132
2.74938
2.84187
2.92337
2.88626
2.55646
2.40795
2.33211
2.28518
2.25677
2.23782
2.22759
2.22084
2.21865
2.21562
2.21587
2.22014
2.23138
2.25242
2.28876
2.34742
2.43646
2.55924
2.66767
2.7795
2.88433
2.96222
2.8558
2.53558
2.39777
2.32185
2.27787
2.25207
2.23444
2.22346
2.21747
2.21561
2.21351
2.21535
2.22036
2.23258
2.25491
2.29349
2.35556
2.44892
2.57603
2.70229
2.82189
2.93698
3.01892
2.84494
2.52311
2.38329
2.31351
2.27236
2.24733
2.22985
2.21947
2.21394
2.213
2.21169
2.21445
2.22042
2.23369
2.25782
2.29936
2.36655
2.47006
2.60595
2.73492
2.86226
2.98465
3.07544
2.81748
2.50531
2.3751
2.30535
2.26566
2.24238
2.22644
2.21601
2.21104
2.21044
2.20982
2.21324
2.22044
2.23466
2.26039
2.30476
2.37633
2.48594
2.63136
2.77735
2.91725
3.04342
3.14063
2.80847
2.49451
2.36323
2.29766
2.2603
2.23839
2.22274
2.2123
2.20777
2.20806
2.20822
2.21222
2.22046
2.23598
2.26401
2.31204
2.39063
2.51369
2.67058
2.81354
2.96547
3.09621
3.20802
2.78399
2.47997
2.35649
2.29131
2.2548
2.23352
2.21916
2.20947
2.20512
2.20613
2.20699
2.21139
2.2205
2.23691
2.2667
2.31836
2.40294
2.53529
2.70399
2.86078
3.02809
3.16214
3.28589
2.77714
2.47051
2.34657
2.28376
2.24894
2.22995
2.21626
2.20605
2.20216
2.20411
2.20575
2.2107
2.22048
2.2384
2.27079
2.32752
2.42204
2.5702
2.74683
2.89873
3.08268
3.22501
3.37302
2.75496
2.45898
2.34054
2.27893
2.24469
2.22584
2.21271
2.2039
2.19974
2.2028
2.20509
2.2103
2.22081
2.23958
2.27434
2.3359
2.43687
2.59596
2.7822
2.94919
3.15082
3.30234
3.47032
2.75103
2.45051
2.33202
2.27148
2.23859
2.22215
2.21024
2.20102
2.19745
2.20133
2.20429
2.20995
2.22086
2.24146
2.27951
2.34709
2.45967
2.63254
2.82391
2.99471
3.22011
3.39006
3.5936
2.72845
2.44149
2.32628
2.26766
2.23507
2.21852
2.20695
2.19892
2.19546
2.20024
2.20357
2.20935
2.22102
2.24252
2.28434
2.35698
2.4737
2.65807
2.85851
3.05254
3.29998
3.49387
3.72767
2.72413
2.43528
2.32057
2.26259
2.23063
2.21539
2.20513
2.19687
2.1948
2.19938
2.20276
2.20872
2.22116
2.24464
2.28998
2.36674
2.49409
2.69001
2.90477
3.11773
3.39621
3.62063
3.9033
2.71866
2.42976
2.31684
2.26021
2.22834
2.2128
2.20388
2.19602
2.19454
2.19821
2.20141
2.2074
2.22131
2.24668
2.29451
2.37487
2.50613
2.71755
2.94856
3.20019
3.51109
3.78282
4.11058
2.70944
2.42537
2.31294
2.25732
2.22532
2.21058
2.20312
2.1957
2.19398
2.19631
2.19928
2.2053
2.22141
2.24822
2.29748
2.37916
2.52241
2.74924
3.01245
3.29562
3.645
3.95896
4.34219
2.70407
2.42031
2.30892
2.2545
2.22302
2.20824
2.20229
2.19529
2.19365
2.194
2.19653
2.20279
2.22113
2.2528
2.29914
2.38537
2.5379
2.78739
3.08456
3.41732
3.80453
4.18439
4.62348
2.69558
2.41616
2.30537
2.25184
2.22021
2.2066
2.2018
2.19522
2.19292
2.19115
2.19336
2.19999
2.22075
2.25502
2.30105
2.39221
2.56196
2.83466
3.17624
3.56292
3.99562
4.42279
4.91131
2.69044
2.41164
2.30146
2.24898
2.21824
2.20494
2.20099
2.19595
2.19129
2.18812
2.18999
2.19748
2.2218
2.25794
2.30509
2.40796
2.5962
2.89718
3.2765
3.71528
4.18385
4.67062
5.19998
2.68293
2.40787
2.29886
2.2464
2.21621
2.20401
2.2002
2.19491
2.18884
2.18504
2.18683
2.19541
2.22201
2.26109
2.31283
2.4299
2.64204
2.97075
3.39204
3.88588
4.39558
4.91888
5.48258
2.6775
2.40408
2.29573
2.24418
2.21486
2.20272
2.19888
2.19228
2.18622
2.18198
2.18406
2.19429
2.22216
2.26208
2.33233
2.46925
2.70394
3.05999
3.51605
4.05379
4.59476
5.16367
5.7534
2.67128
2.40042
2.29417
2.2419
2.21346
2.20192
2.19724
2.18907
2.18348
2.17948
2.18192
2.1939
2.22216
2.27038
2.36347
2.51658
2.77637
3.15925
3.64659
4.2317
4.80788
5.4004
6.00997
2.66528
2.39729
2.29167
2.24003
2.21257
2.20036
2.19518
2.18553
2.18081
2.17721
2.18042
2.19375
2.22367
2.29215
2.40632
2.58133
2.86265
3.26674
3.78283
4.39897
4.99947
5.62311
6.24631
2.66009
2.39328
2.29046
2.23846
2.21113
2.1992
2.1925
2.1822
2.17863
2.17559
2.17987
2.19464
2.23682
2.33063
2.46242
2.65336
2.95606
3.38251
3.91768
4.56741
5.19701
5.83435
6.46414
2.65424
2.39065
2.28801
2.23603
2.20964
2.19692
2.18981
2.17946
2.17649
2.17514
2.18033
2.20198
2.26379
2.3791
2.52607
2.73655
3.05538
3.4957
4.0522
4.72136
5.36652
6.02344
6.65869
2.64919
2.38633
2.28676
2.23443
2.20737
2.19452
2.18697
2.17704
2.1759
2.17733
2.18758
2.22476
2.3073
2.44111
2.60056
2.82467
3.15865
3.61541
4.18222
4.86951
5.53758
6.20471
6.83581
2.6443
2.38426
2.28407
2.23085
2.20484
2.19161
2.18442
2.1762
2.17694
2.18622
2.20692
2.2601
2.36044
2.50806
2.67663
2.91486
3.25869
3.72351
4.3036
5.00321
5.68192
6.35999
6.99084
2.6387
2.3802
2.28274
2.22882
2.20177
2.18924
2.18239
2.17689
2.18532
2.20754
2.24056
2.31008
2.42598
2.58315
2.7592
3.00762
3.36031
3.83575
4.42247
5.12838
5.82196
6.51071
7.12945
2.63481
2.37829
2.28001
2.22424
2.19839
2.18644
2.18211
2.18398
2.20369
2.2387
2.28594
2.36914
2.49516
2.65742
2.83795
3.09454
3.45243
3.93237
4.52522
5.23922
5.94484
6.63882
7.25253
2.62866
2.37433
2.27867
2.22134
2.1955
2.18424
2.18585
2.20235
2.23379
2.28125
2.34311
2.43787
2.57091
2.7349
2.91899
3.18167
3.54339
4.02956
4.6295
5.3446
6.05803
6.76103
7.3579
2.62525
2.37217
2.27581
2.21665
2.19233
2.1837
2.19752
2.23148
2.27316
2.33208
2.40812
2.50962
2.64433
2.80685
2.99249
3.25894
3.62389
4.1128
4.71366
5.43438
6.16042
6.86731
7.45655
2.61942
2.36778
2.27433
2.21473
2.19188
2.18613
2.22229
2.27094
2.32245
2.39086
2.47918
2.5852
2.71952
2.87885
3.0653
3.33359
3.69857
4.19131
4.80254
5.52311
6.25801
6.96895
7.54407
2.61582
2.36408
2.271
2.21129
2.19207
2.19625
2.25606
2.31904
2.37755
2.45373
2.55253
2.65828
2.78815
2.94236
3.12873
3.39861
3.76731
4.26274
4.8711
5.59858
6.33995
7.0581
7.62777
2.61115
2.35845
2.26934
2.21078
2.20043
2.2178
2.30075
2.37352
2.43842
2.52017
2.6264
2.73056
2.85573
3.00464
3.18988
3.4578
3.82434
4.32228
4.94553
5.67182
6.4304
7.15112
7.71375
2.60697
2.35276
2.26583
2.21162
2.21584
2.25078
2.35108
2.43278
2.50028
2.58596
2.69743
2.79681
2.91449
3.05698
3.2413
3.51071
3.88109
4.38385
5.00308
5.74133
6.49943
7.23056
7.7959
2.60233
2.34635
2.26444
2.21819
2.24241
2.29242
2.40731
2.4939
2.56342
2.65173
2.76546
2.85944
2.97128
3.10825
3.29002
3.5543
3.92513
4.42925
5.06592
5.802
6.58295
7.32224
7.88322
2.59761
2.34112
2.26322
2.23128
2.27436
2.34284
2.46426
2.55567
2.62365
2.71321
2.82717
2.91474
3.01836
3.14909
3.32958
3.59699
3.96749
4.47938
5.11442
5.86848
6.65065
7.40023
7.973
2.59154
2.33567
2.26537
2.25099
2.31368
2.3968
2.52152
2.61549
2.68218
2.77238
2.88399
2.96506
3.06375
3.18978
3.36688
3.62714
4.00447
4.51797
5.17089
5.92504
6.72857
7.49106
8.07006
2.58521
2.33123
2.26784
2.27747
2.35673
2.45559
2.57769
2.67478
2.73811
2.8274
2.9346
3.00991
3.10069
3.22106
3.39616
3.65987
4.03387
4.55438
5.20808
5.97714
6.79267
7.57037
8.15274
2.57797
2.32802
2.27841
2.31146
2.40557
2.51663
2.63272
2.73268
2.79264
2.88058
2.9814
3.05058
3.1371
3.2529
3.4235
3.68053
4.05484
4.57593
5.23463
6.01546
6.85111
7.63759
8.24993
2.57084
2.32818
2.2928
2.35145
2.45553
2.57532
2.68387
2.78664
2.84311
2.92808
3.01979
3.08509
3.16507
3.27548
3.44167
3.69464
4.06981
4.58534
5.25283
6.03218
6.87099
7.68343
8.28471
2.56437
2.33103
2.31668
2.39623
2.50663
2.63082
2.7311
2.83616
2.88819
2.9704
3.05231
3.11405
3.19072
3.29679
3.45787
3.70646
4.07456
4.59363
5.25972
6.05311
6.89791
7.71828
8.33806
2.55958
2.33868
2.34386
2.44383
2.55711
2.68102
2.77543
2.88137
2.92992
3.00791
3.079
3.13849
3.21052
3.31191
3.46759
3.71129
4.08062
4.6046
5.27935
6.06525
6.9178
7.73532
8.36618
2.55699
2.3554
2.38059
2.49464
2.60771
2.72836
2.81719
2.92189
2.96609
3.03939
3.10142
3.15876
3.22847
3.32595
3.47652
3.71874
4.08556
4.61885
5.29327
6.09322
6.9379
7.76494
8.41926
2.55628
2.37935
2.42149
2.54574
2.65648
2.77117
2.85602
2.95748
2.99872
3.0659
3.12004
3.17586
3.24234
3.33564
3.48063
3.72152
4.08803
4.62965
5.32247
6.10119
6.94897
7.79197
8.44094
2.55763
2.41281
2.4704
2.59877
2.70482
2.8128
2.89292
2.98862
3.02627
3.08661
3.13559
3.1903
3.25517
3.34501
3.48567
3.7253
4.09967
4.63405
5.32189
6.13241
7.01169
7.8638
8.49747
2.56554
2.45223
2.5194
2.647
2.74732
2.84878
2.92343
3.01232
3.04745
3.10138
3.1472
3.20135
3.26398
3.35039
3.48516
3.71958
4.09143
4.61101
5.28456
6.09217
6.95676
7.79532
8.42964
2.57903
2.49438
2.5686
2.69269
2.78662
2.88243
2.95116
3.03267
3.06478
3.11285
3.15682
3.21067
3.2719
3.35506
3.48511
3.71136
4.07552
4.58109
5.23407
6.02576
6.8795
7.70649
8.33029
2.5963
2.53999
2.61791
2.7358
2.82342
2.91415
2.9758
3.04941
3.07931
3.12208
3.16511
3.21904
3.27843
3.35862
3.48545
3.70354
4.05543
4.54168
5.1786
5.94649
6.78216
7.60844
8.22139
2.61658
2.58634
2.66652
2.77686
2.85749
2.94345
2.99819
3.064
3.091
3.1294
3.17188
3.22618
3.28441
3.36202
3.48526
3.69522
4.03398
4.50432
5.115
5.85805
6.68994
7.51463
8.12623
2.63838
2.63225
2.71307
2.8143
2.88865
2.97055
3.01768
3.07597
3.10102
3.13565
3.17786
3.23261
3.2893
3.36437
3.4851
3.68956
4.01327
4.46549
5.05476
5.77477
6.60125
7.44486
8.04832
2.66114
2.6757
2.75716
2.84932
2.91704
2.99455
3.03554
3.08687
3.10929
3.14107
3.18277
3.23814
3.29393
3.36689
3.48411
3.68396
3.99536
4.43423
5.00107
5.69595
6.52319
7.37662
7.96742
2.6842
2.71574
2.79753
2.88066
2.94242
3.0162
3.05099
3.09617
3.11701
3.14621
3.18733
3.24312
3.29778
3.36862
3.48412
3.68122
3.98155
4.40937
4.95948
5.62785
6.44303
7.29891
7.90281
2.70718
2.75153
2.83426
2.90925
2.96536
3.03461
3.06561
3.10495
3.12376
3.15101
3.19123
3.24758
3.30148
3.3707
3.48411
3.67869
3.97103
4.39011
4.92483
5.5715
6.37223
7.29062
7.94089
2.72954
2.78327
2.86659
2.9349
2.98555
3.05088
3.07815
3.11306
3.13057
3.15596
3.19512
3.25137
3.30489
3.37263
3.48555
3.67599
3.96394
4.37661
4.89709
5.5278
6.30952
7.35049
8.18725
2.75235
2.8105
2.89455
2.95738
3.00377
3.06425
3.09043
3.12029
3.13663
3.16048
3.19875
3.25515
3.30766
3.37468
3.48826
3.67907
3.96192
4.36522
4.87756
5.49309
6.38324
7.74303
9.46447
2.77273
2.83499
2.91887
2.97776
3.01979
3.07603
3.10073
3.1278
3.14295
3.16543
3.20238
3.25831
3.31094
3.37747
3.49086
3.67936
3.96081
4.37927
4.87259
5.52024
6.61576
8.6515
11.5756
2.79489
2.85594
2.93877
2.99506
3.03444
3.08547
3.11085
3.13358
3.14837
3.1696
3.20612
3.26112
3.31316
3.37971
3.49764
3.69417
3.98056
4.3823
4.93133
5.6562
7.11186
9.56458
13.452
2.81254
2.87535
2.95658
3.01046
3.04744
3.09408
3.11917
3.14051
3.15415
3.17427
3.20955
3.26445
3.31582
3.38333
3.50399
3.70264
4.00942
4.4931
5.05318
6.02095
7.82531
10.7612
15.3846
2.83255
2.89323
2.97092
3.0237
3.05958
3.10096
3.12704
3.14522
3.1588
3.17816
3.21334
3.2667
3.31862
3.38681
3.51559
3.74151
4.0811
4.59278
5.34665
6.46707
8.55109
11.5908
16.0672
2.84749
2.90928
2.98414
3.03519
3.07091
3.10769
3.13369
3.15126
3.16402
3.18224
3.21661
3.26974
3.32209
3.39179
3.53044
3.76793
4.16691
4.82063
5.66047
7.07801
9.32253
12.2899
16.4196
2.864
2.92598
2.99567
3.04514
3.08089
3.11331
3.13945
3.15563
3.16803
3.18609
3.22005
3.27364
3.32232
3.39784
3.5514
3.83003
4.27098
4.96918
6.04051
7.57483
9.51776
12.2149
16.6156
2.87693
2.94034
3.00606
3.05475
3.09172
3.11942
3.14507
3.16076
3.17288
3.18973
3.22348
3.27403
3.32284
3.40585
3.57119
3.87972
4.39949
5.20525
6.2119
7.91359
9.69497
12.2938
16.5715
2.89037
2.95621
3.01661
3.06246
3.10001
3.12486
3.14945
3.1652
3.17666
3.19361
3.22632
3.27471
3.32497
3.41332
3.59691
3.92894
4.47769
5.28656
6.27348
7.96292
10.0072
12.4303
16.5723
2.90249
2.97034
3.02572
3.07159
3.11026
3.13114
3.15458
3.17007
3.18139
3.1975
3.22977
3.27647
3.32478
3.41831
3.61275
3.95728
4.52185
5.36633
6.42556
8.14332
10.1853
12.4382
16.5936
2.91456
2.9855
3.03569
3.07892
3.11806
3.13733
3.15897
3.17476
3.18533
3.20075
3.23273
3.27611
3.32502
3.42271
3.62151
3.97525
4.53978
5.3782
6.41511
8.09489
10.305
12.7689
16.7904
2.92714
2.99901
3.04527
3.08728
3.1267
3.14304
3.16322
3.17948
3.18976
3.20521
3.23516
3.27623
3.32683
3.42212
3.62708
3.97379
4.548
5.39206
6.47662
8.09685
10.1651
12.5488
16.2808
2.93818
3.01388
3.05314
3.09514
3.13398
3.15029
3.16841
3.18465
3.19387
3.20797
3.23916
3.27672
3.32599
3.4237
3.63148
3.97675
4.56271
5.41074
6.48869
8.09659
10.306
12.5172
16.2581
2.95222
3.02541
3.06427
3.10232
3.14125
3.15612
3.1719
3.18868
3.19823
3.21293
3.24147
3.27825
3.32665
3.42466
3.63274
3.99481
4.55226
5.41003
6.52391
8.20476
10.1556
12.4955
16.3009
2.96201
3.04147
3.06937
3.11187
3.14768
3.1636
3.17763
3.19379
3.20257
3.21773
3.24463
3.27712
3.32522
3.4224
3.63172
3.98905
4.54865
5.41613
6.49684
8.08759
10.1436
12.4962
15.681
2.97902
3.05446
3.08136
3.11921
3.15501
3.17317
3.18281
3.19891
3.20849
3.22487
3.24471
3.27745
3.32503
3.42228
3.63065
3.99686
4.55201
5.43842
6.47882
8.07726
10.208
12.5539
15.6098
2.99305
3.0709
3.08901
3.13268
3.16495
3.18268
3.19026
3.20401
3.21575
3.22742
3.24524
3.27731
3.32569
3.42248
3.63027
3.99697
4.54804
5.44857
6.50485
8.02244
10.228
12.2219
15.7212
3.01096
3.0899
3.10215
3.14336
3.16656
3.18443
3.19809
3.21264
3.21709
3.22945
3.24736
3.27794
3.32556
3.42176
3.63201
3.99235
4.54861
5.40179
6.48007
8.01051
10.022
12.2123
15.1722
3.03474
3.09727
3.11663
3.15222
3.16853
3.18662
3.20347
3.21699
3.21872
3.22931
3.24686
3.27622
3.32531
3.42194
3.62505
3.99347
4.55779
5.39566
6.50001
8.00099
10.0146
12.286
14.3492
3.04445
3.1009
3.1182
3.15663
3.17255
3.19124
3.20746
3.21956
3.2218
3.22973
3.24909
3.27602
3.32374
3.4192
3.62385
3.97868
4.52964
5.41367
6.4156
8.0037
10.0624
11.8829
13.343
3.04933
3.10583
3.1207
3.15895
3.17611
3.19442
3.21147
3.22122
3.22523
3.23093
3.24776
3.27635
3.32323
3.41874
3.6244
3.9756
4.52682
5.40632
6.39977
8.06269
9.83343
11.2776
12.3556
3.0557
3.10842
3.12533
3.16083
3.17552
3.19425
3.20997
3.2207
3.22427
3.23376
3.2477
3.27429
3.32067
3.41552
3.61591
3.97943
4.52906
5.33623
6.38367
7.90368
9.39786
10.5321
11.3518
3.06472
3.10968
3.13046
3.16331
3.17619
3.19694
3.20973
3.22289
3.22657
3.23287
3.24778
3.27398
3.3202
3.4148
3.61425
3.97164
4.49927
5.24676
6.25707
7.65636
8.92198
9.83389
10.4929
3.0616
3.11071
3.135
3.16089
3.17916
3.19544
3.20973
3.22092
3.22458
3.23281
3.24861
3.27538
3.3199
3.41037
3.61382
3.95914
4.43248
5.11785
6.03464
7.31558
8.39171
9.1312
9.66568
3.06105
3.11004
3.13381
3.16268
3.17648
3.1951
3.20943
3.22105
3.22441
3.23331
3.24636
3.27367
3.32062
3.40933
3.60818
3.93788
4.37042
5.0113
5.827
6.9993
7.92522
8.56155
9.02464
3.06066
3.10938
3.13387
3.16391
3.17907
3.1951
3.20947
3.22384
3.22409
3.23488
3.24626
3.27363
3.31991
3.4098
3.59038
3.8944
4.28449
4.87405
5.58377
6.64598
7.4483
7.99911
8.39398
3.06429
3.10907
3.1344
3.16027
3.1762
3.19479
3.21054
3.22168
3.22392
3.23248
3.24542
3.27201
3.31832
3.40838
3.57797
3.86338
4.22527
4.78388
5.41109
6.37068
7.07738
7.58166
7.95247
3.05899
3.10856
3.13342
3.15963
3.17571
3.19486
3.20758
3.22239
3.22331
3.23237
3.24543
3.27192
3.31593
3.40242
3.55489
3.81228
4.13965
4.65456
5.20905
6.06674
6.68885
7.14685
7.49322
3.05899
3.10963
3.13364
3.16106
3.17533
3.19617
3.20751
3.21931
3.22302
3.23217
3.24468
3.26863
3.31251
3.39884
3.54307
3.78501
4.09667
4.59134
5.10356
5.86922
6.42179
6.85047
7.22059
3.06075
3.10908
3.13242
3.161
3.1753
3.19253
3.20979
3.21888
3.22369
3.232
3.24448
3.26838
3.3083
3.39009
3.5194
3.73544
4.019
4.47265
4.94692
5.62023
6.11271
6.49494
6.87163
3.05609
3.11497
3.13144
3.15832
3.17672
3.1922
3.20841
3.2175
3.22042
3.2331
3.24637
3.26767
3.30923
3.38831
3.51117
3.71724
3.99373
4.43481
4.89705
5.4971
5.93577
6.28247
6.6972
3.05539
3.1106
3.13266
3.15768
3.17219
3.19358
3.20772
3.21697
3.21967
3.23234
3.24562
3.26644
3.30737
3.37743
3.48836
3.67129
3.92558
4.32638
4.7682
5.28625
5.68247
5.97792
6.39511
3.05682
3.11426
3.13086
3.15988
3.17167
3.19385
3.20505
3.21501
3.21971
3.23044
3.24364
3.26732
3.30428
3.3675
3.46781
3.63079
3.86442
4.2307
4.65418
5.10803
5.46956
5.72579
6.11343
3.04886
3.11345
3.13015
3.15929
3.17197
3.19229
3.20209
3.21354
3.21453
3.22782
3.23891
3.26447
3.29945
3.35711
3.44754
3.59214
3.80445
4.13337
4.54118
4.93943
5.2671
5.48831
5.83006
3.0476
3.10982
3.12201
3.15726
3.17296
3.18863
3.19455
3.21493
3.21302
3.22363
3.23127
3.26119
3.29442
3.3468
3.4281
3.55574
3.74612
4.03828
4.42275
4.77778
5.07232
5.2622
5.55661
3.0517
3.10456
3.12074
3.15134
3.17051
3.18442
3.19258
3.21254
3.21248
3.21582
3.22841
3.25523
3.28656
3.33505
3.40791
3.5201
3.68728
3.94295
4.30119
4.6179
4.88246
5.04323
5.29245
3.05048
3.09962
3.10891
3.14136
3.1641
3.17745
3.19423
3.20836
3.21167
3.2132
3.22906
3.24772
3.27706
3.32279
3.38785
3.4856
3.63147
3.8441
4.17545
4.46432
4.70245
4.83394
5.03479
3.04765
3.09185
3.10564
3.12701
3.15327
3.16673
3.19229
3.19702
3.20627
3.2126
3.22359
3.23962
3.26665
3.30871
3.36617
3.45169
3.57716
3.74896
4.03464
4.30539
4.5289
4.64494
4.79668
3.04197
3.08501
3.10838
3.12208
3.1378
3.15164
3.18728
3.18925
3.19785
3.20718
3.21758
3.22957
3.25511
3.29431
3.34459
3.41778
3.52788
3.66308
3.88936
4.14105
4.35282
4.46475
4.5821
3.03067
3.07643
3.1038
3.12271
3.13241
3.1468
3.17945
3.17945
3.1877
3.19907
3.20988
3.2202
3.24325
3.27801
3.32114
3.38236
3.47946
3.58376
3.75265
3.96788
4.17338
4.28889
4.38525
3.01635
3.06411
3.09222
3.11726
3.13265
3.14899
3.16947
3.1696
3.1804
3.1908
3.20081
3.21146
3.23245
3.26189
3.2983
3.34839
3.43305
3.51469
3.63548
3.80244
3.98539
4.10671
4.20144
3.00174
3.05106
3.07899
3.10547
3.12082
3.14098
3.15532
3.16422
3.1698
3.17768
3.18733
3.19897
3.21848
3.24313
3.27317
3.31305
3.38317
3.4551
3.5378
3.65467
3.80819
3.91908
4.01348
2.99008
3.03572
3.06246
3.09015
3.10675
3.12905
3.14055
3.15267
3.15687
3.16306
3.17286
3.1856
3.20345
3.22431
3.2491
3.27995
3.33351
3.39901
3.4625
3.53587
3.65253
3.74895
3.83789
2.97282
3.01667
3.04354
3.07
3.08891
3.11139
3.12234
3.13614
3.13952
3.14522
3.15541
3.16789
3.18382
3.20158
3.22207
3.24533
3.28294
3.34019
3.39473
3.44228
3.52309
3.59647
3.67565
2.94854
2.99271
3.01928
3.04908
3.06979
3.09208
3.10378
3.11846
3.12214
3.12829
3.13831
3.14976
3.16355
3.17883
3.19613
3.21366
3.23903
3.28201
3.33275
3.36619
3.42256
3.4739
3.53532
2.91745
2.96218
2.98831
3.02305
3.04457
3.06667
3.07949
3.09457
3.09929
3.10632
3.11569
3.12572
3.13734
3.1503
3.1655
3.17957
3.1963
3.222
3.26774
3.2954
3.33583
3.37159
3.41603
2.88316
2.93237
2.9514
2.99544
3.01787
3.03995
3.05386
3.06932
3.07567
3.08317
3.09197
3.10071
3.1105
3.12147
3.13485
3.14732
3.1596
3.17494
3.2047
3.23081
3.26287
3.28958
3.32258
2.85033
2.89846
2.91681
2.96172
2.98414
3.00546
3.01964
3.03563
3.04359
3.05115
3.05962
3.06749
3.07549
3.08438
3.09627
3.10777
3.11805
3.12733
3.14514
3.16151
3.18789
3.2083
3.23511
2.82041
2.86547
2.88668
2.92778
2.95005
2.97019
2.98432
3.00074
3.01046
3.01806
3.02606
3.03377
3.04085
3.04768
3.05724
3.06843
3.07939
3.08601
3.09787
3.10759
3.12523
3.13907
3.16138
2.7819
2.8244
2.84824
2.88363
2.90652
2.92491
2.93815
2.95467
2.96579
2.97364
2.98124
2.9887
2.99548
3.00099
3.00781
3.0156
3.02746
3.03357
3.04297
3.04907
3.06018
3.06859
3.08396
2.74152
2.78272
2.80833
2.83855
2.86262
2.87982
2.89236
2.90852
2.92073
2.92917
2.93661
2.94359
2.95083
2.95628
2.96229
2.96734
2.97696
2.98332
2.99272
2.9977
3.00632
3.0118
3.02176
2.68813
2.7285
2.75413
2.7799
2.80491
2.82106
2.83258
2.84767
2.86042
2.86932
2.87709
2.88308
2.88935
2.89448
2.9002
2.90375
2.91049
2.91513
2.92346
2.92793
2.9355
2.93976
2.94736
2.63441
2.674
2.69951
2.72229
2.74775
2.76385
2.77508
2.789
2.80175
2.81088
2.81961
2.8259
2.83217
2.83652
2.84258
2.84576
2.85145
2.85504
2.86187
2.86581
2.8727
2.87638
2.88299
2.56471
2.60248
2.62691
2.64724
2.67183
2.68762
2.6983
2.71063
2.72287
2.73141
2.73985
2.74601
2.75199
2.75548
2.76085
2.76355
2.76808
2.77074
2.77576
2.77891
2.78465
2.78777
2.79338
2.49827
2.53386
2.55809
2.57724
2.6006
2.61648
2.62745
2.63846
2.65048
2.65854
2.66733
2.67355
2.68046
2.68378
2.68939
2.69217
2.69694
2.69942
2.70389
2.70649
2.71139
2.71409
2.71923
2.4113
2.44306
2.46593
2.48369
2.50438
2.51924
2.52967
2.53889
2.5497
2.55673
2.5639
2.5691
2.57536
2.57823
2.5826
2.58484
2.58855
2.59059
2.59406
2.59606
2.59968
2.6017
2.60552
2.33435
2.36282
2.38525
2.40263
2.42153
2.4355
2.44638
2.45439
2.46486
2.47179
2.47925
2.48353
2.4901
2.49326
2.4981
2.50041
2.50435
2.50637
2.51
2.5119
2.51543
2.51724
2.52088
2.22943
2.2523
2.27193
2.2873
2.30281
2.31444
2.32377
2.32976
2.33763
2.34309
2.34916
2.35221
2.35667
2.35896
2.36231
2.3641
2.36683
2.3684
2.37098
2.37247
2.375
2.37634
2.37898
2.14756
2.16701
2.1852
2.19973
2.2138
2.22409
2.23379
2.23884
2.24628
2.25055
2.25688
2.25982
2.26438
2.26648
2.26984
2.27142
2.27414
2.27558
2.27824
2.27969
2.28252
2.28389
2.28651
2.02178
2.03388
2.04702
2.05717
2.06699
2.07343
2.08019
2.08326
2.0872
2.08952
2.09255
2.09435
2.09665
2.09803
2.09977
2.10085
2.10224
2.10313
2.10447
2.10546
2.10716
2.10863
2.11039
1.94998
1.95853
1.96859
1.97677
1.98531
1.99074
1.99686
1.99989
2.00336
2.00539
2.00796
2.00957
2.01156
2.01288
2.01453
2.01577
2.01703
2.01795
2.01924
2.02003
2.02165
2.02282
2.02456
1.7738
1.77382
1.77763
1.77835
1.77974
1.78026
1.78167
1.78122
1.78196
1.78073
1.7809
1.78049
1.78043
1.78
1.77963
1.7797
1.7798
1.77994
1.78017
1.78057
1.78158
1.78182
1.78258
3.05903
2.73048
2.54817
2.43909
2.36406
2.31761
2.28158
2.26047
2.241
2.23313
2.2247
2.22211
2.22017
2.2223
2.22862
2.24186
2.26613
2.30469
2.36734
2.44852
2.51364
2.60337
2.66364
3.07186
2.74221
2.5607
2.45485
2.37912
2.32826
2.28861
2.26671
2.24592
2.238
2.2286
2.2253
2.22245
2.22441
2.23052
2.24375
2.26703
2.30741
2.36932
2.44104
2.51113
2.60738
2.64689
3.09017
2.77221
2.58602
2.47281
2.38679
2.33402
2.29469
2.27191
2.25068
2.24174
2.23123
2.22718
2.22355
2.22545
2.23152
2.24485
2.26767
2.30894
2.36787
2.44365
2.5153
2.59819
2.64145
3.10658
2.78553
2.60127
2.48556
2.40051
2.34839
2.30519
2.28045
2.25835
2.24722
2.2349
2.23033
2.22573
2.22722
2.23254
2.2458
2.26754
2.31102
2.36874
2.44594
2.5107
2.59524
2.64265
3.11992
2.81879
2.63186
2.50793
2.41618
2.35887
2.31429
2.28899
2.2647
2.25146
2.23872
2.23284
2.22678
2.22806
2.23317
2.24667
2.26898
2.31258
2.36981
2.44196
2.51062
2.59983
2.64723
3.13766
2.83715
2.64052
2.51386
2.42144
2.36611
2.32128
2.29388
2.26884
2.25443
2.24066
2.23398
2.22776
2.229
2.23358
2.24794
2.26932
2.3147
2.36964
2.44503
2.51435
2.60071
2.64933
3.14781
2.85094
2.65813
2.53328
2.44259
2.38343
2.33435
2.30329
2.27598
2.25928
2.24399
2.23598
2.22908
2.23025
2.23349
2.25206
2.27123
2.31846
2.37142
2.45206
2.51738
2.60982
2.66187
3.15127
2.85876
2.6641
2.53849
2.44451
2.38376
2.33405
2.3028
2.2755
2.25881
2.24364
2.23562
2.22911
2.23046
2.23393
2.25282
2.27286
2.32147
2.37248
2.45399
2.51926
2.61249
2.66463
2.84437
2.52359
2.38001
2.30858
2.26542
2.24239
2.22604
2.2169
2.20664
2.20286
2.19932
2.19776
2.19914
2.20396
2.21473
2.23713
2.27596
2.34058
2.44483
2.58338
2.80355
2.9614
3.15472
2.8591
2.53108
2.38458
2.31343
2.26949
2.24674
2.22906
2.21897
2.20812
2.20419
2.20018
2.19859
2.20042
2.20504
2.21567
2.23776
2.275
2.33633
2.43503
2.56253
2.76722
2.89901
3.0765
2.86284
2.53881
2.39322
2.31969
2.27477
2.24938
2.23108
2.22085
2.20987
2.2053
2.20114
2.19969
2.20129
2.20597
2.21623
2.23771
2.27327
2.3326
2.429
2.55131
2.74087
2.85229
3.02039
2.87915
2.54758
2.39829
2.32515
2.27921
2.25351
2.23425
2.22262
2.21164
2.20686
2.2022
2.20073
2.2025
2.20706
2.21704
2.23745
2.27194
2.32785
2.41912
2.5326
2.70416
2.81294
2.96431
2.8843
2.55665
2.40811
2.33229
2.28492
2.257
2.23671
2.22468
2.21333
2.20822
2.20358
2.20222
2.20377
2.20813
2.21774
2.23806
2.27078
2.32474
2.41354
2.5217
2.68327
2.77657
2.91307
2.90261
2.56714
2.41466
2.33832
2.28968
2.26089
2.24017
2.22691
2.2154
2.20984
2.20496
2.20358
2.20511
2.20929
2.21851
2.23809
2.26931
2.3201
2.40388
2.50519
2.65228
2.74398
2.86781
2.90921
2.57796
2.42566
2.34676
2.2959
2.26495
2.24289
2.22888
2.21722
2.21157
2.20674
2.20549
2.20681
2.21068
2.21948
2.23817
2.2684
2.31777
2.39923
2.49398
2.63075
2.71683
2.83087
2.92974
2.59083
2.43374
2.35321
2.30139
2.26927
2.24692
2.23158
2.21922
2.21318
2.20833
2.2071
2.20826
2.21187
2.22032
2.23833
2.26724
2.31392
2.39124
2.47886
2.60917
2.69261
2.79523
2.93756
2.60359
2.44732
2.36302
2.3081
2.27403
2.25008
2.23417
2.22126
2.21534
2.21038
2.20928
2.21021
2.21349
2.22148
2.23855
2.26653
2.31217
2.38703
2.47007
2.59237
2.67108
2.76687
2.9604
2.61955
2.4559
2.37054
2.31478
2.27852
2.25398
2.23682
2.22334
2.21705
2.21208
2.211
2.21164
2.21465
2.22237
2.23881
2.2658
2.30948
2.3812
2.45965
2.57812
2.6519
2.74293
2.96909
2.63402
2.47243
2.38122
2.3221
2.2847
2.25813
2.24041
2.22538
2.2196
2.21429
2.21324
2.21357
2.21632
2.22363
2.23906
2.26546
2.30824
2.37757
2.45298
2.56646
2.63649
2.71864
2.99407
2.6535
2.48268
2.3907
2.32981
2.28945
2.26171
2.24331
2.22802
2.22166
2.21605
2.21492
2.21478
2.21742
2.22454
2.23924
2.26536
2.30685
2.37372
2.44735
2.55837
2.62325
2.69906
3.00299
2.66853
2.49942
2.40225
2.33814
2.2965
2.26638
2.24719
2.23015
2.22456
2.21834
2.21715
2.21654
2.219
2.22575
2.24008
2.26597
2.30631
2.37146
2.44458
2.55062
2.60563
2.68647
3.02905
2.69154
2.51395
2.4133
2.3458
2.30253
2.2707
2.25112
2.23352
2.22692
2.22016
2.21856
2.21749
2.21985
2.22648
2.24028
2.26565
2.30528
2.37018
2.44528
2.53761
2.60171
2.67915
3.03778
2.70556
2.52884
2.42648
2.35658
2.31
2.27546
2.25499
2.23632
2.23031
2.22255
2.22065
2.21912
2.2213
2.22766
2.2412
2.26592
2.30646
2.37016
2.44514
2.53059
2.59999
2.67018
2.73033
2.42667
2.32446
2.33244
2.39125
2.49275
2.54409
2.6261
2.71493
2.80322
2.89412
2.96529
3.02579
3.08041
3.13727
3.21748
3.32614
3.49295
3.70511
3.99739
4.3109
4.676
5.03351
2.73667
2.42966
2.30688
2.2953
2.33782
2.43535
2.48674
2.56128
2.64815
2.73883
2.83586
2.91817
2.98357
3.04255
3.10289
3.18925
3.29836
3.46393
3.67055
3.95927
4.27222
4.62551
4.97585
2.73994
2.43587
2.30059
2.27882
2.30239
2.39083
2.4333
2.50567
2.58647
2.67557
2.77475
2.86271
2.9361
3.00176
3.06583
3.15348
3.26597
3.43639
3.64381
3.93196
4.23634
4.59603
4.94368
2.74412
2.44025
2.29537
2.25812
2.27039
2.34307
2.38281
2.44397
2.51858
2.60301
2.70851
2.80248
2.88039
2.95244
3.02106
3.11566
3.22844
3.39923
3.60348
3.8896
4.1951
4.54298
4.88576
2.7462
2.44783
2.29713
2.25375
2.24843
2.30825
2.34139
2.39376
2.45672
2.5376
2.63983
2.73887
2.82288
2.89975
2.97225
3.06868
3.18672
3.36254
3.56832
3.85474
4.15507
4.509
4.8469
2.74984
2.45234
2.29831
2.25132
2.23397
2.27345
2.29766
2.34215
2.39556
2.46636
2.56908
2.66996
2.75762
2.83925
2.91617
3.01925
3.13768
3.31534
3.51983
3.80507
4.10833
4.45287
4.79032
2.75216
2.45871
2.30286
2.25429
2.23222
2.25231
2.27044
2.3027
2.34226
2.40468
2.50007
2.60001
2.69119
2.77709
2.85584
2.96103
3.0853
3.26758
3.47479
3.76097
4.06288
4.41199
4.74201
2.75503
2.46141
2.30607
2.25783
2.22918
2.2314
2.24123
2.26564
2.29525
2.34651
2.43331
2.53184
2.62291
2.70873
2.79121
2.9002
3.02481
3.20902
3.41666
3.70117
4.00817
4.35054
4.68187
2.75877
2.46555
2.31187
2.26247
2.232
2.22251
2.22371
2.24006
2.25751
2.29648
2.37354
2.46284
2.55379
2.64157
2.72271
2.83242
2.96211
3.14967
3.36098
3.64636
3.95569
4.30249
4.62649
2.76184
2.46733
2.31576
2.26669
2.23489
2.21541
2.21278
2.219
2.22846
2.25757
2.31866
2.40287
2.48887
2.57233
2.65401
2.76343
2.89222
3.07995
3.29311
3.57528
3.89119
4.23301
4.55909
2.76589
2.47055
2.32157
2.27179
2.23693
2.2159
2.20718
2.2061
2.20846
2.22542
2.27606
2.34464
2.42593
2.50678
2.58387
2.69063
2.82208
3.01033
3.22748
3.50854
3.83002
4.17547
4.49526
2.77024
2.47199
2.32484
2.27465
2.24094
2.21661
2.2085
2.19898
2.19589
2.20598
2.23939
2.29911
2.37068
2.44424