/*--------------------------------*- C++ -*----------------------------------*\
  =========                 |
  \\      /  F ield         | OpenFOAM: The Open Source CFD Toolbox
   \\    /   O peration     | Website:  https://openfoam.org
    \\  /    A nd           | Version:  7
     \\/     M anipulation  |
\*---------------------------------------------------------------------------*/
FoamFile
{
    version     2.0;
    format      ascii;
    class       volScalarField;
    location    "70";
    object      p;
}
// * * * * * * * * * * * * * * * * * * * * * * * * * * * * * * * * * * * * * //

dimensions      [0 2 -2 0 0 0 0];

internalField   nonuniform List<scalar> 
12842
(
-0.012711
-0.0169659
-0.027365
-0.043181
-0.0604776
-0.0752361
-0.0835105
-0.0790247
-0.0510607
0.0169858
0.148383
0.372648
0.723189
1.23291
1.92738
2.81685
3.89053
5.11472
6.43609
7.78938
9.1101
10.34
11.4459
-0.0971727
-0.108989
-0.133339
-0.174325
-0.226353
-0.285595
-0.350726
-0.418742
-0.482039
-0.526627
-0.530729
-0.464343
-0.290781
0.0295067
0.531824
1.23817
2.14992
3.24357
4.47204
5.77085
7.07205
8.30802
9.43947
-0.164573
-0.184778
-0.221837
-0.286258
-0.369499
-0.468651
-0.585633
-0.720817
-0.869775
-1.02132
-1.1554
-1.24182
-1.24093
-1.10697
-0.795663
-0.274404
0.468858
1.41924
2.53488
3.75186
5.00027
6.20436
7.32284
-0.21875
-0.244308
-0.293861
-0.380619
-0.491933
-0.627139
-0.791873
-0.98985
-1.21988
-1.47386
-1.73384
-1.96983
-2.1397
-2.19198
-2.07411
-1.74368
-1.17896
-0.387055
0.595145
1.7046
2.87096
4.01193
5.08789
-0.262709
-0.288605
-0.351262
-0.458674
-0.594511
-0.761839
-0.970122
-1.22629
-1.53258
-1.88444
-2.26662
-2.65011
-2.991
-3.23287
-3.31545
-3.18704
-2.81644
-2.20289
-1.37754
-0.401423
0.656742
1.70899
2.72091
-0.298266
-0.319673
-0.39647
-0.521886
-0.67836
-0.87363
-1.1207
-1.42951
-1.80591
-2.24954
-2.74847
-3.2757
-3.78649
-4.22048
-4.51047
-4.59594
-4.43625
-4.02235
-3.3784
-2.56195
-1.63792
-0.698952
0.228206
-0.326634
-0.339966
-0.431788
-0.571787
-0.74498
-0.963836
-1.24429
-1.59907
-2.03784
-2.56496
-3.17252
-3.8367
-4.51315
-5.13894
-5.64096
-5.95071
-6.01819
-5.82572
-5.38893
-4.76052
-3.99884
-3.20065
-2.38106
-0.348851
-0.351997
-0.45916
-0.609985
-0.79626
-1.03438
-1.34249
-1.73589
-2.22826
-2.82918
-3.53537
-4.32749
-5.1629
-5.97774
-6.69422
-7.23681
-7.54636
-7.59635
-7.39223
-6.98081
-6.41051
-5.78255
-5.09408
-0.367158
-0.357818
-0.479417
-0.636391
-0.831018
-1.08216
-1.40886
-1.82858
-2.35836
-3.01243
-3.79181
-4.6821
-5.64328
-6.61241
-7.50905
-8.25299
-8.77762
-9.0492
-9.06289
-8.86068
-8.4771
-8.02445
-7.46725
-0.385656
-0.360804
-0.498196
-0.6588
-0.859882
-1.12124
-1.4619
-1.90131
-2.45918
-3.15339
-3.98842
-4.95408
-6.01291
-7.10357
-8.14442
-9.05278
-9.7571
-10.2187
-10.4244
-10.4117
-10.2034
-9.91371
-9.49432
-0.399898
-0.36126
-0.515104
-0.677956
-0.885347
-1.15633
-1.50961
-1.96702
-2.55077
-3.28222
-4.16931
-5.20627
-6.35859
-7.56741
-8.75092
-9.82531
-10.7153
-11.3781
-11.7928
-11.9915
-11.9853
-11.8866
-11.6361
-0.409915
-0.360113
-0.529782
-0.693463
-0.90688
-1.18642
-1.55061
-2.02404
-2.63121
-3.39689
-4.33264
-5.43739
-6.68021
-8.00558
-9.3325
-10.5771
-11.6613
-12.5388
-13.1809
-13.614
-13.8363
-13.9562
-13.9019
-0.416826
-0.358303
-0.54243
-0.705828
-0.925018
-1.21187
-1.58532
-2.07291
-2.70117
-3.4983
-4.47969
-5.64938
-6.9806
-8.42201
-9.89433
-11.3147
-12.6025
-13.7087
-14.5965
-15.2859
-15.7616
-16.1254
-16.294
-0.42147
-0.356409
-0.553236
-0.715731
-0.940538
-1.23351
-1.61494
-2.1152
-2.76268
-3.589
-4.61362
-5.84594
-7.26395
-8.82122
-10.441
-12.0422
-13.5424
-14.8902
-16.0402
-17.0058
-17.7573
-18.3876
-18.8042
-0.424374
-0.354694
-0.562281
-0.723731
-0.953973
-1.25199
-1.64046
-2.15223
-2.81737
-3.67099
-4.73675
-6.02967
-7.53296
-9.20584
-10.9748
-12.7615
-14.4821
-16.0829
-17.5102
-18.7695
-19.8167
-20.733
-21.4194
-0.425927
-0.353272
-0.56966
-0.730279
-0.965612
-1.26771
-1.6625
-2.18474
-2.86616
-3.74533
-4.85021
-6.20167
-7.78861
-9.57656
-11.4961
-13.4722
-15.4199
-17.2837
-19.0007
-20.5679
-21.9262
-23.1427
-24.1144
-0.426489
-0.352144
-0.575546
-0.73574
-0.975611
-1.28096
-1.68146
-2.21316
-2.90949
-3.81246
-4.95443
-6.36225
-8.03099
-9.93318
-12.0041
-14.1728
-16.3533
-18.4877
-20.5034
-22.3876
-24.0656
-25.5887
-26.8525
-0.426352
-0.351249
-0.580168
-0.740363
-0.984045
-1.29196
-1.69757
-2.23769
-2.94749
-3.87242
-5.04924
-6.51097
-8.25926
-10.2743
-12.4966
-14.8596
-17.2762
-19.6853
-22.0034
-24.2064
-26.204
-28.0294
-29.5806
-0.425743
-0.350496
-0.58377
-0.744294
-0.990983
-1.30093
-1.71104
-2.25846
-2.98028
-3.9252
-5.13442
-6.64723
-8.47228
-10.5978
-12.9703
-15.5274
-18.18
-20.8627
-23.4798
-25.9938
-28.2991
-30.4096
-32.2292
-0.424827
-0.349803
-0.586591
-0.747593
-0.996518
-1.3081
-1.72204
-2.27565
-3.00797
-3.97085
-5.20983
-6.77058
-8.66902
-10.9019
-13.4216
-16.1696
-19.0539
-22.0029
-24.9063
-27.7122
-30.3001
-32.6644
-34.718
-0.423735
-0.3491
-0.588788
-0.750249
-1.00076
-1.31366
-1.73073
-2.28943
-3.03073
-4.00943
-5.27535
-6.88051
-8.84825
-11.184
-13.8456
-16.7781
-19.8842
-23.084
-26.251
-29.3169
-32.1481
-34.7209
-36.96
-0.422521
-0.348383
-0.590541
-0.752276
-1.00385
-1.31778
-1.73723
-2.2999
-3.04861
-4.04088
-5.33064
-6.97614
-9.00811
-11.4404
-14.2361
-17.3419
-20.6536
-24.08
-27.4767
-30.7584
-33.781
-36.5056
-38.8708
-0.421133
-0.347555
-0.591732
-0.753582
-1.00591
-1.32061
-1.74177
-2.30742
-3.06208
-4.06569
-5.37607
-7.05741
-9.14752
-11.6682
-14.5866
-17.8497
-21.3434
-24.9633
-28.5452
-31.9879
-35.1402
-37.9535
-40.381
-0.418753
-0.34688
-0.592532
-0.754221
-1.0069
-1.32196
-1.74398
-2.31132
-3.06985
-4.0813
-5.40685
-7.11595
-9.25322
-11.8481
-14.8717
-18.2703
-21.9186
-25.6966
-29.4198
-32.971
-36.1954
-39.0379
-41.4645
-0.420878
-0.348506
-0.595232
-0.756441
-1.00911
-1.32412
-1.74623
-2.31407
-3.0745
-4.09059
-5.42663
-7.1567
-9.33188
-11.988
-15.099
-18.6076
-22.3749
-26.2623
-30.0659
-33.6547
-36.8762
-39.6772
-42.0397
-0.422288
-0.350101
-0.597678
-0.758694
-1.01172
-1.32715
-1.75004
-2.31935
-3.0828
-4.10452
-5.4513
-7.2008
-9.40882
-12.1151
-15.2933
-18.8792
-22.7187
-26.6539
-30.4667
-34.0179
-37.1658
-39.866
-42.1175
-0.422473
-0.351125
-0.599087
-0.760001
-1.01344
-1.32939
-1.75325
-2.32431
-3.09094
-4.11805
-5.47429
-7.23982
-9.4734
-12.2163
-15.4393
-19.069
-22.9353
-26.8631
-30.6258
-34.0827
-37.1088
-39.672
-41.7854
-0.422101
-0.351786
-0.599659
-0.760444
-1.01415
-1.33041
-1.75499
-2.3274
-3.0964
-4.12748
-5.49046
-7.26713
-9.51757
-12.2824
-15.5274
-19.1678
-23.0192
-26.892
-30.5579
-33.8801
-36.7534
-39.159
-41.1221
-0.421495
-0.352231
-0.59971
-0.760455
-1.01434
-1.33079
-1.75586
-2.3292
-3.09973
-4.1332
-5.5001
-7.28282
-9.54115
-12.313
-15.5571
-19.177
-22.9751
-26.7522
-30.284
-33.4422
-36.1426
-38.3799
-40.1886
-0.420706
-0.352498
-0.5995
-0.760414
-1.0145
-1.33117
-1.75669
-2.33073
-3.10218
-4.13678
-5.50507
-7.28893
-9.54629
-12.3103
-15.5312
-19.1006
-22.8107
-26.4572
-29.8252
-32.7986
-35.3137
-37.3781
-39.0327
-0.419832
-0.352638
-0.599258
-0.760582
-1.01496
-1.33191
-1.75789
-2.33244
-3.10429
-4.13883
-5.50606
-7.28618
-9.53371
-12.2752
-15.4513
-18.9421
-22.5332
-26.02
-29.2013
-31.9758
-34.2994
-36.1906
-37.6942
-0.419049
-0.352745
-0.599171
-0.76107
-1.01577
-1.33303
-1.75938
-2.33415
-3.10578
-4.13899
-5.50257
-7.27398
-9.50275
-12.2073
-15.3178
-18.7044
-22.1492
-25.4526
-28.4304
-30.9977
-33.1283
-34.8494
-36.2074
-0.418484
-0.352889
-0.599325
-0.76186
-1.01684
-1.33432
-1.76085
-2.33542
-3.10611
-4.13658
-5.49383
-7.25145
-9.45262
-12.1062
-15.1316
-18.3907
-21.6661
-24.7671
-27.53
-29.8863
-31.8256
-33.3818
-34.6007
-0.418148
-0.35309
-0.599699
-0.762818
-1.01797
-1.3355
-1.76193
-2.33586
-3.10483
-4.13113
-5.47933
-7.21813
-9.38304
-11.9723
-14.8945
-18.0053
-21.0918
-23.9761
-26.5165
-28.6611
-30.4131
-31.8109
-32.8977
-0.41796
-0.353318
-0.600197
-0.76378
-1.01893
-1.33634
-1.76238
-2.33521
-3.10172
-4.12247
-5.45897
-7.17406
-9.2944
-11.8067
-14.6093
-17.5536
-20.4349
-23.0918
-25.4055
-27.34
-28.9097
-30.1556
-31.1172
-0.417802
-0.353534
-0.600711
-0.764597
-1.01959
-1.33669
-1.76209
-2.33343
-3.09681
-4.1107
-5.43294
-7.1196
-9.18745
-11.6111
-14.2791
-17.0412
-19.7045
-22.1262
-24.2114
-25.9386
-27.3315
-28.4321
-29.2749
-0.41758
-0.353706
-0.601155
-0.765187
-1.01989
-1.33654
-1.76109
-2.33066
-3.09031
-4.09611
-5.40162
-7.05535
-9.06325
-11.3874
-13.9078
-16.4745
-18.9094
-21.0909
-22.9474
-24.4709
-25.6925
-26.6542
-27.3844
-0.417238
-0.353827
-0.601486
-0.76553
-1.01985
-1.33598
-1.75955
-2.32711
-3.08248
-4.07903
-5.36543
-6.98189
-8.92287
-11.1379
-13.4992
-15.8597
-18.0585
-19.9968
-21.6255
-22.9494
-24.005
-24.8335
-25.4565
-0.416769
-0.353903
-0.601698
-0.765667
-1.01956
-1.33513
-1.75764
-2.323
-3.07361
-4.05975
-5.32472
-6.89982
-8.76746
-10.8648
-13.0573
-15.2032
-17.1606
-18.854
-20.2568
-21.3848
-22.2791
-22.9788
-23.4988
-0.416192
-0.353956
-0.601813
-0.765656
-1.01912
-1.33413
-1.75554
-2.31853
-3.06386
-4.03846
-5.27976
-6.80962
-8.59811
-10.5702
-12.5864
-14.5113
-16.2238
-17.6722
-18.851
-19.7863
-20.5225
-21.0962
-21.5155
-0.415552
-0.354004
-0.601861
-0.765569
-1.01864
-1.33309
-1.75335
-2.31378
-3.05331
-4.01524
-5.23072
-6.71178
-8.41597
-10.2566
-12.0905
-13.7903
-15.2564
-16.4605
-17.4171
-18.1618
-18.7418
-19.1906
-19.5098
-0.414889
-0.354069
-0.601873
-0.765457
-1.01816
-1.33207
-1.75111
-2.30877
-3.04195
-3.99008
-5.1777
-6.60673
-8.22216
-9.92645
-11.5739
-13.0465
-14.2663
-15.2277
-15.9637
-16.519
-16.9434
-17.2676
-17.4869
-0.414244
-0.354158
-0.601871
-0.765358
-1.01772
-1.33108
-1.74881
-2.30344
-3.0297
-3.96294
-5.12081
-6.49492
-8.0179
-9.58214
-11.0408
-12.286
-13.2613
-13.9825
-14.4998
-14.8662
-15.135
-15.3342
-15.4536
-0.413642
-0.354276
-0.601868
-0.765282
-1.01732
-1.33008
-1.74639
-2.2977
-3.01647
-3.93378
-5.06016
-6.37686
-7.80443
-9.2262
-10.4953
-11.5151
-12.2492
-12.7341
-13.035
-13.2132
-13.3257
-13.3988
-13.4171
-0.413097
-0.354414
-0.601864
-0.765227
-1.01693
-1.32904
-1.74377
-2.29146
-3.00218
-3.90258
-4.99591
-6.2531
-7.58305
-8.86118
-9.94178
-10.74
-11.2382
-11.4918
-11.5798
-11.5711
-11.5261
-11.4705
-11.3851
-0.412612
-0.354565
-0.601854
-0.765174
-1.01652
-1.3279
-1.7409
-2.28467
-2.98678
-3.86938
-4.92828
-6.12423
-7.35506
-8.48954
-9.38422
-9.96651
-10.2362
-10.2656
-10.1454
-9.95195
-9.7487
-9.56077
-9.36727
-0.412169
-0.354712
-0.601826
-0.765106
-1.01605
-1.32662
-1.73772
-2.27727
-2.97029
-3.83427
-4.85753
-5.99091
-7.12179
-8.11379
-8.82664
-9.20071
-9.2512
-9.06569
-8.74397
-8.36951
-8.00814
-7.6843
-7.37833
-0.411744
-0.35483
-0.60176
-0.764991
-1.01549
-1.32515
-1.7342
-2.26928
-2.95276
-3.79739
-4.784
-5.8538
-6.88455
-7.73627
-8.27283
-8.44826
-8.29121
-7.90265
-7.38864
-6.839
-6.32236
-5.8615
-5.43979
-0.411002
-0.354857
-0.601588
-0.764792
-1.01483
-1.32356
-1.73054
-2.26115
-2.93516
-3.76072
-4.71146
-5.7198
-6.655
-7.37537
-7.74942
-7.74518
-7.40232
-6.83289
-6.14698
-5.43761
-4.7791
-4.19191
-3.65787
-0.411203
-0.355274
-0.601844
-0.764878
-1.01437
-1.32217
-1.72722
-2.25382
-2.91946
-3.72828
-4.64775
-5.60313
-6.45699
-7.06776
-7.30829
-7.15971
-6.66982
-5.95806
-5.1393
-4.30188
-3.53157
-2.84803
-2.21999
-0.411415
-0.35559
-0.602119
-0.765011
-1.01405
-1.32108
-1.7246
-2.24801
-2.90697
-3.70239
-4.59682
-5.51024
-6.30022
-6.82659
-6.96564
-6.70999
-6.11325
-5.2981
-4.38786
-3.45741
-2.60652
-1.86125
-1.16813
-0.411605
-0.355794
-0.602394
-0.765129
-1.01378
-1.32017
-1.72249
-2.24344
-2.89716
-3.68201
-4.55664
-5.43711
-6.17717
-6.63871
-6.70042
-6.36509
-5.69048
-4.7999
-3.82718
-2.83307
-1.92058
-1.13821
-0.403581
-0.41188
-0.355936
-0.602681
-0.765194
-1.01346
-1.31929
-1.72065
-2.2397
-2.88933
-3.66589
-4.5249
-5.37952
-6.08047
-6.49196
-6.49419
-6.09891
-5.36645
-4.42129
-3.40266
-2.37172
-1.40755
-0.599711
0.158167
-0.412229
-0.35603
-0.602957
-0.765161
-1.01304
-1.31835
-1.71894
-2.23654
-2.883
-3.65304
-4.49968
-5.33394
-6.00408
-6.37655
-6.33259
-5.89154
-5.11466
-4.13149
-3.0738
-2.02815
-1.0216
-0.190007
0.577145
-0.412623
-0.356068
-0.603204
-0.765038
-1.01254
-1.31739
-1.71741
-2.23394
-2.87795
-3.64287
-4.47968
-5.29776
-5.94344
-6.28504
-6.20473
-5.72805
-4.91565
-3.90705
-2.81294
-1.76466
-0.729007
0.127857
0.897614
-0.412981
-0.356043
-0.603383
-0.764797
-1.01195
-1.31641
-1.71604
-2.23183
-2.87404
-3.63502
-4.46412
-5.26951
-5.89603
-6.21353
-6.10506
-5.60102
-4.76025
-3.73563
-2.60912
-1.55889
-0.512033
0.36796
1.13972
-0.413519
-0.356084
-0.603713
-0.764719
-1.0116
-1.31578
-1.71517
-2.23044
-2.87114
-3.62865
-4.45092
-5.24502
-5.8546
-6.15086
-6.01802
-5.49053
-4.62509
-3.58832
-2.43566
-1.37758
-0.331922
0.569364
1.35091
-0.413726
-0.355862
-0.603612
-0.764111
-1.01059
-1.31435
-1.71329
-2.22769
-2.86636
-3.6197
-4.43437
-5.21662
-5.80954
-6.08623
-5.93292
-5.38795
-4.5059
-3.46437
-2.29951
-1.23245
-0.206216
0.697122
1.48036
-0.413967
-0.355697
-0.603575
-0.763587
-1.00969
-1.31305
-1.71152
-2.22489
-2.86123
-3.60992
-4.41636
-5.18608
-5.76193
-6.01914
-5.84641
-5.28614
-4.39125
-3.34651
-2.1798
-1.0989
-0.0946952
0.802914
1.59152
-0.414265
-0.355621
-0.603658
-0.763239
-1.00906
-1.31209
-1.71012
-2.22244
-2.85632
-3.6001
-4.39789
-5.15439
-5.71226
-5.94884
-5.75543
-5.17876
-4.27094
-3.22022
-2.05783
-0.960049
0.0308036
0.920931
1.71648
-0.414565
-0.355582
-0.603792
-0.762998
-1.00859
-1.31134
-1.70892
-2.22011
-2.85137
-3.58996
-4.37867
-5.12126
-5.66021
-5.87492
-5.65954
-5.06513
-4.14396
-3.08441
-1.93067
-0.819375
0.165937
1.03945
1.82838
-0.414859
-0.355567
-0.603962
-0.76283
-1.0082
-1.31065
-1.7077
-2.2176
-2.84599
-3.57903
-4.35815
-5.08613
-5.60534
-5.7973
-5.55933
-4.94664
-4.01267
-2.94295
-1.80051
-0.683976
0.299439
1.14587
1.91104
-0.415161
-0.355581
-0.60418
-0.762733
-1.00787
-1.30998
-1.70638
-2.21479
-2.84003
-3.56712
-4.33613
-5.04881
-5.54756
-5.71608
-5.45527
-4.8242
-3.87872
-2.79886
-1.66831
-0.555809
0.427799
1.24638
1.9788
-0.415485
-0.355627
-0.604442
-0.762678
-1.00756
-1.30924
-1.70485
-2.21158
-2.8334
-3.55418
-4.31255
-5.00926
-5.48681
-5.63126
-5.34733
-4.69778
-3.7421
-2.65296
-1.53289
-0.431886
0.553089
1.35353
2.05383
-0.415816
-0.355685
-0.604711
-0.762615
-1.0072
-1.30836
-1.70305
-2.2079
-2.82607
-3.54019
-4.28746
-4.96752
-5.42317
-5.5429
-5.23545
-4.56718
-3.60238
-2.50504
-1.39264
-0.307711
0.677713
1.47189
2.14697
-0.416137
-0.355738
-0.604952
-0.762487
-1.0067
-1.30726
-1.7009
-2.20373
-2.81805
-3.52522
-4.26092
-4.92372
-5.3568
-5.45127
-5.11999
-4.43285
-3.45972
-2.35541
-1.24748
-0.180601
0.801574
1.59618
2.25471
-0.416431
-0.355771
-0.605135
-0.762269
-1.00606
-1.30594
-1.69843
-2.19914
-2.80947
-3.50943
-4.23317
-4.87817
-5.28815
-5.35707
-5.00198
-4.29624
-3.31569
-2.20614
-1.1003
-0.0519532
0.921445
1.71631
2.36595
-0.416694
-0.355786
-0.605256
-0.76196
-1.00529
-1.30443
-1.69574
-2.19427
-2.80049
-3.49302
-4.20442
-4.83116
-5.21766
-5.26099
-4.88262
-4.1592
-3.17265
-2.06066
-0.956465
0.0730441
1.03146
1.82258
2.46409
-0.416922
-0.355784
-0.605322
-0.761583
-1.00442
-1.30281
-1.69291
-2.18923
-2.79125
-3.47614
-4.17483
-4.78289
-5.1456
-5.16348
-4.7628
-4.02325
-3.03286
-1.92245
-0.821912
0.187882
1.12464
1.9091
2.53885
-0.41712
-0.355773
-0.605348
-0.761165
-1.00351
-1.30114
-1.69004
-2.18411
-2.78181
-3.45878
-4.14433
-4.7332
-5.07178
-5.0644
-4.64253
-3.8888
-2.89725
-1.79342
-0.700693
0.288033
1.19561
1.97046
2.58973
-0.417288
-0.355757
-0.605345
-0.760732
-1.00258
-1.29947
-1.68715
-2.17892
-2.77212
-3.44082
-4.11267
-4.68174
-4.9957
-4.96307
-4.52106
-3.7551
-2.76517
-1.67308
-0.593582
0.372792
1.24412
2.00017
2.61288
-0.417433
-0.355739
-0.605328
-0.760298
-1.00165
-1.2978
-1.68425
-2.1736
-2.76205
-3.422
-4.07947
-4.62796
-4.91659
-4.85851
-4.3971
-3.62054
-2.63455
-1.55869
-0.498107
0.444893
1.27637
1.99851
2.59677
-0.417551
-0.355719
-0.605298
-0.75987
-1.00073
-1.29613
-1.68129
-2.16807
-2.75142
-3.40207
-4.04435
-4.57134
-4.83383
-4.74985
-4.26941
-3.48339
-2.50291
-1.44644
-0.409788
0.508813
1.30184
1.97899
2.54563
-0.417649
-0.355696
-0.605259
-0.759444
-0.999807
-1.29443
-1.67819
-2.16219
-2.74004
-3.38076
-4.00699
-4.51152
-4.74697
-4.63655
-4.13718
-3.34241
-2.36823
-1.33285
-0.323805
0.56898
1.32854
1.96136
2.48508
-0.417721
-0.355666
-0.605206
-0.759013
-0.998858
-1.29265
-1.67491
-2.15587
-2.72779
-3.35792
-3.96725
-4.44837
-4.65598
-4.51864
-4.0004
-3.19738
-2.2298
-1.21593
-0.236626
0.628514
1.35952
1.95771
2.44029
-0.41777
-0.355629
-0.605135
-0.758565
-0.997864
-1.29077
-1.67137
-2.14902
-2.71457
-3.33346
-3.92508
-4.38196
-4.56114
-4.39665
-3.85982
-3.04916
-2.08837
-1.0958
-0.147139
0.688224
1.39239
1.96519
2.41572
-0.417789
-0.355582
-0.605039
-0.758088
-0.996806
-1.28875
-1.66754
-2.1416
-2.70034
-3.3074
-3.88059
-4.31259
-4.46301
-4.27154
-3.71682
-2.89955
-1.94611
-0.974638
-0.0569258
0.746404
1.42132
1.97092
2.39696
-0.417778
-0.355523
-0.604915
-0.757572
-0.995665
-1.28656
-1.66338
-2.13358
-2.68509
-3.27977
-3.83393
-4.24058
-4.36225
-4.1444
-3.57307
-2.75088
-1.80603
-0.856037
0.0303736
0.799483
1.44062
1.96297
2.3664
-0.41773
-0.355452
-0.604754
-0.757009
-0.994431
-1.2842
-1.65888
-2.12496
-2.66886
-3.25067
-3.78531
-4.16632
-4.25952
-4.01633
-3.43024
-2.60554
-1.67134
-0.744024
0.110394
0.843737
1.44733
1.93723
2.31606
-0.417646
-0.355367
-0.604554
-0.756391
-0.993095
-1.28165
-1.65404
-2.11575
-2.65169
-3.22017
-3.73487
-4.09007
-4.15532
-3.88817
-3.28967
-2.4655
-1.54478
-0.642091
0.179396
0.876633
1.44191
1.89697
2.24947
-0.417518
-0.355269
-0.604311
-0.755717
-0.991654
-1.27891
-1.64886
-2.10596
-2.63359
-3.18834
-3.6827
-4.01203
-4.04998
-3.76049
-3.15227
-2.33209
-1.42817
-0.55244
0.235243
0.897496
1.42692
1.84876
2.17558
-0.417347
-0.355158
-0.604023
-0.754982
-0.990105
-1.27598
-1.64335
-2.0956
-2.61458
-3.15516
-3.62882
-3.93222
-3.94361
-3.6335
-3.01839
-2.2058
-1.32214
-0.475714
0.277612
0.906957
1.40521
1.79822
2.10208
-0.417126
-0.355033
-0.603686
-0.754186
-0.988447
-1.27286
-1.6375
-2.08466
-2.59466
-3.12064
-3.57321
-3.85064
-3.83619
-3.50716
-2.8879
-2.08639
-1.22623
-0.411091
0.307686
0.90635
1.37836
1.74771
2.03221
-0.416858
-0.354894
-0.603299
-0.753327
-0.986678
-1.26955
-1.6313
-2.07314
-2.57377
-3.08469
-3.51576
-3.76714
-3.72755
-3.38121
-2.76033
-1.97301
-1.13915
-0.356759
0.327507
0.896997
1.34644
1.69637
1.96473
-0.416533
-0.354741
-0.602859
-0.752403
-0.984795
-1.26604
-1.62476
-2.061
-2.55188
-3.04724
-3.45637
-3.68159
-3.61751
-3.25535
-2.63507
-1.86451
-1.05912
-0.310436
0.339407
0.880168
1.30864
1.64172
1.89617
-0.416157
-0.354573
-0.602364
-0.751412
-0.982794
-1.26233
-1.61784
-2.0482
-2.52892
-3.00819
-3.3949
-3.59386
-3.50591
-3.1293
-2.51147
-1.75969
-0.984316
-0.269897
0.345577
0.85704
1.26425
1.58108
1.82276
-0.415718
-0.354389
-0.601809
-0.75035
-0.980668
-1.25839
-1.61052
-2.03472
-2.50481
-2.96744
-3.33127
-3.50387
-3.39269
-3.00291
-2.38907
-1.65753
-0.913175
-0.233284
0.347873
0.828977
1.21334
1.51301
1.74187
-0.415222
-0.354187
-0.601194
-0.749213
-0.97841
-1.25422
-1.60278
-2.02048
-2.47949
-2.92491
-3.26541
-3.41161
-3.2779
-2.8762
-2.26767
-1.5574
-0.844618
-0.199318
0.347725
0.797554
1.15713
1.43807
1.65324
-0.414657
-0.353966
-0.600511
-0.747995
-0.976007
-1.2498
-1.59458
-2.00544
-2.45288
-2.88052
-3.19728
-3.31716
-3.16172
-2.74941
-2.14736
-1.45908
-0.778098
-0.167277
0.346134
0.764503
1.09793
1.35856
1.55889
-0.414028
-0.353722
-0.599757
-0.74669
-0.973449
-1.24511
-1.58588
-1.98955
-2.42491
-2.83423
-3.12691
-3.22064
-3.04447
-2.62298
-2.02855
-1.36282
-0.713619
-0.136985
0.343615
0.731259
1.03828
1.27777
1.46222
-0.413322
-0.353455
-0.598926
-0.74529
-0.970722
-1.24012
-1.57666
-1.97276
-2.39554
-2.78601
-3.05438
-3.12231
-2.92656
-2.49747
-1.91189
-1.26919
-0.651584
-0.108648
0.340224
0.698641
0.980139
1.19869
1.36694
-0.412542
-0.35316
-0.598012
-0.743786
-0.967813
-1.23481
-1.56687
-1.95502
-2.36472
-2.73585
-2.97977
-3.02244
-2.80849
-2.37361
-1.7982
-1.17904
-0.592722
-0.0827879
0.335635
0.666737
0.924435
1.12318
1.27579
-0.411677
-0.352835
-0.597009
-0.74217
-0.964705
-1.22915
-1.55648
-1.93628
-2.3324
-2.68378
-2.90323
-2.92136
-2.6908
-2.25212
-1.68834
-1.09326
-0.537834
-0.060028
0.329339
0.635135
0.871277
1.05203
1.19034
-0.410727
-0.352477
-0.59591
-0.740432
-0.961382
-1.22313
-1.54544
-1.9165
-2.29856
-2.62982
-2.82493
-2.81942
-2.57406
-2.13379
-1.58325
-1.01284
-0.487786
-0.0411115
0.320757
0.603219
0.819934
0.984773
1.11057
-0.409702
-0.352087
-0.594713
-0.738564
-0.957827
-1.2167
-1.53373
-1.89562
-2.26317
-2.57401
-2.74505
-2.71699
-2.45877
-2.01923
-1.48355
-0.938382
-0.443021
-0.0263957
0.309584
0.570827
0.770309
0.921722
1.03667
-0.408628
-0.351693
-0.593431
-0.736551
-0.953997
-1.2098
-1.52122
-1.87352
-2.22612
-2.51635
-2.66384
-2.61468
-2.34593
-1.9098
-1.39082
-0.87152
-0.404944
-0.0171205
0.294501
0.537491
0.719977
0.858237
0.965339
-0.408082
-0.351456
-0.592236
-0.734395
-0.949646
-1.20178
-1.50665
-1.84813
-2.18447
-2.45334
-2.5778
-2.50983
-2.23427
-1.8057
-1.30642
-0.814107
-0.375115
-0.0133431
0.274231
0.503249
0.679993
0.809723
0.908757
-0.405895
-0.349821
-0.588938
-0.729713
-0.941896
-1.18912
-1.48564
-1.81407
-2.1322
-2.37923
-2.48325
-2.40289
-2.12992
-1.71901
-1.24762
-0.787015
-0.376999
-0.0373544
0.229786
0.43864
0.603422
0.730538
0.83009
-0.403791
-0.348099
-0.585168
-0.72413
-0.932432
-1.17354
-1.45995
-1.77308
-2.07072
-2.29444
-2.37827
-2.28805
-2.02199
-1.63368
-1.1945
-0.768409
-0.389504
-0.0718828
0.180133
0.375342
0.530085
0.652022
0.748398
-0.401901
-0.346528
-0.581315
-0.718244
-0.922135
-1.15629
-1.43118
-1.72706
-2.0019
-2.20008
-2.26217
-2.16154
-1.90286
-1.53828
-1.13264
-0.742018
-0.395769
-0.102675
0.135651
0.323025
0.470253
0.584731
0.675135
-0.399788
-0.344827
-0.577047
-0.711757
-0.910737
-1.13712
-1.39913
-1.67586
-1.9257
-2.09629
-2.1353
-2.0239
-1.77306
-1.43313
-1.06216
-0.707962
-0.395591
-0.130901
0.0877656
0.262693
0.400751
0.508541
0.594735
-0.397238
-0.342804
-0.572085
-0.704282
-0.897711
-1.1153
-1.36288
-1.61852
-1.84146
-1.98327
-1.9993
-1.87845
-1.6373
-1.32362
-0.988523
-0.671488
-0.393485
-0.159293
0.0346724
0.192154
0.318829
0.419764
0.502038
-0.394206
-0.340407
-0.566304
-0.695577
-0.882652
-1.09022
-1.32168
-1.55435
-1.74897
-1.86185
-1.85641
-1.72878
-1.49985
-1.21383
-0.914783
-0.634436
-0.389405
-0.183784
-0.0136401
0.125831
0.239787
0.331946
0.408203
-0.390656
-0.337568
-0.559562
-0.685403
-0.865185
-1.06137
-1.27498
-1.48301
-1.64848
-1.73319
-1.70883
-1.57777
-1.36356
-1.1059
-0.841836
-0.596267
-0.381511
-0.200936
-0.0514808
0.0713315
0.172257
0.254354
0.322916
-0.386457
-0.334145
-0.55161
-0.673421
-0.844837
-1.02819
-1.22226
-1.40427
-1.54034
-1.59848
-1.55843
-1.42754
-1.23033
-1.00123
-0.770521
-0.557421
-0.370784
-0.213058
-0.0822257
0.0253663
0.113946
0.186213
0.246914
-0.381482
-0.329963
-0.542158
-0.659252
-0.821116
-0.990135
-1.16312
-1.3181
-1.42518
-1.459
-1.40684
-1.27963
-1.1013
-0.900645
-0.701714
-0.519142
-0.359207
-0.223341
-0.110017
-0.0164189
0.0609971
0.124468
0.17808
-0.375616
-0.324859
-0.530951
-0.642561
-0.793625
-0.946875
-1.09749
-1.22499
-1.30416
-1.31644
-1.25579
-1.13524
-0.976933
-0.804181
-0.635358
-0.481388
-0.346576
-0.231532
-0.134823
-0.0543103
0.0128471
0.0683686
0.115611
-0.368796
-0.318698
-0.517782
-0.623089
-0.762128
-0.898358
-1.02577
-1.12608
-1.17924
-1.17317
-1.10739
-0.995706
-0.85763
-0.711453
-0.570582
-0.442805
-0.330967
-0.235147
-0.153974
-0.0857449
-0.0282472
0.0198288
0.0610942
-0.360932
-0.311336
-0.502466
-0.600635
-0.726523
-0.844813
-0.948853
-1.02316
-1.05302
-1.03218
-0.964315
-0.862908
-0.744372
-0.622551
-0.5068
-0.40227
-0.310746
-0.232008
-0.164842
-0.107852
-0.0593443
-0.0183011
0.0172491
-0.351933
-0.302611
-0.484819
-0.575028
-0.686828
-0.786709
-0.867984
-0.918433
-0.928529
-0.896792
-0.829581
-0.739197
-0.638765
-0.53841
-0.444361
-0.359773
-0.285609
-0.221525
-0.166506
-0.119436
-0.0790259
-0.0444909
-0.0143321
-0.341655
-0.292322
-0.46464
-0.546129
-0.643166
-0.724722
-0.784679
-0.814346
-0.808832
-0.770164
-0.705958
-0.626745
-0.542511
-0.460399
-0.384422
-0.316368
-0.256624
-0.204785
-0.160032
-0.121488
-0.0881744
-0.0594875
-0.0342888
-0.329961
-0.280259
-0.441743
-0.51386
-0.59581
-0.659744
-0.700632
-0.713284
-0.696584
-0.654704
-0.595317
-0.526925
-0.456787
-0.389773
-0.328423
-0.273683
-0.225595
-0.183723
-0.147401
-0.115942
-0.0886
-0.0649028
-0.0439942
-0.316684
-0.266191
-0.415974
-0.478256
-0.54522
-0.592861
-0.617571
-0.617309
-0.593649
-0.551701
-0.498335
-0.440108
-0.382072
-0.327459
-0.277839
-0.233697
-0.194892
-0.16101
-0.131493
-0.105805
-0.0833648
-0.0638013
-0.0464635
-0.301705
-0.249935
-0.387273
-0.439516
-0.492072
-0.525306
-0.537097
-0.527911
-0.500932
-0.461275
-0.414606
-0.365763
-0.318166
-0.273877
-0.233844
-0.198286
-0.167001
-0.139613
-0.115664
-0.0947245
-0.0763408
-0.0602173
-0.0458579
-0.284907
-0.23134
-0.355701
-0.398047
-0.43725
-0.458361
-0.460525
-0.445936
-0.418446
-0.382632
-0.342859
-0.302552
-0.263949
-0.228308
-0.196158
-0.167566
-0.142329
-0.120137
-0.100628
-0.0834674
-0.0683113
-0.0549273
-0.042941
-0.26626
-0.210382
-0.321497
-0.354479
-0.381809
-0.393268
-0.388842
-0.371674
-0.345612
-0.314441
-0.281341
-0.248633
-0.217739
-0.189391
-0.163853
-0.141103
-0.120956
-0.10316
-0.0874346
-0.0735196
-0.0611526
-0.0501563
-0.0402465
-0.245785
-0.187157
-0.285096
-0.309657
-0.326919
-0.331179
-0.322779
-0.305122
-0.281664
-0.255334
-0.228344
-0.202191
-0.177741
-0.155396
-0.135264
-0.117275
-0.101271
-0.0870511
-0.0744049
-0.0631358
-0.0530501
-0.0440155
-0.0358242
-0.223635
-0.161967
-0.247154
-0.264616
-0.27381
-0.273155
-0.262916
-0.246238
-0.225995
-0.204342
-0.182751
-0.162143
-0.143017
-0.125582
-0.10986
-0.0957685
-0.0831728
-0.0719176
-0.0618418
-0.0528
-0.044649
-0.0372937
-0.0305852
-0.200077
-0.135314
-0.208529
-0.220517
-0.223707
-0.220136
-0.20971
-0.194975
-0.178175
-0.160839
-0.143912
-0.127929
-0.113162
-0.0997017
-0.0875352
-0.0765843
-0.0667428
-0.0578917
-0.0499143
-0.0427034
-0.0361588
-0.0302124
-0.024763
-0.175542
-0.107948
-0.170245
-0.178558
-0.17772
-0.172837
-0.163379
-0.1511
-0.137659
-0.124111
-0.111059
-0.0988078
-0.0874953
-0.0771586
-0.0677768
-0.0592914
-0.0516249
-0.0446919
-0.0384078
-0.0326959
-0.0274847
-0.022726
-0.0183502
-0.150618
-0.0808075
-0.133418
-0.139836
-0.13672
-0.131655
-0.123824
-0.114147
-0.103767
-0.0934057
-0.0834656
-0.0741322
-0.0654845
-0.0575376
-0.0502815
-0.043678
-0.0376798
-0.0322263
-0.0272609
-0.0227267
-0.0185757
-0.014771
-0.0112677
-0.126001
-0.0549776
-0.0991184
-0.105223
-0.101243
-0.0966878
-0.0907472
-0.0836312
-0.0760334
-0.0684511
-0.0611612
-0.0543041
-0.0479251
-0.0420366
-0.0366251
-0.0316725
-0.0271441
-0.0230048
-0.019212
-0.0157311
-0.012526
-0.00957629
-0.00684857
-0.102509
-0.0315562
-0.0682629
-0.0752588
-0.0714735
-0.0677231
-0.0635838
-0.0587317
-0.053483
-0.0481517
-0.0429387
-0.0379721
-0.0333034
-0.0289541
-0.0249205
-0.0211986
-0.0177699
-0.0146172
-0.0117136
-0.00903897
-0.00656893
-0.00429166
-0.00218457
-0.0807807
-0.0114244
-0.0414602
-0.0501304
-0.0473217
-0.0444646
-0.0418747
-0.0389407
-0.0356784
-0.0322446
-0.0287706
-0.0253784
-0.0221373
-0.019085
-0.0162276
-0.0135684
-0.0110988
-0.008812
-0.00669304
-0.00473148
-0.00291295
-0.00123143
0.000326747
-0.0617835
0.00451289
-0.0191127
-0.0296591
-0.0283026
-0.0262492
-0.024776
-0.0232479
-0.0214841
-0.019517
-0.0174031
-0.0152497
-0.0131413
-0.0111391
-0.00925762
-0.00750577
-0.00587439
-0.00436172
-0.00295533
-0.00165176
-0.000439877
0.000680916
0.00172049
-0.0441544
0.0166806
-0.00132695
-0.0135936
-0.0140994
-0.0131194
-0.0128514
-0.0127829
-0.0126032
-0.0122346
-0.0116327
-0.0108526
-0.00997636
-0.00909164
-0.00823376
-0.00742556
-0.00666352
-0.00595245
-0.00528501
-0.00466461
-0.00408566
-0.00355187
-0.00305859
-0.0320843
0.01639
0.00931201
-0.000749545
-0.00166912
-0.000216467
0.000718409
0.0011415
0.00133435
0.00140904
0.00149209
0.001625
0.00180645
0.00198262
0.00213645
0.00225289
0.002349
0.00242861
0.00250883
0.00258989
0.00268035
0.00277685
0.00288065
0.439262
0.446187
0.529907
0.662312
0.827909
1.03444
1.29342
1.62099
2.03394
2.55669
3.21404
4.03739
5.05714
6.30211
7.78705
9.50345
11.4114
13.4403
15.5011
17.4966
19.3518
20.9938
22.4346
0.416129
0.432495
0.50531
0.627938
0.783728
0.979693
1.22716
1.54172
1.94117
2.44977
3.09392
3.90487
4.91297
6.14455
7.61102
9.2996
11.1669
13.1406
15.1316
17.0463
18.812
20.3654
21.716
0.386633
0.409679
0.471786
0.582124
0.725202
0.906658
1.13782
1.43363
1.81227
2.2977
2.91714
3.70149
4.6807
5.87897
7.30518
8.94376
10.7495
12.6503
14.5582
16.3835
18.0568
19.5225
20.788
0.349763
0.375358
0.427091
0.522525
0.649617
0.812286
1.02163
1.29196
1.64133
2.09312
2.67472
3.4165
4.34782
5.49137
6.85464
8.42105
10.1457
11.9583
13.7737
15.5062
17.0892
18.4728
19.6621
0.304211
0.327333
0.368896
0.446947
0.554262
0.693454
0.874777
1.11186
1.42213
1.82816
2.35686
3.03801
3.9004
4.96608
6.24252
7.71425
9.33911
11.0507
12.7683
14.4103
15.9114
17.2254
18.3523
0.247704
0.263946
0.295036
0.353618
0.437035
0.54757
0.694106
0.8892
1.14929
1.49576
1.95466
2.55502
3.32532
4.2879
5.4517
6.80454
8.30937
9.9063
11.5209
13.0765
14.5093
15.7732
16.8603
0.176395
0.184453
0.204054
0.241212
0.29645
0.372615
0.477055
0.620784
0.81883
1.09118
1.46277
1.96203
2.61759
3.4531
4.48045
5.6925
7.05925
8.52902
10.0352
11.5069
12.8826
14.1161
15.1924
0.0857729
0.0875914
0.0935398
0.106068
0.127756
0.162302
0.215605
0.296717
0.418924
0.600792
0.866449
1.24448
1.76494
2.45457
3.33013
4.39114
5.61558
6.96
8.36468
9.76292
11.0934
12.3069
13.3812
0.507978
0.445753
0.661368
0.810051
1.02587
1.26854
1.57131
1.93275
2.37023
2.89186
3.49628
4.18647
4.94961
5.78015
6.66037
7.56597
8.45827
9.28673
10.0085
10.593
11.0308
11.3459
11.5404
0.509935
0.445756
0.660055
0.80761
1.02117
1.26323
1.56522
1.92673
2.36544
2.8911
3.50452
4.21352
5.01135
5.90014
6.86999
7.90247
8.96152
9.9932
10.9468
11.7764
12.4603
13.0047
13.4047
0.511889
0.445423
0.658207
0.804932
1.01599
1.25732
1.55847
1.91988
2.35958
2.88876
3.51046
4.23663
5.06645
6.00878
7.06103
8.21038
9.42383
10.6457
11.8196
12.8863
13.8137
14.5889
15.2032
0.513837
0.444916
0.655594
0.80204