/*--------------------------------*- C++ -*----------------------------------*\
  =========                 |
  \\      /  F ield         | OpenFOAM: The Open Source CFD Toolbox
   \\    /   O peration     | Website:  https://openfoam.org
    \\  /    A nd           | Version:  7
     \\/     M anipulation  |
\*---------------------------------------------------------------------------*/
FoamFile
{
    version     2.0;
    format      ascii;
    class       surfaceScalarField;
    location    "70";
    object      phi;
}
// * * * * * * * * * * * * * * * * * * * * * * * * * * * * * * * * * * * * * //

dimensions      [0 3 -1 0 0 0 0];

internalField   nonuniform List<scalar> 
25449
(
70.2171
35.9944
-10.7912
52.0135
26.4215
-8.21791
38.7348
19.5397
-6.26103
28.9701
14.5406
-4.77588
21.7426
10.8773
-3.64982
16.3654
8.17316
-2.79598
12.3485
6.1651
-2.14824
9.33825
4.66676
-1.65647
7.07662
3.54427
-1.28264
5.37412
2.70042
-0.997915
4.09054
2.06401
-0.780434
3.1217
1.58248
-0.613639
2.38983
1.21688
-0.485012
1.83673
0.938209
-0.385114
1.41872
0.724896
-0.306882
1.1029
0.560892
-0.24507
0.864439
0.434259
-0.195801
0.684551
0.336128
-0.15624
0.548977
0.259889
-0.124314
0.446887
0.20059
-0.0985013
0.370063
0.15448
-0.0776558
0.312265
0.118689
-0.0608908
0.0909481
-0.0474841
0.268801
56.3076
55.6976
41.9354
40.7937
31.3668
30.1083
23.5442
22.3633
17.7242
16.6973
13.3766
12.5207
10.1187
9.42305
7.67118
7.11427
5.8289
5.38654
4.44007
4.08926
3.39181
3.11227
2.59991
2.37438
2.00134
1.81545
1.54881
1.39075
1.20673
1.06697
0.948305
0.819319
0.753245
0.629319
0.606181
0.483192
0.495434
0.370636
0.412121
0.283904
0.349494
0.217106
0.302428
0.165756
0.126303
0.267073
44.0958
70.6019
33.0746
51.8149
24.8809
38.302
18.7632
28.481
14.1806
21.2799
10.7393
15.962
8.14994
12.0124
6.19856
9.06565
4.72615
6.85894
3.61405
5.20136
2.77343
3.95289
2.13766
3.01015
1.65667
2.29644
1.2928
1.75462
1.01764
1.34213
0.809729
1.02723
0.652815
0.786233
0.534545
0.601463
0.44552
0.459662
0.378582
0.350841
0.328291
0.267397
0.290513
0.203533
0.154671
0.262145
34.1508
81.5667
25.8723
60.0934
19.6169
44.5574
14.8875
33.2103
11.3107
24.8567
8.60481
18.6679
6.5573
14.0599
5.0076
10.6154
3.83439
8.03215
2.94599
6.08976
2.27309
4.62579
1.76334
3.5199
1.3772
2.68258
1.08478
2.04704
0.86348
1.56343
0.696177
1.19453
0.569864
0.912546
0.474639
0.696688
0.402952
0.53135
0.349044
0.404749
0.308536
0.307905
0.278101
0.233968
0.177534
0.255238
26.3736
89.3992
20.2621
66.2049
15.5294
49.2901
11.8854
36.8544
9.09168
27.6504
6.95651
20.8031
5.32837
15.6881
4.08889
11.8548
3.14635
8.97469
2.43016
6.80596
1.88622
5.16972
1.47326
3.93286
1.15987
2.99597
0.922188
2.28473
0.742078
1.74354
0.605764
1.33084
0.502749
1.01556
0.425019
0.774418
0.366451
0.589917
0.32237
0.44883
0.289215
0.341061
0.264281
0.258902
0.196286
0.24553
20.4342
94.7834
16.0017
70.6374
12.4393
52.8525
9.62379
39.6699
7.42436
29.8499
5.72022
22.5072
4.40757
17.0007
3.40071
12.8617
2.63071
9.74469
2.04306
7.3936
1.59522
5.61756
1.25427
4.27381
0.994907
3.25533
0.797788
2.48184
0.648136
1.89319
0.534672
1.44431
0.448775
1.10146
0.383848
0.839345
0.33484
0.638926
0.297887
0.485783
0.27004
0.368907
0.249062
0.279881
0.212091
0.233257
15.9677
98.2711
12.8213
73.7838
10.1461
55.5276
7.95323
41.8628
6.19693
31.6062
4.8121
23.8921
3.73192
18.0809
2.89575
13.6979
2.25192
10.3885
1.75801
7.88751
1.38008
5.9955
1.09139
4.5625
0.871163
3.47556
0.703347
2.64966
0.575623
2.02091
0.478542
1.54139
0.40486
1.17514
0.349017
0.895187
0.306749
0.681194
0.274788
0.517745
0.250635
0.39306
0.232391
0.298125
0.225872
0.21861
12.6397
100.295
10.4729
75.9506
8.46544
57.5351
6.73586
43.5923
5.3061
33.0359
4.1546
25.0435
3.24314
18.9924
2.53016
14.4108
1.97696
10.9417
1.55015
8.31432
1.22211
6.32354
0.970626
4.81398
0.778164
3.66802
0.631066
2.79676
0.518776
2.13321
0.43316
1.62701
0.367965
1.24033
0.318381
0.944771
0.280712
0.718862
0.252121
0.546336
0.230437
0.414744
0.213997
0.314565
0.238329
0.20154
9.99591
103.882
7.4191
78.5274
5.54368
59.4105
4.16803
44.968
3.1517
34.0523
2.39665
25.7986
1.83319
19.5558
1.41116
14.8329
1.09409
11.2588
0.855249
8.55317
0.674899
6.50389
0.538424
4.95046
0.434963
3.77148
0.356419
2.8753
0.296736
2.19289
0.251366
1.67238
0.216873
1.27483
0.19065
0.970994
0.170717
0.738795
0.155566
0.561487
0.14405
0.42626
0.135303
0.323312
0.244979
0.128653
7.65784
106.633
5.6862
80.499
4.25303
60.8437
3.20326
46.0178
2.42847
34.827
1.85334
26.3737
1.42442
19.9848
1.10329
15.154
0.862081
11.5
0.680367
8.73488
0.543105
6.64115
0.439156
5.05441
0.360254
3.85038
0.300244
2.93531
0.254531
2.2386
0.219663
1.70724
0.193041
1.30145
0.172696
0.99134
0.157133
0.754357
0.145221
0.573399
0.136099
0.435383
0.129117
0.330294
0.250324
0.123772
5.84957
108.727
4.35002
81.9986
3.26008
61.9336
2.4621
46.8157
1.87329
35.4159
1.4363
26.8107
1.11046
20.3106
0.866517
15.3979
0.683254
11.6833
0.545137
8.873
0.440726
6.74556
0.361552
5.13358
0.301337
3.9106
0.255408
2.98124
0.220285
2.27372
0.193357
1.73417
0.172663
1.32214
0.156723
1.00728
0.144419
0.766662
0.134907
0.582911
0.127546
0.442744
0.121857
0.335983
0.254721
0.11746
4.45745
110.305
3.32511
83.1309
2.50048
62.7583
1.89607
47.4201
1.44961
35.8623
1.11801
27.1423
0.870581
20.558
0.685222
15.5833
0.545873
11.8226
0.44075
8.97812
0.361172
6.82514
0.300703
5.19405
0.254574
3.95673
0.219238
3.01658
0.192056
2.30091
0.171057
1.75517
0.154767
1.33843
0.142078
1.01997
0.132159
0.776581
0.124389
0.590681
0.118295
0.448838
0.113524
0.340753
0.258451
0.109794
3.39056
111.481
2.54296
83.9785
1.92247
63.3788
1.46598
47.8766
1.12769
36.2006
0.87582
27.3942
0.687515
20.7463
0.546208
15.7246
0.439805
11.929
0.359395
9.05853
0.298387
6.88614
0.251885
5.24055
0.216254
3.99236
0.188792
3.04404
0.167495
2.3222
0.150869
1.7718
0.137808
1.35149
0.127486
1.03029
0.119291
0.784777
0.112768
0.597204
0.107571
0.454035
0.103446
0.344879
0.26172
0.100178
2.58223
112.341
1.95373
84.607
1.48872
63.8438
1.14388
48.2215
0.886652
36.4578
0.694182
27.5867
0.54971
20.8908
0.440942
15.8334
0.358802
12.0111
0.296547
9.12079
0.249153
6.93354
0.212865
5.27684
0.184892
4.02033
0.163151
3.06578
0.146107
2.33925
0.13262
1.78528
0.121856
1.36226
0.1132
1.03895
0.106202
0.791775
0.100533
0.602873
0.0959434
0.458625
0.0922468
0.348576
0.264685
0.0892811
1.9616
112.953
1.50415
85.0645
1.15918
64.1887
0.899629
48.481
0.703812
36.6537
0.55602
27.7345
0.444333
21.0025
0.359792
15.9179
0.295654
12.0753
0.246829
9.16961
0.209479
6.97089
0.180708
5.30561
0.15835
4.04269
0.140787
3.08334
0.126826
2.35321
0.115595
1.79651
0.106462
1.37139
0.0989716
1.04644
0.0927985
0.797948
0.0877087
0.607963
0.083522
0.462811
0.0801058
0.351992
0.267457
0.0773346
1.49902
113.371
1.1722
85.3913
0.917402
64.4435
0.720967
48.6775
0.570017
36.8046
0.45452
27.85
0.366322
21.0907
0.299016
15.9852
0.247612
12.1267
0.208243
9.20898
0.177938
7.00119
0.154417
5.32913
0.135961
4.06115
0.121281
3.09802
0.10943
2.36506
0.0997222
1.80622
0.0916753
1.37944
0.0849489
1.05316
0.0793069
0.80359
0.0745836
0.612686
0.0706497
0.466745
0.0674085
0.355233
0.270106
0.0647589
1.1519
113.636
0.926048
85.6171
0.739593
64.63
0.590112
48.827
0.472006
36.9227
0.379821
27.9421
0.308381
21.1621
0.253254
16.0404
0.210778
12.1692
0.177999
9.24176
0.152575
7.02662
0.132674
5.34903
0.116891
4.07693
0.104167
3.11075
0.0937307
2.3755
0.0850285
1.81492
0.0776843
1.38678
0.071442
1.05941
0.0661311
0.808901
0.0616351
0.617182
0.0578594
0.470521
0.0547316
0.358361
0.272673
0.0521648
0.893231
113.78
0.745556
85.7648
0.610707
64.7648
0.495821
48.9418
0.401382
37.0171
0.325661
28.0179
0.265854
21.2219
0.219061
16.0871
0.182624
12.2056
0.154259
9.27012
0.13208
7.0488
0.114566
5.36655
0.100532
4.09096
0.089075
3.1222
0.0795401
2.38503
0.0714673
1.823
0.0645549
1.39369
0.0586073
1.06535
0.0535003
0.814008
0.0491514
0.621531
0.0454878
0.474185
0.0424509
0.361398
0.275164
0.0399601
0.703705
113.827
0.616394
85.8521
0.520095
64.8611
0.430187
49.0318
0.352281
37.0951
0.287707
28.0824
0.235558
21.2741
0.19412
16.1286
0.161484
12.2382
0.135852
9.29576
0.115655
7.06899
0.0995813
5.38262
0.0865886
4.10396
0.0758736
3.13292
0.0668566
2.39405
0.0591376
1.83072
0.052466
1.40037
0.0466875
1.07113
0.0417092
0.818987
0.0374695
0.625771
0.0339058
0.477748
0.0309645
0.364339
0.277564
0.0285643
0.566632
113.796
0.526151
85.8926
0.458509
64.9288
0.386306
49.104
0.31955
37.1618
0.262119
28.1399
0.214638
21.3216
0.176315
16.1669
0.145802
12.2687
0.121644
9.31991
0.102484
7.08815
0.0871474
5.39796
0.0746745
4.11643
0.06432
3.14327
0.0555474
2.40282
0.0479934
1.83827
0.0414401
1.40692
0.03576
1.07681
0.030879
0.823868
0.0267452
0.629905
0.0232966
0.481197
0.020476
0.36716
0.279845
0.0181959
0.470529
113.702
0.466287
85.8968
0.419564
64.9755
0.359388
49.1641
0.299581
37.2216
0.24617
28.1933
0.201028
21.3667
0.164078
16.2039
0.134382
12.2984
0.11072
9.34358
0.09187
7.107
0.0767292
5.4131
0.0643813
4.12878
0.0541053
3.15355
0.0453839
2.41154
0.0378715
1.84578
0.0313684
1.41342
0.0257614
1.08242
0.0209836
0.828646
0.0169823
0.633906
0.0136864
0.484493
0.0110276
0.369818
0.281965
0.00890762
0.403841
113.555
0.428193
85.8725
0.396828
65.0069
0.344611
49.2163
0.288748
37.2775
0.237129
28.2449
0.192668
21.4112
0.155853
16.2407
0.126048
12.3282
0.102194
9.36743
0.0831424
7.12606
0.0678245
5.42842
0.0553349
4.14127
0.0449548
3.16393
0.0361688
2.42033
0.0286356
1.85332
0.0221622
1.4199
0.0166392
1.08794
0.0119963
0.833289
0.00817061
0.637732
0.00507346
0.48759
0.00262071
0.372271
0.283886
0.000699611
0.359511
113.364
0.406645
85.8254
0.386405
65.0271
0.339052
49.2637
0.284853
37.3317
0.233335
28.2964
0.188294
21.4562
0.150674
16.2783
0.120062
12.3589
0.0954956
9.392
0.0758613
7.14569
0.0600922
5.44419
0.0472713
4.15409
0.0366647
3.17454
0.0277454
2.42925
0.0201653
1.8609
0.0137281
1.42633
0.00831774
1.09335
0.00385135
0.837755
0.000247738
0.641336
-0.00260435
0.490442
-0.00481319
0.37448
0.285577
-0.00650467
-0.171567
113.302
-0.126354
85.7801
-0.0928958
64.9936
-0.0680585
49.2389
-0.0495051
37.3131
-0.0356131
28.2825
-0.0252066
21.4458
-0.0174389
16.2705
-0.0117036
12.3531
-0.00757218
9.38787
-0.00475655
7.14287
-0.00306774
5.4425
-0.00237214
4.15339
-0.00254865
3.17471
-0.00344379
2.43014
-0.00485665
1.86231
-0.00654541
1.42802
-0.0082773
1.09509
-0.00986889
0.839347
-0.0112108
0.642677
-0.0122704
0.491502
-0.0130615
0.375271
0.286153
-0.0136371
-0.168469
113.245
-0.126816
85.7385
-0.0959691
64.9628
-0.0730679
49.216
-0.0559548
37.296
-0.0431381
28.2697
-0.0335337
21.4362
-0.0263605
16.2634
-0.0210575
12.3478
-0.0172253
9.38403
-0.0145917
7.14024
-0.0129727
5.44088
-0.0122324
4.15265
-0.0122427
3.17472
-0.0128456
2.43075
-0.0138407
1.8633
-0.0150018
1.42918
-0.0161247
1.09621
-0.0170694
0.840292
-0.0177724
0.64338
-0.0182382
0.491968
-0.0185096
0.375543
0.286292
-0.0186481
-0.16522
113.192
-0.126812
85.7001
-0.09834
64.9343
-0.0771961
49.1948
-0.0613883
37.2802
-0.0495444
28.2579
-0.0406637
21.4273
-0.0340243
16.2567
-0.0291055
12.3429
-0.0255328
9.38046
-0.0230466
7.13776
-0.0214649
5.4393
-0.0206469
4.15183
-0.0204564
3.17453
-0.0207318
2.43102
-0.0212777
1.86385
-0.0218906
1.4298
-0.0224021
1.09672
-0.0227199
0.84061
-0.0228258
0.643486
-0.0227544
0.491896
-0.0225682
0.375357
0.286054
-0.0223297
-0.16188
113.144
-0.126453
85.6647
-0.100157
64.908
-0.0806216
49.1753
-0.0660068
37.2656
-0.0550505
28.2469
-0.0468285
21.4191
-0.0406726
16.2506
-0.0360983
12.3383
-0.0327525
9.37712
-0.0303853
7.13539
-0.0288139
5.43772
-0.027891
4.15091
-0.0274718
3.17411
-0.0273933
2.43094
-0.0274699
1.86393
-0.0275279
1.42985
-0.0274413
1.09663
-0.0271668
0.840335
-0.0267271
0.643047
-0.0261802
0.491349
-0.0256003
0.374777
0.285499
-0.025046
-0.158491
113.099
-0.125817
85.632
-0.101528
64.8837
-0.0834751
49.1572
-0.0699578
37.2521
-0.0598167
28.2368
-0.0521981
21.4115
-0.0464831
16.2448
-0.0422196
12.3341
-0.0390731
9.37397
-0.0368008
7.13312
-0.0352173
5.43614
-0.0341672
4.14986
-0.0334974
3.17344
-0.0330458
2.43049
-0.0326431
1.86352
-0.0321511
1.42936
-0.0314911
1.09597
-0.0306673
0.839512
-0.029738
0.642117
-0.0287776
0.490389
-0.0278651
0.373865
0.284684
-0.0270498
-0.155082
113.058
-0.124965
85.6019
-0.102537
64.8613
-0.0858562
49.1405
-0.0733536
37.2396
-0.0639652
28.2274
-0.0569023
21.4044
-0.0515915
16.2395
-0.0476098
12.3301
-0.0446389
9.371
-0.0424411
7.13092
-0.0408264
5.43453
-0.0396309
4.14867
-0.0386936
3.17251
-0.0378571
2.42966
-0.0369736
1.86264
-0.035946
1.42833
-0.034745
1.09477
-0.0334194
0.838186
-0.0320569
0.640755
-0.0307417
0.489074
-0.0295511
0.372674
0.283655
-0.0285219
-0.151678
113.02
-0.123943
85.5741
-0.103247
64.8406
-0.087841
49.1251
-0.0762805
37.228
-0.0675898
28.2187
-0.0610409
21.3979
-0.056102
16.2346
-0.0523769
12.3264
-0.0495612
9.36818
-0.0474202
7.12878
-0.0457585
5.43287
-0.0444028
4.14731
-0.0431863
3.17129
-0.0419594
2.42843
-0.0406012
1.86128
-0.0390596
1.42679
-0.0373554
1.09307
-0.0355775
0.836408
-0.0338359
0.639013
-0.032219
0.487457
-0.0307977
0.371253
0.282452
-0.0295941
-0.148294
112.986
-0.122786
85.5486
-0.103707
64.8215
-0.089491
49.1109
-0.078808
37.2173
-0.0707663
28.2106
-0.0646945
21.3918
-0.0600992
16.23
-0.0566084
12.3229
-0.0539299
9.3655
-0.0518306
7.12668
-0.0501087
5.43114
-0.0485817
4.14578
-0.0470788
3.16979
-0.045462
2.42681
-0.0436418
1.85946
-0.0416135
1.42476
-0.0394468
1.0909
-0.0372657
0.834227
-0.0351954
0.636943
-0.0333238
0.485585
-0.0317123
0.369641
0.281107
-0.0303675
-0.144944
112.954
-0.121523
85.5252
-0.10396
64.804
-0.0908555
49.0978
-0.0809925
37.2075
-0.0735565
28.2032
-0.0679286
21.3862
-0.0636517
16.2257
-0.0603755
12.3196
-0.0578185
9.36295
-0.0557479
7.12461
-0.0539551
5.42935
-0.0522489
4.14408
-0.0504568
3.168
-0.0484558
2.42481
-0.0461917
1.8572
-0.0437083
1.42228
-0.0411212
1.08832
-0.0385837
0.83169
-0.0362307
0.63459
-0.0341456
0.4835
-0.032378
0.367874
0.279648
-0.030919
-0.141637
112.925
-0.120179
85.5037
-0.104037
64.7878
-0.091976
49.0858
-0.082881
37.1984
-0.0760115
28.1963
-0.070798
21.3809
-0.0668167
16.2217
-0.0637377
12.3165
-0.0612882
9.3605
-0.0592353
7.12256
-0.0573631
5.42748
-0.0554728
4.14219
-0.0533928
3.16592
-0.0510182
2.42244
-0.0483328
1.85451
-0.0454284
1.41938
-0.042463
1.08535
-0.0396132
0.82884
-0.0370184
0.631995
-0.0347553
0.481237
-0.0328598
0.365978
0.278097
-0.0313086
-0.138383
112.898
-0.118773
85.4841
-0.103968
64.773
-0.0928879
49.0747
-0.0845141
37.19
-0.0781758
28.19
-0.0733501
21.3761
-0.0696441
16.218
-0.0667465
12.3136
-0.0643924
9.35814
-0.0623479
7.12051
-0.06039
5.42552
-0.0583137
4.14011
-0.0559507
3.16355
-0.0532173
2.4197
-0.0501369
1.85143
-0.0468475
1.41609
-0.0435448
1.08205
-0.0404233
0.825719
-0.0376228
0.629195
-0.0352115
0.478826
-0.0332114
0.363978
0.276471
-0.0315858
-0.135188
112.874
-0.117321
85.4663
-0.103779
64.7595
-0.0936221
49.0645
-0.085927
37.1823
-0.0800882
28.1842
-0.0756262
21.3717
-0.0721771
16.2146
-0.069447
12.3109
-0.0671777
9.35588
-0.0651338
7.11847
-0.063086
5.42347
-0.0608243
4.13785
-0.0581867
3.16092
-0.0551132
2.41663
-0.0516668
1.84799
-0.0480291
1.41245
-0.0444286
1.07845
-0.0410725
0.822362
-0.0380979
0.62622
-0.0355635
0.476291
-0.0334778
0.361892
0.274785
-0.0317919
-0.132057
112.852
-0.11584
85.4501
-0.103491
64.7471
-0.0942056
49.0552
-0.0871509
37.1752
-0.0817826
28.1788
-0.0776624
21.3675
-0.074454
16.2114
-0.0718788
12.3083
-0.0696851
9.35368
-0.0676356
7.11642
-0.0654956
5.42133
-0.0630517
4.13541
-0.0601512
3.15802
-0.0567592
2.41324
-0.0529781
1.8442
-0.0490294
1.4085
-0.0451685
1.07459
-0.0416114
0.818805
-0.0384902
0.623099
-0.0358539
0.473655
-0.0336981
0.359737
0.27305
-0.0319633
-0.128995
112.832
-0.114343
85.4354
-0.103123
64.7359
-0.0946632
49.0468
-0.0882141
37.1688
-0.0832904
28.1739
-0.0794926
21.3637
-0.07651
16.2084
-0.0740788
12.3059
-0.0719527
9.35156
-0.0698927
7.11436
-0.0676598
5.4191
-0.0650396
4.13279
-0.0618906
3.15487
-0.0582045
2.40955
-0.0541217
1.84012
-0.049899
1.40428
-0.0458135
1.0705
-0.0420858
0.815078
-0.0388421
0.619855
-0.0361216
0.470935
-0.0339081
0.357523
0.271275
-0.0321331
-0.126006
112.815
-0.112841
85.4222
-0.102694
64.7258
-0.0950172
49.0391
-0.0891424
37.1629
-0.0846397
28.1694
-0.0811467
21.3602
-0.0783767
16.2056
-0.0760797
12.3036
-0.0740144
9.34949
-0.0719406
7.11228
-0.0696157
5.41678
-0.066827
4.13
-0.0634464
3.15149
-0.059493
2.4056
-0.0551429
1.83577
-0.0506829
1.39982
-0.0464068
1.06622
-0.0425364
0.811207
-0.0391909
0.61651
-0.0364011
0.468145
-0.0341397
0.355262
0.269467
-0.0323311
-0.123095
112.799
-0.111346
85.4105
-0.10222
64.7166
-0.0952888
49.0322
-0.0899601
37.1576
-0.0858574
28.1653
-0.0826534
21.357
-0.0800844
16.2031
-0.077913
12.3014
-0.0759029
9.34748
-0.0738129
7.11019
-0.0713988
5.41436
-0.0684513
4.12705
-0.0648581
3.14789
-0.0606662
2.40141
-0.0560841
1.83119
-0.0514234
1.39516
-0.0469891
1.06179
-0.0430015
0.80722
-0.0395729
0.613081
-0.0367261
0.465298
-0.0344247
0.35296
0.267629
-0.0325874
-0.120264
112.786
-0.109868
85.4001
-0.101717
64.7085
-0.0954971
49.0259
-0.0906893
37.1528
-0.0869679
28.1615
-0.0840389
21.3541
-0.0816604
16.2007
-0.0796072
12.2994
-0.0776477
9.34552
-0.0755404
7.10809
-0.073041
5.41186
-0.0699461
4.12396
-0.0661614
3.14411
-0.0617613
2.39701
-0.0569832
1.82641
-0.0521581
1.39033
-0.047597
1.05723
-0.0435163
0.803139
-0.0400214
0.609586
-0.0371287
0.462405
-0.0347939
0.350625
0.265768
-0.0329321
-0.117516
112.774
-0.108416
85.391
-0.1012
64.7013
-0.0956607
49.0204
-0.0913513
37.1485
-0.0879944
28.1582
-0.0853281
21.3514
-0.0831311
16.1985
-0.0811897
12.2974
-0.0792773
9.34361
-0.0771526
7.10596
-0.0745732
5.40928
-0.0713439
4.12073
-0.0673904
3.14015
-0.0628134
2.39243
-0.0578762
1.82147
-0.0529226
1.38538
-0.0482656
1.05257
-0.0441152
0.798988
-0.0405704
0.606041
-0.0376422
0.459477
-0.0352803
0.348263
0.263885
-0.0333976
-0.114855
112.764
-0.107001
85.3831
-0.100683
64.6949
-0.0957969
49.0155
-0.0919662
37.1446
-0.0889593
28.1552
-0.0865448
21.349
-0.0845214
16.1965
-0.0826866
12.2956
-0.0808185
9.34174
-0.0786773
7.10382
-0.0760243
5.40663
-0.072675
4.11738
-0.0685764
3.13606
-0.0638551
2.38771
-0.0587958
1.81641
-0.0537501
1.38033
-0.0490281
1.04785
-0.0448316
0.794792
-0.0412535
0.602463
-0.0383006
0.456524
-0.035918
0.345881
0.261985
-0.0340183
-0.112283
112.755
-0.10563
85.3765
-0.100177
64.6895
-0.0959225
49.0113
-0.0925533
37.1413
-0.0898837
28.1525
-0.0877117
21.3469
-0.0858553
16.1946
-0.0841226
12.2938
-0.0822971
9.33992
-0.0801413
7.10167
-0.0774222
5.40391
-0.0739681
4.11392
-0.0697494
3.13184
-0.0649168
2.38287
-0.0597729
1.81127
-0.0546718
1.37523
-0.0499163
1.04309
-0.0456985
0.790574
-0.0421049
0.59887
-0.039139
0.453558
-0.0367427
0.343484
0.260072
-0.0348302
-0.109802
112.749
-0.104312
85.371
-0.0996975
64.6849
-0.0960529
49.0076
-0.0931306
37.1383
-0.0907873
28.1502
-0.08885
21.3449
-0.0871549
16.1929
-0.0855209
12.2922
-0.083737
9.33813
-0.0815694
7.0995
-0.0787925
5.40113
-0.0752498
4.11038
-0.0709365
3.12752
-0.0660259
2.37796
-0.0608352
1.80608
-0.0557158
1.37011
-0.0509597
1.03834
-0.046747
0.786361
-0.043158
0.595281
-0.0401928
0.450593
-0.0377919
0.341083
0.258153
-0.0358722
-0.107415
112.743
-0.103055
85.3666
-0.0992553
64.6811
-0.096204
49.0046
-0.0937161
37.1359
-0.0916902
28.1481
-0.0899811
21.3432
-0.0884427
16.1914
-0.086905
12.2907
-0.0851626
9.33639
-0.0829864
7.09732
-0.0801608
5.39831
-0.0765464
4.10677
-0.0721642
3.12314
-0.0672089
2.37301
-0.0620093
1.80088
-0.0569095
1.36501
-0.0521873
1.03362
-0.0480089
0.782183
-0.0444475
0.591719
-0.0415002
0.447646
-0.0391069
0.33869
0.256234
-0.0371887
-0.105125
112.74
-0.101866
85.3634
-0.0988618
64.6781
-0.0963902
49.0021
-0.0943266
37.1338
-0.0926108
28.1464
-0.0911245
21.3417
-0.0897396
16.19
-0.0882963
12.2892
-0.0865959
9.33469
-0.0844154
7.09514
-0.0815508
5.39544
-0.0778817
4.1031
-0.0734565
3.11872
-0.0684896
2.36804
-0.0633187
1.79571
-0.058277
1.35997
-0.0536254
1.02896
-0.0495137
0.778071
-0.0460074
0.588213
-0.0431001
0.444738
-0.0407312
0.336321
0.254331
-0.0388276
-0.102933
112.738
-0.100754
85.3612
-0.098529
64.6759
-0.0966256
49.0002
-0.0949784
37.1321
-0.0935671
28.145
-0.0922998
21.3405
-0.0910658
16.1887
-0.089716
12.2879
-0.088059
9.33303
-0.0858788
7.09296
-0.0829852
5.39255
-0.0792786
4.09939
-0.074836
3.11427
-0.0698898
2.3631
-0.0647846
1.7906
-0.0598398
1.35503
-0.0552972
1.02442
-0.0512889
0.774063
-0.0478701
0.584794
-0.0450307
0.441899
-0.0427092
0.334
0.25246
-0.0408383
-0.100842
112.737
-0.0997241
85.3601
-0.098267
64.6744
-0.0969236
48.9988
-0.095687
37.1309
-0.094576
28.1439
-0.0935251
21.3394
-0.0924404
16.1877
-0.0911841
12.2866
-0.0895723
9.33142
-0.0873976
7.09079
-0.0844856
5.38964
-0.0807589
4.09566
-0.0763241
3.10984
-0.0714298
2.3582
-0.0664268
1.7856
-0.0616179
1.35022
-0.0572246
1.02003
-0.0533613
0.770199
-0.0500682
0.581501
-0.047331
0.439162
-0.0450892
0.331758
0.250646
-0.0432757
-0.0953284
112.733
-0.0928556
85.3576
-0.0909256
64.6725
-0.0895317
48.9975
-0.0884388
37.1298
-0.0875439
28.143
-0.0867239
21.3386
-0.0858615
16.1868
-0.0848147
12.2856
-0.0834092
9.33002
-0.0814568
7.08883
-0.0788082
5.38699
-0.0754117
4.09227
-0.0713895
3.10582
-0.0669836
2.3538
-0.0625205
1.78114
-0.058264
1.34596
-0.0544
1.01616
-0.0510201
0.766819
-0.0481459
0.578627
-0.0457565
0.436772
-0.0438014
0.329803
0.24906
-0.0422155
-0.0760413
112.731
-0.0743102
85.3559
-0.0729478
64.6711
-0.0719716
48.9965
-0.0712003
37.129
-0.0705604
28.1424
-0.0699578
21.338
-0.0693022
16.1861
-0.0684824
12.2848
-0.0673615
9.32889
-0.0657945
7.08727
-0.063671
5.38487
-0.0609649
4.08956
-0.0577879
3.10264
-0.0543424
2.35035
-0.0508876
1.77768
-0.0476233
1.3427
-0.044684
1.01322
-0.0421305
0.764266
-0.0399735
0.57647
-0.0381807
0.43498
-0.0367182
0.32834
0.247876
-0.0355344
-0.0606227
112.729
-0.0594066
85.3546
-0.0584411
64.6701
-0.057755
48.9958
-0.0572088
37.1285
-0.0567492
28.1419
-0.0563044
21.3375
-0.0558045
16.1856
-0.0551625
12.2841
-0.0542711
9.328
-0.0530181
7.08601
-0.0513215
5.38317
-0.0491703
4.08741
-0.0466625
3.10013
-0.0439657
2.34765
-0.0412851
1.775
-0.0387732
1.34018
-0.0365307
1.01098
-0.0345935
0.762328
-0.0329738
0.57485
-0.0316285
0.433634
-0.0305361
0.327248
0.246995
-0.0296549
-0.0482957
112.727
-0.0474289
85.3538
-0.0467348
64.6694
-0.0462455
48.9953
-0.045853
37.1281
-0.0455185
28.1416
-0.0451863
21.3372
-0.0448025
16.1853
-0.0442986
12.2836
-0.0435904
9.32729
-0.042591
7.08502
-0.041239
5.38182
-0.0395322
4.0857
-0.0375538
3.09815
-0.0354414
2.34554
-0.0333574
1.77292
-0.0314182
1.33825
-0.0297025
1.00927
-0.0282256
0.760851
-0.027006
0.57363
-0.0259954
0.432624
-0.0251777
0.32643
0.24634
-0.0245225
-0.0384516
112.726
-0.0378237
85.3532
-0.0373168
64.6689
-0.0369622
48.9949
-0.0366758
37.1278
-0.0364287
28.1413
-0.0361779
21.337
-0.035881
16.185
-0.0354846
12.2832
-0.0349221
9.32673
-0.0341263
7.08422
-0.0330507
5.38074
-0.0316977
4.08435
-0.0301368
3.09659
-0.0284801
2.34388
-0.0268559
1.77129
-0.0253534
1.33674
-0.0240356
1.00795
-0.0229044
0.75972
-0.0219801
0.572706
-0.0212187
0.431862
-0.0206035
0.325815
0.245852
-0.0201153
-0.030575
112.726
-0.0300944
85.3527
-0.0297043
64.6685
-0.0294325
48.9947
-0.0292122
37.1276
-0.0290212
28.1411
-0.0288253
21.3368
-0.0285913
16.1847
-0.0282767
12.2829
-0.0278293
9.32629
-0.0271967
7.08359
-0.0263433
5.37989
-0.0252739
4.08328
-0.0240452
3.09536
-0.0227479
2.34259
-0.0214827
1.77003
-0.0203182
1.33558
-0.0193044
1.00693
-0.0184378
0.758853
-0.0177337
0.572002
-0.0171594
0.431288
-0.0166951
0.32535
0.245487
-0.0163308
-0.024409
112.725
-0.024115
85.3524
-0.0238709
64.6683
-0.0237051
48.9945
-0.0235679
37.1275
-0.0234444
28.141
-0.0233093
21.3366
-0.0231374
16.1846
-0.0228957
12.2827
-0.0225432
9.32593
-0.0220388
7.08308
-0.0213552
5.37921
-0.0204983
4.08242
-0.0195152
3.09438
-0.0184804
2.34155
-0.0174749
1.76902
-0.0165531
1.33466
-0.0157546
1.00614
-0.0150762
0.758175
-0.0145256
0.571451
-0.0140816
0.430844
-0.0137222
0.324991
0.245209
-0.0134435
-0.019301
112.725
-0.018997
85.3521
-0.0187493
64.668
-0.0185767
48.9943
-0.0184368
37.1273
-0.0183154
28.1409
-0.0181909
21.3365
-0.018042
16.1844
-0.0178421
12.2825
-0.0175585
9.32565
-0.0171593
7.08268
-0.0166235
5.37867
-0.0159563
4.08176
-0.0151946
3.09362
-0.0143968
2.34075
-0.0136248
1.76825
-0.0129205
1.33395
-0.0123122
1.00553
-0.0118002
0.757663
-0.0113839
0.571035
-0.0110513
0.430511
-0.0107823
0.324722
0.245002
-0.010576
-0.0129747
112.72
-0.00891973
85.348
-0.00560649
64.6647
-0.00293859
48.9917
-0.000772986
37.1252
0.000992148
28.1391
0.0024539
21.335
0.00369723
16.1832
0.00480103
12.2814
0.00583826
9.32461
0.00686892
7.08165
0.00792855
5.37761
0.00901663
4.08067
0.0100969
3.09254
0.011116
2.33973
0.0120228
1.76734
0.0127937
1.33318
0.0134179
1.0049
0.013916
0.757165
0.014305
0.570646
0.0145987
0.430218
0.0148254
0.324495
0.244838
0.0149903
-0.0136223
112.714
-0.00936438
85.3438
-0.00588518
64.6613
-0.00308348
48.9889
-0.000809288
37.1229
0.00104447
28.1373
0.0025798
21.3335
0.00388601
16.1819
0.00504585
12.2802
0.00613557
9.32352
0.00721756
7.08057
0.00832823
5.3765
0.00946601
4.07953
0.0105922
3.09141
0.0116509
2.33868
0.0125891
1.76641
0.0133829
1.33239
0.0140233
1.00426
0.0145284
0.756659
0.0149239
0.57025
0.0152189
0.429923
0.0154438
0.32427
0.244674
0.0156074
-0.0143024
112.709
-0.00983129
85.3393
-0.00617763
64.6576
-0.00323544
48.9859
-0.000847192
37.1205
0.00109965
28.1353
0.00271227
21.3319
0.00408455
16.1805
0.00530322
12.279
0.00644805
9.32238
0.00758381
7.07944
0.00874771
5.37534
0.00993705
4.07834
0.0111106
3.09024
0.0122096
2.33758
0.0131796
1.76544
0.0139958
1.33157
0.0146525
1.00361
0.0151639
0.756148
0.0155641
0.56985
0.0158604
0.429626
0.0160825
0.324048
0.244513
0.0162432
-0.0150165
112.703
-0.0103213
85.3346
-0.00648447
64.6538
-0.00339481
48.9828
-0.000886778
37.118
0.00115783
28.1333
0.00285169
21.3302
0.0042934
16.179
0.00557392
12.2777
0.0067766
9.32118
0.00796871
7.07824
0.00918818
5.37412
0.010431
4.0771
0.0116532
3.08902
0.0127932
2.33644
0.0137953
1.76443
0.0146333
1.33073
0.0153057
1.00293
0.0158229
0.755631
0.0162257
0.569447
0.0165229
0.429329
0.0167416
0.323829
0.244356
0.0168986
-0.015766
112.697
-0.0108358
85.3297
-0.00680671
64.6497
-0.00356197
48.9796
-0.000928119
37.1153
0.00121923
28.1311
0.00299842
21.3284
0.00451311
16.1775
0.00585863
12.2763
0.00712208
9.31991
0.00837322
7.07699
0.00965069
5.37284
0.0109489
4.0758
0.0122211
3.08774
0.0134027
2.33525
0.014437
1.7634
0.015296
1.32987
0.0159832
1.00225
0.016506
0.755108
0.016909
0.569044
0.0172065
0.429031
0.0174222
0.323614
0.244203
0.0175753
-0.0165532
112.69
-0.011376
85.3245
-0.0071448
64.6455
-0.00373727
48.9762
-0.000971281
37.1126
0.00128399
28.1289
0.00315286
21.3265
0.00474423
16.1759
0.00615809
12.2749
0.00748534
9.31859
0.00879834
7.07568
0.0101363
5.3715
0.0114919
4.07444
0.0128155
3.08642
0.0140393
2.33403
0.0151056
1.76233
0.015985
1.329
0.0166855
1.00155
0.017214
0.75458
0.0176153
0.568643
0.017912
0.428735
0.0181251
0.323401
0.244054
0.0182742
-0.0173793
112.683
-0.011943
85.319
-0.00749974
64.6411
-0.00392113
48.9726
-0.00101631
37.1097
0.0013523
28.1265
0.00331538
21.3246
0.00498737
16.1743
0.00647301
12.2734
0.0078673
9.31719
0.0092451
7.0743
0.0106461
5.3701
0.0120611
4.07303
0.0134373
3.08504
0.0147037
2.33276
0.015802
1.76123
0.0167011
1.3281
0.0174133
1.00083
0.0179471
0.754046
0.0183457
0.568244
0.0186398
0.428441
0.01885
0.32319
0.243909
0.0189947
-0.018247
112.676
-0.0125382
85.3133
-0.007872
64.6364
-0.00411396
48.9688
-0.00106334
37.1066
0.00142436
28.124
0.00348645
21.3225
0.00524313
16.1725
0.00680426
12.2719
0.00826892
9.31573
0.00971454
7.07286
0.0111812
5.36863
0.0126577
4.07155
0.0140878
3.08361
0.0153972
2.33146
0.016527
1.7601
0.0174452
1.32718
0.0181672
1.00011
0.0187056
0.753507
0.0191007
0.567849
0.0193898
0.428152
0.0195955
0.322985
0.243769
0.0197354
-0.0191578
112.669
-0.0131631
85.3073
-0.0082629
64.6315
-0.00431617
48.9649
-0.00111241
37.1034
0.00150041
28.1214
0.00366652
21.3204
0.00551225
16.1707
0.00715268
12.2702
0.0086912
9.31419
0.0102079
7.07134
0.011743
5.3671
0.0132829
4.07001
0.0147681
3.08213
0.0161207
2.3301
0.0172816
1.75894
0.0182179
1.32624
0.0189479
0.999381
0.0194895
0.752966
0.0198804
0.567458
0.0201621
0.42787
0.0203612
0.322786
0.243635
0.020496
-0.020114
112.661
-0.013819
85.301
-0.00867306
64.6263
-0.00452824
48.9607
-0.00116362
37.1001
0.00158062
28.1186
0.00385604
21.3181
0.00579537
16.1687
0.0075192
12.2685
0.00913528
9.31257
0.0107263
7.06975
0.0123326
5.36549
0.013938
4.06841
0.0154794
3.08059
0.0168753
2.32871
0.0180665
1.75775
0.0190202
1.32529
0.0197561
0.998645
0.0202989
0.752423
0.020685
0.567072
0.0209578
0.427597
0.0211483
0.322595
0.243506
0.0212773
-0.0211178
112.653
-0.0145075
85.2944
-0.00910369
64.6209
-0.00475064
48.9564
-0.00121703
37.0965
0.00166529
28.1158
0.00405557
21.3157
0.00609328
16.1667
0.00790475
12.2667
0.00960225
9.31087
0.011271
7.06808
0.0129514
5.36381
0.0146244
4.06673
0.016223
3.07899
0.0176622
2.32727
0.0188829
1.75653
0.0198527
1.32432
0.0205927
0.997905
0.0211346
0.751881
0.0215149
0.566692
0.0217781
0.427334
0.0219591
0.322414
0.243385
0.0220803
-0.022172
112.644
-0.0152304
85.2875
-0.00955529
64.6153
-0.00498387
48.9518
-0.00127276
37.0928
0.00175465
28.1127
0.00426567
21.3132
0.00640682
16.1646
0.00831036
12.2648
0.0100933
9.30909
0.0118435
7.06633
0.0136008
5.36205
0.0153434
4.06499
0.0170002
3.07733
0.0184826
2.32578
0.0197318
1.75528
0.0207166
1.32333
0.0214592
0.997162
0.0219978
0.751342
0.0223716
0.566318
0.0226245
0.427081
0.0227952
0.322243
0.243273
0.0229067
-0.0232784
112.635
-0.0159892
85.2802
-0.0100296
64.6093
-0.0052284
48.947
-0.00133083
37.0889
0.00184898
28.1096
0.00448688
21.3105
0.00673676
16.1623
0.00873714
12.2628
0.0106098
9.30722
0.012445
7.06449
0.0142823
5.36022
0.0160964
4.06318
0.0178123
3.07562
0.0193377
2.32426
0.0206142
1.75401
0.0216128
1.32233
0.0223566
0.996418
0.02289
0.750809
0.0232566
0.565951
0.0234984
0.426839
0.0236579
0.322084
0.243172
0.0237591
-0.0244401
112.625
-0.0167856
85.2725
-0.010527
64.603
-0.00548482
48.942
-0.0013914
37.0848
0.0019486
28.1062
0.00471985
21.3078
0.00708404
16.1599
0.00918617
12.2607
0.0111529