/*--------------------------------*- C++ -*----------------------------------*\
  =========                 |
  \\      /  F ield         | OpenFOAM: The Open Source CFD Toolbox
   \\    /   O peration     | Website:  https://openfoam.org
    \\  /    A nd           | Version:  7
     \\/     M anipulation  |
\*---------------------------------------------------------------------------*/
FoamFile
{
    version     2.0;
    format      ascii;
    class       volVectorField;
    location    "70";
    object      U;
}
// * * * * * * * * * * * * * * * * * * * * * * * * * * * * * * * * * * * * * //

dimensions      [0 1 -1 0 0 0 0];

internalField   nonuniform List<vector> 
12842
(
(15.5825 1.09316 2.27018e-19)
(15.5835 1.10225 3.16064e-20)
(15.5843 1.11205 2.22433e-20)
(15.585 1.1238 -4.35261e-20)
(15.5854 1.13855 2.37466e-19)
(15.5854 1.15726 0)
(15.5845 1.18103 0)
(15.5822 1.21113 6.39915e-21)
(15.5777 1.24903 -1.75883e-19)
(15.5697 1.29631 -1.06454e-20)
(15.5565 1.3546 -6.59623e-20)
(15.5362 1.42532 -1.62294e-20)
(15.5064 1.50951 1.39517e-20)
(15.465 1.6074 2.76489e-20)
(15.4101 1.71826 -3.36311e-20)
(15.341 1.84018 -1.00323e-19)
(15.2583 1.97001 -1.06212e-19)
(15.1641 2.1036 0)
(15.0622 2.23625 1.28913e-20)
(14.957 2.36337 8.9533e-20)
(14.8533 2.48095 1.43119e-20)
(14.7553 2.58646 -6.37925e-20)
(14.6671 2.67735 4.94857e-20)
(15.5833 1.09308 -2.03435e-19)
(15.5861 1.10176 0)
(15.5887 1.11133 4.78708e-19)
(15.5916 1.12294 -3.40567e-19)
(15.5947 1.13765 -2.08299e-19)
(15.5978 1.15647 0)
(15.6008 1.18058 6.04328e-19)
(15.6032 1.21143 0)
(15.6045 1.25068 4.76749e-19)
(15.6035 1.30023 4.4949e-20)
(15.5987 1.36199 1.24589e-19)
(15.5878 1.4377 2.95118e-19)
(15.5684 1.52861 -1.3184e-20)
(15.5378 1.63497 -9.02125e-20)
(15.4937 1.7558 0)
(15.4345 1.88868 1.02846e-19)
(15.3604 2.02968 1.45527e-19)
(15.273 2.17382 -1.50421e-19)
(15.1756 2.31561 0)
(15.073 2.44995 -1.14066e-19)
(14.9702 2.57253 -1.62689e-19)
(14.8716 2.68136 1.63523e-19)
(14.7824 2.77215 -1.66112e-19)
(15.5843 1.09285 0)
(15.5884 1.10093 0)
(15.5925 1.11006 2.56208e-19)
(15.5973 1.12133 1.9386e-18)
(15.6028 1.13576 0)
(15.6087 1.15437 0)
(15.6152 1.17842 2.74448e-19)
(15.6221 1.20946 -7.13514e-19)
(15.6289 1.24937 -2.45767e-19)
(15.6346 1.30029 -2.76357e-19)
(15.6378 1.36446 -5.7351e-19)
(15.6363 1.44394 -2.85158e-19)
(15.6272 1.54024 -6.29592e-20)
(15.6075 1.65372 1.68646e-19)
(15.5743 1.78327 0)
(15.5256 1.92607 1.26756e-21)
(15.4607 2.07756 -1.61851e-21)
(15.3809 2.232 8.85553e-20)
(15.2894 2.38316 6.58887e-20)
(15.1909 2.52544 -7.88199e-20)
(15.0907 2.65406 1.16502e-19)
(14.9935 2.76756 0)
(14.9052 2.85981 5.85371e-20)
(15.5854 1.09248 -1.94567e-19)
(15.5904 1.09983 2.85748e-19)
(15.5957 1.10842 -8.35793e-19)
(15.6023 1.11922 -3.40887e-18)
(15.6098 1.13317 3.08243e-19)
(15.6183 1.15132 -1.10533e-18)
(15.628 1.17495 1.45002e-20)
(15.639 1.20572 6.9711e-19)
(15.651 1.24567 1.30405e-18)
(15.6632 1.29717 -8.1446e-19)
(15.6742 1.36278 1.44325e-18)
(15.6818 1.4449 -1.60921e-19)
(15.683 1.54535 2.0932e-19)
(15.6744 1.66464 7.21459e-19)
(15.6526 1.80164 -8.39039e-20)
(15.6148 1.95323 1.0776e-19)
(15.56 2.11436 1.64876e-20)
(15.489 2.27861 5.03811e-20)
(15.4048 2.4391 -5.60137e-20)
(15.3119 2.58971 5.44391e-20)
(15.2162 2.72519 -3.06909e-20)
(15.1221 2.84448 -4.12793e-20)
(15.0364 2.93959 9.47725e-20)
(15.5865 1.09198 -2.25372e-18)
(15.592 1.09855 0)
(15.5985 1.10652 1.61479e-19)
(15.6065 1.11671 1.2513e-18)
(15.6158 1.13003 1.31188e-19)
(15.6266 1.14748 3.02608e-18)
(15.6392 1.17036 1.96261e-19)
(15.654 1.20041 -2.11574e-18)
(15.6709 1.2398 -1.45793e-18)
(15.6892 1.29113 9.92884e-19)
(15.7078 1.35725 -1.69222e-18)
(15.7245 1.44095 -1.29401e-18)
(15.7361 1.54434 2.79327e-19)
(15.7388 1.6682 -1.65927e-18)
(15.7288 1.81144 -6.52249e-19)
(15.7028 1.97077 4.21064e-19)
(15.6591 2.14069 0)
(15.5982 2.31425 -6.67473e-20)
(15.5227 2.48394 0)
(15.4372 2.64318 6.87929e-20)
(15.3475 2.78615 2.65624e-20)
(15.2582 2.91217 1.86081e-20)
(15.1764 3.0113 -2.34397e-20)
(15.5875 1.09136 1.90303e-18)
(15.5932 1.09715 0)
(15.6007 1.10446 0)
(15.61 1.11395 2.22222e-18)
(15.6208 1.12648 -1.63029e-18)
(15.6336 1.14302 -1.79207e-18)
(15.6488 1.16485 -2.80806e-18)
(15.6671 1.19375 2.32681e-18)
(15.6884 1.23199 0)
(15.7125 1.28239 1.42511e-18)
(15.7384 1.34809 1.5825e-18)
(15.7639 1.43221 6.49109e-19)
(15.7858 1.53726 0)
(15.8002 1.66434 9.33545e-19)
(15.8025 1.81247 5.45514e-19)
(15.7891 1.97831 -2.93272e-19)
(15.7577 2.15605 -7.15762e-20)
(15.7083 2.3383 5.15875e-19)
(15.6432 2.51697 0)
(15.5666 2.68506 -9.96044e-20)
(15.4845 2.83609 7.78477e-20)
(15.4013 2.96974 5.63748e-20)
(15.3247 3.07397 -3.42324e-20)
(15.5885 1.09064 -2.18484e-19)
(15.5941 1.09571 0)
(15.6025 1.10233 0)
(15.6129 1.11105 -2.19887e-18)
(15.6249 1.12271 1.86779e-18)
(15.6394 1.13818 -2.45965e-19)
(15.6569 1.15871 1.68656e-18)
(15.6781 1.1861 1.78217e-19)
(15.7034 1.22271 -2.33907e-19)
(15.7329 1.2715 -1.60646e-18)
(15.7656 1.33587 -1.94641e-19)
(15.7996 1.41932 1.41887e-18)
(15.8318 1.52478 0)
(15.8578 1.65366 -1.34312e-18)
(15.873 1.80528 1.14509e-19)
(15.873 1.9763 -1.47279e-19)
(15.8549 2.16075 4.42059e-19)
(15.8184 2.35088 -3.00165e-19)
(15.7652 2.53812 -4.19815e-19)
(15.6992 2.71509 -8.48648e-20)
(15.6265 2.87458 1.45435e-20)
(15.5508 3.01663 -8.51455e-20)
(15.4808 3.12684 -4.14388e-20)
(15.5893 1.08987 0)
(15.5946 1.09429 -1.21661e-19)
(15.604 1.1002 1.50025e-18)
(15.615 1.10811 -4.07907e-20)
(15.6281 1.1188 -2.02101e-18)
(15.6439 1.13307 3.2932e-19)
(15.6633 1.15209 -5.92714e-20)
(15.687 1.17764 -1.48612e-18)
(15.7158 1.2121 0)
(15.75 1.25856 -2.03845e-18)
(15.7889 1.32064 1.72439e-19)
(15.831 1.40218 1.21722e-19)
(15.8731 1.50652 0)
(15.9108 1.63554 1.31338e-18)
(15.939 1.78888 -1.09506e-18)
(15.9531 1.96343 0)
(15.9496 2.15316 -4.34247e-19)
(15.9274 2.35017 0)
(15.8879 2.54543 3.35551e-19)
(15.8345 2.73127 0)
(15.7729 2.89959 -1.26209e-19)
(15.7067 3.05095 8.41785e-20)
(15.6445 3.16818 1.03419e-19)
(15.59 1.08895 0)
(15.5949 1.09294 0)
(15.605 1.09823 6.19564e-20)
(15.6166 1.10549 -9.456e-20)
(15.6304 1.1154 2.29093e-18)
(15.6471 1.12867 1.94395e-18)
(15.6678 1.14641 0)
(15.6933 1.17038 1.39648e-18)
(15.7247 1.20296 0)
(15.7624 1.24732 4.16616e-18)
(15.8061 1.30723 1.63828e-18)
(15.8545 1.38682 -1.23134e-18)
(15.9045 1.48977 -1.25012e-19)
(15.9518 1.61835 0)
(15.9909 1.77248 1.16591e-18)
(16.017 1.94924 9.10884e-19)
(16.0262 2.14261 -7.64834e-20)
(16.0169 2.34459 5.71944e-19)
(15.99 2.5458 4.86196e-19)
(15.9485 2.73845 0)
(15.8978 2.91354 9.48617e-20)
(15.841 3.07236 1.01125e-20)
(15.7868 3.19553 -5.86614e-20)
(15.5909 1.08796 -3.80385e-20)
(15.5951 1.09174 1.47652e-18)
(15.606 1.09654 -1.44104e-18)
(15.618 1.10333 0)
(15.6323 1.11266 4.21628e-20)
(15.6497 1.12517 8.04458e-20)
(15.6713 1.14192 -1.83592e-18)
(15.6982 1.16465 0)
(15.7314 1.19573 0)
(15.7718 1.23836 -2.09206e-18)
(15.8192 1.29644 -1.733e-18)
(15.8725 1.37428 -5.07704e-20)
(15.9287 1.47582 1.32102e-18)
(15.9835 1.6036 -4.31151e-20)
(16.0316 1.75779 -1.65439e-19)
(16.0676 1.93563 1.93593e-19)
(16.0876 2.13113 -6.08792e-19)
(16.0895 2.3363 -5.32234e-19)
(16.0739 2.54152 -5.48938e-19)
(16.0434 2.739 -3.99905e-19)
(16.0031 2.91902 1.14264e-19)
(15.9554 3.08346 -4.92661e-19)
(15.9093 3.21126 8.47082e-20)
(15.5916 1.08691 2.84765e-18)
(15.5953 1.09064 -1.6824e-18)
(15.6069 1.09495 4.36561e-20)
(15.6191 1.10136 1.41836e-18)
(15.6339 1.11015 -6.60545e-20)
(15.652 1.12196 -2.00289e-18)
(15.6744 1.13779 3.49232e-18)
(15.7026 1.15933 9.92606e-20)
(15.7376 1.18895 -7.39521e-20)
(15.7804 1.22987 -2.2568e-18)
(15.8313 1.28606 6.63435e-20)
(15.8892 1.362 -1.63299e-18)
(15.9514 1.46184 -1.17508e-18)
(16.0136 1.58839 0)
(16.0706 1.74204 1.40948e-18)
(16.1168 1.92023 -1.99443e-18)
(16.148 2.11702 -1.56817e-19)
(16.162 2.32448 5.78276e-19)
(16.159 2.53284 -2.37072e-21)
(16.1409 2.73439 5.06377e-19)
(16.1127 2.91871 0)
(16.0759 3.08827 1.54233e-19)
(16.0397 3.22033 0)
(15.5922 1.08583 -4.37635e-18)
(15.5954 1.08964 -1.63508e-18)
(15.6077 1.09346 7.4133e-20)
(15.6201 1.09953 -2.79509e-18)
(15.6354 1.10783 1.2502e-18)
(15.654 1.11898 -5.85485e-20)
(15.6772 1.13392 -1.78588e-18)
(15.7064 1.15431 2.89279e-20)
(15.7431 1.18247 -8.7483e-20)
(15.7882 1.22167 2.32116e-18)
(15.8423 1.27589 0)
(15.9046 1.34976 1.4901e-18)
(15.9727 1.4476 1.17207e-19)
(16.0423 1.57248 -5.75266e-20)
(16.1081 1.72501 -1.45734e-18)
(16.1649 1.90281 -3.0288e-21)
(16.208 2.10004 5.59746e-19)
(16.235 2.30889 -9.60542e-19)
(16.2457 2.51944 0)
(16.2415 2.72416 -3.79678e-19)
(16.227 2.91196 4.87505e-19)
(16.2029 3.08592 0)
(16.1783 3.22174 -2.44602e-19)
(15.5926 1.08475 1.48579e-18)
(15.5954 1.08874 -9.29516e-21)
(15.6084 1.09205 7.5121e-20)
(15.621 1.09785 1.34743e-18)
(15.6366 1.10566 -2.45385e-18)
(15.6557 1.11618 1.0144e-20)
(15.6796 1.13025 2.59472e-20)
(15.7099 1.14952 1.64756e-18)
(15.7479 1.17624 -3.89573e-20)
(15.7953 1.21366 0)
(15.8524 1.26582 1.97916e-18)
(15.9189 1.33742 4.68084e-20)
(15.9926 1.43297 4.63957e-20)
(16.0696 1.55573 1.13777e-20)
(16.1445 1.70652 -1.47419e-19)
(16.2121 1.88318 1.13706e-18)
(16.2677 2.07996 -6.70002e-19)
(16.3086 2.2892 -1.16681e-19)
(16.3343 2.50086 -2.04764e-19)
(16.3454 2.70765 5.41505e-19)
(16.3463 2.89784 -3.41158e-19)
(16.3366 3.07518 7.03805e-19)
(16.3251 3.21404 -4.41455e-19)
(15.5929 1.08369 1.54937e-18)
(15.5955 1.08791 1.58631e-18)
(15.609 1.09073 7.23409e-21)
(15.6217 1.09629 1.4353e-18)
(15.6377 1.10364 2.4916e-18)
(15.6573 1.11354 -1.02812e-20)
(15.6818 1.12678 -2.63679e-20)
(15.7129 1.14492 2.93222e-20)
(15.7523 1.17019 -1.42622e-18)
(15.8016 1.2058 1.24587e-18)
(15.8616 1.25578 -2.08113e-18)
(15.9323 1.32491 -1.67609e-18)
(16.0115 1.41783 1.40377e-18)
(16.0958 1.53799 0)
(16.18 1.68641 8.63328e-19)
(16.2588 1.86112 0)
(16.3276 2.05648 8.87317e-19)
(16.3833 2.26499 5.41196e-19)
(16.425 2.4765 -7.57856e-21)
(16.4528 2.68403 -6.20209e-19)
(16.4704 2.87519 -8.26103e-21)
(16.4767 3.05451 1.21173e-20)
(16.4797 3.19535 -1.85719e-19)
(15.5931 1.08267 1.0334e-20)
(15.5955 1.08717 1.71749e-20)
(15.6095 1.08949 -7.23157e-21)
(15.6223 1.09483 -1.43499e-18)
(15.6387 1.10173 -1.24275e-18)
(15.6586 1.11105 0)
(15.6836 1.12346 1.77018e-20)
(15.7156 1.14049 -1.66951e-18)
(15.7562 1.16429 -2.6236e-20)
(15.8074 1.19803 -1.24638e-18)
(15.8701 1.24572 1.09233e-18)
(15.9447 1.31216 2.61376e-18)
(16.0295 1.4021 -1.35448e-18)
(16.1211 1.51915 1.09701e-18)
(16.2147 1.6645 1.02458e-19)
(16.3051 1.83637 1.15557e-20)
(16.3876 2.02921 -5.13583e-20)
(16.4589 2.2357 -1.77584e-19)
(16.5177 2.44558 1.19582e-19)
(16.5633 2.6522 -2.07606e-19)
(16.5991 2.8426 -1.69724e-20)
(16.6226 3.02203 1.60485e-19)
(16.6415 3.1634 0)
(15.5932 1.08171 -9.23322e-21)
(15.5956 1.08648 0)
(15.61 1.08834 0)
(15.6228 1.09348 -1.43242e-18)
(15.6395 1.09994 -1.28185e-18)
(15.6597 1.10868 1.11038e-18)
(15.6853 1.12027 1.35141e-20)
(15.7179 1.13619 -1.56408e-20)
(15.7597 1.15851 1.47217e-18)
(15.8126 1.19032 -2.31815e-20)
(15.878 1.23557 5.4605e-20)
(15.9564 1.29909 -8.88829e-19)
(16.0466 1.38567 0)
(16.1455 1.49905 -1.16461e-18)
(16.2487 1.64057 -1.8588e-18)
(16.351 1.80862 -7.74418e-19)
(16.4477 1.99771 -4.79266e-19)
(16.5354 2.2007 0)
(16.6121 2.40718 0)
(16.6766 2.61092 3.60849e-19)
(16.7315 2.79842 2.41649e-19)
(16.7734 2.97564 -5.02228e-19)
(16.8093 3.11568 0)
(15.5933 1.08081 -1.62309e-18)
(15.5956 1.08586 8.67172e-21)
(15.6103 1.08725 -3.60291e-21)
(15.6233 1.09221 1.42138e-18)
(15.6402 1.09823 2.54907e-18)
(15.6607 1.10642 -2.20705e-18)
(15.6867 1.1172 -1.36386e-20)
(15.72 1.132 -1.58522e-20)
(15.7628 1.1528 2.08538e-20)
(15.8173 1.1826 0)
(15.8852 1.22528 -1.08677e-18)
(15.9673 1.28562 9.3533e-19)
(16.0628 1.36841 0)
(16.1691 1.47751 0)
(16.282 1.61436 8.84696e-19)
(16.3966 1.7775 5.16647e-20)
(16.508 1.96143 5.43971e-19)
(16.6125 2.15921 4.23056e-19)
(16.7079 2.36024 -6.09478e-19)
(16.792 2.55877 -2.16531e-19)
(16.8667 2.74082 8.49763e-19)
(16.9276 2.91308 -7.82248e-19)
(16.9809 3.04949 5.10925e-19)
(15.5933 1.07997 8.23386e-19)
(15.5957 1.08528 7.50217e-19)
(15.6106 1.08622 7.91919e-21)
(15.6237 1.09101 -1.04703e-20)
(15.6409 1.09661 -1.28476e-18)
(15.6616 1.10424 1.11995e-18)
(15.6879 1.11422 -9.15306e-21)
(15.7219 1.1279 -3.97426e-21)
(15.7656 1.14714 2.10911e-20)
(15.8216 1.17486 1.20226e-20)
(15.8918 1.21479 -1.57691e-20)
(15.9775 1.27166 -9.35378e-19)
(16.0783 1.35022 8.22499e-19)
(16.1919 1.45438 -3.65565e-20)
(16.3145 1.58562 0)
(16.4415 1.7426 -8.85218e-20)
(16.5679 1.91978 6.97236e-20)
(16.6898 2.11039 -4.2566e-19)
(16.8042 2.30362 7.74887e-19)
(16.9081 2.49426 4.55229e-19)
(17.0027 2.66799 -3.0649e-19)
(17.0827 2.83213 -4.50607e-19)
(17.1534 2.96227 5.77386e-19)
(15.5933 1.0792 3.31864e-21)
(15.5957 1.08475 -7.57523e-19)
(15.6109 1.08526 0)
(15.624 1.08988 0)
(15.6414 1.09506 0)
(15.6623 1.10214 0)
(15.689 1.11131 9.21914e-21)
(15.7234 1.12386 -4.05548e-21)
(15.7681 1.14151 -1.06423e-20)
(15.8254 1.16705 1.21973e-20)
(15.8978 1.20406 -1.60024e-20)
(15.987 1.25716 0)
(16.0928 1.33099 -1.60825e-18)
(16.2138 1.42947 4.64217e-20)
(16.3462 1.55407 -9.72725e-20)
(16.4857 1.70351 9.07587e-19)
(16.6272 1.87217 -7.33633e-20)
(16.7663 2.0534 1.25263e-19)
(16.8997 2.23622 -1.42012e-19)
(17.0232 2.41602 2.535e-19)
(17.1373 2.57831 -3.58728e-19)
(17.2356 2.731 0)
(17.3227 2.85199 3.39834e-19)
(15.5933 1.0785 -1.64597e-18)
(15.5957 1.08426 -3.6775e-19)
(15.6111 1.08435 -5.77428e-21)
(15.6243 1.0888 7.25083e-19)
(15.6418 1.09356 6.47128e-19)
(15.663 1.1001 5.2592e-21)
(15.6899 1.10847 -9.99695e-19)
(15.7248 1.11986 8.82931e-19)
(15.7702 1.13587 7.57291e-19)
(15.8288 1.15914 0)
(15.9033 1.19305 2.11549e-20)
(15.9957 1.24204 -1.01734e-18)
(16.1065 1.31061 8.43023e-19)
(16.2345 1.40261 6.46067e-19)
(16.3766 1.51944 5.52665e-19)
(16.5285 1.65982 0)
(16.685 1.81799 0)
(16.8412 1.98746 -5.06241e-19)
(16.9929 2.15706 -5.4834e-19)
(17.1351 2.32292 2.75109e-19)
(17.2674 2.47061 1.95005e-19)
(17.3823 2.60853 2.7188e-19)
(17.4843 2.71748 -3.75544e-19)
(15.5932 1.07786 8.25944e-19)
(15.5958 1.08379 3.68864e-19)
(15.6112 1.08349 -3.99574e-21)
(15.6246 1.08776 5.80922e-21)
(15.6422 1.09211 -6.46408e-19)
(15.6635 1.09811 -5.5827e-19)
(15.6906 1.10566 4.86869e-19)
(15.7259 1.11587 -8.73426e-19)
(15.7719 1.1302 -7.52511e-19)
(15.8317 1.15109 -1.88465e-20)
(15.9081 1.18169 0)
(16.0036 1.22622 9.888e-19)
(16.1191 1.28897 8.45966e-19)
(16.2541 1.37363 -6.8475e-19)
(16.4056 1.48145 -4.74262e-19)
(16.5696 1.61113 -2.2577e-19)
(16.7405 1.75672 -1.89652e-19)
(16.9129 1.91192 1.03949e-18)
(17.0818 2.06547 0)
(17.241 2.21435 0)
(17.3894 2.34449 2.21711e-19)
(17.5187 2.46471 -5.5275e-19)
(17.633 2.55896 -4.08994e-19)
(15.5932 1.07727 -8.18914e-19)
(15.5958 1.08335 0)
(15.6114 1.08267 0)
(15.6248 1.08676 -1.44868e-18)
(15.6425 1.0907 6.41062e-19)
(15.6639 1.09616 5.70591e-19)
(15.6912 1.10289 -1.14012e-21)
(15.7269 1.11191 4.31232e-19)
(15.7735 1.1245 1.80082e-20)
(15.8343 1.14289 -6.87721e-19)
(15.9124 1.16999 2.16595e-20)
(16.0107 1.2097 -2.83937e-20)
(16.1307 1.26603 -8.45335e-19)
(16.2722 1.34244 7.15461e-19)
(16.4327 1.43997 5.43461e-19)
(16.6082 1.55724 -4.76615e-19)
(16.7926 1.68809 4.33893e-19)
(16.98 1.82653 -5.32972e-19)
(17.1642 1.96128 0)
(17.338 2.09041 0)
(17.4997 2.20051 -2.08981e-19)
(17.6401 2.30075 1.54856e-19)
(17.7636 2.37817 -4.38785e-19)
(15.5931 1.07675 5.28082e-21)
(15.5958 1.08294 -3.69019e-19)
(15.6114 1.08189 0)
(15.6249 1.0858 3.62653e-19)
(15.6427 1.08932 -1.29127e-18)
(15.6641 1.09423 5.27196e-21)
(15.6916 1.10011 -7.24063e-21)
(15.7275 1.1079 -4.46632e-19)
(15.7746 1.11869 1.08146e-20)
(15.8362 1.13447 6.89338e-19)
(15.9158 1.15781 -1.65649e-20)
(16.0168 1.1923 -4.92723e-19)
(16.1409 1.24155 -5.57185e-20)
(16.2885 1.30874 -6.73889e-19)
(16.4573 1.39462 -6.25642e-19)
(16.6434 1.49772 4.21618e-20)
(16.8401 1.61175 0)
(17.0406 1.73111 -7.64603e-20)
(17.2377 1.84476 1.00096e-19)
(17.4231 1.95197 0)
(17.5947 2.04027 2.26584e-19)
(17.7427 2.11917 -1.5402e-19)
(17.872 2.17847 0)
(15.593 1.07631 8.2076e-19)
(15.5958 1.0826 3.70077e-19)
(15.6115 1.08129 0)
(15.625 1.08505 3.62482e-19)
(15.6429 1.08832 1.29689e-18)
(15.6644 1.09285 5.65266e-19)
(15.692 1.09813 9.99731e-19)
(15.7282 1.10496 0)
(15.7756 1.11426 7.81177e-19)
(15.838 1.12777 -6.86958e-19)
(15.9189 1.14771 5.9739e-19)
(16.0221 1.17721 5.19945e-19)
(16.1497 1.21935 -8.0044e-21)
(16.3026 1.27683 1.04835e-20)
(16.4788 1.34991 -6.12877e-19)
(16.6742 1.43694 4.82452e-19)
(16.8816 1.53149 0)
(17.0932 1.62857 2.93842e-19)
(17.3005 1.7177 0)
(17.4945 1.79966 0)
(17.6723 1.86353 -2.21084e-19)
(17.8243 1.91899 -4.82889e-19)
(17.9557 1.95858 4.20623e-19)
(15.593 1.07595 0)
(15.5959 1.0824 -1.71997e-23)
(15.6116 1.08091 5.39456e-23)
(15.6252 1.0846 -3.61377e-19)
(15.643 1.08768 -3.24298e-19)
(15.6646 1.09194 -5.64703e-19)
(15.6923 1.09676 -4.99674e-19)
(15.7285 1.10284 -5.16718e-22)
(15.7762 1.11092 -3.90048e-19)
(15.8391 1.12246 -1.57923e-22)
(15.9209 1.13927 2.0525e-21)
(16.0257 1.16398 0)
(16.1562 1.199 8.06528e-21)
(16.3136 1.2464 -1.0556e-20)
(16.4961 1.30583 8.97835e-19)
(16.6994 1.3754 2.8366e-20)
(16.9155 1.44861 0)
(17.1354 1.52131 8.4822e-20)
(17.3496 1.58402 -1.03372e-19)
(17.5482 1.6391 0)
(17.7282 1.67774 0)
(17.8803 1.70961 3.12557e-19)
(18.0107 1.72961 -2.20009e-19)
(15.593 1.07558 8.23513e-19)
(15.596 1.08221 3.72345e-19)
(15.6117 1.08054 0)
(15.6253 1.08416 3.61453e-19)
(15.6432 1.08705 -3.23723e-19)
(15.6648 1.09104 -5.63894e-19)
(15.6926 1.09541 4.99554e-19)
(15.7289 1.10074 -4.42101e-19)
(15.7769 1.10758 -3.90379e-19)
(15.8402 1.11713 1.03098e-18)
(15.9229 1.13077 -5.99385e-19)
(16.0293 1.15057 -5.22738e-19)
(16.1623 1.17825 -4.51178e-19)
(16.3234 1.2152 0)
(16.5109 1.26045 -3.08263e-19)
(16.7201 1.31195 5.01025e-19)
(16.9421 1.36335 2.67616e-20)
(17.1668 1.41152 -3.2923e-19)
(17.3837 1.4484 0)
(17.5826 1.47786 0)
(17.7605 1.49328 0)
(17.9091 1.50404 -4.70972e-19)
(18.0356 1.5068 4.24167e-19)
(15.593 1.07521 -8.23889e-19)
(15.596 1.08202 -8.54417e-22)
(15.6117 1.08017 0)
(15.6254 1.08372 -3.59435e-19)
(15.6434 1.08643 -3.5083e-23)
(15.6651 1.09015 8.45727e-19)
(15.6929 1.09406 -9.99195e-19)
(15.7294 1.09864 1.32763e-18)
(15.7776 1.10425 -4.57082e-22)
(15.8414 1.11179 -3.42904e-19)
(15.9248 1.12221 -3.03369e-19)
(16.0325 1.137 5.23948e-19)
(16.1675 1.15716 4.45766e-19)
(16.3315 1.18337 -3.79402e-19)
(16.5227 1.21407 5.53213e-21)
(16.7358 1.24714 -5.06436e-19)
(16.9609 1.27665 0)
(17.187 1.30071 0)
(17.403 1.31294 2.19123e-19)
(17.5985 1.31862 0)
(17.7713 1.31319 0)
(17.9139 1.30558 7.49094e-20)
(18.0345 1.29354 2.05231e-19)
(15.5929 1.07486 0)
(15.5961 1.08183 -3.71774e-19)
(15.6118 1.07981 1.05714e-23)
(15.6255 1.08329 1.19867e-21)
(15.6435 1.08581 -2.33938e-23)
(15.6653 1.08926 -5.6303e-19)
(15.6931 1.09271 4.99608e-19)
(15.7298 1.09654 -8.85363e-19)
(15.7782 1.10091 -3.92002e-19)
(15.8423 1.10643 0)
(15.9264 1.11359 3.01783e-19)
(16.035 1.1233 1.06396e-21)
(16.1715 1.13579 2.35389e-22)
(16.3375 1.15106 3.77401e-19)
(16.531 1.16699 0)
(16.7459 1.18153 2.55747e-19)
(16.9716 1.18942 -5.67958e-21)
(17.1962 1.1902 0)
(17.4082 1.17937 -2.18302e-19)
(17.5978 1.16343 0)
(17.763 1.13964 0)
(17.8981 1.11634 0)
(18.0118 1.09186 -2.04048e-21)
(15.5929 1.07451 0)
(15.5961 1.08165 1.84359e-19)
(15.6118 1.07945 -1.93153e-24)
(15.6256 1.08287 3.58448e-19)
(15.6437 1.0852 3.21623e-19)
(15.6654 1.08838 5.62578e-19)
(15.6934 1.09138 0)
(15.7301 1.09446 -4.43047e-19)
(15.7786 1.09758 7.84196e-19)
(15.843 1.10106 -1.26982e-23)
(15.9275 1.10494 3.03255e-19)
(16.0368 1.1095 -2.63418e-19)
(16.1743 1.11423 0)
(16.3414 1.11842 0)
(16.5356 1.11952 3.12934e-19)
(16.7505 1.11566 -2.50845e-19)
(16.9744 1.10253 0)
(17.1948 1.08119 -2.91059e-19)
(17.4003 1.04914 -2.1535e-19)
(17.5819 1.01386 0)
(17.7382 0.97415 3.47904e-21)
(17.8648 0.937625 2.38079e-22)
(17.971 0.902782 -1.06634e-19)
(15.5928 1.07418 2.53074e-24)
(15.5962 1.08146 -3.67964e-19)
(15.6119 1.0791 -5.58831e-24)
(15.6257 1.08245 0)
(15.6438 1.08459 -2.5487e-22)
(15.6656 1.08751 -5.62293e-19)
(15.6936 1.09005 -1.08701e-22)
(15.7303 1.09238 4.42914e-19)
(15.779 1.09426 -3.92062e-19)
(15.8436 1.0957 3.46006e-19)
(15.9283 1.09627 2.00937e-22)
(16.038 1.09565 5.26977e-19)
(16.1758 1.09256 -4.5244e-19)
(16.3431 1.08566 1.34038e-21)
(16.5368 1.072 -6.26667e-19)
(16.7497 1.05011 2.56282e-19)
(16.9696 1.01678 -1.21985e-20)
(17.1835 0.974753 3.0045e-19)
(17.3807 0.923442 2.13534e-19)
(17.5526 0.871106 0)
(17.6989 0.817747 1.03461e-19)
(17.8166 0.770211 0)
(17.915 0.726788 -4.56131e-20)
(15.5928 1.07385 0)
(15.5962 1.08128 1.83601e-19)
(15.6119 1.07876 2.25956e-19)
(15.6258 1.08203 2.02997e-23)
(15.6439 1.08399 -6.42894e-19)
(15.6657 1.08665 2.81195e-19)
(15.6937 1.08874 0)
(15.7305 1.09032 0)
(15.7793 1.09095 -2.29378e-22)
(15.8439 1.09035 -3.45632e-19)
(15.9288 1.08761 -6.11432e-23)
(16.0385 1.08178 -2.63099e-19)
(16.1761 1.07089 4.50308e-19)
(16.3426 1.05294 0)
(16.5345 1.02476 3.11094e-19)
(16.7437 0.985385 -2.48137e-19)
(16.9575 0.932929 1.75965e-19)
(17.1632 0.871776 1.68027e-20)
(17.3503 0.803206 0)
(17.5116 0.736016 0)
(17.6472 0.671087 -5.09482e-20)
(17.7558 0.614467 -1.36151e-19)
(17.8463 0.563973 9.48571e-20)
(15.5927 1.07354 0)
(15.5963 1.0811 -8.42629e-24)
(15.612 1.07842 -2.26013e-19)
(15.6259 1.08162 1.78498e-19)
(15.644 1.0834 3.21377e-19)
(15.6658 1.08579 6.15662e-23)
(15.6939 1.08744 2.5e-19)
(15.7307 1.08827 2.21794e-19)
(15.7795 1.08766 -3.92584e-19)
(15.8441 1.08501 0)
(15.929 1.07896 -3.75218e-22)
(16.0384 1.06795 -2.62092e-19)
(16.1753 1.04929 0)
(16.3401 1.02044 -6.72417e-21)
(16.5287 0.978116 3.14177e-19)
(16.7325 0.921988 0)
(16.9387 0.851617 -2.91207e-20)
(17.1343 0.773015 -4.24669e-21)
(17.3102 0.68916 2.46934e-19)
(17.4602 0.609165 0)
(17.5849 0.534524 0)
(17.6843 0.470477 6.83493e-20)
(17.7672 0.414173 -2.26217e-19)
(15.5927 1.07324 -5.0189e-24)
(15.5963 1.08092 6.62495e-24)
(15.612 1.07809 0)
(15.626 1.08121 1.78473e-19)
(15.6441 1.08281 -1.63107e-22)
(15.666 1.08494 1.23121e-22)
(15.694 1.08614 -2.4987e-19)
(15.7309 1.08623 -2.2199e-19)
(15.7796 1.08439 3.92563e-19)
(15.8442 1.0797 -3.44463e-19)
(15.9288 1.07035 -3.03531e-19)
(16.0376 1.0542 2.64408e-19)
(16.1732 1.02787 2.18881e-19)
(16.3354 0.988354 1.78512e-19)
(16.5196 0.932373 -3.07273e-19)
(16.7166 0.860369 1.384e-20)
(16.9134 0.773419 -2.09997e-19)
(17.0978 0.679082 -1.01477e-19)
(17.2616 0.581836 -1.02962e-19)
(17.3998 0.49091 7.1425e-20)
(17.5136 0.408185 -9.25324e-20)
(17.6041 0.338111 0)
(17.6794 0.277039 8.587e-20)
(15.5926 1.07294 0)
(15.5963 1.08075 1.80971e-19)
(15.612 1.07777 2.25467e-19)
(15.6261 1.08081 -1.78673e-19)
(15.6442 1.08223 1.6057e-19)
(15.6661 1.0841 0)
(15.6941 1.08486 2.92974e-22)
(15.731 1.08421 -3.85649e-22)
(15.7797 1.08113 1.95843e-19)
(15.8441 1.07442 5.17474e-19)
(15.9282 1.0618 -2.99262e-19)
(16.0361 1.04056 -1.82273e-21)
(16.1699 1.00671 -1.91437e-21)
(16.3287 0.956845 -1.85088e-19)
(16.5073 0.887821 0)
(16.696 0.800941 2.31598e-19)
(16.8822 0.698831 -1.75598e-19)
(17.0544 0.590467 1.33822e-19)
(17.2055 0.481615 4.55745e-20)
(17.3316 0.381441 4.4111e-21)
(17.4347 0.292041 -8.88172e-20)
(17.5165 0.217113 5.99468e-20)
(17.5845 0.152126 8.44976e-20)
(15.5926 1.07265 2.01512e-19)
(15.5964 1.08057 -5.72658e-22)
(15.6121 1.07744 -2.25536e-19)
(15.6261 1.08041 -1.78295e-19)
(15.6443 1.08166 -3.20919e-19)
(15.6662 1.08327 -2.80387e-19)
(15.6942 1.08358 -2.92584e-22)
(15.731 1.0822 3.85121e-22)
(15.7796 1.0779 -1.95838e-19)
(15.8438 1.06918 -1.7223e-19)
(15.9273 1.05333 5.99881e-19)
(16.034 1.02708 -2.57588e-19)
(16.1654 0.985907 -2.2005e-19)
(16.32 0.92608 1.79872e-19)
(16.4919 0.844728 -1.01949e-20)
(16.6712 0.744073 -2.02857e-19)
(16.8456 0.628271 1.78728e-19)
(17.0048 0.507557 -1.88044e-19)
(17.1428 0.388758 -4.91273e-20)
(17.2568 0.280833 0)
(17.3493 0.185966 8.8984e-20)
(17.4228 0.10716 -1.18385e-19)
(17.4837 0.0389568 1.60202e-19)
(15.5925 1.07238 -2.01544e-19)
(15.5964 1.0804 -2.7043e-19)
(15.6121 1.07713 -2.2502e-19)
(15.6262 1.08001 1.77758e-19)
(15.6443 1.08109 1.60324e-19)
(15.6662 1.08244 2.80368e-19)
(15.6943 1.08232 2.4911e-19)
(15.731 1.08021 0)
(15.7795 1.07469 1.9498e-19)
(15.8433 1.06398 -1.71131e-19)
(15.9261 1.04494 -2.99244e-19)
(16.0313 1.0138 2.57582e-19)
(16.1597 0.965538 0)
(16.3093 0.89622 -1.67257e-19)
(16.4735 0.803341 1.24757e-19)
(16.6424 0.690092 -1.09265e-19)
(16.8042 0.562091 4.46726e-20)
(16.9497 0.43065 6.64985e-20)
(17.0744 0.303436 -1.74647e-19)
(17.1763 0.189084 1.17231e-19)
(17.2585 0.0897864 0)
(17.3239 0.00791012 -2.29018e-19)
(17.378 -0.0629383 3.28626e-19)
(15.5924 1.07211 0)
(15.5965 1.08023 8.99571e-20)
(15.6121 1.07682 2.25011e-19)
(15.6263 1.07962 -1.77803e-19)
(15.6444 1.08052 -2.35861e-23)
(15.6663 1.08162 1.22349e-22)
(15.6943 1.08107 -1.24705e-19)
(15.731 1.07823 0)
(15.7792 1.07152 -1.94982e-19)
(15.8426 1.05884 6.80578e-22)
(15.9246 1.03667 0)
(16.0279 1.00077 -1.26459e-19)
(16.1529 0.94569 0)
(16.2968 0.867418 1.23065e-20)
(16.4525 0.763884 -2.75479e-19)
(16.61 0.639282 8.43056e-20)
(16.7584 0.500583 4.27745e-20)
(16.8899 0.359977 -1.69194e-19)
(17.0011 0.225755 8.47319e-20)
(17.091 0.106148 1.17507e-19)
(17.1631 0.00330587 -1.90161e-19)
(17.2208 -0.0809736 1.58205e-19)
(17.2683 -0.154004 -5.86863e-19)
(15.5924 1.07185 -1.99485e-19)
(15.5965 1.08006 8.93867e-20)
(15.6121 1.07651 -1.12009e-19)
(15.6263 1.07923 -9.26441e-23)
(15.6445 1.07996 1.61664e-22)
(15.6663 1.08081 -2.85882e-22)
(15.6943 1.07982 -1.24282e-19)
(15.7309 1.07628 8.97257e-22)
(15.7789 1.06837 -6.76416e-22)
(15.8418 1.05376 7.56808e-22)
(15.9227 1.02852 -1.46811e-19)
(16.0239 0.988011 1.21912e-19)
(16.1451 0.92644 5.95633e-21)
(16.2827 0.839802 -1.19838e-20)
(16.429 0.726552 1.5312e-19)
(16.5744 0.591884 0)
(16.7088 0.443984 7.49421e-20)
(16.8259 0.295709 1.13845e-19)
(16.9235 0.155779 -8.06832e-20)
(17.0017 0.0319597 2.15394e-19)
(17.064 -0.0736684 -1.05563e-19)
(17.1142 -0.159803 2.35364e-20)
(17.1552 -0.234643 2.94913e-19)
(15.5923 1.0716 3.98142e-19)
(15.5965 1.07989 -8.94127e-20)
(15.6121 1.07621 2.92228e-22)
(15.6264 1.07885 0)
(15.6445 1.07941 0)
(15.6664 1.08 -1.39058e-19)
(15.6943 1.07859 -1.23729e-19)
(15.7307 1.07433 0)
(15.7785 1.06525 -9.00351e-22)
(15.8408 1.04874 1.70887e-19)
(15.9205 1.02052 1.49495e-19)
(16.0193 0.975573 -3.50349e-21)
(16.1363 0.907858 -7.33695e-21)
(16.2669 0.81349 2.1211e-20)
(16.4033 0.691518 -1.52081e-20)
(16.5359 0.548101 0)
(16.6559 0.392484 -1.07689e-19)
(16.7584 0.237978 4.21132e-21)
(16.8425 0.0935456 -2.17585e-19)
(16.9089 -0.0335508 9.84569e-20)
(16.9617 -0.141303 1.38664e-19)
(17.0045 -0.228838 -2.24956e-19)
(17.0393 -0.305182 0)
(15.5923 1.07135 -3.96439e-19)
(15.5966 1.07973 1.29887e-23)
(15.6121 1.07591 1.1179e-19)
(15.6264 1.07847 0)
(15.6445 1.07886 0)
(15.6664 1.0792 4.38926e-22)
(15.6943 1.07737 2.47036e-19)
(15.7306 1.07241 0)
(15.7781 1.06217 9.6352e-20)
(15.8397 1.04379 0)
(15.918 1.01268 0)
(16.0142 0.963486 -4.41251e-21)
(16.1265 0.89001 5.76836e-21)
(16.2497 0.788586 6.8829e-20)
(16.3756 0.658926 1.47263e-20)
(16.4949 0.508097 -2.53791e-20)
(16.6003 0.34623 1.04527e-19)
(16.688 0.186879 0)
(16.7586 0.0390794 7.10673e-20)
(16.8134 -0.090433 0)
(16.8568 -0.199712 3.01539e-20)
(16.8924 -0.288254 4.19257e-20)
(16.9209 -0.365828 0)
(15.5922 1.07112 2.96271e-19)
(15.5966 1.07957 -4.43498e-20)
(15.6122 1.07562 0)
(15.6265 1.07809 8.75312e-20)
(15.6446 1.07832 -7.88512e-20)
(15.6664 1.07841 1.38795e-19)
(15.6942 1.07616 -1.23523e-19)
(15.7304 1.07051 -1.09721e-19)
(15.7775 1.05913 -9.56863e-20)
(15.8384 1.03893 -1.53962e-21)
(15.9152 1.00501 2.01915e-21)
(16.0085 0.951781 1.20041e-19)
(16.1158 0.872953 6.97475e-21)
(16.2312 0.76518 -1.00131e-19)
(16.3461 0.628894 1.42175e-20)
(16.4519 0.471999 0)
(16.5423 0.305333 0)
(16.6152 0.142484 0)
(16.6723 -0.00759162 0)
(16.7157 -0.138701 -2.05994e-20)
(16.7498 -0.248938 -1.33755e-19)
(16.7781 -0.338119 1.31655e-19)
(16.8004 -0.416659 0)
(15.5922 1.07089 -9.84847e-20)
(15.5966 1.0794 8.86003e-20)
(15.6122 1.07533 0)
(15.6265 1.07772 -8.75871e-20)
(15.6446 1.07778 1.57672e-19)
(15.6664 1.07762 0)
(15.6942 1.07496 0)
(15.7301 1.06862 1.09218e-19)
(15.7769 1.05612 0)
(15.837 1.03415 -8.13878e-20)
(15.9121 0.997535 -7.27129e-20)
(16.0024 0.940484 -6.10153e-20)
(16.1044 0.856736 9.57655e-20)
(16.2116 0.743348 0)
(16.3152 0.601514 0)
(16.4071 0.439901 2.26103e-20)
(16.4826 0.269867 -2.95648e-20)
(16.5407 0.104846 0)
(16.5844 -0.0464305 -2.79072e-20)
(16.6163 -0.178325 2.06885e-20)
(16.6412 -0.288946 1.04761e-19)
(16.6622 -0.378399 -1.37426e-19)
(16.6782 -0.457629 0)
(15.5921 1.07066 9.75105e-24)
(15.5966 1.07924 -8.84102e-20)
(15.6122 1.07505 -3.00875e-23)
(15.6265 1.07735 -4.34597e-20)
(15.6446 1.07724 -7.88199e-20)
(15.6664 1.07685 6.88613e-20)
(15.6941 1.07377 2.13776e-22)
(15.7299 1.06676 -5.48225e-20)
(15.7762 1.05316 9.67193e-20)
(15.8354 1.02945 8.17577e-20)
(15.9088 0.990255 7.0717e-20)
(15.9958 0.929622 -5.90602e-20)
(16.0923 0.8414 -9.58073e-20)
(16.1909 0.723147 -1.00336e-20)
(16.283 0.57685 1.31333e-20)
(16.3611 0.411858 2.11766e-20)
(16.4215 0.239874 -2.77108e-20)
(16.465 0.0739996 0)
(16.4953 -0.0773915 2.80152e-20)
(16.5158 -0.209235 0)
(16.5315 -0.319633 -1.24814e-20)
(16.545 -0.408965 0)
(16.5546 -0.488586 -4.67728e-21)
(15.592 1.07045 4.87191e-20)
(15.5967 1.07908 4.41323e-20)
(15.6122 1.07477 5.51192e-20)
(15.6266 1.07698 2.21191e-22)
(15.6446 1.07671 -1.35937e-22)
(15.6664 1.07607 2.02929e-23)
(15.694 1.07259 -6.12044e-20)
(15.7295 1.06491 -1.97729e-22)
(15.7754 1.05023 -9.51717e-20)
(15.8337 1.02485 -1.49505e-21)
(15.9052 0.983186 7.09655e-20)
(15.9888 0.919213 0)
(16.0795 0.826978 -6.35646e-21)
(16.1695 0.704617 8.31186e-21)
(16.2499 0.554941 2.58056e-20)
(16.3141 0.387894 0)
(16.3597 0.215361 0)
(16.3887 0.0499555 -1.71355e-20)
(16.4057 -0.100428 0)
(16.4147 -0.231326 6.38796e-20)
(16.4211 -0.34083 -7.33099e-20)
(16.4271 -0.429594 6.28393e-21)
(16.43 -0.509232 1.447e-19)
(15.592 1.07024 -9.73017e-20)
(15.5967 1.07893 -2.19512e-20)
(15.6122 1.07449 -8.25613e-20)
(15.6266 1.07661 4.35375e-20)
(15.6447 1.07618 3.89759e-20)
(15.6664 1.0753 -1.03252e-19)
(15.6938 1.07143 6.12795e-20)
(15.7292 1.06309 5.36354e-20)
(15.7746 1.04736 1.52909e-21)
(15.8319 1.02035 -1.14147e-21)
(15.9014 0.976336 -6.90087e-20)
(15.9814 0.909275 -2.7894e-20)
(16.0661 0.813494 3.79573e-20)