/*--------------------------------*- C++ -*----------------------------------*\
  =========                 |
  \\      /  F ield         | OpenFOAM: The Open Source CFD Toolbox
   \\    /   O peration     | Website:  https://openfoam.org
    \\  /    A nd           | Version:  7
     \\/     M anipulation  |
\*---------------------------------------------------------------------------*/
FoamFile
{
    version     2.0;
    format      ascii;
    class       volScalarField;
    location    "70";
    object      yPlus;
}
// * * * * * * * * * * * * * * * * * * * * * * * * * * * * * * * * * * * * * //

dimensions      [0 0 0 0 0 0 0];

internalField   uniform 0;

boundaryField
{
    inlet
    {
        type            calculated;
        value           uniform 0;
    }
    outlet
    {
        type            calculated;
        value           uniform 0;
    }
    suction_side
    {
        type            calculated;
        value           nonuniform List<scalar> 
56
(
6.0285
6.34673
6.44216
6.87193
6.97795
7.63474
7.77529
8.84939
8.97995
10.8331
10.9137
14.2953
16.8463
27.9418
39.4807
47.4615
49.5669
47.5723
43.451
39.0087
34.1139
34.36
37.4834
40.7566
42.6639
43.6622
43.9536
43.794
43.2855
42.6767
41.932
41.1705
40.3647
39.6013
38.8662
38.1597
37.4754
36.8065
36.144
35.4815
34.8167
34.1435
33.4542
32.7339
31.9771
31.1518
30.2526
29.2273
28.0787
26.8791
25.7579
24.7095
23.8476
22.9445
22.4862
21.6318
)
;
    }
    pressure_side
    {
        type            calculated;
        value           nonuniform List<scalar> 
56
(
28.3234
28.996
29.2882
30.019
30.559
31.2471
31.9164
32.616
33.2319
33.7666
34.2292
34.6382
35.0113
35.3614
35.6871
35.9904
36.2745
36.5371
36.7795
37.0115
37.2368
37.453
37.6478
37.798
37.8662
37.8245
37.6975
37.6091
37.716
38.1554
39.0665
40.4205
42.0191
43.4351
44.3523
44.7743
44.4262
42.854
40.2826
36.5463
31.7182
26.0521
19.8524
13.3695
8.4759
7.24287
5.42412
4.859
4.41911
4.24108
4.37807
4.58552
4.92368
5.27171
5.55014
5.91705
)
;
    }
    trailing_edge
    {
        type            calculated;
        value           nonuniform List<scalar> 2(104.043 94.0867);
    }
    defaultFaces
    {
        type            empty;
    }
}


// ************************************************************************* //
