/*--------------------------------*- C++ -*----------------------------------*\
  =========                 |
  \\      /  F ield         | OpenFOAM: The Open Source CFD Toolbox
   \\    /   O peration     | Website:  https://openfoam.org
    \\  /    A nd           | Version:  7
     \\/     M anipulation  |
\*---------------------------------------------------------------------------*/
FoamFile
{
    version     2.0;
    format      ascii;
    class       volSymmTensorField;
    location    "2000";
    object      devReff;
}
// * * * * * * * * * * * * * * * * * * * * * * * * * * * * * * * * * * * * * //

dimensions      [0 2 -2 0 0 0 0];

internalField   nonuniform List<symmTensor> 
180
(
(2.13875e-21 -0.00780754 -0 -4.27751e-21 -0 2.13875e-21)
(7.48535e-22 -0.00780752 -0 -1.49707e-21 -0 7.48535e-22)
(-1.45809e-21 -0.00997235 -0 2.91618e-21 -0 -1.45809e-21)
(4.44384e-21 -0.00997233 -0 -8.88769e-21 -0 4.44384e-21)
(-4.82359e-20 -0.00952937 -0 4.35018e-20 -0 4.73411e-21)
(4.66734e-20 -0.00952935 -0 -4.03768e-20 -0 -6.29657e-21)
(-3.80203e-21 -0.00913569 -0 7.60406e-21 -0 -3.80203e-21)
(4.9543e-21 -0.00913567 -0 -9.90859e-21 -0 4.9543e-21)
(2.75691e-21 -0.00891888 -0 -5.51382e-21 -0 2.75691e-21)
(-3.15494e-21 -0.00891885 -0 6.30989e-21 -0 -3.15494e-21)
(1.9119e-21 -0.00875089 -0 -3.8238e-21 -0 1.9119e-21)
(-1.19103e-21 -0.00875086 -0 2.38206e-21 -0 -1.19103e-21)
(1.59867e-21 -0.00860415 -0 -3.19734e-21 -0 1.59867e-21)
(-1.76418e-21 -0.00860412 -0 3.52836e-21 -0 -1.76418e-21)
(-1.09562e-21 -0.00846812 -0 2.19125e-21 -0 -1.09562e-21)
(-9.72695e-22 -0.00846809 -0 1.94539e-21 -0 -9.72695e-22)
(-2.77144e-21 -0.00833779 -0 5.54289e-21 -0 -2.77144e-21)
(1.85199e-21 -0.00833776 -0 -3.70398e-21 -0 1.85199e-21)
(-1.43747e-21 -0.00821062 -0 2.87493e-21 -0 -1.43747e-21)
(4.51067e-21 -0.00821058 -0 -9.02134e-21 -0 4.51067e-21)
(-6.39336e-22 -0.00808522 -0 1.27867e-21 -0 -6.39336e-22)
(6.56065e-21 -0.00808518 -0 -1.31213e-20 -0 6.56065e-21)
(-5.30493e-21 -0.0079608 -0 1.06099e-20 -0 -5.30493e-21)
(-1.92508e-20 -0.00796076 -0 3.85015e-20 -0 -1.92508e-20)
(-1.53082e-20 -0.00783688 -0 3.06164e-20 -0 -1.53082e-20)
(-4.31509e-20 -0.00783685 -0 8.63018e-20 -0 -4.31509e-20)
(2.19358e-19 -0.0077132 -0 -1.12236e-19 -0 -1.07122e-19)
(-2.17801e-19 -0.00771316 -0 1.09124e-19 -0 1.08677e-19)
(-2.04586e-19 -0.00758956 -0 6.10136e-20 -0 1.43573e-19)
(2.49915e-19 -0.00758952 -0 -1.51673e-19 -0 -9.82424e-20)
(1.50478e-20 -0.00746587 -0 -3.00956e-20 -0 1.50478e-20)
(-2.23531e-20 -0.00746583 -0 4.47061e-20 -0 -2.23531e-20)
(-5.66477e-22 -0.00734208 -0 1.13295e-21 -0 -5.66477e-22)
(-1.60317e-20 -0.00734203 -0 3.20634e-20 -0 -1.60317e-20)
(-6.84599e-21 -0.00721814 -0 1.3692e-20 -0 -6.84599e-21)
(4.58142e-21 -0.00721809 -0 -9.16284e-21 -0 4.58142e-21)
(-1.81262e-20 -0.00709407 -0 3.62524e-20 -0 -1.81262e-20)
(8.3503e-22 -0.00709401 -0 -1.67006e-21 -0 8.3503e-22)
(-1.83728e-20 -0.00696985 -0 3.67456e-20 -0 -1.83728e-20)
(-1.44661e-21 -0.0069698 -0 2.89323e-21 -0 -1.44661e-21)
(-1.09655e-20 -0.00684553 -0 2.19309e-20 -0 -1.09655e-20)
(-2.74978e-21 -0.00684547 -0 5.49956e-21 -0 -2.74978e-21)
(-5.61611e-21 -0.00672112 -0 1.12322e-20 -0 -5.61611e-21)
(-3.51161e-21 -0.00672106 -0 7.02323e-21 -0 -3.51161e-21)
(-3.58993e-21 -0.00659665 -0 7.17986e-21 -0 -3.58993e-21)
(-3.97641e-21 -0.00659659 -0 7.95282e-21 -0 -3.97641e-21)
(-1.9608e-21 -0.00647217 -0 3.9216e-21 -0 -1.9608e-21)
(-4.27548e-21 -0.00647211 -0 8.55096e-21 -0 -4.27548e-21)
(2.40009e-21 -0.00634772 -0 -4.80017e-21 -0 2.40009e-21)
(-4.47787e-21 -0.00634765 -0 8.95575e-21 -0 -4.47787e-21)
(6.00207e-21 -0.00622334 -0 -1.20041e-20 -0 6.00207e-21)
(-4.60131e-21 -0.00622327 -0 9.20262e-21 -0 -4.60131e-21)
(6.0648e-21 -0.00609908 -0 -1.21296e-20 -0 6.0648e-21)
(-4.70975e-21 -0.00609901 -0 9.4195e-21 -0 -4.70975e-21)
(4.26401e-21 -0.00597499 -0 -8.52802e-21 -0 4.26401e-21)
(-4.75481e-21 -0.00597492 -0 9.50963e-21 -0 -4.75481e-21)
(2.20805e-21 -0.00585111 -0 -4.4161e-21 -0 2.20805e-21)
(-4.80885e-21 -0.00585104 -0 9.61769e-21 -0 -4.80885e-21)
(7.12831e-22 -0.00572749 -0 -1.42566e-21 -0 7.12831e-22)
(-4.76602e-21 -0.00572742 -0 9.53204e-21 -0 -4.76602e-21)
(-3.28335e-22 -0.00560419 -0 6.56669e-22 -0 -3.28335e-22)
(-4.58944e-21 -0.00560412 -0 9.17888e-21 -0 -4.58944e-21)
(-5.75032e-22 -0.00548125 -0 1.15006e-21 -0 -5.75032e-22)
(-4.79561e-21 -0.00548118 -0 9.59122e-21 -0 -4.79561e-21)
(-8.40358e-22 -0.00535872 -0 1.68072e-21 -0 -8.40358e-22)
(-4.96807e-21 -0.00535865 -0 9.93615e-21 -0 -4.96807e-21)
(-8.64433e-22 -0.00523666 -0 1.72887e-21 -0 -8.64433e-22)
(-4.60888e-21 -0.00523658 -0 9.21775e-21 -0 -4.60888e-21)
(-2.75179e-22 -0.0051151 -0 5.50358e-22 -0 -2.75179e-22)
(-4.24405e-21 -0.00511502 -0 8.48811e-21 -0 -4.24405e-21)
(2.18342e-22 -0.00499409 -0 -4.36684e-22 -0 2.18342e-22)
(-3.86618e-21 -0.00499401 -0 7.73235e-21 -0 -3.86618e-21)
(6.04599e-22 -0.00487368 -0 -1.2092e-21 -0 6.04599e-22)
(-3.43927e-21 -0.00487361 -0 6.87853e-21 -0 -3.43927e-21)
(9.43257e-22 -0.00475391 -0 -1.88651e-21 -0 9.43257e-22)
(-2.99716e-21 -0.00475384 -0 5.99432e-21 -0 -2.99716e-21)
(1.2097e-21 -0.00463482 -0 -2.4194e-21 -0 1.2097e-21)
(-2.5181e-21 -0.00463476 -0 5.0362e-21 -0 -2.5181e-21)
(9.12266e-22 -0.00451646 -0 -1.82453e-21 -0 9.12266e-22)
(-2.0762e-21 -0.0045164 -0 4.1524e-21 -0 -2.0762e-21)
(4.39619e-22 -0.00439887 -0 -8.79238e-22 -0 4.39619e-22)
(-1.56286e-21 -0.0043988 -0 3.12572e-21 -0 -1.56286e-21)
(7.86761e-22 -0.00428207 -0 -1.57352e-21 -0 7.86761e-22)
(-1.46015e-21 -0.00428201 -0 2.92029e-21 -0 -1.46015e-21)
(9.87171e-22 -0.0041661 -0 -1.97434e-21 -0 9.87171e-22)
(-1.32141e-21 -0.00416604 -0 2.64283e-21 -0 -1.32141e-21)
(6.00309e-22 -0.004051 -0 -1.20062e-21 -0 6.00309e-22)
(-6.89163e-22 -0.00405095 -0 1.37833e-21 -0 -6.89163e-22)
(2.15546e-22 -0.0039368 -0 -4.31093e-22 -0 2.15546e-22)
(-1.36325e-22 -0.00393675 -0 2.72651e-22 -0 -1.36325e-22)
(-1.35553e-22 -0.00382352 -0 2.71107e-22 -0 -1.35553e-22)
(3.30872e-22 -0.00382347 -0 -6.61743e-22 -0 3.30872e-22)
(-3.9218e-22 -0.00371119 -0 7.8436e-22 -0 -3.9218e-22)
(6.57763e-22 -0.00371114 -0 -1.31553e-21 -0 6.57763e-22)
(-6.05485e-22 -0.00359983 -0 1.21097e-21 -0 -6.05485e-22)
(9.27624e-22 -0.00359978 -0 -1.85525e-21 -0 9.27624e-22)
(-8.27617e-22 -0.00348946 -0 1.65523e-21 -0 -8.27617e-22)
(1.18208e-21 -0.00348942 -0 -2.36416e-21 -0 1.18208e-21)
(-1.03537e-21 -0.0033801 -0 2.07073e-21 -0 -1.03537e-21)
(1.38318e-21 -0.00338006 -0 -2.76636e-21 -0 1.38318e-21)
(-1.19681e-21 -0.00327177 -0 2.39362e-21 -0 -1.19681e-21)
(1.52279e-21 -0.00327173 -0 -3.04559e-21 -0 1.52279e-21)
(-1.30323e-21 -0.00316447 -0 2.60645e-21 -0 -1.30323e-21)
(1.6263e-21 -0.00316444 -0 -3.25259e-21 -0 1.6263e-21)
(-1.34199e-21 -0.00305822 -0 2.68398e-21 -0 -1.34199e-21)
(1.66342e-21 -0.00305819 -0 -3.32684e-21 -0 1.66342e-21)
(-1.31296e-21 -0.00295302 -0 2.62591e-21 -0 -1.31296e-21)
(1.62434e-21 -0.00295299 -0 -3.24867e-21 -0 1.62434e-21)
(-1.20767e-21 -0.00284888 -0 2.41535e-21 -0 -1.20767e-21)
(1.51387e-21 -0.00284886 -0 -3.02774e-21 -0 1.51387e-21)
(-1.01893e-21 -0.0027458 -0 2.03785e-21 -0 -1.01893e-21)
(1.34248e-21 -0.00274578 -0 -2.68495e-21 -0 1.34248e-21)
(-7.30585e-22 -0.00264378 -0 1.46117e-21 -0 -7.30585e-22)
(1.08252e-21 -0.00264377 -0 -2.16504e-21 -0 1.08252e-21)
(-6.05699e-22 -0.00254282 -0 1.2114e-21 -0 -6.05699e-22)
(6.90311e-22 -0.00254281 -0 -1.38062e-21 -0 6.90311e-22)
(-4.18896e-22 -0.00244292 -0 8.37793e-22 -0 -4.18896e-22)
(4.58631e-22 -0.00244291 -0 -9.17262e-22 -0 4.58631e-22)
(5.78201e-23 -0.00234406 -0 -1.1564e-22 -0 5.78201e-23)
(1.76287e-22 -0.00234405 -0 -3.52574e-22 -0 1.76287e-22)
(5.87593e-22 -0.00224623 -0 -1.17519e-21 -0 5.87593e-22)
(-4.30315e-22 -0.00224622 -0 8.60629e-22 -0 -4.30315e-22)
(9.38922e-22 -0.00214943 -0 -1.87784e-21 -0 9.38922e-22)
(-8.44831e-22 -0.00214942 -0 1.68966e-21 -0 -8.44831e-22)
(1.32125e-21 -0.00205363 -0 -2.6425e-21 -0 1.32125e-21)
(-1.27378e-21 -0.00205363 -0 2.54756e-21 -0 -1.27378e-21)
(2.00815e-21 -0.00195883 -0 -4.0163e-21 -0 2.00815e-21)
(-1.98983e-21 -0.00195883 -0 3.97967e-21 -0 -1.98983e-21)
(2.4789e-21 -0.001865 -0 -4.95779e-21 -0 2.4789e-21)
(-2.47899e-21 -0.001865 -0 4.95798e-21 -0 -2.47899e-21)
(2.94571e-21 -0.00177213 -0 -5.89142e-21 -0 2.94571e-21)
(-2.95402e-21 -0.00177213 -0 5.90804e-21 -0 -2.95402e-21)
(3.54138e-21 -0.00168019 -0 -7.08276e-21 -0 3.54138e-21)
(-3.54977e-21 -0.00168019 -0 7.09954e-21 -0 -3.54977e-21)
(4.13391e-21 -0.00158916 -0 -8.26782e-21 -0 4.13391e-21)
(-4.13462e-21 -0.00158916 -0 8.26924e-21 -0 -4.13462e-21)
(4.71158e-21 -0.00149901 -0 -9.42315e-21 -0 4.71158e-21)
(-4.69754e-21 -0.00149901 -0 9.39507e-21 -0 -4.69754e-21)
(5.14635e-21 -0.00140971 -0 -1.02927e-20 -0 5.14635e-21)
(-5.10975e-21 -0.00140971 -0 1.02195e-20 -0 -5.10975e-21)
(5.70486e-21 -0.00132124 -0 -1.14097e-20 -0 5.70486e-21)
(-5.63747e-21 -0.00132125 -0 1.12749e-20 -0 -5.63747e-21)
(6.23539e-21 -0.00123358 -0 -1.24708e-20 -0 6.23539e-21)
(-6.13231e-21 -0.00123358 -0 1.22646e-20 -0 -6.13231e-21)
(6.72548e-21 -0.00114667 -0 -1.3451e-20 -0 6.72548e-21)
(-6.58786e-21 -0.00114668 -0 1.31757e-20 -0 -6.58786e-21)
(7.1981e-21 -0.0010605 -0 -1.43962e-20 -0 7.1981e-21)
(-7.00399e-21 -0.00106051 -0 1.4008e-20 -0 -7.00399e-21)
(7.51037e-21 -0.000975032 -0 -1.50207e-20 -0 7.51037e-21)
(-7.37471e-21 -0.000975035 -0 1.47494e-20 -0 -7.37471e-21)
(7.89392e-21 -0.000890227 -0 -1.57878e-20 -0 7.89392e-21)
(-7.70153e-21 -0.000890229 -0 1.54031e-20 -0 -7.70153e-21)
(8.27981e-21 -0.000806051 -0 -1.65596e-20 -0 8.27981e-21)
(-7.9109e-21 -0.000806052 -0 1.58218e-20 -0 -7.9109e-21)
(8.62125e-21 -0.000722467 -0 -1.72425e-20 -0 8.62125e-21)
(-8.21542e-21 -0.000722466 -0 1.64308e-20 -0 -8.21542e-21)
(8.92702e-21 -0.000639436 -0 -1.7854e-20 -0 8.92702e-21)
(-8.47557e-21 -0.000639434 -0 1.69511e-20 -0 -8.47557e-21)
(9.1274e-21 -0.000556918 -0 -1.82548e-20 -0 9.1274e-21)
(-8.69243e-21 -0.000556915 -0 1.73849e-20 -0 -8.69243e-21)
(9.34952e-21 -0.00047487 -0 -1.8699e-20 -0 9.34952e-21)
(-8.86509e-21 -0.000474865 -0 1.77302e-20 -0 -8.86509e-21)
(9.56141e-21 -0.000393243 -0 -1.91228e-20 -0 9.56141e-21)
(-8.9908e-21 -0.000393236 -0 1.79816e-20 -0 -8.9908e-21)
(9.69164e-21 -0.000311982 -0 -1.93833e-20 -0 9.69164e-21)
(-9.10818e-21 -0.000311973 -0 1.82164e-20 -0 -9.10818e-21)
(9.79906e-21 -0.000231021 -0 -1.95981e-20 -0 9.79906e-21)
(-9.17226e-21 -0.00023101 -0 1.83445e-20 -0 -9.17226e-21)
(9.85651e-21 -0.000150276 -0 -1.9713e-20 -0 9.85651e-21)
(-9.21201e-21 -0.000150262 -0 1.8424e-20 -0 -9.21201e-21)
(9.81398e-21 -6.96416e-05 -0 -1.9628e-20 -0 9.81398e-21)
(-9.15878e-21 -6.96255e-05 -0 1.83176e-20 -0 -9.15878e-21)
(9.6604e-21 1.10146e-05 -0 -1.93208e-20 -0 9.6604e-21)
(-8.98412e-21 1.10317e-05 -0 1.79682e-20 -0 -8.98412e-21)
(9.45693e-21 9.18371e-05 -0 -1.89139e-20 -0 9.45693e-21)
(-8.76754e-21 9.18534e-05 -0 1.75351e-20 -0 -8.76754e-21)
(9.79827e-21 0.00017303 -0 -1.95965e-20 -0 9.79827e-21)
(-9.10273e-21 0.000173042 -0 1.82055e-20 -0 -9.10273e-21)
(9.94013e-21 0.000106874 -0 -1.98803e-20 -0 9.94013e-21)
(-9.22998e-21 0.000106878 -0 1.846e-20 -0 -9.22998e-21)
)
;

boundaryField
{
    inlet
    {
        type            cyclic;
    }
    outlet
    {
        type            cyclic;
    }
    bottom
    {
        type            symmetry;
    }
    top
    {
        type            calculated;
        value           nonuniform List<symmTensor> 2((1.647e-21 -0.00928306 -0 -3.294e-21 -0 1.647e-21) (7.73236e-22 -0.00928305 -0 -1.54647e-21 -0 7.73236e-22));
    }
    frontAndBack
    {
        type            empty;
    }
}


// ************************************************************************* //
