/*--------------------------------*- C++ -*----------------------------------*\
  =========                 |
  \\      /  F ield         | OpenFOAM: The Open Source CFD Toolbox
   \\    /   O peration     | Website:  https://openfoam.org
    \\  /    A nd           | Version:  7
     \\/     M anipulation  |
\*---------------------------------------------------------------------------*/
FoamFile
{
    version     2.0;
    format      ascii;
    class       volScalarField;
    location    "2000";
    object      k;
}
// * * * * * * * * * * * * * * * * * * * * * * * * * * * * * * * * * * * * * //

dimensions      [0 2 -2 0 0 0 0];

internalField   nonuniform List<scalar> 
180
(
0.00483059
0.00483054
0.0230828
0.0230828
0.0262097
0.0262097
0.0268911
0.0268911
0.0270158
0.0270157
0.0269192
0.0269191
0.0267132
0.0267132
0.0264457
0.0264457
0.0261406
0.0261405
0.0258111
0.0258111
0.0254655
0.0254654
0.0251089
0.0251088
0.0247451
0.024745
0.0243766
0.0243765
0.0240054
0.0240053
0.023633
0.0236329
0.0232608
0.0232607
0.0228896
0.0228895
0.0225203
0.0225203
0.0221539
0.0221538
0.0217907
0.0217907
0.0214316
0.0214315
0.021077
0.0210769
0.0207274
0.0207273
0.0203833
0.0203832
0.020045
0.0200449
0.0197129
0.0197128
0.0193874
0.0193873
0.0190688
0.0190686
0.0187572
0.0187571
0.018453
0.0184529
0.0181564
0.0181563
0.0178676
0.0178675
0.0175867
0.0175865
0.0173138
0.0173136
0.017049
0.0170488
0.0167924
0.0167923
0.0165441
0.0165439
0.0163041
0.0163039
0.0160723
0.0160721
0.0158487
0.0158485
0.0156334
0.0156332
0.0154261
0.0154259
0.015227
0.0152267
0.0150357
0.0150355
0.0148523
0.014852
0.0146765
0.0146763
0.0145083
0.014508
0.0143475
0.0143472
0.0141939
0.0141936
0.0140473
0.014047
0.0139075
0.0139072
0.0137744
0.0137741
0.0136478
0.0136475
0.0135275
0.0135271
0.0134132
0.0134128
0.0133047
0.0133044
0.013202
0.0132016
0.0131047
0.0131043
0.0130126
0.0130123
0.0129256
0.0129253
0.0128435
0.0128431
0.012766
0.0127657
0.0126931
0.0126927
0.0126244
0.012624
0.0125599
0.0125595
0.0124993
0.0124989
0.0124425
0.012442
0.0123893
0.0123889
0.0123396
0.0123391
0.0122931
0.0122927
0.0122499
0.0122495
0.0122097
0.0122093
0.0121724
0.012172
0.0121379
0.0121374
0.012106
0.0121056
0.0120767
0.0120763
0.0120499
0.0120494
0.0120254
0.0120249
0.0120031
0.0120026
0.011983
0.0119826
0.0119651
0.0119646
0.0119491
0.0119486
0.0119351
0.0119346
0.0119229
0.0119224
0.0119126
0.0119121
0.0119041
0.0119036
0.0118973
0.0118968
0.0118922
0.0118917
0.0118886
0.0118881
)
;

boundaryField
{
    inlet
    {
        type            cyclic;
    }
    outlet
    {
        type            cyclic;
    }
    bottom
    {
        type            symmetry;
    }
    top
    {
        type            kqRWallFunction;
        value           nonuniform List<scalar> 2(0.00483059 0.00483054);
    }
    frontAndBack
    {
        type            empty;
    }
}


// ************************************************************************* //
