/*--------------------------------*- C++ -*----------------------------------*\
  =========                 |
  \\      /  F ield         | OpenFOAM: The Open Source CFD Toolbox
   \\    /   O peration     | Website:  https://openfoam.org
    \\  /    A nd           | Version:  7
     \\/     M anipulation  |
\*---------------------------------------------------------------------------*/
FoamFile
{
    version     2.0;
    format      ascii;
    class       volScalarField;
    location    "2000";
    object      nut;
}
// * * * * * * * * * * * * * * * * * * * * * * * * * * * * * * * * * * * * * //

dimensions      [0 2 -1 0 0 0 0];

internalField   nonuniform List<scalar> 
180
(
1.86365e-06
1.86364e-06
2.54085e-05
2.54084e-05
5.78558e-05
5.78557e-05
9.16241e-05
9.1624e-05
0.000125959
0.000125958
0.000160128
0.000160128
0.000193764
0.000193764
0.0002267
0.0002267
0.000258868
0.000258867
0.000290248
0.000290247
0.000320847
0.000320847
0.000350689
0.000350688
0.000379804
0.000379803
0.000408228
0.000408226
0.000436
0.000435998
0.000463161
0.000463158
0.000489751
0.000489747
0.000515811
0.000515806
0.000541379
0.000541374
0.000566496
0.00056649
0.000591199
0.000591192
0.000615525
0.000615516
0.000639508
0.000639498
0.000663182
0.00066317
0.000686579
0.000686566
0.000709729
0.000709714
0.00073266
0.000732644
0.0007554
0.000755381
0.000777972
0.000777951
0.0008004
0.000800377
0.000822704
0.000822679
0.000844903
0.000844876
0.000867014
0.000866986
0.000889051
0.000889021
0.000911028
0.000910996
0.000932954
0.00093292
0.000954837
0.000954801
0.000976685
0.000976647
0.0009985
0.00099846
0.00102028
0.00102024
0.00104204
0.00104199
0.00106376
0.00106371
0.00108544
0.00108539
0.00110708
0.00110703
0.00112866
0.00112861
0.00115018
0.00115014
0.00117163
0.00117158
0.00119299
0.00119294
0.00121425
0.00121419
0.00123538
0.00123533
0.00125638
0.00125633
0.00127722
0.00127717
0.00129788
0.00129783
0.00131834
0.00131829
0.00133859
0.00133854
0.00135859
0.00135854
0.00137833
0.00137828
0.00139778
0.00139773
0.00141691
0.00141687
0.00143572
0.00143567
0.00145416
0.00145412
0.00147222
0.00147218
0.00148988
0.00148984
0.00150711
0.00150707
0.00152389
0.00152385
0.0015402
0.00154016
0.00155602
0.00155598
0.00157132
0.00157129
0.00158609
0.00158606
0.00160031
0.00160029
0.00161396
0.00161394
0.00162703
0.001627
0.00163949
0.00163947
0.00165133
0.00165131
0.00166254
0.00166252
0.0016731
0.00167308
0.001683
0.00168298
0.00169223
0.00169221
0.00170077
0.00170076
0.00170862
0.00170861
0.00171577
0.00171576
0.00172221
0.0017222
0.00172793
0.00172792
0.00173292
0.00173292
0.00173719
0.00173718
0.00174072
0.00174071
0.0017435
0.0017435
0.00174554
0.00174554
0.00174683
0.00174683
0.00174737
0.00174737
)
;

boundaryField
{
    inlet
    {
        type            cyclic;
    }
    outlet
    {
        type            cyclic;
    }
    bottom
    {
        type            symmetry;
    }
    top
    {
        type            nutkWallFunction;
        Cmu             0.09;
        kappa           0.41;
        E               9.8;
        value           uniform 0;
    }
    frontAndBack
    {
        type            empty;
    }
}


// ************************************************************************* //
