/*--------------------------------*- C++ -*----------------------------------*\
  =========                 |
  \\      /  F ield         | OpenFOAM: The Open Source CFD Toolbox
   \\    /   O peration     | Website:  https://openfoam.org
    \\  /    A nd           | Version:  7
     \\/     M anipulation  |
\*---------------------------------------------------------------------------*/
FoamFile
{
    version     2.0;
    format      ascii;
    class       volScalarField;
    location    "2000";
    object      omega;
}
// * * * * * * * * * * * * * * * * * * * * * * * * * * * * * * * * * * * * * //

dimensions      [0 0 -1 0 0 0 0];

internalField   nonuniform List<scalar> 
180
(
2592
2592
871.937
871.937
452.249
452.249
293.494
293.494
214.482
214.481
168.11
168.11
137.865
137.865
116.655
116.655
100.981
100.98
88.928
88.9278
79.3695
79.3694
71.5989
71.5988
65.1523
65.1523
59.7132
59.7132
55.0582
55.0583
51.0255
51.0256
47.495
47.4952
44.3759
44.3761
41.5981
41.5983
39.1068
39.1071
36.8585
36.8589
34.8185
34.8188
32.9582
32.9586
31.2545
31.2549
29.6882
29.6886
28.2432
28.2436
26.906
26.9064
25.6651
25.6656
24.5109
24.5113
23.4348
23.4353
22.4298
22.4303
21.4894
21.4899
20.6082
20.6087
19.7814
19.7819
19.0047
19.0052
18.2742
18.2747
17.5867
17.5872
16.939
16.9395
16.3286
16.329
15.7527
15.7532
15.2094
15.2098
14.6964
14.6968
14.2119
14.2123
13.7542
13.7546
13.3217
13.3221
12.9129
12.9133
12.5266
12.5269
12.1613
12.1616
11.816
11.8162
11.4895
11.4897
11.1808
11.181
10.8889
10.8891
10.613
10.6132
10.3522
10.3524
10.1058
10.1059
9.87286
9.87298
9.65281
9.65291
9.44498
9.44506
9.24874
9.24879
9.0635
9.06353
8.88872
8.88873
8.72388
8.72388
8.5685
8.56848
8.42212
8.42209
8.28432
8.28427
8.15469
8.15462
8.03286
8.03277
7.91847
7.91837
7.81119
7.81107
7.71071
7.71058
7.61674
7.61659
7.52901
7.52885
7.44727
7.4471
7.37128
7.3711
7.30083
7.30063
7.23571
7.2355
7.17573
7.17552
7.12073
7.12051
7.07054
7.07031
7.02503
7.02479
6.98405
6.98381
6.9475
6.94725
6.91526
6.915
6.88724
6.88697
6.86335
6.86308
6.84352
6.84325
6.8277
6.82742
6.81582
6.81553
6.80784
6.80756
6.80373
6.80344
)
;

boundaryField
{
    inlet
    {
        type            cyclic;
    }
    outlet
    {
        type            cyclic;
    }
    bottom
    {
        type            symmetry;
    }
    top
    {
        beta1           0.075;
        blended         0;
        type            omegaWallFunction;
        value           uniform 2592;
    }
    frontAndBack
    {
        type            empty;
    }
}


// ************************************************************************* //
