/*--------------------------------*- C++ -*----------------------------------*\
  =========                 |
  \\      /  F ield         | OpenFOAM: The Open Source CFD Toolbox
   \\    /   O peration     | Website:  https://openfoam.org
    \\  /    A nd           | Version:  7
     \\/     M anipulation  |
\*---------------------------------------------------------------------------*/
FoamFile
{
    version     2.0;
    format      ascii;
    class       volScalarField;
    location    "2000";
    object      p;
}
// * * * * * * * * * * * * * * * * * * * * * * * * * * * * * * * * * * * * * //

dimensions      [0 2 -2 0 0 0 0];

internalField   nonuniform List<scalar> 
180
(
-5.61245e-21
2.17833e-17
-1.38216e-20
2.17879e-17
-2.55986e-20
2.1796e-17
-9.38449e-21
2.17588e-17
1.34357e-20
2.17263e-17
-1.02329e-20
2.17373e-17
-3.93145e-20
2.17506e-17
-1.64216e-20
2.16899e-17
-1.22042e-20
2.16641e-17
-7.6603e-21
2.16352e-17
-2.74451e-21
2.16032e-17
2.4594e-21
2.15382e-17
-2.47103e-20
2.15005e-17
-1.89635e-20
2.14951e-17
-5.06063e-20
2.15649e-17
-4.41822e-21
2.14791e-17
1.94482e-21
2.1431e-17
-3.61339e-20
2.14249e-17
-7.63143e-20
2.14187e-17
-6.94783e-20
2.14123e-17
-6.25213e-20
2.14058e-17
-5.54579e-20
2.13991e-17
-4.82916e-20
2.13924e-17
-4.10529e-20
2.13854e-17
-3.37282e-20
2.13784e-17
-2.63621e-20
2.13713e-17
-1.8928e-20
2.13641e-17
-1.1479e-20
2.13569e-17
-3.98124e-21
2.13496e-17
3.51083e-21
2.13423e-17
1.10313e-20
2.13349e-17
1.8529e-20
2.13276e-17
2.60335e-20
2.13203e-17
3.35056e-20
2.13131e-17
4.09642e-20
2.13058e-17
4.83827e-20
2.12986e-17
5.57687e-20
2.12915e-17
6.31112e-20
2.12844e-17
7.04058e-20
2.12773e-17
7.76535e-20
2.12703e-17
8.48412e-20
2.12634e-17
9.19774e-20
2.12565e-17
9.90452e-20
2.12497e-17
1.06055e-19
2.12429e-17
1.12991e-19
2.12362e-17
1.1986e-19
2.12295e-17
1.2665e-19
2.12229e-17
1.33362e-19
2.12164e-17
1.3999e-19
2.12099e-17
1.46528e-19
2.12036e-17
1.52976e-19
2.11973e-17
1.59322e-19
2.11911e-17
1.6557e-19
2.11849e-17
1.71708e-19
2.11789e-17
1.77737e-19
2.1173e-17
1.83646e-19
2.11673e-17
1.89438e-19
2.11616e-17
1.95102e-19
2.1156e-17
2.00638e-19
2.11506e-17
2.06041e-19
2.11453e-17
2.11307e-19
2.11402e-17
2.16432e-19
2.11352e-17
2.21412e-19
2.11303e-17
2.26246e-19
2.11255e-17
2.30928e-19
2.1121e-17
2.35456e-19
2.11165e-17
2.39825e-19
2.11122e-17
2.44032e-19
2.11081e-17
2.48076e-19
2.11042e-17
2.5195e-19
2.11004e-17
2.55654e-19
2.10967e-17
2.59181e-19
2.10933e-17
2.62532e-19
2.109e-17
2.65699e-19
2.10869e-17
2.68684e-19
2.1084e-17
2.7148e-19
2.10812e-17
2.74088e-19
2.10786e-17
2.76504e-19
2.10763e-17
2.78727e-19
2.10741e-17
2.80756e-19
2.10721e-17
2.82587e-19
2.10703e-17
2.84223e-19
2.10687e-17
2.85658e-19
2.10672e-17
2.86894e-19
2.1066e-17
2.87928e-19
2.1065e-17
2.8876e-19
2.10642e-17
2.89389e-19
2.10635e-17
2.89813e-19
2.10631e-17
2.90033e-19
2.10629e-17
2.90062e-19
2.10629e-17
)
;

boundaryField
{
    inlet
    {
        type            cyclic;
    }
    outlet
    {
        type            cyclic;
    }
    bottom
    {
        type            symmetry;
    }
    top
    {
        type            zeroGradient;
    }
    frontAndBack
    {
        type            empty;
    }
}


// ************************************************************************* //
