/*--------------------------------*- C++ -*----------------------------------*\
  =========                 |
  \\      /  F ield         | OpenFOAM: The Open Source CFD Toolbox
   \\    /   O peration     | Website:  https://openfoam.org
    \\  /    A nd           | Version:  7
     \\/     M anipulation  |
\*---------------------------------------------------------------------------*/
FoamFile
{
    version     2.0;
    format      ascii;
    class       surfaceScalarField;
    location    "2000";
    object      phi;
}
// * * * * * * * * * * * * * * * * * * * * * * * * * * * * * * * * * * * * * //

dimensions      [0 3 -1 0 0 0 0];

internalField   nonuniform List<scalar> 
268
(
0.000573029
2.16471e-19
6.07931e-20
0.00105192
1.06362e-19
8.02459e-20
0.00126843
-5.97646e-20
3.39047e-19
0.00139868
-9.75949e-20
3.57117e-19
0.0014904
-3.74277e-20
2.99908e-19
0.00156065
-2.89108e-20
2.9093e-19
0.0016174
-6.20778e-20
3.37264e-19
0.00166492
-3.93705e-20
2.92997e-19
0.00170574
-5.39265e-20
3.07849e-19
0.00174148
-5.72046e-20
3.15033e-19
0.00177326
-6.51318e-20
3.4767e-19
0.00180183
-6.0432e-20
3.43211e-19
0.00182775
-1.15206e-19
1.58823e-19
0.00185147
-1.34541e-19
1.66305e-19
0.00187329
-1.81329e-20
3.09554e-19
0.00189348
-2.2991e-20
1.45716e-19
0.00191225
-1.84229e-20
1.61301e-19
0.00192976
-2.90364e-20
1.7331e-19
0.00194615
-6.72346e-20
1.75085e-19
0.00196153
-8.86117e-20
1.72604e-19
0.001976
-1.03695e-19
1.69095e-19
0.00198964
-1.11334e-19
1.64249e-19
0.00200253
-1.15782e-19
1.59222e-19
0.00201472
-1.18389e-19
1.53992e-19
0.00202627
-1.15347e-19
1.48494e-19
0.00203722
-1.08576e-19
1.43401e-19
0.00204762
-1.01609e-19
1.37846e-19
0.0020575
-9.71145e-20
1.32961e-19
0.00206689
-9.46597e-20
1.27604e-19
0.00207583
-9.40259e-20
1.22949e-19
0.00208434
-9.42852e-20
1.18161e-19
0.00209245
-9.48836e-20
1.13608e-19
0.00210017
-9.56756e-20
1.08836e-19
0.00210754
-9.64559e-20
1.04542e-19
0.00211456
-9.67494e-20
1.00782e-19
0.00212125
-9.64939e-20
9.72315e-20
0.00212763
-9.60458e-20
9.44258e-20
0.00213372
-9.5169e-20
9.1707e-20
0.00213953
-9.42504e-20
8.98179e-20
0.00214507
-9.34423e-20
8.79647e-20
0.00215035
-9.31533e-20
8.68782e-20
0.00215539
-9.25005e-20
8.5628e-20
0.0021602
-9.17778e-20
8.47109e-20
0.00216479
-9.13236e-20
8.41502e-20
0.00216916
-9.11575e-20
8.40696e-20
0.00217332
-9.12804e-20
8.43176e-20
0.00217729
-9.15213e-20
8.47555e-20
0.00218108
-9.19873e-20
8.54366e-20
0.00218468
-9.24991e-20
8.61991e-20
0.00218811
-9.32475e-20
8.71656e-20
0.00219138
-9.39788e-20
8.81302e-20
0.00219449
-9.48771e-20
8.92117e-20
0.00219745
-9.56803e-20
9.02492e-20
0.00220027
-9.65521e-20
9.12822e-20
0.00220294
-9.72539e-20
9.22086e-20
0.00220548
-9.79138e-20
9.30302e-20
0.0022079
-9.83171e-20
9.36786e-20
0.00221019
-9.8707e-20
9.40876e-20
0.00221236
-9.89238e-20
9.43561e-20
0.00221441
-9.89148e-20
9.44579e-20
0.00221636
-9.85593e-20
9.42132e-20
0.0022182
-9.80503e-20
9.37392e-20
0.00221994
-9.72998e-20
9.30307e-20
0.00222158
-9.62111e-20
9.19389e-20
0.00222313
-9.48524e-20
9.05915e-20
0.00222458
-9.32794e-20
8.90039e-20
0.00222595
-9.13862e-20
8.7115e-20
0.00222723
-8.92148e-20
8.49354e-20
0.00222843
-8.67496e-20
8.24842e-20
0.00222955
-8.40904e-20
7.98377e-20
0.00223059
-8.11604e-20
7.69478e-20
0.00223156
-7.79875e-20
7.38226e-20
0.00223245
-7.459e-20
7.04984e-20
0.00223328
-7.09781e-20
6.6981e-20
0.00223403
-6.72386e-20
6.33106e-20
0.00223472
-6.33269e-20
5.94943e-20
0.00223534
-5.92557e-20
5.56031e-20
0.00223589
-5.50305e-20
5.15796e-20
0.00223639
-5.06873e-20
4.74523e-20
0.00223682
-4.6257e-20
4.32376e-20
0.00223719
-4.17465e-20
3.89556e-20
0.00223749
-3.71439e-20
3.46332e-20
0.00223775
-3.2499e-20
3.02623e-20
0.00223794
-2.78129e-20
2.58808e-20
0.00223807
-2.31126e-20
2.14849e-20
0.00223815
-1.8441e-20
1.71266e-20
0.00223817
-1.38502e-20
1.28565e-20
0.00223814
-9.3811e-21
8.71572e-21
0.00223804
-5.00434e-21
4.66909e-21
0.00223789
)
;

boundaryField
{
    inlet
    {
        type            cyclic;
        value           nonuniform List<scalar> 
90
(
-0.000573029
-0.00105192
-0.00126843
-0.00139868
-0.0014904
-0.00156065
-0.0016174
-0.00166492
-0.00170574
-0.00174148
-0.00177326
-0.00180183
-0.00182775
-0.00185147
-0.00187329
-0.00189348
-0.00191225
-0.00192976
-0.00194615
-0.00196153
-0.001976
-0.00198964
-0.00200253
-0.00201472
-0.00202627
-0.00203722
-0.00204762
-0.0020575
-0.00206689
-0.00207583
-0.00208434
-0.00209245
-0.00210017
-0.00210754
-0.00211456
-0.00212125
-0.00212763
-0.00213372
-0.00213953
-0.00214507
-0.00215035
-0.00215539
-0.0021602
-0.00216479
-0.00216916
-0.00217332
-0.00217729
-0.00218108
-0.00218468
-0.00218811
-0.00219138
-0.00219449
-0.00219745
-0.00220027
-0.00220294
-0.00220548
-0.0022079
-0.00221019
-0.00221236
-0.00221441
-0.00221636
-0.0022182
-0.00221994
-0.00222158
-0.00222313
-0.00222458
-0.00222595
-0.00222723
-0.00222843
-0.00222955
-0.00223059
-0.00223156
-0.00223245
-0.00223328
-0.00223403
-0.00223472
-0.00223534
-0.00223589
-0.00223639
-0.00223682
-0.00223719
-0.00223749
-0.00223775
-0.00223794
-0.00223807
-0.00223815
-0.00223817
-0.00223814
-0.00223804
-0.00223789
)
;
    }
    outlet
    {
        type            cyclic;
        value           nonuniform List<scalar> 
90
(
0.000573029
0.00105192
0.00126843
0.00139868
0.0014904
0.00156065
0.0016174
0.00166492
0.00170574
0.00174148
0.00177326
0.00180183
0.00182775
0.00185147
0.00187329
0.00189348
0.00191225
0.00192976
0.00194615
0.00196153
0.001976
0.00198964
0.00200253
0.00201472
0.00202627
0.00203722
0.00204762
0.0020575
0.00206689
0.00207583
0.00208434
0.00209245
0.00210017
0.00210754
0.00211456
0.00212125
0.00212763
0.00213372
0.00213953
0.00214507
0.00215035
0.00215539
0.0021602
0.00216479
0.00216916
0.00217332
0.00217729
0.00218108
0.00218468
0.00218811
0.00219138
0.00219449
0.00219745
0.00220027
0.00220294
0.00220548
0.0022079
0.00221019
0.00221236
0.00221441
0.00221636
0.0022182
0.00221994
0.00222158
0.00222313
0.00222458
0.00222595
0.00222723
0.00222843
0.00222955
0.00223059
0.00223156
0.00223245
0.00223328
0.00223403
0.00223472
0.00223534
0.00223589
0.00223639
0.00223682
0.00223719
0.00223749
0.00223775
0.00223794
0.00223807
0.00223815
0.00223817
0.00223814
0.00223804
0.00223789
)
;
    }
    bottom
    {
        type            symmetry;
        value           uniform 0;
    }
    top
    {
        type            calculated;
        value           uniform 0;
    }
    frontAndBack
    {
        type            empty;
        value           nonuniform 0();
    }
}


// ************************************************************************* //
