/*--------------------------------*- C++ -*----------------------------------*\
  =========                 |
  \\      /  F ield         | OpenFOAM: The Open Source CFD Toolbox
   \\    /   O peration     | Website:  https://openfoam.org
    \\  /    A nd           | Version:  7
     \\/     M anipulation  |
\*---------------------------------------------------------------------------*/
FoamFile
{
    version     2.0;
    format      ascii;
    class       volVectorField;
    location    "2000";
    object      U;
}
// * * * * * * * * * * * * * * * * * * * * * * * * * * * * * * * * * * * * * //

dimensions      [0 1 -1 0 0 0 0];

internalField   nonuniform List<vector> 
180
(
(0.515726 1.3725e-19 0)
(0.515725 6.44363e-20 0)
(0.946732 4.63676e-19 0)
(0.946731 1.4588e-19 0)
(1.14159 -1.37422e-23 0)
(1.14159 4.82778e-19 0)
(1.25881 -1.71129e-19 0)
(1.25881 7.0393e-19 0)
(1.34136 -1.24723e-19 0)
(1.34136 6.45282e-19 0)
(1.40459 -1.03537e-19 0)
(1.40459 6.26579e-19 0)
(1.45566 -8.72627e-20 0)
(1.45566 6.21946e-19 0)
(1.49842 -7.73843e-20 0)
(1.49842 5.97719e-19 0)
(1.53516 -1.02692e-19 0)
(1.53516 6.08248e-19 0)
(1.56734 -1.11744e-19 0)
(1.56734 6.2068e-19 0)
(1.59593 -1.18651e-19 0)
(1.59593 6.58325e-19 0)
(1.62164 -1.18185e-19 0)
(1.62164 6.86779e-19 0)
(1.64498 -1.67676e-19 0)
(1.64498 4.80417e-19 0)
(1.66632 -2.4909e-19 0)
(1.66632 3.17781e-19 0)
(1.68596 -1.54091e-19 0)
(1.68596 4.7923e-19 0)
(1.70414 -4.34123e-20 0)
(1.70413 4.50892e-19 0)
(1.72103 -4.80821e-20 0)
(1.72102 3.21756e-19 0)
(1.73678 -4.71907e-20 0)
(1.73678 3.4396e-19 0)
(1.75153 -9.14817e-20 0)
(1.75153 3.508e-19 0)
(1.76538 -1.56772e-19 0)
(1.76537 3.49008e-19 0)
(1.7784 -1.97714e-19 0)
(1.7784 3.42435e-19 0)
(1.79068 -2.17569e-19 0)
(1.79068 3.33762e-19 0)
(1.80228 -2.27642e-19 0)
(1.80227 3.23722e-19 0)
(1.81325 -2.35993e-19 0)
(1.81325 3.13354e-19 0)
(1.82364 -2.37351e-19 0)
(1.82364 3.02551e-19 0)
(1.8335 -2.24508e-19 0)
(1.8335 2.91926e-19 0)
(1.84286 -2.09553e-19 0)
(1.84285 2.81241e-19 0)
(1.85175 -1.97287e-19 0)
(1.85175 2.70786e-19 0)
(1.8602 -1.90983e-19 0)
(1.8602 2.60533e-19 0)
(1.86825 -1.87946e-19 0)
(1.86825 2.50443e-19 0)
(1.87591 -1.88051e-19 0)
(1.87591 2.40929e-19 0)
(1.88321 -1.89261e-19 0)
(1.8832 2.32071e-19 0)
(1.89016 -1.90293e-19 0)
(1.89016 2.2223e-19 0)
(1.89678 -1.92455e-19 0)
(1.89678 2.13188e-19 0)
(1.9031 -1.93498e-19 0)
(1.9031 2.05141e-19 0)
(1.90913 -1.93451e-19 0)
(1.90912 1.97827e-19 0)
(1.91487 -1.92726e-19 0)
(1.91487 1.91474e-19 0)
(1.92035 -1.91362e-19 0)
(1.92035 1.85945e-19 0)
(1.92558 -1.8954e-19 0)
(1.92558 1.81348e-19 0)
(1.93056 -1.87363e-19 0)
(1.93056 1.77622e-19 0)
(1.93532 -1.86588e-19 0)
(1.93532 1.7463e-19 0)
(1.93985 -1.8597e-19 0)
(1.93985 1.7267e-19 0)
(1.94418 -1.84146e-19 0)
(1.94418 1.70097e-19 0)
(1.94831 -1.82967e-19 0)
(1.94831 1.68648e-19 0)
(1.95224 -1.82355e-19 0)
(1.95224 1.68041e-19 0)
(1.95599 -1.82336e-19 0)
(1.95599 1.68249e-19 0)
(1.95956 -1.82744e-19 0)
(1.95956 1.68992e-19 0)
(1.96297 -1.83442e-19 0)
(1.96297 1.70105e-19 0)
(1.96621 -1.84422e-19 0)
(1.96621 1.71562e-19 0)
(1.9693 -1.85695e-19 0)
(1.9693 1.73324e-19 0)
(1.97224 -1.87193e-19 0)
(1.97225 1.75264e-19 0)
(1.97504 -1.88846e-19 0)
(1.97505 1.77332e-19 0)
(1.97771 -1.90568e-19 0)
(1.97771 1.79476e-19 0)
(1.98024 -1.92266e-19 0)
(1.98024 1.81572e-19 0)
(1.98265 -1.93863e-19 0)
(1.98265 1.83552e-19 0)
(1.98493 -1.95251e-19 0)
(1.98494 1.85314e-19 0)
(1.98711 -1.96344e-19 0)
(1.98711 1.86822e-19 0)
(1.98917 -1.97005e-19 0)
(1.98917 1.87913e-19 0)
(1.99112 -1.97778e-19 0)
(1.99112 1.88457e-19 0)
(1.99297 -1.97983e-19 0)
(1.99297 1.88984e-19 0)
(1.99472 -1.97645e-19 0)
(1.99472 1.88863e-19 0)
(1.99638 -1.96646e-19 0)
(1.99638 1.88005e-19 0)
(1.99795 -1.95534e-19 0)
(1.99795 1.86963e-19 0)
(1.99942 -1.93709e-19 0)
(1.99942 1.85174e-19 0)
(2.00081 -1.91121e-19 0)
(2.00082 1.82591e-19 0)
(2.00212 -1.88322e-19 0)
(2.00213 1.79786e-19 0)
(2.00336 -1.84787e-19 0)
(2.00336 1.76239e-19 0)
(2.00451 -1.80785e-19 0)
(2.00451 1.7223e-19 0)
(2.00559 -1.76073e-19 0)
(2.00559 1.67523e-19 0)
(2.0066 -1.70945e-19 0)
(2.0066 1.6242e-19 0)
(2.00753 -1.6542e-19 0)
(2.00754 1.56946e-19 0)
(2.0084 -1.59235e-19 0)
(2.00841 1.50848e-19 0)
(2.00921 -1.52724e-19 0)
(2.00921 1.44459e-19 0)
(2.00995 -1.45644e-19 0)
(2.00995 1.37535e-19 0)
(2.01063 -1.38281e-19 0)
(2.01063 1.30406e-19 0)
(2.01124 -1.30676e-19 0)
(2.01125 1.22837e-19 0)
(2.0118 -1.22648e-19 0)
(2.0118 1.15153e-19 0)
(2.0123 -1.14374e-19 0)
(2.0123 1.07261e-19 0)
(2.01275 -1.05765e-19 0)
(2.01275 9.90653e-20 0)
(2.01313 -9.69801e-20 0)
(2.01313 9.07471e-20 0)
(2.01347 -8.80624e-20 0)
(2.01347 8.22059e-20 0)
(2.01374 -7.89214e-20 0)
(2.01375 7.36241e-20 0)
(2.01397 -6.96631e-20 0)
(2.01397 6.49046e-20 0)
(2.01414 -6.0333e-20 0)
(2.01415 5.61546e-20 0)
(2.01426 -5.09225e-20 0)
(2.01427 4.73626e-20 0)
(2.01433 -4.15284e-20 0)
(2.01434 3.85797e-20 0)
(2.01435 -3.22368e-20 0)
(2.01436 2.99245e-20 0)
(2.01432 -2.31645e-20 0)
(2.01432 2.15012e-20 0)
(2.01424 -1.42805e-20 0)
(2.01424 1.32771e-20 0)
(2.0141 -4.57368e-21 0)
(2.0141 4.23009e-21 0)
)
;

boundaryField
{
    inlet
    {
        type            cyclic;
    }
    outlet
    {
        type            cyclic;
    }
    bottom
    {
        type            symmetry;
    }
    top
    {
        type            noSlip;
    }
    frontAndBack
    {
        type            empty;
    }
}


// ************************************************************************* //
