/*--------------------------------*- C++ -*----------------------------------*\
  =========                 |
  \\      /  F ield         | OpenFOAM: The Open Source CFD Toolbox
   \\    /   O peration     | Website:  https://openfoam.org
    \\  /    A nd           | Version:  7
     \\/     M anipulation  |
\*---------------------------------------------------------------------------*/
FoamFile
{
    version     2.0;
    format      ascii;
    class       volScalarField;
    location    "0.32";
    object      p;
}
// * * * * * * * * * * * * * * * * * * * * * * * * * * * * * * * * * * * * * //

dimensions      [0 2 -2 0 0 0 0];

internalField   nonuniform List<scalar> 
1600
(
7.50257e-06
-0.00117783
-0.0039077
-0.00758129
-0.0115257
-0.0152455
-0.018383
-0.0206857
-0.0219862
-0.0221848
-0.0212358
-0.0191372
-0.0159226
-0.0116548
-0.00642121
-0.000329452
0.00649549
0.0139142
0.0217754
0.0299182
0.0381743
0.0463713
0.0543346
0.0618915
0.0688743
0.0751245
0.0804974
0.0848671
0.0881321
0.0902207
0.0910982
0.0907733
0.0893062
0.0868181
0.0835021
0.0796372
0.0756037
0.0719104
0.0692251
0.0681101
0.0012006
1.08438e-05
-0.0022053
-0.00505599
-0.00809801
-0.0109662
-0.0133761
-0.0151144
-0.0160313
-0.0160306
-0.0150624
-0.0131151
-0.0102096
-0.00639396
-0.00173937
0.00366353
0.00970759
0.0162718
0.0232239
0.0304224
0.0377195
0.0449631
0.0520001
0.0586792
0.0648547
0.0703896
0.0751607
0.0790624
0.0820117
0.0839534
0.0848657
0.0847655
0.0837148
0.0818266
0.0792715
0.0762833
0.0731638
0.0702891
0.0681062
0.0669967
0.00394545
0.00221826
-2.83487e-05
-0.00258733
-0.00521567
-0.00764359
-0.0096475
-0.0110558
-0.0117427
-0.0116247
-0.0106556
-0.00882237
-0.00614024
-0.002649
0.00159047
0.00649921
0.0119828
0.0179337
0.0242338
0.0307562
0.037368
0.0439325
0.050312
0.0563706
0.0619776
0.0670112
0.0713618
0.0749367
0.0776641
0.0794975
0.0804202
0.0804499
0.079643
0.0780985
0.0759606
0.0734202
0.070717
0.0681326
0.0659256
0.0643086
0.00770873
0.00509761
0.00245691
-0.00017173
-0.00272647
-0.00500748
-0.00684055
-0.00809394
-0.00866926
-0.00849972
-0.00754866
-0.0058067
-0.00328867
-3.07982e-05
0.00391196
0.00846824
0.0135525
0.0190671
0.0249041
0.0309478
0.0370761
0.0431636
0.0490837
0.0547112
0.0599258
0.064615
0.0686779
0.072029
0.0746017
0.0763526
0.0772646
0.077351
0.0766582
0.0752678
0.0732971
0.070898
0.0682626
0.0656059
0.0630151
0.0605466
0.0118968
0.00825702
0.00504887
0.00216862
-0.000488733
-0.0027793
-0.00457054
-0.00576784
-0.00630003
-0.00611875
-0.00519906
-0.00353797
-0.0011526
0.00192179
0.00563365
0.00991693
0.0146928
0.0198711
0.0253526
0.0310299
0.0367902
0.0425166
0.0480911
0.0533967
0.0583204
0.0627563
0.0666088
0.0697962
0.0722538
0.0739378
0.0748279
0.0749301
0.0742788
0.0729373
0.0709968
0.0685741
0.0658228
0.0629062
0.0597534
0.0562833
0.0160837
0.0113723
0.00750406
0.00425441
0.00137219
-0.00104156
-0.00288788
-0.00410486
-0.0046467
-0.00448335
-0.00360247
-0.00200906
0.000275676
0.00321544
0.00676009
0.0108469
0.0154016
0.02034
0.0255689
0.0309879
0.0364906
0.0419671
0.0473052
0.0523938
0.0571246
0.0613954
0.0651131
0.068197
0.0705815
0.0722196
0.0730852
0.0731754
0.0725117
0.0711399
0.0691269
0.0665599
0.0635627
0.0602608
0.0564461
0.0519243
0.0199602
0.0141823
0.00960736
0.00591235
0.00272056
0.000101706
-0.00187125
-0.00316411
-0.00375382
-0.00362754
-0.00278563
-0.00124182
0.000977331
0.00383302
0.00727487
0.0112417
0.0156622
0.020456
0.0255344
0.0308017
0.0361564
0.0414929
0.0467032
0.0516793
0.0563152
0.0605101
0.0641707
0.0672148
0.0695732
0.0711937
0.0720425
0.0721065
0.071394
0.0699341
0.0677733
0.0649738
0.0616381
0.0578662
0.0533339
0.047756
0.0232933
0.016473
0.0111737
0.00698976
0.00343584
0.000559143
-0.00158699
-0.0029916
-0.0036515
-0.00356964
-0.00275861
-0.00124111
0.000950244
0.0037731
0.00717561
0.0110967
0.0154667
0.0202073
0.0252327
0.0304504
0.0357618
0.0410639
0.0462507
0.0512155
0.0558525
0.0600599
0.0637421
0.0668128
0.0691978
0.0708373
0.0716883
0.0717267
0.0709476
0.0693649
0.0670071
0.063917
0.0601823
0.0558874
0.0506087
0.0439868
0.0259009
0.0180654
0.0120385
0.0073433
0.00339756
0.00023258
-0.00211306
-0.00364784
-0.00438591
-0.00434452
-0.0035478
-0.00202734
0.000177806
0.00302103
0.00644807
0.010397
0.0147982
0.0195745
0.0246418
0.0299088
0.0352785
0.0406491
0.0459149
0.0509684
0.0557024
0.0600119
0.0637972
0.0669661
0.069437
0.0711414
0.0720258
0.072054
0.071208
0.0694876
0.0669057
0.0634898
0.0593186
0.0544678
0.0484266
0.0407723
0.0276326
0.0188038
0.0120522
0.00683592
0.00248419
-0.000983194
-0.00353885
-0.00520779
-0.00601944
-0.00600406
-0.00519664
-0.00363749
-0.00137229
0.00154761
0.00506484
0.00911572
0.0136299
0.0185302
0.0237328
0.0291469
0.0346758
0.0402171
0.0456642
0.0509075
0.0558363
0.0603412
0.0643162
0.0676616
0.0702865
0.0721121
0.0730733
0.0731211
0.0722241
0.0703683
0.0675533
0.0637939
0.059164
0.0537363
0.0469199
0.0382355
0.0283555
0.0185466
0.011074
0.0053345
0.000573267
-0.00319843
-0.00596194
-0.0077568
-0.00862626
-0.00861262
-0.00776121
-0.00612091
-0.00374416
-0.000687402
0.00298838
0.00721708
0.0119269
0.0170399
0.0224715
0.0281306
0.0339196
0.0397348
0.0454671
0.0510037
0.0562291
0.0610276
0.0652856
0.0688939
0.071751
0.0737659
0.0748604
0.0749718
0.0740547
0.0720818
0.0690399
0.064933
0.0598333
0.053814
0.0462082
0.0364823
0.0279439
0.0171587
0.00896721
0.00270646
-0.00246034
-0.00652879
-0.00948756
-0.0113895
-0.0122908
-0.0122453
-0.0113084
-0.00953757
-0.00699208
-0.00373379
0.000172286
0.00465716
0.00964705
0.0150625
0.020818
0.0268211
0.0329726
0.0391666
0.045291
0.0512281
0.0568569
0.0620538
0.0666961
0.0706636
0.0738423
0.0761272
0.0774255
0.0776593
0.0767684
0.0747113
0.0714623
0.0670158
0.0614435
0.0548215
0.0464072
0.0356139
0.0262724
0.0145049
0.0055939
-0.00118371
-0.00674661
-0.0110966
-0.014229
-0.0162095
-0.0171072
-0.0169871
-0.015915
-0.0139569
-0.0111793
-0.00764971
-0.00343755
0.00138501
0.00674182
0.0125517
0.0187276
0.0251754
0.0317941
0.0384747
0.0451014
0.0515514
0.0576964
0.0634044
0.0685418
0.0729759
0.0765782
0.0792281
0.0808159
0.0812467
0.0804436
0.0783503
0.0749274
0.0701593
0.0641183
0.0568846
0.0476375
0.0357353
0.0232101
0.0104455
0.000810907
-0.00647769
-0.0124227
-0.0170321
-0.020308
-0.0223294
-0.0231783
-0.0229318
-0.021666
-0.0194562
-0.0163764
-0.0125002
-0.0079015
-0.00265604
0.00315757
0.00945626
0.0161513
0.023147
0.03034
0.0376185
0.0448623
0.0519429
0.0587244
0.065065
0.0708189
0.0758394
0.0799817
0.083107
0.0850867
0.0858061
0.0851698
0.0831037
0.0795536
0.0744927
0.0679936
0.0601406
0.0500303
0.0369633
0.0186168
0.00483137
-0.00553404
-0.0133265
-0.0196353
-0.0244754
-0.0278562
-0.029871
-0.0306159
-0.030181
-0.0286537
-0.0261192
-0.0226597
-0.0183551
-0.0132843
-0.00752652
-0.00116286
0.00572181
0.0130373
0.0206865
0.0285641
0.0365553
0.0445358
0.0523709
0.0599169
0.0670212
0.0735249
0.0792655
0.0840798
0.0878085
0.0903009
0.0914199
0.0910477
0.08909
0.0854747
0.0801614
0.0732219
0.0647439
0.0537347
0.0394328
0.012339
-0.00249924
-0.013606
-0.0218939
-0.0285434
-0.0335776
-0.0370151
-0.0389651
-0.0395397
-0.0388432
-0.0369761
-0.0340343
-0.030109
-0.0252872
-0.0196528
-0.0132885
-0.00627787
0.00129295
0.0093328
0.0177436
0.0264187
0.0352411
0.0440825
0.0528025
0.061249
0.0692585
0.076658
0.0832674
0.0889031
0.0933826
0.0965296
0.0981807
0.0981917
0.0964436
0.0928425
0.0873309
0.0799775
0.0708719
0.0589234
0.043303
0.00420671
-0.0117249
-0.0235865
-0.0323592
-0.0393204
-0.0445034
-0.047938
-0.0497523
-0.0500767
-0.0490324
-0.0467346
-0.0432917
-0.0388049
-0.0333688
-0.0270727
-0.0200027
-0.0122442
-0.00388408
0.00498632
0.0142691
0.0238572
0.0336322
0.043463
0.053204
0.0626953
0.0717621
0.0802166
0.0878598
0.0944855
0.0998846
0.103852
0.106192
0.10673
0.105317
0.101831
0.0961916
0.0884621
0.0787313
0.0657991
0.0487634
-0.00596957
-0.0230449
-0.0356779
-0.0449218
-0.0521579
-0.0574329
-0.0607909
-0.0623825
-0.0623606
-0.0608661
-0.0580318
-0.0539806
-0.0488252
-0.0426682
-0.0356048
-0.0277242
-0.0191129
-0.00985775
-4.87114e-05
0.0102177
0.0208357
0.0316871
0.0426392
0.0535427
0.0642305
0.0745171
0.0841994
0.0930586
0.100863
0.107375
0.112355
0.115571
0.116809
0.115884
0.112638
0.106964
0.098911
0.0885645
0.074602
0.0560409
-0.0184033
-0.0366842
-0.0501085
-0.0598051
-0.067269
-0.0725638
-0.0757531
-0.0770151
-0.07653
-0.0744632
-0.0709683
-0.0661854
-0.0602402
-0.0532449
-0.0453001
-0.0364979
-0.026925
-0.0166666
-0.00580981
0.00555241
0.0173175
0.0293697
0.041577
0.0537881
0.0658306
0.0775091
0.0886056
0.0988806
0.108076
0.11592
0.122134
0.126445
0.128592
0.128342
0.125495
0.119904
0.1116
0.100658
0.0856174
0.0654068
-0.033337
-0.0529001
-0.0671386
-0.0772627
-0.0848926
-0.090115
-0.0930189
-0.0938181
-0.0927267
-0.0899401
-0.0856377
-0.0799799
-0.0731076
-0.0651433
-0.0561935
-0.0463522
-0.0357051
-0.0243337
-0.01232
0.000248937
0.0132767
0.026653
0.0402492
0.053915
0.0674748
0.0807255
0.0934351
0.105343
0.116164
0.125588
0.133295
0.138958
0.142262
0.142918
0.140666
0.135311
0.126854
0.115352
0.099186
0.0771869
-0.0510489
-0.0719897
-0.0870694
-0.0975853
-0.105299
-0.110329
-0.112798
-0.112967
-0.111092
-0.107407
-0.102121
-0.0954214
-0.087465
-0.078386
-0.0682966
-0.0572918
-0.0454543
-0.0328596
-0.0195816
-0.00569812
0.00870412
0.0235237
0.0386396
0.0539059
0.0691476
0.0841566
0.0986894
0.112466
0.12517
0.136454
0.145948
0.153266
0.158026
0.159867
0.158458
0.153535
0.145058
0.133052
0.115716
0.091772
-0.0718629
-0.0943027
-0.110254
-0.121111
-0.128798
-0.133476
-0.135318
-0.134643
-0.131763
-0.12696
-0.120481
-0.112542
-0.103321
-0.0929641
-0.0815888
-0.0692891
-0.0561423
-0.0422148
-0.0275688
-0.0122688
0.00361261
0.0199876
0.0367472
0.0537551
0.0708414
0.0877975
0.104372
0.120266
0.135137
0.148594
0.160212
0.169539
0.176112
0.179481
0.179224
0.174987
0.166668
0.154244
0.135699
0.109633
-0.0961621
-0.120257
-0.137114
-0.148237
-0.155744
-0.159859
-0.160822
-0.15903
-0.154867
-0.148674
-0.140748
-0.131338
-0.120644
-0.108827
-0.0960068
-0.0822743
-0.067698
-0.0523312
-0.03622
-0.0194104
-0.00195598
0.0160748
0.0345912
0.0534721
0.0725592
0.0916493
0.110488
0.128764
0.146106
0.162083
0.176211
0.187959
0.196772
0.20209
0.203373
0.200151
0.192229
0.179514
0.159732
0.13134
-0.12441
-0.15036
-0.168161
-0.179439
-0.186554
-0.189819
-0.189569
-0.186307
-0.180509
-0.172593
-0.162912
-0.151756
-0.139353
-0.125871
-0.111434
-0.096125
-0.0799998
-0.0630933
-0.0454296
-0.0270308
-0.0079247
0.0118459
0.0322153
0.0530854
0.074317
0.0957202
0.117045
0.137974
0.158113
0.176994
0.194067
0.208718
0.220281
0.228065
0.231379
0.229597
0.222397
0.209575
0.188541
0.157589
-0.157177
-0.185248
-0.204025
-0.215291
-0.221713
-0.223736
-0.221831
-0.216641
-0.208763
-0.19871
-0.186905
-0.173682
-0.159295
-0.143923
-0.127686
-0.110655
-0.0928665
-0.0743298
-0.0550411
-0.0349914
-0.014176
0.00739584
0.0296915
0.0526448
0.076145
0.100025
0.124051
0.147907
0.171187
0.193386
0.213895
0.232007
0.246931
0.257816
0.263782
0.263999
0.257961
0.245299
0.223026
0.189234
-0.19519
-0.225729
-0.245502
-0.256501
-0.261799
-0.26204
-0.257887
-0.250172
-0.239652
-0.226953
-0.21258
-0.196916
-0.180238
-0.16273
-0.144503
-0.125606
-0.106048
-0.0858069
-0.0648413
-0.0431036
-0.0205484
0.00285677
0.0271217
0.052222
0.0780865
0.104584
0.131508
0.15856
0.185333
0.211298
0.23579
0.258009
0.277022
0.291792
0.301203
0.304153
0.299881
0.287769
0.264313
0.227342
-0.239393
-0.272855
-0.293614
-0.303946
-0.307496
-0.305202
-0.298005
-0.286993
-0.27312
-0.257154
-0.239687
-0.221153
-0.201845
-0.181942
-0.161532
-0.140636
-0.119221
-0.0972243
-0.0745581
-0.0511271
-0.0268366
-0.0016029
0.0246358
0.0519078
0.0801945
0.109415
0.139407
0.169907
0.200526
0.230729
0.259809
0.286874
0.310846
0.330469
0.344338
0.351
0.34933
0.338342
0.31383
0.273268
-0.291054
-0.328039
-0.349693
-0.35873
-0.359613
-0.353734
-0.342425
-0.327113
-0.309
-0.289016
-0.267846
-0.245961
-0.22366
-0.201097
-0.178325
-0.155316
-0.131986
-0.108216
-0.0838632
-0.0587743
-0.032796
-0.00578426
0.022385
0.0518047
0.0825227
0.114525
0.147713
0.181883
0.216689
0.251615
0.285937
0.318692
0.348654
0.374327
0.39396
0.405643
0.407751
0.398744
0.373432
0.328765
-0.35193
-0.393214
-0.415511
-0.422244
-0.4191
-0.408159
-0.391304
-0.370404
-0.346957
-0.322068
-0.296502
-0.27075
-0.245085
-0.219615
-0.194329
-0.169132
-0.143872
-0.118358
-0.0923817
-0.0657209
-0.0381548
-0.00947014
0.0205296
0.0520137
0.0851108
0.119892
0.156348
0.194359
0.233659
0.273792
0.314053
0.353443
0.390608
0.423809
0.450887
0.469363
0.476921
0.471197
0.44557
0.396166
-0.424545
-0.471097
-0.49345
-0.496243
-0.487043
-0.468964
-0.444651
-0.416525
-0.386423
-0.355608
-0.324894
-0.294747
-0.265372
-0.236789
-0.208893
-0.181494
-0.154349
-0.127185
-0.0997091
-0.0716244
-0.0426332
-0.0124447
0.0192188
0.0526135
0.0879636
0.125444
0.16516
0.207112
0.251156
0.296945
0.343859
0.39092
0.436701
0.479237
0.515933
0.54361
0.559026
0.558602
0.533573
0.478678
-0.512662
-0.565603
-0.586747
-0.582916
-0.564614
-0.53649
-0.502194
-0.464807
-0.426495
-0.388632
-0.352003
-0.316971
-0.283608
-0.251791
-0.221278
-0.191752
-0.162855
-0.134212
-0.105439
-0.076152
-0.0459706
-0.0145206
0.0185633
0.0536337
0.0910222
0.131028
0.173895
0.219784
0.268724
0.320547
0.374801
0.430629
0.48663
0.540691
0.589792
0.629951
0.65673
0.664785
0.642078
0.580901
-0.622151
-0.682502
-0.699805
-0.684915
-0.652942
-0.610732
-0.563188
-0.514081
-0.465822
-0.419759
-0.376509
-0.336218
-0.298725
-0.263693
-0.230689
-0.199232
-0.168826
-0.138977
-0.109199
-0.0790156
-0.0479605
-0.0155731
0.0186031
0.0550217
0.0941318
0.136371
0.182151
0.23183
0.285672
0.343771
0.405957
0.471639
0.53961
0.60778
0.672822
0.729928
0.773196
0.794814
0.777717
0.709747
-0.762628
-0.830471
-0.838561
-0.805271
-0.752819
-0.691006
-0.626113
-0.56246
-0.502452
-0.447144
-0.396766
-0.351064
-0.309524
-0.271502
-0.236316
-0.203283
-0.171747
-0.141082
-0.110694
-0.0800138
-0.0484892
-0.0155757
0.0192725
0.0566104
0.0970083
0.141054
0.189345
0.242479
0.301013
0.365404
0.435904
0.512391
0.594116
0.679322
0.764679
0.84473
0.911987
0.955366
0.950208
0.876202
-0.95078
-1.02278
-1.01075
-0.946959
-0.864054
-0.775341
-0.688214
-0.607033
-0.533661
-0.46841
-0.410783
-0.359896
-0.314723
-0.27422
-0.237395
-0.203334
-0.171204
-0.140244
-0.109752
-0.0790723
-0.0475731
-0.0146347
0.0203697
0.0580897
0.0992125
0.144477
0.194681
0.250687
0.313404
0.383751
0.462568
0.550459
0.647509
0.752807
0.863638
0.974486
1.07657
1.15496
1.17408
1.09889
-1.21712
-1.27971
-1.22549
-1.11153
-0.984068
-0.85937
-0.744753
-0.643428
-0.55574
-0.480569
-0.416238
-0.360957
-0.313025
-0.27091
-0.233274
-0.198954
-0.166938
-0.13634
-0.106364
-0.0762767
-0.0453865
-0.0130126
0.0215365
0.0589887
0.100134
0.14585
0.197132
0.255115
0.321099
0.396546
0.483053
0.582239
0.695511
0.823561
0.965372
1.11672
1.26883
1.40346
1.47114
1.41115
-1.61764
-1.63094
-1.49151
-1.29671
-1.10589
-0.935008
-0.788315
-0.665549
-0.563986
-0.480142
-0.410642
-0.352517
-0.303267
-0.260831
-0.223516
-0.189929
-0.158904
-0.129452
-0.100708
-0.0718911
-0.0422689
-0.0111255
0.022271
0.0587008
0.099028
0.144242
0.195504
0.254205
0.322029
0.401025
0.493662
0.602853
0.731867
0.883983
1.06156
1.26423
1.4865
1.71006
1.87238
1.87266
-2.25441
-2.11586
-1.81359
-1.49443
-1.21742
-0.990516
-0.809419
-0.666457
-0.553628
-0.464015
-0.392069
-0.333472
-0.284903
-0.243804
-0.208188
-0.176483
-0.147427
-0.119971
-0.0932202
-0.0663797
-0.03871
-0.00948995
0.0220203
0.0566177
0.0952001
0.138819
0.188749
0.246571
0.314295
0.394507
0.490572
0.606862
0.748996
0.923951
1.13978
1.40422
1.72095
2.0794
2.41783
2.58902
-3.35614
-2.78296
-2.17273
-1.67591
-1.2926
-1.00574
-0.794159
-0.637283
-0.519337
-0.429179
-0.358978
-0.303186
-0.257841
-0.220061
-0.187704
-0.159137
-0.133079
-0.108493
-0.0845046
-0.0603471
-0.0353118
-0.00870911
0.0201705
0.0520971
0.0879491
0.128773
0.175865
0.230882
0.296006
0.374179
0.469464
0.58756
0.736543
0.92791
1.17799
1.50837
1.94106
2.49112
3.15773
3.79467
-5.52259
-3.65932
-2.43085
-1.71435
-1.24188
-0.921872
-0.704914
-0.554005
-0.44552
-0.36523
-0.304204
-0.256584
-0.218413
-0.186929
-0.160135
-0.13654
-0.114991
-0.0945603
-0.0744732
-0.0540516
-0.0326707
-0.00972262
0.0154188
0.0434352
0.0751077
0.111374
0.153407
0.202728
0.261382
0.332211
0.419297
0.528704
0.669718
0.857123
1.11547
1.484
2.01615
2.8053
4.12187
6.09344
-9.21004
-4.51834
-2.30603
-1.42125
-0.958919
-0.682869
-0.512227
-0.400565
-0.322904
-0.266408
-0.223887
-0.190911
-0.16457
-0.142855
-0.124311
-0.107839
-0.0925801
-0.0778363
-0.0630171
-0.0476014
-0.0311064
-0.013061
0.0070197
0.0296613
0.0554626
0.0851362
0.119566
0.159891
0.207631
0.264895
0.334746
0.421847
0.533744
0.683723
0.897415
1.22408
1.75395
2.73304
5.06019
9.8724
)
;

boundaryField
{
    movingWall
    {
        type            zeroGradient;
    }
    fixedWalls
    {
        type            zeroGradient;
    }
    frontAndBack
    {
        type            empty;
    }
}


// ************************************************************************* //
