/*--------------------------------*- C++ -*----------------------------------*\
  =========                 |
  \\      /  F ield         | OpenFOAM: The Open Source CFD Toolbox
   \\    /   O peration     | Website:  https://openfoam.org
    \\  /    A nd           | Version:  7
     \\/     M anipulation  |
\*---------------------------------------------------------------------------*/
FoamFile
{
    version     2.0;
    format      ascii;
    class       surfaceScalarField;
    location    "0.32";
    object      phi;
}
// * * * * * * * * * * * * * * * * * * * * * * * * * * * * * * * * * * * * * //

dimensions      [0 3 -1 0 0 0 0];

internalField   nonuniform List<scalar> 
3120
(
2.53385e-09
-2.55011e-09
4.0961e-09
-1.56223e-09
2.25302e-09
1.84309e-09
-3.55363e-09
5.80661e-09
-1.31349e-08
9.5812e-09
-2.59821e-08
1.28472e-08
-4.14559e-08
1.54737e-08
-5.88797e-08
1.74239e-08
-7.7586e-08
1.87063e-08
-9.69381e-08
1.93521e-08
-1.16342e-07
1.94036e-08
-1.35251e-07
1.89091e-08
-1.53171e-07
1.79199e-08
-1.69659e-07
1.64886e-08
-1.84328e-07
1.46685e-08
-1.96841e-07
1.25134e-08
-2.06919e-07
1.00775e-08
-2.14335e-07
7.41584e-09
-2.18919e-07
4.58464e-09
-2.20561e-07
1.64176e-09
-2.19208e-07
-1.35296e-09
-2.14871e-07
-4.33743e-09
-2.07624e-07
-7.24724e-09
-1.97608e-07
-1.00158e-08
-1.85033e-07
-1.25746e-08
-1.70179e-07
-1.48543e-08
-1.53394e-07
-1.67852e-08
-1.35095e-07
-1.82991e-08
-1.15764e-07
-1.93303e-08
-9.59467e-08
-1.98177e-08
-7.62397e-08
-1.97072e-08
-5.72859e-08
-1.89538e-08
-3.97598e-08
-1.7526e-08
-2.43491e-08
-1.54106e-08
-1.17258e-08
-1.26232e-08
-2.49598e-09
-9.22992e-09
2.8967e-09
-5.39296e-09
4.35818e-09
-1.46162e-09
2.56128e-09
1.79707e-09
2.56157e-09
1.61454e-09
-4.16466e-09
-1.17424e-09
1.22654e-09
-1.1717e-08
1.23859e-08
-3.1074e-08
2.51637e-08
-5.90439e-08
3.75511e-08
-9.4683e-08
4.84863e-08
-1.36642e-07
5.7433e-08
-1.83382e-07
6.41638e-08
-2.33303e-07
6.86273e-08
-2.84824e-07
7.08732e-08
-3.36431e-07
7.10107e-08
-3.86707e-07
6.91853e-08
-4.34351e-07
6.55641e-08
-4.7819e-07
6.03272e-08
-5.17185e-07
5.36634e-08
-5.50438e-07
4.57669e-08
-5.77198e-07
3.68369e-08
-5.9686e-07
2.70776e-08
-6.08973e-07
1.66983e-08
-6.13246e-07
5.91488e-09
-6.0955e-07
-5.04987e-09
-5.97921e-07
-1.59657e-08
-5.78574e-07
-2.65949e-08
-5.51896e-07
-3.66935e-08
-5.18458e-07
-4.60128e-08
-4.7901e-07
-5.43021e-08
-4.34483e-07
-6.13132e-08
-3.85977e-07
-6.68049e-08
-3.34757e-07
-7.05501e-08
-2.82232e-07
-7.23425e-08
-2.29933e-07
-7.2007e-08
-1.79476e-07
-6.94106e-08
-1.32523e-07
-6.44791e-08
-9.07137e-08
-5.72203e-08
-5.55744e-08
-4.77623e-08
-2.83824e-08
-3.64216e-08
-9.94882e-09
-2.38266e-08
-2.92975e-10
-1.11178e-08
1.85411e-09
-3.50462e-10
4.41582e-09
-1.66873e-09
-2.49593e-09
-1.2118e-08
1.16758e-08
-3.40906e-08
3.43585e-08
-6.8449e-08
5.95221e-08
-1.1478e-07
8.3882e-08
-1.71798e-07
1.05504e-07
-2.37669e-07
1.23304e-07
-3.10257e-07
1.36752e-07
-3.87294e-07
1.45664e-07
-4.66494e-07
1.50074e-07
-5.45639e-07
1.50155e-07
-6.22626e-07
1.46172e-07
-6.95509e-07
1.38447e-07
-7.62521e-07
1.27339e-07
-8.22092e-07
1.13235e-07
-8.72862e-07
9.65363e-08
-9.13687e-07
7.76623e-08
-9.43653e-07
5.70436e-08
-9.62079e-07
3.51242e-08
-9.68526e-07
1.23619e-08
-9.62806e-07
-1.07708e-08
-9.44984e-07
-3.37868e-08
-9.15394e-07
-5.61852e-08
-8.74634e-07
-7.74535e-08
-8.23575e-07
-9.7072e-08
-7.63357e-07
-1.1452e-07
-6.95384e-07
-1.29286e-07
-6.21313e-07
-1.40876e-07
-5.43032e-07
-1.48831e-07
-4.62633e-07
-1.52742e-07
-3.82369e-07
-1.52271e-07
-3.04599e-07
-1.4718e-07
-2.31716e-07
-1.37362e-07
-1.66044e-07
-1.22893e-07
-1.09707e-07
-1.041e-07
-6.44476e-08
-8.1681e-08
-3.13827e-08
-5.6891e-08
-1.0691e-08
-3.18095e-08
-1.23912e-09
-9.8026e-09
3.1766e-09
-5.56911e-09
3.07321e-09
-2.49786e-08
3.10852e-08
-5.96858e-08
6.90656e-08
-1.09867e-07
1.09703e-07
-1.74631e-07
1.48646e-07
-2.52271e-07
1.83145e-07
-3.40516e-07
2.1155e-07
-4.36748e-07
2.32984e-07
-5.38178e-07
2.47093e-07
-6.41976e-07
2.53872e-07
-7.45373e-07
2.53552e-07
-8.45729e-07
2.46528e-07
-9.40582e-07
2.333e-07
-1.02769e-06
2.14448e-07
-1.10505e-06
1.90598e-07
-1.17094e-06
1.62418e-07
-1.22388e-06
1.30603e-07
-1.26271e-06
9.58739e-08
-1.28656e-06
5.8976e-08
-1.29487e-06
2.06779e-08
-1.28742e-06
-1.82272e-08
-1.26428e-06
-5.6923e-08
-1.2259e-06
-9.45716e-08
-1.17303e-06
-1.30319e-07
-1.1068e-06
-1.63301e-07
-1.02866e-06
-1.92658e-07
-9.40403e-07
-2.17546e-07
-8.44121e-07
-2.37158e-07
-7.42204e-07
-2.50748e-07
-6.37283e-07
-2.57663e-07
-5.32178e-07
-2.57376e-07
-4.29828e-07
-2.49529e-07
-3.33196e-07
-2.33995e-07
-2.45143e-07
-2.10945e-07
-1.68285e-07
-1.80959e-07
-1.04797e-07
-1.45169e-07
-5.61973e-08
-1.0549e-07
-2.31004e-08
-6.49061e-08
-4.98629e-09
-2.79167e-08
-1.80987e-09
-9.46881e-09
1.25421e-08
-3.81751e-08
5.97914e-08
-8.60775e-08
1.16968e-07
-1.5239e-07
1.76016e-07
-2.35544e-07
2.318e-07
-3.33301e-07
2.80902e-07
-4.42922e-07
3.21171e-07
-5.61342e-07
3.51404e-07
-6.85324e-07
3.71075e-07
-8.1159e-07
3.80138e-07
-9.36925e-07
3.78887e-07
-1.05825e-06
3.67857e-07
-1.17271e-06
3.47753e-07
-1.27766e-06
3.19399e-07
-1.37076e-06
2.83703e-07
-1.44998e-06
2.41638e-07
-1.5136e-06
1.94223e-07
-1.56025e-06
1.42519e-07
-1.5889e-06
8.76267e-08
-1.5989e-06
3.068e-08
-1.58998e-06
-2.71503e-08
-1.56224e-06
-8.46607e-08
-1.51619e-06
-1.40618e-07
-1.45275e-06
-1.93767e-07
-1.3732e-06
-2.42844e-07
-1.27927e-06
-2.86588e-07
-1.17305e-06
-3.23773e-07
-1.05698e-06
-3.53228e-07
-9.33845e-07
-3.73879e-07
-8.06719e-07
-3.84789e-07
-6.7888e-07
-3.85215e-07
-5.5374e-07
-3.74669e-07
-4.34738e-07
-3.52996e-07
-3.25211e-07
-3.20472e-07
-2.28239e-07
-2.77931e-07
-1.46471e-07
-2.26937e-07
-8.19448e-08
-1.70017e-07
-3.59158e-08
-1.10935e-07
-8.75582e-09
-5.50765e-08
-1.05657e-08
-1.3163e-08
2.57051e-08
-5.10289e-08
9.76573e-08
-1.12095e-07
1.78035e-07
-1.94504e-07
2.58424e-07
-2.95879e-07
3.33175e-07
-4.13357e-07
3.98379e-07
-5.43677e-07
4.51492e-07
-6.83317e-07
4.91044e-07
-8.28617e-07
5.16375e-07
-9.75899e-07
5.2742e-07
-1.12157e-06
5.24556e-07
-1.26219e-06
5.0848e-07
-1.39456e-06
4.80123e-07
-1.51574e-06
4.40582e-07
-1.62312e-06
3.91078e-07
-1.7144e-06
3.32922e-07
-1.78768e-06
2.67498e-07
-1.8414e-06
1.96246e-07
-1.87444e-06
1.20661e-07
-1.88605e-06
4.22884e-08
-1.87592e-06
-3.72809e-08
-1.84417e-06
-1.16411e-07
-1.79136e-06
-1.93427e-07
-1.7185e-06
-2.66627e-07
-1.62704e-06
-3.34298e-07
-1.51889e-06
-3.94738e-07
-1.39638e-06
-4.46289e-07
-1.26223e-06
-4.87373e-07
-1.11957e-06
-5.16547e-07
-9.71798e-07
-5.32557e-07
-8.226e-07
-5.34414e-07
-6.75799e-07
-5.2147e-07
-5.35272e-07
-4.93523e-07
-4.04813e-07
-4.50931e-07
-2.87988e-07
-3.94756e-07
-1.87984e-07
-3.26941e-07
-1.07463e-07
-2.50539e-07
-4.84541e-08
-1.69944e-07
-1.23366e-08
-9.11939e-08
-2.29022e-08
-1.66114e-08
4.23165e-08
-6.33137e-08
1.4436e-07
-1.37277e-07
2.51998e-07
-2.35557e-07
3.56704e-07
-3.5491e-07
4.52529e-07
-4.91773e-07
5.35242e-07
-6.42313e-07
6.02032e-07
-8.02522e-07
6.51253e-07
-9.68315e-07
6.82169e-07
-1.13564e-06
6.94743e-07
-1.30055e-06
6.8947e-07
-1.45931e-06
6.6724e-07
-1.60843e-06
6.29239e-07
-1.74471e-06
5.76868e-07
-1.86532e-06
5.11688e-07
-1.96778e-06
4.35382e-07
-2.05001e-06
3.49723e-07
-2.11033e-06
2.56567e-07
-2.1475e-06
1.57834e-07
-2.16073e-06
5.55099e-08
-2.14965e-06
-4.83587e-08
-2.11439e-06
-1.5167e-07
-2.05554e-06
-2.52273e-07
-1.97418e-06
-3.47984e-07
-1.87188e-06
-4.36603e-07
-1.75067e-06
-5.15945e-07
-1.61308e-06
-5.83882e-07
-1.46206e-06
-6.3839e-07
-1.30099e-06
-6.77616e-07
-1.1336e-06
-6.99948e-07
-9.63907e-07
-7.0411e-07
-7.96119e-07
-6.89257e-07
-6.34543e-07
-6.55099e-07
-4.83445e-07
-6.02029e-07
-3.4692e-07
-5.3128e-07
-2.28758e-07
-4.45103e-07
-1.32327e-07
-3.46971e-07
-6.05034e-08
-2.41767e-07
-1.56897e-08
-1.36008e-07
-3.85917e-08
-1.98431e-08
6.21596e-08
-7.50333e-08
1.9955e-07
-1.61557e-07
3.38522e-07
-2.75419e-07
4.70566e-07
-4.12485e-07
5.89594e-07
-5.68448e-07
6.91205e-07
-7.38859e-07
7.72443e-07
-9.19192e-07
8.31586e-07
-1.10493e-06
8.67904e-07
-1.29163e-06
8.81451e-07
-1.47505e-06
8.72888e-07
-1.65116e-06
8.43343e-07
-1.81621e-06
7.94292e-07
-1.96682e-06
7.27474e-07
-2.09995e-06
6.4482e-07
-2.21297e-06
5.48408e-07
-2.30368e-06
4.40433e-07
-2.3703e-06
3.23183e-07
-2.4115e-06
1.9903e-07
-2.42641e-06
7.04232e-08
-2.41465e-06
-6.0113e-08
-2.37634e-06
-1.89987e-07
-2.31206e-06
-3.16547e-07
-2.22295e-06
-4.37098e-07
-2.11063e-06
-5.48923e-07
-1.97725e-06
-6.49324e-07
-1.82547e-06
-7.35664e-07
-1.65843e-06
-8.05432e-07
-1.47972e-06
-8.5632e-07
-1.29336e-06
-8.86313e-07
-1.10367e-06
-8.93795e-07
-9.15256e-07
-8.77672e-07
-7.32852e-07
-8.37503e-07
-5.61227e-07
-7.73655e-07
-4.05051e-07
-6.87456e-07
-2.68778e-07
-5.81376e-07
-1.56541e-07
-4.59208e-07
-7.2098e-08
-3.2621e-07
-1.88518e-08
-1.89254e-07
-5.74435e-08
-2.29102e-08
8.50698e-08
-8.62934e-08
2.62933e-07
-1.85071e-07
4.37299e-07
-3.14243e-07
5.99738e-07
-4.68782e-07
7.44134e-07
-6.43614e-07
8.66036e-07
-8.33639e-07
9.62467e-07
-1.03379e-06
1.03173e-06
-1.23909e-06
1.0732e-06
-1.44473e-06
1.08709e-06
-1.64613e-06
1.0743e-06
-1.83902e-06
1.03623e-06
-2.01944e-06
9.74712e-07
-2.18382e-06
8.91848e-07
-2.32897e-06
7.89973e-07
-2.45215e-06
6.71587e-07
-2.55104e-06
5.39324e-07
-2.62378e-06
3.95926e-07
-2.66898e-06
2.4423e-07
-2.68572e-06
8.71656e-08
-2.67358e-06
-7.22539e-08
-2.63264e-06
-2.30932e-07
-2.56349e-06
-3.85699e-07
-2.46726e-06
-5.33328e-07
-2.34561e-06
-6.70565e-07
-2.20077e-06
-7.94164e-07
-2.03549e-06
-9.00946e-07
-1.85305e-06
-9.87872e-07
-1.65725e-06
-1.05213e-06
-1.45232e-06
-1.09124e-06
-1.24293e-06
-1.10319e-06
-1.03403e-06
-1.08656e-06
-8.30842e-07
-1.0407e-06
-6.38652e-07
-9.65845e-07
-4.62761e-07
-8.63347e-07
-3.08337e-07
-7.35799e-07
-1.80326e-07
-5.87218e-07
-8.33865e-08
-4.2315e-07
-2.18873e-08
-2.50753e-07
-7.93308e-08
-2.58687e-08
1.10938e-07
-9.72352e-08
3.34299e-07
-2.08039e-07
5.48102e-07
-3.52313e-07
7.44012e-07
-5.24144e-07
9.15965e-07
-7.17673e-07
1.05956e-06
-9.27125e-07
1.17192e-06
-1.14686e-06
1.25147e-06
-1.37145e-06
1.29779e-06
-1.59569e-06
1.31133e-06
-1.8147e-06
1.29331e-06
-2.02395e-06
1.24548e-06
-2.2193e-06
1.17006e-06
-2.39702e-06
1.06957e-06
-2.55382e-06
9.46769e-07
-2.68684e-06
8.04613e-07
-2.79371e-06
6.4619e-07
-2.8725e-06
4.74709e-07
-2.92175e-06
2.93482e-07
-2.9405e-06
1.0592e-07
-2.92829e-06
-8.44654e-08
-2.88515e-06
-2.74069e-07
-2.81166e-06
-4.59194e-07
-2.70891e-06
-6.36073e-07
-2.57859e-06
-8.0089e-07
-2.42292e-06
-9.49829e-07
-2.24474e-06
-1.07913e-06
-2.04742e-06
-1.18519e-06
-1.83492e-06
-1.26463e-06
-1.61171e-06
-1.31444e-06
-1.38276e-06
-1.33214e-06
-1.15341e-06
-1.31591e-06
-9.29334e-07
-1.26477e-06
-7.16418e-07
-1.17876e-06
-5.20624e-07
-1.05914e-06
-3.47889e-07
-9.08534e-07
-2.04009e-07
-7.31097e-07
-9.45627e-08
-5.32597e-07
-2.48673e-08
-3.20448e-07
-1.04198e-07
-2.87707e-08
1.39709e-07
-1.08005e-07
4.13534e-07
-2.30706e-07
6.70803e-07
-3.89963e-07
9.0327e-07
-5.78978e-07
1.10498e-06
-7.9109e-07
1.27168e-06
-1.01983e-06
1.40066e-06
-1.25899e-06
1.49063e-06
-1.50262e-06
1.54142e-06
-1.74517e-06
1.55388e-06
-1.98144e-06
1.52958e-06
-2.20668e-06
1.47072e-06
-2.41657e-06
1.37995e-06
-2.60726e-06
1.26026e-06
-2.77537e-06
1.11488e-06
-2.91798e-06
9.47226e-07
-3.03266e-06
7.60869e-07
-3.11744e-06
5.59487e-07
-3.17082e-06
3.46867e-07
-3.1918e-06
1.26904e-07
-3.17987e-06
-9.64009e-08
-3.135e-06
-3.18935e-07
-3.05772e-06
-5.36476e-07
-2.94909e-06
-7.44708e-07
-2.81073e-06
-9.39245e-07
-2.64488e-06
-1.11568e-06
-2.45438e-06
-1.26964e-06
-2.24269e-06
-1.39689e-06
-2.01388e-06
-1.49344e-06
-1.77264e-06
-1.55568e-06
-1.52421e-06
-1.58057e-06
-1.27435e-06
-1.56578e-06
-1.02922e-06
-1.5099e-06
-7.95306e-07
-1.41267e-06
-5.793e-07
-1.27515e-06
-3.87951e-07
-1.09988e-06
-2.27954e-07
-8.91095e-07
-1.05833e-07
-6.54718e-07
-2.78613e-08
-3.9842e-07
-1.3206e-07
-3.16624e-08
1.71372e-07
-1.18742e-07
5.00614e-07
-2.53315e-07
8.05376e-07
-4.27531e-07
1.07749e-06
-6.33694e-07
1.31114e-06
-8.64329e-07
1.50231e-06
-1.11226e-06
1.64859e-06
-1.37065e-06
1.74902e-06
-1.6331e-06
1.80387e-06
-1.89365e-06
1.81442e-06
-2.14681e-06
1.78274e-06
-2.38762e-06
1.71153e-06
-2.61162e-06
1.60396e-06
-2.81487e-06
1.46351e-06
-2.99393e-06
1.29393e-06
-3.14584e-06
1.09914e-06
-3.26815e-06
8.83178e-07
-3.35887e-06
6.50204e-07
-3.41647e-06
4.04474e-07
-3.43992e-06
1.50353e-07
-3.42864e-06
-1.07681e-07
-3.38256e-06
-3.65019e-07
-3.30211e-06
-6.16927e-07
-3.18827e-06
-8.58542e-07
-3.04262e-06
-1.0849e-06
-2.86731e-06
-1.29099e-06
-2.66516e-06
-1.47178e-06
-2.43967e-06
-1.62238e-06
-2.19499e-06
-1.73811e-06
-1.936e-06
-1.81467e-06
-1.66821e-06
-1.84836e-06
-1.39777e-06
-1.83622e-06
-1.13136e-06
-1.77631e-06
-8.7611e-07
-1.66792e-06
-6.39468e-07
-1.51179e-06
-4.29058e-07
-1.31029e-06
-2.52528e-07
-1.06762e-06
-1.17399e-07
-7.89846e-07
-3.09344e-08
-4.84885e-07
-1.62994e-07
-3.4584e-08
2.05956e-07
-1.29572e-07
5.95601e-07
-2.76092e-07
9.51896e-07
-4.65332e-07
1.26673e-06
-6.88675e-07
1.53448e-06
-9.37808e-07
1.75145e-06
-1.20482e-06
1.9156e-06
-1.48226e-06
2.02646e-06
-1.76322e-06
2.08484e-06
-2.04138e-06
2.09257e-06
-2.31096e-06
2.05233e-06
-2.56683e-06
1.9674e-06
-2.80441e-06
1.84153e-06
-3.0197e-06
1.67879e-06
-3.20923e-06
1.48346e-06
-3.37007e-06
1.25998e-06
-3.49975e-06
1.01286e-06
-3.59631e-06
7.46757e-07
-3.6582e-06
4.66366e-07
-3.68435e-06
1.76505e-07
-3.67414e-06
-1.17893e-07
-3.62741e-06
-4.11752e-07
-3.54449e-06
-6.99841e-07
-3.42626e-06
-9.76768e-07
-3.27417e-06
-1.237e-06
-3.09027e-06
-1.47488e-06
-2.87731e-06
-1.68474e-06
-2.63875e-06
-1.86094e-06
-2.3788e-06
-1.99806e-06
-2.10246e-06
-2.09101e-06
-1.81551e-06
-2.13531e-06
-1.52448e-06
-2.12725e-06
-1.23656e-06
-2.06422e-06
-9.59579e-07
-1.94491e-06
-7.01782e-07
-1.76959e-06
-4.71729e-07
-1.54035e-06
-2.7809e-07
-1.26126e-06
-1.29456e-07
-9.3848e-07
-3.41469e-08
-5.80194e-07
-1.97141e-07
-3.75708e-08
2.43526e-07
-1.40606e-07
6.98637e-07
-2.9924e-07
1.11053e-06
-5.03652e-07
1.47114e-06
-7.44263e-07
1.7751e-06
-1.01188e-06
2.01907e-06
-1.29784e-06
2.20156e-06
-1.59406e-06
2.32268e-06
-1.89314e-06
2.38392e-06
-2.18836e-06
2.3878e-06
-2.47374e-06
2.33771e-06
-2.74396e-06
2.23762e-06
-2.99439e-06
2.09196e-06
-3.221e-06
1.90541e-06
-3.42038e-06
1.68284e-06
-3.5896e-06
1.4292e-06
-3.72629e-06
1.14955e-06
-3.82848e-06
8.48948e-07
-3.89466e-06
5.3255e-07
-3.92374e-06
2.05584e-07
-3.91504e-06
-1.26598e-07
-3.8683e-06
-4.58489e-07
-3.78374e-06
-7.84396e-07
-3.66209e-06
-1.09842e-06
-3.50461e-06
-1.39448e-06
-3.31321e-06
-1.66628e-06
-3.0905e-06
-1.90746e-06
-2.83983e-06
-2.11161e-06
-2.56542e-06
-2.27247e-06
-2.27235e-06
-2.38408e-06
-1.96661e-06
-2.44105e-06
-1.65508e-06
-2.43878e-06
-1.3455e-06
-2.3738e-06
-1.04638e-06
-2.24403e-06
-7.66847e-07
-2.04913e-06
-5.16451e-07
-1.79074e-06
-3.04979e-07
-1.47274e-06
-1.42186e-07
-1.10127e-06
-3.75553e-08
-6.84825e-07
-2.34696e-07
-4.06547e-08
2.84181e-07
-1.51949e-07
8.09931e-07
-3.22946e-07
1.28153e-06
-5.42747e-07
1.69094e-06
-8.0075e-07
2.0331e-06
-1.08684e-06
2.30516e-06
-1.39155e-06
2.50627e-06
-1.70616e-06
2.63729e-06
-2.02278e-06
2.70053e-06
-2.33434e-06
2.69936e-06
-2.63463e-06
2.638e-06
-2.91824e-06
2.52124e-06
-3.18052e-06
2.35424e-06
-3.41749e-06
2.14238e-06
-3.6258e-06
1.89115e-06
-3.80267e-06
1.60607e-06
-3.94578e-06
1.29266e-06
-4.05326e-06
9.56432e-07
-4.12365e-06
6.02936e-07
-4.15584e-06
2.37773e-07
-4.1491e-06
-1.33337e-07
-4.10308e-06
-5.04507e-07
-4.01785e-06
-8.69633e-07
-3.89392e-06
-1.22235e-06
-3.73235e-06
-1.55604e-06
-3.53483e-06
-1.86381e-06
-3.30373e-06
-2.13855e-06
-3.04226e-06
-2.37308e-06
-2.75453e-06
-2.5602e-06
-2.44563e-06
-2.69298e-06
-2.12171e-06
-2.76497e-06
-1.78998e-06
-2.77051e-06
-1.4587e-06
-2.70507e-06
-1.1371e-06
-2.56563e-06
-8.35208e-07
-2.35102e-06
-5.63679e-07
-2.06227e-06
-3.33513e-07
-1.7029e-06
-1.55763e-07
-1.27902e-06
-4.1213e-08
-7.99375e-07
-2.75909e-07
-4.38664e-08
3.28048e-07
-1.63699e-07
9.29764e-07
-3.47387e-07
1.46521e-06
-5.82854e-07
1.92641e-06
-8.5839e-07
2.30863e-06
-1.16289e-06
2.60966e-06
-1.48606e-06
2.82943e-06
-1.8185e-06
2.96974e-06
-2.15184e-06
3.03387e-06
-2.47871e-06
3.02623e-06
-2.79272e-06
2.95201e-06
-3.08841e-06
2.81693e-06
-3.36118e-06
2.62701e-06
-3.60718e-06
2.38838e-06
-3.82322e-06
2.10719e-06
-4.00667e-06
1.78952e-06
-4.15539e-06
1.44137e-06
-4.26763e-06
1.06867e-06
-4.34199e-06
6.773e-07
-4.37741e-06
2.73189e-07
-4.3731e-06
-1.37644e-07
-4.3286e-06
-5.49002e-07
-4.2438e-06
-9.54433e-07
-4.11899e-06
-1.34717e-06
-3.95493e-06
-1.7201e-06
-3.753e-06
-2.06573e-06
-3.51529e-06
-2.37627e-06
-3.24472e-06
-2.64364e-06
-2.94521e-06
-2.85971e-06
-2.62178e-06
-3.01641e-06
-2.28065e-06
-3.1061e-06
-1.92931e-06
-3.12186e-06
-1.5765e-06
-3.05789e-06
-1.23217e-06
-2.90996e-06
-9.07337e-07
-2.67585e-06
-6.13827e-07
-2.35578e-06
-3.63996e-07
-1.95273e-06
-1.70355e-07
-1.47266e-06
-4.51723e-08
-9.24558e-07
-3.21081e-07
-4.72375e-08
3.75285e-07
-1.75959e-07
1.05849e-06
-3.7274e-07
1.662e-06
-6.24201e-07
2.17787e-06
-9.1741e-07
2.60184e-06
-1.24019e-06
2.93244e-06
-1.58136e-06
3.17059e-06
-1.93084e-06
3.31922e-06
-2.27979e-06
3.38282e-06
-2.62057e-06
3.367e-06
-2.94667e-06
3.27811e-06
-3.25269e-06
3.12295e-06
-3.53415e-06
2.90847e-06
-3.78742e-06
2.64165e-06
-4.00955e-06
2.32932e-06
-4.19816e-06
1.97814e-06
-4.35134e-06
1.59455e-06
-4.46753e-06
1.18486e-06
-4.54547e-06
7.55238e-07
-4.58413e-06
3.1185e-07
-4.58271e-06
-1.39068e-07
-4.54062e-06
-5.91091e-07
-4.45754e-06
-1.03751e-06
-4.33348e-06
-1.47123e-06
-4.16886e-06
-1.88472e-06
-3.96467e-06
-2.26993e-06
-3.72257e-06
-2.61836e-06
-3.44513e-06
-2.92109e-06
-3.13592e-06
-3.16891e-06
-2.79978e-06
-3.35256e-06
-2.44288e-06
-3.463e-06
-2.07289e-06
-3.49185e-06
-1.69901e-06
-3.43177e-06
-1.33192e-06
-3.27705e-06
-9.83631e-07
-3.02414e-06
-6.67276e-07
-2.67214e-06
-3.96718e-07
-2.22329e-06
-1.86127e-07
-1.68325e-06
-4.94858e-08
-1.0612e-06
-3.70567e-07
-5.08037e-08
4.26089e-07
-1.88841e-07
1.19652e-06
-3.99201e-07
1.87236e-06
-6.67028e-07
2.44569e-06
-9.78027e-07
2.91284e-06
-1.31884e-06
3.27326e-06
-1.67734e-06
3.52909e-06
-2.04276e-06
3.68465e-06
-2.40581e-06
3.74587e-06
-2.75862e-06
3.71981e-06
-3.09469e-06
3.61418e-06
-3.40872e-06
3.43699e-06
-3.69652e-06
3.19627e-06
-3.95475e-06
2.89988e-06
-4.18083e-06
2.55539e-06
-4.37272e-06
2.17003e-06
-4.52882e-06
1.75066e-06
-4.64785e-06
1.30389e-06
-4.72873e-06
8.36111e-07
-4.77051e-06
3.53632e-07
-4.77239e-06
-1.37192e-07
-4.73365e-06
-6.29824e-07
-4.65376e-06
-1.1174e-06
-4.53239e-06
-1.59261e-06
-4.36954e-06
-2.04757e-06
-4.1657e-06
-2.47377e-06
-3.92202e-06
-2.86204e-06
-3.64053e-06
-3.20258e-06
-3.32435e-06
-3.48509e-06
-2.97794e-06
-3.69897e-06
-2.6073e-06
-3.83364e-06
-2.22018e-06
-3.87897e-06
-1.82612e-06
-3.82583e-06
-1.4365e-06
-3.66667e-06
-1.06441e-06
-3.39623e-06
-7.24377e-07
-3.01217e-06
-4.31966e-07
-2.5157e-06
-2.03251e-07
-1.91197e-06
-5.42089e-08
-1.21024e-06
-4.24776e-07
-5.46085e-08
4.80697e-07
-2.02482e-07
1.3444e-06
-4.26999e-07
2.09687e-06
-7.11608e-07
2.7303e-06
-1.04047e-06
3.2417e-06
-1.39892e-06
3.63171e-06
-1.7738e-06
3.90397e-06
-2.15365e-06
4.0645e-06
-2.52877e-06
4.12099e-06
-2.89116e-06
4.0822e-06
-3.23441e-06
3.95743e-06
-3.5535e-06
3.75608e-06
-3.8446e-06
3.48737e-06
-4.10485e-06
3.16013e-06
-4.33212e-06
2.78267e-06
-4.52487e-06
2.36277e-06
-4.6819e-06
1.90769e-06
-4.80227e-06
1.42426e-06
-4.88516e-06
9.18995e-07
-4.92976e-06
3.98236e-07
-4.93528e-06
-1.31669e-07
-4.90091e-06
-6.64196e-07
-4.82585e-06
-1.19246e-06
-4.70939e-06
-1.70906e-06
-4.55105e-06
-2.2059e-06
-4.35073e-06
-2.67409e-06
-4.10891e-06
-3.10386e-06
-3.82693e-06
-3.48456e-06
-3.50727e-06
-3.80475e-06
-3.15383e-06
-4.0524e-06
-2.77225e-06
-4.21521e-06
-2.37017e-06
-4.28105e-06
-1.95737e-06
-4.23863e-06
-1.54589e-06
-4.07815e-06
-1.1499e-06
-3.79222e-06
-7.85455e-07
-3.37661e-06
-4.70032e-07
-2.83112e-06
-2.21906e-07
-2.16009e-06
-5.94025e-08
-1.37274e-06
-4.84179e-07
-5.87082e-08
5.39405e-07
-2.17056e-07
1.50274e-06
-4.56422e-07
2.33624e-06
-7.58279e-07
3.03216e-06
-1.10501e-06
3.58843e-06
-1.48047e-06
4.00717e-06
-1.87042e-06
4.29392e-06
-2.26268e-06
4.45676e-06
-2.64722e-06
4.50553e-06
-3.01601e-06
4.451e-06
-3.3629e-06
4.30431e-06
-3.68327e-06
4.07645e-06
-3.97386e-06
3.77795e-06
-4.23241e-06
3.41868e-06
-4.45743e-06
3.0077e-06
-4.64798e-06
2.55331e-06
-4.80339e-06
2.0631e-06
-4.92316e-06
1.54403e-06
-5.00679e-06
1.00263e-06
-5.05368e-06
4.4513e-07
-5.0631e-06
-1.22256e-07
-5.03411e-06
-6.93178e-07
-4.96568e-06
-1.2609e-06
-4.85668e-06
-1.81806e-06
-4.70606e-06
-2.35653e-06
-4.51301e-06
-2.86714e-06
-4.27721e-06
-3.33966e-06
-3.99914e-06
-3.76263e-06
-3.68041e-06
-4.12349e-06
-3.32413e-06
-4.40868e-06
-2.93534e-06
-4.604e-06
-2.52134e-06
-4.69505e-06
-2.092e-06
-4.66797e-06
-1.65988e-06
-4.51027e-06
-1.24025e-06
-4.21185e-06
-8.50818e-07
-3.76604e-06
-5.11225e-07
-3.17072e-06
-2.42296e-07
-2.42902e-06
-6.51364e-08
-1.5499e-06
-5.49315e-07
-6.31783e-08
6.02584e-07
-2.32796e-07
1.67236e-06
-4.87849e-07
2.59129e-06
-8.07471e-07
3.35178e-06
-1.17197e-06
3.95293e-06
-1.56354e-06
4.39875e-06
-1.96676e-06
4.69713e-06
-2.36876e-06
4.85877e-06
-2.75928e-06
4.89604e-06
-3.13042e-06
4.82215e-06
-3.47645e-06
4.65033e-06
-3.7934e-06
4.3934e-06
-4.07873e-06
4.06329e-06
-4.33101e-06
3.67096e-06
-4.54955e-06
3.22623e-06
-4.73413e-06
2.73789e-06
-4.88475e-06
2.21373e-06
-5.00147e-06
1.66075e-06
-5.08418e-06
1.08534e-06
-5.13257e-06
4.93514e-07
-5.14597e-06
-1.08852e-07
-5.1234e-06
-7.15744e-07
-5.06355e-06
-1.32075e-06
-4.96485e-06
-1.91676e-06
-4.82562e-06
-2.49576e-06
-4.64423e-06
-3.04853e-06
-4.41942e-06
-3.56447e-06
-4.15059e-06
-4.03146e-06
-3.83825e-06
-4.43583e-06
-3.48444e-06
-4.76249e-06
-3.09331e-06
-4.99514e-06
-2.67152e-06
-5.11684e-06
-2.22876e-06
-5.11074e-06
-1.77797e-06
-4.96106e-06
-1.33549e-06
-4.65433e-06
-9.20768e-07
-4.18076e-06
-5.55887e-07
-3.5356e-06
-2.64657e-07
-2.72025e-06
-7.14946e-08
-1.74307e-06
-6.2081e-07
-6.81223e-08
6.70706e-07
-2.50012e-07
1.85425e-06
-5.21784e-07
2.86306e-06
-8.5975e-07
3.68975e-06
-1.24177e-06
4.33495e-06
-1.64816e-06
4.80514e-06
-2.06224e-06
5.11121e-06
-2.4705e-06
5.26703e-06
-2.86257e-06
5.28812e-06
-3.23094e-06
5.19051e-06
-3.57051e-06
4.98991e-06
-3.87822e-06
4.7011e-06
-4.15252e-06
4.33759e-06
-4.39298e-06
3.91142e-06
-4.5999e-06
3.43315e-06
-4.77396e-06
2.91195e-06
-4.91597e-06
2.35574e-06
-5.02662e-06
1.7714e-06
-5.10633e-06
1.16504e-06
-5.15508e-06
5.42267e-07
-5.17238e-06
-9.15465e-08
-5.15721e-06
-7.30919e-07
-5.10799e-06
-1.36996e-06
-5.02271e-06
-2.00205e-06
-4.89899e-06
-2.61949e-06
-4.73431e-06
-3.21321e-06
-4.52629e-06
-3.77248e-06
-4.27308e-06
-4.28467e-06
-3.97379e-06
-4.73512e-06
-3.62909e-06
-5.10719e-06
-3.24183e-06
-5.38239e-06
-2.81772e-06
-5.54096e-06
-2.36588e-06
-5.56257e-06
-1.8994e-06
-5.42753e-06
-1.43554e-06
-5.11819e-06
-9.95607e-07
-4.62069e-06
-6.04417e-07
-3.92679e-06
-2.89277e-07
-3.03539e-06
-7.85824e-08
-1.95376e-06
-6.99392e-07
-7.36834e-08
7.44389e-07
-2.69134e-07
2.0497e-06
-5.58905e-07
3.15284e-06
-9.15863e-07
4.04671e-06
-1.31496e-06
4.73404e-06
-1.73435e-06
5.22453e-06
-2.15605e-06
5.5329e-06
-2.56602e-06
5.677e-06
-2.95403e-06
5.67613e-06
-3.3132e-06
5.54968e-06
-3.63943e-06
5.31614e-06
-3.93083e-06
4.9925e-06
-4.18713e-06
4.59389e-06
-4.40915e-06
4.13344e-06
-4.59838e-06
3.62238e-06
-4.75656e-06
3.07014e-06
-4.88542e-06
2.4846e-06
-4.98641e-06
1.87239e-06
-5.06053e-06
1.23916e-06
-5.10818e-06
5.89915e-07
-5.12907e-06
-7.06588e-08
-5.12216e-06
-7.37823e-07
-5.08569e-06
-1.40644e-06
-5.01716e-06
-2.07058e-06
-4.91349e-06
-2.72316e-06
-4.77119e-06
-3.35551e-06
-4.58664e-06
-3.95702e-06
-4.35652e-06
-4.51479e-06
-4.07827e-06
-5.01337e-06
-3.75082e-06
-5.43464e-06
-3.37529e-06
-5.75791e-06
-2.95593e-06
-5.96032e-06
-2.50088e-06
-6.01762e-06
-2.02297e-06
-5.90545e-06
-1.54016e-06
-5.601e-06
-1.07565e-06
-5.08521e-06
-6.57295e-07
-4.34514e-06
-3.16521e-07
-3.37616e-06
-8.65359e-08
-2.18375e-06
-7.85928e-07
-8.00617e-08
8.24451e-07
-2.90746e-07
2.26039e-06
-6.00122e-07
3.46221e-06
-9.76774e-07
4.42336e-06
-1.39216e-06
5.14943e-06
-1.82202e-06
5.65439e-06
-2.24703e-06
5.9579e-06
-2.65283e-06
6.0828e-06
-3.02965e-06
6.05296e-06
-3.37166e-06
5.89168e-06
-3.67614e-06
5.62062e-06
-3.94275e-06
5.25911e-06
-4.17281e-06
4.82394e-06
-4.36864e-06
4.32928e-06
-4.53313e-06
3.78686e-06
-4.66923e-06
3.20624e-06
-4.77972e-06
2.59509e-06
-4.86688e-06
1.95956e-06
-4.93238e-06
1.30466e-06
-4.97708e-06
6.34617e-07
-5.00097e-06
-4.67769e-08
-5.00305e-06
-7.35734e-07
-4.9814e-06
-1.42809e-06
-4.93309e-06
-2.11889e-06
-4.85435e-06
-2.8019e-06
-4.74067e-06
-3.46919e-06
-4.58711e-06
-4.11058e-06
-4.38867e-06
-4.71323e-06
-4.14087e-06
-5.26117e-06
-3.84047e-06
-5.73504e-06
-3.48641e-06
-6.11197e-06
-3.08086e-06
-6.36587e-06
-2.63036e-06
-6.46812e-06
-2.14694e-06
-6.38887e-06
-1.6489e-06
-6.09903e-06
-1.16121e-06
-5.57289e-06
-7.15123e-07
-4.79123e-06
-3.46867e-07
-3.74442e-06
-9.55376e-08
-2.43508e-06
-8.81465e-07
-8.75387e-08
9.1199e-07
-3.15655e-07
2.4885e-06
-6.46647e-07
3.7932e-06
-1.04372e-06
4.82043e-06
-1.47412e-06
5.57983e-06
-1.91087e-06
6.09115e-06
-2.33343e-06
6.38046e-06
-2.72745e-06
6.47682e-06
-3.08413e-06
6.40964e-06
-3.39918e-06
6.20674e-06
-3.67178e-06
5.89322e-06
-3.90358e-06
5.49091e-06
-4.0978e-06
5.01817e-06
-4.25857e-06
4.49005e-06
-4.39033e-06
3.91862e-06
-4.49739e-06
3.3133e-06
-4.58363e-06
2.68133e-06
-4.65228e-06
2.02821e-06
-4.70569e-06
1.35807e-06
-4.74524e-06
6.74167e-07
-4.77123e-06
-2.07823e-08
-4.78282e-06
-7.24147e-07
-4.77794e-06
-1.43297e-06
-4.75335e-06
-2.14349e-06
-4.7046e-06
-2.85065e-06
-4.6262e-06
-3.54758e-06
-4.51185e-06
-4.22493e-06
-4.35477e-06
-4.87032e-06
-4.14827e-06
-5.46767e-06
-3.88657e-06
-5.99674e-06
-3.56584e-06
-6.4327e-06
-3.18548e-06
-6.74622e-06
-2.74967e-06
-6.90394e-06
-2.26881e-06
-6.86973e-06
-1.76098e-06
-6.60687e-06
-1.25265e-06
-6.08122e-06
-7.78667e-07
-5.26521e-06
-3.80953e-07
-4.14214e-06
-1.05838e-07
-2.71019e-06
-9.87304e-07
-9.65137e-08
1.0085e-06
-3.44969e-07
2.73696e-06
-7.00086e-07
4.14832e-06
-1.11821e-06
5.23855e-06
-1.56153e-06
6.02315e-06
-2.00015e-06
6.52977e-06
-2.41254e-06
6.79285e-06
-2.78496e-06
6.84925e-06
-3.11027e-06
6.73494e-06
-3.38642e-06
6.48289e-06
-3.6151e-06
6.1219e-06
-3.80041e-06
5.67622e-06
-3.94789e-06
5.16564e-06
-4.06366e-06
4.60583e-06
-4.15388e-06
4.00884e-06
-4.2243e-06
3.38372e-06
-4.27996e-06
2.73699e-06
-4.325e-06
2.07324e-06
-4.3625e-06
1.39557e-06
-4.39439e-06
7.06048e-07
-4.42131e-06
6.14467e-09
-4.44262e-06
-7.02838e-07
-4.45625e-06
-1.41934e-06
-4.4587e-06
-2.14104e-06
-4.445e-06
-2.86435e-06
-4.40878e-06
-3.58381e-06
-4.34238e-06
-4.29132e-06
-4.23722e-06
-4.97548e-06
-4.08424e-06
-5.62065e-06
-3.87475e-06
-6.20623e-06
-3.60157e-06
-6.70589e-06
-3.26054e-06
-7.08725e-06
-2.85242e-06
-7.31205e-06
-2.385e-06
-7.33715e-06
-1.87512e-06
-7.11675e-06
-1.35024e-06
-6.6061e-06
-8.48917e-07
-5.76654e-06
-4.19658e-07
-4.57139e-06
-1.17793e-07
-3.01206e-06
-1.1051e-06
-1.07561e-07
1.11606e-06
-3.80224e-07
3.00962e-06
-7.62539e-07
4.53064e-06
-1.20203e-06
5.67804e-06
-1.65488e-06
6.476e-06
-2.08819e-06
6.96308e-06
-2.48005e-06
7.18471e-06
-2.81822e-06
7.18741e-06
-3.09817e-06
7.01489e-06
-3.32103e-06
6.70575e-06
-3.49168e-06
6.29255e-06
-3.61724e-06
5.80178e-06
-3.70584e-06
5.25425e-06
-3.76583e-06
4.66582e-06
-3.80516e-06
4.04816e-06
-3.83098e-06
3.40954e-06
-3.84947e-06
2.75548e-06
-3.86564e-06
2.08941e-06
-3.88324e-06
1.41317e-06
-3.90472e-06
7.27526e-07
-3.93112e-06
3.25508e-08
-3.96205e-06
-6.71913e-07
-3.99554e-06
-1.38585e-06
-4.028e-06
-2.10858e-06
-4.05411e-06
-2.83824e-06
-4.06681e-06
-3.57111e-06
-4.0573e-06
-4.30084e-06
-4.01523e-06
-5.01755e-06
-3.92914e-06
-5.70674e-06
-3.78716e-06
-6.3482e-06
-3.57821e-06
-6.91483e-06
-3.29371e-06
-7.37176e-06
-2.92981e-06
-7.67595e-06
-2.49025e-06
-7.77671e-06
-1.98924e-06
-7.61776e-06
-1.45419e-06
-7.14115e-06
-9.27146e-07
-6.29358e-06
-4.642e-07
-5.03434e-06
-1.31913e-07
-3.34434e-06
-1.23701e-06
-1.21523e-07
1.23759e-06
-4.23546e-07
3.31164e-06
-8.36702e-07
4.94379e-06
-1.29713e-06
6.13846e-06
-1.75399e-06
6.93286e-06
-2.17171e-06
7.3808e-06
-2.52907e-06
7.54207e-06
-2.8167e-06
7.47504e-06
-3.03405e-06
7.23225e-06
-3.18651e-06
6.85821e-06
-3.28298e-06
6.38902e-06
-3.33405e-06
5.85286e-06
-3.35077e-06
5.27097e-06
-3.34375e-06
4.65879e-06
-3.32266e-06
4.02708e-06
-3.29599e-06
3.38287e-06
-3.27087e-06
2.73037e-06
-3.25305e-06
2.07158e-06
-3.24683e-06
1.40696e-06
-3.25512e-06
7.35817e-07
-3.27935e-06
5.67757e-08
-3.31941e-06
-6.31852e-07
-3.37358e-06
-1.33167e-06
-3.43839e-06
-2.04378e-06
-3.50842e-06
-2.7682e-06
-3.57623e-06
-3.5033e-06
-3.63216e-06
-4.24491e-06
-3.66442e-06
-4.98528e-06
-3.65927e-06
-5.71189e-06
-3.6016e-06
-6.40588e-06
-3.47601e-06
-7.04043e-06
-3.26859e-06
-7.57918e-06
-2.96958e-06
-7.97496e-06
-2.57679e-06
-8.1695e-06
-2.09984e-06
-8.09471e-06
-1.56431e-06
-7.67668e-06
-1.01496e-06
-6.84294e-06
-5.16296e-07
-5.533e-06
-1.48963e-07
-3.71168e-06
-1.38597e-06
-1.39658e-07
1.37725e-06
-4.77905e-07
3.64989e-06
-9.25944e-07
5.39183e-06
-1.40522e-06
6.61774e-06
-1.85714e-06
7.38477e-06
-2.24444e-06
7.76811e-06
-2.54848e-06
7.84611e-06
-2.7648e-06
7.69136e-06
-2.89857e-06
7.36602e-06
-2.96073e-06
6.92036e-06
-2.965e-06
6.39329e-06
-2.92589e-06
5.81374e-06
-2.8574e-06
5.20248e-06
-2.7723e-06
4.5737e-06
-2.68181e-06
3.93658e-06
-2.59541e-06
3.29647e-06
-2.52093e-06
2.65589e-06
-2.46459e-06
2.01525e-06
-2.43107e-06
1.37344e-06
-2.42358e-06
7.28327e-07
-2.44388e-06
7.70681e-08
-2.4922e-06
-5.83525e-07
-2.56721e-06
-1.25667e-06
-2.66575e-06
-1.94523e-06
-2.7827e-06
-2.65126e-06
-2.91061e-06
-3.37539e-06
-3.03951e-06
-4.11601e-06
-3.15663e-06
-4.86816e-06
-3.24639e-06
-5.62213e-06
-3.29065e-06
-6.36161e-06
-3.26957e-06
-7.06151e-06
-3.16323e-06
-7.68552e-06
-2.95445e-06
-8.18373e-06
-2.633e-06
-8.49095e-06
-2.20106e-06
-8.52665e-06
-1.67961e-06
-8.19812e-06
-1.11428e-06
-7.40827e-06
-5.78382e-07
-6.06891e-06
-1.70109e-07
-4.11995e-06
-1.55608e-06
-1.63906e-07
1.54115e-06
-5.47449e-07
4.03343e-06
-1.03425e-06
5.87863e-06
-1.52708e-06
7.11058e-06
-1.95954e-06
7.81724e-06
-2.29502e-06
8.10358e-06
-2.52051e-06
8.0716e-06
-2.63932e-06
7.81018e-06
-2.66453e-06
7.39122e-06
-2.61395e-06
6.86979e-06
-2.50681e-06
6.28615e-06
-2.36166e-06
5.6686e-06
-2.19529e-06
5.03611e-06
-2.02225e-06
4.40065e-06
-1.85477e-06
3.7691e-06