/*--------------------------------*- C++ -*----------------------------------*\
  =========                 |
  \\      /  F ield         | OpenFOAM: The Open Source CFD Toolbox
   \\    /   O peration     | Website:  https://openfoam.org
    \\  /    A nd           | Version:  7
     \\/     M anipulation  |
\*---------------------------------------------------------------------------*/
FoamFile
{
    version     2.0;
    format      ascii;
    class       volVectorField;
    location    "0.32";
    object      U;
}
// * * * * * * * * * * * * * * * * * * * * * * * * * * * * * * * * * * * * * //

dimensions      [0 1 -1 0 0 0 0];

internalField   nonuniform List<vector> 
1600
(
(6.04334e-05 -6.05512e-05 0)
(0.00015583 -5.71393e-05 0)
(0.000156881 -7.05163e-06 0)
(6.63531e-06 5.24045e-05 0)
(-0.000303278 0.000107905 0)
(-0.000756452 0.000154741 0)
(-0.00132843 0.000191548 0)
(-0.00199223 0.000218372 0)
(-0.00272064 0.000235787 0)
(-0.00348738 0.000244541 0)
(-0.00426772 0.000245425 0)
(-0.00503878 0.000239223 0)
(-0.00577972 0.000226694 0)
(-0.00647177 0.000208574 0)
(-0.0070983 0.000185571 0)
(-0.00764482 0.000158376 0)
(-0.00809901 0.000127669 0)
(-0.00845072 9.41307e-05 0)
(-0.00869204 5.84504e-05 0)
(-0.00881731 2.13356e-05 0)
(-0.00882326 -1.648e-05 0)
(-0.00870904 -5.42299e-05 0)
(-0.00847631 -9.11117e-05 0)
(-0.00812939 -0.000126287 0)
(-0.00767528 -0.000158884 0)
(-0.00712377 -0.000188005 0)
(-0.00648741 -0.000212739 0)
(-0.00578155 -0.000232171 0)
(-0.00502423 -0.000245403 0)
(-0.00423605 -0.000251569 0)
(-0.00343991 -0.000249854 0)
(-0.00266077 -0.00023952 0)
(-0.00192513 -0.000219931 0)
(-0.00126049 -0.000190607 0)
(-0.000694413 -0.000151348 0)
(-0.000253149 -0.000102573 0)
(4.08026e-05 -4.61662e-05 0)
(0.000174312 1.26427e-05 0)
(0.000160317 6.0168e-05 0)
(6.02382e-05 6.00053e-05 0)
(5.86048e-05 -0.000157029 0)
(7.24362e-05 -6.95069e-05 0)
(-0.000178498 0.00018228 0)
(-0.000772695 0.000476841 0)
(-0.00172464 0.000760868 0)
(-0.00300777 0.00100921 0)
(-0.00457353 0.00121056 0)
(-0.00636254 0.00136102 0)
(-0.00831103 0.0014605 0)
(-0.0103548 0.00151089 0)
(-0.0124315 0.00151516 0)
(-0.0144823 0.00147688 0)
(-0.0164527 0.00139993 0)
(-0.0182931 0.00128834 0)
(-0.0199592 0.00114625 0)
(-0.0214122 0.000977871 0)
(-0.0226191 0.000787452 0)
(-0.0235526 0.000579327 0)
(-0.0241917 0.000357931 0)
(-0.0245215 0.000127822 0)
(-0.0245335 -0.000106283 0)
(-0.0242257 -0.000339501 0)
(-0.0236033 -0.000566773 0)
(-0.0226781 -0.000782879 0)
(-0.0214693 -0.000982472 0)
(-0.0200035 -0.00116014 0)
(-0.0183141 -0.00131047 0)
(-0.0164419 -0.00142817 0)
(-0.0144345 -0.00150819 0)
(-0.0123454 -0.00154588 0)
(-0.0102337 -0.00153713 0)
(-0.00816282 -0.00147868 0)
(-0.0061988 -0.00136836 0)
(-0.00440839 -0.00120561 0)
(-0.00285601 -0.000992332 0)
(-0.00159938 -0.000734578 0)
(-0.000682962 -0.0004459 0)
(-0.00012689 -0.000153452 0)
(9.19618e-05 8.83469e-05 0)
(6.17129e-05 0.000160714 0)
(1.14352e-05 -0.000162844 0)
(-0.000171931 0.000178376 0)
(-0.000803978 0.000813784 0)
(-0.00193086 0.00153615 0)
(-0.00355348 0.00223846 0)
(-0.00563589 0.00286125 0)
(-0.00811328 0.00337293 0)
(-0.0109042 0.00375909 0)
(-0.013919 0.00401559 0)
(-0.0170659 0.00414437 0)
(-0.0202541 0.00415111 0)
(-0.0233966 0.00404381 0)
(-0.0264122 0.00383189 0)
(-0.0292266 0.00352568 0)
(-0.0317727 0.00313608 0)
(-0.0339918 0.0026744 0)
(-0.0358338 0.00215227 0)
(-0.0372575 0.00158165 0)
(-0.0382308 0.000974839 0)
(-0.0387314 0.000344485 0)
(-0.0387465 -0.000296337 0)
(-0.0382737 -0.000934131 0)
(-0.0373208 -0.00155499 0)
(-0.0359066 -0.00214466 0)
(-0.0340603 -0.00268863 0)
(-0.0318223 -0.00317234 0)
(-0.0292434 -0.00358138 0)
(-0.0263851 -0.00390182 0)
(-0.0233185 -0.00412057 0)
(-0.0201236 -0.00422589 0)
(-0.0168876 -0.00420789 0)
(-0.0137036 -0.00405931 0)
(-0.0106674 -0.00377645 0)
(-0.00787441 -0.00336058 0)
(-0.0054151 -0.00282014 0)
(-0.00336896 -0.00217447 0)
(-0.00179564 -0.00146021 0)
(-0.000723056 -0.000741134 0)
(-0.000138861 -0.00012647 0)
(1.76599e-05 0.00018006 0)
(-4.53915e-05 -2.20581e-05 0)
(-0.000464324 0.000767917 0)
(-0.00153527 0.00194119 0)
(-0.00324153 0.00322632 0)
(-0.00555405 0.00446767 0)
(-0.00842185 0.00557037 0)
(-0.011764 0.00647941 0)
(-0.0154804 0.00716668 0)
(-0.0194615 0.00762156 0)
(-0.0235938 0.00784474 0)
(-0.0277646 0.00784435 0)
(-0.0318649 0.00763341 0)
(-0.0357923 0.00722818 0)
(-0.0394525 0.00664706 0)
(-0.0427604 0.00590993 0)
(-0.0456412 0.00503769 0)
(-0.0480306 0.00405209 0)
(-0.0498761 0.0029756 0)
(-0.0511368 0.00183142 0)
(-0.0517841 0.000643443 0)
(-0.051802 -0.00056365 0)
(-0.0511875 -0.00176444 0)
(-0.0499511 -0.00293282 0)
(-0.0481168 -0.0040421 0)
(-0.0457221 -0.00506529 0)
(-0.0428188 -0.00597539 0)
(-0.0394716 -0.00674587 0)
(-0.0357586 -0.00735131 0)
(-0.0317698 -0.00776807 0)
(-0.027606 -0.00797529 0)
(-0.023377 -0.00795595 0)
(-0.0191987 -0.00769825 0)
(-0.0151901 -0.00719748 0)
(-0.0114692 -0.00645842 0)
(-0.00814704 -0.00549895 0)
(-0.00532176 -0.00435556 0)
(-0.00306872 -0.00309176 0)
(-0.00142979 -0.00180978 0)
(-0.000420008 -0.000669558 0)
(-3.6675e-05 5.98012e-05 0)
(-0.000100444 0.000278536 0)
(-0.000761106 0.00172902 0)
(-0.00228966 0.00359166 0)
(-0.00459326 0.00555552 0)
(-0.00760245 0.00742793 0)
(-0.0112452 0.00908378 0)
(-0.0154218 0.0104461 0)
(-0.0200142 0.0114729 0)
(-0.0248947 0.0121463 0)
(-0.029932 0.0124651 0)
(-0.0349953 0.0124397 0)
(-0.0399581 0.0120886 0)
(-0.0447011 0.0114356 0)
(-0.0491138 0.0105085 0)
(-0.0530967 0.00933778 0)
(-0.0565618 0.0079557 0)
(-0.059434 0.00639621 0)
(-0.0616511 0.0046945 0)
(-0.0631653 0.00288698 0)
(-0.063943 0.00101126 0)
(-0.0639654 -0.000893914 0)
(-0.0632291 -0.00278863 0)
(-0.0617464 -0.00463201 0)
(-0.0595455 -0.00638237 0)
(-0.0566708 -0.00799768 0)
(-0.0531825 -0.00943604 0)
(-0.0491568 -0.0106565 0)
(-0.0446848 -0.01162 0)
(-0.0398718 -0.0122906 0)
(-0.0348352 -0.0126367 0)
(-0.0297026 -0.0126333 0)
(-0.0246089 -0.0122637 0)
(-0.0196923 -0.0115223 0)
(-0.0150896 -0.0104182 0)
(-0.0109309 -0.00897984 0)
(-0.00733299 -0.00726145 0)
(-0.00438983 -0.00535264 0)
(-0.00216355 -0.00338981 0)
(-0.000707177 -0.00157333 0)
(-8.95851e-05 -0.000214685 0)
(-0.000150666 0.000732556 0)
(-0.0010458 0.00306245 0)
(-0.0030295 0.0057725 0)
(-0.00593029 0.00853114 0)
(-0.00963316 0.0111203 0)
(-0.0140403 0.0133916 0)
(-0.0190302 0.01525 0)
(-0.0244654 0.0166413 0)
(-0.0302009 0.0175411 0)
(-0.0360888 0.017947 0)
(-0.0419829 0.0178721 0)
(-0.0477419 0.0173407 0)
(-0.0532323 0.0163852 0)
(-0.058331 0.0150439 0)
(-0.0629266 0.013359 0)
(-0.0669206 0.0113758 0)
(-0.070229 0.00914214 0)
(-0.0727823 0.0067076 0)
(-0.0745269 0.00412374 0)
(-0.0754249 0.00144377 0)
(-0.0754554 -0.00127745 0)
(-0.0746144 -0.00398353 0)
(-0.0729154 -0.00661671 0)
(-0.0703898 -0.00911828 0)
(-0.0670868 -0.0114291 0)
(-0.0630737 -0.0134903 0)
(-0.0584352 -0.0152447 0)
(-0.053273 -0.0166377 0)
(-0.0477042 -0.0176194 0)
(-0.0418602 -0.0181463 0)
(-0.0358835 -0.0181841 0)
(-0.0299251 -0.0177104 0)
(-0.0241403 -0.0167185 0)
(-0.0186836 -0.0152214 0)
(-0.0137041 -0.0132573 0)
(-0.00933879 -0.0108972 0)
(-0.00570385 -0.0082536 0)
(-0.00288666 -0.00549112 0)
(-0.000983595 -0.00284031 0)
(-0.000137848 -0.000637734 0)
(-0.000195959 0.00132968 0)
(-0.00131405 0.00475681 0)
(-0.00374095 0.00847605 0)
(-0.00722942 0.0121475 0)
(-0.0116173 0.0155375 0)
(-0.0167778 0.0184816 0)
(-0.0225651 0.0208714 0)
(-0.0288207 0.0226437 0)
(-0.0353815 0.0237698 0)
(-0.0420837 0.0242472 0)
(-0.0487669 0.0240927 0)
(-0.0552765 0.0233379 0)
(-0.0614673 0.0220247 0)
(-0.0672054 0.0202027 0)
(-0.0723698 0.0179273 0)
(-0.0768539 0.0152581 0)
(-0.0805663 0.0122579 0)
(-0.0834317 0.00899243 0)
(-0.0853918 0.00552967 0)
(-0.0864054 0.00193996 0)
(-0.0864494 -0.00170421 0)
(-0.0855191 -0.00532838 0)
(-0.0836286 -0.00885635 0)
(-0.0808114 -0.0122107 0)
(-0.0771202 -0.0153135 0)
(-0.0726273 -0.0180875 0)
(-0.067424 -0.0204571 0)
(-0.0616203 -0.022351 0)
(-0.0553432 -0.0237034 0)
(-0.0487353 -0.0244576 0)
(-0.0419525 -0.0245686 0)
(-0.0351603 -0.0240072 0)
(-0.0285302 -0.022764 0)
(-0.0222347 -0.0208545 0)
(-0.0164428 -0.0183254 0)
(-0.011314 -0.0152613 0)
(-0.00698979 -0.0117937 0)
(-0.00358626 -0.00810952 0)
(-0.0012451 -0.0044612 0)
(-0.000181338 -0.00119965 0)
(-0.000237251 0.0020602 0)
(-0.00156705 0.00679755 0)
(-0.00442295 0.0116889 0)
(-0.00848646 0.0163932 0)
(-0.0135486 0.0206685 0)
(-0.0194519 0.0243408 0)
(-0.0260243 0.0272936 0)
(-0.0330845 0.0294584 0)
(-0.0404507 0.0308051 0)
(-0.0479431 0.0313334 0)
(-0.055387 0.0310657 0)
(-0.0626162 0.0300419 0)
(-0.0694749 0.028315 0)
(-0.0758202 0.0259472 0)
(-0.0815231 0.0230082 0)
(-0.0864704 0.0195729 0)
(-0.090565 0.0157205 0)
(-0.093727 0.0115335 0)
(-0.0958941 0.00709773 0)
(-0.0970225 0.00250162 0)
(-0.097087 -0.0021636 0)
(-0.096082 -0.00680425 0)
(-0.0940216 -0.0113245 0)
(-0.0909402 -0.0156269 0)
(-0.0868926 -0.0196136 0)
(-0.0819547 -0.0231871 0)
(-0.0762226 -0.0262525 0)
(-0.0698125 -0.0287195 0)
(-0.0628597 -0.0305053 0)
(-0.0555167 -0.031538 0)
(-0.0479511 -0.0317603 0)
(-0.0403424 -0.0311339 0)
(-0.0328785 -0.029645 0)
(-0.0257506 -0.0273095 0)
(-0.0191489 -0.0241795 0)
(-0.0132579 -0.0203501 0)
(-0.00824695 -0.0159678 0)
(-0.00426309 -0.0112364 0)
(-0.00149352 -0.00642429 0)
(-0.000221067 -0.00189158 0)
(-0.00027568 0.00291633 0)
(-0.00180815 0.00917129 0)
(-0.00508042 0.0153975 0)
(-0.00970707 0.0212563 0)
(-0.0154333 0.0265028 0)
(-0.0220705 0.0309588 0)
(-0.0294184 0.0345046 0)
(-0.0372723 0.0370708 0)
(-0.0454302 0.0386291 0)
(-0.0536959 0.0391843 0)
(-0.0618812 0.0387667 0)
(-0.0698083 0.0374266 0)
(-0.0773121 0.0352294 0)
(-0.0842417 0.0322516 0)
(-0.0904618 0.0285782 0)
(-0.0958536 0.0243006 0)
(-0.100316 0.019515 0)
(-0.103765 0.014322 0)
(-0.106135 0.00882554 0)
(-0.107381 0.00313317 0)
(-0.107474 -0.00264447 0)
(-0.106409 -0.00839373 0)
(-0.104199 -0.0139983 0)
(-0.100877 -0.0193399 0)
(-0.0965002 -0.0242994 0)
(-0.0911458 -0.0287581 0)
(-0.0849133 -0.0326 0)
(-0.0779236 -0.0357147 0)
(-0.0703185 -0.0380002 0)
(-0.0622594 -0.0393672 0)
(-0.053925 -0.0397439 0)
(-0.0455085 -0.0390809 0)
(-0.0372143 -0.0373568 0)
(-0.0292535 -0.0345849 0)
(-0.0218395 -0.0308196 0)
(-0.0151838 -0.0261631 0)
(-0.00948557 -0.0207725 0)
(-0.00492458 -0.0148645 0)
(-0.00173313 -0.00872016 0)
(-0.000258333 -0.00270697 0)
(-0.000312301 0.00389257 0)
(-0.00204123 0.0118678 0)
(-0.00572066 0.0195908 0)
(-0.0109015 0.0267269 0)
(-0.0172842 0.0330317 0)
(-0.0246482 0.0383275 0)
(-0.0327648 0.0424958 0)
(-0.0414043 0.0454706 0)
(-0.050344 0.0472293 0)
(-0.0593708 0.047785 0)
(-0.0682829 0.0471787 0)
(-0.0768915 0.0454734 0)
(-0.0850229 0.0427489 0)
(-0.0925194 0.0390975 0)
(-0.0992403 0.0346207 0)
(-0.105063 0.0294275 0)
(-0.109882 0.023632 0)
(-0.113612 0.0173532 0)
(-0.116185 0.010714 0)
(-0.117552 0.00384115 0)
(-0.117685 -0.00313477 0)
(-0.116575 -0.0100798 0)
(-0.114234 -0.0168566 0)
(-0.110695 -0.0233254 0)
(-0.106014 -0.029345 0)
(-0.100269 -0.0347744 0)
(-0.0935614 -0.0394752 0)
(-0.0860147 -0.0433149 0)
(-0.0777763 -0.0461702 0)
(-0.0690151 -0.0479324 0)
(-0.0599204 -0.0485121 0)
(-0.0506992 -0.0478455 0)
(-0.041573 -0.0459008 0)
(-0.0327738 -0.042685 0)
(-0.0245401 -0.038251 0)
(-0.0171121 -0.0327041 0)
(-0.0107212 -0.0262086 0)
(-0.00558105 -0.0189913 0)
(-0.00196898 -0.0113438 0)
(-0.000294399 -0.00364214 0)
(-0.000348014 0.00498564 0)
(-0.00227007 0.0148804 0)
(-0.00635151 0.0242616 0)
(-0.0120814 0.0327982 0)
(-0.0191161 0.0402494 0)
(-0.0272027 0.0464413 0)
(-0.0360833 0.0512611 0)
(-0.0455021 0.0546502 0)
(-0.0552155 0.0565961 0)
(-0.064993 0.0571237 0)
(-0.074619 0.0562879 0)
(-0.0838946 0.0541671 0)
(-0.0926379 0.0508578 0)
(-0.100686 0.0464696 0)
(-0.107893 0.0411223 0)
(-0.114134 0.0349429 0)
(-0.119302 0.0280646 0)
(-0.123308 0.0206249 0)
(-0.126084 0.0127659 0)
(-0.127579 0.00463369 0)
(-0.127762 -0.00362129 0)
(-0.126624 -0.0118446 0)
(-0.124173 -0.0198779 0)
(-0.120441 -0.0275595 0)
(-0.115482 -0.0347254 0)
(-0.109373 -0.0412114 0)
(-0.102214 -0.0468552 0)
(-0.0941329 -0.0515004 0)
(-0.0852791 -0.0550004 0)
(-0.0758286 -0.0572238 0)
(-0.0659804 -0.0580607 0)
(-0.0559551 -0.0574292 0)
(-0.0459919 -0.0552829 0)
(-0.0363451 -0.0516186 0)
(-0.0272796 -0.0464834 0)
(-0.0190667 -0.0399821 0)
(-0.0119717 -0.0322829 0)
(-0.00624375 -0.0236202 0)
(-0.0022062 -0.0142957 0)
(-0.000330404 -0.00469624 0)
(-0.000383569 0.00619423 0)
(-0.00249811 0.0182065 0)
(-0.00698057 0.0294069 0)
(-0.0132585 0.0394676 0)
(-0.0209441 0.048153 0)
(-0.0297517 0.0552967 0)
(-0.0393929 0.0607956 0)
(-0.0495858 0.0646031 0)
(-0.0600647 0.0667206 0)
(-0.0705818 0.067189 0)
(-0.0809081 0.0660807 0)
(-0.0908347 0.0634927 0)
(-0.100173 0.0595404 0)
(-0.108755 0.054353 0)
(-0.116433 0.0480696 0)
(-0.123079 0.0408367 0)
(-0.128586 0.0328065 0)
(-0.132864 0.0241355 0)
(-0.135843 0.0149849 0)
(-0.137472 0.00551998 0)
(-0.137719 -0.00408951 0)
(-0.136569 -0.013669 0)
(-0.134032 -0.0230391 0)
(-0.130133 -0.0320162 0)
(-0.124925 -0.0404135 0)
(-0.118481 -0.0480423 0)
(-0.1109 -0.0547155 0)
(-0.102309 -0.0602506 0)
(-0.0928608 -0.0644751 0)
(-0.0827358 -0.0672318 0)
(-0.072142 -0.0683864 0)
(-0.0613133 -0.0678349 0)
(-0.0505072 -0.0655116 0)
(-0.0400009 -0.0613982 0)
(-0.0300877 -0.0555318 0)
(-0.0210719 -0.0480123 0)
(-0.0132551 -0.0390086 0)
(-0.00692395 -0.0287611 0)
(-0.00244967 -0.0175817 0)
(-0.000367365 -0.00587115 0)
(-0.000419593 0.00751877 0)
(-0.00272838 0.0218469 0)
(-0.00761477 0.0350276 0)
(-0.0144439 0.0467357 0)
(-0.0227826 0.0567426 0)
(-0.0323115 0.0648923 0)
(-0.0427111 0.0710956 0)
(-0.053672 0.0753222 0)
(-0.0649065 0.0775924 0)
(-0.0761494 0.0779675 0)
(-0.0871586 0.0765412 0)
(-0.0977163 0.0734323 0)
(-0.107628 0.0687783 0)
(-0.116723 0.0627297 0)
(-0.124851 0.0554468 0)
(-0.131885 0.0470962 0)
(-0.137718 0.0378495 0)
(-0.14226 0.0278824 0)
(-0.145442 0.0173745 0)
(-0.147211 0.00650968 0)
(-0.147534 -0.00452358 0)
(-0.146394 -0.0155313 0)
(-0.143795 -0.0263139 0)
(-0.13976 -0.0366662 0)
(-0.134337 -0.046378 0)
(-0.127593 -0.0552361 0)
(-0.119625 -0.0630269 0)
(-0.110556 -0.0695401 0)
(-0.10054 -0.0745744 0)
(-0.0897605 -0.0779433 0)
(-0.0784334 -0.0794839 0)
(-0.0668052 -0.0790648 0)
(-0.0551512 -0.0765961 0)
(-0.0437727 -0.072039 0)
(-0.0329931 -0.0654152 0)
(-0.0231517 -0.0568153 0)
(-0.0145891 -0.0464056 0)
(-0.00763248 -0.0344308 0)
(-0.00270397 -0.0212132 0)
(-0.000406192 -0.00717128 0)
(-0.000456617 0.00896119 0)
(-0.00296357 0.0258058 0)
(-0.00826042 0.0411288 0)
(-0.0156475 0.0546071 0)
(-0.0246445 0.0660207 0)
(-0.0348965 0.0752277 0)
(-0.0460518 0.0821565 0)
(-0.0577729 0.0867987 0)
(-0.0697495 0.0891982 0)
(-0.0816991 0.0894414 0)
(-0.0933677 0.087648 0)
(-0.104529 0.0839624 0)
(-0.114985 0.0785469 0)
(-0.124563 0.071576 0)
(-0.133115 0.0632324 0)
(-0.140513 0.0537038 0)
(-0.146653 0.0431815 0)
(-0.151447 0.0318599 0)
(-0.154828 0.0199364 0)
(-0.156742 0.00761224 0)
(-0.157154 -0.00490642 0)
(-0.156045 -0.0174075 0)
(-0.153415 -0.0296722 0)
(-0.149281 -0.0414743 0)
(-0.143682 -0.0525811 0)
(-0.136682 -0.0627542 0)
(-0.12837 -0.0717524 0)
(-0.118865 -0.0793358 0)
(-0.108317 -0.0852711 0)
(-0.0969126 -0.0893389 0)
(-0.0848721 -0.0913426 0)
(-0.0724536 -0.0911181 0)
(-0.0599503 -0.0885449 0)
(-0.0476882 -0.0835574 0)
(-0.0360217 -0.076156 0)
(-0.0253283 -0.066417 0)
(-0.0159905 -0.0545002 0)
(-0.00837961 -0.0406524 0)
(-0.00297343 -0.025207 0)
(-0.000447719 -0.00860336 0)
(-0.000495116 0.0105248 0)
(-0.00320616 0.0300902 0)
(-0.0089233 0.0477187 0)
(-0.0168783 0.0630891 0)
(-0.026541 0.0759918 0)
(-0.0375187 0.0863024 0)
(-0.0494257 0.0939724 0)
(-0.0618954 0.09902 0)
(-0.0745947 0.101519 0)
(-0.0872245 0.101586 0)
(-0.0995197 0.0993716 0)
(-0.111248 0.0950503 0)
(-0.122209 0.0888125 0)
(-0.13223 0.080859 0)
(-0.141166 0.0713965 0)
(-0.148895 0.0606345 0)
(-0.155316 0.0487841 0)
(-0.160344 0.0360577 0)
(-0.163914 0.0226692 0)
(-0.165975 0.00883603 0)
(-0.166489 -0.00521995 0)
(-0.165435 -0.0192702 0)
(-0.162807 -0.0330783 0)
(-0.158616 -0.0463986 0)
(-0.152893 -0.0589763 0)
(-0.145691 -0.0705479 0)
(-0.13709 -0.0808441 0)
(-0.127203 -0.0895932 0)
(-0.116173 -0.0965271 0)
(-0.104184 -0.101389 0)
(-0.0914615 -0.103944 0)
(-0.0782713 -0.103988 0)
(-0.0649239 -0.101363 0)
(-0.0517699 -0.0959689 0)
(-0.0391967 -0.0877788 0)
(-0.0276221 -0.0768475 0)
(-0.0174749 -0.0633241 0)
(-0.00917512 -0.0474549 0)
(-0.00326214 -0.0295844 0)
(-0.00049274 -0.0101763 0)
(-0.000535541 0.012214 0)
(-0.00345849 0.0347099 0)
(-0.00960895 0.0548091 0)
(-0.0181451 0.0721917 0)
(-0.0284825 0.0866614 0)
(-0.0401881 0.0981154 0)
(-0.0528399 0.106534 0)
(-0.0660412 0.111968 0)
(-0.0794357 0.114527 0)
(-0.0927086 0.114366 0)
(-0.105585 0.111671 0)
(-0.117829 0.106651 0)
(-0.129241 0.099529 0)
(-0.139651 0.0905336 0)
(-0.148921 0.0798977 0)
(-0.156934 0.067853 0)
(-0.163597 0.0546302 0)
(-0.168831 0.0404586 0)
(-0.172576 0.0255672 0)
(-0.17478 0.0101874 0)
(-0.175409 -0.00544554 0)
(-0.174435 -0.021089 0)
(-0.171849 -0.0364911 0)
(-0.167651 -0.0513886 0)
(-0.161863 -0.0655062 0)
(-0.154526 -0.0785561 0)
(-0.145708 -0.0902401 0)
(-0.135509 -0.100253 0)
(-0.124063 -0.10829 0)
(-0.111548 -0.114051 0)
(-0.0981891 -0.117257 0)
(-0.0842587 -0.117657 0)
(-0.0700823 -0.115047 0)
(-0.0560346 -0.109286 0)
(-0.0425373 -0.100308 0)
(-0.0300518 -0.0881401 0)
(-0.0190572 -0.0729143 0)
(-0.0100284 -0.0548733 0)
(-0.00357411 -0.0343719 0)
(-0.000542036 -0.0119012 0)
(-0.000578364 0.0140346 0)
(-0.00372302 0.0396775 0)
(-0.010323 0.0624144 0)
(-0.0194563 0.0819271 0)
(-0.0304788 0.0980353 0)
(-0.0429131 0.110663 0)
(-0.0562983 0.119826 0)
(-0.0702061 0.125616 0)
(-0.0842574 0.128186 0)
(-0.0981225 0.127735 0)
(-0.111519 0.124492 0)
(-0.124211 0.118706 0)
(-0.136001 0.110634 0)
(-0.146728 0.100539 0)
(-0.156263 0.0886796 0)
(-0.164499 0.0753105 0)
(-0.171352 0.0606812 0)
(-0.176753 0.0450364 0)
(-0.180647 0.0286183 0)
(-0.182988 0.0116692 0)
(-0.183739 -0.00556464 0)
(-0.182873 -0.0228299 0)
(-0.180372 -0.0398624 0)
(-0.176227 -0.056384 0)
(-0.170446 -0.0721009 0)
(-0.163057 -0.0867022 0)
(-0.15411 -0.0998612 0)
(-0.143689 -0.111239 0)
(-0.131915 -0.120488 0)
(-0.118953 -0.127264 0)
(-0.105023 -0.131234 0)
(-0.0904016 -0.132096 0)
(-0.0754252 -0.129588 0)
(-0.0604921 -0.123516 0)
(-0.0460589 -0.113766 0)
(-0.0326336 -0.100329 0)
(-0.0207513 -0.0833117 0)
(-0.0109486 -0.0629473 0)
(-0.00391337 -0.0396002 0)
(-0.000596411 -0.013791 0)
(-0.000624122 0.0159936 0)
(-0.00400251 0.0450084 0)
(-0.0110719 0.0705524 0)
(-0.0208211 0.0923093 0)
(-0.0325397 0.110119 0)
(-0.0457011 0.123939 0)
(-0.0598018 0.133827 0)
(-0.0743807 0.139927 0)
(-0.0890358 0.142444 0)
(-0.103425 0.141628 0)
(-0.117261 0.13776 0)
(-0.13031 0.131133 0)
(-0.142384 0.122046 0)
(-0.153334 0.110795 0)
(-0.163043 0.0976676 0)
(-0.17142 0.0829417 0)
(-0.178394 0.0668842 0)
(-0.183909 0.0497535 0)
(-0.187917 0.031802 0)
(-0.190378 0.0132799 0)
(-0.191259 -0.00555963 0)
(-0.190528 -0.0244563 0)
(-0.18816 -0.0431373 0)
(-0.184136 -0.0613136 0)
(-0.178449 -0.0786756 0)
(-0.171107 -0.0948916 0)
(-0.162141 -0.109608 0)
(-0.151613 -0.122449 0)
(-0.139622 -0.133026 0)
(-0.126318 -0.140943 0)
(-0.111909 -0.145809 0)
(-0.0966683 -0.147256 0)
(-0.0809402 -0.144958 0)
(-0.0651442 -0.138655 0)
(-0.0497722 -0.128172 0)
(-0.035382 -0.11345 0)
(-0.0225708 -0.0945602 0)
(-0.0119452 -0.0717219 0)
(-0.00428414 -0.0453046 0)
(-0.000656733 -0.0158611 0)
(-0.000673482 0.0180996 0)
(-0.00430033 0.0507214 0)
(-0.0118629 0.0792442 0)
(-0.0222502 0.103354 0)
(-0.0346765 0.122916 0)
(-0.0485591 0.137929 0)
(-0.0633488 0.148506 0)
(-0.0785495 0.15485 0)
(-0.0937373 0.15723 0)
(-0.108559 0.15596 0)
(-0.122729 0.151377 0)
(-0.13602 0.143828 0)
(-0.148257 0.133657 0)
(-0.159308 0.121197 0)
(-0.169077 0.106765 0)
(-0.17749 0.0906613 0)
(-0.184496 0.0731693 0)
(-0.190053 0.0545584 0)
(-0.194126 0.0350876 0)
(-0.196683 0.0150114 0)
(-0.197694 -0.00541493 0)
(-0.197125 -0.0259288 0)
(-0.194943 -0.0462538 0)
(-0.191119 -0.0660942 0)
(-0.185626 -0.0851291 0)
(-0.178451 -0.103009 0)
(-0.169599 -0.119355 0)
(-0.159105 -0.133758 0)
(-0.147041 -0.145782 0)
(-0.133532 -0.154977 0)
(-0.118766 -0.160885 0)
(-0.103006 -0.163066 0)
(-0.0866001 -0.161114 0)
(-0.0699835 -0.154686 0)
(-0.0536832 -0.143535 0)
(-0.0383098 -0.127533 0)
(-0.0245289 -0.106706 0)
(-0.013028 -0.0812462 0)
(-0.00469105 -0.0515253 0)
(-0.000723988 -0.0181291 0)
(-0.000727316 0.0203631 0)
(-0.00462081 0.0568395 0)
(-0.0127059 0.088515 0)
(-0.0237572 0.115079 0)
(-0.0369024 0.136429 0)
(-0.0514953 0.152615 0)
(-0.0669355 0.163818 0)
(-0.082691 0.170315 0)
(-0.0983172 0.172453 0)
(-0.113455 0.170619 0)
(-0.127822 0.165219 0)
(-0.141206 0.156659 0)
(-0.153452 0.145333 0)
(-0.164453 0.131614 0)
(-0.174137 0.115849 0)
(-0.182456 0.0983605 0)
(-0.18938 0.0794461 0)
(-0.194888 0.0593827 0)
(-0.198962 0.0384321 0)
(-0.201578 0.0168476 0)
(-0.202713 -0.00511833 0)
(-0.202331 -0.0272065 0)
(-0.200393 -0.0491428 0)
(-0.196856 -0.0706304 0)
(-0.191673 -0.0913428 0)
(-0.184805 -0.110918 0)
(-0.176228 -0.128953 0)
(-0.16594 -0.145007 0)
(-0.153981 -0.158599 0)
(-0.140441 -0.169218 0)
(-0.125479 -0.176335 0)
(-0.109338 -0.179423 0)
(-0.09236 -0.177983 0)
(-0.0749917 -0.171574 0)
(-0.0577922 -0.159852 0)
(-0.0414276 -0.142607 0)
(-0.0266396 -0.119796 0)
(-0.0142078 -0.091574 0)
(-0.00513938 -0.0583071 0)
(-0.000799336 -0.020615 0)
(-0.000786811 0.0227974 0)
(-0.00496976 0.0633909 0)
(-0.0136133 0.0983951 0)
(-0.0253595 0.127504 0)
(-0.0392344 0.150655 0)
(-0.0545189 0.167967 0)
(-0.0705561 0.179702 0)
(-0.0867764 0.186231 0)
(-0.102717 0.187993 0)
(-0.118018 0.185464 0)
(-0.13241 0.179127 0)
(-0.145701 0.169458 0)
(-0.157766 0.156903 0)
(-0.168529 0.14188 0)
(-0.177949 0.124766 0)
(-0.186012 0.105904 0)
(-0.192716 0.0856011 0)
(-0.198062 0.0641391 0)
(-0.202053 0.0417772 0)
(-0.204679 0.0187622 0)
(-0.205923 -0.00466255 0)
(-0.205751 -0.0282479 0)
(-0.204117 -0.0517288 0)
(-0.200962 -0.0748145 0)
(-0.19622 -0.0971791 0)
(-0.189822 -0.118454 0)
(-0.181708 -0.138219 0)
(-0.171836 -0.156004 0)
(-0.160201 -0.171281 0)
(-0.146848 -0.183479 0)
(-0.131896 -0.191989 0)
(-0.115557 -0.196186 0)
(-0.0981535 -0.195462 0)
(-0.0801367 -0.189257 0)
(-0.062093 -0.177106 0)
(-0.0447448 -0.158689 0)
(-0.0289174 -0.133876 0)
(-0.0154972 -0.102763 0)
(-0.00563547 -0.0657007 0)
(-0.000884212 -0.023342 0)
(-0.000853614 0.0254189 0)
(-0.00535511 0.070411 0)
(-0.0146023 0.108921 0)
(-0.0270802 0.140651 0)
(-0.0416948 0.16559 0)
(-0.0576416 0.183942 0)
(-0.0742016 0.196076 0)
(-0.0907676 0.202476 0)
(-0.106863 0.203694 0)
(-0.122135 0.20031 0)
(-0.136334 0.192901 0)
(-0.149302 0.182014 0)
(-0.160951 0.168159 0)
(-0.171247 0.151795 0)
(-0.180189 0.13333 0)
(-0.187801 0.113125 0)
(-0.194114 0.0914949 0)
(-0.199162 0.0687187 0)
(-0.202966 0.0450482 0)
(-0.205538 0.0207173 0)
(-0.206866 -0.00404692 0)
(-0.206921 -0.0290126 0)
(-0.205651 -0.0539314 0)
(-0.202983 -0.0785269 0)
(-0.198827 -0.102482 0)
(-0.193084 -0.125429 0)
(-0.185651 -0.146938 0)
(-0.176441 -0.166513 0)
(-0.165393 -0.183587 0)
(-0.152497 -0.197522 0)
(-0.137816 -0.207626 0)
(-0.121516 -0.213166 0)
(-0.103887 -0.213405 0)
(-0.0853699 -0.207638 0)
(-0.0665712 -0.195253 0)
(-0.0482688 -0.175787 0)
(-0.0313791 -0.148989 0)
(-0.0169112 -0.114875 0)
(-0.00618722 -0.0737633 0)
(-0.00098045 -0.026337 0)
(-0.000930045 0.0282492 0)
(-0.0057878 0.077945 0)
(-0.015696 0.12014 0)
(-0.0289502 0.154544 0)
(-0.0443118 0.181219 0)
(-0.0608772 0.20048 0)
(-0.0778587 0.212829 0)
(-0.0946131 0.218892 0)
(-0.110658 0.219359 0)
(-0.125655 0.214932 0)
(-0.139393 0.206292 0)
(-0.151755 0.194073 0)
(-0.162706 0.178846 0)
(-0.17226 0.161115 0)
(-0.180469 0.141318 0)
(-0.187399 0.119827 0)
(-0.193124 0.0969604 0)
(-0.197708 0.0729897 0)
(-0.201203 0.048152 0)
(-0.203638 0.0226612 0)
(-0.205015 -0.0032792 0)
(-0.205308 -0.0294628 0)
(-0.204461 -0.0556668 0)
(-0.202389 -0.0816378 0)
(-0.198977 -0.107077 0)
(-0.194093 -0.131628 0)
(-0.187592 -0.15486 0)
(-0.179328 -0.176261 0)
(-0.16918 -0.195224 0)
(-0.157067 -0.211055 0)
(-0.142982 -0.222969 0)
(-0.127024 -0.230116 0)
(-0.109433 -0.23161 0)
(-0.0906207 -0.226576 0)
(-0.0712018 -0.214217 0)
(-0.0520049 -0.193887 0)
(-0.0340438 -0.165174 0)
(-0.0184687 -0.127978 0)
(-0.00680483 -0.0825604 0)
(-0.00109047 -0.0296317 0)
(-0.00101941 0.0313163 0)
(-0.00628305 0.086051 0)
(-0.0169257 0.132107 0)
(-0.0310103 0.169211 0)
(-0.0471219 0.19752 0)
(-0.0642406 0.217495 0)
(-0.0815055 0.229812 0)
(-0.0982416 0.235273 0)
(-0.113971 0.234734 0)
(-0.12839 0.229042 0)
(-0.141334 0.218997 0)
(-0.15275 0.205324 0)
(-0.162665 0.188661 0)
(-0.171156 0.169555 0)
(-0.178333 0.148467 0)
(-0.184316 0.125778 0)
(-0.189222 0.101802 0)
(-0.193155 0.0767965 0)
(-0.196195 0.0509763 0)
(-0.198395 0.0245277 0)
(-0.199771 -0.00237718 0)
(-0.200304 -0.029566 0)
(-0.199937 -0.0568504 0)
(-0.198571 -0.0840102 0)
(-0.196071 -0.110776 0)
(-0.192269 -0.136813 0)
(-0.186974 -0.161702 0)
(-0.179982 -0.184923 0)
(-0.171097 -0.205846 0)
(-0.160156 -0.223719 0)
(-0.147063 -0.237668 0)
(-0.131829 -0.246716 0)
(-0.114618 -0.249809 0)
(-0.0957895 -0.245872 0)
(-0.0759458 -0.23388 0)
(-0.0559559 -0.212951 0)
(-0.0369349 -0.182462 0)
(-0.0201941 -0.142142 0)
(-0.00750191 -0.0921675 0)
(-0.00121759 -0.0332639 0)
(-0.00112645 0.0346579 0)
(-0.00686215 0.0948051 0)
(-0.0183345 0.144895 0)
(-0.033314 0.18468 0)
(-0.0501693 0.214453 0)
(-0.0677452 0.23487 0)
(-0.0851045 0.246829 0)
(-0.101551 0.251355 0)
(-0.116629 0.249503 0)
(-0.130088 0.24229 0)
(-0.141836 0.230648 0)
(-0.151899 0.215399 0)
(-0.160382 0.197247 0)
(-0.167439 0.17678 0)
(-0.173245 0.154474 0)
(-0.17798 0.130713 0)
(-0.181811 0.105797 0)
(-0.18488 0.079961 0)
(-0.187302 0.0533902 0)
(-0.189153 0.0262357 0)
(-0.190466 -0.00137002 0)
(-0.191232 -0.0292969 0)
(-0.191392 -0.0574002 0)
(-0.19084 -0.0855032 0)
(-0.189422 -0.113377 0)
(-0.186938 -0.140723 0)
(-0.183148 -0.167145 0)
(-0.177787 -0.192135 0)
(-0.170578 -0.215048 0)
(-0.161264 -0.235086 0)
(-0.149639 -0.251293 0)
(-0.135603 -0.26256 0)
(-0.11921 -0.26765 0)
(-0.100736 -0.265252 0)
(-0.0807428 -0.254063 0)
(-0.0601195 -0.232905 0)
(-0.0400806 -0.200867 0)
(-0.0221195 -0.157445 0)
(-0.0082971 -0.102674 0)
(-0.00136645 -0.03728 0)
(-0.00125813 0.0383249 0)
(-0.00755511 0.104308 0)
(-0.0199803 0.158593 0)
(-0.0359306 0.200981 0)
(-0.0535058 0.231955 0)
(-0.0713957 0.252437 0)
(-0.08859 0.263616 0)
(-0.104389 0.266794 0)
(-0.118388 0.263266 0)
(-0.130417 0.254244 0)
(-0.140484 0.240802 0)
(-0.148715 0.223864 0)
(-0.155312 0.204195 0)
(-0.160515 0.182413 0)
(-0.164576 0.159004 0)
(-0.167735 0.13434 0)
(-0.17021 0.108699 0)
(-0.172188 0.0822861 0)
(-0.173814 0.055247 0)
(-0.175188 0.0276901 0)
(-0.176364 -0.000298981 0)
(-0.177342 -0.0286402 0)
(-0.178067 -0.0572412 0)
(-0.178431 -0.0859785 0)
(-0.178261 -0.114677 0)
(-0.177332 -0.143084 0)
(-0.175361 -0.170849 0)
(-0.172018 -0.197489 0)
(-0.166944 -0.222365 0)
(-0.159775 -0.244653 0)
(-0.15018 -0.263325 0)
(-0.137916 -0.277143 0)
(-0.122894 -0.284674 0)
(-0.105264 -0.284342 0)
(-0.0855013 -0.274509 0)
(-0.0644847 -0.253622 0)
(-0.0435156 -0.220386 0)
(-0.0242883 -0.173968 0)
(-0.00921655 -0.114186 0)
(-0.00154377 -0.0417381 0)
(-0.0014248 0.0423871 0)
(-0.00840466 0.114693 0)
(-0.021942 0.173314 0)
(-0.0389473 0.218137 0)
(-0.0571859 0.249922 0)
(-0.0751753 0.269961 0)
(-0.0918462 0.279819 0)
(-0.106528 0.281146 0)
(-0.118905 0.275524 0)
(-0.12893 0.264378 0)
(-0.136739 0.248938 0)
(-0.142586 0.23022 0)
(-0.146787 0.209042 0)
(-0.149678 0.186038 0)
(-0.151589 0.161689 0)
(-0.152825 0.136344 0)
(-0.153656 0.110248 0)
(-0.154305 0.0835621 0)
(-0.154949 0.0563885 0)
(-0.155713 0.0287847 0)
(-0.156667 0.000782924 0)
(-0.157825 -0.0275931 0)
(-0.15914 -0.0563103 0)
(-0.160502 -0.0853077 0)
(-0.161735 -0.114474 0)
(-0.162589 -0.14362 0)
(-0.162747 -0.172456 0)
(-0.161824 -0.200547 0)
(-0.159377 -0.227284 0)
(-0.154932 -0.251843 0)
(-0.148013 -0.273146 0)
(-0.13821 -0.289841 0)
(-0.125247 -0.300298 0)
(-0.109094 -0.302645 0)
(-0.0900806 -0.294855 0)
(-0.0690235 -0.274901 0)
(-0.0472809 -0.240982 0)
(-0.0267593 -0.191797 0)
(-0.0102978 -0.126836 0)
(-0.00175958 -0.0467134 0)
(-0.00164232 0.046942 0)
(-0.00947248 0.126137 0)
(-0.0243264 0.189192 0)
(-0.0424704 0.23615 0)
(-0.0612561 0.268187 0)
(-0.0790212 0.287103 0)
(-0.0946709 0.294962 0)
(-0.107617 0.293843 0)
(-0.11769 0.285657 0)
(-0.125013 0.272067 0)
(-0.129893 0.254449 0)
(-0.132736 0.233904 0)
(-0.133984 0.211279 0)
(-0.134077 0.187209 0)
(-0.133424 0.162147 0)
(-0.132391 0.136403 0)
(-0.131292 0.110176 0)
(-0.130383 0.0835776 0)
(-0.129866 0.0566537 0)
(-0.129886 0.0294072 0)
(-0.130529 0.00181265 0)
(-0.131823 -0.0261667 0)
(-0.133733 -0.0545624 0)
(-0.136155 -0.0833818 0)
(-0.138915 -0.112587 0)
(-0.141756 -0.142067 0)
(-0.144336 -0.171609 0)
(-0.146226 -0.200853 0)
(-0.146912 -0.22925 0)
(-0.145808 -0.256008 0)
(-0.14229 -0.280037 0)
(-0.135752 -0.2999 0)
(-0.125689 -0.313783 0)
(-0.111823 -0.319506 0)
(-0.0942612 -0.314591 0)
(-0.0736753 -0.296432 0)
(-0.0514218 -0.262561 0)
(-0.0296128 -0.211019 0)
(-0.0115957 -0.140788 0)
(-0.00202938 -0.0523057 0)
(-0.00193578 0.052128 0)
(-0.0108491 0.138879 0)
(-0.0272764 0.206386 0)
(-0.0466215 0.254982 0)
(-0.0657314 0.286476 0)
(-0.0827807 0.303377 0)
(-0.096716 0.308403 0)
(-0.107115 0.30415 0)
(-0.114034 0.292905 0)
(-0.117828 0.276568 0)
(-0.119015 0.256648 0)
(-0.118176 0.234301 0)
(-0.115891 0.210374 0)
(-0.112701 0.185472 0)
(-0.109087 0.159999 0)
(-0.105463 0.134208 0)
(-0.102176 0.108236 0)
(-0.0995055 0.0821346 0)
(-0.097669 0.0558905 0)
(-0.0968239 0.0294474 0)
(-0.0970695 0.00272066 0)
(-0.0984467 -0.0243881 0)
(-0.100935 -0.0519761 0)
(-0.104446 -0.0801227 0)
(-0.108817 -0.10887 0)
(-0.113799 -0.138195 0)
(-0.119046 -0.167979 0)
(-0.124106 -0.197963 0)
(-0.12841 -0.227693 0)
(-0.131279 -0.256452 0)
(-0.131942 -0.283188 0)
(-0.129582 -0.306428 0)
(-0.123422 -0.324214 0)
(-0.112867 -0.334064 0)
(-0.0976959 -0.333011 0)
(-0.0783164 -0.317748 0)
(-0.0559789 -0.284943 0)
(-0.032957 -0.231712 0)
(-0.0131925 -0.15625 0)
(-0.002378 -0.0586523 0)
(-0.00234629 0.0581457 0)
(-0.0126697 0.153234 0)
(-0.0309813 0.225062 0)
(-0.0515219 0.274506 0)
(-0.0705471 0.304343 0)