/*--------------------------------*- C++ -*----------------------------------*\
  =========                 |
  \\      /  F ield         | OpenFOAM: The Open Source CFD Toolbox
   \\    /   O peration     | Website:  https://openfoam.org
    \\  /    A nd           | Version:  7
     \\/     M anipulation  |
\*---------------------------------------------------------------------------*/
FoamFile
{
    version     2.0;
    format      ascii;
    class       volScalarField;
    location    "50";
    object      k;
}
// * * * * * * * * * * * * * * * * * * * * * * * * * * * * * * * * * * * * * //

dimensions      [0 2 -2 0 0 0 0];

internalField   nonuniform List<scalar> 
17475
(
0.00763365
0.0124983
0.0125514
0.0125508
0.0125506
0.0125505
0.0125505
0.0125505
0.0125504
0.0125502
0.0125503
0.0125506
0.0125503
0.0125503
0.0125505
0.0125503
0.0125503
0.0125505
0.0125503
0.0125502
0.0125509
0.012551
0.0125496
0.0125516
0.012547
0.0125588
0.0125589
0.0125591
0.0125592
0.0125589
0.0125588
0.0125588
0.0125587
0.0125587
0.0125586
0.0125585
0.0125584
0.0125582
0.0125587
0.0125629
0.0125696
0.0125761
0.0125822
0.0125878
0.0125929
0.0125975
0.0126018
0.0126057
0.0126093
0.0126127
0.0126156
0.0126185
0.0126208
0.0126101
0.0120188
0.000246188
0.00440863
0.00528554
0.00530426
0.00529481
0.00529048
0.00528844
0.00528716
0.00528645
0.00528593
0.00528562
0.00528534
0.00528515
0.00528501
0.00528485
0.00528476
0.00528466
0.00528457
0.00528447
0.00528443
0.00528439
0.00528433
0.00528537
0.00528315
0.00528713
0.00529109
0.00529402
0.00529419
0.00529426
0.00529384
0.00529369
0.00529368
0.00529369
0.00529369
0.00529372
0.00529368
0.00529367
0.00529342
0.00529249
0.00529337
0.00529524
0.00529738
0.00529964
0.00530182
0.00530397
0.00530602
0.0053081
0.00531022
0.0053126
0.00531543
0.00531925
0.00532456
0.00532176
0.0050295
0.00162926
3.09432e-05
0.00184702
0.00307734
0.00319519
0.00318643
0.0031775
0.0031725
0.00316952
0.00316769
0.0031664
0.00316551
0.00316484
0.00316435
0.0031639
0.00316355
0.00316324
0.00316295
0.00316268
0.00316244
0.00316219
0.00316194
0.00316224
0.00316184
0.0031634
0.00316445
0.00316588
0.00316778
0.0031686
0.00316861
0.00316844
0.00316825
0.0031683
0.00316842
0.00316854
0.00316868
0.00316881
0.00316894
0.00316864
0.00316829
0.00316859
0.00316918
0.00316995
0.0031709
0.00317199
0.00317322
0.00317463
0.00317632
0.00317852
0.00318154
0.00318602
0.00319299
0.00320139
0.0031573
0.00249618
0.000283079
9.87353e-06
0.000849141
0.00201206
0.002236
0.00224433
0.00223422
0.0022274
0.0022231
0.00222025
0.00221827
0.00221689
0.00221584
0.00221499
0.00221428
0.0022137
0.00221317
0.00221268
0.00221223
0.0022118
0.00221137
0.00221124
0.00221085
0.00221153
0.00221225
0.00221299
0.00221355
0.00221423
0.00221497
0.00221523
0.00221525
0.00221508
0.00221521
0.00221545
0.00221571
0.00221599
0.00221629
0.00221658
0.00221647
0.00221648
0.00221692
0.00221743
0.00221807
0.00221888
0.00221989
0.00222113
0.0022227
0.00222474
0.00222755
0.00223161
0.00223777
0.00224691
0.00224969
0.00213805
0.00133282
8.89517e-05
4.47167e-06
0.000439832
0.0013856
0.00168599
0.00171901
0.00171198
0.00170443
0.0016993
0.00169578
0.00169329
0.00169149
0.00169011
0.001689
0.00168805
0.00168724
0.00168652
0.00168587
0.00168522
0.0016846
0.0016842
0.00168363
0.0016838
0.00168399
0.00168421
0.0016845
0.00168484
0.00168516
0.00168547
0.00168582
0.00168596
0.00168595
0.00168619
0.00168655
0.00168696
0.00168739
0.00168788
0.00168825
0.0016883
0.00168877
0.00168938
0.00169003
0.00169079
0.00169171
0.00169285
0.00169429
0.00169615
0.00169858
0.00170195
0.00170679
0.00171388
0.00172251
0.00171128
0.00153749
0.000771616
4.18615e-05
2.44751e-06
0.000256327
0.000986745
0.00132573
0.0013843
0.00138325
0.00137594
0.00137044
0.00136649
0.00136363
0.00136154
0.00135992
0.00135858
0.00135744
0.00135644
0.00135554
0.00135472
0.00135389
0.00135323
0.00135247
0.00135224
0.00135207
0.00135191
0.0013518
0.00135177
0.00135185
0.00135196
0.00135214
0.00135239
0.0013527
0.00135283
0.0013532
0.00135369
0.00135423
0.00135482
0.00135549
0.00135592
0.00135633
0.00135706
0.00135784
0.00135866
0.00135957
0.00136064
0.00136194
0.00136361
0.00136575
0.0013685
0.00137222
0.00137749
0.00138461
0.00139011
0.00136181
0.00114472
0.000485579
2.44258e-05
1.51793e-06
0.000164863
0.000724158
0.0010699
0.00115118
0.00115758
0.00115166
0.00114614
0.00114197
0.00113888
0.0011366
0.0011348
0.00113328
0.00113198
0.00113082
0.00112975
0.00112878
0.00112788
0.00112691
0.00112628
0.0011258
0.00112538
0.00112494
0.00112458
0.0011243
0.00112419
0.00112409
0.00112415
0.00112438
0.00112481
0.00112513
0.00112556
0.00112619
0.00112689
0.00112764
0.00112846
0.00112904
0.00112976
0.00113069
0.00113164
0.00113263
0.00113369
0.0011349
0.00113637
0.0011382
0.00114058
0.00114355
0.00114738
0.00115264
0.00115926
0.00116019
0.0011151
0.000875088
0.000330125
1.60523e-05
1.0301e-06
0.000114673
0.000547422
0.000879197
0.000978859
0.000993098
0.000989353
0.000984104
0.000979939
0.000976787
0.000974371
0.000972442
0.000970738
0.000969242
0.00096799
0.00096677
0.000965653
0.000964498
0.00096357
0.000962713
0.000961985
0.000961323
0.000960643
0.000960012
0.000959508
0.000959245
0.000958996
0.000958954
0.000959155
0.000959634
0.000960134
0.000960659
0.000961415
0.000962305
0.000963256
0.000964187
0.000964983
0.000965995
0.000967121
0.000968226
0.000969373
0.000970569
0.000971939
0.000973543
0.000975512
0.00097799
0.000980941
0.000984801
0.000989993
0.000995419
0.000991043
0.000931375
0.000685059
0.000238226
1.12667e-05
7.46447e-07
8.44135e-05
0.000425773
0.000732879
0.000846268
0.000868119
0.000867123
0.00086242
0.000858351
0.000855162
0.000852733
0.00085073
0.00084884
0.000847147
0.00084584
0.000844441
0.000843022
0.000841891
0.000840677
0.000839506
0.000838504
0.000837593
0.000836611
0.0008357
0.000835069
0.00083464
0.00083419
0.000834035
0.000834225
0.000834837
0.000835495
0.000836168
0.000837071
0.000838183
0.000839321
0.000840375
0.000841488
0.000842747
0.000843998
0.000845245
0.000846584
0.000847862
0.000849296
0.000851005
0.000852994
0.000855488
0.000858518
0.000862298
0.000867164
0.000870881
0.000861063
0.000789168
0.000547744
0.000180566
8.41405e-06
5.67895e-07
6.48555e-05
0.000340024
0.000618748
0.00074132
0.000770182
0.000772295
0.000768535
0.000764482
0.000761221
0.000758898
0.000756843
0.000754858
0.000753013
0.000751667
0.000750083
0.000748541
0.000747175
0.000745525
0.000743969
0.000742696
0.0007416
0.00074033
0.000739106
0.00073824
0.000737538
0.000736814
0.000736574
0.000736857
0.000737616
0.000738442
0.000739293
0.000740335
0.000741686
0.000742991
0.00074432
0.000745803
0.000747214
0.000748448
0.000749855
0.00075139
0.000752711
0.000754141
0.000755817
0.000757797
0.000760463
0.000763571
0.000767048
0.00077134
0.000773324
0.000758487
0.00067779
0.000448552
0.000142553
6.58954e-06
4.48082e-07
5.15238e-05
0.00027813
0.000528706
0.000656329
0.000691555
0.00069674
0.000694138
0.000690143
0.000686745
0.000684532
0.000682693
0.000680843
0.000678805
0.00067732
0.000675793
0.000674048
0.000672483
0.00067046
0.000668421
0.000666773
0.00066546
0.000663981
0.00066257
0.000661425
0.000660404
0.000659291
0.000658963
0.000659343
0.000660167
0.000661119
0.000662187
0.000663515
0.000665195
0.000666578
0.000668335
0.000669959
0.000671422
0.000672671
0.000674201
0.000675746
0.000677113
0.000678492
0.000680072
0.000682363
0.000685186
0.000688366
0.000691478
0.000695079
0.000695051
0.000675809
0.000588948
0.000375037
0.000116065
5.34265e-06
3.64126e-07
4.20768e-05
0.000232414
0.000457041
0.000586286
0.000627333
0.000635194
0.000633633
0.000629811
0.000626482
0.000624531
0.000623103
0.000621305
0.000619013
0.000617403
0.000615857
0.000613808
0.000612062
0.000609678
0.000607343
0.000605535
0.000603806
0.000602006
0.000600488
0.000599231
0.000597873
0.000596518
0.000596034
0.000596296
0.000597255
0.000598362
0.000599734
0.000601349
0.000603287
0.000604919
0.000606918
0.000608808
0.000610241
0.00061141
0.000613079
0.000614745
0.000615972
0.000617064
0.000618877
0.000621649
0.000624634
0.000627868
0.000630485
0.000633084
0.000631297
0.000608029
0.000517182
0.000319512
9.69236e-05
4.45719e-06
3.03345e-07
3.51947e-05
0.000197895
0.000399496
0.000527675
0.000573875
0.000584022
0.000583782
0.000579985
0.000576355
0.000574821
0.000574321
0.000572449
0.000570038
0.000568382
0.000566494
0.000564225
0.000562315
0.000559728
0.000557406
0.000555551
0.000553235
0.00055088
0.000549683
0.000548779
0.000546758
0.000545052
0.000544773
0.000545294
0.000546051
0.000547088
0.000548895
0.000550699
0.000552711
0.000554665
0.000556756
0.000558924
0.000560466
0.000561532
0.000562592
0.000564265
0.000565678
0.000566998
0.000568739
0.000571498
0.000575132
0.000578296
0.000580311
0.000582158
0.000578748
0.000551698
0.000458454
0.000276586
8.26173e-05
3.80854e-06
2.57608e-07
2.99851e-05
0.000171227
0.000352811
0.000478664
0.00052822
0.000540244
0.00054114
0.000537548
0.000534647
0.000533326
0.000532808
0.000531057
0.000528821
0.000527067
0.00052476
0.000522354
0.000519953
0.000517237
0.000514682
0.000512527
0.00051017
0.000507869
0.000506716
0.000506277
0.000504458
0.000502405
0.000501566
0.000501982
0.000503062
0.000504584
0.000506254
0.000508047
0.000510033
0.000512055
0.000514182
0.000516394
0.000517897
0.000519125
0.000520441
0.000522015
0.000523582
0.000524996
0.000526479
0.00052917
0.00053311
0.000535876
0.000537812
0.00053872
0.000533569
0.000503601
0.000409659
0.000242248
7.13391e-05
3.28004e-06
2.2224e-07
2.59345e-05
0.000150112
0.000314324
0.00043458
0.000486582
0.000500746
0.000502315
0.000499342
0.000496567
0.000495564
0.000495113
0.000493481
0.000491396
0.000489477
0.000487102
0.000484524
0.000481828
0.00047898
0.000476333
0.000473992
0.000471862
0.000470176
0.000469639
0.000470704
0.000470618
0.000468947
0.000468287
0.000468469
0.000469127
0.000470117
0.000469669
0.000470543
0.000472325
0.00047398
0.000475994
0.000478073
0.000479814
0.000481372
0.000482734
0.000484291
0.000485913
0.00048738
0.000488911
0.000491379
0.000494967
0.000497627
0.000499325
0.000499546
0.000492597
0.000460219
0.000368166
0.00021476
6.24556e-05
2.85529e-06
1.94284e-07
2.27362e-05
0.000133005
0.000281947
0.000395635
0.000448989
0.000464784
0.000467096
0.00046467
0.000462259
0.000461409
0.000460893
0.000459346
0.000457363
0.000455346
0.000453012
0.000450403
0.000447515
0.00044465
0.000442155
0.000439953
0.000438763
0.000438977
0.000440713
0.000447351
0.000460445
0.00046876
0.000472879
0.000471398
0.000464222
0.000452621
0.000441446
0.000440407
0.000439757
0.000440426
0.000442097
0.000443873
0.000445642
0.000447337
0.000448722
0.000450144
0.000451775
0.000453278
0.00045473
0.000456979
0.000460267
0.000462818
0.000464249
0.000463751
0.000455371
0.000421109
0.000331999
0.000191972
5.51664e-05
2.5091e-06
1.69874e-07
2.00547e-05
0.000118735
0.00025407
0.000360963
0.000414741
0.000431925
0.000434951
0.000433049
0.000430991
0.000430218
0.000429601
0.000428124
0.000426248
0.000424212
0.000421997
0.000419424
0.000416425
0.000413711
0.000411634
0.000410266
0.000411166
0.00041536
0.0004327
0.000468416
0.000478059
0.000437177
0.000394933
0.000396043
0.000469036
0.000481035
0.000445981
0.000419804
0.000413374
0.000411678
0.000411996
0.00041324
0.0004148
0.000416543
0.000417936
0.000419112
0.000420646
0.000422136
0.000423569
0.000425628
0.000428597
0.000431007
0.00043224
0.000431137
0.000421535
0.000386118
0.000300895
0.000172972
4.91761e-05
2.22597e-06
1.33333e-07
1.72879e-05
0.000105353
0.000229154
0.000329317
0.00038324
0.000401691
0.000405439
0.000404012
0.000402236
0.000401487
0.000400786
0.000399369
0.000397624
0.000395655
0.000393618
0.000391096
0.000388133
0.000385756
0.000384076
0.000384153
0.000388971
0.000407147
0.000438774
0.000374153
0.000127794
2.20048e-06
1.18961e-05
0.000314819
0.000429813
0.00042616
0.000395117
0.000386709
0.0003851
0.000385515
0.000386816
0.000388556
0.000389912
0.000390929
0.000392343
0.000393719
0.000395076
0.000396937
0.000399594
0.00040184
0.000402861
0.000401212
0.000390606
0.000354451
0.000273705
0.000156571
4.40021e-05
1.98311e-06
4.92388e-08
1.21964e-05
8.94636e-05
0.000203958
0.000298331
0.000353551
0.000373551
0.000378141
0.000377177
0.00037561
0.000374866
0.00037412
0.000372771
0.000371166
0.000369346
0.000367509
0.000364932
0.000362124
0.000360002
0.000359131
0.000361066
0.000372521
0.00039564
0.000327093
8.96347e-05
3.78351e-07
0.000184205
0.000394703
0.000384149
0.00036509
0.000360443
0.000360155
0.000361081
0.000362759
0.00036416
0.000364974
0.000366269
0.000367525
0.000368766
0.000370421
0.00037279
0.000374876
0.000375717
0.000373635
0.00036229
0.000325588
0.000249829
0.000142361
3.901e-05
1.63947e-06
6.64872e-08
1.29781e-05
8.32177e-05
0.00018683
0.000274269
0.000325586
0.000345909
0.000351034
0.000350486
0.000348985
0.000348009
0.000347307
0.000346134
0.000344411
0.000342726
0.000340716
0.00033836
0.000335904
0.000333826
0.000333442
0.00033768
0.000353293
0.000339938
0.00014917
1.0405e-05
4.59259e-05
0.000275675
0.000359638
0.000343625
0.000335249
0.000333875
0.000335072
0.000336563
0.00033796
0.000338793
0.000339997
0.000341343
0.000342573
0.000344146
0.000346257
0.0003481
0.000348705
0.000346194
0.000334162
0.000298925
0.000227716
0.000129896
3.70052e-05
1.81035e-06
9.50492e-08
1.2691e-05
7.87e-05
0.000173161
0.000252268
0.000300066
0.000319882
0.000325045
0.000324548
0.00032321
0.000322439
0.000321581
0.000320545
0.000318999
0.000317306
0.000315308
0.00031332
0.000311151
0.000309128
0.000309111
0.000314939
0.000321285
0.000258137
7.57738e-05
4.69466e-06
7.43551e-08
3.41008e-07
2.31482e-05
0.000172614
0.000308651
0.000319747
0.000311023
0.000308914
0.000310103
0.000311316
0.000312653
0.000313416
0.000314777
0.00031616
0.000317472
0.000319059
0.000320965
0.000322716
0.000323158
0.000320415
0.000308141
0.000273793
0.000207876
0.000118543
3.35123e-05
1.53159e-06
9.59844e-08
1.15801e-05
7.20403e-05
0.000158459
0.00023077
0.000275877
0.000295458
0.000300889
0.000300585
0.000299422
0.000298788
0.000297849
0.000296789
0.000295368
0.00029375
0.00029183
0.000290052
0.000288225
0.000286231
0.000286348
0.000291571
0.000284193
0.000194165
5.10852e-05
5.66885e-06
5.93928e-07
4.48251e-07
7.05555e-07
7.98113e-07
1.0513e-06
2.70286e-06
1.89736e-05
0.000115635
0.000252773
0.00029156
0.000288354
0.000285971
0.00028715
0.000288199
0.000289341
0.000290087
0.00029152
0.000293065
0.000294499
0.000296117
0.000297928
0.000299429
0.000299576
0.00029661
0.000284275
0.000251159
0.000190115
0.000108382
3.0262e-05
1.35472e-06
8.81878e-08
1.04929e-05
6.55515e-05
0.000144839
0.000211112
0.000253682
0.000273034
0.0002787
0.00027867
0.000277625
0.000277005
0.000276154
0.000275049
0.000273646
0.000272036
0.000270211
0.000268737
0.000267159
0.000265262
0.000265286
0.000267765
0.000247726
0.000152797
4.32944e-05
7.64969e-06
2.46054e-06
3.57297e-06
5.14818e-06
5.63145e-06
5.37495e-06
6.36059e-06
1.88077e-05
8.65502e-05
0.000206421
0.000262684
0.000266752
0.00026494
0.000266035
0.000267116
0.000268086
0.000268741
0.000270096
0.000271745
0.00027339
0.000275093
0.000276831
0.000278048
0.000277908
0.000274777
0.000262511
0.000230771
0.000174335
9.92587e-05
2.73519e-05
1.2122e-06
7.98669e-08
9.50003e-06
5.97061e-05
0.000132567
0.000193402
0.000233466
0.00025247
0.000258332
0.000258583
0.000257614
0.000256981
0.000256199
0.000255056
0.000253659
0.000252078
0.000250402
0.000249178
0.000247788
0.000245923
0.000245613
0.000244745
0.000215753
0.000127717
4.35332e-05
1.17724e-05
5.01399e-06
5.64652e-06
7.30049e-06
8.08268e-06
8.17916e-06
9.89379e-06
2.0761e-05
7.29717e-05
0.000172091
0.000235556
0.000246101
0.000245536
0.000246608
0.00024775
0.000248577
0.00024918
0.0002505
0.000252215
0.000253957
0.000255774
0.000257477
0.000258418
0.000257971
0.000254696
0.000242662
0.000212473
0.000160321
9.11124e-05
2.48023e-05
1.09175e-06
7.21682e-08
8.59831e-06
5.44515e-05
0.000121543
0.000177481
0.000215077
0.000233655
0.00023962
0.000240132
0.000239239
0.000238566
0.000237817
0.000236636
0.000235261
0.00023371
0.00023221
0.000231171
0.000229906
0.000228024
0.000227198
0.000223117
0.000189773
0.000112935
4.62266e-05
1.77094e-05
9.43528e-06
8.73839e-06
9.9343e-06
1.03718e-05
9.89623e-06
1.14047e-05
2.20133e-05
6.83834e-05
0.000149697
0.000211519
0.000226802
0.000227525
0.000228641
0.00022985
0.00023059
0.000231169
0.000232456
0.000234247
0.000236027
0.000237937
0.000239599
0.000240313
0.000239649
0.000236279
0.000224504
0.000195875
0.000147657
8.36622e-05
2.24858e-05
9.83729e-07
6.51486e-08
7.77756e-06
4.96536e-05
0.000111488
0.000163018
0.000198222
0.00021622
0.000222292
0.000223104
0.000222307
0.000221603
0.00022081
0.000219581
0.000218226
0.000216726
0.000215344
0.000214486
0.000213366
0.0002115
0.000210174
0.000203612
0.000169072
0.000104453
5.04795e-05
2.50191e-05
1.62119e-05
1.39128e-05
1.38696e-05
1.35395e-05
1.20168e-05
1.25927e-05
2.52683e-05
6.90445e-05
0.000135418
0.000191832
0.000209015
0.000210813
0.00021201
0.000213163
0.000213939
0.000214555
0.000215812
0.000217726
0.000219384
0.000221348
0.000222942
0.000223524
0.000222727
0.000219303
0.000207793
0.000180738
0.000136158
7.68517e-05
2.03912e-05
8.80947e-07
5.87779e-08
7.03077e-06
4.52591e-05
0.000102278
0.000149796
0.000182671
0.000199577
0.000206118
0.000207266
0.000206531
0.000205207
0.000204837
0.000203611
0.000202387
0.000200869
0.000199392
0.000198863
0.000198082
0.000196352
0.000194666
0.000186443
0.000153123
0.000100729
5.7177e-05
3.47278e-05
2.47901e-05
2.11788e-05
1.96178e-05
1.79649e-05
1.4685e-05
1.47406e-05
3.21073e-05
7.39278e-05
0.000127211
0.000175401
0.00019281
0.000195399
0.00019662
0.00019759
0.000198424
0.000199167
0.000200467
0.000202041
0.000203646
0.000205815
0.000207343
0.000207912
0.000206891
0.000203373
0.000192158
0.000166663
0.000125416
7.04335e-05
1.84088e-05
7.83301e-07
5.29942e-08
6.35172e-06
4.12042e-05
9.37529e-05
0.000137528
0.000167849
0.000184599
0.000191108
0.000192285
0.000191528
0.000190484
0.000189915
0.000188773
0.000187514
0.000186213
0.00018478
0.000184399
0.000184001
0.000182582
0.000180732
0.00017155
0.000141308
0.000100825
6.90613e-05
5.04029e-05
3.82352e-05
3.14744e-05
2.76693e-05
2.36874e-05
1.78975e-05
1.91445e-05
4.26416e-05
7.9219e-05
0.000121885
0.00016164
0.000177904
0.000181175
0.00018229
0.000182831
0.000183645
0.000184935
0.000186294
0.000187745
0.00018915
0.000191279
0.000192611
0.000192942
0.000192014
0.000188487
0.00017754
0.000153397
0.000115433
6.44312e-05
1.66028e-05
6.97375e-07
4.77556e-08
5.73388e-06
3.74944e-05
8.57802e-05
0.000126006
0.000154702
0.000170863
0.000177178
0.000178626
0.000177994
0.000177383
0.000176251
0.000175236
0.000174159
0.000172755
0.000171724
0.000171472
0.000171408
0.000170375
0.000168288
0.000159345
0.000133162
0.000105267
9.03783e-05
7.87774e-05
6.12795e-05
4.72483e-05
3.84995e-05
3.03607e-05
2.29431e-05
2.9872e-05
5.63269e-05
8.48193e-05
0.000117803
0.000149664
0.000165
0.000168405
0.000169302
0.000169936
0.000170877
0.000172013
0.000173513
0.000174922
0.000175997
0.000177693
0.000178926
0.000179072
0.000178299
0.000174937
0.00016401
0.000141165
0.000106062
5.89181e-05
1.49707e-05
6.21687e-07
4.30405e-08
5.17689e-06
3.41323e-05
7.84869e-05
0.000115454
0.000142364
0.000158118
0.000164639
0.000166353
0.00016634
0.00016529
0.000164165
0.00016309
0.000162165
0.000160842
0.000160211
0.000160389
0.000160555
0.000159628
0.000157681
0.000149087
0.000127541
0.000113993
0.000126301
0.000127642
9.52427e-05
6.65325e-05
4.99524e-05
3.83116e-05
3.2884e-05
5.05223e-05
7.49574e-05
9.22852e-05
0.000114086
0.000139511
0.00015353
0.000157234
0.00015783
0.00015857
0.000159245
0.00016069
0.000162203
0.000163519
0.000164574
0.000165745
0.000166864
0.000166745
0.0001662
0.000162994
0.000151956
0.00013024
9.76536e-05
5.39009e-05
1.35128e-05
5.55448e-07
3.88097e-08
4.67543e-06
3.10911e-05
7.21555e-05
0.000106381
0.000131444
0.000146803
0.000153566
0.000155733
0.000155985
0.000155127
0.000153639
0.00015256
0.000151656
0.000150432
0.000149829
0.000150309
0.000150795
0.000150118
0.000148172
0.000140162
0.000123699
0.000126152
0.0001807
0.000198102
0.000130898
8.03633e-05
6.45441e-05
5.19507e-05
5.85081e-05
8.97271e-05
0.000103973
0.000103368
0.000108834
0.000130257
0.000143897
0.000147458
0.000147701
0.0001486
0.00014955
0.000150837
0.00015229
0.000153466
0.000154281
0.000155285
0.000156087
0.000156227
0.000155668
0.000152262
0.000141377
0.000120705
9.03618e-05
4.94313e-05
1.22272e-05
4.97759e-07
3.50172e-08
4.22589e-06
2.83638e-05
6.65748e-05
9.83833e-05
0.000122029
0.000137073
0.000143809
0.000146189
0.000146895
0.000146255
0.000144578
0.000143376
0.000142578
0.000141473
0.000140705
0.00014121
0.000141888
0.000141689
0.00013955
0.00013218
0.000120272
0.000139025
0.000252768
0.000271544
0.000149211
9.56064e-05
8.56508e-05
8.36014e-05
0.000118869
0.000159812
0.000154183
0.000120668
0.000109724
0.000122573
0.000135439
0.000138766
0.000139027
0.000139794
0.000140763
0.000141948
0.000143455
0.000144474
0.000145058
0.000145866
0.000146664
0.000146907
0.000146272
0.000142539
0.000131723
0.000112189
8.40115e-05
4.55539e-05
1.11029e-05
4.48071e-07
3.16658e-08
3.82809e-06
2.59269e-05
6.14891e-05
9.11588e-05
0.000113562
0.000128321
0.000135087
0.000137559
0.000138562
0.000138239
0.000136519
0.000135098
0.000134352
0.000133403
0.000132618
0.000132992
0.000133993
0.000133984
0.00013148
0.00012462
0.000116934
0.00015009
0.000318332
0.00031922
0.000161372
0.000126784
0.00013083
0.000161533
0.000233585
0.000282229
0.000242664
0.000149773
0.000112996
0.000116272
0.000128389
0.000131345
0.000131338
0.000131912
0.000132782
0.000133883
0.000135442
0.000136302
0.000136744
0.000137463
0.000138326
0.000138527
0.000137729
0.000133798
0.000123051
0.000104578
7.83011e-05
4.21212e-05
1.01237e-05
4.05364e-07
2.8717e-08
3.47795e-06
2.37652e-05
5.69252e-05
8.46161e-05
0.00010583
0.000120349
0.000127153
0.000129615
0.000130815
0.000130865
0.000129292
0.00012764
0.000126847
0.000126079
0.000125379
0.000125543
0.00012662
0.000126852
0.000124095
0.000117631
0.000112842
0.000156764
0.000373033
0.000376491
0.000209443
0.000189823
0.000222823
0.000302048
0.000417788
0.00048238
0.000384943
0.000194972
0.000116221
0.000110907
0.000122263
0.000124853
0.000124448
0.000124765
0.000125516
0.0001266
0.000128088
0.000128739
0.000129145
0.000129907
0.000130826
0.000130944
0.000129995
0.000125872
0.0001152
9.77426e-05
7.31698e-05
3.90407e-05
9.26725e-06
3.68544e-07
2.61375e-08
3.17052e-06
2.18417e-05
5.28054e-05
7.86576e-05
9.86955e-05
0.000112959
0.000119762
0.000122212
0.000123494
0.000123894
0.000122667
0.000120873
0.000119895
0.000119219
0.000118766
0.000118774
0.000119769
0.000120172
0.000117021
0.00011145
0.000108687
0.000160893
0.000420792
0.00049512
0.000298936
0.000291281
0.000373479
0.000504942
0.000674814
0.00077224
0.000593299
0.00025199
0.000123998
0.000106848
0.000116646
0.000118926
0.000118253
0.000118266
0.000118786
0.000119945
0.000121218
0.000121665
0.000122108
0.000122973
0.000123889
0.00012392
0.000122831
0.000118587
0.00010806
9.15317e-05
6.85268e-05
3.62816e-05
8.51496e-06
3.36719e-07
2.38832e-08
2.90081e-06
2.01319e-05
4.91151e-05
7.32755e-05
9.2082e-05
0.000105908
0.000112669
0.000115125
0.000116539
0.000117227
0.000116449
0.000114635
0.000113339
0.000112556
0.000112342
0.000112421
0.000113437
0.000114015
0.000111257
0.000106235
0.000105134
0.000165312
0.00047529
0.000697327
0.00043457
0.000423196
0.00055649
0.00074361
0.000975171
0.00112718
0.000876617
0.000338064
0.000135411
0.000103471
0.000111555
0.000113447
0.000112507
0.000112121
0.000112459
0.000113701
0.000114681
0.000115007
0.000115544
0.000116457
0.000117281
0.00011726
0.000116058
0.000111758
0.000101456
8.58448e-05
6.42937e-05
3.37929e-05
7.85057e-06
3.09026e-07
2.19054e-08
2.66326e-06
1.86065e-05
4.57958e-05
6.83916e-05
8.58972e-05
9.90254e-05
0.00010571
0.000108205
0.000109801
0.00011081
0.000110506
0.000108748
0.000107119
0.000106146
0.000106027
0.000106339
0.000107379
0.000108134
0.000106491
0.000101873
0.000102014
0.000172052
0.000541865
0.00101527
0.000693352
0.000576784
0.000722678
0.000971942
0.00129506
0.00154256
0.00124201
0.000462377
0.000149205
0.000100072
0.000107057
0.000108271
0.000107014
0.000106297
0.000106611
0.000107796
0.00010845
0.00010876
0.000109356
0.000110225
0.000110953
0.000110817
0.000109499
0.000105215
9.52751e-05
8.05852e-05
6.03619e-05
3.15074e-05
7.25756e-06
2.84675e-07
2.01557e-08
2.45291e-06
1.72517e-05
4.28305e-05
6.39762e-05
8.00093e-05
9.236e-05
9.90978e-05
0.000101806
0.000103419
0.000104598
0.000104668
0.000103135
0.000101254
0.000100171
0.000100025
0.000100493
0.000101586
0.000102406
0.000101706
9.77422e-05
9.85873e-05
0.000169422
0.000587419
0.00124101
0.00118333
0.000788945
0.000837516
0.0011379
0.00155574
0.00188638
0.00152077
0.000547691
0.000163328
9.87926e-05
0.000102898
0.000103187
0.000101672
0.000100829
0.000101312
0.000102237
0.000102581
0.000102867
0.000103402
0.000104255
0.000104894
0.000104638
0.000103042
9.89465e-05
8.94515e-05
7.56266e-05
5.66795e-05
2.9399e-05
6.71985e-06
2.62789e-07
1.86266e-08
2.26906e-06
1.60428e-05
4.01206e-05
5.98943e-05
7.44742e-05
8.60012e-05
9.3102e-05
9.63303e-05
9.75551e-05
9.86517e-05
9.89579e-05
9.78858e-05
9.57449e-05
9.46174e-05
9.44993e-05
9.50646e-05
9.62438e-05
9.68224e-05
9.66031e-05
9.37873e-05
9.4813e-05
0.000163016
0.000533104
0.00133788
0.00165785
0.00118116
0.000977616
0.00117528
0.00159858
0.00202082
0.0017338
0.000632321
0.000168985
9.92323e-05
9.89166e-05
9.79319e-05
9.62367e-05
9.55694e-05
9.63969e-05
9.69743e-05
9.69549e-05
9.72016e-05
9.76928e-05
9.84823e-05
9.91319e-05
9.86794e-05
9.68848e-05
9.30143e-05
8.39315e-05
7.10104e-05
5.32995e-05
2.74755e-05
6.23419e-06
2.43133e-07
1.72608e-08
2.10417e-06
1.49495e-05
3.76724e-05
5.62175e-05
6.9623e-05
8.0392e-05
8.7804e-05
9.13463e-05
9.21988e-05
9.30493e-05
9.35528e-05
9.29873e-05
9.07453e-05
8.96827e-05
8.96667e-05
9.03512e-05
9.13719e-05
9.15225e-05
9.16545e-05
9.05352e-05
9.22394e-05
0.00015606
0.000481219
0.00130744
0.00184936
0.00166318
0.00117994
0.00117391
0.00154973
0.00205944
0.00172725
0.000662342
0.000171809
0.000100161
9.46413e-05
9.27144e-05
9.08348e-05
9.04236e-05
9.16603e-05
9.1891e-05
9.15805e-05
9.16074e-05
9.21258e-05
9.30317e-05
9.37031e-05
9.30773e-05
9.13271e-05
8.74427e-05
7.8757e-05
6.68412e-05
5.02766e-05
2.57728e-05
5.81628e-06
2.27018e-07
1.60645e-08
1.96016e-06
1.40006e-05
3.56138e-05
5.29925e-05
6.52296e-05
7.5255e-05
8.30221e-05
8.65207e-05
8.70888e-05
8.7482e-05
8.81011e-05
8.82742e-05
8.61793e-05
8.4834e-05
8.49993e-05
8.58156e-05
8.65747e-05
8.65873e-05
8.66977e-05
8.70671e-05
9.00512e-05
0.000152469
0.000452378
0.00123533
0.00196221
0.00184986
0.00144567
0.00121593
0.00147895
0.00199813
0.00177361
0.000656112
0.000167285
9.67451e-05
8.9841e-05
8.77229e-05
8.57639e-05
8.56145e-05
8.71235e-05
8.69917e-05
8.65455e-05
8.63999e-05
8.6833e-05
8.80504e-05
8.87377e-05
8.80444e-05
8.62807e-05
8.21876e-05
7.38348e-05
6.31235e-05
4.76643e-05
2.42948e-05
5.45787e-06
2.13849e-07
1.50117e-08
1.8333e-06
1.3143e-05
3.3554e-05
5.00118e-05
6.10488e-05
7.06072e-05
7.86806e-05
8.18683e-05
8.2423e-05
8.2617e-05
8.31539e-05
8.36142e-05
8.22413e-05
8.02467e-05
8.02764e-05
8.12394e-05
8.19658e-05
8.18698e-05
8.20625e-05
8.33931e-05
8.78444e-05
0.000151267
0.000437276
0.00116093
0.00194057
0.00206774
0.0016465
0.00130336
0.00142333
0.00189404
0.0017008
0.000594908
0.00015661
9.17328e-05
8.48769e-05
8.31221e-05
8.09418e-05
8.12073e-05
8.26343e-05
8.22721e-05
8.1936e-05
8.15114e-05
8.21171e-05
8.34355e-05
8.43037e-05
8.35832e-05
8.16081e-05
7.68599e-05
6.91025e-05
5.96831e-05
4.52241e-05
2.29068e-05
5.13051e-06
2.01959e-07
1.39694e-08
1.70576e-06
1.2259e-05
3.16046e-05
4.71742e-05
5.68303e-05
6.61447e-05
7.4341e-05
7.74944e-05
7.83475e-05
7.84545e-05
7.87038e-05
7.91614e-05
7.83757e-05
7.59262e-05
7.5609e-05
7.6942e-05
7.7467e-05
7.74757e-05
7.76797e-05
7.95479e-05
8.65874e-05
0.000152431
0.00044324
0.00116018
0.00200414
0.00209879
0.0017193
0.00138484
0.00141781
0.00177334
0.00154358
0.000528155
0.000144899
8.66965e-05
8.02853e-05
7.86895e-05
7.66487e-05
7.71986e-05
7.85048e-05
7.77303e-05
7.72421e-05
7.65741e-05
7.75348e-05
7.90534e-05
7.99017e-05
7.89361e-05
7.67699e-05
7.18015e-05
6.47297e-05
5.64286e-05
4.28929e-05
2.15321e-05
4.81825e-06
1.90553e-07
1.30869e-08
1.59292e-06
1.15302e-05
2.92127e-05
4.41745e-05
5.27795e-05
6.14453e-05
7.04565e-05
7.51619e-05
7.42382e-05
7.43064e-05
7.44621e-05
7.45644e-05
7.39175e-05
7.14108e-05
7.09941e-05
7.30136e-05
7.33117e-05
7.33195e-05
7.38319e-05
7.58359e-05
9.27511e-05
0.00018582
0.000534905
0.00131841
0.0020017
0.00207875
0.00175972
0.00144097
0.00138106
0.00172797
0.00140038
0.000456441
0.000130583
8.16897e-05
7.55469e-05
7.45968e-05
7.32756e-05
7.36982e-05
7.46517e-05
7.32449e-05
7.26405e-05
7.17615e-05
7.31095e-05
7.48134e-05
7.51334e-05
7.44124e-05
7.16358e-05
6.67859e-05
6.08341e-05
5.34343e-05
4.06553e-05
2.03497e-05
4.5406e-06
1.80442e-07
1.25485e-08
1.51024e-06
1.08091e-05
2.80965e-05
4.1719e-05
5.00579e-05
5.72668e-05
6.66265e-05
7.19713e-05
7.08829e-05
7.05929e-05
7.00187e-05
7.07029e-05
6.88598e-05
6.77501e-05
6.75708e-05
6.95695e-05
6.96792e-05
6.97106e-05
6.91383e-05
7.21018e-05
9.12565e-05
0.000185267
0.000557391
0.00134836
0.00198492
0.00196015
0.00169724
0.00141968
0.00141002
0.00164423
0.00125713
0.000399185
0.000120951
7.71559e-05
7.16675e-05
7.09228e-05
7.03837e-05
7.03962e-05
7.05812e-05
6.91652e-05
6.8282e-05
6.80109e-05
6.94226e-05
7.06354e-05
7.05426e-05
6.98936e-05
6.70586e-05
6.2617e-05
5.70389e-05
5.08047e-05
3.88504e-05
1.91945e-05
4.26522e-06
1.70328e-07
1.24751e-08
1.48237e-06
1.04851e-05
2.72468e-05
3.95552e-05
4.71917e-05
5.38973e-05
6.25924e-05
6.82768e-05
6.82263e-05
6.74441e-05
6.64659e-05
6.68405e-05
6.65525e-05
6.36646e-05
6.47308e-05
6.58419e-05
6.59373e-05
6.52996e-05
6.43852e-05
6.73989e-05
9.14849e-05
0.000187012
0.000571128
0.00135666
0.00184602
0.00180416
0.00160191
0.00141546
0.00146314
0.00164242
0.00109588
0.000342929
0.00011242
7.36219e-05
6.93833e-05
6.77421e-05
6.72861e-05
6.7463e-05
6.69254e-05
6.44291e-05
6.44817e-05
6.48345e-05
6.62928e-05
6.69887e-05
6.66646e-05
6.56368e-05
6.27791e-05