/*--------------------------------*- C++ -*----------------------------------*\
  =========                 |
  \\      /  F ield         | OpenFOAM: The Open Source CFD Toolbox
   \\    /   O peration     | Website:  https://openfoam.org
    \\  /    A nd           | Version:  7
     \\/     M anipulation  |
\*---------------------------------------------------------------------------*/
FoamFile
{
    version     2.0;
    format      ascii;
    class       volScalarField;
    location    "50";
    object      nut;
}
// * * * * * * * * * * * * * * * * * * * * * * * * * * * * * * * * * * * * * //

dimensions      [0 2 -1 0 0 0 0];

internalField   nonuniform List<scalar> 
17475
(
3.12041e-05
0.00018885
0.000188081
0.000188027
0.000188026
0.000188025
0.000188025
0.000188025
0.000188025
0.000188025
0.000188025
0.000188025
0.000188025
0.000188025
0.000188026
0.000188025
0.000188026
0.000188026
0.000188026
0.000188026
0.000188026
0.000188026
0.000188025
0.000188026
0.000188024
0.000188028
0.000188028
0.000188028
0.000188028
0.000188028
0.000188028
0.000188028
0.000188028
0.000188028
0.000188028
0.000188028
0.000188028
0.000188028
0.000188028
0.000188029
0.000188031
0.000188033
0.000188034
0.000188036
0.000188037
0.000188038
0.000188039
0.00018804
0.000188041
0.000188042
0.000188042
0.000188044
0.000188054
0.000188285
0.000150676
9.21886e-07
0.000115396
0.000172092
0.00017659
0.000176752
0.000176757
0.000176754
0.000176752
0.000176751
0.000176749
0.000176748
0.000176747
0.000176747
0.000176747
0.000176747
0.000176747
0.000176747
0.000176747
0.000176747
0.000176747
0.000176747
0.000176747
0.000176751
0.000176745
0.000176755
0.000176758
0.000176765
0.000176765
0.000176766
0.000176766
0.000176766
0.000176766
0.000176767
0.000176767
0.000176768
0.000176768
0.000176768
0.000176767
0.000176765
0.000176764
0.000176764
0.000176764
0.000176764
0.000176765
0.000176766
0.000176767
0.000176768
0.00017677
0.000176772
0.000176775
0.000176773
0.000176711
0.000175371
0.000153949
1.68105e-05
1.20192e-07
5.92313e-05
0.000151146
0.000168234
0.000169912
0.00017002
0.000170024
0.000170019
0.000170012
0.000170005
0.000170001
0.000169998
0.000169996
0.000169993
0.000169992
0.00016999
0.000169988
0.000169987
0.000169986
0.000169983
0.000169982
0.000169984
0.000169984
0.00016999
0.000169992
0.000169993
0.000169999
0.000170002
0.000170003
0.000170002
0.000170001
0.000170001
0.000170002
0.000170004
0.000170004
0.000170004
0.000170005
0.000170002
0.00017
0.000169999
0.000169998
0.000169994
0.000169991
0.000169992
0.000169995
0.000169997
0.000169999
0.000170003
0.000170009
0.000170014
0.000169976
0.000169342
0.000161167
0.000102846
3.04084e-06
3.86454e-08
3.04649e-05
0.000127847
0.000159105
0.000164779
0.000165356
0.000165415
0.000165414
0.000165399
0.000165385
0.000165378
0.000165371
0.000165365
0.000165357
0.000165354
0.00016535
0.000165344
0.00016534
0.000165337
0.00016533
0.000165328
0.000165328
0.000165334
0.000165336
0.000165338
0.000165339
0.000165342
0.000165347
0.000165347
0.000165343
0.00016534
0.000165341
0.000165345
0.00016535
0.00016535
0.000165351
0.000165354
0.00016535
0.000165348
0.000165349
0.000165351
0.000165343
0.00016534
0.000165347
0.000165356
0.000165363
0.000165368
0.000165375
0.000165382
0.000165372
0.000165146
0.000162504
0.000144062
6.41281e-05
1.0782e-06
1.75744e-08
1.70739e-05
0.000104945
0.000148998
0.000159921
0.000161721
0.000161946
0.000161967
0.000161948
0.000161931
0.000161925
0.000161917
0.000161906
0.000161889
0.000161885
0.00016188
0.000161871
0.00016186
0.000161854
0.000161848
0.00016184
0.000161842
0.000161842
0.000161839
0.000161852
0.000161856
0.00016185
0.000161849
0.000161845
0.000161835
0.000161835
0.00016184
0.000161854
0.000161862
0.000161864
0.00016187
0.000161872
0.000161864
0.000161866
0.000161871
0.000161875
0.000161871
0.000161875
0.000161887
0.000161904
0.00016192
0.000161927
0.000161936
0.000161931
0.00016185
0.000161054
0.000154839
0.000126121
4.19328e-05
5.49783e-07
9.63525e-09
1.05277e-05
8.50394e-05
0.000138721
0.000154748
0.000158565
0.000159154
0.000159241
0.00015922
0.000159195
0.0001592
0.000159197
0.000159186
0.000159162
0.000159155
0.000159143
0.000159138
0.00015911
0.000159103
0.0001591
0.000159093
0.000159084
0.000159069
0.000159063
0.000159093
0.000159098
0.000159075
0.000159047
0.000159027
0.000159027
0.000159046
0.000159064
0.000159088
0.000159096
0.000159101
0.000159129
0.000159127
0.000159112
0.000159121
0.000159132
0.000159135
0.000159139
0.000159146
0.000159158
0.000159182
0.000159218
0.000159225
0.000159227
0.000159191
0.000158926
0.000156997
0.000146693
0.000109089
2.91187e-05
3.32897e-07
5.9808e-09
7.0517e-06
6.8975e-05
0.000128492
0.000149323
0.000155597
0.000156863
0.00015709
0.000157047
0.000156989
0.000157016
0.000157029
0.000157007
0.000156989
0.000156988
0.000156955
0.000156967
0.000156936
0.0001569
0.000156864
0.000156854
0.000156854
0.000156807
0.000156814
0.000156837
0.000156827
0.000156779
0.00015671
0.000156686
0.000156729
0.000156775
0.000156815
0.000156845
0.000156854
0.000156851
0.000156925
0.000156948
0.000156911
0.000156915
0.000156926
0.000156933
0.000156925
0.000156906
0.000156917
0.000156946
0.000157052
0.000157069
0.000157019
0.000156917
0.000156304
0.000152712
0.000138588
9.40941e-05
2.13257e-05
2.23e-07
4.0604e-09
5.05069e-06
5.64587e-05
0.000118658
0.000144203
0.000152977
0.000155252
0.000155729
0.000155679
0.000155633
0.000155696
0.000155724
0.000155618
0.000155541
0.000155583
0.000155518
0.00015554
0.000155475
0.000155355
0.000155219
0.000155184
0.000155227
0.000155131
0.000155105
0.000155061
0.00015504
0.000154946
0.000154826
0.000154838
0.000154992
0.000155045
0.000155055
0.000155099
0.000155135
0.000155132
0.000155249
0.000155291
0.000155236
0.000155242
0.000155252
0.000155272
0.000155239
0.000155204
0.000155193
0.000155248
0.000155457
0.000155481
0.000155351
0.000155127
0.000153943
0.000148471
0.000130867
8.1463e-05
1.62342e-05
1.5753e-07
2.94266e-09
3.7994e-06
4.67976e-05
0.000109488
0.000139831
0.000151118
0.000154764
0.000155579
0.000155587
0.000155541
0.000155667
0.000155815
0.000155596
0.0001554
0.000155561
0.000155418
0.000155308
0.000155034
0.000154699
0.000154408
0.000154316
0.000154416
0.000154316
0.000154194
0.000154139
0.000154066
0.000153747
0.000153495
0.000153556
0.000153989
0.000154149
0.000154012
0.000154076
0.000154208
0.000154274
0.000154417
0.000154402
0.000154306
0.000154297
0.000154361
0.00015438
0.000154185
0.000154112
0.000154123
0.000154337
0.000154622
0.000154581
0.000154374
0.000153932
0.000151914
0.000144708
0.000123732
7.09103e-05
1.28164e-05
1.18876e-07
2.23847e-09
2.96915e-06
3.93308e-05
0.00010112
0.000136195
0.000149846
0.000155395
0.000156864
0.000156505
0.000156227
0.000156689
0.000157019
0.000156768
0.000156355
0.000156554
0.000156264
0.000155876
0.000155735
0.000155073
0.000154501
0.000154346
0.000154356
0.000154172
0.000154157
0.000154263
0.000153986
0.000153439
0.000153086
0.00015319
0.000153801
0.000154066
0.000153949
0.000153979
0.00015412
0.000154131
0.000154381
0.000154506
0.000154304
0.000153997
0.000154136
0.000154499
0.000154067
0.00015371
0.000153638
0.00015403
0.000154841
0.000154976
0.000154155
0.000153251
0.000150519
0.000141765
0.000117494
6.2521e-05
1.04563e-05
9.40278e-08
1.76599e-09
2.39049e-06
3.35377e-05
9.35722e-05
0.000132978
0.000148646
0.000155874
0.00015804
0.000157737
0.000157302
0.000157763
0.000158491
0.000158633
0.000158017
0.000158053
0.000158052
0.000157598
0.000157384
0.00015641
0.000155559
0.000155214
0.000155172
0.000155028
0.000154705
0.000154929
0.000155175
0.000154424
0.000153965
0.000154023
0.000154483
0.00015485
0.000154698
0.000154665
0.000154948
0.000154783
0.00015509
0.000154838
0.000154774
0.000154387
0.000154563
0.000154735
0.000154414
0.000154116
0.00015417
0.000155165
0.000156084
0.000156156
0.000155068
0.000153434
0.000149468
0.000139743
0.00011215
5.56754e-05
8.74173e-06
7.69713e-08
1.43498e-09
1.97257e-06
2.90008e-05
8.66336e-05
0.000129769
0.000147935
0.000156258
0.000158638
0.000158511
0.000158132
0.000159189
0.000160462
0.000162134
0.000159619
0.000159569
0.000160384
0.000158065
0.000158828
0.000157502
0.000156732
0.000156854
0.00015625
0.000156284
0.000157313
0.000157629
0.00015702
0.000155207
0.00015658
0.000156924
0.000155093
0.000154881
0.000155897
0.00015495
0.000156426
0.000156571
0.000156655
0.000156941
0.000156873
0.000155584
0.000155446
0.000155699
0.000155675
0.000154882
0.000154881
0.000156331
0.000156895
0.000158273
0.000155813
0.000154177
0.000148919
0.000137221
0.000107017
4.99794e-05
7.46096e-06
6.48271e-08
1.19541e-09
1.6649e-06
2.53872e-05
8.02403e-05
0.000125588
0.00014875
0.000156807
0.000160975
0.000160201
0.000156675
0.000158331
0.000164063
0.000163829
0.000162911
0.000162641
0.000161422
0.000160132
0.000159968
0.000159462
0.000158695
0.0001585
0.00015792
0.000156743
0.000157231
0.000159429
0.000158421
0.000157434
0.000157737
0.000158238
0.000157643
0.000157017
0.000158233
0.000159185
0.00015903
0.000158812
0.000158959
0.000159689
0.000159146
0.000158041
0.00015695
0.000156875
0.000157211
0.000157644
0.000157529
0.000158137
0.000160858
0.000161539
0.000159284
0.000156253
0.000151442
0.00013758
0.000101536
4.49962e-05
6.47388e-06
5.59217e-08
1.01507e-09
1.42778e-06
2.24534e-05
7.41651e-05
0.000122213
0.000143175
0.000151059
0.000155374
0.000154884
0.00015633
0.000157944
0.000159126
0.000158877
0.000158516
0.000157891
0.00015615
0.000154959
0.00015316
0.000151752
0.000150542
0.00014978
0.000149134
0.000149033
0.000149521
0.000150885
0.000151105
0.000150399
0.00014948
0.000149496
0.00014964
0.000150026
0.000150509
0.000151208
0.000151026
0.000151165
0.000151332
0.000151718
0.000151871
0.000152583
0.000152675
0.000152707
0.000153385
0.000154017
0.00015369
0.000154067
0.000156362
0.00015545
0.000154086
0.000151187
0.000145062
0.000131114
9.5858e-05
4.05848e-05
5.6576e-06
4.82872e-08
8.75664e-10
1.24093e-06
2.00495e-05
6.86411e-05
0.000112033
0.000133456
0.000142738
0.000146122
0.000146744
0.000147008
0.00014823
0.000148933
0.000148719
0.000148175
0.000147257
0.00014617
0.0001447
0.000142761
0.000141101
0.000139741
0.000138577
0.000137744
0.000137453
0.000137736
0.00013856
0.000139511
0.000139329
0.000139059
0.000139041
0.0001388
0.000138656
0.000138524
0.000138466
0.000139442
0.000140002
0.000140558
0.000140913
0.00014167
0.000143117
0.000143561
0.000143942
0.000144705
0.000145189
0.000145421
0.000145597
0.000146218
0.000146005
0.00014493
0.000142187
0.000135423
0.000121211
8.78199e-05
3.66378e-05
4.9997e-06
4.20799e-08
7.65406e-10
1.09333e-06
1.79662e-05
6.24226e-05
0.000103792
0.000124921
0.000133725
0.000137336
0.000138026
0.00013842
0.000139167
0.000139456
0.000139123
0.00013849
0.000137489
0.000136525
0.000135113
0.000132809
0.000130842
0.000129222
0.000127489
0.000126338
0.000125378
0.000124624
0.000125733
0.000128773
0.00011043
0.000104129
0.000106321
0.000118682
0.00012751
0.000125806
0.000126126
0.000126698
0.000128029
0.000129748
0.000130641
0.000131807
0.000133588
0.000134232
0.000134524
0.000135254
0.00013586
0.000136049
0.000136311
0.000136933
0.000136885
0.000135877
0.000132945
0.000126377
0.000112336
8.02572e-05
3.34973e-05
4.44491e-06
3.69868e-08
6.64836e-10
9.65309e-07
1.62161e-05
5.68002e-05
9.62054e-05
0.000116527
0.000125252
0.000128929
0.000129699
0.000129969
0.000130347
0.000130289
0.000129792
0.000129059
0.000128031
0.000127182
0.000125745
0.000123039
0.000121008
0.000118543
0.000115516
0.000114086
0.000111896
0.00011232
9.75717e-05
6.96339e-05
4.54801e-05
2.39328e-05
2.41171e-05
5.87302e-05
8.3382e-05
0.000118127
0.000112572
0.000113221
0.000115623
0.000117984
0.000119819
0.000122026
0.000124374
0.000125335
0.000125674
0.000126444
0.000126981
0.000127247
0.000127588
0.000128111
0.000128145
0.000127299
0.00012444
0.000117888
0.000104104
7.36342e-05
3.04144e-05
3.98408e-06
3.28196e-08
4.80648e-10
8.16805e-07
1.4283e-05
5.14799e-05
8.84657e-05
0.000108335
0.000117059
0.00012082
0.000121624
0.000121669
0.000121676
0.000121362
0.000120724
0.000119913
0.000118975
0.000118123
0.000116181
0.000113347
0.000110699
0.000107694
0.000104599
0.000102396
0.000102596
9.35175e-05
3.23442e-05
1.66829e-06
1.4431e-09
1.3814e-08
1.24522e-05
4.1328e-05
0.000102407
0.000101773
0.000103717
0.00010658
0.000109687
0.000112322
0.000114822
0.000116484
0.000116929
0.000117791
0.00011838
0.000118762
0.000119114
0.00011959
0.000119728
0.00011904
0.000116338
0.000109912
9.63177e-05
6.7646e-05
2.76447e-05
3.57686e-06
2.92329e-08
1.16268e-10
4.84624e-07
1.16814e-05
4.53899e-05
7.98633e-05
9.90402e-05
0.000107757
0.000111475
0.00011221
0.000111904
0.000111492
0.000111006
0.000110251
0.000109388
0.00010843
0.000107429
0.000105136
0.000102194
9.91387e-05
9.5885e-05
9.30854e-05
9.25818e-05
8.11359e-05
2.37152e-05
1.34882e-06
2.03028e-10
5.45876e-06
5.8835e-05
8.77703e-05
9.17411e-05
9.4963e-05
9.84755e-05
0.000101764
0.00010454
0.000106199
0.00010687
0.000107877
0.000108611
0.000109085
0.000109384
0.000109815
0.000110106
0.000109643
0.000107201
0.000101069
8.79458e-05
6.18809e-05
2.54124e-05
3.19232e-06
2.4319e-08
1.57294e-10
5.75582e-07
1.08829e-05
4.03753e-05
6.94988e-05
8.54686e-05
9.34404e-05
9.6427e-05
9.66695e-05
9.62316e-05
9.54162e-05
9.4783e-05
9.44092e-05
9.31066e-05
9.19062e-05
9.02171e-05
8.86237e-05
8.67601e-05
8.36806e-05
8.01784e-05
7.82257e-05
7.40681e-05
4.87565e-05
6.66936e-06
1.14006e-07
1.04817e-06
2.39633e-05
6.77528e-05
7.70495e-05
7.91064e-05
8.18875e-05
8.55913e-05
8.76179e-05
8.8781e-05
8.98164e-05
9.10731e-05
9.21159e-05
9.2861e-05
9.36035e-05
9.43286e-05
9.50866e-05
9.49313e-05
9.31745e-05
8.79073e-05
7.62755e-05
5.38423e-05
2.27013e-05
3.08703e-06
2.71159e-08
3.40214e-10
5.8332e-07
1.06165e-05
3.75621e-05
6.31764e-05
7.79296e-05
8.51728e-05
8.81704e-05
8.83319e-05
8.76289e-05
8.73155e-05
8.6666e-05
8.58397e-05
8.48174e-05
8.33826e-05
8.15488e-05
8.05086e-05
7.88757e-05
7.55143e-05
7.26876e-05
7.05521e-05
6.18524e-05
3.00543e-05
3.68265e-06
1.38682e-07
3.64567e-10
4.30394e-09
8.0311e-07
1.31906e-05
4.88164e-05
6.82372e-05
7.15658e-05
7.38424e-05
7.71448e-05
7.86035e-05
8.03424e-05
8.09995e-05
8.2022e-05
8.3527e-05
8.47571e-05
8.56746e-05
8.65411e-05
8.70369e-05
8.68411e-05
8.52098e-05
8.02423e-05
6.94235e-05
4.886e-05
2.06142e-05
2.77028e-06
2.2592e-08
3.75389e-10
5.51456e-07
9.7927e-06
3.43764e-05
5.75097e-05
7.11779e-05
7.81032e-05
8.09045e-05
8.11437e-05
8.07181e-05
8.03945e-05
7.957e-05
7.86642e-05
7.77286e-05
7.64557e-05
7.49191e-05
7.36375e-05
7.23182e-05
6.94163e-05
6.6508e-05
6.40462e-05
5.31113e-05
2.21275e-05
3.09292e-06
3.42337e-07
3.9655e-08
1.8845e-08
2.53266e-08
2.88648e-08
6.5338e-08
1.90807e-07
1.03446e-06
9.23809e-06
3.81436e-05
6.03488e-05
6.55612e-05
6.80224e-05
7.09789e-05
7.2485e-05
7.34372e-05
7.39702e-05
7.52523e-05
7.67949e-05
7.80089e-05
7.90627e-05
8.00676e-05
8.05349e-05
8.01364e-05
7.84964e-05
7.37209e-05
6.34132e-05
4.43351e-05
1.88038e-05
2.47956e-06
1.99554e-08
3.47359e-10
5.0559e-07
8.89995e-06
3.131e-05
5.24368e-05
6.53283e-05
7.2125e-05
7.48075e-05
7.51545e-05
7.46938e-05
7.42139e-05
7.37598e-05
7.28518e-05
7.1735e-05
7.04051e-05
6.88355e-05
6.7802e-05
6.66521e-05
6.42885e-05
6.15989e-05
5.8453e-05
4.56334e-05
1.82645e-05
3.34457e-06
7.00788e-07
3.98526e-07
8.19783e-07
1.33547e-06
1.43652e-06
1.15451e-06
8.19824e-07
1.4367e-06
7.88743e-06
3.1043e-05
5.38181e-05
6.04365e-05
6.28747e-05
6.53661e-05
6.69658e-05
6.79137e-05
6.8529e-05
6.9517e-05
7.08796e-05
7.23125e-05
7.34806e-05
7.44781e-05
7.48339e-05
7.42919e-05
7.26547e-05
6.80206e-05
5.81623e-05
4.05618e-05
1.71742e-05
2.23049e-06
1.78587e-08
3.14626e-10
4.58658e-07
8.09541e-06
2.85169e-05
4.79074e-05
5.99937e-05
6.64826e-05
6.91199e-05
6.9559e-05
6.91241e-05
6.87027e-05
6.83604e-05
6.74953e-05
6.63315e-05
6.50414e-05
6.36002e-05
6.26363e-05
6.16074e-05
5.96656e-05
5.73713e-05
5.37041e-05
3.99124e-05
1.68848e-05
4.17334e-06
1.3478e-06
9.74903e-07
1.47225e-06
2.18339e-06
2.36812e-06
1.95402e-06
1.57518e-06
2.03116e-06
7.86317e-06
2.70971e-05
4.86251e-05
5.61156e-05
5.85405e-05
6.05481e-05
6.20451e-05
6.29035e-05
6.34938e-05
6.43839e-05
6.57178e-05
6.71449e-05
6.84075e-05
6.9391e-05
6.95885e-05
6.88759e-05
6.71978e-05
6.28348e-05
5.352e-05
3.71958e-05
1.57092e-05
2.01855e-06
1.60925e-08
2.84333e-10
4.15116e-07
7.36495e-06
2.59995e-05
4.37657e-05
5.50038e-05
6.0995e-05
6.35059e-05
6.42386e-05
6.39358e-05
6.35573e-05
6.32571e-05
6.24026e-05
6.1276e-05
6.00981e-05
5.87902e-05
5.79467e-05
5.70711e-05
5.54151e-05
5.34092e-05
4.97342e-05
3.79085e-05
1.67213e-05
5.30576e-06
2.27212e-06
1.77709e-06
2.04923e-06
2.82337e-06
2.87165e-06
2.18133e-06
1.87496e-06
2.52562e-06
8.74626e-06
2.55475e-05
4.46982e-05
5.21254e-05
5.44371e-05
5.61941e-05
5.74737e-05
5.83264e-05
5.88487e-05
5.95936e-05
6.09947e-05
6.23695e-05
6.36678e-05
6.45538e-05
6.46013e-05
6.38181e-05
6.21722e-05
5.80464e-05
4.92601e-05
3.41499e-05
1.4364e-05
1.82622e-06
1.44983e-08
2.56731e-10
3.75376e-07
6.69088e-06
2.36306e-05
3.9874e-05
5.02283e-05
5.55249e-05
5.82749e-05
5.90452e-05
5.87232e-05
5.8073e-05
5.79227e-05
5.72403e-05
5.63024e-05
5.51217e-05
5.34168e-05
5.30864e-05
5.27285e-05
5.1264e-05
4.94959e-05
4.59021e-05
3.47837e-05
1.72039e-05
6.75205e-06
3.42557e-06
2.94148e-06
3.0764e-06
3.81152e-06
3.56481e-06
2.48879e-06
1.99185e-06
3.28074e-06
1.03322e-05
2.51616e-05
4.15181e-05
4.82704e-05
5.05448e-05
5.20768e-05
5.29484e-05
5.39023e-05
5.4399e-05
5.49402e-05
5.6252e-05
5.7244e-05
5.88311e-05
5.97677e-05
5.97637e-05
5.88692e-05
5.72293e-05
5.34097e-05
4.51718e-05
3.13022e-05
1.31317e-05
1.65205e-06
1.29193e-08
2.31674e-10
3.39314e-07
6.07077e-06
2.14273e-05
3.61641e-05
4.56994e-05
5.04841e-05
5.32436e-05
5.39415e-05
5.36616e-05
5.26645e-05
5.26442e-05
5.17896e-05
5.11439e-05
5.05168e-05
4.85162e-05
4.8559e-05
4.8495e-05
4.73055e-05
4.55252e-05
4.21414e-05
3.16719e-05
1.81122e-05
8.74202e-06
5.12056e-06
4.23958e-06
4.37728e-06
5.20429e-06
4.45926e-06
2.79914e-06
2.25925e-06
4.72424e-06
1.26382e-05
2.59763e-05
3.85747e-05
4.45775e-05
4.63713e-05
4.7632e-05
4.84938e-05
4.95344e-05
4.98817e-05
5.05121e-05
5.15854e-05
5.22421e-05
5.41624e-05
5.48153e-05
5.47844e-05
5.37353e-05
5.21299e-05
4.88391e-05
4.1217e-05
2.85803e-05
1.19598e-05
1.48515e-06
1.14074e-08
2.08908e-10
3.06682e-07
5.49693e-06
1.94354e-05
3.25974e-05
3.92804e-05
4.49743e-05
4.85564e-05
4.92783e-05
4.88159e-05
4.70678e-05
4.81268e-05
4.79174e-05
4.73755e-05
4.65388e-05
4.56126e-05
4.37613e-05
4.48386e-05
4.40336e-05
4.22828e-05
3.78751e-05
2.97334e-05
1.94618e-05
1.18442e-05
8.04473e-06
6.36745e-06
6.22898e-06
7.22033e-06
5.59361e-06
3.19924e-06
3.06361e-06
7.11168e-06
1.51474e-05
2.56456e-05
3.52376e-05
3.99509e-05
4.2871e-05
4.3862e-05
4.28412e-05
4.3111e-05
4.5987e-05
4.71429e-05
4.80812e-05
4.87005e-05
4.98712e-05
4.87991e-05
4.99709e-05
4.90084e-05
4.76082e-05
4.40583e-05
3.73887e-05
2.60211e-05
1.08037e-05
1.33499e-06
1.0093e-08
1.88316e-10
2.77121e-07
5.00688e-06
1.74235e-05
2.92063e-05
3.73041e-05
4.2055e-05
4.45134e-05
4.65506e-05
4.46582e-05
4.47283e-05
4.38188e-05
4.34711e-05
4.47819e-05
4.28369e-05
4.35468e-05
4.29907e-05
4.22535e-05
4.15104e-05
3.94352e-05
3.66229e-05
2.89957e-05
2.15568e-05
1.71979e-05
1.38319e-05
1.06173e-05
9.23614e-06
1.00013e-05
6.98464e-06
4.09372e-06
5.15639e-06
1.04564e-05
1.72462e-05
2.54859e-05
3.2796e-05
3.80775e-05
3.96569e-05
4.13186e-05
4.14561e-05
4.14471e-05
4.22852e-05
4.42362e-05
4.54305e-05
4.50627e-05
4.5868e-05
4.72679e-05
4.52167e-05
4.48086e-05
4.4067e-05
4.04747e-05
3.38773e-05
2.34082e-05
9.90607e-06
1.20088e-06
8.94821e-09
1.69773e-10
2.50572e-07
4.57676e-06
1.6217e-05
2.71861e-05
3.46095e-05
3.97386e-05
4.29849e-05
4.29845e-05
4.35816e-05
4.24338e-05
4.22608e-05
4.1831e-05
4.13669e-05
4.14497e-05
4.1295e-05
4.10783e-05
4.06488e-05
3.98719e-05
3.92228e-05
3.60646e-05
2.95051e-05
2.52467e-05
2.63715e-05
2.47479e-05
1.75892e-05
1.33092e-05
1.31267e-05
8.72529e-06
6.16914e-06
9.59404e-06
1.53738e-05
1.99749e-05
2.518e-05
3.23744e-05
3.62464e-05
3.90308e-05
3.92998e-05
4.03165e-05
4.073e-05
4.14417e-05
4.20482e-05
4.31938e-05
4.46189e-05
4.50053e-05
4.4886e-05
4.34806e-05
4.32246e-05
4.30258e-05
3.83605e-05
3.26218e-05
2.20302e-05
9.04983e-06
1.0837e-06
7.95819e-09
1.53145e-10
2.26751e-07
4.19821e-06
1.54426e-05
2.63364e-05
3.40333e-05
3.89436e-05
4.12478e-05
4.24892e-05
4.2659e-05
4.26152e-05
4.18491e-05
4.15261e-05
4.09256e-05
4.03243e-05
3.90405e-05
3.88961e-05
3.84131e-05
3.81062e-05
3.74381e-05
3.50319e-05
3.08388e-05
3.08567e-05
4.15508e-05
4.21017e-05
2.59901e-05
1.6839e-05
1.73102e-05
1.20147e-05
1.17293e-05
1.86111e-05
2.32525e-05
2.40807e-05
2.57282e-05
3.10564e-05
3.56192e-05
3.73741e-05
3.72582e-05
3.86899e-05
3.93213e-05
3.98683e-05
4.05453e-05
4.13677e-05
4.21479e-05
4.29701e-05
4.28828e-05
4.33678e-05
4.26938e-05
4.0921e-05
3.75563e-05
3.09161e-05
2.11211e-05
8.3731e-06
9.81252e-07
7.10319e-09
1.38208e-10
2.05375e-07
3.84198e-06
1.44739e-05
2.53935e-05
3.27557e-05
3.75858e-05
3.96047e-05
4.04795e-05
4.1152e-05
4.10079e-05
4.0282e-05
3.98547e-05
3.94434e-05
3.87796e-05
3.75412e-05
3.70554e-05
3.70729e-05
3.68661e-05
3.60523e-05
3.407e-05
3.06754e-05
3.5141e-05
6.22754e-05
6.17593e-05
3.17352e-05
2.13159e-05
2.38269e-05
2.01324e-05
2.55907e-05
3.58406e-05
3.66531e-05
3.04132e-05
2.74659e-05
3.17764e-05
3.43407e-05
3.59775e-05
3.68036e-05
3.696e-05
3.74777e-05
3.81068e-05
3.88267e-05
3.94515e-05
4.00611e-05
4.06527e-05
4.09911e-05
4.11875e-05
4.06537e-05
3.89008e-05
3.53682e-05
2.91885e-05
1.99183e-05
7.79254e-06
8.92161e-07
6.37306e-09
1.25016e-10
1.86493e-07
3.52676e-06
1.34106e-05
2.37529e-05
3.09754e-05
3.56211e-05
3.78862e-05
3.87782e-05
3.92333e-05
3.91305e-05
3.83743e-05
3.77916e-05
3.74434e-05
3.69761e-05
3.61921e-05
3.56205e-05
3.58766e-05
3.56966e-05
3.49598e-05
3.28703e-05
3.05105e-05
3.88797e-05
7.89366e-05
7.6491e-05
3.66603e-05
3.01735e-05
3.80927e-05
4.08826e-05
5.37143e-05
6.74084e-05
6.16839e-05
3.87829e-05
3.00372e-05
3.10508e-05
3.43852e-05
3.49329e-05
3.53772e-05
3.56172e-05
3.60294e-05
3.65803e-05
3.72241e-05
3.77256e-05
3.81992e-05
3.86906e-05
3.90818e-05
3.90503e-05
3.85197e-05
3.7028e-05
3.34748e-05
2.762e-05
1.87185e-05
7.23394e-06
8.1484e-07
5.74908e-09
1.13406e-10
1.69881e-07
3.24729e-06
1.24849e-05
2.21687e-05
2.91085e-05
3.37495e-05
3.61171e-05
3.70052e-05
3.74362e-05
3.74049e-05
3.6753e-05
3.60886e-05
3.57406e-05
3.54027e-05
3.49244e-05
3.46036e-05
3.47459e-05
3.45982e-05
3.36127e-05
3.16192e-05
3.00729e-05
4.126e-05
9.61895e-05
9.5672e-05
5.02116e-05
4.80894e-05
6.80029e-05
8.03143e-05
0.00010151
0.000120092
0.000100086
5.185e-05
3.13203e-05
3.01225e-05
3.34622e-05
3.42771e-05
3.43255e-05
3.45052e-05
3.48344e-05
3.52513e-05
3.57324e-05
3.60693e-05
3.64357e-05
3.68614e-05
3.72237e-05
3.71784e-05
3.66678e-05
3.51658e-05
3.16574e-05
2.6143e-05
1.76356e-05
6.73044e-06
7.47538e-07
5.2144e-09
1.03248e-10
1.55276e-07
2.99868e-06
1.16441e-05
2.07584e-05
2.73729e-05
3.19486e-05
3.43048e-05
3.51904e-05
3.56317e-05
3.5679e-05
3.51469e-05
3.44604e-05
3.40795e-05
3.38082e-05
3.35602e-05
3.34059e-05
3.35231e-05
3.33802e-05
3.21152e-05
3.03405e-05
2.94744e-05
4.34286e-05
0.000113731
0.000128483
7.5701e-05
7.80759e-05
0.000117497
0.000141281
0.000172339
0.000201236
0.000158949
6.87641e-05
3.42717e-05
2.97271e-05
3.25378e-05
3.32424e-05
3.31571e-05
3.32386e-05
3.34651e-05
3.386e-05
3.42475e-05
3.44457e-05
3.47121e-05
3.50981e-05
3.54342e-05
3.53866e-05
3.489e-05
3.33777e-05
2.99511e-05
2.47045e-05
1.66386e-05
6.2838e-06
6.88607e-07
4.75445e-09
9.43737e-11
1.42449e-07
2.77744e-06
1.08871e-05
1.94595e-05
2.57125e-05
3.01422e-05
3.24523e-05
3.33389e-05
3.38163e-05
3.39338e-05
3.35352e-05
3.28824e-05
3.24549e-05
3.21937e-05
3.20823e-05
3.20112e-05
3.21852e-05
3.21816e-05
3.11543e-05
2.95739e-05
2.90795e-05
4.54791e-05
0.00013162
0.000190482
0.000114009
0.000118576
0.00017976
0.000219231
0.000259615
0.000301646
0.000240219
9.4119e-05
3.80334e-05
2.9192e-05
3.1534e-05
3.21145e-05
3.19176e-05
3.18674e-05
3.20423e-05
3.24529e-05
3.27427e-05
3.28479e-05
3.30338e-05
3.33676e-05
3.36679e-05
3.36442e-05
3.31642e-05
3.1654e-05
2.83163e-05
2.33432e-05
1.57061e-05
5.88067e-06
6.36697e-07
4.35559e-09
8.65923e-11
1.31154e-07
2.5804e-06
1.0206e-05
1.82693e-05
2.413e-05
2.83307e-05
3.05786e-05
3.1464e-05
3.19914e-05
3.22051e-05
3.19618e-05
3.1367e-05
3.08812e-05
3.06034e-05
3.05624e-05
3.05932e-05
3.07962e-05
3.0884e-05
3.02652e-05
2.88369e-05
2.87542e-05
4.84103e-05
0.000152808
0.000282167
0.000190142
0.000168149
0.000237137
0.000293811
0.000361191
0.000430645
0.000347851
0.00013077
4.24398e-05
2.85403e-05
3.05687e-05
3.09736e-05
3.06587e-05
3.04933e-05
3.06468e-05
3.10288e-05
3.12145e-05
3.12728e-05
3.14129e-05
3.16797e-05
3.19496e-05
3.19371e-05
3.14663e-05
2.9968e-05
2.6744e-05
2.2046e-05
1.48238e-05
5.51021e-06
5.90432e-07
4.00655e-09
7.97059e-11
1.21124e-07
2.4057e-06
9.60021e-06
1.71909e-05
2.26092e-05
2.65597e-05
2.87886e-05
2.97164e-05
3.02441e-05
3.05285e-05
3.04301e-05
2.99254e-05
2.93772e-05
2.90893e-05
2.9068e-05
2.91663e-05
2.94048e-05
2.95362e-05
2.92289e-05
2.80263e-05
2.82571e-05
4.86645e-05
0.000168737
0.000352014
0.000331904
0.000235337
0.000278021
0.000352609
0.00044533
0.000537091
0.000435697
0.000157149
4.69416e-05
2.84257e-05
2.96459e-05
2.97874e-05
2.93761e-05
2.91617e-05
2.93476e-05
2.96371e-05
2.97097e-05
2.97309e-05
2.9823e-05
3.00619e-05
3.03078e-05
3.02925e-05
2.97709e-05
2.83286e-05
2.52339e-05
2.07938e-05
1.39881e-05
5.16721e-06
5.4832e-07
3.69324e-09
7.36823e-11
1.12341e-07
2.24982e-06
9.04584e-06
1.61881e-05
2.11691e-05
2.48666e-05
2.71846e-05
2.82469e-05
2.86504e-05
2.89362e-05
2.89472e-05
2.8589e-05
2.795e-05
2.76478e-05
2.76475e-05
2.77854e-05
2.80627e-05
2.81522e-05
2.80157e-05
2.71676e-05
2.75237e-05
4.74961e-05
0.000155301
0.000386429
0.000476218
0.000360137
0.000326841
0.000371108
0.000469247
0.00058825
0.000505721
0.000183745
4.90308e-05
2.87935e-05
2.8712e-05
2.84648e-05
2.80001e-05
2.78341e-05
2.81151e-05
2.82918e-05
2.8232e-05
2.82172e-05
2.82905e-05
2.85055e-05
2.87554e-05
2.86965e-05
2.81296e-05
2.67582e-05
2.37835e-05
1.96109e-05
1.32156e-05
4.85472e-06
5.10214e-07
3.41321e-09
6.82968e-11
1.04422e-07
2.11097e-06
8.54021e-06
1.52723e-05
1.98942e-05
2.33702e-05
2.57855e-05
2.69317e-05
2.72076e-05
2.74344e-05
2.75389e-05
2.73407e-05
2.6647e-05
2.63468e-05
2.63765e-05
2.65531e-05
2.67928e-05
2.67875e-05
2.67867e-05
2.64606e-05
2.705e-05
4.5944e-05
0.000141792
0.00038315
0.000541172
0.000514896
0.000395863
0.000375319
0.000463279
0.00060919
0.000510132
0.000194478
5.02887e-05
2.92867e-05
2.76526e-05
2.71043e-05
2.65748e-05
2.6484e-05
2.68876e-05
2.69632e-05
2.68026e-05
2.6708e-05
2.67929e-05
2.70439e-05
2.72969e-05
2.71801e-05
2.66277e-05
2.52646e-05
2.24122e-05
1.8536e-05
1.25258e-05
4.58076e-06
4.78154e-07
3.1941e-09
6.35755e-11
9.74892e-08
1.98427e-06
8.10924e-06
1.44505e-05
1.87107e-05
2.19754e-05
2.45165e-05
2.56539e-05
2.58233e-05
2.59106e-05
2.60747e-05
2.61151e-05
2.54563e-05
2.50558e-05
2.51311e-05
2.53483e-05
2.55271e-05
2.55086e-05
2.55263e-05
2.56485e-05
2.66068e-05
4.52211e-05
0.000134533
0.000366393
0.000583318
0.000579538
0.000485248
0.000391593
0.000448324
0.000598204
0.000528906
0.000194332
4.93442e-05
2.84647e-05
2.64029e-05
2.57892e-05
2.52171e-05
2.51905e-05
2.56743e-05
2.56494e-05
2.54506e-05
2.5303e-05
2.5372e-05
2.57198e-05
2.59618e-05
2.58094e-05
2.52456e-05
2.38379e-05
2.10985e-05
1.7579e-05
1.1933e-05
4.34445e-06
4.50972e-07
3.0222e-09
5.94123e-11
9.13731e-08
1.87172e-06
7.66717e-06
1.36683e-05
1.7549e-05
2.06839e-05
2.33423e-05
2.44007e-05
2.4544e-05
2.45535e-05
2.4706e-05
2.48655e-05
2.44454e-05
2.38479e-05
2.38692e-05
2.41263e-05
2.43098e-05
2.4278e-05
2.43296e-05
2.47282e-05
2.60837e-05
4.50684e-05
0.000130999
0.000347998
0.000584595
0.000653437
0.000551796
0.000421596
0.00043599
0.000572201
0.000510966
0.000177442
4.64841e-05
2.71165e-05
2.50617e-05
2.45623e-05
2.3909e-05
2.39844e-05
2.44387e-05
2.4354e-05
2.42006e-05
2.39822e-05
2.41154e-05
2.44987e-05
2.47746e-05
2.4591e-05
2.39539e-05
2.23678e-05
1.98242e-05
1.66941e-05
1.13793e-05
4.12245e-06
4.26079e-07
2.86686e-09
5.52973e-11
8.51698e-08
1.75318e-06
7.24307e-06
1.29093e-05
1.63538e-05
1.94227e-05
2.21448e-05
2.32066e-05
2.342e-05
2.33784e-05
2.34474e-05
2.36475e-05
2.34532e-05
2.27283e-05
2.26232e-05
2.2976e-05
2.31021e-05
2.31068e-05
2.31606e-05
2.37057e-05
2.57904e-05
4.55373e-05
0.000133533
0.000350915
0.000610421
0.000667106
0.000574383
0.000448783
0.000437714
0.000539082
0.000465994
0.000158305
4.32159e-05
2.5721e-05
2.37935e-05
2.33541e-05
2.27315e-05
2.28715e-05
2.32843e-05
2.30849e-05
2.29032e-05
2.26311e-05
2.28869e-05
2.33363e-05
2.35879e-05
2.33003e-05
2.26021e-05
2.09588e-05
1.86397e-05
1.58541e-05
1.08466e-05
3.89741e-06
4.01949e-07
2.7163e-09
5.18204e-11
7.96611e-08
1.65515e-06
6.71327e-06
1.21028e-05
1.52051e-05
1.80876e-05
2.10748e-05
2.26175e-05
2.2286e-05
2.22122e-05
2.22498e-05
2.23772e-05
2.22735e-05
2.15414e-05
2.13762e-05
2.19078e-05
2.19544e-05
2.19552e-05
2.2098e-05
2.26746e-05
2.76898e-05
5.56427e-05
0.000161861
0.000401626
0.000615089
0.00066333
0.000585526
0.00046719
0.00042879
0.000527798
0.000424341
0.000137341
3.90613e-05
2.42926e-05
2.24573e-05
2.22185e-05
2.18064e-05
2.18953e-05
2.21999e-05
2.18171e-05
2.16113e-05
2.12942e-05
2.16838e-05
2.21979e-05
2.22772e-05
2.20386e-05
2.11512e-05
1.95473e-05
1.75764e-05
1.50737e-05
1.03281e-05
3.70314e-06
3.80336e-07
2.58331e-09
4.97025e-11
7.56293e-08
1.5569e-06
6.47445e-06
1.14472e-05
1.44465e-05
1.69092e-05
2.00192e-05
2.17733e-05
2.13946e-05
2.12042e-05
2.10157e-05
2.13286e-05
2.08885e-05
2.05807e-05
2.04555e-05
2.09451e-05
2.09165e-05
2.09209e-05
2.07386e-05
2.16023e-05
2.73058e-05
5.56327e-05
0.000169257
0.000412979
0.000614044
0.000627014
0.00056228
0.000459932
0.000439407
0.000503748
0.000381901
0.000120448
3.62706e-05
2.30025e-05
2.13459e-05
2.1179e-05
2.10089e-05
2.09753e-05
2.10497e-05
2.06613e-05
2.03741e-05
2.02503e-05
2.06756e-05
2.10538e-05
2.10026e-05
2.07676e-05
1.98513e-05
1.83747e-05
1.65252e-05
1.43789e-05
9.90805e-06
3.50936e-06
3.58608e-07
2.44907e-09
4.94239e-11
7.43219e-08
1.51531e-06
6.29625e-06
1.0872e-05
1.36492e-05
1.59659e-05
1.88909e-05