/*--------------------------------*- C++ -*----------------------------------*\
  =========                 |
  \\      /  F ield         | OpenFOAM: The Open Source CFD Toolbox
   \\    /   O peration     | Website:  https://openfoam.org
    \\  /    A nd           | Version:  7
     \\/     M anipulation  |
\*---------------------------------------------------------------------------*/
FoamFile
{
    version     2.0;
    format      ascii;
    class       volScalarField;
    location    "50";
    object      p;
}
// * * * * * * * * * * * * * * * * * * * * * * * * * * * * * * * * * * * * * //

dimensions      [0 2 -2 0 0 0 0];

internalField   nonuniform List<scalar> 
17475
(
0.731088
0.416561
0.327262
0.288851
0.266469
0.251759
0.241446
0.233985
0.228529
0.224561
0.221744
0.219842
0.218679
0.218121
0.21806
0.218403
0.21907
0.219986
0.221084
0.222301
0.223576
0.224855
0.226085
0.227216
0.228209
0.229031
0.229653
0.230055
0.230231
0.23018
0.229915
0.229457
0.228834
0.228083
0.22725
0.226383
0.225537
0.224772
0.22415
0.223739
0.223615
0.22386
0.224566
0.225844
0.227828
0.230688
0.234654
0.240044
0.247323
0.257201
0.270813
0.290031
0.317689
0.360428
0.382309
0.292858
0.307647
0.293434
0.274915
0.259345
0.247512
0.238636
0.231988
0.227034
0.2234
0.220817
0.219087
0.218058
0.21761
0.217641
0.218066
0.218806
0.219792
0.220955
0.222234
0.223568
0.224901
0.226181
0.227358
0.228392
0.229243
0.229884
0.230297
0.230472
0.230411
0.230126
0.229639
0.228979
0.228185
0.227302
0.226381
0.225476
0.224647
0.223957
0.223474
0.223269
0.223423
0.224022
0.225169
0.226986
0.229626
0.233286
0.238233
0.24484
0.25365
0.265484
0.281672
0.304091
0.339855
0.349453
0.260127
0.257292
0.255371
0.249293
0.242667
0.236259
0.230682
0.226111
0.222527
0.219838
0.217939
0.216725
0.216104
0.215991
0.21631
0.21699
0.217965
0.219169
0.220541
0.222019
0.223542
0.225052
0.226494
0.227818
0.228972
0.229917
0.230623
0.231069
0.231245
0.231153
0.230805
0.230227
0.22945
0.228518
0.227479
0.226385
0.225294
0.224266
0.223362
0.222649
0.222192
0.222061
0.222328
0.223074
0.224387
0.226366
0.229125
0.232792
0.237503
0.243378
0.250433
0.258351
0.266014
0.270518
0.262205
0.213162
0.221674
0.226747
0.227232
0.225499
0.22296
0.220321
0.217926
0.215952
0.21447
0.213496
0.213015
0.212992
0.213387
0.214153
0.215239
0.216593
0.218158
0.219877
0.221689
0.223533
0.225347
0.227072
0.228643
0.230006
0.231116
0.231934
0.232437
0.232614
0.232465
0.232008
0.231269
0.23029
0.229119
0.227809
0.226421
0.225016
0.223654
0.222398
0.221312
0.220453
0.219876
0.219637
0.219785
0.220369
0.221427
0.222985
0.225038
0.227525
0.230276
0.232921
0.234663
0.234201
0.228245
0.21309
0.192021
0.198392
0.204733
0.208211
0.209522
0.209695
0.209298
0.208724
0.208217
0.207923
0.207923
0.208255
0.20893
0.209942
0.211269
0.21288
0.214737
0.216792
0.218991
0.221276
0.22358
0.225838
0.227971
0.229907
0.23158
0.232934
0.233921
0.234508
0.234682
0.234446
0.23382
0.23284
0.231558
0.230031
0.228327
0.226514
0.224661
0.222829
0.221095
0.21951
0.218125
0.216984
0.216123
0.215568
0.215329
0.215401
0.215749
0.216293
0.216889
0.217282
0.217055
0.215511
0.211598
0.203847
0.193727
0.177993
0.182686
0.188683
0.192968
0.195645
0.197334
0.198416
0.199193
0.199881
0.200628
0.201537
0.202673
0.204075
0.205758
0.207721
0.209951
0.212419
0.215086
0.217902
0.220805
0.22373
0.226582
0.229275
0.231719
0.233828
0.235527
0.23675
0.237455
0.237621
0.237254
0.236384
0.235057
0.233344
0.231321
0.229074
0.226687
0.224237
0.221803
0.219462
0.217265
0.215255
0.213467
0.211922
0.210624
0.209562
0.208702
0.207979
0.207289
0.206472
0.205291
0.203422
0.200443
0.19571
0.188786
0.182341
0.167164
0.170471
0.175501
0.180012
0.183389
0.185939
0.187959
0.189678
0.191268
0.192859
0.194556
0.196431
0.198536
0.200902
0.203544
0.20646
0.209631
0.213029
0.216602
0.220294
0.224009
0.227643
0.231085
0.23422
0.23693
0.239109
0.240662
0.241529
0.241678
0.241119
0.239898
0.238082
0.23577
0.233071
0.230097
0.226957
0.223741
0.220561
0.217489
0.214575
0.211861
0.209373
0.207119
0.20509
0.203261
0.201583
0.199983
0.198354
0.196559
0.194419
0.191702
0.188152
0.183425
0.177641
0.173238
0.157747
0.160192
0.164338
0.16869
0.172299
0.175289
0.177877
0.180224
0.182465
0.184714
0.187064
0.189589
0.192345
0.195374
0.198705
0.20235
0.206307
0.210551
0.215041
0.219695
0.224413
0.229065
0.233508
0.237583
0.241124
0.243975
0.245992
0.247083
0.247203
0.246363
0.244634
0.242124
0.238983
0.235363
0.231425
0.227308
0.223134
0.219046
0.215111
0.211385
0.207905
0.204687
0.201729
0.199012
0.196499
0.194134
0.191842
0.189532
0.18709
0.184381
0.181243
0.177494
0.172968
0.168055
0.164804
0.148949
0.150849
0.154316
0.158362
0.16197
0.165141
0.168033
0.170768
0.173451
0.176179
0.179036
0.182097
0.185429
0.189082
0.193098
0.197503
0.202302
0.207511
0.213065
0.218884
0.224869
0.23085
0.236634
0.242002
0.246711
0.25052
0.253206
0.25462
0.254686
0.253426
0.250954
0.247445
0.243137
0.238259
0.233037
0.227651
0.222297
0.21712
0.21219
0.207565
0.203273
0.199319
0.195686
0.192343
0.189241
0.186321
0.183511
0.180727
0.177876
0.174851
0.171542
0.167804
0.163622
0.1596
0.157131
0.140376
0.141877
0.144782
0.148478
0.151988
0.155199
0.158224
0.161167
0.16412
0.167168
0.170392
0.173866
0.177664
0.181856
0.186502
0.191647
0.197361
0.203621
0.210395
0.217615
0.225173
0.232895
0.240497
0.247673
0.254062
0.259282
0.262965
0.264858
0.26483
0.262924
0.259331
0.25435
0.248371
0.24175
0.234801
0.22779
0.220994
0.214528
0.208477
0.202885
0.197764
0.193096
0.188845
0.18496
0.18138
0.178039
0.174857
0.171761
0.168668
0.165503
0.162171
0.158563
0.154677
0.15122
0.149279
0.131822
0.13301
0.135434
0.138756
0.142095
0.14524
0.148267
0.151271
0.154339
0.15755
0.160986
0.164728
0.168863
0.173478
0.178663
0.1845
0.191075
0.198425
0.206551
0.215417
0.224924
0.234899
0.24499
0.25474
0.263613
0.270987
0.276224
0.278865
0.278669
0.275721
0.270368
0.263159
0.254733
0.245662
0.236385
0.227341
0.21879
0.210847
0.203579
0.196999
0.191079
0.185767
0.18099
0.176669
0.172737
0.169113
0.165727
0.162494
0.159331
0.156155
0.152891
0.149457
0.145923
0.142993
0.141419
0.123172
0.124116
0.126122
0.129057
0.132144
0.135116
0.138023
0.14095
0.14398
0.147191
0.150665
0.154495
0.158783
0.163641
0.169179
0.175565
0.182889
0.191261
0.200787
0.211489
0.223327
0.236154
0.249653
0.263143
0.2758
0.286603
0.294402
0.298276
0.297774
0.293045
0.284796
0.274088
0.262014
0.249447
0.237114
0.225561
0.214963
0.205418
0.196926
0.189422
0.182806
0.176979
0.171824
0.16726
0.163175
0.15946
0.156026
0.152787
0.149667
0.146591
0.143484
0.140288
0.137123
0.134646
0.133383
0.114355
0.115115
0.116758
0.119275
0.122027
0.124727
0.127395
0.130107
0.132941
0.135972
0.139286
0.142985
0.147184
0.152023
0.157653
0.164273
0.172061
0.181227
0.191978
0.204538
0.218992
0.235313
0.253305
0.272251
0.290839
0.307376
0.319656
0.325735
0.324629
0.31667
0.303402
0.286982
0.269354
0.251899
0.235708
0.221174
0.208386
0.197287
0.187716
0.179483
0.172428
0.166383
0.161152
0.156581
0.152536
0.148905
0.14559
0.142502
0.139565
0.136701
0.133844
0.13095
0.128177
0.126116
0.125117
0.105344
0.105939
0.107247
0.109333
0.111687
0.114021
0.116334
0.118692
0.121164
0.123824
0.126758
0.130065
0.133874
0.138325
0.143652
0.150044
0.157767
0.167166
0.178632
0.192584
0.20952
0.229714
0.253278
0.279924
0.307983
0.334529
0.355276
0.365658
0.363271
0.34896
0.326435
0.300427
0.274348
0.250488
0.22975
0.212134
0.197379
0.185098
0.174942
0.166555
0.159565
0.153683
0.148691
0.144401
0.14065
0.137333
0.134333
0.131553
0.128939
0.126408
0.123899
0.121387
0.119041
0.117341
0.11651
0.0961705
0.0966342
0.0976274
0.0992448
0.101117
0.102993
0.104847
0.106723
0.108678
0.110775
0.113091
0.115715
0.118765
0.122409
0.126868
0.132362
0.139216
0.147861
0.158876
0.173025
0.191192
0.214504
0.24404
0.280376
0.323076
0.367785
0.405933
0.425679
0.420305
0.392142
0.351516
0.309389
0.27154
0.240291
0.21519
0.195312
0.179708
0.167479
0.157785
0.149996
0.143703
0.138521
0.134231
0.130602
0.12747
0.124719
0.122243
0.11996
0.117806
0.115721
0.113651
0.111592
0.109715
0.108411
0.107782
0.0868551
0.0872007
0.087879
0.0890056
0.0903503
0.0916988
0.0930008
0.0942779
0.0955668
0.0969136
0.0983753
0.100023
0.101952
0.104317
0.107268
0.111034
0.115928
0.122392
0.131067
0.142892
0.159271
0.182185
0.214567
0.259764
0.321374
0.398561
0.475155
0.517628
0.50479
0.443514
0.366422
0.299435
0.24899
0.212314
0.186023
0.167166
0.153391
0.143137
0.135365
0.129392
0.1247
0.120946
0.117872
0.115274
0.113073
0.111138
0.109386
0.107742
0.106168
0.104634
0.103092
0.101556
0.100186
0.0992598
0.0988015
0.0774576
0.0776833
0.0780361
0.0786608
0.0794546
0.0802392
0.0809327
0.0815263
0.0820359
0.0824852
0.0829028
0.0833232
0.0837889
0.0843965
0.085216
0.0864012
0.0881314
0.0906728
0.0945329
0.100408
0.109448
0.123935
0.147711
0.18777
0.25703
0.378639
0.541466
0.645286
0.612293
0.466244
0.321811
0.234774
0.184489
0.15475
0.13648
0.124845
0.11709
0.111639
0.107812
0.104992
0.102794
0.10113
0.0997913
0.0986552
0.0976753
0.0967767
0.0959193
0.0950695
0.0942012
0.0932914
0.0923288
0.0913449
0.0904851
0.0899444
0.0896619
0.0677435
0.0678005
0.0678965
0.0681795
0.0685416
0.0687964
0.0688561
0.0687108
0.0683634
0.0678146
0.0670559
0.0660762
0.0648625
0.0634132
0.0616889
0.059659
0.0572752
0.0544656
0.051142
0.0471431
0.0422287
0.0363496
0.0289195
0.0192758
0.00725316
0.103747
0.379921
0.249231
0.0961917
0.0444901
0.0533338
0.0604111
0.0655799
0.06945
0.0724833
0.0747315
0.0765242
0.0779397
0.0790728
0.0799918
0.0807229
0.0812928
0.0817148
0.0819966
0.0821438
0.0821597
0.0820448
0.0818012
0.081439
0.0810084
0.0806495
0.0805029
0.0804575
0.0565357
0.056702
0.057216
0.0577485
0.0579269
0.0576626
0.057043
0.056107
0.0548617
0.0532897
0.0513242
0.0489034
0.0459571
0.0423707
0.0379918
0.0326118
0.0259213
0.0174465
0.00641307
-0.0084806
-0.0296123
-0.0615067
-0.113785
-0.209856
-0.342389
-0.408621
-0.243352
-0.113426
-0.0486128
-0.0119375
0.0108386
0.0259544
0.0365618
0.0443389
0.0502303
0.0548107
0.0584397
0.0613449
0.0636762
0.0655758
0.0670985
0.0683001
0.0692431
0.0699133
0.0703538
0.0705911
0.0706543
0.0705772
0.0704154
0.0702753
0.0507049
0.0503623
0.0500647
0.0493419
0.048355
0.0472168
0.0458547
0.0441704
0.0420747
0.0395019
0.0363626
0.0325496
0.0279335
0.0223182
0.0154681
0.00705925
-0.00338107
-0.0165407
-0.0334466
-0.0557065
-0.0859183
-0.128572
-0.192817
-0.29039
-0.381902
-0.27555
-0.182516
-0.110783
-0.0654063
-0.0345891
-0.0126719
0.00342829
0.0155872
0.024989
0.0324036
0.0383437
0.043167
0.0471209
0.0503522
0.0530095
0.0551878
0.0569418
0.0583633
0.0594733
0.0602829
0.0607811
0.0609257
0.0607114
0.0604552
0.0401936
0.0402057
0.0398304
0.039143
0.0381183
0.036668
0.034775
0.0324199
0.0295543
0.0261033
0.0219681
0.0170155
0.0110744
0.00389329
-0.0047902
-0.0153457
-0.0282766
-0.0442651
-0.0642451
-0.0894649
-0.121534
-0.162419
-0.213469
-0.270329
-0.296855
-0.306881
-0.249568
-0.22516
-0.186362
-0.138671
-0.0994737
-0.0684038
-0.0441737
-0.0251919
-0.0102232
0.00172453
0.0113707
0.0192337
0.0256987
0.0310509
0.0355003
0.0392092
0.0423047
0.0448814
0.0470223
0.0487921
0.0502579
0.0514878
0.0525194
0.0532513
0.0533895
0.0321523
0.0322436
0.0317807
0.0306869
0.0290952
0.0271063
0.0247077
0.0218326
0.0183967
0.0143074
0.00945376
0.00369541
-0.00313962
-0.0113104
-0.0210592
-0.0327464
-0.0468053
-0.0637575
-0.0842999
-0.109188
-0.139115
-0.174986
-0.217379
-0.258501
-0.275326
-0.275638
-0.265436
-0.24503
-0.227489
-0.21832
-0.211888
-0.204507
-0.182117
-0.147721
-0.11584
-0.0885085
-0.0655014
-0.0462622
-0.0303999
-0.017259
-0.00630319
0.00279422
0.0104054
0.0168029
0.0221844
0.0267268
0.0305669
0.0338145
0.0365628
0.0388906
0.0408585
0.0424852
0.0437015
0.0443834
0.0445169
0.0246005
0.0246559
0.0240835
0.022793
0.0209146
0.0185711
0.0157845
0.0125059
0.00865258
0.00412622
-0.00118554
-0.0074198
-0.0147423
-0.0234055
-0.0336294
-0.0456894
-0.0599335
-0.0767671
-0.0966615
-0.120147
-0.147783
-0.180259
-0.218051
-0.25327
-0.270944
-0.275104
-0.268271
-0.249155
-0.227245
-0.210051
-0.198805
-0.192613
-0.179545
-0.153553
-0.126422
-0.10205
-0.0806555
-0.0621424
-0.0462641
-0.0327162
-0.0211591
-0.0113359
-0.00296789
0.00419011
0.0102669
0.0154533
0.0198844
0.023682
0.0269297
0.0297017
0.0320623
0.0340118
0.0354549
0.036249
0.0363545
0.0174606
0.0175216
0.0169074
0.0154947
0.0134287
0.0108649
0.00784964
0.00434101
0.000260776
-0.0044838
-0.00999775
-0.0164017
-0.0238461
-0.0324989
-0.0426139
-0.0543701
-0.0680338
-0.0839
-0.102308
-0.123646
-0.14832
-0.176906
-0.209605
-0.240639
-0.259644
-0.266464
-0.263477
-0.247828
-0.225194
-0.20447
-0.19107
-0.18566
-0.176987
-0.156298
-0.132678
-0.110817
-0.0911122
-0.073595
-0.0581807
-0.0447076
-0.0330336
-0.0229195
-0.0141947
-0.00666098
-0.000159095
0.00544872
0.0102839
0.0144554
0.0180534
0.0211584
0.0238273
0.0260425
0.0276764
0.0285559
0.0286686
0.0110082
0.0110984
0.010512
0.00908619
0.00694625
0.00428366
0.00117021
-0.00242159
-0.00655799
-0.0113191
-0.0167958
-0.0230894
-0.0303169
-0.0386335
-0.0482165
-0.0591826
-0.0717246
-0.0860487
-0.102373
-0.12091
-0.141982
-0.165976
-0.192644
-0.2179
-0.235717
-0.244996
-0.247045
-0.2374
-0.219409
-0.201225
-0.189031
-0.183492
-0.176484
-0.158544
-0.136846
-0.116361
-0.0978673
-0.081304
-0.066552
-0.0535026
-0.0420174
-0.0319426
-0.0231414
-0.0154618
-0.00876268
-0.00294731
0.00210691
0.00650377
0.01032
0.0136361
0.016495
0.0188611
0.0205781
0.0214774
0.021575
0.00527364
0.00538709
0.00483423
0.00345373
0.00135218
-0.00129168
-0.00438835
-0.00794062
-0.0119973
-0.0166215
-0.0218845
-0.0278723
-0.0346669
-0.0423613
-0.0511017
-0.0609689
-0.0720597
-0.0844881
-0.0983386
-0.11373
-0.130726
-0.149432
-0.169465
-0.188076
-0.202593
-0.213333
-0.221296
-0.220061
-0.210573
-0.198666
-0.19007
-0.185486
-0.177905
-0.160364
-0.139324
-0.119687
-0.101995
-0.0861986
-0.072106
-0.0595707
-0.0484617
-0.0386482
-0.030001
-0.0223977
-0.0157247
-0.00987648
-0.00475659
-0.000275689
0.00364046
0.00705847
0.0100046
0.0124213
0.0141423
0.0150091
0.0150683
0.000281862
0.000443837
-4.85158e-05
-0.00135826
-0.00338466
-0.00595134
-0.00894587
-0.0123567
-0.0162194
-0.0205828
-0.0254969
-0.0310182
-0.0372056
-0.0441204
-0.0518355
-0.0604195
-0.0698727
-0.0802188
-0.0914726
-0.103568
-0.116399
-0.129826
-0.143179
-0.155195
-0.166096
-0.178269
-0.192136
-0.200167
-0.200153
-0.195382
-0.191014
-0.187179
-0.178431
-0.160399
-0.139525
-0.120413
-0.103512
-0.0884541
-0.0750839
-0.0631946
-0.0526246
-0.0432436
-0.0349328
-0.0275821
-0.0210909
-0.015368
-0.0103297
-0.00589864
-0.00200428
0.00141049
0.00436036
0.00677447
0.00847796
0.00931996
0.00934066
-0.00398413
-0.0037897
-0.00421106
-0.00540577
-0.00730075
-0.00971691
-0.0125329
-0.0157192
-0.0192977
-0.0233041
-0.027774
-0.0327405
-0.0382365
-0.0442838
-0.050904
-0.0581319
-0.0659242
-0.0742298
-0.0829567
-0.0919489
-0.100997
-0.109699
-0.11746
-0.124024
-0.131999
-0.145641
-0.164677
-0.180893
-0.188784
-0.189965
-0.188947
-0.18519
-0.174791
-0.156549
-0.136417
-0.118143
-0.102146
-0.0880554
-0.0755485
-0.0644562
-0.0545904
-0.0458084
-0.0379966
-0.031055
-0.0248955
-0.0194385
-0.0146108
-0.0103446
-0.00657766
-0.00326222
-0.000394234
0.0019418
0.00356369
0.0043291
0.00430775
-0.00755911
-0.00732581
-0.00765724
-0.00871465
-0.0104371
-0.0126546
-0.0152395
-0.0181482
-0.0213894
-0.0249855
-0.0289583
-0.033323
-0.0380901
-0.0432563
-0.0488055
-0.0547296
-0.0609722
-0.0674102
-0.0739024
-0.0802594
-0.0861976
-0.0912739
-0.0949552
-0.097475
-0.103616
-0.118795
-0.141736
-0.163129
-0.175818
-0.180759
-0.18146
-0.177124
-0.165506
-0.147789
-0.1292
-0.112503
-0.0978817
-0.0849914
-0.0736259
-0.063516
-0.054522
-0.0464969
-0.0393318
-0.0329386
-0.0272401
-0.0221684
-0.0176607
-0.0136594
-0.0101125
-0.00698359
-0.00428054
-0.00209737
-0.000607111
6.76477e-05
-3.36332e-06
-0.010482
-0.0102129
-0.0104572
-0.0113641
-0.0128888
-0.0148757
-0.0171967
-0.0197981
-0.0226756
-0.025839
-0.0292978
-0.0330543
-0.0371025
-0.0414279
-0.0459966
-0.0507482
-0.0556013
-0.0604494
-0.0651344
-0.0694457
-0.0731095
-0.0756695
-0.0766776
-0.076674
-0.0820082
-0.0983476
-0.123032
-0.14596
-0.160263
-0.16669
-0.167608
-0.162117
-0.150238
-0.134212
-0.118033
-0.103513
-0.0907689
-0.0795102
-0.0695124
-0.0606227
-0.0526713
-0.0455463
-0.0391548
-0.0334239
-0.0282904
-0.0236993
-0.0195999
-0.0159453
-0.0126944
-0.00982302
-0.00735055
-0.00537382
-0.00405157
-0.00348612
-0.00360476
-0.0128007
-0.0124997
-0.0126564
-0.013416
-0.0147339
-0.0164766
-0.0185191
-0.0208008
-0.0233068
-0.0260381
-0.0289953
-0.0321719
-0.0355483
-0.039094
-0.0427624
-0.0464902
-0.0502021
-0.0538125
-0.0571439
-0.0600049
-0.0621466
-0.0631949
-0.0627629
-0.0615623
-0.0669011
-0.0834683
-0.106673
-0.127702
-0.141735
-0.147721
-0.14725
-0.140774
-0.12987
-0.116586
-0.103542
-0.0917645
-0.0812911
-0.0719635
-0.0635991
-0.0560789
-0.0493131
-0.0432022
-0.0376853
-0.0327061
-0.0282188
-0.0241828
-0.0205603
-0.0173169
-0.0144229
-0.0118655
-0.00967281
-0.00794027
-0.00681048
-0.00636359
-0.00652565
-0.0145809
-0.0142551
-0.0143267
-0.0149268
-0.0160407
-0.0175398
-0.0193024
-0.0212644
-0.0234053
-0.0257174
-0.0281945
-0.0308211
-0.0335765
-0.0364302
-0.0393416
-0.0422535
-0.0450877
-0.0477361
-0.0500928
-0.051994
-0.0532354
-0.0535318
-0.0524771
-0.0507998
-0.0558361
-0.0710096
-0.0906656
-0.108397
-0.12007
-0.124082
-0.12196
-0.115231
-0.106264
-0.0963379
-0.0867895
-0.0780466
-0.0700971
-0.0628541
-0.0562654
-0.0502433
-0.0447458
-0.0397324
-0.0351579
-0.0309904
-0.0272038
-0.0237738
-0.0206767
-0.0178903
-0.0153969
-0.0131935
-0.011315
-0.00984984
-0.0089252
-0.00859814
-0.00880229
-0.0158826
-0.0155395
-0.0155373
-0.0159923
-0.0169006
-0.0181522
-0.0196359
-0.0212839
-0.0230699
-0.0249833
-0.0270148
-0.0291506
-0.0313692
-0.0336399
-0.0359211
-0.0381606
-0.0402983
-0.0422588
-0.0439474
-0.0452638
-0.0460473
-0.0460553
-0.0448094
-0.0428764
-0.0468131
-0.0591032
-0.0742833
-0.0878307
-0.0960996
-0.0978886
-0.0943291
-0.0880463
-0.0815764
-0.0751422
-0.0690693
-0.0633467
-0.0579394
-0.0528256
-0.0480162
-0.0435286
-0.0393372
-0.0354468
-0.0318373
-0.0285051
-0.0254434
-0.0226436
-0.0200965
-0.0177924
-0.0157244
-0.0138992
-0.0123546
-0.0111738
-0.010457
-0.0102479
-0.0104886
-0.0167698
-0.0164102
-0.0163386
-0.0166615
-0.0173793
-0.0183897
-0.0196
-0.0209467
-0.0223999
-0.023947
-0.0255775
-0.0272764
-0.0290226
-0.0307895
-0.0325447
-0.0342502
-0.0358602
-0.037323
-0.0385786
-0.0395518
-0.0401499
-0.0401387
-0.0389668
-0.0368853
-0.0389442
-0.0474246
-0.0580158
-0.0672738
-0.0719368
-0.0713832
-0.0669611
-0.061697
-0.0577505
-0.0545359
-0.0516115
-0.0486545
-0.0456067
-0.042505
-0.0394064
-0.0363774
-0.0334576
-0.0306538
-0.0279938
-0.025484
-0.0231404
-0.0209691
-0.018974
-0.0171569
-0.0155214
-0.0140811
-0.0128755
-0.0119765
-0.011466
-0.0113684
-0.0116392
-0.0173023
-0.0169394
-0.0168084
-0.0170005
-0.0175243
-0.0183083
-0.0192627
-0.0203269
-0.0214715
-0.0226822
-0.0239485
-0.0252571
-0.0265917
-0.0279315
-0.0292533
-0.0305295
-0.0317317
-0.0328263
-0.0337824
-0.0345651
-0.0351145
-0.0352151
-0.0342888
-0.0321943
-0.0323183
-0.036927
-0.0432035
-0.0482169
-0.0497193
-0.0472976
-0.0422749
-0.0379792
-0.0362343
-0.0357023
-0.0353927
-0.0347779
-0.0337712
-0.0324447
-0.0308879
-0.0291873
-0.0274229
-0.0256419
-0.0238726
-0.0221459
-0.0204847
-0.0189165
-0.017455
-0.016112
-0.0148992
-0.0138363
-0.012961
-0.0123352
-0.0120176
-0.0120203
-0.0123145
-0.0175387
-0.0171676
-0.0169851
-0.0170641
-0.0174139
-0.0179794
-0.0186874
-0.0194843
-0.0203408
-0.021243
-0.0221811
-0.0231444
-0.0241202
-0.0250937
-0.0260486
-0.0269682
-0.0278365
-0.0286393
-0.0293664
-0.0300121
-0.0305495
-0.0308184
-0.0301878
-0.0282918
-0.0269964
-0.0283544
-0.0307555
-0.0321583
-0.0309332
-0.02674
-0.0213412
-0.0179766
-0.0179273
-0.0193998
-0.0210756
-0.0223009
-0.0229473
-0.023092
-0.0228426
-0.0222959
-0.0215427
-0.020659
-0.0196921
-0.018678
-0.0176485
-0.0166369
-0.0156731
-0.0147753
-0.0139616
-0.0132547
-0.01269
-0.0123145
-0.0121734
-0.0122681
-0.0125795
-0.0175209
-0.0171499
-0.0169287
-0.0169024
-0.0170874
-0.0174465
-0.0179226
-0.0184678
-0.0190576
-0.0196779
-0.0203199
-0.0209749
-0.0216331
-0.0222843
-0.0229186
-0.023527
-0.0241037
-0.0246469
-0.0251629
-0.0256643
-0.0261522
-0.0265017
-0.0262782
-0.0247152
-0.0226621
-0.0217046
-0.0212222
-0.0196091
-0.0160088
-0.0105113
-0.0047348
-0.00194339
-0.00310251
-0.00595965
-0.00902573
-0.0115854
-0.0134767
-0.0147643
-0.0155562
-0.0159539
-0.0160474
-0.0159211
-0.0156402
-0.0152455
-0.0147764
-0.0142652
-0.0137481
-0.0132538
-0.0128041
-0.0124227
-0.01214
-0.011991
-0.012002
-0.0121717
-0.012494
-0.0172954
-0.0169301
-0.0166719
-0.0165532
-0.0165915
-0.0167557
-0.0170113
-0.0173224
-0.0176653
-0.0180274
-0.0184
-0.0187759
-0.0191478
-0.0195087
-0.0198527
-0.0201759
-0.0204782
-0.0207651
-0.0210511
-0.0213601
-0.02171
-0.0220198
-0.0218921
-0.0208091
-0.0187745
-0.0166066
-0.0141152
-0.0104609
-0.00509306
0.00165723
0.00776716
0.0101685
0.00827878
0.00457732
0.00064394
-0.00278964
-0.00553853
-0.0076472
-0.00921283
-0.0103349
-0.0110978
-0.0115826
-0.0118616
-0.011983
-0.0119888
-0.0119098
-0.0117827
-0.0116413
-0.0115116
-0.0114168
-0.0113811
-0.011428
-0.0115711
-0.0118005
-0.0121315
-0.0168975
-0.0165399
-0.0162574
-0.0160557
-0.0159564
-0.0159445
-0.015996
-0.0160879
-0.0162016
-0.0163254
-0.0164511
-0.0165719
-0.0166818
-0.0167753
-0.0168484
-0.0168994
-0.0169304
-0.0169488
-0.0169706
-0.0170207
-0.0171228
-0.0172473
-0.0171927
-0.0164674
-0.0147475
-0.0122623
-0.00884611
-0.00393221
0.0025843
0.010015
0.0164419
0.0187521
0.0164862
0.012371
0.00800031
0.00408496
0.000825235
-0.00181047
-0.00390214
-0.00553556
-0.00679153
-0.00774343
-0.00845683
-0.00898842
-0.00937707
-0.00965669
-0.00985716
-0.0100143
-0.0101556
-0.010305
-0.0104784
-0.0106913
-0.0109425
-0.0112216
-0.0115547
-0.0163585
-0.016011
-0.0157037
-0.0154403
-0.0152194
-0.0150447
-0.0149082
-0.014797
-0.0146987
-0.0146028
-0.0145012
-0.0143873
-0.0142548
-0.0140984
-0.0139142
-0.0137003
-0.0134575
-0.0131916
-0.0129152
-0.0126513
-0.0124318
-0.0122625
-0.0120296
-0.0114479
-0.0102155
-0.0080551
-0.00449131
0.000748004
0.00769766
0.0155359
0.0220349
0.0242396
0.0218895
0.0176921
0.0132272
0.00915573
0.00567372
0.00276761
0.000372092
-0.00158448
-0.00317139
-0.00445345
-0.00548549
-0.00632372
-0.0070061
-0.00756743
-0.00803326
-0.00843327
-0.00879537
-0.00913557
-0.00946848
-0.009799
-0.0101271
-0.0104461
-0.0107837
-0.0156997
-0.0153672
-0.0150494
-0.0147285
-0.0144031
-0.0140836
-0.0137752
-0.013478
-0.0131847
-0.0128872
-0.012577
-0.0122467
-0.0118895
-0.011499
-0.01107
-0.0105985
-0.0100825
-0.00952422
-0.00893222
-0.00832395
-0.00771924
-0.0071398
-0.00658279
-0.00600786
-0.00516199
-0.00356596
-0.000480919
0.00452277
0.0112927
0.018831
0.0251266
0.027246
0.0249431
0.0208943
0.0165935
0.0126191
0.00914811
0.00617812
0.00366243
0.00154404
-0.000232981
-0.00172071
-0.00296701
-0.00401945
-0.00491637
-0.00568672
-0.00635399
-0.00694436
-0.00748371
-0.00798774
-0.00845956
-0.00889842
-0.00928746
-0.00962557
-0.00994576
-0.0149469
-0.0146289
-0.0143056
-0.0139394
-0.0135293
-0.0130823
-0.0126212
-0.0121561
-0.0116861
-0.0112052
-0.0107053
-0.0101776
-0.00961419
-0.0090069
-0.00834824
-0.0076318
-0.00685252
-0.0060088
-0.00510103
-0.00413491
-0.00312768
-0.00211992
-0.00119963
-0.000427982
0.000276264
0.00131219
0.00360295
0.00784852
0.0139018
0.0208368
0.0267928
0.0282372
0.0261266
0.0223834
0.0184255
0.0147272
0.0114365
0.00856152
0.00606959
0.00391892
0.00206875
0.000477984
-0.000892257
-0.00207922
-0.00311701
-0.00402719
-0.00483812
-0.00557533
-0.00624399
-0.00686022
-0.00742636
-0.00792902
-0.00836367
-0.00871627
-0.00903379
-0.0141197
-0.013818
-0.0134919
-0.0130939
-0.0126106
-0.0120579
-0.0114648
-0.0108511
-0.0102239
-0.00957953
-0.00890992
-0.00820519
-0.00745588
-0.00665197
-0.0057839
-0.00484283
-0.00382039
-0.00270827
-0.00150155
-0.000200316
0.00118174
0.00260199
0.00395098
0.0050291
0.00575217
0.0064138
0.00788119
0.0110485
0.0160382
0.0219398
0.0266821
0.0279353
0.0260967
0.0225812
0.019078
0.0157627
0.0127632
0.0100905
0.0077252
0.00563872
0.00380339
0.00219066
0.00077047
-0.000485242
-0.00160332
-0.00260927
-0.00351152
-0.00434251
-0.00510131
-0.00579814
-0.00642828
-0.00698217
-0.0074381
-0.00779778
-0.00810812
-0.0132319
-0.0129488
-0.012625
-0.0122037
-0.011665
-0.0110246
-0.0103195
-0.00957931
-0.00881621
-0.0080297
-0.00721216
-0.00635295
-0.00544087
-0.00446465
-0.00341291
-0.00227349
-0.00103446
0.000314823
0.00178372
0.00337931
0.00509865
0.00689578
0.0086244
0.0100213
0.0108864
0.0113346
0.0121432
0.0142729
0.017938
0.0225114
0.0263136
0.02714
0.0248272
0.0219129
0.0189662
0.0160027
0.0133491
0.010944
0.00877073
0.00681386
0.00505669
0.00348143
0.00206735
0.000794622
-0.000356663
-0.00140801
-0.0023677
-0.00325055
-0.00407096
-0.00481832
-0.00548984
-0.00606736
-0.00653467
-0.00689623
-0.0071932
-0.0122961
-0.0120331
-0.0117167
-0.011281
-0.0107022
-0.00999504
-0.00919975
-0.00835522
-0.00747888
-0.00657318
-0.00563111
-0.00464179
-0.00359287
-0.00247199
-0.00126511
4.09472e-05
0.00145973
0.00300467
0.00469129
0.00653143
0.0085235
0.0106192
0.0126607
0.0143456
0.0153881
0.0157673
0.0160821
0.0172507
0.0196552
0.0227798
0.0252747
0.0255248
0.023528
0.0207456
0.0180235
0.0156588
0.0134014
0.0112958
0.00934999
0.00756046
0.00592101
0.00442261
0.00305382
0.00180092
0.000649619
-0.000411593
-0.00139618
-0.00230091
-0.00314681
-0.00393015
-0.00462436
-0.00521208
-0.00568303
-0.00603746
-0.00632233
-0.0113322
-0.0110864
-0.010779
-0.0103386
-0.00973325
-0.00897756
-0.00811696
-0.007191
-0.00622441
-0.00522296
-0.00418059
-0.00308685
-0.00192838
-0.000691414
0.0006379
0.00207361
0.00363156
0.0053282
0.00717975
0.00920001
0.0113901
0.013702
0.0159702
0.0178744
0.0190707
0.0194036
0.0193175
0.0197204
0.0209911
0.0227715
0.0240335
0.0235919
0.021655
0.0193981
0.0171994
0.0150582
0.0130592
0.0112679
0.00959112
0.00798788
0.00648574
0.00508667
0.00378638
0.0025778
0.00145202
0.000402404
-0.000581183
-0.00150051
-0.00234455
-0.00314233
-0.00384501
-0.0044365
-0.00489766
-0.00524488
-0.00551689
-0.0103567
-0.0101278
-0.00983102
-0.00939063
-0.0087713
-0.00798814
-0.00708038
-0.00609546
-0.00506187
-0.00398825
-0.00287066
-0.00169787
-0.000457272
0.000864577
0.00228204
0.0038108
0.00546649
0.00726539
0.00922505
0.0113606
0.0136734
0.0161137
0.018514
0.0205474
0.0218295
0.0221119
0.0217198
0.0214448
0.0217267
0.0223666
0.0225868
0.0216042
0.019724
0.0178206
0.0160894
0.014424
0.012765
0.0111207
0.00955696
0.00816988
0.00683094
0.00554222
0.00432096
0.00316981
0.00208441
0.00106024
9.28829e-05
-0.000821127
-0.00166813
-0.0024501
-0.00315984
-0.00374314
-0.00419696
-0.00452884
-0.00478909
-0.00938219
-0.00916995
-0.00888454
-0.00845086
-0.0078308
-0.00703285
-0.00609913
-0.00507692
-0.00399894
-0.00287623
-0.0017063
-0.000480275
0.00081429
0.00219104
0.00366445
0.00524871
0.00695941
0.00881284
0.0108262
0.013014
0.0153759
0.0178607
0.0203035
0.0223793
0.0236815
0.0238874
0.0231822
0.0223325
0.0218225
0.0215302
0.0209691
0.019653
0.0179198
0.0163443
0.0149645
0.0136387
0.0123035
0.0109535
0.00958928
0.00822743
0.0069774
0.00583405
0.00470355
0.00361671
0.00257768
0.00158589
0.000640919
-0.00025711
-0.00110273
-0.00186381
-0.00256416
-0.00314106
-0.00357903
-0.00389996
-0.00414396
-0.00842667
-0.00822903
-0.00795534
-0.00753448
-0.00692128
-0.00612236
-0.00518048
-0.00414106
-0.00303876
-0.0018885
-0.000689917
0.000565083
0.00188824
0.00329198
0.0047893
0.00639398
0.00812054
0.00998428
0.0120007
0.0141826
0.0165272
0.0189827
0.021389
0.0234302
0.0246847
0.0247688
0.0237964
0.0224793
0.0213131
0.0203552
0.0192797
0.0178427
0.016328
0.0150611
0.0139733
0.0129072
0.0118009
0.0106579
0.00949604
0.00832216
0.00714088
0.00598698
0.00493426
0.00394895
0.00296011
0.00199821
0.00108138
0.000203271
-0.00062921
-0.0013903
-0.00205838
-0.00262654
-0.0030521
-0.00335368
-0.00358586
-0.00749795
-0.00731595
-0.00705568
-0.00664797
-0.00605101
-0.00526777
-0.00433021
-0.00329183
-0.0021847
-0.00102653
0.000180527
0.00144326
0.00277121
0.00417577
0.00566893
0.00726294
0.00897071
0.0108055
0.012781
0.0149068
0.0171781
0.0195433
0.0218506
0.0238009
0.0249681
0.0249295
0.0237137
0.0219974
0.0203821
0.0189881
0.0176593
0.0162733
0.0150189
0.0140233
0.0131628
0.0122927
0.0113604
0.0103701
0.00934431
0.00830281
0.0072561
0.00620968
0.00516575
0.00415411
0.00318326
0.00228021
0.00142138
0.00057397
-0.000246538
-0.00100151
-0.00167042
-0.00220673
-0.0026051
-0.00289464
-0.00311316
-0.00661587
-0.0064448
-0.00619874
-0.00581018
-0.00523457
-0.00447212
-0.0035562
-0.00253191
-0.00143609
-0.00028709
0.000910479
0.0021611
0.00347326
0.00485664
0.00632161
0.00787867
0.00953859
0.0113125
0.013211
0.0152411
0.0173948
0.0196226
0.021787
0.0236089
0.0246669
0.0244951
0.0230823
0.0211214
0.0192287
0.0176189
0.0162411
0.0150247
0.0140325
0.0132526
0.0125512
0.011814
0.0110035
0.0101277
0.00920482
0.00825083
0.00728333
0.00631647
0.00535749
0.00441231
0.00348132
0.00255965
0.00166966
0.000814204
-8.54965e-05
-0.000681668
-0.00133632
-0.00185632
-0.00223902
-0.00251303
-0.00271847
-0.00578609
-0.00562839
-0.00539707
-0.00502753
-0.00447893
-0.0037442
-0.00285783
-0.00186097
-0.000789704
0.000335249
0.00150768
0.00273028
0.00400965
0.00535377
0.0067712
0.00827039
0.00985989
0.0115482
0.0133428
0.0152476
0.0172529
0.0193124
0.0213049
0.0229785
0.0239195
0.0236483
0.0221389
0.0200439
0.0180368
0.0164073
0.0151261
0.0141382
0.0133735
0.0127445
0.0121373
0.0114757
0.0107399
0.00993916
0.00908746
0.00820086
0.00729277
0.00637553
0.00545911
0.0045521
0.0036609
0.00278562
0.00192396
0.00108938
0.000322752
-0.00041989
-0.00131759
-0.00158395
-0.00190613
-0.00219993
-0.00239772
-0.0050173
-0.00487085
-0.00465161
-0.00430548
-0.0037857
-0.0030887
-0.00223952
-0.00127911
-0.000243167
0.000846549
0.0019821
0.00316416
0.00439763
0.00568876
0.00704412
0.00847013
0.00997298
0.0115585
0.0132314
0.0149923
0.0168302
0.0187045
0.0205121
0.0220345
0.0228768
0.0225607
0.0210233
0.0189285
0.01698
0.0154523
0.0143664
0.0136071
0.0130142
0.0124712
0.0119006
0.0112663
0.0105645