/*--------------------------------*- C++ -*----------------------------------*\
  =========                 |
  \\      /  F ield         | OpenFOAM: The Open Source CFD Toolbox
   \\    /   O peration     | Website:  https://openfoam.org
    \\  /    A nd           | Version:  7
     \\/     M anipulation  |
\*---------------------------------------------------------------------------*/
FoamFile
{
    version     2.0;
    format      ascii;
    class       surfaceScalarField;
    location    "50";
    object      phi;
}
// * * * * * * * * * * * * * * * * * * * * * * * * * * * * * * * * * * * * * //

dimensions      [0 3 -1 0 0 0 0];

internalField   nonuniform List<scalar> 
34768
(
8.19215e-05
0.000970023
-0.00014964
-4.45798e-05
2.59234e-05
0.00092096
-1.58407e-05
1.08693e-05
0.000907474
-8.27347e-06
6.72166e-06
0.000904254
-5.34805e-06
4.61146e-06
0.000903538
-4.2899e-06
3.9061e-06
0.000903185
-3.62304e-06
3.5074e-06
0.000903116
-3.44797e-06
3.42531e-06
0.000903123
-3.13802e-06
3.07196e-06
0.000903265
-3.23072e-06
3.00193e-06
0.000903327
-3.09196e-06
2.9891e-06
0.000903301
-3.00173e-06
3.21799e-06
0.000903281
-3.04769e-06
2.97862e-06
0.000903566
-3.22198e-06
3.16484e-06
0.000903553
-3.21944e-06
3.37229e-06
0.000903542
-3.33672e-06
3.29834e-06
0.000903833
-3.57142e-06
3.54094e-06
0.000903724
-3.52206e-06
3.69891e-06
0.000903816
-3.68739e-06
3.67107e-06
0.000903908
-3.86659e-06
3.75676e-06
0.000904101
-4.15875e-06
4.75493e-06
0.000904094
-5.56304e-06
6.36483e-06
0.000905187
-5.22844e-06
4.3753e-06
0.000904861
-3.62398e-06
4.08545e-06
0.000904595
-5.35797e-06
-3.56406e-07
0.00090927
-7.20161e-07
1.2881e-06
0.000908617
-1.19629e-06
8.45959e-07
0.000909425
-5.57499e-07
5.98902e-10
0.000909631
5.52384e-07
-8.44166e-07
0.000909364
1.19537e-06
-1.31639e-06
0.000909193
1.33968e-06
-1.393e-06
0.000909135
1.38924e-06
-1.37576e-06
0.000909058
1.35602e-06
-1.34661e-06
0.000909062
1.28158e-06
-1.27689e-06
0.000909077
1.26738e-06
-1.2681e-06
0.000909082
1.26459e-06
-1.27117e-06
0.000909088
1.27428e-06
-1.28723e-06
0.000909095
1.29733e-06
-1.41705e-06
0.000909202
1.73464e-06
-1.16178e-06
0.000909909
6.87733e-07
-5.22802e-07
0.000910318
4.57307e-07
-4.00663e-07
0.000910327
4.44385e-07
-4.97047e-07
0.000910237
5.5137e-07
-6.15024e-07
0.000910248
6.81916e-07
-6.59046e-07
0.000910062
7.41637e-07
-8.36107e-07
0.00091008
9.39066e-07
-1.05671e-06
0.000910004
1.18741e-06
-1.33753e-06
0.000909937
1.50764e-06
-1.70522e-06
0.000909985
1.93402e-06
-2.3041e-06
0.000910059
2.52444e-06
-2.91037e-06
0.000910075
3.37929e-06
-4.05548e-06
0.000910266
4.66603e-06
-5.53688e-06
0.000910461
6.56152e-06
-7.67403e-06
0.000910604
8.70137e-06
-6.59782e-06
0.000907389
-4.12267e-06
-2.68616e-05
0.000940479
-0.000827803
0.000143723
0.000704012
-1.99016e-05
-0.00097259
-0.00014856
0.000116705
0.00100448
-0.00092509
-8.99853e-05
7.05746e-05
0.000944539
-0.000911617
-5.64222e-05
4.59493e-05
0.000922126
-0.000907217
-3.79425e-05
3.18949e-05
0.0009133
-0.000905498
-2.71545e-05
2.33977e-05
0.000909289
-0.000904551
-1.98416e-05
1.76481e-05
0.000906778
-0.000904021
-1.53569e-05
1.35088e-05
0.000905901
-0.000903895
-1.18091e-05
1.05348e-05
0.000905199
-0.000903779
-9.42334e-06
8.36786e-06
0.000904863
-0.000903827
-7.32451e-06
6.69547e-06
0.000904483
-0.000903715
-5.84814e-06
5.1876e-06
0.0009044
-0.000903627
-4.69018e-06
4.06101e-06
0.000904279
-0.000903856
-3.48359e-06
3.16196e-06
0.000904199
-0.000903796
-2.78506e-06
2.35437e-06
0.000904244
-0.000903742
-2.26531e-06
1.91527e-06
0.000904107
-0.000903893
-1.60494e-06
1.42783e-06
0.00090408
-0.000903846
-1.39105e-06
1.18205e-06
0.000904061
-0.000903902
-1.11431e-06
9.69115e-07
0.000904048
-0.00090396
-1.06753e-06
1.08309e-06
0.000903939
-0.000904219
-8.44245e-07
9.16639e-07
0.000904134
-0.000903981
-1.23742e-06
5.63383e-07
0.000904635
-0.000907025
-7.21352e-07
3.60623e-06
0.000904113
-0.000903355
-2.48804e-06
-3.04188e-06
0.00090885
-0.000907863
1.81664e-06
-1.73195e-06
0.000907735
-0.000908321
1.74251e-06
-1.7105e-06
0.000908238
-0.000909595
1.63287e-06
-1.30393e-06
0.000909207
-0.00091008
1.09462e-06
-1.41791e-06
0.000910337
-0.000909503
1.69281e-06
-1.54433e-06
0.00090928
-0.000909303
1.24499e-06
-1.60875e-06
0.000909586
-0.000909082
1.66162e-06
-1.606e-06
0.000908939
-0.000908946
1.40068e-06
-1.25392e-06
0.000908707
-0.000908956
1.05915e-06
-9.49247e-07
0.000908749
-0.000909001
7.42479e-07
-6.75846e-07
0.000908833
-0.00090903
6.63924e-07
-5.46686e-07
0.000908808
-0.000909062
4.85312e-07
-5.22126e-07
0.000908992
-0.000909098
5.1647e-07
-6.12019e-07
0.000909084
-0.000909537
7.66572e-07
-1.02468e-06
0.000909684
-0.00090978
1.64426e-06
-1.97061e-06
0.000909994
-0.000910127
1.86155e-06
-1.96146e-06
0.000910115
-0.000910378
1.93e-06
-2.11087e-06
0.000910447
-0.000910437
2.36594e-06
-2.73812e-06
0.000910698
-0.000910405
3.09273e-06
-3.57182e-06
0.000910774
-0.00091039
4.04516e-06
-4.75437e-06
0.00091099
-0.000910397
5.37504e-06
-6.24934e-06
0.000911165
-0.000910441
7.06056e-06
-8.25328e-06
0.000911529
-0.00091064
9.3215e-06
-1.07155e-05
0.000911932
-0.000910828
1.21454e-05
-1.40737e-05
0.000912657
-0.000911267
1.60359e-05
-1.85186e-05
0.000913654
-0.000911867
2.13011e-05
-2.49214e-05
0.000915393
-0.000913036
2.91389e-05
-3.43986e-05
0.000918205
-0.000915064
4.09334e-05
-4.92321e-05
0.000923275
-0.000918838
6.01999e-05
-7.45187e-05
0.000933075
-0.000924585
9.41259e-05
-0.000124457
0.000954849
-0.000978429
0.000165532
-0.000143505
0.000956356
-0.000600046
8.48165e-05
0.000519453
-4.18764e-06
-0.0010221
-0.000134108
0.000131423
0.00102482
-0.000962911
-0.00011157
9.32935e-05
0.000981224
-0.000933358
-7.91793e-05
6.78411e-05
0.000944733
-0.000920581
-5.856e-05
5.08055e-05
0.000928372
-0.000914315
-4.41413e-05
3.86847e-05
0.000919808
-0.000910738
-3.39175e-05
2.98325e-05
0.000914859
-0.000908219
-2.62817e-05
2.26001e-05
0.000911936
-0.000907196
-1.99917e-05
1.77207e-05
0.000909501
-0.000906327
-1.55075e-05
1.35422e-05
0.000908326
-0.000905835
-1.17661e-05
1.01782e-05
0.000907454
-0.000905314
-8.93466e-06
7.53821e-06
0.000906741
-0.000905206
-6.25478e-06
5.39297e-06
0.000906097
-0.000904871
-4.22391e-06
3.35691e-06
0.000905765
-0.000904683
-2.67124e-06
1.97316e-06
0.000905405
-0.000904627
-1.24893e-06
8.02631e-07
0.000905095
-0.000904292
-3.2606e-07
-8.0929e-08
0.000904716
-0.000904271
5.19362e-07
-7.94848e-07
0.000904559
-0.00090416
1.00188e-06
-1.05251e-06
0.000904218
-0.000904158
1.43362e-06
-1.46487e-06
0.000904191
-0.000903865
1.22551e-06
-1.84322e-06
0.000904478
-0.000904881
2.18645e-06
-1.09727e-06
0.00090378
-0.00090613
3.16557e-06
-4.79054e-06
0.000907735
-0.000907959
4.27401e-06
-3.90883e-06
0.000907567
-0.000907789
3.30408e-06
-3.26209e-06
0.000907712
-0.000908015
3.14272e-06
-3.12322e-06
0.000907952
-0.000908542
2.72081e-06
-2.25428e-06
0.000908024
-0.000910542
1.65463e-06
-1.76068e-06
0.000910589
-0.000909062
1.82151e-06
-1.55096e-06
0.000908725
-0.000909716
1.09704e-06
-8.39931e-07
0.000909386
-0.000908716
7.546e-07
-5.7002e-07
0.000908453
-0.000908435
1.73542e-07
1.50873e-07
0.000908026
-0.000908519
-5.01762e-07
7.50588e-07
0.000908181
-0.000908576
-1.07137e-06
1.13177e-06
0.000908422
-0.000908822
-1.40968e-06
1.47011e-06
0.000908664
-0.000908985
-1.5449e-06
1.49659e-06
0.000908933
-0.000909163
-1.45927e-06
1.19415e-06
0.000909325
-0.000910354
-5.3764e-07
-7.49964e-07
0.000911538
-0.000910164
6.3502e-07
-6.56081e-07
0.000910079
-0.000910291
9.76864e-07
-1.43829e-06
0.000910647
-0.000910741
1.80605e-06
-2.42094e-06
0.00091125
-0.000911124
2.95085e-06
-3.73646e-06
0.000911805
-0.000911455
4.55e-06
-5.53204e-06
0.000912333
-0.000911857
6.56029e-06
-7.77643e-06
0.000912971
-0.000912366
9.16594e-06
-1.06723e-05
0.000913771
-0.000912936
1.22906e-05
-1.42709e-05
0.000914817
-0.000913857
1.63208e-05
-1.88005e-05
0.000916239
-0.000915074
2.1538e-05
-2.46081e-05
0.00091805
-0.000917045
2.81726e-05
-3.2234e-05
0.000921015
-0.000920033
3.70018e-05
-4.26324e-05
0.000925575
-0.000925125
4.92085e-05
-5.70734e-05
0.000932904
-0.00093386
6.63236e-05
-7.76477e-05
0.000945102
-0.000949926
9.13719e-05
-0.000108472
0.000966951
-0.000985508
0.000130485
-0.000155
0.00100996
-0.000906587
0.000157713
-9.17234e-05
0.00084055
-0.000458949
4.89078e-05
0.000412913
-2.83193e-06
-0.00101424
-0.000100499
0.000120046
0.000994736
-0.000997835
-0.000114098
0.000100556
0.00101141
-0.000955889
-8.77118e-05
7.70838e-05
0.000966555
-0.000936415
-6.79508e-05
6.01514e-05
0.000944252
-0.000925731
-5.33032e-05
4.72861e-05
0.000931786
-0.000919383
-4.19401e-05
3.72038e-05
0.000924157
-0.000915357
-3.29599e-05
2.91758e-05
0.000919179
-0.000912695
-2.58609e-05
2.27978e-05
0.000915796
-0.000910469
-1.9913e-05
1.69019e-05
0.000913517
-0.00090928
-1.48148e-05
1.26473e-05
0.000911484
-0.000908337
-1.05512e-05
8.94143e-06
0.000909983
-0.000907421
-7.27156e-06
5.75766e-06
0.00090897
-0.000906759
-4.36458e-06
3.10781e-06
0.000908048
-0.000906398
-1.85788e-06
9.30473e-07
0.000907355
-0.000905702
-1.02843e-07
-7.13693e-07
0.000906546
-0.000905352
1.5352e-06
-2.25332e-06
0.000906093
-0.000904931
2.67662e-06
-3.10343e-06
0.000905377
-0.000904633
3.53634e-06
-3.87888e-06
0.000904989
-0.000904154
3.82571e-06
-4.58852e-06
0.000904925
-0.000904792
4.95135e-06
-4.04028e-06
0.000903882
-0.00090597
6.24956e-06
-7.94403e-06
0.000907659
-0.000907248
7.4778e-06
-7.36182e-06
0.000907119
-0.000907071
6.81088e-06
-6.36053e-06
0.0009066
-0.000907162
5.93549e-06
-5.16107e-06
0.000906359
-0.000908268
4.45696e-06
-4.41625e-06
0.000908192
-0.0009072
3.68918e-06
-2.97339e-06
0.000906441
-0.000910359
2.33709e-06
-1.96653e-06
0.000909938
-0.000908218
1.73694e-06
-1.15913e-06
0.000907582
-0.000908382
3.18731e-07
5.01127e-07
0.000907498
-0.000908488
-5.65917e-07
8.89226e-07
0.000908094
-0.000907567
-1.48125e-06
2.01712e-06
0.000906955
-0.000907805
-2.56327e-06
2.98959e-06
0.000907297
-0.000908166
-3.32845e-06
3.70582e-06
0.000907703
-0.000908532
-3.9687e-06
4.09119e-06
0.00090832
-0.000908936
-4.19421e-06
4.24988e-06
0.000908789
-0.000909472
-4.08174e-06
3.6612e-06
0.000909799
-0.000912536
-2.81428e-06
2.40908e-06
0.000912846
-0.000910441
-1.97124e-06
1.37172e-06
0.000910943
-0.00091118
-8.37042e-07
1.35897e-07
0.000911783
-0.000911868
6.06907e-07
-1.62311e-06
0.000912786
-0.000912727
2.58991e-06
-3.63907e-06
0.000913678
-0.000913487
4.85335e-06
-6.26441e-06
0.000914801
-0.000914498
7.86009e-06
-9.47229e-06
0.000916015
-0.000915632
1.13979e-05
-1.3471e-05
0.000917611
-0.000916997
1.56958e-05
-1.83139e-05
0.000919523
-0.000918866
2.10392e-05
-2.42214e-05
0.000921958
-0.000921615
2.75904e-05
-3.15077e-05
0.000925444
-0.000925598
3.57235e-05
-4.06174e-05
0.000930407
-0.000931596
4.6069e-05
-5.21774e-05
0.000937622
-0.000940885
5.91685e-05
-6.7175e-05
0.000948812
-0.000956191
7.62672e-05
-8.65502e-05
0.000966399
-0.000982695
9.7937e-05
-0.000112081
0.00099677
-0.00102481
0.000126837
-0.000130976
0.00102889
-0.00077142
0.000102413
-3.94305e-05
0.000708388
-0.000377221
2.96291e-05
0.000349313
-1.67703e-06
-0.000970058
-7.16455e-05
9.90983e-05
0.000942648
-0.00102189
-0.000104493
9.76208e-05
0.0010288
-0.000976499
-8.77131e-05
7.81964e-05
0.000986054
-0.000951757
-6.9948e-05
6.27491e-05
0.000958995
-0.000937877
-5.62378e-05
5.04394e-05
0.000943714
-0.000929017
-4.51345e-05
4.03041e-05
0.000933887
-0.000923168
-3.58629e-05
3.19098e-05
0.000927161
-0.000918999
-2.81661e-05
2.47401e-05
0.000922465
-0.000916075
-2.16691e-05
1.88633e-05
0.000918921
-0.000913903
-1.62648e-05
1.37902e-05
0.000916417
-0.000912134
-1.10856e-05
8.88037e-06
0.000914378
-0.000910705
-7.02847e-06
5.2484e-06
0.000912523
-0.000909707
-3.30047e-06
1.9128e-06
0.000911131
-0.000908359
-5.49144e-07
-8.7051e-07
0.000909812
-0.000907514
2.06973e-06
-3.23175e-06
0.000908707
-0.000906834
4.17535e-06
-4.78631e-06
0.000907472
-0.000906097
5.78034e-06
-6.24575e-06
0.000906585
-0.000904991
6.49004e-06
-7.71304e-06
0.000906232
-0.00090541
8.20562e-06
-7.38227e-06
0.000904598
-0.000906184
9.86174e-06
-1.18571e-05
0.000908185
-0.000907147
1.13778e-05
-1.13884e-05
0.000907156
-0.000906663
1.08716e-05
-1.02894e-05
0.000906072
-0.000906123
9.77132e-06
-9.00876e-06
0.000905345
-0.000905642
8.17659e-06
-7.40374e-06
0.000904844
-0.000907489
6.55164e-06
-5.83796e-06
0.000906744
-0.000905621
4.75412e-06
-3.69124e-06
0.000904518
-0.000909436
2.74003e-06
-2.1014e-06
0.00090875
-0.000906863
1.37556e-06
-5.98358e-07
0.000906031
-0.000906725
-4.77598e-07
1.38517e-06
0.000905756
-0.000907498
-2.04215e-06
2.77112e-06
0.000906702
-0.000906265
-3.65487e-06
4.45179e-06
0.000905394
-0.000906738
-5.2312e-06
5.85531e-06
0.000906036
-0.000907318
-6.48077e-06
6.90753e-06
0.00090681
-0.000908019
-7.28604e-06
7.49418e-06
0.000907725
-0.000908782
-7.64879e-06
7.62683e-06
0.000908716
-0.000910996
-7.34764e-06
6.28661e-06
0.000911966
-0.000912261
-5.56644e-06
5.55578e-06
0.000912179
-0.000911378
-5.0817e-06
4.42055e-06
0.000911945
-0.000912547
-3.59345e-06
2.67692e-06
0.000913369
-0.000913689
-1.68972e-06
4.0734e-07
0.000914877
-0.00091504
8.50843e-07
-2.31085e-06
0.000916406
-0.000916347
3.85814e-06
-5.71943e-06
0.000918115
-0.000917983
7.58329e-06
-9.6766e-06
0.000919984
-0.000919854
1.19971e-05
-1.447e-05
0.000922237
-0.000922218
1.71006e-05
-2.00165e-05
0.000925046
-0.00092521
2.31339e-05
-2.67876e-05
0.000928778
-0.000929502
3.04939e-05
-3.459e-05
0.000933515
-0.00093526
3.90164e-05
-4.40128e-05
0.000940176
-0.000943736
4.94291e-05
-5.54153e-05
0.000949645
-0.000956423
6.1423e-05
-6.77167e-05
0.000962643
-0.000975403
7.54926e-05
-8.41568e-05
0.000983997
-0.00100888
9.38932e-05
-0.000103842
0.00101876
-0.0010241
0.000108964
-9.78704e-05
0.00101295
-0.000654503
6.2267e-05
-1.76236e-05
0.000609807
-0.000327041
1.91101e-05
0.000309044
-1.06317e-06
-0.000914627
-5.11234e-05
7.85163e-05
0.00088728
-0.00103249
-9.06461e-05
8.98326e-05
0.00103334
-0.000994399
-8.31995e-05
7.55695e-05
0.00100207
-0.000965953
-6.84844e-05
6.21194e-05
0.000972358
-0.000949861
-5.62824e-05
5.12172e-05
0.000954967
-0.000938679
-4.5768e-05
4.06761e-05
0.000943812
-0.000931277
-3.57674e-05
3.16825e-05
0.000935405
-0.000925913
-2.78381e-05
2.42572e-05
0.000929536
-0.00092199
-2.09859e-05
1.79466e-05
0.000925073
-0.000918972
-1.50875e-05
1.24364e-05
0.000921665
-0.000916672
-1.00475e-05
7.74602e-06
0.000919015
-0.000914692
-5.79357e-06
3.61048e-06
0.000916916
-0.000912797
-1.4641e-06
-4.13637e-07
0.000914713
-0.000911394
2.15737e-06
-3.74053e-06
0.000913014
-0.000909911
5.18934e-06
-6.3797e-06
0.000911135
-0.000908704
7.73565e-06
-8.7341e-06
0.000909732
-0.00090704
9.28816e-06
-1.08912e-05
0.000908669
-0.000906905
1.18351e-05
-1.12223e-05
0.000906312
-0.000907332
1.43038e-05
-1.64246e-05
0.000909467
-0.000907715
1.60539e-05
-1.63247e-05
0.000907994
-0.000906606
1.58259e-05
-1.54895e-05
0.00090627
-0.000905676
1.49972e-05
-1.41527e-05
0.000904824
-0.000904488
1.32447e-05
-1.23205e-05
0.000903549
-0.000903833
1.1194e-05
-1.01434e-05
0.000902759
-0.000905783
9.27268e-06
-7.83191e-06
0.000904311
-0.000903227
6.31304e-06
-4.80695e-06
0.000901682
-0.00090791
3.36073e-06
-2.18718e-06
0.00090669
-0.00090486
1.05715e-06
3.65163e-07
0.000903383
-0.000904634
-1.78519e-06
3.32104e-06
0.000903037
-0.000905813
-4.85795e-06
5.4912e-06
0.000905112
-0.000904412
-6.54825e-06
7.65502e-06
0.000903232
-0.000905244
-8.73204e-06
9.62976e-06
0.000904268
-0.000906357
-1.03725e-05
1.10876e-05
0.00090556
-0.000907423
-1.16176e-05
1.20393e-05
0.000906915
-0.000908779
-1.21712e-05
1.189e-05
0.000908972
-0.000913494
-1.07192e-05
9.5344e-06
0.000914588
-0.000912094
-1.01411e-05
1.00318e-05
0.000912112
-0.000912838
-9.33205e-06
8.51796e-06
0.000913559
-0.000914441
-7.61254e-06
6.39412e-06
0.000915567
-0.000916133
-5.084e-06
3.66163e-06
0.000917463
-0.000917957
-2.14635e-06
4.16976e-07
0.000919594
-0.000919977
1.51201e-06
-3.55887e-06
0.000921932
-0.000922184
5.71354e-06
-8.19798e-06
0.000924579
-0.000924913
1.07034e-05
-1.34506e-05
0.000927573
-0.000928151
1.64412e-05
-1.95916e-05
0.000931216
-0.000932278
2.3013e-05
-2.66182e-05
0.000935801
-0.000937599
3.04222e-05
-3.46489e-05
0.000941746
-0.000944955
3.90085e-05
-4.3124e-05
0.000948993
-0.000954341
4.73154e-05
-5.26987e-05
0.000959651
-0.000969317
5.85242e-05
-6.48065e-05
0.000975529
-0.000991947
7.14069e-05
-7.8707e-05
0.000999181
-0.0010264
8.61571e-05
-9.16797e-05
0.00103186
-0.000997787
8.93994e-05
-7.18743e-05
0.000980207
-0.000573269
4.00364e-05
-1.00533e-05
0.000543233
-0.000294101
1.32607e-05
0.000281627
-7.34371e-07
-0.0008611
-3.74403e-05
6.1879e-05
0.000836711
-0.00103177
-7.66737e-05
8.00948e-05
0.00102839
-0.00100901
-7.66014e-05
7.06245e-05
0.00101503
-0.000978316
-6.44256e-05
5.85675e-05
0.000984215
-0.000960164
-5.33366e-05
4.83592e-05
0.000965184
-0.000948304
-4.36364e-05
3.92829e-05
0.0009527
-0.000940019
-3.51282e-05
3.12015e-05
0.000943989
-0.000934013
-2.74489e-05
2.41121e-05
0.000937394
-0.000928323
-1.99003e-05
1.58866e-05
0.000932382
-0.000924454
-1.16104e-05
8.7564e-06
0.000927352
-0.000921268
-6.04041e-06
3.49915e-06
0.000923854
-0.000918755
-1.1921e-06
-9.46235e-07
0.000920936
-0.000916757
2.749e-06
-4.28316e-06
0.000918332
-0.000914653
5.58193e-06
-7.32175e-06
0.000916431
-0.000912872
9.42557e-06
-1.10527e-05
0.000914535
-0.00091055
1.22236e-05
-1.43257e-05
0.000912684
-0.000909857
1.57498e-05
-1.5478e-05
0.000909613
-0.00090972
1.91115e-05
-2.07102e-05
0.000911341
-0.000909778
2.11058e-05
-2.20868e-05
0.000910776
-0.000907631
2.20573e-05
-2.19405e-05
0.000907524
-0.000905769
2.16224e-05
-2.10064e-05
0.000905156
-0.000903889
1.9984e-05
-1.91377e-05
0.000903038
-0.000902394
1.79255e-05
-1.65685e-05
0.000901025
-0.000901976
1.5035e-05
-1.36313e-05
0.000900551
-0.000901958
1.25137e-05
-1.0326e-05
0.000899741
-0.000899808
8.14129e-06
-6.04534e-06
0.000897674
-0.000905236
4.00472e-06
-2.24874e-06
0.000903433
-0.000901713
4.34084e-07
1.58459e-06
0.000899639
-0.000900596
-3.67862e-06
5.80245e-06
0.00089841
-0.000905281
-8.11909e-06
8.98881e-06
0.000904343
-0.000902024
-1.03871e-05
1.18976e-05
0.000900439
-0.00090318
-1.33556e-05
1.45848e-05
0.000901871
-0.000904794
-1.57024e-05
1.65539e-05
0.000903859
-0.000906585
-1.72737e-05
1.77358e-05
0.000906036
-0.000909884
-1.80614e-05
1.76341e-05
0.000910221
-0.000914154
-1.65788e-05
1.67517e-05
0.000913889
-0.000912523
-1.64917e-05
1.58819e-05
0.000913041
-0.000914405
-1.50485e-05
1.39746e-05
0.000915386
-0.000916739
-1.28845e-05
1.14615e-05
0.00091807
-0.000919055
-1.00294e-05
8.2713e-06
0.000920721
-0.000921504
-6.5094e-06
4.42666e-06
0.000923495
-0.00092406
-2.34319e-06
-5.95728e-08
0.000926373
-0.000927037
2.46402e-06
-5.08539e-06
0.000929571
-0.000930381
7.81574e-06
-1.08695e-05
0.000933349
-0.000934401
1.39388e-05
-1.73382e-05
0.000937717
-0.000939395
2.07639e-05
-2.45294e-05
0.000943081
-0.000945493
2.72133e-05
-3.06556e-05
0.000948859
-0.000953341
3.50725e-05
-3.95428e-05
0.000957738
-0.000964969
4.42967e-05
-4.91198e-05
0.000969722
-0.000981279
5.44731e-05
-5.99435e-05
0.000986683
-0.00100582
6.58096e-05
-7.18017e-05
0.00101175
-0.00103527
7.71588e-05
-7.89993e-05
0.00103705
-0.000961767
7.24191e-05
-5.38527e-05
0.000943146
-0.000518298
2.7748e-05
-6.79065e-06
0.000497287
-0.000271013
9.71001e-06
0.000261893
-5.3404e-07
-0.000814133
-2.81506e-05
4.90407e-05
0.000793295
-0.00102349
-6.40641e-05
7.00051e-05
0.00101759
-0.00102033
-6.88604e-05
6.44838e-05
0.00102475
-0.000989731
-5.91252e-05
5.3764e-05
0.000995134
-0.000970021
-4.87991e-05
4.41309e-05
0.000974733
-0.000957089
-3.96562e-05
3.53834e-05
0.000961406
-0.000947804
-3.13537e-05
2.73902e-05
0.000951813
-0.000940881
-2.37567e-05
2.00743e-05
0.000944609
-0.00093556
-1.68183e-05
1.35096e-05
0.000938915
-0.000931471
-1.05187e-05
7.68059e-06
0.000934355
-0.000927982
-4.95209e-06
2.27383e-06
0.000930706
-0.000923231
1.41813e-06
-5.15403e-06
0.000927011
-0.000920232
8.76375e-06
-1.23088e-05
0.00092382
-0.000917622
1.53093e-05
-1.72182e-05
0.000919571
-0.000915508
1.8676e-05
-1.93436e-05
0.000916214
-0.000915326
1.87333e-05
-1.64367e-05
0.000913064
-0.000913653
2.42832e-05
-2.6516e-05
0.000915917
-0.000912007
2.74542e-05
-2.84423e-05
0.00091302
-0.000910775
2.82874e-05
-2.81999e-05
0.000910708
-0.000907591
2.90504e-05
-2.9243e-05
0.000907797
-0.000904455
2.87767e-05
-2.80645e-05
0.00090375
-0.000901878
2.69767e-05
-2.56031e-05
0.000900503
-0.000899443
2.39896e-05
-2.21736e-05
0.000897618
-0.000898751
2.01387e-05
-1.79681e-05
0.000896562
-0.000897578
1.58187e-05
-1.32935e-05
0.000895025
-0.00089524
1.05241e-05
-7.6925e-06
0.000892371
-0.000901302
4.86428e-06
-2.30489e-06
0.000898696
-0.000897231
-2.96827e-07
3.12356e-06
0.000894348
-0.000896023
-6.0378e-06
8.7932e-06
0.000893204
-0.000902669
-1.13268e-05
1.32253e-05
0.000900699
-0.000898612
-1.54502e-05
1.75342e-05
0.000896451
-0.000900411
-1.94643e-05
2.11178e-05
0.000898675
-0.000902834
-2.2575e-05
2.381e-05
0.000901513
-0.000905455
-2.46477e-05
2.50682e-05
0.000904945
-0.000911272
-2.42094e-05
2.22516e-05
0.000913139
-0.000913304
-2.35664e-05
2.43675e-05
0.00091241
-0.000913669
-2.41059e-05
2.32616e-05
0.000914421
-0.000916506
-2.22598e-05
2.09889e-05
0.000917685
-0.000919459
-1.96821e-05
1.81228e-05
0.000920926
-0.000922355
-1.64414e-05
1.43224e-05
0.000924384
-0.000925457
-1.23962e-05
1.00468e-05
0.000927718
-0.000928753
-7.59674e-06
5.04038e-06
0.000931222
-0.000932362
-2.28671e-06
-5.64508e-07
0.000935128
-0.000936348
3.60959e-06
-6.74623e-06
0.000939402
-0.000941134
9.76798e-06
-1.20538e-05
0.00094334
-0.000945694
1.5358e-05
-1.90547e-05
0.000949314
-0.000952829
2.28462e-05
-2.69329e-05
0.000956842
-0.000962165
3.10172e-05
-3.52904e-05
0.000966369
-0.000974536
3.97893e-05
-4.44879e-05
0.000979168
-0.000991958
4.93384e-05
-5.45422e-05
0.000997099
-0.0010173
6.0359e-05
-6.55629e-05
0.00102244
-0.00103751
6.90815e-05
-6.88773e-05
0.00103725
-0.00092496
6.10105e-05
-4.36612e-05
0.000907557
-0.00047916
2.21011e-05
-5.88745e-06
0.000462893
-0.000254035
7.29671e-06
0.000247199
-4.00864e-07
-0.000774318
-2.15885e-05
3.89221e-05
0.00075704
-0.00101055
-5.30738e-05
6.04354e-05
0.00100323
-0.00102841
-6.14189e-05
5.83545e-05
0.00103152
-0.0010002
-5.37948e-05
4.88544e-05
0.00100518
-0.000979753
-4.41522e-05
4.00082e-05
0.000983941
-0.000965639
-3.54712e-05
3.12043e-05
0.000969951
-0.000955679
-2.69248e-05
2.27759e-05
0.000959874
-0.00094824
-1.83871e-05
1.47563e-05
0.000951917
-0.000942212
-1.11994e-05
7.76271e-06
0.000945696
-0.000937317
-4.5062e-06
1.37277e-06
0.000940498
-0.000933328
1.57563e-06
-4.39514e-06
0.000936195
-0.000930103
6.91759e-06
-9.09684e-06
0.000932328
-0.000926227
1.21008e-05
-1.52614e-05
0.000929432
-0.000922698
1.71695e-05
-1.95248e-05
0.000925096
-0.000920526
2.30646e-05
-2.45671e-05
0.00092207
-0.000914866
2.47208e-05
-3.45229e-05
0.000924706
-0.000916511
3.49763e-05
-3.66439e-05
0.000918213
-0.0009135
3.72602e-05
-3.78231e-05
0.000914093
-0.000910784
3.81182e-05
-3.77186e-05
0.00091041
-0.000908078
3.68195e-05
-3.75588e-05
0.000908836
-0.000902747
3.79556e-05
-3.7326e-05
0.00090213
-0.000899007
3.59454e-05
-3.42003e-05
0.000897266
-0.000895556
3.21373e-05
-2.97058e-05
0.00089312
-0.000894073
2.69928e-05
-2.40556e-05
0.000891121
-0.000892102
2.10383e-05
-1.7602e-05
0.000888641
-0.000889047
1.38496e-05
-9.95355e-06
0.000885115
-0.000895627
6.02194e-06
-2.37478e-06
0.000891934
-0.000891004
-1.33435e-06
5.2407e-06
0.000887041
-0.000889949
-9.22583e-06
1.30241e-05
0.000886086
-0.000898254
-1.65414e-05
1.95988e-05
0.000895123
-0.000893998
-2.23505e-05
2.5091e-05
0.000891179
-0.000896753
-2.76417e-05
2.97901e-05
0.00089452
-0.000900188
-3.16482e-05
3.31009e-05
0.000898648
-0.0009047
-3.39752e-05
3.30716e-05
0.000905513
-0.000914046
-3.14216e-05
3.31135e-05
0.000912262
-0.000911911
-3.45407e-05
3.43281e-05
0.000912032
-0.000915211
-3.37004e-05
3.25445e-05
0.000916275
-0.000918929
-3.14003e-05
2.98629e-05
0.000920375
-0.000922782
-2.82636e-05
2.64018e-05
0.000924554
-0.000926405
-2.43015e-05
2.19673e-05
0.000928651
-0.000930068
-1.96175e-05
1.69549e-05
0.000932644
-0.000933977
-1.42998e-05
1.13472e-05
0.000936845
-0.000938162
-8.41643e-06
5.83121e-06
0.000940665
-0.000941764
-3.59255e-06
3.5685e-07
0.00094492
-0.000946883
3.14935e-06
-6.70694e-06
0.000950364
-0.000953104
1.04296e-05
-1.42995e-05
0.000956901
-0.000960875
1.84424e-05
-2.30571e-05
0.00096542
-0.00097076
2.74167e-05
-3.24707e-05
0.000975748
-0.00098384
3.80589e-05
-4.30454e-05
0.000988763
-0.00100268
4.74646e-05
-5.12549e-05
0.00100642
-0.00102753
5.42847e-05
-5.763e-05
0.00103082
-0.00103435
5.93785e-05
-5.64931e-05
0.00103142
-0.000890247
4.65654e-05
-3.10857e-05
0.000874716
-0.000449571
1.45943e-05
-3.23499e-06
0.000438161
-0.000241248
5.58572e-06
0.000236029
-3.06298e-07
-0.000741224
-1.67847e-05
3.10115e-05
0.000727055
-0.00099548
-4.38605e-05
5.17335e-05
0.000987651
-0.00103398
-5.38622e-05
5.20929e-05
0.00103579
-0.00100995
-4.82765e-05
4.38311e-05
0.00101444
-0.000988369
-3.95455e-05
3.50815e-05
0.000992878
-0.000974107
-3.07276e-05
2.63948e-05
0.000978486
-0.000963847
-2.21222e-05
1.76225e-05
0.000968394
-0.000955943
-1.38075e-05
1.00778e-05
0.000959721
-0.000949666
-6.38435e-06
2.88269e-06
0.000953216
-0.000944506
5.78878e-07
-3.84403e-06
0.00094782
-0.000939182
7.89639e-06
-1.18441e-05
0.000943178
-0.000934905
1.59348e-05
-2.03239e-05
0.000939341
-0.000931161
2.34851e-05
-2.59954e-05
0.000933718
-0.000929123
2.78897e-05
-2.80877e-05
0.000929366
-0.000922519
2.8803e-05
-3.97097e-05
0.00093347
-0.000924529
3.98591e-05
-4.26494e-05
0.000927361
-0.000920531
4.49903e-05
-4.65526e-05
0.000922133
-0.000915241
4.81749e-05
-4.9594e-05
0.000916696
-0.000910215
5.07863e-05
-5.14136e-05
0.000910874
-0.000907814
5.10654e-05
-4.99968e-05
0.000906771
-0.000901816
4.98361e-05
-4.96097e-05
0.000901609
-0.000895414
4.81217e-05
-4.58274e-05
0.000893131
-0.000890404
4.31419e-05
-3.99946e-05
0.000887259
-0.000887751
3.64143e-05
-3.24577e-05
0.000883785
-0.000884639
2.82554e-05
-2.36283e-05
0.000879992
-0.000880543
1.8487e-05
-1.31444e-05
0.000875167
-0.000887559
7.6918e-06
-2.48511e-06
0.000882307
-0.000882406
-2.77766e-06
8.23854e-06
0.000876888
-0.000881658
-1.36831e-05
1.88341e-05
0.00087644
-0.00089146
-2.35726e-05
2.78968e-05
0.00088706
-0.00088832
-3.19993e-05
3.56521e-05
0.000884585
-0.000892037
-3.8668e-05
4.14061e-05
0.000889212
-0.000897191
-4.37085e-05
4.51873e-05
0.000895622
-0.000906697
-4.50027e-05
4.38304e-05
0.000907777
-0.000910093
-4.5784e-05
4.71385e-05
0.000908646
-0.000912505
-4.71941e-05
4.6546e-05
0.000913062
-0.000917334
-4.55179e-05
4.42231e-05
0.000918539
-0.000922049
-4.26085e-05
4.06728e-05
0.000923896
-0.000926668
-3.85632e-05
3.62802e-05
0.000928864
-0.000931039
-3.37572e-05
3.11064e-05
0.000933605
-0.000935452
-2.82441e-05
2.52876e-05
0.000938326
-0.000939611
-2.29958e-05
2.04238e-05
0.000942102
-0.000943354
-1.70554e-05
1.35338e-05
0.000946798
-0.000948549
-9.75773e-06
5.42779e-06
0.000952803
-0.000954288
-1.26423e-06
-3.44877e-06
0.000958928
-0.00096101
8.83951e-06
-1.32899e-05
0.000965391
-0.000971005
1.63711e-05
-1.84661e-05
0.000973034
-0.000979016
2.1644e-05
-2.54585e-05
0.000982768
-0.000992291
2.90834e-05
-3.32608e-05
0.00099641
-0.0010108
3.76084e-05
-4.19203e-05
0.00101506
-0.00103429
4.6096e-05
-4.93364e-05
0.00103748
-0.00102817
5.00488e-05
-4.63261e-05
0.0010244
-0.000860348
3.70415e-05
-2.38964e-05
0.000847154
-0.000428381
1.08437e-05
-2.32157e-06
0.000419811
-0.000231456
4.32915e-06
0.000227425
-2.37603e-07
-0.000713927
-1.31803e-05
2.49528e-05
0.000702212
-0.000979925
-3.61441e-05
4.38435e-05
0.00097227
-0.00103722
-4.68165e-05
4.59503e-05
0.00103813
-0.00101907
-4.27891e-05
3.89232e-05
0.00102298
-0.000997331
-3.44603e-05
3.01674e-05
0.00100167
-0.000982522
-2.57161e-05
2.13643e-05
0.00098692
-0.0009721
-1.67152e-05
1.27825e-05
0.00097608
-0.00096398
-8.85441e-06
5.08459e-06
0.000967798
-0.000957595
-1.20779e-06
-2.40486e-06
0.000961257
-0.000951354
6.12018e-06
-1.0412e-05
0.000955695
-0.000946385
1.47937e-05
-1.94207e-05
0.000951062
-0.000941992
2.43324e-05
-2.80013e-05
0.00094571
-0.000938267
3.11008e-05
-3.34751e-05
0.000940691
-0.000934589
3.42243e-05
-3.55055e-05
0.000935918
-0.000934533
4.83558e-05
-5.08102e-05
0.000937035
-0.000929737
5.38792e-05
-5.56078e-05
0.000931512
-0.000924727
5.73625e-05
-5.94093e-05
0.000926819
-0.000918169
6.18964e-05
-6.3963e-05
0.000920278
-0.000911715
6.53609e-05
-6.62294e-05
0.000912623
-0.000905755
6.66408e-05
-6.59542e-05
0.000905103
-0.000902051
6.42327e-05
-6.37836e-05
0.000901631
-0.00089101
6.35716e-05
-6.1698e-05
0.000889157
-0.000883639
5.85461e-05
-5.46215e-05
0.000879727
-0.000878948
4.9788e-05
-4.33571e-05
0.000872517
-0.000875145
3.54807e-05
-3.08345e-05
0.000870485
-0.000868888
2.50206e-05
-1.77952e-05
0.000861634
-0.000876069
1.0168e-05
-2.68164e-06
0.000868538
-0.000870432
-4.86936e-06
1.25102e-05
0.000862732
-0.000870675
-1.98343e-05
2.54649e-05
0.000864975
-0.000881224
-2.97542e-05
3.79427e-05
0.000872956
-0.000880296
-4.48311e-05
4.98764e-05
0.000875165
-0.000886276
-5.40779e-05
5.71993e-05
0.000883065
-0.000894739
-5.91046e-05
5.83416e-05
0.000895411
-0.000907049
-5.75247e-05
6.09884e-05
0.000903492
-0.000907764
-6.32557e-05
6.3506e-05
0.000907423
-0.000913873
-6.2773e-05
6.16494e-05
0.000914907
-0.000920131
-6.01024e-05
5.81584e-05
0.000921988
-0.000925948
-5.59627e-05
5.35466e-05
0.000928278
-0.000931369
-5.09442e-05
4.7979e-05
0.000934251
-0.000936575
-4.50944e-05
4.25455e-05
0.000939042
-0.000940625
-3.95822e-05
3.57098e-05
0.000944419
-0.00094579
-3.0963e-05
2.59583e-05
0.000950718
-0.000950887
-2.0088e-05
1.56321e-05
0.000955269
-0.000958519
-1.28205e-05
1.11767e-05
0.000960091
-0.000961734
-8.18777e-06
4.49177e-06
0.000965361
-0.000968377
-1.12673e-06
-2.73073e-06
0.000972169
-0.000976523
6.68416e-06
-1.08113e-05
0.000980588
-0.000986892
1.49296e-05
-1.91185e-05
0.000991022
-0.00100054
2.3313e-05
-2.75893e-05
0.00100477
-0.00101935
3.17562e-05
-3.60083e-05
0.00102356
-0.00104023
3.98124e-05
-4.24074e-05
0.00104277
-0.00102028
4.22258e-05
-3.81127e-05
0.00101612
-0.000834963
2.94621e-05
-1.83387e-05
0.000823793
-0.000412321
8.06582e-06
-1.59206e-06
0.000405801
-0.00022384
3.34583e-06
0.000220742
-1.86823e-07
-0.000691476
-1.04248e-05