/*--------------------------------*- C++ -*----------------------------------*\
  =========                 |
  \\      /  F ield         | OpenFOAM: The Open Source CFD Toolbox
   \\    /   O peration     | Website:  https://openfoam.org
    \\  /    A nd           | Version:  7
     \\/     M anipulation  |
\*---------------------------------------------------------------------------*/
FoamFile
{
    version     2.0;
    format      ascii;
    class       volVectorField;
    location    "50";
    object      U;
}
// * * * * * * * * * * * * * * * * * * * * * * * * * * * * * * * * * * * * * //

dimensions      [0 1 -1 0 0 0 0];

internalField   nonuniform List<vector> 
17475
(
(1.01826 0.205794 -1.62798e-20)
(0.995996 0.0223628 -2.57594e-20)
(0.999789 0.00972764 0)
(0.999944 0.00486872 0)
(0.999981 0.00302499 0)
(0.999992 0.00206251 0)
(0.999996 0.00147473 0)
(0.999997 0.00107798 0)
(0.999998 0.000791578 -5.29141e-20)
(0.999998 0.000575032 0)
(0.999998 0.000405585 0)
(0.999998 0.000270012 0)
(0.999998 0.000159977 0)
(0.999999 7.01562e-05 0)
(0.999999 -3.02561e-06 0)
(0.999999 -6.17802e-05 0)
(0.999999 -0.0001078 0)
(0.999999 -0.000142073 0)
(0.999999 -0.000165529 0)
(0.999999 -0.000178703 0)
(0.999999 -0.000182325 -2.05989e-19)
(0.999999 -0.000176989 5.85997e-22)
(0.999999 -0.000163571 0)
(1 -0.000142715 -6.53216e-21)
(1 -0.000115782 0)
(1 -8.33345e-05 -1.31168e-20)
(1 -4.80432e-05 0)
(1 -1.07255e-05 0)
(1 2.68522e-05 -1.64857e-21)
(1 6.32449e-05 5.27221e-20)
(1 9.67365e-05 5.18696e-20)
(1 0.000125937 0)
(1 0.000149381 0)
(1 0.000165979 -5.22235e-20)
(1 0.000174614 -5.21305e-20)
(1 0.000174502 0)
(1 0.000164808 -4.03873e-22)
(1 0.000144915 0)
(1 0.000114062 5.12934e-20)
(1 7.1271e-05 2.5595e-20)
(1 1.57716e-05 -2.55527e-20)
(1 -5.35964e-05 0)
(1 -0.000138992 -2.56169e-20)
(1 -0.00024354 0)
(1 -0.000372118 -1.29379e-20)
(1 -0.000532037 0)
(0.999999 -0.000734808 2.66824e-20)
(0.999999 -0.000998767 0)
(0.999997 -0.00135423 0)
(0.999995 -0.00185277 0)
(0.999992 -0.00258416 0)
(0.999988 -0.00368915 -1.63477e-20)
(0.999952 -0.00537875 3.63528e-20)
(0.998952 -0.00294593 4.00751e-20)
(1.02904 -0.0897338 -3.9293e-20)
(0.871292 0.0788653 1.95721e-20)
(1.10038 0.0970544 0)
(1.0349 0.0582174 0)
(1.01513 0.0370159 0)
(1.00796 0.0249355 -1.37705e-19)
(1.00481 0.0175443 -1.32015e-19)
(1.00322 0.0126704 1.25563e-19)
(1.00231 0.00924106 0)
(1.00174 0.00669882 0)
(1.00137 0.00473803 0)
(1.0011 0.00317932 0)
(1.00091 0.00191376 0)
(1.00075 0.000871897 0)
(1.00063 8.88512e-06 0)
(1.00052 -0.000704804 0)
(1.00042 -0.00128856 0)
(1.00033 -0.00175586 0)
(1.00025 -0.0021152 0)
(1.00017 -0.00237337 0)
(1.0001 -0.00253518 0)
(1.00003 -0.0026059 0)
(0.999956 -0.00259054 0)
(0.999892 -0.00249442 2.58554e-19)
(0.999836 -0.00232803 -6.47457e-20)
(0.999787 -0.00209655 -1.30921e-19)
(0.999746 -0.00181294 2.90613e-22)
(0.999717 -0.00149248 -1.66296e-20)
(0.999698 -0.00114865 0)
(0.99969 -0.000795165 -8.42803e-21)
(0.999694 -0.000448065 8.47233e-21)
(0.999709 -0.000121722 -1.36064e-19)
(0.999735 0.000169521 1.38719e-19)
(0.99977 0.000413041 0)
(0.999813 0.000597779 -2.74563e-19)
(0.999864 0.000713903 2.14866e-21)
(0.999921 0.000753053 2.75092e-19)
(0.999984 0.000707879 0)
(1.00005 0.00057182 1.37659e-19)
(1.00013 0.000337894 0)
(1.00021 -3.09814e-06 -1.37756e-19)
(1.0003 -0.000459874 1.37888e-19)
(1.00041 -0.00104565 0)
(1.00053 -0.00177996 0)
(1.00068 -0.00269154 0)
(1.00087 -0.00382332 8.308e-23)
(1.00112 -0.00524026 7.14845e-20)
(1.00147 -0.00704216 -7.27522e-20)
(1.00197 -0.00938654 -3.69866e-20)
(1.00273 -0.0125299 0)
(1.00394 -0.0169064 0)
(1.00596 -0.0232913 0)
(1.0095 -0.0331508 -4.11625e-20)
(1.01607 -0.0498023 4.25451e-20)
(1.02817 -0.0729685 2.40095e-21)
(1.07044 -0.17822 2.80063e-21)
(0.609967 0.0196395 1.00823e-20)
(1.13943 0.106349 -1.45872e-20)
(1.07865 0.0751853 -6.06045e-20)
(1.04124 0.0539665 0)
(1.02479 0.0397345 0)
(1.01621 0.0296272 -1.21112e-19)
(1.01132 0.0221991 0)
(1.00833 0.0165907 0)
(1.00639 0.0122404 0)
(1.00505 0.00878302 2.34118e-19)
(1.0041 0.00597946 0)
(1.00337 0.00367226 0)
(1.0028 0.00175556 0)
(1.00234 0.000159275 0)
(1.00193 -0.00116431 0)
(1.00157 -0.00224702 -2.37215e-19)
(1.00124 -0.00311025 0)
(1.00093 -0.00376848 0)
(1.00063 -0.00423214 0)
(1.00035 -0.0045097 0)
(1.00008 -0.00460988 5.00872e-19)
(0.999822 -0.0045411 0)
(0.999587 -0.00431666 1.92559e-19)
(0.999376 -0.00394784 -1.29996e-19)
(0.999195 -0.00345769 0)
(0.999051 -0.00286796 -3.31779e-20)
(0.998947 -0.0022053 0)
(0.998887 -0.00149926 4.20132e-20)
(0.998871 -0.00077843 2.5376e-20)
(0.998899 -7.58797e-05 0)
(0.998971 0.000580508 -1.19654e-19)
(0.999083 0.00116167 4.29612e-21)
(0.99923 0.00164243 -2.15529e-21)
(0.99941 0.00200111 -1.37565e-19)
(0.999616 0.00221896 1.37604e-19)
(0.999846 0.00228063 0)
(1.0001 0.00217317 2.66583e-19)
(1.00037 0.00188557 -2.75066e-19)
(1.00066 0.00140637 2.92566e-19)
(1.00098 0.000721855 0)
(1.00133 -0.000182847 3.45269e-20)
(1.00172 -0.00133017 -1.86031e-22)
(1.00218 -0.00275179 1.38378e-19)
(1.00274 -0.00449451 -3.19448e-22)
(1.00345 -0.00662768 -6.95523e-20)
(1.00437 -0.00925354 0)
(1.00563 -0.0125257 0)
(1.00744 -0.0166766 3.55265e-20)
(1.01011 -0.0220648 -3.64866e-20)
(1.01428 -0.0292544 -5.20053e-22)
(1.02108 -0.039142 1.11573e-19)
(1.03275 -0.0532089 -7.60814e-20)
(1.05382 -0.0736906 7.45738e-20)
(1.10022 -0.10549 0)
(0.962869 -0.117844 3.88374e-20)
(0.48138 0.00951606 0)
(1.1162 0.0896543 0)
(1.11518 0.0800626 2.60929e-20)
(1.06624 0.0606716 0)
(1.04288 0.0468775 1.11747e-19)
(1.02987 0.0363333 0)
(1.02186 0.0280368 0)
(1.01662 0.0213907 0)
(1.01304 0.0159837 0)
(1.01049 0.0115239 0)
(1.0086 0.0078039 0)
(1.00714 0.0046746 0)
(1.00597 0.00203229 2.28952e-19)
(1.00499 -0.00019626 0)
(1.00414 -0.00206105 0)
(1.00337 -0.00359526 0)
(1.00265 -0.0048211 0)
(1.00197 -0.00575277 0)
(1.00133 -0.00640063 0)
(1.0007 -0.00677283 -2.44533e-19)
(1.0001 -0.00687729 0)
(0.999539 -0.00672705 0)
(0.999017 -0.00633274 -1.28309e-19)
(0.998553 -0.00572069 0)
(0.998159 -0.00491984 -1.97817e-19)
(0.997845 -0.00396523 3.31589e-20)
(0.997624 -0.00289748 -1.34468e-19)
(0.997503 -0.00176312 2.64971e-22)
(0.997485 -0.00060706 6.84103e-20)
(0.997567 0.000515804 5.13463e-20)
(0.997748 0.00156356 1.37535e-19)
(0.998019 0.00248802 4.30522e-21)
(0.998371 0.0032515 0)
(0.998791 0.00382168 -3.87707e-24)
(0.99927 0.00417145 0)
(0.999797 0.00427969 -1.28968e-19)
(1.00036 0.00413009 -1.37354e-19)
(1.00097 0.0037099 1.37062e-19)
(1.00162 0.00300508 2.74241e-19)
(1.00231 0.00200315 1.11393e-19)
(1.00307 0.00068907 -3.43069e-20)
(1.00391 -0.00096049 -6.8404e-20)
(1.00489 -0.00298048 0)
(1.00605 -0.00542081 0)
(1.00749 -0.00835459 -6.83964e-20)
(1.00934 -0.0118869 6.84142e-20)
(1.01182 -0.0161682 1.71503e-19)
(1.01525 -0.0214128 3.46893e-20)
(1.02018 -0.0279247 -1.857e-22)
(1.02755 -0.0361338 -3.42275e-20)
(1.03896 -0.0466376 1.37005e-19)
(1.05733 -0.0603119 -1.01733e-19)
(1.08946 -0.0784805 9.65761e-20)
(1.13277 -0.100706 6.17565e-20)
(0.812411 -0.0598125 -1.79936e-20)
(0.401412 0.00534989 0)
(1.06177 0.0685893 -2.36194e-20)
(1.13865 0.0762634 4.62182e-20)
(1.08892 0.0610779 4.91511e-20)
(1.06005 0.0487673 5.11664e-20)
(1.04363 0.0388721 1.04398e-19)
(1.03311 0.0306341 -1.05792e-19)
(1.02594 0.0236907 -1.06866e-19)
(1.02084 0.0177932 0)
(1.01708 0.0127513 -2.16923e-19)
(1.0142 0.00841852 -4.37528e-19)
(1.01192 0.00468479 -2.20568e-19)
(1.01005 0.00146981 -2.22805e-19)
(1.00845 -0.00128493 0)
(1.00703 -0.00361846 0)
(1.00573 -0.00555577 0)
(1.00451 -0.00711164 -4.71168e-19)
(1.00335 -0.00829371 -3.58068e-21)
(1.00221 -0.00910612 -4.85382e-19)
(1.00111 -0.00955031 -2.4468e-19)
(1.00006 -0.00963413 -6.21916e-20)
(0.999047 -0.00935921 1.26301e-19)
(0.998116 -0.00874925 -1.28117e-19)
(0.997285 -0.00783174 1.30324e-19)
(0.996578 -0.00664536 0)
(0.99602 -0.0052375 -6.75294e-20)
(0.995631 -0.00366667 1.35823e-19)
(0.995426 -0.00200044 0)
(0.995412 -0.000304153 -3.46588e-20)
(0.995584 0.00133972 -1.73671e-20)
(0.995936 0.00287259 -1.38491e-19)
(0.996452 0.00422325 1.30359e-20)
(0.997113 0.00533941 0)
(0.997894 0.0061776 1.47144e-19)
(0.998773 0.00670322 0)
(0.99973 0.00689143 0)
(1.00075 0.00672576 -2.73735e-19)
(1.00183 0.00619613 -6.78094e-20)
(1.00296 0.00528906 1.44687e-19)
(1.00416 0.00400159 1.27496e-19)
(1.00544 0.00232316 -1.526e-19)
(1.00686 0.000237775 -1.35456e-19)
(1.00846 -0.00228053 -1.68632e-19)
(1.01033 -0.00527246 1.00893e-19)
(1.01259 -0.00879638 1.3373e-19)
(1.01544 -0.0129351 -3.31119e-20)
(1.01915 -0.0178024 0)
(1.02413 -0.0235498 -6.6047e-20)
(1.03104 -0.0303745 -6.5584e-20)
(1.04096 -0.0385299 -3.28339e-20)
(1.05566 -0.04832 -3.14035e-20)
(1.07841 -0.0601458 -9.31663e-20)
(1.11634 -0.0747688 -5.82719e-20)
(1.12223 -0.0826355 0)
(0.693304 -0.0291186 9.66673e-20)
(0.352179 0.00329471 0)
(0.999968 0.05115 0)
(1.14727 0.0688153 -8.52661e-20)
(1.10815 0.058536 -9.03873e-20)
(1.07551 0.0476364 0)
(1.0566 0.0386022 0)
(1.04423 0.0307821 9.893e-20)
(1.03555 0.0239163 0)
(1.02919 0.0178662 0)
(1.02435 0.012522 0)
(1.02056 0.0077973 -2.11097e-19)
(1.01747 0.00362581 -2.14198e-19)
(1.01487 -4.23936e-05 0)
(1.0126 -0.00324129 0)
(1.01055 -0.00599002 -3.27154e-21)
(1.00863 -0.00829806 0)
(1.0068 -0.0101664 9.23016e-19)
(1.00502 -0.0115891 9.42971e-19)
(1.00327 -0.012556 -4.80762e-19)
(1.00156 -0.0130626 2.41714e-19)
(0.999882 -0.0130931 3.09175e-19)
(0.99828 -0.0126574 -6.3449e-20)
(0.996789 -0.0117716 3.86483e-19)
(0.99545 -0.0104668 -6.5366e-20)
(0.994309 -0.00879064 4.79321e-22)
(0.993406 -0.00680427 -1.35077e-19)
(0.992783 -0.00458921 1.72379e-19)
(0.992464 -0.00224 1.38223e-19)
(0.992461 0.000150922 -4.9892e-22)
(0.992771 0.00246344 7.01966e-20)
(0.993373 0.00461634 7.0335e-20)
(0.994244 0.00651056 0)
(0.995344 0.00807475 -1.26498e-19)
(0.996629 0.00925457 0)
(0.99806 0.0100088 0)
(0.999599 0.0103123 1.71954e-19)
(1.00122 0.0101545 -1.37102e-19)
(1.00291 0.009529 0)
(1.00466 0.0084333 8.44893e-21)
(1.00647 0.00687866 0)
(1.00838 0.00486676 0)
(1.01044 0.002396 -1.50078e-19)
(1.01272 -0.000543019 1.66399e-20)
(1.01534 -0.00397134 1.70895e-22)
(1.01843 -0.00792411 -1.61998e-20)
(1.02223 -0.012451 -1.61792e-19)
(1.02703 -0.01762 -1.58775e-20)
(1.0333 -0.0235167 1.42332e-19)
(1.04175 -0.030245 -1.24995e-19)
(1.05348 -0.0379196 0)
(1.07034 -0.0466878 5.91406e-20)
(1.09588 -0.0567856 8.42309e-22)
(1.1331 -0.0680154 -5.48907e-20)
(1.08874 -0.0647738 -8.3357e-20)
(0.612739 -0.0165862 0)
(0.319138 0.00226284 8.62741e-21)
(0.942287 0.0383307 -2.22118e-20)
(1.14433 0.0601081 4.0086e-20)
(1.12383 0.0545078 0)
(1.08947 0.0449195 0)
(1.06862 0.036631 -8.99775e-20)
(1.05491 0.0292669 0)
(1.04511 0.022598 -1.90664e-19)
(1.03776 0.0165351 -1.94635e-19)
(1.03204 0.0110246 0)
(1.02744 0.00602549 -1.01455e-19)
(1.02361 0.00151258 2.06953e-19)
(1.02031 -0.0025391 -4.20761e-19)
(1.01737 -0.00613774 0)
(1.01464 -0.00928172 0)
(1.01204 -0.0119602 0)
(1.00951 -0.0141525 -3.51461e-21)
(1.00701 -0.0158314 0)
(1.00451 -0.0169749 0)
(1.00201 -0.0175406 2.3973e-19)
(0.999545 -0.0175117 7.02762e-22)
(0.997164 -0.01688 0)
(0.994924 -0.0156529 0)
(0.992895 -0.0138598 3.97517e-19)
(0.991153 -0.0115552 2.70324e-19)
(0.989774 -0.00881546 3.45113e-20)
(0.988823 -0.00576285 0)
(0.988347 -0.00251628 2.82677e-19)
(0.988368 0.000789984 1.06504e-19)
(0.988878 0.00397838 -4.06518e-22)
(0.989842 0.00693822 0)
(0.991214 0.00953778 0)
(0.992923 0.0116733 8.46966e-21)
(0.994897 0.0132825 0)
(0.997067 0.0143204 0)
(0.999369 0.0147673 8.78136e-23)
(1.00176 0.014627 -2.7065e-19)
(1.00421 0.0138961 -1.35462e-19)
(1.00669 0.0126015 1.33656e-19)
(1.00922 0.0107706 8.24053e-21)
(1.01183 0.00842596 -1.30968e-19)
(1.01459 0.00558632 4.72719e-22)
(1.01758 0.00226332 4.3005e-22)
(1.02092 -0.00153912 1.61467e-20)
(1.02479 -0.00582963 -1.11045e-19)
(1.02941 -0.0106262 0)
(1.03512 -0.0159564 -1.39132e-19)
(1.0424 -0.0218507 0)
(1.05195 -0.0283539 -5.9548e-20)
(1.06492 -0.0355164 0)
(1.0832 -0.0434225 5.6741e-20)
(1.11045 -0.0522492 -2.06721e-22)
(1.14081 -0.0603485 -2.56692e-20)
(1.04809 -0.0503967 -8.12601e-20)
(0.557825 -0.0110671 4.00538e-20)
(0.295626 0.00163307 0)
(0.892326 0.0291712 -2.16804e-20)
(1.13371 0.0514974 0)
(1.13587 0.0497427 0)
(1.10222 0.0414009 4.07269e-20)
(1.07986 0.0336663 7.75421e-22)
(1.06515 0.0266672 0)
(1.05453 0.0201793 -8.92526e-20)
(1.04644 0.0141319 -1.84537e-19)
(1.04003 0.00849825 0)
(1.03476 0.00326669 0)
(1.03028 -0.00156685 0)
(1.02634 -0.00599514 0)
(1.02273 -0.0100026 -3.07818e-19)
(1.01932 -0.0135664 -1.04281e-19)
(1.01601 -0.0166524 0)
(1.0127 -0.0192181 1.37158e-20)
(1.00936 -0.0212211 3.35871e-19)
(1.00595 -0.0225868 -1.1285e-21)
(1.00249 -0.023261 -1.19588e-19)
(0.999031 -0.0231913 0)
(0.995634 -0.0223484 1.26231e-19)
(0.992394 -0.0207179 -5.11602e-22)
(0.989425 -0.0183196 1.35572e-19)
(0.986853 -0.0152114 0)
(0.984805 -0.0114869 -6.98932e-20)
(0.983393 -0.0073176 -7.18582e-20)
(0.982697 -0.00286784 1.46108e-19)
(0.982756 0.00166767 7.35011e-20)
(0.983558 0.00602844 -1.45486e-19)
(0.985045 0.0100571 0)
(0.987125 0.0135702 -1.80921e-20)
(0.989682 0.0164302 -1.42706e-19)
(0.992593 0.0185652 1.76335e-20)
(0.995742 0.0199327 7.64566e-22)
(0.999035 0.0205305 2.70793e-19)
(1.0024 0.0203813 1.35615e-19)
(1.00576 0.0195003 1.33455e-19)
(1.00911 0.0179549 -1.30911e-19)
(1.01245 0.0157971 0)
(1.01583 0.0130768 1.35885e-19)
(1.01931 0.00983896 0)
(1.023 0.00611984 0)
(1.02702 0.0019471 -1.25073e-19)
(1.03157 -0.00266004 0)
(1.03689 -0.00769295 6.00181e-20)
(1.04331 -0.0131443 1.18977e-19)
(1.05133 -0.0190225 2.96698e-20)
(1.06167 -0.0253371 -1.1401e-19)
(1.07548 -0.0321091 0)
(1.09477 -0.0394066 5.43699e-20)
(1.12262 -0.0472884 0)
(1.1415 -0.0526019 -2.4243e-20)
(1.00764 -0.0393235 5.27946e-20)
(0.517613 -0.00797419 0)
(0.278234 0.00121325 0)
(0.850358 0.0225225 -2.10537e-20)
(1.11882 0.0435684 -3.58343e-20)
(1.14453 0.0446581 3.61665e-20)
(1.11397 0.0375111 -3.74767e-20)
(1.09054 0.0301699 -7.82492e-20)
(1.07504 0.0234034 0)
(1.06384 0.0170191 0)
(1.05522 0.0109432 0)
(1.0483 0.00516348 0)
(1.04251 -0.000318718 1.82708e-19)
(1.03749 -0.00549056 0)
(1.03298 -0.0103282 -3.82632e-19)
(1.02876 -0.0148005 0)
(1.02468 -0.0188605 0)
(1.02062 -0.0224541 3.88632e-19)
(1.01648 -0.0255134 3.16935e-19)
(1.01218 -0.0279434 -1.11892e-19)
(1.00772 -0.0296531 -1.13022e-19)
(1.00311 -0.0305423 1.17322e-19)
(0.998383 -0.0305087 4.89317e-19)
(0.993659 -0.0294789 2.54891e-19)
(0.989077 -0.0274047 -1.30713e-19)
(0.984812 -0.0242754 0)
(0.98107 -0.020143 1.69035e-21)
(0.978061 -0.0151179 7.16745e-20)
(0.975982 -0.00943982 -7.25524e-20)
(0.974968 -0.00334422 -1.88389e-19)
(0.975091 0.00287809 6.24362e-22)
(0.976328 0.00883572 0)
(0.978577 0.0142964 -7.41206e-20)
(0.981681 0.0190001 -1.46468e-19)
(0.985429 0.0227663 1.43937e-19)
(0.989623 0.02552 -1.41195e-19)
(0.99408 0.0272348 -1.74133e-19)
(0.998658 0.0279501 -2.71779e-19)
(1.00322 0.0276993 6.67789e-20)
(1.00768 0.0265653 3.26982e-20)
(1.01203 0.0246567 0)
(1.01627 0.0220636 0)
(1.02046 0.0188706 -7.83657e-21)
(1.02467 0.0151531 2.46162e-19)
(1.02901 0.0109732 1.2195e-19)
(1.03365 0.00638218 0)
(1.03878 0.00142528 1.18756e-19)
(1.04465 -0.00386927 2.87519e-20)
(1.05162 -0.00948462 -2.9058e-20)
(1.06018 -0.0154079 6.99976e-21)
(1.07107 -0.0216349 1.07581e-19)
(1.0855 -0.0281808 4.22001e-19)
(1.10553 -0.0351022 2.04837e-19)
(1.13271 -0.0422246 -4.85152e-20)
(1.13718 -0.0452489 -4.82353e-20)
(0.970948 -0.0309507 -7.92384e-20)
(0.48799 -0.00584834 1.58854e-19)
(0.265082 0.000915857 0)
(0.815608 0.0175812 -4.07445e-20)
(1.10212 0.036537 3.38938e-20)
(1.15028 0.0395163 -3.32283e-20)
(1.12484 0.033477 6.95864e-20)
(1.10089 0.0264277 7.3633e-20)
(1.08478 0.0197747 -1.52127e-19)
(1.07316 0.0134007 8.50978e-22)
(1.06418 0.00722798 -8.09669e-20)
(1.0569 0.00124207 -1.69034e-19)
(1.05073 -0.00454972 -1.72104e-19)
(1.04531 -0.0101245 0)
(1.04033 -0.015451 1.80059e-19)
(1.03558 -0.0204814 0)
(1.03089 -0.0251548 -3.96144e-19)
(1.0261 -0.0294034 -4.80289e-20)
(1.02107 -0.0331294 -2.0428e-19)
(1.01573 -0.0361963 3.19713e-19)
(1.01006 -0.0384626 -4.39996e-19)
(1.00405 -0.0397722 0)
(0.997751 -0.0399544 2.40958e-19)
(0.991285 -0.0388413 -3.77293e-19)
(0.984878 -0.0363371 1.31637e-19)
(0.978795 -0.0323636 0)
(0.97336 -0.0269389 -1.42671e-19)
(0.968929 -0.0201808 7.28238e-20)
(0.965846 -0.0124261 1.54955e-19)
(0.964355 -0.00402412 1.5489e-19)
(0.964585 0.00457197 -1.57171e-19)
(0.966492 0.0127516 0)
(0.969893 0.020161 0)
(0.974507 0.0264162 1.87077e-19)
(0.979967 0.0312917 1.32732e-21)
(0.985945 0.034725 -2.49844e-19)
(0.992164 0.0367462 -4.16558e-19)
(0.998391 0.0374456 6.75392e-20)
(1.00442 0.0369082 -3.28897e-20)
(1.01019 0.0353277 0)
(1.01567 0.0328606 0)
(1.02088 0.0296506 1.08175e-19)
(1.02589 0.0258248 1.35297e-19)
(1.0308 0.0214904 -1.36724e-20)
(1.03576 0.0167407 0)
(1.04092 0.0116467 -1.15014e-19)
(1.04651 0.00625906 8.39193e-20)
(1.05281 0.000618889 2.22267e-19)
(1.06018 -0.00524325 0)
(1.06911 -0.0113017 0)
(1.08037 -0.0175446 6.46951e-21)
(1.0952 -0.023999 -1.50682e-19)
(1.11568 -0.0307175 1.45874e-19)
(1.14085 -0.037198 -2.37147e-20)
(1.13002 -0.0384802 2.07854e-19)
(0.93954 -0.0245018 -2.0815e-19)
(0.466393 -0.00445087 3.33335e-19)
(0.254994 0.000697052 0)
(0.787001 0.0138333 -1.93683e-20)
(1.08523 0.0304387 4.76932e-20)
(1.15372 0.0345142 -3.08727e-20)
(1.13491 0.0294497 -6.52063e-20)
(1.11106 0.022634 -1.35555e-19)
(1.09449 0.0160006 -7.09711e-20)
(1.08261 0.00955225 -7.36495e-20)
(1.07343 0.00320859 0)
(1.06594 -0.00305349 0)
(1.05955 -0.00922724 0)
(1.05385 -0.0152908 0)
(1.04854 -0.0212116 8.40535e-20)
(1.04339 -0.0269331 -1.73308e-19)
(1.03817 -0.032387 0)
(1.0327 -0.037516 1.41451e-19)
(1.02681 -0.0421579 -9.60293e-20)
(1.0204 -0.046148 4.35974e-21)
(1.01337 -0.049304 2.16148e-19)
(1.00571 -0.0513871 2.98322e-21)
(0.997457 -0.0521302 2.40747e-19)
(0.988722 -0.0512233 -2.51316e-19)
(0.979801 -0.0484253 0)
(0.971109 -0.0435624 -1.42414e-19)
(0.963154 -0.0365466 -1.49972e-19)
(0.956532 -0.027478 0)
(0.951871 -0.0167763 -1.62001e-19)
(0.949625 -0.00504101 2.09691e-19)
(0.950037 0.00700489 4.2149e-20)
(0.953027 0.0183687 -2.25321e-19)
(0.958248 0.0284823 -8.07357e-20)
(0.965157 0.0367427 -1.34381e-19)
(0.973138 0.042913 1.48371e-19)
(0.981639 0.0469975 0)
(0.990243 0.0491515 2.76536e-19)
(0.99856 0.0495154 -3.34691e-20)
(1.00639 0.048373 3.23716e-20)
(1.01367 0.0460162 0)
(1.02038 0.0426847 3.05788e-20)
(1.02659 0.0385885 1.4873e-19)
(1.03239 0.0339018 0)
(1.03794 0.0287703 -1.13646e-19)
(1.04341 0.0232948 -1.10333e-19)
(1.049 0.0175576 0)
(1.05493 0.011628 1.06695e-19)
(1.0615 0.00555664 -5.25259e-20)
(1.06909 -0.000631453 0)
(1.07821 -0.00691426 -5.03126e-20)
(1.08967 -0.0132841 -9.89741e-20)
(1.10477 -0.0197692 -9.63177e-20)
(1.12537 -0.0263896 4.68755e-20)
(1.14739 -0.0323125 1.34096e-19)
(1.12142 -0.032396 8.95624e-20)
(0.912875 -0.0194661 -1.78468e-19)
(0.449963 -0.00340193 -1.14683e-19)
(0.247169 0.000532944 0)
(0.763507 0.0109481 0)
(1.06912 0.0252364 0)
(1.15545 0.029806 0)
(1.14422 0.0255557 0)
(1.12114 0.0189405 0)
(1.10431 0.0122636 0)
(1.09229 0.00567655 0)
(1.08305 -0.000901744 1.40782e-19)
(1.07552 -0.00750368 0)
(1.06907 -0.014131 -1.46651e-19)
(1.06327 -0.0207741 0)
(1.05782 -0.0273999 0)
(1.05242 -0.0339649 3.26646e-19)
(1.04685 -0.0404234 0)
(1.04083 -0.0466747 0)
(1.03419 -0.0525683 0)
(1.02674 -0.0579144 1.94299e-19)
(1.0183 -0.0624543 -2.0089e-19)
(1.00878 -0.065872 0)
(0.998156 -0.0677704 -1.16092e-19)
(0.986513 -0.0676638 -2.60358e-19)
(0.97412 -0.0649992 0)
(0.961598 -0.0593861 -1.42779e-19)
(0.949757 -0.0505184 3.57082e-21)
(0.939605 -0.0383463 -4.95103e-19)
(0.932306 -0.023376 -1.76761e-19)
(0.928787 -0.00661384 -1.40318e-21)
(0.929531 0.0106558 -8.95765e-20)
(0.934379 0.02675 1.09192e-20)
(0.942614 0.0406639 1.66326e-19)
(0.953172 0.0514774 1.98061e-20)
(0.964952 0.0590235 4.71887e-21)
(0.977084 0.0635241 -8.5944e-19)
(0.988854 0.0652985 2.03235e-19)
(0.999795 0.0647592 3.26608e-20)
(1.00975 0.0624556 6.26987e-20)
(1.01869 0.0588079 2.99528e-20)
(1.02666 0.0541693 2.84118e-20)
(1.03382 0.0488246 -3.36557e-19)
(1.04034 0.0429821 -3.22773e-19)
(1.0464 0.0368131 -4.36679e-19)
(1.05223 0.0304325 -1.04896e-19)
(1.05805 0.0239179 0)
(1.06413 0.0173338 2.55523e-20)
(1.07079 0.0107286 0)
(1.07844 0.00412531 -4.86238e-20)
(1.08762 -0.002462 -4.76826e-20)
(1.09916 -0.00903918 -2.33657e-20)
(1.11438 -0.0156408 9.09021e-20)
(1.13475 -0.0222337 0)
(1.15268 -0.0276924 0)
(1.11243 -0.0270412 0)
(0.890607 -0.0154885 2.43591e-20)
(0.437502 -0.00260434 1.12018e-19)
(0.241095 0.000408587 0)
(0.744328 0.00871426 0)
(1.05437 0.0208793 1.38626e-20)
(1.15601 0.0255214 2.62082e-20)
(1.15286 0.021916 0)
(1.13118 0.0154835 0)
(1.11431 0.00873323 5.87267e-20)
(1.10229 0.001967 0)
(1.09314 -0.00488643 1.27755e-19)
(1.08573 -0.011871 0)
(1.07941 -0.0190056 -2.67151e-19)
(1.07372 -0.0262968 -6.80685e-20)
(1.06834 -0.0337275 2.83454e-19)
(1.06295 -0.0412757 6.13707e-19)
(1.05725 -0.0489506 -1.54974e-19)
(1.05097 -0.0566231 4.12358e-20)
(1.04384 -0.0641649 8.32429e-20)
(1.03555 -0.0713918 0)
(1.02582 -0.0780193 0)
(1.01437 -0.0836262 0)
(1.00102 -0.0876796 1.11392e-19)
(0.985745 -0.0894513 -1.29924e-19)
(0.968684 -0.0879826 -8.05489e-19)
(0.950485 -0.0822577 1.4507e-19)
(0.932445 -0.0715277 -3.26563e-19)
(0.916285 -0.0552439 -7.0693e-19)
(0.904266 -0.0338774 2.85718e-19)
(0.898434 -0.00910033 -2.00334e-19)
(0.899812 0.0164349 -1.97314e-19)
(0.908085 0.0399261 -2.54079e-20)
(0.92164 0.0592507 -9.02932e-20)
(0.938245 0.073144 -1.68939e-19)
(0.95591 0.0817891 -3.12127e-19)
(0.973197 0.0858827 -5.81609e-19)
(0.989079 0.0862051 1.32489e-19)
(1.00319 0.0837798 -1.27797e-19)
(1.01549 0.0794152 9.1222e-20)
(1.0261 0.073733 -3.42639e-19)
(1.03524 0.067198 -1.11426e-19)
(1.04318 0.0601495 -1.0499e-19)
(1.05016 0.0528169 2.08304e-19)
(1.05646 0.0453516 0)
(1.06238 0.0378697 -7.41476e-20)
(1.06821 0.0304393 0)
(1.07425 0.0231059 0)
(1.08083 0.0158925 4.7522e-20)
(1.08838 0.00881067 6.97542e-20)
(1.09746 0.00185818 4.47235e-20)
(1.10893 -0.00498385 4.35729e-20)
(1.12413 -0.0117541 4.22227e-20)
(1.14389 -0.0183574 0)
(1.15707 -0.0234418 -2.07759e-20)
(1.1037 -0.0224212 -4.15273e-20)
(0.872128 -0.012351 9.62667e-20)
(0.428111 -0.00201902 -3.19793e-19)
(0.236289 0.000323815 0)
(0.728598 0.00701131 -1.57701e-20)
(1.0412 0.0173021 0)
(1.15587 0.0217592 0)
(1.1609 0.0186467 4.86659e-20)
(1.14118 0.0123883 5.13073e-20)
(1.1245 0.00555944 -2.66969e-20)
(1.11263 -0.00139803 0)
(1.10372 -0.00853131 2.83663e-20)
(1.09662 -0.0159033 -5.77432e-20)
(1.09063 -0.023554 0)
(1.08529 -0.0315143 -6.03827e-20)
(1.08026 -0.0398087 -2.02159e-21)
(1.0752 -0.0484687 -4.88929e-20)
(1.06975 -0.057502 3.18865e-20)
(1.06363 -0.0668528 -3.84679e-21)
(1.05646 -0.0764546 1.53279e-19)
(1.04782 -0.0861574 0)
(1.03722 -0.0957159 3.39976e-19)
(1.02418 -0.104719 -6.20554e-22)
(1.00812 -0.112475 0)
(0.988641 -0.118024 -3.43465e-19)
(0.965565 -0.119914 -1.27401e-19)
(0.939126 -0.116074 5.80073e-19)
(0.910914 -0.104396 4.2138e-21)
(0.883956 -0.0831288 0)
(0.862756 -0.0518312 1.99231e-19)
(0.852235 -0.0134264 -1.19506e-19)
(0.855 0.0265436 1.11877e-19)
(0.870193 0.0622225 -4.22057e-19)
(0.893824 0.0891618 1.85739e-19)
(0.920866 0.106069 3.46821e-19)
(0.947717 0.114425 6.11718e-19)
(0.972031 0.115998 -1.36776e-19)
(0.99297 0.112923 -1.41452e-19)
(1.01055 0.106932 1.17439e-19)
(1.02511 0.0991901 -4.42213e-19)
(1.0371 0.0905022 3.26489e-19)
(1.04696 0.0813687 1.03446e-19)
(1.05518 0.0721049 0)
(1.06219 0.0629255 1.40861e-19)
(1.06839 0.0539458 -4.39496e-20)
(1.0741 0.0452227 0)
(1.07968 0.0367826 -8.91517e-20)
(1.08544 0.0286311 -8.97981e-20)
(1.09173 0.0207694 8.69868e-20)
(1.09899 0.0131796 -2.17274e-19)
(1.10782 0.00583774 -8.58413e-20)
(1.11909 -0.00129318 4.15956e-20)
(1.1341 -0.00825215 4.0341e-20)
(1.15286 -0.0148736 -1.9525e-20)
(1.16079 -0.0196516 -5.76083e-20)
(1.09543 -0.0184939 9.71824e-21)
(0.856359 -0.00985072 -1.14248e-20)
(0.420208 -0.0015972 0)
(0.232419 0.000264361 0)
(0.715637 0.00574759 0)
(1.02958 0.0144677 -2.28917e-20)
(1.15532 0.0186048 0)
(1.16844 0.0158651 -2.1651e-20)
(1.15114 0.00978514 2.24527e-20)
(1.1349 0.00290482 4.65839e-20)
(1.1233 -0.0042117 0)
(1.11478 -0.0115938 9.7949e-20)
(1.10815 -0.01932 0)
(1.1027 -0.0274559 -2.07064e-19)
(1.09798 -0.0360627 -1.06006e-19)
(1.09361 -0.0452109 -3.39465e-21)
(1.08927 -0.0549466 -1.14844e-19)
(1.08457 -0.0654029 1.14637e-19)
(1.0792 -0.0765762 1.21871e-19)
(1.07272 -0.0885183 -6.04626e-20)
(1.06458 -0.101218 -2.02651e-19)
(1.05413 -0.114586 -6.70087e-20)
(1.04049 -0.128348 1.55861e-19)
(1.02265 -0.14198 0)
(0.999358 -0.154377 -1.21138e-20)
(0.96933 -0.163627 2.29255e-19)
(0.9318 -0.166569 0)
(0.887074 -0.158047 0)
(0.8395 -0.132335 4.16971e-19)
(0.79854 -0.0854234 -4.67039e-21)
(0.777325 -0.021578 8.27104e-21)
(0.783453 0.0461703 -5.411e-19)
(0.81438 0.103273 4.8199e-19)
(0.858667 0.140252 4.08436e-19)
(0.90421 0.157611 6.98271e-19)
(0.944651 0.161048 5.04948e-19)
(0.97777 0.15575 2.66291e-19)
(1.00409 0.145865 0)
(1.02463 0.133831 0)
(1.04052 0.121032 2.54584e-19)
(1.05286 0.108197 1.53919e-21)
(1.06258 0.0957492 -9.75246e-20)
(1.0704 0.0838691 -8.61183e-20)
(1.07686 0.0726219 -1.71183e-19)
(1.08246 0.0620069 1.27364e-19)
(1.08756 0.0519866 0)
(1.09252 0.0425257 4.17247e-20)
(1.09771 0.0335728 -4.05108e-20)
(1.10347 0.0250785 0)
(1.11025 0.0170003 0)
(1.11866 0.00928532 -1.49133e-21)
(1.12959 0.00188006 0)
(1.14423 -0.0052576 0)
(1.16163 -0.0118947 -2.61314e-22)
(1.16408 -0.0164385 0)
(1.08802 -0.0153115 -5.48559e-20)
(0.843248 -0.00793625 0)
(0.413472 -0.0012415 -8.00997e-20)
(0.229214 0.000235088 0)
(0.704891 0.00487657 3.20479e-21)
(1.01948 0.0123439 2.55499e-21)
(1.15463 0.016123 0)
(1.17551 0.0136678 2.36648e-21)
(1.16099 0.00777611 0)
(1.14541 0.000891823 0)
(1.13422 -0.00632518 0)
(1.12622 -0.0138802 0)
(1.12022 -0.0218659 0)
(1.11553 -0.0303706 0)
(1.11168 -0.0394882 0)
(1.10832 -0.0493225 0)
(1.1051 -0.0600452 1.39133e-19)
(1.10173 -0.0717949 -4.84271e-20)
(1.09784 -0.0847058 -9.96717e-20)
(1.09299 -0.0989807 -1.00585e-19)
(1.08663 -0.114841 4.25724e-21)
(1.07795 -0.13252 -6.62255e-20)
(1.06586 -0.152193 -2.40978e-21)
(1.04877 -0.173873 2.89046e-19)
(1.02438 -0.197151 -1.87254e-19)
(0.989365 -0.220496 0)
(0.93957 -0.240307 2.28205e-19)
(0.870578 -0.248046 -1.30931e-18)
(0.782542 -0.226716 8.36984e-19)
(0.694178 -0.156805 5.50411e-19)
(0.645064 -0.039363 2.22513e-18)
(0.660199 0.0902296 0)
(0.731779 0.187718 1.06219e-18)
(0.821637 0.232688 -1.52562e-18)
(0.898993 0.238552 -4.62913e-19)
(0.956813 0.225403 -1.31384e-19)
(0.998305 0.205215 -7.04514e-19)
(1.02768 0.183402 3.3851e-21)
(1.04856 0.162275 6.21887e-19)
(1.06357 0.142761 -4.79957e-20)
(1.07457 0.124992 2.51707e-19)
(1.08281 0.108909 8.15212e-20)
(1.08915 0.0943025 1.53783e-19)
(1.09427 0.0809934 0)
(1.09862 0.0688096 3.88433e-20)
(1.10264 0.0575893 6.93844e-20)
(1.10667 0.0472002 7.14163e-20)
(1.11099 0.0375388 -3.73505e-20)
(1.116 0.0285063 1.27583e-19)
(1.12212 0.0200188 -3.43352e-20)
(1.12997 0.0119945 -1.46765e-19)
(1.14044 0.00437069 -1.7252e-20)
(1.15455 -0.00290207 -3.49686e-20)
(1.17027 -0.00952035 -3.34006e-20)
(1.16707 -0.0138592 1.72838e-20)
(1.08138 -0.0128405 1.768e-20)
(0.832178 -0.00655866 7.00451e-22)
(0.407941 -0.00104247 3.87955e-20)
(0.226101 0.000269613 6.29918e-20)
(0.695507 0.00438698 -8.99788e-20)
(1.0105 0.0109061 1.3469e-22)
(1.15384 0.0143462 3.26934e-20)
(1.18216 0.0121178 -3.23559e-20)
(1.17067 0.00644245 -3.30947e-20)
(1.15594 -0.000367243 0)
(1.14525 -0.00758611 6.46513e-23)
(1.13786 -0.0151948 -1.7197e-20)
(1.13264 -0.0232947 8.64716e-21)
(1.12886 -0.0319947 -8.65599e-21)
(1.12609 -0.0414119 -8.62907e-21)
(1.12403 -0.0516939 4.47002e-21)
(1.12236 -0.0630546 1.66608e-20)
(1.12085 -0.075699 3.03247e-20)
(1.1192 -0.0898942 5.90173e-20)
(1.11706 -0.106022 2.14976e-19)
(1.11399 -0.124547 4.06346e-20)
(1.10926 -0.14611 0)
(1.10187 -0.171618 0)
(1.09027 -0.202153 -8.49806e-20)
(1.07155 -0.239168 3.3159e-20)
(1.04067 -0.284242 -3.34859e-19)
(0.988212 -0.33797 1.68642e-19)
(0.895665 -0.396136 -2.30015e-19)
(0.734074 -0.423684 0)
(0.516495 -0.33367 3.49502e-18)
(0.384616 -0.0853881 -1.18422e-18)
(0.426284 0.207036 -5.33524e-18)
(0.621807 0.384317 2.14615e-18)
(0.813572 0.405365 0)
(0.935028 0.357339 -9.57509e-19)
(1.00387 0.304323 3.46319e-19)
(1.04438 0.257712 3.04719e-19)
(1.06921 0.219068 1.46858e-19)
(1.085 0.187221 1.37973e-19)
(1.09541 0.160668 2.03243e-19)
(1.10257 0.138161 0)
(1.10755 0.11881 -4.8974e-20)
(1.11122 0.101908 3.89728e-19)
(1.11417 0.0869457 0)
(1.1167 0.0735396 -1.2053e-21)
(1.11916 0.0614222 -1.5549e-20)
(1.12186 0.0503664 -4.89114e-20)
(1.12508 0.0401995 -1.61854e-20)
(1.12913 0.0307939 3.14861e-20)
(1.13444 0.0220316 -1.61344e-20)
(1.14159 0.0138143 -1.64966e-20)
(1.15146 0.00605539 -7.34282e-22)
(1.16488 -0.00128007 1.22275e-20)
(1.17868 -0.00783832 1.13025e-20)
(1.1699 -0.011995 -2.2787e-20)
(1.07568 -0.0111059 -3.24548e-20)
(0.822978 -0.00568551 -1.90191e-20)
(0.403359 -0.000968271 -3.53648e-20)
(0.218511 0.000342819 -8.55152e-19)
(0.684054 0.00423019 0)
(1.00082 0.0100124 -2.37889e-19)
(1.1525 0.0131909 2.16248e-19)
(1.18838 0.0112174 2.13622e-19)
(1.18015 0.0058406 0)
(1.16638 -0.000779784 2.19094e-19)
(1.15624 -0.0078706 0)
(1.14952 -0.015384 0)
(1.14512 -0.0234137 1.07682e-19)
(1.14236 -0.0320737 0)
(1.14082 -0.0414972 -1.00548e-19)
(1.14023 -0.0518562 -3.38581e-21)
(1.14038 -0.0633809 1.24629e-20)
(1.1411 -0.0763176 1.84261e-20)
(1.14224 -0.0910054 1.77471e-20)
(1.14364 -0.107911 1.02585e-20)
(1.14512 -0.12768 -2.32169e-21)
(1.14643 -0.151232 -2.22511e-20)
(1.14722 -0.180005 1.46487e-20)
(1.14693 -0.216171 -6.91664e-20)
(1.14429 -0.26345 -1.06043e-21)
(1.13723 -0.328473 0)
(1.12149 -0.427482 0)
(1.06118 -0.579837 1.99616e-19)
(0.806216 -0.666908 0)
(0.21156 -0.360031 5.81935e-17)
(0.352732 0.44642 -1.69851e-19)
(0.892317 0.651727 -3.9403e-20)
(1.08496 0.488381 -1.07887e-19)
(1.11122 0.368696 1.22493e-19)
(1.12362 0.292811 3.05255e-19)
(1.12995 0.239994 2.60252e-19)
(1.13313 0.200638 -5.00513e-20)
(1.13461 0.169725 -8.99771e-22)
(1.1353 0.144561 1.48258e-20)
(1.13551 0.123454 -1.65659e-22)
(1.13554 0.105361 -5.05997e-20)
(1.1356 0.0895566 1.17436e-20)
(1.13585 0.0755552 -2.6832e-20)
(1.13647 0.0630073 -1.42655e-20)