/*--------------------------------*- C++ -*----------------------------------*\
  =========                 |
  \\      /  F ield         | OpenFOAM: The Open Source CFD Toolbox
   \\    /   O peration     | Website:  https://openfoam.org
    \\  /    A nd           | Version:  7
     \\/     M anipulation  |
\*---------------------------------------------------------------------------*/
FoamFile
{
    version     2.0;
    format      ascii;
    class       volScalarField;
    location    "95";
    object      k;
}
// * * * * * * * * * * * * * * * * * * * * * * * * * * * * * * * * * * * * * //

dimensions      [0 2 -2 0 0 0 0];

internalField   nonuniform List<scalar> 
17475
(
0.00763366
0.0124983
0.0125514
0.0125508
0.0125506
0.0125505
0.0125505
0.0125505
0.0125504
0.0125502
0.0125503
0.0125506
0.0125503
0.0125503
0.0125505
0.0125503
0.0125503
0.0125504
0.0125503
0.0125502
0.0125508
0.0125509
0.0125495
0.0125515
0.0125469
0.0125587
0.0125588
0.012559
0.0125591
0.0125588
0.0125587
0.0125586
0.0125586
0.0125585
0.0125585
0.0125584
0.0125583
0.0125581
0.0125585
0.0125628
0.0125695
0.012576
0.0125821
0.0125877
0.0125928
0.0125974
0.0126017
0.0126057
0.0126092
0.0126126
0.0126156
0.0126185
0.0126207
0.01261
0.0120188
0.000246139
0.00440846
0.00528566
0.00530443
0.00529498
0.00529064
0.00528859
0.0052873
0.00528658
0.00528604
0.00528573
0.00528544
0.00528523
0.00528508
0.0052849
0.0052848
0.00528467
0.00528455
0.00528443
0.00528435
0.00528427
0.00528417
0.00528516
0.0052829
0.00528682
0.00529074
0.00529363
0.00529376
0.00529379
0.00529333
0.00529316
0.00529311
0.0052931
0.00529309
0.00529309
0.00529305
0.00529303
0.00529278
0.00529184
0.00529273
0.0052946
0.00529676
0.00529903
0.00530122
0.00530338
0.00530545
0.00530754
0.00530968
0.00531209
0.00531494
0.00531877
0.00532412
0.00532136
0.00502947
0.00162952
3.0921e-05
0.00184653
0.00307713
0.0031951
0.00318634
0.00317742
0.00317242
0.00316944
0.00316761
0.00316632
0.00316543
0.00316477
0.00316428
0.00316384
0.00316349
0.00316318
0.00316288
0.00316261
0.00316236
0.0031621
0.00316185
0.00316214
0.00316172
0.00316327
0.00316431
0.00316573
0.00316761
0.00316843
0.00316843
0.00316826
0.00316806
0.00316811
0.00316822
0.00316835
0.00316849
0.00316863
0.00316876
0.00316847
0.00316813
0.00316843
0.00316903
0.00316981
0.00317077
0.00317187
0.00317311
0.00317452
0.00317623
0.00317843
0.00318146
0.00318595
0.00319294
0.00320137
0.00315735
0.00249652
0.00028324
9.86281e-06
0.000848743
0.0020118
0.00223586
0.00224422
0.00223412
0.00222731
0.00222302
0.00222018
0.00221821
0.00221684
0.0022158
0.00221497
0.00221428
0.0022137
0.00221318
0.0022127
0.00221225
0.00221182
0.0022114
0.00221126
0.00221087
0.00221154
0.00221225
0.00221299
0.00221354
0.00221421
0.00221495
0.0022152
0.00221521
0.00221503
0.00221516
0.00221539
0.00221565
0.00221593
0.00221624
0.00221653
0.00221642
0.00221643
0.00221688
0.0022174
0.00221804
0.00221885
0.00221987
0.00222112
0.0022227
0.00222474
0.00222756
0.00223164
0.0022378
0.00224695
0.00224974
0.00213806
0.00133279
8.90011e-05
4.46624e-06
0.000439583
0.00138538
0.0016859
0.00171897
0.00171196
0.00170442
0.00169931
0.00169581
0.00169335
0.00169156
0.0016902
0.0016891
0.00168817
0.00168738
0.00168667
0.00168602
0.00168538
0.00168476
0.00168436
0.00168378
0.00168394
0.00168412
0.00168433
0.0016846
0.00168492
0.00168522
0.00168551
0.00168584
0.00168596
0.00168592
0.00168614
0.00168648
0.00168687
0.00168729
0.00168776
0.00168813
0.00168818
0.00168863
0.00168924
0.00168988
0.00169064
0.00169157
0.00169271
0.00169416
0.00169602
0.00169846
0.00170183
0.00170668
0.00171379
0.00172242
0.00171113
0.00153709
0.000771066
4.18499e-05
2.44437e-06
0.000256142
0.000986484
0.00132564
0.0013843
0.00138328
0.001376
0.00137052
0.0013666
0.00136376
0.0013617
0.0013601
0.00135878
0.00135766
0.00135668
0.00135579
0.00135498
0.00135415
0.0013535
0.00135274
0.0013525
0.00135232
0.00135214
0.00135201
0.00135195
0.001352
0.00135208
0.00135223
0.00135244
0.00135272
0.00135281
0.00135314
0.0013536
0.00135411
0.00135467
0.00135531
0.00135572
0.00135611
0.00135682
0.00135759
0.0013584
0.0013593
0.00136036
0.00136166
0.00136332
0.00136547
0.00136822
0.00137195
0.00137723
0.00138435
0.00138983
0.00136138
0.00114384
0.000484713
2.43845e-05
1.5156e-06
0.000164677
0.000723747
0.00106971
0.00115115
0.0011576
0.00115172
0.00114622
0.00114209
0.00113902
0.00113678
0.001135
0.00113351
0.00113223
0.0011311
0.00113005
0.00112909
0.00112821
0.00112725
0.00112662
0.00112614
0.0011257
0.00112525
0.00112487
0.00112455
0.00112441
0.00112428
0.0011243
0.00112449
0.00112487
0.00112516
0.00112554
0.00112612
0.00112678
0.00112749
0.00112828
0.00112883
0.00112952
0.00113042
0.00113135
0.00113232
0.00113336
0.00113456
0.00113602
0.00113784
0.00114022
0.00114318
0.00114702
0.00115228
0.0011589
0.00115977
0.00111441
0.000873836
0.000329141
1.59986e-05
1.02796e-06
0.000114469
0.000546808
0.000878801
0.000978723
0.000993058
0.000989357
0.000984142
0.00098001
0.000976893
0.000974512
0.000972619
0.00097095
0.000969491
0.000968272
0.000967085
0.000965994
0.000964863
0.000963951
0.000963103
0.000962377
0.000961711
0.000961019
0.00096037
0.000959841
0.000959548
0.000959264
0.000959185
0.000959342
0.00095978
0.000960237
0.000960713
0.000961423
0.000962268
0.000963174
0.000964064
0.000964819
0.000965795
0.000966888
0.000967962
0.000969081
0.000970254
0.000971602
0.000973187
0.000975141
0.000977607
0.000980547
0.000984402
0.000989591
0.000995
0.000990516
0.000930457
0.000683573
0.000237229
1.12102e-05
7.44205e-07
8.41796e-05
0.000424962
0.000732224
0.000845986
0.000867994
0.000867058
0.000862395
0.000858364
0.000855216
0.000852829
0.000850871
0.000849026
0.00084738
0.000846117
0.000844762
0.000843381
0.000842283
0.000841096
0.000839944
0.000838952
0.000838045
0.000837056
0.000836133
0.000835481
0.000835023
0.000834541
0.00083435
0.000834497
0.000835066
0.00083568
0.000836305
0.00083716
0.000838225
0.000839313
0.000840324
0.00084139
0.000842609
0.000843818
0.000845029
0.000846332
0.000847577
0.000848982
0.000850663
0.000852629
0.000855104
0.000858116
0.000861885
0.00086674
0.000870414
0.000860423
0.000788015
0.000546112
0.000179589
8.35782e-06
5.65461e-07
6.45923e-05
0.000339043
0.000617814
0.000740861
0.000769962
0.000772158
0.000768449
0.000764438
0.000761224
0.000758951
0.000756949
0.00075502
0.000753233
0.000751943
0.000750413
0.000748921
0.0007476
0.000745988
0.000744462
0.000743206
0.00074212
0.000740848
0.000739616
0.00073873
0.000738001
0.000737244
0.000736969
0.000737207
0.000737923
0.000738704
0.000739504
0.000740497
0.000741799
0.000743052
0.000744332
0.000745766
0.00074713
0.000748315
0.000749678
0.000751169
0.000752448
0.00075384
0.000755481
0.00075743
0.000760071
0.000763154
0.000766612
0.000770887
0.000772794
0.000757707
0.000676393
0.000446813
0.000141592
6.53406e-06
4.45463e-07
5.12356e-05
0.000277009
0.000527489
0.000655659
0.000691224
0.000696534
0.000693993
0.000690046
0.0006867
0.000684544
0.000682768
0.000680982
0.000679013
0.000677595
0.000676134
0.000674453
0.000672945
0.000670971
0.000668973
0.000667352
0.000666054
0.000664575
0.000663156
0.00066199
0.000660938
0.00065979
0.000659424
0.000659762
0.00066054
0.000661445
0.000662462
0.00066374
0.000665367
0.000666699
0.000668402
0.000669972
0.00067138
0.000672574
0.000674052
0.000675543
0.000676858
0.000678191
0.000679727
0.000681981
0.000684771
0.000687919
0.000691005
0.000694577
0.000694437
0.000674857
0.000587304
0.000373212
0.00011511
5.28762e-06
3.61344e-07
4.17677e-05
0.000231177
0.00045555
0.00058537
0.000626868
0.000634908
0.000633425
0.000629659
0.000626386
0.000624498
0.000623141
0.000621419
0.000619204
0.000617674
0.000616208
0.000614235
0.000612561
0.000610238
0.000607949
0.000606177
0.000604473
0.000602674
0.000601147
0.000599864
0.000598464
0.000597069
0.000596539
0.000596766
0.000597682
0.00059874
0.000600063
0.000601625
0.000603509
0.000605089
0.000607034
0.000608862
0.000610232
0.00061134
0.00061295
0.000614552
0.000615715
0.000616753
0.000618517
0.000621245
0.000624189
0.000627383
0.000629965
0.000632517
0.000630583
0.000606884
0.0005153
0.000317613
9.59667e-05
4.40216e-06
3.00402e-07
3.48657e-05
0.000196554
0.000397748
0.000526483
0.000573251
0.000583641
0.000583505
0.000579773
0.000576201
0.000574736
0.000574311
0.000572525
0.000570201
0.000568637
0.000566841
0.000564662
0.000562847
0.00056033
0.000558074
0.000556264
0.000553972
0.000551609
0.000550401
0.000549463
0.000547376
0.000545612
0.000545293
0.000545782
0.000546514
0.000547507
0.000549256
0.000551017
0.000552978
0.000554885
0.000556925
0.000559013
0.000560495
0.000561479
0.000562485
0.00056408
0.000565417
0.000566676
0.000568357
0.00057107
0.000574656
0.000577765
0.00057974
0.000581521
0.000577918
0.000550345
0.000456352
0.000274622
8.16552e-05
3.75316e-06
2.54502e-07
2.96369e-05
0.000169792
0.000350828
0.000477169
0.000527407
0.000539752
0.000540785
0.000537269
0.000534428
0.000533176
0.000532741
0.000531089
0.000528946
0.000527303
0.000525107
0.000522808
0.00052051
0.000517882
0.000515389
0.000513287
0.000510967
0.000508651
0.000507482
0.000506987
0.000505062
0.000502931
0.000502049
0.000502446
0.000503518
0.000505022
0.000506624
0.000508412
0.000510348
0.000512316
0.000514391
0.000516523
0.000517943
0.000519101
0.000520343
0.00052183
0.000523312
0.000524652
0.000526076
0.000528722
0.000532598
0.000535305
0.00053719
0.000538011
0.000532617
0.000502029
0.000407355
0.000240229
7.0373e-05
3.22475e-06
2.18983e-07
2.55686e-05
0.000148591
0.000312131
0.000432777
0.00048556
0.000500132
0.000501877
0.000498995
0.000496276
0.000495339
0.000494979
0.000493458
0.000491481
0.000489681
0.000487435
0.000484979
0.000482407
0.000479665
0.000477107
0.000474824
0.000472743
0.000471027
0.000470429
0.000471383
0.000471257
0.000469442
0.000468692
0.000468818
0.000469495
0.000470607
0.000470088
0.000470972
0.000472679
0.000474293
0.000476248
0.000478245
0.000479893
0.000481363
0.000482639
0.000484105
0.000485632
0.000487014
0.000488475
0.000490896
0.000494418
0.000497007
0.000498643
0.000498758
0.000491506
0.000458427
0.000365688
0.000212692
6.14857e-05
2.80027e-06
1.90884e-07
2.23538e-05
0.000131409
0.000279578
0.000393533
0.000447742
0.000464036
0.000466567
0.000464249
0.000461892
0.000461102
0.000460686
0.000459261
0.000457396
0.000455516
0.000453332
0.000450869
0.000448127
0.000445397
0.000443015
0.000440881
0.000439796
0.000440003
0.000441573
0.00044748
0.000460425
0.000468819
0.000473231
0.000471999
0.000465232
0.000453951
0.000441965
0.000440962
0.000440205
0.000440816
0.000442399
0.000444088
0.000445752
0.000447338
0.000448618
0.00044994
0.000451466
0.000452875
0.000454251
0.000456452
0.000459669
0.000462137
0.000463494
0.000462866
0.000454126
0.000419092
0.000329374
0.000189864
5.41956e-05
2.45454e-06
1.66364e-07
1.96573e-05
0.000117072
0.000251554
0.000358575
0.000413251
0.000431022
0.000434322
0.000432543
0.000430538
0.000429828
0.000429326
0.000427978
0.000426226
0.000424349
0.000422309
0.000419913
0.000417098
0.00041456
0.000412636
0.000411467
0.000412487
0.00041653
0.000433111
0.000468323
0.000478521
0.000438488
0.000396484
0.000398036
0.000471111
0.000483366
0.000447939
0.000421591
0.000413984
0.000412125
0.000412358
0.000413499
0.000414919
0.000416532
0.000417799
0.000418864
0.000420285
0.000421674
0.00042303
0.000425042
0.00042794
0.000430256
0.000431404
0.000430142
0.000420129
0.000383885
0.000298149
0.000170833
4.82068e-05
2.17197e-06
1.30214e-07
1.69085e-05
0.000103648
0.000226537
0.000326685
0.000381518
0.00040065
0.000404728
0.000403448
0.000401731
0.000401051
0.000400472
0.000399184
0.000397572
0.000395785
0.000393955
0.00039165
0.000388909
0.000386719
0.00038535
0.000385633
0.000390726
0.000408617
0.000439667
0.000375443
0.000121027
2.21684e-06
1.22234e-05
0.00031509
0.000435201
0.000430339
0.000396073
0.000387352
0.000385554
0.000385808
0.000386909
0.000388503
0.000389711
0.000390605
0.000391897
0.000393169
0.000394453
0.000396271
0.00039886
0.000401008
0.000401937
0.000400102
0.000389033
0.000352002
0.000270846
0.000154402
4.3033e-05
1.92863e-06
4.80448e-08
1.19345e-05
8.77579e-05
0.00020127
0.000295513
0.000351592
0.000372392
0.000377394
0.000376631
0.000375127
0.000374441
0.000373795
0.000372571
0.000371122
0.000369512
0.000367902
0.000365569
0.000362975
0.000361117
0.00036051
0.000362798
0.000374913
0.000399551
0.000330382
9.05577e-05
4.0447e-07
0.00019436
0.000402703
0.000386403
0.000366065
0.000361169
0.000360598
0.000361234
0.000362671
0.000363872
0.000364552
0.000365702
0.000366839
0.000368006
0.000369626
0.000371939
0.000373941
0.000374699
0.000372401
0.000360533
0.000322906
0.000246802
0.000140155
3.80554e-05
1.59055e-06
6.40867e-08
1.25795e-05
8.14135e-05
0.00018401
0.000271215
0.000323488
0.000344739
0.000350378
0.000350126
0.000348732
0.00034775
0.000347059
0.000345985
0.000344414
0.000342928
0.00034114
0.000338991
0.00033676
0.000334993
0.000334944
0.000339577
0.000356656
0.000346257
0.000154278
1.04767e-05
5.23717e-05
0.000287112
0.000362623
0.000345296
0.000336438
0.000334695
0.000335443
0.000336631
0.00033777
0.000338406
0.000339384
0.000340527
0.000341639
0.000343146
0.000345226
0.000347069
0.000347647
0.000344874
0.000332151
0.000295997
0.000224568
0.000127576
3.60377e-05
1.75236e-06
9.13915e-08
1.22477e-05
7.67844e-05
0.000170209
0.000249084
0.000297899
0.000318771
0.000324583
0.00032444
0.000323203
0.000322367
0.000321482
0.000320529
0.000319151
0.000317636
0.000315829
0.000314002
0.000312014
0.000310326
0.000310664
0.000316906
0.00032489
0.000264833
7.84927e-05
4.98256e-06
8.80216e-08
4.01382e-07
2.87626e-05
0.000190398
0.000316876
0.000322011
0.000312202
0.000309772
0.000310481
0.000311337
0.000312351
0.000312923
0.000313973
0.000315073
0.000316223
0.000317714
0.00031964
0.000321483
0.000321969
0.000318896
0.000305759
0.000270438
0.000204391
0.000115999
3.24841e-05
1.47659e-06
9.20599e-08
1.11256e-05
7.00087e-05
0.000155325
0.00022739
0.000273556
0.000294371
0.000300606
0.000300735
0.000299661
0.000298903
0.000297889
0.000296916
0.000295694
0.000294246
0.000292476
0.000290793
0.000289148
0.000287564
0.000288121
0.000294236
0.000289557
0.000202168
5.36276e-05
6.92177e-06
9.6115e-07
4.74192e-07
6.45594e-07
6.78939e-07
6.99414e-07
3.0748e-06
2.64155e-05
0.000136503
0.00026657
0.000294589
0.000289036
0.000286449
0.000287268
0.000287983
0.000288859
0.000289403
0.000290502
0.000291696
0.000292895
0.000294384
0.000296252
0.000297972
0.000298257
0.000294865
0.000281419
0.000247181
0.000186125
0.00010552
2.91697e-05
1.29964e-06
8.40932e-08
1.00212e-05
6.33635e-05
0.000141425
0.000207417
0.000251086
0.000271867
0.000278509
0.000278985
0.000278018
0.000277233
0.000276279
0.000275279
0.000274087
0.000272626
0.000270879
0.000269411
0.00026801
0.000266571
0.000267144
0.000271269
0.00025609
0.000163098
4.54133e-05
7.61893e-06
3.01618e-06
4.32506e-06
5.73002e-06
5.9564e-06
5.02259e-06
8.51634e-06
2.92912e-05
0.000108364
0.000223654
0.000266793
0.000267185
0.000264993
0.000265819
0.000266629
0.000267421
0.000267895
0.000268898
0.00027013
0.000271461
0.000272975
0.000274793
0.000276357
0.000276443
0.000272748
0.000259052
0.00022602
0.000169672
9.59789e-05
2.61781e-05
1.15567e-06
7.55747e-08
9.00419e-06
5.73237e-05
0.000128774
0.000189263
0.000230441
0.000251054
0.000258075
0.000258914
0.000258039
0.000257232
0.000256356
0.000255361
0.000254158
0.000252658
0.000250939
0.0002496
0.000248374
0.000247039
0.000247441
0.000249281
0.00022807
0.000141563
4.66513e-05
9.59859e-06
5.05777e-06
6.56721e-06
9.17967e-06
1.25544e-05
1.4426e-05
1.86979e-05
3.50254e-05
9.40488e-05
0.00018962
0.00024052
0.000246613
0.000245424
0.0002462
0.000247071
0.000247779
0.000248214
0.00024915
0.000250403
0.000251765
0.000253319
0.000255098
0.000256484
0.000256305
0.000252275
0.000238463
0.000206795
0.00015484
8.73255e-05
2.35238e-05
1.03245e-06
6.76956e-08
8.07902e-06
5.1864e-05
0.000117304
0.000172772
0.000211448
0.000231779
0.000239096
0.000240285
0.000239542
0.000238734
0.000237922
0.000236918
0.000235711
0.000234166
0.000232484
0.000231202
0.000230097
0.000228807
0.00022888
0.000228652
0.000206261
0.000131322
5.46136e-05
1.67375e-05
7.15701e-06
7.31675e-06
1.00023e-05
1.60759e-05
2.55415e-05
3.29498e-05
4.42824e-05
8.99588e-05
0.000164985
0.000216788
0.000227548
0.000227496
0.000228234
0.000229095
0.000229713
0.000230084
0.000230933
0.000232243
0.00023363
0.000235226
0.000236944
0.000238136
0.000237695
0.000233333
0.000219452
0.00018919
0.000141293
7.93365e-05
2.10951e-05
9.21086e-07
6.05426e-08
7.23995e-06
4.68775e-05
0.000106784
0.000157653
0.000193835
0.000213694
0.000221311
0.000222907
0.000222332
0.000221556
0.000220745
0.000219714
0.000218523
0.000216969
0.000215275
0.000214051
0.000213054
0.00021177
0.000211388
0.000209579
0.000188143
0.000125643
6.27598e-05
2.79412e-05
1.28068e-05
9.7234e-06
1.03514e-05
1.50919e-05
2.99954e-05
4.77209e-05
6.09768e-05
9.14145e-05
0.000148602
0.000196845
0.000209986
0.000210916
0.000211644
0.000212376
0.000212981
0.000213295
0.000214032
0.000215474
0.000216797
0.000218462
0.000220081
0.000221091
0.000220384
0.000215727
0.000201862
0.000173084
0.00012896
7.20273e-05
1.88981e-05
8.15467e-07
5.40992e-08
6.48209e-06
4.23311e-05
9.71441e-05
0.000143773
0.000177465
0.000196294
0.000204544
0.000206573
0.000206115
0.000204779
0.000204469
0.000203454
0.000202403
0.00020081
0.000198873
0.000197825
0.000197074
0.00019578
0.000194916
0.000191971
0.00017187
0.000121181
7.12606e-05
4.05101e-05
2.3693e-05
1.47884e-05
1.30811e-05
1.44951e-05
2.69308e-05
5.85406e-05
9.13319e-05
0.00010674
0.000140007
0.000180057
0.000193819
0.000195408
0.00019614
0.000196702
0.000197301
0.000197607
0.0001983
0.000199452
0.000200844
0.000202784
0.000204309
0.000205196
0.000204061
0.000199092
0.000185387
0.000158174
0.000117536
6.52198e-05
1.68466e-05
7.16366e-07
4.83196e-08
5.80098e-06
3.81764e-05
8.8276e-05
0.000130945
0.000161889
0.00018054
0.000188868
0.000190977
0.000190491
0.000189466
0.000189081
0.000188169
0.000187051
0.000185703
0.000183654
0.000182554
0.000182019
0.000180756
0.000179528
0.000175645
0.000156993
0.000117599
8.00469e-05
5.51903e-05
3.7848e-05
2.51933e-05
1.87529e-05
1.5538e-05
1.91057e-05
5.31488e-05
0.000129262
0.000143456
0.000137231
0.00016604
0.000178635
0.000180705
0.000181405
0.000181634
0.000182141
0.000182868
0.000183561
0.000184687
0.000186072
0.000188084
0.000189389
0.000189907
0.000188611
0.000183432
0.000169983
0.000144241
0.000107046
5.89558e-05
1.50063e-05
6.30161e-07
4.31578e-08
5.18994e-06
3.44194e-05
8.00739e-05
0.000119024
0.0001481
0.000166067
0.000174239
0.000176586
0.000176104
0.00017554
0.000174735
0.000174
0.000173007
0.000171563
0.000169831
0.000168603
0.000168073
0.000167009
0.000165342
0.000161182
0.000144084
0.00011463
9.10842e-05
7.61071e-05
5.75945e-05
4.12426e-05
3.00014e-05
2.26958e-05
1.75791e-05
3.16606e-05
0.000133527
0.000177957
0.000134167
0.000153774
0.000165001
0.000167042
0.000167713
0.000168141
0.000168684
0.000169139
0.000169977
0.000171217
0.000172514
0.000174248
0.000175443
0.000175622
0.000174196
0.000168997
0.000155681
0.000131456
9.73108e-05
5.32816e-05
1.33689e-05
5.55246e-07
3.85851e-08
4.64771e-06
3.10621e-05
7.26718e-05
0.000108226
0.000135229
0.000152587
0.000160938
0.000163454
0.000163387
0.000162373
0.000161794
0.000161032
0.000160107
0.000158781
0.000157378
0.000156311
0.000155666
0.000154499
0.000152906
0.000148337
0.00013341
0.000116574
0.000117209
0.000112928
9.01068e-05
6.50681e-05
4.72627e-05
3.442e-05
2.40597e-05
2.71017e-05
0.000115442
0.000184425
0.000128157
0.000143107
0.000152322
0.000154613
0.000155206
0.000155792
0.000155978
0.000156684
0.000157583
0.000158932
0.00016046
0.000161843
0.000162933
0.000162687
0.000161216
0.000156035
0.000142812
0.00012001
8.85963e-05
4.81581e-05
1.19225e-05
4.90392e-07
3.45647e-08
4.16937e-06
2.80822e-05
6.63288e-05
9.89977e-05
0.000123799
0.000140436
0.000148933
0.000151782
0.000151761
0.000150925
0.000150215
0.000149526
0.000148482
0.000147277
0.000145921
0.000144913
0.000144232
0.000143107
0.000141539
0.00013699
0.000124958
0.000121905
0.000154116
0.000159463
0.000129975
9.30251e-05
6.7639e-05
4.8247e-05
3.15663e-05
3.21638e-05
0.000116018
0.000152164
0.000120832
0.000132933
0.000141056
0.000143221
0.000143753
0.000144443
0.000144824
0.000145439
0.000146348
0.000147743
0.000149272
0.000150654
0.000151429
0.000151296
0.000149611
0.000144193
0.000131365
0.000109927
8.09916e-05
4.36003e-05
1.06538e-05
4.34259e-07
3.1041e-08
3.75006e-06
2.54617e-05
6.08151e-05
9.09186e-05
0.000113853
0.000129728
0.000138057
0.000141045
0.000141316
0.000140625
0.00013988
0.000139219
0.00013817
0.000137008
0.000135552
0.000134449
0.000133632
0.000132764
0.000131197
0.000126976
0.000118968
0.00013812
0.000216442
0.000219758
0.000170044
0.000122643
8.37953e-05
5.69028e-05
3.92329e-05
5.10282e-05
0.000138533
0.000133576
0.000113718
0.000123831
0.000130556
0.000132639
0.000133452
0.000134008
0.000134447
0.000135068
0.00013604
0.000137454
0.000138966
0.000140283
0.000140992
0.000140839
0.000139004
0.000133316
0.000120832
0.00010085
7.43135e-05
3.96366e-05
9.54813e-06
3.8604e-07
2.79847e-08
3.38574e-06
2.31523e-05
5.58364e-05
8.36509e-05
0.000104854
0.000119923
0.000128156
0.000131267
0.0001317
0.000131132
0.000130352
0.000129674
0.000128682
0.000127546
0.00012611
0.000124894
0.000124154
0.000123345
0.000121847
0.000118096
0.000114155
0.000132222
0.000243281
0.000253823
0.000200759
0.00013948
9.2329e-05
6.02492e-05
5.18731e-05
0.000102451
0.000165442
0.000123827
0.000107576
0.000115567
0.000121198
0.00012308
0.00012395
0.000124451
0.000124929
0.000125567
0.000126573
0.000127989
0.000129475
0.000130732
0.000131397
0.000131148
0.000129162
0.000123384
0.000111288
9.27026e-05
6.83079e-05
3.6138e-05
8.58951e-06
3.4471e-07
2.5324e-08
3.06829e-06
2.11126e-05
5.13782e-05
7.70894e-05
9.66538e-05
0.000110923
0.000119056
0.000122281
0.000122845
0.000122373
0.000121599
0.000120896
0.000119965
0.000118879
0.000117502
0.000116238
0.000115495
0.000114786
0.000113388
0.000110144
0.000109667
0.000150898
0.000253014
0.00025697
0.000188962
0.00012718
8.51207e-05
6.60075e-05
8.61816e-05
0.000160121
0.000174579
0.000120713
0.000102093
0.000108047
0.000112625
0.000114415
0.000115218
0.000115712
0.000116255
0.000116914
0.000117902
0.000119264
0.00012071
0.000121907
0.000122515
0.000122189
0.000120077
0.00011425
0.000102603
8.54051e-05
6.2937e-05
3.30239e-05
7.75751e-06
3.0927e-07
2.2999e-08
2.79003e-06
1.92999e-05
4.73669e-05
7.11727e-05
8.91986e-05
0.000102664
0.000110652
0.000113973
0.000114656
0.000114265
0.000113512
0.000112793
0.000111917
0.000110889
0.000109614
0.000108407
0.000107636
0.00010693
0.000105594
0.000102846
0.000105274
0.000153265
0.000258769
0.00023291
0.000159786
0.000101233
7.66154e-05
8.13882e-05
0.000131109
0.000185938
0.000163056
0.000111818
9.90121e-05
0.000101198
0.000104784
0.000106474
0.000107243
0.00010775
0.000108309
0.000108973
0.000109923
0.000111218
0.000112594
0.000113727
0.000114273
0.00011388
0.000111664
0.00010583
9.46922e-05
7.88275e-05
5.81258e-05
3.02663e-05
7.03472e-06
2.78883e-07
2.09607e-08
2.54539e-06
1.76885e-05
4.37637e-05
6.58357e-05
8.24125e-05
9.50652e-05
0.000102864
0.00010626
0.000107053
0.00010673
0.000106005
0.000105285
0.00010446
0.000103496
0.000102327
0.000101196
0.000100428
9.97168e-05
9.8424e-05
9.61492e-05
0.000100399
0.00015582
0.000252375
0.000202376
0.000125743
8.28236e-05
7.44108e-05
0.000104584
0.000152651
0.000187102
0.000152883
0.000103479
9.44918e-05
9.49679e-05
9.75777e-05
9.91533e-05
9.99022e-05
0.000100416
0.000100976
0.000101643
0.000102556
0.000103771
0.000105061
0.000106126
0.00010661
0.000106161
0.000103864
9.8064e-05
8.74773e-05
7.28892e-05
5.38104e-05
2.78268e-05
6.40705e-06
2.52752e-07
1.91734e-08
2.3303e-06
1.62576e-05
4.05224e-05
6.10122e-05
7.62298e-05
8.80634e-05
9.563e-05
9.90811e-05
9.99733e-05
9.97147e-05
9.90206e-05
9.83126e-05
9.754e-05
9.66449e-05
9.55769e-05
9.45245e-05
9.37651e-05
9.3066e-05
9.18436e-05
8.99711e-05
9.55021e-05
0.000152175
0.000233096
0.000166981
0.000100153
7.03755e-05
7.8405e-05
0.000115823
0.00016332
0.000188459
0.000143281
9.95493e-05
8.99473e-05
8.94022e-05
9.09338e-05
9.23874e-05
9.31225e-05
9.36389e-05
9.41969e-05
9.48587e-05
9.57406e-05
9.68678e-05
9.80573e-05
9.90509e-05
9.9485e-05
9.89863e-05
9.66298e-05
9.09032e-05
8.08928e-05
6.75173e-05
4.99229e-05
2.56583e-05
5.86153e-06
2.30281e-07
1.75933e-08
2.14005e-06
1.4984e-05
3.76048e-05
5.66484e-05
7.05934e-05
8.1612e-05
8.89119e-05
9.23912e-05
9.33721e-05
9.31773e-05
9.2522e-05
9.18345e-05
9.11103e-05
9.02838e-05
8.93109e-05
8.83344e-05
8.75898e-05
8.69012e-05
8.57527e-05
8.42755e-05
9.05325e-05
0.000140688
0.000202366
0.000138438
8.31678e-05
6.77367e-05
8.53263e-05
0.000117531
0.000158759
0.000182541
0.000141173
9.76265e-05
8.50118e-05
8.429e-05
8.48112e-05
8.6135e-05
8.6855e-05
8.73688e-05
8.79202e-05
8.85702e-05
8.94157e-05
9.04648e-05
9.15494e-05
9.24648e-05
9.28574e-05
9.23229e-05
8.99232e-05
8.43028e-05
7.48852e-05
6.26545e-05
4.64187e-05
2.37272e-05
5.38414e-06
2.10771e-07
1.61949e-08
1.97172e-06
1.38471e-05
3.49684e-05
5.26987e-05
6.54602e-05
7.56738e-05
8.26778e-05
8.61597e-05
8.72171e-05
8.70872e-05
8.64781e-05
8.58147e-05
8.51311e-05
8.43676e-05
8.34812e-05
8.2577e-05
8.18524e-05
8.11755e-05
8.01022e-05
7.89885e-05
8.52244e-05
0.000127667
0.000171078
0.000119048
7.26108e-05
6.57716e-05
8.23581e-05
0.000107708
0.000144322
0.000175263
0.000162248
0.000103812
8.26372e-05
7.95477e-05
7.91821e-05
8.03541e-05
8.10559e-05
8.15662e-05
8.21057e-05
8.27386e-05
8.35422e-05
8.4515e-05
8.55122e-05
8.6343e-05
8.66945e-05
8.61304e-05
8.37093e-05
7.82266e-05
6.94046e-05
5.82472e-05
4.32538e-05
2.20045e-05
4.96481e-06
1.93789e-07
1.49455e-08
1.82102e-06
1.28313e-05
3.2587e-05
4.91202e-05
6.07848e-05
7.02147e-05
7.69004e-05
8.03603e-05
8.14804e-05
8.14138e-05
8.08561e-05
8.02196e-05
7.95673e-05
7.88574e-05
7.80479e-05
7.72106e-05
7.6509e-05
7.58464e-05
7.48501e-05
7.4056e-05
8.00277e-05
0.000113972
0.00014943
0.000106267
6.99425e-05
6.61794e-05
7.53276e-05
9.44762e-05
0.000126156
0.000160488
0.000161663
0.000117246
8.66994e-05
7.51845e-05
7.39975e-05
7.50012e-05
7.56826e-05
7.61869e-05
7.67152e-05
7.7329e-05
7.80873e-05
7.89867e-05
7.99071e-05
8.06599e-05
8.09656e-05
8.03756e-05
7.79467e-05
7.26382e-05
6.44201e-05
5.42675e-05
4.04132e-05
2.04865e-05
4.60879e-06
1.80088e-07
1.38308e-08
1.68646e-06
1.19136e-05
3.04306e-05
4.58671e-05
5.65223e-05
6.51955e-05
7.15489e-05
7.49647e-05
7.61331e-05
7.61236e-05
7.5619e-05
7.50131e-05
7.43873e-05
7.37219e-05
7.29796e-05
7.22039e-05
7.1529e-05
7.08849e-05
6.99713e-05
6.94919e-05
7.5039e-05
0.000102555
0.000135667
0.000103012
7.24026e-05
6.29562e-05
6.79838e-05
8.15633e-05
0.000108203
0.000142527
0.00015654
0.000122256
8.51323e-05
7.1135e-05
6.92433e-05
7.0046e-05
7.07016e-05
7.11968e-05
7.1713e-05
7.23078e-05
7.30212e-05
7.38514e-05
7.47024e-05
7.53932e-05
7.56468e-05
7.50225e-05
7.26036e-05
6.75021e-05
5.98856e-05
5.06705e-05
3.7855e-05
1.91406e-05
4.29959e-06
1.68791e-07
1.28294e-08
1.56555e-06
1.10877e-05
2.84653e-05
4.29025e-05
5.26318e-05
6.0582e-05
6.65934e-05
6.99468e-05
7.1149e-05
7.1188e-05
7.07346e-05
7.01643e-05
6.95674e-05
6.89409e-05
6.82566e-05
6.75379e-05
6.6894e-05
6.6272e-05
6.54435e-05
6.52786e-05
7.0533e-05
9.30709e-05
0.000126122
0.00010597
7.77333e-05
6.22782e-05
6.26301e-05
7.10215e-05
9.30669e-05
0.0001248
0.00014402
0.000123248
8.3903e-05
6.73727e-05
6.48628e-05
6.5459e-05
6.60832e-05
6.65648e-05
6.70671e-05
6.7642e-05
6.83152e-05
6.90839e-05
6.98719e-05
7.05067e-05
7.07074e-05
7.00467e-05
6.76555e-05
6.27829e-05
5.57554e-05
4.74089e-05
3.5537e-05
1.79279e-05
4.02386e-06
1.58716e-07
1.1934e-08
1.45693e-06
1.03414e-05
2.66693e-05
4.01934e-05
4.90767e-05
5.63422e-05
6.20067e-05
6.52808e-05
6.65032e-05
6.65804e-05
6.61738e-05
6.56446e-05
6.5084e-05
6.44954e-05
6.38604e-05
6.31927e-05
6.2581e-05
6.19831e-05
6.12455e-05
6.13758e-05
6.65398e-05
8.39332e-05
0.000120444
0.000116334
7.69184e-05
6.04357e-05
5.79448e-05
6.2494e-05
8.06554e-05
0.000109804
0.000131243
0.000116783
8.09894e-05
6.38453e-05
6.08187e-05
6.12092e-05
6.17967e-05
6.22602e-05
6.2748e-05
6.3305e-05
6.39416e-05
6.46579e-05
6.5389e-05
6.59712e-05
6.6127e-05
6.54331e-05
6.30749e-05
5.8446e-05
5.1995e-05
4.44524e-05
3.34341e-05
1.68332e-05
3.77695e-06
1.49641e-07
1.11243e-08
1.35817e-06
9.66327e-06
2.50254e-05
3.77135e-05
4.58279e-05
5.24506e-05
5.7767e-05
6.09467e-05
6.21773e-05
6.22834e-05
6.1918e-05
6.14331e-05
6.09159e-05
6.03663e-05
5.97716e-05
5.91466e-05
5.85659e-05
5.79948e-05
5.7351e-05
5.77506e-05
6.29376e-05
7.76391e-05
0.000113122
0.000115738
8.44979e-05
6.21296e-05
5.38523e-05
5.60645e-05
7.11591e-05
9.9149e-05
0.000120343
0.000108942
7.6843e-05
6.05403e-05
5.70796e-05
5.72718e-05
5.78171e-05
5.826e-05
5.87325e-05
5.92721e-05
5.98766e-05
6.05459e-05
6.1227e-05
6.17606e-05
6.18756e-05
6.11523e-05
5.88445e-05
5.44648e-05
4.85709e-05
4.17701e-05
3.15225e-05
1.58408e-05
3.55234e-06
1.41464e-07
1.03935e-08
1.26894e-06
9.04695e-06
2.35188e-05
3.54436e-05
4.28632e-05
4.88852e-05
5.38577e-05
5.69302e-05
5.81602e-05
5.82891e-05
5.79588e-05
5.75165e-05
5.70447e-05
5.65329e-05
5.59709e-05
5.53801e-05
5.48282e-05
5.42866e-05
5.37406e-05
5.43797e-05
5.98715e-05
7.57015e-05
0.000106673
0.000108807
8.23489e-05
5.98963e-05
5.02839e-05
5.05336e-05
6.3834e-05
8.97203e-05
0.000111649
0.000102804
7.33097e-05
5.73437e-05
5.36106e-05
5.36257e-05
5.41252e-05
5.45442e-05
5.50017e-05
5.55241e-05
5.60977e-05
5.67246e-05
5.73618e-05
5.78527e-05
5.79263e-05
5.71795e-05
5.49374e-05
5.08181e-05
4.5453e-05
3.93315e-05
2.97776e-05
1.49338e-05
3.34839e-06
1.34011e-07
9.72787e-09
1.18771e-06
8.48554e-06
2.21354e-05
3.33636e-05
4.01588e-05
4.5624e-05
5.02577e-05
5.32151e-05
5.44399e-05
5.45885e-05
5.42875e-05
5.3881e-05
5.345e-05
5.29732e-05
5.24384e-05
5.18744e-05
5.13493e-05
5.08413e-05
5.03978e-05
5.12479e-05
5.70774e-05
7.24779e-05
9.97514e-05
0.000100252
7.70152e-05
5.64876e-05
4.72096e-05
4.69641e-05
5.86005e-05
8.21117e-05
0.000104085
9.78359e-05
7.02163e-05
5.44589e-05
5.04008e-05
5.02868e-05
5.07193e-05
5.10999e-05
5.15406e-05
5.20444e-05
5.2586e-05