/*--------------------------------*- C++ -*----------------------------------*\
  =========                 |
  \\      /  F ield         | OpenFOAM: The Open Source CFD Toolbox
   \\    /   O peration     | Website:  https://openfoam.org
    \\  /    A nd           | Version:  7
     \\/     M anipulation  |
\*---------------------------------------------------------------------------*/
FoamFile
{
    version     2.0;
    format      ascii;
    class       volScalarField;
    location    "95";
    object      nut;
}
// * * * * * * * * * * * * * * * * * * * * * * * * * * * * * * * * * * * * * //

dimensions      [0 2 -1 0 0 0 0];

internalField   nonuniform List<scalar> 
17475
(
3.12042e-05
0.00018885
0.000188081
0.000188028
0.000188026
0.000188026
0.000188025
0.000188025
0.000188025
0.000188025
0.000188025
0.000188025
0.000188025
0.000188025
0.000188025
0.000188025
0.000188025
0.000188025
0.000188025
0.000188025
0.000188025
0.000188025
0.000188024
0.000188025
0.000188023
0.000188026
0.000188026
0.000188026
0.000188026
0.000188026
0.000188026
0.000188026
0.000188026
0.000188026
0.000188026
0.000188026
0.000188026
0.000188026
0.000188026
0.000188027
0.000188029
0.000188031
0.000188033
0.000188034
0.000188035
0.000188037
0.000188038
0.000188039
0.00018804
0.000188041
0.000188042
0.000188043
0.000188053
0.000188285
0.000150675
9.21702e-07
0.000115391
0.000172096
0.000176596
0.000176758
0.000176762
0.000176759
0.000176757
0.000176755
0.000176753
0.000176752
0.000176751
0.00017675
0.000176749
0.000176749
0.000176748
0.000176747
0.000176746
0.000176745
0.000176744
0.000176743
0.000176742
0.000176744
0.000176736
0.000176744
0.000176747
0.000176751
0.000176751
0.00017675
0.000176749
0.000176748
0.000176747
0.000176747
0.000176747
0.000176747
0.000176747
0.000176747
0.000176746
0.000176744
0.000176743
0.000176743
0.000176743
0.000176743
0.000176745
0.000176746
0.000176748
0.00017675
0.000176752
0.000176755
0.000176758
0.000176758
0.000176696
0.000175358
0.000153948
1.68132e-05
1.20105e-07
5.92157e-05
0.000151136
0.000168229
0.000169907
0.000170016
0.00017002
0.000170015
0.000170008
0.000170001
0.000169997
0.000169994
0.000169992
0.00016999
0.000169989
0.000169987
0.000169985
0.000169983
0.000169982
0.000169979
0.000169977
0.000169978
0.000169978
0.000169983
0.000169984
0.000169985
0.00016999
0.000169993
0.000169993
0.000169992
0.00016999
0.00016999
0.000169991
0.000169994
0.000169994
0.000169994
0.000169995
0.000169993
0.000169991
0.00016999
0.00016999
0.000169987
0.000169984
0.000169986
0.000169989
0.000169991
0.000169993
0.000169998
0.000170005
0.000170011
0.000169973
0.000169341
0.00016117
0.00010286
3.04257e-06
3.86035e-08
3.04507e-05
0.00012783
0.000159096
0.000164771
0.000165348
0.000165408
0.000165408
0.000165394
0.00016538
0.000165375
0.000165369
0.000165364
0.000165357
0.000165354
0.000165351
0.000165345
0.000165342
0.000165339
0.000165332
0.000165329
0.000165329
0.000165335
0.000165336
0.000165338
0.000165339
0.00016534
0.000165345
0.000165344
0.00016534
0.000165336
0.000165337
0.000165341
0.000165346
0.000165346
0.000165347
0.00016535
0.000165346
0.000165344
0.000165346
0.000165348
0.000165341
0.000165338
0.000165345
0.000165355
0.000165363
0.000165368
0.000165376
0.000165383
0.000165374
0.000165149
0.000162507
0.000144063
6.41267e-05
1.07879e-06
1.75531e-08
1.70643e-05
0.000104929
0.00014899
0.000159917
0.000161719
0.000161945
0.000161968
0.000161951
0.000161936
0.000161932
0.000161925
0.000161916
0.000161901
0.000161898
0.000161894
0.000161886
0.000161875
0.00016187
0.000161863
0.000161855
0.000161856
0.000161855
0.00016185
0.000161862
0.000161864
0.000161856
0.000161853
0.000161846
0.000161835
0.000161833
0.000161836
0.000161847
0.000161854
0.000161854
0.00016186
0.00016186
0.000161852
0.000161853
0.000161858
0.000161862
0.000161858
0.000161861
0.000161874
0.000161891
0.000161908
0.000161916
0.000161925
0.000161921
0.000161841
0.000161046
0.000154826
0.000126089
4.19029e-05
5.49632e-07
9.62288e-09
1.052e-05
8.5017e-05
0.000138712
0.000154748
0.000158569
0.000159161
0.00015925
0.000159232
0.000159211
0.000159218
0.000159217
0.000159209
0.000159188
0.000159182
0.000159172
0.000159168
0.000159142
0.000159135
0.000159132
0.000159124
0.000159114
0.000159096
0.000159087
0.000159115
0.000159116
0.000159089
0.000159057
0.000159033
0.000159029
0.000159044
0.000159058
0.000159078
0.000159081
0.000159083
0.000159108
0.000159103
0.000159085
0.000159093
0.000159102
0.000159104
0.000159107
0.000159113
0.000159125
0.000159149
0.000159186
0.000159193
0.000159196
0.000159161
0.000158897
0.000156966
0.000146647
0.000109005
2.90668e-05
3.32335e-07
5.97162e-09
7.04377e-06
6.89358e-05
0.000128469
0.000149319
0.000155599
0.000156871
0.000157102
0.000157063
0.000157008
0.00015704
0.000157057
0.000157038
0.000157025
0.000157026
0.000156997
0.000157011
0.000156982
0.000156947
0.000156912
0.000156901
0.000156899
0.00015685
0.000156854
0.000156873
0.000156858
0.000156805
0.000156731
0.000156701
0.000156739
0.000156779
0.000156812
0.000156837
0.000156839
0.000156831
0.000156901
0.000156918
0.000156877
0.000156878
0.000156886
0.00015689
0.00015688
0.000156859
0.000156869
0.000156897
0.000157002
0.000157019
0.000156969
0.000156868
0.000156256
0.000152656
0.000138503
9.39595e-05
2.12622e-05
2.22253e-07
4.05196e-09
5.04168e-06
5.63954e-05
0.000118604
0.000144183
0.000152971
0.000155253
0.000155735
0.00015569
0.00015565
0.000155718
0.000155752
0.000155652
0.000155581
0.000155628
0.000155569
0.000155595
0.000155534
0.000155416
0.000155282
0.000155247
0.00015529
0.000155192
0.000155163
0.000155114
0.000155089
0.00015499
0.000154864
0.000154868
0.000155015
0.000155062
0.000155063
0.0001551
0.000155129
0.000155119
0.00015523
0.000155265
0.000155204
0.000155205
0.00015521
0.000155225
0.000155189
0.00015515
0.000155137
0.000155189
0.000155396
0.000155418
0.000155288
0.000155064
0.000153878
0.000148392
0.000130738
8.12863e-05
1.61662e-05
1.56739e-07
2.93382e-09
3.78887e-06
4.67084e-05
0.00010939
0.000139784
0.000151096
0.000154753
0.000155574
0.00015559
0.000155551
0.000155685
0.000155841
0.00015563
0.000155442
0.000155612
0.000155477
0.000155374
0.000155106
0.000154776
0.000154489
0.000154399
0.000154499
0.000154398
0.000154274
0.000154215
0.000154136
0.000153812
0.000153553
0.000153606
0.000154032
0.000154183
0.000154037
0.000154093
0.000154216
0.000154273
0.000154408
0.000154384
0.000154281
0.000154264
0.000154321
0.000154334
0.000154133
0.000154055
0.000154061
0.000154271
0.000154553
0.000154509
0.0001543
0.000153857
0.000151832
0.000144601
0.000123551
7.06989e-05
1.2747e-05
1.18081e-07
2.22887e-09
2.9571e-06
3.92174e-05
0.000100968
0.000136111
0.000149803
0.000155368
0.000156846
0.000156496
0.000156227
0.0001567
0.000157042
0.000156802
0.0001564
0.000156612
0.000156333
0.000155955
0.000155824
0.000155169
0.000154604
0.000154452
0.000154465
0.00015428
0.000154263
0.000154365
0.000154083
0.000153528
0.000153168
0.000153263
0.000153865
0.00015412
0.000153993
0.000154013
0.000154143
0.000154144
0.000154384
0.000154499
0.000154286
0.000153969
0.0001541
0.000154453
0.000154013
0.000153649
0.000153569
0.000153955
0.000154761
0.000154892
0.000154067
0.000153161
0.000150416
0.000141619
0.000117252
6.22786e-05
1.03858e-05
9.32362e-08
1.75567e-09
2.37712e-06
3.34026e-05
9.33568e-05
0.000132842
0.000148574
0.000155828
0.000158007
0.000157715
0.000157291
0.000157766
0.000158508
0.000158666
0.000158066
0.000158117
0.000158132
0.000157693
0.000157492
0.000156529
0.000155688
0.000155349
0.000155311
0.000155167
0.000154842
0.000155062
0.000155301
0.00015454
0.000154073
0.000154121
0.000154571
0.000154926
0.000154762
0.000154718
0.000154988
0.000154811
0.000155106
0.000154841
0.000154764
0.000154364
0.000154529
0.000154688
0.000154356
0.000154048
0.000154092
0.000155079
0.000155989
0.000156055
0.000154962
0.000153324
0.000149336
0.000139546
0.000111837
5.54044e-05
8.66978e-06
7.61785e-08
1.42401e-09
1.95808e-06
2.88464e-05
8.6351e-05
0.000129566
0.000147825
0.000156188
0.000158586
0.000158473
0.000158108
0.000159181
0.000160472
0.000162164
0.000159669
0.000159639
0.000160476
0.000158175
0.000158957
0.000157647
0.000156889
0.000157021
0.000156422
0.000156457
0.000157485
0.000157796
0.000157175
0.00015535
0.000156712
0.000157048
0.000155204
0.000154979
0.000155982
0.000155021
0.000156484
0.000156615
0.000156685
0.000156955
0.00015687
0.000155566
0.000155413
0.00015565
0.00015561
0.000154804
0.000154791
0.00015623
0.000156783
0.000158151
0.000155684
0.000154039
0.00014875
0.000136962
0.000106628
4.96822e-05
7.38731e-06
6.40267e-08
1.18381e-09
1.64934e-06
2.52152e-05
7.98892e-05
0.000125304
0.000148588
0.000156705
0.000160899
0.000160143
0.000156633
0.000158308
0.00016406
0.000163851
0.000162958
0.000162714
0.00016152
0.000160256
0.000160119
0.000159634
0.000158885
0.000158703
0.000158131
0.000156951
0.000157437
0.000159628
0.0001586
0.000157596
0.000157888
0.000158379
0.000157777
0.000157137
0.000158337
0.000159278
0.000159107
0.000158876
0.000159007
0.000159715
0.000159154
0.000158027
0.00015692
0.000156824
0.000157138
0.000157555
0.000157423
0.000158018
0.000160724
0.000161391
0.000159128
0.000156082
0.000151225
0.000137242
0.00010107
4.46766e-05
6.39849e-06
5.51085e-08
1.00283e-09
1.4112e-06
2.22652e-05
7.37481e-05
0.000121831
0.000142955
0.000150922
0.000155272
0.000154804
0.000156266
0.000157899
0.000159106
0.000158886
0.000158554
0.000157962
0.000156253
0.000155094
0.000153324
0.000151941
0.000150748
0.000150003
0.000149367
0.000149263
0.000149747
0.000151096
0.000151286
0.000150556
0.000149624
0.000149634
0.000149776
0.000150156
0.000150619
0.000151316
0.000151119
0.000151242
0.000151394
0.000151756
0.000151884
0.000152576
0.000152646
0.000152653
0.000153306
0.000153916
0.000153572
0.000153936
0.000156212
0.000155284
0.000153908
0.000150988
0.000144804
0.000130705
9.53189e-05
4.02465e-05
5.58099e-06
4.74732e-08
8.62832e-10
1.22342e-06
1.98464e-05
6.81622e-05
0.000111568
0.000133176
0.000142563
0.000145995
0.000146642
0.000146922
0.000148163
0.000148892
0.000148712
0.000148201
0.000147318
0.00014627
0.000144836
0.000142933
0.000141302
0.000139968
0.00013882
0.000138
0.000137702
0.000137967
0.00013876
0.0001397
0.000139476
0.000139179
0.000139144
0.000138909
0.000138801
0.000138647
0.000138592
0.000139546
0.000140095
0.000140632
0.000140963
0.000141694
0.000143114
0.000143533
0.000143887
0.000144621
0.00014508
0.000145291
0.000145454
0.000146056
0.000145823
0.000144732
0.000141963
0.000135123
0.000120739
8.72287e-05
3.6285e-05
4.92206e-06
4.12691e-08
7.52011e-10
1.07494e-06
1.77506e-05
6.18979e-05
0.000103241
0.000124574
0.00013351
0.000137181
0.000137901
0.00013831
0.000139075
0.000139394
0.000139097
0.0001385
0.00013754
0.000136621
0.000135252
0.000132991
0.000131063
0.000129474
0.000127758
0.000126635
0.000125671
0.000124867
0.000125769
0.000129632
0.000111256
0.000104064
0.000105836
0.000117327
0.000127885
0.000125954
0.000126284
0.000126828
0.000128142
0.000129837
0.000130705
0.00013184
0.000133589
0.000134201
0.000134463
0.000135161
0.000135739
0.000135906
0.000136154
0.000136755
0.000136683
0.000135656
0.000132691
0.000126031
0.000111798
7.96227e-05
3.31296e-05
4.36669e-06
3.61825e-08
6.511e-10
9.46178e-07
1.5989e-05
5.62377e-05
9.55689e-05
0.000116109
0.00012499
0.000128742
0.000129547
0.000129832
0.000130229
0.000130206
0.000129748
0.000129053
0.000128072
0.000127276
0.000125892
0.000123238
0.000121257
0.000118832
0.000115854
0.000114452
0.000112212
0.000112426
9.94449e-05
6.94728e-05
4.56164e-05
2.40267e-05
2.42384e-05
5.82687e-05
8.09577e-05
0.000114279
0.000113051
0.000113389
0.000115749
0.000118088
0.000119894
0.00012206
0.000124371
0.000125294
0.000125599
0.000126335
0.000126842
0.000127085
0.000127412
0.000127915
0.000127922
0.000127053
0.000124153
0.000117495
0.000103502
7.29624e-05
3.00382e-05
3.90555e-06
3.20233e-08
4.69407e-10
7.98879e-07
1.40518e-05
5.08919e-05
8.77585e-05
0.000107849
0.000116756
0.000120608
0.000121454
0.000121517
0.000121544
0.000121266
0.000120669
0.000119897
0.000119015
0.000118224
0.000116346
0.000113573
0.000110975
0.000108051
0.000105002
0.000102858
0.000102967
9.37078e-05
3.24556e-05
1.57996e-06
1.45382e-09
1.4194e-08
1.24629e-05
4.18461e-05
0.000103411
0.000102019
0.00010389
0.000106706
0.00010977
0.000112349
0.000114807
0.000116423
0.000116832
0.000117657
0.000118215
0.000118575
0.000118914
0.00011937
0.000119481
0.000118768
0.000116016
0.000109469
9.56522e-05
6.69393e-05
2.72618e-05
3.49809e-06
2.84298e-08
1.13448e-10
4.74218e-07
1.14587e-05
4.47917e-05
7.9109e-05
9.84915e-05
0.000107423
0.000111254
0.000112048
0.00011176
0.000111366
0.000110909
0.000110192
0.000109375
0.000108478
0.000107544
0.00010532
0.000102434
9.94458e-05
9.62531e-05
9.3532e-05
9.31763e-05
8.19379e-05
2.39537e-05
1.36271e-06
2.17044e-10
5.75969e-06
6.00275e-05
8.82854e-05
9.19859e-05
9.51541e-05
9.85968e-05
0.000101807
0.000104515
0.000106115
0.000106746
0.000107711
0.000108408
0.00010886
0.000109149
0.000109564
0.000109832
0.000109346
0.000106847
0.000100579
8.72212e-05
6.11312e-05
2.50187e-05
3.11421e-06
2.35933e-08
1.51615e-10
5.57905e-07
1.06469e-05
3.97659e-05
6.87249e-05
8.49178e-05
9.31242e-05
9.62467e-05
9.65701e-05
9.61618e-05
9.53453e-05
9.47152e-05
9.43684e-05
9.31075e-05
9.19602e-05
9.03293e-05
8.87888e-05
8.69812e-05
8.39731e-05
8.05396e-05
7.86652e-05
7.47733e-05
4.96627e-05
6.8977e-06
1.1479e-07
1.19528e-06
2.49575e-05
6.83152e-05
7.74243e-05
7.93871e-05
8.20885e-05
8.5686e-05
8.76356e-05
8.87312e-05
8.97139e-05
9.09087e-05
9.18957e-05
9.26078e-05
9.33315e-05
9.4048e-05
9.48049e-05
9.46433e-05
9.28193e-05
8.73784e-05
7.55283e-05
5.30978e-05
2.22959e-05
3.00632e-06
2.62473e-08
3.27122e-10
5.62942e-07
1.0358e-05
3.69216e-05
6.23792e-05
7.73669e-05
8.48769e-05
8.8045e-05
8.83025e-05
8.76271e-05
8.7296e-05
8.66393e-05
8.58354e-05
8.48578e-05
8.34694e-05
8.16835e-05
8.06839e-05
7.90943e-05
7.5807e-05
7.3053e-05
7.09929e-05
6.25465e-05
3.08338e-05
3.81479e-06
1.47187e-07
4.31574e-10
5.06595e-09
9.97897e-07
1.45496e-05
5.01173e-05
6.87203e-05
7.1837e-05
7.40475e-05
7.72388e-05
7.86089e-05
8.02648e-05
8.08722e-05
8.18123e-05
8.32399e-05
8.44236e-05
8.53133e-05
8.61839e-05
8.67043e-05
8.65216e-05
8.48059e-05
7.96219e-05
6.85728e-05
4.80408e-05
2.01719e-05
2.68528e-06
2.17808e-08
3.60041e-10
5.29811e-07
9.51654e-06
3.36965e-05
5.66673e-05
7.05791e-05
7.7816e-05
8.08287e-05
8.1184e-05
8.07826e-05
8.04253e-05
7.95805e-05
7.86978e-05
7.78145e-05
7.65848e-05
7.50849e-05
7.38257e-05
7.25498e-05
6.97395e-05
6.69196e-05
6.46317e-05
5.41138e-05
2.30396e-05
3.24685e-06
4.18e-07
6.41735e-08
1.99356e-08
2.31742e-08
2.45547e-08
4.34685e-08
2.17064e-07
1.44021e-06
1.09053e-05
4.02256e-05
6.09757e-05
6.57164e-05
6.8136e-05
7.1008e-05
7.24307e-05
7.33149e-05
7.37958e-05
7.49895e-05
7.6436e-05
7.75839e-05
7.85999e-05
7.96172e-05
8.0143e-05
7.97836e-05
7.80346e-05
7.29803e-05
6.24088e-05
4.34045e-05
1.83072e-05
2.39007e-06
1.9144e-08
3.31231e-10
4.82862e-07
8.6029e-06
3.0572e-05
5.15192e-05
6.46597e-05
7.18166e-05
7.47563e-05
7.52396e-05
7.47994e-05
7.42748e-05
7.37931e-05
7.29125e-05
7.18506e-05
7.0558e-05
6.90057e-05
6.79721e-05
6.68644e-05
6.46058e-05
6.20303e-05
5.9218e-05
4.7174e-05
1.9496e-05
3.50826e-06
6.97971e-07
4.88523e-07
9.92341e-07
1.48641e-06
1.51941e-06
1.07883e-06
1.09768e-06
2.23752e-06
9.87531e-06
3.36346e-05
5.466e-05
6.05347e-05
6.28874e-05
6.5313e-05
6.68436e-05
6.7745e-05
6.83132e-05
6.92087e-05
7.04584e-05
7.18023e-05
7.29149e-05
7.39297e-05
7.43788e-05
7.39002e-05
7.21182e-05
6.71244e-05
5.69649e-05
3.94769e-05
1.66067e-05
2.13477e-06
1.70258e-08
2.97717e-10
4.34719e-07
7.77238e-06
2.7701e-05
4.6882e-05
5.92165e-05
6.61097e-05
6.90513e-05
6.96481e-05
6.92381e-05
6.87698e-05
6.84024e-05
6.75759e-05
6.6462e-05
6.51909e-05
6.37367e-05
6.27424e-05
6.17533e-05
5.99364e-05
5.77983e-05
5.46996e-05
4.21909e-05
1.87152e-05
4.47226e-06
1.09892e-06
9.83414e-07
1.7123e-06
2.7454e-06
3.67827e-06
3.4464e-06
2.97687e-06
3.42672e-06
1.01344e-05
2.98571e-05
4.965e-05
5.62324e-05
5.85138e-05
6.04479e-05
6.18752e-05
6.27016e-05
6.32475e-05
6.40371e-05
6.52456e-05
6.65655e-05
6.7751e-05
6.87498e-05
6.90676e-05
6.84312e-05
6.6559e-05
6.17474e-05
5.20897e-05
3.5924e-05
1.50563e-05
1.9145e-06
1.52184e-08
2.66712e-10
3.90046e-07
7.01496e-06
2.50927e-05
4.26044e-05
5.40758e-05
6.05055e-05
6.3367e-05
6.42798e-05
6.40168e-05
6.3602e-05
6.32851e-05
6.2477e-05
6.1393e-05
6.02153e-05
5.88596e-05
5.79546e-05
5.71187e-05
5.56055e-05
5.38047e-05
5.09679e-05
4.12021e-05
1.94436e-05
6.2684e-06
2.14742e-06
1.34799e-06
1.71584e-06
2.84268e-06
4.45096e-06
5.62985e-06
5.41701e-06
5.08059e-06
1.15058e-05
2.81567e-05
4.58117e-05
5.2297e-05
5.443e-05
5.6094e-05
5.72848e-05
5.81045e-05
5.85726e-05
5.92032e-05
6.04729e-05
6.17361e-05
6.29426e-05
6.38385e-05
6.40161e-05
6.32979e-05
6.13971e-05
5.67402e-05
4.75788e-05
3.26779e-05
1.36213e-05
1.71327e-06
1.35751e-08
2.3858e-10
3.49429e-07
6.3168e-06
2.26335e-05
3.85618e-05
4.91168e-05
5.48764e-05
5.80175e-05
5.8993e-05
5.87297e-05
5.80608e-05
5.79057e-05
5.7275e-05
5.6379e-05
5.51835e-05
5.33996e-05
5.29787e-05
5.26514e-05
5.13294e-05
4.97817e-05
4.72473e-05
3.8707e-05
2.06941e-05
8.39464e-06
3.82567e-06
2.32366e-06
2.15004e-06
2.84469e-06
3.97354e-06
6.21234e-06
7.54825e-06
7.91698e-06
1.36797e-05
2.76113e-05
4.2603e-05
4.84946e-05
5.05696e-05
5.19868e-05
5.27529e-05
5.3661e-05
5.40798e-05
5.44871e-05
5.56702e-05
5.65689e-05
5.8064e-05
5.90009e-05
5.91133e-05
5.82499e-05
5.62963e-05
5.18852e-05
4.32587e-05
2.96474e-05
1.23074e-05
1.53108e-06
1.1959e-08
2.13233e-10
3.12834e-07
5.67802e-06
2.03517e-05
3.47101e-05
4.4397e-05
4.96538e-05
5.28371e-05
5.37611e-05
5.35535e-05
5.25547e-05
5.25495e-05
5.17498e-05
5.11479e-05
5.0502e-05
4.83899e-05
4.83055e-05
4.82482e-05
4.71677e-05
4.55836e-05
4.33908e-05
3.55496e-05
2.17898e-05
1.08953e-05
5.97315e-06
4.05196e-06
3.05651e-06
3.47019e-06
3.59798e-06
5.13334e-06
8.97236e-06
1.34385e-05
1.82476e-05
2.85893e-05
3.95986e-05
4.48108e-05
4.63735e-05
4.75156e-05
4.82759e-05
4.92539e-05
4.9491e-05
4.99661e-05
5.09245e-05
5.15233e-05
5.33646e-05
5.40132e-05
5.4069e-05
5.30003e-05
5.10325e-05
4.71181e-05
3.91176e-05
2.67845e-05
1.10745e-05
1.35912e-06
1.04326e-08
1.9048e-10
2.80091e-07
5.093e-06
1.83e-05
3.10372e-05
3.78855e-05
4.39854e-05
4.79872e-05
4.89431e-05
4.85517e-05
4.68162e-05
4.79155e-05
4.77641e-05
4.72586e-05
4.64113e-05
4.53347e-05
4.33235e-05
4.43557e-05
4.35933e-05
4.20011e-05
3.8779e-05
3.30338e-05
2.26998e-05
1.37283e-05
8.80884e-06
6.30297e-06
4.98592e-06
4.8936e-06
3.66918e-06
3.41521e-06
8.50515e-06
2.1558e-05
2.74303e-05
2.88745e-05
3.61968e-05
4.01151e-05
4.27598e-05
4.36489e-05
4.25607e-05
4.27579e-05
4.54729e-05
4.64513e-05
4.72982e-05
4.79079e-05
4.90382e-05
4.79827e-05
4.91849e-05
4.81398e-05
4.63315e-05
4.21832e-05
3.51571e-05
2.41304e-05
9.88562e-06
1.20663e-06
9.12023e-09
1.70186e-10
2.50831e-07
4.59625e-06
1.62645e-05
2.7588e-05
3.57122e-05
4.08744e-05
4.3775e-05
4.6019e-05
4.41839e-05
4.42635e-05
4.34418e-05
4.31646e-05
4.44856e-05
4.25411e-05
4.30668e-05
4.22714e-05
4.14313e-05
4.06903e-05
3.87449e-05
3.7045e-05
3.13739e-05
2.34743e-05
1.73323e-05
1.3363e-05
9.97886e-06
8.06214e-06
7.79368e-06
5.2213e-06
3.13662e-06
5.46512e-06
2.47877e-05
3.61837e-05
2.9026e-05
3.36965e-05
3.80777e-05
3.93359e-05
4.09307e-05
4.10182e-05
4.09153e-05
4.15786e-05
4.33349e-05
4.44684e-05
4.41708e-05
4.49788e-05
4.63477e-05
4.43456e-05
4.37773e-05
4.25706e-05
3.84193e-05
3.15473e-05
2.14767e-05
8.9584e-06
1.07239e-06
7.9919e-09
1.52198e-10
2.24959e-07
4.16509e-06
1.50155e-05
2.54842e-05
3.28748e-05
3.83485e-05
4.20185e-05
4.22356e-05
4.2808e-05
4.1685e-05
4.16504e-05
4.13032e-05
4.08421e-05
4.09185e-05
4.05648e-05
4.00339e-05
3.9411e-05
3.85906e-05
3.8035e-05
3.58832e-05
3.08627e-05
2.58183e-05
2.44732e-05
2.18952e-05
1.66407e-05
1.30163e-05
1.24199e-05
7.839e-06
4.51367e-06
5.14653e-06
2.36772e-05
3.99183e-05
2.82858e-05
3.32087e-05
3.59612e-05
3.83803e-05
3.86462e-05
3.96102e-05
3.98945e-05
4.04085e-05
4.08505e-05
4.19821e-05
4.35035e-05
4.39458e-05
4.38285e-05
4.24225e-05
4.19283e-05
4.11886e-05
3.60522e-05
3.00592e-05
1.99869e-05
8.08563e-06
9.56156e-07
7.0261e-09
1.36394e-10
2.02208e-07
3.79192e-06
1.41956e-05
2.45086e-05
3.20538e-05
3.72547e-05
4.00034e-05
4.14112e-05
4.15038e-05
4.1461e-05
4.09164e-05
4.07002e-05
4.00691e-05
3.94786e-05
3.80222e-05
3.74998e-05
3.67412e-05
3.63266e-05
3.57623e-05
3.4239e-05
3.11528e-05
2.9818e-05
3.54379e-05
3.38899e-05
2.58069e-05
1.94921e-05
1.81402e-05
1.11582e-05
6.3282e-06
6.67138e-06
2.59462e-05
3.5448e-05
2.85647e-05
3.16944e-05
3.4916e-05
3.63002e-05
3.62623e-05
3.76076e-05
3.80787e-05
3.84414e-05
3.89633e-05
3.98249e-05
4.07796e-05
4.16886e-05
4.16031e-05
4.19991e-05
4.10326e-05
3.87523e-05
3.48969e-05
2.81557e-05
1.89309e-05
7.38539e-06
8.54987e-07
6.19701e-09
1.22514e-10
1.8225e-07
3.44889e-06
1.32216e-05
2.34668e-05
3.05609e-05
3.55718e-05
3.80203e-05
3.90551e-05
3.95891e-05
3.94291e-05
3.89729e-05
3.86992e-05
3.82239e-05
3.75556e-05
3.61664e-05
3.5281e-05
3.49157e-05
3.45441e-05
3.38945e-05
3.27286e-05
3.03426e-05
3.49124e-05
5.33256e-05
4.99813e-05
3.61661e-05
2.73439e-05
2.33107e-05
1.3703e-05
8.44626e-06
1.1444e-05
3.29327e-05
3.36664e-05
2.84657e-05
3.21027e-05
3.31026e-05
3.43888e-05
3.5328e-05
3.54302e-05
3.57959e-05
3.62599e-05
3.68197e-05
3.75345e-05
3.83784e-05
3.90968e-05
3.94057e-05
3.94862e-05
3.86335e-05
3.63837e-05
3.24441e-05
2.62383e-05
1.7619e-05
6.78031e-06
7.67229e-07
5.49077e-09
1.10483e-10
1.64943e-07
3.14935e-06
1.21778e-05
2.17966e-05
2.86002e-05
3.32899e-05
3.59424e-05
3.70044e-05
3.72904e-05
3.71188e-05
3.66408e-05
3.62741e-05
3.58633e-05
3.53526e-05
3.4416e-05
3.34515e-05
3.32422e-05
3.28622e-05
3.23983e-05
3.11495e-05
2.97853e-05
3.42511e-05
6.03261e-05
6.08208e-05
4.56084e-05
3.31949e-05
2.68826e-05
1.52485e-05
1.19285e-05
2.44696e-05
4.20546e-05
3.20645e-05
2.85965e-05
3.08626e-05
3.24592e-05
3.27349e-05
3.33871e-05
3.36027e-05
3.38985e-05
3.4308e-05
3.47865e-05
3.54248e-05
3.61686e-05
3.6796e-05
3.71243e-05
3.69703e-05
3.61238e-05
3.41458e-05
3.02747e-05
2.44837e-05
1.63295e-05
6.20638e-06
6.91353e-07
4.88886e-09
1.00007e-10
1.4987e-07
2.88484e-06
1.12683e-05
2.01967e-05
2.65847e-05
3.11062e-05
3.38171e-05
3.49113e-05
3.51551e-05
3.49778e-05
3.45662e-05
3.41819e-05
3.38016e-05
3.33809e-05
3.27303e-05
3.20391e-05
3.16932e-05
3.13072e-05
3.07124e-05
2.96066e-05
2.92267e-05
3.97162e-05
6.52417e-05
6.52999e-05
4.53016e-05
3.22194e-05
2.59779e-05
1.75513e-05
2.09396e-05
3.98635e-05
4.53909e-05
3.2102e-05
2.75129e-05
2.93457e-05
3.08246e-05
3.14116e-05
3.17795e-05
3.20016e-05
3.22641e-05
3.25541e-05
3.2891e-05
3.34144e-05
3.4056e-05
3.45914e-05
3.48591e-05
3.46926e-05
3.38702e-05
3.19187e-05
2.81957e-05
2.28431e-05
1.51693e-05
5.69317e-06
6.25756e-07
4.37576e-09
9.08498e-11
1.36641e-07
2.64971e-06
1.04448e-05
1.87831e-05
2.4739e-05
2.90366e-05
3.16954e-05
3.28178e-05
3.30817e-05
3.29061e-05
3.25236e-05
3.21571e-05
3.1812e-05
3.14459e-05
3.09739e-05
3.04901e-05
3.01272e-05
2.97019e-05
2.89792e-05
2.79982e-05
2.85489e-05
4.13695e-05
6.99395e-05
6.04399e-05
4.04633e-05
2.71347e-05
2.41033e-05
2.27722e-05
3.34836e-05
4.8453e-05
4.36836e-05
3.05134e-05
2.73659e-05
2.8155e-05
2.9229e-05
2.97618e-05
3.00701e-05
3.0283e-05
3.05134e-05
3.07627e-05
3.10565e-05
3.14881e-05
3.20076e-05
3.24592e-05
3.26839e-05
3.25196e-05
3.17181e-05
2.97871e-05
2.62461e-05
2.12757e-05
1.41132e-05
5.24198e-06
5.68899e-07
3.9378e-09
8.28258e-11
1.24996e-07
2.44033e-06
9.70091e-06
1.74838e-05
2.30125e-05
2.70562e-05
2.9628e-05
3.07718e-05
3.10637e-05
3.08954e-05
3.05275e-05
3.02003e-05
2.99126e-05
2.96026e-05
2.92222e-05
2.8815e-05
2.84941e-05
2.81458e-05
2.75608e-05
2.67661e-05
2.77699e-05
4.28678e-05
6.98891e-05
5.52812e-05
3.29886e-05
2.32065e-05
2.40365e-05
3.08335e-05
4.06397e-05
5.00704e-05
4.18945e-05
2.88093e-05
2.65403e-05
2.67931e-05
2.7583e-05
2.80683e-05
2.83418e-05
2.85405e-05
2.87705e-05
2.9011e-05
2.9281e-05
2.96386e-05
3.00368e-05
3.04077e-05
3.06047e-05
3.04596e-05
2.96797e-05
2.77753e-05
2.44149e-05
1.98202e-05
1.31451e-05
4.84245e-06
5.19625e-07
3.56243e-09
7.57926e-11
1.14757e-07
2.25465e-06
9.03077e-06
1.62981e-05
2.14142e-05
2.51945e-05
2.76628e-05
2.88108e-05
2.91281e-05
2.89805e-05
2.864e-05
2.83571e-05
2.81196e-05
2.78641e-05
2.75502e-05
2.71944e-05
2.68917e-05
2.65804e-05
2.61023e-05
2.5468e-05
2.69187e-05
4.28178e-05
6.5734e-05
4.64076e-05
2.74657e-05
2.05165e-05
2.57275e-05
3.50125e-05
4.55496e-05
5.26133e-05
4.01288e-05
2.81546e-05
2.55846e-05
2.54972e-05
2.5965e-05
2.64296e-05
2.66787e-05
2.6862e-05
2.70783e-05
2.73049e-05
2.75564e-05
2.78533e-05
2.81673e-05
2.84683e-05
2.86473e-05
2.85275e-05
2.77681e-05
2.58915e-05
2.27069e-05
1.8471e-05
1.22602e-05
4.48728e-06
4.76859e-07
3.241e-09
6.95728e-11
1.05675e-07
2.08947e-06
8.42889e-06
1.52219e-05
1.99485e-05
2.3469e-05
2.58295e-05
2.69683e-05
2.7306e-05
2.71952e-05
2.68988e-05
2.66465e-05
2.64343e-05
2.62182e-05
2.59545e-05
2.56376e-05
2.53534e-05
2.50644e-05
2.46442e-05
2.41649e-05
2.59484e-05
4.04112e-05
5.81299e-05
3.92681e-05
2.33271e-05
2.02054e-05
2.83248e-05
3.64203e-05
4.54448e-05
5.1973e-05
4.0446e-05
2.80119e-05
2.4433e-05
2.42529e-05
2.44349e-05
2.4865e-05
2.50952e-05
2.52686e-05
2.54683e-05
2.56752e-05
2.58968e-05
2.61465e-05
2.64046e-05
2.66622e-05
2.68299e-05
2.67274e-05
2.59806e-05
2.41361e-05
2.11248e-05
1.72271e-05
1.14558e-05
4.17032e-06
4.3933e-07
2.96218e-09
6.40631e-11
9.76205e-08
1.94189e-06
7.88419e-06
1.42433e-05
1.86069e-05
2.18805e-05
2.41408e-05
2.52646e-05
2.56143e-05
2.55442e-05
2.52966e-05
2.50635e-05
2.48516e-05
2.46527e-05
2.4424e-05
2.41355e-05
2.38665e-05
2.36027e-05
2.32303e-05
2.28808e-05
2.47402e-05
3.71968e-05
4.98378e-05
3.43854e-05
2.08575e-05
2.00538e-05
2.75343e-05
3.401e-05
4.23644e-05
5.10181e-05
4.73251e-05
3.01667e-05
2.39771e-05
2.30818e-05
2.29837e-05
2.33557e-05
2.35832e-05
2.37557e-05
2.39469e-05
2.41386e-05
2.43264e-05
2.45343e-05
2.47632e-05
2.49918e-05
2.51477e-05
2.50472e-05
2.43043e-05
2.25041e-05
1.96671e-05
1.60861e-05
1.07248e-05
3.88804e-06
4.06326e-07
2.72049e-09
5.91358e-11
9.03702e-08
1.81187e-06
7.38736e-06
1.33442e-05
1.73687e-05
2.04116e-05
2.25834e-05
2.36927e-05
2.40447e-05
2.40038e-05
2.38014e-05
2.35866e-05
2.33646e-05
2.31666e-05
2.29586e-05
2.26913e-05
2.24346e-05
2.21993e-05
2.18755e-05
2.16442e-05
2.34688e-05
3.35533e-05
4.40297e-05
3.1142e-05
2.0467e-05
2.04881e-05
2.52721e-05
3.02056e-05
3.77132e-05
4.7473e-05
4.77461e-05
3.44259e-05
2.53771e-05
2.19837e-05
2.16209e-05
2.1926e-05
2.21419e-05
2.23142e-05
2.25036e-05
2.26903e-05
2.28536e-05
2.30285e-05
2.32394e-05
2.34475e-05
2.35863e-05
2.3471e-05
2.27265e-05
2.09872e-05
1.83323e-05
1.50491e-05
1.00684e-05
3.64119e-06
3.78887e-07
2.5338e-09
5.47356e-11
8.38769e-08
1.68848e-06
6.92902e-06
1.25075e-05
1.62131e-05
1.90379e-05
2.11284e-05
2.22275e-05
2.25748e-05
2.25464e-05
2.23805e-05
2.21919e-05
2.19731e-05
2.17738e-05
2.15774e-05
2.13276e-05
2.10908e-05
2.08827e-05
2.06016e-05
2.04711e-05
2.21713e-05
3.0417e-05
4.03459e-05
3.05527e-05
2.15236e-05
1.97234e-05
2.28192e-05
2.62677e-05
3.28001e-05
4.26701e-05
4.66815e-05
3.62107e-05
2.51115e-05
2.09296e-05
2.03495e-05
2.05925e-05
2.07883e-05
2.09484e-05
2.1133e-05
2.13199e-05
2.14734e-05
2.16281e-05
2.18276e-05
2.20226e-05
2.21318e-05
2.19922e-05
2.12437e-05
1.95785e-05
1.71125e-05
1.4111e-05
9.4772e-06
3.42277e-06
3.55266e-07
2.38542e-09
5.07752e-11
7.8028e-08
1.57902e-06
6.50438e-06
1.17253e-05
1.51295e-05
1.77471e-05
1.97564e-05
2.08475e-05
2.11868e-05
2.11568e-05
2.10161e-05
2.08657e-05
2.06783e-05
2.0488e-05
2.02953e-05
2.00572e-05
1.98398e-05
1.96526e-05
1.94025e-05
1.93568e-05
2.09434e-05
2.77295e-05
3.77835e-05
3.17655e-05
2.34171e-05
1.96809e-05
2.09894e-05
2.29732e-05
2.85079e-05
3.77028e-05
4.32675e-05
3.6761e-05
2.49036e-05
1.99156e-05
1.91522e-05
1.9343e-05
1.952e-05
1.96598e-05
1.98348e-05
2.00233e-05
2.01776e-05
2.03258e-05
2.05194e-05
2.07025e-05
2.0779e-05
2.06084e-05
1.98585e-05
1.82711e-05
1.59952e-05
1.32609e-05
8.94179e-06
3.22642e-06
3.34174e-07
2.25301e-09
4.72401e-11
7.27455e-08
1.47894e-06
6.112e-06
1.0999e-05
1.41226e-05
1.65443e-05
1.84706e-05
1.95491e-05
1.98795e-05
1.98401e-05
1.97145e-05
1.96097e-05
1.94758e-05
1.93065e-05
1.91079e-05
1.88703e-05
1.86628e-05
1.84862e-05
1.82607e-05
1.82903e-05
1.98191e-05
2.50743e-05
3.62858e-05
3.5187e-05
2.34278e-05
1.92096e-05
1.93581e-05
2.02523e-05
2.49003e-05
3.33796e-05
3.9621e-05
3.50038e-05
2.4155e-05
1.89416e-05
1.80243e-05
1.81661e-05
1.83269e-05
1.84457e-05
1.86109e-05
1.88008e-05
1.89594e-05
1.91093e-05
1.93017e-05
1.94745e-05
1.95215e-05
1.93145e-05
1.85701e-05
1.70604e-05
1.49726e-05
1.24893e-05
8.45471e-06
3.04689e-06
3.15082e-07
2.1331e-09
4.40488e-11
6.79213e-08
1.38716e-06
5.75101e-06
1.03326e-05
1.32024e-05
1.54398e-05
1.72791e-05
1.83399e-05
1.86654e-05
1.86182e-05
1.85015e-05
1.84364e-05
1.83558e-05
1.82098e-05
1.79971e-05
1.7747e-05
1.75385e-05
1.73662e-05
1.71653e-05
1.72672e-05
1.87893e-05
2.32485e-05
3.42302e-05
3.52571e-05
2.59648e-05
1.98255e-05
1.79187e-05
1.81772e-05
2.20934e-05
3.02845e-05
3.64662e-05
3.27802e-05
2.29861e-05
1.80033e-05
1.69677e-05
1.70583e-05
1.7206e-05
1.73087e-05
1.74658e-05
1.76551e-05
1.78139e-05
1.79661e-05
1.81595e-05
1.8325e-05
1.83462e-05
1.81114e-05
1.73745e-05
1.59411e-05
1.40333e-05
1.17833e-05
8.00801e-06
2.88262e-06
2.97556e-07
2.02528e-09
4.1167e-11
6.35455e-08
1.30309e-06
5.41958e-06
9.72532e-06
1.23702e-05
1.44344e-05
1.61825e-05
1.7223e-05
1.75545e-05
1.75084e-05
1.7396e-05
1.73507e-05
1.73044e-05
1.71733e-05
1.69439e-05
1.66731e-05
1.64584e-05
1.6292e-05
1.612e-05
1.62926e-05
1.79148e-05
2.27319e-05
3.23922e-05
3.33259e-05
2.5475e-05
1.91597e-05
1.66586e-05
1.63713e-05
1.98927e-05
2.74879e-05
3.39173e-05
3.10197e-05
2.1984e-05
1.70959e-05
1.59677e-05
1.60137e-05
1.61559e-05
1.6252e-05
1.64033e-05
1.65864e-05
1.67385e-05
1.68898e-05
1.70837e-05
1.72438e-05
1.72463e-05
1.69898e-05
1.62631e-05
1.49123e-05
1.31686e-05
1.11317e-05
7.59419e-06
2.73038e-06
2.81523e-07
1.92688e-09
3.85398e-11
5.95485e-08
1.22633e-06
5.11511e-06
9.1702e-06
1.16151e-05
1.35151e-05