/*--------------------------------*- C++ -*----------------------------------*\
  =========                 |
  \\      /  F ield         | OpenFOAM: The Open Source CFD Toolbox
   \\    /   O peration     | Website:  https://openfoam.org
    \\  /    A nd           | Version:  7
     \\/     M anipulation  |
\*---------------------------------------------------------------------------*/
FoamFile
{
    version     2.0;
    format      ascii;
    class       volScalarField;
    location    "95";
    object      p;
}
// * * * * * * * * * * * * * * * * * * * * * * * * * * * * * * * * * * * * * //

dimensions      [0 2 -2 0 0 0 0];

internalField   nonuniform List<scalar> 
17475
(
0.741118
0.426569
0.337222
0.298746
0.276281
0.26147
0.251037
0.243439
0.23783
0.233695
0.230696
0.228599
0.227231
0.226458
0.226175
0.22629
0.226724
0.227406
0.228268
0.22925
0.230293
0.231342
0.232345
0.233255
0.234033
0.234646
0.235066
0.235274
0.235263
0.235035
0.234601
0.233983
0.233209
0.232318
0.231352
0.230363
0.229404
0.228536
0.22782
0.227326
0.227127
0.227306
0.227954
0.229181
0.231121
0.233944
0.237878
0.243241
0.250498
0.260359
0.273958
0.293168
0.320822
0.363565
0.385452
0.30313
0.317564
0.303451
0.284834
0.269189
0.257252
0.248255
0.241469
0.23636
0.232556
0.229789
0.227862
0.226626
0.225961
0.225767
0.225961
0.226466
0.227214
0.228139
0.229179
0.230278
0.231377
0.232428
0.233381
0.234196
0.234835
0.235272
0.235488
0.235475
0.235234
0.234778
0.234129
0.233317
0.232381
0.231365
0.230321
0.229303
0.228371
0.227588
0.227021
0.226742
0.22683
0.227373
0.22847
0.230245
0.232848
0.236478
0.241399
0.247986
0.25678
0.268603
0.284779
0.307222
0.342897
0.3526
0.270211
0.267586
0.265467
0.259387
0.252654
0.246137
0.240435
0.235721
0.231977
0.229114
0.227025
0.225609
0.224773
0.224436
0.224522
0.224963
0.225693
0.226649
0.227771
0.228999
0.230273
0.231537
0.232736
0.233821
0.234743
0.235463
0.235951
0.236188
0.236164
0.235881
0.235352
0.234602
0.233665
0.232582
0.231402
0.230179
0.22897
0.227834
0.226834
0.226036
0.225505
0.225308
0.22552
0.226219
0.227491
0.229437
0.232169
0.235814
0.240508
0.246369
0.253416
0.261324
0.268983
0.273541
0.265193
0.223803
0.232131
0.237172
0.237574
0.235737
0.233096
0.230326
0.227782
0.225641
0.223976
0.222804
0.222109
0.221861
0.222019
0.222538
0.223368
0.224459
0.225756
0.227202
0.228741
0.230311
0.231852
0.233306
0.234611
0.235714
0.236571
0.237146
0.237415
0.237367
0.237005
0.236345
0.235415
0.234257
0.232918
0.231453
0.229924
0.22839
0.226913
0.225556
0.224382
0.223447
0.222807
0.222514
0.22262
0.223169
0.224201
0.225739
0.227777
0.230255
0.233
0.235637
0.237401
0.236867
0.230939
0.215812
0.20294
0.209365
0.215661
0.218966
0.220176
0.220215
0.219675
0.218942
0.218259
0.217772
0.217562
0.217668
0.218102
0.218859
0.219918
0.22125
0.222818
0.224575
0.22647
0.228445
0.230437
0.232382
0.234203
0.235831
0.237203
0.238264
0.238967
0.239282
0.239195
0.238711
0.23785
0.236648
0.235158
0.233439
0.231558
0.229585
0.227589
0.225634
0.223791
0.222114
0.220653
0.219452
0.218543
0.217952
0.217689
0.217745
0.218084
0.218628
0.219227
0.219628
0.219407
0.217884
0.214016
0.206239
0.196125
0.18936
0.193988
0.199888
0.204145
0.206755
0.208323
0.209265
0.20988
0.210384
0.210928
0.211614
0.212509
0.213652
0.215058
0.216728
0.218649
0.220793
0.223124
0.225594
0.228141
0.230704
0.233191
0.235518
0.237599
0.239353
0.240704
0.241592
0.241974
0.241831
0.241171
0.240022
0.238433
0.236476
0.234228
0.231777
0.229207
0.226597
0.224026
0.22157
0.219278
0.217195
0.215352
0.213769
0.212448
0.211377
0.210518
0.209806
0.209134
0.208341
0.207189
0.205354
0.202391
0.197711
0.190828
0.184377
0.179136
0.18244
0.187405
0.191827
0.195077
0.197496
0.199372
0.200924
0.202324
0.203704
0.205166
0.206785
0.20861
0.210675
0.212995
0.215567
0.218375
0.221391
0.224566
0.227846
0.231138
0.234342
0.237354
0.24006
0.242348
0.244113
0.245265
0.245747
0.245529
0.244621
0.243068
0.24094
0.23834
0.235377
0.232165
0.228816
0.225424
0.222095
0.218902
0.215896
0.213116
0.210586
0.208311
0.206281
0.204465
0.202814
0.201251
0.199668
0.197925
0.19584
0.193185
0.189683
0.185003
0.179289
0.174917
0.170339
0.1728
0.176914
0.181168
0.184649
0.187504
0.189938
0.192112
0.194157
0.196185
0.19829
0.200544
0.203002
0.205706
0.208683
0.211946
0.215495
0.219305
0.223338
0.227514
0.23174
0.235888
0.239823
0.24339
0.246429
0.248787
0.250327
0.250961
0.250642
0.249386
0.247262
0.244382
0.240899
0.236971
0.232758
0.228406
0.224038
0.219792
0.215737
0.211926
0.208396
0.205158
0.202207
0.199519
0.197053
0.19475
0.192532
0.190304
0.18795
0.185334
0.182296
0.178651
0.174215
0.169379
0.16615
0.162221
0.164122
0.167539
0.171495
0.175002
0.178054
0.180799
0.183362
0.185848
0.188351
0.190956
0.193733
0.19675
0.200055
0.203688
0.207673
0.212017
0.216735
0.221765
0.227034
0.232448
0.23784
0.243025
0.247792
0.251906
0.25513
0.257249
0.258117
0.257662
0.255907
0.252964
0.249015
0.244304
0.239064
0.233527
0.22788
0.222316
0.216978
0.211937
0.207247
0.202933
0.198994
0.195409
0.19214
0.189131
0.186319
0.183628
0.180971
0.178252
0.175359
0.172184
0.168585
0.164533
0.160611
0.15817
0.154392
0.155898
0.158753
0.162362
0.165774
0.168867
0.171749
0.174525
0.177285
0.18011
0.183079
0.186264
0.189736
0.193561
0.197797
0.202489
0.2077
0.213411
0.219593
0.226183
0.233079
0.240115
0.247014
0.253479
0.259163
0.263688
0.266697
0.267941
0.267292
0.264794
0.260637
0.25513
0.248672
0.241628
0.23432
0.227022
0.220005
0.213385
0.207245
0.201624
0.196527
0.191928
0.187783
0.184032
0.180607
0.177435
0.17443
0.171514
0.168602
0.165612
0.16245
0.15901
0.155287
0.151958
0.150056
0.146634
0.14784
0.150228
0.153467
0.1567
0.159721
0.162607
0.16545
0.168331
0.171327
0.174513
0.177969
0.181778
0.186018
0.190778
0.196132
0.202164
0.208912
0.216377
0.224527
0.233271
0.242448
0.251714
0.260623
0.268657
0.275206
0.279638
0.281505
0.280567
0.276903
0.270867
0.263021
0.254019
0.244449
0.234766
0.225408
0.216634
0.20856
0.201247
0.194698
0.188873
0.183707
0.179118
0.175015
0.171318
0.167938
0.164797
0.161807
0.158879
0.155931
0.152881
0.14965
0.146306
0.143519
0.141986
0.138815
0.139786
0.141768
0.144621
0.1476
0.150451
0.153224
0.156001
0.158858
0.161868
0.16511
0.168671
0.172645
0.177138
0.182252
0.188142
0.194898
0.202624
0.211426
0.221326
0.232289
0.244185
0.256714
0.269205
0.280859
0.290674
0.297512
0.300459
0.29906
0.293456
0.28436
0.272862
0.260081
0.24692
0.234121
0.22223
0.211426
0.201801
0.193339
0.185961
0.179546
0.173979
0.169124
0.164882
0.16113
0.15775
0.154642
0.151719
0.148899
0.146105
0.143261
0.140306
0.137355
0.135029
0.133805
0.130858
0.131647
0.133269
0.135707
0.138357
0.140947
0.143497
0.146078
0.14876
0.151618
0.154732
0.158195
0.162114
0.166619
0.171848
0.177988
0.185207
0.193707
0.203684
0.215362
0.228827
0.244063
0.260902
0.278657
0.296036
0.311381
0.322509
0.327474
0.325277
0.316222
0.301871
0.284434
0.265911
0.247734
0.231002
0.216123
0.203181
0.192098
0.182687
0.17473
0.16803
0.162394
0.157604
0.153488
0.149899
0.146712
0.14382
0.141127
0.138558
0.136034
0.133487
0.130872
0.128336
0.126433
0.125472
0.122726
0.123352
0.124643
0.126654
0.128915
0.131155
0.133371
0.135623
0.137978
0.140505
0.143285
0.14641
0.149997
0.154176
0.159159
0.165124
0.17232
0.18107
0.191749
0.20476
0.220597
0.239539
0.261723
0.286916
0.313501
0.338605
0.357977
0.367031
0.363307
0.347579
0.323602
0.296217
0.268959
0.244186
0.222836
0.204914
0.190129
0.178049
0.16826
0.160361
0.153938
0.148668
0.144305
0.140637
0.137488
0.134738
0.132267
0.129971
0.127794
0.125659
0.123505
0.121306
0.119219
0.117684
0.116893
0.114434
0.114935
0.115919
0.117472
0.119263
0.121064
0.122845
0.124646
0.126525
0.12854
0.130765
0.133281
0.136196
0.13966
0.143879
0.149052
0.155478
0.163559
0.173837
0.187045
0.204037
0.22593
0.253818
0.288334
0.329189
0.372131
0.408674
0.426905
0.419901
0.389813
0.347078
0.302953
0.263464
0.231064
0.205341
0.18532
0.169944
0.158217
0.149215
0.142236
0.136808
0.132505
0.129073
0.126262
0.123894
0.121847
0.12001
0.118299
0.116652
0.115015
0.113341
0.111625
0.110024
0.108889
0.108301
0.106
0.106389
0.107069
0.108146
0.109426
0.110719
0.111974
0.113212
0.114471
0.115795
0.117239
0.118869
0.120771
0.123088
0.125948
0.129558
0.134202
0.140281
0.148385
0.159387
0.17462
0.196012
0.22645
0.269328
0.328433
0.40337
0.478213
0.519215
0.50446
0.440329
0.359803
0.289637
0.236853
0.198869
0.17216
0.153568
0.140534
0.131318
0.124744
0.120028
0.116585
0.114033
0.112085
0.110524
0.109261
0.108168
0.107161
0.106173
0.10517
0.10413
0.103016
0.101844
0.100758
0.100002
0.0995816
0.0974705
0.0977488
0.0981217
0.0987155
0.0994614
0.10021
0.100884
0.101474
0.102
0.102487
0.102961
0.103461
0.104031
0.104749
0.105666
0.106919
0.108662
0.111118
0.114727
0.120103
0.128271
0.141352
0.163031
0.200108
0.265509
0.383606
0.544669
0.648086
0.613235
0.462128
0.311208
0.218726
0.1655
0.134841
0.117023
0.10666
0.100603
0.0970374
0.0951185
0.0941384
0.0936639
0.0935723
0.0936461
0.0937655
0.0938904
0.0939574
0.0939377
0.0938094
0.0935579
0.0931734
0.092657
0.0920449
0.0914683
0.0910898
0.0908396
0.0885942
0.088719
0.0888536
0.0891222
0.0894519
0.0896895
0.0897569
0.0896447
0.0893591
0.0889057
0.0882836
0.0874879
0.0865055
0.085326
0.0839079
0.0822151
0.0801805
0.0776993
0.0746269
0.0707075
0.0655512
0.0588448
0.049655
0.0366642
0.0186878
0.106107
0.380556
0.24043
0.0760257
0.0138002
0.0219596
0.0307447
0.0387823
0.0458683
0.0521394
0.0574604
0.0620627
0.0659957
0.0693519
0.0722131
0.0746257
0.0766414
0.0783025
0.0796424
0.0806886
0.0814645
0.0819883
0.0822789
0.0823625
0.0822959
0.0822067
0.0822047
0.0821747
0.0782276
0.0784714
0.0790125
0.0795339
0.0796948
0.0794309
0.0788427
0.0779714
0.0768313
0.0754142
0.0736635
0.0715221
0.0689201
0.0657582
0.0618968
0.0571347
0.0511638
0.0434935
0.0333403
0.0193376
-0.00101963
-0.0325372
-0.0854293
-0.184342
-0.325671
-0.476235
-0.306351
-0.164544
-0.0910258
-0.0469988
-0.0180923
0.002265
0.0173216
0.0288643
0.0379349
0.0451926
0.051071
0.0558592
0.059763
0.0629747
0.0655931
0.0677075
0.0694047
0.0706995
0.0716524
0.0723081
0.0727043
0.0728708
0.0728457
0.0727194
0.0728743
0.0726063
0.0723225
0.071568
0.0705455
0.0694087
0.068104
0.0665361
0.0646121
0.0622825
0.0594728
0.056098
0.0520434
0.0471492
0.0412173
0.0339695
0.0249925
0.0136726
-0.000928622
-0.0203081
-0.0469203
-0.0850029
-0.143361
-0.236759
-0.331857
-0.383237
-0.264063
-0.172344
-0.112683
-0.071125
-0.0409889
-0.0184678
-0.00121921
0.0122521
0.0229335
0.0315044
0.0384491
0.0441119
0.0487276
0.0525054
0.0555906
0.0580767
0.0600842
0.0616582
0.0628231
0.0635829
0.0639139
0.0638249
0.0636213
0.0631578
0.0632268
0.0629001
0.0622375
0.0612296
0.0598323
0.0580505
0.0558728
0.0532568
0.0501346
0.0464141
0.0419782
0.036683
0.0303125
0.0226457
0.0133596
0.00201505
-0.0119874
-0.0294777
-0.0515643
-0.0796078
-0.115068
-0.158334
-0.206339
-0.229295
-0.241315
-0.374931
-0.342222
-0.273642
-0.202403
-0.146509
-0.103579
-0.070602
-0.044983
-0.0248752
-0.00890127
0.00392275
0.014307
0.0227794
0.0297336
0.0354639
0.0401971
0.0441089
0.0473336
0.0499848
0.0521551
0.0539251
0.0553627
0.0564983
0.0572373
0.0573414
0.0558377
0.056011
0.055627
0.054598
0.0530785
0.051193
0.048948
0.0462864
0.0431315
0.0393937
0.0349716
0.0297392
0.0235389
0.0161292
0.00729894
-0.00326275
-0.0159366
-0.0311778
-0.0495828
-0.0717303
-0.0980192
-0.128551
-0.162625
-0.193055
-0.203784
-0.214736
-0.237152
-0.260475
-0.289561
-0.314391
-0.320625
-0.304777
-0.256378
-0.200015
-0.153235
-0.115584
-0.085108
-0.0603244
-0.0402338
-0.0238192
-0.0103069
0.000810131
0.0100224
0.0176954
0.0240953
0.0294468
0.0339269
0.0376774
0.0408176
0.0434472
0.0456376
0.0474089
0.0486959
0.0493914
0.0494985
0.0489355
0.0490802
0.0486144
0.0474212
0.0456469
0.0434432
0.0408471
0.0378102
0.0342513
0.0300719
0.0251588
0.0193863
0.0125962
0.00453624
-0.00500584
-0.0162827
-0.0296141
-0.0453739
-0.0639791
-0.0858344
-0.111271
-0.140331
-0.172093
-0.198096
-0.207408
-0.220229
-0.242525
-0.262412
-0.279561
-0.284938
-0.275757
-0.257203
-0.22258
-0.181412
-0.145096
-0.114492
-0.0886852
-0.0669335
-0.048618
-0.0331959
-0.0201834
-0.00921237
6.89354e-05
0.00795379
0.0146138
0.0202615
0.0250543
0.0291312
0.0325951
0.035532
0.0380134
0.0400451
0.0415317
0.0423347
0.0424262
0.0423939
0.0425398
0.0420659
0.0408269
0.0389425
0.0365707
0.0337711
0.0305111
0.0267124
0.0222795
0.0170998
0.0110443
0.00395634
-0.00434336
-0.0141195
-0.0255713
-0.0389916
-0.0547084
-0.0731019
-0.0946038
-0.119677
-0.148808
-0.181842
-0.211118
-0.224169
-0.23489
-0.24981
-0.258502
-0.257041
-0.242657
-0.220861
-0.201534
-0.17889
-0.152273
-0.127091
-0.104556
-0.0845116
-0.0667968
-0.0512628
-0.037708
-0.0259608
-0.0157831
-0.00699346
0.000600466
0.00715289
0.0127984
0.0176593
0.021849
0.0254585
0.028565
0.0312197
0.0333995
0.0349809
0.0358172
0.03591
0.0364563
0.03663
0.0361873
0.0349573
0.0330385
0.0306043
0.0277276
0.0243861
0.0205094
0.0160066
0.0107761
0.00470403
-0.00234604
-0.0105622
-0.0201783
-0.0313601
-0.0443786
-0.059559
-0.0772978
-0.0980946
-0.122623
-0.15186
-0.185957
-0.217979
-0.235951
-0.245366
-0.251579
-0.247666
-0.229674
-0.199733
-0.168066
-0.147779
-0.135252
-0.121144
-0.105751
-0.0905373
-0.0760008
-0.0624254
-0.0499746
-0.0387032
-0.0285957
-0.0195915
-0.0116228
-0.00459646
0.00158427
0.00698977
0.0117171
0.0158503
0.0194516
0.0225888
0.0252944
0.0275259
0.0291313
0.0299594
0.0300262
0.0311566
0.0313509
0.0309553
0.0297915
0.0279377
0.0255519
0.0227179
0.0194301
0.0156308
0.0112391
0.00616173
0.000294951
-0.00647365
-0.014284
-0.0233522
-0.033858
-0.0460159
-0.0601318
-0.0765745
-0.0958467
-0.118709
-0.146105
-0.178454
-0.21066
-0.232529
-0.24236
-0.242951
-0.230849
-0.204283
-0.165486
-0.127179
-0.105532
-0.0988381
-0.093214
-0.0852516
-0.0759424
-0.0659951
-0.0560354
-0.0464148
-0.0373414
-0.0289305
-0.0212306
-0.0142484
-0.00796316
-0.00233761
0.00267246
0.00711607
0.0110482
0.014518
0.0175719
0.0202219
0.0224032
0.0239499
0.0247104
0.0247259
0.0265389
0.0267671
0.0264366
0.0253781
0.0236515
0.0213954
0.0187073
0.0155923
0.0120051
0.00787954
0.00313922
-0.00230401
-0.0085424
-0.0156871
-0.0238869
-0.0333287
-0.0441662
-0.0566378
-0.0710529
-0.0878458
-0.107598
-0.13109
-0.158674
-0.187279
-0.210561
-0.222902
-0.222106
-0.207072
-0.179871
-0.141288
-0.100957
-0.0769642
-0.0727348
-0.0719441
-0.0682987
-0.0628647
-0.0562929
-0.0491159
-0.0418172
-0.0346549
-0.0277944
-0.021341
-0.0153532
-0.00985835
-0.0048597
-0.000343972
0.00371408
0.00734703
0.010589
0.0134693
0.0159839
0.0180521
0.0195004
0.0201872
0.0201497
0.0225994
0.0228441
0.0225796
0.0216618
0.0201193
0.0180754
0.0156235
0.0127832
0.00952402
0.00579627
0.00154182
-0.00330312
-0.00881089
-0.015057
-0.0221356
-0.0301922
-0.0393404
-0.0497277
-0.0615661
-0.0751291
-0.090793
-0.108994
-0.130063
-0.152382
-0.173812
-0.188064
-0.189476
-0.176658
-0.152738
-0.119811
-0.0841932
-0.0603808
-0.0561633
-0.0573889
-0.055809
-0.0524038
-0.0478638
-0.0426258
-0.0370195
-0.0313531
-0.0257866
-0.0204328
-0.015373
-0.0106547
-0.00630103
-0.00231658
0.00130614
0.0045833
0.00753596
0.0101798
0.0124963
0.0143913
0.0156896
0.0162632
0.0161751
0.0193216
0.0195881
0.0194052
0.0186421
0.0173184
0.0155382
0.0133886
0.0108993
0.00805452
0.00482182
0.00116271
-0.00296308
-0.00759981
-0.0127921
-0.0185908
-0.0250694
-0.032307
-0.040364
-0.0493316
-0.0593285
-0.0705029
-0.0830297
-0.0971482
-0.112351
-0.129896
-0.144321
-0.14815
-0.140239
-0.122341
-0.0970458
-0.0694227
-0.0497162
-0.0462015
-0.0478453
-0.046884
-0.0443904
-0.0409253
-0.0368383
-0.0324297
-0.0278645
-0.0233193
-0.0188904
-0.014649
-0.0106459
-0.00691041
-0.00345658
-0.000286583
0.00260581
0.00523186
0.00759614
0.00966853
0.0113476
0.0124704
0.0129302
0.0127873
0.0166751
0.0169606
0.0168564
0.0162585
0.0151781
0.0136987
0.0118986
0.00981234
0.00743882
0.00476246
0.00176425
-0.00157455
-0.00527094
-0.00934154
-0.0137991
-0.018653
-0.0239192
-0.0296004
-0.0356993
-0.0422047
-0.0490802
-0.0563266
-0.0641523
-0.0729703
-0.086013
-0.0990838
-0.10533
-0.102444
-0.0909255
-0.0736653
-0.0549012
-0.0418699
-0.0402215
-0.0415409
-0.0403828
-0.03806
-0.0351186
-0.0317394
-0.0281002
-0.0243573
-0.0206126
-0.0169485
-0.0134146
-0.0100535
-0.00689286
-0.00394858
-0.00122694
0.001273
0.00355558
0.00561673
0.007418
0.00885827
0.00979195
0.0101323
0.00994126
0.0146076
0.0149093
0.0148863
0.0144527
0.0136265
0.0124665
0.0110396
0.0093825
0.00750581
0.00540902
0.00309025
0.000550337
-0.00220208
-0.00515464
-0.00828721
-0.0115751
-0.0149879
-0.0184836
-0.0219847
-0.0253824
-0.0285385
-0.0313913
-0.0341863
-0.0380932
-0.0475002
-0.0590517
-0.0667457
-0.0679273
-0.0627734
-0.0532065
-0.0426388
-0.0360166
-0.03625
-0.0368762
-0.0352102
-0.0327435
-0.0300035
-0.0270673
-0.0239883
-0.0208652
-0.017764
-0.0147381
-0.011819
-0.00903246
-0.0064001
-0.00393585
-0.00164679
0.000464996
0.00239943
0.00414629
0.00566275
0.0068537
0.00759334
0.00781671
0.00758609
0.0130558
0.0133677
0.0134244
0.013166
0.0125886
0.0117449
0.010692
0.0094654
0.00808265
0.00655683
0.00490013
0.00313013
0.00127062
-0.000646789
-0.00258185
-0.00448145
-0.00627737
-0.00787439
-0.00917202
-0.0100143
-0.0102186
-0.00971517
-0.00882942
-0.00922311
-0.015976
-0.0268547
-0.0358788
-0.0404221
-0.0404849
-0.0373753
-0.0333553
-0.0317167
-0.0329119
-0.0326806
-0.0304728
-0.0278378
-0.0252127
-0.0226002
-0.0199769
-0.017367
-0.0148103
-0.0123345
-0.00995753
-0.00768847
-0.00554138
-0.00352652
-0.00165023
8.42852e-05
0.00167372
0.00310415
0.00433156
0.00527316
0.00582266
0.00593901
0.00567455
0.0119566
0.0122738
0.0123995
0.0122975
0.0119607
0.0114253
0.010733
0.00991886
0.00900489
0.00801153
0.00696194
0.00588424
0.00481431
0.00379862
0.00289496
0.00217382
0.00172227
0.00164771
0.00208321
0.00318881
0.00514755
0.00800707
0.0113408
0.0130155
0.00769417
-0.00274104
-0.013061
-0.0205349
-0.0246634
-0.0262815
-0.0269831
-0.0281067
-0.0291873
-0.0281178
-0.0255621
-0.0229
-0.0204501
-0.0181623
-0.0159619
-0.0138221
-0.0117601
-0.00978109
-0.00789346
-0.00609838
-0.00440057
-0.00280686
-0.00132257
4.84751e-05
0.0013007
0.0024177
0.00335837
0.00405168
0.00442302
0.00444274
0.00415312
0.0112401
0.0115628
0.0117516
0.0117856
0.0116597
0.011406
0.0110458
0.0106067
0.0101144
0.00959423
0.00907571
0.00859495
0.00819522
0.00793002
0.00786415
0.00807646
0.00866298
0.0097389
0.0114353
0.0139079
0.0173126
0.0216668
0.0264504
0.0292083
0.0244174
0.0136928
0.00229756
-0.00711075
-0.0140554
-0.0187058
-0.0218134
-0.0239337
-0.0243458
-0.0227056
-0.02013
-0.0176785
-0.0155413
-0.0136394
-0.0118808
-0.0102095
-0.00861418
-0.007103
-0.00567238
-0.00432003
-0.00304246
-0.0018453
-0.000733294
0.000289197
0.0012147
0.0020263
0.00268788
0.00314586
0.00334897
0.00328427
0.00297772
0.0108426
0.0111586
0.0113959
0.0115515
0.0116186
0.0116054
0.0115307
0.0114168
0.0112871
0.0111695
0.0110958
0.0111051
0.0112439
0.0115676
0.0121429
0.0130494
0.014382
0.0162517
0.0187833
0.022109
0.0263391
0.0314667
0.0368831
0.0398822
0.0351548
0.024367
0.012292
0.00161916
-0.00669504
-0.0127134
-0.0167629
-0.0184992
-0.0180925
-0.0163161
-0.0140859
-0.012091
-0.01042
-0.00898901
-0.0077084
-0.00651832
-0.00539181
-0.00433022
-0.00333504
-0.00240041
-0.0015192
-0.000696731
6.19409e-05
0.000751284
0.00136262
0.00187917
0.00227337
0.00250872
0.00256011
0.00242454
0.00210882
0.010687
0.0110026
0.0112762
0.0115224
0.0117407
0.01193
0.0120968
0.0122547
0.0124249
0.0126343
0.0129158
0.0133081
0.013857
0.0146159
0.0156484
0.0170293
0.0188456
0.0211971
0.0241909
0.0279354
0.0325039
0.0378019
0.0433111
0.0461202
0.0413668
0.0306194
0.0185511
0.00776693
-0.000840607
-0.00698356
-0.0104924
-0.0113775
-0.0105931
-0.00912181
-0.00753866
-0.00620267
-0.00512597
-0.00424049
-0.00347499
-0.00277789
-0.00212152
-0.00149778
-0.000918148
-0.000380753
0.000121824
0.000591236
0.00101576
0.00138878
0.00170062
0.0019371
0.00207901
0.00211203
0.00202757
0.00182946
0.001511
0.0107038
0.0110128
0.0113083
0.011627
0.0119664
0.0123169
0.0126754
0.0130503
0.0134569
0.0139202
0.014471
0.0151457
0.0159865
0.0170424
0.01837
0.0200351
0.0221125
0.0246845
0.0278371
0.0316485
0.0361583
0.0412571
0.0463036
0.0487626
0.0442561
0.0342591
0.0228928
0.0126803
0.00473401
-0.000501401
-0.00294513
-0.00310315
-0.0023278
-0.00150158
-0.000745442
-0.000180528
0.000225321
0.000520505
0.00075063
0.000952198
0.00114673
0.00134133
0.00152749
0.00169104
0.00183717
0.00197283
0.00208429
0.00216031
0.0021903
0.00216342
0.00207222
0.00192032
0.00172034
0.00147456
0.00115916
0.0108326
0.011131
0.011444
0.0118127
0.0122367
0.0127111
0.0132175
0.0137559
0.0143393
0.0149884
0.0157307
0.0165986
0.017629
0.0188639
0.0203511
0.0221444
0.0243029
0.0268896
0.0299662
0.0335845
0.0377525
0.042361
0.0469649
0.0490889
0.0450558
0.0361768
0.0260798
0.0171777
0.0106891
0.00694425
0.00557666
0.00574164
0.0061117
0.00614342
0.0060095
0.00577114
0.00548453
0.00518031
0.00487762
0.00459527
0.00434636
0.00413227
0.00394494
0.00376791
0.00358378
0.00340594
0.00322648
0.00302729
0.00279696
0.00252884
0.00222677
0.00191173
0.00161061
0.00132919
0.00101834
0.0110214
0.0113097
0.0116276
0.0120311
0.0125172
0.0130751
0.0136864
0.014342
0.0150491
0.0158247
0.0166917
0.0176774
0.0188122
0.0201302
0.0216687
0.0234683
0.0255712
0.0280204
0.030854
0.0340992
0.0377486
0.0417153
0.0456377
0.0475615
0.0443761
0.0371034
0.0289075
0.0219827
0.0172446
0.0147761
0.0141396
0.0143471
0.0142038
0.0134309
0.0124511
0.0114486
0.0104984
0.00961734
0.008808
0.00807111
0.0074083
0.00681487
0.00628029
0.00578754
0.00531126
0.00484785
0.00440328
0.00395511
0.00349023
0.00300511
0.00251711
0.00205981
0.00167483
0.00136417
0.00106298
0.011228
0.0115057
0.0118292
0.0122432
0.0127676
0.0133821
0.0140623
0.0147948
0.0155809
0.0164331
0.0173696
0.0184116
0.019583
0.0209094
0.0224171
0.0241335
0.026085
0.028295
0.0307806
0.0335467
0.0365714
0.0398229
0.0431548
0.0450718
0.0430418
0.0377757
0.0317775
0.0267708
0.0236273
0.0222939
0.0221268
0.0222132
0.0215484
0.0200692
0.0183551
0.0166708
0.0151233
0.0137189
0.0124484
0.0113001
0.0102646
0.00933073
0.00848534
0.00770749
0.00697365
0.0062602
0.0055782
0.00490991
0.00424066
0.00357644
0.00294064
0.00238068
0.00193598
0.00160167
0.00130662
0.0114287
0.0116918
0.0120065
0.0124257
0.0129679
0.0136133
0.014335
0.0151119
0.0159411
0.0168301
0.0177924
0.0188437
0.0200008
0.0212808
0.0227005
0.0242748
0.0260158
0.0279299
0.0300152
0.0322611
0.0346604
0.0372491
0.0400585
0.0420533
0.0412736
0.0379889
0.0340698
0.0309511
0.0292208
0.0286607
0.0288524
0.0288778
0.0278378
0.0258298
0.0235252
0.0212861
0.0192338
0.0173824
0.0157153
0.0142123
0.0128551
0.0116281
0.0105134
0.00948875
0.00852992
0.00760628
0.00671825
0.00586053
0.00501489
0.00418784
0.00341722
0.00275768
0.0022646
0.0019228
0.00165332
0.0115893
0.0118404
0.0121436
0.0125581
0.0131006
0.0137611
0.014502
0.0152991
0.0161443
0.0170407
0.0179968
0.0190234
0.020131
0.0213293
0.0226262
0.0240262
0.0255291
0.0271277
0.0288104
0.0305611
0.0323753
0.0343304
0.0365962
0.0386538
0.0389456
0.0374185
0.0353139
0.0337154
0.0331275
0.0334669
0.0342018
0.0340752
0.0328848
0.0305364
0.0278318
0.0251768
0.0227338
0.0205278
0.0185417
0.0167511
0.0151323
0.013664
0.0123267
0.0110973
0.00995138
0.00886402
0.00780686
0.00678544
0.00579898
0.00485234
0.00398628
0.00326832
0.00273816
0.00239085
0.00213118
0.0116944
0.0119319
0.0122237
0.0126262
0.0131646
0.0138247
0.0145698
0.0153706
0.0162131
0.0170966
0.0180256
0.0190064
0.020044
0.0211421
0.022301
0.0235168
0.0247809
0.0260798
0.0273924
0.028694
0.0299785
0.0313627
0.0331253
0.0350836
0.0361043
0.0358851
0.0352542
0.0349705
0.0353583
0.0363111
0.0373145
0.0376055
0.0366319
0.0340795
0.0311852
0.0282664
0.0255567
0.0230989
0.0208805
0.0188761
0.0170597
0.0154071
0.0138974
0.0125075
0.0112133
0.00998788
0.00881032
0.00766509
0.0065699
0.00553298
0.00460092
0.00383596
0.00329041
0.00294194
0.00269424
0.0117442
0.0119665
0.012244
0.012632
0.0131579
0.0138109
0.0145513
0.0153445
0.0161731
0.0170322
0.0179229
0.0188477
0.0198076
0.0208009
0.0218225
0.0228642
0.0239126
0.024947
0.0259396
0.0268636
0.0277208
0.0286241
0.0298676
0.031526
0.0328936
0.0335907
0.0340541
0.0348288
0.0360951
0.0376897
0.0391733
0.0397581
0.0385923
0.036435
0.0336573
0.030517
0.0276645
0.0250641
0.0227046
0.0205634
0.0186154
0.016837
0.0152056
0.0137008
0.0122994
0.0109755
0.00970864
0.00848143
0.00730692
0.0062119
0.00523926
0.00445516
0.00390301
0.00355615
0.00332507
0.0117469
0.011952
0.0122112
0.0125808
0.0130899
0.0137292
0.0144595
0.0152402
0.0160499
0.0168802
0.0177296
0.0185973
0.0194813
0.0203766
0.0212762
0.022168
0.0230345
0.0238523
0.0245946
0.0252335
0.0257633
0.0262791
0.0270614
0.0283214
0.0297196
0.0309161
0.0321111
0.0336112
0.0355677
0.0377783
0.0397102
0.0406327
0.0399046
0.0376334
0.0347236
0.0319536
0.029058
0.0264203
0.0240083
0.0218057
0.0197908
0.0179425
0.0162402
0.0146647
0.0131956
0.0118104
0.0104867
0.00921623
0.00800106
0.00687007
0.00588113
0.00509517
0.00454434
0.00420668
0.00398909
0.011694
0.0118853
0.0121265
0.0124747
0.0129657
0.013591
0.0143079
0.0150757
0.0158669
0.0166701
0.0174813
0.0182975
0.0191154
0.0199289
0.0207287
0.0215007
0.0222278
0.0228876
0.0234531
0.0238956
0.0242061
0.0244538
0.024863
0.0256911
0.0268793
0.0282183
0.0297993
0.031825
0.0342777
0.0369133
0.0392459
0.0404917
0.0399934
0.038043
0.0353931
0.0325285
0.0297805
0.02723
0.0248145
0.0226127
0.020589
0.0187224
0.0169958
0.0153925
0.0138941
0.0124812
0.0111344
0.00984376
0.00862506
0.00748728
0.00650303
0.00572601
0.0051917
0.00486158
0.00465647
0.0115842
0.0117604
0.0119855
0.0123168
0.012792
0.0134025
0.0141109
0.0148687
0.0156452
0.0164263
0.0172059
0.0179812
0.0187479
0.0194987
0.0202241
0.0209118
0.0215454
0.0221041
0.0225633
0.022897
0.0230915
0.0231877
0.0233413
0.0237863
0.0246384
0.0258937
0.0275755
0.0297882
0.0325227
0.0354869
0.0381078
0.0395982
0.0393249
0.0375606
0.0351263
0.0325265
0.029947
0.0274747
0.0251576
0.0230211
0.0210265
0.0191854
0.0174766
0.0158834
0.0143904
0.012982
0.0116418
0.0103612
0.00915521
0.00804973
0.00708226
0.00633039
0.00581081
0.0054966
0.00530188
0.0114364
0.0115967
0.0118054
0.0121204
0.0125817
0.0131836
0.0138843
0.0146353
0.0154015
0.0161669
0.0169249
0.0176712
0.0184017
0.0191103
0.0197891
0.0204267
0.0210093
0.021519
0.0219352
0.0222345
0.0224011
0.0224488
0.0224705
0.0226315
0.0231172
0.0240976
0.0256715
0.0278883
0.0306734
0.0337267
0.036479
0.0381239
0.0380257
0.0364671
0.0342467
0.0318576
0.0294944
0.0272267
0.025075
0.0230366
0.0211323
0.0193568
0.0176949
0.0161444
0.0146862
0.0133103
0.0120032
0.0107577
0.00958428
0.00852899
0.00760283
0.00688037
0.00638634
0.00608355
0.00590223
0.0112708
0.011417
0.0116103
0.011908
0.0123557
0.0129488
0.0136426
0.0143887
0.0151496
0.0159059
0.0166502
0.0173788
0.0180888
0.0187754
0.0194321
0.02005
0.0206182
0.0211227
0.0215472
0.0218727
0.02208
0.0221624
0.0221511
0.0221408
0.0223166
0.0229509
0.024259
0.0262993
0.0289549
0.0319196
0.0346248
0.0362676
0.0362533
0.0348587
0.0328577
0.0307084
0.028574
0.026516
0.0245555
0.0226946
0.0209242
0.0192434
0.0176799
0.0162158
0.0148014
0.0134701
0.0122185
0.0110288
0.00991117
0.00890152
0.00804443
0.00735945
0.00689014
0.00660683
0.00643383
0.0111109
0.0112415
0.0114192
0.011702
0.0121327
0.0127106
0.0133988
0.0141394
0.0148967
0.0156487
0.0163868
0.0171084
0.0178112
0.0184922
0.0191471
0.0197698
0.0203525
0.0208851
0.0213561
0.0217492
0.0220465
0.0222239
0.0222635
0.0221942
0.0221614
0.0224632
0.0233831
0.0250659
0.0274344
0.030161
0.032656
0.0341658
0.0341408
0.0328683
0.0310816
0.0291781
0.0272873
0.0254554
0.0237016
0.0220283
0.020428
0.0188967
0.0174285
0.0160307
0.014709
0.013473
0.012297
0.0111758
0.0101238
0.00917577
0.00836263
0.00774012
0.00731192
0.00704152
0.00687765
0.0109547
0.0110748
0.0112377
0.0115029
0.0119176
0.0124821
0.013158
0.013894
0.0146483
0.0153988
0.0161362
0.0168578
0.0175631
0.0182507
0.0189188
0.0195638
0.0201812
0.0207649
0.0213071
0.0217956
0.0222103
0.0225134
0.0226552
0.0225993
0.0224436
0.0224768
0.0230251
0.0242752
0.0261904
0.0284851
0.0306249
0.0318873
0.0317862
0.0306144
0.0290325
0.0273778
0.025737
0.0241385
0.0225976
0.0211146
0.0196876
0.0183137
0.0169933
0.0157259
0.0145114
0.0133449
0.0122353
0.0111823
0.0101122
0.00935428
0.00860133
0.00802864
0.00763164
0.00737789
0.00722257
0.0108168
0.0109232
0.0110717
0.0113222
0.0117187
0.0122685
0.0129313
0.0136582
0.0144081
0.015157
0.0158953
0.0166208
0.017334
0.0180355
0.0187254
0.019403
0.0200665
0.0207134
0.0213391
0.021934
0.022478
0.0229228
0.0231893
0.0232024
0.0230051
0.0228466
0.0230542
0.0238443
0.0252294
0.0269861
0.0286366
0.0295441
0.0293105
0.0282124
0.0268256
0.025414
0.0240198
0.0226558
0.021324
0.0200299
0.0187748
0.017558
0.0163791
0.0152392
0.0141418
0.0130888
0.0120794
0.0111231
0.0102619
0.00945648
0.00850672
0.008204
0.00788077
0.00760797
0.00745552
0.0107067
0.010802
0.0109398
0.0111724
0.0115503
0.0120772
0.0127214
0.0134341
0.0141749
0.0149192
0.0156571
0.0163866
0.0171091
0.0178268
0.0185417
0.0192551
0.0199678
0.0206802
0.0213904
0.0220909
0.0227592
0.02334
0.0237346
0.0238313
0.0236276
0.023332
0.023244
0.023603
0.0244667
0.0256467
0.0267433
0.0272411
0.0268268
0.0257748
0.0245665
0.0233811
0.0222273
0.0210832
0.0199531
0.0188417
0.0177524
0.0166869
0.015647
0.014634
0.0136514
0.0127018
0.0117885
0.0109173
0.0100995
0.00938298
0.00885115
0.00842839
0.00801866
0.00764447
0.00757239
0.010613
0.0106997
0.0108273
0.0110461
0.0114019
0.0119036
0.0125239
0.0132171
0.013943
0.0146781
0.0154119
0.0161425
0.0168721
0.0176039
0.0183414
0.0190878
0.0198459
0.0206181
0.0214043
0.0221979
0.0229745
0.0236707
0.024175
0.0243442
0.0241396
0.0237373
0.0234162
0.0233937
0.0237428
0.0243515
0.0249087
0.0249908
0.0243936
0.0233814
0.0223353
0.0213702
0.0204316
0.0194923
0.0185488
0.017607
0.0166724
0.0157489
0.0148393
0.0139461
0.0130732
0.0122248
0.0114044
0.0106191
0.00988258
0.0092113
0.00862959
0.00818555
0.00789647
0.00772517
0.00759409
0.0105167
0.0105952
0.0107153
0.0109258
0.0112622
0.0117385
0.0123295
0.0129971
0.0137031
0.0144234
0.0151477
0.0158743
0.0166056
0.0173459
0.0180995
0.0188711
0.0196648
0.0204843
0.0213304