/*--------------------------------*- C++ -*----------------------------------*\
  =========                 |
  \\      /  F ield         | OpenFOAM: The Open Source CFD Toolbox
   \\    /   O peration     | Website:  https://openfoam.org
    \\  /    A nd           | Version:  7
     \\/     M anipulation  |
\*---------------------------------------------------------------------------*/
FoamFile
{
    version     2.0;
    format      ascii;
    class       surfaceScalarField;
    location    "95";
    object      phi;
}
// * * * * * * * * * * * * * * * * * * * * * * * * * * * * * * * * * * * * * //

dimensions      [0 3 -1 0 0 0 0];

internalField   nonuniform List<scalar> 
34768
(
8.19199e-05
0.000970003
-0.000149632
-4.45915e-05
2.59333e-05
0.00092095
-1.58445e-05
1.08769e-05
0.000907461
-8.27971e-06
6.73052e-06
0.000904244
-5.35422e-06
4.6212e-06
0.000903529
-4.29638e-06
3.91646e-06
0.000903178
-3.62951e-06
3.51822e-06
0.00090311
-3.45413e-06
3.43623e-06
0.000903118
-3.14365e-06
3.08284e-06
0.000903263
-3.23547e-06
3.01234e-06
0.000903327
-3.0956e-06
2.99892e-06
0.000903302
-3.00389e-06
3.22673e-06
0.000903284
-3.04814e-06
2.98618e-06
0.00090357
-3.22035e-06
3.17069e-06
0.000903559
-3.21551e-06
3.37635e-06
0.000903551
-3.33013e-06
3.3001e-06
0.000903843
-3.56201e-06
3.54033e-06
0.000903737
-3.50949e-06
3.69545e-06
0.000903831
-3.67157e-06
3.66478e-06
0.000903926
-3.84726e-06
3.7472e-06
0.000904121
-4.1359e-06
4.74222e-06
0.000904117
-5.53648e-06
6.34858e-06
0.000905214
-5.19828e-06
4.35582e-06
0.000904891
-3.59012e-06
4.06232e-06
0.000904628
-5.3203e-06
-3.83402e-07
0.000909306
-6.78955e-07
1.25774e-06
0.000908655
-1.15189e-06
8.12488e-07
0.000909465
-5.09941e-07
-3.60514e-08
0.000909674
6.02683e-07
-8.83476e-07
0.000909409
1.2482e-06
-1.35836e-06
0.00090924
1.39462e-06
-1.43713e-06
0.000909183
1.44605e-06
-1.42196e-06
0.000909107
1.41421e-06
-1.39431e-06
0.000909112
1.34082e-06
-1.32595e-06
0.000909127
1.32718e-06
-1.31793e-06
0.000909132
1.3246e-06
-1.32159e-06
0.000909138
1.33401e-06
-1.33768e-06
0.000909144
1.35644e-06
-1.46731e-06
0.00090925
1.79269e-06
-1.21141e-06
0.000909957
7.4438e-07
-5.71487e-07
0.000910364
5.11985e-07
-4.47832e-07
0.000910371
4.96783e-07
-5.42498e-07
0.00091028
6.01171e-07
-6.58382e-07
0.00091029
7.2892e-07
-7.00163e-07
0.000910102
7.85621e-07
-8.74701e-07
0.000910118
9.79893e-07
-1.09268e-06
0.00091004
1.22493e-06
-1.37066e-06
0.000909971
1.54178e-06
-1.73546e-06
0.000910017
1.96469e-06
-2.33134e-06
0.000910089
2.55161e-06
-2.93458e-06
0.000910103
3.40291e-06
-4.07654e-06
0.000910293
4.68625e-06
-5.55513e-06
0.000910487
6.57739e-06
-7.68742e-06
0.000910626
8.71554e-06
-6.60866e-06
0.000907406
-4.11817e-06
-2.68724e-05
0.0009405
-0.000827635
0.000143771
0.000703663
-1.98703e-05
-0.000972489
-0.000148736
0.000116925
0.00100421
-0.00092497
-9.03006e-05
7.09134e-05
0.00094427
-0.000911502
-5.68562e-05
4.64226e-05
0.00092185
-0.000907099
-3.85156e-05
3.25088e-05
0.000913023
-0.000905379
-2.78659e-05
2.41528e-05
0.000909012
-0.000904432
-2.06937e-05
1.8547e-05
0.000906501
-0.000903901
-1.63506e-05
1.4552e-05
0.000905625
-0.000903775
-1.29453e-05
1.17235e-05
0.000904926
-0.000903659
-1.07018e-05
9.70076e-06
0.000904592
-0.000903708
-8.74446e-06
8.17218e-06
0.000904217
-0.000903597
-7.40766e-06
6.80501e-06
0.00090414
-0.000903512
-6.38635e-06
5.81679e-06
0.000904027
-0.000903744
-5.31259e-06
5.05096e-06
0.000903955
-0.000903687
-4.74182e-06
4.37256e-06
0.000904012
-0.000903638
-4.34407e-06
4.05579e-06
0.000903889
-0.000903795
-3.79912e-06
3.68544e-06
0.00090388
-0.000903756
-3.69331e-06
3.54835e-06
0.000903882
-0.000903821
-3.5164e-06
3.43738e-06
0.000903893
-0.000903889
-3.56065e-06
3.64338e-06
0.000903812
-0.000904161
-3.41878e-06
3.56082e-06
0.000904039
-0.000903936
-3.88339e-06
3.28003e-06
0.000904575
-0.000906993
-3.42643e-06
6.38362e-06
0.000904088
-0.000903339
-5.24447e-06
-2.12295e-07
0.000908865
-0.000907866
-9.73059e-07
1.13219e-06
0.000907793
-0.00090834
-1.06788e-06
1.17452e-06
0.000908337
-0.00090963
-1.18487e-06
1.58974e-06
0.000909346
-0.000910132
-1.71933e-06
1.4713e-06
0.000910516
-0.00090957
-1.10398e-06
1.32808e-06
0.000909498
-0.000909386
-1.52249e-06
1.23227e-06
0.000909841
-0.000909179
-1.06333e-06
1.19131e-06
0.000909229
-0.000909058
-1.26947e-06
1.4856e-06
0.000909029
-0.00090908
-1.54365e-06
1.72048e-06
0.000909101
-0.000909137
-1.78115e-06
1.91081e-06
0.000909212
-0.000909176
-1.76904e-06
1.94624e-06
0.000909211
-0.000909218
-1.84697e-06
1.86587e-06
0.000909415
-0.000909261
-1.70584e-06
1.66266e-06
0.000909524
-0.000909706
-1.33818e-06
1.12821e-06
0.000910137
-0.000909953
-3.36396e-07
5.56355e-08
0.000910456
-0.000910303
8.05449e-09
-6.55364e-08
0.000910581
-0.000910556
2.0628e-07
-3.472e-07
0.000910915
-0.000910614
7.73205e-07
-1.10829e-06
0.000911164
-0.000910582
1.6311e-06
-2.07505e-06
0.000911237
-0.000910564
2.71309e-06
-3.3893e-06
0.000911446
-0.000910569
4.17013e-06
-5.01292e-06
0.000911611
-0.000910608
5.97928e-06
-7.14222e-06
0.000911964
-0.000910803
8.3599e-06
-9.72542e-06
0.000912355
-0.000910986
1.12989e-05
-1.32004e-05
0.000913067
-0.00091142
1.52999e-05
-1.7757e-05
0.000914049
-0.000912014
2.06706e-05
-2.42668e-05
0.000915774
-0.000913178
2.86091e-05
-3.38454e-05
0.000918571
-0.000915202
4.04981e-05
-4.87747e-05
0.000923628
-0.000918965
5.98592e-05
-7.4163e-05
0.000933408
-0.000924724
9.38781e-05
-0.000124222
0.000955184
-0.000978584
0.000165432
-0.000143467
0.000956702
-0.000599507
8.48878e-05
0.000518712
-4.17558e-06
-0.00102171
-0.000134325
0.000131682
0.00102427
-0.000962535
-0.000111921
9.3676e-05
0.000980694
-0.000932964
-7.96612e-05
6.83571e-05
0.000944182
-0.000920184
-5.91739e-05
5.14586e-05
0.000927813
-0.000913913
-4.48956e-05
3.94812e-05
0.000919242
-0.000910335
-3.48144e-05
3.07736e-05
0.000914292
-0.000907815
-2.73212e-05
2.36851e-05
0.000911369
-0.000906793
-2.11727e-05
1.89481e-05
0.000908937
-0.000905927
-1.68274e-05
1.49087e-05
0.000907767
-0.000905438
-1.32215e-05
1.16808e-05
0.000906903
-0.000904923
-1.0521e-05
9.17108e-06
0.0009062
-0.000904824
-7.96673e-06
7.15151e-06
0.000905569
-0.000904499
-6.05511e-06
5.2338e-06
0.000905255
-0.000904325
-4.61433e-06
3.96231e-06
0.000904918
-0.000904287
-3.29644e-06
2.89564e-06
0.000904635
-0.000903974
-2.46966e-06
2.10935e-06
0.000904291
-0.00090398
-1.71167e-06
1.4825e-06
0.000904175
-0.000903901
-1.30619e-06
1.3034e-06
0.000903882
-0.000903936
-9.41424e-07
9.58771e-07
0.000903908
-0.000903683
-1.20619e-06
6.39337e-07
0.000904255
-0.000904744
-2.9084e-07
1.43234e-06
0.000903623
-0.000906039
6.51929e-07
-2.22684e-06
0.000907651
-0.000907923
1.74126e-06
-1.31994e-06
0.000907556
-0.000907806
7.59528e-07
-6.57354e-07
0.000907775
-0.000908087
5.93268e-07
-5.12376e-07
0.000908094
-0.000908667
1.78602e-07
3.50739e-07
0.000908243
-0.000910719
-8.67806e-07
8.24589e-07
0.000910882
-0.000909291
-6.70727e-07
1.00638e-06
0.000909091
-0.000909995
-1.35628e-06
1.6779e-06
0.000909822
-0.000909043
-1.64876e-06
1.89774e-06
0.000908956
-0.000908807
-2.16967e-06
2.55688e-06
0.000908592
-0.000908933
-2.7748e-06
3.08543e-06
0.000908804
-0.000909028
-3.26506e-06
3.38456e-06
0.000909098
-0.000909308
-3.51472e-06
3.63244e-06
0.000909388
-0.000909501
-3.55351e-06
3.55942e-06
0.000909697
-0.000909704
-3.3642e-06
3.15129e-06
0.000910123
-0.000910917
-2.33318e-06
1.09356e-06
0.000912364
-0.00091074
-1.04518e-06
1.07105e-06
0.000910922
-0.000910876
-5.86224e-07
1.68732e-07
0.000911501
-0.000911331
3.61696e-07
-9.34159e-07
0.000912109
-0.000911715
1.62454e-06
-2.36972e-06
0.000912662
-0.000912043
3.34049e-06
-4.2834e-06
0.000913184
-0.000912439
5.46498e-06
-6.64361e-06
0.00091381
-0.000912938
8.18179e-06
-9.6518e-06
0.000914596
-0.000913496
1.14135e-05
-1.3359e-05
0.000915622
-0.000914402
1.55468e-05
-1.7993e-05
0.000917023
-0.000915603
2.08627e-05
-2.39008e-05
0.000918809
-0.000917557
2.75916e-05
-3.16226e-05
0.000921748
-0.000920527
3.65108e-05
-4.21126e-05
0.000926282
-0.000925601
4.88029e-05
-5.66411e-05
0.000933584
-0.000934317
6.59993e-05
-7.7295e-05
0.00094575
-0.000950367
9.11167e-05
-0.0001082
0.000967575
-0.000985956
0.000130318
-0.000154839
0.00101058
-0.000907038
0.000157654
-9.16883e-05
0.000841155
-0.000458061
4.89645e-05
0.000411816
-2.81185e-06
-0.00101356
-0.000100706
0.000120291
0.000993887
-0.000997193
-0.000114442
0.000100933
0.00101062
-0.000955229
-8.81854e-05
7.759e-05
0.000965738
-0.000935739
-6.85567e-05
6.07938e-05
0.000943414
-0.000925045
-5.40446e-05
4.80632e-05
0.000930937
-0.000918692
-4.2815e-05
3.8115e-05
0.000923302
-0.000914665
-3.39666e-05
3.02181e-05
0.000918323
-0.000912004
-2.69961e-05
2.39681e-05
0.000914943
-0.000909782
-2.11724e-05
1.81952e-05
0.00091267
-0.000908601
-1.6193e-05
1.40581e-05
0.000910648
-0.000907669
-1.20419e-05
1.04623e-05
0.000909162
-0.000906769
-8.86698e-06
7.38253e-06
0.00090817
-0.000906126
-6.0571e-06
4.82789e-06
0.000907276
-0.000905791
-3.63903e-06
2.73902e-06
0.000906617
-0.000905128
-1.96379e-06
1.17293e-06
0.000905851
-0.000904817
-3.94475e-07
-2.98022e-07
0.000905451
-0.000904444
6.88932e-07
-1.09066e-06
0.000904797
-0.0009042
1.50121e-06
-1.81694e-06
0.00090448
-0.000903783
1.75304e-06
-2.48886e-06
0.000904495
-0.00090449
2.85243e-06
-1.91169e-06
0.000903541
-0.000905743
4.13359e-06
-5.80049e-06
0.000907416
-0.000907105
5.3594e-06
-5.20805e-06
0.000906977
-0.000907012
4.69496e-06
-4.20763e-06
0.000906564
-0.000907189
3.83181e-06
-3.01731e-06
0.000906432
-0.000908383
2.37548e-06
-2.29232e-06
0.000908373
-0.000907404
1.63746e-06
-8.75195e-07
0.000906732
-0.000910651
3.22764e-07
9.51935e-08
0.000910338
-0.000908594
-2.30014e-07
8.58286e-07
0.000908087
-0.00090884
-1.59455e-06
2.46571e-06
0.000908103
-0.000909024
-2.4165e-06
2.79248e-06
0.000908796
-0.000908176
-3.26302e-06
3.85175e-06
0.000907745
-0.000908482
-4.2695e-06
4.74911e-06
0.000908171
-0.000908906
-4.95281e-06
5.38229e-06
0.000908653
-0.000909329
-5.50503e-06
5.67929e-06
0.000909338
-0.000909782
-5.63787e-06
5.74372e-06
0.000909864
-0.000910359
-5.42829e-06
5.0565e-06
0.000910923
-0.000913459
-4.05869e-06
3.70079e-06
0.000914011
-0.000911384
-3.11467e-06
2.56327e-06
0.00091213
-0.000912138
-1.88059e-06
1.22536e-06
0.000912987
-0.000912834
-3.36045e-07
-6.35487e-07
0.000913996
-0.000913693
1.74577e-06
-2.75082e-06
0.000914885
-0.000914447
4.10391e-06
-5.47109e-06
0.000915997
-0.000915446
7.20071e-06
-8.76953e-06
0.000917193
-0.000916563
1.08234e-05
-1.28536e-05
0.000918765
-0.000917907
1.52007e-05
-1.77767e-05
0.000920649
-0.000919752
2.06184e-05
-2.37592e-05
0.000923052
-0.000922474
2.72386e-05
-3.11157e-05
0.000926503
-0.000926429
3.54358e-05
-4.02909e-05
0.000931429
-0.000932397
4.5841e-05
-5.19119e-05
0.000938605
-0.000941656
5.89951e-05
-6.69653e-05
0.000949756
-0.000956926
7.61445e-05
-8.63941e-05
0.000967297
-0.000983404
9.78608e-05
-0.000111979
0.000997634
-0.00102551
0.000126817
-0.00013092
0.0010297
-0.000772103
0.000102387
-3.93905e-05
0.000709192
-0.000375973
2.9655e-05
0.000347866
-1.65521e-06
-0.000969074
-7.18221e-05
9.93307e-05
0.000941461
-0.00102098
-0.000104837
9.79922e-05
0.00102774
-0.000975571
-8.81761e-05
7.86859e-05
0.000984972
-0.000950803
-7.05305e-05
6.33572e-05
0.000957885
-0.00093691
-5.69377e-05
5.1165e-05
0.000942589
-0.000928043
-4.59517e-05
4.11465e-05
0.000932753
-0.000922192
-3.67945e-05
3.28644e-05
0.000926025
-0.000918025
-2.9207e-05
2.58025e-05
0.000921332
-0.000915107
-2.28135e-05
2.00263e-05
0.000917796
-0.000912946
-1.75056e-05
1.50477e-05
0.000915306
-0.000911194
-1.24159e-05
1.02245e-05
0.000913288
-0.000909788
-8.4392e-06
6.6715e-06
0.000911462
-0.000908819
-4.78337e-06
3.40593e-06
0.000910106
-0.000907509
-2.09452e-06
6.84139e-07
0.000908835
-0.000906713
4.73311e-07
-1.62857e-06
0.000907791
-0.000906092
2.53989e-06
-3.14399e-06
0.000906629
-0.000905424
4.11659e-06
-4.57562e-06
0.000905826
-0.000904396
4.80926e-06
-6.02417e-06
0.000905567
-0.000904903
6.51823e-06
-5.68635e-06
0.000904039
-0.000905773
8.17852e-06
-1.0164e-05
0.000907743
-0.000906844
9.71119e-06
-9.70758e-06
0.000906841
-0.000906471
9.22815e-06
-8.62782e-06
0.000905888
-0.000906048
8.15931e-06
-7.37613e-06
0.000905298
-0.000905684
6.60495e-06
-5.807e-06
0.000904939
-0.000907652
5.02786e-06
-4.28648e-06
0.000906979
-0.000905903
3.28653e-06
-2.19152e-06
0.000904895
-0.000909838
1.33469e-06
-6.60902e-07
0.000909268
-0.00090738
3.89147e-08
7.78529e-07
0.000906683
-0.000907354
-1.74206e-06
2.69152e-06
0.000906538
-0.000908235
-3.22749e-06
4.00095e-06
0.000907609
-0.000907099
-4.75723e-06
5.60022e-06
0.000906415
-0.000907665
-6.24697e-06
6.91923e-06
0.000907162
-0.00090833
-7.40721e-06
7.88244e-06
0.000908031
-0.000909105
-8.12041e-06
8.37849e-06
0.00090903
-0.000909933
-8.39035e-06
8.41808e-06
0.000910092
-0.000912203
-7.99464e-06
6.98162e-06
0.000913406
-0.000913512
-6.11707e-06
6.15946e-06
0.000913661
-0.000912654
-5.54595e-06
4.93735e-06
0.000913453
-0.000913843
-3.973e-06
3.10875e-06
0.000914896
-0.000914993
-1.98836e-06
7.58427e-07
0.000916409
-0.000916341
6.28582e-07
-2.03604e-06
0.00091793
-0.000917635
3.70587e-06
-5.51354e-06
0.000919619
-0.000919251
7.49275e-06
-9.53165e-06
0.00092146
-0.000921096
1.19602e-05
-1.43778e-05
0.000923677
-0.000923429
1.7109e-05
-1.99696e-05
0.000926445
-0.000926386
2.31803e-05
-2.67789e-05
0.000930133
-0.00093064
3.05715e-05
-3.46131e-05
0.000934823
-0.000936357
3.91192e-05
-4.40623e-05
0.000941433
-0.000944791
4.9552e-05
-5.54864e-05
0.000950851
-0.000957434
6.15609e-05
-6.78028e-05
0.000963794
-0.000976368
7.56404e-05
-8.42587e-05
0.000985096
-0.00100981
9.40594e-05
-0.000103969
0.00101982
-0.00102494
0.000109127
-9.79421e-05
0.00101384
-0.000655336
6.23176e-05
-1.7612e-05
0.000610715
-0.000325458
1.91212e-05
0.000307263
-1.04543e-06
-0.00091329
-5.12865e-05
7.87301e-05
0.000885731
-0.00103132
-9.09703e-05
9.01779e-05
0.00103202
-0.000993211
-8.36337e-05
7.60229e-05
0.00100073
-0.000964737
-6.90253e-05
6.26764e-05
0.00097099
-0.000948626
-5.69245e-05
5.18726e-05
0.000953579
-0.000937434
-4.65073e-05
4.14276e-05
0.000942413
-0.00093003
-3.66001e-05
3.25237e-05
0.000934002
-0.000924668
-2.8757e-05
2.51821e-05
0.000928137
-0.000920754
-2.19842e-05
1.89474e-05
0.000923684
-0.00091775
-1.61572e-05
1.35063e-05
0.000920294
-0.000915472
-1.11806e-05
8.87627e-06
0.00091767
-0.000913523
-6.98117e-06
4.79419e-06
0.000915607
-0.000911667
-2.69836e-06
8.13898e-07
0.000913453
-0.000910318
8.88784e-07
-2.48095e-06
0.000911818
-0.000908902
3.89923e-06
-5.10056e-06
0.000910018
-0.000907773
6.43563e-06
-7.44451e-06
0.000908707
-0.0009062
7.98945e-06
-9.60343e-06
0.000907749
-0.000906166
1.05489e-05
-9.94612e-06
0.000905512
-0.000906706
1.3042e-05
-1.51707e-05
0.000908797
-0.000907217
1.48272e-05
-1.51018e-05
0.000907471
-0.000906242
1.46421e-05
-1.43075e-05
0.000905903
-0.000905453
1.38664e-05
-1.30191e-05
0.00090462
-0.000904412
1.21752e-05
-1.12454e-05
0.000903514
-0.000903908
1.01946e-05
-9.13241e-06
0.000902898
-0.00090601
8.34972e-06
-6.89477e-06
0.000904626
-0.000903606
5.47515e-06
-3.9487e-06
0.00090217
-0.00090844
2.61267e-06
-1.41516e-06
0.000907351
-0.000905534
4.04663e-07
1.04772e-06
0.000904208
-0.000905449
-2.3414e-06
3.91111e-06
0.00090402
-0.000906763
-5.31428e-06
5.98326e-06
0.00090625
-0.000905484
-6.89876e-06
8.04518e-06
0.000904505
-0.000906429
-8.97774e-06
9.9187e-06
0.000905666
-0.000907645
-1.05136e-05
1.1274e-05
0.00090707
-0.0009088
-1.16555e-05
1.21253e-05
0.000908521
-0.000910233
-1.21087e-05
1.18766e-05
0.000910659
-0.000915019
-1.05558e-05
9.41983e-06
0.000916352
-0.000913657
-9.88701e-06
9.83487e-06
0.000913905
-0.000914429
-8.99867e-06
8.24306e-06
0.000915378
-0.000916051
-7.20777e-06
6.04976e-06
0.000917399
-0.000917748
-4.61709e-06
3.25813e-06
0.000919292
-0.000919561
-1.62778e-06
-3.72903e-08
0.000921406
-0.000921557
2.07354e-06
-4.05395e-06
0.00092371
-0.000923732
6.30587e-06
-8.72152e-06
0.000926312
-0.000926421
1.1314e-05
-1.399e-05
0.000929254
-0.000929614
1.70581e-05
-2.01359e-05
0.00093284
-0.000933692
2.36256e-05
-2.71573e-05
0.000937364
-0.000938961
3.10211e-05
-3.51744e-05
0.000943246
-0.000946263
3.95861e-05
-4.36285e-05
0.000950428
-0.000955593
4.78655e-05
-5.3178e-05
0.000961021
-0.000970512
5.90448e-05
-6.52597e-05
0.000976834
-0.000993092
7.1898e-05
-7.91384e-05
0.00100043
-0.0010275
8.66267e-05
-9.20756e-05
0.00103304
-0.000998627
8.97618e-05
-7.2074e-05
0.000981021
-0.000574163
4.01586e-05
-1.00661e-05
0.000544152
-0.000292205
1.32348e-05
0.000279557
-7.12363e-07
-0.000859392
-3.75675e-05
6.20685e-05
0.00083477
-0.00103035
-7.69868e-05
8.04281e-05
0.00102681
-0.00100757
-7.70152e-05
7.10427e-05
0.00101345
-0.000976848
-6.49217e-05
5.90677e-05
0.000982601
-0.000958675
-5.39141e-05
4.89377e-05
0.000963547
-0.000946803
-4.42899e-05
3.99338e-05
0.000951052
-0.000938514
-3.58505e-05
3.19174e-05
0.000942337
-0.000932511
-2.8233e-05
2.4886e-05
0.000935746
-0.000926833
-2.07393e-05
1.67134e-05
0.000930745
-0.000922982
-1.24989e-05
9.62893e-06
0.000925738
-0.000919825
-6.96713e-06
4.40778e-06
0.00092227
-0.000917349
-2.14981e-06
-9.15932e-09
0.000919397
-0.000915404
1.77316e-06
-3.33282e-06
0.000916857
-0.00091337
4.60209e-06
-6.36813e-06
0.000915036
-0.000911673
8.45182e-06
-1.01067e-05
0.000913234
-0.000909448
1.12675e-05
-1.3396e-05
0.000911493
-0.000908866
1.48205e-05
-1.45769e-05
0.000908549
-0.000908855
1.82225e-05
-1.98453e-05
0.000910419
-0.000909053
2.02677e-05
-2.12714e-05
0.000910012
-0.00090706
2.12786e-05
-2.11809e-05
0.000906935
-0.000905363
2.0914e-05
-2.03146e-05
0.000904754
-0.000903656
1.93561e-05
-1.85219e-05
0.000902832
-0.000902341
1.7388e-05
-1.60401e-05
0.000901023
-0.000902107
1.4598e-05
-1.3197e-05
0.000900759
-0.000902276
1.21837e-05
-9.99421e-06
0.000900159
-0.00090031
7.92594e-06
-5.8222e-06
0.000898301
-0.000905923
3.91021e-06
-2.14232e-06
0.00090427
-0.000902574
4.67009e-07
1.57067e-06
0.000900673
-0.000901624
-3.51767e-06
5.66512e-06
0.000899628
-0.000906479
-7.82811e-06
8.72073e-06
0.000905754
-0.00090336
-9.95756e-06
1.1499e-05
0.000901999
-0.000904649
-1.27936e-05
1.40577e-05
0.000903576
-0.000906381
-1.50101e-05
1.58992e-05
0.00090569
-0.000908272
-1.64546e-05
1.69584e-05
0.000907972
-0.000911657
-1.71222e-05
1.67374e-05
0.000912248
-0.000916002
-1.55213e-05
1.57473e-05
0.000915983
-0.0009144
-1.53423e-05
1.47903e-05
0.000915155
-0.000916304
-1.38204e-05
1.28086e-05
0.000917515
-0.000918648
-1.15928e-05
1.02369e-05
0.000920196
-0.000920956
-8.69129e-06
7.00593e-06
0.000922827
-0.000923383
-5.14293e-06
3.1375e-06
0.000925566
-0.000925901
-9.64133e-07
-1.35804e-06
0.000928392
-0.000928825
3.84049e-06
-6.37734e-06
0.000931522
-0.000932109
9.1721e-06
-1.21368e-05
0.000935224
-0.000936064
1.52578e-05
-1.85648e-05
0.000939512
-0.000940991
2.20303e-05
-2.5701e-05
0.000944793
-0.000947019
2.8414e-05
-3.17604e-05
0.000950488
-0.000954799
3.6199e-05
-4.05737e-05
0.000959287
-0.000966359
4.5342e-05
-5.00711e-05
0.000971193
-0.000982603
5.54345e-05
-6.08161e-05
0.000988082
-0.0010071
6.66927e-05
-7.26032e-05
0.0010131
-0.00103643
7.79566e-05
-7.9669e-05
0.00103823
-0.000962464
7.29818e-05
-5.41902e-05
0.000943747
-0.000519149
2.79504e-05
-6.83126e-06
0.000498105
-0.00026885
9.66128e-06
0.000259558
-5.07822e-07
-0.000812016
-2.82468e-05
4.92015e-05
0.000790928
-0.0010218
-6.43689e-05
7.0338e-05
0.00101573
-0.00101866
-6.92738e-05
6.489e-05
0.00102294
-0.000988027
-5.95985e-05
5.42268e-05
0.000993294
-0.000968295
-4.93282e-05
4.46459e-05
0.000972869
-0.00095535
-4.02349e-05
3.59443e-05
0.000959529
-0.000946062
-3.1975e-05
2.79898e-05
0.000949933
-0.000939143
-2.44133e-05
2.07062e-05
0.000942734
-0.000933835
-1.7503e-05
1.41657e-05
0.000937053
-0.000929766
-1.12239e-05
8.35456e-06
0.000932516
-0.000926308
-5.67014e-06
2.95767e-06
0.000928901
-0.000921608
6.94649e-07
-4.46648e-06
0.000925263
-0.000918677
8.04661e-06
-1.16315e-05
0.000922147
-0.00091615
1.46099e-05
-1.65604e-05
0.000917991
-0.000914136
1.80051e-05
-1.87151e-05
0.000914742
-0.000914065
1.81013e-05
-1.58514e-05
0.00091172
-0.000912526
2.37005e-05
-2.59746e-05
0.000914716
-0.000911031
2.69345e-05
-2.79619e-05
0.000911987
-0.000909962
2.78393e-05
-2.77898e-05
0.000909856
-0.00090696
2.86835e-05
-2.89079e-05
0.000907147
-0.000904021
2.85004e-05
-2.7819e-05
0.00090332
-0.000901651
2.68046e-05
-2.54566e-05
0.000900306
-0.000899432
2.39329e-05
-2.21394e-05
0.000897664
-0.00089896
2.02096e-05
-1.80549e-05
0.000896856
-0.000898011
1.60261e-05
-1.35129e-05
0.000895573
-0.000895895
1.08789e-05
-8.05347e-06
0.00089317
-0.00090218
5.37536e-06
-2.81835e-06
0.000899746
-0.000898317
3.79445e-07
2.45188e-06
0.000895633
-0.000897304
-5.1937e-06
7.95695e-06
0.000894707
-0.000904158
-1.03088e-05
1.22166e-05
0.000902433
-0.000900256
-1.42517e-05
1.63507e-05
0.000898354
-0.000902206
-1.80889e-05
1.97617e-05
0.000900741
-0.000904761
-2.10265e-05
2.22844e-05
0.000903717
-0.000907489
-2.29332e-05
2.33821e-05
0.000907258
-0.000913403
-2.23354e-05
2.04012e-05
0.000915557
-0.000915488
-2.15474e-05
2.23978e-05
0.000914854
-0.000915871
-2.19798e-05
2.11874e-05
0.000916874
-0.000918717
-2.00436e-05
1.88341e-05
0.00092013
-0.000921658
-1.74024e-05
1.59138e-05
0.000923341
-0.000924524
-1.41259e-05
1.20867e-05
0.000926748
-0.000927581
-1.00728e-05
7.8126e-06
0.000930016
-0.000930816
-5.29228e-06
2.83294e-06
0.00093344
-0.000934348
-2.43435e-08
-2.72486e-06
0.000937251
-0.000938246
5.80923e-06
-8.83671e-06
0.000941415
-0.000942941
1.1881e-05
-1.4052e-05
0.000945243
-0.000947409
1.73649e-05
-2.09423e-05
0.000951108
-0.000954455
2.47295e-05
-2.86945e-05
0.000958532
-0.000963705
3.27642e-05
-3.69146e-05
0.000967958
-0.000975994
4.13917e-05
-4.59694e-05
0.000980667
-0.000993345
5.07944e-05
-5.58842e-05
0.000998523
-0.00101863
6.16778e-05
-6.67663e-05
0.0010238
-0.0010386
7.02218e-05
-6.982e-05
0.00103827
-0.000925376
6.17653e-05
-4.41258e-05
0.000907805
-0.000479857
2.2371e-05
-5.94979e-06
0.000463503
-0.000251611
7.23461e-06
0.0002446
-3.71782e-07
-0.000771765
-2.16742e-05
3.90768e-05
0.000754221
-0.00100856
-5.33896e-05
6.07881e-05
0.00100106
-0.00102653
-6.18529e-05
5.87716e-05
0.00102951
-0.000998282
-5.4266e-05
4.92997e-05
0.00100314
-0.000977812
-4.46507e-05
4.04773e-05
0.000981875
-0.000963687
-3.5992e-05
3.16928e-05
0.000967873
-0.000953723
-2.74618e-05
2.32768e-05
0.000957792
-0.000946288
-1.89347e-05
1.52639e-05
0.000949839
-0.000940273
-1.17493e-05
8.26949e-06
0.000943631
-0.000935402
-5.05292e-06
1.87446e-06
0.000938456
-0.000931449
1.0399e-06
-3.91056e-06
0.000934195
-0.000928283
6.40667e-06
-8.64033e-06
0.000930392
-0.000924485
1.16232e-05
-1.48386e-05
0.000927577
-0.000921051
1.67329e-05
-1.91441e-05
0.000923342
-0.000918989
2.26747e-05
-2.42333e-05
0.000920431
-0.000913462
2.43899e-05
-3.42355e-05
0.000923198
-0.000915252
3.47045e-05
-3.64256e-05
0.000916872
-0.000912412
3.70616e-05
-3.76752e-05
0.000912938
-0.000909886
3.80028e-05
-3.7653e-05
0.000909463
-0.000907385
3.68007e-05
-3.7582e-05
0.000908112
-0.000902287
3.80376e-05
-3.74488e-05
0.000901664
-0.000898791
3.61456e-05
-3.44374e-05
0.000897073
-0.000895597
3.24711e-05
-3.0074e-05
0.000893216
-0.000894376
2.74765e-05
-2.45679e-05
0.000891513
-0.000892675
2.16857e-05
-1.82752e-05
0.000889338
-0.000889886
1.46769e-05
-1.08019e-05
0.000886115
-0.000896734
7.0436e-06
-3.4159e-06
0.000893238
-0.00089236
-1.01902e-07
3.995e-06
0.000888628
-0.000891539
-7.77522e-06
1.15597e-05
0.000887935
-0.00090009
-1.48584e-05
1.79001e-05
0.000897249
-0.000896013
-2.04246e-05
2.31555e-05
0.000893498
-0.000898938
-2.54743e-05
2.76158e-05
0.000897024
-0.000902516
-2.92419e-05
3.06913e-05
0.000901299
-0.000907141
-3.1338e-05
3.04302e-05
0.000908284
-0.000916593
-2.85496e-05
3.026e-05
0.000915116
-0.000914463
-3.14977e-05
3.13135e-05
0.000914875
-0.000917766
-3.0509e-05
2.9392e-05
0.0009191
-0.000921462
-2.80948e-05
2.66113e-05
0.000923152
-0.000925269
-2.48846e-05
2.30922e-05
0.000927256
-0.000928825
-2.0891e-05
1.86413e-05
0.000931256
-0.000932405
-1.62176e-05
1.36543e-05
0.000935136
-0.000936217
-1.095e-05
8.11061e-06
0.000939213
-0.000940294
-5.15426e-06
2.69261e-06
0.0009429
-0.000943776
-4.45166e-07
-2.659e-06
0.000947012
-0.00094877
6.15563e-06
-9.57272e-06
0.000952308
-0.00095487
1.32671e-05
-1.69888e-05
0.000958702
-0.000962525
2.10886e-05
-2.55523e-05
0.00096709
-0.000972304
2.98567e-05
-3.47578e-05
0.000977298
-0.000985289
4.0286e-05
-4.51206e-05
0.000990208
-0.00100406
4.94728e-05
-5.31138e-05
0.00100778
-0.00102882
5.60698e-05
-5.92498e-05
0.00103208
-0.00103521
6.08628e-05
-5.77022e-05
0.00103212
-0.00089024
4.75058e-05
-3.16739e-05
0.00087447
-0.000450012
1.4927e-05
-3.31704e-06
0.000438461
-0.000238569
5.51422e-06
0.000233185
-2.77571e-07
-0.000738207
-1.68639e-05
3.11734e-05
0.000723755
-0.000993172
-4.42044e-05
5.2131e-05
0.000985139
-0.00103191
-5.43492e-05
5.25567e-05
0.0010336
-0.00100786
-4.87816e-05
4.4293e-05
0.00101224
-0.000986243
-4.00449e-05
3.55365e-05
0.000990642
-0.000971968
-3.12207e-05
2.6841e-05
0.000976235
-0.000961704
-2.26044e-05
1.80546e-05
0.000966136
-0.000953804
-1.4273e-05
1.04888e-05
0.000957467
-0.000947538
-6.82683e-06
3.26797e-06
0.000950972
-0.000942401
1.64696e-07
-3.49211e-06
0.000945601
-0.000937123
7.52093e-06
-1.15343e-05
0.000941007
-0.00093291
1.56058e-05
-2.00607e-05
0.000937234
-0.000929247
2.32075e-05
-2.57869e-05
0.000931694
-0.000927306
2.76699e-05
-2.79396e-05
0.000927443
-0.000920823
2.86537e-05
-3.96143e-05
0.000931652
-0.000922965
3.97673e-05
-4.26206e-05
0.000925692
-0.00091913
4.49652e-05
-4.6589e-05
0.000920633
-0.000914029
4.82225e-05
-4.9699e-05
0.000915395
-0.000909216
5.09138e-05
-5.15969e-05
0.000909801
-0.000907043
5.12861e-05
-5.02705e-05
0.000905949
-0.000901312
5.01601e-05
-4.99779e-05
0.000901072
-0.000895198
4.85591e-05
-4.63082e-05
0.000892917
-0.000890492
4.37168e-05
-4.06129e-05
0.000887387
-0.000888152
3.71516e-05
-3.32346e-05
0.000884269
-0.000885366
2.91775e-05
-2.45876e-05
0.000880844
-0.000881593
1.96167e-05
-1.43107e-05
0.000876392
-0.000888937
9.05646e-06
-3.88814e-06
0.000883908
-0.000884089
-1.1498e-06
6.57399e-06
0.000878839
-0.000883625
-1.17723e-05
1.68807e-05
0.000878715
-0.000893726
-2.135e-05
2.5624e-05
0.000889674
-0.00089079
-2.94439e-05
3.30489e-05
0.000887424
-0.000894704
-3.57769e-05
3.84662e-05
0.000892264
-0.000900011
-4.04774e-05
4.19076e-05
0.000898834
-0.000909649
-4.14293e-05
4.02023e-05
0.00091113
-0.000913093
-4.18973e-05
4.32395e-05
0.000911998
-0.000915489
-4.30603e-05
4.24069e-05
0.000916378
-0.000920282
-4.11715e-05
3.98926e-05
0.000921783
-0.000924925
-3.81055e-05
3.62088e-05
0.000927029
-0.000929444
-3.3964e-05
3.17443e-05
0.000931855
-0.000933692
-2.91246e-05
2.65609e-05
0.000936431
-0.000937968
-2.36387e-05
2.07921e-05
0.000940973
-0.000941978
-1.84726e-05
1.60295e-05
0.000944566
-0.000945568
-1.26651e-05
9.29143e-06
0.000949073
-0.000950605
-5.54591e-06
1.37357e-06
0.000954897
-0.00095618
2.73921e-06
-7.28329e-06
0.000960833
-0.000962744
1.26089e-05
-1.68783e-05
0.000967112
-0.0009726
1.98659e-05
-2.17647e-05
0.000974588
-0.000980474
2.48369e-05
-2.84573e-05
0.000984176
-0.000993642
3.19694e-05
-3.59549e-05
0.000997702
-0.00101207
4.01892e-05
-4.43132e-05
0.00101627
-0.00103543
4.83626e-05
-5.13789e-05
0.00103851
-0.00102863
5.18764e-05
-4.78017e-05
0.00102462
-0.000859781
3.81722e-05
-2.46124e-05
0.000846276
-0.000428462
1.12422e-05
-2.42564e-06
0.000419696
-0.000228546
4.24869e-06
0.000224358
-2.07387e-07
-0.000710416
-1.32537e-05
2.51266e-05
0.000698402
-0.000977256
-3.65266e-05
4.43058e-05
0.000969372
-0.00103495
-4.7385e-05
4.64993e-05
0.00103574
-0.00101683
-4.3371e-05
3.94473e-05
0.00102065
-0.000995052
-3.50065e-05
3.06534e-05
0.000999298
-0.000980227
-2.6226e-05
2.18127e-05
0.000984529
-0.000969798
-1.71874e-05
1.3189e-05
0.000973681
-0.00096168
-9.28233e-06
5.4441e-06
0.000965398
-0.000955303
-1.58767e-06
-2.09808e-06
0.000958864
-0.000949091
5.79779e-06
-1.01662e-05
0.000953331
-0.000944169
1.45344e-05
-1.92403e-05
0.000948742
-0.000939838
2.41385e-05
-2.78882e-05
0.000943451
-0.000936192
3.09771e-05
-3.34329e-05
0.000938506
-0.000932607
3.41743e-05
-3.55387e-05
0.000933826
-0.000932655
4.83595e-05
-5.08939e-05
0.000935042
-0.000928003
5.39514e-05
-5.57515e-05
0.000929655
-0.000923157
5.74983e-05
-5.96094e-05
0.000925123
-0.000916797
6.20879e-05
-6.42115e-05
0.000918782
-0.000910572
6.56094e-05
-6.65315e-05
0.000911366
-0.00090487
6.69537e-05
-6.63174e-05
0.000904123
-0.000901452
6.46287e-05
-6.42228e-05
0.000900957
-0.000890752
6.4054e-05
-6.22185e-05
0.000888858
-0.000883744
5.9142e-05
-5.52596e-05
0.000879836
-0.000879433
5.05333e-05
-4.41437e-05
0.000873059
-0.000876023
3.64118e-05
-3.18123e-05
0.000871481
-0.000870171
2.61848e-05
-1.90109e-05
0.000863101
-0.000877762
1.16079e-05
-4.18032e-06
0.000870482
-0.000872507
-3.10813e-06
1.06854e-05
0.00086512
-0.000873111
-1.7712e-05
2.32585e-05
0.000867784
-0.000884028
-2.72009e-05
3.52991e-05
0.000876177
-0.000883348
-4.18317e-05
4.67671e-05
0.000878677
-0.000889557
-5.05932e-05
5.35995e-05
0.000886825
-0.000898195
-5.51235e-05
5.42233e-05
0.000899373
-0.000910639
-5.30172e-05
5.63953e-05
0.000907534
-0.00091132
-5.83417e-05
5.85134e-05
0.000911408
-0.000917375
-5.74818e-05
5.63033e-05
0.000918797
-0.000923531
-5.45048e-05
5.25378e-05
0.000925721
-0.0009292
-5.01427e-05
4.77405e-05
0.000931805
-0.00093444
-4.49926e-05
4.20779e-05
0.000937538
-0.000939443
-3.91002e-05
3.66357e-05
0.000942071
-0.00094328
-3.36286e-05
2.98766e-05
0.000947179
-0.000948229
-2.5125e-05
2.02647e-05
0.00095322
-0.000953109
-1.44225e-05
1.01406e-05
0.000957509
-0.000960544
-7.40995e-06
5.97683e-06
0.000962083
-0.000963537
-3.09652e-06
-3.84655e-07
0.000967114
-0.000969979
3.62263e-06
-7.25551e-06
0.000973699
-0.000977946
1.10673e-05
-1.49615e-05
0.000981919
-0.000988163
1.89237e-05
-2.28758e-05
0.000992187
-0.0010017
2.69066e-05
-3.09474e-05
0.0010058
-0.00102042
3.49471e-05
-3.89621e-05
0.0010245
-0.00104106
4.25752e-05
-4.48775e-05
0.00104342
-0.00102017
4.43976e-05
-3.98553e-05
0.00101568
-0.000833696
3.07847e-05
-1.91838e-05
0.000822144
-0.000411938
8.53071e-06
-1.71783e-06
0.000405168
-0.000220716
3.25838e-06
0.000217463
-1.52861e-07
-0.000687435
-1.04985e-05
2.03658e-05
0.000677428