/*--------------------------------*- C++ -*----------------------------------*\
  =========                 |
  \\      /  F ield         | OpenFOAM: The Open Source CFD Toolbox
   \\    /   O peration     | Website:  https://openfoam.org
    \\  /    A nd           | Version:  7
     \\/     M anipulation  |
\*---------------------------------------------------------------------------*/
FoamFile
{
    version     2.0;
    format      ascii;
    class       volVectorField;
    location    "95";
    object      U;
}
// * * * * * * * * * * * * * * * * * * * * * * * * * * * * * * * * * * * * * //

dimensions      [0 1 -1 0 0 0 0];

internalField   nonuniform List<vector> 
17475
(
(1.01828 0.205791 -1.65886e-20)
(0.996001 0.0223704 -2.6387e-20)
(0.999792 0.00973197 0)
(0.999947 0.0048744 0)
(0.999984 0.00303094 0)
(0.999995 0.00206882 0)
(0.999999 0.00148121 0)
(1 0.00108436 0)
(1 0.000797756 -5.52595e-20)
(1 0.000580696 0)
(1 0.000410612 0)
(1 0.000274087 0)
(1 0.000162961 0)
(1 7.17199e-05 0)
(1 -2.98509e-06 0)
(1 -6.36115e-05 0)
(1 -0.000111571 0)
(1 -0.000148084 0)
(1 -0.000173818 0)
(1 -0.000189545 0)
(1 -0.000195644 -2.12539e-19)
(1 -0.000193005 4.60859e-22)
(1 -0.000182158 0)
(1 -0.000164037 -6.71534e-21)
(1 -0.000140262 0)
(1 -0.000110193 -1.34517e-20)
(0.999999 -7.73162e-05 0)
(0.999999 -4.2389e-05 0)
(0.999999 -6.82512e-06 -1.68515e-21)
(0.999999 2.76082e-05 5.38293e-20)
(0.999998 5.94904e-05 5.29354e-20)
(0.999998 8.72028e-05 0)
(0.999998 0.000109564 0)
(0.999997 0.000125254 -5.31489e-20)
(0.999997 0.000133391 -5.3036e-20)
(0.999997 0.000132977 0)
(0.999997 0.00012338 -4.10297e-22)
(0.999997 0.000103787 0)
(0.999996 7.35946e-05 5.20478e-20)
(0.999996 3.16092e-05 2.59617e-20)
(0.999996 -2.26543e-05 -2.59071e-20)
(0.999996 -9.06004e-05 0)
(0.999996 -0.000174292 -2.59513e-20)
(0.999996 -0.000276993 0)
(0.999995 -0.000403523 -1.30979e-20)
(0.999995 -0.000561292 0)
(0.999995 -0.000761764 2.69883e-20)
(0.999994 -0.00102336 0)
(0.999993 -0.00137638 0)
(0.999991 -0.00187244 0)
(0.999987 -0.00260129 0)
(0.999983 -0.0037039 -1.64916e-20)
(0.999948 -0.00539022 3.66389e-20)
(0.998946 -0.00295523 4.03619e-20)
(1.02904 -0.08974 -3.94338e-20)
(0.871014 0.0787852 2.51901e-20)
(1.10019 0.0972305 0)
(1.03469 0.0584556 0)
(1.01493 0.0373581 0)
(1.00775 0.0253806 -1.82277e-19)
(1.0046 0.0180945 -1.76541e-19)
(1.00301 0.0133271 1.6949e-19)
(1.0021 0.010005 0)
(1.00153 0.00757079 0)
(1.00116 0.00571744 0)
(1.0009 0.00426574 0)
(1.0007 0.0031053 0)
(1.00056 0.00216655 0)
(1.00044 0.00140333 0)
(1.00034 0.000786022 0)
(1.00025 0.000293793 0)
(1.00018 -8.62503e-05 0)
(1.00011 -0.000364397 0)
(1.00005 -0.000546875 0)
(0.999998 -0.000640171 0)
(0.999949 -0.000648725 0)
(0.999907 -0.000579473 0)
(0.999872 -0.000438167 2.96845e-19)
(0.999841 -0.000233712 -7.40738e-20)
(0.999823 2.64496e-05 -1.4739e-19)
(0.999814 0.000326488 -2.92164e-22)
(0.999814 0.000655457 -1.81089e-20)
(0.999824 0.000996734 0)
(0.999846 0.00133701 -8.87536e-21)
(0.999877 0.00166147 8.77459e-21)
(0.999919 0.0019549 -1.39125e-19)
(0.999969 0.00220378 1.39508e-19)
(1.00003 0.00239569 0)
(1.00009 0.00251936 -2.66142e-19)
(1.00016 0.0025661 2.04752e-21)
(1.00023 0.00252789 2.58525e-19)
(1.00031 0.00239868 0)
(1.00039 0.00217245 1.25361e-19)
(1.00047 0.00184349 0)
(1.00056 0.0014057 -1.23055e-19)
(1.00065 0.000850098 1.21992e-19)
(1.00075 0.000164514 0)
(1.00087 -0.000669182 0)
(1.00102 -0.00167898 0)
(1.0012 -0.00290688 1.39381e-22)
(1.00144 -0.00441734 6.0482e-20)
(1.00178 -0.00630959 -6.12232e-20)
(1.00228 -0.00874096 -3.10382e-20)
(1.00303 -0.0119677 0)
(1.00423 -0.0164241 0)
(1.00624 -0.0228844 0)
(1.00977 -0.0328174 -3.49137e-20)
(1.01632 -0.0495329 3.63815e-20)
(1.02842 -0.0727965 2.37459e-21)
(1.07071 -0.178154 2.81446e-21)
(0.609284 0.0196539 1.3534e-20)
(1.1389 0.106507 -1.95957e-20)
(1.07815 0.0754805 -8.15182e-20)
(1.04072 0.0543329 0)
(1.02426 0.0402121 0)
(1.01568 0.0302089 -1.65197e-19)
(1.01079 0.0228889 0)
(1.0078 0.0173878 0)
(1.00586 0.013144 0)
(1.00453 0.00979093 3.19494e-19)
(1.00358 0.00708927 0)
(1.00286 0.00487998 0)
(1.00231 0.00305755 0)
(1.00185 0.00155036 0)
(1.00147 0.000310753 0)
(1.00114 -0.000693852 -3.08235e-19)
(1.00084 -0.0014847 0)
(1.00056 -0.00207747 0)
(1.00031 -0.00248294 0)
(1.00008 -0.00271018 0)
(0.99986 -0.00276681 6.05289e-19)
(0.999665 -0.00266289 0)
(0.999492 -0.00241176 2.23863e-19)
(0.99935 -0.0020234 -1.48091e-19)
(0.99924 -0.00152212 0)
(0.999167 -0.000929425 -3.65023e-20)
(0.999134 -0.000271312 0)
(0.999142 0.000422123 4.49689e-20)
(0.999193 0.00112035 2.67589e-20)
(0.999287 0.00179391 0)
(0.999421 0.00241228 -1.21864e-19)
(0.999592 0.00294753 4.27429e-21)
(0.999795 0.00337514 -2.10165e-21)
(1.00002 0.00367309 -1.33158e-19)
(1.00028 0.00382356 1.31059e-19)
(1.00054 0.00381153 0)
(1.00083 0.00362509 2.4526e-19)
(1.00112 0.00325294 -2.48505e-19)
(1.00143 0.00268658 2.62448e-19)
(1.00176 0.00191353 0)
(1.00212 0.000918941 3.03467e-20)
(1.00251 -0.000317968 -4.9181e-22)
(1.00297 -0.00182802 1.17975e-19)
(1.00352 -0.00365726 -6.18158e-22)
(1.00421 -0.00587447 -5.86096e-20)
(1.00512 -0.00858139 0)
(1.00636 -0.0119315 0)
(1.00814 -0.0161571 2.9404e-20)
(1.01079 -0.0216168 -3.03913e-20)
(1.01493 -0.0288744 -4.78897e-22)
(1.02171 -0.0388276 9.29639e-20)
(1.03335 -0.052951 -6.37175e-20)
(1.0544 -0.0734938 6.24184e-20)
(1.1008 -0.105373 0)
(0.963444 -0.117786 3.2366e-20)
(0.480259 0.00950628 0)
(1.11538 0.089819 0)
(1.11439 0.0803309 3.65582e-20)
(1.06543 0.0610405 0)
(1.04205 0.0473476 1.55844e-19)
(1.02902 0.0369031 0)
(1.021 0.0287076 0)
(1.01577 0.0221601 0)
(1.01219 0.0168494 0)
(1.00965 0.0124823 0)
(1.00777 0.00885086 0)
(1.00632 0.0058051 0)
(1.00517 0.00324101 3.08938e-19)
(1.00422 0.00108451 0)
(1.0034 -0.000713873 0)
(1.00267 -0.00218883 0)
(1.00201 -0.0033635 0)
(1.00139 -0.00425201 0)
(1.00081 -0.00486388 0)
(1.00026 -0.00520778 -3.04085e-19)
(0.999753 -0.00529164 0)
(0.999281 -0.00512903 0)
(0.998861 -0.00472848 -1.49547e-19)
(0.998502 -0.00411736 0)
(0.998214 -0.00332435 -2.21805e-19)
(0.998009 -0.00238412 3.64334e-20)
(0.997896 -0.0013381 -1.45289e-19)
(0.997881 -0.000230123 2.80293e-22)
(0.997964 0.000890898 7.10557e-20)
(0.998147 0.00197416 5.30415e-20)
(0.998422 0.00297515 1.39338e-19)
(0.998783 0.00384789 4.2728e-21)
(0.999219 0.00455478 0)
(0.999715 0.00506298 -1.12953e-21)
(1.00026 0.00534641 0)
(1.00085 0.00538431 -1.18832e-19)
(1.00146 0.00516083 -1.24642e-19)
(1.00211 0.00466234 1.23332e-19)
(1.00279 0.00388282 2.41703e-19)
(1.0035 0.00280561 9.75447e-20)
(1.00426 0.00141549 -2.96154e-20)
(1.0051 -0.000308644 -5.81716e-20)
(1.00607 -0.00239995 0)
(1.00721 -0.00490821 0)
(1.00863 -0.007906 -5.66463e-20)
(1.01046 -0.0114983 5.64098e-20)
(1.0129 -0.0158357 1.40402e-19)
(1.0163 -0.0211326 2.84546e-20)
(1.0212 -0.0276933 -1.11909e-22)
(1.02852 -0.0359469 -2.768e-20)
(1.0399 -0.0464962 1.11375e-19)
(1.05822 -0.0601963 -8.28369e-20)
(1.09033 -0.078426 7.79259e-20)
(1.13361 -0.10068 4.97492e-20)
(0.813229 -0.0597595 -1.4086e-20)
(0.399926 0.00532553 0)
(1.06055 0.0687534 -3.49026e-20)
(1.13754 0.0765218 6.74471e-20)
(1.0878 0.0614446 7.11188e-20)
(1.05891 0.049211 7.35274e-20)
(1.04248 0.0394084 1.49764e-19)
(1.03194 0.0312578 -1.51003e-19)
(1.02477 0.0243996 -1.5225e-19)
(1.01967 0.0185837 0)
(1.01592 0.0136185 -3.05966e-19)
(1.01306 0.00935742 -6.11707e-19)
(1.0108 0.00568974 -3.06462e-19)
(1.00896 0.00253449 -3.06615e-19)
(1.00739 -0.000166945 0)
(1.00603 -0.00245379 0)
(1.00479 -0.00435428 0)
(1.00364 -0.00588102 -6.10046e-19)
(1.00256 -0.00704244 4.52023e-22)
(1.00152 -0.00784148 -6.07608e-19)
(1.00053 -0.0082811 -3.03549e-19)
(0.999588 -0.00836735 -7.53026e-20)
(0.998709 -0.00810242 1.50101e-19)
(0.997912 -0.00750821 -1.50343e-19)
(0.99722 -0.00661323 1.49076e-19)
(0.996656 -0.00545555 0)
(0.996241 -0.00408157 -7.39042e-20)
(0.995995 -0.00255182 1.4622e-19)
(0.99593 -0.00092957 0)
(0.996051 0.0007161 -3.54716e-20)
(0.996355 0.00230673 -1.7713e-20)
(0.996832 0.00378092 -1.39659e-19)
(0.997467 0.00506993 1.28183e-20)
(0.998237 0.00612193 0)
(0.999117 0.00689303 1.40115e-19)
(1.00008 0.00735007 0)
(1.00112 0.00746817 0)
(1.0022 0.00723053 -2.45359e-19)
(1.00333 0.00662969 -5.79257e-20)
(1.00449 0.00565869 1.25786e-19)
(1.00571 0.00430797 1.09993e-19)
(1.007 0.00256898 -1.29098e-19)
(1.00841 0.000426226 -1.13541e-19)
(1.00999 -0.00214441 -1.39295e-19)
(1.01183 -0.00518237 8.25525e-20)
(1.01407 -0.00874632 1.08877e-19)
(1.01688 -0.0129191 -2.65775e-20)
(1.02054 -0.0178151 0)
(1.02547 -0.0235862 -5.27622e-20)
(1.03234 -0.0304305 -5.22051e-20)
(1.0422 -0.038601 -2.62241e-20)
(1.05685 -0.0484038 -2.467e-20)
(1.07954 -0.0602397 -7.35342e-20)
(1.11743 -0.0748755 -4.5459e-20)
(1.12318 -0.0827413 0)
(0.694267 -0.0291113 7.41059e-20)
(0.350317 0.00326231 0)
(0.998384 0.0512895 0)
(1.14591 0.0690704 -1.2891e-19)
(1.10675 0.0588704 -1.35026e-19)
(1.07407 0.0480482 0)
(1.05515 0.0390918 0)
(1.04277 0.031343 1.45462e-19)
(1.03408 0.024546 0)
(1.02772 0.0185599 0)
(1.0229 0.0132742 0)
(1.01912 0.0086025 -3.00481e-19)
(1.01606 0.00447762 -3.01805e-19)
(1.0135 0.000850017 0)
(1.01128 -0.00231464 0)
(1.00929 -0.00503892 -1.56147e-23)
(1.00746 -0.00733193 0)
(1.00572 -0.0091931 1.21409e-18)
(1.00405 -0.0106171 1.21867e-18)
(1.00243 -0.011594 -6.07026e-19)
(1.00085 -0.0121183 3.02226e-19)
(0.999322 -0.0121734 3.77709e-19)
(0.997881 -0.0117693 -7.54151e-20)
(0.996558 -0.0109213 4.52226e-19)
(0.995393 -0.0096614 -7.43169e-20)
(0.994429 -0.00803563 -2.45338e-22)
(0.993708 -0.00610461 -1.484e-19)
(0.993262 -0.00395226 1.85555e-19)
(0.993117 -0.00166681 1.45744e-19)
(0.993283 0.000653549 -3.57161e-22)
(0.993754 0.00289533 7.1014e-20)
(0.994513 0.00497355 6.92864e-20)
(0.995528 0.00679014 0)
(0.99676 0.00827708 -1.20496e-19)
(0.998164 0.00937912 0)
(0.999697 0.0100567 0)
(1.00132 0.0102848 1.55919e-19)
(1.00301 0.0100516 -1.23384e-19)
(1.00475 0.00936065 0)
(1.00653 0.00820693 7.28308e-21)
(1.00836 0.0065995 0)
(1.01027 0.00454224 0)
(1.01232 0.00203332 -1.23733e-19)
(1.01457 -0.000937399 1.35448e-20)
(1.01714 -0.00438811 2.82822e-22)
(1.02019 -0.00835375 -1.27979e-20)
(1.02393 -0.0128848 -1.27579e-19)
(1.02867 -0.0180504 -1.23644e-20)
(1.03488 -0.0239368 1.10851e-19)
(1.04326 -0.0306498 -9.70054e-20)
(1.05493 -0.038306 0)
(1.07171 -0.0470498 4.51641e-20)
(1.0972 -0.0571349 9.82167e-22)
(1.13435 -0.0683431 -4.16149e-20)
(1.08966 -0.0649939 -6.27939e-20)
(0.613744 -0.0166228 0)
(0.31693 0.00221621 1.3816e-20)
(0.940257 0.0384566 -3.53888e-20)
(1.14267 0.0603551 6.27443e-20)
(1.12216 0.0548166 0)
(1.08776 0.045296 0)
(1.06689 0.0370673 -1.3743e-19)
(1.05317 0.0297588 0)
(1.04336 0.0231407 -2.85584e-19)
(1.03601 0.0171233 -2.89085e-19)
(1.03031 0.0116527 0)
(1.02573 0.00668882 -1.47766e-19)
(1.02194 0.002204 2.97968e-19)
(1.01868 -0.00182451 -5.99478e-19)
(1.0158 -0.00541142 0)
(1.01316 -0.00855235 0)
(1.01066 -0.0112367 0)
(1.00825 -0.0134421 -4.70909e-21)
(1.00588 -0.0151434 0)
(1.00352 -0.0163159 0)
(1.00119 -0.0169203 3.02208e-19)
(0.998911 -0.0169351 -3.12572e-22)
(0.996723 -0.0163547 0)
(0.994687 -0.0151863 0)
(0.99287 -0.0134599 4.56491e-19)
(0.991344 -0.0112283 3.03396e-19)
(0.990182 -0.00856685 3.76581e-20)
(0.989449 -0.00559849 0)
(0.989184 -0.00243837 2.96662e-19)
(0.989408 0.000773539 1.10034e-19)
(0.990112 0.00386779 8.3533e-23)
(0.99126 0.00672915 0)
(0.992801 0.00922772 0)
(0.994664 0.0112657 6.6413e-21)
(0.996774 0.0127778 0)
(0.999056 0.0137221 0)
(1.00145 0.0140786 -3.72492e-22)
(1.00391 0.0138531 -2.35624e-19)
(1.0064 0.0130563 -1.17874e-19)
(1.0089 0.0117048 1.13214e-19)
(1.01144 0.00982816 6.79938e-21)
(1.01404 0.00745087 -1.06614e-19)
(1.01677 0.00459188 1.06871e-21)
(1.01971 0.00126089 9.43661e-22)
(1.02298 -0.00253852 1.27136e-20)
(1.02678 -0.00681233 -8.62471e-20)
(1.03132 -0.0115797 0)
(1.03695 -0.0168696 -1.06458e-19)
(1.04414 -0.0227146 0)
(1.05361 -0.0291625 -4.48427e-20)
(1.0665 -0.0362658 0)
(1.0847 -0.0441077 4.23692e-20)
(1.1119 -0.0528813 -2.19054e-22)
(1.14211 -0.0609096 -1.87078e-20)
(1.04881 -0.050736 -5.90701e-20)
(0.558752 -0.0111496 2.8901e-20)
(0.293131 0.00158165 0)
(0.889835 0.0292722 -3.5801e-20)
(1.13173 0.0517422 0)
(1.13394 0.0500502 0)
(1.10025 0.0417546 6.46599e-20)
(1.07786 0.0340594 5.9507e-22)
(1.06314 0.0270969 0)
(1.05252 0.0206401 -1.38437e-19)
(1.04444 0.0146186 -2.82069e-19)
(1.03804 0.00900523 0)
(1.0328 0.00378857 0)
(1.02835 -0.00103563 0)
(1.02447 -0.00546104 0)
(1.02094 -0.00947687 -4.42128e-19)
(1.01763 -0.0130557 -1.47693e-19)
(1.01443 -0.0161633 0)
(1.01126 -0.0187578 1.8703e-20)
(1.00807 -0.0207996 4.48447e-19)
(1.00484 -0.0222129 -3.33196e-23)
(1.00158 -0.0229417 -1.50404e-19)
(0.998332 -0.0229306 0)
(0.995164 -0.0221551 1.52369e-19)
(0.992166 -0.0206008 5.45291e-22)
(0.989451 -0.018288 1.55461e-19)
(0.987137 -0.0152733 0)
(0.98535 -0.0116494 -7.71056e-20)
(0.984198 -0.00758886 -7.64904e-20)
(0.983755 -0.00325133 1.52691e-19)
(0.984057 0.00116139 7.54512e-20)
(0.98509 0.00539693 -1.47098e-19)
(0.986793 0.00929641 0)
(0.98907 0.0126746 -1.73686e-20)
(0.991801 0.0154039 -1.34961e-19)
(0.994861 0.01741 1.61552e-20)
(0.99813 0.0186545 2.07225e-21)
(1.00151 0.019135 2.34175e-19)
(1.00493 0.0188834 1.1743e-19)
(1.00832 0.0179238 1.13091e-19)
(1.01167 0.0163146 -1.07781e-19)
(1.01499 0.0141127 0)
(1.01833 0.0113692 1.08141e-19)
(1.02175 0.00812895 0)
(1.02536 0.00442752 0)
(1.02929 0.000288499 -9.58695e-20)
(1.03373 -0.00426918 0)
(1.03893 -0.00923504 4.45546e-20)
(1.04525 -0.0146049 8.82706e-20)
(1.05316 -0.0203898 2.21419e-20)
(1.0634 -0.0266012 -8.34507e-20)
(1.07711 -0.0332659 0)
(1.09632 -0.0404551 3.96006e-20)
(1.1241 -0.048234 0)
(1.14268 -0.0533945 -1.70229e-20)
(1.00801 -0.0397779 3.69699e-20)
(0.51834 -0.008092 0)
(0.275448 0.00115822 0)
(0.847378 0.0226123 -3.61002e-20)
(1.11652 0.0438262 -6.04361e-20)
(1.14237 0.0449807 6.02356e-20)
(1.11178 0.0378563 -6.20626e-20)
(1.08832 0.0305342 -1.28183e-19)
(1.0728 0.0237841 0)
(1.0616 0.0174105 0)
(1.05298 0.0113407 0)
(1.04607 0.00556203 0)
(1.04031 7.74615e-05 2.8312e-19)
(1.03534 -0.00510406 0)
(1.03089 -0.00996108 -5.74992e-19)
(1.02677 -0.0144592 0)
(1.0228 -0.0185506 0)
(1.01886 -0.0221816 5.46616e-19)
(1.01487 -0.0252813 4.41156e-19)
(1.01075 -0.0277634 -1.48868e-19)
(1.00649 -0.0295281 -1.49831e-19)
(1.0021 -0.0304806 1.51497e-19)
(0.997617 -0.0305169 6.1196e-19)
(0.993156 -0.0295624 3.08867e-19)
(0.988859 -0.027575 -1.54912e-19)
(0.984895 -0.0245453 0)
(0.981461 -0.0205237 2.12916e-21)
(0.978765 -0.0156199 7.91009e-20)
(0.976998 -0.0100753 -7.80689e-20)
(0.97629 -0.00412041 -1.96517e-19)
(0.976705 0.00194479 9.94057e-23)
(0.978219 0.00773652 0)
(0.980727 0.0130246 -7.29652e-20)
(0.984057 0.0175454 -1.38924e-19)
(0.988002 0.0211318 1.33168e-19)
(0.992357 0.023707 -1.27429e-19)
(0.996932 0.0252494 -1.55155e-19)
(1.00159 0.0258011 -2.36056e-19)
(1.00618 0.0254213 5.63994e-20)
(1.01064 0.0241807 2.68484e-20)
(1.01495 0.0221924 0)
(1.01912 0.0195501 0)
(1.02322 0.0163395 -6.14619e-21)
(1.02733 0.0126356 1.88706e-19)
(1.03155 0.00849924 9.24481e-20)
(1.03606 0.00397831 0)
(1.04104 -0.000888502 8.72961e-20)
(1.04677 -0.00607372 2.05533e-20)
(1.05359 -0.0115591 -2.11852e-20)
(1.06201 -0.0173365 5.00573e-21)
(1.07277 -0.0234055 7.56081e-20)
(1.08709 -0.0297885 2.97083e-19)
(1.10705 -0.0365481 1.43465e-19)
(1.13412 -0.0435046 -3.33769e-20)
(1.13805 -0.0462704 -3.3429e-20)
(0.970819 -0.0315172 -5.42345e-20)
(0.488404 -0.00599615 1.07737e-19)
(0.262015 0.000864287 0)
(0.812101 0.0176699 -7.26298e-20)
(1.09945 0.0368244 5.95824e-20)
(1.14791 0.0398778 -5.80208e-20)
(1.12245 0.0338403 1.19977e-19)
(1.09847 0.0267871 1.24721e-19)
(1.08234 0.0201289 -2.55477e-19)
(1.07072 0.0137449 6.40531e-22)
(1.06174 0.00755803 -1.33225e-19)
(1.05447 0.00155431 -2.72854e-19)
(1.04833 -0.00425933 -2.75572e-19)
(1.04296 -0.00986556 0)
(1.03805 -0.0152287 2.79311e-19)
(1.0334 -0.0202995 0)
(1.02882 -0.025016 -5.85484e-19)
(1.02416 -0.0293123 -7.13084e-20)
(1.01929 -0.0330888 -2.89869e-19)
(1.01414 -0.0362074 4.4097e-19)
(1.00868 -0.0385276 -5.94021e-19)
(1.00291 -0.0398979 0)
(0.99689 -0.0401513 3.07283e-19)
(0.990726 -0.0391119 -4.66207e-19)
(0.984651 -0.0366919 1.57096e-19)
(0.978922 -0.0328219 0)
(0.973857 -0.0275185 -1.62166e-19)
(0.969805 -0.0208974 8.04033e-20)
(0.967104 -0.0132988 1.64845e-19)
(0.965986 -0.00506776 1.61058e-19)
(0.966575 0.00333015 -1.59905e-19)
(0.968822 0.0112923 0)
(0.972537 0.0184677 0)
(0.97742 0.0244722 1.76087e-19)
(0.983103 0.029094 3.07423e-21)
(0.989251 0.0322715 -2.23918e-19)
(0.99558 0.0340409 -3.62307e-19)
(1.00186 0.0345158 5.8219e-20)
(1.00788 0.0337954 -2.70006e-20)
(1.01359 0.0320636 0)
(1.01897 0.0294878 0)
(1.02405 0.0262152 8.38056e-20)
(1.0289 0.0223734 1.01988e-19)
(1.03365 0.0180685 -9.34318e-21)
(1.03842 0.0133897 0)
(1.04339 0.00840396 -8.29982e-20)
(1.0488 0.00315654 5.90411e-20)
(1.0549 -0.00231965 1.54996e-19)
(1.06208 -0.00799505 0)
(1.07084 -0.0138461 0)
(1.08196 -0.0198667 4.41745e-21)
(1.09666 -0.0260926 -1.02042e-19)
(1.11706 -0.0325854 9.83345e-20)
(1.14205 -0.0388226 -1.60265e-20)
(1.13041 -0.0397294 1.38027e-19)
(0.938753 -0.0251843 -1.37572e-19)
(0.466381 -0.00462858 2.19135e-19)
(0.251673 0.000648834 0)
(0.782934 0.0139228 -3.6158e-20)
(1.08214 0.0307668 8.78668e-20)
(1.15114 0.0349404 -5.63722e-20)
(1.13236 0.0298657 -1.16732e-19)
(1.10847 0.0230225 -2.40419e-19)
(1.09189 0.0163615 -1.23965e-19)
(1.08 0.00988269 -1.27059e-19)
(1.07081 0.00350523 0)
(1.06333 -0.00279364 0)
(1.05698 -0.00901172 0)
(1.05133 -0.0151251 0)
(1.04609 -0.0210975 1.35391e-19)
(1.04102 -0.0268713 -2.73788e-19)
(1.03591 -0.0323784 0)
(1.03057 -0.0375588 2.10367e-19)
(1.02484 -0.0422467 -1.41687e-19)
(1.01861 -0.0462839 1.64251e-21)
(1.0118 -0.049479 2.95737e-19)
(1.0044 -0.0516044 1.39845e-21)
(0.996445 -0.0523978 3.08635e-19)
(0.988051 -0.0515525 -3.1558e-19)
(0.979509 -0.0488161 0)
(0.971238 -0.0440389 -1.65273e-19)
(0.963733 -0.0371374 -1.71631e-19)
(0.95758 -0.0282085 0)
(0.953391 -0.0176845 -1.72765e-19)
(0.951612 -0.00614951 2.17511e-19)
(0.95248 0.00565196 4.23604e-20)
(0.955897 0.0167342 -2.20626e-19)
(0.961512 0.0265315 -7.76742e-20)
(0.968757 0.0344396 -1.24789e-19)
(0.976999 0.0402432 1.33728e-19)
(0.985677 0.0439505 0)
(0.994371 0.0457363 2.37386e-19)
(1.00269 0.0457862 -2.8282e-20)
(1.01045 0.0443698 2.622e-20)
(1.01758 0.0417949 0)
(1.0241 0.0383105 2.35091e-20)
(1.03008 0.0341294 1.10964e-19)
(1.03563 0.0294249 0)
(1.04092 0.0243403 -8.15506e-20)
(1.04612 0.0189688 -7.67666e-20)
(1.05145 0.013386 0)
(1.05713 0.00765358 7.23214e-20)
(1.06346 0.00181711 -3.52148e-20)
(1.07081 -0.00411414 0)
(1.07973 -0.010119 -3.29245e-20)
(1.09102 -0.0161947 -6.50341e-20)
(1.10598 -0.0223782 -6.31447e-20)
(1.12648 -0.0286978 3.07047e-20)
(1.14821 -0.0342858 8.65026e-20)
(1.12113 -0.0338723 5.73753e-20)
(0.911275 -0.0202673 -1.13723e-19)
(0.449408 -0.00360778 -7.25666e-20)
(0.243613 0.0004839 0)
(0.75884 0.0110422 0)
(1.06555 0.0256168 0)
(1.15265 0.030323 0)
(1.14155 0.0260611 0)
(1.11843 0.0193972 0)
(1.10158 0.0126711 0)
(1.08955 0.00603346 0)
(1.08031 -0.000597539 2.51333e-19)
(1.07278 -0.0072579 0)
(1.06636 -0.0139498 -2.56026e-19)
(1.06061 -0.0206595 0)
(1.05521 -0.0273511 0)
(1.04989 -0.0339792 5.33775e-19)
(1.0444 -0.0404927 0)
(1.03849 -0.0467947 0)
(1.03199 -0.0527268 0)
(1.0247 -0.0581001 2.83533e-19)
(1.01647 -0.0626561 -2.89087e-19)
(1.0072 -0.0660755 0)
(0.996888 -0.0679744 -1.52719e-19)
(0.98562 -0.067885 -3.22695e-19)
(0.973663 -0.0652399 0)
(0.961638 -0.0596643 -1.682e-19)
(0.950346 -0.0508791 4.65155e-21)
(0.94078 -0.0388315 -5.46761e-19)
(0.934089 -0.0240381 -1.88371e-19)
(0.931178 -0.00749559 -1.43952e-21)
(0.93252 0.00947777 -9.16973e-20)
(0.937937 0.0252037 1.07665e-20)
(0.946697 0.0386795 1.57652e-19)
(0.957681 0.048999 1.83694e-20)
(0.969775 0.0560054 4.23256e-21)
(0.982091 0.0599396 -7.34417e-19)
(0.993916 0.0611921 1.67399e-19)
(1.00478 0.0601856 2.59272e-20)
(1.01455 0.0574815 4.8564e-20)
(1.02321 0.0535229 2.22034e-20)
(1.03086 0.0486718 1.98916e-20)
(1.03764 0.043214 -2.37182e-19)
(1.04377 0.0373503 -2.18722e-19)
(1.04945 0.0312524 -3.01089e-19)
(1.05491 0.0250196 -7.00672e-20)
(1.06037 0.0187228 0)
(1.06613 0.0124096 1.67394e-20)
(1.07249 0.00611765 0)
(1.07986 -0.000143375 -3.07087e-20)
(1.0888 -0.00636943 -2.96893e-20)
(1.10013 -0.01257 -1.46275e-20)
(1.11521 -0.0187879 5.66535e-20)
(1.13546 -0.0249944 0)
(1.15295 -0.0300144 0)
(1.11127 -0.0287433 0)
(0.888042 -0.0164103 1.44542e-20)
(0.436289 -0.00283938 6.83177e-20)
(0.237315 0.00036929 0)
(0.739016 0.00882238 0)
(1.05026 0.0213275 2.82957e-20)
(1.15296 0.0261559 5.3105e-20)
(1.1501 0.0225489 0)
(1.1284 0.0160509 0)
(1.11149 0.00923117 1.14467e-19)
(1.09946 0.00239553 0)
(1.0903 -0.00453076 2.41289e-19)
(1.0829 -0.0115957 0)
(1.0766 -0.0188147 -4.91562e-19)
(1.07094 -0.0261904 -1.23683e-19)
(1.0656 -0.0337024 5.0311e-19)
(1.06025 -0.0413278 1.06004e-18)
(1.05461 -0.049062 -2.59029e-19)
(1.0484 -0.0567781 6.6621e-20)
(1.04136 -0.064346 1.33182e-19)
(1.03319 -0.0715702 0)
(1.02363 -0.0781712 0)
(1.0124 -0.0837277 0)
(0.999348 -0.0876978 1.51149e-19)
(0.984459 -0.0893883 -1.64469e-19)
(0.967889 -0.087859 -9.94631e-19)
(0.950275 -0.0820745 1.73068e-19)
(0.932917 -0.0713418 -3.73581e-19)
(0.917507 -0.055127 -7.81059e-19)
(0.906287 -0.0339088 3.03557e-19)
(0.901263 -0.00934793 -2.08118e-19)
(0.903461 0.0158487 -2.01176e-19)
(0.912526 0.0388599 -2.63978e-20)
(0.926809 0.0575779 -8.5068e-20)
(0.943996 0.0707504 -1.52121e-19)
(0.962056 0.0785781 -2.75408e-19)
(0.979531 0.0818357 -4.91762e-19)
(0.995384 0.0813874 1.04903e-19)
(1.00928 0.0782669 -9.84034e-20)
(1.02122 0.0733293 6.77735e-20)
(1.03134 0.0672166 -2.42608e-19)
(1.03995 0.0603918 -7.7838e-20)
(1.04733 0.0532011 -6.8716e-20)
(1.05374 0.0458686 1.36604e-19)
(1.0595 0.0385199 0)
(1.06492 0.0312522 -4.6714e-20)
(1.07029 0.0241174 0)
(1.07591 0.0171441 0)
(1.08212 0.0103399 2.94365e-20)
(1.08935 0.00370081 4.26374e-20)
(1.09816 -0.00279022 2.63094e-20)
(1.1094 -0.00916042 2.54334e-20)
(1.12444 -0.0154545 2.45389e-20)
(1.14404 -0.0215757 0)
(1.1566 -0.0261089 -1.24865e-20)
(1.1015 -0.0243475 -2.44702e-20)
(0.868446 -0.0133948 5.62021e-20)
(0.426119 -0.00228491 -1.83755e-19)
(0.232315 0.000296609 0)
(0.722598 0.00714086 -3.47514e-20)
(1.03646 0.0178332 0)
(1.15254 0.0225377 0)
(1.15807 0.0194459 1.03653e-19)
(1.13836 0.0131119 1.07311e-19)
(1.12164 0.00619543 -5.51889e-20)
(1.10974 -0.000849435 0)
(1.10083 -0.00807625 5.733e-20)
(1.09373 -0.0155504 -1.15536e-19)
(1.08775 -0.0233074 0)
(1.08243 -0.0313745 -1.17695e-19)
(1.07741 -0.0397708 -3.78102e-21)
(1.07235 -0.0485177 -9.11921e-20)
(1.06691 -0.0576233 6.00811e-20)
(1.0608 -0.0670218 -3.10914e-21)
(1.05365 -0.0766339 2.58963e-19)
(1.04506 -0.0863103 0)
(1.03455 -0.0957853 5.41686e-19)
(1.02165 -0.104658 -1.86096e-21)
(1.00583 -0.11223 0)
(0.986706 -0.117542 -4.70339e-19)
(0.964137 -0.119193 -1.66326e-19)
(0.938386 -0.115142 7.05305e-19)
(0.91102 -0.103273 6.35718e-21)
(0.885056 -0.0819268 0)
(0.864925 -0.0506837 2.16538e-19)
(0.855511 -0.0124304 -1.22788e-19)
(0.859431 0.027179 1.11617e-19)
(0.875791 0.062244 -4.13622e-19)
(0.900506 0.0883053 1.7367e-19)
(0.928388 0.104105 3.12269e-19)
(0.955764 0.11119 5.15702e-19)
(0.980231 0.111519 -1.07772e-19)
(1.00097 0.107274 -1.04921e-19)
(1.01808 0.100272 8.20959e-20)
(1.03199 0.0917259 -2.98116e-19)
(1.04321 0.0824665 2.18108e-19)
(1.05225 0.0729967 6.67261e-20)
(1.05964 0.0635987 0)
(1.06585 0.0544592 8.22201e-20)
(1.07131 0.0456663 -2.35424e-20)
(1.07635 0.037252 0)
(1.08134 0.0292165 -5.08817e-20)
(1.08659 0.0215403 -5.2118e-20)
(1.09244 0.0142078 4.91214e-20)
(1.09933 0.00717932 -1.23817e-19)
(1.10787 0.000416753 -4.89912e-20)
(1.1189 -0.00613157 2.30652e-20)
(1.13374 -0.0125113 2.23155e-20)
(1.15229 -0.0185453 -1.07707e-20)
(1.15939 -0.0226545 -3.20052e-20)
(1.09201 -0.0206384 5.31721e-21)
(0.851413 -0.0110148 -6.24297e-21)
(0.417318 -0.00189393 0)
(0.228268 0.0002301 0)
(0.708897 0.00590381 0)
(1.02412 0.0150942 -5.35753e-20)
(1.15163 0.0195515 0)
(1.16552 0.0168696 -4.96331e-20)
(1.14831 0.0107137 5.09163e-20)
(1.13203 0.00373222 1.04569e-19)
(1.1204 -0.0034895 0)
(1.11188 -0.0109857 2.16074e-19)
(1.10526 -0.018836 0)
(1.09982 -0.0271033 -4.44089e-19)
(1.09509 -0.035843 -2.24237e-19)
(1.09071 -0.0451177 -7.06637e-21)
(1.08633 -0.054977 -2.29718e-19)
(1.08158 -0.0655261 2.30379e-19)
(1.07614 -0.0767634 2.36534e-19)
(1.06958 -0.0887198 -1.18238e-19)
(1.06137 -0.101372 -3.68521e-19)
(1.05086 -0.114614 -1.23182e-19)
(1.03722 -0.128162 2.61373e-19)
(1.01946 -0.141465 0)
(0.996409 -0.153447 -4.4407e-21)
(0.966822 -0.162161 3.1868e-19)
(0.930013 -0.164567 0)
(0.886337 -0.155542 0)
(0.840094 -0.129461 4.68421e-19)
(0.800615 -0.0823729 -1.06757e-20)
(0.780943 -0.0184327 3.29129e-21)
(0.788785 0.048983 -5.46298e-19)
(0.821564 0.105286 4.61538e-19)
(0.8676 0.140949 3.77945e-19)
(0.914428 0.156513 6.08865e-19)
(0.955529 0.157946 3.99191e-19)
(0.988627 0.150686 2.00763e-19)
(1.0144 0.139038 0)
(1.03404 0.125583 0)
(1.04882 0.111758 1.55042e-19)
(1.05994 0.0982493 2.89552e-21)
(1.06843 0.0854407 -5.72452e-20)
(1.07509 0.0734677 -4.3619e-20)
(1.08046 0.0623559 -8.8927e-20)
(1.08508 0.052057 6.63828e-20)
(1.08933 0.0424935 0)
(1.09356 0.03359 2.19946e-20)
(1.09813 0.025268 -2.06782e-20)
(1.10339 0.0174518 0)
(1.10977 0.0100778 0)
(1.11786 0.00307569 -1.75552e-21)
(1.12855 -0.00362344 0)
(1.14303 -0.0100682 0)
(1.16017 -0.0160054 -1.39947e-22)
(1.16158 -0.0197605 0)
(1.08322 -0.0176627 -2.76743e-20)
(0.836898 -0.00921382 0)
(0.40957 -0.0015665 -4.0261e-20)
(0.224883 0.000221456 0)
(0.697335 0.00507011 8.22411e-21)
(1.01319 0.013082 6.48607e-21)
(1.15049 0.0172637 0)
(1.17249 0.0149182 5.91443e-21)
(1.15817 0.00896218 0)
(1.14256 0.00196951 0)
(1.13134 -0.00536479 0)
(1.12335 -0.0130501 0)
(1.11738 -0.0211812 0)
(1.1127 -0.0298454 0)
(1.10884 -0.0391321 0)
(1.10544 -0.0491386 0)
(1.10214 -0.0600272 3.20135e-19)
(1.09866 -0.0719194 -1.07777e-19)
(1.09461 -0.0849408 -2.19343e-19)
(1.08957 -0.0992725 -2.20538e-19)
(1.08297 -0.115112 2.94492e-21)
(1.07403 -0.13266 -1.21612e-19)
(1.0617 -0.152067 -2.15573e-21)
(1.04441 -0.173312 5.09552e-19)
(1.01995 -0.195956 -2.84555e-19)
(0.985093 -0.21845 0)
(0.935861 -0.237153 3.16165e-19)
(0.868008 -0.243771 -1.59078e-18)
(0.781771 -0.221449 9.66089e-19)
(0.695614 -0.150879 5.97789e-19)
(0.648594 -0.032605 2.28936e-18)
(0.666382 0.0968031 0)
(0.741255 0.193294 9.97451e-19)
(0.834179 0.236071 -1.31143e-18)
(0.913577 0.238833 -3.69035e-19)
(0.972044 0.222265 -9.64565e-20)
(1.01302 0.198966 -4.69778e-19)
(1.04112 0.174668 3.73051e-21)
(1.06033 0.151692 3.03549e-19)
(1.0735 0.130952 -2.78065e-20)
(1.08264 0.112463 1.15982e-19)
(1.08911 0.0961165 3.75216e-20)
(1.09385 0.0815852 6.45371e-20)
(1.09753 0.0686115 0)
(1.10066 0.0569588 1.73336e-20)
(1.10364 0.0464068 2.61742e-20)
(1.10681 0.0367789 2.93831e-20)
(1.11044 0.0279448 -1.71696e-20)
(1.11489 0.0197721 5.71559e-20)
(1.12058 0.0121553 -1.54547e-20)
(1.12812 0.00499404 -7.06392e-20)
(1.13837 -0.0017835 -7.74182e-21)
(1.15233 -0.00823864 -1.63957e-20)
(1.16772 -0.0140387 -1.5369e-20)
(1.16327 -0.0174705 8.46308e-21)
(1.07505 -0.0153761 8.50567e-21)
(0.824292 -0.00793531 7.55075e-22)
(0.402921 -0.00138952 1.86115e-20)
(0.221655 0.000281292 1.77809e-19)
(0.687083 0.00461872 -2.53733e-19)
(1.00327 0.0117684 2.00629e-22)
(1.14916 0.0157103 9.08846e-20)
(1.17901 0.0136614 -8.96055e-20)
(1.16788 0.00794781 -9.12508e-20)
(1.15315 0.00103142 0)
(1.14245 -0.00631012 1.91502e-22)
(1.1351 -0.0140587 -4.75272e-20)
(1.12991 -0.0223216 2.39776e-20)
(1.12616 -0.031209 -2.40754e-20)
(1.1234 -0.0408413 -2.40352e-20)
(1.12129 -0.0513552 1.21967e-20)
(1.11952 -0.062951 4.8043e-20)
(1.11785 -0.075823 7.61605e-20)
(1.11596 -0.090231 1.51886e-19)
(1.11349 -0.106517 5.96024e-19)
(1.10999 -0.125124 1.02902e-19)
(1.10476 -0.146655 0)
(1.09681 -0.171944 0)
(1.08459 -0.202054 -2.09549e-19)
(1.06526 -0.238388 2.09758e-20)
(1.03393 -0.282413 -6.89781e-19)
(0.981435 -0.334581 2.68475e-19)
(0.889815 -0.390465 -3.18592e-19)
(0.728757 -0.414501 0)
(0.515036 -0.322846 3.86567e-18)
(0.386512 -0.0711955 -1.21711e-18)
(0.432913 0.221305 -5.26284e-18)
(0.636653 0.396897 1.99737e-18)
(0.831764 0.412762 0)
(0.957003 0.358766 -6.28273e-19)
(1.02581 0.299899 1.49545e-19)
(1.06446 0.248759 9.95472e-20)
(1.08658 0.20689 4.25142e-20)
(1.09939 0.172946 3.32667e-20)
(1.10691 0.145197 5.01007e-20)
(1.11141 0.122169 0)
(1.11398 0.102847 -1.24042e-20)
(1.11556 0.0863483 1.0655e-19)
(1.11672 0.0720634 0)
(1.11776 0.0595258 -1.52372e-21)
(1.11902 0.0483881 -4.44048e-21)
(1.12075 0.0383796 -1.69446e-20)
(1.12321 0.0292895 -5.69039e-21)
(1.1267 0.0209616 1.10098e-20)
(1.13159 0.01326 -6.27553e-21)
(1.13845 0.00607246 -6.81912e-21)
(1.14816 -0.000698214 -7.85765e-22)
(1.16147 -0.00708873 5.2395e-21)
(1.17489 -0.0127108 4.51191e-21)
(1.16465 -0.0158476 -9.43518e-21)
(1.06769 -0.0137879 -1.38462e-20)
(0.813447 -0.00713462 -7.95587e-21)
(0.397136 -0.00132694 -1.48773e-20)
(0.214041 0.000345736 -2.70802e-18)
(0.674692 0.004485 0)
(0.992481 0.0110085 -7.51082e-19)
(1.14713 0.0148166 6.79741e-19)
(1.18501 0.0131154 6.69924e-19)
(1.17739 0.00774231 0)
(1.16369 0.00102786 6.93577e-19)
(1.15356 -0.00618399 0)
(1.14689 -0.0138376 0)
(1.14257 -0.0220408 3.54931e-19)
(1.13988 -0.0309219 0)
(1.13836 -0.0406129 -3.48632e-19)
(1.13775 -0.0512697 -1.12722e-20)
(1.13781 -0.0631193 4.44223e-20)
(1.13836 -0.0764044 6.67722e-20)
(1.13921 -0.0914539 6.66459e-20)
(1.14018 -0.108708 4.32423e-20)
(1.14107 -0.128778 -1.43108e-21)
(1.1416 -0.152545 -8.89222e-20)
(1.14145 -0.181363 8.42866e-20)
(1.14005 -0.217377 -4.16244e-19)
(1.13623 -0.264248 7.22621e-20)
(1.12801 -0.328687 0)
(1.11105 -0.427094 0)
(1.05268 -0.577714 -1.48194e-19)
(0.808927 -0.669057 0)
(0.210889 -0.362095 7.36578e-17)
(0.358744 0.455927 -1.33288e-19)
(0.912037 0.661455 5.67432e-20)
(1.12211 0.489129 2.12164e-19)
(1.14274 0.359095 -1.38686e-19)
(1.15025 0.277781 -2.37664e-19)
(1.15158 0.22165 -9.60588e-20)
(1.15 0.180621 2.41766e-20)
(1.14725 0.14906 -2.68547e-21)
(1.14426 0.12402 2.13326e-21)
(1.14138 0.103573 -5.6888e-22)
(1.13885 0.0864775 6.04219e-23)
(1.13682 0.0718857 -6.09754e-22)
(1.1354 0.0592193 -3.41378e-21)