/*--------------------------------*- C++ -*----------------------------------*\
  =========                 |
  \\      /  F ield         | OpenFOAM: The Open Source CFD Toolbox
   \\    /   O peration     | Website:  https://openfoam.org
    \\  /    A nd           | Version:  7
     \\/     M anipulation  |
\*---------------------------------------------------------------------------*/
FoamFile
{
    version     2.0;
    format      ascii;
    class       volScalarField;
    location    "0.04";
    object      p;
}
// * * * * * * * * * * * * * * * * * * * * * * * * * * * * * * * * * * * * * //

dimensions      [0 2 -2 0 0 0 0];

internalField   nonuniform List<scalar> 
1600
(
1.36331e-08
-0.00102408
-0.00329217
-0.00626371
-0.00937796
-0.012229
-0.0145238
-0.0160587
-0.0167023
-0.0163789
-0.015059
-0.0127494
-0.0094859
-0.00532705
-0.000349476
0.00535338
0.0116724
0.0184875
0.0256721
0.0330936
0.0406127
0.0480846
0.0553626
0.0623024
0.0687646
0.0746164
0.0797342
0.0840075
0.087344
0.0896757
0.0909647
0.091209
0.0904487
0.0887732
0.0863312
0.0833442
0.0801213
0.0770859
0.0748084
0.0738089
0.00103733
2.07221e-05
-0.00179962
-0.00407652
-0.00644197
-0.00859562
-0.0103041
-0.0113932
-0.0117436
-0.0112815
-0.00996983
-0.00780436
-0.00480975
-0.00103253
0.00346451
0.00860208
0.0142852
0.0204081
0.0268589
0.0335199
0.0402664
0.0469692
0.0534975
0.0597235
0.0655248
0.0707855
0.075399
0.0792711
0.0823253
0.0845085
0.0857951
0.0861925
0.0857448
0.084538
0.0827056
0.0804355
0.0779755
0.07564
0.0738054
0.072809
0.00334731
0.00186757
1.9984e-05
-0.0020157
-0.00404474
-0.00584327
-0.0072278
-0.00805854
-0.00823441
-0.00769022
-0.00639121
-0.00432985
-0.0015248
0.0019846
0.00614369
0.0108825
0.0161163
0.0217496
0.0276811
0.0338038
0.0400045
0.0461655
0.0521679
0.0578954
0.0632371
0.0680885
0.072354
0.07595
0.0788096
0.0808874
0.0821639
0.0826486
0.082383
0.0814429
0.0799419
0.0780333
0.0759148
0.0738223
0.0719639
0.0705174
0.00643925
0.00421053
0.00202862
-7.24099e-05
-0.00204987
-0.00373852
-0.00499386
-0.00570753
-0.00580062
-0.00522138
-0.00394195
-0.00195714
0.00071541
0.00403966
0.00796592
0.0124302
0.017354
0.0226491
0.0282214
0.0339724
0.0397975
0.0455877
0.0512318
0.0566216
0.0616537
0.066231
0.0702646
0.073677
0.0764059
0.0784088
0.0796669
0.080187
0.0800031
0.0791783
0.0778043
0.0760025
0.0739309
0.0717693
0.0695782
0.0673978
0.00981252
0.00672236
0.00406262
0.00174288
-0.000330551
-0.00203843
-0.00327063
-0.00394801
-0.00401255
-0.00342691
-0.00217255
-0.000249472
0.00232314
0.0055105
0.00926563
0.0135281
0.0182238
0.0232696
0.0285777
0.0340563
0.0396075
0.0451286
0.0505145
0.0556624
0.0604743
0.0648583
0.0687296
0.0720138
0.0746506
0.0765976
0.0778334
0.078359
0.0781993
0.0774032
0.0760419
0.0742085
0.0720285
0.0696386
0.066967
0.0639378
0.0131227
0.00913825
0.00592149
0.00328349
0.00101034
-0.000811465
-0.00209923
-0.0028008
-0.00287786
-0.0023068
-0.00107897
0.000799193
0.00330522
0.00640338
0.0100472
0.0141779
0.0187243
0.0236071
0.0287433
0.0340457
0.0394213
0.0447716
0.0499957
0.0549945
0.0596733
0.0639427
0.06772
0.0709314
0.0735163
0.0754299
0.0766459
0.0771578
0.0769798
0.0761469
0.0747118
0.0727441
0.0703455
0.0676215
0.0643873
0.0604741
0.0161237
0.0112485
0.00743297
0.00441024
0.00186456
-0.000140936
-0.00154371
-0.00231432
-0.00243262
-0.00188824
-0.000682313
0.00117172
0.00364686
0.00670468
0.0102974
0.0143664
0.0188423
0.0236484
0.0287045
0.0339263
0.0392238
0.0445011
0.0496596
0.0546022
0.0592353
0.0634702
0.0672238
0.0704211
0.0729986
0.0749071
0.0761137
0.076603
0.0763782
0.075461
0.073888
0.0717103
0.0690133
0.0658825
0.0620386
0.0572391
0.0186358
0.0128826
0.00844803
0.00499978
0.00213484
-0.000100676
-0.00165866
-0.0025275
-0.00270302
-0.00218748
-0.000991792
0.000863204
0.00334515
0.00641182
0.010013
0.0140891
0.0185713
0.0233843
0.028449
0.0336824
0.038996
0.0442951
0.0494819
0.0544592
0.059133
0.0634133
0.0672148
0.0704594
0.0730788
0.0750173
0.0762338
0.0767034
0.0764182
0.0753878
0.0736351
0.0711964
0.0681472
0.0645616
0.0600798
0.0543991
0.0205229
0.0139008
0.00883436
0.00493492
0.00172094
-0.0007735
-0.00251054
-0.00349299
-0.00373036
-0.00323667
-0.00203249
-0.000146539
0.00238299
0.00550957
0.00917959
0.0133316
0.0178962
0.0227982
0.0279584
0.0332941
0.0387165
0.0441309
0.0494389
0.0545419
0.0593438
0.0637515
0.0676759
0.0710339
0.0737507
0.0757624
0.0770184
0.0774832
0.0771384
0.0759821
0.0740258
0.0712941
0.0678566
0.0637827
0.0586407
0.052077
0.0216721
0.014181
0.00847055
0.00410147
0.000518802
-0.00225129
-0.00417848
-0.00527812
-0.00557197
-0.00508477
-0.00384658
-0.00189415
0.000728127
0.00396887
0.00777044
0.0120685
0.0167923
0.0218655
0.0272084
0.0327369
0.0383612
0.0439852
0.0495087
0.0548305
0.0598509
0.0644721
0.0685997
0.0721434
0.0750206
0.0771578
0.0784934
0.0789809
0.0785906
0.0773102
0.0751408
0.0720975
0.0682471
0.0636579
0.0578318
0.0503687
0.0219802
0.0136072
0.00723847
0.00238465
-0.00157972
-0.00463323
-0.00675171
-0.00796228
-0.00829806
-0.00779382
-0.00648888
-0.00442822
-0.00166282
0.00175056
0.00574954
0.0102663
0.0152277
0.0205561
0.02617
0.0319832
0.0379039
0.0438336
0.0496694
0.0553064
0.06064
0.0655664
0.0699837
0.0737933
0.0769026
0.0792273
0.0806939
0.0812437
0.0808354
0.0794459
0.0770658
0.0737023
0.069421
0.064292
0.057752
0.0493557
0.0213465
0.0120639
0.00501763
-0.000334236
-0.00468812
-0.00802593
-0.0103289
-0.0116355
-0.01199
-0.0114368
-0.0100247
-0.0078073
-0.00484253
-0.00119315
0.00307311
0.00788424
0.0131645
0.0188342
0.0248095
0.0310015
0.0373154
0.0436498
0.0498982
0.0559512
0.0616979
0.0670273
0.0718285
0.0759927
0.0794159
0.0820014
0.0836626
0.0843273
0.0839414
0.0824696
0.079892
0.0762072
0.0714814
0.065788
0.0584965
0.0491154
0.0196646
0.00943184
0.00168246
-0.00418009
-0.00892728
-0.0125446
-0.0150183
-0.016398
-0.0167392
-0.0160967
-0.0145292
-0.0120993
-0.00887265
-0.00491854
-0.000310606
0.00487453
0.0105581
0.0166581
0.0230879
0.0297555
0.0365625
0.0434041
0.0501698
0.0567446
0.0630109
0.0688486
0.0741366
0.0787544
0.082585
0.0855175
0.0874503
0.0882963
0.0879862
0.0864711
0.0837186
0.0797185
0.0745377
0.0682542
0.0601655
0.0497311
0.0168174
0.00558177
-0.00290155
-0.00928742
-0.0144286
-0.0183153
-0.0209386
-0.02236
-0.022647
-0.0218659
-0.0200861
-0.0173802
-0.0138224
-0.00948895
-0.00445994
0.00118313
0.00735827
0.0139809
0.0209615
0.0282044
0.035608
0.0430634
0.0504558
0.0576644
0.0645639
0.0710241
0.0769122
0.0820945
0.0864395
0.0898198
0.0921169
0.0932255
0.0930591
0.0915522
0.0886581
0.0843559
0.0787133
0.0718131
0.062874
0.0513015
0.0126713
0.000369859
-0.0088826
-0.0158045
-0.0213373
-0.025477
-0.0282205
-0.0296425
-0.0298244
-0.0288454
-0.0267871
-0.0237333
-0.0197675
-0.0149738
-0.00943872
-0.0032491
0.00350972
0.0107506
0.0183813
0.0263028
0.0344097
0.0425898
0.0507236
0.0586846
0.0663387
0.0735454
0.0801587
0.0860303
0.0910121
0.0949581
0.0977294
0.0991998
0.0992616
0.0978297
0.0948398
0.0902581
0.0841522
0.0766091
0.0667599
0.0539491
0.00707349
-0.00636598
-0.0164266
-0.0238966
-0.0298146
-0.0341834
-0.0370079
-0.0383787
-0.0383933
-0.0371463
-0.0347331
-0.0312503
-0.0267915
-0.0214493
-0.0153174
-0.00848785
-0.0010493
0.00690878
0.0152917
0.0239977
0.0329183
0.0419379
0.0509332
0.0597715
0.0683107
0.0763986
0.0838756
0.0905771
0.096336
0.100985
0.104361
0.106314
0.106709
0.105437
0.102414
0.0975881
0.0910254
0.0828156
0.071991
0.0578271
-0.000151613
-0.0148106
-0.0257218
-0.0337503
-0.0400406
-0.0446054
-0.0474603
-0.0487154
-0.048488
-0.0468903
-0.0440343
-0.0400307
-0.0349848
-0.0289985
-0.0221728
-0.0146048
-0.00638666
0.00239051
0.0116304
0.0212293
0.0310767
0.0410546
0.0510362
0.0608839
0.0704474
0.0795632
0.0880571
0.0957466
0.102444
0.107956
0.112092
0.114672
0.11553
0.114529
0.111555
0.106537
0.0995359
0.0906408
0.078771
0.0631248
-0.00920803
-0.0251775
-0.0369845
-0.0455775
-0.0522189
-0.0569345
-0.0597551
-0.0608149
-0.0602549
-0.0582088
-0.054808
-0.0501794
-0.0444415
-0.0377064
-0.0300826
-0.0216726
-0.0125709
-0.00286979
0.0073339
0.0179362
0.0288256
0.0398833
0.0509807
0.061976
0.072712
0.0830142
0.0926933
0.101548
0.109366
0.115927
0.121007
0.124388
0.125871
0.125279
0.122465
0.11733
0.109924
0.100332
0.0873444
0.0700716
-0.0203339
-0.0377152
-0.0504645
-0.0596217
-0.0665809
-0.0713866
-0.0740898
-0.0748546
-0.0738514
-0.0712401
-0.0671747
-0.061801
-0.0552526
-0.0476531
-0.0391186
-0.0297564
-0.0196628
-0.00893021
0.0023459
0.0140629
0.0261108
0.0383716
0.0507168
0.0630031
0.0750673
0.0867254
0.0977731
0.107989
0.117135
0.124957
0.131195
0.135589
0.137893
0.137886
0.135376
0.130227
0.122469
0.112181
0.0980008
0.0789419
-0.0338058
-0.0527115
-0.0664502
-0.076162
-0.08339
-0.0882041
-0.0906822
-0.0910266
-0.0894436
-0.0861251
-0.0812524
-0.0749937
-0.0674999
-0.0589068
-0.0493388
-0.0389069
-0.0277084
-0.0158339
-0.00337581
0.00956721
0.0228892
0.0364761
0.0502024
0.0639254
0.0774792
0.0906716
0.103285
0.115076
0.12578
0.135108
0.142756
0.148412
0.151778
0.152574
0.150553
0.145528
0.1375
0.126529
0.111083
0.0900634
-0.0499441
-0.0705007
-0.0852759
-0.0955204
-0.102946
-0.107658
-0.109771
-0.109535
-0.107201
-0.103002
-0.0971506
-0.0898425
-0.081248
-0.0715165
-0.0607804
-0.0491536
-0.0367325
-0.0236039
-0.00985456
0.00442379
0.0191327
0.0341658
0.049404
0.0647093
0.0799165
0.0948281
0.109214
0.122814
0.135332
0.146442
0.155789
0.163005
0.167724
0.169596
0.168301
0.163583
0.155402
0.143784
0.127
0.103831
-0.0691217
-0.0914747
-0.107333
-0.11807
-0.125593
-0.130053
-0.131615
-0.130592
-0.127293
-0.121998
-0.114962
-0.106411
-0.0965367
-0.0855041
-0.0734528
-0.0604978
-0.0467327
-0.0322378
-0.0170909
-0.00137284
0.0148297
0.0314223
0.0482975
0.0653267
0.0823498
0.0991688
0.115546
0.131202
0.145815
0.159017
0.1704
0.179527
0.185954
0.18924
0.188971
0.184803
0.176631
0.164436
0.146253
0.120726
-0.0917785
-0.1161
-0.133086
-0.144249
-0.151723
-0.155726
-0.156493
-0.154417
-0.14988
-0.143224
-0.134754
-0.12473
-0.11337
-0.100854
-0.0873272
-0.0729039
-0.0576716
-0.0417008
-0.0250561
-0.00780279
0.00998942
0.0282439
0.0468706
0.0657561
0.0847519
0.103665
0.122256
0.140232
0.157247
0.172889
0.186694
0.198147
0.206708
0.211827
0.212971
0.209674
0.201741
0.18908
0.16945
0.141339
-0.118441
-0.14494
-0.163094
-0.174575
-0.181793
-0.185059
-0.184703
-0.181227
-0.175106
-0.166761
-0.156554
-0.144786
-0.131704
-0.1175
-0.102324
-0.0862864
-0.0694644
-0.0519139
-0.033681
-0.0148102
0.00465256
0.0246548
0.045131
0.0659905
0.087104
0.108292
0.12932
0.149891
0.169636
0.188106
0.204773
0.219039
0.23025
0.237723
0.240771
0.238769
0.231394
0.218444
0.197343
0.166392
-0.149752
-0.178687
-0.198041
-0.209672
-0.216334
-0.218473
-0.216557
-0.211229
-0.203087
-0.192645
-0.180333
-0.166503
-0.151426
-0.135307
-0.118296
-0.100495
-0.0819641
-0.0627395
-0.0428426
-0.0222896
-0.001096
0.020718
0.0431192
0.0660486
0.0894058
0.113035
0.136717
0.16016
0.182983
0.204703
0.224732
0.242377
0.256859
0.26733
0.27291
0.272767
0.266392
0.25342
0.230853
0.196767
-0.186509
-0.21821
-0.238772
-0.250292
-0.255965
-0.256439
-0.252375
-0.244606
-0.233884
-0.22084
-0.205985
-0.189718
-0.172337
-0.154055
-0.135014
-0.115299
-0.0949494
-0.0739711
-0.0523537
-0.0300774
-0.00711884
0.0165423
0.0409147
0.0659807
0.0916799
0.117893
0.14443
0.171018
0.197277
0.222703
0.246649
0.268331
0.286824
0.30109
0.310007
0.312468
0.307706
0.295107
0.271126
0.233561
-0.229726
-0.26462
-0.286359
-0.297358
-0.301412
-0.29947
-0.292466
-0.281486
-0.26748
-0.251215
-0.233292
-0.214157
-0.194129
-0.173419
-0.15215
-0.130382
-0.108119
-0.0853298
-0.0619627
-0.0379526
-0.0132285
0.0122797
0.0386318
0.0658629
0.0939653
0.122871
0.152437
0.182426
0.21248
0.24209
0.270568
0.297038
0.320426
0.339471
0.352757
0.358817
0.356521
0.344878
0.319616
0.278159
-0.280736
-0.319378
-0.342175
-0.352009
-0.35352
-0.34811
-0.3371
-0.321911
-0.303735
-0.2835
-0.261896
-0.23941
-0.216367
-0.192957
-0.169274
-0.145332
-0.121089
-0.0964664
-0.0713575
-0.045643
-0.019195
0.00811544
0.0364096
0.0657866
0.0963054
0.127966
0.160693
0.194309
0.228505
0.262791
0.296466
0.328579
0.357908
0.382949
0.401931
0.412925
0.414291
0.404479
0.378207
0.332357
-0.341351
-0.384458
-0.408026
-0.415668
-0.413268
-0.402911
-0.386462
-0.365775
-0.342336
-0.31724
-0.291258
-0.264898
-0.238461
-0.212096
-0.185839
-0.159642
-0.133398
-0.106964
-0.0801701
-0.0528305
-0.0247519
0.0042627
0.0344056
0.0658514
0.0987403
0.133159
0.169122
0.206542
0.245191
0.284642
0.324217
0.36293
0.39943
0.431964
0.458351
0.476079
0.482808
0.476156
0.449384
0.398534
-0.414131
-0.462605
-0.486316
-0.49011
-0.481759
-0.464375
-0.440572
-0.412749
-0.382718
-0.351734
-0.320614
-0.289843
-0.259657
-0.230124
-0.201188
-0.172714
-0.14451
-0.116349
-0.0879871
-0.0591624
-0.0296072
0.00095135
0.0327851
0.0661547
0.101295
0.1384
0.177597
0.218926
0.262282
0.307352
0.353545
0.399901
0.444997
0.486852
0.522841
0.54974
0.564274
0.562835
0.536512
0.479945
-0.50286
-0.557743
-0.580287
-0.577527
-0.560169
-0.532843
-0.499157
-0.462152
-0.423968
-0.385962
-0.348925
-0.313241
-0.279019
-0.246188
-0.214561
-0.183877
-0.153837
-0.124116
-0.0943788
-0.0642813
-0.0334742
-0.001603
0.03169
0.0667599
0.103949
0.143574
0.185907
0.231146
0.279365
0.330435
0.383935
0.439032
0.494333
0.54771
0.596108
0.635492
0.661373
0.668366
0.644262
0.581236
-0.613402
-0.675631
-0.69433
-0.680561
-0.649614
-0.608296
-0.561448
-0.51279
-0.464699
-0.418504
-0.37483
-0.333848
-0.29544
-0.259324
-0.225124
-0.192423
-0.160784
-0.129769
-0.098941
-0.0678669
-0.0361127
-0.00323954
0.0311989
0.067657
0.106593
0.148463
0.193705
0.242719
0.295813
0.353126
0.414523
0.479446
0.5467
0.614187
0.678542
0.734897
0.777289
0.797845
0.7793
0.709368
-0.755336
-0.824911
-0.834349
-0.80221
-0.75085
-0.690008
-0.625881
-0.562724
-0.502904
-0.447459
-0.396627
-0.350187
-0.30767
-0.268489
-0.232024
-0.197658
-0.164796
-0.13287
-0.101339
-0.069677
-0.0373665
-0.00388693
0.0312949
0.0687322
0.109002
0.152709
0.200479
0.252947
0.310718
0.374294
0.44397
0.519661
0.600643
0.685156
0.76984
0.849178
0.915611
0.957971
0.951375
0.87537
-0.945274
-1.01878
-1.00802
-0.945391
-0.863628
-0.775943
-0.689628
-0.608969
-0.535786
-0.470377
-0.412259
-0.360583
-0.31437
-0.272634
-0.234449
-0.198966
-0.165414
-0.133093
-0.101356
-0.0695902
-0.0372026
-0.0035986
0.0318332
0.0697371
0.110805
0.155788
0.205512
0.260874
0.322829
0.392341
0.470299
0.55735
0.653613
0.758189
0.868344
0.978511
1.07984
1.15729
1.17504
1.0979
-1.21361
-1.27744
-1.22437
-1.11157
-0.985279
-0.861643
-0.747862
-0.647065
-0.559554
-0.484199
-0.419341
-0.363223
-0.314193
-0.27078
-0.231706
-0.195874
-0.162338
-0.130273
-0.0989372
-0.0676469
-0.0357467
-0.00258475
0.0325119
0.0702623
0.111456
0.156982
0.207855
0.265244
0.330489
0.405099
0.490719
0.589019
0.701444
0.828714
0.969812
1.12048
1.27189
1.40567
1.47211
1.41033
-1.61619
-1.63041
-1.49201
-1.29835
-1.10872
-0.938914
-0.793067
-0.670828
-0.569433
-0.485389
-0.415336
-0.35634
-0.305949
-0.262156
-0.22333
-0.188143
-0.155495
-0.124459
-0.0942281
-0.0640704
-0.0332936
-0.00121263
0.0328819
0.0697566
0.110271
0.155418
0.206377
0.264566
0.331706
0.409887
0.501627
0.609888
0.737985
0.889238
1.06602
1.26797
1.48955
1.71235
1.8736
1.87232
-2.25487
-2.11694
-1.81557
-1.49754
-1.22172
-0.995904
-0.815667
-0.673247
-0.560599
-0.470794
-0.398295
-0.338815
-0.289076
-0.246571
-0.209373
-0.175976
-0.145183
-0.116013
-0.0876289
-0.0592879
-0.030293
4.27505e-05
0.0324319
0.0676522
0.106591
0.1503
0.200063
0.257486
0.32461
0.404059
0.499239
0.614572
0.755722
0.929714
1.14464
1.40825
1.72425
2.08197
2.4195
2.58946
-3.35813
-2.78532
-2.1759
-1.6802
-1.29811
-1.01239
-0.801722
-0.645447
-0.527738
-0.437436
-0.366713
-0.310047
-0.263513
-0.224279
-0.190262
-0.159897
-0.131971
-0.105516
-0.0797216
-0.0538747
-0.0273133
0.00061356
0.0305822
0.0633368
0.0997394
0.140832
0.187919
0.242676
0.307308
0.384793
0.479228
0.596357
0.744303
0.934611
1.18366
1.51307
1.94489
2.49419
3.16001
3.79605
-5.52549
-3.66245
-2.43479
-1.71951
-1.24839
-0.929683
-0.71381
-0.563663
-0.455552
-0.37522
-0.313733
-0.265254
-0.225862
-0.192845
-0.16427
-0.138717
-0.115108
-0.0925885
-0.0704539
-0.048086
-0.0249123
-0.000370588
0.0261241
0.0552205
0.0876783
0.124427
0.166644
0.215864
0.274152
0.344377
0.430657
0.539095
0.679022
0.865268
1.12244
1.48981
2.02088
2.80908
4.12485
6.09577
-9.21315
-4.52169
-2.31031
-1.42699
-0.966353
-0.691959
-0.522742
-0.412138
-0.335083
-0.278703
-0.2358
-0.201964
-0.174329
-0.150941
-0.130417
-0.111738
-0.0941297
-0.0769766
-0.0597662
-0.0420471
-0.0233978
-0.00340419
0.0183697
0.0424085
0.0692838
0.0996962
0.134529
0.174929
0.222432
0.279174
0.348249
0.434363
0.545102
0.693796
0.90612
1.23139
1.75988
2.73771
5.06382
9.87539
)
;

boundaryField
{
    movingWall
    {
        type            zeroGradient;
    }
    fixedWalls
    {
        type            zeroGradient;
    }
    frontAndBack
    {
        type            empty;
    }
}


// ************************************************************************* //
