/*--------------------------------*- C++ -*----------------------------------*\
  =========                 |
  \\      /  F ield         | OpenFOAM: The Open Source CFD Toolbox
   \\    /   O peration     | Website:  https://openfoam.org
    \\  /    A nd           | Version:  7
     \\/     M anipulation  |
\*---------------------------------------------------------------------------*/
FoamFile
{
    version     2.0;
    format      ascii;
    class       surfaceScalarField;
    location    "0.04";
    object      phi;
}
// * * * * * * * * * * * * * * * * * * * * * * * * * * * * * * * * * * * * * //

dimensions      [0 3 -1 0 0 0 0];

internalField   nonuniform List<scalar> 
3120
(
2.12533e-09
-2.12531e-09
3.22787e-09
-1.10245e-09
1.32823e-09
1.89961e-09
-3.9344e-09
5.2626e-09
-1.23298e-08
8.39532e-09
-2.33915e-08
1.10617e-08
-3.65609e-08
1.31693e-08
-5.12623e-08
1.47014e-08
-6.6936e-08
1.56737e-08
-8.30562e-08
1.61201e-08
-9.91383e-08
1.60821e-08
-1.14742e-07
1.56035e-08
-1.29473e-07
1.47312e-08
-1.42985e-07
1.3512e-08
-1.54975e-07
1.199e-08
-1.65184e-07
1.02092e-08
-1.73398e-07
8.21472e-09
-1.79449e-07
6.05035e-09
-1.83207e-07
3.75848e-09
-1.84589e-07
1.38146e-09
-1.83552e-07
-1.03663e-09
-1.80103e-07
-3.44951e-09
-1.74294e-07
-5.809e-09
-1.66229e-07
-8.06501e-09
-1.56063e-07
-1.01655e-08
-1.44006e-07
-1.20567e-08
-1.30323e-07
-1.3683e-08
-1.15335e-07
-1.49884e-08
-9.94176e-08
-1.59173e-08
-8.30011e-08
-1.64165e-08
-6.65645e-08
-1.64367e-08
-5.06307e-08
-1.59339e-08
-3.57579e-08
-1.48728e-08
-2.25273e-08
-1.32306e-08
-1.1522e-08
-1.10054e-08
-3.28773e-09
-8.23425e-09
1.74305e-09
-5.03071e-09
3.40272e-09
-1.65966e-09
2.14211e-09
1.26051e-09
2.14207e-09
1.18044e-09
-3.30582e-09
-1.66066e-09
1.7387e-09
-1.12231e-08
1.14621e-08
-2.82165e-08
2.2256e-08
-5.23354e-08
3.25145e-08
-8.26995e-08
4.14258e-08
-1.18125e-07
4.85947e-08
-1.57299e-07
5.38754e-08
-1.98882e-07
5.72573e-08
-2.4157e-07
5.8808e-08
-2.8413e-07
5.86417e-08
-3.25423e-07
5.68968e-08
-3.64417e-07
5.37249e-08
-4.0019e-07
4.92845e-08
-4.31935e-07
4.37355e-08
-4.58964e-07
3.72386e-08
-4.80704e-07
2.99544e-08
-4.96696e-07
2.20427e-08
-5.06601e-07
1.36631e-08
-5.10196e-07
4.97658e-09
-5.07381e-07
-3.85182e-09
-4.98179e-07
-1.26518e-08
-4.82741e-07
-2.12467e-08
-4.61352e-07
-2.94534e-08
-4.34436e-07
-3.70824e-08
-4.02553e-07
-4.39388e-08
-3.66411e-07
-4.98249e-08
-3.26856e-07
-5.45434e-08
-2.84872e-07
-5.79021e-08
-2.41569e-07
-5.97196e-08
-1.98172e-07
-5.98331e-08
-1.55999e-07
-5.81072e-08
-1.16424e-07
-5.44475e-08
-8.08354e-08
-4.88194e-08
-5.056e-08
-4.12808e-08
-2.67544e-08
-3.20397e-08
-1.02262e-08
-2.15589e-08
-1.16002e-09
-1.0726e-08
1.31157e-09
-1.21117e-09
3.45375e-09
-1.70473e-09
-1.60123e-09
-1.11502e-08
1.11842e-08
-3.04531e-08
3.07649e-08
-6.01285e-08
5.19312e-08
-9.96682e-08
7.20541e-08
-1.47883e-07
8.96402e-08
-2.0317e-07
1.03882e-07
-2.63709e-07
1.14415e-07
-3.27605e-07
1.21153e-07
-3.92977e-07
1.2418e-07
-4.58021e-07
1.23686e-07
-5.21051e-07
1.19927e-07
-5.80524e-07
1.13198e-07
-6.35057e-07
1.03817e-07
-6.83431e-07
9.21095e-08
-7.24601e-07
7.84091e-08
-7.57698e-07
6.30509e-08
-7.82026e-07
4.63711e-08
-7.97071e-07
2.87082e-08
-8.02499e-07
1.0405e-08
-7.98163e-07
-8.18801e-09
-7.84104e-07
-2.67107e-08
-7.6056e-07
-4.4791e-08
-7.27969e-07
-6.20445e-08
-6.86976e-07
-7.80751e-08
-6.38436e-07
-9.24788e-08
-5.83414e-07
-1.04847e-07
-5.2318e-07
-1.14777e-07
-4.59203e-07
-1.21879e-07
-3.93132e-07
-1.25791e-07
-3.2677e-07
-1.26195e-07
-2.62036e-07
-1.22841e-07
-2.00911e-07
-1.15573e-07
-1.45358e-07
-1.04373e-07
-9.72187e-08
-8.94198e-08
-5.80662e-08
-7.11922e-08
-2.89979e-08
-5.06273e-08
-1.03705e-08
-2.93535e-08
-1.46953e-09
-1.0112e-08
1.98423e-09
-5.00616e-09
3.40494e-09
-2.1993e-08
2.81712e-08
-5.19495e-08
6.07216e-08
-9.48033e-08
9.4785e-08
-1.49637e-07
1.26888e-07
-2.14902e-07
1.54905e-07
-2.88622e-07
1.77602e-07
-3.68576e-07
1.94369e-07
-4.52438e-07
2.05015e-07
-5.37881e-07
2.09623e-07
-6.22657e-07
2.08462e-07
-7.0465e-07
2.0192e-07
-7.81911e-07
1.9046e-07
-8.52683e-07
1.74589e-07
-9.15416e-07
1.54843e-07
-9.68777e-07
1.3177e-07
-1.01165e-06
1.05925e-07
-1.04315e-06
7.78719e-08
-1.06262e-06
4.8177e-08
-1.06963e-06
1.74168e-08
-1.064e-06
-1.382e-08
-1.04578e-06
-4.4929e-08
-1.01529e-06
-7.5288e-08
-9.73074e-07
-1.04256e-07
-9.19974e-07
-1.31175e-07
-8.57077e-07
-1.55376e-07
-7.85738e-07
-1.76186e-07
-7.07569e-07
-1.92946e-07
-6.24427e-07
-2.05021e-07
-5.38387e-07
-2.11831e-07
-4.51706e-07
-2.12875e-07
-3.66776e-07
-2.07771e-07
-2.86046e-07
-1.96304e-07
-2.1193e-07
-1.78488e-07
-1.46688e-07
-1.54662e-07
-9.22671e-08
-1.25613e-07
-5.0117e-08
-9.27774e-08
-2.09797e-08
-5.84907e-08
-4.68863e-09
-2.6403e-08
-2.70451e-09
-8.24279e-09
1.16477e-08
-3.29347e-08
5.2863e-08
-7.3804e-08
1.01591e-07
-1.29978e-07
1.50959e-07
-1.99972e-07
1.96882e-07
-2.81794e-07
2.36726e-07
-3.73075e-07
2.68884e-07
-4.7122e-07
2.92514e-07
-5.73531e-07
3.07325e-07
-6.77313e-07
3.13405e-07
-7.79957e-07
3.11106e-07
-8.79e-07
3.00962e-07
-9.72165e-07
2.83624e-07
-1.0574e-06
2.5982e-07
-1.13287e-06
2.30321e-07
-1.19703e-06
1.95927e-07
-1.24856e-06
1.57452e-07
-1.28641e-06
1.15723e-07
-1.30981e-06
7.15771e-08
-1.31826e-06
2.58653e-08
-1.31153e-06
-2.05433e-08
-1.28971e-06
-6.6757e-08
-1.25313e-06
-1.11859e-07
-1.20248e-06
-1.54907e-07
-1.13872e-06
-1.94936e-07
-1.06313e-06
-2.30968e-07
-9.77295e-07
-2.62021e-07
-8.83105e-07
-2.87137e-07
-7.82726e-07
-3.05399e-07
-6.78581e-07
-3.15976e-07
-5.73299e-07
-3.18158e-07
-4.69655e-07
-3.11414e-07
-3.70497e-07
-2.95462e-07
-2.78634e-07
-2.70351e-07
-1.96719e-07
-2.36577e-07
-1.27102e-07
-1.9523e-07
-7.16747e-08
-1.48205e-07
-3.17265e-08
-9.84389e-08
-7.85276e-09
-5.02768e-08
-1.05573e-08
-1.12748e-08
2.29226e-08
-4.35006e-08
8.50889e-08
-9.52067e-08
1.53297e-07
-1.6464e-07
2.20393e-07
-2.49653e-07
2.81895e-07
-3.47728e-07
3.34801e-07
-4.56062e-07
3.77217e-07
-5.71674e-07
4.08126e-07
-6.91512e-07
4.27164e-07
-8.1255e-07
4.34443e-07
-9.31867e-07
4.30423e-07
-1.0467e-06
4.158e-07
-1.15452e-06
3.91439e-07
-1.25301e-06
3.58309e-07
-1.34013e-06
3.17448e-07
-1.41414e-06
2.69933e-07
-1.47356e-06
2.1687e-07
-1.51722e-06
1.59379e-07
-1.54424e-06
9.86004e-08
-1.55406e-06
3.56909e-08
-1.54644e-06
-2.81662e-08
-1.52144e-06
-9.17584e-08
-1.47946e-06
-1.5384e-07
-1.42124e-06
-2.1313e-07
-1.34785e-06
-2.68322e-07
-1.26073e-06
-3.18089e-07
-1.16164e-06
-3.61105e-07
-1.05271e-06
-3.96075e-07
-9.36338e-07
-4.21767e-07
-8.15251e-07
-4.37063e-07
-6.92392e-07
-4.41017e-07
-5.70881e-07
-4.32925e-07
-4.53928e-07
-4.12415e-07
-3.4473e-07
-3.7955e-07
-2.4635e-07
-3.34957e-07
-1.61592e-07
-2.79988e-07
-9.28747e-08
-2.16922e-07
-4.21387e-08
-1.49175e-07
-1.08215e-08
-8.15941e-08
-2.13788e-08
-1.40948e-08
3.70174e-08
-5.35891e-08
1.24583e-07
-1.15939e-07
2.15647e-07
-1.98505e-07
3.02959e-07
-2.98426e-07
3.81816e-07
-4.126e-07
4.48974e-07
-5.37739e-07
5.02357e-07
-6.70452e-07
5.40839e-07
-8.07326e-07
5.64037e-07
-9.45013e-07
5.72131e-07
-1.0803e-06
5.65714e-07
-1.21018e-06
5.4568e-07
-1.33187e-06
5.1313e-07
-1.44287e-06
4.69304e-07
-1.54095e-06
4.1553e-07
-1.62421e-06
3.53191e-07
-1.69105e-06
2.83706e-07
-1.74018e-06
2.08517e-07
-1.77067e-06
1.29088e-07
-1.78189e-06
4.69085e-08
-1.77355e-06
-3.65004e-08
-1.74573e-06
-1.19579e-07
-1.69885e-06
-2.00726e-07
-1.63368e-06
-2.78296e-07
-1.5514e-06
-3.50606e-07
-1.45354e-06
-4.15951e-07
-1.34201e-06
-4.72629e-07
-1.21912e-06
-5.1897e-07
-1.0875e-06
-5.53391e-07
-9.50106e-07
-5.74453e-07
-8.10187e-07
-5.80935e-07
-6.71185e-07
-5.71927e-07
-5.36672e-07
-5.46929e-07
-4.10245e-07
-5.05977e-07
-2.95419e-07
-4.49783e-07
-1.95509e-07
-3.79898e-07
-1.1353e-07
-2.98901e-07
-5.2129e-08
-2.10576e-07
-1.35921e-08
-1.20131e-07
-3.49708e-08
-1.67536e-08
5.37711e-08
-6.32879e-08
1.71117e-07
-1.36106e-07
2.88465e-07
-2.31715e-07
3.98568e-07
-3.46511e-07
4.96612e-07
-4.76769e-07
5.79232e-07
-6.18673e-07
6.44262e-07
-7.68386e-07
6.90552e-07
-9.22116e-07
7.17767e-07
-1.07619e-06
7.26206e-07
-1.22712e-06
7.16646e-07
-1.37166e-06
6.90212e-07
-1.50681e-06
6.48279e-07
-1.62989e-06
5.92386e-07
-1.73854e-06
5.24178e-07
-1.83071e-06
4.45367e-07
-1.90471e-06
3.57708e-07
-1.95918e-06
2.62983e-07
-1.99309e-06
1.62999e-07
-2.00578e-06
5.95947e-08
-1.99692e-06
-4.53522e-08
-1.96659e-06
-1.49918e-07
-1.91519e-06
-2.52124e-07
-1.84354e-06
-3.49939e-07
-1.75287e-06
-4.41281e-07
-1.64478e-06
-5.24038e-07
-1.52131e-06
-5.96095e-07
-1.38491e-06
-6.55377e-07
-1.23839e-06
-6.99908e-07
-1.08496e-06
-7.27885e-07
-9.28123e-07
-7.3777e-07
-7.71657e-07
-7.28393e-07
-6.19509e-07
-6.99077e-07
-4.75712e-07
-6.49774e-07
-3.44275e-07
-5.81219e-07
-2.29082e-07
-4.9509e-07
-1.33797e-07
-3.94186e-07
-6.18054e-08
-2.82568e-07
-1.62187e-08
-1.65718e-07
-5.11896e-08
-1.93174e-08
7.30885e-08
-7.27612e-08
2.24561e-07
-1.55974e-07
3.71678e-07
-2.64635e-07
5.07229e-07
-3.94391e-07
6.26369e-07
-5.4086e-07
7.25701e-07
-6.99661e-07
8.03063e-07
-8.66478e-07
8.57368e-07
-1.03712e-06
8.88406e-07
-1.20757e-06
8.96659e-07
-1.37407e-06
8.83144e-07
-1.53312e-06
8.49269e-07
-1.68157e-06
7.96721e-07
-1.81655e-06
7.27373e-07
-1.93559e-06
6.43217e-07
-2.03654e-06
5.46317e-07
-2.11762e-06
4.38782e-07
-2.17738e-06
3.22748e-07
-2.21476e-06
2.00381e-07
-2.22905e-06
7.38788e-08
-2.21988e-06
-5.45148e-08
-2.1873e-06
-1.825e-07
-2.13172e-06
-3.07708e-07
-2.05395e-06
-4.27704e-07
-1.95525e-06
-5.39988e-07
-1.83727e-06
-6.42012e-07
-1.70215e-06
-7.3122e-07
-1.55243e-06
-8.05092e-07
-1.39113e-06
-8.61215e-07
-1.22164e-06
-8.97373e-07
-1.04776e-06
-9.1165e-07
-8.73592e-07
-9.02559e-07
-7.03492e-07
-8.69177e-07
-5.41961e-07
-8.11305e-07
-3.93557e-07
-7.29623e-07
-2.62785e-07
-6.25863e-07
-1.54005e-07
-5.02967e-07
-7.13623e-08
-3.6521e-07
-1.87751e-08
-2.18305e-07
-6.99648e-08
-2.18523e-08
9.4941e-08
-8.21959e-08
2.84904e-07
-1.75866e-07
4.65347e-07
-2.97728e-07
6.29092e-07
-4.4267e-07
7.7131e-07
-6.05621e-07
8.88651e-07
-7.81603e-07
9.79045e-07
-9.65787e-07
1.04155e-06
-1.15355e-06
1.07617e-06
-1.34055e-06
1.08365e-06
-1.52271e-06
1.06531e-06
-1.69633e-06
1.02289e-06
-1.85806e-06
9.58453e-07
-2.00493e-06
8.74237e-07
-2.13432e-06
7.72612e-07
-2.24402e-06
6.56019e-07
-2.33218e-06
5.26937e-07
-2.3973e-06
3.8787e-07
-2.43827e-06
2.41348e-07
-2.45432e-06
8.99327e-08
-2.44508e-06
-6.37611e-08
-2.41052e-06
-2.17052e-07
-2.35105e-06
-3.67177e-07
-2.26747e-06
-5.11285e-07
-2.16102e-06
-6.46439e-07
-2.0334e-06
-7.69636e-07
-1.88678e-06
-8.77843e-07
-1.72381e-06
-9.68055e-07
-1.54765e-06
-1.03737e-06
-1.36192e-06
-1.08311e-06
-1.17068e-06
-1.1029e-06
-9.78375e-07
-1.09486e-06
-7.89803e-07
-1.05775e-06
-6.09977e-07
-9.9113e-07
-4.44053e-07
-8.95547e-07
-2.97212e-07
-7.72703e-07
-1.74558e-07
-6.25622e-07
-8.10267e-08
-4.58741e-07
-2.13381e-08
-2.77993e-07
-9.13028e-08
-2.44195e-08
1.1936e-07
-9.17791e-08
3.52264e-07
-1.96118e-07
5.69686e-07
-3.31486e-07
7.64459e-07
-4.91985e-07
9.3181e-07
-6.71829e-07
1.0685e-06
-8.65406e-07
1.17262e-06
-1.06735e-06
1.24349e-06
-1.27258e-06
1.2814e-06
-1.47637e-06
1.28745e-06
-1.6744e-06
1.26333e-06
-1.86272e-06
1.21122e-06
-2.03783e-06
1.13356e-06
-2.19661e-06
1.03302e-06
-2.3364e-06
9.12396e-07
-2.45489e-06
7.74512e-07
-2.55019e-06
6.22238e-07
-2.62078e-06
4.58453e-07
-2.66548e-06
2.86052e-07
-2.68351e-06
1.07961e-07
-2.67443e-06
-7.28381e-08
-2.6382e-06
-2.53286e-07
-2.57515e-06
-4.30222e-07
-2.48606e-06
-6.00376e-07
-2.37214e-06
-7.60361e-07
-2.23508e-06
-9.06697e-07
-2.07708e-06
-1.03584e-06
-1.90087e-06
-1.14427e-06
-1.70972e-06
-1.22852e-06
-1.50745e-06
-1.28538e-06
-1.2984e-06
-1.31195e-06
-1.08739e-06
-1.30587e-06
-8.79661e-07
-1.26547e-06
-6.808e-07
-1.18999e-06
-4.96609e-07
-1.07974e-06
-3.33004e-07
-9.36308e-07
-1.95887e-07
-7.62738e-07
-9.10319e-08
-5.63596e-07
-2.39825e-08
-3.45043e-07
-1.15285e-07
-2.7074e-08
1.46434e-07
-1.01687e-07
4.26877e-07
-2.17057e-07
6.85056e-07
-3.66387e-07
9.13789e-07
-5.4296e-07
1.10838e-06
-7.40233e-07
1.26577e-06
-9.51923e-07
1.38431e-06
-1.17209e-06
1.46366e-06
-1.39518e-06
1.50449e-06
-1.6161e-06
1.50837e-06
-1.83022e-06
1.47746e-06
-2.0334e-06
1.41439e-06
-2.22197e-06
1.32212e-06
-2.39273e-06
1.20379e-06
-2.54293e-06
1.0626e-06
-2.67026e-06
9.01836e-07
-2.77277e-06
7.24752e-07
-2.84892e-06
5.34607e-07
-2.89753e-06
3.34659e-07
-2.91776e-06
1.2819e-07
-2.90914e-06
-8.14632e-08
-2.87155e-06
-2.90872e-07
-2.80528e-06
-4.96489e-07
-2.71103e-06
-6.94623e-07
-2.58996e-06
-8.81434e-07
-2.44372e-06
-1.05294e-06
-2.27449e-06
-1.20507e-06
-2.08505e-06
-1.33371e-06
-1.87877e-06
-1.4348e-06
-1.65965e-06
-1.5045e-06
-1.4323e-06
-1.5393e-06
-1.20192e-06
-1.53625e-06
-9.74249e-07
-1.49315e-06
-7.55458e-07
-1.40878e-06
-5.52069e-07
-1.28313e-06
-3.708e-07
-1.11758e-06
-2.18423e-07
-9.15115e-07
-1.01606e-07
-6.80413e-07
-2.67792e-08
-4.1987e-07
-1.42065e-07
-2.9866e-08
1.763e-07
-1.12079e-07
5.0909e-07
-2.38981e-07
8.11958e-07
-4.02873e-07
1.07768e-06
-5.96165e-07
1.30168e-06
-8.11507e-07
1.48111e-06
-1.0419e-06
1.61471e-06
-1.2808e-06
1.70255e-06
-1.52216e-06
1.74586e-06
-1.76051e-06
1.74671e-06
-1.99091e-06
1.70786e-06
-2.20904e-06
1.63252e-06
-2.4111e-06
1.52418e-06
-2.59382e-06
1.3865e-06
-2.75441e-06
1.2232e-06
-2.89054e-06
1.03797e-06
-3.00029e-06
8.34497e-07
-3.08209e-06
6.16412e-07
-3.13476e-06
3.87324e-07
-3.15742e-06
1.50855e-07
-3.14957e-06
-8.93223e-08
-3.11101e-06
-3.29431e-07
-3.04194e-06
-5.65552e-07
-2.94298e-06
-7.93584e-07
-2.81519e-06
-1.00923e-06
-2.66012e-06
-1.208e-06
-2.47994e-06
-1.38526e-06
-2.27739e-06
-1.53625e-06
-2.05593e-06
-1.65626e-06
-1.81971e-06
-1.74072e-06
-1.57358e-06
-1.78542e-06
-1.32315e-06
-1.78668e-06
-1.07465e-06
-1.74165e-06
-8.34923e-07
-1.64851e-06
-6.11247e-07
-1.5068e-06
-4.11222e-07
-1.3176e-06
-2.42577e-07
-1.08376e-06
-1.12968e-07
-8.10021e-07
-2.97952e-08
-5.03043e-07
-1.7186e-07
-3.28396e-08
2.0914e-07
-1.231e-07
5.99351e-07
-2.62162e-07
9.5102e-07
-4.41343e-07
1.25686e-06
-6.52106e-07
1.51244e-06
-8.86231e-07
1.71524e-06
-1.13596e-06
1.86443e-06
-1.39409e-06
1.96069e-06
-1.65408e-06
2.00585e-06
-1.91006e-06
2.00268e-06
-2.15683e-06
1.95463e-06
-2.38987e-06
1.86556e-06
-2.6053e-06
1.73961e-06
-2.79981e-06
1.58101e-06
-2.97062e-06
1.39401e-06
-3.11542e-06
1.18277e-06
-3.23231e-06
9.51388e-07
-3.31977e-06
7.0387e-07
-3.3766e-06
4.44158e-07
-3.40193e-06
1.76184e-07
-3.39518e-06
-9.60714e-08
-3.3561e-06
-3.68514e-07
-3.28477e-06
-6.36879e-07
-3.18168e-06
-8.96677e-07
-3.04775e-06
-1.14316e-06
-2.88442e-06
-1.37133e-06
-2.69373e-06
-1.57595e-06
-2.47839e-06
-1.75159e-06
-2.24186e-06
-1.89279e-06
-1.98841e-06
-1.99418e-06
-1.72314e-06
-2.05069e-06
-1.45202e-06
-2.0578e-06
-1.18182e-06
-2.01184e-06
-9.20071e-07
-1.91027e-06
-6.74892e-07
-1.75198e-06
-4.54853e-07
-1.53764e-06
-2.68742e-07
-1.26987e-06
-1.25324e-07
-9.53439e-07
-3.30928e-08
-5.95274e-07
-2.04953e-07
-3.60336e-08
2.45173e-07
-1.34881e-07
6.98199e-07
-2.86844e-07
1.10298e-06
-4.82147e-07
1.45217e-06
-7.11212e-07
1.7415e-06
-9.64868e-07
1.96889e-06
-1.23453e-06
2.1341e-06
-1.51234e-06
2.23849e-06
-1.7912e-06
2.28471e-06
-2.06485e-06
2.27634e-06
-2.32787e-06
2.21764e-06
-2.57557e-06
2.11327e-06
-2.80402e-06
1.96807e-06
-3.00993e-06
1.78692e-06
-3.19056e-06
1.57464e-06
-3.34369e-06
1.33589e-06
-3.46748e-06
1.07518e-06
-3.56047e-06
7.96864e-07
-3.62151e-06
5.05193e-07
-3.6497e-06
2.04376e-07
-3.64443e-06
-1.01341e-07
-3.60535e-06
-4.07593e-07
-3.53242e-06
-7.09807e-07
-3.42596e-06
-1.00314e-06
-3.2867e-06
-1.28242e-06
-3.11591e-06
-1.54213e-06
-2.91544e-06
-1.77641e-06
-2.6879e-06
-1.97913e-06
-2.43669e-06
-2.144e-06
-2.16614e-06
-2.26473e-06
-1.88154e-06
-2.33528e-06
-1.58923e-06
-2.35011e-06
-1.29652e-06
-2.30455e-06
-1.01166e-06
-2.19513e-06
-7.43682e-07
-2.01996e-06
-5.02231e-07
-1.77909e-06
-2.97285e-07
-1.47482e-06
-1.38868e-07
-1.11186e-06
-3.6731e-08
-6.97411e-07
-2.41684e-07
-3.94841e-08
2.84657e-07
-1.47541e-07
8.06256e-07
-3.13243e-07
1.26868e-06
-5.25587e-07
1.66451e-06
-7.7383e-07
1.98975e-06
-1.04776e-06
2.24282e-06
-1.3379e-06
2.42424e-06
-1.63566e-06
2.53626e-06
-1.93343e-06
2.58247e-06
-2.22457e-06
2.56748e-06
-2.50341e-06
2.49649e-06
-2.7652e-06
2.37506e-06
-3.00601e-06
2.20887e-06
-3.2226e-06
2.00351e-06
-3.41236e-06
1.76441e-06
-3.5732e-06
1.49673e-06
-3.70342e-06
1.2054e-06
-3.80165e-06
8.95095e-07
-3.8668e-06
5.70345e-07
-3.898e-06
2.3558e-07
-3.8946e-06
-1.04747e-07
-3.85614e-06
-4.46052e-07
-3.78243e-06
-7.83518e-07
-3.67358e-06
-1.11199e-06
-3.53009e-06
-1.42591e-06
-3.35296e-06
-1.71926e-06
-3.14382e-06
-1.98555e-06
-2.90504e-06
-2.2179e-06
-2.63992e-06
-2.40913e-06
-2.35274e-06
-2.55191e-06
-2.04895e-06
-2.63907e-06
-1.73518e-06
-2.66388e-06
-1.4193e-06
-2.62044e-06
-1.11029e-06
-2.50413e-06
-8.18201e-07
-2.31205e-06
-5.53845e-07
-2.04345e-06
-3.28552e-07
-1.70011e-06
-1.53789e-07
-1.28662e-06
-4.07666e-08
-8.10434e-07
-2.8245e-07
-4.32274e-08
3.27885e-07
-1.61193e-07
9.24221e-07
-3.4156e-07
1.44905e-06
-5.71923e-07
1.89487e-06
-8.40232e-07
2.25806e-06
-1.13511e-06
2.5377e-06
-1.44613e-06
2.73525e-06
-1.76392e-06
2.85405e-06
-2.08034e-06
2.89889e-06
-2.3884e-06
2.87554e-06
-2.68226e-06
2.79035e-06
-2.95714e-06
2.64995e-06
-3.20919e-06
2.46091e-06
-3.43532e-06
2.22965e-06
-3.63313e-06
1.96222e-06
-3.80072e-06
1.66432e-06
-3.93659e-06
1.34126e-06
-4.03952e-06
9.98032e-07
-4.10854e-06
6.39366e-07
-4.14282e-06
2.6986e-07
-4.14167e-06
-1.05899e-07
-4.10454e-06
-4.83187e-07
-4.03104e-06
-8.57012e-07
-3.92105e-06
-1.22198e-06
-3.77476e-06
-1.5722e-06
-3.59285e-06
-1.90117e-06
-3.37659e-06
-2.20181e-06
-3.12805e-06
-2.46645e-06
-2.85026e-06
-2.68691e-06
-2.54742e-06
-2.85475e-06
-2.22499e-06
-2.9615e-06
-1.88988e-06
-2.99899e-06
-1.55042e-06
-2.95989e-06
-1.21641e-06
-2.83814e-06
-8.98935e-07
-2.62953e-06
-6.10135e-07
-2.33225e-06
-3.62868e-07
-1.94738e-06
-1.70266e-07
-1.47922e-06
-4.52555e-08
-9.35444e-07
-3.27706e-07
-4.73003e-08
3.75185e-07
-1.75951e-07
1.05287e-06
-3.71984e-07
1.64508e-06
-6.21387e-07
2.14428e-06
-9.1062e-07
2.54729e-06
-1.22701e-06
2.8541e-06
-1.55907e-06
3.06731e-06
-1.89665e-06
3.19163e-06
-2.23105e-06
3.23329e-06
-2.55499e-06
3.19948e-06
-2.86254e-06
3.0979e-06
-3.14897e-06
2.93637e-06
-3.4106e-06
2.72254e-06
-3.64461e-06
2.46365e-06
-3.84887e-06
2.16648e-06
-4.0218e-06
1.83724e-06
-4.16216e-06
1.48162e-06
-4.26897e-06
1.10484e-06
-4.34139e-06
7.11795e-07
-4.3787e-06
3.07161e-07
-4.38017e-06
-1.04427e-07
-4.34515e-06
-5.18204e-07
-4.27306e-06
-9.29097e-07
-4.16348e-06
-1.33156e-06
-4.01624e-06
-1.71944e-06
-3.83157e-06
-2.08584e-06
-3.61031e-06
-2.42307e-06
-3.35409e-06
-2.72267e-06
-3.06556e-06
-2.97544e-06
-2.74864e-06
-3.17167e-06
-2.40873e-06
-3.30141e-06
-2.05287e-06
-3.35486e-06
-1.68985e-06
-3.32291e-06
-1.33024e-06
-3.19775e-06
-9.86254e-07
-2.97352e-06
-6.71488e-07
-2.64701e-06
-4.00541e-07
-2.21833e-06
-1.88481e-07
-1.69128e-06
-5.02549e-08
-1.07367e-06
-3.77961e-07
-5.17425e-08
4.26928e-07
-1.91935e-07
1.19306e-06
-4.04713e-07
1.85786e-06
-6.74194e-07
2.41376e-06
-9.85131e-07
2.85822e-06
-1.3234e-06
3.19237e-06
-1.67636e-06
3.42027e-06
-2.03304e-06
3.54831e-06
-2.38423e-06
3.58448e-06
-2.72241e-06
3.53766e-06
-3.04164e-06
3.41713e-06
-3.33737e-06
3.23211e-06
-3.60624e-06
2.9914e-06
-3.84579e-06
2.70321e-06
-4.05432e-06
2.37501e-06
-4.23064e-06
2.01355e-06
-4.37387e-06
1.62485e-06
-4.48334e-06
1.21431e-06
-4.55845e-06
7.869e-07
-4.59856e-06
3.47271e-07
-4.60298e-06
-1.00004e-07
-4.57095e-06
-5.50229e-07
-4.50168e-06
-9.98373e-07
-4.39439e-06
-1.43885e-06
-4.24848e-06
-1.86535e-06
-4.06367e-06
-2.27065e-06
-3.8402e-06
-2.64653e-06
-3.57913e-06
-2.98374e-06
-3.28256e-06
-3.27201e-06
-2.95396e-06
-3.50026e-06
-2.59848e-06
-3.65689e-06
-2.22317e-06
-3.73017e-06
-1.83717e-06
-3.70892e-06
-1.45178e-06
-3.58314e-06
-1.0804e-06
-3.3449e-06
-7.38241e-07
-2.98918e-06
-4.4187e-07
-2.5147e-06
-2.08618e-07
-1.92453e-06
-5.58271e-08
-1.22646e-06
-4.33788e-07
-5.6601e-08
4.83528e-07
-2.09288e-07
1.34575e-06
-4.39964e-07
2.08854e-06
-7.30561e-07
2.70435e-06
-1.06386e-06
3.19152e-06
-1.4241e-06
3.55261e-06
-1.79739e-06
3.79355e-06
-2.17191e-06
3.92283e-06
-2.53799e-06
3.95055e-06
-2.88797e-06
3.88764e-06
-3.21605e-06
3.74522e-06
-3.51802e-06
3.53408e-06
-3.79095e-06
3.26433e-06
-4.03294e-06
2.94519e-06
-4.24282e-06
2.58489e-06
-4.41992e-06
2.19066e-06
-4.56386e-06
1.76879e-06
-4.67435e-06
1.3248e-06
-4.75108e-06
8.63623e-07
-4.79358e-06
3.8977e-07
-4.8012e-06
-9.23749e-08
-4.77311e-06
-5.78326e-07
-4.70825e-06
-1.06323e-06
-4.60549e-06
-1.54161e-06
-4.46371e-06
-2.00713e-06
-4.282e-06
-2.45236e-06
-4.05991e-06
-2.86863e-06
-3.79771e-06
-3.24594e-06
-3.49675e-06
-3.57296e-06
-3.15987e-06
-3.83715e-06
-2.79171e-06
-4.02504e-06
-2.39914e-06
-4.12274e-06
-1.99149e-06
-4.11657e-06
-1.58074e-06
-3.99389e-06
-1.18148e-06
-3.74415e-06
-8.10679e-07
-3.35998e-06
-4.87154e-07
-2.83822e-06
-2.30876e-07
-2.18081e-06
-6.20422e-08
-1.3953e-06
-4.9583e-07
-6.19373e-08
5.45466e-07
-2.28189e-07
1.512e-06
-4.78008e-07
2.33836e-06
-7.90739e-07
3.01708e-06
-1.14687e-06
3.54766e-06
-1.5288e-06
3.93453e-06
-1.92126e-06
4.18602e-06
-2.31162e-06
4.31319e-06
-2.68982e-06
4.32875e-06
-3.04821e-06
4.24604e-06
-3.38131e-06
4.07832e-06
-3.68542e-06
3.83818e-06
-3.95826e-06
3.53717e-06
-4.19865e-06
3.18558e-06
-4.40613e-06
2.79237e-06
-4.58069e-06
2.36522e-06
-4.72255e-06
1.91065e-06
-4.83191e-06
1.43416e-06
-4.9088e-06
9.40521e-07
-4.95302e-06
4.33989e-07
-4.964e-06
-8.13981e-08
-4.94081e-06
-6.01521e-07
-4.88217e-06
-1.12187e-06
-4.78653e-06
-1.63725e-06
-4.65222e-06
-2.14144e-06
-4.47758e-06
-2.62699e-06
-4.2613e-06
-3.08491e-06
-4.0027e-06
-3.50454e-06
-3.70216e-06
-3.8735e-06
-3.36158e-06
-4.17773e-06
-2.98485e-06
-4.40177e-06
-2.57836e-06
-4.52923e-06
-2.15141e-06
-4.54351e-06
-1.71651e-06
-4.42879e-06
-1.28944e-06
-4.17123e-06
-8.89042e-07
-3.76038e-06
-5.36703e-07
-3.19056e-06
-2.55479e-07
-2.46203e-06
-6.89822e-08
-1.58179e-06
-5.64812e-07
-6.78358e-08
6.13302e-07
-2.4888e-07
1.69305e-06
-5.19198e-07
2.60868e-06
-8.55044e-07
3.35293e-06
-1.23423e-06
3.92684e-06
-1.63704e-06
4.33734e-06
-2.04679e-06
4.59578e-06
-2.45004e-06
4.71644e-06
-2.83649e-06
4.71519e-06
-3.19871e-06
4.60826e-06
-3.53177e-06
4.41138e-06
-3.83273e-06
4.13915e-06
-4.10021e-06
3.80465e-06
-4.33392e-06
3.41929e-06
-4.53431e-06
2.99276e-06
-4.70219e-06
2.5331e-06
-4.83848e-06
2.04693e-06
-4.94397e-06
1.53965e-06
-5.01916e-06
1.01572e-06
-5.06413e-06
4.78959e-07
-5.07845e-06
-6.70841e-08
-5.06113e-06
-6.18836e-07
-5.01068e-06
-1.17232e-06
-4.92513e-06
-1.7228e-06
-4.80215e-06
-2.26442e-06
-4.63929e-06
-2.78985e-06
-4.43421e-06
-3.28998e-06
-4.1851e-06
-3.75366e-06
-3.89108e-06
-4.16752e-06
-3.55281e-06
-4.516e-06
-3.17307e-06
-4.78151e-06
-2.75743e-06
-4.94487e-06
-2.31484e-06
-4.98611e-06
-1.85808e-06
-4.88555e-06
-1.40402e-06
-4.62528e-06
-9.73529e-07
-4.19087e-06
-5.90855e-07
-3.57323e-06
-2.82689e-07
-2.7702e-06
-7.67466e-08
-1.78773e-06
-6.41559e-07
-7.44147e-08
6.87716e-07
-2.71694e-07
1.89033e-06
-5.64016e-07
2.901e-06
-9.239e-07
3.71281e-06
-1.32599e-06
4.32894e-06
-1.74822e-06
4.75957e-06
-2.17239e-06
5.01995e-06
-2.58437e-06
5.12841e-06
-2.97383e-06
5.10466e-06
-3.33388e-06
4.96831e-06
-3.66041e-06
4.73791e-06
-3.95157e-06
4.4303e-06
-4.20712e-06
4.0602e-06
-4.42792e-06
3.6401e-06
-4.61551e-06
3.18035e-06
-4.77167e-06
2.68926e-06
-4.89816e-06
2.17342e-06
-4.99646e-06
1.63796e-06
-5.06761e-06
1.08686e-06
-5.11202e-06
5.23376e-07
-5.12947e-06
-4.96392e-08
-5.11896e-06
-6.29341e-07
-5.0788e-06
-1.21249e-06
-5.00658e-06
-1.79502e-06
-4.89933e-06
-2.37167e-06
-4.7537e-06
-2.93548e-06
-4.56622e-06
-3.47746e-06
-4.33371e-06
-3.98617e-06
-4.05377e-06
-4.44745e-06
-3.72547e-06
-4.8443e-06
-3.35006e-06
-5.15693e-06
-2.9318e-06
-5.36313e-06
-2.47884e-06
-5.43907e-06
-2.0039e-06
-5.36049e-06
-1.52476e-06
-5.10442e-06
-1.0643e-06
-4.65133e-06
-6.50006e-07
-3.98753e-06
-3.12832e-07
-3.10737e-06
-8.54615e-08
-2.0151e-06
-7.2702e-07
-8.18428e-08
7.69559e-07
-2.97103e-07
2.10559e-06
-6.13136e-07
3.21703e-06
-9.97883e-07
4.09756e-06
-1.42225e-06
4.75331e-06
-1.86151e-06
5.19883e-06
-2.29597e-06
5.45441e-06
-2.71099e-06
5.54343e-06
-3.09657e-06
5.49024e-06
-3.44671e-06
5.31844e-06
-3.75857e-06
5.04977e-06
-4.0317e-06
4.70344e-06
-4.26735e-06
4.29584e-06
-4.46778e-06
3.84053e-06
-4.63579e-06
3.34836e-06
-4.7743e-06
2.82777e-06
-4.88601e-06
2.28514e-06
-4.97319e-06
1.72513e-06
-5.03745e-06
1.15112e-06
-5.07966e-06
5.65579e-07
-5.09979e-06
-2.95052e-08
-5.09692e-06
-6.32205e-07
-5.06919e-06
-1.24022e-06
-5.0138e-06
-1.85041e-06
-4.92713e-06
-2.45834e-06
-4.80488e-06
-3.05773e-06
-4.64236e-06
-3.63998e-06
-4.43485e-06
-4.19369e-06
-4.17815e-06
-4.70415e-06
-3.86934e-06
-5.15312e-06
-3.50762e-06
-5.51865e-06
-3.09541e-06
-5.77534e-06
-2.63944e-06
-5.89504e-06
-2.15182e-06
-5.8481e-06
-1.65088e-06
-5.60537e-06
-1.16147e-06
-5.14074e-06
-7.14637e-07
-4.43436e-06
-3.46332e-07
-3.47568e-06
-9.52939e-08
-2.26614e-06
-8.22314e-07
-9.03641e-08
8.59923e-07
-3.25778e-07
2.341e-06
-6.67492e-07
3.55874e-06
-1.07777e-06
4.50784e-06
-1.52307e-06
5.19861e-06
-1.97576e-06
5.65152e-06
-2.41471e-06
5.89336e-06
-2.82515e-06
5.95387e-06
-3.19791e-06
5.863e-06
-3.52839e-06
5.64892e-06
-3.81551e-06
5.33689e-06
-4.0607e-06
4.94863e-06
-4.26699e-06
4.50213e-06
-4.43831e-06
4.01185e-06
-4.57892e-06
3.48897e-06
-4.69299e-06
2.94184e-06
-4.78425e-06
2.3764e-06
-4.8558e-06
1.79668e-06
-4.9099e-06
1.20522e-06
-4.94786e-06
6.03544e-07
-4.96998e-06
-7.38975e-09
-4.97542e-06
-6.26763e-07
-4.96222e-06
-1.25342e-06
-4.92727e-06
-1.88537e-06
-4.86634e-06
-2.51927e-06
-4.77422e-06
-3.14985e-06
-4.64492e-06
-3.76928e-06
-4.47206e-06
-4.36654e-06
-4.24939e-06
-4.92682e-06
-3.9716e-06
-5.43092e-06
-3.63529e-06
-5.85495e-06
-3.24032e-06
-6.1703e-06
-2.79124e-06
-6.34412e-06
-2.29878e-06
-6.34056e-06
-1.78121e-06
-6.12294e-06
-1.26513e-06
-5.65683e-06
-7.85368e-07
-4.91412e-06
-3.8376e-07
-3.87729e-06
-1.06478e-07
-2.54343e-06
-9.28792e-07
-1.00336e-07
9.60259e-07
-3.58677e-07
2.59934e-06
-7.2838e-07
3.92845e-06
-1.16458e-06
4.94404e-06
-1.62846e-06
5.66249e-06
-2.08925e-06
6.11231e-06
-2.52472e-06
6.32883e-06
-2.92053e-06
6.34969e-06
-3.26903e-06
6.21149e-06
-3.56774e-06
5.94764e-06
-3.81797e-06
5.58712e-06
-4.02347e-06
5.15413e-06
-4.18944e-06
4.6681e-06
-4.32173e-06
4.14413e-06
-4.42618e-06
3.59342e-06
-4.50829e-06
3.02395e-06
-4.57286e-06
2.44097e-06
-4.62382e-06
1.84764e-06
-4.66409e-06
1.24549e-06
-4.69547e-06
6.34929e-07
-4.71858e-06
1.57201e-08
-4.73277e-06
-6.12579e-07
-4.73605e-06
-1.25013e-06
-4.7251e-06
-1.89632e-06
-4.69519e-06
-2.54918e-06
-4.64029e-06
-3.20475e-06
-4.55318e-06
-3.85639e-06
-4.42574e-06
-4.49398e-06
-4.24949e-06
-5.10307e-06
-4.01635e-06
-5.66406e-06
-3.71976e-06
-6.15155e-06
-3.35619e-06
-6.53387e-06
-2.92702e-06
-6.7733e-06
-2.44053e-06
-6.82705e-06
-1.91402e-06
-6.64945e-06
-1.37525e-06
-6.19559e-06
-8.63007e-07
-5.42636e-06
-4.25914e-07
-4.31438e-06
-1.19348e-07
-2.84999e-06
-1.04814e-06
-1.12285e-07
1.07254e-06
-3.97169e-07
2.88423e-06
-7.97562e-07
4.32884e-06
-1.25956e-06
5.40604e-06
-1.73812e-06
6.14105e-06
-2.19934e-06
6.57353e-06
-2.62046e-06
6.74994e-06
-2.9885e-06
6.71773e-06
-3.29833e-06
6.52132e-06
-3.5505e-06
6.19981e-06
-3.7494e-06
5.78602e-06
-3.90167e-06
5.30639e-06
-4.015e-06
4.78144e-06
-4.09731e-06
4.22644e-06
-4.15614e-06
3.65225e-06
-4.19829e-06
3.0661e-06
-4.22959e-06
2.47227e-06
-4.25475e-06
1.8728e-06
-4.27731e-06
1.26805e-06
-4.29953e-06
6.57152e-07
-4.32238e-06
3.85708e-08
-4.34544e-06
-5.89516e-07
-4.36685e-06
-1.22873e-06
-4.38319e-06
-1.87998e-06
-4.38943e-06
-2.54293e-06
-4.3789e-06
-3.21528e-06
-4.34329e-06
-3.892e-06
-4.27285e-06
-4.56442e-06
-4.15678e-06
-5.21914e-06
-3.98397e-06
-5.83688e-06
-3.74412e-06
-6.39139e-06
-3.42946e-06
-6.84853e-06
-3.03695e-06
-7.1658e-06
-2.57105e-06
-7.29295e-06
-2.04664e-06
-7.17386e-06
-1.49167e-06
-6.75057e-06
-9.48617e-07
-5.96942e-06
-4.73915e-07
-4.78908e-06
-1.34395e-07
-3.18951e-06
-1.18253e-06
-1.27003e-07
1.19955e-06
-4.4321e-07
3.20043e-06
-8.7739e-07
4.76302e-06
-1.36407e-06
5.89272e-06
-1.85108e-06
6.62805e-06
-2.3017e-06
7.02415e-06
-2.69375e-06
7.142e-06
-3.01705e-06
7.04103e-06
-3.2703e-06
6.77458e-06
-3.45823e-06
6.38774e-06
-3.58912e-06
5.91691e-06
-3.67297e-06
5.39025e-06
-3.72026e-06
4.82872e-06
-3.74104e-06
4.24722e-06
-3.74449e-06
3.6557e-06
-3.73861e-06
3.06021e-06
-3.73009e-06
2.46375e-06
-3.72431e-06
1.86702e-06
-3.72528e-06
1.26901e-06
-3.73567e-06
6.67547e-07
-3.75679e-06
5.96924e-08
-3.78852e-06
-5.5779e-07
-3.82921e-06
-1.18804e-06
-3.87559e-06
-1.83361e-06
-3.92257e-06
-2.49595e-06
-3.96312e-06
-3.17473e-06
-3.98817e-06
-3.86696e-06
-3.98658e-06
-4.56602e-06
-3.94538e-06
-5.26034e-06
-3.85032e-06
-5.93193e-06
-3.68695e-06
-6.55477e-06
-3.44233e-06
-7.09315e-06
-3.10766e-06
-7.50047e-06
-2.68172e-06
-7.71889e-06
-2.17498e-06
-7.6806e-06
-1.61379e-06
-7.31175e-06
-1.04356e-06
-6.53965e-06
-5.2937e-07
-5.30327e-06
-1.5235e-07
-3.56653e-06
-1.33488e-06
-1.45701e-07
1.34525e-06
-4.99599e-07
3.55433e-06
-9.70893e-07
5.23431e-06
-1.47933e-06
6.40116e-06
-1.96488e-06
7.1136e-06
-2.3891e-06
7.44837e-06
-2.73231e-06
7.48521e-06
-2.98915e-06
7.29787e-06
-3.16398e-06
6.94941e-06
-3.26696e-06
6.49072e-06
-3.31109e-06
5.96104e-06
-3.31017e-06
5.38933e-06
-3.27752e-06
4.79607e-06
-3.22524e-06
4.19495e-06
-3.16391e-06
3.59438e-06
-3.10245e-06
2.99875e-06
-3.04814e-06
2.40945e-06
-3.00676e-06
1.82564e-06
-2.98261e-06
1.24486e-06
-2.97864e-06
6.63577e-07
-2.99644e-06
7.74963e-08
-3.03623e-06
-5.18001e-07
-3.09673e-06
-1.12753e-06
-3.17502e-06
-1.75532e-06
-3.2663e-06
-2.40467e-06
-3.36361e-06
-3.07741e-06
-3.45759e-06
-3.77298e-06
-3.5362e-06
-4.48741e-06
-3.5847e-06
-5.21183e-06
-3.58593e-06
-5.9307e-06
-3.52107e-06
-6.61962e-06
-3.37133e-06
-7.24289e-06
-3.12067e-06
-7.75113e-06
-2.75996e-06
-8.0796e-06
-2.29246e-06
-8.1481e-06
-1.74015e-06
-7.86407e-06
-1.14949e-06
-7.1303e-06
-5.94584e-07
-5.85818e-06
-1.74345e-07
-3.98677e-06
-1.50923e-06
-1.7027e-07
1.51552e-06
-5.70325e-07
3.95439e-06
-1.08174e-06
5.74573e-06
-1.6056e-06
6.92502e-06
-2.07407e-06
7.58207e-06
-2.44932e-06
7.82362e-06
-2.7173e-06
7.75319e-06
-2.88037e-06
7.46094e-06
-2.95072e-06
7.01975e-06
-2.94532e-06
6.48533e-06
-2.88257e-06
5.89829e-06
-2.7802e-06
5.28696e-06
-2.65419e-06
4.67006e-06
-2.51832e-06
4.05907e-06
-2.38407e-06
3.46013e-06
-2.26082e-06