/*--------------------------------*- C++ -*----------------------------------*\
  =========                 |
  \\      /  F ield         | OpenFOAM: The Open Source CFD Toolbox
   \\    /   O peration     | Website:  https://openfoam.org
    \\  /    A nd           | Version:  7
     \\/     M anipulation  |
\*---------------------------------------------------------------------------*/
FoamFile
{
    version     2.0;
    format      ascii;
    class       volVectorField;
    location    "0.04";
    object      U;
}
// * * * * * * * * * * * * * * * * * * * * * * * * * * * * * * * * * * * * * //

dimensions      [0 1 -1 0 0 0 0];

internalField   nonuniform List<vector> 
1600
(
(5.17536e-05 -5.12097e-05 0)
(0.000127733 -4.48083e-05 0)
(0.000117041 -7.00077e-08 0)
(-2.47123e-05 5.06002e-05 0)
(-0.000300185 9.69385e-05 0)
(-0.000693518 0.000135378 0)
(-0.00118288 0.000165064 0)
(-0.00174527 0.000186264 0)
(-0.0023576 0.000199492 0)
(-0.00299802 0.000205507 0)
(-0.0036463 0.000205111 0)
(-0.00428387 0.000198983 0)
(-0.00489401 0.000187811 0)
(-0.00546191 0.000172247 0)
(-0.00597454 0.00015284 0)
(-0.0064207 0.00013015 0)
(-0.006791 0.000104778 0)
(-0.00707772 7.72938e-05 0)
(-0.00727487 4.82106e-05 0)
(-0.00737822 1.80244e-05 0)
(-0.00738526 -1.2736e-05 0)
(-0.00729525 -4.34927e-05 0)
(-0.00710935 -7.3632e-05 0)
(-0.00683065 -0.000102513 0)
(-0.00646432 -0.000129466 0)
(-0.00601764 -0.000153794 0)
(-0.0055001 -0.000174768 0)
(-0.00492345 -0.000191636 0)
(-0.00430164 -0.000203643 0)
(-0.00365082 -0.000210042 0)
(-0.00298921 -0.000210105 0)
(-0.00233694 -0.000203138 0)
(-0.00171574 -0.000188503 0)
(-0.00114861 -0.00016564 0)
(-0.000659109 -0.000134166 0)
(-0.000270373 -9.41381e-05 0)
(-3.19606e-06 -4.67587e-05 0)
(0.000128481 4.09114e-06 0)
(0.00013078 4.74249e-05 0)
(5.13925e-05 5.12587e-05 0)
(4.73477e-05 -0.000128674 0)
(4.63022e-05 -4.1984e-05 0)
(-0.000189907 0.000179078 0)
(-0.00071945 0.000428757 0)
(-0.00154728 0.000664393 0)
(-0.00264684 0.000867174 0)
(-0.00397454 0.00102878 0)
(-0.00547917 0.00114701 0)
(-0.00710704 0.00122252 0)
(-0.00880471 0.00125741 0)
(-0.010521 0.0012547 0)
(-0.0122086 0.00121771 0)
(-0.0138238 0.00114995 0)
(-0.0153276 0.00105497 0)
(-0.0166851 0.000936254 0)
(-0.0178667 0.000797277 0)
(-0.0188471 0.000641512 0)
(-0.0196057 0.000472379 0)
(-0.0201263 0.000293245 0)
(-0.0203978 0.000107489 0)
(-0.0204138 -8.14095e-05 0)
(-0.0201726 -0.00026983 0)
(-0.0196777 -0.000453998 0)
(-0.0189377 -0.000629991 0)
(-0.0179668 -0.000793733 0)
(-0.0167847 -0.000941012 0)
(-0.0154167 -0.00106752 0)
(-0.0138939 -0.00116893 0)
(-0.012253 -0.00124096 0)
(-0.010536 -0.00127955 0)
(-0.00878974 -0.00128093 0)
(-0.00706541 -0.00124186 0)
(-0.00541719 -0.00115981 0)
(-0.00390093 -0.00103343 0)
(-0.00257177 -0.000863152 0)
(-0.00148076 -0.000652696 0)
(-0.000669405 -0.000411819 0)
(-0.000160434 -0.000161442 0)
(5.71806e-05 5.41289e-05 0)
(4.86288e-05 0.00013124 0)
(5.3301e-06 -0.00012356 0)
(-0.000167355 0.000190607 0)
(-0.000730234 0.000742221 0)
(-0.00171211 0.00135146 0)
(-0.00310518 0.00193252 0)
(-0.00487402 0.0024396 0)
(-0.00696096 0.00284938 0)
(-0.00929577 0.00315217 0)
(-0.011803 0.00334638 0)
(-0.0144065 0.00343524 0)
(-0.0170319 0.00342474 0)
(-0.0196092 0.00332252 0)
(-0.0220737 0.00313723 0)
(-0.0243666 0.00287795 0)
(-0.0264358 0.00255392 0)
(-0.028236 0.00217446 0)
(-0.0297291 0.00174897 0)
(-0.0308835 0.00128676 0)
(-0.0316752 0.000797216 0)
(-0.032087 0.000289795 0)
(-0.0321093 -0.000225811 0)
(-0.03174 -0.000739619 0)
(-0.0309847 -0.0012413 0)
(-0.0298567 -0.00172014 0)
(-0.0283776 -0.00216512 0)
(-0.0265775 -0.0025649 0)
(-0.0244948 -0.00290802 0)
(-0.0221762 -0.00318307 0)
(-0.0196767 -0.00337899 0)
(-0.0170589 -0.00348541 0)
(-0.014392 -0.00349309 0)
(-0.0117509 -0.00339452 0)
(-0.00921436 -0.00318473 0)
(-0.00686206 -0.00286244 0)
(-0.00477136 -0.00243194 0)
(-0.00301232 -0.00190626 0)
(-0.00164034 -0.00131263 0)
(-0.000685992 -0.000700897 0)
(-0.00014919 -0.000160153 0)
(8.28724e-06 0.000133497 0)
(-4.30027e-05 7.84927e-06 0)
(-0.000414604 0.000714304 0)
(-0.00134588 0.00172405 0)
(-0.00281142 0.00280335 0)
(-0.00477802 0.00382785 0)
(-0.00719746 0.00472404 0)
(-0.00999805 0.00545081 0)
(-0.0130941 0.00598879 0)
(-0.0163936 0.00633244 0)
(-0.0198023 0.00648516 0)
(-0.0232283 0.00645611 0)
(-0.0265837 0.00625801 0)
(-0.0297871 0.00590577 0)
(-0.0327642 0.0054156 0)
(-0.0354485 0.00480441 0)
(-0.0377824 0.00408943 0)
(-0.039717 0.00328807 0)
(-0.0412122 0.00241783 0)
(-0.0422369 0.00149638 0)
(-0.0427695 0.000541652 0)
(-0.0427977 -0.000428045 0)
(-0.0423189 -0.00139391 0)
(-0.0413403 -0.00233654 0)
(-0.0398793 -0.00323593 0)
(-0.0379636 -0.00407152 0)
(-0.0356316 -0.00482233 0)
(-0.0329322 -0.00546725 0)
(-0.0299249 -0.00598544 0)
(-0.0266793 -0.00635686 0)
(-0.0232743 -0.00656301 0)
(-0.0197969 -0.0065878 0)
(-0.0163407 -0.00641874 0)
(-0.0130034 -0.00604842 0)
(-0.00988316 -0.00547672 0)
(-0.00707502 -0.00471379 0)
(-0.00466494 -0.0037849 0)
(-0.00272205 -0.0027377 0)
(-0.0012892 -0.0016523 0)
(-0.000390424 -0.000658745 0)
(-3.86891e-05 1.31158e-05 0)
(-8.89301e-05 0.000273121 0)
(-0.000660854 0.00154764 0)
(-0.00197109 0.00313993 0)
(-0.0039303 0.00478402 0)
(-0.00647167 0.00632638 0)
(-0.00952953 0.00767048 0)
(-0.0130164 0.00875863 0)
(-0.0168314 0.00956142 0)
(-0.0208674 0.010069 0)
(-0.0250157 0.0102846 0)
(-0.0291694 0.0102207 0)
(-0.0332266 0.0098954 0)
(-0.0370923 0.00933078 0)
(-0.0406794 0.00855134 0)
(-0.0439103 0.00758289 0)
(-0.0467172 0.00645208 0)
(-0.0490426 0.00518599 0)
(-0.0508392 0.00381205 0)
(-0.0520706 0.00235799 0)
(-0.0527111 0.000851997 0)
(-0.0527463 -0.000677143 0)
(-0.0521731 -0.0021999 0)
(-0.0510001 -0.00368588 0)
(-0.0492476 -0.00510382 0)
(-0.0469482 -0.00642167 0)
(-0.0441469 -0.00760687 0)
(-0.0409012 -0.00862678 0)
(-0.0372806 -0.00944935 0)
(-0.0333665 -0.010044 0)
(-0.029251 -0.0103827 0)
(-0.0250356 -0.0104417 0)
(-0.0208291 -0.0102027 0)
(-0.0167449 -0.00965613 0)
(-0.0128971 -0.00880327 0)
(-0.00939651 -0.00766093 0)
(-0.00634495 -0.00626702 0)
(-0.00382749 -0.00468879 0)
(-0.00190425 -0.00303293 0)
(-0.0006315 -0.00146151 0)
(-8.32155e-05 -0.000237857 0)
(-0.000130226 0.000664836 0)
(-0.000894734 0.00268795 0)
(-0.00257941 0.00499275 0)
(-0.00503045 0.00729706 0)
(-0.00814349 0.00942755 0)
(-0.0118314 0.0112702 0)
(-0.0159885 0.0127541 0)
(-0.0204976 0.0138413 0)
(-0.025237 0.0145182 0)
(-0.0300842 0.0147886 0)
(-0.0349196 0.0146684 0)
(-0.039629 0.0141821 0)
(-0.0441062 0.0133596 0)
(-0.0482539 0.0122347 0)
(-0.051985 0.0108432 0)
(-0.0552236 0.00922247 0)
(-0.0579052 0.00741057 0)
(-0.0599769 0.0054462 0)
(-0.0613976 0.0033686 0)
(-0.0621386 0.00121766 0)
(-0.0621835 -0.000965859 0)
(-0.0615287 -0.00314018 0)
(-0.0601834 -0.00526235 0)
(-0.0581704 -0.00728826 0)
(-0.0555257 -0.00917277 0)
(-0.0522997 -0.0108701 0)
(-0.0485563 -0.0123346 0)
(-0.0443733 -0.0135213 0)
(-0.0398417 -0.0143878 0)
(-0.0350645 -0.0148954 0)
(-0.0301554 -0.0150113 0)
(-0.0252364 -0.014711 0)
(-0.0204352 -0.0139819 0)
(-0.0158808 -0.0128265 0)
(-0.0116998 -0.0112675 0)
(-0.00801136 -0.00935452 0)
(-0.00491927 -0.0071717 0)
(-0.00250493 -0.00484732 0)
(-0.000860893 -0.00256686 0)
(-0.000123221 -0.000612527 0)
(-0.000167187 0.00117345 0)
(-0.0011145 0.00412448 0)
(-0.0031643 0.00727567 0)
(-0.00610093 0.0103382 0)
(-0.00978145 0.0131271 0)
(-0.0140946 0.0155162 0)
(-0.0189143 0.017425 0)
(-0.0241055 0.0188101 0)
(-0.029531 0.0196557 0)
(-0.035055 0.0199674 0)
(-0.0405456 0.0197657 0)
(-0.0458779 0.0190821 0)
(-0.0509356 0.0179556 0)
(-0.0556129 0.0164301 0)
(-0.0598149 0.0145527 0)
(-0.0634591 0.0123723 0)
(-0.0664753 0.00993922 0)
(-0.0688059 0.00730444 0)
(-0.0704062 0.00451982 0)
(-0.0712447 0.0016381 0)
(-0.0713034 -0.00128685 0)
(-0.0705779 -0.00419982 0)
(-0.0690778 -0.00704407 0)
(-0.0668271 -0.00976136 0)
(-0.0638647 -0.0122922 0)
(-0.0602446 -0.0145761 0)
(-0.056036 -0.0165531 0)
(-0.0513231 -0.018164 0)
(-0.0462048 -0.019353 0)
(-0.0407937 -0.0200693 0)
(-0.0352142 -0.02027 0)
(-0.0296008 -0.0199233 0)
(-0.0240947 -0.019012 0)
(-0.0188402 -0.0175389 0)
(-0.013981 -0.015531 0)
(-0.00965521 -0.0130473 0)
(-0.00598819 -0.0101856 0)
(-0.00308548 -0.00709102 0)
(-0.00107728 -0.00396561 0)
(-0.000159053 -0.00110192 0)
(-0.000201052 0.00179133 0)
(-0.00132314 0.00584653 0)
(-0.00372953 0.00998019 0)
(-0.0071464 0.0139022 0)
(-0.0113922 0.0174213 0)
(-0.0163302 0.0204044 0)
(-0.0218117 0.0227656 0)
(-0.0276823 0.0244587 0)
(-0.0337885 0.0254685 0)
(-0.0399804 0.0258041 0)
(-0.0461143 0.0254922 0)
(-0.0520547 0.024573 0)
(-0.0576766 0.0230953 0)
(-0.0628664 0.0211147 0)
(-0.0675228 0.0186901 0)
(-0.0715579 0.0158834 0)
(-0.0748967 0.0127578 0)
(-0.0774779 0.00937745 0)
(-0.0792538 0.00580779 0)
(-0.0801906 0.0021152 0)
(-0.0802685 -0.00163251 0)
(-0.0794824 -0.00536582 0)
(-0.0778415 -0.00901329 0)
(-0.0753706 -0.0125016 0)
(-0.0721101 -0.0157556 0)
(-0.0681167 -0.0186993 0)
(-0.0634634 -0.0212567 0)
(-0.0582397 -0.0233532 0)
(-0.0525512 -0.0249181 0)
(-0.0465188 -0.025887 0)
(-0.0402771 -0.0262052 0)
(-0.0339725 -0.0258317 0)
(-0.0277603 -0.0247435 0)
(-0.0218011 -0.022941 0)
(-0.016257 -0.0204538 0)
(-0.0112874 -0.0173474 0)
(-0.00704149 -0.0137298 0)
(-0.00365102 -0.00975889 0)
(-0.00128398 -0.00564891 0)
(-0.00019189 -0.0016988 0)
(-0.000233028 0.00251318 0)
(-0.00152518 0.00784666 0)
(-0.0042836 0.0131008 0)
(-0.00817928 0.0179868 0)
(-0.0129926 0.0223109 0)
(-0.0185599 0.025937 0)
(-0.0247088 0.0287778 0)
(-0.0312638 0.0307875 0)
(-0.038054 0.0319546 0)
(-0.0449147 0.0322939 0)
(-0.0516899 0.0318408 0)
(-0.0582342 0.0306452 0)
(-0.0644142 0.028768 0)
(-0.0701094 0.0262771 0)
(-0.075213 0.0232449 0)
(-0.0796323 0.0197468 0)
(-0.0832888 0.0158597 0)
(-0.086118 0.0116619 0)
(-0.0880699 0.00723286 0)
(-0.0891084 0.00265314 0)
(-0.0892124 -0.00199492 0)
(-0.0883753 -0.00662689 0)
(-0.0866059 -0.011156 0)
(-0.0839287 -0.015493 0)
(-0.0803848 -0.0195464 0)
(-0.0760323 -0.0232233 0)
(-0.070947 -0.0264306 0)
(-0.0652225 -0.0290769 0)
(-0.0589701 -0.0310747 0)
(-0.0523183 -0.0323443 0)
(-0.0454116 -0.0328172 0)
(-0.0384085 -0.032441 0)
(-0.0314789 -0.0311843 0)
(-0.0248008 -0.029043 0)
(-0.0185568 -0.0260462 0)
(-0.0129299 -0.0222628 0)
(-0.00809506 -0.0178083 0)
(-0.00421183 -0.01285 0)
(-0.00148614 -0.00761193 0)
(-0.000223078 -0.00239875 0)
(-0.000264204 0.00333647 0)
(-0.00172534 0.0101218 0)
(-0.00483663 0.0166371 0)
(-0.00921531 0.0225951 0)
(-0.0146038 0.027802 0)
(-0.0208108 0.0321221 0)
(-0.0276384 0.0354701 0)
(-0.0348891 0.0378044 0)
(-0.0423731 0.03912 0)
(-0.0499103 0.0394407 0)
(-0.0573322 0.0388125 0)
(-0.0644831 0.0372979 0)
(-0.0712218 0.034971 0)
(-0.0774215 0.031914 0)
(-0.0829706 0.0282136 0)
(-0.0877729 0.0239597 0)
(-0.0917466 0.0192438 0)
(-0.0948252 0.0141589 0)
(-0.0969563 0.00879852 0)
(-0.0981023 0.00325804 0)
(-0.0982404 -0.00236545 0)
(-0.0973625 -0.00797231 0)
(-0.0954762 -0.01346 0)
(-0.092605 -0.0187228 0)
(-0.0887898 -0.0236522 0)
(-0.084089 -0.0281374 0)
(-0.07858 -0.0320669 0)
(-0.0723594 -0.0353306 0)
(-0.0655433 -0.0378229 0)
(-0.0582671 -0.0394463 0)
(-0.0506851 -0.0401159 0)
(-0.042968 -0.0397652 0)
(-0.0353016 -0.0383518 0)
(-0.0278826 -0.0358637 0)
(-0.020916 -0.0323263 0)
(-0.0146103 -0.0278092 0)
(-0.00916879 -0.0224322 0)
(-0.0047803 -0.01637 0)
(-0.00168937 -0.00985554 0)
(-0.000253894 -0.00320046 0)
(-0.000295571 0.00426133 0)
(-0.00192818 0.0126741 0)
(-0.00539889 0.0205944 0)
(-0.0102711 0.0277359 0)
(-0.0162485 0.0339064 0)
(-0.0231111 0.0389733 0)
(-0.0306344 0.0428566 0)
(-0.0385971 0.0455227 0)
(-0.0467895 0.0469763 0)
(-0.0550153 0.0472536 0)
(-0.0630931 0.0464141 0)
(-0.0708573 0.0445353 0)
(-0.0781588 0.0417068 0)
(-0.0848654 0.0380265 0)
(-0.0908616 0.0335968 0)
(-0.096048 0.0285231 0)
(-0.100341 0.0229123 0)
(-0.103672 0.0168719 0)
(-0.105987 0.0105104 0)
(-0.107248 0.00393756 0)
(-0.107429 -0.00273453 0)
(-0.106522 -0.00939103 0)
(-0.104531 -0.0159135 0)
(-0.101478 -0.0221794 0)
(-0.0974035 -0.0280625 0)
(-0.0923645 -0.0334333 0)
(-0.0864387 -0.0381606 0)
(-0.0797245 -0.0421141 0)
(-0.072342 -0.0451675 0)
(-0.064433 -0.0472032 0)
(-0.0561609 -0.0481171 0)
(-0.0477094 -0.0478252 0)
(-0.0392807 -0.0462703 0)
(-0.0310919 -0.0434293 0)
(-0.0233723 -0.0393203 0)
(-0.0163585 -0.0340102 0)
(-0.010284 -0.0276207 0)
(-0.00536941 -0.0203324 0)
(-0.00189927 -0.0123869 0)
(-0.00028551 -0.00410571 0)
(-0.00032799 0.00529016 0)
(-0.00213788 0.0155107 0)
(-0.00598015 0.0249844 0)
(-0.0113626 0.0334247 0)
(-0.0179488 0.0406421 0)
(-0.0254885 0.0465099 0)
(-0.0337289 0.0509565 0)
(-0.0424236 0.0539598 0)
(-0.051342 0.0555387 0)
(-0.0602708 0.0557449 0)
(-0.0690155 0.0546549 0)
(-0.0774004 0.052364 0)
(-0.0852695 0.0489796 0)
(-0.0924857 0.0446172 0)
(-0.0989303 0.0393965 0)
(-0.104502 0.0334393 0)
(-0.109116 0.0268681 0)
(-0.112703 0.0198057 0)
(-0.115208 0.012375 0)
(-0.116591 0.00470044 0)
(-0.116826 -0.00309148 0)
(-0.115901 -0.0108709 0)
(-0.113819 -0.0185035 0)
(-0.1106 -0.02585 0)
(-0.106279 -0.032766 0)
(-0.100914 -0.0391023 0)
(-0.0945799 -0.0447071 0)
(-0.0873761 -0.0494277 0)
(-0.0794251 -0.053115 0)
(-0.0708742 -0.055628 0)
(-0.0618959 -0.0568402 0)
(-0.0526868 -0.0566463 0)
(-0.0434661 -0.05497 0)
(-0.0344732 -0.0517729 0)
(-0.0259634 -0.0470619 0)
(-0.0182042 -0.0408978 0)
(-0.0114622 -0.0334017 0)
(-0.00599198 -0.0247587 0)
(-0.00212122 -0.0152197 0)
(-0.00031899 -0.00511921 0)
(-0.00036225 0.00642752 0)
(-0.00235824 0.0186434 0)
(-0.00658946 0.0298243 0)
(-0.0125049 0.0396827 0)
(-0.0197254 0.0480326 0)
(-0.0279683 0.0547555 0)
(-0.0369507 0.0597922 0)
(-0.0463998 0.0631361 0)
(-0.0560626 0.064824 0)
(-0.0657087 0.0649275 0)
(-0.0751298 0.0635441 0)
(-0.0841411 0.0607897 0)
(-0.09258 0.0567925 0)
(-0.100306 0.0516876 0)
(-0.107197 0.0456135 0)
(-0.113153 0.0387092 0)
(-0.118088 0.0311136 0)
(-0.121933 0.0229644 0)
(-0.124632 0.0143991 0)
(-0.126146 0.00555602 0)
(-0.126445 -0.0034244 0)
(-0.125517 -0.0123979 0)
(-0.12336 -0.0212148 0)
(-0.119992 -0.0297192 0)
(-0.115443 -0.0377483 0)
(-0.109768 -0.0451328 0)
(-0.103038 -0.0516987 0)
(-0.095353 -0.0572693 0)
(-0.0868351 -0.0616699 0)
(-0.0776364 -0.064733 0)
(-0.0679373 -0.0663054 0)
(-0.0579472 -0.0662559 0)
(-0.0479033 -0.0644847 0)
(-0.038068 -0.0609329 0)
(-0.0287255 -0.0555918 0)
(-0.0201763 -0.0485121 0)
(-0.0127239 -0.0398114 0)
(-0.00666032 -0.0296782 0)
(-0.00236028 -0.0183735 0)
(-0.000355309 -0.00624843 0)
(-0.000398999 0.00767984 0)
(-0.00259264 0.0220882 0)
(-0.00723498 0.035137 0)
(-0.0137114 0.0465365 0)
(-0.0215964 0.056106 0)
(-0.0305724 0.0637377 0)
(-0.0403242 0.0693885 0)
(-0.0505503 0.0730721 0)
(-0.060975 0.0748481 0)
(-0.0713495 0.0748125 0)
(-0.0814529 0.0730877 0)
(-0.091091 0.0698145 0)
(-0.100096 0.0651445 0)
(-0.108325 0.0592348 0)
(-0.115657 0.0522442 0)
(-0.12199 0.0443302 0)
(-0.127241 0.0356479 0)
(-0.131341 0.0263502 0)
(-0.134237 0.0165884 0)
(-0.135888 0.0065138 0)
(-0.136263 -0.00372006 0)
(-0.135348 -0.0139555 0)
(-0.133137 -0.0240284 0)
(-0.129641 -0.0337667 0)
(-0.124889 -0.0429896 0)
(-0.118927 -0.0515072 0)
(-0.111823 -0.0591219 0)
(-0.103671 -0.0656312 0)
(-0.0945957 -0.0708319 0)
(-0.0847495 -0.0745265 0)
(-0.0743199 -0.0765303 0)
(-0.0635286 -0.0766812 0)
(-0.0526309 -0.0748501 0)
(-0.0419136 -0.0709518 0)
(-0.0316915 -0.0649566 0)
(-0.022302 -0.0569003 0)
(-0.0140888 -0.046894 0)
(-0.00738611 -0.035128 0)
(-0.00262124 -0.0218742 0)
(-0.00039536 -0.00750341 0)
(-0.000438753 0.00905517 0)
(-0.00284407 0.0258649 0)
(-0.00792403 0.0409498 0)
(-0.0149941 0.0540177 0)
(-0.0235778 0.0648942 0)
(-0.0333192 0.073486 0)
(-0.0438679 0.0797707 0)
(-0.0548922 0.0837872 0)
(-0.0660922 0.0856237 0)
(-0.0772009 0.0854058 0)
(-0.0879847 0.0832859 0)
(-0.0982419 0.0794335 0)
(-0.107801 0.0740271 0)
(-0.116518 0.0672486 0)
(-0.124274 0.0592784 0)
(-0.130969 0.0502933 0)
(-0.136523 0.0404651 0)
(-0.140872 0.0299613 0)
(-0.143963 0.018946 0)
(-0.145755 0.00758254 0)
(-0.146218 -0.00396411 0)
(-0.145333 -0.0155243 0)
(-0.143091 -0.0269207 0)
(-0.139498 -0.0379664 0)
(-0.134574 -0.0484627 0)
(-0.128358 -0.0581991 0)
(-0.12091 -0.0669537 0)
(-0.112321 -0.0744963 0)
(-0.102707 -0.0805922 0)
(-0.0922239 -0.0850094 0)
(-0.0810631 -0.087527 0)
(-0.0694571 -0.0879459 0)
(-0.057679 -0.0861008 0)
(-0.0460409 -0.0818736 0)
(-0.0348908 -0.0752068 0)
(-0.0246059 -0.066116 0)
(-0.0155753 -0.0547011 0)
(-0.00818042 -0.0411525 0)
(-0.00290861 -0.025753 0)
(-0.000439981 -0.00889662 0)
(-0.000482014 0.0105631 0)
(-0.00311536 0.0299968 0)
(-0.00866333 0.0472947 0)
(-0.0163637 0.0621614 0)
(-0.0256831 0.0744317 0)
(-0.0362231 0.0840307 0)
(-0.0475948 0.0909622 0)
(-0.0594342 0.0952967 0)
(-0.071416 0.0971572 0)
(-0.0832554 0.0967054 0)
(-0.094707 0.094129 0)
(-0.105563 0.0896311 0)
(-0.11565 0.083421 0)
(-0.124827 0.0757076 0)
(-0.132978 0.0666951 0)
(-0.140009 0.0565802 0)
(-0.145845 0.0455514 0)
(-0.150426 0.0337898 0)
(-0.153703 0.0214714 0)
(-0.155638 0.00876941 0)
(-0.156199 -0.00414143 0)
(-0.155365 -0.0170815 0)
(-0.153122 -0.0298624 0)
(-0.149468 -0.0422836 0)
(-0.144414 -0.05413 0)
(-0.137988 -0.0651706 0)
(-0.130243 -0.0751588 0)
(-0.121257 -0.0838345 0)
(-0.111141 -0.0909288 0)
(-0.100047 -0.0961709 0)
(-0.0881674 -0.0992978 0)
(-0.0757442 -0.100066 0)
(-0.0630671 -0.0982674 0)
(-0.050474 -0.0937416 0)
(-0.038348 -0.0863955 0)
(-0.0271102 -0.0762174 0)
(-0.0172002 -0.0632907 0)
(-0.00905374 -0.0478024 0)
(-0.00322678 -0.0300463 0)
(-0.000489988 -0.0104428 0)
(-0.000529337 0.0122146 0)
(-0.00340925 0.0345103 0)
(-0.0094592 0.0542069 0)
(-0.0178298 0.071006 0)
(-0.0279236 0.0847543 0)
(-0.0392945 0.095401 0)
(-0.0515112 0.102983 0)
(-0.0641752 0.107609 0)
(-0.0769351 0.109445 0)
(-0.0894884 0.108697 0)
(-0.10158 0.105594 0)
(-0.112998 0.100377 0)
(-0.123571 0.0932914 0)
(-0.133161 0.0845758 0)
(-0.141662 0.0744597 0)
(-0.148986 0.0631603 0)
(-0.155069 0.0508824 0)
(-0.159855 0.0378198 0)
(-0.163303 0.0241582 0)
(-0.165377 0.0100789 0)
(-0.166045 -0.00423645 0)
(-0.165284 -0.0186009 0)
(-0.163074 -0.0328174 0)
(-0.159404 -0.0466743 0)
(-0.154275 -0.0599417 0)
(-0.147701 -0.0723691 0)
(-0.139721 -0.0836849 0)
(-0.1304 -0.0935982 0)
(-0.119838 -0.101802 0)
(-0.108177 -0.107984 0)
(-0.0956106 -0.11183 0)
(-0.0823839 -0.113047 0)
(-0.0688019 -0.111372 0)
(-0.0552282 -0.106595 0)
(-0.0420825 -0.0985751 0)
(-0.0298342 -0.0872655 0)
(-0.0189795 -0.0727257 0)
(-0.0100162 -0.0551348 0)
(-0.00358007 -0.034796 0)
(-0.00054621 -0.0121589 0)
(-0.000581312 0.0140221 0)
(-0.00372855 0.0394351 0)
(-0.0103179 0.061725 0)
(-0.0194014 0.0805915 0)
(-0.0303088 0.0958973 0)
(-0.0425398 0.107622 0)
(-0.055617 0.115844 0)
(-0.0691042 0.120721 0)
(-0.0826236 0.122471 0)
(-0.0958563 0.12135 0)
(-0.108539 0.117638 0)
(-0.120461 0.111622 0)
(-0.131454 0.103584 0)
(-0.141391 0.0937983 0)
(-0.150175 0.0825197 0)
(-0.157732 0.069987 0)
(-0.164009 0.0564203 0)
(-0.168961 0.0420245 0)
(-0.172553 0.0269929 0)
(-0.174755 0.0115116 0)
(-0.175537 -0.00423376 0)
(-0.174872 -0.0200524 0)
(-0.172735 -0.035742 0)
(-0.169105 -0.0510829 0)
(-0.163968 -0.0658328 0)
(-0.157325 -0.0797237 0)
(-0.149194 -0.0924597 0)
(-0.139624 -0.103718 0)
(-0.128696 -0.113151 0)
(-0.116541 -0.120398 0)
(-0.103343 -0.125092 0)
(-0.089349 -0.126876 0)
(-0.0748749 -0.125424 0)
(-0.0603085 -0.120463 0)
(-0.0461077 -0.111795 0)
(-0.0327941 -0.0993225 0)
(-0.0209277 -0.0830733 0)
(-0.0110778 -0.0632119 0)
(-0.0039729 -0.0400486 0)
(-0.000609539 -0.0140644 0)
(-0.000638571 0.0159996 0)
(-0.00407632 0.0448036 0)
(-0.011246 0.0698908 0)
(-0.0210874 0.0909593 0)
(-0.0328467 0.107894 0)
(-0.0459622 0.120713 0)
(-0.0599048 0.129548 0)
(-0.0741988 0.134616 0)
(-0.0884396 0.136198 0)
(-0.102294 0.134613 0)
(-0.115494 0.130198 0)
(-0.127833 0.123291 0)
(-0.139153 0.114221 0)
(-0.149342 0.103296 0)
(-0.158318 0.0908007 0)
(-0.166025 0.0769939 0)
(-0.172423 0.0621105 0)
(-0.177483 0.046364 0)
(-0.181181 0.0299521 0)
(-0.183491 0.0130626 0)
(-0.184389 -0.00411907 0)
(-0.183845 -0.0214025 0)
(-0.181827 -0.0385844 0)
(-0.178302 -0.0554409 0)
(-0.173243 -0.0717213 0)
(-0.166629 -0.0871425 0)
(-0.158457 -0.101386 0)
(-0.148751 -0.114096 0)
(-0.137571 -0.124885 0)
(-0.125025 -0.133337 0)
(-0.111284 -0.139024 0)
(-0.0965874 -0.141517 0)
(-0.0812592 -0.140414 0)
(-0.065708 -0.135364 0)
(-0.0504301 -0.126095 0)
(-0.0360031 -0.112448 0)
(-0.0230585 -0.094403 0)
(-0.0122486 -0.0721012 0)
(-0.00441 -0.0458557 0)
(-0.000680995 -0.0161807 0)
(-0.00070186 0.0181626 0)
(-0.00445619 0.050652 0)
(-0.0122513 0.0787487 0)
(-0.0228977 0.102151 0)
(-0.035545 0.120773 0)
(-0.0495614 0.134685 0)
(-0.0643604 0.144081 0)
(-0.0794242 0.149256 0)
(-0.0943226 0.150566 0)
(-0.108711 0.148404 0)
(-0.122322 0.143177 0)
(-0.134958 0.13528 0)
(-0.146479 0.125093 0)
(-0.156793 0.112962 0)
(-0.165839 0.0992016 0)
(-0.173583 0.0840913 0)
(-0.180007 0.0678781 0)
(-0.185099 0.0507818 0)
(-0.188847 0.0330007 0)
(-0.191236 0.0147198 0)
(-0.192246 -0.00388034 0)
(-0.191846 -0.0226148 0)
(-0.189998 -0.0412843 0)
(-0.186657 -0.0596662 0)
(-0.181776 -0.0775057 0)
(-0.175314 -0.0945088 0)
(-0.167239 -0.110337 0)
(-0.157545 -0.124603 0)
(-0.146262 -0.136877 0)
(-0.133469 -0.146686 0)
(-0.119311 -0.153531 0)
(-0.104017 -0.156902 0)
(-0.0879062 -0.156305 0)
(-0.0714055 -0.151295 0)
(-0.055048 -0.141506 0)
(-0.0394708 -0.126697 0)
(-0.0253853 -0.106785 0)
(-0.0135392 -0.0818741 0)
(-0.00489664 -0.052274 0)
(-0.00076177 -0.0185322 0)
(-0.000772179 0.020529 0)
(-0.00487287 0.0570204 0)
(-0.0133432 0.0883466 0)
(-0.0248439 0.114209 0)
(-0.0384119 0.134559 0)
(-0.0533344 0.149534 0)
(-0.0689616 0.159411 0)
(-0.0847318 0.164578 0)
(-0.100191 0.165484 0)
(-0.114988 0.162611 0)
(-0.128863 0.156444 0)
(-0.141637 0.147448 0)
(-0.153192 0.136055 0)
(-0.163465 0.122654 0)
(-0.172424 0.10759 0)
(-0.180063 0.0911614 0)
(-0.186389 0.0736249 0)
(-0.191412 0.0552025 0)
(-0.195138 0.0360892 0)
(-0.197564 0.016462 0)
(-0.198675 -0.00350927 0)
(-0.198441 -0.0236507 0)
(-0.196819 -0.0437734 0)
(-0.193749 -0.063662 0)
(-0.189167 -0.0830637 0)
(-0.183003 -0.101679 0)
(-0.175195 -0.119153 0)
(-0.1657 -0.135072 0)
(-0.154506 -0.148961 0)
(-0.141656 -0.160288 0)
(-0.127259 -0.168476 0)
(-0.111517 -0.172923 0)
(-0.0947405 -0.173027 0)
(-0.0773626 -0.168225 0)
(-0.0599505 -0.158037 0)
(-0.0432034 -0.142114 0)
(-0.0279208 -0.120287 0)
(-0.0149613 -0.092606 0)
(-0.00543893 -0.0593652 0)
(-0.000853294 -0.0211462 0)
(-0.000850937 0.0231193 0)
(-0.00533276 0.0639545 0)
(-0.0145347 0.0987365 0)
(-0.0269415 0.127172 0)
(-0.0414573 0.149266 0)
(-0.0572759 0.16524 0)
(-0.0736776 0.175479 0)
(-0.0900563 0.180485 0)
(-0.105938 0.180821 0)
(-0.120973 0.177075 0)
(-0.134917 0.169824 0)
(-0.147619 0.159608 0)
(-0.158995 0.146919 0)
(-0.169017 0.132192 0)
(-0.177693 0.115799 0)
(-0.185049 0.0980554 0)
(-0.191123 0.0792257 0)
(-0.195952 0.0595291 0)
(-0.199563 0.0391516 0)
(-0.201968 0.0182565 0)
(-0.20316 -0.00300286 0)
(-0.203112 -0.0244709 0)
(-0.201774 -0.0459759 0)
(-0.199075 -0.0673171 0)
(-0.194929 -0.088251 0)
(-0.189236 -0.10848 0)
(-0.181898 -0.127639 0)
(-0.172829 -0.145291 0)
(-0.161968 -0.16092 0)
(-0.149306 -0.173933 0)
(-0.134905 -0.183669 0)
(-0.118927 -0.189421 0)
(-0.101654 -0.190462 0)
(-0.0835196 -0.186088 0)
(-0.0651156 -0.175674 0)
(-0.0472031 -0.158731 0)
(-0.0306786 -0.134975 0)
(-0.0165285 -0.104375 0)
(-0.00604428 -0.0671972 0)
(-0.000957333 -0.0240535 0)
(-0.000940147 0.025958 0)
(-0.00584481 0.071507 0)
(-0.0158435 0.109975 0)
(-0.0292111 0.141079 0)
(-0.0446941 0.164896 0)
(-0.0613781 0.18176 0)
(-0.0784673 0.192192 0)
(-0.0953123 0.196837 0)
(-0.111426 0.196399 0)
(-0.126471 0.191588 0)
(-0.140231 0.183088 0)
(-0.152595 0.171523 0)
(-0.163525 0.157451 0)
(-0.17304 0.14135 0)
(-0.181191 0.12362 0)
(-0.188047 0.10459 0)
(-0.193684 0.0845264 0)
(-0.198167 0.0636406 0)
(-0.201548 0.0421035 0)
(-0.203858 0.0200584 0)
(-0.205101 -0.00236513 0)
(-0.205253 -0.0250368 0)
(-0.20426 -0.04781 0)
(-0.202039 -0.0705069 0)
(-0.198481 -0.0929021 0)
(-0.193458 -0.114708 0)
(-0.186829 -0.135559 0)
(-0.178458 -0.155001 0)
(-0.168226 -0.172482 0)
(-0.156061 -0.187349 0)
(-0.141961 -0.198855 0)
(-0.126027 -0.206174 0)
(-0.1085 -0.208435 0)
(-0.0897907 -0.204767 0)
(-0.070507 -0.194363 0)
(-0.0514677 -0.176557 0)
(-0.0336733 -0.150905 0)
(-0.0182572 -0.117263 0)
(-0.00672208 -0.0758449 0)
(-0.00107617 -0.0272892 0)
(-0.00104273 0.0290753 0)
(-0.00642179 0.0797408 0)
(-0.0172942 0.122126 0)
(-0.0316813 0.155966 0)
(-0.0481396 0.181436 0)
(-0.06563 0.199019 0)
(-0.0832753 0.209414 0)
(-0.100387 0.213442 0)
(-0.116478 0.211977 0)
(-0.131236 0.205877 0)
(-0.144491 0.195945 0)
(-0.156186 0.182898 0)
(-0.166344 0.167361 0)
(-0.175039 0.149854 0)
(-0.182379 0.130803 0)
(-0.188481 0.110546 0)
(-0.193461 0.0893429 0)
(-0.197419 0.0673915 0)
(-0.200435 0.0448413 0)
(-0.20256 0.0218084 0)
(-0.203811 -0.00160866 0)
(-0.20417 -0.0253125 0)
(-0.203581 -0.0491901 0)
(-0.20195 -0.0730955 0)
(-0.199148 -0.0968313 0)
(-0.195015 -0.12013 0)
(-0.189367 -0.142637 0)
(-0.182011 -0.163892 0)
(-0.172763 -0.183314 0)
(-0.161473 -0.200196 0)
(-0.148056 -0.213702 0)
(-0.132533 -0.222882 0)
(-0.115078 -0.226699 0)
(-0.0960557 -0.224084 0)
(-0.0760705 -0.214007 0)
(-0.0559896 -0.195571 0)
(-0.0369218 -0.168122 0)
(-0.0201687 -0.131354 0)
(-0.00748482 -0.0853923 0)
(-0.00121293 -0.0308945 0)
(-0.00116297 0.0325093 0)
(-0.00708208 0.0887332 0)
(-0.0189221 0.135263 0)
(-0.0343913 0.171863 0)
(-0.0518165 0.198848 0)
(-0.0700149 0.216902 0)
(-0.0880257 0.226949 0)
(-0.105132 0.230038 0)
(-0.120864 0.227244 0)
(-0.134956 0.219597 0)
(-0.147305 0.208034 0)
(-0.157928 0.193372 0)
(-0.166922 0.1763 0)
(-0.174433 0.157381 0)
(-0.180629 0.137058 0)
(-0.185683 0.115668 0)
(-0.189755 0.0934613 0)
(-0.192984 0.0706126 0)
(-0.195479 0.0472425 0)
(-0.197312 0.0234328 0)
(-0.198516 -0.000756042 0)
(-0.199081 -0.0252673 0)
(-0.198951 -0.05003 0)
(-0.198024 -0.0749392 0)
(-0.196153 -0.0998366 0)
(-0.193147 -0.124488 0)
(-0.188781 -0.148561 0)
(-0.182801 -0.171602 0)
(-0.174949 -0.193017 0)
(-0.164984 -0.212054 0)
(-0.152722 -0.227792 0)
(-0.138077 -0.239151 0)
(-0.121123 -0.244913 0)
(-0.102149 -0.243778 0)
(-0.0817273 -0.234441 0)
(-0.0607538 -0.215713 0)
(-0.0404447 -0.186657 0)
(-0.022291 -0.146734 0)
(-0.00834977 -0.095935 0)
(-0.0013721 -0.0349181 0)
(-0.00130726 0.0363099 0)
(-0.00785238 0.0985815 0)
(-0.0207763 0.14947 0)
(-0.0373942 0.188793 0)
(-0.055752 0.217063 0)
(-0.0745041 0.235235 0)
(-0.0926101 0.244529 0)
(-0.109344 0.246276 0)
(-0.124279 0.241795 0)
(-0.137227 0.232313 0)
(-0.14818 0.218911 0)
(-0.157249 0.20251 0)
(-0.164622 0.183861 0)
(-0.170529 0.163557 0)
(-0.175207 0.14205 0)
(-0.178886 0.119669 0)
(-0.181776 0.0966415 0)
(-0.184053 0.0731131 0)
(-0.185853 0.049167 0)
(-0.187274 0.0248438 0)
(-0.188364 0.000159016 0)
(-0.189123 -0.0248784 0)
(-0.189498 -0.050247 0)
(-0.189384 -0.0758926 0)
(-0.18862 -0.101706 0)
(-0.186989 -0.1275 0)
(-0.184225 -0.152981 0)
(-0.180017 -0.17772 0)
(-0.174027 -0.201127 0)
(-0.165913 -0.222419 0)
(-0.155371 -0.240606 0)
(-0.142181 -0.254478 0)
(-0.126282 -0.262625 0)
(-0.107844 -0.263482 0)
(-0.0873635 -0.255415 0)
(-0.0657339 -0.236863 0)
(-0.0442671 -0.20651 0)
(-0.0246628 -0.163492 0)
(-0.0093415 -0.107584 0)
(-0.00156025 -0.03942 0)
(-0.00148536 0.0405441 0)
(-0.0087718 0.109411 0)
(-0.0229262 0.164849 0)
(-0.0407601 0.206766 0)
(-0.0599746 0.235962 0)
(-0.0790456 0.253767 0)
(-0.0968677 0.261785 0)
(-0.112739 0.2617 0)
(-0.126317 0.25512 0)
(-0.13753 0.24349 0)
(-0.146496 0.228047 0)
(-0.153447 0.209807 0)
(-0.15868 0.189574 0)
(-0.162516 0.16796 0)
(-0.165267 0.145411 0)
(-0.167224 0.122234 0)
(-0.16864 0.0986243 0)
(-0.169728 0.0746872 0)
(-0.170654 0.0504622 0)
(-0.171533 0.0259419 0)
(-0.172432 0.00109141 0)
(-0.173361 -0.0241337 0)
(-0.174276 -0.049768 0)
(-0.175072 -0.075816 0)
(-0.175581 -0.102229 0)
(-0.175569 -0.128879 0)
(-0.174736 -0.155529 0)
(-0.172716 -0.181796 0)
(-0.169095 -0.207116 0)
(-0.163425 -0.230704 0)
(-0.155264 -0.251517 0)
(-0.144232 -0.268234 0)
(-0.130086 -0.279246 0)
(-0.112826 -0.282697 0)
(-0.0928121 -0.276565 0)
(-0.0708839 -0.258819 0)
(-0.0484188 -0.227645 0)
(-0.0273371 -0.181714 0)
(-0.0104956 -0.120474 0)
(-0.00178719 -0.0444761 0)
(-0.00171246 0.0453047 0)
(-0.0098982 0.121388 0)
(-0.0254686 0.181515 0)
(-0.0445776 0.225762 0)
(-0.0645043 0.255352 0)
(-0.0835405 0.272133 0)
(-0.100551 0.278216 0)
(-0.114912 0.275715 0)
(-0.126423 0.266576 0)
(-0.13518 0.252481 0)
(-0.141464 0.234818 0)
(-0.145656 0.214686 0)
(-0.148176 0.192922 0)
(-0.149442 0.170137 0)
(-0.149841 0.146752 0)
(-0.149719 0.123038 0)
(-0.149372 0.0991428 0)
(-0.149039 0.0751241 0)
(-0.148909 0.0509699 0)
(-0.149117 0.0266203 0)
(-0.149741 0.00198591 0)
(-0.150806 -0.0230343 0)
(-0.152278 -0.0485352 0)
(-0.15406 -0.0745858 0)
(-0.155987 -0.101207 0)
(-0.157816 -0.128342 0)
(-0.159228 -0.155829 0)
(-0.159816 -0.183354 0)
(-0.159095 -0.21041 0)
(-0.156513 -0.236241 0)
(-0.151483 -0.25979 0)
(-0.143435 -0.279648 0)
(-0.131905 -0.294023 0)
(-0.116653 -0.300753 0)
(-0.0978244 -0.29737 0)
(-0.0761225 -0.281266 0)
(-0.0529322 -0.249965 0)
(-0.0303876 -0.201483 0)
(-0.0118646 -0.134765 0)
(-0.00206799 -0.0501862 0)
(-0.00201295 0.0507231 0)
(-0.0113183 0.134732 0)
(-0.0285367 0.199602 0)
(-0.0489508 0.245711 0)
(-0.0693305 0.274926 0)
(-0.0878017 0.289815 0)
(-0.103268 0.293145 0)
(-0.11527 0.287557 0)
(-0.123828 0.275372 0)
(-0.129266 0.258517 0)
(-0.132074 0.238511 0)
(-0.132803 0.216509 0)
(-0.132006 0.193352 0)
(-0.130195 0.169618 0)
(-0.127826 0.145683 0)
(-0.12529 0.121761 0)
(-0.12291 0.0979407 0)
(-0.120946 0.0742228 0)
(-0.1196 0.0505384 0)
(-0.119015 0.0267724 0)
(-0.119282 0.00278036 0)
(-0.120439 -0.0215961 0)
(-0.122465 -0.0465128 0)
(-0.125278 -0.0721059 0)
(-0.128726 -0.0984704 0)
(-0.132578 -0.125634 0)
(-0.136509 -0.153524 0)
(-0.140091 -0.181921 0)
(-0.142791 -0.210409 0)
(-0.143964 -0.238304 0)
(-0.142879 -0.264583 0)
(-0.138764 -0.287798 0)
(-0.130887 -0.306014 0)
(-0.118698 -0.316769 0)
(-0.10202 -0.317104 0)
(-0.0813036 -0.30372 0)
(-0.0578338 -0.273276 0)
(-0.0339149 -0.22287 0)
(-0.0135281 -0.150663 0)
(-0.00242703 -0.056686 0)
(-0.00242729 0.0569913 0)
(-0.0131636 0.149737 0)