/*--------------------------------*- C++ -*----------------------------------*\
  =========                 |
  \\      /  F ield         | OpenFOAM: The Open Source CFD Toolbox
   \\    /   O peration     | Website:  https://openfoam.org
    \\  /    A nd           | Version:  7
     \\/     M anipulation  |
\*---------------------------------------------------------------------------*/
FoamFile
{
    version     2.0;
    format      ascii;
    class       volSymmTensorField;
    location    "300";
    object      devReff;
}
// * * * * * * * * * * * * * * * * * * * * * * * * * * * * * * * * * * * * * //

dimensions      [0 2 -2 0 0 0 0];

internalField   nonuniform List<symmTensor> 
180
(
(-1.22238e-20 -0.0426249 -0 4.7875e-21 -0 7.43631e-21)
(1.26069e-20 -0.0659703 -0 5.80629e-21 -0 -1.84132e-20)
(-1.04935e-19 -0.0249496 -0 5.62127e-20 -0 4.87227e-20)
(1.37953e-19 -0.037182 -0 -7.37381e-20 -0 -6.42149e-20)
(2.47423e-20 -0.0229613 -0 -4.94845e-20 -0 2.47423e-20)
(2.72286e-20 -0.0286918 -0 -5.44573e-20 -0 2.72286e-20)
(-3.29399e-19 -0.0217216 -0 9.717e-20 -0 2.32229e-19)
(3.9862e-19 -0.0241528 -0 -1.57786e-19 -0 -2.40833e-19)
(1.80614e-20 -0.0197101 -0 -3.61228e-20 -0 1.80614e-20)
(-9.19875e-20 -0.0203969 -0 1.83975e-19 -0 -9.19875e-20)
(8.94456e-22 -0.017155 -0 -1.78891e-21 -0 8.94456e-22)
(-1.86371e-20 -0.0170588 -0 3.72742e-20 -0 -1.86371e-20)
(-4.05964e-20 -0.0142334 -0 8.11929e-20 -0 -4.05964e-20)
(7.7643e-20 -0.0138785 -0 -1.55286e-19 -0 7.7643e-20)
(6.655e-20 -0.011052 -0 -1.331e-19 -0 6.655e-20)
(8.3153e-20 -0.0106782 -0 -1.66306e-19 -0 8.3153e-20)
(2.03417e-19 -0.00767138 -0 -4.06833e-19 -0 2.03417e-19)
(3.21217e-20 -0.00735762 -0 -6.42434e-20 -0 3.21217e-20)
(1.38607e-19 -0.00411959 -0 -2.77214e-19 -0 1.38607e-19)
(-4.36125e-20 -0.00386997 -0 8.72249e-20 -0 -4.36125e-20)
(-7.07585e-21 -0.000406661 -0 1.41517e-20 -0 -7.07585e-21)
(-3.66508e-20 -0.000199549 -0 7.33015e-20 -0 -3.66508e-20)
(-1.3358e-19 0.0034645 -0 2.67159e-19 -0 -1.3358e-19)
(5.62086e-20 0.0036535 -0 -1.12417e-19 -0 5.62086e-20)
(-1.67627e-19 0.00749186 -0 3.35255e-19 -0 -1.67627e-19)
(9.10881e-20 0.00768186 -0 -1.82176e-19 -0 9.10881e-20)
(2.57419e-18 0.0116716 -0 -6.56939e-19 -0 -1.91726e-18)
(-2.71489e-18 0.0118754 -0 9.2603e-19 -0 1.78886e-18)
(-8.29856e-19 0.0159976 -0 1.65971e-18 -0 -8.29856e-19)
(5.44295e-19 0.0162228 -0 -1.08859e-18 -0 5.44295e-19)
(-6.78588e-19 0.0204614 -0 1.35718e-18 -0 -6.78588e-19)
(2.98189e-19 0.0207125 -0 -5.96378e-19 -0 2.98189e-19)
(-2.57805e-19 0.0250527 -0 5.1561e-19 -0 -2.57805e-19)
(-1.15017e-19 0.0253323 -0 2.30033e-19 -0 -1.15017e-19)
(-9.31886e-20 0.0297602 -0 1.86377e-19 -0 -9.31886e-20)
(-1.77619e-19 0.0300701 -0 3.55238e-19 -0 -1.77619e-19)
(-3.86287e-20 0.0345716 -0 7.72574e-20 -0 -3.86287e-20)
(1.65014e-20 0.034913 -0 -3.30028e-20 -0 1.65014e-20)
(-1.48991e-21 0.0394738 -0 2.97983e-21 -0 -1.48991e-21)
(2.11414e-19 0.0398479 -0 -4.22827e-19 -0 2.11414e-19)
(1.96241e-20 0.0444537 -0 -3.92482e-20 -0 1.96241e-20)
(2.50638e-19 0.0448615 -0 -5.01275e-19 -0 2.50638e-19)
(2.62555e-20 0.0494977 -0 -5.25111e-20 -0 2.62555e-20)
(2.00432e-19 0.0499401 -0 -4.00863e-19 -0 2.00432e-19)
(3.42729e-20 0.054592 -0 -6.85457e-20 -0 3.42729e-20)
(1.13101e-19 0.0550701 -0 -2.26203e-19 -0 1.13101e-19)
(3.59549e-20 0.0597228 -0 -7.19097e-20 -0 3.59549e-20)
(2.00335e-20 0.0602376 -0 -4.0067e-20 -0 2.00335e-20)
(2.98138e-20 0.0648762 -0 -5.96276e-20 -0 2.98138e-20)
(-4.42867e-20 0.0654286 -0 8.85733e-20 -0 -4.42867e-20)
(2.59398e-20 0.0700386 -0 -5.18796e-20 -0 2.59398e-20)
(-9.13342e-20 0.0706294 -0 1.82668e-19 -0 -9.13342e-20)
(2.50593e-20 0.0751962 -0 -5.01187e-20 -0 2.50593e-20)
(-1.20537e-19 0.0758262 -0 2.41074e-19 -0 -1.20537e-19)
(2.83341e-20 0.0803354 -0 -5.66683e-20 -0 2.83341e-20)
(-1.44433e-19 0.0810053 -0 2.88866e-19 -0 -1.44433e-19)
(3.619e-20 0.0854428 -0 -7.23799e-20 -0 3.619e-20)
(-1.74216e-19 0.0861533 -0 3.48431e-19 -0 -1.74216e-19)
(3.86696e-20 0.0905052 -0 -7.73391e-20 -0 3.86696e-20)
(-1.95656e-19 0.0912569 -0 3.91312e-19 -0 -1.95656e-19)
(4.13568e-20 0.0955098 -0 -8.27136e-20 -0 4.13568e-20)
(-2.18258e-19 0.096303 -0 4.36516e-19 -0 -2.18258e-19)
(5.25535e-20 0.100444 -0 -1.05107e-19 -0 5.25535e-20)
(-2.42535e-19 0.101279 -0 4.85071e-19 -0 -2.42535e-19)
(6.3844e-20 0.105295 -0 -1.27688e-19 -0 6.3844e-20)
(-2.7716e-19 0.106172 -0 5.5432e-19 -0 -2.7716e-19)
(7.4374e-20 0.110051 -0 -1.48748e-19 -0 7.4374e-20)
(-1.71324e-19 0.11097 -0 3.42647e-19 -0 -1.71324e-19)
(8.34814e-20 0.1147 -0 -1.66963e-19 -0 8.34814e-20)
(9.56281e-20 0.115661 -0 -1.91256e-19 -0 9.56281e-20)
(9.01954e-20 0.119231 -0 -1.80391e-19 -0 9.01954e-20)
(2.11378e-19 0.120234 -0 -4.22756e-19 -0 2.11378e-19)
(9.31715e-20 0.123633 -0 -1.86343e-19 -0 9.31715e-20)
(1.74963e-19 0.124678 -0 -3.49927e-19 -0 1.74963e-19)
(9.05707e-20 0.127895 -0 -1.81141e-19 -0 9.05707e-20)
(1.58231e-19 0.128982 -0 -3.16463e-19 -0 1.58231e-19)
(8.03287e-20 0.132008 -0 -1.60657e-19 -0 8.03287e-20)
(1.4343e-19 0.133135 -0 -2.86859e-19 -0 1.4343e-19)
(6.03943e-20 0.135961 -0 -1.20789e-19 -0 6.03943e-20)
(1.12489e-19 0.137128 -0 -2.24977e-19 -0 1.12489e-19)
(4.7118e-20 0.139746 -0 -9.42359e-20 -0 4.7118e-20)
(8.37063e-20 0.140952 -0 -1.67413e-19 -0 8.37063e-20)
(2.56026e-20 0.143353 -0 -5.12053e-20 -0 2.56026e-20)
(5.69726e-20 0.144598 -0 -1.13945e-19 -0 5.69726e-20)
(-2.10417e-20 0.146775 -0 4.20835e-20 -0 -2.10417e-20)
(4.96947e-20 0.148056 -0 -9.93894e-20 -0 4.96947e-20)
(-5.72718e-20 0.150005 -0 1.14544e-19 -0 -5.72718e-20)
(4.36956e-20 0.151321 -0 -8.73912e-20 -0 4.36956e-20)
(-9.82972e-20 0.153034 -0 1.96594e-19 -0 -9.82972e-20)
(2.03242e-20 0.154384 -0 -4.06483e-20 -0 2.03242e-20)
(-1.43916e-19 0.155856 -0 2.87832e-19 -0 -1.43916e-19)
(-3.02968e-21 0.157239 -0 6.05937e-21 -0 -3.02968e-21)
(-1.9032e-19 0.158466 -0 3.8064e-19 -0 -1.9032e-19)
(-2.75885e-20 0.159879 -0 5.5177e-20 -0 -2.75885e-20)
(-2.55327e-19 0.160858 -0 5.10653e-19 -0 -2.55327e-19)
(-5.48987e-20 0.1623 -0 1.09797e-19 -0 -5.48987e-20)
(-1.38227e-19 0.163027 -0 2.76454e-19 -0 -1.38227e-19)
(-6.88455e-20 0.164496 -0 1.37691e-19 -0 -6.88455e-20)
(1.65246e-19 0.16497 -0 -3.30491e-19 -0 1.65246e-19)
(-8.56751e-20 0.166462 -0 1.7135e-19 -0 -8.56751e-20)
(2.89176e-19 0.166681 -0 -5.78352e-19 -0 2.89176e-19)
(-1.21674e-19 0.168196 -0 2.43348e-19 -0 -1.21674e-19)
(2.35814e-19 0.168158 -0 -4.71627e-19 -0 2.35814e-19)
(-1.6348e-19 0.169693 -0 3.2696e-19 -0 -1.6348e-19)
(2.10755e-19 0.169399 -0 -4.21509e-19 -0 2.10755e-19)
(-2.16116e-19 0.170952 -0 4.32232e-19 -0 -2.16116e-19)
(1.98564e-19 0.170402 -0 -3.97129e-19 -0 1.98564e-19)
(-1.66729e-19 0.171969 -0 3.33458e-19 -0 -1.66729e-19)
(1.82537e-19 0.171165 -0 -3.65075e-19 -0 1.82537e-19)
(-2.90659e-20 0.172745 -0 5.81318e-20 -0 -2.90659e-20)
(1.80797e-19 0.171687 -0 -3.61594e-19 -0 1.80797e-19)
(-8.49781e-21 0.173277 -0 1.69956e-20 -0 -8.49781e-21)
(1.91913e-19 0.171968 -0 -3.83826e-19 -0 1.91913e-19)
(-6.83259e-20 0.173566 -0 1.36652e-19 -0 -6.83259e-20)
(2.17791e-19 0.172008 -0 -4.35582e-19 -0 2.17791e-19)
(-1.04548e-19 0.173611 -0 2.09096e-19 -0 -1.04548e-19)
(1.62062e-19 0.171809 -0 -3.24124e-19 -0 1.62062e-19)
(-1.23148e-19 0.173414 -0 2.46295e-19 -0 -1.23148e-19)
(4.23011e-21 0.17137 -0 -8.46021e-21 -0 4.23011e-21)
(-1.63654e-19 0.172975 -0 3.27307e-19 -0 -1.63654e-19)
(-4.80609e-20 0.170694 -0 9.61218e-20 -0 -4.80609e-20)
(-1.4836e-19 0.172297 -0 2.9672e-19 -0 -1.4836e-19)
(1.48788e-20 0.169782 -0 -2.97577e-20 -0 1.48788e-20)
(-3.85557e-20 0.171381 -0 7.71115e-20 -0 -3.85557e-20)
(5.69614e-20 0.168637 -0 -1.13923e-19 -0 5.69614e-20)
(3.59239e-21 0.170229 -0 -7.18479e-21 -0 3.59239e-21)
(9.52627e-20 0.167263 -0 -1.90525e-19 -0 9.52627e-20)
(4.96491e-20 0.168845 -0 -9.92982e-20 -0 4.96491e-20)
(1.50539e-19 0.165661 -0 -3.01077e-19 -0 1.50539e-19)
(1.71132e-19 0.167232 -0 -3.42263e-19 -0 1.71132e-19)
(1.07653e-19 0.163836 -0 -2.15305e-19 -0 1.07653e-19)
(2.034e-19 0.165393 -0 -4.06799e-19 -0 2.034e-19)
(-3.29709e-20 0.161791 -0 6.59418e-20 -0 -3.29709e-20)
(1.65619e-19 0.163333 -0 -3.31238e-19 -0 1.65619e-19)
(-6.94552e-20 0.159532 -0 1.3891e-19 -0 -6.94552e-20)
(1.50883e-19 0.161055 -0 -3.01765e-19 -0 1.50883e-19)
(-1.88477e-20 0.157061 -0 3.76955e-20 -0 -1.88477e-20)
(1.36411e-19 0.158565 -0 -2.72823e-19 -0 1.36411e-19)
(1.58756e-20 0.154383 -0 -3.17511e-20 -0 1.58756e-20)
(1.00606e-19 0.155866 -0 -2.01211e-19 -0 1.00606e-19)
(6.23562e-20 0.151505 -0 -1.24712e-19 -0 6.23562e-20)
(6.73418e-20 0.152964 -0 -1.34684e-19 -0 6.73418e-20)
(1.33636e-20 0.14843 -0 -2.67271e-20 -0 1.33636e-20)
(3.94177e-20 0.149865 -0 -7.88354e-20 -0 3.94177e-20)
(-1.47376e-19 0.145164 -0 2.94752e-19 -0 -1.47376e-19)
(2.6296e-21 0.146572 -0 -5.25921e-21 -0 2.6296e-21)
(-1.95623e-19 0.141713 -0 3.91246e-19 -0 -1.95623e-19)
(-2.6454e-20 0.143093 -0 5.29081e-20 -0 -2.6454e-20)
(-1.46057e-19 0.138082 -0 2.92115e-19 -0 -1.46057e-19)
(-5.00196e-20 0.139433 -0 1.00039e-19 -0 -5.00196e-20)
(-1.29009e-19 0.134276 -0 2.58017e-19 -0 -1.29009e-19)
(-5.24012e-20 0.135597 -0 1.04802e-19 -0 -5.24012e-20)
(-1.08532e-19 0.130303 -0 2.17063e-19 -0 -1.08532e-19)
(-5.00638e-20 0.131591 -0 1.00128e-19 -0 -5.00638e-20)
(-7.00046e-20 0.126167 -0 1.40009e-19 -0 -7.00046e-20)
(-5.86716e-20 0.127422 -0 1.17343e-19 -0 -5.86716e-20)
(-4.79256e-20 0.121876 -0 9.58513e-20 -0 -4.79256e-20)
(-6.38916e-20 0.123097 -0 1.27783e-19 -0 -6.38916e-20)
(-2.74093e-20 0.117436 -0 5.48186e-20 -0 -2.74093e-20)
(-6.88606e-20 0.118621 -0 1.37721e-19 -0 -6.88606e-20)
(4.84729e-21 0.112853 -0 -9.69458e-21 -0 4.84729e-21)
(-7.32621e-20 0.114002 -0 1.46524e-19 -0 -7.32621e-20)
(3.09318e-20 0.108137 -0 -6.18636e-20 -0 3.09318e-20)
(-7.70254e-20 0.109249 -0 1.54051e-19 -0 -7.70254e-20)
(5.15502e-20 0.103297 -0 -1.031e-19 -0 5.15502e-20)
(-8.01133e-20 0.10437 -0 1.60227e-19 -0 -8.01133e-20)
(6.7668e-20 0.0983463 -0 -1.35336e-19 -0 6.7668e-20)
(-8.25858e-20 0.0993807 -0 1.65172e-19 -0 -8.25858e-20)
(8.02772e-20 0.0933035 -0 -1.60554e-19 -0 8.02772e-20)
(-8.4416e-20 0.0942987 -0 1.68832e-19 -0 -8.4416e-20)
(8.13666e-20 0.0881957 -0 -1.62733e-19 -0 8.13666e-20)
(-8.56152e-20 0.0891514 -0 1.7123e-19 -0 -8.56152e-20)
(7.92579e-20 0.0830614 -0 -1.58516e-19 -0 7.92579e-20)
(-8.6211e-20 0.0839779 -0 1.72422e-19 -0 -8.6211e-20)
(8.17463e-20 0.0779502 -0 -1.63493e-19 -0 8.17463e-20)
(-8.61192e-20 0.0788283 -0 1.72238e-19 -0 -8.61192e-20)
(8.83073e-20 0.0729379 -0 -1.76615e-19 -0 8.83073e-20)
(-8.484e-20 0.0737793 -0 1.6968e-19 -0 -8.484e-20)
(8.99568e-20 0.035235 -0 -1.79914e-19 -0 8.99568e-20)
(-8.11235e-20 0.0356467 -0 1.62247e-19 -0 -8.11235e-20)
)
;

boundaryField
{
    inlet
    {
        type            cyclic;
    }
    outlet
    {
        type            cyclic;
    }
    bottom
    {
        type            symmetry;
    }
    top
    {
        type            calculated;
        value           nonuniform List<symmTensor> 2((-3.82855e-21 -0.0302672 -0 -1.49161e-22 -0 3.97771e-21) (2.36224e-21 -0.0302289 -0 3.40774e-21 -0 -5.76998e-21));
    }
    frontAndBack
    {
        type            empty;
    }
}


// ************************************************************************* //
