/*--------------------------------*- C++ -*----------------------------------*\
  =========                 |
  \\      /  F ield         | OpenFOAM: The Open Source CFD Toolbox
   \\    /   O peration     | Website:  https://openfoam.org
    \\  /    A nd           | Version:  7
     \\/     M anipulation  |
\*---------------------------------------------------------------------------*/
FoamFile
{
    version     2.0;
    format      ascii;
    class       volScalarField;
    location    "300";
    object      k;
}
// * * * * * * * * * * * * * * * * * * * * * * * * * * * * * * * * * * * * * //

dimensions      [0 2 -2 0 0 0 0];

internalField   nonuniform List<scalar> 
180
(
0.082904
0.159254
0.0941213
0.110679
0.104818
0.110297
0.118946
0.121482
0.133828
0.135391
0.148524
0.14968
0.162758
0.163708
0.176492
0.177332
0.189766
0.190555
0.202642
0.203421
0.215182
0.215978
0.227442
0.228274
0.23947
0.240348
0.251303
0.252234
0.262973
0.26396
0.274503
0.275549
0.285913
0.28702
0.297216
0.298386
0.308424
0.309657
0.319543
0.320841
0.330578
0.331942
0.341529
0.342961
0.352398
0.353898
0.363179
0.364749
0.37387
0.375511
0.384464
0.386177
0.394953
0.39674
0.405329
0.40719
0.415581
0.417518
0.425699
0.427712
0.435671
0.43776
0.445484
0.447651
0.455125
0.45737
0.464581
0.466905
0.473837
0.47624
0.482881
0.485362
0.491697
0.494257
0.500271
0.502909
0.50859
0.511306
0.516641
0.519433
0.52441
0.527278
0.531884
0.534826
0.539051
0.542067
0.545902
0.548989
0.552424
0.55558
0.558608
0.561833
0.564448
0.567737
0.569934
0.573286
0.575061
0.578473
0.579824
0.583294
0.58422
0.587744
0.588246
0.591822
0.591902
0.595526
0.595188
0.598857
0.598106
0.601817
0.600659
0.604409
0.602853
0.606638
0.604693
0.60851
0.606188
0.610033
0.607346
0.611217
0.608177
0.612071
0.608695
0.612607
0.60891
0.612838
0.608838
0.61278
0.608494
0.612446
0.607895
0.611854
0.607057
0.611022
0.605999
0.609967
0.604741
0.608709
0.603302
0.607269
0.601703
0.605666
0.599966
0.603924
0.598112
0.602064
0.596164
0.600108
0.594144
0.598079
0.592076
0.596001
0.589982
0.593897
0.587886
0.59179
0.585812
0.589703
0.583781
0.587661
0.581817
0.585685
0.579942
0.583798
0.578179
0.582024
0.576549
0.580382
0.575073
0.578896
0.57377
0.577583
0.572659
0.576464
0.571758
0.575556
0.571083
0.574875
0.570647
0.574434
)
;

boundaryField
{
    inlet
    {
        type            cyclic;
    }
    outlet
    {
        type            cyclic;
    }
    bottom
    {
        type            symmetry;
    }
    top
    {
        type            kqRWallFunction;
        value           nonuniform List<scalar> 2(0.082904 0.159254);
    }
    frontAndBack
    {
        type            empty;
    }
}


// ************************************************************************* //
