/*--------------------------------*- C++ -*----------------------------------*\
  =========                 |
  \\      /  F ield         | OpenFOAM: The Open Source CFD Toolbox
   \\    /   O peration     | Website:  https://openfoam.org
    \\  /    A nd           | Version:  7
     \\/     M anipulation  |
\*---------------------------------------------------------------------------*/
FoamFile
{
    version     2.0;
    format      ascii;
    class       volScalarField;
    location    "300";
    object      nut;
}
// * * * * * * * * * * * * * * * * * * * * * * * * * * * * * * * * * * * * * //

dimensions      [0 2 -1 0 0 0 0];

internalField   nonuniform List<scalar> 
180
(
1.51851e-05
2.97374e-05
8.84199e-05
0.000119491
0.000193443
0.000237722
0.00034973
0.000399577
0.000549158
0.000596392
0.000779165
0.000817956
0.00102852
0.00105726
0.00128891
0.00130895
0.00155472
0.00156853
0.0018222
0.00183224
0.00208881
0.00209693
0.00235268
0.00236012
0.00261239
0.00261987
0.00286683
0.00287471
0.0031151
0.00312356
0.00335652
0.00336561
0.00359056
0.00360029
0.00381685
0.00382722
0.00403516
0.00404613
0.00424533
0.00425688
0.00444731
0.00445943
0.00464114
0.0046538
0.0048269
0.00484008
0.00500471
0.00501839
0.00517475
0.00518891
0.00533721
0.00535184
0.00549232
0.0055074
0.00564031
0.00565584
0.00578144
0.00579739
0.00591597
0.00593232
0.00604415
0.0060609
0.00616624
0.00618338
0.00628251
0.00630002
0.00639322
0.00641109
0.00649861
0.00651683
0.00659893
0.00661749
0.00669442
0.0067133
0.0067853
0.0068045
0.0068718
0.00689131
0.00695412
0.00697394
0.00703248
0.00705259
0.00710706
0.00712746
0.00717804
0.00719872
0.00724561
0.00726656
0.00730992
0.00733114
0.00737113
0.00739261
0.00742939
0.00745113
0.00748484
0.00750683
0.00753761
0.00755984
0.00758783
0.0076103
0.00763561
0.00765831
0.00768105
0.00770399
0.00772428
0.00774744
0.00776537
0.00778876
0.00780443
0.00782803
0.00784154
0.00786536
0.00787678
0.0079008
0.00791023
0.00793445
0.00794195
0.00796638
0.00797202
0.00799664
0.00800051
0.00802532
0.00802746
0.00805246
0.00805294
0.00807812
0.00807701
0.00810236
0.00809971
0.00812523
0.0081211
0.00814678
0.00814122
0.00816706
0.00816011
0.00818611
0.00817783
0.00820398
0.00819441
0.0082207
0.0082099
0.00823632
0.00822433
0.00825088
0.00823774
0.00826441
0.00825016
0.00827696
0.00826164
0.00828855
0.00827221
0.00829922
0.00828191
0.00830901
0.00829076
0.00831795
0.00829879
0.00832607
0.00830605
0.0083334
0.00831256
0.00833998
0.00831835
0.00834583
0.00832346
0.00835099
0.00832791
0.00835549
0.00833174
0.00835935
0.00833497
0.00836261
0.00833764
0.00836531
0.00833979
0.00836748
0.00834149
0.00836919
0.0083428
0.0083705
)
;

boundaryField
{
    inlet
    {
        type            cyclic;
    }
    outlet
    {
        type            cyclic;
    }
    bottom
    {
        type            symmetry;
    }
    top
    {
        type            nutkWallFunction;
        Cmu             0.09;
        kappa           0.41;
        E               9.8;
        value           nonuniform List<scalar> 2(0 4.17567e-07);
    }
    frontAndBack
    {
        type            empty;
    }
}


// ************************************************************************* //
