/*--------------------------------*- C++ -*----------------------------------*\
  =========                 |
  \\      /  F ield         | OpenFOAM: The Open Source CFD Toolbox
   \\    /   O peration     | Website:  https://openfoam.org
    \\  /    A nd           | Version:  7
     \\/     M anipulation  |
\*---------------------------------------------------------------------------*/
FoamFile
{
    version     2.0;
    format      ascii;
    class       volScalarField;
    location    "300";
    object      omega;
}
// * * * * * * * * * * * * * * * * * * * * * * * * * * * * * * * * * * * * * //

dimensions      [0 0 -1 0 0 0 0];

internalField   nonuniform List<scalar> 
180
(
3203.97
2592
1064.48
892.954
541.855
463.976
340.108
304.026
243.697
227.017
190.619
182.993
158.245
154.842
136.931
135.477
122.058
121.486
111.207
111.023
103.017
102.997
96.6737
96.7212
91.6669
91.7403
87.6589
87.7422
84.4187
84.5061
81.7821
81.872
79.629
79.7213
77.8694
77.9642
76.4342
76.5318
75.2694
75.3701
74.332
74.436
73.5874
73.6949
73.007
73.1182
72.5675
72.6826
72.249
72.368
72.0347
72.1578
71.9101
72.0375
71.8629
71.9946
71.8819
72.0182
71.9577
72.0985
72.0814
72.227
72.2456
72.3959
72.4431
72.5982
72.6677
72.8277
72.9136
73.0785
73.1756
73.3454
73.4487
73.6235
73.7287
73.9083
74.0113
74.1958
74.2927
74.482
74.5696
74.7637
74.8388
75.0375
75.0973
75.3005
75.3424
75.55
75.5718
75.7836
75.7833
75.9992
75.9749
76.1948
76.1451
76.3686
76.2922
76.5192
76.415
76.6453
76.5126
76.7459
76.584
76.8201
76.6288
76.8674
76.6464
76.8873
76.6367
76.8797
76.5996
76.8444
76.5354
76.7818
76.4445
76.6921
76.3273
76.576
76.1846
76.4341
76.0174
76.2675
75.8265
76.077
75.6134
75.864
75.3792
75.6298
75.1254
75.3758
74.8537
75.1038
74.5658
74.8154
74.2635
74.5124
73.9488
74.1968
73.6235
73.8706
73.2899
73.536
72.9501
73.1951
72.6063
72.8502
72.2608
72.5034
71.9159
72.1573
71.574
71.8141
71.2375
71.4763
70.9087
71.1461
70.59
70.8262
70.2838
70.5187
69.9925
70.2262
69.7184
69.9509
69.4638
69.6952
69.2309
69.4612
69.0219
69.2513
68.8389
69.0673
68.6836
68.9113
68.5579
68.7849
68.463
68.6895
68.3999
68.626
)
;

boundaryField
{
    inlet
    {
        type            cyclic;
    }
    outlet
    {
        type            cyclic;
    }
    bottom
    {
        type            symmetry;
    }
    top
    {
        beta1           0.075;
        blended         0;
        type            omegaWallFunction;
        value           nonuniform List<scalar> 2(3203.97 2592);
    }
    frontAndBack
    {
        type            empty;
    }
}


// ************************************************************************* //
