/*--------------------------------*- C++ -*----------------------------------*\
  =========                 |
  \\      /  F ield         | OpenFOAM: The Open Source CFD Toolbox
   \\    /   O peration     | Website:  https://openfoam.org
    \\  /    A nd           | Version:  7
     \\/     M anipulation  |
\*---------------------------------------------------------------------------*/
FoamFile
{
    version     2.0;
    format      ascii;
    class       volScalarField;
    location    "300";
    object      p;
}
// * * * * * * * * * * * * * * * * * * * * * * * * * * * * * * * * * * * * * //

dimensions      [0 2 -2 0 0 0 0];

internalField   nonuniform List<scalar> 
180
(
3.8054e-21
4.41528e-16
2.74941e-20
4.41504e-16
1.93294e-20
4.41534e-16
-5.85966e-20
4.41503e-16
-1.30556e-20
4.41459e-16
-7.82306e-20
4.41634e-16
-6.59549e-19
4.42036e-16
-3.73014e-19
4.41953e-16
-2.80674e-19
4.42105e-16
-7.67039e-19
4.41999e-16
-1.3349e-18
4.42222e-16
-1.98421e-18
4.42869e-16
-2.28331e-18
4.43165e-16
-2.61825e-18
4.43498e-16
-4.02924e-18
4.44388e-16
-3.87256e-18
4.44227e-16
-3.10541e-18
4.43455e-16
-2.93616e-18
4.43282e-16
-2.76159e-18
4.43789e-16
-2.58223e-18
4.44327e-16
-2.39874e-18
4.44141e-16
-2.2116e-18
4.4395e-16
-2.02142e-18
4.43757e-16
-1.82858e-18
4.4356e-16
-1.63367e-18
4.43362e-16
-1.43699e-18
4.43162e-16
-1.23909e-18
4.42961e-16
-1.04019e-18
4.42758e-16
-8.40813e-19
4.42555e-16
-6.41117e-19
4.42352e-16
-4.41578e-19
4.42149e-16
-2.42307e-19
4.41947e-16
-4.3738e-20
4.41745e-16
1.54042e-19
4.41543e-16
3.50655e-19
4.42466e-16
5.46013e-19
4.42268e-16
7.39794e-19
4.42071e-16
9.31917e-19
4.41875e-16
1.12212e-18
4.41682e-16
1.3103e-18
4.41491e-16
1.49627e-18
4.41302e-16
1.6799e-18
4.41116e-16
1.86105e-18
4.40932e-16
2.0396e-18
4.40751e-16
2.21543e-18
4.40573e-16
2.38842e-18
4.40398e-16
2.55848e-18
4.40226e-16
2.72548e-18
4.40056e-16
2.88938e-18
4.39891e-16
4.36277e-18
4.39728e-16
4.52016e-18
4.39569e-16
4.67418e-18
4.39413e-16
4.82479e-18
4.39261e-16
4.97188e-18
4.39112e-16
5.11543e-18
4.39644e-16
5.25535e-18
4.39503e-16
5.3916e-18
4.39365e-16
5.52412e-18
4.39231e-16
5.65287e-18
4.39101e-16
5.08737e-18
4.38975e-16
5.20845e-18
4.38853e-16
5.32564e-18
4.39432e-16
5.4389e-18
4.39318e-16
5.54818e-18
4.39207e-16
5.65348e-18
4.39805e-16
5.75475e-18
4.39702e-16
5.14648e-18
4.39604e-16
5.23962e-18
4.3951e-16
5.32866e-18
4.3942e-16
5.41358e-18
4.39334e-16
5.49436e-18
4.39253e-16
5.57099e-18
4.39175e-16
4.92934e-18
4.39102e-16
4.99761e-18
4.39033e-16
5.06169e-18
4.38969e-16
5.12155e-18
4.38908e-16
5.1772e-18
4.38852e-16
5.22862e-18
4.388e-16
5.2758e-18
4.38752e-16
5.31874e-18
4.38709e-16
5.35744e-18
4.3867e-16
5.39188e-18
4.38635e-16
5.42207e-18
4.38605e-16
5.44799e-18
4.38579e-16
5.46966e-18
4.38557e-16
5.48705e-18
4.38539e-16
5.50018e-18
4.38526e-16
5.50904e-18
4.38517e-16
5.51362e-18
4.38512e-16
5.51421e-18
4.38512e-16
)
;

boundaryField
{
    inlet
    {
        type            cyclic;
    }
    outlet
    {
        type            cyclic;
    }
    bottom
    {
        type            symmetry;
    }
    top
    {
        type            zeroGradient;
    }
    frontAndBack
    {
        type            empty;
    }
}


// ************************************************************************* //
