/*--------------------------------*- C++ -*----------------------------------*\
  =========                 |
  \\      /  F ield         | OpenFOAM: The Open Source CFD Toolbox
   \\    /   O peration     | Website:  https://openfoam.org
    \\  /    A nd           | Version:  7
     \\/     M anipulation  |
\*---------------------------------------------------------------------------*/
FoamFile
{
    version     2.0;
    format      ascii;
    class       surfaceScalarField;
    location    "300";
    object      phi;
}
// * * * * * * * * * * * * * * * * * * * * * * * * * * * * * * * * * * * * * //

dimensions      [0 3 -1 0 0 0 0];

internalField   nonuniform List<scalar> 
268
(
0.00182984
7.99058e-20
-1.18213e-19
0.0023093
-7.3614e-20
-2.57415e-19
0.00249724
8.01477e-20
1.27876e-20
0.00259161
2.2135e-19
2.17313e-20
0.00264458
2.14637e-19
-3.24456e-19
0.00267665
3.59079e-19
-2.98066e-19
0.00269685
1.36442e-19
-1.71733e-19
0.00270962
2.42144e-19
-1.67444e-19
0.00271735
3.82934e-19
-1.10227e-19
0.00272143
4.26034e-19
-1.48594e-19
0.00272272
4.32386e-19
-1.85599e-19
0.00272178
3.65116e-19
-1.34636e-19
0.00271901
2.97742e-19
-1.03772e-19
0.00271465
3.55499e-19
-1.66498e-19
0.00270891
-1.37082e-19
2.17001e-19
0.00270194
-2.12402e-19
2.08652e-19
0.00269384
-2.40513e-19
1.61495e-19
0.00268469
-2.70961e-19
1.11445e-19
0.00267456
-2.7906e-19
1.144e-19
0.00266351
-2.79341e-19
1.77334e-19
0.00265158
-2.75613e-19
2.13498e-19
0.0026388
-2.70999e-19
2.49364e-19
0.00262522
-2.64997e-19
2.68719e-19
0.00261085
-2.59085e-19
2.72118e-19
0.00259573
-2.54255e-19
2.64941e-19
0.00257987
-2.50202e-19
2.50807e-19
0.00256329
-2.46439e-19
2.32548e-19
0.00254603
-2.42199e-19
2.1134e-19
0.00252809
-2.37055e-19
1.86309e-19
0.0025095
-2.3155e-19
1.58895e-19
0.00249028
-2.25911e-19
1.28906e-19
0.00247044
-2.18786e-19
9.63081e-20
0.00245001
-2.10341e-19
7.06416e-20
0.00242901
-2.00676e-19
1.56893e-20
0.00240746
-1.89953e-19
6.04239e-20
0.00238537
-1.78634e-19
7.6287e-20
0.00236279
-1.66986e-19
9.78659e-20
0.00233971
-1.55956e-19
1.17336e-19
0.00231618
-1.46145e-19
1.34524e-19
0.00229222
-1.39004e-19
1.48086e-19
0.00226784
-1.3334e-19
1.57817e-19
0.00224308
-1.30431e-19
1.64618e-19
0.00221796
-1.32779e-19
1.7021e-19
0.00219251
-1.3945e-19
1.75367e-19
0.00216676
-1.50544e-19
1.77522e-19
0.00214074
-1.66892e-19
1.77331e-19
0.00211447
-1.88107e-19
1.74101e-19
0.00208799
-2.05634e-19
1.68159e-19
0.00206132
-2.53623e-19
1.60439e-19
0.00203449
-2.02844e-19
1.51207e-19
0.00200754
-1.82115e-19
1.37851e-19
0.0019805
-1.56668e-19
1.20318e-19
0.00195339
-1.33861e-19
1.02464e-19
0.00192625
-1.12673e-19
6.83406e-20
0.00189911
-9.31191e-20
8.15357e-20
0.001872
-7.40099e-20
7.52839e-20
0.00184495
-5.3659e-20
6.79891e-20
0.001818
-3.62924e-20
5.71134e-20
0.00179116
-2.82154e-21
4.41621e-20
0.00176448
-1.88398e-20
3.26904e-20
0.00173799
-1.83299e-20
8.01638e-22
0.0017117
-1.68298e-20
1.32962e-20
0.00168566
-1.09041e-20
1.36189e-20
0.0016599
-1.12182e-21
2.3493e-21
0.00163443
8.89587e-21
3.62386e-20
0.0016093
3.63335e-20
5.16028e-20
0.00158453
1.65685e-20
6.8436e-20
0.00156014
1.49321e-20
8.38156e-20
0.00153616
1.30311e-20
9.76219e-20
0.00151262
1.46291e-20
1.07835e-19
0.00148955
1.54817e-20
1.14617e-19
0.00146697
3.32588e-20
1.18613e-19
0.0014449
1.95043e-21
1.18861e-19
0.00142337
-1.23188e-20
1.16216e-19
0.0014024
-2.70292e-20
1.1118e-19
0.00138202
-4.00125e-20
1.05936e-19
0.00136224
-5.09184e-20
1.00912e-19
0.00134309
-5.79464e-20
9.50471e-20
0.00132458
-6.27545e-20
8.86575e-20
0.00130675
-6.54981e-20
8.17776e-20
0.0012896
-6.50166e-20
7.44715e-20
0.00127315
-6.19172e-20
6.6781e-20
0.00125743
-5.67663e-20
5.88053e-20
0.00124244
-5.00005e-20
5.05713e-20
0.0012282
-4.19823e-20
4.21698e-20
0.00121472
-3.38566e-20
3.36475e-20
0.001202
-2.59446e-20
2.50703e-20
0.00119005
-1.77789e-20
1.64948e-20
0.00117886
-8.88049e-21
7.96996e-21
0.0011684
)
;

boundaryField
{
    inlet
    {
        type            cyclic;
        value           nonuniform List<scalar> 
90
(
-0.00182984
-0.0023093
-0.00249724
-0.00259161
-0.00264458
-0.00267665
-0.00269685
-0.00270962
-0.00271735
-0.00272143
-0.00272272
-0.00272178
-0.00271901
-0.00271465
-0.00270891
-0.00270194
-0.00269384
-0.00268469
-0.00267456
-0.00266351
-0.00265158
-0.0026388
-0.00262522
-0.00261085
-0.00259573
-0.00257987
-0.00256329
-0.00254603
-0.00252809
-0.0025095
-0.00249028
-0.00247044
-0.00245001
-0.00242901
-0.00240746
-0.00238537
-0.00236279
-0.00233971
-0.00231618
-0.00229222
-0.00226784
-0.00224308
-0.00221796
-0.00219251
-0.00216676
-0.00214074
-0.00211447
-0.00208799
-0.00206132
-0.00203449
-0.00200754
-0.0019805
-0.00195339
-0.00192625
-0.00189911
-0.001872
-0.00184495
-0.001818
-0.00179116
-0.00176448
-0.00173799
-0.0017117
-0.00168566
-0.0016599
-0.00163443
-0.0016093
-0.00158453
-0.00156014
-0.00153616
-0.00151262
-0.00148955
-0.00146697
-0.0014449
-0.00142337
-0.0014024
-0.00138202
-0.00136224
-0.00134309
-0.00132458
-0.00130675
-0.0012896
-0.00127315
-0.00125743
-0.00124244
-0.0012282
-0.00121472
-0.001202
-0.00119005
-0.00117886
-0.0011684
)
;
    }
    outlet
    {
        type            cyclic;
        value           nonuniform List<scalar> 
90
(
0.00182984
0.0023093
0.00249724
0.00259161
0.00264458
0.00267665
0.00269685
0.00270962
0.00271735
0.00272143
0.00272272
0.00272178
0.00271901
0.00271465
0.00270891
0.00270194
0.00269384
0.00268469
0.00267456
0.00266351
0.00265158
0.0026388
0.00262522
0.00261085
0.00259573
0.00257987
0.00256329
0.00254603
0.00252809
0.0025095
0.00249028
0.00247044
0.00245001
0.00242901
0.00240746
0.00238537
0.00236279
0.00233971
0.00231618
0.00229222
0.00226784
0.00224308
0.00221796
0.00219251
0.00216676
0.00214074
0.00211447
0.00208799
0.00206132
0.00203449
0.00200754
0.0019805
0.00195339
0.00192625
0.00189911
0.001872
0.00184495
0.001818
0.00179116
0.00176448
0.00173799
0.0017117
0.00168566
0.0016599
0.00163443
0.0016093
0.00158453
0.00156014
0.00153616
0.00151262
0.00148955
0.00146697
0.0014449
0.00142337
0.0014024
0.00138202
0.00136224
0.00134309
0.00132458
0.00130675
0.0012896
0.00127315
0.00125743
0.00124244
0.0012282
0.00121472
0.001202
0.00119005
0.00117886
0.0011684
)
;
    }
    bottom
    {
        type            symmetry;
        value           uniform 0;
    }
    top
    {
        type            calculated;
        value           uniform 0;
    }
    frontAndBack
    {
        type            empty;
        value           nonuniform 0();
    }
}


// ************************************************************************* //
