/*--------------------------------*- C++ -*----------------------------------*\
  =========                 |
  \\      /  F ield         | OpenFOAM: The Open Source CFD Toolbox
   \\    /   O peration     | Website:  https://openfoam.org
    \\  /    A nd           | Version:  7
     \\/     M anipulation  |
\*---------------------------------------------------------------------------*/
FoamFile
{
    version     2.0;
    format      ascii;
    class       volVectorField;
    location    "300";
    object      U;
}
// * * * * * * * * * * * * * * * * * * * * * * * * * * * * * * * * * * * * * //

dimensions      [0 1 -1 0 0 0 0];

internalField   nonuniform List<vector> 
180
(
(1.68151 1.14635e-19 0)
(1.61207 -2.44718e-19 0)
(2.07953 2.22438e-21 0)
(2.07716 -4.3249e-19 0)
(2.24485 3.00774e-20 0)
(2.25016 -1.63003e-19 0)
(2.33033 4.07618e-19 0)
(2.33455 -6.61029e-20 0)
(2.37903 4.4724e-19 0)
(2.3812 -3.88295e-19 0)
(2.40867 5.15288e-19 0)
(2.4093 -5.71757e-19 0)
(2.42734 4.51018e-19 0)
(2.42699 -4.63328e-19 0)
(2.43912 3.84986e-19 0)
(2.43819 -3.29258e-19 0)
(2.44625 6.21802e-19 0)
(2.44498 -2.53177e-19 0)
(2.45002 8.18326e-19 0)
(2.44855 -2.61428e-19 0)
(2.45124 8.73971e-19 0)
(2.44965 -3.32089e-19 0)
(2.45045 8.07088e-19 0)
(2.44876 -3.19412e-19 0)
(2.44798 6.85513e-19 0)
(2.44622 -2.53038e-19 0)
(2.4441 5.94017e-19 0)
(2.44227 -2.03959e-19 0)
(2.43897 1.98743e-19 0)
(2.43707 7.93024e-20 0)
(2.43272 -2.91135e-19 0)
(2.43077 3.75037e-19 0)
(2.42546 -4.73157e-19 0)
(2.42344 3.73757e-19 0)
(2.41726 -5.29806e-19 0)
(2.41517 2.68844e-19 0)
(2.40818 -5.54328e-19 0)
(2.40602 2.19462e-19 0)
(2.39827 -5.61638e-19 0)
(2.39604 2.82405e-19 0)
(2.38757 -5.55495e-19 0)
(2.38527 3.8462e-19 0)
(2.37611 -5.46962e-19 0)
(2.37374 4.69332e-19 0)
(2.36392 -5.36678e-19 0)
(2.36148 5.27874e-19 0)
(2.35103 -5.23343e-19 0)
(2.34851 5.47064e-19 0)
(2.33745 -5.12779e-19 0)
(2.33486 5.41154e-19 0)
(2.32322 -5.04175e-19 0)
(2.32054 5.18669e-19 0)
(2.30835 -4.96608e-19 0)
(2.30558 4.84374e-19 0)
(2.29285 -4.88994e-19 0)
(2.29 4.45847e-19 0)
(2.27675 -4.79893e-19 0)
(2.27381 3.99401e-19 0)
(2.26006 -4.68165e-19 0)
(2.25703 3.4585e-19 0)
(2.24281 -4.58142e-19 0)
(2.23968 2.89648e-19 0)
(2.22501 -4.45394e-19 0)
(2.22178 2.26012e-19 0)
(2.20667 -4.29778e-19 0)
(2.20334 1.59113e-19 0)
(2.18782 -4.11574e-19 0)
(2.18439 7.95993e-20 0)
(2.16848 -3.91061e-19 0)
(2.16494 7.01753e-20 0)
(2.14866 -3.6882e-19 0)
(2.14501 1.28438e-19 0)
(2.12839 -3.4557e-19 0)
(2.12463 1.76489e-19 0)
(2.10768 -3.22496e-19 0)
(2.1038 2.15183e-19 0)
(2.08656 -3.01142e-19 0)
(2.08256 2.53888e-19 0)
(2.06505 -2.83588e-19 0)
(2.06093 2.84459e-19 0)
(2.04318 -2.72234e-19 0)
(2.03893 3.07578e-19 0)
(2.02096 -2.61286e-19 0)
(2.01658 3.23966e-19 0)
(1.99842 -2.60243e-19 0)
(1.99391 3.34185e-19 0)
(1.97558 -2.71043e-19 0)
(1.97094 3.46945e-19 0)
(1.95247 -2.86554e-19 0)
(1.9477 3.54201e-19 0)
(1.92912 -3.15806e-19 0)
(1.92421 3.56173e-19 0)
(1.90555 -3.51547e-19 0)
(1.9005 3.52837e-19 0)
(1.88179 -4.01082e-19 0)
(1.87659 3.43848e-19 0)
(1.85786 -4.65104e-19 0)
(1.85251 3.28492e-19 0)
(1.83379 -4.62128e-19 0)
(1.8283 3.13532e-19 0)
(1.80961 -3.92607e-19 0)
(1.80397 2.91016e-19 0)
(1.78534 -3.36053e-19 0)
(1.77956 2.60642e-19 0)
(1.76102 -2.90404e-19 0)
(1.75509 2.20374e-19 0)
(1.73667 -2.45222e-19 0)
(1.73059 1.67778e-19 0)
(1.71232 -2.05279e-19 0)
(1.70608 1.49111e-19 0)
(1.68799 -1.67359e-19 0)
(1.68161 1.55417e-19 0)
(1.66373 -1.28522e-19 0)
(1.65719 1.45514e-19 0)
(1.63954 -8.62468e-20 0)
(1.63285 1.26627e-19 0)
(1.61546 -3.68622e-20 0)
(1.60863 1.01647e-19 0)
(1.59153 -1.8313e-20 0)
(1.58454 7.51631e-20 0)
(1.56775 -3.50957e-20 0)
(1.56062 3.35151e-20 0)
(1.54417 -3.83121e-20 0)
(1.53689 1.36182e-20 0)
(1.52081 -2.89251e-20 0)
(1.51338 1.75746e-20 0)
(1.4977 -1.47635e-20 0)
(1.49012 1.50987e-20 0)
(1.47485 1.03407e-20 0)
(1.46713 3.79752e-20 0)
(1.4523 4.71124e-20 0)
(1.44444 8.52182e-20 0)
(1.43007 5.44728e-20 0)
(1.42207 1.21096e-19 0)
(1.40819 3.36294e-20 0)
(1.40005 1.52732e-19 0)
(1.38668 2.61357e-20 0)
(1.3784 1.8246e-19 0)
(1.36557 2.59563e-20 0)
(1.35715 2.08089e-19 0)
(1.34487 3.25857e-20 0)
(1.33632 2.23204e-19 0)
(1.32461 5.1243e-20 0)
(1.31593 2.3531e-19 0)
(1.30481 3.79954e-20 0)
(1.29601 2.39109e-19 0)
(1.2855 -8.31912e-21 0)
(1.27657 2.3637e-19 0)
(1.26668 -4.0947e-20 0)
(1.25764 2.28468e-19 0)
(1.2484 -6.71778e-20 0)
(1.23923 2.16278e-19 0)
(1.23066 -9.28689e-20 0)
(1.22137 2.07447e-19 0)
(1.21348 -1.10807e-19 0)
(1.20408 1.96218e-19 0)
(1.19688 -1.20981e-19 0)
(1.18737 1.83963e-19 0)
(1.18088 -1.30034e-19 0)
(1.17126 1.7067e-19 0)
(1.1655 -1.31967e-19 0)
(1.15578 1.56452e-19 0)
(1.15075 -1.28093e-19 0)
(1.14092 1.41423e-19 0)
(1.13664 -1.19587e-19 0)
(1.12672 1.25725e-19 0)
(1.1232 -1.07473e-19 0)
(1.11318 1.09484e-19 0)
(1.11043 -9.25347e-20 0)
(1.10032 9.28174e-20 0)
(1.09835 -7.53945e-20 0)
(1.08815 7.58627e-20 0)
(1.08695 -6.00334e-20 0)
(1.07666 5.8732e-20 0)
(1.07623 -4.37456e-20 0)
(1.06586 4.15512e-20 0)
(1.0662 -2.73994e-20 0)
(1.05575 2.44659e-20 0)
(1.05683 -8.49952e-21 0)
(1.0463 7.80089e-21 0)
)
;

boundaryField
{
    inlet
    {
        type            cyclic;
    }
    outlet
    {
        type            cyclic;
    }
    bottom
    {
        type            symmetry;
    }
    top
    {
        type            noSlip;
    }
    frontAndBack
    {
        type            empty;
    }
}


// ************************************************************************* //
