# Residuals   
# Time        	p             	Ux            	Uy            	k             	omega         
1             	1.000000e+00	1.000000e+00	1.000000e+00	1.000000e+00	1.553601e-03
2             	1.125222e-01	1.407986e-02	1.124122e-01	2.415427e-01	3.569374e-03
3             	6.469730e-02	9.532475e-03	4.952547e-02	8.163690e-02	5.026628e-03
4             	7.035827e-02	9.134351e-03	2.911390e-02	3.135309e-02	2.204283e-03
5             	8.475890e-02	8.366037e-03	2.103930e-02	1.105247e-02	1.425121e-03
6             	6.515841e-02	7.389964e-03	1.265195e-02	4.410511e-03	9.338170e-04
7             	3.864047e-02	5.843117e-03	9.481816e-03	3.714229e-03	7.574279e-04
8             	2.885845e-02	5.196842e-03	8.087624e-03	3.351528e-03	6.425476e-04
9             	2.479659e-02	4.875679e-03	6.892001e-03	2.896556e-03	6.311458e-04
10            	2.300030e-02	4.614164e-03	6.032393e-03	2.741770e-03	5.813729e-04
11            	2.307066e-02	4.489230e-03	5.660033e-03	2.289969e-03	4.885886e-04
12            	2.602733e-02	4.356091e-03	5.444468e-03	2.129939e-03	9.742316e-04
13            	1.719264e-02	4.307539e-03	5.312043e-03	1.260465e-03	6.010242e-03
14            	1.637883e-02	4.305846e-03	5.124498e-03	9.997320e-04	1.129081e-03
15            	1.606104e-02	4.237415e-03	4.910191e-03	8.617528e-04	3.648487e-04
16            	1.483043e-02	4.229880e-03	4.880410e-03	8.755172e-04	2.662940e-04
17            	1.322331e-02	4.203759e-03	4.974110e-03	8.521789e-04	2.524704e-04
18            	1.271585e-02	4.142780e-03	5.037099e-03	9.199176e-04	2.733646e-04
19            	1.191851e-02	4.123796e-03	5.108841e-03	8.160023e-04	2.931931e-04
20            	1.182901e-02	4.095752e-03	5.250126e-03	7.566395e-04	3.027448e-04
21            	1.128792e-02	4.054439e-03	5.473037e-03	7.477231e-04	3.285866e-04
22            	1.076645e-02	4.041051e-03	5.645915e-03	7.901284e-04	3.442848e-04
23            	1.107532e-02	4.005364e-03	5.791675e-03	7.720526e-04	3.733782e-04
24            	1.145336e-02	3.984451e-03	6.064635e-03	7.478320e-04	3.895542e-04
25            	1.201024e-02	3.985798e-03	6.426946e-03	7.411910e-04	3.971029e-04
26            	1.276386e-02	4.047871e-03	7.060872e-03	7.308285e-04	4.057691e-04
27            	1.303141e-02	4.184134e-03	7.771129e-03	7.241996e-04	3.853885e-04
28            	1.270509e-02	4.374241e-03	8.947825e-03	7.056730e-04	3.715742e-04
29            	1.269646e-02	4.581768e-03	1.018558e-02	7.102969e-04	3.443391e-04
30            	1.235266e-02	4.884701e-03	1.204507e-02	7.316901e-04	3.307424e-04
31            	1.183056e-02	5.271965e-03	1.428138e-02	7.720278e-04	3.237525e-04
32            	1.121429e-02	5.767264e-03	1.714961e-02	8.402933e-04	3.125325e-04
33            	1.067135e-02	6.418652e-03	2.176234e-02	8.889532e-04	3.006965e-04
34            	1.072723e-02	7.074785e-03	2.824261e-02	9.673351e-04	2.868407e-04
35            	1.113580e-02	7.896095e-03	3.927724e-02	1.032608e-03	2.693376e-04
36            	1.220759e-02	8.647838e-03	5.396097e-02	1.098235e-03	2.551853e-04
37            	1.306637e-02	9.411819e-03	7.488738e-02	1.147884e-03	2.413974e-04
38            	1.482885e-02	1.047482e-02	9.165191e-02	1.210395e-03	2.392341e-04
39            	1.779276e-02	1.191096e-02	9.500976e-02	1.270556e-03	2.562142e-04
40            	2.003741e-02	1.407904e-02	9.988881e-02	1.366849e-03	2.616283e-04
41            	2.147986e-02	1.676718e-02	9.286720e-02	1.500014e-03	2.630575e-04
42            	2.229688e-02	2.042118e-02	7.054357e-02	1.673164e-03	2.614564e-04
43            	2.946940e-02	2.607258e-02	5.281929e-02	1.809408e-03	2.576203e-04
44            	2.813172e-02	3.292405e-02	4.145728e-02	1.940953e-03	2.520112e-04
45            	2.727321e-02	4.121876e-02	3.415997e-02	2.033820e-03	2.451585e-04
46            	2.553102e-02	5.303089e-02	2.906811e-02	2.150001e-03	2.389283e-04
47            	3.602596e-02	6.396898e-02	2.588880e-02	2.169920e-03	2.355082e-04
48            	4.549583e-02	7.329421e-02	2.303916e-02	2.237973e-03	2.328649e-04
49            	4.024107e-02	8.023437e-02	2.148652e-02	2.256817e-03	2.346789e-04
50            	4.687150e-02	8.211070e-02	2.056084e-02	2.228166e-03	2.340787e-04
51            	6.648569e-02	7.588898e-02	1.942804e-02	2.169711e-03	2.375911e-04
52            	7.453601e-02	6.811735e-02	1.980249e-02	2.179319e-03	2.402150e-04
53            	1.360021e-01	5.537708e-02	1.942792e-02	2.034224e-03	2.369342e-04
54            	1.199174e-01	4.368857e-02	1.818533e-02	1.959325e-03	2.482876e-04
55            	1.202145e-01	3.522561e-02	1.701472e-02	1.886393e-03	2.574875e-04
56            	1.290475e-01	2.930519e-02	1.634500e-02	1.756363e-03	2.749128e-04
57            	7.676045e-02	2.517042e-02	1.592214e-02	1.616476e-03	2.838999e-04
58            	5.223872e-02	2.220498e-02	1.578689e-02	1.466273e-03	2.943302e-04
59            	4.017776e-02	2.001917e-02	1.588715e-02	1.338972e-03	2.920860e-04
60            	3.292311e-02	1.835413e-02	1.598325e-02	1.247594e-03	2.981096e-04
61            	2.785703e-02	1.685082e-02	1.599394e-02	1.179493e-03	2.919045e-04
62            	2.371172e-02	1.529740e-02	1.578080e-02	1.108517e-03	2.913065e-04
63            	2.077427e-02	1.377755e-02	1.540655e-02	1.025957e-03	2.906085e-04
64            	1.924429e-02	1.231476e-02	1.504674e-02	9.436680e-04	2.954072e-04
65            	1.788526e-02	1.100271e-02	1.480225e-02	8.711551e-04	2.984803e-04
66            	1.728693e-02	9.777907e-03	1.471203e-02	8.240265e-04	3.045539e-04
67            	1.621335e-02	8.598388e-03	1.468722e-02	7.951040e-04	3.086734e-04
68            	1.522045e-02	7.643371e-03	1.479369e-02	7.847767e-04	3.131445e-04
69            	1.409686e-02	6.741743e-03	1.503399e-02	7.786393e-04	3.066133e-04
70            	1.336110e-02	6.055522e-03	1.555579e-02	7.879396e-04	3.113382e-04
71            	1.257750e-02	5.491773e-03	1.641276e-02	8.230026e-04	3.143142e-04
72            	1.163584e-02	5.077714e-03	1.776704e-02	8.529070e-04	3.017738e-04
73            	1.088401e-02	4.791431e-03	1.974080e-02	8.828401e-04	2.957780e-04
74            	1.020194e-02	4.625061e-03	2.235665e-02	8.939771e-04	2.940805e-04
75            	9.719606e-03	4.547157e-03	2.590824e-02	9.175189e-04	2.898263e-04
76            	9.196060e-03	4.582490e-03	3.054775e-02	9.317467e-04	2.887103e-04
77            	9.019617e-03	4.662817e-03	3.738813e-02	9.667985e-04	2.897197e-04
78            	8.730547e-03	4.916357e-03	4.730447e-02	1.014375e-03	3.119054e-04
79            	8.525384e-03	5.295678e-03	6.290837e-02	1.049943e-03	3.203301e-04
80            	8.555438e-03	5.794366e-03	7.600083e-02	1.086772e-03	3.178057e-04
81            	8.911997e-03	6.561847e-03	6.767811e-02	1.111609e-03	3.148542e-04
82            	1.005791e-02	7.432748e-03	5.766493e-02	1.131962e-03	3.055670e-04
83            	1.129415e-02	8.400028e-03	5.358299e-02	1.146688e-03	3.101991e-04
84            	1.310169e-02	9.511228e-03	5.370522e-02	1.162395e-03	3.103271e-04
85            	1.482688e-02	1.091717e-02	5.976177e-02	1.186901e-03	3.181793e-04
86            	1.602216e-02	1.208817e-02	6.742867e-02	1.215441e-03	3.221297e-04
87            	1.789732e-02	1.403517e-02	9.100252e-02	1.232120e-03	3.293556e-04
88            	1.833775e-02	1.592749e-02	1.071830e-01	1.264203e-03	3.395337e-04
89            	1.952481e-02	1.882854e-02	6.843154e-02	1.333044e-03	3.457790e-04
90            	2.144247e-02	2.204733e-02	4.618382e-02	1.407056e-03	3.487458e-04
91            	2.288852e-02	2.497724e-02	3.505374e-02	1.466349e-03	3.498175e-04
92            	2.249570e-02	2.864177e-02	2.891492e-02	1.564864e-03	3.570068e-04
93            	2.519125e-02	3.126142e-02	2.448982e-02	1.694640e-03	3.500491e-04
94            	3.034393e-02	3.227773e-02	2.153134e-02	1.809366e-03	3.466111e-04
95            	3.937526e-02	3.233961e-02	1.924185e-02	1.896921e-03	3.382894e-04
96            	4.530774e-02	3.168574e-02	1.795870e-02	1.922627e-03	3.331307e-04
97            	5.496038e-02	2.861426e-02	1.701483e-02	1.937306e-03	3.168973e-04
98            	6.890442e-02	2.532946e-02	1.620153e-02	1.875183e-03	3.044817e-04
99            	7.613861e-02	2.221420e-02	1.536922e-02	1.814412e-03	2.958554e-04
100           	6.832779e-02	1.949863e-02	1.461100e-02	1.726184e-03	2.874262e-04
101           	5.233990e-02	1.722012e-02	1.403187e-02	1.633339e-03	2.849386e-04
102           	3.997303e-02	1.566754e-02	1.364928e-02	1.530850e-03	2.892295e-04
103           	3.127334e-02	1.447441e-02	1.352111e-02	1.454969e-03	2.930985e-04
104           	2.549097e-02	1.344623e-02	1.373188e-02	1.383743e-03	2.992304e-04
105           	2.141004e-02	1.273770e-02	1.416360e-02	1.329599e-03	3.006386e-04
106           	1.864925e-02	1.210855e-02	1.472212e-02	1.273036e-03	3.029563e-04
107           	1.629705e-02	1.156222e-02	1.539636e-02	1.227580e-03	3.063449e-04
108           	1.460012e-02	1.106307e-02	1.624426e-02	1.188926e-03	3.100834e-04
109           	1.361235e-02	1.053270e-02	1.737910e-02	1.157534e-03	3.129179e-04
110           	1.274097e-02	9.981572e-03	1.890731e-02	1.123274e-03	3.111349e-04
111           	1.241292e-02	9.467108e-03	2.102919e-02	1.100269e-03	3.038688e-04
112           	1.230637e-02	8.970174e-03	2.352061e-02	1.081515e-03	2.946515e-04
113           	1.229726e-02	8.451464e-03	2.630114e-02	1.073758e-03	2.857038e-04
114           	1.220263e-02	8.022459e-03	2.923093e-02	1.075036e-03	2.885501e-04
115           	1.216190e-02	7.609527e-03	3.181130e-02	1.072940e-03	2.865206e-04
116           	1.243752e-02	7.356659e-03	3.349031e-02	1.071940e-03	2.858290e-04
117           	1.195657e-02	7.166745e-03	3.374615e-02	1.062573e-03	2.802841e-04
118           	1.213748e-02	7.012781e-03	3.236568e-02	1.041518e-03	2.817833e-04
119           	1.191264e-02	6.953302e-03	3.012172e-02	1.019881e-03	2.748611e-04
120           	1.157261e-02	6.956177e-03	2.756572e-02	9.865334e-04	2.720743e-04
121           	1.128317e-02	6.795666e-03	2.423269e-02	9.818132e-04	2.663182e-04
122           	1.128327e-02	6.765889e-03	2.152708e-02	9.723300e-04	2.646364e-04
123           	1.147541e-02	6.622467e-03	1.902176e-02	9.612460e-04	2.600239e-04
124           	1.159442e-02	6.534455e-03	1.714719e-02	9.612534e-04	2.641326e-04
125           	1.159485e-02	6.412676e-03	1.550202e-02	9.596239e-04	2.597768e-04
126           	1.153193e-02	6.221340e-03	1.424259e-02	9.479384e-04	2.597224e-04
127           	1.156701e-02	5.991646e-03	1.314973e-02	9.240458e-04	2.645042e-04
128           	1.185069e-02	5.724350e-03	1.222242e-02	8.846410e-04	2.654486e-04
129           	1.226404e-02	5.481582e-03	1.167035e-02	8.570885e-04	2.762579e-04
130           	1.270856e-02	5.230496e-03	1.151189e-02	8.301146e-04	2.791514e-04
131           	1.310363e-02	5.017162e-03	1.168543e-02	8.090993e-04	2.863910e-04
132           	1.323392e-02	4.893068e-03	1.213953e-02	7.952855e-04	2.868192e-04
133           	1.334694e-02	4.835742e-03	1.281581e-02	7.739849e-04	2.828249e-04
134           	1.348201e-02	4.833492e-03	1.386637e-02	7.644678e-04	2.764863e-04
135           	1.338514e-02	4.900678e-03	1.540958e-02	7.646658e-04	2.662998e-04
136           	1.350903e-02	5.036596e-03	1.745937e-02	7.676771e-04	2.586583e-04
137           	1.402381e-02	5.233152e-03	1.981994e-02	7.740638e-04	2.546195e-04
138           	1.465449e-02	5.495082e-03	2.214287e-02	7.918021e-04	2.489022e-04
139           	1.518337e-02	5.827508e-03	2.393201e-02	8.091568e-04	2.503219e-04
140           	1.532840e-02	6.218417e-03	2.510334e-02	8.310286e-04	2.482387e-04
141           	1.557301e-02	6.629866e-03	2.531738e-02	8.340744e-04	2.434469e-04
142           	1.667159e-02	7.122042e-03	2.449237e-02	8.668676e-04	2.409906e-04
143           	1.830429e-02	7.671484e-03	2.286786e-02	9.516232e-04	2.378381e-04
144           	2.013737e-02	8.336025e-03	2.094382e-02	1.063588e-03	2.379176e-04
145           	2.301301e-02	9.106537e-03	1.943500e-02	1.126453e-03	2.350174e-04
146           	2.735936e-02	9.981446e-03	1.781581e-02	1.148703e-03	2.307097e-04
147           	3.050156e-02	1.071138e-02	1.644999e-02	1.201824e-03	2.289813e-04
148           	3.238355e-02	1.108854e-02	1.535323e-02	1.238843e-03	2.270622e-04
149           	3.341265e-02	1.114349e-02	1.421968e-02	1.256534e-03	2.207199e-04
150           	3.618817e-02	1.082150e-02	1.335943e-02	1.233490e-03	2.162638e-04
151           	3.755841e-02	1.045488e-02	1.264589e-02	1.163084e-03	2.086510e-04
152           	3.650904e-02	1.006413e-02	1.220850e-02	1.113991e-03	2.006659e-04
153           	3.303570e-02	9.623157e-03	1.179325e-02	1.061199e-03	1.885702e-04
154           	2.957270e-02	9.130882e-03	1.150261e-02	1.003932e-03	1.837960e-04
155           	2.572436e-02	8.644485e-03	1.132831e-02	9.638571e-04	1.853696e-04
156           	2.219235e-02	8.264227e-03	1.154348e-02	9.425413e-04	1.880754e-04
157           	1.928760e-02	8.115599e-03	1.204039e-02	9.260057e-04	1.963950e-04
158           	1.661253e-02	8.028516e-03	1.278352e-02	9.088932e-04	2.025104e-04
159           	1.448954e-02	7.967302e-03	1.392125e-02	8.832061e-04	2.135649e-04
160           	1.287552e-02	7.938626e-03	1.538632e-02	8.622577e-04	2.185132e-04
161           	1.162099e-02	7.988509e-03	1.720325e-02	8.382519e-04	2.267231e-04
162           	1.079904e-02	8.056209e-03	1.937930e-02	8.230277e-04	2.319280e-04
163           	1.047885e-02	8.158037e-03	2.175352e-02	8.193766e-04	2.372112e-04
164           	1.046180e-02	8.238086e-03	2.375959e-02	8.258243e-04	2.444792e-04
165           	1.054096e-02	8.254872e-03	2.494650e-02	8.213503e-04	2.438213e-04
166           	1.061436e-02	8.260292e-03	2.491788e-02	8.228268e-04	2.479156e-04
167           	1.081754e-02	8.256054e-03	2.364652e-02	8.245505e-04	2.416660e-04
168           	1.113666e-02	8.239937e-03	2.169520e-02	8.220775e-04	2.357574e-04
169           	1.141610e-02	8.203560e-03	1.943561e-02	8.080119e-04	2.271659e-04
170           	1.186415e-02	8.128227e-03	1.720462e-02	8.106838e-04	2.195014e-04
171           	1.224932e-02	7.969147e-03	1.518486e-02	8.127217e-04	2.169468e-04
172           	1.283438e-02	7.696736e-03	1.350005e-02	8.088267e-04	2.133698e-04
173           	1.337866e-02	7.363762e-03	1.218034e-02	8.025652e-04	2.116465e-04
174           	1.398894e-02	6.995422e-03	1.119242e-02	7.805801e-04	2.084969e-04
175           	1.443985e-02	6.659533e-03	1.043280e-02	7.613481e-04	2.031730e-04
176           	1.450926e-02	6.336404e-03	9.838596e-03	7.318046e-04	2.032215e-04
177           	1.440350e-02	6.052526e-03	9.362085e-03	7.000844e-04	2.004700e-04
178           	1.412044e-02	5.769758e-03	9.034378e-03	6.745437e-04	2.003036e-04
179           	1.360004e-02	5.543247e-03	8.796757e-03	6.540442e-04	1.967335e-04
180           	1.263950e-02	5.396526e-03	8.686692e-03	6.368134e-04	1.959641e-04
181           	1.155502e-02	5.287835e-03	8.755782e-03	6.201568e-04	1.957809e-04
182           	1.056473e-02	5.150138e-03	9.011779e-03	6.022558e-04	1.948597e-04
183           	9.417449e-03	5.002483e-03	9.388781e-03	5.776494e-04	1.937252e-04
