/*--------------------------------*- C++ -*----------------------------------*\
  =========                 |
  \\      /  F ield         | OpenFOAM: The Open Source CFD Toolbox
   \\    /   O peration     | Website:  https://openfoam.org
    \\  /    A nd           | Version:  7
     \\/     M anipulation  |
\*---------------------------------------------------------------------------*/
FoamFile
{
    version     2.0;
    format      ascii;
    class       volScalarField;
    location    "1900";
    object      k;
}
// * * * * * * * * * * * * * * * * * * * * * * * * * * * * * * * * * * * * * //

dimensions      [0 2 -2 0 0 0 0];

internalField   nonuniform List<scalar> 
40
(
0.0491868
0.0363565
0.0248183
0.0211011
0.0217665
0.0200255
0.0202154
0.019413
0.0188022
0.0185059
0.017216
0.0171111
0.015272
0.0152212
0.0129083
0.0128701
0.010211
0.0101839
0.00756332
0.00754968
0.00661741
0.00660781
0.00641697
0.00640774
0.00659172
0.0065812
0.00716768
0.0071542
0.00815961
0.00814129
0.00956993
0.00954435
0.0114206
0.0113839
0.0138838
0.0138303
0.0177051
0.0176293
0.0181125
0.0180407
)
;

boundaryField
{
    inlet
    {
        type            zeroGradient;
    }
    outlet
    {
        type            zeroGradient;
    }
    fixedWalls-bottom
    {
        type            kqRWallFunction;
        value           nonuniform List<scalar> 2(0.0181125 0.0180407);
    }
    fixedWalls-top
    {
        type            kqRWallFunction;
        value           nonuniform List<scalar> 2(0.0491868 0.0363565);
    }
    frontAndBack
    {
        type            empty;
    }
}


// ************************************************************************* //
