/*--------------------------------*- C++ -*----------------------------------*\
  =========                 |
  \\      /  F ield         | OpenFOAM: The Open Source CFD Toolbox
   \\    /   O peration     | Website:  https://openfoam.org
    \\  /    A nd           | Version:  7
     \\/     M anipulation  |
\*---------------------------------------------------------------------------*/
FoamFile
{
    version     2.0;
    format      ascii;
    class       volScalarField;
    location    "1900";
    object      nut;
}
// * * * * * * * * * * * * * * * * * * * * * * * * * * * * * * * * * * * * * //

dimensions      [0 2 -1 0 0 0 0];

internalField   nonuniform List<scalar> 
140
(
3.58975e-09
3.58513e-09
6.18047e-07
6.17316e-07
7.56381e-06
7.55753e-06
2.11272e-05
2.11152e-05
3.86461e-05
3.86271e-05
5.94937e-05
5.94674e-05
8.29469e-05
8.2914e-05
0.000108154
0.000108112
0.00013448
0.00013443
0.000162348
0.00016229
0.00019165
0.000191585
0.000222294
0.000222221
0.000254187
0.000254107
0.00028723
0.000287142
0.000321308
0.000321212
0.000356289
0.000356184
0.000392014
0.000391902
0.000426714
0.000426615
0.000460436
0.000460332
0.000494345
0.000494222
0.000530208
0.000530061
0.000569921
0.000569746
0.000613773
0.000613579
0.000656616
0.000656433
0.000694509
0.000694313
0.000731974
0.000731766
0.000768855
0.000768633
0.000804974
0.000804738
0.000840103
0.000839853
0.000873913
0.000873646
0.000905884
0.000905601
0.000935183
0.000934883
0.000960506
0.00096019
0.000979952
0.000979623
0.000991045
0.000990706
0.000991049
0.000990712
0.000979967
0.000979638
0.000960528
0.000960214
0.000935211
0.000934913
0.000905917
0.000905635
0.000873949
0.000873684
0.000840141
0.000839891
0.000805012
0.000804777
0.000768892
0.000768671
0.00073201
0.000731801
0.000694542
0.000694346
0.000656648
0.000656463
0.000613782
0.000613586
0.000569927
0.00056975
0.000530219
0.000530069
0.00049436
0.000494235
0.000460453
0.000460346
0.00042673
0.000426629
0.000392027
0.000391913
0.000356299
0.000356193
0.000321316
0.000321219
0.000287236
0.000287147
0.000254192
0.000254111
0.000222297
0.000222224
0.000191652
0.000191586
0.000162349
0.000162291
0.000134481
0.00013443
0.000108154
0.000108111
8.29468e-05
8.29135e-05
5.94933e-05
5.94668e-05
3.86456e-05
3.86265e-05
2.11267e-05
2.11147e-05
7.56351e-06
7.55722e-06
6.18011e-07
6.17279e-07
3.58952e-09
3.5849e-09
)
;

boundaryField
{
    inlet
    {
        type            zeroGradient;
    }
    outlet
    {
        type            zeroGradient;
    }
    fixedWalls-bottom
    {
        type            nutkWallFunction;
        Cmu             0.09;
        kappa           0.41;
        E               9.8;
        value           uniform 0;
    }
    fixedWalls-top
    {
        type            nutkWallFunction;
        Cmu             0.09;
        kappa           0.41;
        E               9.8;
        value           uniform 0;
    }
    frontAndBack
    {
        type            empty;
    }
}


// ************************************************************************* //
