/*--------------------------------*- C++ -*----------------------------------*\
  =========                 |
  \\      /  F ield         | OpenFOAM: The Open Source CFD Toolbox
   \\    /   O peration     | Website:  https://openfoam.org
    \\  /    A nd           | Version:  7
     \\/     M anipulation  |
\*---------------------------------------------------------------------------*/
FoamFile
{
    version     2.0;
    format      ascii;
    class       volScalarField;
    location    "1900";
    object      omega;
}
// * * * * * * * * * * * * * * * * * * * * * * * * * * * * * * * * * * * * * //

dimensions      [0 0 -1 0 0 0 0];

internalField   nonuniform List<scalar> 
140
(
9167.61
9167.61
1699.61
1699.5
737.476
737.385
434.268
434.22
288.784
288.754
207.329
207.306
157.206
157.186
124.089
124.072
100.89
100.874
83.8685
83.8544
70.9293
70.9166
60.8118
60.8005
52.7172
52.707
46.1166
46.1074
40.6474
40.6391
36.0531
36.0455
32.1477
32.1408
28.7856
28.7792
25.8491
25.8432
23.2493
23.2439
20.9241
20.9192
18.8343
18.8297
16.9565
16.9522
15.2687
15.2646
13.7426
13.7388
12.3555
12.352
11.0941
11.0909
9.94967
9.94666
8.91765
8.91487
7.99766
7.99512
7.19348
7.19117
6.51311
6.51101
5.96907
5.96716
5.57904
5.57726
5.36727
5.36558
5.36734
5.36566
5.57924
5.57747
5.96939
5.96748
6.51352
6.51143
7.19395
7.19166
7.99818
7.99566
8.91819
8.91543
9.95022
9.94722
11.0947
11.0914
12.356
12.3525
13.7431
13.7393
15.2691
15.2651
16.9569
16.9526
18.8347
18.8301
20.9245
20.9195
23.2495
23.2442
25.8492
25.8433
28.7856
28.7792
32.1476
32.1406
36.0528
36.0452
40.6469
40.6386
46.116
46.1068
52.7164
52.7062
60.8109
60.7995
70.9281
70.9155
83.8671
83.853
100.888
100.873
124.087
124.07
157.204
157.184
207.326
207.303
288.78
288.75
434.264
434.215
737.469
737.378
1699.6
1699.49
9167.61
9167.61
)
;

boundaryField
{
    inlet
    {
        type            zeroGradient;
    }
    outlet
    {
        type            zeroGradient;
    }
    fixedWalls-bottom
    {
        beta1           0.075;
        blended         0;
        type            omegaWallFunction;
        value           uniform 9167.61;
    }
    fixedWalls-top
    {
        beta1           0.075;
        blended         0;
        type            omegaWallFunction;
        value           uniform 9167.61;
    }
    frontAndBack
    {
        type            empty;
    }
}


// ************************************************************************* //
