/*--------------------------------*- C++ -*----------------------------------*\
  =========                 |
  \\      /  F ield         | OpenFOAM: The Open Source CFD Toolbox
   \\    /   O peration     | Website:  https://openfoam.org
    \\  /    A nd           | Version:  7
     \\/     M anipulation  |
\*---------------------------------------------------------------------------*/
FoamFile
{
    version     2.0;
    format      ascii;
    class       volScalarField;
    location    "1900";
    object      omega;
}
// * * * * * * * * * * * * * * * * * * * * * * * * * * * * * * * * * * * * * //

dimensions      [0 0 -1 0 0 0 0];

internalField   nonuniform List<scalar> 
40
(
798.917
798.917
244.363
241.823
118.797
115.952
68.8845
67.4218
43.9313
43.4294
29.6013
29.4475
20.4714
20.41
14.1948
14.1602
9.69479
9.67521
6.63026
6.62283
5.96615
5.9623
6.03557
6.03272
6.61932
6.61704
7.8326
7.83087
9.86839
9.86754
13.0804
13.081
18.2602
18.2624
27.6215
27.6252
49.679
49.6728
119.863
119.627
)
;

boundaryField
{
    inlet
    {
        type            zeroGradient;
    }
    outlet
    {
        type            zeroGradient;
    }
    fixedWalls-bottom
    {
        beta1           0.075;
        blended         0;
        type            omegaWallFunction;
        value           nonuniform List<scalar> 2(119.863 119.627);
    }
    fixedWalls-top
    {
        beta1           0.075;
        blended         0;
        type            omegaWallFunction;
        value           nonuniform List<scalar> 2(798.917 798.917);
    }
    frontAndBack
    {
        type            empty;
    }
}


// ************************************************************************* //
