/*--------------------------------*- C++ -*----------------------------------*\
  =========                 |
  \\      /  F ield         | OpenFOAM: The Open Source CFD Toolbox
   \\    /   O peration     | Website:  https://openfoam.org
    \\  /    A nd           | Version:  7
     \\/     M anipulation  |
\*---------------------------------------------------------------------------*/
FoamFile
{
    version     2.0;
    format      ascii;
    class       volScalarField;
    location    "1900";
    object      p_rgh;
}
// * * * * * * * * * * * * * * * * * * * * * * * * * * * * * * * * * * * * * //

dimensions      [1 -1 -2 0 0 0 0];

internalField   nonuniform List<scalar> 
140
(
0.00570776
-0.120103
0.00570776
-0.120103
0.00570776
-0.120103
0.00570776
-0.120103
0.00570776
-0.120103
0.00570777
-0.120103
0.00570778
-0.120103
0.00570779
-0.120103
0.00570779
-0.120103
0.0057078
-0.120103
0.00570781
-0.120103
0.00570782
-0.120103
0.00570782
-0.120103
0.00570783
-0.120103
0.00570784
-0.120103
0.00570784
-0.120103
0.00570784
-0.120103
0.00570784
-0.120103
0.00570784
-0.120103
0.00570783
-0.120103
0.00570782
-0.120103
0.00570782
-0.120103
0.00570781
-0.120103
0.00570779
-0.120103
0.00570776
-0.120103
0.00570773
-0.120102
0.00570769
-0.120102
0.00570764
-0.120102
0.00570758
-0.120102
0.00570751
-0.120102
0.00570743
-0.120102
0.00570735
-0.120102
0.00570725
-0.120102
0.00570715
-0.120102
0.00570705
-0.120101
0.00570705
-0.120101
0.00570715
-0.120102
0.00570725
-0.120102
0.00570735
-0.120102
0.00570743
-0.120102
0.00570751
-0.120102
0.00570758
-0.120102
0.00570764
-0.120102
0.00570769
-0.120102
0.00570773
-0.120102
0.00570776
-0.120103
0.00570779
-0.120103
0.00570781
-0.120103
0.00570782
-0.120103
0.00570783
-0.120103
0.00570783
-0.120103
0.00570784
-0.120103
0.00570784
-0.120103
0.00570784
-0.120103
0.00570784
-0.120103
0.00570784
-0.120103
0.00570783
-0.120103
0.00570782
-0.120103
0.00570782
-0.120103
0.00570781
-0.120103
0.0057078
-0.120103
0.00570779
-0.120103
0.00570779
-0.120103
0.00570778
-0.120103
0.00570777
-0.120103
0.00570776
-0.120103
0.00570776
-0.120103
0.00570776
-0.120103
0.00570776
-0.120103
0.00570776
-0.120103
)
;

boundaryField
{
    inlet
    {
        type            zeroGradient;
    }
    outlet
    {
        type            zeroGradient;
    }
    fixedWalls-bottom
    {
        type            fixedFluxPressure;
        gradient        uniform 0;
        value           nonuniform List<scalar> 2(0.00570776 -0.120103);
    }
    fixedWalls-top
    {
        type            fixedFluxPressure;
        gradient        uniform 0;
        value           nonuniform List<scalar> 2(0.00570776 -0.120103);
    }
    frontAndBack
    {
        type            empty;
    }
}


// ************************************************************************* //
