/*--------------------------------*- C++ -*----------------------------------*\
  =========                 |
  \\      /  F ield         | OpenFOAM: The Open Source CFD Toolbox
   \\    /   O peration     | Website:  https://openfoam.org
    \\  /    A nd           | Version:  7
     \\/     M anipulation  |
\*---------------------------------------------------------------------------*/
FoamFile
{
    version     2.0;
    format      ascii;
    class       surfaceScalarField;
    location    "1900";
    object      phi;
}
// * * * * * * * * * * * * * * * * * * * * * * * * * * * * * * * * * * * * * //

dimensions      [1 0 -1 0 0 0 0];

internalField   nonuniform List<scalar> 
58
(
0.00164338
-3.02891e-05
2.80982e-05
0.00301707
-1.5361e-05
1.68255e-05
0.00470991
-5.03026e-06
2.73989e-06
0.00685162
-2.52739e-06
-7.47527e-06
0.00965826
1.03027e-06
-1.86561e-05
0.0133837
7.69404e-06
-3.16996e-05
0.0183366
1.50749e-05
-4.35629e-05
0.0248989
1.71421e-05
-4.39681e-05
0.0335169
2.82873e-06
-1.15326e-05
0.0446095
-3.01735e-05
5.77205e-05
0.018336
-1.66626e-05
3.11079e-05
0.0183435
-1.15227e-06
3.93658e-07
0.0182816
1.36688e-05
-2.89155e-05
0.0181372
2.74381e-05
-5.60982e-05
0.0178936
3.97078e-05
-8.02896e-05
0.0175268
4.98413e-05
-0.00010027
0.0169981
5.67595e-05
-0.000114024
0.0162358
5.85959e-05
-0.000118039
0.0150374
4.90795e-05
-9.95359e-05
0.0121581
)
;

boundaryField
{
    inlet
    {
        type            calculated;
        value           nonuniform List<scalar> 
20
(
-0.00161314
-0.00303199
-0.00472024
-0.00685412
-0.00966182
-0.0133904
-0.018344
-0.024901
-0.0335025
-0.0445765
-0.0183495
-0.018359
-0.0182965
-0.018151
-0.0179059
-0.0175369
-0.0170051
-0.0162376
-0.0150279
-0.012109
)
;
    }
    outlet
    {
        type            calculated;
        value           nonuniform List<scalar> 
20
(
0.00161528
0.00302834
0.004724
0.00686183
0.00966944
0.0133967
0.0183485
0.0248993
0.0334844
0.0445403
0.0183626
0.0183742
0.018311
0.0181644
0.0179178
0.0175467
0.0170119
0.0162398
0.0150189
0.0120586
)
;
    }
    fixedWalls-bottom
    {
        type            calculated;
        value           uniform 0;
    }
    fixedWalls-top
    {
        type            calculated;
        value           uniform 0;
    }
    frontAndBack
    {
        type            empty;
        value           nonuniform 0();
    }
}


// ************************************************************************* //
