/*--------------------------------*- C++ -*----------------------------------*\
  =========                 |
  \\      /  F ield         | OpenFOAM: The Open Source CFD Toolbox
   \\    /   O peration     | Website:  https://openfoam.org
    \\  /    A nd           | Version:  7
     \\/     M anipulation  |
\*---------------------------------------------------------------------------*/
FoamFile
{
    version     2.0;
    format      ascii;
    class       surfaceScalarField;
    location    "1900";
    object      phi;
}
// * * * * * * * * * * * * * * * * * * * * * * * * * * * * * * * * * * * * * //

dimensions      [1 0 -1 0 0 0 0];

internalField   nonuniform List<scalar> 
58
(
0.00163837
-2.52786e-05
2.32949e-05
0.00301832
-1.12751e-05
1.29704e-05
0.00471194
-3.12634e-06
1.00558e-06
0.00685214
-1.79998e-06
-8.16607e-06
0.00965771
1.49849e-06
-1.91316e-05
0.0133831
8.29297e-06
-3.22759e-05
0.0183363
1.57251e-05
-4.41875e-05
0.0248989
1.7701e-05
-4.44946e-05
0.0335171
3.25782e-06
-1.19322e-05
0.0446098
-2.98592e-05
5.74133e-05
0.0183361
-1.64301e-05
3.08638e-05
0.0183436
-1.00059e-06
2.1158e-07
0.0182817
1.37482e-05
-2.90404e-05
0.0181373
2.74529e-05
-5.61724e-05
0.0178937
3.96681e-05
-8.03234e-05
0.0175269
4.9763e-05
-0.00010028
0.0169983
5.66675e-05
-0.000114038
0.016236
5.85377e-05
-0.000118101
0.0150378
4.90754e-05
-9.96581e-05
0.0121589
)
;

boundaryField
{
    inlet
    {
        type            calculated;
        value           nonuniform List<scalar> 
20
(
-0.00161314
-0.00303232
-0.00472009
-0.00685346
-0.00966101
-0.0133898
-0.0183437
-0.0249009
-0.0335026
-0.0445767
-0.0183495
-0.018359
-0.0182965
-0.018151
-0.0179059
-0.017537
-0.0170052
-0.0162379
-0.0150283
-0.0121099
)
;
    }
    outlet
    {
        type            calculated;
        value           nonuniform List<scalar> 
20
(
0.00161508
0.00302865
0.00472391
0.00686131
0.00966868
0.0133962
0.0183482
0.0248992
0.0334845
0.0445404
0.0183626
0.0183742
0.018311
0.0181644
0.0179179
0.0175469
0.0170121
0.0162401
0.0150193
0.0120593
)
;
    }
    fixedWalls-bottom
    {
        type            calculated;
        value           uniform 0;
    }
    fixedWalls-top
    {
        type            calculated;
        value           uniform 0;
    }
    frontAndBack
    {
        type            empty;
        value           nonuniform 0();
    }
}


// ************************************************************************* //
