/*--------------------------------*- C++ -*----------------------------------*\
  =========                 |
  \\      /  F ield         | OpenFOAM: The Open Source CFD Toolbox
   \\    /   O peration     | Website:  https://openfoam.org
    \\  /    A nd           | Version:  7
     \\/     M anipulation  |
\*---------------------------------------------------------------------------*/
FoamFile
{
    version     2.0;
    format      ascii;
    class       surfaceScalarField;
    location    "1900";
    object      phi;
}
// * * * * * * * * * * * * * * * * * * * * * * * * * * * * * * * * * * * * * //

dimensions      [1 0 -1 0 0 0 0];

internalField   nonuniform List<scalar> 
208
(
0.000107298
-1.54741e-07
2.98234e-07
0.000345832
-3.92056e-07
7.39134e-07
0.00058143
-5.66898e-07
1.05081e-06
0.000778369
-6.61355e-07
1.20826e-06
0.000948552
-6.94756e-07
1.24932e-06
0.00110674
-6.83681e-07
1.2047e-06
0.00126144
-6.39131e-07
1.09355e-06
0.00141789
-5.68074e-07
9.28097e-07
0.00157967
-4.74849e-07
7.15704e-07
0.0017492
-3.62332e-07
4.60621e-07
0.00192834
-2.32375e-07
1.65368e-07
0.00211868
-8.6306e-08
-1.68347e-07
0.00232171
7.48783e-08
-5.3924e-07
0.00253888
2.50394e-07
-9.46174e-07
0.00277164
4.39608e-07
-1.38796e-06
0.00302147
6.41999e-07
-1.86319e-06
0.0032899
8.56739e-07
-2.36944e-06
0.00357864
1.08126e-06
-2.90192e-06
0.00388956
1.31299e-06
-3.45452e-06
0.00422451
1.55224e-06
-4.02185e-06
0.00458519
1.80158e-06
-4.59969e-06
0.00497316
2.06427e-06
-5.18459e-06
0.00538985
2.34015e-06
-5.77045e-06
0.00583701
2.61924e-06
-6.34239e-06
0.00631692
2.88744e-06
-6.87741e-06
0.00683181
3.13292e-06
-7.34979e-06
0.00738367
3.34167e-06
-7.72972e-06
0.00797442
3.4956e-06
-7.97966e-06
0.00860587
3.57152e-06
-8.05233e-06
0.00927963
3.53983e-06
-7.88811e-06
0.00999703
3.36257e-06
-7.41121e-06
0.010759
2.99068e-06
-6.52409e-06
0.0115659
2.3597e-06
-5.0989e-06
0.0124173
1.38318e-06
-2.96418e-06
0.0133114
-5.31468e-10
1.45508e-09
0.0133114
-1.38423e-06
2.96706e-06
0.0124173
-2.36072e-06
5.10169e-06
0.0115659
-2.99165e-06
6.52674e-06
0.0107589
-3.36345e-06
7.41366e-06
0.00999695
-3.54057e-06
7.89032e-06
0.00927954
-3.57208e-06
8.05425e-06
0.00860578
-3.49594e-06
7.98126e-06
0.00797433
-3.34176e-06
7.73097e-06
0.00738358
-3.13274e-06
7.35067e-06
0.00683172
-2.88697e-06
6.87791e-06
0.00631683
-2.61848e-06
6.34251e-06
0.00583693
-2.3391e-06
5.7702e-06
0.00538977
-2.06297e-06
5.18402e-06
0.00497308
-1.80009e-06
4.59887e-06
0.00458512
-1.55064e-06
4.02084e-06
0.00422443
-1.31135e-06
3.4534e-06
0.00388949
-1.07965e-06
2.90077e-06
0.00357857
-8.55204e-07
2.3683e-06
0.00328984
-6.40539e-07
1.86208e-06
0.00302141
-4.38205e-07
1.38686e-06
0.00277158
-2.49036e-07
9.45077e-07
0.00253883
-7.35595e-08
5.38145e-07
0.00232166
8.75865e-08
1.67257e-07
0.00211864
2.33615e-07
-1.66448e-07
0.0019283
3.63528e-07
-4.61683e-07
0.00174917
4.75993e-07
-7.16739e-07
0.00157964
5.69156e-07
-9.29092e-07
0.00141787
6.40135e-07
-1.09449e-06
0.00126141
6.84574e-07
-1.20555e-06
0.00110672
6.95498e-07
-1.25003e-06
0.000948534
6.61916e-07
-1.20879e-06
0.000778354
5.67264e-07
-1.05116e-06
0.000581417
3.92235e-07
-7.39304e-07
0.000345823
1.54786e-07
-2.98275e-07
0.000107295
)
;

boundaryField
{
    inlet
    {
        type            calculated;
        value           nonuniform List<scalar> 
70
(
-0.000107143
-0.000345594
-0.000581255
-0.000778275
-0.000948519
-0.00110675
-0.00126148
-0.00141797
-0.00157976
-0.00174931
-0.00192847
-0.00211882
-0.00232187
-0.00253905
-0.00277183
-0.00302167
-0.00329011
-0.00357886
-0.00388979
-0.00422475
-0.00458544
-0.00497342
-0.00539012
-0.00583729
-0.00631719
-0.00683205
-0.00738388
-0.00797457
-0.00860594
-0.00927959
-0.00999685
-0.0107586
-0.0115653
-0.0124163
-0.01331
-0.01331
-0.0124163
-0.0115652
-0.0107586
-0.00999677
-0.00927951
-0.00860586
-0.00797449
-0.00738379
-0.00683197
-0.0063171
-0.00583721
-0.00539004
-0.00497334
-0.00458537
-0.00422467
-0.00388972
-0.0035788
-0.00329005
-0.00302161
-0.00277177
-0.00253901
-0.00232183
-0.00211878
-0.00192843
-0.00174928
-0.00157973
-0.00141794
-0.00126146
-0.00110673
-0.0009485
-0.000778259
-0.000581242
-0.000345585
-0.00010714
)
;
    }
    outlet
    {
        type            calculated;
        value           nonuniform List<scalar> 
70
(
0.000106999
0.000345391
0.000581118
0.000778212
0.000948511
0.00110679
0.00126155
0.00141806
0.00157988
0.00174946
0.00192863
0.00211901
0.00232208
0.00253929
0.00277208
0.00302194
0.0032904
0.00357917
0.00389011
0.00422508
0.00458577
0.00497374
0.00539043
0.00583758
0.00631745
0.00683228
0.00738405
0.00797467
0.00860594
0.00927946
0.00999655
0.0107581
0.0115645
0.0124152
0.0133084
0.0133084
0.0124151
0.0115644
0.0107581
0.00999647
0.00927938
0.00860585
0.00797458
0.00738396
0.00683219
0.00631737
0.0058375
0.00539035
0.00497366
0.00458569
0.004225
0.00389004
0.00357911
0.00329034
0.00302188
0.00277203
0.00253924
0.00232204
0.00211897
0.0019286
0.00174942
0.00157985
0.00141803
0.00126152
0.00110677
0.000948492
0.000778196
0.000581105
0.000345382
0.000106997
)
;
    }
    fixedWalls-bottom
    {
        type            calculated;
        value           uniform 0;
    }
    fixedWalls-top
    {
        type            calculated;
        value           uniform 0;
    }
    frontAndBack
    {
        type            empty;
        value           nonuniform 0();
    }
}


// ************************************************************************* //
