/*--------------------------------*- C++ -*----------------------------------*\
  =========                 |
  \\      /  F ield         | OpenFOAM: The Open Source CFD Toolbox
   \\    /   O peration     | Website:  https://openfoam.org
    \\  /    A nd           | Version:  7
     \\/     M anipulation  |
\*---------------------------------------------------------------------------*/
FoamFile
{
    version     2.0;
    format      ascii;
    class       volScalarField;
    location    "1900";
    object      T;
}
// * * * * * * * * * * * * * * * * * * * * * * * * * * * * * * * * * * * * * //

dimensions      [0 0 0 1 0 0 0];

internalField   nonuniform List<scalar> 
140
(
341.359
341.361
338.012
338.017
334.958
334.966
332.636
332.645
330.917
330.928
329.593
329.604
328.528
328.54
327.64
327.652
326.876
326.888
326.205
326.217
325.605
325.617
325.063
325.075
324.568
324.581
324.114
324.126
323.693
323.705
323.301
323.313
322.934
322.946
322.589
322.6
322.26
322.271
321.947
321.957
321.646
321.656
321.359
321.368
321.084
321.094
320.822
320.831
320.568
320.577
320.322
320.329
320.08
320.087
319.842
319.849
319.607
319.612
319.372
319.376
319.135
319.14
318.896
318.9
318.652
318.654
318.399
318.401
318.135
318.136
317.865
317.864
317.601
317.599
317.348
317.346
317.104
317.101
316.865
316.861
316.628
316.624
316.393
316.388
316.158
316.152
315.92
315.913
315.678
315.671
315.432
315.424
315.178
315.17
314.916
314.907
314.641
314.632
314.354
314.344
314.053
314.043
313.74
313.729
313.412
313.4
313.066
313.054
312.699
312.688
312.307
312.295
311.887
311.875
311.432
311.42
310.938
310.925
310.395
310.383
309.796
309.783
309.124
309.112
308.36
308.348
307.472
307.461
306.407
306.397
305.083
305.072
303.364
303.355
301.042
301.035
297.988
297.983
294.641
294.639
)
;

boundaryField
{
    inlet
    {
        type            zeroGradient;
    }
    outlet
    {
        type            zeroGradient;
    }
    fixedWalls-bottom
    {
        type            fixedValue;
        value           uniform 293;
    }
    fixedWalls-top
    {
        type            fixedValue;
        value           uniform 343;
    }
    frontAndBack
    {
        type            empty;
    }
}


// ************************************************************************* //
