/*--------------------------------*- C++ -*----------------------------------*\
  =========                 |
  \\      /  F ield         | OpenFOAM: The Open Source CFD Toolbox
   \\    /   O peration     | Website:  https://openfoam.org
    \\  /    A nd           | Version:  7
     \\/     M anipulation  |
\*---------------------------------------------------------------------------*/
FoamFile
{
    version     2.0;
    format      ascii;
    class       volVectorField;
    location    "1900";
    object      U;
}
// * * * * * * * * * * * * * * * * * * * * * * * * * * * * * * * * * * * * * //

dimensions      [0 1 -1 0 0 0 0];

internalField   nonuniform List<vector> 
140
(
(0.121113 -5.98464e-08 0)
(0.121056 1.03969e-07 0)
(0.365067 -2.22155e-07 0)
(0.364902 4.28031e-07 0)
(0.573764 -4.11889e-07 0)
(0.573541 7.69218e-07 0)
(0.717902 -5.16275e-07 0)
(0.717661 9.51561e-07 0)
(0.817624 -5.63678e-07 0)
(0.817373 1.02273e-06 0)
(0.891539 -5.69802e-07 0)
(0.891281 1.01566e-06 0)
(0.94963 -5.44921e-07 0)
(0.949364 9.48259e-07 0)
(0.997528 -4.96605e-07 0)
(0.997255 8.32918e-07 0)
(1.03857 -4.28602e-07 0)
(1.03829 6.77053e-07 0)
(1.07474 -3.4386e-07 0)
(1.07445 4.84982e-07 0)
(1.10722 -2.44336e-07 0)
(1.10693 2.59395e-07 0)
(1.13686 -1.3122e-07 0)
(1.13655 1.85477e-09 0)
(1.16422 -5.42596e-09 0)
(1.16392 -2.8649e-07 0)
(1.18976 1.32338e-07 0)
(1.18944 -6.04696e-07 0)
(1.21378 2.81516e-07 0)
(1.21346 -9.51855e-07 0)
(1.23655 4.41747e-07 0)
(1.23622 -1.32701e-06 0)
(1.25824 6.12453e-07 0)
(1.25791 -1.72883e-06 0)
(1.27904 7.92373e-07 0)
(1.27871 -2.1541e-06 0)
(1.29914 9.78859e-07 0)
(1.29879 -2.59848e-06 0)
(1.31861 1.17091e-06 0)
(1.31826 -3.0568e-06 0)
(1.33747 1.3699e-06 0)
(1.33712 -3.52516e-06 0)
(1.35564 1.57895e-06 0)
(1.35529 -4.00089e-06 0)
(1.37302 1.8e-06 0)
(1.37266 -4.48088e-06 0)
(1.38955 2.02872e-06 0)
(1.38919 -4.9568e-06 0)
(1.40532 2.25447e-06 0)
(1.40495 -5.41315e-06 0)
(1.42034 2.46666e-06 0)
(1.41996 -5.82915e-06 0)
(1.43454 2.65472e-06 0)
(1.43416 -6.18252e-06 0)
(1.44785 2.80612e-06 0)
(1.44747 -6.44634e-06 0)
(1.46016 2.90413e-06 0)
(1.45978 -6.58632e-06 0)
(1.47136 2.92742e-06 0)
(1.47098 -6.55924e-06 0)
(1.4813 2.84871e-06 0)
(1.48091 -6.31046e-06 0)
(1.48979 2.63329e-06 0)
(1.4894 -5.77086e-06 0)
(1.49662 2.2362e-06 0)
(1.49623 -4.85134e-06 0)
(1.50154 1.58917e-06 0)
(1.50114 -3.41665e-06 0)
(1.50421 5.98847e-07 0)
(1.50382 -1.27987e-06 0)
(1.50421 -5.99716e-07 0)
(1.50382 1.28224e-06 0)
(1.50154 -1.59002e-06 0)
(1.50114 3.41898e-06 0)
(1.49661 -2.23702e-06 0)
(1.49622 4.85357e-06 0)
(1.48978 -2.63405e-06 0)
(1.48939 5.77295e-06 0)
(1.48129 -2.84938e-06 0)
(1.4809 6.31238e-06 0)
(1.47135 -2.92796e-06 0)
(1.47096 6.56094e-06 0)
(1.46015 -2.90451e-06 0)
(1.45977 6.58777e-06 0)
(1.44783 -2.8063e-06 0)
(1.44745 6.44752e-06 0)
(1.43452 -2.65469e-06 0)
(1.43414 6.1834e-06 0)
(1.42032 -2.46639e-06 0)
(1.41995 5.82973e-06 0)
(1.4053 -2.25397e-06 0)
(1.40493 5.41341e-06 0)
(1.38953 -2.02798e-06 0)
(1.38917 4.95675e-06 0)
(1.373 -1.79904e-06 0)
(1.37264 4.48054e-06 0)
(1.35562 -1.5778e-06 0)
(1.35527 4.00031e-06 0)
(1.33745 -1.36862e-06 0)
(1.3371 3.5244e-06 0)
(1.31859 -1.16958e-06 0)
(1.31824 3.05592e-06 0)
(1.29911 -9.77526e-07 0)
(1.29877 2.59754e-06 0)
(1.27902 -7.91084e-07 0)
(1.27868 2.15316e-06 0)
(1.25821 -6.11232e-07 0)
(1.25788 1.72791e-06 0)
(1.23652 -4.4058e-07 0)
(1.2362 1.32611e-06 0)
(1.21376 -2.8039e-07 0)
(1.21344 9.5096e-07 0)
(1.18974 -1.31246e-07 0)
(1.18942 6.03801e-07 0)
(1.1642 6.48751e-09 0)
(1.16389 2.85597e-07 0)
(1.13683 1.3225e-07 0)
(1.13653 -2.74164e-09 0)
(1.1072 2.45332e-07 0)
(1.10691 -2.60271e-07 0)
(1.07472 3.44818e-07 0)
(1.07443 -4.85841e-07 0)
(1.03855 4.29515e-07 0)
(1.03827 -6.77886e-07 0)
(0.997509 4.97458e-07 0)
(0.997236 -8.3371e-07 0)
(0.949612 5.45707e-07 0)
(0.949346 -9.48996e-07 0)
(0.891522 5.70478e-07 0)
(0.891264 -1.0163e-06 0)
(0.817609 5.64217e-07 0)
(0.817357 -1.02325e-06 0)
(0.717888 5.16658e-07 0)
(0.717646 -9.51929e-07 0)
(0.573751 4.12111e-07 0)
(0.573528 -7.69429e-07 0)
(0.365058 2.22228e-07 0)
(0.364892 -4.28104e-07 0)
(0.12111 5.9863e-08 0)
(0.121052 -1.0397e-07 0)
)
;

boundaryField
{
    inlet
    {
        type            mapped;
        field           U;
        setAverage      1;
        average         (1.3452 0 0);
        interpolationScheme cell;
        value           nonuniform List<vector> 
70
(
(0.121089 1.04014e-07 0)
(0.365002 4.28226e-07 0)
(0.573699 7.69586e-07 0)
(0.717858 9.52061e-07 0)
(0.817598 1.02334e-06 0)
(0.891524 1.01636e-06 0)
(0.949623 9.49036e-07 0)
(0.997526 8.33734e-07 0)
(1.03857 6.77898e-07 0)
(1.07474 4.85835e-07 0)
(1.10722 2.6024e-07 0)
(1.13686 2.67614e-09 0)
(1.16423 -2.85706e-07 0)
(1.18976 -6.03963e-07 0)
(1.21379 -9.51186e-07 0)
(1.23655 -1.32641e-06 0)
(1.25824 -1.7283e-06 0)
(1.27905 -2.15365e-06 0)
(1.29914 -2.59812e-06 0)
(1.31862 -3.05652e-06 0)
(1.33748 -3.52495e-06 0)
(1.35565 -4.00071e-06 0)
(1.37303 -4.48074e-06 0)
(1.38957 -4.95674e-06 0)
(1.40534 -5.4132e-06 0)
(1.42036 -5.82933e-06 0)
(1.43456 -6.18282e-06 0)
(1.44787 -6.44676e-06 0)
(1.46019 -6.58684e-06 0)
(1.47139 -6.55984e-06 0)
(1.48133 -6.31112e-06 0)
(1.48982 -5.77154e-06 0)
(1.49665 -4.85197e-06 0)
(1.50157 -3.41713e-06 0)
(1.50425 -1.28006e-06 0)
(1.50425 1.28243e-06 0)
(1.50157 3.41945e-06 0)
(1.49665 4.85419e-06 0)
(1.48981 5.77362e-06 0)
(1.48132 6.31303e-06 0)
(1.47138 6.56154e-06 0)
(1.46018 6.58828e-06 0)
(1.44786 6.44793e-06 0)
(1.43455 6.1837e-06 0)
(1.42034 5.8299e-06 0)
(1.40532 5.41346e-06 0)
(1.38955 4.95668e-06 0)
(1.37301 4.4804e-06 0)
(1.35563 4.00012e-06 0)
(1.33746 3.52418e-06 0)
(1.31859 3.05564e-06 0)
(1.29912 2.59719e-06 0)
(1.27902 2.15271e-06 0)
(1.25822 1.72738e-06 0)
(1.23653 1.32551e-06 0)
(1.21376 9.50292e-07 0)
(1.18974 6.0307e-07 0)
(1.1642 2.84815e-07 0)
(1.13684 -3.56264e-09 0)
(1.1072 -2.61116e-07 0)
(1.07472 -4.86695e-07 0)
(1.03855 -6.78731e-07 0)
(0.997507 -8.34527e-07 0)
(0.949605 -9.49775e-07 0)
(0.891507 -1.01701e-06 0)
(0.817582 -1.02386e-06 0)
(0.717843 -9.52429e-07 0)
(0.573686 -7.69798e-07 0)
(0.364993 -4.28298e-07 0)
(0.121086 -1.04016e-07 0)
)
;
    }
    outlet
    {
        type            zeroGradient;
    }
    fixedWalls-bottom
    {
        type            fixedValue;
        value           uniform (0 0 0);
    }
    fixedWalls-top
    {
        type            fixedValue;
        value           uniform (0 0 0);
    }
    frontAndBack
    {
        type            empty;
    }
}


// ************************************************************************* //
