/*--------------------------------*- C++ -*----------------------------------*\
  =========                 |
  \\      /  F ield         | OpenFOAM: The Open Source CFD Toolbox
   \\    /   O peration     | Website:  https://openfoam.org
    \\  /    A nd           | Version:  7
     \\/     M anipulation  |
\*---------------------------------------------------------------------------*/
FoamFile
{
    version     2.0;
    format      ascii;
    class       volVectorField;
    location    "1900";
    object      U;
}
// * * * * * * * * * * * * * * * * * * * * * * * * * * * * * * * * * * * * * //

dimensions      [0 1 -1 0 0 0 0];

internalField   nonuniform List<vector> 
40
(
(0.556678 -5.5973e-05 0)
(0.537871 -2.12518e-05 0)
(0.777116 -5.62475e-06 0)
(0.780046 3.55137e-05 0)
(0.940595 -1.00277e-05 0)
(0.941914 6.59519e-06 0)
(1.06121 -4.94801e-06 0)
(1.05925 -2.93194e-06 0)
(1.15852 -2.15757e-06 0)
(1.15574 -1.05081e-05 0)
(1.24273 2.52839e-06 0)
(1.23995 -2.0892e-05 0)
(1.31796 9.15916e-06 0)
(1.31516 -3.21251e-05 0)
(1.38526 1.43499e-05 0)
(1.38225 -3.96369e-05 0)
(1.44318 1.02055e-05 0)
(1.43991 -2.83985e-05 0)
(1.48687 -2.03026e-05 0)
(1.48339 3.73048e-05 0)
(1.49762 -2.13014e-05 0)
(1.4941 4.00469e-05 0)
(1.4984 -8.95953e-06 0)
(1.49488 1.54722e-05 0)
(1.4933 4.34167e-06 0)
(1.48978 -1.08362e-05 0)
(1.48142 1.61616e-05 0)
(1.47793 -3.39303e-05 0)
(1.46143 2.69029e-05 0)
(1.45798 -5.49463e-05 0)
(1.43133 3.62135e-05 0)
(1.42793 -7.31778e-05 0)
(1.38797 4.36843e-05 0)
(1.38462 -8.76371e-05 0)
(1.32539 4.77955e-05 0)
(1.32214 -9.55527e-05 0)
(1.22669 4.38226e-05 0)
(1.22364 -9.03151e-05 0)
(0.988388 3.04703e-05 0)
(0.985913 -6.59503e-05 0)
)
;

boundaryField
{
    inlet
    {
        type            mapped;
        field           U;
        setAverage      1;
        average         (1.3452 0 0);
        interpolationScheme cell;
        value           nonuniform List<vector> 
20
(
(0.538188 -2.44157e-05 0)
(0.783215 3.23617e-05 0)
(0.944073 6.96071e-06 0)
(1.06141 -1.90346e-06 0)
(1.15845 -9.00197e-06 0)
(1.24308 -1.9362e-05 0)
(1.31853 -3.08766e-05 0)
(1.38581 -3.86079e-05 0)
(1.44362 -2.73441e-05 0)
(1.4872 4.008e-05 0)
(1.49792 4.1387e-05 0)
(1.49869 1.68395e-05 0)
(1.49359 -9.50848e-06 0)
(1.48171 -3.27915e-05 0)
(1.4617 -5.398e-05 0)
(1.43158 -7.23755e-05 0)
(1.38817 -8.69438e-05 0)
(1.32552 -9.50781e-05 0)
(1.22677 -8.97955e-05 0)
(0.988492 -6.41891e-05 0)
)
;
    }
    outlet
    {
        type            zeroGradient;
    }
    fixedWalls-bottom
    {
        type            fixedValue;
        value           uniform (0 0 0);
    }
    fixedWalls-top
    {
        type            fixedValue;
        value           uniform (0 0 0);
    }
    frontAndBack
    {
        type            empty;
    }
}


// ************************************************************************* //
