/*--------------------------------*- C++ -*----------------------------------*\
  =========                 |
  \\      /  F ield         | OpenFOAM: The Open Source CFD Toolbox
   \\    /   O peration     | Website:  https://openfoam.org
    \\  /    A nd           | Version:  7
     \\/     M anipulation  |
\*---------------------------------------------------------------------------*/
FoamFile
{
    version     2.0;
    format      ascii;
    class       volVectorField;
    location    "1900";
    object      U;
}
// * * * * * * * * * * * * * * * * * * * * * * * * * * * * * * * * * * * * * //

dimensions      [0 1 -1 0 0 0 0];

internalField   nonuniform List<vector> 
40
(
(0.553387 -6.58532e-05 0)
(0.537802 -3.25241e-06 0)
(0.777673 3.72815e-06 0)
(0.780123 2.31438e-05 0)
(0.941374 -8.01456e-06 0)
(0.94191 5.27873e-06 0)
(1.06146 -4.10382e-06 0)
(1.05917 -3.86301e-06 0)
(1.15849 -1.75739e-06 0)
(1.15565 -1.11027e-05 0)
(1.24266 2.99904e-06 0)
(1.2399 -2.13014e-05 0)
(1.31794 9.759e-06 0)
(1.31514 -3.28229e-05 0)
(1.38528 1.4905e-05 0)
(1.38224 -4.01372e-05 0)
(1.4432 1.06392e-05 0)
(1.43991 -2.87773e-05 0)
(1.48689 -2.00357e-05 0)
(1.48339 3.70834e-05 0)
(1.49764 -2.1026e-05 0)
(1.4941 3.97688e-05 0)
(1.49842 -8.76886e-06 0)
(1.49487 1.52658e-05 0)
(1.49331 4.46452e-06 0)
(1.48978 -1.09866e-05 0)
(1.48144 1.62188e-05 0)
(1.47794 -3.40227e-05 0)
(1.46145 2.66827e-05 0)
(1.45798 -5.47716e-05 0)
(1.43135 3.63245e-05 0)
(1.42794 -7.33419e-05 0)
(1.38799 4.91154e-05 0)
(1.38463 -9.31353e-05 0)
(1.32541 5.02425e-05 0)
(1.32216 -9.81065e-05 0)
(1.22673 -0.00023472 0)
(1.22367 0.000187433 0)
(0.988452 0.00109595 0)
(0.985975 -0.00112832 0)
)
;

boundaryField
{
    inlet
    {
        type            mapped;
        field           U;
        setAverage      1;
        average         (1.3452 0 0);
        interpolationScheme cell;
        value           nonuniform List<vector> 
20
(
(0.538189 -6.40878e-06 0)
(0.7833 2.03758e-05 0)
(0.944043 5.98108e-06 0)
(1.0613 -2.96567e-06 0)
(1.15836 -9.83953e-06 0)
(1.24304 -2.01503e-05 0)
(1.31851 -3.19354e-05 0)
(1.3858 -3.93961e-05 0)
(1.44362 -2.79618e-05 0)
(1.48721 3.96006e-05 0)
(1.49792 4.09842e-05 0)
(1.49869 1.65165e-05 0)
(1.49359 -9.76748e-06 0)
(1.48171 -3.2973e-05 0)
(1.46171 -5.38774e-05 0)
(1.43159 -7.26105e-05 0)
(1.38818 -9.25371e-05 0)
(1.32554 -9.74033e-05 0)
(1.2268 0.000190297 0)
(0.988561 -0.00111048 0)
)
;
    }
    outlet
    {
        type            zeroGradient;
    }
    fixedWalls-bottom
    {
        type            fixedValue;
        value           uniform (0 0 0);
    }
    fixedWalls-top
    {
        type            fixedValue;
        value           uniform (0 0 0);
    }
    frontAndBack
    {
        type            empty;
    }
}


// ************************************************************************* //
