/*--------------------------------*- C++ -*----------------------------------*\
  =========                 |
  \\      /  F ield         | OpenFOAM: The Open Source CFD Toolbox
   \\    /   O peration     | Website:  https://openfoam.org
    \\  /    A nd           | Version:  7
     \\/     M anipulation  |
\*---------------------------------------------------------------------------*/
FoamFile
{
    version     2.0;
    format      ascii;
    class       volScalarField;
    location    "0.4";
    object      p;
}
// * * * * * * * * * * * * * * * * * * * * * * * * * * * * * * * * * * * * * //

dimensions      [0 2 -2 0 0 0 0];

internalField   nonuniform List<scalar> 
1600
(
8.25045e-06
-0.00117674
-0.00390695
-0.00758116
-0.0115263
-0.0152468
-0.0183849
-0.0206882
-0.0219892
-0.0221881
-0.0212392
-0.0191406
-0.0159259
-0.0116578
-0.00642379
-0.000331527
0.00649402
0.0139135
0.0217754
0.0299189
0.0381759
0.0463737
0.0543377
0.0618953
0.0688787
0.0751293
0.0805026
0.0848726
0.0881377
0.0902263
0.0911036
0.0907783
0.0893107
0.0868219
0.0835052
0.0796397
0.0756056
0.0719117
0.0692258
0.0681105
0.00120208
1.22195e-05
-0.0022043
-0.0050555
-0.00809808
-0.0109668
-0.0133772
-0.0151161
-0.0160333
-0.0160329
-0.0150649
-0.0131176
-0.010212
-0.00639614
-0.00174122
0.00366209
0.00970664
0.0162714
0.0232241
0.0304232
0.0377209
0.0449651
0.0520028
0.0586825
0.0648584
0.0703937
0.0751651
0.079067
0.0820163
0.083958
0.0848701
0.0847697
0.0837185
0.0818298
0.079274
0.0762852
0.0731653
0.0702902
0.0681069
0.0669971
0.00394752
0.00222008
-2.69304e-05
-0.0025864
-0.00521524
-0.00764365
-0.00964802
-0.0110567
-0.011744
-0.0116262
-0.0106573
-0.00882411
-0.00614194
-0.00265055
0.00158917
0.00649823
0.0119822
0.0179336
0.0242341
0.030757
0.0373693
0.0439343
0.0503143
0.0563733
0.0619808
0.0670146
0.0713655
0.0749406
0.077668
0.0795013
0.0804238
0.0804532
0.0796461
0.0781012
0.0759627
0.0734216
0.0707179
0.0681332
0.065926
0.0643088
0.00771147
0.00509997
0.00245882
-0.000170302
-0.00272555
-0.00500703
-0.00684053
-0.0080943
-0.00866992
-0.00850062
-0.00754972
-0.00580784
-0.00328982
-3.18523e-05
0.00391107
0.0084676
0.0135522
0.0190671
0.0249045
0.0309486
0.0370773
0.0431653
0.0490857
0.0547136
0.0599285
0.064618
0.0686811
0.0720323
0.074605
0.0763558
0.0772676
0.0773537
0.0766606
0.0752699
0.0732988
0.0708991
0.0682632
0.065606
0.0630149
0.0605462
0.0119003
0.00825997
0.0050513
0.00217055
-0.000487313
-0.00277836
-0.00457002
-0.00576768
-0.00630017
-0.00611913
-0.0051996
-0.00353861
-0.00115327
0.00192116
0.00563313
0.00991658
0.0146926
0.0198713
0.0253531
0.0310308
0.0367913
0.0425181
0.0480929
0.0533987
0.0583227
0.0627588
0.0666115
0.0697989
0.0722566
0.0739405
0.0748304
0.0749323
0.0742806
0.0729388
0.0709979
0.0685748
0.065823
0.0629058
0.0597525
0.0562821
0.016088
0.0113759
0.007507
0.00425681
0.00137407
-0.00104016
-0.00288691
-0.00410426
-0.00464641
-0.0044833
-0.0036026
-0.00200929
0.000275394
0.00321516
0.00675987
0.0108468
0.0154017
0.0203403
0.0255694
0.0309887
0.0364917
0.0419684
0.0473068
0.0523955
0.0571265
0.0613975
0.0651154
0.0681993
0.0705837
0.0722217
0.0730872
0.0731772
0.0725131
0.0711408
0.0691275
0.0665602
0.0635625
0.06026
0.0564447
0.0519222
0.0199652
0.0141864
0.00961075
0.00591516
0.00272284
0.000103493
-0.00186989
-0.00316313
-0.00375315
-0.00362713
-0.00278541
-0.00124174
0.000977328
0.00383299
0.00727486
0.0112417
0.0156623
0.0204563
0.0255349
0.0308024
0.0361573
0.041494
0.0467045
0.0516807
0.0563168
0.0605118
0.0641726
0.0672166
0.069575
0.0711954
0.0720441
0.0721079
0.071395
0.0699347
0.0677733
0.0649735
0.0616374
0.0578649
0.053332
0.0477532
0.0232989
0.0164776
0.0111774
0.00699291
0.00343843
0.000561239
-0.00158533
-0.00299032
-0.00365053
-0.00356894
-0.00275814
-0.0012408
0.000950436
0.00377323
0.00717573
0.0110969
0.0154669
0.0202075
0.0252331
0.0304509
0.0357625
0.0410648
0.0462518
0.0512167
0.0558538
0.0600613
0.0637435
0.0668143
0.0691992
0.0708385
0.0716894
0.0717277
0.0709482
0.0693651
0.0670068
0.0639162
0.060181
0.0558856
0.0506063
0.0439835
0.025907
0.0180704
0.0120426
0.00734671
0.00340039
0.000234901
-0.00211119
-0.00364635
-0.00438474
-0.00434363
-0.00354714
-0.00202687
0.000178122
0.00302124
0.00644823
0.0103971
0.0147984
0.0195748
0.024642
0.0299091
0.035279
0.0406497
0.0459156
0.0509693
0.0557034
0.060013
0.0637983
0.0669672
0.0694381
0.0711423
0.0720265
0.0720545
0.0712083
0.0694875
0.0669052
0.0634887
0.0593169
0.0544655
0.0484236
0.0407684
0.027639
0.018809
0.0120564
0.00683949
0.00248716
-0.00098074
-0.00353685
-0.00520617
-0.00601815
-0.00600306
-0.00519588
-0.00363694
-0.00137192
0.00154784
0.00506498
0.0091158
0.01363
0.0185304
0.0237329
0.0291471
0.034676
0.0402174
0.0456646
0.0509081
0.055837
0.060342
0.064317
0.0676623
0.0702872
0.0721127
0.0730737
0.0731212
0.0722239
0.0703679
0.0675525
0.0637925
0.059162
0.0537336
0.0469165
0.0382311
0.0283619
0.0185519
0.0110783
0.00533811
0.000576273
-0.00319593
-0.00595989
-0.00775515
-0.00862495
-0.0086116
-0.00776044
-0.00612036
-0.0037438
-0.000687209
0.00298844
0.00721704
0.0119268
0.0170398
0.0224714
0.0281306
0.0339196
0.0397348
0.0454672
0.0510039
0.0562294
0.061028
0.065286
0.0688943
0.0717513
0.0737661
0.0748604
0.0749716
0.0740542
0.072081
0.0690387
0.0649313
0.059831
0.053811
0.0462044
0.0364776
0.0279502
0.0171638
0.00897146
0.00270999
-0.0024574
-0.00652636
-0.00948557
-0.0113879
-0.0122896
-0.0122444
-0.0113078
-0.00953711
-0.00699181
-0.00373371
0.000172208
0.00465695
0.00964674
0.0150622
0.0208177
0.0268208
0.0329724
0.0391664
0.0452907
0.051228
0.0568568
0.0620539
0.0666961
0.0706636
0.0738423
0.0761271
0.0774253
0.0776589
0.0767676
0.0747102
0.0714609
0.0670138
0.061441
0.0548183
0.0464033
0.0356089
0.0262783
0.0145098
0.00559791
-0.00118037
-0.00674385
-0.0110943
-0.0142271
-0.016208
-0.017106
-0.0169863
-0.0159145
-0.0139566
-0.0111792
-0.00764981
-0.00343783
0.00138458
0.00674126
0.0125511
0.0187269
0.0251748
0.0317934
0.0384741
0.0451008
0.0515508
0.0576959
0.063404
0.0685415
0.0729756
0.0765779
0.0792277
0.0808154
0.081246
0.0804427
0.078349
0.0749257
0.0701571
0.0641157
0.0568813
0.0476334
0.0357302
0.0232156
0.0104499
0.000814532
-0.00647469
-0.0124202
-0.0170301
-0.0203064
-0.0223282
-0.0231774
-0.0229312
-0.0216657
-0.0194561
-0.0163765
-0.0125005
-0.00790205
-0.00265674
0.00315672
0.0094553
0.0161502
0.0231459
0.0303389
0.0376175
0.0448614
0.051942
0.0587235
0.0650642
0.0708182
0.0758387
0.079981
0.0831063
0.0850859
0.0858052
0.0851686
0.0831022
0.0795518
0.0744905
0.0679909
0.0601372
0.0500262
0.0369583
0.0186216
0.00483519
-0.00553093
-0.013324
-0.0196333
-0.0244737
-0.0278549
-0.02987
-0.0306153
-0.0301807
-0.0286537
-0.0261194
-0.0226602
-0.0183558
-0.0132852
-0.00752756
-0.00116405
0.0057205
0.0130359
0.020685
0.0285626
0.0365539
0.0445344
0.0523697
0.0599156
0.06702
0.0735238
0.0792644
0.0840788
0.0878075
0.0902999
0.0914187
0.0910463
0.0890884
0.0854728
0.0801591
0.0732191
0.0647406
0.0537307
0.039428
0.0123429
-0.00249617
-0.0136035
-0.0218919
-0.0285418
-0.0335764
-0.0370142
-0.0389645
-0.0395394
-0.0388432
-0.0369763
-0.0340348
-0.0301099
-0.0252883
-0.0196541
-0.01329
-0.00627945
0.00129125
0.00933099
0.0177418
0.0264168
0.0352392
0.0440806
0.0528008
0.0612474
0.0692569
0.0766565
0.083266
0.0889017
0.0933812
0.0965283
0.0981793
0.0981901
0.0964419
0.0928405
0.0873286
0.0799748
0.0708688
0.0589196
0.0432985
0.00420959
-0.0117227
-0.0235848
-0.0323579
-0.0393194
-0.0445027
-0.0479376
-0.0497521
-0.0500768
-0.0490328
-0.0467352
-0.0432926
-0.0388061
-0.0333703
-0.0270743
-0.0200045
-0.0122462
-0.00388621
0.00498411
0.0142668
0.0238548
0.0336298
0.0434607
0.0532018
0.0626932
0.0717602
0.0802147
0.087858
0.0944838
0.099883
0.10385
0.106191
0.106729
0.105315
0.101828
0.0961893
0.0884595
0.0787283
0.0657956
0.0487593
-0.00596782
-0.0230436
-0.035677
-0.0449211
-0.0521575
-0.0574327
-0.060791
-0.0623828
-0.0623612
-0.0608669
-0.0580329
-0.0539819
-0.0488267
-0.04267
-0.0356068
-0.0277264
-0.0191154
-0.00986033
-5.13762e-05
0.010215
0.0208329
0.0316843
0.0426364
0.05354
0.064228
0.0745147
0.0841972
0.0930565
0.100861
0.107373
0.112353
0.115569
0.116807
0.115882
0.112636
0.106962
0.0989086
0.0885618
0.0745988
0.0560372
-0.0184028
-0.036684
-0.0501085
-0.0598052
-0.0672693
-0.0725643
-0.0757537
-0.0770159
-0.0765311
-0.0744645
-0.0709697
-0.0661871
-0.0602422
-0.0532471
-0.0453025
-0.0365005
-0.0269279
-0.0166696
-0.00581293
0.00554924
0.0173143
0.0293665
0.0415738
0.0537851
0.0658277
0.0775063
0.0886031
0.0988782
0.108074
0.115918
0.122132
0.126443
0.12859
0.12834
0.125493
0.119902
0.111598
0.100656
0.0856147
0.0654037
-0.0333378
-0.0529009
-0.0671395
-0.0772636
-0.0848936
-0.0901161
-0.0930201
-0.0938194
-0.0927282
-0.0899418
-0.0856396
-0.079982
-0.07311
-0.0651459
-0.0561963
-0.0463552
-0.0357083
-0.0243371
-0.0123236
0.000245337
0.0132731
0.0266494
0.0402457
0.0539116
0.0674715
0.0807223
0.0934322
0.105341
0.116161
0.125586
0.133293
0.138956
0.14226
0.142916
0.140664
0.135309
0.126852
0.11535
0.0991838
0.0771844
-0.051051
-0.0719916
-0.0870712
-0.097587
-0.105301
-0.110331
-0.1128
-0.112969
-0.111094
-0.107409
-0.102124
-0.0954239
-0.0874677
-0.078389
-0.0682998
-0.0572952
-0.0454579
-0.0328634
-0.0195856
-0.00570212
0.00870013
0.0235198
0.0386357
0.0539021
0.069144
0.0841532
0.0986862
0.112463
0.125167
0.136452
0.145945
0.153264
0.158024
0.159865
0.158456
0.153533
0.145056
0.13305
0.115714
0.0917702
-0.0718661
-0.0943056
-0.110257
-0.121113
-0.1288
-0.133478
-0.135321
-0.134646
-0.131766
-0.126962
-0.120484
-0.112545
-0.103324
-0.0929674
-0.0815923
-0.0692928
-0.0561462
-0.0422189
-0.0275731
-0.0122731
0.00360827
0.0199833
0.036743
0.053751
0.0708375
0.0877938
0.104368
0.120263
0.135134
0.148591
0.16021
0.169537
0.17611
0.179479
0.179222
0.174986
0.166666
0.154243
0.135698
0.109632
-0.0961666
-0.12026
-0.137118
-0.14824
-0.155747
-0.159862
-0.160825
-0.159033
-0.15487
-0.148677
-0.140751
-0.131341
-0.120648
-0.108831
-0.0960106
-0.0822782
-0.0677021
-0.0523355
-0.0362245
-0.019415
-0.00196058
0.0160703
0.0345867
0.0534678
0.0725551
0.0916454
0.110484
0.12876
0.146102
0.16208
0.176209
0.187957
0.19677
0.202088
0.203372
0.20015
0.192228
0.179513
0.159731
0.13134
-0.124415
-0.150365
-0.168165
-0.179442
-0.186557
-0.189822
-0.189572
-0.18631
-0.180512
-0.172596
-0.162915
-0.15176
-0.139356
-0.125875
-0.111438
-0.0961291
-0.0800042
-0.0630978
-0.0454343
-0.0270355
-0.00792947
0.0118412
0.0322106
0.0530809
0.0743128
0.0957162
0.117041
0.13797
0.15811
0.176991
0.194064
0.208716
0.220279
0.228063
0.231377
0.229596
0.222396
0.209574
0.188541
0.157589
-0.157184
-0.185254
-0.204029
-0.215295
-0.221717
-0.22374
-0.221835
-0.216644
-0.208766
-0.198713
-0.186908
-0.173686
-0.159299
-0.143927
-0.12769
-0.11066
-0.0928709
-0.0743344
-0.0550459
-0.0349962
-0.0141809
0.007391
0.0296868
0.0526402
0.0761406
0.100021
0.124047
0.147903
0.171184
0.193383
0.213893
0.232005
0.246929
0.257814
0.263781
0.263998
0.25796
0.245299
0.223027
0.189235
-0.195197
-0.225734
-0.245507
-0.256505
-0.261803
-0.262044
-0.25789
-0.250175
-0.239655
-0.226956
-0.212583
-0.196919
-0.180241
-0.162734
-0.144507
-0.12561
-0.106053
-0.0858115
-0.064846
-0.0431084
-0.0205533
0.00285193
0.027117
0.0522174
0.0780821
0.10458
0.131504
0.158556
0.18533
0.211295
0.235788
0.258007
0.27702
0.29179
0.301202
0.304153
0.299881
0.287769
0.264314
0.227344
-0.2394
-0.272862
-0.293619
-0.303951
-0.3075
-0.305206
-0.298009
-0.286997
-0.273123
-0.257157
-0.23969
-0.221156
-0.201848
-0.181946
-0.161536
-0.14064
-0.119226
-0.0972288
-0.0745628
-0.0511319
-0.0268414
-0.00160766
0.0246311
0.0519032
0.0801902
0.109411
0.139403
0.169903
0.200523
0.230726
0.259806
0.286872
0.310844
0.330468
0.344337
0.351
0.349331
0.338343
0.313832
0.273271
-0.291061
-0.328046
-0.349698
-0.358735
-0.359617
-0.353737
-0.342428
-0.327116
-0.309003
-0.289019
-0.267848
-0.245964
-0.223663
-0.201101
-0.178329
-0.15532
-0.13199
-0.10822
-0.0838678
-0.058779
-0.0328007
-0.0057889
0.0223805
0.0518003
0.0825185
0.114521
0.14771
0.181879
0.216686
0.251613
0.285936
0.318691
0.348652
0.374326
0.393959
0.405643
0.407752
0.398746
0.373434
0.328768
-0.351938
-0.39322
-0.415516
-0.422249
-0.419104
-0.408163
-0.391307
-0.370406
-0.34696
-0.32207
-0.296504
-0.270753
-0.245088
-0.219618
-0.194333
-0.169136
-0.143876
-0.118362
-0.0923859
-0.0657253
-0.0381593
-0.00947459
0.0205253
0.0520095
0.0851069
0.119888
0.156344
0.194356
0.233657
0.27379
0.314052
0.353441
0.390607
0.423808
0.450886
0.469363
0.476922
0.471199
0.445572
0.396169
-0.424552
-0.471103
-0.493455
-0.496247
-0.487047
-0.468968
-0.444653
-0.416527
-0.386424
-0.355609
-0.324896
-0.294749
-0.265374
-0.236791
-0.208896
-0.181497
-0.154353
-0.127188
-0.099713
-0.0716285
-0.0426374
-0.0124489
0.0192147
0.0526096
0.0879599
0.125441
0.165157
0.20711
0.251154
0.296944
0.343858
0.390919
0.436701
0.479237
0.515933
0.54361
0.559027
0.558604
0.533575
0.478682
-0.512669
-0.565608
-0.586752
-0.58292
-0.564617
-0.536492
-0.502196
-0.464808
-0.426496
-0.388633
-0.352004
-0.316972
-0.283609
-0.251793
-0.22128
-0.191754
-0.162858
-0.134215
-0.105443
-0.0761557
-0.0459745
-0.0145246
0.0185595
0.05363
0.0910188
0.131025
0.173892
0.219781
0.268722
0.320546
0.3748
0.430628
0.486629
0.540691
0.589792
0.629952
0.656731
0.664787
0.642081
0.580905
-0.622157
-0.682507
-0.699809
-0.684918
-0.652944
-0.610734
-0.563189
-0.514081
-0.465823
-0.419759
-0.37651
-0.336218
-0.298726
-0.263695
-0.230691
-0.199234
-0.168828
-0.13898
-0.109202
-0.079019
-0.047964
-0.0155767
0.0185995
0.0550183
0.0941286
0.136368
0.182149
0.231828
0.28567
0.34377
0.405956
0.471638
0.53961
0.607781
0.672823
0.729929
0.773198
0.794817
0.77772
0.709751
-0.762633
-0.830475
-0.838564
-0.805273
-0.75282
-0.691007
-0.626114
-0.56246
-0.502452
-0.447144
-0.396765
-0.351064
-0.309524
-0.271503
-0.236317
-0.203284
-0.171749
-0.141084
-0.110697
-0.0800168
-0.0484924
-0.015579
0.0192692
0.0566072
0.0970053
0.141051
0.189343
0.242478
0.301012
0.365403
0.435904
0.512391
0.594116
0.679323
0.76468
0.844731
0.911989
0.955368
0.950211
0.876207
-0.950784
-1.02278
-1.01075
-0.946961
-0.864055
-0.775341
-0.688214
-0.607033
-0.53366
-0.468409
-0.410781
-0.359896
-0.314723
-0.27422
-0.237395
-0.203335
-0.171206
-0.140246
-0.109755
-0.0790749
-0.047576
-0.0146377
0.0203667
0.0580867
0.0992097
0.144474
0.194679
0.250686
0.313403
0.38375
0.462568
0.550459
0.647509
0.752808
0.86364
0.974488
1.07658
1.15496
1.17409
1.09889
-1.21712
-1.27971
-1.22549
-1.11153
-0.984068
-0.859369
-0.744752
-0.643427
-0.555738
-0.480567
-0.416236
-0.360955
-0.313023
-0.270909
-0.233274
-0.198954
-0.166939
-0.136342
-0.106365
-0.076279
-0.0453891
-0.0130154
0.0215336
0.0589859
0.100131
0.145848
0.197129
0.255113
0.321097
0.396545
0.483053
0.58224
0.695512
0.823562
0.965373
1.11672
1.26884
1.40346
1.47114
1.41116
-1.61764
-1.63094
-1.49151
-1.29671
-1.10589
-0.935006
-0.788313
-0.665546
-0.563983
-0.48014
-0.41064
-0.352514
-0.303265
-0.260829
-0.223515
-0.189928
-0.158904
-0.129453
-0.10071
-0.071893
-0.0422713
-0.0111281
0.0222682
0.058698
0.0990253
0.144239
0.195501
0.254203
0.322028
0.401024
0.493662
0.602853
0.731867
0.883984
1.06156
1.26423
1.4865
1.71007
1.87238
1.87266
-2.25441
-2.11586
-1.81359
-1.49443
-1.21742
-0.990514
-0.809416
-0.666453
-0.553625
-0.464012
-0.392066
-0.333469
-0.284901
-0.243802
-0.208186
-0.176482
-0.147426
-0.119971
-0.0932214
-0.0663814
-0.0387122
-0.00949247
0.0220175
0.0566148
0.0951972
0.138817
0.188746
0.246569
0.314293
0.394506
0.490571
0.606862
0.748996
0.923952
1.13978
1.40422
1.72096
2.0794
2.41783
2.58903
-3.35614
-2.78296
-2.17273
-1.67591
-1.2926
-1.00574
-0.794156
-0.637279
-0.519332
-0.429175
-0.358974
-0.303183
-0.257838
-0.220058
-0.187702
-0.159135
-0.133078
-0.108493
-0.0845055
-0.0603486
-0.0353139
-0.0087116
0.0201677
0.0520941
0.087946
0.12877
0.175862
0.23088
0.296003
0.374177
0.469463
0.587559
0.736543
0.927911
1.17799
1.50837
1.94106
2.49113
3.15773
3.79467
-5.52259
-3.65931
-2.43085
-1.71435
-1.24188
-0.921869
-0.70491
-0.554001
-0.445515
-0.365225
-0.304199
-0.256579
-0.218409
-0.186925
-0.160132
-0.136538
-0.11499
-0.09456
-0.0744737
-0.0540529
-0.0326727
-0.00972518
0.0154158
0.0434319
0.0751042
0.11137
0.153403
0.202724
0.261379
0.332208
0.419295
0.528702
0.669717
0.857122
1.11547
1.484
2.01615
2.8053
4.12187
6.09344
-9.21004
-4.51834
-2.30603
-1.42124
-0.958915
-0.682865
-0.512222
-0.40056
-0.322898
-0.266402
-0.223881
-0.190905
-0.164564
-0.14285
-0.124307
-0.107836
-0.0925784
-0.0778356
-0.0630174
-0.0476026
-0.0311084
-0.0130638
0.00701631
0.0296575
0.0554584
0.0851319
0.119562
0.159887
0.207627
0.264892
0.334743
0.421844
0.533742
0.683722
0.897414
1.22408
1.75395
2.73304
5.0602
9.87241
)
;

boundaryField
{
    movingWall
    {
        type            zeroGradient;
    }
    fixedWalls
    {
        type            zeroGradient;
    }
    frontAndBack
    {
        type            empty;
    }
}


// ************************************************************************* //
