/*--------------------------------*- C++ -*----------------------------------*\
  =========                 |
  \\      /  F ield         | OpenFOAM: The Open Source CFD Toolbox
   \\    /   O peration     | Website:  https://openfoam.org
    \\  /    A nd           | Version:  7
     \\/     M anipulation  |
\*---------------------------------------------------------------------------*/
FoamFile
{
    version     2.0;
    format      ascii;
    class       surfaceScalarField;
    location    "0.4";
    object      phi;
}
// * * * * * * * * * * * * * * * * * * * * * * * * * * * * * * * * * * * * * //

dimensions      [0 3 -1 0 0 0 0];

internalField   nonuniform List<scalar> 
3120
(
2.53351e-09
-2.55139e-09
4.09653e-09
-1.56303e-09
2.25344e-09
1.84308e-09
-3.55393e-09
5.80736e-09
-1.31366e-08
9.58264e-09
-2.59858e-08
1.28492e-08
-4.14619e-08
1.54762e-08
-5.88886e-08
1.74267e-08
-7.75979e-08
1.87093e-08
-9.69531e-08
1.93552e-08
-1.1636e-07
1.94067e-08
-1.35272e-07
1.89122e-08
-1.53195e-07
1.79228e-08
-1.69686e-07
1.64913e-08
-1.84357e-07
1.46709e-08
-1.96872e-07
1.25154e-08
-2.06951e-07
1.0079e-08
-2.14368e-07
7.41692e-09
-2.18953e-07
4.58527e-09
-2.20595e-07
1.64192e-09
-2.19242e-07
-1.35329e-09
-2.14904e-07
-4.33827e-09
-2.07655e-07
-7.24856e-09
-1.97638e-07
-1.00175e-08
-1.85061e-07
-1.25767e-08
-1.70204e-07
-1.48568e-08
-1.53416e-07
-1.6788e-08
-1.35114e-07
-1.83021e-08
-1.15781e-07
-1.93334e-08
-9.59601e-08
-1.98209e-08
-7.625e-08
-1.97102e-08
-5.72934e-08
-1.89567e-08
-3.97647e-08
-1.75287e-08
-2.43518e-08
-1.54129e-08
-1.17268e-08
-1.26249e-08
-2.49583e-09
-9.231e-09
2.89754e-09
-5.39347e-09
4.35916e-09
-1.4617e-09
2.56183e-09
1.7973e-09
2.56187e-09
1.61451e-09
-4.1659e-09
-1.1745e-09
1.22596e-09
-1.17187e-08
1.23872e-08
-3.10786e-08
2.51673e-08
-5.90528e-08
3.75568e-08
-9.46975e-08
4.84939e-08
-1.36663e-07
5.74421e-08
-1.83411e-07
6.41741e-08
-2.3334e-07
6.86384e-08
-2.84869e-07
7.08846e-08
-3.36485e-07
7.10222e-08
-3.86769e-07
6.91965e-08
-4.34421e-07
6.55746e-08
-4.78267e-07
6.03369e-08
-5.17268e-07
5.36719e-08
-5.50526e-07
4.5774e-08
-5.7729e-07
3.68426e-08
-5.96954e-07
2.70816e-08
-6.0907e-07
1.67006e-08
-6.13343e-07
5.91538e-09
-6.09645e-07
-5.05116e-09
-5.98015e-07
-1.59687e-08
-5.78664e-07
-2.65997e-08
-5.51981e-07
-3.66999e-08
-5.18537e-07
-4.60206e-08
-4.79083e-07
-5.43111e-08
-4.34548e-07
-6.13232e-08
-3.86034e-07
-6.68157e-08
-3.34806e-07
-7.05613e-08
-2.82273e-07
-7.23539e-08
-2.29965e-07
-7.20181e-08
-1.79501e-07
-6.94211e-08
-1.32541e-07
-6.44887e-08
-9.07253e-08
-5.72287e-08
-5.55811e-08
-4.77691e-08
-2.83855e-08
-3.64265e-08
-9.94958e-09
-2.38294e-08
-2.92564e-10
-1.11187e-08
1.85472e-09
-3.50005e-10
4.41657e-09
-1.66909e-09
-2.49682e-09
-1.21199e-08
1.16768e-08
-3.40959e-08
3.43632e-08
-6.84597e-08
5.9531e-08
-1.14798e-07
8.3895e-08
-1.71825e-07
1.05521e-07
-2.37707e-07
1.23324e-07
-3.10307e-07
1.36774e-07
-3.87356e-07
1.45688e-07
-4.6657e-07
1.50098e-07
-5.45727e-07
1.50179e-07
-6.22726e-07
1.46196e-07
-6.95621e-07
1.38469e-07
-7.62644e-07
1.2736e-07
-8.22225e-07
1.13253e-07
-8.73002e-07
9.65514e-08
-9.13834e-07
7.76742e-08
-9.43804e-07
5.7052e-08
-9.62233e-07
3.51289e-08
-9.6868e-07
1.23629e-08
-9.62958e-07
-1.07737e-08
-9.45133e-07
-3.37934e-08
-9.15537e-07
-5.61954e-08
-8.7477e-07
-7.7467e-08
-8.23702e-07
-9.70886e-08
-7.63474e-07
-1.1454e-07
-6.9549e-07
-1.29307e-07
-6.21407e-07
-1.40899e-07
-5.43113e-07
-1.48855e-07
-4.62701e-07
-1.52766e-07
-3.82424e-07
-1.52295e-07
-3.04643e-07
-1.47202e-07
-2.31749e-07
-1.37383e-07
-1.66067e-07
-1.22911e-07
-1.09722e-07
-1.04115e-07
-6.44557e-08
-8.16924e-08
-3.13865e-08
-5.68984e-08
-1.06921e-08
-3.18131e-08
-1.23904e-09
-9.80306e-09
3.17747e-09
-5.57007e-09
3.07324e-09
-2.49826e-08
3.10893e-08
-5.96953e-08
6.90758e-08
-1.09884e-07
1.0972e-07
-1.74659e-07
1.48669e-07
-2.52312e-07
1.83174e-07
-3.40571e-07
2.11584e-07
-4.36819e-07
2.33022e-07
-5.38265e-07
2.47134e-07
-6.4208e-07
2.53913e-07
-7.45494e-07
2.53593e-07
-8.45865e-07
2.46567e-07
-9.40734e-07
2.33338e-07
-1.02786e-06
2.14482e-07
-1.10523e-06
1.90628e-07
-1.17112e-06
1.62443e-07
-1.22407e-06
1.30623e-07
-1.26291e-06
9.5888e-08
-1.28676e-06
5.89838e-08
-1.29508e-06
2.06794e-08
-1.28762e-06
-1.82321e-08
-1.26448e-06
-5.69342e-08
-1.22609e-06
-9.45888e-08
-1.17321e-06
-1.30342e-07
-1.10697e-06
-1.63329e-07
-1.02882e-06
-1.92691e-07
-9.40546e-07
-2.17582e-07
-8.44249e-07
-2.37196e-07
-7.42315e-07
-2.50789e-07
-6.37377e-07
-2.57704e-07
-5.32256e-07
-2.57416e-07
-4.29891e-07
-2.49567e-07
-3.33243e-07
-2.3403e-07
-2.45178e-07
-2.10976e-07
-1.68308e-07
-1.80985e-07
-1.04811e-07
-1.45189e-07
-5.62046e-08
-1.05505e-07
-2.31034e-08
-6.49142e-08
-4.9869e-09
-2.79195e-08
-1.80949e-09
-9.47042e-09
1.25436e-08
-3.81813e-08
5.98002e-08
-8.60914e-08
1.16986e-07
-1.52415e-07
1.76043e-07
-2.35582e-07
2.31836e-07
-3.33354e-07
2.80947e-07
-4.42993e-07
3.21223e-07
-5.61432e-07
3.51461e-07
-6.85434e-07
3.71135e-07
-8.1172e-07
3.80199e-07
-9.37075e-07
3.78948e-07
-1.05842e-06
3.67916e-07
-1.17289e-06
3.47809e-07
-1.27786e-06
3.1945e-07
-1.37098e-06
2.83748e-07
-1.45021e-06
2.41675e-07
-1.51384e-06
1.94252e-07
-1.56049e-06
1.4254e-07
-1.58915e-06
8.76382e-08
-1.59915e-06
3.06821e-08
-1.59023e-06
-2.71578e-08
-1.56248e-06
-8.46774e-08
-1.51643e-06
-1.40644e-07
-1.45297e-06
-1.93801e-07
-1.37341e-06
-2.42885e-07
-1.27947e-06
-2.86636e-07
-1.17322e-06
-3.23827e-07
-1.05713e-06
-3.53286e-07
-9.33983e-07
-3.73939e-07
-8.06838e-07
-3.8485e-07
-6.78979e-07
-3.85275e-07
-5.5382e-07
-3.74727e-07
-4.348e-07
-3.53049e-07
-3.25257e-07
-3.20519e-07
-2.28271e-07
-2.77971e-07
-1.46492e-07
-2.26969e-07
-8.19559e-08
-1.70041e-07
-3.59206e-08
-1.10949e-07
-8.75704e-09
-5.5083e-08
-1.05665e-08
-1.31652e-08
2.57088e-08
-5.10372e-08
9.76721e-08
-1.12113e-07
1.78062e-07
-1.94535e-07
2.58464e-07
-2.95926e-07
3.33228e-07
-4.13422e-07
3.98442e-07
-5.43763e-07
4.51564e-07
-6.83425e-07
4.91123e-07
-8.28747e-07
5.16458e-07
-9.76053e-07
5.27505e-07
-1.12175e-06
5.2464e-07
-1.26239e-06
5.08561e-07
-1.39478e-06
4.80199e-07
-1.51598e-06
4.40651e-07
-1.62337e-06
3.91138e-07
-1.71467e-06
3.32973e-07
-1.78796e-06
2.67537e-07
-1.84169e-06
1.96274e-07
-1.87473e-06
1.20677e-07
-1.88634e-06
4.2291e-08
-1.8762e-06
-3.72912e-08
-1.84445e-06
-1.16434e-07
-1.79163e-06
-1.93462e-07
-1.71876e-06
-2.66674e-07
-1.62729e-06
-3.34355e-07
-1.51912e-06
-3.94804e-07
-1.39658e-06
-4.46362e-07
-1.26242e-06
-4.87451e-07
-1.11973e-06
-5.16628e-07
-9.71938e-07
-5.3264e-07
-8.22717e-07
-5.34496e-07
-6.75895e-07
-5.21549e-07
-5.35348e-07
-4.93597e-07
-4.0487e-07
-4.50997e-07
-2.88028e-07
-3.94812e-07
-1.8801e-07
-3.26987e-07
-1.07477e-07
-2.50573e-07
-4.84607e-08
-1.69966e-07
-1.23383e-08
-9.12054e-08
-2.29047e-08
-1.66141e-08
4.23229e-08
-6.33237e-08
1.44382e-07
-1.37298e-07
2.52037e-07
-2.35593e-07
3.56759e-07
-3.54965e-07
4.526e-07
-4.91849e-07
5.35326e-07
-6.42412e-07
6.02127e-07
-8.02645e-07
6.51356e-07
-9.68464e-07
6.82277e-07
-1.13581e-06
6.94853e-07
-1.30075e-06
6.89579e-07
-1.45953e-06
6.67345e-07
-1.60867e-06
6.29337e-07
-1.74498e-06
5.76957e-07
-1.86561e-06
5.11766e-07
-1.96808e-06
4.35447e-07
-2.05032e-06
3.49775e-07
-2.11065e-06
2.56603e-07
-2.14782e-06
1.57854e-07
-2.16105e-06
5.55131e-08
-2.14997e-06
-4.83722e-08
-2.1147e-06
-1.517e-07
-2.05584e-06
-2.52319e-07
-1.97447e-06
-3.48044e-07
-1.87215e-06
-4.36676e-07
-1.75093e-06
-5.16029e-07
-1.61331e-06
-5.83976e-07
-1.46227e-06
-6.38491e-07
-1.30118e-06
-6.77722e-07
-1.13376e-06
-7.00056e-07
-9.64041e-07
-7.04217e-07
-7.96229e-07
-6.8936e-07
-6.3463e-07
-6.55196e-07
-4.83511e-07
-6.02116e-07
-3.46968e-07
-5.31356e-07
-2.28789e-07
-4.45165e-07
-1.32345e-07
-3.47018e-07
-6.05115e-08
-2.418e-07
-1.56918e-08
-1.36025e-07
-3.85964e-08
-1.98462e-08
6.21691e-08
-7.50449e-08
1.9958e-07
-1.61582e-07
3.38574e-07
-2.75461e-07
4.70638e-07
-4.12547e-07
5.89686e-07
-5.68533e-07
6.91312e-07
-7.38968e-07
7.72563e-07
-9.19328e-07
8.31715e-07
-1.10509e-06
8.68039e-07
-1.29182e-06
8.81587e-07
-1.47527e-06
8.73023e-07
-1.6514e-06
8.43473e-07
-1.81647e-06
7.94414e-07
-1.9671e-06
7.27585e-07
-2.10025e-06
6.44917e-07
-2.21329e-06
5.48489e-07
-2.30402e-06
4.40496e-07
-2.37064e-06
3.23227e-07
-2.41184e-06
1.99054e-07
-2.42675e-06
7.04269e-08
-2.415e-06
-6.01299e-08
-2.37667e-06
-1.90024e-07
-2.31239e-06
-3.16604e-07
-2.22326e-06
-4.37172e-07
-2.11092e-06
-5.49014e-07
-1.97752e-06
-6.49429e-07
-1.82572e-06
-7.35781e-07
-1.65865e-06
-8.05558e-07
-1.47992e-06
-8.56452e-07
-1.29353e-06
-8.86447e-07
-1.10382e-06
-8.93928e-07
-9.15377e-07
-8.778e-07
-7.32949e-07
-8.37624e-07
-5.613e-07
-7.73765e-07
-4.05104e-07
-6.87552e-07
-2.68813e-07
-5.81456e-07
-1.56561e-07
-4.5927e-07
-7.21074e-08
-3.26254e-07
-1.88543e-08
-1.89278e-07
-5.74507e-08
-2.29137e-08
8.50827e-08
-8.6306e-08
2.62973e-07
-1.85098e-07
4.37365e-07
-3.14288e-07
5.99828e-07
-4.68849e-07
7.44247e-07
-6.43705e-07
8.66168e-07
-8.33757e-07
9.62614e-07
-1.03393e-06
1.03189e-06
-1.23926e-06
1.07337e-06
-1.44493e-06
1.08726e-06
-1.64636e-06
1.07446e-06
-1.83928e-06
1.03639e-06
-2.01972e-06
9.74858e-07
-2.18412e-06
8.91981e-07
-2.32929e-06
7.90088e-07
-2.45248e-06
6.71683e-07
-2.55139e-06
5.39399e-07
-2.62414e-06
3.95978e-07
-2.66934e-06
2.44259e-07
-2.68609e-06
8.71696e-08
-2.67394e-06
-7.22744e-08
-2.63299e-06
-2.30976e-07
-2.56383e-06
-3.85766e-07
-2.46758e-06
-5.33418e-07
-2.34592e-06
-6.70674e-07
-2.20106e-06
-7.9429e-07
-2.03575e-06
-9.01086e-07
-1.85329e-06
-9.88022e-07
-1.65746e-06
-1.05229e-06
-1.4525e-06
-1.0914e-06
-1.24308e-06
-1.10335e-06
-1.03416e-06
-1.08672e-06
-8.30945e-07
-1.04084e-06
-6.38731e-07
-9.65979e-07
-4.62818e-07
-8.63465e-07
-3.08375e-07
-7.35898e-07
-1.80349e-07
-5.87296e-07
-8.33969e-08
-4.23205e-07
-2.18901e-08
-2.50785e-07
-7.93407e-08
-2.58724e-08
1.10955e-07
-9.72486e-08
3.34349e-07
-2.08067e-07
5.48184e-07
-3.5236e-07
7.44122e-07
-5.24214e-07
9.16101e-07
-7.17768e-07
1.05972e-06
-9.27248e-07
1.17209e-06
-1.14702e-06
1.25166e-06
-1.37163e-06
1.29798e-06
-1.5959e-06
1.31152e-06
-1.81493e-06
1.2935e-06
-2.02421e-06
1.24567e-06
-2.21959e-06
1.17023e-06
-2.39733e-06
1.06972e-06
-2.55415e-06
9.46904e-07
-2.68719e-06
8.04726e-07
-2.79407e-06
6.46278e-07
-2.87286e-06
4.7477e-07
-2.92212e-06
2.93515e-07
-2.94087e-06
1.05925e-07
-2.92866e-06
-8.44896e-08
-2.88551e-06
-2.74121e-07
-2.812e-06
-4.59273e-07
-2.70925e-06
-6.36177e-07
-2.5789e-06
-8.01017e-07
-2.42322e-06
-9.49976e-07
-2.24501e-06
-1.0793e-06
-2.04766e-06
-1.18537e-06
-1.83513e-06
-1.26481e-06
-1.6119e-06
-1.31463e-06
-1.38292e-06
-1.33233e-06
-1.15354e-06
-1.3161e-06
-9.29442e-07
-1.26494e-06
-7.165e-07
-1.17892e-06
-5.20684e-07
-1.05928e-06
-3.47929e-07
-9.08653e-07
-2.04033e-07
-7.31192e-07
-9.45738e-08
-5.32665e-07
-2.48703e-08
-3.20489e-07
-1.04211e-07
-2.87745e-08
1.3973e-07
-1.08019e-07
4.13593e-07
-2.30735e-07
6.70899e-07
-3.90012e-07
9.03399e-07
-5.79049e-07
1.10514e-06
-7.91187e-07
1.27186e-06
-1.01996e-06
1.40086e-06
-1.25914e-06
1.49084e-06
-1.5028e-06
1.54164e-06
-1.74538e-06
1.5541e-06
-1.98168e-06
1.5298e-06
-2.20694e-06
1.47093e-06
-2.41686e-06
1.38015e-06
-2.60757e-06
1.26044e-06
-2.7757e-06
1.11503e-06
-2.91832e-06
9.47354e-07
-3.03301e-06
7.60969e-07
-3.1178e-06
5.59556e-07
-3.17119e-06
3.46905e-07
-3.19217e-06
1.26909e-07
-3.18023e-06
-9.64288e-08
-3.13536e-06
-3.18994e-07
-3.05807e-06
-5.36566e-07
-2.94942e-06
-7.44827e-07
-2.81104e-06
-9.3939e-07
-2.64518e-06
-1.11584e-06
-2.45465e-06
-1.26982e-06
-2.24293e-06
-1.39709e-06
-2.0141e-06
-1.49365e-06
-1.77283e-06
-1.5559e-06
-1.52437e-06
-1.58079e-06
-1.27448e-06
-1.56599e-06
-1.02933e-06
-1.5101e-06
-7.95391e-07
-1.41286e-06
-5.79361e-07
-1.27531e-06
-3.87992e-07
-1.10002e-06
-2.27978e-07
-8.91206e-07
-1.05844e-07
-6.54798e-07
-2.78644e-08
-3.98468e-07
-1.32076e-07
-3.16662e-08
1.71396e-07
-1.18756e-07
5.00683e-07
-2.53344e-07
8.05487e-07
-4.27579e-07
1.07763e-06
-6.33764e-07
1.31132e-06
-8.64424e-07
1.50252e-06
-1.11238e-06
1.64882e-06
-1.3708e-06
1.74926e-06
-1.63328e-06
1.80412e-06
-1.89385e-06
1.81467e-06
-2.14704e-06
1.78299e-06
-2.38788e-06
1.71177e-06
-2.61191e-06
1.60417e-06
-2.81518e-06
1.46371e-06
-2.99425e-06
1.2941e-06
-3.14618e-06
1.09928e-06
-3.2685e-06
8.83289e-07
-3.35922e-06
6.50281e-07
-3.41683e-06
4.04516e-07
-3.44028e-06
1.50358e-07
-3.429e-06
-1.07712e-07
-3.38291e-06
-3.65087e-07
-3.30245e-06
-6.17028e-07
-3.1886e-06
-8.58675e-07
-3.04292e-06
-1.08506e-06
-2.86759e-06
-1.29117e-06
-2.66543e-06
-1.47199e-06
-2.43991e-06
-1.62261e-06
-2.19521e-06
-1.73835e-06
-1.93619e-06
-1.81492e-06
-1.66838e-06
-1.8486e-06
-1.39791e-06
-1.83645e-06
-1.13147e-06
-1.77654e-06
-8.76194e-07
-1.66813e-06
-6.39529e-07
-1.51198e-06
-4.29099e-07
-1.31045e-06
-2.52552e-07
-1.06775e-06
-1.17411e-07
-7.8994e-07
-3.09375e-08
-4.84942e-07
-1.63013e-07
-3.45876e-08
2.05983e-07
-1.29585e-07
5.9568e-07
-2.7612e-07
9.52022e-07
-4.65378e-07
1.26689e-06
-6.88743e-07
1.53469e-06
-9.379e-07
1.75168e-06
-1.20493e-06
1.91585e-06
-1.4824e-06
2.02673e-06
-1.76339e-06
2.08511e-06
-2.04157e-06
2.09285e-06
-2.31119e-06
2.0526e-06
-2.56708e-06
1.96766e-06
-2.80468e-06
1.84178e-06
-3.01998e-06
1.67901e-06
-3.20954e-06
1.48365e-06
-3.37039e-06
1.26013e-06
-3.50008e-06
1.01299e-06
-3.59664e-06
7.46842e-07
-3.65854e-06
4.66412e-07
-3.68469e-06
1.7651e-07
-3.67448e-06
-1.17928e-07
-3.62774e-06
-4.11826e-07
-3.54481e-06
-6.99952e-07
-3.42657e-06
-9.76915e-07
-3.27446e-06
-1.23718e-06
-3.09055e-06
-1.47509e-06
-2.87756e-06
-1.68497e-06
-2.63898e-06
-1.86119e-06
-2.379e-06
-1.99832e-06
-2.10264e-06
-2.09128e-06
-1.81567e-06
-2.13558e-06
-1.5246e-06
-2.12752e-06
-1.23667e-06
-2.06447e-06
-9.5966e-07
-1.94514e-06
-7.0184e-07
-1.7698e-06
-4.71768e-07
-1.54052e-06
-2.78114e-07
-1.26141e-06
-1.29467e-07
-9.38586e-07
-3.41499e-08
-5.80259e-07
-1.97163e-07
-3.75742e-08
2.43557e-07
-1.40618e-07
6.98725e-07
-2.99266e-07
1.11067e-06
-5.03695e-07
1.47132e-06
-7.44326e-07
1.77532e-06
-1.01197e-06
2.01932e-06
-1.29795e-06
2.20183e-06
-1.59419e-06
2.32298e-06
-1.89329e-06
2.38422e-06
-2.18855e-06
2.3881e-06
-2.47395e-06
2.338e-06
-2.74419e-06
2.2379e-06
-2.99464e-06
2.09222e-06
-3.22127e-06
1.90565e-06
-3.42066e-06
1.68304e-06
-3.5899e-06
1.42937e-06
-3.72659e-06
1.14968e-06
-3.82879e-06
8.4904e-07
-3.89498e-06
5.32599e-07
-3.92406e-06
2.05589e-07
-3.91535e-06
-1.26636e-07
-3.86861e-06
-4.58569e-07
-3.78404e-06
-7.84517e-07
-3.66237e-06
-1.09858e-06
-3.50488e-06
-1.39467e-06
-3.31346e-06
-1.66651e-06
-3.09073e-06
-1.90771e-06
-2.84005e-06
-2.11188e-06
-2.56562e-06
-2.27275e-06
-2.27252e-06
-2.38437e-06
-1.96675e-06
-2.44134e-06
-1.6552e-06
-2.43907e-06
-1.3456e-06
-2.37407e-06
-1.04646e-06
-2.24428e-06
-7.66902e-07
-2.04935e-06
-5.16489e-07
-1.79094e-06
-3.05001e-07
-1.4729e-06
-1.42197e-07
-1.10139e-06
-3.75582e-08
-6.84897e-07
-2.34721e-07
-4.06578e-08
2.84215e-07
-1.5196e-07
8.10027e-07
-3.22969e-07
1.28168e-06
-5.42786e-07
1.69114e-06
-8.00807e-07
2.03334e-06
-1.08692e-06
2.30543e-06
-1.39165e-06
2.50656e-06
-1.70628e-06
2.63761e-06
-2.02292e-06
2.70085e-06
-2.3345e-06
2.69968e-06
-2.63481e-06
2.63831e-06
-2.91845e-06
2.52154e-06
-3.18074e-06
2.35452e-06
-3.41773e-06
2.14263e-06
-3.62606e-06
1.89137e-06
-3.80293e-06
1.60625e-06
-3.94605e-06
1.2928e-06
-4.05354e-06
9.5653e-07
-4.12393e-06
6.02988e-07
-4.15612e-06
2.37779e-07
-4.14938e-06
-1.33377e-07
-4.10336e-06
-5.04593e-07
-4.01811e-06
-8.69762e-07
-3.89417e-06
-1.22252e-06
-3.7326e-06
-1.55625e-06
-3.53506e-06
-1.86405e-06
-3.30394e-06
-2.13882e-06
-3.04246e-06
-2.37336e-06
-2.7547e-06
-2.5605e-06
-2.44578e-06
-2.6933e-06
-2.12184e-06
-2.76529e-06
-1.79009e-06
-2.77082e-06
-1.45879e-06
-2.70537e-06
-1.13717e-06
-2.5659e-06
-8.35258e-07
-2.35126e-06
-5.63713e-07
-2.06248e-06
-3.33533e-07
-1.70307e-06
-1.55773e-07
-1.27915e-06
-4.12156e-08
-7.99455e-07
-2.75937e-07
-4.38691e-08
3.28084e-07
-1.63709e-07
9.29867e-07
-3.47407e-07
1.46538e-06
-5.82887e-07
1.92662e-06
-8.58439e-07
2.30889e-06
-1.16296e-06
2.60995e-06
-1.48614e-06
2.82975e-06
-1.8186e-06
2.97007e-06
-2.15196e-06
3.03421e-06
-2.47885e-06
3.02657e-06
-2.79287e-06
2.95234e-06
-3.08858e-06
2.81725e-06
-3.36137e-06
2.6273e-06
-3.60739e-06
2.38865e-06
-3.82344e-06
2.10742e-06
-4.0069e-06
1.78972e-06
-4.15563e-06
1.44152e-06
-4.26787e-06
1.06877e-06
-4.34223e-06
6.77355e-07
-4.37765e-06
2.73196e-07
-4.37334e-06
-1.37687e-07
-4.32884e-06
-5.49092e-07
-4.24404e-06
-9.54569e-07
-4.11921e-06
-1.34735e-06
-3.95514e-06
-1.72032e-06
-3.7532e-06
-2.06599e-06
-3.51547e-06
-2.37655e-06
-3.24489e-06
-2.64395e-06
-2.94536e-06
-2.86003e-06
-2.62192e-06
-3.01674e-06
-2.28077e-06
-3.10644e-06
-1.9294e-06
-3.12219e-06
-1.57657e-06
-3.0582e-06
-1.23223e-06
-2.91025e-06
-9.07381e-07
-2.67611e-06
-6.13857e-07
-2.35601e-06
-3.64014e-07
-1.95292e-06
-1.70363e-07
-1.4728e-06
-4.51746e-08
-9.24643e-07
-3.21111e-07
-4.72396e-08
3.75324e-07
-1.75967e-07
1.05859e-06
-3.72756e-07
1.66217e-06
-6.24228e-07
2.17809e-06
-9.17449e-07
2.60211e-06
-1.24025e-06
2.93275e-06
-1.58142e-06
3.17092e-06
-1.93092e-06
3.31957e-06
-2.27989e-06
3.38318e-06
-2.62068e-06
3.36736e-06
-2.9468e-06
3.27846e-06
-3.25283e-06
3.12328e-06
-3.53431e-06
2.90878e-06
-3.78759e-06
2.64193e-06
-4.00973e-06
2.32956e-06
-4.19835e-06
1.97834e-06
-4.35153e-06
1.59471e-06
-4.46773e-06
1.18497e-06
-4.54567e-06
7.55296e-07
-4.58433e-06
3.11856e-07
-4.5829e-06
-1.39112e-07
-4.54081e-06
-5.91185e-07
-4.45773e-06
-1.03765e-06
-4.33366e-06
-1.47142e-06
-4.16903e-06
-1.88494e-06
-3.96483e-06
-2.27019e-06
-3.72272e-06
-2.61865e-06
-3.44527e-06
-2.92141e-06
-3.13605e-06
-3.16924e-06
-2.79989e-06
-3.3529e-06
-2.44297e-06
-3.46335e-06
-2.07297e-06
-3.49219e-06
-1.69908e-06
-3.43209e-06
-1.33197e-06
-3.27736e-06
-9.83668e-07
-3.02441e-06
-6.67301e-07
-2.67237e-06
-3.96733e-07
-2.22349e-06
-1.86134e-07
-1.6834e-06
-4.94877e-08
-1.06129e-06
-3.70599e-07
-5.08052e-08
4.26129e-07
-1.88846e-07
1.19663e-06
-3.99213e-07
1.87253e-06
-6.67047e-07
2.44593e-06
-9.78055e-07
2.91312e-06
-1.31888e-06
3.27357e-06
-1.67739e-06
3.52943e-06
-2.04282e-06
3.68501e-06
-2.40588e-06
3.74624e-06
-2.7587e-06
3.72018e-06
-3.09478e-06
3.61454e-06
-3.40883e-06
3.43733e-06
-3.69663e-06
3.19658e-06
-3.95487e-06
2.90017e-06
-4.18096e-06
2.55564e-06
-4.37285e-06
2.17023e-06
-4.52897e-06
1.75082e-06
-4.648e-06
1.304e-06
-4.72887e-06
8.36171e-07
-4.77066e-06
3.5364e-07
-4.77253e-06
-1.37237e-07
-4.7338e-06
-6.2992e-07
-4.6539e-06
-1.11755e-06
-4.53252e-06
-1.5928e-06
-4.36967e-06
-2.0478e-06
-4.16582e-06
-2.47404e-06
-3.92213e-06
-2.86234e-06
-3.64063e-06
-3.20291e-06
-3.32444e-06
-3.48543e-06
-2.97802e-06
-3.69932e-06
-2.60738e-06
-3.83399e-06
-2.22024e-06
-3.87932e-06
-1.82617e-06
-3.82617e-06
-1.43654e-06
-3.66699e-06
-1.06444e-06
-3.39651e-06
-7.24397e-07
-3.01241e-06
-4.31978e-07
-2.5159e-06
-2.03256e-07
-1.91212e-06
-5.42105e-08
-1.21034e-06
-4.24809e-07
-5.46093e-08
4.80738e-07
-2.02485e-07
1.34451e-06
-4.27005e-07
2.09705e-06
-7.1162e-07
2.73054e-06
-1.04049e-06
3.24199e-06
-1.39894e-06
3.63203e-06
-1.77383e-06
3.90432e-06
-2.15369e-06
4.06486e-06
-2.52881e-06
4.12136e-06
-2.89121e-06
4.08258e-06
-3.23447e-06
3.95779e-06
-3.55357e-06
3.75643e-06
-3.84467e-06
3.48769e-06
-4.10492e-06
3.16042e-06
-4.3322e-06
2.78292e-06
-4.52495e-06
2.36298e-06
-4.68199e-06
1.90786e-06
-4.80236e-06
1.42438e-06
-4.88525e-06
9.19057e-07
-4.92985e-06
3.98244e-07
-4.93538e-06
-1.31714e-07
-4.901e-06
-6.64293e-07
-4.82594e-06
-1.19261e-06
-4.70948e-06
-1.70926e-06
-4.55113e-06
-2.20614e-06
-4.35081e-06
-2.67437e-06
-4.10898e-06
-3.10417e-06
-3.827e-06
-3.48489e-06
-3.50733e-06
-3.8051e-06
-3.15388e-06
-4.05277e-06
-2.7723e-06
-4.21557e-06
-2.37021e-06
-4.28141e-06
-1.95741e-06
-4.23897e-06
-1.54592e-06
-4.07848e-06
-1.14992e-06
-3.79251e-06
-7.85468e-07
-3.37687e-06
-4.7004e-07
-2.83133e-06
-2.2191e-07
-2.16025e-06
-5.94036e-08
-1.37284e-06
-4.84213e-07
-5.87084e-08
5.39447e-07
-2.17057e-07
1.50286e-06
-4.56423e-07
2.33642e-06
-7.58281e-07
3.0324e-06
-1.10501e-06
3.58871e-06
-1.48047e-06
4.00749e-06
-1.87042e-06
4.29427e-06
-2.26269e-06
4.45713e-06
-2.64723e-06
4.5059e-06
-3.01603e-06
4.45138e-06
-3.36291e-06
4.30468e-06
-3.68329e-06
4.0768e-06
-3.97388e-06
3.77828e-06
-4.23243e-06
3.41897e-06
-4.45746e-06
3.00795e-06
-4.64801e-06
2.55353e-06
-4.80342e-06
2.06327e-06
-4.92319e-06
1.54415e-06
-5.00682e-06
1.00269e-06
-5.05372e-06
4.45139e-07
-5.06313e-06
-1.223e-07
-5.03415e-06
-6.93275e-07
-4.96572e-06
-1.26104e-06
-4.85672e-06
-1.81826e-06
-4.7061e-06
-2.35676e-06
-4.51304e-06
-2.86742e-06
-4.27725e-06
-3.33996e-06
-3.99917e-06
-3.76296e-06
-3.68044e-06
-4.12384e-06
-3.32415e-06
-4.40905e-06
-2.93536e-06
-4.60437e-06
-2.52136e-06
-4.69541e-06
-2.09201e-06
-4.66832e-06
-1.65989e-06
-4.5106e-06
-1.24026e-06
-4.21214e-06
-8.50826e-07
-3.7663e-06
-5.11229e-07
-3.17093e-06
-2.42299e-07
-2.42918e-06
-6.5137e-08
-1.55e-06
-5.4935e-07
-6.31778e-08
6.02625e-07
-2.32794e-07
1.67247e-06
-4.87845e-07
2.59147e-06
-8.07464e-07
3.35202e-06
-1.17196e-06
3.95321e-06
-1.56353e-06
4.39906e-06
-1.96674e-06
4.69748e-06
-2.36875e-06
4.85913e-06
-2.75926e-06
4.89642e-06
-3.13041e-06
4.82252e-06
-3.47643e-06
4.6507e-06
-3.79337e-06
4.39375e-06
-4.07871e-06
4.06362e-06
-4.33099e-06
3.67125e-06
-4.54953e-06
3.22649e-06
-4.7341e-06
2.7381e-06
-4.88473e-06
2.21389e-06
-5.00144e-06
1.66087e-06
-5.08416e-06
1.0854e-06
-5.13254e-06
4.93524e-07
-5.14595e-06
-1.08895e-07
-5.12338e-06
-7.1584e-07
-5.06354e-06
-1.32089e-06
-4.96484e-06
-1.91696e-06
-4.8256e-06
-2.496e-06
-4.64422e-06
-3.0488e-06
-4.41941e-06
-3.56477e-06
-4.15059e-06
-4.03179e-06
-3.83824e-06
-4.43618e-06
-3.48444e-06
-4.76285e-06
-3.0933e-06
-4.9955e-06
-2.67152e-06
-5.1172e-06
-2.22876e-06
-5.11108e-06
-1.77798e-06
-4.96138e-06
-1.33549e-06
-4.65463e-06
-9.2077e-07
-4.18102e-06
-5.55888e-07
-3.53581e-06
-2.64658e-07
-2.72041e-06
-7.14948e-08
-1.74317e-06
-6.20845e-07
-6.81211e-08
6.70746e-07
-2.50008e-07
1.85436e-06
-5.21775e-07
2.86324e-06
-8.59736e-07
3.68998e-06
-1.24175e-06
4.33522e-06
-1.64814e-06
4.80545e-06
-2.0622e-06
5.11155e-06
-2.47046e-06
5.26739e-06
-2.86253e-06
5.28849e-06
-3.23088e-06
5.19088e-06
-3.57045e-06
4.99027e-06
-3.87816e-06
4.70145e-06
-4.15245e-06
4.33791e-06
-4.39291e-06
3.91171e-06
-4.59982e-06
3.4334e-06
-4.77388e-06
2.91216e-06
-4.91589e-06
2.3559e-06
-5.02654e-06
1.77152e-06
-5.10625e-06
1.16511e-06
-5.155e-06
5.42277e-07
-5.17231e-06
-9.15881e-08
-5.15713e-06
-7.31012e-07
-5.10792e-06
-1.3701e-06
-5.02264e-06
-2.00224e-06
-4.89892e-06
-2.61972e-06
-4.73425e-06
-3.21348e-06
-4.52624e-06
-3.77278e-06
-4.27303e-06
-4.28499e-06
-3.97375e-06
-4.73547e-06
-3.62906e-06
-5.10754e-06
-3.24181e-06
-5.38275e-06
-2.81769e-06
-5.54131e-06
-2.36586e-06
-5.56292e-06
-1.89939e-06
-5.42785e-06
-1.43553e-06
-5.11848e-06
-9.95602e-07
-4.62095e-06
-6.04414e-07
-3.927e-06
-2.89276e-07
-3.03555e-06
-7.85821e-08
-1.95386e-06
-6.99427e-07
-7.36815e-08
7.44427e-07
-2.69127e-07
2.04981e-06
-5.58891e-07
3.153e-06
-9.1584e-07
4.04693e-06
-1.31492e-06
4.73431e-06
-1.73431e-06
5.22484e-06
-2.15599e-06
5.53323e-06
-2.56595e-06
5.67735e-06
-2.95395e-06
5.67649e-06
-3.31311e-06
5.55004e-06
-3.63933e-06
5.31649e-06
-3.93072e-06
4.99284e-06
-4.18701e-06
4.5942e-06
-4.40903e-06
4.13372e-06
-4.59825e-06
3.62263e-06
-4.75643e-06
3.07034e-06
-4.88528e-06
2.48476e-06
-4.98628e-06
1.87251e-06
-5.0604e-06
1.23923e-06
-5.10805e-06
5.89927e-07
-5.12894e-06
-7.0698e-08
-5.12204e-06
-7.37912e-07
-5.08556e-06
-1.40657e-06
-5.01704e-06
-2.07076e-06
-4.91337e-06
-2.72338e-06
-4.77108e-06
-3.35577e-06
-4.58655e-06
-3.95731e-06
-4.35644e-06
-4.51511e-06
-4.0782e-06
-5.01371e-06
-3.75075e-06
-5.43499e-06
-3.37524e-06
-5.75826e-06
-2.95589e-06
-5.96066e-06
-2.50085e-06
-6.01796e-06
-2.02294e-06
-5.90576e-06
-1.54014e-06
-5.60128e-06
-1.07564e-06
-5.08546e-06
-6.57289e-07
-4.34535e-06
-3.16518e-07
-3.37632e-06
-8.65352e-08
-2.18384e-06
-7.85962e-07
-8.00592e-08
8.24486e-07
-2.90737e-07
2.26049e-06
-6.00103e-07
3.46237e-06
-9.76744e-07
4.42357e-06
-1.39212e-06
5.14968e-06
-1.82196e-06
5.65468e-06
-2.24695e-06
5.95822e-06
-2.65274e-06
6.08313e-06
-3.02955e-06
6.0533e-06
-3.37154e-06
5.89203e-06
-3.67601e-06
5.62096e-06
-3.94261e-06
5.25944e-06
-4.17265e-06
4.82424e-06
-4.36848e-06
4.32955e-06
-4.53296e-06
3.7871e-06
-4.66905e-06
3.20644e-06
-4.77953e-06
2.59524e-06
-4.86669e-06
1.95967e-06
-4.93219e-06
1.30473e-06
-4.9769e-06
6.34629e-07
-5.00078e-06
-4.68131e-08
-5.00287e-06
-7.35818e-07
-4.98123e-06
-1.42822e-06
-4.93293e-06
-2.11906e-06
-4.85419e-06
-2.80212e-06
-4.74052e-06
-3.46944e-06
-4.58697e-06
-4.11086e-06
-4.38855e-06
-4.71353e-06
-4.14076e-06
-5.26149e-06
-3.84038e-06
-5.73537e-06
-3.48634e-06
-6.11231e-06
-3.0808e-06
-6.3662e-06
-2.63031e-06
-6.46844e-06
-2.1469e-06
-6.38918e-06
-1.64887e-06
-6.09931e-06
-1.1612e-06
-5.57313e-06
-7.15113e-07
-4.79143e-06
-3.46862e-07
-3.74457e-06
-9.55364e-08
-2.43517e-06
-8.81498e-07
-8.75356e-08
9.12022e-07
-3.15644e-07
2.48859e-06
-6.46624e-07
3.79335e-06
-1.04368e-06
4.82062e-06
-1.47406e-06
5.58006e-06
-1.9108e-06
6.09142e-06
-2.33334e-06
6.38075e-06
-2.72734e-06
6.47714e-06
-3.084e-06
6.40996e-06
-3.39903e-06
6.20706e-06
-3.67162e-06
5.89354e-06
-3.9034e-06
5.49122e-06
-4.09761e-06
5.01845e-06
-4.25837e-06
4.49031e-06
-4.39011e-06
3.91885e-06
-4.49716e-06
3.31349e-06
-4.5834e-06
2.68148e-06
-4.65204e-06
2.02831e-06
-4.70545e-06
1.35813e-06
-4.745e-06
6.74181e-07
-4.771e-06
-2.08152e-08
-4.78259e-06
-7.24226e-07
-4.77772e-06
-1.43309e-06
-4.75314e-06
-2.14365e-06
-4.7044e-06
-2.85085e-06
-4.62602e-06
-3.54781e-06
-4.51169e-06
-4.2252e-06
-4.35462e-06
-4.8706e-06
-4.14813e-06
-5.46798e-06
-3.88645e-06
-5.99705e-06
-3.56574e-06
-6.43302e-06
-3.1854e-06
-6.74654e-06
-2.7496e-06
-6.90424e-06
-2.26877e-06
-6.87001e-06
-1.76094e-06
-6.60713e-06
-1.25262e-06
-6.08145e-06
-7.78654e-07
-5.2654e-06
-3.80947e-07
-4.14228e-06
-1.05837e-07
-2.71028e-06
-9.87335e-07
-9.65102e-08
1.00853e-06
-3.44957e-07
2.73704e-06
-7.0006e-07
4.14845e-06
-1.11816e-06
5.23872e-06
-1.56147e-06
6.02337e-06
-2.00006e-06
6.53002e-06
-2.41243e-06
6.79312e-06
-2.78484e-06
6.84954e-06
-3.11012e-06
6.73524e-06
-3.38625e-06
6.4832e-06
-3.61491e-06
6.1222e-06
-3.8002e-06
5.67651e-06
-3.94766e-06
5.16591e-06
-4.06342e-06
4.60607e-06
-4.15363e-06
4.00906e-06
-4.22404e-06
3.3839e-06
-4.27969e-06
2.73713e-06
-4.32473e-06
2.07335e-06
-4.36223e-06
1.39563e-06
-4.39411e-06
7.06062e-07
-4.42104e-06
6.11533e-09
-4.44235e-06
-7.0291e-07
-4.45599e-06
-1.41945e-06
-4.45845e-06
-2.14119e-06
-4.44477e-06
-2.86454e-06
-4.40856e-06
-3.58402e-06
-4.34218e-06
-4.29157e-06
-4.23704e-06
-4.97575e-06
-4.08408e-06
-5.62094e-06
-3.87462e-06
-6.20652e-06
-3.60145e-06
-6.70618e-06
-3.26044e-06
-7.08755e-06
-2.85234e-06
-7.31234e-06
-2.38494e-06
-7.33741e-06
-1.87508e-06
-7.11699e-06
-1.35022e-06
-6.60632e-06
-8.48901e-07
-5.76671e-06
-4.1965e-07
-4.57153e-06
-1.17791e-07
-3.01214e-06
-1.10513e-06
-1.07558e-07
1.11609e-06
-3.8021e-07
3.00969e-06
-7.6251e-07
4.53075e-06
-1.20199e-06
5.6782e-06
-1.65481e-06
6.47619e-06
-2.0881e-06
6.96331e-06
-2.47994e-06
7.18496e-06
-2.81808e-06
7.18768e-06
-3.098e-06
7.01517e-06
-3.32084e-06
6.70603e-06
-3.49147e-06
6.29283e-06
-3.617e-06
5.80205e-06
-3.70559e-06
5.2545e-06
-3.76556e-06
4.66605e-06
-3.80487e-06
4.04836e-06
-3.83068e-06
3.40971e-06
-3.84917e-06
2.75562e-06
-3.86533e-06
2.08951e-06
-3.88293e-06
1.41323e-06
-3.9044e-06
7.2754e-07
-3.93081e-06
3.25252e-08
-3.96175e-06
-6.71978e-07
-3.99524e-06
-1.38595e-06
-4.02772e-06
-2.10872e-06
-4.05385e-06
-2.83841e-06
-4.06656e-06
-3.57131e-06
-4.05707e-06
-4.30106e-06
-4.01502e-06
-5.01779e-06
-3.92895e-06
-5.707e-06
-3.787e-06
-6.34847e-06
-3.57808e-06
-6.91511e-06
-3.29359e-06
-7.37203e-06
-2.92972e-06
-7.67621e-06
-2.49018e-06
-7.77696e-06
-1.98919e-06
-7.61798e-06
-1.45416e-06
-7.14135e-06
-9.27127e-07
-6.29375e-06
-4.64191e-07
-5.03446e-06
-1.31911e-07
-3.34442e-06
-1.23704e-06
-1.21519e-07
1.23761e-06
-4.23531e-07
3.3117e-06
-8.36672e-07
4.94389e-06
-1.29708e-06
6.1386e-06
-1.75391e-06
6.93303e-06
-2.17161e-06
7.38101e-06
-2.52894e-06
7.54229e-06
-2.81655e-06
7.47529e-06
-3.03388e-06
7.2325e-06
-3.18631e-06
6.85846e-06
-3.28275e-06
6.38927e-06
-3.3338e-06
5.8531e-06
-3.3505e-06
5.2712e-06
-3.34346e-06
4.659e-06
-3.32235e-06
4.02726e-06
-3.29567e-06
3.38303e-06
-3.27054e-06
2.73049e-06
-3.25271e-06
2.07167e-06
-3.24649e-06
1.40701e-06
-3.25478e-06
7.35832e-07
-3.27901e-06
5.67538e-08
-3.31908e-06
-6.3191e-07
-3.37326e-06
-1.33177e-06
-3.43808e-06
-2.0439e-06
-3.50813e-06
-2.76836e-06
-3.57596e-06
-3.50348e-06
-3.63191e-06
-4.24511e-06
-3.6642e-06
-4.9855e-06
-3.65907e-06
-5.71213e-06
-3.60143e-06
-6.40612e-06
-3.47586e-06
-7.04067e-06
-3.26847e-06
-7.57942e-06
-2.96948e-06
-7.9752e-06
-2.57672e-06
-8.16972e-06
-2.09979e-06
-8.09491e-06
-1.56428e-06
-7.67686e-06
-1.01494e-06
-6.84309e-06
-5.16287e-07
-5.53311e-06
-1.48961e-07
-3.71175e-06
-1.386e-06
-1.39653e-07
1.37726e-06
-4.7789e-07
3.64994e-06
-9.25913e-07
5.39192e-06
-1.40517e-06
6.61786e-06
-1.85706e-06
7.38492e-06
-2.24434e-06
7.76828e-06
-2.54835e-06
7.8463e-06
-2.76464e-06
7.69158e-06
-2.89839e-06
7.36625e-06
-2.96052e-06
6.92059e-06
-2.96476e-06
6.39351e-06
-2.92563e-06
5.81396e-06
-2.85711e-06
5.20268e-06
-2.772e-06
4.57389e-06
-2.68148e-06
3.93675e-06
-2.59507e-06
3.29661e-06
-2.52058e-06
2.656e-06
-2.46424e-06
2.01532e-06
-2.43071e-06
1.37349e-06
-2.42322e-06
7.28341e-07
-2.44352e-06
7.70497e-08
-2.49185e-06
-5.83576e-07
-2.56687e-06
-1.25675e-06
-2.66543e-06
-1.94534e-06
-2.78239e-06
-2.6514e-06
-2.91032e-06
-3.37555e-06
-3.03924e-06
-4.11619e-06
-3.15639e-06
-4.86836e-06
-3.24617e-06
-5.62234e-06
-3.29047e-06
-6.36183e-06
-3.26941e-06
-7.06173e-06
-3.16309e-06
-7.68574e-06
-2.95435e-06
-8.18394e-06
-2.63292e-06
-8.49115e-06
-2.201e-06
-8.52683e-06
-1.67957e-06
-8.19828e-06
-1.11426e-06
-7.4084e-06
-5.78371e-07
-6.069e-06
-1.70106e-07
-4.12001e-06
-1.5561e-06
-1.63902e-07
1.54116e-06
-5.47435e-07
4.03347e-06
-1.03422e-06
5.8787e-06
-1.52703e-06
7.11067e-06
-1.95947e-06
7.81736e-06
-2.29492e-06
8.10373e-06
-2.52038e-06
8.07177e-06
-2.63917e-06
7.81036e-06
-2.66434e-06
7.39142e-06
-2.61373e-06
6.86998e-06
-2.50657e-06
6.28635e-06
-2.3614e-06
5.66879e-06
-2.195e-06
5.03629e-06
-2.02193e-06
4.40082e-06
-1.85444e-06
3.76925e-06
-1.70256e-06