/*--------------------------------*- C++ -*----------------------------------*\
  =========                 |
  \\      /  F ield         | OpenFOAM: The Open Source CFD Toolbox
   \\    /   O peration     | Website:  https://openfoam.org
    \\  /    A nd           | Version:  7
     \\/     M anipulation  |
\*---------------------------------------------------------------------------*/
FoamFile
{
    version     2.0;
    format      ascii;
    class       volVectorField;
    location    "0.4";
    object      U;
}
// * * * * * * * * * * * * * * * * * * * * * * * * * * * * * * * * * * * * * //

dimensions      [0 1 -1 0 0 0 0];

internalField   nonuniform List<vector> 
1600
(
(6.0427e-05 -6.05792e-05 0)
(0.000155833 -5.71611e-05 0)
(0.000156902 -7.05968e-06 0)
(6.64377e-06 5.24088e-05 0)
(-0.000303312 0.00010792 0)
(-0.000756554 0.000154764 0)
(-0.00132862 0.000191578 0)
(-0.00199253 0.000218406 0)
(-0.00272105 0.000235825 0)
(-0.00348792 0.00024458 0)
(-0.00426838 0.000245464 0)
(-0.00503957 0.000239261 0)
(-0.00578062 0.000226731 0)
(-0.00647278 0.000208607 0)
(-0.00709941 0.0001856 0)
(-0.00764601 0.0001584 0)
(-0.00810027 0.000127688 0)
(-0.00845204 9.41444e-05 0)
(-0.00869339 5.84585e-05 0)
(-0.00881868 2.13378e-05 0)
(-0.00882463 -1.64838e-05 0)
(-0.00871037 -5.424e-05 0)
(-0.0084776 -9.1128e-05 0)
(-0.00813062 -0.000126309 0)
(-0.00767644 -0.000158911 0)
(-0.00712483 -0.000188036 0)
(-0.00648837 -0.000212773 0)
(-0.0057824 -0.000232208 0)
(-0.00502496 -0.000245442 0)
(-0.00423664 -0.000251608 0)
(-0.00344039 -0.000249892 0)
(-0.00266112 -0.000239556 0)
(-0.00192537 -0.000219963 0)
(-0.00126063 -0.000190634 0)
(-0.000694483 -0.000151367 0)
(-0.000253161 -0.000102584 0)
(4.0828e-05 -4.61688e-05 0)
(0.000174353 1.2647e-05 0)
(0.00016035 6.01772e-05 0)
(6.02492e-05 6.00136e-05 0)
(5.86061e-05 -0.000157085 0)
(7.24375e-05 -6.95468e-05 0)
(-0.000178524 0.000182289 0)
(-0.000772806 0.000476904 0)
(-0.00172489 0.00076098 0)
(-0.00300822 0.00100937 0)
(-0.00457424 0.00121076 0)
(-0.00636353 0.00136124 0)
(-0.00831234 0.00146073 0)
(-0.0103564 0.00151113 0)
(-0.0124335 0.00151541 0)
(-0.0144846 0.00147712 0)
(-0.0164554 0.00140015 0)
(-0.0182961 0.00128854 0)
(-0.0199624 0.00114643 0)
(-0.0214156 0.000978023 0)
(-0.0226227 0.000787572 0)
(-0.0235564 0.000579413 0)
(-0.0241956 0.000357979 0)
(-0.0245254 0.000127834 0)
(-0.0245373 -0.00010631 0)
(-0.0242295 -0.000339566 0)
(-0.0236069 -0.000566874 0)
(-0.0226816 -0.000783015 0)
(-0.0214726 -0.000982639 0)
(-0.0200065 -0.00116033 0)
(-0.0183168 -0.00131068 0)
(-0.0164444 -0.0014284 0)
(-0.0144366 -0.00150843 0)
(-0.0123472 -0.00154612 0)
(-0.0102352 -0.00153737 0)
(-0.00816397 -0.0014789 0)
(-0.00619965 -0.00136856 0)
(-0.00440897 -0.00120578 0)
(-0.00285636 -0.000992469 0)
(-0.00159956 -0.000734671 0)
(-0.000683026 -0.000445947 0)
(-0.000126885 -0.000153459 0)
(9.19905e-05 8.83687e-05 0)
(6.17268e-05 0.000160738 0)
(1.14343e-05 -0.000162892 0)
(-0.000171961 0.000178372 0)
(-0.000804103 0.000813884 0)
(-0.00193116 0.00153637 0)
(-0.00355404 0.00223881 0)
(-0.00563678 0.0028617 0)
(-0.00811457 0.00337347 0)
(-0.0109059 0.0037597 0)
(-0.0139213 0.00401624 0)
(-0.0170687 0.00414504 0)
(-0.0202573 0.00415178 0)
(-0.0234004 0.00404446 0)
(-0.0264165 0.00383251 0)
(-0.0292313 0.00352625 0)
(-0.0317778 0.00313658 0)
(-0.0339973 0.00267482 0)
(-0.0358396 0.0021526 0)
(-0.0372635 0.00158189 0)
(-0.0382369 0.000974971 0)
(-0.0387375 0.000344512 0)
(-0.0387526 -0.000296414 0)
(-0.0382797 -0.000934312 0)
(-0.0373267 -0.00155527 0)
(-0.0359122 -0.00214503 0)
(-0.0340656 -0.00268909 0)
(-0.0318272 -0.00317287 0)
(-0.0292479 -0.00358197 0)
(-0.0263891 -0.00390245 0)
(-0.023322 -0.00412123 0)
(-0.0201265 -0.00422656 0)
(-0.0168901 -0.00420855 0)
(-0.0137056 -0.00405993 0)
(-0.0106689 -0.00377702 0)
(-0.0078755 -0.00336108 0)
(-0.00541583 -0.00282054 0)
(-0.0033694 -0.00217477 0)
(-0.00179586 -0.00146039 0)
(-0.000723136 -0.000741207 0)
(-0.000138868 -0.000126459 0)
(1.76666e-05 0.000180097 0)
(-4.54001e-05 -2.20806e-05 0)
(-0.0004644 0.000768006 0)
(-0.00153551 0.00194147 0)
(-0.00324205 0.00322681 0)
(-0.00555494 0.00446837 0)
(-0.0084232 0.00557126 0)
(-0.0117659 0.00648045 0)
(-0.0154829 0.00716784 0)
(-0.0194647 0.0076228 0)
(-0.0235977 0.00784602 0)
(-0.027769 0.00784562 0)
(-0.03187 0.00763465 0)
(-0.0357981 0.00722935 0)
(-0.0394589 0.00664813 0)
(-0.0427673 0.00591086 0)
(-0.0456485 0.00503847 0)
(-0.0480383 0.00405271 0)
(-0.0498841 0.00297604 0)
(-0.0511449 0.00183166 0)
(-0.0517923 0.000643491 0)
(-0.0518101 -0.000563801 0)
(-0.0511956 -0.00176479 0)
(-0.0499589 -0.00293335 0)
(-0.0481242 -0.00404281 0)
(-0.0457292 -0.00506616 0)
(-0.0428253 -0.00597639 0)
(-0.0394776 -0.00674699 0)
(-0.035764 -0.0073525 0)
(-0.0317746 -0.00776932 0)
(-0.0276101 -0.00797656 0)
(-0.0233804 -0.00795719 0)
(-0.0192015 -0.00769943 0)
(-0.0151923 -0.00719856 0)
(-0.0114708 -0.00645937 0)
(-0.00814817 -0.00549975 0)
(-0.00532248 -0.00435616 0)
(-0.00306912 -0.00309217 0)
(-0.00142997 -0.00181 0)
(-0.00042006 -0.000669611 0)
(-3.6678e-05 5.98308e-05 0)
(-0.000100461 0.000278562 0)
(-0.000761232 0.00172927 0)
(-0.00229003 0.00359221 0)
(-0.004594 0.00555639 0)
(-0.00760367 0.00742911 0)
(-0.011247 0.00908524 0)
(-0.0154243 0.0104478 0)
(-0.0200174 0.0114748 0)
(-0.0248987 0.0121482 0)
(-0.0299368 0.0124671 0)
(-0.0350009 0.0124417 0)
(-0.0399645 0.0120905 0)
(-0.0447082 0.0114374 0)
(-0.0491217 0.0105102 0)
(-0.0531052 0.00933926 0)
(-0.0565708 0.00795694 0)
(-0.0594434 0.00639718 0)
(-0.0616609 0.00469518 0)
(-0.0631753 0.00288736 0)
(-0.063953 0.00101133 0)
(-0.0639754 -0.000894157 0)
(-0.063239 -0.00278919 0)
(-0.061756 -0.00463285 0)
(-0.0595547 -0.00638349 0)
(-0.0566794 -0.00799905 0)
(-0.0531906 -0.00943763 0)
(-0.0491642 -0.0106583 0)
(-0.0446915 -0.0116219 0)
(-0.0398777 -0.0122925 0)
(-0.0348403 -0.0126387 0)
(-0.0297069 -0.0126353 0)
(-0.0246124 -0.0122656 0)
(-0.0196951 -0.0115241 0)
(-0.0150918 -0.0104198 0)
(-0.0109325 -0.00898113 0)
(-0.00733401 -0.00726247 0)
(-0.00439042 -0.00535337 0)
(-0.00216384 -0.00339025 0)
(-0.000707272 -0.0015735 0)
(-8.95972e-05 -0.000214688 0)
(-0.000150692 0.000732656 0)
(-0.00104597 0.00306291 0)
(-0.00302999 0.00577339 0)
(-0.00593124 0.00853248 0)
(-0.0096347 0.011122 0)
(-0.0140425 0.0133937 0)
(-0.0190332 0.0152525 0)
(-0.0244693 0.016644 0)
(-0.0302057 0.017544 0)
(-0.0360945 0.0179499 0)
(-0.0419895 0.0178749 0)
(-0.0477494 0.0173434 0)
(-0.0532407 0.0163878 0)
(-0.0583402 0.0150463 0)
(-0.0629364 0.0133611 0)
(-0.066931 0.0113776 0)
(-0.0702399 0.00914351 0)
(-0.0727936 0.00670857 0)
(-0.0745384 0.00412427 0)
(-0.0754365 0.00144386 0)
(-0.075467 -0.0012778 0)
(-0.0746258 -0.00398432 0)
(-0.0729265 -0.00661792 0)
(-0.0704004 -0.00911988 0)
(-0.0670969 -0.011431 0)
(-0.0630831 -0.0134926 0)
(-0.0584439 -0.0152472 0)
(-0.0532808 -0.0166404 0)
(-0.0477112 -0.0176222 0)
(-0.0418663 -0.0181491 0)
(-0.0358887 -0.0181869 0)
(-0.0299294 -0.0177131 0)
(-0.0241437 -0.016721 0)
(-0.0186863 -0.0152236 0)
(-0.013706 -0.0132592 0)
(-0.00934009 -0.0108987 0)
(-0.00570463 -0.00825473 0)
(-0.00288705 -0.00549184 0)
(-0.000983728 -0.00284066 0)
(-0.000137867 -0.000637796 0)
(-0.000195992 0.00132988 0)
(-0.00131426 0.00475754 0)
(-0.00374154 0.00847737 0)
(-0.00723056 0.0121494 0)
(-0.0116191 0.01554 0)
(-0.0167804 0.0184845 0)
(-0.0225686 0.0208747 0)
(-0.0288251 0.0226473 0)
(-0.0353869 0.0237736 0)
(-0.0420902 0.024251 0)
(-0.0487743 0.0240966 0)
(-0.0552849 0.0233416 0)
(-0.0614766 0.0220281 0)
(-0.0672156 0.0202058 0)
(-0.0723808 0.0179301 0)
(-0.0768655 0.0152604 0)
(-0.0805784 0.0122597 0)
(-0.0834442 0.0089937 0)
(-0.0854045 0.00553037 0)
(-0.0864182 0.00194008 0)
(-0.0864622 -0.00170468 0)
(-0.0855317 -0.00532943 0)
(-0.0836409 -0.00885796 0)
(-0.0808232 -0.0122128 0)
(-0.0771314 -0.0153161 0)
(-0.0726378 -0.0180905 0)
(-0.0674337 -0.0204605 0)
(-0.061629 -0.0223545 0)
(-0.055351 -0.0237071 0)
(-0.0487422 -0.0244614 0)
(-0.0419584 -0.0245724 0)
(-0.0351652 -0.0240109 0)
(-0.0285341 -0.0227674 0)
(-0.0222378 -0.0208576 0)
(-0.0164451 -0.018328 0)
(-0.0113155 -0.0152634 0)
(-0.00699073 -0.0117953 0)
(-0.00358674 -0.0081106 0)
(-0.00124527 -0.00446177 0)
(-0.000181363 -0.00119979 0)
(-0.00023729 0.00206051 0)
(-0.00156729 0.00679859 0)
(-0.00442363 0.0116907 0)
(-0.00848774 0.0163958 0)
(-0.0135506 0.0206718 0)
(-0.0194548 0.0243446 0)
(-0.0260281 0.0272979 0)
(-0.0330894 0.0294631 0)
(-0.0404567 0.03081 0)
(-0.0479501 0.0313383 0)
(-0.0553951 0.0310705 0)
(-0.0626254 0.0300466 0)
(-0.0694851 0.0283193 0)
(-0.0758312 0.0259512 0)
(-0.081535 0.0230117 0)
(-0.086483 0.0195758 0)
(-0.0905781 0.0157228 0)
(-0.0937405 0.0115351 0)
(-0.0959079 0.00709861 0)
(-0.0970363 0.00250176 0)
(-0.0971008 -0.00216421 0)
(-0.0960956 -0.00680558 0)
(-0.0940348 -0.0113265 0)
(-0.0909529 -0.0156296 0)
(-0.0869047 -0.0196169 0)
(-0.081966 -0.0231909 0)
(-0.076233 -0.0262567 0)
(-0.069822 -0.028724 0)
(-0.0628682 -0.03051 0)
(-0.0555241 -0.0315428 0)
(-0.0479574 -0.031765 0)
(-0.0403478 -0.0311385 0)
(-0.0328828 -0.0296494 0)
(-0.025754 -0.0273135 0)
(-0.0191514 -0.0241829 0)
(-0.0132597 -0.020353 0)
(-0.00824802 -0.01597 0)
(-0.00426365 -0.0112379 0)
(-0.00149371 -0.00642512 0)
(-0.000221097 -0.00189181 0)
(-0.000275723 0.00291678 0)
(-0.00180842 0.00917269 0)
(-0.00508116 0.0153999 0)
(-0.00970847 0.0212596 0)
(-0.0154356 0.0265069 0)
(-0.0220736 0.0309636 0)
(-0.0294226 0.0345099 0)
(-0.0372775 0.0370765 0)
(-0.0454365 0.0386351 0)
(-0.0537034 0.0391903 0)
(-0.0618898 0.0387726 0)
(-0.069818 0.0374324 0)
(-0.0773228 0.0352348 0)
(-0.0842533 0.0322565 0)
(-0.0904742 0.0285825 0)
(-0.0958668 0.0243041 0)
(-0.10033 0.0195178 0)
(-0.103779 0.0143239 0)
(-0.106149 0.00882659 0)
(-0.107395 0.00313332 0)
(-0.107489 -0.00264522 0)
(-0.106423 -0.00839536 0)
(-0.104212 -0.0140008 0)
(-0.10089 -0.0193432 0)
(-0.0965129 -0.0243034 0)
(-0.0911577 -0.0287627 0)
(-0.0849242 -0.0326052 0)
(-0.0779336 -0.0357202 0)
(-0.0703275 -0.038006 0)
(-0.0622673 -0.0393731 0)
(-0.0539318 -0.0397498 0)
(-0.0455142 -0.0390865 0)
(-0.0372189 -0.0373621 0)
(-0.0292571 -0.0345898 0)
(-0.0218422 -0.0308239 0)
(-0.0151857 -0.0261667 0)
(-0.00948675 -0.0207753 0)
(-0.0049252 -0.0148665 0)
(-0.00173335 -0.00872128 0)
(-0.000258368 -0.00270732 0)
(-0.000312347 0.00389316 0)
(-0.00204152 0.0118695 0)
(-0.00572144 0.0195938 0)
(-0.0109029 0.0267309 0)
(-0.0172865 0.0330367 0)
(-0.0246515 0.0383333 0)
(-0.0327692 0.0425022 0)
(-0.0414097 0.0454774 0)
(-0.0503506 0.0472364 0)
(-0.0593786 0.0477922 0)
(-0.0682918 0.0471858 0)
(-0.0769015 0.0454802 0)
(-0.0850339 0.0427553 0)
(-0.0925313 0.0391032 0)
(-0.0992531 0.0346258 0)
(-0.105076 0.0294316 0)
(-0.109896 0.0236352 0)
(-0.113626 0.0173554 0)
(-0.116199 0.0107152 0)
(-0.117567 0.00384132 0)
(-0.1177 -0.00313567 0)
(-0.116589 -0.0100817 0)
(-0.114248 -0.0168595 0)
(-0.110709 -0.0233293 0)
(-0.106027 -0.0293498 0)
(-0.100282 -0.0347799 0)
(-0.0935727 -0.0394813 0)
(-0.0860249 -0.0433214 0)
(-0.0777855 -0.046177 0)
(-0.0690232 -0.0479394 0)
(-0.0599274 -0.0485191 0)
(-0.0507051 -0.0478523 0)
(-0.0415778 -0.0459072 0)
(-0.0327776 -0.0426909 0)
(-0.0245429 -0.0382561 0)
(-0.0171141 -0.0327084 0)
(-0.0107225 -0.026212 0)
(-0.0055817 -0.0189938 0)
(-0.00196922 -0.0113453 0)
(-0.000294436 -0.0036426 0)
(-0.000348062 0.00498638 0)
(-0.00227037 0.0148826 0)
(-0.00635232 0.0242652 0)
(-0.0120829 0.032803 0)
(-0.0191184 0.0402553 0)
(-0.0272061 0.0464481 0)
(-0.0360877 0.0512685 0)
(-0.0455076 0.0546582 0)
(-0.0552221 0.0566044 0)
(-0.0650008 0.057132 0)
(-0.074628 0.0562961 0)
(-0.0839046 0.054175 0)
(-0.092649 0.0508651 0)
(-0.100698 0.0464762 0)
(-0.107906 0.041128 0)
(-0.114148 0.0349478 0)
(-0.119316 0.0280683 0)
(-0.123323 0.0206275 0)
(-0.126099 0.0127673 0)
(-0.127594 0.00463387 0)
(-0.127777 -0.00362233 0)
(-0.126638 -0.0118469 0)
(-0.124187 -0.0198813 0)
(-0.120455 -0.0275639 0)
(-0.115495 -0.0347308 0)
(-0.109385 -0.0412177 0)
(-0.102226 -0.0468622 0)
(-0.0941432 -0.051508 0)
(-0.0852884 -0.0550083 0)
(-0.0758368 -0.0572319 0)
(-0.0659875 -0.0580688 0)
(-0.0559611 -0.057437 0)
(-0.0459968 -0.0552904 0)
(-0.0363489 -0.0516254 0)
(-0.0272825 -0.0464895 0)
(-0.0190687 -0.0399872 0)
(-0.011973 -0.032287 0)
(-0.00624442 -0.0236232 0)
(-0.00220644 -0.0142974 0)
(-0.000330442 -0.00469682 0)
(-0.000383617 0.00619512 0)
(-0.0024984 0.0182091 0)
(-0.00698137 0.029411 0)
(-0.01326 0.0394731 0)
(-0.0209465 0.0481598 0)
(-0.029755 0.0553045 0)
(-0.0393973 0.0608042 0)
(-0.0495913 0.0646122 0)
(-0.0600713 0.06673 0)
(-0.0705895 0.0671985 0)
(-0.0809169 0.06609 0)
(-0.0908446 0.0635016 0)
(-0.100184 0.0595487 0)
(-0.108767 0.0543605 0)
(-0.116445 0.0480761 0)
(-0.123092 0.0408421 0)
(-0.128599 0.0328107 0)
(-0.132878 0.0241385 0)
(-0.135857 0.0149865 0)
(-0.137486 0.00552018 0)
(-0.137733 -0.00409069 0)
(-0.136584 -0.0136715 0)
(-0.134045 -0.0230429 0)
(-0.130146 -0.0320213 0)
(-0.124937 -0.0404196 0)
(-0.118493 -0.0480494 0)
(-0.110911 -0.0547234 0)
(-0.102319 -0.0602592 0)
(-0.0928699 -0.064484 0)
(-0.0827438 -0.067241 0)
(-0.0721489 -0.0683956 0)
(-0.0613192 -0.0678438 0)
(-0.050512 -0.0655201 0)
(-0.0400047 -0.061406 0)
(-0.0300906 -0.0555388 0)
(-0.0210739 -0.0480182 0)
(-0.0132564 -0.0390134 0)
(-0.00692462 -0.0287646 0)
(-0.00244991 -0.0175838 0)
(-0.000367403 -0.00587185 0)
(-0.000419639 0.00751981 0)
(-0.00272866 0.0218499 0)
(-0.00761554 0.0350324 0)
(-0.0144453 0.046742 0)
(-0.0227849 0.0567503 0)
(-0.0323147 0.0649011 0)
(-0.0427152 0.0711052 0)
(-0.0536773 0.0753324 0)
(-0.0649128 0.0776029 0)
(-0.0761567 0.077978 0)
(-0.087167 0.0765515 0)
(-0.0977257 0.0734422 0)
(-0.107638 0.0687875 0)
(-0.116734 0.062738 0)
(-0.124863 0.055454 0)
(-0.131898 0.0471022 0)
(-0.137731 0.0378541 0)
(-0.142273 0.0278856 0)
(-0.145455 0.0173763 0)
(-0.147225 0.00650989 0)
(-0.147547 -0.0045249 0)
(-0.146407 -0.0155342 0)
(-0.143808 -0.0263182 0)
(-0.139773 -0.0366718 0)
(-0.134349 -0.0463848 0)
(-0.127604 -0.055244 0)
(-0.119635 -0.0630357 0)
(-0.110566 -0.0695496 0)
(-0.100549 -0.0745843 0)
(-0.0897682 -0.0779536 0)
(-0.0784401 -0.0794942 0)
(-0.0668108 -0.0790748 0)
(-0.0551558 -0.0766057 0)
(-0.0437764 -0.0720478 0)
(-0.0329959 -0.0654231 0)
(-0.0231536 -0.056822 0)
(-0.0145903 -0.0464111 0)
(-0.00763312 -0.0344348 0)
(-0.00270421 -0.0212157 0)
(-0.000406229 -0.0071721 0)
(-0.000456661 0.00896237 0)
(-0.00296384 0.0258092 0)
(-0.00826114 0.0411341 0)
(-0.0156488 0.0546141 0)
(-0.0246466 0.0660293 0)
(-0.0348995 0.0752374 0)
(-0.0460556 0.0821671 0)
(-0.0577778 0.0868099 0)
(-0.0697553 0.0892097 0)
(-0.0817059 0.089453 0)
(-0.0933755 0.0876593 0)
(-0.104538 0.0839732 0)
(-0.114995 0.0785569 0)
(-0.124574 0.0715851 0)
(-0.133126 0.0632403 0)
(-0.140525 0.0537103 0)
(-0.146665 0.0431866 0)
(-0.15146 0.0318634 0)
(-0.15484 0.0199383 0)
(-0.156755 0.00761246 0)
(-0.157167 -0.00490787 0)
(-0.156058 -0.0174106 0)
(-0.153427 -0.0296768 0)
(-0.149292 -0.0414804 0)
(-0.143693 -0.0525885 0)
(-0.136693 -0.0627628 0)
(-0.12838 -0.071762 0)
(-0.118874 -0.0793462 0)
(-0.108325 -0.085282 0)
(-0.0969198 -0.0893501 0)
(-0.0848783 -0.0913539 0)
(-0.0724589 -0.0911291 0)
(-0.0599547 -0.0885554 0)
(-0.0476916 -0.0835671 0)
(-0.0360243 -0.0761648 0)
(-0.0253301 -0.0664245 0)
(-0.0159916 -0.0545063 0)
(-0.00838022 -0.0406569 0)
(-0.00297365 -0.0252097 0)
(-0.000447754 -0.0086043 0)
(-0.000495155 0.0105261 0)
(-0.0032064 0.0300939 0)
(-0.00892395 0.0477246 0)
(-0.0168796 0.0630968 0)
(-0.0265429 0.0760011 0)
(-0.0375214 0.086313 0)
(-0.0494291 0.0939839 0)
(-0.0618998 0.0990322 0)
(-0.0746 0.101531 0)
(-0.0872307 0.101598 0)
(-0.0995267 0.0993838 0)
(-0.111256 0.0950619 0)
(-0.122217 0.0888233 0)
(-0.132239 0.0808688 0)
(-0.141176 0.071405 0)
(-0.148906 0.0606416 0)
(-0.155326 0.0487896 0)
(-0.160355 0.0360615 0)
(-0.163925 0.0226713 0)
(-0.165986 0.00883626 0)
(-0.1665 -0.00522151 0)
(-0.165446 -0.0192736 0)
(-0.162818 -0.0330833 0)
(-0.158626 -0.0464052 0)
(-0.152903 -0.0589843 0)
(-0.1457 -0.0705572 0)
(-0.137099 -0.0808545 0)
(-0.127211 -0.0896044 0)
(-0.11618 -0.0965389 0)
(-0.104191 -0.101401 0)
(-0.0914671 -0.103956 0)
(-0.0782761 -0.103999 0)
(-0.0649279 -0.101374 0)
(-0.051773 -0.0959795 0)
(-0.0391991 -0.0877883 0)
(-0.0276238 -0.0768557 0)
(-0.017476 -0.0633308 0)
(-0.00917568 -0.0474599 0)
(-0.00326234 -0.0295875 0)
(-0.000492773 -0.0101774 0)
(-0.000535574 0.0122154 0)
(-0.00345869 0.0347139 0)
(-0.0096095 0.0548153 0)
(-0.0181461 0.0722 0)
(-0.0284841 0.0866714 0)
(-0.0401904 0.0981267 0)
(-0.0528429 0.106546 0)
(-0.0660449 0.111981 0)
(-0.0794402 0.114541 0)
(-0.0927139 0.11438 0)
(-0.105591 0.111684 0)
(-0.117836 0.106664 0)
(-0.129248 0.0995405 0)
(-0.139659 0.090544 0)
(-0.148929 0.0799067 0)
(-0.156943 0.0678605 0)
(-0.163606 0.0546361 0)
(-0.168841 0.0404626 0)
(-0.172585 0.0255694 0)
(-0.17479 0.0101876 0)
(-0.175418 -0.0054472 0)
(-0.174445 -0.0210925 0)
(-0.171858 -0.0364964 0)
(-0.16766 -0.0513956 0)
(-0.161872 -0.0655147 0)
(-0.154534 -0.078566 0)
(-0.145716 -0.0902511 0)
(-0.135516 -0.100265 0)
(-0.124069 -0.108302 0)
(-0.111554 -0.114064 0)
(-0.0981941 -0.11727 0)
(-0.0842629 -0.117669 0)
(-0.0700857 -0.11506 0)
(-0.0560373 -0.109297 0)
(-0.0425394 -0.100318 0)
(-0.0300532 -0.0881489 0)
(-0.0190581 -0.0729215 0)
(-0.0100289 -0.0548786 0)
(-0.00357429 -0.0343752 0)
(-0.000542064 -0.0119023 0)
(-0.00057839 0.0140361 0)
(-0.00372318 0.0396817 0)
(-0.0103235 0.062421 0)
(-0.0194571 0.0819358 0)
(-0.0304801 0.0980458 0)
(-0.0429149 0.110675 0)
(-0.0563007 0.119839 0)
(-0.0702091 0.12563 0)
(-0.084261 0.1282 0)
(-0.0981267 0.127749 0)
(-0.111524 0.124506 0)
(-0.124217 0.118719 0)
(-0.136007 0.110646 0)
(-0.146735 0.10055 0)
(-0.15627 0.0886891 0)
(-0.164506 0.0753184 0)
(-0.171359 0.0606873 0)
(-0.176761 0.0450406 0)
(-0.180655 0.0286205 0)
(-0.182996 0.0116695 0)
(-0.183747 -0.00556637 0)
(-0.182881 -0.0228336 0)
(-0.180379 -0.0398679 0)
(-0.176234 -0.0563914 0)
(-0.170453 -0.0721098 0)
(-0.163064 -0.0867125 0)
(-0.154117 -0.0998727 0)
(-0.143695 -0.111251 0)
(-0.13192 -0.120501 0)
(-0.118958 -0.127277 0)
(-0.105027 -0.131248 0)
(-0.0904051 -0.132109 0)
(-0.0754281 -0.129601 0)
(-0.0604944 -0.123528 0)
(-0.0460606 -0.113777 0)
(-0.0326348 -0.100339 0)
(-0.0207521 -0.0833193 0)
(-0.010949 -0.062953 0)
(-0.00391352 -0.0396037 0)
(-0.000596435 -0.0137923 0)
(-0.000624141 0.0159952 0)
(-0.00400263 0.0450128 0)
(-0.0110722 0.0705593 0)
(-0.0208217 0.0923184 0)
(-0.0325407 0.11013 0)
(-0.0457024 0.123951 0)
(-0.0598035 0.133841 0)
(-0.0743828 0.139941 0)
(-0.0890385 0.142458 0)
(-0.103428 0.141643 0)
(-0.117265 0.137774 0)
(-0.130314 0.131146 0)
(-0.142389 0.122058 0)
(-0.153339 0.110806 0)
(-0.163048 0.0976775 0)
(-0.171426 0.0829499 0)
(-0.1784 0.0668906 0)
(-0.183914 0.0497579 0)
(-0.187922 0.0318043 0)
(-0.190384 0.0132802 0)
(-0.191265 -0.00556141 0)
(-0.190534 -0.0244601 0)
(-0.188165 -0.0431431 0)
(-0.184142 -0.0613211 0)
(-0.178455 -0.0786848 0)
(-0.171112 -0.0949023 0)
(-0.162146 -0.10962 0)
(-0.151617 -0.122462 0)
(-0.139626 -0.13304 0)
(-0.126322 -0.140957 0)
(-0.111912 -0.145823 0)
(-0.096671 -0.14727 0)
(-0.0809424 -0.144972 0)
(-0.065146 -0.138667 0)
(-0.0497735 -0.128183 0)
(-0.035383 -0.113459 0)
(-0.0225714 -0.0945682 0)
(-0.0119455 -0.0717279 0)
(-0.00428426 -0.0453084 0)
(-0.000656753 -0.0158624 0)
(-0.000673493 0.0181012 0)
(-0.00430039 0.050726 0)
(-0.0118631 0.0792513 0)
(-0.0222506 0.103364 0)
(-0.034677 0.122927 0)
(-0.0485599 0.137942 0)
(-0.0633498 0.14852 0)
(-0.0785508 0.154864 0)
(-0.0937389 0.157245 0)
(-0.108561 0.155975 0)
(-0.122731 0.151392 0)
(-0.136022 0.143842 0)
(-0.14826 0.13367 0)
(-0.159311 0.121209 0)
(-0.16908 0.106775 0)
(-0.177494 0.0906697 0)
(-0.1845 0.0731758 0)
(-0.190057 0.0545629 0)
(-0.19413 0.0350901 0)
(-0.196687 0.0150117 0)
(-0.197698 -0.00541673 0)
(-0.197128 -0.0259327 0)
(-0.194947 -0.0462597 0)
(-0.191122 -0.0661019 0)
(-0.185629 -0.0851385 0)
(-0.178454 -0.10302 0)
(-0.169603 -0.119368 0)
(-0.159108 -0.133771 0)
(-0.147043 -0.145796 0)
(-0.133534 -0.154991 0)
(-0.118768 -0.1609 0)
(-0.103008 -0.16308 0)
(-0.0866016 -0.161127 0)
(-0.0699848 -0.154699 0)
(-0.0536841 -0.143546 0)
(-0.0383104 -0.127543 0)
(-0.0245294 -0.106714 0)
(-0.0130282 -0.0812524 0)
(-0.00469113 -0.0515291 0)
(-0.000724002 -0.0181304 0)
(-0.000727318 0.0203648 0)
(-0.00462082 0.0568441 0)
(-0.0127059 0.0885222 0)
(-0.0237573 0.115089 0)
(-0.0369025 0.13644 0)
(-0.0514955 0.152628 0)
(-0.0669358 0.163832 0)
(-0.0826914 0.17033 0)
(-0.0983176 0.172468 0)
(-0.113455 0.170635 0)
(-0.127822 0.165234 0)
(-0.141206 0.156673 0)
(-0.153453 0.145346 0)
(-0.164454 0.131625 0)
(-0.174138 0.115859 0)
(-0.182457 0.098369 0)
(-0.189381 0.0794527 0)
(-0.19489 0.0593873 0)
(-0.198963 0.0384345 0)
(-0.20158 0.0168479 0)
(-0.202714 -0.00512013 0)
(-0.202332 -0.0272104 0)
(-0.200395 -0.0491487 0)
(-0.196857 -0.0706382 0)
(-0.191674 -0.0913523 0)
(-0.184806 -0.110929 0)
(-0.176229 -0.128966 0)
(-0.165942 -0.145021 0)
(-0.153983 -0.158613 0)
(-0.140442 -0.169233 0)
(-0.12548 -0.17635 0)
(-0.109339 -0.179438 0)
(-0.0923608 -0.177997 0)
(-0.0749923 -0.171587 0)
(-0.0577927 -0.159864 0)
(-0.041428 -0.142617 0)
(-0.0266398 -0.119804 0)
(-0.0142079 -0.0915803 0)
(-0.00513943 -0.058311 0)
(-0.000799345 -0.0206164 0)
(-0.000786804 0.022799 0)
(-0.00496972 0.0633955 0)
(-0.0136132 0.0984023 0)
(-0.0253593 0.127514 0)
(-0.0392341 0.150667 0)
(-0.0545185 0.16798 0)
(-0.0705556 0.179716 0)
(-0.0867759 0.186246 0)
(-0.102717 0.188008 0)
(-0.118018 0.185479 0)
(-0.132409 0.179142 0)
(-0.1457 0.169472 0)
(-0.157765 0.156917 0)
(-0.168528 0.141892 0)
(-0.177948 0.124776 0)
(-0.186011 0.105912 0)
(-0.192715 0.0856078 0)
(-0.198061 0.0641437 0)
(-0.202052 0.0417797 0)
(-0.204678 0.0187626 0)
(-0.205922 -0.00466431 0)
(-0.20575 -0.0282518 0)
(-0.204116 -0.0517347 0)
(-0.200961 -0.0748223 0)
(-0.196219 -0.0971886 0)
(-0.189821 -0.118465 0)
(-0.181707 -0.138232 0)
(-0.171836 -0.156017 0)
(-0.1602 -0.171295 0)
(-0.146847 -0.183494 0)
(-0.131896 -0.192003 0)
(-0.115557 -0.196201 0)
(-0.0981535 -0.195476 0)
(-0.0801367 -0.18927 0)
(-0.0620931 -0.177118 0)
(-0.0447449 -0.1587 0)
(-0.0289175 -0.133884 0)
(-0.0154972 -0.102769 0)
(-0.00563548 -0.0657047 0)
(-0.000884216 -0.0233434 0)
(-0.000853598 0.0254205 0)
(-0.00535502 0.0704155 0)
(-0.0146021 0.108928 0)
(-0.0270798 0.14066 0)
(-0.0416941 0.165601 0)
(-0.0576407 0.183955 0)
(-0.0742003 0.19609 0)
(-0.0907661 0.202491 0)
(-0.106862 0.203709 0)
(-0.122133 0.200325 0)
(-0.136331 0.192915 0)
(-0.149299 0.182028 0)
(-0.160949 0.168172 0)
(-0.171244 0.151807 0)
(-0.180186 0.133341 0)
(-0.187798 0.113134 0)
(-0.194111 0.0915016 0)
(-0.199158 0.0687234 0)
(-0.202963 0.0450507 0)
(-0.205534 0.0207177 0)
(-0.206863 -0.00404863 0)
(-0.206918 -0.0290164 0)
(-0.205648 -0.0539372 0)
(-0.20298 -0.0785345 0)
(-0.198825 -0.102491 0)
(-0.193081 -0.12544 0)
(-0.185649 -0.14695 0)
(-0.176439 -0.166527 0)
(-0.165391 -0.183601 0)
(-0.152495 -0.197537 0)
(-0.137815 -0.207641 0)
(-0.121515 -0.213181 0)
(-0.103886 -0.213418 0)
(-0.0853693 -0.207651 0)
(-0.0665708 -0.195265 0)
(-0.0482685 -0.175797 0)
(-0.031379 -0.148998 0)
(-0.0169111 -0.114882 0)
(-0.00618719 -0.0737673 0)
(-0.000980448 -0.0263384 0)
(-0.00093002 0.0282507 0)
(-0.00578766 0.0779493 0)
(-0.0156956 0.120146 0)
(-0.0289495 0.154553 0)
(-0.0443107 0.18123 0)
(-0.0608756 0.200492 0)
(-0.0778567 0.212842 0)
(-0.0946107 0.218906 0)
(-0.110655 0.219373 0)
(-0.125652 0.214946 0)
(-0.139389 0.206306 0)
(-0.151751 0.194086 0)
(-0.162702 0.178858 0)
(-0.172256 0.161127 0)
(-0.180464 0.141328 0)
(-0.187394 0.119835 0)
(-0.193118 0.0969669 0)
(-0.197703 0.0729943 0)
(-0.201198 0.0481545 0)
(-0.203632 0.0226616 0)
(-0.205009 -0.00328082 0)
(-0.205303 -0.0294665 0)
(-0.204456 -0.0556724 0)
(-0.202384 -0.0816453 0)
(-0.198973 -0.107087 0)
(-0.194089 -0.131639 0)
(-0.187588 -0.154872 0)
(-0.179325 -0.176273 0)
(-0.169177 -0.195238 0)
(-0.157064 -0.211069 0)
(-0.14298 -0.222983 0)
(-0.127022 -0.23013 0)
(-0.109431 -0.231623 0)
(-0.0906196 -0.226589 0)
(-0.071201 -0.214229 0)
(-0.0520044 -0.193897 0)
(-0.0340435 -0.165183 0)
(-0.0184685 -0.127984 0)
(-0.00680477 -0.0825643 0)
(-0.00109047 -0.0296331 0)
(-0.00101937 0.0313178 0)
(-0.00628285 0.0860551 0)
(-0.0169252 0.132113 0)
(-0.0310093 0.169219 0)
(-0.0471204 0.19753 0)
(-0.0642386 0.217507 0)
(-0.0815028 0.229825 0)
(-0.0982384 0.235287 0)
(-0.113968 0.234748 0)
(-0.128385 0.229056 0)
(-0.141329 0.219011 0)
(-0.152745 0.205337 0)
(-0.162659 0.188673 0)
(-0.17115 0.169566 0)
(-0.178326 0.148476 0)
(-0.184309 0.125786 0)
(-0.189215 0.101808 0)
(-0.193147 0.0768009 0)
(-0.196188 0.0509787 0)
(-0.198387 0.0245282 0)
(-0.199763 -0.00237869 0)
(-0.200297 -0.0295694 0)
(-0.19993 -0.0568557 0)
(-0.198564 -0.0840173 0)
(-0.196064 -0.110785 0)
(-0.192263 -0.136823 0)
(-0.186969 -0.161713 0)
(-0.179977 -0.184936 0)
(-0.171092 -0.205859 0)
(-0.160152 -0.223732 0)
(-0.14706 -0.237681 0)
(-0.131827 -0.246729 0)
(-0.114616 -0.249822 0)
(-0.0957878 -0.245885 0)
(-0.0759445 -0.233891 0)
(-0.0559551 -0.212961 0)
(-0.0369343 -0.18247 0)
(-0.0201938 -0.142148 0)
(-0.00750182 -0.0921713 0)
(-0.00121758 -0.0332653 0)
(-0.00112641 0.0346593 0)
(-0.00686191 0.094809 0)
(-0.0183338 0.144901 0)
(-0.0333128 0.184688 0)
(-0.0501675 0.214463 0)
(-0.0677427 0.234881 0)
(-0.0851013 0.246841 0)
(-0.101547 0.251368 0)
(-0.116624 0.249517 0)
(-0.130083 0.242304 0)
(-0.14183 0.230661 0)
(-0.151892 0.215412 0)
(-0.160374 0.197259 0)
(-0.167431 0.176791 0)
(-0.173237 0.154484 0)
(-0.177971 0.130721 0)
(-0.181801 0.105803 0)
(-0.184871 0.0799653 0)
(-0.187293 0.0533927 0)
(-0.189143 0.0262363 0)
(-0.190457 -0.00137141 0)
(-0.191222 -0.0293001 0)
(-0.191383 -0.0574053 0)
(-0.190832 -0.0855099 0)
(-0.189414 -0.113386 0)
(-0.18693 -0.140732 0)
(-0.183141 -0.167156 0)
(-0.177781 -0.192147 0)
(-0.170573 -0.21506 0)
(-0.161259 -0.235099 0)
(-0.149635 -0.251306 0)
(-0.135599 -0.262573 0)
(-0.119207 -0.267662 0)
(-0.100734 -0.265263 0)
(-0.0807412 -0.254073 0)
(-0.0601184 -0.232915 0)
(-0.0400799 -0.200875 0)
(-0.0221191 -0.157451 0)
(-0.00829698 -0.102677 0)
(-0.00136643 -0.0372813 0)
(-0.00125808 0.0383261 0)
(-0.00755483 0.104311 0)
(-0.0199795 0.158599 0)
(-0.0359292 0.200989 0)
(-0.0535037 0.231964 0)
(-0.0713928 0.252447 0)
(-0.0885863 0.263627 0)
(-0.104385 0.266806 0)
(-0.118383 0.263279 0)
(-0.130411 0.254256 0)
(-0.140477 0.240815 0)
(-0.148707 0.223876 0)
(-0.155303 0.204207 0)
(-0.160506 0.182424 0)
(-0.164566 0.159013 0)
(-0.167724 0.134347 0)
(-0.1702 0.108705 0)
(-0.172177 0.0822902 0)
(-0.173803 0.0552494 0)
(-0.175177 0.0276907 0)
(-0.176353 -0.000300228 0)
(-0.177331 -0.0286432 0)
(-0.178057 -0.0572459 0)
(-0.17842 -0.0859848 0)
(-0.178252 -0.114684 0)
(-0.177323 -0.143093 0)
(-0.175352 -0.170859 0)
(-0.17201 -0.197501 0)
(-0.166937 -0.222377 0)
(-0.159769 -0.244665 0)
(-0.150175 -0.263337 0)
(-0.137912 -0.277155 0)
(-0.122891 -0.284686 0)
(-0.105262 -0.284353 0)
(-0.0854993 -0.274519 0)
(-0.0644833 -0.253631 0)
(-0.0435147 -0.220394 0)
(-0.0242878 -0.173974 0)
(-0.0092164 -0.11419 0)
(-0.00154374 -0.0417394 0)
(-0.00142475 0.0423882 0)
(-0.00840436 0.114696 0)
(-0.0219412 0.173319 0)
(-0.0389458 0.218144 0)
(-0.0571836 0.249931 0)
(-0.0751721 0.26997 0)
(-0.0918421 0.27983 0)
(-0.106523 0.281158 0)
(-0.118899 0.275536 0)
(-0.128923 0.26439 0)
(-0.136731 0.248949 0)
(-0.142577 0.230231 0)
(-0.146777 0.209052 0)
(-0.149667 0.186048 0)
(-0.151577 0.161697 0)
(-0.152813 0.136351 0)
(-0.153643 0.110253 0)
(-0.154293 0.083566 0)
(-0.154937 0.0563908 0)
(-0.1557 0.0287853 0)
(-0.156655 0.000781824 0)
(-0.157813 -0.0275958 0)
(-0.159128 -0.0563147 0)
(-0.160491 -0.0853135 0)
(-0.161724 -0.114481 0)
(-0.162579 -0.143629 0)
(-0.162738 -0.172465 0)
(-0.161815 -0.200557 0)
(-0.15937 -0.227295 0)
(-0.154925 -0.251854 0)
(-0.148008 -0.273157 0)
(-0.138205 -0.289852 0)
(-0.125243 -0.300309 0)
(-0.109091 -0.302655 0)
(-0.0900783 -0.294864 0)
(-0.0690219 -0.274909 0)
(-0.0472799 -0.240988 0)
(-0.0267588 -0.191802 0)
(-0.0102976 -0.126839 0)
(-0.00175955 -0.0467145 0)
(-0.00164227 0.0469429 0)
(-0.00947216 0.12614 0)
(-0.0243255 0.189197 0)
(-0.0424688 0.236156 0)
(-0.0612537 0.268195 0)
(-0.0790178 0.287111 0)
(-0.0946665 0.294972 0)
(-0.107612 0.293853 0)
(-0.117683 0.285668 0)
(-0.125005 0.272077 0)
(-0.129885 0.25446 0)
(-0.132726 0.233914 0)
(-0.133973 0.211289 0)
(-0.134065 0.187218 0)
(-0.133412 0.162154 0)
(-0.132379 0.13641 0)
(-0.131279 0.110182 0)
(-0.130369 0.0835812 0)
(-0.129852 0.0566559 0)
(-0.129872 0.0294078 0)
(-0.130515 0.0018117 0)
(-0.13181 -0.0261692 0)
(-0.13372 -0.0545663 0)
(-0.136143 -0.083387 0)
(-0.138903 -0.112593 0)
(-0.141744 -0.142075 0)
(-0.144326 -0.171618 0)
(-0.146217 -0.200862 0)
(-0.146903 -0.22926 0)
(-0.1458 -0.256019 0)
(-0.142284 -0.280048 0)
(-0.135747 -0.29991 0)
(-0.125684 -0.313793 0)
(-0.111819 -0.319515 0)
(-0.0942587 -0.3146 0)
(-0.0736735 -0.296439 0)
(-0.0514207 -0.262567 0)
(-0.0296122 -0.211024 0)
(-0.0115955 -0.140791 0)
(-0.00202935 -0.0523067 0)
(-0.00193572 0.0521288 0)
(-0.0108488 0.138881 0)
(-0.0272755 0.206389 0)
(-0.0466199 0.254987 0)
(-0.065729 0.286482 0)
(-0.0827773 0.303385 0)
(-0.0967115 0.308412 0)
(-0.10711 0.304159 0)
(-0.114027 0.292914 0)
(-0.11782 0.276578 0)
(-0.119006 0.256658 0)
(-0.118166 0.23431 0)
(-0.11588 0.210383 0)
(-0.112689 0.18548 0)
(-0.109074 0.160006 0)
(-0.10545 0.134214 0)
(-0.102162 0.108241 0)
(-0.0994913 0.082138 0)
(-0.0976546 0.0558925 0)
(-0.0968093 0.029448 0)
(-0.0970551 0.00271986 0)
(-0.0984325 -0.0243903 0)
(-0.100921 -0.0519796 0)
(-0.104432 -0.0801274 0)
(-0.108804 -0.108875 0)
(-0.113787 -0.138201 0)
(-0.119035 -0.167986 0)
(-0.124096 -0.197971 0)
(-0.128401 -0.227701 0)
(-0.131271 -0.256461 0)
(-0.131935 -0.283197 0)
(-0.129576 -0.306437 0)
(-0.123417 -0.324223 0)
(-0.112863 -0.334073 0)
(-0.0976931 -0.333019 0)
(-0.0783145 -0.317755 0)
(-0.0559777 -0.284948 0)
(-0.0329564 -0.231716 0)
(-0.0131923 -0.156253 0)
(-0.00237797 -0.0586533 0)
(-0.00234624 0.0581463 0)
(-0.0126694 0.153236 0)
(-0.0309805 0.225065 0)
(-0.0515203 0.27451 0)
(-0.0705446 0.304349 0)
(-0.0861303 0.318089 0)
(-0.0973875 0.319284 0)