/*--------------------------------*- C++ -*----------------------------------*\
  =========                 |
  \\      /  F ield         | OpenFOAM: The Open Source CFD Toolbox
   \\    /   O peration     | Website:  https://openfoam.org
    \\  /    A nd           | Version:  7
     \\/     M anipulation  |
\*---------------------------------------------------------------------------*/
FoamFile
{
    version     2.0;
    format      ascii;
    class       volSymmTensorField;
    location    "1200";
    object      devReff;
}
// * * * * * * * * * * * * * * * * * * * * * * * * * * * * * * * * * * * * * //

dimensions      [0 2 -2 0 0 0 0];

internalField   nonuniform List<symmTensor> 
180
(
(-2.37638e-21 -0.0444586 -0 4.75276e-21 -0 -2.37638e-21)
(2.19469e-21 -0.0429327 -0 -4.38937e-21 -0 2.19469e-21)
(4.0739e-21 -0.0137333 -0 -8.14779e-21 -0 4.0739e-21)
(5.96172e-21 -0.013728 -0 -1.19234e-20 -0 5.96172e-21)
(3.17897e-22 -0.013935 -0 -6.35793e-22 -0 3.17897e-22)
(1.15727e-20 -0.013895 -0 -2.31454e-20 -0 1.15727e-20)
(-1.52999e-19 -0.0136965 -0 7.41592e-20 -0 7.88395e-20)
(1.54281e-19 -0.0136457 -0 -7.72489e-20 -0 -7.70321e-20)
(1.20235e-21 -0.0133794 -0 -2.4047e-21 -0 1.20235e-21)
(-5.22416e-21 -0.013332 -0 1.04483e-20 -0 -5.22416e-21)
(-1.2272e-21 -0.0130771 -0 2.45441e-21 -0 -1.2272e-21)
(-1.84522e-21 -0.0130342 -0 3.69044e-21 -0 -1.84522e-21)
(7.22579e-21 -0.0127886 -0 -1.44516e-20 -0 7.22579e-21)
(-3.96219e-21 -0.0127498 -0 7.92438e-21 -0 -3.96219e-21)
(1.13151e-20 -0.0125078 -0 -2.26301e-20 -0 1.13151e-20)
(-3.98359e-21 -0.0124724 -0 7.96717e-21 -0 -3.98359e-21)
(-1.76601e-20 -0.0122305 -0 3.53201e-20 -0 -1.76601e-20)
(4.32891e-21 -0.0121979 -0 -8.65782e-21 -0 4.32891e-21)
(-4.59929e-20 -0.0119546 -0 9.19858e-20 -0 -4.59929e-20)
(9.37082e-21 -0.0119243 -0 -1.87416e-20 -0 9.37082e-21)
(-2.37463e-20 -0.011679 -0 4.74927e-20 -0 -2.37463e-20)
(3.08956e-21 -0.0116503 -0 -6.17911e-21 -0 3.08956e-21)
(-4.61615e-21 -0.011403 -0 9.23231e-21 -0 -4.61615e-21)
(-9.50511e-21 -0.0113756 -0 1.90102e-20 -0 -9.50511e-21)
(2.75498e-20 -0.0111265 -0 -5.50996e-20 -0 2.75498e-20)
(-1.52048e-20 -0.0111 -0 3.04095e-20 -0 -1.52048e-20)
(1.37799e-20 -0.0108497 -0 -2.75599e-20 -0 1.37799e-20)
(-2.39569e-20 -0.0108237 -0 4.79138e-20 -0 -2.39569e-20)
(6.46401e-19 -0.0105728 -0 -2.01684e-19 -0 -4.44716e-19)
(-7.69424e-19 -0.010547 -0 4.48767e-19 -0 3.20657e-19)
(-5.6981e-20 -0.0102961 -0 1.13962e-19 -0 -5.6981e-20)
(-4.57149e-20 -0.0102701 -0 9.14298e-20 -0 -4.57149e-20)
(1.92924e-21 -0.01002 -0 -3.85848e-21 -0 1.92924e-21)
(-3.2052e-20 -0.00999352 -0 6.4104e-20 -0 -3.2052e-20)
(1.05206e-19 -0.00974482 -0 -2.10412e-19 -0 1.05206e-19)
(-1.96844e-20 -0.00971765 -0 3.93687e-20 -0 -1.96844e-20)
(1.10619e-19 -0.00947094 -0 -2.21239e-19 -0 1.10619e-19)
(-1.07615e-20 -0.0094429 -0 2.1523e-20 -0 -1.07615e-20)
(-1.19589e-19 -0.00919875 -0 2.39178e-19 -0 -1.19589e-19)
(-3.43541e-21 -0.00916967 -0 6.87082e-21 -0 -3.43541e-21)
(-1.10669e-19 -0.00892861 -0 2.21338e-19 -0 -1.10669e-19)
(3.73448e-21 -0.00889836 -0 -7.46896e-21 -0 3.73448e-21)
(1.08168e-20 -0.00866083 -0 -2.16337e-20 -0 1.08168e-20)
(1.02537e-20 -0.00862933 -0 -2.05073e-20 -0 1.02537e-20)
(2.22398e-20 -0.00839571 -0 -4.44797e-20 -0 2.22398e-20)
(1.53684e-20 -0.00836293 -0 -3.07368e-20 -0 1.53684e-20)
(6.80325e-20 -0.00813354 -0 -1.36065e-19 -0 6.80325e-20)
(2.01437e-20 -0.00809944 -0 -4.02874e-20 -0 2.01437e-20)
(8.31587e-20 -0.00787456 -0 -1.66317e-19 -0 8.31587e-20)
(2.43247e-20 -0.00783916 -0 -4.86494e-20 -0 2.43247e-20)
(6.80288e-20 -0.00761897 -0 -1.36058e-19 -0 6.80288e-20)
(3.06298e-20 -0.00758232 -0 -6.12596e-20 -0 3.06298e-20)
(5.68219e-20 -0.00736696 -0 -1.13644e-19 -0 5.68219e-20)
(2.79311e-22 -0.00732914 -0 -5.58621e-22 -0 2.79311e-22)
(4.68904e-20 -0.00711869 -0 -9.37808e-20 -0 4.68904e-20)
(-7.20401e-20 -0.00707979 -0 1.4408e-19 -0 -7.20401e-20)
(3.83751e-20 -0.00687429 -0 -7.67501e-20 -0 3.83751e-20)
(-1.05956e-19 -0.00683444 -0 2.11912e-19 -0 -1.05956e-19)
(3.16481e-20 -0.00663387 -0 -6.32963e-20 -0 3.16481e-20)
(-1.04873e-19 -0.00659319 -0 2.09746e-19 -0 -1.04873e-19)
(2.6413e-20 -0.00639752 -0 -5.2826e-20 -0 2.6413e-20)
(-6.24268e-20 -0.00635615 -0 1.24854e-19 -0 -6.24268e-20)
(2.27443e-20 -0.0061653 -0 -4.54886e-20 -0 2.27443e-20)
(2.91147e-20 -0.00612341 -0 -5.82295e-20 -0 2.91147e-20)
(1.96473e-20 -0.00593727 -0 -3.92946e-20 -0 1.96473e-20)
(7.32979e-20 -0.00589502 -0 -1.46596e-19 -0 7.32979e-20)
(1.7259e-20 -0.00571347 -0 -3.4518e-20 -0 1.7259e-20)
(7.17058e-20 -0.005671 -0 -1.43412e-19 -0 7.17058e-20)
(1.53342e-20 -0.00549391 -0 -3.06684e-20 -0 1.53342e-20)
(7.3996e-20 -0.0054514 -0 -1.47992e-19 -0 7.3996e-20)
(1.31005e-20 -0.0052786 -0 -2.62009e-20 -0 1.31005e-20)
(7.78107e-20 -0.00523622 -0 -1.55621e-19 -0 7.78107e-20)
(1.14186e-20 -0.00506756 -0 -2.28372e-20 -0 1.14186e-20)
(8.30238e-20 -0.00502544 -0 -1.66048e-19 -0 8.30238e-20)
(9.5831e-21 -0.00486077 -0 -1.91662e-20 -0 9.5831e-21)
(8.95817e-20 -0.00481906 -0 -1.79163e-19 -0 8.95817e-20)
(7.53917e-21 -0.00465821 -0 -1.50783e-20 -0 7.53917e-21)
(9.61291e-20 -0.00461706 -0 -1.92258e-19 -0 9.61291e-20)
(5.8576e-21 -0.00445986 -0 -1.17152e-20 -0 5.8576e-21)
(9.99992e-20 -0.00441939 -0 -1.99998e-19 -0 9.99992e-20)
(3.51491e-21 -0.0042657 -0 -7.02983e-21 -0 3.51491e-21)
(9.76504e-20 -0.00422602 -0 -1.95301e-19 -0 9.76504e-20)
(1.10323e-21 -0.00407569 -0 -2.20647e-21 -0 1.10323e-21)
(8.67727e-20 -0.00403691 -0 -1.73545e-19 -0 8.67727e-20)
(-7.73617e-22 -0.00388979 -0 1.54723e-21 -0 -7.73617e-22)
(-1.57727e-20 -0.003852 -0 3.15455e-20 -0 -1.57727e-20)
(-2.92756e-21 -0.00370797 -0 5.85511e-21 -0 -2.92756e-21)
(-1.99799e-19 -0.00367125 -0 3.99597e-19 -0 -1.99799e-19)
(-4.47448e-21 -0.00353019 -0 8.94896e-21 -0 -4.47448e-21)
(-3.02966e-19 -0.0034946 -0 6.05932e-19 -0 -3.02966e-19)
(-5.17526e-21 -0.00335638 -0 1.03505e-20 -0 -5.17526e-21)
(-2.59583e-19 -0.00332198 -0 5.19166e-19 -0 -2.59583e-19)
(-5.59381e-21 -0.00318652 -0 1.11876e-20 -0 -5.59381e-21)
(-1.4094e-19 -0.00315334 -0 2.81879e-19 -0 -1.4094e-19)
(-5.26418e-21 -0.00302054 -0 1.05284e-20 -0 -5.26418e-21)
(-2.34011e-20 -0.00298862 -0 4.68023e-20 -0 -2.34011e-20)
(-4.30443e-21 -0.00285839 -0 8.60886e-21 -0 -4.30443e-21)
(1.01306e-19 -0.00282775 -0 -2.02612e-19 -0 1.01306e-19)
(-3.16047e-21 -0.00270002 -0 6.32095e-21 -0 -3.16047e-21)
(1.47638e-19 -0.00267066 -0 -2.95275e-19 -0 1.47638e-19)
(-2.19546e-21 -0.00254536 -0 4.39093e-21 -0 -2.19546e-21)
(1.10291e-19 -0.00251729 -0 -2.20583e-19 -0 1.10291e-19)
(-9.98197e-22 -0.00239437 -0 1.99639e-21 -0 -9.98197e-22)
(7.19658e-20 -0.00236757 -0 -1.43932e-19 -0 7.19658e-20)
(5.51855e-22 -0.00224698 -0 -1.10371e-21 -0 5.51855e-22)
(1.61449e-20 -0.00222144 -0 -3.22897e-20 -0 1.61449e-20)
(2.02569e-21 -0.00210313 -0 -4.05139e-21 -0 2.02569e-21)
(-3.30869e-20 -0.00207882 -0 6.61737e-20 -0 -3.30869e-20)
(3.30727e-21 -0.00196275 -0 -6.61453e-21 -0 3.30727e-21)
(-5.50171e-20 -0.00193964 -0 1.10034e-19 -0 -5.50171e-20)
(4.28633e-21 -0.00182578 -0 -8.57266e-21 -0 4.28633e-21)
(-6.11741e-20 -0.00180384 -0 1.22348e-19 -0 -6.11741e-20)
(4.98226e-21 -0.00169215 -0 -9.96452e-21 -0 4.98226e-21)
(-5.89768e-20 -0.00167133 -0 1.17954e-19 -0 -5.89768e-20)
(5.46165e-21 -0.00156179 -0 -1.09233e-20 -0 5.46165e-21)
(-5.25713e-20 -0.00154205 -0 1.05143e-19 -0 -5.25713e-20)
(5.56267e-21 -0.00143463 -0 -1.11253e-20 -0 5.56267e-21)
(-4.47854e-20 -0.00141592 -0 8.95709e-20 -0 -4.47854e-20)
(5.27013e-21 -0.0013106 -0 -1.05403e-20 -0 5.27013e-21)
(-3.69144e-20 -0.00129287 -0 7.38288e-20 -0 -3.69144e-20)
(4.60828e-21 -0.00118962 -0 -9.21655e-21 -0 4.60828e-21)
(-2.96097e-20 -0.00117283 -0 5.92194e-20 -0 -2.96097e-20)
(3.61712e-21 -0.00107161 -0 -7.23423e-21 -0 3.61712e-21)
(-2.32643e-20 -0.0010557 -0 4.65287e-20 -0 -2.32643e-20)
(2.34634e-21 -0.000956504 -0 -4.69268e-21 -0 2.34634e-21)
(-1.77118e-20 -0.000941424 -0 3.54236e-20 -0 -1.77118e-20)
(7.37658e-22 -0.000844215 -0 -1.47532e-21 -0 7.37658e-22)
(-1.27874e-20 -0.000829911 -0 2.55749e-20 -0 -1.27874e-20)
(-1.0687e-21 -0.000734662 -0 2.1374e-21 -0 -1.0687e-21)
(-8.40675e-21 -0.000721083 -0 1.68135e-20 -0 -8.40675e-21)
(-2.94273e-21 -0.000627763 -0 5.88545e-21 -0 -2.94273e-21)
(-4.40399e-21 -0.000614859 -0 8.80799e-21 -0 -4.40399e-21)
(-4.96049e-21 -0.000523434 -0 9.92098e-21 -0 -4.96049e-21)
(-7.29835e-22 -0.000511155 -0 1.45967e-21 -0 -7.29835e-22)
(-7.09672e-21 -0.00042159 -0 1.41934e-20 -0 -7.09672e-21)
(2.66434e-21 -0.000409887 -0 -5.32868e-21 -0 2.66434e-21)
(-9.23435e-21 -0.000322144 -0 1.84687e-20 -0 -9.23435e-21)
(5.88785e-21 -0.000310971 -0 -1.17757e-20 -0 5.88785e-21)
(-1.136e-20 -0.000225009 -0 2.27201e-20 -0 -1.136e-20)
(8.91036e-21 -0.000214321 -0 -1.78207e-20 -0 8.91036e-21)
(-1.34637e-20 -0.000130097 -0 2.69274e-20 -0 -1.34637e-20)
(1.17242e-20 -0.000119851 -0 -2.34484e-20 -0 1.17242e-20)
(-1.55104e-20 -3.73181e-05 -0 3.10207e-20 -0 -1.55104e-20)
(1.4325e-20 -2.74734e-05 -0 -2.86499e-20 -0 1.4325e-20)
(-1.74577e-20 5.34169e-05 -0 3.49154e-20 -0 -1.74577e-20)
(1.67024e-20 6.28988e-05 -0 -3.34048e-20 -0 1.67024e-20)
(-1.9313e-20 0.000142198 -0 3.86261e-20 -0 -1.9313e-20)
(1.88501e-20 0.000151353 -0 -3.77001e-20 -0 1.88501e-20)
(-2.10587e-20 0.000229114 -0 4.21174e-20 -0 -2.10587e-20)
(2.07686e-20 0.000237978 -0 -4.15372e-20 -0 2.07686e-20)
(-2.26488e-20 0.000314256 -0 4.52975e-20 -0 -2.26488e-20)
(2.24965e-20 0.00032286 -0 -4.49929e-20 -0 2.24965e-20)
(-2.4124e-20 0.000397714 -0 4.82479e-20 -0 -2.4124e-20)
(2.40161e-20 0.000406088 -0 -4.80322e-20 -0 2.40161e-20)
(-2.5475e-20 0.000479578 -0 5.095e-20 -0 -2.5475e-20)
(2.53065e-20 0.00048775 -0 -5.0613e-20 -0 2.53065e-20)
(-2.67044e-20 0.00055994 -0 5.34088e-20 -0 -2.67044e-20)
(2.64451e-20 0.000567936 -0 -5.28902e-20 -0 2.64451e-20)
(-2.77534e-20 0.000638898 -0 5.55068e-20 -0 -2.77534e-20)
(2.741e-20 0.000646742 -0 -5.48199e-20 -0 2.741e-20)
(-2.86288e-20 0.000716556 -0 5.72577e-20 -0 -2.86288e-20)
(2.82362e-20 0.000724272 -0 -5.64724e-20 -0 2.82362e-20)
(-2.9468e-20 0.000793039 -0 5.8936e-20 -0 -2.9468e-20)
(2.89503e-20 0.000800647 -0 -5.79006e-20 -0 2.89503e-20)
(-3.01499e-20 0.000868499 -0 6.02998e-20 -0 -3.01499e-20)
(2.94462e-20 0.000876019 -0 -5.88924e-20 -0 2.94462e-20)
(-3.07722e-20 0.00094314 -0 6.15444e-20 -0 -3.07722e-20)
(2.98779e-20 0.000950592 -0 -5.97559e-20 -0 2.98779e-20)
(-3.1293e-20 0.00101724 -0 6.2586e-20 -0 -3.1293e-20)
(3.034e-20 0.00102464 -0 -6.06799e-20 -0 3.034e-20)
(-3.17258e-20 0.00109118 -0 6.34517e-20 -0 -3.17258e-20)
(3.06239e-20 0.00109855 -0 -6.12478e-20 -0 3.06239e-20)
(-3.22292e-20 0.00116545 -0 6.44585e-20 -0 -3.22292e-20)
(3.08947e-20 0.00117281 -0 -6.17894e-20 -0 3.08947e-20)
(-3.25639e-20 0.00124067 -0 6.51277e-20 -0 -3.25639e-20)
(3.12728e-20 0.00124803 -0 -6.25456e-20 -0 3.12728e-20)
(-3.24305e-20 0.00131769 -0 6.48611e-20 -0 -3.24305e-20)
(3.11689e-20 0.00132508 -0 -6.23378e-20 -0 3.11689e-20)
(-3.27159e-20 0.000678432 -0 6.54319e-20 -0 -3.27159e-20)
(3.13075e-20 0.000682132 -0 -6.2615e-20 -0 3.13075e-20)
)
;

boundaryField
{
    inlet
    {
        type            cyclic;
    }
    outlet
    {
        type            cyclic;
    }
    bottom
    {
        type            symmetry;
    }
    top
    {
        type            calculated;
        value           nonuniform List<symmTensor> 2((-1.86212e-21 -0.0143079 -0 3.72424e-21 -0 -1.86212e-21) (9.14199e-22 -0.0142504 -0 -1.8284e-21 -0 9.14199e-22));
    }
    frontAndBack
    {
        type            empty;
    }
}


// ************************************************************************* //
