/*--------------------------------*- C++ -*----------------------------------*\
  =========                 |
  \\      /  F ield         | OpenFOAM: The Open Source CFD Toolbox
   \\    /   O peration     | Website:  https://openfoam.org
    \\  /    A nd           | Version:  7
     \\/     M anipulation  |
\*---------------------------------------------------------------------------*/
FoamFile
{
    version     2.0;
    format      ascii;
    class       volScalarField;
    location    "1200";
    object      k;
}
// * * * * * * * * * * * * * * * * * * * * * * * * * * * * * * * * * * * * * //

dimensions      [0 2 -2 0 0 0 0];

internalField   nonuniform List<scalar> 
180
(
0.116791
0.111898
0.055824
0.0545118
0.046586
0.0460572
0.0439975
0.0436872
0.042705
0.0424822
0.0417939
0.0416159
0.0410455
0.0408942
0.040397
0.0402629
0.0398293
0.0397069
0.0393372
0.0392231
0.0389199
0.0388116
0.038577
0.0384729
0.0383079
0.0382067
0.0381109
0.0380119
0.0379833
0.037886
0.0379219
0.0378259
0.0379225
0.0378277
0.0379808
0.0378871
0.0380922
0.0379997
0.038252
0.0381607
0.0384555
0.0383656
0.0386984
0.03861
0.0389763
0.0388895
0.0392853
0.0392004
0.0396216
0.0395387
0.039982
0.0399012
0.0403632
0.0402846
0.0407623
0.0406862
0.041177
0.0411033
0.0416047
0.0415335
0.0420433
0.0419749
0.0424911
0.0424253
0.0429462
0.0428831
0.0434071
0.0433467
0.0438724
0.0438147
0.0443408
0.0442859
0.0448112
0.044759
0.0452825
0.0452329
0.0457537
0.0457068
0.0462241
0.0461798
0.0466929
0.046651
0.0471592
0.0471198
0.0476224
0.0475854
0.048082
0.0480472
0.0485374
0.0485048
0.0489879
0.0489575
0.0494333
0.0494048
0.0498729
0.0498464
0.0503065
0.0502818
0.0507335
0.0507106
0.0511536
0.0511324
0.0515666
0.0515469
0.051972
0.0519537
0.0523695
0.0523527
0.0527589
0.0527433
0.0531399
0.0531255
0.0535122
0.053499
0.0538755
0.0538634
0.0542298
0.0542186
0.0545746
0.0545644
0.0549099
0.0549005
0.0552353
0.0552267
0.0555508
0.0555429
0.0558561
0.0558488
0.056151
0.0561444
0.0564355
0.0564294
0.0567092
0.0567037
0.0569722
0.0569671
0.0572242
0.0572195
0.057465
0.0574607
0.0576947
0.0576907
0.057913
0.0579093
0.0581198
0.0581164
0.058315
0.0583118
0.0584985
0.0584956
0.0586703
0.0586675
0.0588301
0.0588275
0.058978
0.0589756
0.0591138
0.0591115
0.0592375
0.0592354
0.059349
0.059347
0.0594483
0.0594463
0.0595352
0.0595333
0.0596097
0.0596079
0.0596718
0.05967
0.0597214
0.0597196
0.0597583
0.0597566
0.0597825
0.0597808
0.0597938
0.0597921
0.059792
0.0597903
)
;

boundaryField
{
    inlet
    {
        type            cyclic;
    }
    outlet
    {
        type            cyclic;
    }
    bottom
    {
        type            symmetry;
    }
    top
    {
        type            kqRWallFunction;
        value           nonuniform List<scalar> 2(0.116791 0.111898);
    }
    frontAndBack
    {
        type            empty;
    }
}


// ************************************************************************* //
