/*--------------------------------*- C++ -*----------------------------------*\
  =========                 |
  \\      /  F ield         | OpenFOAM: The Open Source CFD Toolbox
   \\    /   O peration     | Website:  https://openfoam.org
    \\  /    A nd           | Version:  7
     \\/     M anipulation  |
\*---------------------------------------------------------------------------*/
FoamFile
{
    version     2.0;
    format      ascii;
    class       volScalarField;
    location    "1200";
    object      nut;
}
// * * * * * * * * * * * * * * * * * * * * * * * * * * * * * * * * * * * * * //

dimensions      [0 2 -1 0 0 0 0];

internalField   nonuniform List<scalar> 
180
(
4.38668e-05
4.20756e-05
6.38653e-05
6.29763e-05
9.80858e-05
9.7631e-05
0.000138495
0.000138159
0.000181089
0.000180788
0.00022486
0.000224558
0.00026965
0.000269326
0.000315592
0.000315235
0.000362919
0.000362521
0.000411892
0.000411446
0.000462756
0.000462262
0.000515731
0.000515188
0.000570995
0.000570405
0.00062868
0.00062805
0.000688873
0.00068821
0.000751614
0.000750926
0.000816896
0.000816195
0.000884671
0.000883971
0.000954857
0.000954168
0.00102733
0.00102667
0.00110196
0.00110134
0.00117857
0.001178
0.00125699
0.00125648
0.00133701
0.00133657
0.00141844
0.00141808
0.00150108
0.0015008
0.00158471
0.00158452
0.00166914
0.00166903
0.00175416
0.00175415
0.00183958
0.00183966
0.00192523
0.00192539
0.00201091
0.00201116
0.00209647
0.00209679
0.00218175
0.00218214
0.00226659
0.00226705
0.00235087
0.00235138
0.00243445
0.00243501
0.00251723
0.00251782
0.00259908
0.00259971
0.00267992
0.00268056
0.00275965
0.00276031
0.00283819
0.00283886
0.00291546
0.00291614
0.00299142
0.00299208
0.00306598
0.00306664
0.00313911
0.00313975
0.00321075
0.00321137
0.00328087
0.00328147
0.00334942
0.00335
0.00341639
0.00341694
0.00348174
0.00348226
0.00354545
0.00354594
0.00360749
0.00360796
0.00366787
0.0036683
0.00372656
0.00372697
0.00378355
0.00378393
0.00383884
0.00383919
0.00389242
0.00389275
0.0039443
0.0039446
0.00399445
0.00399474
0.0040429
0.00404316
0.00408964
0.00408988
0.00413467
0.00413489
0.00417799
0.0041782
0.00421962
0.00421981
0.00425955
0.00425973
0.00429779
0.00429797
0.00433436
0.00433452
0.00436924
0.0043694
0.00440246
0.00440261
0.00443402
0.00443417
0.00446393
0.00446407
0.00449219
0.00449233
0.00451881
0.00451895
0.0045438
0.00454394
0.00456717
0.00456731
0.00458893
0.00458906
0.00460907
0.0046092
0.00462761
0.00462774
0.00464455
0.00464468
0.0046599
0.00466003
0.00467366
0.00467379
0.00468584
0.00468598
0.00469644
0.00469658
0.00470547
0.00470561
0.00471293
0.00471307
0.00471882
0.00471896
0.00472315
0.00472329
0.0047259
0.00472604
0.00472708
0.00472722
)
;

boundaryField
{
    inlet
    {
        type            cyclic;
    }
    outlet
    {
        type            cyclic;
    }
    bottom
    {
        type            symmetry;
    }
    top
    {
        type            nutkWallFunction;
        Cmu             0.09;
        kappa           0.41;
        E               9.8;
        value           uniform 0;
    }
    frontAndBack
    {
        type            empty;
    }
}


// ************************************************************************* //
