/*--------------------------------*- C++ -*----------------------------------*\
  =========                 |
  \\      /  F ield         | OpenFOAM: The Open Source CFD Toolbox
   \\    /   O peration     | Website:  https://openfoam.org
    \\  /    A nd           | Version:  7
     \\/     M anipulation  |
\*---------------------------------------------------------------------------*/
FoamFile
{
    version     2.0;
    format      ascii;
    class       volScalarField;
    location    "1200";
    object      omega;
}
// * * * * * * * * * * * * * * * * * * * * * * * * * * * * * * * * * * * * * //

dimensions      [0 0 -1 0 0 0 0];

internalField   nonuniform List<scalar> 
180
(
2592
2592
874.089
865.593
474.952
471.748
317.682
316.21
235.824
234.984
185.867
185.324
152.218
151.839
128.004
127.724
109.747
109.53
95.5038
95.3298
84.1045
83.9602
74.8007
74.6774
67.0898
66.9818
60.6205
60.5237
55.1383
55.0501
50.4539
50.3723
46.4227
46.3463
42.9321
42.8602
39.8931
39.8249
37.2342
37.1693
34.8973
34.8355
32.8349
32.7759
31.0077
30.9513
29.3829
29.3291
27.9332
27.8819
26.6355
26.5866
25.4704
25.4239
24.4212
24.3771
23.4739
23.432
22.6163
22.5767
21.8381
21.8007
21.1303
21.095
20.485
20.4518
19.8956
19.8643
19.3561
19.3268
18.8614
18.834
18.4071
18.3814
17.989
17.9651
17.6038
17.5815
17.2484
17.2276
16.9199
16.9007
16.616
16.5982
16.3344
16.318
16.0733
16.0581
15.8309
15.8169
15.6057
15.5928
15.3962
15.3843
15.2011
15.1903
15.0194
15.0095
14.85
14.8409
14.692
14.6837
14.5445
14.5369
14.4067
14.3998
14.2779
14.2716
14.1575
14.1518
14.045
14.0398
13.9397
13.935
13.8411
13.8369
13.7489
13.745
13.6626
13.6591
13.5818
13.5786
13.5062
13.5033
13.4354
13.4327
13.3691
13.3667
13.3071
13.3049
13.2492
13.2472
13.195
13.1931
13.1443
13.1426
13.097
13.0955
13.0529
13.0515
13.0118
13.0105
12.9735
12.9723
12.938
12.9368
12.9049
12.9038
12.8743
12.8733
12.8461
12.8451
12.82
12.8191
12.7961
12.7952
12.7742
12.7733
12.7542
12.7534
12.7361
12.7353
12.7199
12.7191
12.7053
12.7046
12.6925
12.6918
12.6814
12.6806
12.6718
12.6711
12.6638
12.6631
12.6573
12.6566
12.6524
12.6516
12.6488
12.6481
)
;

boundaryField
{
    inlet
    {
        type            cyclic;
    }
    outlet
    {
        type            cyclic;
    }
    bottom
    {
        type            symmetry;
    }
    top
    {
        beta1           0.075;
        blended         0;
        type            omegaWallFunction;
        value           uniform 2592;
    }
    frontAndBack
    {
        type            empty;
    }
}


// ************************************************************************* //
