/*--------------------------------*- C++ -*----------------------------------*\
  =========                 |
  \\      /  F ield         | OpenFOAM: The Open Source CFD Toolbox
   \\    /   O peration     | Website:  https://openfoam.org
    \\  /    A nd           | Version:  7
     \\/     M anipulation  |
\*---------------------------------------------------------------------------*/
FoamFile
{
    version     2.0;
    format      ascii;
    class       volScalarField;
    location    "1200";
    object      p;
}
// * * * * * * * * * * * * * * * * * * * * * * * * * * * * * * * * * * * * * //

dimensions      [0 2 -2 0 0 0 0];

internalField   nonuniform List<scalar> 
180
(
3.9612e-21
1.31233e-17
1.23355e-20
1.31128e-17
1.29773e-20
1.31091e-17
-4.18234e-20
1.31354e-17
-7.04568e-20
1.31247e-17
-5.11282e-20
1.3073e-17
-2.81668e-20
1.30314e-17
-7.98633e-20
1.30339e-17
-1.39832e-19
1.30356e-17
-1.73291e-19
1.30368e-17
-2.11025e-19
1.29984e-17
-2.52957e-19
1.29551e-17
-2.99391e-19
1.29064e-17
-2.97417e-19
1.29056e-17
-1.78827e-19
1.2788e-17
-3.03513e-19
1.27865e-17
-3.00948e-19
1.27847e-17
-2.98246e-19
1.27828e-17
-2.95456e-19
1.27807e-17
-2.9255e-19
1.27786e-17
-2.89629e-19
1.27764e-17
-2.86595e-19
1.27742e-17
-2.83585e-19
1.27719e-17
-5.30987e-20
1.27696e-17
-4.99978e-20
1.27673e-17
-4.67718e-20
1.2765e-17
-4.3563e-20
1.27626e-17
-4.02272e-20
1.24756e-17
-3.68859e-20
1.24732e-17
-3.34238e-20
1.24708e-17
-2.99382e-20
1.24684e-17
-2.63413e-20
1.281e-17
-2.27106e-20
1.28076e-17
-1.89888e-20
1.28052e-17
-1.52253e-20
1.28028e-17
-1.13856e-20
1.28004e-17
-7.5001e-21
1.2798e-17
-3.55728e-21
1.27956e-17
4.32376e-22
1.27933e-17
4.46295e-21
1.27909e-17
8.53991e-21
1.27886e-17
1.26387e-20
1.27861e-17
1.67816e-20
1.27838e-17
2.09296e-20
1.22662e-17
2.51245e-20
1.22638e-17
2.93108e-20
1.22613e-17
3.35405e-20
1.28125e-17
3.77386e-20
1.28099e-17
4.19698e-20
1.33853e-17
4.6145e-20
1.33828e-17
5.03396e-20
1.33802e-17
5.44595e-20
1.33776e-17
5.85875e-20
1.33749e-17
6.2625e-20
1.33722e-17
6.66556e-20
1.33696e-17
7.05807e-20
1.33669e-17
7.44808e-20
1.33642e-17
7.82658e-20
1.33615e-17
8.20067e-20
1.33589e-17
8.56241e-20
1.33562e-17
8.91782e-20
1.33536e-17
9.26058e-20
1.3351e-17
9.59531e-20
1.33485e-17
9.91719e-20
1.3346e-17
1.02296e-19
1.33436e-17
1.05293e-19
1.33412e-17
1.08184e-19
1.33389e-17
1.10949e-19
1.33367e-17
1.13601e-19
1.33345e-17
1.16126e-19
1.33324e-17
1.18534e-19
1.33304e-17
1.20816e-19
1.33285e-17
1.22974e-19
1.33267e-17
1.25009e-19
1.3325e-17
1.26917e-19
1.33233e-17
1.28702e-19
1.33218e-17
1.3036e-19
1.33204e-17
1.31894e-19
1.3319e-17
1.333e-19
1.33178e-17
1.34584e-19
1.33167e-17
1.35739e-19
1.33156e-17
1.3677e-19
1.33147e-17
1.37675e-19
1.33139e-17
1.38454e-19
1.33132e-17
1.39108e-19
1.33126e-17
1.39634e-19
1.33121e-17
1.40033e-19
1.33117e-17
1.40302e-19
1.33115e-17
1.40442e-19
1.33113e-17
1.4046e-19
1.33113e-17
)
;

boundaryField
{
    inlet
    {
        type            cyclic;
    }
    outlet
    {
        type            cyclic;
    }
    bottom
    {
        type            symmetry;
    }
    top
    {
        type            zeroGradient;
    }
    frontAndBack
    {
        type            empty;
    }
}


// ************************************************************************* //
