/*--------------------------------*- C++ -*----------------------------------*\
  =========                 |
  \\      /  F ield         | OpenFOAM: The Open Source CFD Toolbox
   \\    /   O peration     | Website:  https://openfoam.org
    \\  /    A nd           | Version:  7
     \\/     M anipulation  |
\*---------------------------------------------------------------------------*/
FoamFile
{
    version     2.0;
    format      ascii;
    class       surfaceScalarField;
    location    "1200";
    object      phi;
}
// * * * * * * * * * * * * * * * * * * * * * * * * * * * * * * * * * * * * * //

dimensions      [0 3 -1 0 0 0 0];

internalField   nonuniform List<scalar> 
268
(
0.000881428
-1.03059e-19
8.55647e-21
0.00115533
2.5457e-20
1.24351e-19
0.00134321
-8.97908e-22
2.18613e-19
0.00147388
1.81442e-20
2.07294e-19
0.00157078
5.7886e-20
1.42522e-19
0.00164659
8.06686e-21
1.7038e-19
0.00170813
5.97339e-20
1.41616e-19
0.0017594
7.96948e-20
1.4224e-19
0.0018029
8.01761e-20
1.45248e-19
0.00184031
-1.03857e-19
1.75836e-19
0.00187281
-9.97382e-20
1.74979e-19
0.00190126
-1.01974e-19
1.66715e-19
0.00192633
-1.12612e-19
1.21777e-19
0.00194852
6.5713e-20
1.2926e-19
0.00196824
-2.08186e-19
4.5727e-20
0.00198584
-2.19562e-19
6.53471e-21
0.0020016
-2.07104e-19
-2.62783e-20
0.00201574
-2.10511e-19
-4.43006e-20
0.00202846
1.81809e-19
-5.38397e-20
0.00203995
-2.03914e-19
-5.64665e-20
0.00205033
-1.92678e-19
-5.37484e-20
0.00205974
-1.74036e-19
-4.65246e-20
0.0020683
-1.91843e-19
-3.64172e-20
0.00207608
-1.17967e-19
-2.39666e-20
0.00208318
-7.98801e-20
-9.7431e-21
0.00208966
-4.22968e-20
-3.83043e-21
0.0020956
-1.26663e-20
2.8652e-20
0.00210104
1.06549e-20
-3.88938e-20
0.00210604
2.87381e-20
-7.84893e-20
0.00211063
4.30307e-20
-1.14892e-19
0.00211486
5.43754e-20
-1.73962e-19
0.00211877
6.37737e-20
-1.30236e-19
0.00212237
7.15308e-20
-1.11604e-19
0.0021257
7.81019e-20
-8.44345e-20
0.00212878
8.37084e-20
-5.72595e-20
0.00213164
8.83333e-20
-2.98964e-20
0.00213428
9.22277e-20
-1.50102e-21
0.00213673
9.53819e-20
2.79331e-20
0.00213901
9.77972e-20
5.87268e-20
0.00214112
9.96006e-20
8.96058e-20
0.00214308
1.00671e-19
1.1907e-19
0.00214491
1.00978e-19
1.33521e-19
0.0021466
1.00775e-19
1.61374e-19
0.00214817
9.99417e-20
7.38506e-20
0.00214964
9.87515e-20
1.32646e-20
0.00215099
9.73574e-20
-8.77432e-20
0.00215225
9.59357e-20
-8.1287e-20
0.00215342
9.45747e-20
-1.30128e-19
0.00215451
9.35357e-20
-7.29115e-20
0.00215551
9.27368e-20
-4.76478e-20
0.00215644
9.22433e-20
-2.13105e-20
0.0021573
9.19784e-20
-4.45679e-21
0.0021581
9.21356e-20
-7.32024e-22
0.00215883
9.25648e-20
-8.22855e-21
0.0021595
9.33309e-20
-2.05001e-20
0.00216012
9.42455e-20
-3.39302e-20
0.00216068
9.53491e-20
-4.67074e-20
0.0021612
9.64923e-20
-5.79217e-20
0.00216166
9.76854e-20
-6.73709e-20
0.00216208
9.87638e-20
-7.50397e-20
0.00216247
9.97272e-20
-8.11402e-20
0.0021628
1.00449e-19
-8.58562e-20
0.00216311
1.00932e-19
-8.94296e-20
0.00216337
1.01069e-19
-9.19619e-20
0.0021636
1.00867e-19
-9.36297e-20
0.00216379
1.00286e-19
-9.44779e-20
0.00216396
9.93313e-20
-9.46301e-20
0.00216409
9.79659e-20
-9.41085e-20
0.00216419
9.62117e-20
-9.2998e-20
0.00216427
9.40639e-20
-9.1306e-20
0.00216432
9.15407e-20
-8.91157e-20
0.00216434
8.8651e-20
-8.64408e-20
0.00216434
8.54195e-20
-8.33548e-20
0.00216431
8.18665e-20
-7.98821e-20
0.00216426
7.80117e-20
-7.60851e-20
0.00216418
7.38894e-20
-7.19867e-20
0.00216408
6.95167e-20
-6.76372e-20
0.00216396
6.4922e-20
-6.30699e-20
0.00216383
6.01221e-20
-5.83194e-20
0.00216366
5.51543e-20
-5.34107e-20
0.00216348
5.00449e-20
-4.83742e-20
0.00216328
4.48018e-20
-4.32205e-20
0.00216306
3.94518e-20
-3.79986e-20
0.00216283
3.40024e-20
-3.27048e-20
0.00216257
2.84725e-20
-2.73451e-20
0.00216229
2.28745e-20
-2.19409e-20
0.00216199
1.7195e-20
-1.64972e-20
0.00216168
1.14564e-20
-1.09852e-20
0.00216135
5.6827e-21
-5.43343e-21
0.00216099
)
;

boundaryField
{
    inlet
    {
        type            cyclic;
        value           nonuniform List<scalar> 
90
(
-0.000881428
-0.00115533
-0.00134321
-0.00147388
-0.00157078
-0.00164659
-0.00170813
-0.0017594
-0.0018029
-0.00184031
-0.00187281
-0.00190126
-0.00192633
-0.00194852
-0.00196824
-0.00198584
-0.0020016
-0.00201574
-0.00202846
-0.00203995
-0.00205033
-0.00205974
-0.0020683
-0.00207608
-0.00208318
-0.00208966
-0.0020956
-0.00210104
-0.00210604
-0.00211063
-0.00211486
-0.00211877
-0.00212237
-0.0021257
-0.00212878
-0.00213164
-0.00213428
-0.00213673
-0.00213901
-0.00214112
-0.00214308
-0.00214491
-0.0021466
-0.00214817
-0.00214964
-0.00215099
-0.00215225
-0.00215342
-0.00215451
-0.00215551
-0.00215644
-0.0021573
-0.0021581
-0.00215883
-0.0021595
-0.00216012
-0.00216068
-0.0021612
-0.00216166
-0.00216208
-0.00216247
-0.0021628
-0.00216311
-0.00216337
-0.0021636
-0.00216379
-0.00216396
-0.00216409
-0.00216419
-0.00216427
-0.00216432
-0.00216434
-0.00216434
-0.00216431
-0.00216426
-0.00216418
-0.00216408
-0.00216396
-0.00216383
-0.00216366
-0.00216348
-0.00216328
-0.00216306
-0.00216283
-0.00216257
-0.00216229
-0.00216199
-0.00216168
-0.00216135
-0.00216099
)
;
    }
    outlet
    {
        type            cyclic;
        value           nonuniform List<scalar> 
90
(
0.000881428
0.00115533
0.00134321
0.00147388
0.00157078
0.00164659
0.00170813
0.0017594
0.0018029
0.00184031
0.00187281
0.00190126
0.00192633
0.00194852
0.00196824
0.00198584
0.0020016
0.00201574
0.00202846
0.00203995
0.00205033
0.00205974
0.0020683
0.00207608
0.00208318
0.00208966
0.0020956
0.00210104
0.00210604
0.00211063
0.00211486
0.00211877
0.00212237
0.0021257
0.00212878
0.00213164
0.00213428
0.00213673
0.00213901
0.00214112
0.00214308
0.00214491
0.0021466
0.00214817
0.00214964
0.00215099
0.00215225
0.00215342
0.00215451
0.00215551
0.00215644
0.0021573
0.0021581
0.00215883
0.0021595
0.00216012
0.00216068
0.0021612
0.00216166
0.00216208
0.00216247
0.0021628
0.00216311
0.00216337
0.0021636
0.00216379
0.00216396
0.00216409
0.00216419
0.00216427
0.00216432
0.00216434
0.00216434
0.00216431
0.00216426
0.00216418
0.00216408
0.00216396
0.00216383
0.00216366
0.00216348
0.00216328
0.00216306
0.00216283
0.00216257
0.00216229
0.00216199
0.00216168
0.00216135
0.00216099
)
;
    }
    bottom
    {
        type            symmetry;
        value           uniform 0;
    }
    top
    {
        type            calculated;
        value           uniform 0;
    }
    frontAndBack
    {
        type            empty;
        value           nonuniform 0();
    }
}


// ************************************************************************* //
