/*--------------------------------*- C++ -*----------------------------------*\
  =========                 |
  \\      /  F ield         | OpenFOAM: The Open Source CFD Toolbox
   \\    /   O peration     | Website:  https://openfoam.org
    \\  /    A nd           | Version:  7
     \\/     M anipulation  |
\*---------------------------------------------------------------------------*/
FoamFile
{
    version     2.0;
    format      ascii;
    class       volVectorField;
    location    "1200";
    object      U;
}
// * * * * * * * * * * * * * * * * * * * * * * * * * * * * * * * * * * * * * //

dimensions      [0 1 -1 0 0 0 0];

internalField   nonuniform List<vector> 
180
(
(0.794882 -1.55177e-19 0)
(0.791688 7.61832e-20 0)
(1.03921 8.12389e-21 0)
(1.04038 6.42975e-20 0)
(1.20805 2.86669e-20 0)
(1.20972 3.48496e-19 0)
(1.32571 1.79277e-20 0)
(1.32726 4.22704e-19 0)
(1.41301 6.36869e-20 0)
(1.41439 3.50122e-19 0)
(1.48131 3.89014e-20 0)
(1.48255 3.3143e-19 0)
(1.53675 4.62693e-20 0)
(1.53788 3.23899e-19 0)
(1.58293 1.2503e-19 0)
(1.58398 2.84148e-19 0)
(1.62212 1.6211e-19 0)
(1.6231 2.83072e-19 0)
(1.65581 -3.28237e-20 0)
(1.65675 3.22883e-19 0)
(1.68508 -2.01276e-19 0)
(1.68598 3.57188e-19 0)
(1.71071 -2.00256e-19 0)
(1.71157 3.4469e-19 0)
(1.73328 -2.30544e-19 0)
(1.73411 2.9686e-19 0)
(1.75327 -4.21943e-20 0)
(1.75407 2.57367e-19 0)
(1.77103 -1.58625e-19 0)
(1.77181 1.71703e-19 0)
(1.78689 -4.28581e-19 0)
(1.78763 5.34961e-20 0)
(1.80108 -4.08012e-19 0)
(1.8018 -2.85569e-20 0)
(1.81381 -4.20804e-19 0)
(1.81451 -7.58195e-20 0)
(1.82528 -1.60398e-20 0)
(1.82596 -1.01954e-19 0)
(1.83563 -3.86422e-20 0)
(1.83628 -1.13024e-19 0)
(1.84499 -4.00322e-19 0)
(1.84561 -1.13e-19 0)
(1.85347 -3.70395e-19 0)
(1.85407 -1.01823e-19 0)
(1.86118 -3.69986e-19 0)
(1.86175 -8.42297e-20 0)
(1.8682 -3.11884e-19 0)
(1.86874 -6.13738e-20 0)
(1.8746 -2.01632e-19 0)
(1.87512 -3.43655e-20 0)
(1.88045 -1.17829e-19 0)
(1.88094 -4.59663e-21 0)
(1.8858 -5.15655e-20 0)
(1.88627 3.32143e-20 0)
(1.89071 9.42331e-22 0)
(1.89116 -4.01273e-21 0)
(1.89522 4.15189e-20 0)
(1.89564 -1.09805e-19 0)
(1.89937 7.3451e-20 0)
(1.89977 -2.04215e-19 0)
(1.90319 9.85554e-20 0)
(1.90356 -2.988e-19 0)
(1.90672 1.18946e-19 0)
(1.90706 -3.11733e-19 0)
(1.90997 1.3607e-19 0)
(1.9103 -2.50783e-19 0)
(1.91298 1.50037e-19 0)
(1.91328 -1.95762e-19 0)
(1.91577 1.62319e-19 0)
(1.91604 -1.41748e-19 0)
(1.91834 1.72488e-19 0)
(1.9186 -8.74407e-20 0)
(1.92073 1.80815e-19 0)
(1.92097 -3.19104e-20 0)
(1.92295 1.88059e-19 0)
(1.92317 2.57473e-20 0)
(1.92501 1.93455e-19 0)
(1.92521 8.62173e-20 0)
(1.92692 1.97691e-19 0)
(1.9271 1.48531e-19 0)
(1.92869 2.00714e-19 0)
(1.92886 2.10106e-19 0)
(1.93034 2.01921e-19 0)
(1.93049 2.66028e-19 0)
(1.93187 2.02005e-19 0)
(1.93201 3.11635e-19 0)
(1.9333 2.0104e-19 0)
(1.93342 2.4806e-19 0)
(1.93462 1.98754e-19 0)
(1.93473 8.97908e-20 0)
(1.93585 1.96191e-19 0)
(1.93594 -8.01836e-20 0)
(1.93699 1.93276e-19 0)
(1.93707 -1.84922e-19 0)
(1.93804 1.90402e-19 0)
(1.93812 -2.26022e-19 0)
(1.93903 1.87944e-19 0)
(1.93909 -2.08621e-19 0)
(1.93994 1.86131e-19 0)
(1.93999 -1.2552e-19 0)
(1.94078 1.84869e-19 0)
(1.94082 -6.50157e-20 0)
(1.94156 1.84035e-19 0)
(1.94159 -2.02473e-20 0)
(1.94227 1.83933e-19 0)
(1.9423 2.44493e-21 0)
(1.94294 1.84543e-19 0)
(1.94295 -5.3726e-21 0)
(1.94354 1.85769e-19 0)
(1.94355 -2.75389e-20 0)
(1.9441 1.87494e-19 0)
(1.94411 -5.44473e-20 0)
(1.94461 1.89535e-19 0)
(1.94461 -8.12862e-20 0)
(1.94508 1.91809e-19 0)
(1.94507 -1.0552e-19 0)
(1.9455 1.94201e-19 0)
(1.94549 -1.26187e-19 0)
(1.94589 1.96498e-19 0)
(1.94587 -1.4327e-19 0)
(1.94623 1.98588e-19 0)
(1.94621 -1.56913e-19 0)
(1.94654 2.00288e-19 0)
(1.94651 -1.67621e-19 0)
(1.94681 2.01529e-19 0)
(1.94678 -1.75827e-19 0)
(1.94705 2.02175e-19 0)
(1.94701 -1.81865e-19 0)
(1.94726 2.02116e-19 0)
(1.94722 -1.86005e-19 0)
(1.94744 2.01333e-19 0)
(1.94739 -1.8849e-19 0)
(1.94759 1.99818e-19 0)
(1.94754 -1.89443e-19 0)
(1.94771 1.97494e-19 0)
(1.94766 -1.89055e-19 0)
(1.9478 1.94373e-19 0)
(1.94775 -1.87399e-19 0)
(1.94787 1.90466e-19 0)
(1.94781 -1.84573e-19 0)
(1.94792 1.85791e-19 0)
(1.94786 -1.80668e-19 0)
(1.94794 1.80367e-19 0)
(1.94787 -1.75779e-19 0)
(1.94793 1.74235e-19 0)
(1.94787 -1.69995e-19 0)
(1.94791 1.67442e-19 0)
(1.94784 -1.63414e-19 0)
(1.94786 1.6002e-19 0)
(1.9478 -1.56121e-19 0)
(1.9478 1.52027e-19 0)
(1.94773 -1.48212e-19 0)
(1.94771 1.43526e-19 0)
(1.94764 -1.39739e-19 0)
(1.94761 1.34542e-19 0)
(1.94753 -1.30805e-19 0)
(1.94748 1.25142e-19 0)
(1.9474 -1.21477e-19 0)
(1.94734 1.15347e-19 0)
(1.94726 -1.11798e-19 0)
(1.94718 1.05267e-19 0)
(1.9471 -1.01848e-19 0)
(1.947 9.49124e-20 0)
(1.94691 -9.16437e-20 0)
(1.9468 8.42946e-20 0)
(1.94672 -8.12449e-20 0)
(1.94659 7.35106e-20 0)
(1.9465 -7.0742e-20 0)
(1.94635 6.25002e-20 0)
(1.94627 -6.00845e-20 0)
(1.94611 5.13898e-20 0)
(1.94602 -4.92955e-20 0)
(1.94584 4.01089e-20 0)
(1.94575 -3.84716e-20 0)
(1.94556 2.86715e-20 0)
(1.94547 -2.75186e-20 0)
(1.94526 1.71757e-20 0)
(1.94516 -1.64482e-20 0)
(1.94494 5.84547e-21 0)
(1.94484 -5.58121e-21 0)
)
;

boundaryField
{
    inlet
    {
        type            cyclic;
    }
    outlet
    {
        type            cyclic;
    }
    bottom
    {
        type            symmetry;
    }
    top
    {
        type            noSlip;
    }
    frontAndBack
    {
        type            empty;
    }
}


// ************************************************************************* //
