/*--------------------------------*- C++ -*----------------------------------*\
  =========                 |
  \\      /  F ield         | OpenFOAM: The Open Source CFD Toolbox
   \\    /   O peration     | Website:  https://openfoam.org
    \\  /    A nd           | Version:  7
     \\/     M anipulation  |
\*---------------------------------------------------------------------------*/
FoamFile
{
    version     2.0;
    format      ascii;
    class       volSymmTensorField;
    location    "400";
    object      devReff;
}
// * * * * * * * * * * * * * * * * * * * * * * * * * * * * * * * * * * * * * //

dimensions      [0 2 -2 0 0 0 0];

internalField   nonuniform List<symmTensor> 
180
(
(2.70385e-20 -0.0490456 -0 -2.69024e-20 -0 -1.36127e-22)
(-2.06777e-20 -0.0354547 -0 2.23443e-20 -0 -1.66663e-21)
(3.21951e-20 -0.0289536 -0 -6.43902e-20 -0 3.21951e-20)
(-5.28807e-21 -0.0176191 -0 1.05761e-20 -0 -5.28807e-21)
(-2.4942e-19 -0.0250548 -0 1.73364e-19 -0 7.6056e-20)
(1.84135e-19 -0.0183326 -0 -1.22803e-19 -0 -6.13326e-20)
(5.64311e-20 -0.0217445 -0 -1.12862e-19 -0 5.64311e-20)
(-4.47438e-20 -0.0189303 -0 8.94876e-20 -0 -4.47438e-20)
(2.2867e-20 -0.0188963 -0 -4.5734e-20 -0 2.2867e-20)
(-4.00383e-20 -0.0181823 -0 8.00765e-20 -0 -4.00383e-20)
(-1.52973e-19 -0.0164772 -0 3.05945e-19 -0 -1.52973e-19)
(1.29418e-19 -0.0167239 -0 -2.58836e-19 -0 1.29418e-19)
(-1.53784e-19 -0.0143111 -0 3.07568e-19 -0 -1.53784e-19)
(1.40857e-19 -0.0148621 -0 -2.81714e-19 -0 1.40857e-19)
(-1.75106e-19 -0.0122197 -0 3.50213e-19 -0 -1.75106e-19)
(7.26991e-21 -0.0127525 -0 -1.45398e-20 -0 7.26991e-21)
(-2.70918e-19 -0.0100892 -0 5.41837e-19 -0 -2.70918e-19)
(1.26811e-19 -0.0104835 -0 -2.53622e-19 -0 1.26811e-19)
(-3.77972e-20 -0.00786297 -0 7.55943e-20 -0 -3.77972e-20)
(3.56939e-19 -0.00810308 -0 -7.13877e-19 -0 3.56939e-19)
(2.18858e-19 -0.00552191 -0 -4.37717e-19 -0 2.18858e-19)
(1.46449e-19 -0.00563487 -0 -2.92897e-19 -0 1.46449e-19)
(3.24162e-19 -0.00306662 -0 -6.48324e-19 -0 3.24162e-19)
(-2.15166e-19 -0.0030886 -0 4.30333e-19 -0 -2.15166e-19)
(-1.17361e-20 -0.000505867 -0 2.34721e-20 -0 -1.17361e-20)
(-2.75003e-19 -0.000467569 -0 5.50006e-19 -0 -2.75003e-19)
(-3.00819e-19 0.00214962 -0 6.01638e-19 -0 -3.00819e-19)
(-2.79641e-19 0.002227 -0 5.59282e-19 -0 -2.79641e-19)
(2.13208e-19 0.00488969 -0 -4.26415e-19 -0 2.13208e-19)
(-2.68714e-19 0.00499365 -0 5.37428e-19 -0 -2.68714e-19)
(3.63323e-19 0.00770535 -0 -7.26646e-19 -0 3.63323e-19)
(-7.47335e-20 0.00782969 -0 1.49467e-19 -0 -7.47335e-20)
(8.95749e-20 0.0105886 -0 -1.7915e-19 -0 8.95749e-20)
(-7.25223e-21 0.0107311 -0 1.45045e-20 -0 -7.25223e-21)
(4.57523e-20 0.0135321 -0 -9.15045e-20 -0 4.57523e-20)
(-6.59352e-20 0.0136926 -0 1.3187e-19 -0 -6.59352e-20)
(1.76682e-20 0.0165286 -0 -3.53365e-20 -0 1.76682e-20)
(-5.53829e-20 0.016708 -0 1.10766e-19 -0 -5.53829e-20)
(1.72523e-21 0.019571 -0 -3.45046e-21 -0 1.72523e-21)
(4.49972e-19 0.0197706 -0 -8.99943e-19 -0 4.49972e-19)
(-6.75411e-21 0.0226522 -0 1.35082e-20 -0 -6.75411e-21)
(9.81937e-19 0.0228732 -0 -1.96387e-18 -0 9.81937e-19)
(-9.02148e-21 0.025765 -0 1.8043e-20 -0 -9.02148e-21)
(4.60881e-19 0.0260083 -0 -9.21762e-19 -0 4.60881e-19)
(-7.5866e-21 0.028902 -0 1.51732e-20 -0 -7.5866e-21)
(-7.29396e-20 0.0291684 -0 1.45879e-19 -0 -7.29396e-20)
(-5.63956e-21 0.0320557 -0 1.12791e-20 -0 -5.63956e-21)
(-5.47555e-20 0.0323458 -0 1.09511e-19 -0 -5.47555e-20)
(-1.22153e-22 0.035219 -0 2.44307e-22 -0 -1.22153e-22)
(-3.80285e-20 0.035533 -0 7.60569e-20 -0 -3.80285e-20)
(1.73424e-21 0.0383843 -0 -3.46849e-21 -0 1.73424e-21)
(-2.00177e-20 0.0387226 -0 4.00354e-20 -0 -2.00177e-20)
(-1.91028e-21 0.0415443 -0 3.82055e-21 -0 -1.91028e-21)
(-5.19933e-21 0.0419069 -0 1.03987e-20 -0 -5.19933e-21)
(-1.4272e-21 0.0446917 -0 2.85439e-21 -0 -1.4272e-21)
(5.94488e-21 0.0450787 -0 -1.18898e-20 -0 5.94488e-21)
(9.05311e-22 0.0478195 -0 -1.81062e-21 -0 9.05311e-22)
(1.78636e-20 0.0482307 -0 -3.57272e-20 -0 1.78636e-20)
(1.94998e-21 0.0509205 -0 -3.89995e-21 -0 1.94998e-21)
(2.7287e-20 0.0513558 -0 -5.4574e-20 -0 2.7287e-20)
(1.94348e-21 0.0539878 -0 -3.88696e-21 -0 1.94348e-21)
(3.11304e-20 0.054447 -0 -6.22609e-20 -0 3.11304e-20)
(4.52992e-21 0.0570147 -0 -9.05984e-21 -0 4.52992e-21)
(3.32344e-20 0.0574975 -0 -6.64689e-20 -0 3.32344e-20)
(1.36993e-20 0.0599945 -0 -2.73987e-20 -0 1.36993e-20)
(3.77776e-20 0.0605007 -0 -7.55551e-20 -0 3.77776e-20)
(2.37668e-20 0.0629208 -0 -4.75336e-20 -0 2.37668e-20)
(4.00548e-20 0.06345 -0 -8.01096e-20 -0 4.00548e-20)
(2.62054e-20 0.0657872 -0 -5.24109e-20 -0 2.62054e-20)
(4.14589e-20 0.0663391 -0 -8.29179e-20 -0 4.14589e-20)
(-8.13455e-19 0.0685878 -0 1.62691e-18 -0 -8.13455e-19)
(4.32084e-20 0.0691619 -0 -8.64168e-20 -0 4.32084e-20)
(-1.66178e-18 0.0713166 -0 3.32355e-18 -0 -1.66178e-18)
(4.51957e-20 0.0719125 -0 -9.03915e-20 -0 4.51957e-20)
(-8.13978e-19 0.0739678 -0 1.62796e-18 -0 -8.13978e-19)
(-8.24538e-19 0.0745851 -0 1.64908e-18 -0 -8.24538e-19)
(4.37919e-20 0.0765361 -0 -8.75838e-20 -0 4.37919e-20)
(-1.70859e-18 0.0771742 -0 3.41718e-18 -0 -1.70859e-18)
(4.29636e-20 0.0790161 -0 -8.59272e-20 -0 4.29636e-20)
(-8.35799e-19 0.0796745 -0 1.6716e-18 -0 -8.35799e-19)
(3.89037e-20 0.0814027 -0 -7.78073e-20 -0 3.89037e-20)
(4.87985e-20 0.0820808 -0 -9.7597e-20 -0 4.87985e-20)
(3.18842e-20 0.0836912 -0 -6.37683e-20 -0 3.18842e-20)
(4.8732e-20 0.0843884 -0 -9.74641e-20 -0 4.8732e-20)
(2.0474e-20 0.0858768 -0 -4.0948e-20 -0 2.0474e-20)
(4.89793e-20 0.0865925 -0 -9.79585e-20 -0 4.89793e-20)
(1.25417e-20 0.0879553 -0 -2.50835e-20 -0 1.25417e-20)
(4.90574e-20 0.0886887 -0 -9.81148e-20 -0 4.90574e-20)
(1.35778e-21 0.0899223 -0 -2.71556e-21 -0 1.35778e-21)
(4.92204e-20 0.0906728 -0 -9.84407e-20 -0 4.92204e-20)
(-2.16354e-20 0.0917741 -0 4.32707e-20 -0 -2.16354e-20)
(4.95462e-20 0.0925409 -0 -9.90923e-20 -0 4.95462e-20)
(-3.9545e-20 0.093507 -0 7.909e-20 -0 -3.9545e-20)
(5.0229e-20 0.0942893 -0 -1.00458e-19 -0 5.0229e-20)
(-5.89009e-20 0.0951174 -0 1.17802e-19 -0 -5.89009e-20)
(5.15273e-20 0.0959145 -0 -1.03055e-19 -0 5.15273e-20)
(9.07116e-19 0.0966022 -0 -1.81423e-18 -0 9.07116e-19)
(5.35678e-20 0.0974132 -0 -1.07136e-19 -0 5.35678e-20)
(1.88156e-18 0.0979585 -0 -3.76311e-18 -0 1.88156e-18)
(5.68202e-20 0.0987826 -0 -1.1364e-19 -0 5.68202e-20)
(8.74569e-19 0.0991835 -0 -1.74914e-18 -0 8.74569e-19)
(6.12388e-20 0.10002 -0 -1.22478e-19 -0 6.12388e-20)
(-1.38633e-19 0.100275 -0 2.77267e-19 -0 -1.38633e-19)
(6.75482e-20 0.101122 -0 -1.35096e-19 -0 6.75482e-20)
(-1.64087e-19 0.10123 -0 3.28174e-19 -0 -1.64087e-19)
(7.56742e-20 0.102088 -0 -1.51348e-19 -0 7.56742e-20)
(-1.79323e-19 0.102048 -0 3.58647e-19 -0 -1.79323e-19)
(8.64176e-20 0.102915 -0 -1.72835e-19 -0 8.64176e-20)
(-1.92862e-19 0.102725 -0 3.85724e-19 -0 -1.92862e-19)
(9.11974e-20 0.103601 -0 -1.82395e-19 -0 9.11974e-20)
(-2.13579e-19 0.103262 -0 4.27158e-19 -0 -2.13579e-19)
(9.78092e-20 0.104146 -0 -1.95618e-19 -0 9.78092e-20)
(-2.32772e-19 0.103656 -0 4.65545e-19 -0 -2.32772e-19)
(1.13468e-19 0.104547 -0 -2.26937e-19 -0 1.13468e-19)
(-1.61131e-19 0.103908 -0 3.22261e-19 -0 -1.61131e-19)
(1.30575e-19 0.104803 -0 -2.6115e-19 -0 1.30575e-19)
(1.06607e-20 0.104015 -0 -2.13214e-20 -0 1.06607e-20)
(1.41734e-19 0.104915 -0 -2.83468e-19 -0 1.41734e-19)
(9.35183e-20 0.103978 -0 -1.87037e-19 -0 9.35183e-20)
(1.53614e-19 0.104881 -0 -3.07228e-19 -0 1.53614e-19)
(7.95455e-20 0.103796 -0 -1.59091e-19 -0 7.95455e-20)
(1.74943e-19 0.104702 -0 -3.49887e-19 -0 1.74943e-19)
(6.76607e-20 0.103469 -0 -1.35321e-19 -0 6.76607e-20)
(1.88971e-19 0.104377 -0 -3.77942e-19 -0 1.88971e-19)
(5.5879e-20 0.102998 -0 -1.11758e-19 -0 5.5879e-20)
(2.12005e-19 0.103906 -0 -4.24009e-19 -0 2.12005e-19)
(4.38117e-20 0.102383 -0 -8.76234e-20 -0 4.38117e-20)
(1.41324e-19 0.10329 -0 -2.82648e-19 -0 1.41324e-19)
(-5.10161e-19 0.101625 -0 1.02032e-18 -0 -5.10161e-19)
(-4.04456e-20 0.102531 -0 8.08912e-20 -0 -4.04456e-20)
(-1.05846e-18 0.100724 -0 2.11693e-18 -0 -1.05846e-18)
(-1.11104e-19 0.101628 -0 2.22207e-19 -0 -1.11104e-19)
(-5.22112e-19 0.0996827 -0 1.04422e-18 -0 -5.22112e-19)
(-8.86985e-20 0.100582 -0 1.77397e-19 -0 -8.86985e-20)
(9.0617e-21 0.0985017 -0 -1.81234e-20 -0 9.0617e-21)
(-7.78295e-20 0.0993966 -0 1.55659e-19 -0 -7.78295e-20)
(-2.35488e-21 0.0971827 -0 4.70977e-21 -0 -2.35488e-21)
(-6.02351e-20 0.0980719 -0 1.2047e-19 -0 -6.02351e-20)
(-1.48633e-20 0.0957277 -0 2.97267e-20 -0 -1.48633e-20)
(-4.32319e-20 0.0966102 -0 8.64639e-20 -0 -4.32319e-20)
(-1.93324e-20 0.0941387 -0 3.86649e-20 -0 -1.93324e-20)
(-3.59702e-20 0.0950134 -0 7.19404e-20 -0 -3.59702e-20)
(5.30094e-19 0.0924182 -0 -1.06019e-18 -0 5.30094e-19)
(-3.13332e-20 0.0932841 -0 6.26665e-20 -0 -3.13332e-20)
(1.075e-18 0.0905685 -0 -2.15e-18 -0 1.075e-18)
(-2.05392e-20 0.0914247 -0 4.10785e-20 -0 -2.05392e-20)
(5.14085e-19 0.0885925 -0 -1.02817e-18 -0 5.14085e-19)
(-1.0823e-20 0.0894381 -0 2.1646e-20 -0 -1.0823e-20)
(-4.77327e-20 0.0864932 -0 9.54653e-20 -0 -4.77327e-20)
(-2.13108e-21 0.0873271 -0 4.26216e-21 -0 -2.13108e-21)
(-5.45431e-20 0.0842736 -0 1.09086e-19 -0 -5.45431e-20)
(5.70917e-21 0.0850949 -0 -1.14183e-20 -0 5.70917e-21)
(-6.03712e-20 0.0819371 -0 1.20742e-19 -0 -6.03712e-20)
(1.28194e-20 0.082745 -0 -2.56388e-20 -0 1.28194e-20)
(-6.51425e-20 0.0794872 -0 1.30285e-19 -0 -6.51425e-20)
(1.94639e-20 0.0802808 -0 -3.89277e-20 -0 1.94639e-20)
(-6.88553e-20 0.0769276 -0 1.37711e-19 -0 -6.88553e-20)
(2.6003e-20 0.077706 -0 -5.20061e-20 -0 2.6003e-20)
(-7.16014e-20 0.0742621 -0 1.43203e-19 -0 -7.16014e-20)
(2.39676e-20 0.0750247 -0 -4.79352e-20 -0 2.39676e-20)
(-7.34758e-20 0.071495 -0 1.46952e-19 -0 -7.34758e-20)
(2.11761e-20 0.0722408 -0 -4.23522e-20 -0 2.11761e-20)
(-7.45623e-20 0.0686307 -0 1.49125e-19 -0 -7.45623e-20)
(2.5469e-20 0.0693591 -0 -5.09379e-20 -0 2.5469e-20)
(-7.5006e-20 0.0656744 -0 1.50012e-19 -0 -7.5006e-20)
(2.83558e-20 0.0663847 -0 -5.67115e-20 -0 2.83558e-20)
(-7.4846e-20 0.0626327 -0 1.49692e-19 -0 -7.4846e-20)
(3.01323e-20 0.0633244 -0 -6.02646e-20 -0 3.01323e-20)
(-7.41697e-20 0.0595145 -0 1.48339e-19 -0 -7.41697e-20)
(3.1056e-20 0.0601872 -0 -6.21119e-20 -0 3.1056e-20)
(-7.29388e-20 0.0563329 -0 1.45878e-19 -0 -7.29388e-20)
(3.12222e-20 0.0569865 -0 -6.24444e-20 -0 3.12222e-20)
(-7.1066e-20 0.0531076 -0 1.42132e-19 -0 -7.1066e-20)
(3.06283e-20 0.053742 -0 -6.12566e-20 -0 3.06283e-20)
(-6.86345e-20 0.0499884 -0 1.37269e-19 -0 -6.86345e-20)
(2.95207e-20 0.0506043 -0 -5.90413e-20 -0 2.95207e-20)
(-7.25925e-20 0.047076 -0 1.45185e-19 -0 -7.25925e-20)
(3.0528e-20 0.0476745 -0 -6.10561e-20 -0 3.0528e-20)
(-7.50485e-20 0.0230347 -0 1.50097e-19 -0 -7.50485e-20)
(3.08627e-20 0.0233297 -0 -6.17254e-20 -0 3.08627e-20)
)
;

boundaryField
{
    inlet
    {
        type            cyclic;
    }
    outlet
    {
        type            cyclic;
    }
    bottom
    {
        type            symmetry;
    }
    top
    {
        type            calculated;
        value           nonuniform List<symmTensor> 2((-3.54818e-23 -0.0239697 -0 7.87722e-21 -0 -7.84174e-21) (-7.61804e-21 -0.0259176 -0 7.42982e-21 -0 1.88218e-22));
    }
    frontAndBack
    {
        type            empty;
    }
}


// ************************************************************************* //
