/*--------------------------------*- C++ -*----------------------------------*\
  =========                 |
  \\      /  F ield         | OpenFOAM: The Open Source CFD Toolbox
   \\    /   O peration     | Website:  https://openfoam.org
    \\  /    A nd           | Version:  7
     \\/     M anipulation  |
\*---------------------------------------------------------------------------*/
FoamFile
{
    version     2.0;
    format      ascii;
    class       volScalarField;
    location    "400";
    object      k;
}
// * * * * * * * * * * * * * * * * * * * * * * * * * * * * * * * * * * * * * //

dimensions      [0 2 -2 0 0 0 0];

internalField   nonuniform List<scalar> 
180
(
0.112763
0.0674078
0.0840263
0.0750644
0.0861698
0.0843047
0.0959671
0.095897
0.107329
0.107707
0.118702
0.119209
0.129699
0.130275
0.140271
0.140908
0.150455
0.151151
0.160301
0.16105
0.169855
0.17065
0.179155
0.179987
0.188231
0.189094
0.197109
0.197998
0.205808
0.206721
0.214347
0.215282
0.222738
0.223696
0.230994
0.231975
0.239122
0.240128
0.247131
0.248163
0.255024
0.256084
0.262808
0.263897
0.270483
0.271602
0.278051
0.279202
0.285513
0.286697
0.292868
0.294086
0.300114
0.301368
0.307251
0.308541
0.314276
0.315602
0.321185
0.322549
0.327976
0.329377
0.334644
0.336083
0.341185
0.342663
0.347596
0.349113
0.353873
0.355428
0.360009
0.361603
0.366002
0.367634
0.371846
0.373517
0.377537
0.379246
0.38307
0.384817
0.388441
0.390225
0.393646
0.395467
0.398681
0.400538
0.403542
0.405435
0.408226
0.410154
0.412729
0.414691
0.417049
0.419044
0.421184
0.423211
0.42513
0.427188
0.428887
0.430976
0.432453
0.434571
0.435828
0.437974
0.439012
0.441185
0.442004
0.444203
0.444805
0.447029
0.447417
0.449664
0.449842
0.452111
0.452081
0.454371
0.454138
0.456448
0.456016
0.458344
0.457719
0.460064
0.459251
0.461612
0.460617
0.462992
0.461822
0.464211
0.462873
0.465274
0.463775
0.466187
0.464536
0.466957
0.465161
0.467592
0.46566
0.468097
0.466039
0.468483
0.466306
0.468756
0.466471
0.468925
0.466541
0.468998
0.466526
0.468985
0.466434
0.468895
0.466274
0.468736
0.466056
0.468518
0.465788
0.46825
0.465481
0.467942
0.465142
0.467602
0.464782
0.46724
0.464408
0.466864
0.464031
0.466484
0.463657
0.466108
0.463296
0.465744
0.462954
0.4654
0.462639
0.465082
0.462358
0.464799
0.462116
0.464554
0.461917
0.464352
)
;

boundaryField
{
    inlet
    {
        type            cyclic;
    }
    outlet
    {
        type            cyclic;
    }
    bottom
    {
        type            symmetry;
    }
    top
    {
        type            kqRWallFunction;
        value           nonuniform List<scalar> 2(0.112763 0.0674078);
    }
    frontAndBack
    {
        type            empty;
    }
}


// ************************************************************************* //
