/*--------------------------------*- C++ -*----------------------------------*\
  =========                 |
  \\      /  F ield         | OpenFOAM: The Open Source CFD Toolbox
   \\    /   O peration     | Website:  https://openfoam.org
    \\  /    A nd           | Version:  7
     \\/     M anipulation  |
\*---------------------------------------------------------------------------*/
FoamFile
{
    version     2.0;
    format      ascii;
    class       volScalarField;
    location    "400";
    object      nut;
}
// * * * * * * * * * * * * * * * * * * * * * * * * * * * * * * * * * * * * * //

dimensions      [0 2 -1 0 0 0 0];

internalField   nonuniform List<scalar> 
180
(
2.48114e-05
1.43537e-05
8.96513e-05
6.5025e-05
0.000198471
0.000147225
0.000336319
0.000275873
0.000501778
0.000446008
0.000689046
0.000647343
0.000894533
0.000869348
0.00111471
0.00110384
0.00134577
0.00134525
0.00158393
0.00159001
0.00182589
0.00183577
0.00206895
0.00208091
0.00231107
0.00232417
0.00255074
0.00256454
0.00278683
0.00280119
0.00301855
0.00303341
0.00324528
0.00326062
0.00346656
0.00348237
0.00368206
0.0036983
0.00389153
0.00390815
0.00409478
0.00411174
0.00429172
0.00430895
0.00448228
0.00449975
0.00466644
0.00468411
0.00484424
0.00486207
0.00501572
0.00503369
0.00518097
0.00519907
0.00534011
0.00535832
0.00549325
0.00551156
0.00564053
0.00565894
0.0057821
0.00580061
0.00591812
0.00593673
0.00604876
0.00606747
0.00617417
0.00619299
0.00629455
0.00631347
0.00641005
0.00642907
0.00652084
0.00653998
0.0066271
0.00664636
0.006729
0.00674837
0.0068267
0.00684619
0.00692036
0.00693997
0.00701014
0.00702987
0.00709619
0.00711605
0.00717867
0.00719864
0.00725771
0.00727781
0.00733345
0.00735368
0.00740603
0.00742639
0.00747558
0.00749606
0.00754221
0.00756282
0.00760605
0.00762679
0.00766721
0.00768808
0.0077258
0.00774679
0.00778191
0.00780303
0.00783565
0.00785689
0.00788711
0.00790847
0.00793637
0.00795785
0.00798352
0.00800512
0.00802863
0.00805035
0.00807178
0.00809361
0.00811304
0.00813498
0.00815248
0.00817452
0.00819014
0.0082123
0.0082261
0.00824836
0.0082604
0.00828276
0.0082931
0.00831555
0.00832424
0.00834678
0.00835385
0.00837649
0.008382
0.00840472
0.0084087
0.00843151
0.00843399
0.00845688
0.00845791
0.00848088
0.00848049
0.00850352
0.00850173
0.00852484
0.00852169
0.00854486
0.00854036
0.00856359
0.00855777
0.00858106
0.00857395
0.00859729
0.0085889
0.00861229
0.00860264
0.00862607
0.00861518
0.00863865
0.00862653
0.00865004
0.00863671
0.00866026
0.00864572
0.0086693
0.00865358
0.00867718
0.00866029
0.00868391
0.00866586
0.0086895
0.0086703
0.00869395
0.00867361
0.00869727
0.00867581
0.00869947
0.0086769
0.00870056
)
;

boundaryField
{
    inlet
    {
        type            cyclic;
    }
    outlet
    {
        type            cyclic;
    }
    bottom
    {
        type            symmetry;
    }
    top
    {
        type            nutkWallFunction;
        Cmu             0.09;
        kappa           0.41;
        E               9.8;
        value           uniform 0;
    }
    frontAndBack
    {
        type            empty;
    }
}


// ************************************************************************* //
