/*--------------------------------*- C++ -*----------------------------------*\
  =========                 |
  \\      /  F ield         | OpenFOAM: The Open Source CFD Toolbox
   \\    /   O peration     | Website:  https://openfoam.org
    \\  /    A nd           | Version:  7
     \\/     M anipulation  |
\*---------------------------------------------------------------------------*/
FoamFile
{
    version     2.0;
    format      ascii;
    class       volScalarField;
    location    "400";
    object      omega;
}
// * * * * * * * * * * * * * * * * * * * * * * * * * * * * * * * * * * * * * //

dimensions      [0 0 -1 0 0 0 0];

internalField   nonuniform List<scalar> 
180
(
2592
3504.48
849.93
1154.39
434.168
572.625
285.345
347.613
213.898
241.492
172.27
184.151
144.991
149.853
125.836
127.653
111.799
112.359
101.204
101.289
93.0259
92.958
86.592
86.4943
81.4474
81.3597
77.2752
77.2057
73.8502
73.7975
71.0099
70.9704
68.6346
68.6054
66.6349
66.6142
64.9425
64.9294
63.5048
63.4989
62.2803
62.2813
61.236
61.2438
60.3449
60.3594
59.5852
59.6063
58.9386
58.9661
58.3899
58.4235
57.9263
57.9658
57.5365
57.5817
57.2113
57.2619
56.9424
56.9981
56.7226
56.7832
56.5456
56.6108
56.4059
56.4755
56.2985
56.3723
56.2189
56.2968
56.1633
56.245
56.128
56.2134
56.1099
56.1987
56.1059
56.1981
56.1135
56.2089
56.1302
56.2287
56.1538
56.2552
56.1824
56.2866
56.2141
56.321
56.2473
56.3567
56.2804
56.3923
56.3121
56.4264
56.3413
56.4577
56.3667
56.4853
56.3876
56.5081
56.4029
56.5253
56.4121
56.5363
56.4144
56.5402
56.4093
56.5367
56.3965
56.5253
56.3755
56.5058
56.3463
56.4778
56.3086
56.4412
56.2624
56.3961
56.2077
56.3424
56.1447
56.2802
56.0736
56.2098
55.9945
56.1315
55.9079
56.0455
55.8142
55.9523
55.7138
55.8523
55.6073
55.7462
55.4953
55.6344
55.3783
55.5176
55.2572
55.3966
55.1326
55.2721
55.0052
55.1448
54.876
55.0155
54.7457
54.8851
54.6152
54.7545
54.4854
54.6245
54.3572
54.496
54.2314
54.37
54.1091
54.2474
53.991
54.129
53.8782
54.0159
53.7714
53.9088
53.6717
53.8088
53.5798
53.7165
53.4965
53.633
53.4227
53.5589
53.3591
53.495
53.3063
53.4419
53.2649
53.4003
53.2352
53.3704
)
;

boundaryField
{
    inlet
    {
        type            cyclic;
    }
    outlet
    {
        type            cyclic;
    }
    bottom
    {
        type            symmetry;
    }
    top
    {
        beta1           0.075;
        blended         0;
        type            omegaWallFunction;
        value           nonuniform List<scalar> 2(2592 3504.48);
    }
    frontAndBack
    {
        type            empty;
    }
}


// ************************************************************************* //
