/*--------------------------------*- C++ -*----------------------------------*\
  =========                 |
  \\      /  F ield         | OpenFOAM: The Open Source CFD Toolbox
   \\    /   O peration     | Website:  https://openfoam.org
    \\  /    A nd           | Version:  7
     \\/     M anipulation  |
\*---------------------------------------------------------------------------*/
FoamFile
{
    version     2.0;
    format      ascii;
    class       volScalarField;
    location    "400";
    object      p;
}
// * * * * * * * * * * * * * * * * * * * * * * * * * * * * * * * * * * * * * //

dimensions      [0 2 -2 0 0 0 0];

internalField   nonuniform List<scalar> 
180
(
-8.50395e-21
-4.83085e-17
9.25523e-21
-4.83011e-17
-9.82178e-21
-4.82864e-17
-4.70311e-20
-4.82546e-17
-1.73698e-19
-4.81288e-17
-4.58573e-19
-4.79418e-17
-8.57424e-19
-4.76878e-17
-8.66937e-19
-4.77084e-17
-8.81464e-19
-4.77309e-17
-8.96715e-19
-4.74926e-17
-9.15857e-19
-4.75121e-17
-9.35031e-19
-4.7869e-17
-9.56401e-19
-4.82664e-17
-5.54157e-19
-4.91271e-17
-1.50551e-18
-4.72638e-17
-1.52708e-18
-4.72653e-17
-1.548e-18
-4.78099e-17
-1.56905e-18
-4.78036e-17
-1.58859e-18
-4.77916e-17
-1.60867e-18
-4.77778e-17
-1.62677e-18
-4.77584e-17
-1.64586e-18
-4.84708e-17
-1.66284e-18
-4.92119e-17
-1.68127e-18
-4.99857e-17
-1.69769e-18
-5.07871e-17
-1.71588e-18
-5.16193e-17
-1.73235e-18
-5.2478e-17
-1.75089e-18
-5.33657e-17
-1.76817e-18
-5.42788e-17
-1.78756e-18
-5.52188e-17
-1.80622e-18
-5.61829e-17
-1.827e-18
-5.71719e-17
-1.84762e-18
-5.81837e-17
-1.87011e-18
-5.92185e-17
-1.89295e-18
-6.02744e-17
-1.91737e-18
-6.13517e-17
-1.94252e-18
-6.24486e-17
-8.25943e-19
-6.35652e-17
3.07771e-19
-6.47001e-17
1.45799e-18
-6.46713e-17
2.62383e-18
-6.46432e-17
3.80515e-18
-6.46156e-17
5.00076e-18
-6.45887e-17
6.21082e-18
-6.45625e-17
7.43392e-18
-6.45372e-17
8.67058e-18
-6.45123e-17
9.91912e-18
-6.44887e-17
1.11804e-17
-6.44655e-17
1.24525e-17
-6.44437e-17
1.37367e-17
-6.4422e-17
1.37038e-17
-6.44019e-17
1.3672e-17
-6.43818e-17
1.36396e-17
-6.43631e-17
1.36085e-17
-6.43443e-17
1.35771e-17
-6.43266e-17
1.35473e-17
-6.43087e-17
1.35177e-17
-6.42918e-17
1.34895e-17
-6.42746e-17
1.41612e-17
-6.42581e-17
1.4135e-17
-6.42414e-17
1.41097e-17
-6.42253e-17
1.40856e-17
-6.42092e-17
1.40626e-17
-6.41934e-17
1.40406e-17
-6.41779e-17
1.40197e-17
-6.48835e-17
1.39997e-17
-6.48686e-17
1.47052e-17
-6.4854e-17
1.5414e-17
-6.48398e-17
1.61263e-17
-6.48259e-17
1.68417e-17
-6.48125e-17
1.75603e-17
-6.47996e-17
1.82816e-17
-6.47871e-17
1.90059e-17
-6.47752e-17
1.89934e-17
-6.47638e-17
1.8982e-17
-6.4753e-17
1.89712e-17
-6.47428e-17
1.89614e-17
-6.47332e-17
1.89522e-17
-6.47243e-17
1.8944e-17
-6.4716e-17
1.89363e-17
-6.47085e-17
1.89295e-17
-6.47016e-17
1.89234e-17
-6.46955e-17
1.8918e-17
-6.46901e-17
1.89134e-17
-6.46855e-17
1.89095e-17
-6.46816e-17
1.89064e-17
-6.46784e-17
1.8904e-17
-6.4676e-17
1.89024e-17
-6.46744e-17
1.89015e-17
-6.46735e-17
1.89014e-17
-6.46734e-17
)
;

boundaryField
{
    inlet
    {
        type            cyclic;
    }
    outlet
    {
        type            cyclic;
    }
    bottom
    {
        type            symmetry;
    }
    top
    {
        type            zeroGradient;
    }
    frontAndBack
    {
        type            empty;
    }
}


// ************************************************************************* //
