/*--------------------------------*- C++ -*----------------------------------*\
  =========                 |
  \\      /  F ield         | OpenFOAM: The Open Source CFD Toolbox
   \\    /   O peration     | Website:  https://openfoam.org
    \\  /    A nd           | Version:  7
     \\/     M anipulation  |
\*---------------------------------------------------------------------------*/
FoamFile
{
    version     2.0;
    format      ascii;
    class       surfaceScalarField;
    location    "400";
    object      phi;
}
// * * * * * * * * * * * * * * * * * * * * * * * * * * * * * * * * * * * * * //

dimensions      [0 3 -1 0 0 0 0];

internalField   nonuniform List<scalar> 
268
(
0.00152957
3.45587e-19
-3.6333e-19
0.00199254
3.2809e-19
-3.40013e-19
0.00218602
3.89311e-19
-1.55279e-19
0.00228787
5.00888e-19
-3.64461e-19
0.0023467
6.56885e-19
-5.48376e-19
0.00238343
2.93788e-19
-2.03082e-19
0.00240764
1.92889e-19
-1.15428e-19
0.00242409
1.87218e-19
-1.12993e-19
0.00243536
-1.84854e-19
-1.74331e-19
0.00244295
-1.10621e-19
2.28692e-19
0.00244779
-1.49937e-20
2.16243e-19
0.0024505
1.28596e-19
1.08863e-19
0.00245149
1.69354e-19
9.97989e-20
0.00245105
-2.63388e-20
-1.75532e-19
0.00244941
5.58415e-20
-1.18202e-19
0.00244673
1.76553e-19
-1.47775e-19
0.00244312
1.99706e-19
-1.81005e-19
0.00243868
2.10185e-19
-1.86831e-19
0.00243349
2.14931e-19
-1.98971e-19
0.00242761
2.14382e-19
-2.14462e-19
0.00242108
2.14085e-19
2.01224e-19
0.00241395
2.11207e-19
1.84343e-19
0.00240626
2.10997e-19
1.70861e-19
0.00239803
2.08811e-19
1.61075e-19
0.0023893
2.09968e-19
1.54577e-19
0.00238008
2.09131e-19
1.51182e-19
0.0023704
2.09912e-19
1.5042e-19
0.00236027
2.08704e-19
1.51185e-19
0.00234972
2.09747e-19
1.54039e-19
0.00233876
2.09232e-19
1.57824e-19
0.00232742
2.10229e-19
1.62512e-19
0.00231569
2.10284e-19
1.66893e-19
0.00230361
2.12642e-19
1.72337e-19
0.00229118
2.15493e-19
1.7742e-19
0.00227842
2.19214e-19
1.83164e-19
0.00226535
2.22785e-19
1.88454e-19
0.00225197
-2.06098e-19
1.94479e-19
0.00223832
-2.00757e-19
2.00157e-19
0.00222438
-1.95438e-19
-2.27134e-19
0.0022102
-1.90033e-19
-2.21374e-19
0.00219577
-1.85551e-19
-2.15309e-19
0.00218112
-1.8153e-19
-2.09725e-19
0.00216626
-1.79375e-19
-2.03859e-19
0.0021512
-1.77652e-19
-1.98254e-19
0.00213596
-1.77768e-19
-1.92632e-19
0.00212056
-1.79935e-19
-1.86944e-19
0.00210502
-1.84667e-19
-1.81466e-19
0.00208935
-1.90922e-19
-1.75521e-19
0.00207356
-1.99979e-19
-1.69904e-19
0.00205767
2.23069e-19
-1.63378e-19
0.00204171
2.09731e-19
-1.57096e-19
0.00202569
1.95093e-19
-1.49496e-19
0.00200961
1.77264e-19
-1.41748e-19
0.00199352
1.58481e-19
-1.32303e-19
0.00197741
1.37887e-19
-1.22957e-19
0.0019613
1.15701e-19
-1.12538e-19
0.00194523
9.67013e-20
-1.00877e-19
0.00192919
6.38269e-20
-8.72968e-20
0.00191322
8.1091e-20
-7.2761e-20
0.00189732
8.53653e-20
-5.70459e-20
0.00188152
9.34053e-20
-3.92073e-20
0.00186583
1.00342e-19
-2.00999e-20
0.00185027
1.05952e-19
-4.1056e-21
0.00183486
1.10391e-19
2.63763e-20
0.00181961
1.13488e-19
6.06248e-21
0.00180454
-1.00781e-19
3.7877e-22
0.00178968
-9.86671e-20
-8.41282e-21
0.00177502
-9.78081e-20
-1.61271e-20
0.0017606
-9.79858e-20
-2.20797e-20
0.00174643
-9.95199e-20
-2.63159e-20
0.00173252
-1.01345e-19
-2.98747e-20
0.00171889
-1.03673e-19
-3.29054e-20
0.00170555
1.10083e-19
-3.49513e-20
0.00169253
1.06069e-19
-3.59625e-20
0.00167983
1.015e-19
-3.62123e-20
0.00166747
9.61201e-20
-3.56198e-20
0.00165546
9.03255e-20
-3.4413e-20
0.00164381
8.39559e-20
-3.25029e-20
0.00163255
7.73414e-20
-3.00176e-20
0.00162168
7.03877e-20
-2.76912e-20
0.00161121
6.33245e-20
-2.56643e-20
0.00160116
5.61211e-20
-2.32106e-20
0.00159153
4.89114e-20
-2.04902e-20
0.00158235
4.17053e-20
-1.75988e-20
0.00157361
3.45818e-20
-1.46244e-20
0.00156533
2.75726e-20
-1.16312e-20
0.00155751
2.07512e-20
-8.69988e-21
0.00155015
1.41879e-20
-5.89905e-21
0.00154323
7.50805e-21
-3.26319e-21
0.00153673
)
;

boundaryField
{
    inlet
    {
        type            cyclic;
        value           nonuniform List<scalar> 
90
(
-0.00152957
-0.00199254
-0.00218602
-0.00228787
-0.0023467
-0.00238343
-0.00240764
-0.00242409
-0.00243536
-0.00244295
-0.00244779
-0.0024505
-0.00245149
-0.00245105
-0.00244941
-0.00244673
-0.00244312
-0.00243868
-0.00243349
-0.00242761
-0.00242108
-0.00241395
-0.00240626
-0.00239803
-0.0023893
-0.00238008
-0.0023704
-0.00236027
-0.00234972
-0.00233876
-0.00232742
-0.00231569
-0.00230361
-0.00229118
-0.00227842
-0.00226535
-0.00225197
-0.00223832
-0.00222438
-0.0022102
-0.00219577
-0.00218112
-0.00216626
-0.0021512
-0.00213596
-0.00212056
-0.00210502
-0.00208935
-0.00207356
-0.00205767
-0.00204171
-0.00202569
-0.00200961
-0.00199352
-0.00197741
-0.0019613
-0.00194523
-0.00192919
-0.00191322
-0.00189732
-0.00188152
-0.00186583
-0.00185027
-0.00183486
-0.00181961
-0.00180454
-0.00178968
-0.00177502
-0.0017606
-0.00174643
-0.00173252
-0.00171889
-0.00170555
-0.00169253
-0.00167983
-0.00166747
-0.00165546
-0.00164381
-0.00163255
-0.00162168
-0.00161121
-0.00160116
-0.00159153
-0.00158235
-0.00157361
-0.00156533
-0.00155751
-0.00155015
-0.00154323
-0.00153673
)
;
    }
    outlet
    {
        type            cyclic;
        value           nonuniform List<scalar> 
90
(
0.00152957
0.00199254
0.00218602
0.00228787
0.0023467
0.00238343
0.00240764
0.00242409
0.00243536
0.00244295
0.00244779
0.0024505
0.00245149
0.00245105
0.00244941
0.00244673
0.00244312
0.00243868
0.00243349
0.00242761
0.00242108
0.00241395
0.00240626
0.00239803
0.0023893
0.00238008
0.0023704
0.00236027
0.00234972
0.00233876
0.00232742
0.00231569
0.00230361
0.00229118
0.00227842
0.00226535
0.00225197
0.00223832
0.00222438
0.0022102
0.00219577
0.00218112
0.00216626
0.0021512
0.00213596
0.00212056
0.00210502
0.00208935
0.00207356
0.00205767
0.00204171
0.00202569
0.00200961
0.00199352
0.00197741
0.0019613
0.00194523
0.00192919
0.00191322
0.00189732
0.00188152
0.00186583
0.00185027
0.00183486
0.00181961
0.00180454
0.00178968
0.00177502
0.0017606
0.00174643
0.00173252
0.00171889
0.00170555
0.00169253
0.00167983
0.00166747
0.00165546
0.00164381
0.00163255
0.00162168
0.00161121
0.00160116
0.00159153
0.00158235
0.00157361
0.00156533
0.00155751
0.00155015
0.00154323
0.00153673
)
;
    }
    bottom
    {
        type            symmetry;
        value           uniform 0;
    }
    top
    {
        type            calculated;
        value           uniform 0;
    }
    frontAndBack
    {
        type            empty;
        value           nonuniform 0();
    }
}


// ************************************************************************* //
