/*--------------------------------*- C++ -*----------------------------------*\
  =========                 |
  \\      /  F ield         | OpenFOAM: The Open Source CFD Toolbox
   \\    /   O peration     | Website:  https://openfoam.org
    \\  /    A nd           | Version:  7
     \\/     M anipulation  |
\*---------------------------------------------------------------------------*/
FoamFile
{
    version     2.0;
    format      ascii;
    class       volVectorField;
    location    "400";
    object      U;
}
// * * * * * * * * * * * * * * * * * * * * * * * * * * * * * * * * * * * * * //

dimensions      [0 1 -1 0 0 0 0];

internalField   nonuniform List<vector> 
180
(
(1.33165 -4.36638e-19 0)
(1.43987 -2.01156e-19 0)
(1.79923 1.29096e-18 0)
(1.7953 -8.94321e-19 0)
(1.97732 6.40287e-19 0)
(1.96174 -4.36103e-19 0)
(2.0663 7.72333e-19 0)
(2.05441 -4.59913e-19 0)
(2.11684 1.18344e-18 0)
(2.1089 -9.57824e-19 0)
(2.14835 9.21271e-19 0)
(2.14302 -7.52585e-19 0)
(2.16922 4.54004e-19 0)
(2.16543 -3.01554e-19 0)
(2.18351 3.54555e-19 0)
(2.18058 -2.18641e-19 0)
(2.19337 -6.49626e-20 0)
(2.19088 -2.79798e-19 0)
(2.20005 -3.11534e-19 0)
(2.19777 9.32605e-20 0)
(2.20433 -1.44007e-19 0)
(2.20213 4.63821e-19 0)
(2.20673 8.58364e-20 0)
(2.20455 3.57736e-19 0)
(2.20761 3.75746e-19 0)
(2.20541 1.20802e-19 0)
(2.20722 6.89821e-20 0)
(2.20499 -3.49841e-20 0)
(2.20574 -1.58327e-20 0)
(2.20349 -2.41256e-19 0)
(2.20333 3.23088e-19 0)
(2.20105 -3.53608e-19 0)
(2.20009 3.84054e-19 0)
(2.19777 -3.23109e-19 0)
(2.1961 4.14811e-19 0)
(2.19376 -3.60999e-19 0)
(2.19144 4.27922e-19 0)
(2.18906 -3.86042e-19 0)
(2.18615 4.30762e-19 0)
(2.18374 -4.10782e-19 0)
(2.18029 4.29396e-19 0)
(2.17785 -3.23178e-21 0)
(2.17389 4.25278e-19 0)
(2.17141 3.8333e-19 0)
(2.16698 4.22405e-19 0)
(2.16447 3.52472e-19 0)
(2.15959 4.19648e-19 0)
(2.15704 3.29418e-19 0)
(2.15175 4.18385e-19 0)
(2.14915 3.1359e-19 0)
(2.14347 4.19564e-19 0)
(2.14083 3.034e-19 0)
(2.13478 4.19535e-19 0)
(2.13209 3.0036e-19 0)
(2.12569 4.18338e-19 0)
(2.12295 3.00073e-19 0)
(2.11621 4.18646e-19 0)
(2.11343 3.04052e-19 0)
(2.10638 4.18886e-19 0)
(2.10354 3.10857e-19 0)
(2.09619 4.19797e-19 0)
(2.0933 3.20097e-19 0)
(2.08566 4.20005e-19 0)
(2.08272 3.28715e-19 0)
(2.07482 4.22344e-19 0)
(2.07181 3.38725e-19 0)
(2.06366 4.27542e-19 0)
(2.0606 3.49435e-19 0)
(2.05221 4.35154e-19 0)
(2.04908 3.6025e-19 0)
(2.04047 4.41397e-19 0)
(2.03728 3.7129e-19 0)
(2.02846 1.28028e-20 0)
(2.02521 3.82618e-19 0)
(2.0162 -4.06771e-19 0)
(2.01289 3.9429e-19 0)
(2.0037 -3.95999e-19 0)
(2.00031 -3.02898e-20 0)
(1.99096 -3.8511e-19 0)
(1.98751 -4.48414e-19 0)
(1.97802 -3.75052e-19 0)
(1.97449 -4.36638e-19 0)
(1.96486 -3.66399e-19 0)
(1.96127 -4.25009e-19 0)
(1.95152 -3.59912e-19 0)
(1.94785 -4.13563e-19 0)
(1.93801 -3.56795e-19 0)
(1.93426 -4.02098e-19 0)
(1.92433 -3.54097e-19 0)
(1.92051 -3.90879e-19 0)
(1.91051 -3.56172e-19 0)
(1.90661 -3.79586e-19 0)
(1.89656 -3.63918e-19 0)
(1.89258 -3.68451e-19 0)
(1.88249 -3.73947e-19 0)
(1.87844 -3.57071e-19 0)
(1.86832 -3.90146e-19 0)
(1.86419 -3.45568e-19 0)
(1.85407 2.64289e-20 0)
(1.84985 -3.33492e-19 0)
(1.83974 4.33359e-19 0)
(1.83544 -3.20767e-19 0)
(1.82536 4.06154e-19 0)
(1.82098 -3.06975e-19 0)
(1.81094 3.73622e-19 0)
(1.80647 -2.9174e-19 0)
(1.79649 3.35958e-19 0)
(1.79194 -2.74689e-19 0)
(1.78203 2.97434e-19 0)
(1.7774 -2.55123e-19 0)
(1.76758 2.54552e-19 0)
(1.76287 -2.36299e-19 0)
(1.75315 2.07842e-19 0)
(1.74836 -2.14205e-19 0)
(1.73877 1.57485e-19 0)
(1.73388 -1.8911e-19 0)
(1.72443 1.41027e-19 0)
(1.71946 -1.60206e-19 0)
(1.71016 1.61882e-19 0)
(1.70511 -1.30809e-19 0)
(1.69598 1.79403e-19 0)
(1.69085 -9.73394e-20 0)
(1.68191 1.94366e-19 0)
(1.67668 -5.95594e-20 0)
(1.66794 2.06907e-19 0)
(1.66264 -2.07302e-20 0)
(1.65412 2.16982e-19 0)
(1.64872 2.60124e-20 0)
(1.64044 2.24565e-19 0)
(1.63496 3.6076e-20 0)
(1.62692 1.21746e-20 0)
(1.62136 9.81903e-21 0)
(1.61358 -1.98775e-19 0)
(1.60793 -8.24075e-21 0)
(1.60043 -1.95908e-19 0)
(1.5947 -2.54355e-20 0)
(1.58749 -1.95176e-19 0)
(1.58168 -3.90715e-20 0)
(1.57478 -1.96841e-19 0)
(1.56889 -4.92208e-20 0)
(1.5623 -2.01043e-19 0)
(1.55633 -5.60915e-20 0)
(1.55008 -2.04451e-19 0)
(1.54402 -6.33419e-20 0)
(1.53811 7.07014e-21 0)
(1.53198 -6.83595e-20 0)
(1.52643 2.16537e-19 0)
(1.52022 -7.13636e-20 0)
(1.51504 2.07923e-19 0)
(1.50875 -7.25766e-20 0)
(1.50395 1.97929e-19 0)
(1.49758 -7.21921e-20 0)
(1.49318 1.86703e-19 0)
(1.48673 -7.03614e-20 0)
(1.48274 1.74486e-19 0)
(1.47622 -6.72276e-20 0)
(1.47264 1.61451e-19 0)
(1.46604 -6.28368e-20 0)
(1.46289 1.47837e-19 0)
(1.45622 -5.7191e-20 0)
(1.4535 1.33779e-19 0)
(1.44677 -5.35993e-20 0)
(1.44449 1.19478e-19 0)
(1.43769 -4.90401e-20 0)
(1.43587 1.05035e-19 0)
(1.42899 -4.38076e-20 0)
(1.42763 9.05931e-20 0)
(1.42069 -3.81499e-20 0)
(1.4198 7.62382e-20 0)
(1.41279 -3.22456e-20 0)
(1.41238 6.20783e-20 0)
(1.4053 -2.62427e-20 0)
(1.40537 4.82145e-20 0)
(1.39823 -2.02824e-20 0)
(1.39878 3.47881e-20 0)
(1.39158 -1.45131e-20 0)
(1.39258 2.18681e-20 0)
(1.38532 -8.98124e-21 0)
(1.38674 6.92945e-21 0)
(1.37942 -2.82923e-21 0)
)
;

boundaryField
{
    inlet
    {
        type            cyclic;
    }
    outlet
    {
        type            cyclic;
    }
    bottom
    {
        type            symmetry;
    }
    top
    {
        type            noSlip;
    }
    frontAndBack
    {
        type            empty;
    }
}


// ************************************************************************* //
