/*--------------------------------*- C++ -*----------------------------------*\
  =========                 |
  \\      /  F ield         | OpenFOAM: The Open Source CFD Toolbox
   \\    /   O peration     | Website:  https://openfoam.org
    \\  /    A nd           | Version:  7
     \\/     M anipulation  |
\*---------------------------------------------------------------------------*/
FoamFile
{
    version     2.0;
    format      ascii;
    class       volScalarField;
    location    "72";
    object      k;
}
// * * * * * * * * * * * * * * * * * * * * * * * * * * * * * * * * * * * * * //

dimensions      [0 2 -2 0 0 0 0];

internalField   nonuniform List<scalar> 
12842
(
0.00570082
0.00510884
0.00475287
0.00449577
0.00432789
0.00419529
0.00411256
0.00404285
0.0039975
0.00396388
0.00393969
0.00393309
0.00394047
0.00396201
0.00399175
0.00401591
0.00403929
0.00406413
0.00407754
0.00409448
0.00410335
0.00410955
0.00411353
0.00568071
0.00507686
0.0047077
0.00447603
0.00432017
0.00419244
0.00411136
0.00404233
0.00399712
0.0039636
0.0039388
0.00393259
0.00394105
0.00396373
0.00399355
0.00401566
0.00403772
0.0040683
0.00407744
0.0040931
0.00410235
0.00410871
0.00411327
0.00564617
0.00503127
0.00466855
0.0044209
0.0042738
0.00416084
0.00409011
0.00402702
0.0039869
0.00395532
0.00393258
0.00392992
0.00394037
0.0039654
0.00399832
0.0040195
0.00404065
0.00406577
0.00407739
0.00409397
0.00410393
0.00410869
0.00411286
0.00560685
0.00498413
0.00461006
0.00438445
0.00425161
0.00414557
0.00407943
0.00401932
0.00398177
0.00395118
0.00392927
0.00392906
0.00394114
0.00396878
0.00400201
0.00402183
0.0040421
0.00406633
0.00407768
0.00409425
0.00410371
0.00411059
0.00411343
0.00555659
0.00492837
0.00457795
0.00433734
0.00420179
0.00410855
0.00405249
0.0039996
0.00396827
0.00393987
0.00392206
0.00392543
0.00394098
0.00397175
0.00400579
0.00402545
0.00404474
0.00406908
0.00408034
0.0040945
0.00410142
0.00410829
0.00411261
0.00551507
0.00486713
0.00451627
0.00430415
0.00418052
0.00409273
0.00404037
0.00399061
0.00396181
0.0039344
0.00391886
0.00392337
0.00394152
0.00397539
0.00400829
0.00402877
0.00404658
0.00407264
0.00408354
0.00409437
0.00410352
0.0041077
0.00411291
0.00546581
0.00481633
0.00448189
0.00426287
0.0041397
0.00406066
0.0040152
0.00397185
0.00394793
0.00392274
0.00391245
0.00391948
0.00394173
0.00397952
0.0040113
0.00403267
0.00404953
0.00407551
0.00408541
0.00409586
0.00410256
0.00410967
0.00411334
0.00542466
0.00476512
0.00442781
0.00423044
0.00411928
0.00404756
0.00400485
0.00396399
0.00394175
0.00391757
0.00390943
0.00391708
0.00394158
0.00398228
0.00401366
0.00403606
0.0040531
0.00407889
0.00408946
0.00409745
0.00410801
0.00411136
0.00411343
0.00537688
0.00472203
0.00440417
0.00420249
0.00409308
0.00402493
0.00398579
0.00394953
0.00393012
0.00390855
0.00390496
0.00391415
0.00394159
0.00398355
0.00401397
0.00403696
0.00405395
0.00408008
0.00409122
0.00409797
0.0041087
0.00411558
0.0041169
0.00533186
0.00466868
0.00435391
0.00417317
0.00407358
0.00401375
0.00397826
0.00394361
0.00392518
0.00390494
0.00390332
0.00391319
0.00394125
0.00398562
0.00401514
0.00403805
0.00405552
0.00408166
0.00409366
0.00410002
0.00410991
0.00411983
0.00412126
0.00527981
0.00462835
0.00433283
0.00415001
0.00405697
0.00399913
0.00396393
0.00393237
0.0039163
0.00389921
0.00390055
0.00391195
0.00394348
0.00398862
0.00401617
0.00403922
0.00405652
0.00408288
0.00409499
0.00410147
0.00411181
0.00412308
0.00412526
0.00523348
0.00458051
0.0042906
0.00412457
0.00403857
0.00398689
0.00395693
0.00392632
0.00391174
0.00389662
0.00389918
0.00391157
0.0039431
0.00399075
0.00401792
0.0040407
0.00405877
0.00408506
0.00409787
0.00410391
0.00411292
0.00412612
0.00412847
0.00518357
0.00454372
0.00427135
0.00410404
0.0040264
0.00397655
0.00394436
0.003916
0.00390403
0.00389208
0.00389663
0.00391029
0.00394323
0.00399399
0.0040193
0.00404224
0.00406005
0.00408633
0.00409998
0.00410657
0.00411597
0.00412958
0.00413233
0.0051388
0.00450318
0.00423681
0.00408219
0.00401085
0.00396391
0.00393779
0.00390972
0.00389981
0.00388996
0.00389528
0.00390978
0.00394375
0.00399687
0.00402164
0.0040444
0.00406325
0.00408925
0.0041043
0.00410926
0.00411907
0.00413486
0.00413804
0.00509304
0.00447012
0.00421902
0.00406522
0.00400065
0.00395605
0.00392662
0.00390056
0.00389319
0.00388592
0.00389268
0.00390875
0.00394479
0.00400157
0.00402384
0.00404624
0.00406526
0.00409143
0.00410774
0.00411441
0.00412712
0.00414622
0.00415293
0.00505182
0.00443736
0.00419073
0.0040459
0.00398808
0.00394438
0.00392095
0.00389454
0.00388938
0.00388392
0.0038913
0.00390687
0.00394567
0.0040064
0.00402717
0.00404889
0.00406977
0.00409718
0.00411538
0.00412002
0.00413801
0.00416372
0.00418235
0.00501137
0.00440818
0.00417337
0.0040327
0.00397837
0.00393711
0.00391138
0.00388741
0.00388406
0.00388005
0.00388852
0.00390727
0.00394752
0.00401114
0.00402968
0.0040506
0.00407276
0.00410189
0.00412192
0.00413259
0.00416368
0.00419201
0.00422051
0.00497472
0.00438244
0.00415024
0.00401592
0.0039668
0.00392703
0.00390684
0.00388202
0.00388052
0.00387793
0.00388708
0.00390723
0.00394926
0.00401721
0.00403368
0.00405386
0.00407955
0.00411361
0.00413761
0.00414929
0.00419563
0.00423516
0.00428366
0.00494004
0.00435729
0.00413333
0.00400538
0.00395743
0.00391939
0.00389862
0.00387693
0.00387653
0.00387457
0.00388429
0.00390688
0.00395135
0.00402194
0.00403648
0.00405618
0.00408459
0.00412345
0.00415485
0.00418297
0.00424404
0.00428877
0.00435166
0.00490834
0.0043365
0.00411451
0.00399095
0.00394526
0.00391028
0.00389471
0.00387224
0.00387307
0.00387205
0.00388275
0.00390713
0.00395382
0.00402961
0.00404092
0.00406126
0.00409633
0.00414955
0.00418961
0.00422671
0.004305
0.00436632
0.00445148
0.00487914
0.00431621
0.00409891
0.00398209
0.00393661
0.00390274
0.00388704
0.00386817
0.00386989
0.00386935
0.00387992
0.00390685
0.00395631
0.00403585
0.00404418
0.0040665
0.00410692
0.00417707
0.00422784
0.00428848
0.00438049
0.00445287
0.00455515
0.00485225
0.00429742
0.00408327
0.00396877
0.00392402
0.00389387
0.00388315
0.00386415
0.00386658
0.00386609
0.00387765
0.00390707
0.00396085
0.00405057
0.00404849
0.00407656
0.00413306
0.0042289
0.00428926
0.00436858
0.00447651
0.00457202
0.00469822
0.00482747
0.00428244
0.00406966
0.00396075
0.00391603
0.00388693
0.00387544
0.00386018
0.00386313
0.00386341
0.00387455
0.0039061
0.00396449
0.00406198
0.00405476
0.00409614
0.00416717
0.00428546
0.00435824
0.00446653
0.00459209
0.0047095
0.00485602
0.00480781
0.00426951
0.00405917
0.00395135
0.00390682
0.00388004
0.00387182
0.00385714
0.00386013
0.00385976
0.00387189
0.00390894
0.00396888
0.00407406
0.00406392
0.00412506
0.00422055
0.00436751
0.00445624
0.00459201
0.00473474
0.00488141
0.00505049
0.00479191
0.00426133
0.00405171
0.0039462
0.00390155
0.00387636
0.00386722
0.00385401
0.0038562
0.00385693
0.00386999
0.00390935
0.00397121
0.00408444
0.00408431
0.00417329
0.00429417
0.00446735
0.00457303
0.00473984
0.00490357
0.00507819
0.00526528
0.00477882
0.00425227
0.00404522
0.00393994
0.00389692
0.00387246
0.003864
0.00385041
0.00385316
0.00385376
0.00386872
0.00390927
0.00397382
0.00408518
0.00411741
0.00423507
0.00438474
0.00458825
0.00471447
0.00491396
0.00509723
0.00530096
0.00550387
0.00476286
0.00424487
0.00403787
0.00393472
0.00389206
0.00386951
0.00385964
0.00384619
0.0038479
0.00385078
0.00386814
0.00390759
0.00397727
0.00409322
0.00416688
0.0043182
0.00449858
0.00472956
0.00487731
0.00510166
0.00530426
0.00553279
0.00574752
0.00475202
0.00423649
0.00403107
0.00392828
0.00388848
0.0038667
0.00385586
0.00384107
0.00384404
0.00384822
0.00386802
0.00390903
0.00398454
0.00411226
0.00423657
0.00442046
0.00462902
0.0048851
0.00505983
0.0053139
0.00553538
0.00578611
0.00600769
0.0047368
0.00422818
0.00402332
0.00392289
0.0038846
0.00386385
0.00385064
0.00383612
0.00384027
0.00384622
0.00386932
0.00391217
0.00400145
0.00416011
0.00432383
0.00453975
0.00477616
0.00505461
0.00525672
0.00553012
0.00576456
0.00602444
0.00624028
0.00472791
0.00422013
0.00401604
0.00391665
0.00388164
0.00386122
0.00384772
0.00383101
0.00383643
0.00384695
0.00388079
0.00393124
0.00404268
0.00422669
0.00443382
0.00467993
0.00493948
0.00523399
0.00545997
0.00575246
0.00599575
0.0062637
0.00647647
0.00471418
0.00421061
0.00400765
0.00391175
0.00387817
0.00385704
0.00384166
0.00382658
0.00383511
0.00385377
0.00390619
0.00396828
0.00410148
0.00432164
0.00455942
0.0048286
0.00510713
0.00541559
0.00566005
0.00596291
0.00621178
0.00647524
0.00667062
0.00470692
0.00420264
0.00399967
0.00390646
0.00387469
0.00385278
0.00383907
0.00382303
0.00383622
0.00387698
0.00395039
0.00402727
0.00418479
0.00443061
0.0047035
0.00499461
0.00528745
0.00560194
0.00586385
0.00617247
0.00642004
0.00667873
0.00686404
0.00469506
0.00419161
0.00399035
0.00390138
0.00387051
0.00384737
0.00383408
0.00382317
0.00384723
0.00391542
0.00400775
0.00409999
0.00428138
0.00456301
0.00485775
0.00515916
0.00546077
0.00577934
0.00604435
0.00635354
0.00659948
0.0068464
0.00701161
0.00468914
0.00418368
0.00398116
0.00389596
0.00386464
0.00384209
0.00383369
0.00383028
0.00387536
0.00397257
0.00408341
0.00419391
0.00440053
0.00470415
0.0050223
0.00533414
0.00563891
0.00595369
0.00622937
0.00653317
0.00677295
0.00700745
0.00715823
0.00467897
0.00417071
0.0039701
0.00388881
0.00385934
0.00383726
0.00383329
0.00385195
0.00392127
0.0040427
0.00416845
0.00429456
0.00452258
0.00485654
0.00518852
0.00549849
0.00580327
0.00611366
0.00638069
0.00667743
0.00690946
0.0071294
0.00726311
0.00467423
0.00416204
0.00395908
0.00388205
0.00385288
0.00383326
0.00384628
0.00389131
0.00398459
0.00412874
0.00426849
0.00441294
0.00466384
0.00501513
0.00535853
0.00566713
0.0059651
0.00626429
0.00653377
0.00681885
0.00704486
0.00725154
0.00737072
0.00466531
0.00414763
0.00394544
0.00387438
0.00384755
0.00383448
0.00386996
0.00394559
0.00406102
0.00422282
0.00437233
0.00453
0.00479652
0.00516959
0.00551967
0.00581741
0.00610811
0.00639724
0.00665627
0.0069304
0.00714604
0.00733715
0.00744351
0.00466113
0.00413654
0.00393411
0.00386771
0.00384629
0.00384339
0.00391524
0.00401499
0.00415264
0.00432829
0.00448689
0.00466001
0.00494377
0.00532993
0.00568247
0.00596896
0.00624712
0.006522
0.00677396
0.00703562
0.00724759
0.00742775
0.00752061
0.00465266
0.00412227
0.00391944
0.00386204
0.00385097
0.00386858
0.00396915
0.00409607
0.00425052
0.00443604
0.00459957
0.00478165
0.00507413
0.00547382
0.0058265
0.00609689
0.00636219
0.00662443
0.00687147
0.00712201
0.00732317
0.00748715
0.0075753
0.00464848
0.00410851
0.00391084
0.00386332
0.00386518
0.00390962
0.0040418
0.00418714
0.00435852
0.00455073
0.00471854
0.00491162
0.00521403
0.00562195
0.00597245
0.00622514
0.006476
0.00672482
0.00695849
0.00719839
0.00739829
0.00755534
0.0076289
0.00463944
0.00409287
0.00390223
0.00386968
0.00389833
0.00396752
0.00411998
0.00428511
0.00446757
0.00466209
0.00483104
0.00502761
0.0053322
0.00574778
0.00609372
0.00632798
0.00656357
0.00680022
0.00703327
0.00726533
0.00745625
0.00759643
0.00767631
0.00463469
0.00407951
0.00389555
0.00389171
0.00394402
0.00403945
0.00421197
0.00438816
0.00458062
0.00477669
0.00494554
0.00514889
0.00545709
0.00587361
0.00621686
0.0064311
0.00665226
0.00687873
0.00710068
0.00732476
0.00751297
0.00765012
0.00771761
0.00462435
0.00406629
0.00389558
0.00392534
0.00400625
0.00412333
0.00430548
0.00449352
0.00469053
0.00488322
0.00505081
0.00525202
0.00555693
0.00597479
0.00631411
0.00650959
0.00671595
0.00693252
0.00715204
0.00737128
0.00755497
0.00768015
0.0077578
0.00461864
0.0040556
0.00390132
0.00397494
0.00407941
0.00421681
0.0044073
0.00459916
0.00479959
0.00499034
0.0051542
0.00535924
0.00566391
0.00607601
0.006413
0.00658946
0.00678271
0.00699374
0.00720945
0.00742488
0.00760404
0.00772789
0.00780246
0.00460662
0.00404505
0.00392081
0.00403455
0.00416261
0.00431533
0.00450646
0.00470314
0.00490207
0.00508604
0.0052475
0.00544613
0.00574384
0.00615275
0.00648699
0.00664649
0.00682664
0.00703098
0.00724239
0.00745533
0.00763211
0.00775308
0.00783168
0.00459853
0.00404222
0.0039531
0.00410546
0.00425364
0.0044188
0.0046094
0.00480399
0.00500045
0.00518067
0.00533604
0.00553673
0.00583283
0.0062358
0.00656337
0.00670676
0.00687603
0.00707887
0.0072903
0.00750281
0.00767735
0.00779928
0.0078825
0.00458594
0.00404255
0.00399652
0.00418364
0.00434761
0.00452064
0.00470629
0.00489932
0.00508946
0.00526243
0.00541454
0.00560707
0.00589463
0.00629186
0.00661621
0.00674645
0.00690526
0.00710529
0.0073151
0.00752766
0.00770083
0.00782475
0.00791251
0.0045743
0.00405316
0.00405377
0.00426658
0.00444503
0.00462278
0.004802
0.00498895
0.00517341
0.00534178
0.00548716
0.00568069
0.00596707
0.00636092
0.00667283
0.00679096
0.00694177
0.00714379
0.00735689
0.00757094
0.00774482
0.0078762
0.00797038
0.00456409
0.0040724
0.00411511
0.00435606
0.00454343
0.00472242
0.00489407
0.0050753
0.00524998
0.0054112
0.00555168
0.00573793
0.00601526
0.00640239
0.00670842
0.00681713
0.00696088
0.00716371
0.00737653
0.00759326
0.00777165
0.00791283
0.00801416
0.00455531
0.00410833
0.00419429
0.00445041
0.00464506
0.0048221
0.00498553
0.00515846
0.00532511
0.00547853
0.0056132
0.00579765
0.00607269
0.0064551
0.00674578
0.00684513
0.00698273
0.00718826
0.00740766
0.00763167
0.00782088
0.00799182
0.00813438
0.00454656
0.00415627
0.00427431
0.00454667
0.0047442
0.00491597
0.00507229
0.00523707
0.00539226
0.00553552
0.00566405
0.00584345
0.00610922
0.00648421
0.0067647
0.00685695
0.00699056
0.00719952
0.00742308
0.00765499
0.00785406
0.00804304
0.00820061
0.00454526
0.00421914
0.00436456
0.00464211
0.00483845
0.0050023
0.00515374
0.00530695
0.00545307
0.00558524
0.00571048
0.00588677
0.0061504
0.006518
0.00678396
0.00687036
0.00700155
0.00721404
0.00744963
0.00770178
0.00794149
0.00822217
0.00859052
0.00454839
0.00429117
0.00445402
0.00473449
0.00492907
0.00508301
0.00523042
0.00536974
0.0055038
0.00562736
0.00574844
0.00592099
0.00617726
0.00653845
0.00679342
0.00687597
0.00700679
0.00722302
0.0074667
0.00773305
0.00799091
0.00833183
0.00883686
0.00456257
0.00437535
0.00454829
0.004825
0.00501314
0.00515606
0.00529851
0.00542252
0.00554563
0.00566263
0.0057828
0.00595288
0.00620772
0.00656201
0.00680374
0.00688371
0.00701532
0.00723968
0.00750773
0.00781283
0.00820035
0.00881082
0.00989648
0.00458813
0.00446407
0.00464059
0.00490934
0.00509139
0.00522279
0.00535901
0.00546726
0.00557821
0.00569274
0.00581128
0.00597841
0.00622881
0.00657726
0.00680861
0.006888
0.0070219
0.00725089
0.00753113
0.00788694
0.00831313
0.00905758
0.0108743
0.004624
0.00455997
0.00473393
0.00499088
0.00516255
0.00528316
0.00540981
0.0055048
0.00560413
0.00571799
0.00583713
0.00600208
0.00625211
0.00659563
0.00681536
0.00689517
0.00703414
0.00727705
0.00760853
0.00803863
0.00868652
0.0100919
0.0132383
0.00466529
0.00465053
0.00481909
0.00506057
0.00522168
0.00533282
0.00544929
0.00553377
0.00562315
0.00573808
0.00585712
0.00601949
0.00626856
0.00660884
0.00681931
0.00690162
0.00704684
0.00729414
0.00764352
0.00818081
0.00882402
0.0102861
0.0157435
0.00470858
0.00473532
0.00489754
0.00512366
0.00527277
0.00537633
0.00548168
0.00555896
0.00563945
0.00575497
0.005875
0.00603477
0.00628492
0.00662325
0.00682536
0.00691271
0.00706706
0.00734614
0.00774447
0.00830574
0.009094
0.0111606
0.0183275
0.00475555
0.00481678
0.00497311
0.00518177
0.00531857
0.00541536
0.0055096
0.00558105
0.00565417
0.00577085
0.00589153
0.00604918
0.00630197
0.00664024
0.00683517
0.00693153
0.00709707
0.00739484
0.00779573
0.00838776
0.00926904
0.0118342
0.0236043
0.0048029
0.00489208
0.00504281
0.00523423
0.00535834
0.00544966
0.00553266
0.00560078
0.00566783
0.00578449
0.00590651
0.00606224
0.00631996
0.00666012
0.00684933
0.00695812
0.0071447
0.00747386
0.00790972
0.0084299
0.00950944
0.0145344
0.0294334
0.00485292
0.00496241
0.00510905
0.00528304
0.0053941
0.00548032
0.00555298
0.00561862
0.00568102
0.00579746
0.00592054
0.00607495
0.0063397
0.00668386
0.0068692
0.00699408
0.00720096
0.00755713
0.00800008
0.00885
0.0114365
0.0201794
0.040117
0.0049011
0.00502526
0.00516856
0.00532566
0.00542508
0.00550737
0.00557044
0.00563468
0.00569364
0.00580917
0.00593334
0.00608727
0.00636128
0.0067114
0.00689441
0.00703717
0.00727374
0.00767438
0.00828552
0.00955328
0.0138007
0.0264549
0.0518927
0.00495086
0.00508262
0.00522431
0.00536597
0.00545363
0.00553129
0.00558629
0.00564964
0.00570613
0.00581998
0.00594553
0.0060989
0.00638439
0.00674285
0.00692537
0.00708829
0.00735859
0.00780822
0.00863027
0.0109547
0.0175015
0.0312327
0.060863
0.00499816
0.00513348
0.00527357
0.00540078
0.00547863
0.00555318
0.0056013
0.00566364
0.0057177
0.00583038
0.00595622
0.0061107
0.00640968
0.00677774
0.00696128
0.00714482
0.00744723
0.00799963
0.00922466
0.0123247
0.0205048
0.0337351
0.0661198
0.00504572
0.00517928
0.00531895
0.00543365
0.00550264
0.00557239
0.00561516
0.00567667
0.00572959
0.00583974
0.005967
0.00612157
0.00643541
0.00681519
0.00700133
0.00720574
0.00755359
0.00821764
0.00980129
0.0138917
0.0225349
0.0346781
0.0681335
0.00509067
0.00522024
0.00535898
0.00546262
0.00552388
0.00559037
0.00562931
0.00568977
0.00573984
0.00584873
0.00597711
0.00613223
0.00646236
0.00685479
0.00704471
0.007269
0.00765556
0.0084491
0.010279
0.0145873
0.0231861
0.0355101
0.068331
0.00513519
0.00525721
0.005395
0.00548967
0.00554525
0.00560713
0.0056431
0.00570182
0.00575114
0.0058573
0.00598488
0.00614324
0.00648969
0.00689533
0.00708997
0.00733284
0.00777149
0.00868627
0.0106654
0.0149812
0.0242483
0.0369357
0.0711812
0.00517698
0.00529147
0.00542769
0.00551402
0.00556427
0.00562212
0.00565664
0.00571443
0.00576036
0.00586489
0.00599357
0.00615256
0.00651635
0.00693713
0.00713589
0.00739583
0.00787853
0.00886173
0.0107009
0.0152657
0.0239979
0.0394018
0.0688393
0.00521787
0.00532177
0.00545643
0.00553726
0.00558417
0.00563784
0.00567094
0.00572615
0.0057712
0.00587271
0.00599975
0.00616344
0.00654506
0.00697841
0.00718129
0.00745565
0.00797519
0.00897118
0.0107521
0.0155111
0.024474
0.0385453
0.0705863
0.00525651
0.00535244
0.00548344
0.00555792
0.00560203
0.00565141
0.00568463
0.0057386
0.00577993
0.0058791
0.00600163
0.00617159
0.00657114
0.00701986
0.0072245
0.00751114
0.0080392
0.00901296
0.01082
0.0152743
0.0248226
0.0386038
0.0698449
0.00529384
0.00537859
0.00550837
0.00557864
0.00562117
0.00566663
0.0056982
0.00575008
0.00579051
0.00588652
0.00600646
0.00617759
0.00659876
0.00705931
0.00726473
0.00755696
0.00808164
0.0090287
0.0108409
0.0152525
0.0241428
0.0402007
0.071125
0.00532929
0.00540679
0.00553098
0.00559771
0.00563847
0.00567986
0.00571312
0.00576234
0.00579936
0.00589167
0.00600603
0.00617969
0.00662328
0.00709575
0.0072988
0.00759339
0.00810241
0.00905429
0.0108549
0.0152491
0.0241847
0.0390397
0.0681782
0.00536319
0.00543147
0.00555421
0.00561505
0.00565751
0.00569529
0.00572527
0.00577379
0.00580935
0.0058996
0.00600759
0.00618027
0.00664702
0.00712877
0.00732723
0.00762178
0.00811581
0.00902893
0.0108816
0.015188
0.024566
0.0396308
0.0680996
0.00539499
0.00545778
0.00557531
0.0056339
0.00567405
0.00570804
0.0057401
0.00578555
0.00581855
0.00590655
0.00600881
0.00618256
0.00666342
0.00715441
0.00734803
0.0076274
0.00811014
0.00902773
0.0108717
0.0151587
0.0241908
0.0386968
0.0689827
0.00542508
0.00548163
0.00559491
0.00565001
0.00569284
0.00572344
0.00575292
0.00579624
0.00582755
0.00591061
0.00600859
0.00618172
0.00667547
0.00717692
0.00736103
0.00763134
0.00810761
0.00903824
0.0108681
0.0152014
0.0237115
0.0376355
0.0642087
0.00545464
0.00550633
0.00561769
0.00566569
0.00570872
0.00573627
0.0057669
0.00580946
0.00583719
0.00591468
0.00600829
0.00618285
0.0066756
0.00718549
0.00736735
0.00763407
0.00810547
0.00902883
0.0108812
0.0147009
0.0221095
0.0343765
0.0564003
0.00548383
0.00553318
0.00563518
0.00568844
0.00572666
0.00575201
0.00578127
0.00581906
0.00584526
0.00591434
0.00600909
0.00618314
0.00667937
0.00719354
0.00736884
0.00763652
0.00810583
0.0090318
0.0106855
0.0139008
0.0200774
0.0303739
0.0479224
0.00551691
0.00555499
0.00565916
0.00570507
0.00574359
0.00576644
0.00579911
0.00583347
0.00585859
0.0059149
0.00600698
0.00618254
0.00668063
0.00719351
0.00736848
0.0076269
0.00808478
0.00895034
0.0103605
0.012979
0.0179512
0.0262763
0.0400517
0.00554599
0.00558724
0.00568311
0.00572295
0.00576395
0.00578513
0.00580841
0.00584616
0.00586772
0.00591586
0.00600697
0.0061829
0.00668032
0.00719426
0.00735996
0.00760292
0.00802701
0.00881342
0.00997585
0.0120546
0.0159471
0.0224807
0.0331319
0.00557292
0.00561338
0.00570489
0.0057266
0.00578187
0.00580093
0.00582403
0.00585423
0.00587257
0.0059178
0.00600784
0.00618041
0.00668089
0.00719264
0.00734103
0.00756266
0.00794457
0.00864161
0.00957725
0.0111967
0.0141837
0.0191957
0.0273138
0.00557539
0.00563473
0.00571332
0.00573091
0.00579354
0.00581136
0.00583022
0.00586038
0.00587871
0.00591752
0.00600536
0.00617989
0.00667633
0.00717987
0.00731285
0.00751473
0.00785032
0.0084567
0.00919753
0.0104439
0.0126988
0.0164687
0.0225717
0.00558809
0.00564152
0.00571739
0.00573888
0.00580404
0.00581867
0.00583092
0.00586579
0.00587719
0.00591638
0.00600689
0.00617998
0.00667536
0.00715873
0.00727977
0.00746058
0.00775205
0.00827097
0.00885286
0.00980861
0.0115027
0.0143096
0.0188452
0.00558404
0.00564345
0.0057221
0.00574778
0.00580327
0.00582512
0.00583174
0.00586383
0.00587762
0.00591626
0.0060049
0.00617684
0.00667413
0.00712931
0.00724139
0.00740617
0.00765943
0.00809667
0.00855483
0.00929043
0.010563
0.0126442
0.015994
0.00559298
0.00565582
0.00573006
0.00574752
0.00580901
0.0058234
0.00583278
0.00586322
0.00588087
0.0059176
0.00600578
0.00617622
0.00666492
0.00709644
0.00720427
0.00735545
0.0075789
0.00794239
0.00830655
0.00888002
0.00985162
0.0114145
0.0138762
0.00558781
0.00565496
0.00572706
0.00574892
0.00580525
0.00582312
0.00583307
0.00586386
0.00588073
0.00591888
0.00600543
0.00617683
0.0066476
0.0070595
0.00716859
0.00731087
0.00751262
0.00781075
0.00810686
0.00856373
0.00932592
0.0105544
0.0123489
0.00559026
0.00566124
0.00572722
0.00575054
0.00580505
0.00582754
0.00583323
0.00586741
0.00588492
0.00591545
0.00600346
0.00617438
0.00662804
0.00702414
0.00713635
0.00727444
0.00745967
0.00770645
0.0079529
0.00832584
0.00894159
0.00995705
0.0112555
0.00559649
0.00566611
0.00572897
0.00575469
0.00580436
0.00582389
0.00583335
0.00586383
0.00588245
0.00591506
0.00600213
0.00616981
0.006604
0.00698778
0.00710743
0.00724491
0.00741578
0.0076246
0.00783643
0.00814961
0.00866855
0.00956366
0.0105169
0.00559701
0.00565916
0.00572869
0.00575067
0.00580381
0.00582449
0.00583294
0.00586393
0.00588454
0.00591574
0.00599781
0.00616853
0.00658201
0.00695662
0.00708416
0.00722413
0.00738229
0.00756662
0.00775279
0.00802261
0.00847115
0.00928404
0.00999824
0.00559691
0.00565886
0.00572929
0.00574906
0.0058029
0.00582385
0.00583356
0.00586437
0.00588037
0.00591157
0.00599946
0.00616877
0.00655759
0.0069254
0.00706403
0.00720716
0.00735235
0.00752196
0.00769151
0.00793048
0.00833051
0.00910213
0.00966429
0.00559556
0.00565593
0.00573283
0.00574947
0.00580332
0.00582334
0.00583836
0.00586635
0.00587986
0.00591089
0.00599561
0.00616583
0.00653816
0.00690142
0.0070496
0.00719552
0.00733088
0.00749304
0.00764946
0.0078651
0.00822527
0.00895454
0.00941738
0.00558834
0.0056537
0.00572538
0.00574842
0.00580184
0.00582174
0.00583379
0.00586595
0.00587995
0.00591256
0.00599684
0.00616103
0.00651656
0.00687654
0.00703544
0.00718195
0.00730776
0.00746755
0.00761746
0.00781723
0.00814615
0.008839
0.0092534
0.00558538
0.00565115
0.00572453
0.00574597
0.005801
0.00581785
0.0058319
0.0058645
0.00587847
0.00591188
0.00599439
0.00615464
0.006502
0.00685985
0.00702712
0.00717304
0.00729404
0.00745263
0.00759617
0.00778276
0.008091
0.00876824
0.00912714
0.00558998
0.00564932
0.00572106
0.00574608
0.0058012
0.00581716
0.00583107
0.00586313
0.00587721
0.00591192
0.0059909
0.00615281
0.00648405
0.00684002
0.00701563
0.0071593
0.00727589
0.00743575
0.00757697
0.00775269
0.00803591
0.00865969
0.00902691
0.00557858
0.00564719
0.00572029
0.00574405
0.00579739
0.00581762
0.00582844
0.0058607
0.0058745
0.00590582
0.00598304
0.00615283
0.00647374
0.00682854
0.00700991
0.00715296
0.00726742
0.00742766
0.00756477
0.00773707
0.0080026
0.00860339
0.00896524
0.00557781
0.00564639
0.00571702
0.0057436
0.00579799
0.00581761
0.00582804
0.00586081
0.00587506
0.00590418
0.00598155
0.00614792
0.0064593
0.00681314
0.00699863
0.00713829
0.0072484
0.00740698
0.00754186
0.00769741
0.0079412
0.00847479
0.00882484
0.00558389
0.00565872
0.00571472
0.00574897
0.00579164
0.0058143
0.00582624
0.00585388
0.00586875
0.00590254
0.005983
0.00615082
0.0064593
0.0068109
0.00699891
0.00713697
0.00724613
0.0074076
0.00754129
0.00769303
0.00792886
0.00843887
0.00876882
0.00558408
0.00564944
0.00571443
0.00574847
0.00579398
0.0058114
0.00582486
0.00585235
0.00586714
0.00590126
0.00597826
0.00613892
0.00643383
0.00678736
0.00698025
0.00712094
0.00722503
0.00738335
0.0075159
0.00766081
0.00786438
0.00828079
0.00863955
0.00557682
0.00565528
0.00571396
0.00574473
0.00578294
0.00580604
0.00582766
0.00585309
0.00586632
0.00589255
0.00597193
0.00612465
0.006408
0.00676178
0.00696435
0.00710371
0.007203
0.00735602
0.00748953
0.00762538
0.00781084
0.00818249
0.00848776
0.00557027
0.00565312
0.00570782
0.00573753
0.00577998
0.005799
0.0058242
0.00585175
0.00586812
0.0058939
0.00596218
0.00610732
0.00637858
0.00673302
0.00694143
0.00708504
0.00717898
0.00732443
0.00745851
0.00758714
0.00775687
0.00809352
0.00837533
0.00554949
0.00564358
0.0056978
0.00572885
0.00578327
0.00579257
0.00581478
0.00584536
0.00586111
0.00588849
0.00595136
0.00608832
0.00634635
0.00670017
0.00691987
0.00706282
0.00715302
0.0072901
0.00742246
0.00754296
0.00769701
0.00801513
0.00828011
0.00554342
0.00562548
0.005676
0.00571268
0.00577785
0.00577472
0.00580005
0.00582642
0.00585312
0.00587965
0.00593873
0.00606642
0.00630819
0.00666088
0.0068903
0.00704014
0.00712358
0.00725146
0.00737815
0.00749767
0.00763003
0.00790016
0.0081801
0.0055471
0.00559864
0.00566946
0.00568865
0.00576584
0.00576945
0.00577901
0.00581423
0.00584293
0.00586697
0.00592449
0.00604357
0.00626671
0.00661708
0.00685722
0.00700873
0.00709452
0.00721329
0.00732568
0.00744945
0.00756431
0.0077673
0.00810179
0.00553605
0.00559048
0.00567202
0.00568067
0.00575075
0.00577076
0.00577169
0.00580015
0.0058331
0.00585273
0.00590853
0.00601705
0.00622017
0.0065608
0.00681724
0.00697651
0.00706036
0.0071723
0.00726885
0.00738931
0.00749148
0.00765241
0.00798987
0.00551642
0.00559509
0.00566242
0.0056841
0.00572892
0.00575965
0.00577297
0.00577922
0.00582232
0.00584294
0.005892
0.00598887
0.00617216
0.00649884
0.00676395
0.00694131
0.00702936
0.00713311
0.007214
0.00732371
0.00741519
0.00754517
0.00784791
0.00548979
0.00558149
0.00563897
0.0056723
0.00571225
0.00574135
0.00575955
0.00577648
0.00580552
0.00582666
0.00586969
0.00595607
0.00611886
0.00642406
0.00670142
0.00689278
0.00698914
0.00709216
0.00716653
0.00725537
0.00733344
0.00743526
0.00767638
0.0054695
0.00555863
0.00561202
0.00565076
0.00569638
0.0057197
0.00574035
0.00576185
0.00578686
0.00580681
0.00584576
0.00592244
0.00606477
0.00633806
0.00662237
0.00683865
0.0069472
0.0070477
0.00712206
0.00720141
0.00726609
0.00734191
0.00749229
0.00544582
0.00552983
0.00558536
0.00562256
0.00567354
0.00569142
0.005713
0.00573838
0.00576268
0.0057814
0.00581615
0.0058829
0.00600485
0.00624366
0.00652507
0.00675801
0.00688835
0.00699768
0.00707211
0.00713846
0.00719581
0.00725403
0.00735217
0.0054174
0.00549665
0.005558
0.00559151
0.00564683
0.00565903
0.00568251
0.00571041
0.00573671
0.00575459
0.00578573
0.00584319
0.00594575
0.00613922
0.00642066
0.00666274
0.00681545
0.00693262
0.00702363
0.00709059
0.0071377
0.00717909
0.00724309
0.00538074
0.00545687
0.00552487
0.00555381
0.00560913
0.00561867
0.00564513
0.00567242
0.00570149
0.00571945
0.00574752
0.00579592
0.00588023
0.00603266
0.00629475
0.00654641
0.00671231
0.00684609
0.00693846
0.00701873
0.00707432
0.00711288
0.00715639
0.00533895
0.00541458
0.00548873
0.0055132
0.00556577
0.00557832
0.00560802
0.0056322
0.00566324
0.00568238
0.00570786
0.00574911
0.00581737
0.00593505
0.00614932
0.00641634
0.00660501
0.00674686
0.00685822
0.00692917
0.00699212
0.00703722
0.00707596
0.00528245
0.00536307
0.00544087
0.00545956
0.00550869
0.00552982
0.00556159
0.00558239
0.00561371
0.00563436
0.00565717
0.00569164
0.00574661
0.00583643
0.00598999
0.00624566
0.00645814
0.00662507
0.00675749
0.00685086
0.00690646
0.00695255
0.00698745
0.00521979
0.0053088
0.00538819
0.00540156
0.00544866
0.00548036
0.00551291
0.00553182
0.00556286
0.0055845
0.00560581
0.00563483
0.00567839
0.00574611
0.00585594
0.00605346
0.00627895
0.00646076
0.00662041
0.00674885
0.00683311
0.00688987
0.00693696
0.00514425
0.00523846
0.00532018
0.00533031
0.00537648
0.00541662
0.00544927
0.00546754
0.00549803
0.00551949
0.00553894
0.00556354
0.00559793
0.0056483
0.00572429
0.0058514
0.00606234
0.0062517
0.00641492
0.00657356
0.0066866
0.00676771
0.00685182
0.00506896
0.00516112
0.00524408
0.00525848
0.00530598
0.00535009
0.00538243
0.00540164
0.00543123
0.00545274
0.00547129
0.00549238
0.00552032
0.00555909
0.00561265
0.00569323
0.00583484
0.00602143
0.00618001
0.00634856
0.00649113
0.00658216
0.00668688
0.00498075
0.00506346
0.00514197
0.00516968
0.0052189
0.00526365
0.00529516
0.00531555
0.00534368
0.00536444
0.00538177
0.00540039
0.00542278
0.00545296
0.00549237
0.00554406
0.00562325
0.0057615
0.00590789
0.00605846
0.0062256
0.00633072
0.00643051
0.00489402
0.00496519
0.00503491
0.00508045
0.00513118
0.00517526
0.00520618
0.0052276
0.00525493
0.00527597
0.00529222
0.00530917
0.00532908
0.00535335
0.00538583
0.00542252
0.00547041
0.00554149
0.00565994
0.00576909
0.00592642
0.00605593
0.00616101
0.00478754
0.0048473
0.00490644
0.00496702
0.00501809
0.0050603
0.00509045
0.00511187
0.00513727
0.00515811
0.00517384
0.00518804
0.00520452
0.00522461
0.005249
0.00527986
0.00531504
0.00535216
0.00542244
0.00548975
0.00559809
0.00571519
0.00583088
0.00468254
0.00473632
0.00478656
0.00485597
0.00490619
0.00494655
0.0049769
0.00499827
0.00502263
0.00504297