/*--------------------------------*- C++ -*----------------------------------*\
  =========                 |
  \\      /  F ield         | OpenFOAM: The Open Source CFD Toolbox
   \\    /   O peration     | Website:  https://openfoam.org
    \\  /    A nd           | Version:  7
     \\/     M anipulation  |
\*---------------------------------------------------------------------------*/
FoamFile
{
    version     2.0;
    format      ascii;
    class       volScalarField;
    location    "72";
    object      nut;
}
// * * * * * * * * * * * * * * * * * * * * * * * * * * * * * * * * * * * * * //

dimensions      [0 2 -1 0 0 0 0];

internalField   nonuniform List<scalar> 
12842
(
0.00181079
0.00179278
0.00178775
0.00177443
0.00177359
0.00176469
0.00176624
0.00176176
0.00176032
0.00175986
0.00175717
0.00176224
0.00176583
0.0017203
0.000825697
0.000456347
0.000291668
0.0002064
0.000155448
0.000122581
0.000100055
8.46319e-05
7.28864e-05
0.00181292
0.0017889
0.00178285
0.00177347
0.00177317
0.00176447
0.00176623
0.00176184
0.00176067
0.00176024
0.0017573
0.00176263
0.00176629
0.00166829
0.000799404
0.000442453
0.000282863
0.000201106
0.000151767
0.000120063
9.83258e-05
8.37036e-05
7.20562e-05
0.00181003
0.00179365
0.00178405
0.00176884
0.00177017
0.00176292
0.00176593
0.00176117
0.00176116
0.00176009
0.00175756
0.00176334
0.00176707
0.00159693
0.000768384
0.000427342
0.000274301
0.000195538
0.000148136
0.000117622
9.66137e-05
8.26889e-05
7.10474e-05
0.00180906
0.00178814
0.00178117
0.00177024
0.00176981
0.00176248
0.00176578
0.00176072
0.00176117
0.00175975
0.00175736
0.00176368
0.00176792
0.0015209
0.00073515
0.000411284
0.000265259
0.000189826
0.000144259
0.00011493
9.46412e-05
8.1488e-05
6.98811e-05
0.00180802
0.00179079
0.0017828
0.00176697
0.00176698
0.00176085
0.00176514
0.00175951
0.00176097
0.0017585
0.00175734
0.00176374
0.00176882
0.00145425
0.00070602
0.000396973
0.000257047
0.000184553
0.000140616
0.000112292
9.26148e-05
8.01342e-05
6.86575e-05
0.00180593
0.00178459
0.0017787
0.00176814
0.00176822
0.00176216
0.00176509
0.00175901
0.00176072
0.00175777
0.00175735
0.00176353
0.00176951
0.00140426
0.000683461
0.000385599
0.000250374
0.000180235
0.000137568
0.000110002
9.08987e-05
7.89064e-05
6.75403e-05
0.00180662
0.00178576
0.00177886
0.0017641
0.00176366
0.00175935
0.00176424
0.00175794
0.00176002
0.00175618
0.00175753
0.00176316
0.00177026
0.00137315
0.000668564
0.00037748
0.000245223
0.000176712
0.000134944
0.000108023
8.92585e-05
7.77351e-05
6.64406e-05
0.00180378
0.00178263
0.00177361
0.00176431
0.00176612
0.00176272
0.00176488
0.00175769
0.00175969
0.00175545
0.00175754
0.00176274
0.00177066
0.00137071
0.000666338
0.000375539
0.000243405
0.000175014
0.000133504
0.000106707
8.81247e-05
7.67382e-05
6.55266e-05
0.00180541
0.00178284
0.00177604
0.00176127
0.00176242
0.0017596
0.0017639
0.00175705
0.00175872
0.0017543
0.00175784
0.00176247
0.00177111
0.00136702
0.000663529
0.00037299
0.000241244
0.000173327
0.000132125
0.000105573
8.71097e-05
7.5966e-05
6.48037e-05
0.00180127
0.00178021
0.00177058
0.00176095
0.00176411
0.00176177
0.00176473
0.00175729
0.00175896
0.00175416
0.00175832
0.00176254
0.00177127
0.00133958
0.000650345
0.000365916
0.000236924
0.000170353
0.000130056
0.000104062
8.58919e-05
7.5051e-05
6.39674e-05
0.00180252
0.00178006
0.0017735
0.00175859
0.00176255
0.00175999
0.0017633
0.00175645
0.00175832
0.00175397
0.00175887
0.00176296
0.00177248
0.00131903
0.000641147
0.000361046
0.000233958
0.000168423
0.000128626
0.000103
8.50293e-05
7.43534e-05
6.33668e-05
0.00179952
0.00177805
0.0017696
0.00175804
0.00176346
0.00176085
0.00176405
0.00175661
0.00175893
0.00175463
0.00175949
0.00176349
0.00177294
0.00129992
0.000632712
0.000356817
0.000231458
0.000166621
0.000127308
0.000101987
8.41658e-05
7.36504e-05
6.28278e-05
0.0017992
0.0017772
0.00177232
0.00175642
0.00176298
0.00176025
0.00176207
0.00175521
0.00175829
0.00175482
0.00175997
0.00176414
0.00177298
0.00128023
0.000623913
0.000352226
0.000228626
0.00016473
0.000125892
0.000100927
8.33268e-05
7.29267e-05
6.23239e-05
0.0017975
0.00177588
0.00176953
0.00175579
0.00176366
0.0017599
0.00176299
0.00175514
0.00175867
0.0017556
0.00176061
0.00176473
0.00177364
0.00125995
0.000614962
0.000347883
0.000226085
0.000162894
0.000124572
9.99118e-05
8.25413e-05
7.22587e-05
6.1914e-05
0.00179609
0.00177422
0.00177145
0.00175503
0.00176344
0.00176033
0.00176104
0.00175356
0.00175774
0.00175556
0.00176079
0.00176536
0.00177378
0.00124064
0.000606396
0.000343519
0.000223397
0.000161153
0.000123342
9.90494e-05
8.19651e-05
7.17733e-05
6.17574e-05
0.00179509
0.00177368
0.00176911
0.0017546
0.00176431
0.00175935
0.00176234
0.00175365
0.001758
0.00175617
0.00176136
0.00176526
0.00177414
0.0012223
0.000598612
0.000339737
0.000221264
0.000159707
0.000122352
9.83278e-05
8.15844e-05
7.15121e-05
6.19746e-05
0.0017936
0.0017715
0.00176963
0.00175464
0.00176396
0.00176018
0.00176109
0.00175261
0.00175716
0.00175575
0.00176112
0.00176631
0.001775
0.00120648
0.000591946
0.000336047
0.000218997
0.000158388
0.000121541
9.7953e-05
8.17046e-05
7.16205e-05
6.25267e-05
0.00179263
0.00177173
0.00176762
0.00175449
0.00176432
0.00175907
0.00176257
0.00175312
0.00175746
0.00175626
0.0017616
0.00176693
0.00177599
0.00119148
0.000586325
0.000332978
0.000217554
0.000157656
0.000121214
9.792e-05
8.22137e-05
7.22459e-05
6.37218e-05
0.00179157
0.00176956
0.00176686
0.00175523
0.00176396
0.00175964
0.00176199
0.001753
0.00175732
0.00175595
0.00176119
0.00176743
0.00177613
0.00117849
0.000582067
0.000330194
0.000216032
0.000157069
0.000121273
9.86122e-05
8.34161e-05
7.3424e-05
6.53337e-05
0.00179058
0.00177001
0.00176538
0.00175466
0.00176309
0.00175846
0.00176323
0.00175368
0.00175755
0.0017563
0.00176149
0.00176807
0.00177733
0.00116577
0.000579561
0.000328199
0.000215744
0.000157616
0.00012224
9.99524e-05
8.53022e-05
7.54815e-05
6.78526e-05
0.00178977
0.00176874
0.00176408
0.00175619
0.00176297
0.00175863
0.00176266
0.00175419
0.00175812
0.0017565
0.00176106
0.00176847
0.00177861
0.00115885
0.000575199
0.000326847
0.000215443
0.000158461
0.000123764
0.000102214
8.80608e-05
7.83303e-05
7.10106e-05
0.00178891
0.00176849
0.00176311
0.00175437
0.00176104
0.00175751
0.00176348
0.00175481
0.00175839
0.00175649
0.00176082
0.00176889
0.00178036
0.00114974
0.000569479
0.000326356
0.000216856
0.000161003
0.000126631
0.000105539
9.19248e-05
8.24526e-05
7.54836e-05
0.00178806
0.00176881
0.00176206
0.00175628
0.00176121
0.00175743
0.00176247
0.00175531
0.00175881
0.00175676
0.00176021
0.00176894
0.0017822
0.00114519
0.00056791
0.000327516
0.000218969
0.000164077
0.000130261
0.000109883
9.68455e-05
8.76685e-05
8.09682e-05
0.00178746
0.00176796
0.00176132
0.00175419
0.00175925
0.00175669
0.00176256
0.00175549
0.0017589
0.00175614
0.00175941
0.00177047
0.00178312
0.00113487
0.000564288
0.000328281
0.000222288
0.000168764
0.000135431
0.000115609
0.00010316
9.44683e-05
8.81316e-05
0.00178664
0.00176963
0.00176087
0.00175442
0.00175879
0.0017566
0.00176118
0.00175493
0.00175785
0.00175544
0.00175894
0.00177135
0.00178361
0.00112527
0.000559911
0.000329428
0.000226336
0.000174265
0.000141691
0.000122798
0.000110983
0.000102837
9.67616e-05
0.00178634
0.00176883
0.00176049
0.00175293
0.00175796
0.00175607
0.00176046
0.00175403
0.00175718
0.00175451
0.00175888
0.00177201
0.00178438
0.00111684
0.000558194
0.000332737
0.000232125
0.000181709
0.000149677
0.000131438
0.000120143
0.000112453
0.000106678
0.00178509
0.00177053
0.00175991
0.00175331
0.00175749
0.00175578
0.00175899
0.00175306
0.00175535
0.00175385
0.00175942
0.00177239
0.00178481
0.00111201
0.000558756
0.00033813
0.000239922
0.00019045
0.00015898
0.000141451
0.000130502
0.000123339
0.00011791
0.00178535
0.00176969
0.00175931
0.00175188
0.00175689
0.00175522
0.00175804
0.00175187
0.00175454
0.00175355
0.00176046
0.00177428
0.00178764
0.00110577
0.00056241
0.000346339
0.000249241
0.000200694
0.00016997
0.000152893
0.000142342
0.000135472
0.000130464
0.00178398
0.00177047
0.00175835
0.00175251
0.00175653
0.00175442
0.00175651
0.00175126
0.00175388
0.00175399
0.00176244
0.00177631
0.00179337
0.00110332
0.000568622
0.000356465
0.000260494
0.000212159
0.000181956
0.000165606
0.000155152
0.000148482
0.000143706
0.00178477
0.00176927
0.00175739
0.00175142
0.00175591
0.00175354
0.00175648
0.00175099
0.001754
0.00175591
0.00176916
0.0017852
0.00181173
0.0011053
0.00058105
0.000370488
0.00027368
0.000225164
0.000195438
0.000179192
0.000168806
0.000162069
0.000157829
0.00178387
0.00176894
0.0017559
0.00175217
0.00175543
0.00175228
0.00175541
0.00175132
0.00175497
0.00176093
0.00178222
0.001802
0.00183876
0.0011138
0.00059793
0.00038627
0.000288313
0.000239051
0.000209224
0.000193562
0.00018324
0.00017639
0.000172261
0.00178506
0.00176731
0.0017543
0.00175173
0.00175453
0.00175104
0.00175624
0.00175239
0.001758
0.00177339
0.00180361
0.00182892
0.00187539
0.00113778
0.000621597
0.000406238
0.000305286
0.000254638
0.000224666
0.000208657
0.000197907
0.000190556
0.00018702
0.00178481
0.00176589
0.00175199
0.00175183
0.00175364
0.00175055
0.00175645
0.00175495
0.00176489
0.00179278
0.00183072
0.00186191
0.00191471
0.00117088
0.000649983
0.000427917
0.000323033
0.00027026
0.000239376
0.000223484
0.000212868
0.00020525
0.00020184
0.00178628
0.00176401
0.0017493
0.00175162
0.00175197
0.00174984
0.00175875
0.00176058
0.00177961
0.00182043
0.00186561
0.00190249
0.00195024
0.00122233
0.000685346
0.000452994
0.000342971
0.000287818
0.000255907
0.000239225
0.000227763
0.000219223
0.000216399
0.00178651
0.00176151
0.00174556
0.00175054
0.00175134
0.00175105
0.00176114
0.00177252
0.00180219
0.00185372
0.00190444
0.00193941
0.00197885
0.00128003
0.000723954
0.000480006
0.000363431
0.000304399
0.000270875
0.000253657
0.000242276
0.000233453
0.000230709
0.00178812
0.0017592
0.00174141
0.00175017
0.0017502
0.00175182
0.00176941
0.00179213
0.00183253
0.00189326
0.00194617
0.00197069
0.00200006
0.00135718
0.000770167
0.000509417
0.000385371
0.000323084
0.000287631
0.000269217
0.000256886
0.000246655
0.000244503
0.00178868
0.00175596
0.00173599
0.00174973
0.0017502
0.00175595
0.00178223
0.00181726
0.00186732
0.00193451
0.00198144
0.00199231
0.00201303
0.00143599
0.000816485
0.000539972
0.000407514
0.000339938
0.00030236
0.000282829
0.000270283
0.000259767
0.000257642
0.00179016
0.00175258
0.00173138
0.0017496
0.00175197
0.00176207
0.00180462
0.00184659
0.00190541
0.00197342
0.00200843
0.00200657
0.00201962
0.00153338
0.000871354
0.000573289
0.000430989
0.000358972
0.000318718
0.00029771
0.000284377
0.000271924
0.000270026
0.00179088
0.0017493
0.0017256
0.00175047
0.00175678
0.00177588
0.00182932
0.00187536
0.00193848
0.00200319
0.00202542
0.00201111
0.0020195
0.00162792
0.000922773
0.000605137
0.000453263
0.000375521
0.000332826
0.000310351
0.000296326
0.000283038
0.000281738
0.00179193
0.00174487
0.00172236
0.00175403
0.00176572
0.00179651
0.00185894
0.00190015
0.00196712
0.00202478
0.0020331
0.00201041
0.00201536
0.00173859
0.000983046
0.000641355
0.000477927
0.000394455
0.000348518
0.000324314
0.000309446
0.000294034
0.000292446
0.00179267
0.00174122
0.00171979
0.00176004
0.00178291
0.0018234
0.0018854
0.00192057
0.00198681
0.00203544
0.00203183
0.00200261
0.00200747
0.00184253
0.00103735
0.000673396
0.0004995
0.000410393
0.000361691
0.000335797
0.000319914
0.000302752
0.000302567
0.00179312
0.00173754
0.00171818
0.00177274
0.00180382
0.0018536
0.00190827
0.0019346
0.00199996
0.00203803
0.00202418
0.00199325
0.00199778
0.00196061
0.0011
0.000710725
0.000524536
0.000429072
0.000376853
0.000348954
0.000331807
0.000312515
0.000312154
0.00179347
0.00173617
0.00172028
0.00179029
0.0018291
0.00188314
0.00192559
0.0019435
0.00200443
0.002032
0.00201117
0.00197943
0.00198668
0.00202198
0.00115512
0.000742854
0.000545638
0.000444393
0.000388973
0.000359169
0.000340711
0.000319256
0.000319952
0.00179398
0.00173447
0.00172465
0.00181306
0.00185389
0.00190744
0.00193691
0.00194642
0.0020032
0.00202082
0.00199547
0.0019671
0.00197553
0.00200915
0.00121847
0.000780466
0.000570682
0.000463076
0.000403995
0.000372013
0.000351789
0.000327948
0.000328541
0.00179321
0.00173466
0.00173619
0.0018372
0.00187547
0.00192615
0.00194248
0.00194527
0.00199597
0.00200502
0.00197801
0.00195217
0.00196428
0.00199965
0.00127313
0.000812598
0.000591781
0.000478308
0.000415691
0.000381681
0.000359749
0.000333661
0.00033425
0.00179368
0.00173716
0.00175312
0.00186216
0.00189454
0.00193858
0.001943
0.00194014
0.00198542
0.00198732
0.00196044
0.00194028
0.00195406
0.00198836
0.00133684
0.00085112
0.000617655
0.000497818
0.000431433
0.000395171
0.000370985
0.000342169
0.000341568
0.00179225
0.00174118
0.00177303
0.00188209
0.0019084
0.00194425
0.00193932
0.00193277
0.00197178
0.00196855
0.00194353
0.00192703
0.00194431
0.00198033
0.0013909
0.000884111
0.00063979
0.000514349
0.000444467
0.000406204
0.000379852
0.000348647
0.000346826
0.00179159
0.00174893
0.00179691
0.0018993
0.00191948
0.0019454
0.0019327
0.00192359
0.00195757
0.00195023
0.00192789
0.00191718
0.00193618
0.00197171
0.00145578
0.000924747
0.000667973
0.000536655
0.000463315
0.000422816
0.000393975
0.000360365
0.000356183
0.00179242
0.00176083
0.00182111
0.00191187
0.00192657
0.00194194
0.00192422
0.00191412
0.00194235
0.00193246
0.00191342
0.00190647
0.00192822
0.0019656
0.00150898
0.00095911
0.000692458
0.000556358
0.000480118
0.0004378
0.000407376
0.000372122
0.000365156
0.00179292
0.00177705
0.00184774
0.00192063
0.0019308
0.00193521
0.00191456
0.00190361
0.00192779
0.00191548
0.00190037
0.00189815
0.00192163
0.00195855
0.00156609
0.000995705
0.000718889
0.000578403
0.000500573
0.000457255
0.000427855
0.000394408
0.00038708
0.00179494
0.00179774
0.0018713
0.0019255
0.00193285
0.0019271
0.00190559
0.00189434
0.00191388
0.00190047
0.00188902
0.00189023
0.00191521
0.00195375
0.00160574
0.00102173
0.000738551
0.000595047
0.000516687
0.000473307
0.000444725
0.000412615
0.000402486
0.00179822
0.00182118
0.00189272
0.00192729
0.00193205
0.00191767
0.00189795
0.00188438
0.00190089
0.00188727
0.00187976
0.00188421
0.00191094
0.00194863
0.00165023
0.00105031
0.000760169
0.000613956
0.000536432
0.00049347
0.000478852
0.000459579
0.000461664
0.00180247
0.00184338
0.00191111
0.00192709
0.00193081
0.00190954
0.0018916
0.0018748
0.0018878
0.00187596
0.00187183
0.00187887
0.00190629
0.00194502
0.00168569
0.00107394
0.000779145
0.00063065
0.000553669
0.000517161
0.000507653
0.000506105
0.000508622
0.00180996
0.00186382
0.00192531
0.00192505
0.00192701
0.00190094
0.00188542
0.00186507
0.00187553
0.00186632
0.00186539
0.00187494
0.00190378
0.00194141
0.0017181
0.00109655
0.0007974
0.000649108
0.000575069
0.000545815
0.000582635
0.000614309
0.000654725
0.00182109
0.00188083
0.00193576
0.00192167
0.00192253
0.00189369
0.00187923
0.00185598
0.0018639
0.00185846
0.00186014
0.00187163
0.0019009
0.00193875
0.00174911
0.0011199
0.000818601
0.000669665
0.000600048
0.000604796
0.000652944
0.000748709
0.000768314
0.00183469
0.00189451
0.00194121
0.00191658
0.00191562
0.00188598
0.00187201
0.00184832
0.0018539
0.00185204
0.00185585
0.00186914
0.00189938
0.00193611
0.00176491
0.00112953
0.000823915
0.00068087
0.000627914
0.000665823
0.000788954
0.000753019
0.000785472
0.00184724
0.00190253
0.00194209
0.00191058
0.00190781
0.00187923
0.00186502
0.00184258
0.00184626
0.00184774
0.001853
0.00186737
0.00189832
0.00193479
0.00176459
0.00112892
0.000830995
0.000691529
0.000663484
0.000755327
0.000797895
0.00069794
0.000774714
0.0018559
0.00190649
0.00193935
0.00190363
0.00189923
0.00187241
0.00185804
0.0018384
0.00184016
0.00184416
0.00185055
0.00186572
0.00189782
0.00193377
0.0018244
0.00117985
0.000873369
0.000743256
0.00074889
0.000843605
0.000762675
0.000714929
0.000742472
0.00186288
0.00190713
0.00193431
0.00189639
0.00188994
0.00186578
0.00185112
0.00183493
0.0018353
0.00184173
0.001849
0.00186474
0.00189825
0.00193386
0.00186287
0.00121078
0.000913881
0.000799026
0.000823508
0.000876413
0.000752107
0.000669444
0.000792476
0.00186691
0.0019043
0.00192657
0.00188816
0.00188054
0.00185924
0.00184468
0.00183266
0.0018317
0.00183975
0.00184772
0.00186374
0.00189916
0.00193415
0.00187972
0.00124756
0.000951082
0.000849098
0.000912749
0.000839258
0.000716065
0.000721427
0.000799564
0.00186979
0.00189978
0.00191827
0.00188064
0.00187139
0.00185301
0.0018388
0.00183063
0.00182907
0.00183845
0.00184701
0.00186329
0.00190092
0.00193549
0.0018759
0.00129267
0.0010076
0.000929046
0.000997818
0.000850111
0.000779163
0.000818507
0.000915076
0.0018706
0.00189286
0.00190843
0.00187253
0.00186277
0.00184737
0.00183377
0.00182934
0.00182725
0.00183755
0.00184655
0.00186295
0.00190332
0.00193676
0.00187095
0.00135057
0.00107683
0.00100999
0.00102644
0.000854617
0.000827186
0.000857327
0.000979639
0.00187092
0.00188579
0.00189942
0.00186578
0.00185531
0.00184214
0.00182955
0.00182808
0.00182613
0.00183678
0.00184635
0.00186281
0.00190603
0.00193891
0.00186559
0.00141861
0.00115164
0.00110147
0.00101811
0.000922471
0.000880733
0.000868388
0.00101599
0.00187038
0.00187773
0.00189006
0.00185922
0.00184863
0.00183787
0.00182631
0.00182737
0.00182531
0.00183644
0.00184626
0.00186297
0.00190976
0.00194064
0.00186036
0.00149549
0.00124958
0.00122256
0.00105027
0.000940969
0.000897966
0.000826461
0.00102023
0.00187005
0.00187044
0.00188203
0.00185397
0.00184363
0.00183417
0.00182394
0.0018266
0.0018251
0.00183592
0.00184641
0.00186298
0.00191295
0.00194312
0.00185277
0.00158802
0.00134783
0.0012166
0.00104052
0.000921928
0.000842981
0.000777369
0.00100939
0.00186929
0.00186341
0.00187469
0.00184972
0.00183942
0.00183131
0.00182236
0.00182646
0.00182473
0.00183563
0.00184678
0.00186354
0.00191752
0.00194473
0.0018466
0.00165593
0.00141455
0.00119315
0.00101319
0.000873179
0.000798166
0.000796299
0.000984165
0.00186963
0.00185721
0.00186844
0.00184637
0.00183683
0.00182931
0.00182171
0.00182616
0.00182505
0.00183531
0.00184675
0.00186386
0.00192116
0.00194729
0.00183767
0.00163599
0.00139215
0.00116527
0.000968858
0.00082745
0.000802614
0.000800574
0.00103474
0.00186906
0.00185241
0.00186379
0.00184426
0.00183506
0.00182777
0.00182132
0.00182661
0.00182486
0.00183485
0.001847
0.00186437
0.00192559
0.00194854
0.00182832
0.0016094
0.00135486
0.00111447
0.000911601
0.000786945
0.000762667
0.000873905
0.000979516
0.00187001
0.00184757
0.0018596
0.00184288
0.00183437
0.0018272
0.00182186
0.00182676
0.00182556
0.00183465
0.00184714
0.0018649
0.00192991
0.00195065
0.00181885
0.00158479
0.00131954
0.00106669
0.000845406
0.000770704
0.000787623
0.000853205
0.00102663
0.00186977
0.00184511
0.0018574
0.00184228
0.00183452
0.00182691
0.00182238
0.00182774
0.00182557
0.00183405
0.00184572
0.00186485
0.00193364
0.00195133
0.00180473
0.00155365
0.00127046
0.00100657
0.000809578
0.000741841
0.000784697
0.000854055
0.00101287
0.00187065
0.00184177
0.00185548
0.00184228
0.0018351
0.00182738
0.00182318
0.00182825
0.00182646
0.00183417
0.00184551
0.00186427
0.00193785
0.00195217
0.00179347
0.00151457
0.00121709
0.000964812
0.000787478
0.000737991
0.000755716
0.000856975
0.00101695
0.00187072
0.00184075
0.00185486
0.00184295
0.0018362
0.00182777
0.00182443
0.00182951
0.00182688
0.00183337
0.00184416
0.00186465
0.00194122
0.00195162
0.00178078
0.00150202
0.00120887
0.000935719
0.000773379
0.000741093
0.000776287
0.000850202
0.000964257
0.00187074
0.00183901
0.00185478
0.00184289
0.00183762
0.00182919
0.00182509
0.00183019
0.00182775
0.00183427
0.00184264
0.00186447
0.00194743
0.00195172
0.00177022
0.0014988
0.00119968
0.000933013
0.000759194
0.000727757
0.00077983
0.000869971
0.000988583
0.0018712
0.00183869
0.0018553
0.00184434
0.00183847
0.00182939
0.00182619
0.00183145
0.00182825
0.00183408
0.00184181
0.00186473
0.00195161
0.00195761
0.00177342
0.00148475
0.00117947
0.00092921
0.000763986
0.000740234
0.000756242
0.000852226
0.00100235
0.00186965
0.00183793
0.00185507
0.00184417
0.00184018
0.00183108
0.00182731
0.00183177
0.0018294
0.00183455
0.00184093
0.00186433
0.0019539
0.00196245
0.00177417
0.00148573
0.00116292
0.000925402
0.000754793
0.000737499
0.000758605
0.000832349
0.000926601
0.00187082
0.00183782
0.00185686
0.00184454
0.00184029
0.00183124
0.00182801
0.00183347
0.00182938
0.00183359
0.00184059
0.00186457
0.00195426
0.00196213
0.00177023
0.00148351
0.00116469
0.000923807
0.000767411
0.000715827
0.000703226
0.000733296
0.000837321
0.0018693
0.00183923
0.00185617
0.00184654
0.00184162
0.00183255
0.0018298
0.0018333
0.00183075
0.00183291
0.00184065
0.00186404
0.00195443
0.00196195
0.00176871
0.00147977
0.00116413
0.000920961
0.000753138
0.000670016
0.000659267
0.000666949
0.000712533
0.00187223
0.00183842
0.00185807
0.0018468
0.00184232
0.00183376
0.00183178
0.00183526
0.00183227
0.00183224
0.00184009
0.00186444
0.00195547
0.00196268
0.00176828
0.0014769
0.00114934
0.000903572
0.000730981
0.000638914
0.000591554
0.000570522
0.000590434
0.00187214
0.0018429
0.00186057
0.00184763
0.00184366
0.00183502
0.00183262
0.00183587
0.0018327
0.00183013
0.00184004
0.00186391
0.00195469
0.00196309
0.00176627
0.00147087
0.00114646
0.000900244
0.000699954
0.000593744
0.000520497
0.000507997
0.000511376
0.00187301
0.00184378
0.00186068
0.00184299
0.00184538
0.00183641
0.00183286
0.00183527
0.00183135
0.00183057
0.00184034
0.00186378
0.00195541
0.00196281
0.00176128
0.00146263
0.00113623
0.000874375
0.000684795
0.000545432
0.000479422
0.000464616
0.000457887
0.00186429
0.00184279
0.00185791
0.00183935
0.00184296
0.00183406
0.00183323
0.00183324
0.00183047
0.00182999
0.00183945
0.00186333
0.00195419
0.00195772
0.00175249
0.00145231
0.00112308
0.000862531
0.000659003
0.00052025
0.000457383
0.000434869
0.000419012
0.00185874
0.0018378
0.00185213
0.00183557
0.00184024
0.00183095
0.00182817
0.0018298
0.00182805
0.00182835
0.00183945
0.00186338
0.00195399
0.00195316
0.00174856
0.00143765
0.0011043
0.000843995
0.00063335
0.000514203
0.000449442
0.000416404
0.000390465
0.00184632
0.00182856
0.00184595
0.00182976
0.00183484
0.00182858
0.00182464
0.00182727
0.00182678
0.00182824
0.00183964
0.00186339
0.00195339
0.00194548
0.00173507
0.00143577
0.00109502
0.000821878
0.00063104
0.000521705
0.000452512
0.00040809
0.000371421
0.00184067
0.00182863
0.00184021
0.00182629
0.00183342
0.00182502
0.00182229
0.00182635
0.00182667
0.00182838
0.00183907
0.00186328
0.00195201
0.00193587
0.00173043
0.00142755
0.00109211
0.00082111
0.000644788
0.000539624
0.00046468
0.000408057
0.000359633
0.00183365
0.00182657
0.00183798
0.00182527
0.00183177
0.00182296
0.00182155
0.00182537
0.00182556
0.0018277
0.00183967
0.00186302
0.00194723
0.00192867
0.00172104
0.00141951
0.00110771
0.000838267
0.000671526
0.000566757
0.000485171
0.000417443
0.000356247
0.00183464
0.00182539
0.0018365
0.0018235
0.0018297
0.00182518
0.00182145
0.00182465
0.00182753
0.00182702
0.00183874
0.00186243
0.00194219
0.00191947
0.00171947
0.00142692
0.00113334
0.000866954
0.000707349
0.000600542
0.000511065
0.000431232
0.000357532
0.00183582
0.00182446
0.00183531
0.00182175
0.00182993
0.00182354
0.00182137
0.00182428
0.00182629
0.00182587
0.0018394
0.00186122
0.00193557
0.00190932
0.0017255
0.00144673
0.00116916
0.000906865
0.000751974
0.000640335
0.000541798
0.000450022
0.00036589
0.00183401
0.00182009
0.00183449
0.0018213
0.00182807
0.00182332
0.00182074
0.0018243
0.0018266
0.00182706
0.0018381
0.00186176
0.00192974
0.0019038
0.00173516
0.00147221
0.00120819
0.000951765
0.000800129
0.000682456
0.000573953
0.000468599
0.000375163
0.00183071
0.00182107
0.0018342
0.00181959
0.00182916
0.00182468
0.00181961
0.00182417
0.00182653
0.00182558
0.00183795
0.00186245
0.00192298
0.00190205
0.0017497
0.00150449
0.0012523
0.00100442
0.000854028
0.000727971
0.000608587
0.000489406
0.000390015
0.00182675
0.00182029
0.00183508
0.00181825
0.00182894
0.00182456
0.00182238
0.00182495
0.00182673
0.00182559
0.00183692
0.00186191
0.00191706
0.0019023
0.0017645
0.00153584
0.0012933
0.00105455
0.000904217
0.000770243
0.000641126
0.00050915
0.000402654
0.00182665
0.00182027
0.00183014
0.00181976
0.0018274
0.00182391
0.00182053
0.00182489
0.00182702
0.00182602
0.0018377
0.00186204
0.00191157
0.00190481
0.00178187
0.00157077
0.0013374
0.00111036
0.000958773
0.000814917
0.00067525
0.000528611
0.000420642
0.0018239
0.00182
0.00183164
0.00181784
0.00182738
0.00182187
0.001819
0.00182462
0.00182574
0.00182515
0.00183741
0.0018605
0.0019083
0.0019076
0.00179717
0.00159923
0.00137233
0.00115443
0.00100076
0.000848798
0.000701043
0.000545605
0.000432765
0.00182541
0.00182013
0.00183064
0.00181873
0.00182698
0.00182117
0.0018182
0.00182421
0.00182678
0.00182662
0.00183738
0.00185949
0.00190565
0.00191205
0.00181354
0.00163238
0.00141355
0.00120748
0.0010514
0.000889831
0.000731937
0.0005611
0.000451655
0.00182237
0.00181994
0.00182983
0.00181652
0.00182797
0.00182336
0.00181838
0.00182318
0.00182601
0.00182479
0.00183602
0.0018598
0.00190384
0.00191442
0.00182534
0.00165149
0.00143625
0.001237
0.00107734
0.000910304
0.000747645
0.000571816
0.000459783
0.00182348
0.00181934
0.00182895
0.00181602
0.0018264
0.0018235
0.00181801
0.00182358
0.0018257
0.00182449
0.00183504
0.00185955
0.00190313
0.00192072
0.00184088
0.00168353
0.0014754
0.00128499
0.00112357
0.000947069
0.000782465
0.000601048
0.000477305
0.0018255
0.00182673
0.00182706
0.00181812
0.00182626
0.00182187
0.00181841
0.00182197
0.0018255
0.00182323
0.00183653
0.00186063
0.00190285
0.00192145
0.00184359
0.00168966
0.00148275
0.00129998
0.0011329
0.000949514
0.000785253
0.000602839
0.000481347
0.00182964
0.00182116
0.00183
0.00181863
0.00182652
0.00182346
0.00181771
0.00182236
0.00182461
0.00182282
0.00183461
0.00185935
0.00190036
0.00192509
0.00185743
0.00171683
0.00151586
0.0013399
0.00117414
0.00099258
0.00081993
0.000627551
0.000498798
0.00182807
0.00182622
0.00183027
0.00181924
0.00182481
0.00181992
0.00182144
0.00182299
0.00182535
0.00182095
0.00183377
0.00185733
0.00189762
0.00192771
0.00187098
0.00174147
0.00154653
0.00137616
0.00121324
0.00103081
0.000858622
0.000663425
0.00051668
0.00182831
0.00182371
0.00182715
0.00181817
0.00182456
0.00182065
0.00182099
0.00182585
0.00182538
0.00182299
0.00183206
0.00185458
0.00189427
0.00192982
0.00188288
0.00176594
0.00157779
0.00141292
0.00125473
0.00107148
0.000902735
0.000709721
0.000544607
0.00182274
0.00182191
0.00182454
0.00181798
0.00182757
0.00181779
0.00181707
0.00182476
0.00182384
0.00182401
0.00183246
0.0018522
0.00189004
0.00193068
0.0018951
0.00178964
0.00161012
0.00145093
0.00129887
0.00111564
0.00095234
0.000768304
0.000583074
0.00182373
0.00181864
0.00181922
0.0018157
0.00182924
0.00181571
0.00181381
0.00181814
0.00182353
0.00182534
0.00183203
0.00184939
0.00188511
0.00193057
0.0019058
0.00181396
0.00164423
0.00149066
0.00134667
0.001166
0.00100772
0.000831384
0.000630854
0.00182698
0.00181587
0.0018202
0.00181492
0.00183207
0.00181715
0.00180975
0.00181566
0.00182379
0.00182714
0.00183143
0.00184688
0.00187954
0.00192947
0.0019158
0.00183637
0.00168085
0.00153377
0.00139896
0.00122806
0.00106911
0.000890211
0.000686813
0.00182232
0.0018224
0.00182944
0.00181465
0.00182929
0.00182174
0.00181161
0.00181782
0.00182385
0.00182469
0.0018308
0.00184415
0.00187378
0.00192612
0.00192501
0.00185945
0.00171859
0.00158038
0.00145608
0.00130019
0.00114032
0.000958194
0.000749559
0.00182128
0.00182683
0.00183121
0.00181561
0.00182169
0.00182564
0.00181722
0.00181544
0.0018246
0.00182189
0.00182902
0.00184058
0.001868
0.00192148
0.00193082
0.00188179
0.00175777
0.00163093
0.0015164
0.00137881
0.00122287
0.00104115
0.000826359
0.00182268
0.00182138
0.001829
0.00181862
0.00181891
0.00182088
0.00181908
0.00182038
0.0018247
0.00182087
0.00182544
0.00183698
0.0018618
0.00191428
0.00193529
0.00190142
0.00179518
0.00168403
0.00158096
0.00146042
0.001314
0.00113765
0.000918429
0.00183091
0.00181754
0.00182389
0.00181808
0.00182447
0.00181877
0.00181744
0.00182423
0.00182376
0.00181955
0.00182335
0.00183359
0.00185532
0.00190363
0.00193493
0.00191925
0.00183124
0.00173642
0.00164669
0.00154435
0.0014123
0.00124625
0.00102493
0.00182799
0.0018153
0.00182239
0.00182169
0.00182641
0.00182045
0.00181489
0.00181789
0.00181965
0.00181857
0.00182173
0.00183039
0.00184875
0.00189158
0.00193047
0.00193088
0.00186327
0.00178682
0.00171097
0.00162493
0.00151237
0.0013625
0.0011502
0.00181666
0.00181333
0.00182465
0.00182196
0.00182918
0.00182169
0.00181233
0.00181581
0.00181845
0.00181837
0.00182095
0.00182783
0.00184245
0.00187619
0.00192324
0.00193798
0.00189016
0.00183008
0.00177165
0.00170367
0.0016116
0.00148387
0.00129183
0.00181117
0.00181228
0.00182822
0.0018187
0.00183054
0.00182146
0.00181023
0.00181393
0.00181717
0.00181808
0.00182047
0.00182538
0.0018366
0.00186193
0.0019109
0.00194032
0.00191098
0.00186615
0.00181972
0.00177117
0.00170383
0.00160383
0.00144581
0.0018077
0.00181115
0.00182961
0.00181048
0.00182795
0.00181815
0.00180862
0.00181152
0.00181509
0.00181706
0.00181919
0.00182289
0.00183129
0.0018496
0.00189066
0.00193598
0.00193005
0.00189671
0.0018633
0.00182492
0.00177941
0.00170922
0.00159496
0.00180492
0.00180996
0.00182011
0.00180597
0.00181609
0.00181267
0.00180726
0.00180889
0.00181259
0.00181516
0.001817
0.00181976
0.00182641
0.00183932
0.00186719
0.0019193
0.00193794
0.00192334
0.00190208
0.00187752
0.00184466
0.00179984
0.00172217
0.00180236
0.00180813
0.00181733
0.00180184
0.00181031
0.00180924
0.00180623
0.00180635
0.00181022
0.0018127
0.0018143
0.00181651
0.00182142
0.00183038
0.00184888
0.00189112
0.00192913
0.00193336
0.00192786
0.00191873
0.00190156
0.00187855
0.0018332
0.00179977
0.00180489
0.00181556
0.00179813
0.00180606
0.00180693
0.00180526
0.00180421
0.00180824
0.00181022
0.00181142
0.00181321
0.00181707
0.00182294
0.00183405
0.00186035
0.00190585
0.00192818
0.00193431
0.00194054
0.00193674
0.00193014
0.00191615
0.00179725
0.0017997
0.00181212
0.00179497
0.00180314
0.00180483
0.00180387
0.00180221
0.00180622
0.00180786
0.00180866
0.00180973
0.00181285
0.00181725
0.00182346
0.00183839
0.00187021
0.00190573
0.00192149
0.00193977
0.00194829
0.001952
0.00195321
0.00179463
0.00179317
0.00180533
0.00179197