/*--------------------------------*- C++ -*----------------------------------*\
  =========                 |
  \\      /  F ield         | OpenFOAM: The Open Source CFD Toolbox
   \\    /   O peration     | Website:  https://openfoam.org
    \\  /    A nd           | Version:  7
     \\/     M anipulation  |
\*---------------------------------------------------------------------------*/
FoamFile
{
    version     2.0;
    format      ascii;
    class       volScalarField;
    location    "72";
    object      omega;
}
// * * * * * * * * * * * * * * * * * * * * * * * * * * * * * * * * * * * * * //

dimensions      [0 0 -1 0 0 0 0];

internalField   nonuniform List<scalar> 
12842
(
3.14824
2.84967
2.65857
2.53365
2.44018
2.37736
2.32843
2.29478
2.27089
2.25238
2.24206
2.23187
2.23151
2.23568
2.24385
2.272
2.30534
2.36902
2.43901
2.53592
2.60872
2.70636
2.76124
3.13346
2.83799
2.64055
2.52388
2.43641
2.37603
2.32776
2.29438
2.27023
2.25174
2.2414
2.23109
2.23126
2.23515
2.24542
2.26886
2.30505
2.37119
2.43993
2.5425
2.60777
2.70381
2.75894
3.11938
2.80504
2.61683
2.49932
2.41434
2.3602
2.31612
2.28656
2.2638
2.24723
2.23752
2.22868
2.22988
2.23547
2.24743
2.27165
2.31062
2.37782
2.44845
2.55383
2.61853
2.71134
2.76109
3.09931
2.78733
2.58822
2.47676
2.40229
2.35212
2.31027
2.28277
2.26087
2.24531
2.23589
2.22776
2.22925
2.23508
2.24875
2.27449
2.31676
2.38751
2.45868
2.56471
2.6328
2.73042
2.78167
3.0733
2.75207
2.56784
2.45468
2.37795
2.33328
2.29585
2.27313
2.25345
2.24047
2.23182
2.22564
2.22803
2.23616
2.25142
2.27961
2.32527
2.40063
2.47149
2.57604
2.64457
2.73847
2.78788
3.05387
2.72731
2.53909
2.43428
2.36426
2.32256
2.28905
2.26867
2.2501
2.2383
2.22998
2.22473
2.22746
2.23609
2.25242
2.28299
2.33266
2.41267
2.48641
2.59546
2.66582
2.76625
2.81402
3.02544
2.69707
2.51953
2.41645
2.34722
2.30805
2.27588
2.25938
2.24312
2.23368
2.22611
2.22299
2.22664
2.23696
2.25575
2.28808
2.34041
2.42762
2.49896
2.60481
2.68608
2.77869
2.82906
3.00739
2.67309
2.49649
2.39779
2.33238
2.29621
2.26919
2.25523
2.24002
2.23166
2.22438
2.22215
2.22605
2.23677
2.25698
2.29229
2.34892
2.43759
2.52025
2.62076
2.72073
2.81401
2.86409
2.9782
2.6486
2.47977
2.38606
2.32241
2.28741
2.25964
2.24782
2.23465
2.22798
2.22146
2.22084
2.22549
2.23716
2.25872
2.2948
2.35229
2.44616
2.53237
2.6256
2.73364
2.8261
2.87908
2.96005
2.62255
2.45904
2.36985
2.30914
2.27825
2.25431
2.24414
2.23154
2.22611
2.21991
2.2202
2.2251
2.23772
2.26007
2.29805
2.35872
2.45172
2.54675
2.64081
2.75793
2.84391
2.91808
2.92913
2.60011
2.44309
2.35985
2.30176
2.27224
2.24801
2.23882
2.2273
2.22308
2.21764
2.21897
2.22483
2.23828
2.26178
2.30055
2.36262
2.46149
2.55805
2.6497
2.77642
2.86104
2.93735
2.90826
2.57615
2.42461
2.34611
2.29014
2.26418
2.24309
2.23516
2.22393
2.22076
2.21608
2.21809
2.22404
2.23872
2.26341
2.30461
2.37111
2.47082
2.5728
2.67266
2.80372
2.88508
2.9855
2.88104
2.55668
2.41004
2.33659
2.28386
2.25908
2.23849
2.23107
2.22035
2.21794
2.21403
2.21654
2.22408
2.23936
2.26519
2.30763
2.3764
2.48363
2.58835
2.69125
2.83773
2.92175
3.01457
2.85885
2.53575
2.39431
2.32499
2.27417
2.25235
2.23359
2.22758
2.21747
2.21574
2.21246
2.21551
2.22353
2.23986
2.26697
2.31304
2.38803
2.49794
2.60519
2.71919
2.86968
2.95737
3.07388
2.83563
2.51948
2.38167
2.31632
2.26866
2.24734
2.22972
2.22436
2.21488
2.21349
2.21076
2.21413
2.22394
2.24098
2.2693
2.3178
2.39537
2.51314
2.62898
2.74996
2.92159
3.01433
3.12371
2.81425
2.50178
2.36883
2.30589
2.26042
2.24196
2.22486
2.22083
2.21238
2.21158
2.20925
2.21319
2.22399
2.24184
2.27215
2.32529
2.4106
2.53373
2.65167
2.78487
2.96143
3.06274
3.20121
2.79403
2.48838
2.35834
2.29831
2.25536
2.23677
2.221
2.21806
2.21041
2.2099
2.20798
2.2121
2.22395
2.24406
2.27687
2.33252
2.41976
2.55178
2.6835
2.82956
3.02521
3.13753
3.27091
2.7751
2.47354
2.34792
2.28894
2.24835
2.23245
2.21656
2.21435
2.20802
2.20806
2.20656
2.21131
2.2237
2.24599
2.28305
2.34161
2.43904
2.58115
2.71611
2.87673
3.07456
3.20086
3.36677
2.75738
2.46236
2.33937
2.28197
2.24349
2.22738
2.21263
2.2116
2.20593
2.20653
2.20549
2.21048
2.2247
2.24815
2.29095
2.3503
2.45013
2.60167
2.75226
2.93236
3.1443
3.29492
3.4608
2.7412
2.44998
2.33067
2.27448
2.23769
2.2237
2.20886
2.20807
2.20367
2.20466
2.20424
2.20983
2.22458
2.25121
2.30079
2.36031
2.47465
2.63968
2.79707
2.99397
3.20756
3.37667
3.57732
2.72612
2.44028
2.32354
2.26746
2.23294
2.2192
2.20521
2.2051
2.20115
2.20288
2.20317
2.20918
2.22438
2.25243
2.31341
2.36971
2.48823
2.661
2.83391
3.05753
3.28506
3.49552
3.70364
2.71241
2.42999
2.31594
2.26222
2.22824
2.21556
2.20198
2.20203
2.19893
2.20103
2.20218
2.20878
2.22475
2.25779
2.31608
2.38126
2.51651
2.70522
2.89213
3.13488
3.37285
3.6067
3.85719
2.69984
2.42109
2.3096
2.25519
2.22349
2.21171
2.19887
2.19914
2.19645
2.19916
2.20119
2.20816
2.2245
2.2586
2.31117
2.39112
2.53357
2.72947
2.9326
3.21329
3.47049
3.76369
4.03638
2.68975
2.41493
2.30461
2.25252
2.22073
2.20873
2.1967
2.19719
2.19463
2.19787
2.20067
2.20786
2.22581
2.25614
2.31161
2.40189
2.55928
2.77896
3.00587
3.30776
3.5966
3.92041
4.2528
2.68209
2.40803
2.30096
2.2493
2.21831
2.20674
2.19581
2.1961
2.1937
2.19713
2.20018
2.20699
2.2265
2.25648
2.31353
2.41019
2.58156
2.81628
3.06684
3.42549
3.74804
4.15228
4.53052
2.67521
2.404
2.29779
2.24764
2.21673
2.20518
2.19488
2.19518
2.19281
2.19649
2.19954
2.20612
2.22701
2.25862
2.31549
2.42067
2.6055
2.87646
3.16174
3.54239
3.9193
4.35911
4.80641
2.66813
2.39752
2.29436
2.24417
2.21456
2.20387
2.19424
2.19398
2.1921
2.19562
2.19852
2.2047
2.2284
2.26077
2.31785
2.43052
2.63621
2.93418
3.25574
3.70477
4.12954
4.65688
5.16978
2.66168
2.39392
2.29128
2.24232
2.21328
2.20297
2.19328
2.19255
2.19091
2.19453
2.19717
2.20317
2.22893
2.26237
2.32118
2.44956
2.67087
3.00803
3.39118
3.87018
4.36137
4.92696
5.50288
2.65518
2.38817
2.28812
2.23844
2.21152
2.20235
2.19221
2.19049
2.18958
2.19284
2.19544
2.20241
2.23125
2.2638
2.32717
2.47035
2.71627
3.08434
3.51288
4.06883
4.61482
5.24441
5.85612
2.64903
2.38524
2.28523
2.23626
2.21062
2.20196
2.19058
2.18791
2.18725
2.19086
2.19357
2.20213
2.2314
2.26619
2.34094
2.50744
2.77327
3.17956
3.66743
4.25225
4.84637
5.5022
6.16285
2.64267
2.3803
2.28238
2.23251
2.20925
2.20115
2.18846
2.18497
2.18528
2.18849
2.19175
2.20215
2.23056
2.27066
2.36313
2.54825
2.83729
3.27239
3.79712
4.44653
5.10154
5.80799
6.48265
2.63684
2.37799
2.27992
2.23006
2.20839
2.20028
2.18595
2.18161
2.18215
2.1862
2.19026
2.202
2.23142
2.2852
2.39943
2.60597
2.91882
3.39119
3.96081
4.63831
5.31902
6.03845
6.74301
2.63057
2.37366
2.27761
2.22703
2.20713
2.19781
2.18286
2.1785
2.17987
2.18399
2.18917
2.20204
2.23605
2.30751
2.4436
2.6703
3.00241
3.49212
4.08952
4.80984
5.54967
6.31204
7.01616
2.62509
2.37169
2.27585
2.2242
2.20588
2.19568
2.17978
2.17557
2.17764
2.18222
2.18879
2.20443
2.25641
2.34863
2.50306
2.74495
3.09998
3.62554
4.25133
4.99642
5.74742
6.51091
7.23135
2.61906
2.3677
2.2744
2.22148
2.20365
2.19141
2.1766
2.17315
2.17584
2.18086
2.18881
2.21437
2.28545
2.39313
2.56534
2.82688
3.19801
3.72689
4.37194
5.14093
5.93897
6.74499
7.45138
2.61405
2.36587
2.27349
2.2181
2.20139
2.18815
2.17377
2.17133
2.17436
2.18076
2.19328
2.23929
2.33185
2.45617
2.64315
2.91381
3.30188
3.86046
4.5246
5.31369
6.12158
6.91707
7.63063
2.60825
2.36204
2.27273
2.21427
2.19835
2.1837
2.17141
2.17117
2.17479
2.18288
2.20664
2.27374
2.38274
2.5177
2.71539
3.00035
3.4014
3.95704
4.63256
5.43443
6.27151
7.10848
7.80593
2.60375
2.36026
2.27223
2.21062
2.19541
2.18118
2.16957
2.17427
2.17939
2.19329
2.23403
2.32237
2.44787
2.59421
2.80249
3.0947
3.50674
4.0808
4.77232
5.59092
6.44319
7.26638
7.95145
2.59798
2.35652
2.27135
2.20628
2.19206
2.1784
2.16973
2.18415
2.19271
2.21449
2.27093
2.37762
2.51257
2.66415
2.87672
3.17501
3.59479
4.16736
4.86596
5.69316
6.5606
7.40783
8.09313
2.59411
2.35462
2.27063
2.20254
2.18901
2.17623
2.17425
2.20358
2.21568
2.24752
2.32086
2.4431
2.58715
2.74473
2.96348
3.26842
3.69617
4.27815
4.99174
5.83349
6.7145
7.55535
8.21854
2.58801
2.35058
2.26902
2.19863
2.1865
2.17589
2.1852
2.23117
2.24862
2.29045
2.37768
2.51052
2.65617
2.81451
3.03331
3.33882
3.76894
4.35133
5.07064
5.91901
6.80789
7.65435
8.33584
2.5847
2.34787
2.26725
2.19531
2.18648
2.17925
2.20722
2.26825
2.29036
2.34378
2.44323
2.58316
2.73158
2.89175
3.11286
3.42246
3.85872
4.44845
5.18237
6.04421
6.9432
7.79317
8.47188
2.57843
2.3421
2.2645
2.19258
2.19028
2.1896
2.23593
2.31207
2.34009
2.40316
2.51138
2.65329
2.79709
2.95492
3.17347
3.48152
3.91758
4.50732
5.24653
6.11366
7.01703
7.87148
8.56966
2.57453
2.33823
2.26209
2.1924
2.20046
2.21072
2.27543
2.36288
2.39596
2.46946
2.58295
2.72444
2.86703
3.02417
3.2424
3.55228
3.99288
4.59132
5.34504
6.22572
7.13891
8.00362
8.71061
2.56893
2.3319
2.25828
2.19604
2.2195
2.24039
2.31995
2.41773
2.45598
2.53665
2.65292
2.78978
2.92415
3.07691
3.29124
3.59832
4.03807
4.63728
5.39592
6.28232
7.20154
8.07588
8.79991
2.56374
2.32692
2.2549
2.20468
2.24521
2.2794
2.37231
2.47611
2.51858
2.60686
2.72186
2.85357
2.98498
3.13616
3.34874
3.65677
4.10083
4.70993
5.48445
6.38618
7.31733
8.20262
8.92336
2.55876
2.32174
2.25407
2.22287
2.27815
2.32513
2.42677
2.53487
2.58114
2.67324
2.78592
2.90969
3.03174
3.17717
3.38548
3.69111
4.13462
4.74632
5.52801
6.43867
7.37868
8.27364
9.00174
2.55321
2.3175
2.25597
2.2464
2.31574
2.37626
2.48461
2.59356
2.64277
2.73906
2.8462
2.96304
3.08187
3.22609
3.43276
3.73922
4.18777
4.81288
5.61542
6.54785
7.50732
8.42296
9.15687
2.54633
2.31278
2.25967
2.27843
2.3583
2.43181
2.5434
2.6515
2.7029
2.80016
2.90145
3.00971
3.11959
3.25722
3.45919
3.76376
4.21343
4.84437
5.65844
6.60725
7.59173
8.53376
9.28418
2.54073
2.31188
2.26996
2.31716
2.40577
2.49178
2.604
2.70983
2.76229
2.86014
2.95373
3.05438
3.16017
3.29586
3.49564
3.79949
4.25221
4.89561
5.73408
6.71274
7.75468
8.77024
9.59716
2.53298
2.31194
2.28414
2.3613
2.45451
2.55097
2.6618
2.76459
2.81745
2.91271
2.9984
3.0914
3.18984
3.31885
3.51298
3.81468
4.26852
4.91914
5.77334
6.77867
7.86422
8.93238
9.78916
2.52764
2.3167
2.30597
2.40861
2.50431
2.60853
2.71542
2.81628
2.8687
2.95942
3.03788
3.12426
3.21851
3.34491
3.53756
3.83857
4.29478
4.95859
5.84144
6.86783
8.136
9.379
10.5043
2.52342
2.32789
2.33059
2.4568
2.55286
2.6619
2.76507
2.86417
2.91545
2.99972
3.07103
3.15136
3.24046
3.36164
3.54945
3.84974
4.30904
4.98241
5.88697
6.99257
8.31552
9.80523
11.0064
2.52082
2.34752
2.36237
2.50643
2.60151
2.71237
2.81026
2.90742
2.95684
3.03411
3.10005
3.17496
3.26073
3.38002
3.56747
3.8695
4.33209
5.02771
5.97422
7.14184
8.90594
10.7372
12.463
2.51945
2.37345
2.3973
2.55472
2.64828
2.75799
2.85171
2.94576
2.99277
3.06315
3.12411
3.19422
3.27677
3.39252
3.57731
3.87956
4.35176
5.05917
6.04756
7.47127
9.35577
11.9574
14.1535
2.52032
2.40694
2.43865
2.60406
2.69498
2.80128
2.88984
2.97828
3.02288
3.08739
3.14526
3.21115
3.29166
3.40664
3.59308
3.90282
4.38011
5.12285
6.22219
7.95127
10.5038
13.4019
16.8539
2.52554
2.44439
2.48139
2.64871
2.73701
2.83777
2.92185
3.00327
3.04569
3.10547
3.16088
3.2235
3.30216
3.41579
3.60305
3.91008
4.41301
5.18709
6.42081
8.6176
11.0591
14.7378
20.3218
2.53709
2.48379
2.52534
2.69152
2.77627
2.87135
2.95025
3.0238
3.06465
3.12064
3.17473
3.23455
3.31165
3.42505
3.61491
3.93357
4.43842
5.26602
6.73555
8.96166
11.9238
15.6108
24.6844
2.5528
2.52567
2.571
2.73243
2.81415
2.90246
2.97636
3.04156
3.08079
3.13339
3.18634
3.24399
3.31989
3.43366
3.62716
3.95179
4.50482
5.43806
7.03617
9.57055
12.3241
17.6776
29.7855
2.57264
2.56897
2.61751
2.77213
2.84936
2.93112
2.99924
3.0561
3.0943
3.14417
3.19665
3.25272
3.32777
3.44343
3.64381
3.99151
4.58048
5.59477
7.4248
10.0445
13.2801
20.1467
36.8118
2.59544
2.61209
2.66336
2.80917
2.88241
2.95752
3.0199
3.06923
3.10597
3.15345
3.20547
3.26033
3.33507
3.45331
3.66181
4.03005
4.67679
5.82216
7.74703
10.4104
14.678
24.6539
43.8401
2.62006
2.65486
2.70828
2.8441
2.91238
2.9812
3.0377
3.08018
3.11596
3.16137
3.2132
3.26755
3.34221
3.46528
3.68497
4.08435
4.80778
6.05263
8.07207
11.1784
16.684
30.8574
52.9712
2.64622
2.69522
2.75047
2.87599
2.93947
3.00264
3.05337
3.09047
3.12472
3.16857
3.22016
3.27403
3.34958
3.47765
3.71217
4.14971
4.92767
6.2551
8.47672
11.8754
19.8715
35.9663
59.9053
2.67227
2.73388
2.79017
2.90485
2.96361
3.02153
3.06701
3.09934
3.13245
3.17483
3.22609
3.28008
3.35627
3.49253
3.74191
4.21793
5.09128
6.54333
8.78315
13.0978
22.8348
40.8188
64.8087
2.69817
2.76902
2.82619
2.93082
2.98468
3.03811
3.07859
3.10778
3.13933
3.18082
3.23168
3.2859
3.36413
3.50734
3.77885
4.30393
5.23423
6.75459
9.41959
15.0681
26.7324
44.6096
67.4998
2.72332
2.80145
2.85859
2.95321
3.00306
3.05267
3.08903
3.11519
3.14559
3.18623
3.2365
3.29064
3.37016
3.52479
3.81495
4.38968
5.41199
7.08133
10.1452
16.706
29.0492
44.5939
69.4305
2.74664
2.83071
2.88743
2.97322
3.01892
3.06516
3.09769
3.1223
3.15122
3.19146
3.24076
3.29597
3.37801
3.54098
3.85813
4.4822
5.58237
7.45428
11.0082
18.1053
30.2116
46.1365
68.7916
2.76983
2.85654
2.91219
2.98983
3.0322
3.07594
3.10579
3.12844
3.15661
3.19638
3.24503
3.30008
3.38407
3.56017
3.90297
4.59539
5.815
7.9515
11.7386
19.3986
31.4658
45.0871
70.2789
2.79029
2.88042
2.9342
3.00468
3.0442
3.0855
3.11272
3.13459
3.16134
3.201
3.24813
3.30496
3.39137
3.57748
3.94827
4.70451
6.04391
8.41026
12.7183
20.1259
31.0732
45.177
68.7556
2.81132
2.90088
2.95221
3.01686
3.05368
3.09343
3.11935
3.13972
3.1661
3.20553
3.25165
3.30942
3.39832
3.59747
4.00309
4.83452
6.32778
8.95417
13.3649
20.5896
31.6334
45.2006
68.9577
2.82995
2.92034
2.96871
3.02812
3.06314
3.10095
3.12542
3.14514
3.17034
3.20937
3.25464
3.31367
3.4052
3.61614
4.05065
4.98952
6.64014
9.358
13.7666
20.6676
31.9469
46.9101
69.9398
2.84879
2.93728
2.98188
3.03737
3.07072
3.10753
3.13146
3.14966
3.17446
3.21357
3.25679
3.31413
3.41192
3.63583
4.09866
5.05547
6.70244
9.67629
14.0357
20.5765
31.1543
45.9182
70.7055
2.86689
2.95348
2.99453
3.04687
3.07871
3.11356
3.13698
3.15474
3.17841
3.21632
3.26031
3.31476
3.41323
3.65256
4.13917
5.08526
6.76498
9.67718
14.3331
20.8696
31.5017
45.5541
68.8861
2.88317
2.9683
3.00508
3.05469
3.08628
3.1202
3.14322
3.159
3.18258
3.22045
3.26245
3.31553
3.41431
3.65466
4.14343
5.13717
6.87607
9.71548
14.2303
20.4782
31.9881
45.4067
68.8211
2.90165
2.98251
3.01601
3.06372
3.09364
3.12572
3.1483
3.16429
3.1855
3.22183
3.26389
3.31579
3.41649
3.65713
4.14901
5.13643
6.97177
9.76683
14.3988
20.6121
31.2568
45.216
69.2949
2.91563
2.99613
3.02538
3.0716
3.10208
3.13245
3.15474
3.16856
3.19079
3.22573
3.26432
3.31597
3.41592
3.66209
4.1618
5.14594
6.95935
9.77349
14.1792
20.537
31.4401
46.8794
67.358
2.93363
3.00842
3.03591
3.08059
3.10959
3.1388
3.15951
3.17409
3.19282
3.22674
3.26465
3.31707
3.41756
3.66653
4.16621
5.16063
6.96298
9.80693
14.1879
20.747
30.4541
45.5415
67.2564
2.94671
3.02162
3.04571
3.08916
3.11759
3.1446
3.16583
3.17855
3.19744
3.22823
3.2645
3.31603
3.41639
3.66514
4.16704
5.16414
7.03426
9.90552
14.1735
20.3141
30.3458
46.0565
67.8344
2.96238
3.03176
3.05451
3.09745
3.12636
3.15262
3.16946
3.1844
3.20168
3.23248
3.26458
3.31718
3.41758
3.66476
4.16695
5.16901
7.00159
9.79003
14.2522
20.3027
30.6382
44.2536
64.7897
2.97537
3.04449
3.06603
3.10723
3.13316
3.15884
3.17756
3.18984
3.20668
3.23277
3.26453
3.31605
3.41662
3.66446
4.16801
5.17059
6.99206
9.88319
13.9856
20.5282
29.585
41.3153
59.6517
2.99063
3.05771
3.07513
3.11572
3.14361
3.16858
3.1803
3.19673
3.21158
3.23363
3.26476
3.31659
3.41642
3.66747
4.17282
5.17433
6.99001
9.80452
13.9567
20.0748
27.764
37.8704
53.8689
3.00639
3.06971
3.08693
3.12649
3.15396
3.17795
3.18948
3.2057
3.21501
3.23591
3.2656
3.31654
3.41627
3.6652
4.16329
5.18942
7.01986
9.79978
13.9778
19.0754
25.5933
34.3647
48.2634
3.02441
3.08628
3.09982
3.14128
3.16283
3.1856
3.19611
3.20907
3.21748
3.23604
3.26417
3.31484
3.41668
3.66455
4.17354
5.15832
6.99477
9.85142
13.5567
17.8078
23.3429
30.9837
43.0618
3.03855
3.09293
3.11381
3.14709
3.16839
3.19087
3.20079
3.21035
3.21946
3.23652
3.26567
3.3147
3.41439
3.66576
4.16328
5.15248
6.93967
9.67275
12.8826
16.456
21.2009
27.9727
38.5842
3.04737
3.09595
3.11596
3.14962
3.16919
3.19432
3.20226
3.21242
3.22133
3.23842
3.2644
3.31549
3.41388
3.66029
4.16526
5.15028
6.78215
9.31774
12.0723
15.1101
19.2219
25.2836
34.6639
3.04706
3.1014
3.11855
3.15358
3.17268
3.19286
3.20252
3.21564
3.22015
3.23775
3.26498
3.31522
3.41266
3.65942
4.15032
5.09801
6.58202
8.88911
11.2432
13.8639
17.496
23.0897
31.4809
3.0485
3.10564
3.12153
3.15888
3.1719
3.19373
3.20272
3.21432
3.22099
3.23958
3.2631
3.31493
3.41192
3.65982
4.11906
5.00779
6.34284
8.40765
10.4211
12.7271
15.9996
21.2515
28.7434
3.05179
3.10927
3.12278
3.15746
3.17483
3.19444
3.20361
3.21435
3.22158
3.23785
3.26305
3.31329
3.41083
3.65407
4.08271
4.907
6.1102
7.9501
9.68942
11.7555
14.7593
19.8123
26.6504
3.05724
3.10744
3.12359
3.15954
3.17243
3.19171
3.20593
3.21481
3.21941
3.23818
3.26421
3.31218
3.41012
3.64102
4.03728
4.79042
5.87106
7.48886
9.00616
10.894
13.6883
18.5983
24.7793
3.06313
3.10716
3.12402
3.16209
3.17306
3.19163
3.20371
3.21452
3.21879
3.2378
3.26394
3.31156
3.41052
3.62793
3.99524
4.68507
5.66837
7.10543
8.45977
10.2112
12.8294
17.5872
23.3883
3.05935
3.10596
3.12838
3.15889
3.17492
3.19189
3.20446
3.2144
3.21832
3.23795
3.26323
3.30875
3.40901
3.61009
3.94833
4.57226
5.46414
6.72532
7.94501
9.59267
12.0639
16.7212
21.9983
3.06233
3.10503
3.12536
3.16088
3.17449
3.19334
3.20611
3.2141
3.21978
3.23913
3.26242
3.30805
3.40722
3.59606
3.91011
4.48531
5.31509
6.45569
7.59038
9.16915
11.5414
16.0707
21.0903
3.06232
3.10381
3.12517
3.15939
3.17529
3.19419
3.20706
3.21407
3.21725
3.23653
3.26057
3.30887
3.40254
3.57733
3.86848
4.3858
5.14724
6.15808
7.20656
8.71254
10.979
15.4334
19.9863
3.06116
3.10295
3.12612
3.16212
3.17149
3.19061
3.2053
3.21454
3.21712
3.23644
3.2587
3.30832
3.40036
3.5669
3.84033
4.33123
5.05998
6.00458
7.0217
8.49943
10.7037
15.0457
19.4989
3.05889
3.10354
3.12585
3.16274
3.17455
3.19035
3.20573
3.2139
3.21797
3.23608
3.25964
3.30613
3.39404
3.54718
3.80179
4.24008
4.91283
5.76425
6.71243
8.12761
10.1489
14.1
18.4889
3.05883
3.09774
3.12782
3.16204
3.17132
3.19139
3.20402
3.21294
3.21487
3.2374
3.25778
3.30577
3.39455
3.54468
3.79636
4.22392
4.88697
5.69825
6.65665
8.10208
10.0972
13.9985
18.2173
3.05201
3.1021
3.12264
3.16088
3.17214
3.18702
3.2045
3.21142
3.21556
3.23744
3.2586
3.30166
3.38558
3.52574
3.75802
4.14772
4.76628
5.51039
6.40119
7.71809
9.59152
13.1954
17.3207
3.05066
3.09671
3.12193
3.15776
3.16907
3.19028
3.19949
3.2107
3.21381
3.23598
3.25665
3.29755
3.37687
3.50768
3.72231
4.07916
4.65754
5.34532
6.17317
7.39749
9.09695
12.3337
16.4275
3.04668
3.09979
3.12388
3.15566
3.16787
3.18513
3.19836
3.20494
3.21474
3.2331
3.25436
3.29311
3.3673
3.48895
3.6866
4.01205
4.55002
5.1839
5.94433
7.08101
8.59263
11.4038
15.3787
3.04458
3.09761
3.12288
3.15121
3.16446
3.18661
3.20009
3.20337
3.21361
3.22832
3.24774
3.28707
3.35778
3.47037
3.65144
3.94651
4.44253
5.02445
5.71457
6.76112
8.08221
10.4322
14.2008
3.0396
3.09323
3.12003
3.14627
3.15861
3.18042
3.19771
3.2046
3.20977
3.22112
3.24161
3.28022
3.34633
3.45022
3.61543
3.88109
4.33246
4.8646
5.4788
6.43023
7.5716
9.50242
12.9667
3.03621
3.08317
3.11474
3.13439
3.14716
3.175
3.19327
3.20227
3.20373
3.21102
3.2349
3.27232
3.33417
3.42948
3.5793
3.81661
4.22079
4.70297
5.23653
6.06605
7.07533
8.72523
11.7962
3.03792
3.06766
3.10042
3.13044
3.14371
3.16772
3.18595
3.19071
3.19823
3.20751
3.2273
3.26277
3.31959
3.40622
3.54141
3.75193
4.10824
4.53835
4.99207
5.68325
6.56961
7.98629
10.6594
3.02887
3.06274
3.09217
3.13068
3.14484
3.15486
3.17681
3.18337
3.191
3.20708
3.22139
3.25379
3.30416
3.3822
3.50316
3.68866
3.99903
4.37365
4.75732
5.31163
6.06376
7.24695
9.49697
3.01193
3.06442
3.08309
3.11901
3.14048
3.15306
3.16619
3.17323
3.18163
3.19992
3.21549
3.24232
3.28654
3.35587
3.46274
3.62508
3.89329
4.21141
4.53302
4.96799
5.58101
6.53562
8.35817
2.98731
3.05832
3.07694
3.1081
3.12221
3.14482
3.15848
3.15851
3.17303
3.19134
3.20605
3.22998
3.26885
3.32946
3.42254
3.56319
3.7937
4.05876
4.32508
4.66306
5.14486
5.89119
7.31003
2.97913
3.04623
3.06486
3.08644
3.10638
3.12638
3.14785
3.15661
3.16692
3.17909
3.19266
3.21402
3.24806
3.30076
3.38004
3.49997
3.69691
3.91627
4.13339
4.39309
4.75799
5.32406
6.39206
2.98207
3.03125
3.04606
3.06895
3.08709
3.10648
3.13546
3.14483
3.15473
3.1647
3.17732
3.1968
3.2271
3.27217
3.33846
3.43798
3.60576
3.78816
3.96445
4.16195
4.42894
4.83807
5.60683
2.97086
3.01105
3.02199
3.05373
3.0642
3.0847
3.11846
3.12714
3.13757
3.14588
3.15717
3.17518
3.20169
3.24001
3.29414
3.37389
3.51249
3.66857
3.81292
3.96276
4.15201
4.43493
4.94976
2.95345
2.98959
2.99994
3.04516
3.04482
3.06812
3.10072
3.10911
3.12009
3.12723
3.13758
3.15385
3.17665
3.20882
3.25248
3.31426
3.4222
3.55714
3.68069
3.79698
3.92945
4.1172
4.43645
2.92669
2.96309
2.9893
3.02306
3.03326
3.05066
3.07735
3.08609
3.09707
3.10406
3.11347
3.1277
3.1464
3.17315
3.20802
3.25413
3.33248
3.44457
3.55269
3.64888
3.74404
3.86287
4.05735
2.89609
2.93608
2.9649
2.99781
3.0098
3.0291
3.05216
3.06242
3.07304
3.08076
3.08979
3.10201
3.11755
3.13929
3.1673
3.20099
3.25481
3.34173
3.43407
3.51735
3.59342
3.66766
3.78406
2.85828
2.90238
2.93032
2.96437
2.97692
2.99769
3.01854
3.03044
3.04055
3.04907
3.0578
3.06835
3.08074
3.09845
3.12112
3.14533
3.1809
3.24228
3.31638
3.38749
3.45251
3.50632
3.57582
2.8204
2.86777
2.89389
2.92957
2.94263
2.96431
2.98382
2.99723
3.00696
3.01613
3.02505
3.03492
3.04512
3.05906
3.07802
3.09686
3.11989
3.15965
3.21626
3.27284
3.3317
3.37201
3.42353
2.77536
2.82375
2.84822
2.88491
2.89829
2.92
2.93828
2.95261
2.96208
2.97125
2.97972
2.98907
2.99772
3.00875
3.02389
3.03906
3.05478
3.07719
3.1165
3.15982
3.21152
3.2472
3.28656
2.73102
2.77914
2.80292
2.83977
2.85399
2.87489
2.89243
2.90755
2.91723
2.92644
2.93488
2.94403
2.95168
2.96062
2.97368
2.98685
2.99922
3.01229
3.03592
3.06301
3.10694
3.14066
3.17746
2.676
2.72219
2.74576
2.7814
2.79638
2.81535
2.83184
2.84722
2.85707
2.86587
2.87338
2.8823
2.88924
2.89558
2.90553
2.91713
2.92901
2.93708
2.95133
2.96599
2.9936
3.02048
3.05567
2.62192
2.66625
2.6903
2.72418
2.74027
2.75726
2.77291
2.78842
2.79898
2.808
2.8152
2.82372
2.83125
2.83679
2.84412
2.85269
2.86498
2.87294
2.88378
2.89224
2.90754
2.92433
2.95062
2.55276
2.59409
2.61827
2.64935
2.66587
2.68041
2.6944
2.70914
2.71958
2.72836
2.73451
2.74202
2.74919
2.7544
2.76
2.765
2.77395
2.78125
2.79143
2.7977
2.80772
2.81636
2.83242
2.48717
2.52635
2.55098
2.57953
2.59672
2.60976
2.62248
2.6365
2.64721
2.65635
2.66249
2.66884
2.6764
2.68204
2.68836
2.69213
2.69896
2.70392
2.71293
2.7189
2.72796
2.734
2.74399
2.40147
2.43672
2.46061
2.48568
2.50212
2.51335
2.52382
2.53589
2.54544
2.55412
2.55965
2.56418
2.56985
2.5745
2.58067
2.58378
2.58895
2.59216
2.59808
2.60215
2.60944
2.61409
2.62166
2.3258
2.35856
2.38201
2.40473
2.42088
2.43159
2.44106
2.45177
2.46069
2.46915
2.47584
2.47987
2.48536
2.48877
2.49496
2.49833
2.50363
2.5064
2.5114
2.51446
2.52029
2.52393
2.53058
2.22215
2.24934
2.27001
2.28879
2.30257
2.3115
2.31851
2.32689
2.3334
2.33978
2.34563
2.34885
2.35262
2.35473
2.35833
2.36074
2.3647
2.3668
2.37016
2.37214
2.37573
2.37809
2.38248
2.14126
2.16588
2.18476
2.20159
2.21438
2.22324
2.22938
2.23642
2.24277
2.24779
2.25396
2.25763
2.26213
2.26413
2.26749
2.26931
2.27277
2.27467
2.27806
2.27979
2.283
2.28482
2.2883
2.01785
2.03394
2.04677
2.05824
2.06697
2.07322
2.07696
2.08042
2.08396
2.08637
2.08951
2.09158
2.09434
2.09575
2.09754
2.0985
2.09996
2.10101
2.10273
2.10385
2.10577
2.10697
2.10918
1.93878
1.95498
1.96676
1.977
1.98479
1.99066
1.99436
1.99723
2.00032
2.0023
2.005
2.00672
2.00924
2.01076
2.01251
2.01347
2.01485
2.01565
2.01719
2.01808
2.01976
2.02079
2.02261
1.77778
1.77967
1.77877
1.77895
1.77931
1.77963
1.78
1.77921
1.77902
1.77788
1.77774
1.77711
1.77659
1.77656
1.77669
1.77673
1.77687
1.77691
1.77722
1.77737
1.778
1.77886
1.77971
3.06572
2.74428
2.55383
2.44417
2.36735
2.32425
2.28581
2.26621
2.24559
2.23667
2.22764
2.22187
2.22263
2.22664
2.23677
2.25817
2.2926
2.34943
2.42432
2.5258
2.60359
2.68602
2.73174
3.07791
2.75516
2.56693
2.45761
2.38383
2.3341
2.29401
2.26987
2.25096
2.2401
2.22993
2.22424
2.22475
2.22851
2.23865
2.25984
2.29419
2.35311
2.42364
2.53433
2.59588
2.68013
2.72838
3.0955
2.78293
2.5893
2.47618
2.39226
2.3416
2.29938
2.27661
2.25504
2.24193
2.23243
2.22631
2.22592
2.22945
2.23916
2.26093
2.29412
2.35358
2.42337
2.52742
2.592
2.68267
2.73402
3.11182
2.79339
2.60193
2.48991
2.40692
2.35332
2.31009
2.28218
2.25989
2.24621
2.23646
2.22824
2.22766
2.23112
2.24045
2.26299
2.29416
2.3553
2.42503
2.53117
2.59604
2.68371
2.73653
3.12398
2.82151
2.63491
2.513
2.42221
2.36366
2.3173
2.28858
2.26672
2.25088
2.24028
2.23103
2.22979
2.2331
2.24188
2.2642
2.29571
2.35662
2.42761
2.52731
2.59472
2.69134
2.74486
3.13907
2.84095
2.64438
2.5188
2.42718
2.36828
2.32341
2.29318
2.27046
2.25311
2.24274
2.23268
2.23155
2.23494
2.24275
2.26903
2.29999
2.36014
2.42962
2.5303
2.5961
2.69158
2.74539
3.14833
2.85392
2.66034
2.53514
2.44435
2.38237
2.335
2.30144
2.27765
2.25824
2.24718
2.23626
2.23403
2.23781
2.24454
2.27851
2.30772
2.37349
2.44138
2.54116
2.61108
2.71208
2.77135
3.15106
2.85893
2.66417
2.53734
2.44407
2.38109
2.33382
2.30061
2.27706
2.25776
2.24695
2.23601
2.23423
2.2382
2.24545
2.28072
2.30978
2.37627
2.44507
2.54479
2.61509
2.71682
2.77531
2.86776
2.54061
2.39457
2.31613
2.27319
2.24883
2.22942
2.21743
2.20565
2.20386
2.2014
2.20249
2.20544
2.21275
2.22963
2.26047
2.31022
2.39328
2.51886
2.72415
2.88726
3.08706
3.274
2.88324
2.54818
2.39996
2.32028
2.27695
2.25229
2.23187
2.2201
2.20709
2.20508
2.20231
2.20338
2.20636
2.21334
2.23008
2.26195
2.30845
2.38789
2.50834
2.70398
2.84936
3.01945
3.20997
2.8853
2.55581
2.40717
2.32709
2.28185
2.25661
2.23487
2.22248
2.20895
2.20641
2.20326
2.20419
2.20695
2.21375
2.22965
2.26155
2.30728
2.38179
2.49696
2.68126
2.81632
2.97246
3.14818
2.90081
2.56491
2.4133
2.33212
2.28559
2.25999
2.23703
2.22515
2.21071
2.20806
2.20442
2.2054
2.20803
2.21444
2.22996
2.25934
2.31025
2.37714
2.48708
2.65464
2.78646
2.91777
3.08444
2.90476
2.57392
2.42163
2.33976
2.29106
2.26447
2.24032
2.22729
2.21281
2.20944
2.20565
2.20637
2.20885
2.2151
2.23029
2.25921
2.30917
2.37335
2.48489
2.64163
2.75728
2.88037
3.03473
2.92189
2.58492
2.42852
2.34582
2.29534
2.26819
2.24255
2.23013
2.21484
2.21132
2.20703
2.20764
2.20994
2.21588
2.23079
2.25855
2.30737
2.36795
2.48927
2.61538
2.72533
2.83952
2.98364
2.92743
2.59551
2.43851
2.35452
2.30126
2.27241
2.24595
2.23217
2.21722
2.21333
2.20861
2.20904
2.21118
2.2168
2.23104
2.25859
2.30175
2.36599
2.48986
2.60405
2.70295
2.8098
2.93661
2.94657
2.60878
2.44655
2.36144
2.3062
2.27682
2.24858
2.23518
2.21959
2.21527
2.21039
2.21046
2.21241
2.21782
2.23184
2.25595
2.30041
2.36268
2.47895
2.58182
2.68316
2.78298
2.89939
2.95347
2.62098
2.45892
2.37141
2.31306
2.28109
2.25236
2.2377
2.22234
2.21788
2.21231
2.21202
2.2138
2.21891
2.2322
2.25576
2.29863
2.35975
2.47748
2.5644
2.66444
2.75402
2.85958
2.97473
2.63691
2.46791
2.37889
2.31825
2.28562
2.25522
2.24066
2.22496
2.22014
2.21459
2.21368
2.21527
2.22008
2.2325
2.25526
2.29799
2.35786
2.46415
2.5471
2.65478
2.74147
2.83767
2.98256
2.65063
2.4834
2.38995
2.32687
2.29129
2.26018
2.24424
2.22832
2.22293
2.21664
2.21504
2.21644
2.2211
2.23251
2.25605
2.29703
2.35417
2.45644
2.53172
2.6401
2.72058
2.8092
3.00575
2.66954
2.4931
2.3984
2.33194
2.29534
2.26313
2.24732
2.23102
2.22564
2.21917
2.21676
2.21793
2.22226
2.23388
2.25726
2.29349
2.35269
2.45132
2.52522
2.62947
2.71154
2.78966
3.01382
2.68406
2.51077
2.40987
2.34258
2.30321
2.26964
2.25186
2.23508
2.22845
2.22123
2.21793
2.21899
2.22323
2.2348
2.25735
2.29399
2.35343
2.44145
2.51886
2.61957
2.70081
2.76588
3.03791
2.70655
2.52203
2.41994
2.34794
2.30771
2.27316
2.25582
2.23786
2.23122
2.22353
2.21935
2.22024
2.22424
2.23488
2.25681
2.29406
2.34941
2.43428
2.52357
2.60904
2.69541
2.74604
3.04598
2.71965
2.53948
2.43191
2.3604
2.31693
2.28076
2.26054
2.2424
2.23407
2.22558
2.22061
2.22147
2.22548
2.23628
2.25792
2.2923
2.35057
2.4298
2.52599
2.60785
2.69521
2.74033
2.75947
2.45308
2.31365
2.29524
2.31834
2.40231
2.45612
2.56046
2.63065
2.70059
2.78554
2.87528
2.95331
3.02112
3.10127
3.20141
3.33373
3.51557
3.75187
4.05466
4.37071
4.75107
5.11596
2.76443
2.4608
2.31293
2.27608
2.28294
2.34895
2.40269
2.49581
2.5594
2.63026
2.71622
2.81453
2.90044
2.97315
3.05759
3.16546
3.30096
3.48739
3.72089
4.02371
4.33122
4.71076
5.08323
2.76561
2.46557
2.3132
2.26742
2.25689
2.30763
2.35411
2.43832
2.49318
2.56056
2.64613
2.74955
2.84225
2.92316
3.01383
3.12238
3.25911
3.44888
3.68535
3.99363
4.30164
4.67402
5.04958
2.76984
2.47248
2.31762
2.26821
2.24047
2.27898
2.3148
2.38492
2.43054
2.492
2.57713
2.68334
2.782
2.86709
2.96109
3.07576
3.21534
3.41057
3.64444
3.95557
4.25928
4.63066
5.0117
2.77135
2.47648
2.32113
2.26611
2.22939
2.24608
2.27899
2.33501
2.36866
2.42462
2.50317
2.61088
2.71513
2.80623
2.90618
3.02309
3.16347
3.36274
3.60001
3.9157
4.22196
4.58709
4.9712
2.77582
2.47973
2.32594
2.26932
2.22674
2.2303
2.25217
2.29547
2.31859
2.36264
2.4378
2.54139
2.64707
2.74157
2.8448
2.96613
3.1083
3.31168
3.54928
3.86834
4.17269
4.53755
4.92505
2.77803
2.48261
2.33198
2.27279
2.22809
2.21696
2.23255
2.26044
2.27352
2.31037
2.37285
2.47077
2.5781
2.67524
2.78178
2.90478
3.04687
3.25394
3.49393
3.81644
4.12609
4.48572
4.87457
2.78312
2.48394
2.33567
2.27558
2.22914
2.21045
2.21744
2.23501
2.23916
2.26279
2.31879
2.40779
2.50907
2.60568
2.71458
2.84001
2.98232
3.19045
3.4328
3.75725
4.06899
4.42761
4.81857
2.78613
2.48584
2.34088
2.28011
2.23258
2.21216
2.21086
2.2171
2.21515
2.23129
2.27206
2.34759
2.44535
2.53974
2.64809
2.773
2.91384
3.12332
3.36722
3.69275
4.01104
4.36727
4.75561
2.79111
2.48667
2.34429
2.28209
2.23501
2.21182
2.20658
2.20457
2.19769
2.20364
2.23516
2.30019
2.38376
2.47277
2.58033
2.70487
2.84402
3.05064
3.29631
3.62132
3.94533
4.2996
4.68801
2.79531
2.48815
2.34791
2.28577
2.23907
2.21491
2.20705
2.20065
2.19105
2.19024
2.21037
2.25768
2.33269
2.41362
2.51615
2.6371
2.77317
2.9772
3.22317
3.54577
3.87708
4.23179
4.61224
2.79941
2.48944
2.35102
2.28732
2.24159
2.21796
2.20917