/*--------------------------------*- C++ -*----------------------------------*\
  =========                 |
  \\      /  F ield         | OpenFOAM: The Open Source CFD Toolbox
   \\    /   O peration     | Website:  https://openfoam.org
    \\  /    A nd           | Version:  7
     \\/     M anipulation  |
\*---------------------------------------------------------------------------*/
FoamFile
{
    version     2.0;
    format      ascii;
    class       volScalarField;
    location    "72";
    object      p;
}
// * * * * * * * * * * * * * * * * * * * * * * * * * * * * * * * * * * * * * //

dimensions      [0 2 -2 0 0 0 0];

internalField   nonuniform List<scalar> 
12842
(
-0.051596
-0.0592212
-0.078477
-0.111268
-0.154058
-0.203313
-0.255973
-0.30703
-0.347267
-0.361582
-0.328166
-0.21903
-0.00238207
0.353246
0.872728
1.56673
2.42676
3.42316
4.50939
5.62892
6.72589
7.7498
8.67124
-0.134823
-0.151645
-0.187523
-0.250047
-0.335407
-0.441489
-0.56886
-0.716842
-0.880106
-1.04641
-1.19516
-1.29712
-1.31589
-1.21147
-0.946721
-0.496055
0.147575
0.968198
1.92781
2.97123
4.03835
5.06667
6.01892
-0.199646
-0.227248
-0.27876
-0.369054
-0.492947
-0.650261
-0.845748
-1.08307
-1.36058
-1.66888
-1.98883
-2.29055
-2.53394
-2.67166
-2.65583
-2.4478
-2.02699
-1.39769
-0.590221
0.341938
1.33692
2.32239
3.25851
-0.250155
-0.286257
-0.35298
-0.469496
-0.628211
-0.831894
-1.08999
-1.41033
-1.79469
-2.23666
-2.71896
-3.21183
-3.67243
-4.04723
-4.27886
-4.31697
-4.12876
-3.70798
-3.0775
-2.28834
-1.40201
-0.49837
0.384353
-0.289572
-0.329985
-0.411862
-0.552352
-0.741555
-0.986448
-1.30137
-1.69798
-2.18133
-2.74838
-3.38446
-4.06113
-4.73406
-5.34481
-5.82765
-6.12139
-6.1815
-5.99116
-5.5649
-4.94985
-4.20464
-3.41533
-2.6145
-0.320091
-0.360623
-0.457658
-0.618868
-0.83356
-1.11393
-1.47897
-1.94364
-2.51621
-3.19772
-3.97699
-4.82843
-5.70766
-6.55288
-7.29113
-7.85114
-8.17678
-8.24023
-8.04622
-7.63628
-7.06361
-6.4191
-5.72696
-0.343312
-0.38075
-0.4926
-0.670555
-0.90542
-1.21521
-1.62278
-2.14584
-2.79597
-3.57904
-4.48832
-5.5028
-6.57973
-7.65565
-8.65168
-9.48737
-10.0951
-10.4357
-10.5026
-10.3301
-9.96301
-9.49624
-8.94105
-0.360615
-0.392882
-0.5186
-0.708979
-0.958718
-1.29177
-1.73356
-2.30434
-3.01913
-3.8895
-4.91399
-6.07794
-7.34174
-8.64213
-9.89554
-11.0134
-11.9169
-12.5557
-12.91
-13.0065
-12.8777
-12.623
-12.2335
-0.373877
-0.398986
-0.53666
-0.734508
-0.993062
-1.34183
-1.80652
-2.40966
-3.16897
-4.10142
-5.21048
-6.48858
-7.90003
-9.38346
-10.8525
-12.2129
-13.3766
-14.2842
-14.9038
-15.2556
-15.356
-15.3163
-15.09
-0.387359
-0.402542
-0.552839
-0.755849
-1.02102
-1.38263
-1.86486
-2.49269
-3.28576
-4.2655
-5.43945
-6.8062
-8.33359
-9.96255
-11.6051
-13.1637
-14.544
-15.6805
-16.5314
-17.1117
-17.4244
-17.5827
-17.5251
-0.397494
-0.403629
-0.566896
-0.773731
-1.04523
-1.41906
-1.91705
-2.56749
-3.39158
-4.41518
-5.64982
-7.10039
-8.7384
-10.5077
-12.3198
-14.0752
-15.6751
-17.0492
-18.147
-18.9778
-19.5313
-19.9189
-20.0661
-0.404344
-0.402893
-0.578541
-0.787636
-1.06513
-1.44988
-1.96137
-2.63195
-3.48395
-4.54774
-5.83889
-7.36872
-9.11271
-11.0184
-12.9977
-14.9508
-16.7755
-18.3981
-19.7599
-20.8644
-21.6868
-22.3342
-22.7167
-0.408848
-0.401088
-0.588009
-0.798032
-1.08127
-1.47528
-1.99815
-2.6866
-3.56365
-4.66435
-6.00834
-7.61367
-9.46014
-11.4997
-13.6458
-15.7993
-17.8559
-19.7396
-21.3831
-22.7836
-23.901
-24.8348
-25.4806
-0.411666
-0.398707
-0.595572
-0.805724
-1.09456
-1.49621
-2.02886
-2.73343
-3.63327
-4.7683
-6.16229
-7.84017
-9.78639
-11.9581
-14.2711
-16.6283
-18.924
-21.0803
-23.0215
-24.7377
-26.1725
-27.4149
-28.3488
-0.413218
-0.39603
-0.60144
-0.811507
-1.10573
-1.51356
-2.05493
-2.77425
-3.6951
-4.86235
-6.30389
-8.05163
-10.0951
-12.3973
-14.8772
-17.4411
-19.9822
-22.4213
-24.6739
-26.7221
-28.4925
-30.061
-31.3027
-0.413777
-0.393271
-0.605894
-0.816065
-1.1152
-1.52798
-2.07733
-2.81018
-3.75042
-4.94786
-6.43445
-8.2492
-10.387
-12.8175
-15.464
-18.2367
-21.0284
-23.7582
-26.3324
-28.7238
-30.8417
-32.7467
-34.3076
-0.413599
-0.390573
-0.609288
-0.819915
-1.1232
-1.53994
-2.09661
-2.84177
-3.79974
-5.02521
-6.55409
-8.43257
-10.6613
-13.2176
-16.0295
-19.0122
-22.0576
-25.083
-27.984
-30.7231
-33.1918
-35.4335
-37.3145
-0.412862
-0.388037
-0.612004
-0.823343
-1.1298
-1.54974
-2.11306
-2.86917
-3.84309
-5.09416
-6.66216
-8.60053
-10.9162
-13.5947
-16.5699
-19.7618
-23.0614
-26.3827
-29.6091
-32.6911
-35.5024
-38.0683
-40.2564
-0.411704
-0.385721
-0.614353
-0.82643
-1.13502
-1.55761
-2.1268
-2.8924
-3.88034
-5.15435
-6.75793
-8.75186
-11.1497
-13.9461
-17.0808
-20.4788
-24.0287
-27.6397
-31.1809
-34.5893
-37.7213
-40.5834
-43.0488
-0.410215
-0.383686
-0.616566
-0.829105
-1.13893
-1.56376
-2.13791
-2.91151
-3.91149
-5.20561
-6.84096
-8.88572
-11.3605
-14.2692
-17.5578
-21.1554
-24.9465
-28.8332
-32.668
-36.3727
-39.7876
-42.9014
-45.5973
-0.408486
-0.381975
-0.618678
-0.831199
-1.14156
-1.56825
-2.14634
-2.92642
-3.93639
-5.24768
-6.91082
-9.0013
-11.547
-14.5611
-17.9954
-21.7818
-25.7985
-29.9375
-34.0327
-37.9894
-41.6338
-44.9394
-47.803
-0.406543
-0.380685
-0.620778
-0.832627
-1.14309
-1.57127
-2.15228
-2.93739
-3.95529
-5.28069
-6.96731
-9.09787
-11.7073
-14.8181
-18.3868
-22.346
-26.5652
-30.9232
-35.2334
-39.3842
-43.1922
-46.6187
-49.5789
-0.404377
-0.379727
-0.62244
-0.833119
-1.14338
-1.57253
-2.15534
-2.94405
-3.96788
-5.30441
-7.01019
-9.17482
-11.8399
-15.0364
-18.7242
-22.8347
-27.2252
-31.7589
-36.2286
-40.5061
-44.4033
-47.873
-50.8502
-0.401271
-0.379496
-0.624143
-0.833376
-1.14385
-1.57404
-2.15825
-2.94955
-3.97723
-5.32085
-7.0395
-9.22876
-11.9366
-15.2018
-18.9868
-23.2205
-27.7465
-32.4095
-36.9819
-41.3193
-45.2329
-48.6708
-51.5871
-0.402105
-0.38172
-0.627792
-0.835843
-1.14701
-1.5784
-2.16395
-2.95709
-3.987
-5.33444
-7.06104
-9.26731
-12.0073
-15.3255
-19.1857
-23.5103
-28.1268
-32.8585
-37.4597
-41.7727
-45.6163
-48.9426
-51.7304
-0.402494
-0.384317
-0.631503
-0.839095
-1.15191
-1.58544
-2.17356
-2.96992
-4.00349
-5.35577
-7.09046
-9.31161
-12.0773
-15.4351
-19.3463
-23.7235
-28.3767
-33.1078
-37.6589
-41.867
-45.5683
-48.7258
-51.3424
-0.402117
-0.386743
-0.634384
-0.842074
-1.15695
-1.59281
-2.18375
-2.98345
-4.0206
-5.37708
-7.11809
-9.34994
-12.1328
-15.5144
-19.4509
-23.8424
-28.4815
-33.1518
-37.5901
-41.6361
-45.1494
-48.1068
-50.5305
-0.401564
-0.389021
-0.636448
-0.844583
-1.16143
-1.59929
-2.19255
-2.99471
-4.03406
-5.39262
-7.13657
-9.37334
-12.1634
-15.5521
-19.4878
-23.8569
-28.4362
-32.9952
-37.2727
-41.1174
-44.4153
-47.1577
-49.382
-0.401009
-0.39106
-0.637845
-0.846802
-1.16543
-1.60489
-2.19987
-3.00351
-4.04361
-5.40211
-7.1456
-9.38147
-12.1686
-15.5475
-19.4571
-23.769
-28.2468
-32.6522
-36.7317
-40.3483
-43.4149
-45.9372
-47.9641
-0.4004
-0.392743
-0.638798
-0.848985
-1.16925
-1.61006
-2.20635
-3.01076
-4.05058
-5.40736
-7.14746
-9.37695
-12.1512
-15.5038
-19.3622
-23.5842
-27.9235
-32.1397
-35.9935
-39.3646
-42.1927
-44.4964
-46.3323
-0.399825
-0.394076
-0.639599
-0.851371
-1.17313
-1.61512
-2.21242
-3.01708
-4.05584
-5.4095
-7.14348
-9.36118
-12.1127
-15.4224
-19.2058
-23.3077
-27.4761
-31.4746
-35.0829
-38.1997
-40.7888
-42.8799
-44.5334
-0.399505
-0.395189
-0.640547
-0.854076
-1.17716
-1.62012
-2.21814
-3.02256
-4.05952
-5.40864
-7.13367
-9.33396
-12.0526
-15.3033
-18.9889
-22.9436
-26.9138
-30.6729
-34.023
-36.8828
-39.237
-41.1238
-42.6047
-0.399576
-0.396197
-0.641798
-0.857069
-1.18121
-1.62492
-2.22332
-3.02699
-4.0614
-5.40452
-7.11762
-9.29472
-11.9704
-15.1465
-18.7132
-22.4966
-26.2464
-29.7498
-32.8346
-35.4387
-37.5648
-39.257
-40.5755
-0.400003
-0.397153
-0.643357
-0.860177
-1.1851
-1.62928
-2.22773
-3.0302
-4.06133
-5.39695
-7.09509
-9.24319
-11.8661
-14.9526
-18.381
-21.9724
-25.4835
-28.7199
-31.536
-33.8886
-35.7951
-37.3028
-38.4693
-0.400604
-0.398042
-0.645109
-0.863195
-1.18861
-1.63304
-2.23125
-3.03215
-4.05935
-5.38601
-7.0662
-9.17962
-11.7403
-14.7235
-17.9962
-21.3775
-24.6357
-27.5974
-30.1443
-32.2512
-33.947
-35.2804
-36.3048
-0.401175
-0.398846
-0.646925
-0.865951
-1.19163
-1.63614
-2.23393
-3.03299
-4.05568
-5.372
-7.03131
-9.10457
-11.594
-14.4612
-17.5628
-20.719
-23.713
-26.3956
-28.6749
-30.5425
-32.037
-33.2055
-34.0966
-0.401552
-0.399555
-0.648699
-0.868383
-1.19418
-1.6387
-2.23597
-3.03302
-4.05069
-5.35531
-6.9909
-9.01875
-11.4286
-14.1683
-17.0854
-20.0041
-22.7259
-25.127
-27.1421
-28.777
-30.0781
-31.0904
-31.8557
-0.401662
-0.400204
-0.650394
-0.870511
-1.19639
-1.64092
-2.23766
-3.0326
-4.04474
-5.33631
-6.94539
-8.92281
-11.2454
-13.8474
-16.5687
-19.2401
-21.684
-23.8034
-25.5582
-26.9666
-28.0811
-28.9442
-29.59
-0.4015
-0.400831
-0.652008
-0.872433
-1.19843
-1.64303
-2.23929
-3.03201
-4.0381
-5.31525
-6.89509
-8.81734
-11.0456
-13.501
-16.0173
-18.4341
-20.597
-22.4353
-23.9344
-25.1222
-26.0556
-26.7754
-27.3072
-0.401127
-0.401497
-0.653581
-0.874258
-1.20047
-1.64524
-2.24106
-3.03141
-4.03086
-5.29219
-6.84014
-8.70278
-10.8304
-13.1316
-15.4358
-17.593
-19.4736
-21.0331
-22.2805
-23.2536
-24.0113
-24.592
-25.0141
-0.400621
-0.40224
-0.655146
-0.876095
-1.20264
-1.64767
-2.24304
-3.03081
-4.02296
-5.26705
-6.78058
-8.57954
-10.6011
-12.742
-14.8289
-16.7239
-18.323
-19.6067
-20.6063
-21.3698
-21.9563
-22.4007
-22.7156
-0.400073
-0.403095
-0.656742
-0.878009
-1.20501
-1.65034
-2.2452
-3.0301
-4.01422
-5.23966
-6.71637
-8.448
-10.3589
-12.3347
-14.2012
-15.8335
-17.1534
-18.1656
-18.9212
-19.4787
-19.8972
-20.2067
-20.4151
-0.399547
-0.404063
-0.658376
-0.88004
-1.20757
-1.65322
-2.24744
-3.0291
-4.00442
-5.20983
-6.64754
-8.30866
-10.1051
-11.9125
-13.5575
-14.9287
-15.9734
-16.7195
-17.2347
-17.5884
-17.84
-18.0148
-18.1161
-0.399101
-0.405143
-0.660055
-0.882177
-1.21029
-1.6562
-2.24959
-3.0276
-3.99334
-5.17744
-6.57416
-8.16205
-9.84127
-11.4783
-12.9024
-14.0164
-14.7911
-15.2776
-15.5565
-15.7074
-15.7917
-15.8305
-15.8224
-0.398754
-0.406305
-0.661756
-0.884403
-1.21311
-1.65918
-2.25152
-3.02544
-3.98087
-5.14246
-6.49646
-8.00886
-9.5689
-11.0349
-12.2407
-13.1032
-13.615
-13.8493
-13.8969
-13.846
-13.7618
-13.6624
-13.5424
-0.398521
-0.407527
-0.663469
-0.886671
-1.21594
-1.66206
-2.2531
-3.02251
-3.96694
-5.10496
-6.41474
-7.84986
-9.28953
-10.5852
-11.5766
-12.1956
-12.4534
-12.4444
-12.2672
-12.0174
-11.7645
-11.5258
-11.2938
-0.398378
-0.408771
-0.665163
-0.888953
-1.21873
-1.66478
-2.25428
-3.01879
-3.95163
-5.06514
-6.32944
-7.68589
-9.0048
-10.132
-10.9144
-11.3001
-11.3147
-11.0733
-10.6803
-10.2381
-9.81885
-9.44064
-9.09595
-0.398305
-0.410007
-0.666825
-0.891207
-1.22143
-1.66728
-2.25505
-3.01435
-3.93507
-5.0233
-6.24107
-7.5179
-8.71631
-9.67793
-10.2583
-10.4226
-10.2072
-9.74758
-9.15006
-8.5264
-7.94599
-7.42735
-6.96577
-0.39799
-0.411142
-0.668369
-0.893381
-1.22403
-1.66968
-2.25575
-3.00994
-3.91879
-4.98226
-6.1547
-7.35465
-8.43832
-9.24483
-9.63891
-9.60353
-9.18178
-8.52916
-7.74733
-6.96239
-6.23495
-5.58187
-5.00084
-0.398479
-0.412617
-0.670291
-0.89587
-1.22696
-1.67258
-2.25739
-3.00739
-3.90612
-4.9481
-6.08117
-7.21462
-8.20038
-8.87653
-9.11629
-8.91985
-8.33235
-7.52892
-6.59758
-5.68291
-4.84148
-4.08253
-3.3985
-0.398996
-0.414003
-0.672279
-0.89854
-1.23032
-1.67638
-2.26083
-3.00824
-3.89957
-4.92483
-6.02675
-7.10749
-8.01629
-8.59157
-8.71329
-8.39702
-7.68713
-6.77644
-5.73618
-4.72194
-3.80419
-2.97901
-2.22175
-0.399556
-0.415329
-0.674375
-0.901406
-1.23414
-1.68117
-2.2662
-3.01255
-3.89897
-4.91175
-5.98962
-7.02949
-7.87865
-8.3772
-8.40967
-8.00556
-7.20737
-6.22219
-5.10927
-4.01701
-3.04603
-2.18984
-1.3952
-0.400245
-0.416645
-0.6766
-0.904465
-1.23838
-1.68684
-2.27324
-3.01978
-3.90326
-4.90691
-5.96628
-6.97469
-7.77767
-8.21826
-8.18336
-7.71514
-6.85443
-5.81744
-4.66091
-3.51046
-2.49632
-1.63657
-0.827698
-0.401034
-0.41796
-0.678934
-0.907671
-1.24299
-1.69328
-2.28169
-3.02938
-3.91128
-4.90817
-5.95299
-6.93686
-7.70339
-8.09964
-8.01292
-7.49682
-6.59138
-5.51642
-4.33587
-3.14829
-2.09459
-1.23167
-0.412305
-0.401859
-0.419242
-0.68132
-0.910986
-1.24789
-1.70031
-2.29119
-3.04062
-3.92177
-4.91341
-5.94631
-6.91045
-7.64727
-8.00851
-7.88031
-7.32647
-6.38696
-5.28114
-4.0871
-2.8805
-1.78892
-0.904664
-0.0829251
-0.402648
-0.420485
-0.683728
-0.914378
-1.25305
-1.70788
-2.30158
-3.05315
-3.93407
-4.92145
-5.94429
-6.89229
-7.60441
-7.93756
-7.77528
-7.19066
-6.22328
-5.09019
-3.88823
-2.6731
-1.55144
-0.638809
0.17127
-0.403592
-0.421812
-0.686351
-0.918097
-1.25874
-1.71623
-2.31301
-3.06688
-3.94762
-4.93089
-5.94409
-6.87707
-7.56616
-7.87368
-7.67995
-7.06697
-6.07355
-4.91323
-3.70194
-2.47791
-1.33793
-0.398194
0.411179
-0.404289
-0.422942
-0.688703
-0.921502
-1.26405
-1.72407
-2.32356
-3.07903
-3.95852
-4.93635
-5.9385
-6.85548
-7.52135
-7.80476
-7.58286
-6.94709
-5.93346
-4.75344
-3.54309
-2.32023
-1.17839
-0.215739
0.607152
-0.405035
-0.424137
-0.691159
-0.925053
-1.26952
-1.73195
-2.33381
-3.0902
-3.96743
-4.9386
-5.92843
-6.8283
-7.47021
-7.72948
-7.48004
-6.82401
-5.79197
-4.59443
-3.38432
-2.1595
-1.01964
-0.0434193
0.8078
-0.405838
-0.425407
-0.69373
-0.928756
-1.27515
-1.73989
-2.34382
-3.10061
-3.97487
-4.9386
-5.9153
-6.79714
-7.41412
-7.64812
-7.36967
-6.6928
-5.64202
-4.42587
-3.20957
-1.97775
-0.839519
0.14231
1.01653
-0.406636
-0.426682
-0.696318
-0.932502
-1.28077
-1.74766
-2.35334
-3.11003
-3.9808
-4.93658
-5.89971
-6.76298
-7.35456
-7.56254
-7.25411
-6.55548
-5.4874
-4.2533
-3.03021
-1.79938
-0.664922
0.316095
1.18848
-0.407428
-0.427956
-0.698908
-0.936227
-1.28628
-1.75512
-2.36221
-3.11837
-3.98528
-4.93283
-5.88233
-6.72692
-7.29334
-7.4755
-7.13777
-6.41755
-5.33559
-4.0861
-2.86024
-1.64503
-0.51889
0.451875
1.29573
-0.408236
-0.429236
-0.701512
-0.939941
-1.29168
-1.76228
-2.37047
-3.12582
-3.9887
-4.92804
-5.86416
-6.69034
-7.23244
-7.38972
-7.0249
-6.28451
-5.19286
-3.93103
-2.7049
-1.51397
-0.404896
0.546281
1.34595
-0.409078
-0.430537
-0.704137
-0.943612
-1.29693
-1.7691
-2.37819
-3.13257
-3.99143
-4.92272
-5.84587
-6.65404
-7.1728
-7.30626
-6.91727
-6.15864
-5.06148
-3.79048
-2.5637
-1.39754
-0.318202
0.607565
1.36148
-0.409927
-0.431833
-0.706733
-0.947192
-1.30198
-1.77557
-2.3854
-3.13875
-3.99372
-4.91719
-5.82772
-6.61809
-7.11424
-7.22451
-6.814
-6.03878
-4.93989
-3.6633
-2.43488
-1.28764
-0.252015
0.645923
1.36614
-0.410765
-0.433114
-0.709262
-0.95062
-1.30677
-1.78165
-2.39214
-3.14446
-3.99568
-4.91148
-5.80954
-6.58198
-7.05566
-7.14269
-6.71243
-5.92149
-4.82408
-3.5459
-2.31708
-1.18242
-0.189324
0.678103
1.37921
-0.411563
-0.434361
-0.711691
-0.953892
-1.31133
-1.78741
-2.39852
-3.14987
-3.99746
-4.90563
-5.79108
-6.54506
-6.99587
-7.05894
-6.60971
-5.80318
-4.70984
-3.43423
-2.20803
-1.08334
-0.109296
0.724003
1.41035
-0.412321
-0.435588
-0.714033
-0.957021
-1.31569
-1.79293
-2.40469
-3.15513
-3.99915
-4.89954
-5.77195
-6.50658
-6.93353
-6.97142
-6.50319
-5.68077
-4.59338
-3.32456
-2.10289
-0.987856
-0.0151573
0.791586
1.46991
-0.413032
-0.436798
-0.716301
-0.960066
-1.31994
-1.79835
-2.41078
-3.16036
-4.00076
-4.89305
-5.75171
-6.46576
-6.8674
-6.87853
-6.39065
-5.55178
-4.47141
-3.21368
-1.99747
-0.891444
0.0777901
0.87855
1.55772
-0.413711
-0.438009
-0.71853
-0.963065
-1.32414
-1.80373
-2.41686
-3.16555
-4.00215
-4.88578
-5.72967
-6.42161
-6.79608
-6.77857
-6.26992
-5.41381
-4.34044
-3.09808
-1.88961
-0.795545
0.169366
0.978596
1.65692
-0.414354
-0.43922
-0.720733
-0.966064
-1.32834
-1.80912
-2.42294
-3.17063
-4.00307
-4.87728
-5.70511
-6.37317
-6.71829
-6.67007
-6.13911
-5.26464
-4.19696
-2.97371
-1.7759
-0.701683
0.259787
1.07335
1.74382
-0.414978
-0.440441
-0.722932
-0.96907
-1.33256
-1.81451
-2.42894
-3.17538
-4.00314
-4.86697
-5.67727
-6.31955
-6.63299
-6.55188
-5.99678
-5.1025
-4.03783
-2.8365
-1.6501
-0.602992
0.345171
1.14792
1.80486
-0.415577
-0.441659
-0.725122
-0.972093
-1.33678
-1.81986
-2.43475
-3.1796
-4.00203
-4.85443
-5.64563
-6.26022
-6.53976
-6.42366
-5.84254
-4.92689
-3.86133
-2.68372
-1.50767
-0.487359
0.431833
1.20955
1.84692
-0.416161
-0.442878
-0.727309
-0.975111
-1.34096
-1.82507
-2.44021
-3.18306
-3.99942
-4.83927
-5.60986
-6.19505
-6.43877
-6.28598
-5.67726
-4.73893
-3.66802
-2.51514
-1.35058
-0.350373
0.53028
1.27211
1.88048
-0.416722
-0.444082
-0.729476
-0.978112
-1.34507
-1.8301
-2.44522
-3.18559
-3.99513
-4.82138
-5.57
-6.12441
-6.33094
-6.14042
-5.50321
-4.54179
-3.4614
-2.33342
-1.18722
-0.201856
0.638342
1.33661
1.9035
-0.417268
-0.445275
-0.73162
-0.981064
-1.34906
-1.83485
-2.44967
-3.18706
-3.98903
-4.80073
-5.52625
-6.04891
-6.21759
-5.98918
-5.32369
-4.34021
-3.24767
-2.14389
-1.02822
-0.0601585
0.739876
1.39042
1.90849
-0.417785
-0.446443
-0.733722
-0.983957
-1.35291
-1.83929
-2.45349
-3.18742
-3.98115
-4.77749
-5.47907
-5.96949
-6.1004
-5.83494
-5.14266
-4.13995
-3.03503
-1.95374
-0.881749
0.0591401
0.818988
1.42146
1.89136
-0.418281
-0.447591
-0.735781
-0.986761
-1.35657
-1.84337
-2.45664
-3.18665
-3.97153
-4.75184
-5.42889
-5.88697
-5.98087
-5.6802
-4.96399
-3.94678
-2.83219
-1.77115
-0.751593
0.147879
0.86864
1.42781
1.85423
-0.41874
-0.448709
-0.737782
-0.989476
-1.36005
-1.84708
-2.45912
-3.18477
-3.96027
-4.72403
-5.37617
-5.80216
-5.86036
-5.52709
-4.79101
-3.76561
-2.64687
-1.60451
-0.638086
0.206793
0.888853
1.41328
1.80455
-0.41917
-0.449806
-0.739727
-0.992083
-1.36332
-1.85039
-2.46092
-3.1818
-3.94745
-4.69421
-5.32119
-5.71551
-5.73967
-5.37701
-4.62598
-3.59979
-2.48451
-1.46127
-0.543024
0.243604
0.884954
1.38058
1.74765
-0.419556
-0.450871
-0.741605
-0.994587
-1.36638
-1.85332
-2.46205
-3.17779
-3.93314
-4.66249
-5.26416
-5.62731
-5.6192
-5.23059
-4.46992
-3.45072
-2.34754
-1.34577
-0.470104
0.265369
0.86432
1.33371
1.6855
-0.419907
-0.451916
-0.74342
-0.996977
-1.36923
-1.85586
-2.46251
-3.17274
-3.91735
-4.62889
-5.20504
-5.53747
-5.49882
-5.08764
-4.32258
-3.31784
-2.23533
-1.25794
-0.420941
0.274016
0.833917
1.27841
1.61772
-0.420205
-0.452931
-0.745163
-0.99926
-1.37187
-1.85802
-2.46232
-3.16665
-3.90008
-4.59338
-5.14375
-5.44577
-5.37809
-4.9474
-4.18266
-3.19885
-2.14471
-1.19385
-0.392473
0.269901
0.798253
1.22021
1.54646
-0.420463
-0.453926
-0.746841
-1.00143
-1.37429
-1.85977
-2.46144
-3.15949
-3.88125
-4.55579
-5.08002
-5.35177
-5.25632
-4.80865
-4.04812
-3.09022
-2.0708
-1.1479
-0.378479
0.255485
0.759862
1.16281
1.47619
-0.420662
-0.454891
-0.748441
-1.00348
-1.37649
-1.86113
-2.45987
-3.15122
-3.8608
-4.516
-5.01363
-5.25507
-5.13275
-4.67005
-3.91656
-2.98776
-2.00773
-1.11432
-0.37292
0.235435
0.720126
1.10681
1.40804
-0.420816
-0.455836
-0.749972
-1.00542
-1.37846
-1.86206
-2.45757
-3.14177
-3.83859
-4.4738
-4.94427
-5.15521
-5.00667
-4.5303
-3.78562
-2.88739
-1.94966
-1.08791
-0.371972
0.213137
0.679117
1.04988
1.3385
-0.420905
-0.456747
-0.751419
-1.00723
-1.3802
-1.86256
-2.45449
-3.13107
-3.81451
-4.42903
-4.87172
-5.05189
-4.87756
-4.38838
-3.65333
-2.78564
-1.89146
-1.06417
-0.373734
0.189381
0.635732
0.989034
1.264
-0.420942
-0.457634
-0.752787
-1.00891
-1.38168
-1.86258
-2.4506
-3.11903
-3.78842
-4.38151
-4.79578
-4.94487
-4.74511
-4.24362
-3.5183
-2.68011
-1.8294
-1.03954
-0.376969
0.163208
0.588952
0.9236
1.18368
-0.420908
-0.458483
-0.754062
-1.01046
-1.3829
-1.86211
-2.44583
-3.10558
-3.76023
-4.33111
-4.71634
-4.83413
-4.60928
-4.09581
-3.3799
-2.56957
-1.76128
-1.01148
-0.38006
0.134365
0.538614
0.854175
1.0986
-0.420815
-0.459302
-0.755247
-1.01185
-1.38383
-1.8611
-2.44013
-3.09061
-3.7298
-4.27771
-4.63336
-4.71972
-4.4703
-3.94521
-3.23824
-2.45404
-1.68636
-0.978588
-0.381314
0.104171
0.485495
0.781721
1.01023
-0.420642
-0.460077
-0.756324
-1.01309
-1.38445
-1.85953
-2.43344
-3.07406
-3.69705
-4.22127
-4.5469
-4.60189
-4.32862
-3.79247
-3.09409
-2.33453
-1.60512
-0.940195
-0.37937
0.0750543
0.431672
0.708181
0.92067
-0.420402
-0.460814
-0.757297
-1.01415
-1.38474
-1.85734
-2.4257
-3.05583
-3.66189
-4.16175
-4.45705
-4.48097
-4.18489
-3.6386
-2.94876
-2.21286
-1.5192
-0.89653
-0.373295
0.0492304
0.379944
0.636324
0.832862
-0.420071
-0.461497
-0.758146
-1.01503
-1.38469
-1.85451
-2.41686
-3.03585
-3.62426
-4.09913
-4.36397
-4.35739
-4.03988
-3.48481
-2.80383
-2.09121
-1.43085
-0.848622
-0.362721
0.0281287
0.332999
0.569251
0.749968
-0.419663
-0.462136
-0.758874
-1.0157
-1.38425
-1.851
-2.40685
-3.01407
-3.58411
-4.03347
-4.26788
-4.23165
-3.89447
-3.33256
-2.66118
-1.97205
-1.34294
-0.798859
-0.348513
0.0118631
0.292113
0.508974
0.674364
-0.419173
-0.462718
-0.759464
-1.01617
-1.3834
-1.84674
-2.39557
-2.99034
-3.5413
-3.96472
-4.16893
-4.10415
-3.74937
-3.183
-2.5223
-1.85733
-1.25736
-0.748546
-0.331182
0.000266895
0.257788
0.456638
0.608092
-0.418635
-0.463285
-0.75996
-1.01645
-1.38219
-1.84181
-2.38312
-2.96473
-3.49591
-3.89304
-4.06753
-3.97576
-3.60601
-3.03839
-2.38998
-1.75034
-1.17856
-0.704115
-0.315995
-0.0111218
0.226634
0.410013
0.548706
-0.418556
-0.464008
-0.760535
-1.0166
-1.38037
-1.83534
-2.3676
-2.93399
-3.44326
-3.81275
-3.95789
-3.84154
-3.46092
-2.89688
-2.26394
-1.65218
-1.10438
-0.653333
-0.292233
-0.0140978
0.203379
0.372892
0.504039
-0.417114
-0.463458
-0.759145
-1.01414
-1.37466
-1.823
-2.34336
-2.89122
-3.3759
-3.71732
-3.83662
-3.70392
-3.32413
-2.77608
-2.16753
-1.5903
-1.07997
-0.658315
-0.31832
-0.0532356
0.152753
0.31052
0.430848
-0.41571
-0.462754
-0.757102
-1.01037
-1.36624
-1.80575
-2.31103
-2.83667
-3.29351
-3.60522
-3.69993
-3.55537
-3.18352
-2.6597
-2.0814
-1.53766
-1.06347
-0.671049
-0.352936
-0.102583
0.0913565
0.238807
0.351773
-0.414387
-0.462051
-0.754681
-1.00571
-1.35579
-1.78456
-2.27186
-2.77165
-3.19696
-3.47595
-3.54472
-3.38902
-3.02794
-2.53324
-1.9902
-1.47799
-1.03186
-0.664592
-0.370117
-0.138359
0.0432385
0.184125
0.294823
-0.412727
-0.461043
-0.75152
-0.999807
-1.34291
-1.75895
-2.22534
-2.69558
-3.08549
-3.32838
-3.36925
-3.20221
-2.85363
-2.39208
-1.891
-1.41666
-1.00169
-0.66001
-0.386239
-0.169311
0.00300584
0.139142
0.247582
-0.410601
-0.459577
-0.747384
-0.992241
-1.32698
-1.72806
-2.17037
-2.6073
-2.95819
-3.16221
-3.17404
-2.99623
-2.66178
-2.23622
-1.78284
-1.35526
-0.97963
-0.66635
-0.411178
-0.206102
-0.0421506
0.0881162
0.192539
-0.407997
-0.457617
-0.742162
-0.982779
-1.3076
-1.69127
-2.10629
-2.50636
-2.81528
-2.97883
-2.96181
-2.77461
-2.45538
-2.06602
-1.66087
-1.28205
-0.948338
-0.666093
-0.432539
-0.242428
-0.0898374
0.0321895
0.130736
-0.404907
-0.455089
-0.735692
-0.97109
-1.28428
-1.64797
-2.03258
-2.39273
-2.65771
-2.78068
-2.73654
-2.54236
-2.23916
-1.88401
-1.52294
-1.18869
-0.894891
-0.645525
-0.438245
-0.268351
-0.131032
-0.0201851
0.0703588
-0.401145
-0.451778
-0.727613
-0.956702
-1.25635
-1.59742
-1.9487
-2.26648
-2.48669
-2.57052
-2.50266
-2.30524
-2.01967
-1.69705
-1.37594
-1.08199
-0.825767
-0.60935
-0.429988
-0.282499
-0.162379
-0.0646603
0.0161444
-0.396575
-0.447447
-0.717527
-0.939025
-1.22306
-1.53888
-1.85419
-2.12792
-2.30379
-2.3515
-2.26483
-2.06924
-1.80444
-1.51467
-1.23194
-0.976011
-0.754864
-0.569007
-0.415385
-0.288939
-0.185135
-0.10012
-0.0290301
-0.391041
-0.441858
-0.705039
-0.917553
-1.18382
-1.47187
-1.74913
-1.97815
-2.11146
-2.12746
-2.02792
-1.83995
-1.59983
-1.34449
-1.09957
-0.879719
-0.690405
-0.531318
-0.399462
-0.290734
-0.200807
-0.126581
-0.0638544
-0.384504
-0.434843
-0.689856
-0.891841
-1.13821
-1.39634
-1.63431
-1.81926
-1.91327
-1.90309
-1.79694
-1.62191
-1.40957
-1.18934
-0.980805
-0.79432
-0.633429
-0.497539
-0.383979
-0.289663
-0.21103
-0.145513
-0.0896573
-0.376834
-0.426174
-0.671657
-0.861538
-1.08603
-1.31266
-1.5112
-1.65424
-1.71361
-1.68348
-1.57652
-1.41818
-1.23473
-1.04837
-0.873515
-0.717197
-0.581641
-0.466209
-0.368709
-0.286738
-0.217726
-0.159591
-0.109611
-0.367941
-0.415638
-0.650135
-0.826286
-1.02725
-1.22157
-1.38184
-1.48662
-1.51707
-1.47327
-1.37012
-1.23027
-1.07462
-0.919308
-0.774514
-0.644976
-0.531941
-0.434819
-0.351916
-0.281303
-0.221148
-0.169933
-0.125463
-0.357596
-0.402887
-0.6249
-0.785791
-0.961996
-1.12413
-1.24856
-1.31995
-1.32764
-1.27584
-1.17964
-1.05821
-0.927745
-0.799664
-0.680905
-0.574618
-0.481414
-0.400691
-0.33119
-0.271378
-0.219848
-0.175573
-0.136846
-0.345628
-0.387617
-0.595607
-0.739829
-0.890637
-1.02169
-1.11382
-1.15736
-1.14823
-1.09294
-1.0054
-0.90109
-0.792412
-0.687368
-0.590556
-0.503971
-0.427864
-0.361583
-0.304153
-0.254393
-0.211156
-0.173691
-0.140764
-0.331741
-0.369408
-0.561911
-0.688384
-0.813841
-0.915856
-0.979982
-1.00136
-0.980594
-0.925135
-0.846862
-0.757949
-0.667665
-0.581708
-0.50301
-0.432768
-0.370962
-0.31698
-0.269969
-0.229053
-0.193292
-0.162087
-0.134537
-0.315783
-0.347971
-0.523656
-0.631685
-0.732609
-0.808437
-0.849248
-0.853842
-0.825799
-0.772565
-0.703812
-0.628758
-0.55421
-0.484204
-0.420609
-0.364031
-0.314281
-0.270784
-0.232795
-0.199616
-0.170514
-0.144984
-0.122353
-0.297492
-0.322987
-0.480834
-0.570326
-0.648293
-0.701394
-0.72365
-0.716403
-0.684775
-0.635666
-0.576619
-0.514338
-0.453614
-0.397225
-0.346329
-0.301156
-0.261411
-0.226567
-0.196008
-0.169164
-0.145489
-0.124582
-0.105948
-0.276825
-0.29439
-0.433776
-0.505261
-0.562552
-0.5968
-0.605145
-0.590497
-0.558413
-0.514904
-0.465612
-0.415184
-0.366816
-0.322306
-0.282341
-0.246943
-0.215782
-0.188395
-0.164283
-0.142995
-0.124117
-0.107352
-0.0923365
-0.253691
-0.262238
-0.383103
-0.437841
-0.477324
-0.496781
-0.495565
-0.47728
-0.447147
-0.410051
-0.370048
-0.330199
-0.292517
-0.258068
-0.227218
-0.199878
-0.175742
-0.154424
-0.135537
-0.118738
-0.103727
-0.0902944
-0.0781902
-0.228259
-0.226976
-0.329852
-0.369758
-0.394699
-0.40338
-0.396391
-0.377351
-0.350637
-0.319992
-0.288211
-0.257254
-0.228319
-0.202004
-0.178452
-0.157541
-0.139005
-0.122541
-0.107856
-0.0946999
-0.0828591
-0.0721911
-0.0625299
-0.2008
-0.189318
-0.275405
-0.302953
-0.316779
-0.318335
-0.308608
-0.290737
-0.268114
-0.243458
-0.218667
-0.19496
-0.173044
-0.153215
-0.135498
-0.119744
-0.105732
-0.0932216
-0.0819928
-0.0718624
-0.0626833
-0.054358
-0.0467847
-0.171877
-0.150419
-0.221457
-0.239493
-0.245468
-0.242954
-0.232708
-0.217148
-0.198753
-0.179434
-0.160455
-0.14257
-0.126183
-0.111429
-0.0982714
-0.0865634
-0.076121
-0.0667553
-0.0583016
-0.0506277
-0.0436325
-0.0372517
-0.0314255
-0.142301
-0.111711
-0.169927
-0.181329
-0.182361
-0.178078
-0.168803
-0.156117
-0.14176
-0.127024
-0.112766
-0.0994372
-0.0872781
-0.0763371
-0.0665727
-0.057856
-0.0500509
-0.0430076
-0.0366128
-0.0307665
-0.0254086
-0.020492
-0.0159903
-0.11305
-0.074945
-0.122703
-0.130199
-0.128593
-0.124155
-0.116717
-0.107153
-0.096556
-0.0858361
-0.0755463
-0.0660016
-0.0573102
-0.0495061
-0.0425264
-0.0362921
-0.0306836
-0.025607
-0.0209658
-0.0167042
-0.0127716
-0.00915185
-0.00582073
-0.0853995
-0.0418437
-0.0814646
-0.0873232
-0.0847789
-0.0810745
-0.0757907
-0.0691838
-0.0618545
-0.0544101
-0.0472368
-0.0405707
-0.0344707
-0.028959
-0.0239848
-0.0195032
-0.0154317
-0.0117142
-0.00828455
-0.00511293
-0.00216695
0.000554911
0.0030677
-0.0604646
-0.0139905
-0.0474555
-0.0533905
-0.051017
-0.0483966
-0.0451662
-0.0411535
-0.0365726
-0.0317946
-0.0270939
-0.0226803
-0.0186036
-0.0148862
-0.0114886
-0.00839004
-0.00553833
-0.00290623
-0.000452551
0.00183398
0.00397163
0.00595293
0.00778696
-0.0394927
0.00757265
-0.0211337
-0.0282423
-0.0266762
-0.0250956
-0.0235008
-0.0215048
-0.0190464
-0.0163035
-0.0134467
-0.0106892
-0.00809238
-0.00570103
-0.00347765
-0.00142302
0.000502682
0.00229978
0.00399768
0.00558851
0.00708654
0.008473
0.00975889
-0.0225752
0.0217487
-0.00340985
-0.0121275
-0.0118142
-0.0114806
-0.0115997
-0.0117151
-0.0115792
-0.0111838
-0.010546
-0.00984801
-0.0091567
-0.00853906
-0.00795248
-0.0074035
-0.00685127
-0.00630948
-0.00575473
-0.00520786
-0.00465827
-0.00413239
-0.00362069
-0.0134368
0.0252691
0.008455
0.000424088
0.00113685
0.00251954
0.00332269
0.00379247
0.004221
0.00467427
0.00529544
0.00597118
0.00666877
0.00728296
0.00785641
0.00836376
0.00885854
0.00931517
0.00976565
0.0101798
0.0105751
0.0109233
0.0112349
0.430434
0.447015
0.532676
0.67057
0.857846
1.10759
1.43426
1.86404
2.41618
3.11672
3.98702
5.05403
6.3397
7.86255
9.62403
11.5999
13.7349
15.9456
18.1348
20.2044
22.0826
23.7099
25.1032
0.40455
0.425427
0.500351
0.627688
0.801523
1.03497
1.34288
1.74827
2.27187
2.93893
3.77257
4.79865
6.03862
7.50765
9.20377
11.0992
13.1366
15.2329
17.2931
19.2248
20.961
22.4527
23.7159
0.371866
0.394668
0.457935
0.57174
0.728441
0.939935
1.22152
1.59364
2.0774
2.69742
3.47795
4.44418
5.61706
7.00937
8.61672
10.4094
12.3296
14.2962
16.2175
18.0071
19.6029
20.9646
22.1073
0.331198
0.352744
0.403913
0.500842
0.636606
0.820674
1.06817
1.39762
1.82959
2.38797
3.0975
3.98308
5.06544
6.35623
7.85027
9.51793
11.3032
13.1283
14.906
16.5553
18.0183
19.2617
20.298
0.281039
0.297826
0.336805
0.413479
0.523872
0.674877
0.880287
1.15696
1.52431
2.00515
2.6242
3.40628
4.37246
5.53475
6.88916
8.40871
10.0417
11.716
13.35
14.8678
16.2135
17.3571
18.3071
0.219125
0.228659
0.255343
0.309012
0.38925
0.501292
0.656621
0.870053
1.15934
1.54584
2.05367
2.70772
3.52996
4.53424
5.71994
7.06544
8.52628
10.0388
11.5293
12.9268
14.1769
15.2489
16.1434
0.142342
0.145159
0.158988
0.187466
0.232748
0.299525
0.396587
0.536116
0.733641
1.00867
1.38437
1.88579
2.53647
3.35356
4.34184
5.48742
6.75567
8.09353
9.43695
10.7217
11.8951
12.9244
13.8024
0.0478042
0.046217
0.0451921
0.0451274
0.0494712
0.0626992
0.0909861
0.143349
0.232585
0.376226
0.596698
0.920033
1.37282
1.97766
2.74722
3.6776
4.74541
5.9082
7.11104
8.29514
9.40843
10.4123
11.2907
0.526782
0.497345
0.695387
0.869847
1.10115
1.42187
1.81181
2.34308
2.9952
3.80312
4.75947
5.87376
7.13425
8.53351
10.0418
11.6197
13.2042
14.7203
16.0984
17.2875
18.2618
19.0379
19.6199
0.527962
0.496297
0.693065
0.865423
1.09376
1.41233
1.80033
2.32912
2.97964
3.7884
4.75044
5.88071
7.17206
8.62454
10.2153
11.9109
13.6524
15.3634
16.9683
18.4022
19.6271
20.6417
21.4402
0.529004
0.49468
0.690444
0.861433
1.08697
1.40306
1.78912
2.3147
2.96277
3.77056
4.73573
5.87788
7.19478
8.69301
10.3562
12.1564
14.0384
15.9255
17.7383
19.4004
20.8636
22.108
23.1225
0.529901
0.492593
0.687082
0.857814
1.08112
1.39467
1.77915
2.30124
2.94648
3.75199
4.71805
5.86808
7.20482
8.74056
10.4652
12.3549