/*--------------------------------*- C++ -*----------------------------------*\
  =========                 |
  \\      /  F ield         | OpenFOAM: The Open Source CFD Toolbox
   \\    /   O peration     | Website:  https://openfoam.org
    \\  /    A nd           | Version:  7
     \\/     M anipulation  |
\*---------------------------------------------------------------------------*/
FoamFile
{
    version     2.0;
    format      ascii;
    class       surfaceScalarField;
    location    "72";
    object      phi;
}
// * * * * * * * * * * * * * * * * * * * * * * * * * * * * * * * * * * * * * //

dimensions      [0 3 -1 0 0 0 0];

internalField   nonuniform List<scalar> 
25449
(
69.7134
39.6976
-14.721
51.6622
29.256
-11.2048
38.487
21.7014
-8.52614
28.7933
16.188
-6.49436
21.6154
12.1332
-4.95526
16.2732
9.13168
-3.78951
12.2813
6.89823
-2.90632
9.28895
5.2292
-2.23683
7.04025
3.97749
-1.7288
5.34711
3.03575
-1.34262
4.07035
2.32502
-1.04826
3.10648
1.78688
-0.823001
2.37824
1.3779
-0.649664
1.8278
1.06576
-0.515314
1.41173
0.826367
-0.4103
1.09735
0.641837
-0.32745
0.859955
0.498881
-0.26149
0.680862
0.387649
-0.208556
0.545885
0.300837
-0.16586
0.44425
0.232988
-0.131353
0.367775
0.179968
-0.103493
0.310246
0.138631
-0.0811018
0.106439
-0.0631857
0.266993
55.476
59.0934
41.3256
43.4064
30.9175
32.1096
23.2117
23.8938
17.4774
17.8675
13.1929
13.4161
9.98157
10.1096
7.56855
7.64223
5.75183
5.79422
4.38194
4.40564
3.34776
3.35921
2.56632
2.56831
1.97555
1.96868
1.52884
1.51246
1.19115
1.16406
0.936039
0.896946
0.743516
0.691404
0.598406
0.532758
0.48918
0.410063
0.40706
0.315108
0.345374
0.241654
0.299051
0.184954
0.141206
0.264283
43.1231
73.6657
32.3489
54.1806
24.3386
40.1199
18.3574
29.875
13.8766
22.3483
10.5113
16.7814
7.97871
12.6422
6.06969
9.55125
4.62889
7.23502
3.54036
5.49417
2.71733
4.18224
2.09469
3.19095
1.62353
2.43983
1.26705
1.86895
0.997457
1.43364
0.793785
1.10062
0.640117
0.845072
0.524357
0.648518
0.437289
0.497131
0.371889
0.380509
0.322808
0.290735
0.285985
0.221777
0.168822
0.258369
33.1512
84.3074
25.1183
62.2134
19.0486
46.1896
14.4594
34.4642
10.9883
25.8194
8.36195
19.4077
6.37424
14.6299
4.86938
11.0561
3.72975
8.37465
2.86646
6.35746
2.21235
4.83636
1.71665
3.68664
1.34104
2.81544
1.05654
2.15346
0.841216
1.64897
0.678454
1.26338
0.555618
0.967908
0.463077
0.74106
0.393476
0.566732
0.3412
0.432785
0.301971
0.329963
0.272539
0.251209
0.1909
0.250462
25.4118
91.8441
19.5298
68.0953
14.9735
50.7459
11.4643
37.9734
8.77316
28.5105
6.7158
21.4651
5.14643
16.1993
3.95117
12.2514
3.04183
9.28399
2.35051
7.04877
1.82521
5.36167
1.4262
4.08565
1.12326
3.11838
0.893424
2.38329
0.719233
1.82316
0.587407
1.39521
0.487815
1.0675
0.412715
0.81616
0.35618
0.623267
0.313677
0.475287
0.281751
0.36189
0.257774
0.275186
0.208908
0.239767
19.5433
96.9683
15.3171
72.3216
11.9159
54.147
9.22525
40.6641
7.12174
30.614
5.49083
23.096
4.23374
17.4564
3.26883
13.2163
2.53039
10.0224
1.96643
7.61274
1.53634
5.79176
1.20867
4.41332
0.959264
3.36779
0.769606
2.57295
0.625562
1.9672
0.516331
1.50444
0.433646
1.15019
0.371169
0.878638
0.324037
0.670399
0.288528
0.510797
0.261794
0.388623
0.241674
0.295306
0.224052
0.22653
15.1619
100.235
12.1957
75.2878
9.6644
56.6783
7.58435
42.7442
5.91569
32.2827
4.59824
24.4135
3.56947
18.4851
2.77223
14.0135
2.15775
10.6369
1.68589
8.08459
1.32449
6.15316
1.04818
4.68963
0.837196
3.57877
0.676295
2.73385
0.553747
2.08975
0.460549
1.59764
0.38979
1.22094
0.336155
0.932273
0.295559
0.710995
0.264866
0.54149
0.241678
0.411811
0.224169
0.312816
0.237274
0.210947
11.9217
102.075
9.9093
77.3002
8.02793
58.5597
6.39884
44.3733
5.04805
33.6335
3.95774
25.5038
3.09321
19.3497
2.41589
14.6908
1.88964
11.1632
1.48311
8.49113
1.17027
6.46599
0.93016
4.92975
0.746183
3.76274
0.605407
2.87463
0.497821
2.19734
0.415706
1.67975
0.353117
1.28353
0.305473
0.979917
0.269251
0.747218
0.241737
0.569004
0.220857
0.432692
0.205017
0.328656
0.249282
0.193009
9.30142
105.383
6.91766
79.684
5.17843
60.2989
3.89991
45.6518
2.95373
34.5796
2.24964
26.2079
1.72341
19.8759
1.32863
15.0856
1.03159
11.4602
0.807494
8.71523
0.638035
6.63545
0.509618
5.05816
0.412128
3.86023
0.338014
2.94874
0.281625
2.25373
0.238705
1.72267
0.206039
1.3162
0.18118
1.00478
0.162263
0.766135
0.14787
0.583397
0.136918
0.443644
0.128591
0.336982
0.255622
0.122251
7.02682
107.887
5.22752
81.4833
3.91701
61.6094
2.95536
46.6134
2.24461
35.2904
1.71621
26.7363
1.32155
20.2706
1.02559
15.3816
0.802905
11.6829
0.634865
8.88327
0.507722
6.76259
0.411273
5.15461
0.337939
3.93357
0.282066
3.00461
0.23943
2.29636
0.206853
1.75525
0.181937
1.34112
0.162859
1.02386
0.148235
0.780758
0.137017
0.594615
0.128405
0.452257
0.121798
0.343589
0.260695
0.116725
5.27964
109.765
3.93284
82.8301
2.95264
62.5896
2.23411
47.332
1.7034
35.8211
1.30903
27.1306
1.01455
20.5651
0.793687
15.6024
0.627468
11.8491
0.501954
9.00878
0.406887
6.85766
0.334649
5.22685
0.279589
3.98863
0.237493
3.04671
0.205221
2.32863
0.180411
1.78006
0.16129
1.36024
0.146512
1.03863
0.135063
0.792208
0.126175
0.603503
0.119267
0.459165
0.113905
0.348951
0.264858
0.109742
3.9448
111.155
2.94702
83.8278
2.22005
63.3166
1.68695
47.8651
1.293
36.2151
1.00012
27.4235
0.781289
20.7839
0.617048
15.7667
0.493327
11.9728
0.399784
9.10232
0.328805
6.92864
0.274727
5.28093
0.233352
4.03
0.20155
3.07851
0.176994
2.35319
0.157942
1.79911
0.14309
1.37509
0.131456
1.05027
0.122306
0.801358
0.115091
0.610718
0.109393
0.464864
0.104904
0.35344
0.268392
0.101371
2.93065
112.167
2.20091
84.5576
1.66697
63.8505
1.2743
48.2577
0.983372
36.506
0.76662
27.6403
0.604367
20.9461
0.482358
15.8887
0.390272
12.0649
0.320491
9.17211
0.26739
6.98174
0.226769
5.32155
0.195515
4.06126
0.171305
3.10272
0.152419
2.37208
0.137576
1.81395
0.125824
1.38684
0.116457
1.05963
0.10895
0.808864
0.102919
0.61675
0.098068
0.469715
0.094184
0.357324
0.271495
0.0910813
2.16942
112.888
1.64378
85.0832
1.25538
64.2389
0.967661
48.5455
0.753194
36.7205
0.592636
27.8008
0.471955
21.0668
0.380868
15.9798
0.311884
12.1339
0.259415
9.22458
0.219311
7.02184
0.188453
5.35241
0.164519
4.08519
0.145777
3.12146
0.130952
2.3869
0.119099
1.82581
0.109529
1.39641
0.101738
1.06743
0.0953591
0.815243
0.0901277
0.621982
0.0858412
0.474002
0.0823531
0.360812
0.27432
0.0795277
1.59241
113.381
1.22396
85.4517
0.946375
64.5165
0.737746
48.7541
0.580419
36.8778
0.461568
27.9197
0.371571
21.1568
0.303212
16.0481
0.25115
12.1859
0.211326
9.2644
0.180694
7.05247
0.156929
5.37617
0.138296
4.10383
0.123494
3.13626
0.111572
2.39882
0.101836
1.83554
0.0937912
1.40445
0.0870856
1.07413
0.0814709
0.820858
0.0767726
0.626681
0.0728556
0.477919
0.0696233
0.364045
0.276969
0.0669744
1.16775
113.7
0.917713
85.7017
0.722221
64.712
0.571302
48.905
0.455149
36.9939
0.366037
28.0088
0.297732
21.2251
0.245332
16.1005
0.205086
12.2262
0.174053
9.29543
0.149979
7.07655
0.131106
5.39504
0.116109
4.11882
0.10399
3.14838
0.0940265
2.40879
0.0857
1.84387
0.0786562
1.4115
0.0726515
1.08014
0.0675233
0.825987
0.0631614
0.631043
0.0594778
0.481603
0.0564088
0.367114
0.279503
0.0538749
0.854292
113.882
0.69424
85.8618
0.559872
64.8464
0.4511
49.0138
0.364526
37.0805
0.296477
28.0768
0.243357
21.2782
0.202022
16.1419
0.169907
12.2583
0.144886
9.32045
0.125273
7.09616
0.10971
5.41061
0.0971566
4.13138
0.0868239
3.15872
0.0781469
2.41746
0.0707317
1.85128
0.0643233
1.41791
0.0587569
1.0857
0.0539315
0.830812
0.0497821
0.635192
0.0462517
0.485133
0.0432979
0.370068
0.281949
0.0408522
0.625618
113.959
0.533823
85.9535
0.444583
64.9356
0.366118
49.0922
0.300314
37.1463
0.246746
28.1304
0.203881
21.3211
0.169908
16.1758
0.143137
12.2851
0.122031
9.34156
0.1053
7.11289
0.0918585
5.42405
0.0808588
4.14238
0.0716492
3.16793
0.0637697
2.42534
0.0569106
1.85814
0.0508858
1.42393
0.0455866
1.091
0.0409543
0.835445
0.036954
0.639193
0.0335465
0.48854
0.0306999
0.372914
0.284301
0.0283485
0.462343
113.953
0.422052
85.9938
0.365627
64.9921
0.308375
49.1495
0.256587
37.1981
0.212462
28.1745
0.176079
21.3575
0.146638
16.2053
0.123083
12.3086
0.104292
9.36035
0.0892409
7.12794
0.0770218
5.43627
0.0669058
4.15249
0.0583254
3.17651
0.0508856
2.43278
0.0443302
1.8647
0.0385194
1.42974
0.0333818
1.09614
0.0288864
0.839941
0.025015
0.643065
0.0217351
0.49182
0.0190154
0.375634
0.28653
0.016786
0.348241
113.881
0.346834
85.9952
0.313976
65.0249
0.271125
49.1923
0.228302
37.2409
0.189856
28.213
0.157145
21.3902
0.130129
16.2323
0.108211
12.3306
0.090548
9.37801
0.0762889
7.1422
0.0646311
5.44793
0.0549119
4.16221
0.046608
3.18481
0.0393597
2.44003
0.032942
1.87112
0.0272438
1.43544
0.022217
1.10117
0.0178457
0.844312
0.014117
0.646794
0.0109948
0.494943
0.00844079
0.378188
0.288596
0.006375
0.271501
113.758
0.299364
85.9674
0.283037
65.0412
0.249417
49.226
0.211731
37.2786
0.176117
28.2486
0.144951
21.4214
0.118767
16.2585
0.0972908
12.352
0.0798627
9.39544
0.0657304
7.15634
0.0541435
5.45951
0.044466
4.17189
0.03619
3.19309
0.0289686
2.44725
0.0225907
1.87749
0.01696
1.44107
0.0120395
1.10609
0.00781644
0.848536
0.00427371
0.650336
0.00136159
0.497855
-0.000972995
0.380522
0.290451
-0.00282756
0.221969
113.592
0.272065
85.9173
0.267139
65.0462
0.238987
49.2541
0.203658
37.3139
0.168815
28.2834
0.137659
21.4525
0.111161
16.285
0.0892708
12.3739
0.0714395
9.41327
0.0569626
7.17081
0.0451046
5.47137
0.0352287
4.18177
0.026821
3.20149
0.0195318
2.45454
0.0131511
1.88387
0.00758579
1.44664
0.00279936
1.11087
-0.00122935
0.852565
-0.00453399
0.653641
-0.00718737
0.500508
-0.0092619
0.382597
0.292061
-0.0108722
0.192991
113.392
0.260012
85.8503
0.26261
65.0436
0.237086
49.2796
0.202014
37.349
0.166377
28.3191
0.134063
21.4848
0.106379
16.3127
0.0834267
12.3969
0.0647153
9.43198
0.0495476
7.18598
0.0371737
5.48375
0.0269346
4.192
0.0182952
3.21013
0.0108894
2.46195
0.00449782
1.89027
-0.000980118
1.45211
-0.00559216
1.11549
-0.00937996
0.856353
-0.0123999
0.656661
-0.0147469
0.502855
-0.0165217
0.384372
0.293391
-0.0178512
-0.261999
113.304
-0.197691
85.786
-0.150059
64.9959
-0.114618
49.2442
-0.0880945
37.3225
-0.0682044
28.2992
-0.0532979
21.4699
-0.0421673
16.3015
-0.0339139
12.3886
-0.0278857
9.42596
-0.0236211
7.18172
-0.020811
5.48094
-0.0192285
4.19042
-0.0186828
3.20959
-0.0189614
2.46223
-0.0198139
1.89112
-0.0209681
1.45327
-0.0221729
1.11669
-0.0232455
0.857425
-0.0240877
0.657503
-0.0246767
0.503444
-0.0250451
0.384741
0.293605
-0.0252585
-0.256105
113.222
-0.196154
85.726
-0.151686
64.9515
-0.118572
49.2111
-0.0937659
37.2977
-0.0751466
28.2806
-0.0611811
21.456
-0.0507438
16.2911
-0.0429928
12.3809
-0.03731
9.42027
-0.0332526
7.17766
-0.0305167
5.4782
-0.0288728
4.18878
-0.0281226
3.20884
-0.0280503
2.46216
-0.0284092
1.89148
-0.0289486
1.45381
-0.0294538
1.1172
-0.0297936
0.857766
-0.0299227
0.657632
-0.0298594
0.503381
-0.0296661
0.384548
0.293351
-0.0294116
-0.250154
113.145
-0.194215
85.6701
-0.152655
64.9099
-0.121674
49.1801
-0.0984406
37.2745
-0.0809827
28.2631
-0.0678748
21.4429
-0.0580657
16.2813
-0.0507648
12.3736
-0.0453836
9.41489
-0.0414949
7.17377
-0.0387964
5.4755
-0.0370544
4.18704
-0.0360629
3.20785
-0.0356042
2.4617
-0.035441
1.89131
-0.0353521
1.45372
-0.0351678
1.11701
-0.0348117
0.85741
-0.0342878
0.657108
-0.0336469
0.50274
-0.0329695
0.38387
0.292702
-0.0323202
-0.244202
113.074
-0.191982
85.6178
-0.153114
64.871
-0.124106
49.1511
-0.102323
37.2527
-0.0859342
28.2467
-0.0736135
21.4305
-0.064378
16.272
-0.0574837
12.3667
-0.0523681
9.40978
-0.0486161
7.17002
-0.0459254
5.47281
-0.0440558
4.18517
-0.0427937
3.20659
-0.0419227
2.46083
-0.0412214
1.89061
-0.0405057
1.453
-0.039657
1.11616
-0.0386538
0.856407
-0.0375434
0.655998
-0.0363998
0.501597
-0.0353138
0.382784
0.291728
-0.0343401
-0.23829
113.007
-0.189536
85.5691
-0.153173
64.8347
-0.125998
49.1239
-0.105561
37.2322
-0.0901623
28.2313
-0.0785683
21.4189
-0.0698596
16.2633
-0.0633347
12.3601
-0.058454
9.4049
-0.0548122
7.16638
-0.0521043
5.47011
-0.0500831
4.18315
-0.048528
3.20503
-0.0472276
2.45953
-0.045983
1.88937
-0.0446536
1.45167
-0.0431763
1.11469
-0.0415817
0.854812
-0.0399528
0.654369
-0.0383801
0.500024
-0.0369552
0.381359
0.290492
-0.0357188
-0.232443
112.945
-0.186935
85.5236
-0.152914
64.8007
-0.12745
49.0985
-0.108267
37.2131
-0.0937894
28.2168
-0.0828695
21.408
-0.0746469
16.2551
-0.0684592
12.354
-0.063787
9.40023
-0.0602326
7.16282
-0.0574868
5.46736
-0.0552946
4.18096
-0.0534302
3.20317
-0.051691
2.45779
-0.0499073
1.88759
-0.047987
1.44975
-0.045924
1.11262
-0.0437966
0.852685
-0.0417162
0.652288
-0.0397817
0.498089
-0.0380792
0.379657
0.289045
-0.0366319
-0.226684
112.888
-0.184221
85.4811
-0.152397
64.7688
-0.128536
49.0746
-0.110526
37.195
-0.0969094
28.2032
-0.0866171
21.3977
-0.0788447
16.2473
-0.0729659
12.3481
-0.0684792
9.39574
-0.0649925
7.15934
-0.0621915
5.46456
-0.0598132
4.17858
-0.0576288
3.20098
-0.0554486
2.45561
-0.0531378
1.88527
-0.0506567
1.44727
-0.0480553
1.11002
-0.0454542
0.850084
-0.042985
0.649819
-0.0407489
0.495853
-0.0388208
0.377729
0.28743
-0.0372056
-0.221025
112.834
-0.181431
85.4415
-0.151673
64.7391
-0.129318
49.0522
-0.112409
37.1781
-0.099598
28.1904
-0.0898919
21.388
-0.0825378
16.24
-0.0769428
12.3425
-0.0726215
9.39142
-0.0691858
7.1559
-0.0663152
5.46169
-0.0637397
4.176
-0.0612296
3.19847
-0.0586125
2.45299
-0.0557934
1.88246
-0.0527871
1.44427
-0.0496969
1.10693
-0.0466792
0.847066
-0.0438784
0.647018
-0.0413926
0.493367
-0.0392824
0.375619
0.285682
-0.0375345
-0.215476
112.784
-0.17859
85.4046
-0.150781
64.7113
-0.129844
49.0313
-0.113971
37.1623
-0.101916
28.1784
-0.0927593
21.3789
-0.0857949
16.233
-0.0804614
12.3372
-0.0762877
9.38724
-0.0728885
7.1525
-0.0699369
5.45874
-0.0671567
4.17322
-0.0643201
3.19564
-0.061276
2.44995
-0.057973
1.87915
-0.0544804
1.44077
-0.0509514
1.1034
-0.0475707
0.843686
-0.0444894
0.643937
-0.0417987
0.490677
-0.0395425
0.373363
0.28383
-0.0376901
-0.210046
112.738
-0.17572
85.3703
-0.149753
64.6853
-0.130155
49.0117
-0.115259
37.1474
-0.103916
28.167
-0.095274
21.3702
-0.0886735
16.2264
-0.0835815
12.3321
-0.0795398
9.3832
-0.0761647
7.14913
-0.0731232
5.4557
-0.0701339
4.17023
-0.0669744
3.19248
-0.0635183
2.44649
-0.0597599
1.87539
-0.0558224
1.43684
-0.0519034
1.09949
-0.048209
0.839991
-0.0448924
0.64062
-0.0420347
0.487819
-0.0396621
0.37099
0.281896
-0.0377284
-0.204741
112.695
-0.172841
85.3384
-0.148617
64.6611
-0.130285
48.9934
-0.116311
37.1334
-0.10564
28.1563
-0.0974831
21.3621
-0.0912233
16.2202
-0.0863549
12.3272
-0.0824311
9.37928
-0.0790699
7.14577
-0.0759319
5.45256
-0.0727326
4.16703
-0.0692577
3.189
-0.0654088
2.44264
-0.0612271
1.87121
-0.056887
1.4325
-0.0526246
1.09522
-0.0486619
0.836029
-0.0451491
0.637108
-0.0421561
0.484826
-0.0396914
0.368525
0.279899
-0.0376945
-0.199564
112.655
-0.169967
85.3088
-0.147397
64.6385
-0.130265
48.9762
-0.117164
37.1203
-0.107128
28.1463
-0.0994278
21.3544
-0.0934875
16.2142
-0.0888265
12.3225
-0.0850087
9.37546
-0.0816527
7.14241
-0.0784139
5.44932
-0.0750065
4.16363
-0.0712274
3.18522
-0.0670087
2.43842
-0.0624383
1.86664
-0.0577381
1.4278
-0.0531767
1.09066
-0.0489861
0.831838
-0.045311
0.633432
-0.0422089
0.481724
-0.0396711
0.365988
0.277853
-0.037625
-0.194519
112.619
-0.167111
85.2814
-0.146114
64.6175
-0.13012
48.9603
-0.117847
37.108
-0.108413
28.1369
-0.101144
21.3471
-0.0955041
16.2086
-0.0910361
12.3181
-0.0873135
9.37174
-0.0839558
7.13905
-0.0806141
5.44598
-0.0770033
4.16002
-0.0729345
3.18115
-0.068372
2.43386
-0.0634495
1.86172
-0.0584313
1.42278
-0.0536125
1.08584
-0.0492304
0.827456
-0.0454219
0.629624
-0.0422323
0.478534
-0.0396366
0.363392
0.275769
-0.0375523
-0.189608
112.585
-0.164286
85.2561
-0.144785
64.598
-0.129874
48.9453
-0.118389
37.0965
-0.109525
28.128
-0.102665
21.3402
-0.0973083
16.2032
-0.0930203
12.3138
-0.0893838
9.3681
-0.0860191
7.13569
-0.0825742
5.44253
-0.0787671
4.15621
-0.074426
3.17681
-0.0695487
2.42898
-0.0643118
1.85648
-0.0590171
1.41748
-0.0539799
1.08081
-0.0494387
0.822915
-0.0455218
0.625707
-0.042262
0.475275
-0.0396204
0.36075
0.273654
-0.0375059
-0.184832
112.554
-0.161502
85.2328
-0.143427
64.5799
-0.129549
48.9315
-0.118814
37.0858
-0.110493
28.1197
-0.104021
21.3338
-0.0989315
16.1981
-0.094812
12.3097
-0.0912536
9.36454
-0.0878779
7.13231
-0.0843313
5.43899
-0.0803375
4.15222
-0.0757442
3.17222
-0.0705829
2.42382
-0.0650704
1.85097
-0.05954
1.41195
-0.0543207
1.07559
-0.0496498
0.818244
-0.0456459
0.621703
-0.0423307
0.471959
-0.0396525
0.358072
0.271516
-0.0375143
-0.180195
112.526
-0.158768
85.2113
-0.142057
64.5632
-0.129165
48.9186
-0.119146
37.0758
-0.111343
28.1119
-0.10524
21.3277
-0.100404
16.1933
-0.0964423
12.3057
-0.0929555
9.36106
-0.0895663
7.12892
-0.0859213
5.43534
-0.0817524
4.14805
-0.0769289
3.1674
-0.0715164
2.41841
-0.0657676
1.84522
-0.0600414
1.40623
-0.0546749
1.07022
-0.0499006
0.813469
-0.0458291
0.617631
-0.0424709
0.468601
-0.0397639
0.355365
0.269359
-0.0376067
-0.175696
112.501
-0.156093
85.1917
-0.140688
64.5478
-0.128741
48.9066
-0.119407
37.0665
-0.112098
28.1046
-0.106347
21.3219
-0.101752
16.1887
-0.0979398
12.3019
-0.0945189
9.35764
-0.0911148
7.12552
-0.0873762
5.4316
-0.0830456
4.14372
-0.0780161
3.16237
-0.0723865
2.41278
-0.0664412
1.83928
-0.0605583
1.40034
-0.0550779
1.06474
-0.0502255
0.808617
-0.0461033
0.613509
-0.0427131
0.465211
-0.0399836
0.352635
0.267186
-0.037811
-0.171338
112.478
-0.153486
85.1739
-0.139335
64.5337
-0.128293
48.8956
-0.119616
37.0578
-0.112782
28.0977
-0.107368
21.3165
-0.103002
16.1843
-0.0993315
12.2982
-0.0959722
9.35428
-0.0925532
7.1221
-0.088727
5.42778
-0.0842498
4.13924
-0.07904
3.15716
-0.0732282
2.40697
-0.0671266
1.83317
-0.0611256
1.39434
-0.055564
1.05918
-0.0506574
0.80371
-0.0465008
0.609353
-0.0430883
0.461798
-0.0403419
0.349889
0.265001
-0.0381569
-0.167121
112.457
-0.150954
85.1577
-0.13801
64.5207
-0.12784
48.8854
-0.119795
37.0497
-0.113417
28.0914
-0.108325
21.3114
-0.104179
16.1802
-0.100643
12.2947
-0.0973421
9.35098
-0.093909
7.11867
-0.0900027
5.42387
-0.0853954
4.13463
-0.0800322
3.15179
-0.0740738
2.40101
-0.0678563
1.82696
-0.0617753
1.38826
-0.0561647
1.05357
-0.0512282
0.798773
-0.0470534
0.605178
-0.0436287
0.458374
-0.0408712
0.347131
0.262807
-0.0386772
-0.163045
112.439
-0.148505
85.1432
-0.136724
64.5089
-0.127396
48.8761
-0.119961
37.0423
-0.114022
28.0854
-0.109241
21.3066
-0.105307
16.1763
-0.1019
12.2913
-0.0986543
9.34773
-0.0952092
7.11522
-0.0912313
5.41989
-0.0865113
4.12991
-0.0810223
3.1463
-0.0749534
2.39494
-0.0686604
1.82066
-0.0625378
1.38214
-0.0569106
1.04794
-0.0519693
0.793832
-0.0477938
0.601002
-0.0443678
0.454948
-0.0416058
0.344369
0.260607
-0.0394068
-0.159112
112.423
-0.146144
85.1302
-0.135491
64.4983
-0.126976
48.8676
-0.120131
37.0355
-0.114618
28.0799
-0.110138
21.3021
-0.106407
16.1725
-0.103123
12.288
-0.0999325
9.34454
-0.0964782
7.11177
-0.0924383
5.41585
-0.0876239
4.1251
-0.0820375
3.14072
-0.075894
2.3888
-0.0695659
1.81434
-0.0634405
1.37601
-0.0578302
1.04233
-0.0529109
0.788913
-0.0487547
0.596846
-0.0453405
0.451533
-0.0425826
0.341611
0.258409
-0.0403842
-0.155322
112.409
-0.143881
85.1188
-0.13432
64.4887
-0.126596
48.8599
-0.120324
37.0292
-0.115223
28.0748
-0.111034
21.298
-0.107501
16.169
-0.104338
12.2848
-0.101201
9.3414
-0.0977411
7.10831
-0.0936493
5.41176
-0.0887593
4.12021
-0.0831039
3.13506
-0.0769217
2.38261
-0.0705987
1.80801
-0.0645097
1.36992
-0.0589514
1.03677
-0.0540838
0.784045
-0.0499703
0.592733
-0.0465854
0.448148
-0.0438439
0.33887
0.25622
-0.0416549
-0.151676
112.397
-0.141719
85.1088
-0.133223
64.4802
-0.126269
48.8529
-0.120554
37.0235
-0.115856
28.0701
-0.111951
21.2941
-0.10861
16.1657
-0.105565
12.2818
-0.102481
9.33832
-0.0990206
7.10485
-0.094888
5.40763
-0.0899413
4.11526
-0.0842455
3.12937
-0.0780597
2.37643
-0.0717815
1.80173
-0.0657686
1.36391
-0.0602998
1.0313
-0.0555171
0.779262
-0.0514746
0.58869
-0.0481416
0.444815
-0.0454338
0.336162
0.254052
-0.0432666
-0.148174
112.388
-0.139666
85.1003
-0.13221
64.4728
-0.126008
48.8467
-0.120839
37.0183
-0.116534
28.0658
-0.112907
21.2904
-0.109754
16.1625
-0.106825
12.2788
-0.103796
9.33529
-0.100339
7.10139
-0.0961768
5.40347
-0.0911925
4.11027
-0.0854843
3.12366
-0.0793289
2.37027
-0.0731347
1.79554
-0.0672376
1.35801
-0.0618982
1.02596
-0.0572369
0.7746
-0.0532978
0.584751
-0.0500447
0.441562
-0.0473933
0.33351
0.251924
-0.0452655
-0.144817
112.38
-0.137728
85.0932
-0.131291
64.4663
-0.125826
48.8412
-0.121193
37.0137
-0.117274
28.0619
-0.11392
21.2871
-0.110952
16.1595
-0.108137
12.276
-0.105165
9.33232
-0.101718
7.09795
-0.0975377
5.39929
-0.0925344
4.10527
-0.0868414
3.11796
-0.0807495
2.36418
-0.0746775
1.78947
-0.0689356
1.35227
-0.0637675
1.02079
-0.0592691
0.770102
-0.0554698
0.580952
-0.0523302
0.438423
-0.0497676
0.330947
0.24986
-0.0477035
-0.136646
112.368
-0.127723
85.0843
-0.120804
64.4594
-0.115494
48.8359
-0.111287
37.0095
-0.107875
28.0585
-0.105015
21.2842
-0.102494
16.157
-0.100074
12.2736
-0.0974665
9.32971
-0.0943804
7.09486
-0.0905951
5.3955
-0.0860489
4.10073
-0.0808945
3.11281
-0.0754113
2.3587
-0.0699923
1.78405
-0.0649012
1.34718
-0.0603489
1.01624
-0.0564057
0.766158
-0.0530779
0.577624
-0.050329
0.435674
-0.0480888
0.328707
0.248052
-0.0462811
-0.108876
112.358
-0.102017
85.0774
-0.09669
64.4541
-0.0926003
48.8318
-0.0893513
37.0062
-0.0867047
28.0558
-0.084473
21.282
-0.0824891
16.155
-0.0805686
12.2717
-0.0784834
9.32763
-0.0760071
7.09238
-0.0729749
5.39247
-0.0693516
4.0971
-0.0652766
3.10874
-0.0609803
2.3544
-0.0567744
1.77984
-0.052857
1.34326
-0.0493788
1.01276
-0.046392
0.763171
-0.0438789
0.575111
-0.0418032
0.433598
-0.0401189
0.327023
0.246699
-0.0387654
-0.0867188
112.351
-0.0814272
85.0721
-0.0773118
64.45
-0.0741516
48.8287
-0.0716351
37.0037
-0.0695772
28.0538
-0.067832
21.2802
-0.0662694
16.1535
-0.0647454
12.2702
-0.0630815
9.32596
-0.0611004
7.0904
-0.0586782
5.39005
-0.0557962
4.09422
-0.0525759
3.10551
-0.0492068
2.35103
-0.045934
1.77657
-0.0429112
1.34024
-0.0402416
1.01009
-0.0379721
0.760902
-0.0360726
0.573212
-0.0345031
0.432028
-0.033236
0.325756
0.245686
-0.0322233
-0.0690351
112.346
-0.0649287
85.068
-0.0617316
64.4468
-0.059276
48.8262
-0.0573169
37.0017
-0.0557097
28.0522
-0.05434
21.2789
-0.0531064
16.1522
-0.0518963
12.269
-0.0505699
9.32464
-0.0489883
7.08882
-0.0470579
5.38812
-0.0447695
4.09193
-0.0422261
3.10297
-0.0395829
2.34839
-0.0370314
1.77402
-0.0346936
1.3379
-0.0326374
1.00804
-0.0309048
0.759169
-0.0294666
0.571773
-0.028279
0.430841
-0.027325
0.324802
0.244926
-0.0265653
-0.0549333
112.341
-0.0517297
85.0648
-0.0492336
64.4443
-0.0473163
48.8243
-0.0457843
37.0002
-0.0445241
28.0509
-0.0434457
21.2778
-0.0424697
16.1513
-0.041508
12.268
-0.0404513
9.32358
-0.0391904
7.08756
-0.037654
5.38658
-0.0358388
4.09012
-0.0338299
3.10096
-0.0317544
2.34631
-0.0297608
1.77202
-0.0279475
1.33609
-0.0263587
1.00645
-0.025028
0.757838
-0.0239341
0.570679
-0.0230337
0.42994
-0.0223116
0.32408
0.244354
-0.0217398
-0.0436688
112.338
-0.041137
85.0623
-0.0391637
64.4423
-0.0376482
48.8228
-0.0364366
36.999
-0.0354386
28.0499
-0.0345826
21.2769
-0.033806
16.1505
-0.0330394
12.2672
-0.0321971
9.32274
-0.0311936
7.08656
-0.0299741
5.38536
-0.0285384
4.08868
-0.0269554
3.09938
-0.0253284
2.34468
-0.0237721
1.77047
-0.0223654
1.33468
-0.0211384
1.00522
-0.0201138
0.756814
-0.0192779
0.569843
-0.0185952
0.429258
-0.0180467
0.323531
0.243924
-0.0176166
-0.0348288
112.335
-0.0329146
85.0604
-0.0314201
64.4408
-0.0302717
48.8216
-0.0293504
36.9981
-0.028587
28.0492
-0.0279268
21.2763
-0.0273217
16.1499
-0.026718
12.2666
-0.0260487
9.32207
-0.0252465
7.08575
-0.0242688
5.38438
-0.0231179
4.08753
-0.0218505
3.09811
-0.0205519
2.34339
-0.019313
1.76923
-0.0181982
1.33357
-0.0172304
1.00425
-0.0164236
0.756007
-0.0157679
0.569188
-0.0152377
0.428727
-0.0148114
0.323105
0.243593
-0.01448
-0.0275631
112.333
-0.025957
85.0588
-0.0247054
64.4396
-0.0237448
48.8207
-0.0229767
36.9973
-0.0223434
28.0485
-0.0217989
21.2757
-0.0213038
16.1494
-0.0208151
12.2661
-0.0202798
9.32153
-0.0196452
7.08512
-0.0188783
5.38362
-0.0179814
4.08663
-0.0169982
3.09713
-0.015996
2.34238
-0.0150432
1.76828
-0.0141896
1.33271
-0.0134528
1.00351
-0.0128393
0.755393
-0.0123408
0.568689
-0.0119425
0.428329
-0.0116232
0.322786
0.243347
-0.011377
-0.0206355
112.326
-0.0154971
85.0536
-0.0113479
64.4354
-0.00801914
48.8173
-0.00531865
36.9946
-0.00310486
28.0463
-0.00125995
21.2739
0.000314556
16.1478
0.00170745
12.2647
0.00300558
9.32024
0.00428391
7.08384
0.00558563
5.38231
0.00691027
4.08531
0.00821147
3.09583
0.00942776
2.34117
0.0105014
1.7672
0.0114013
1.33181
0.0121353
1.00278
0.0127125
0.754816
0.0131578
0.568244
0.013497
0.42799
0.0137576
0.322525
0.243155
0.0139495
-0.0216678
112.32
-0.0162721
85.0482
-0.0119154
64.4311
-0.00842028
48.8139
-0.00558468
36.9918
-0.00325953
28.044
-0.00132088
21.2719
0.000334664
16.1462
0.00179979
12.2633
0.00316482
9.31887
0.00450762
7.0825
0.00587233
5.38095
0.00725773
4.08392
0.00861432
3.09447
0.0098781
2.3399
0.0109896
1.76609
0.0119167
1.33089
0.0126699
1.00203
0.0132589
0.754227
0.0137112
0.567791
0.014052
0.427649
0.0143109
0.322266
0.242965
0.0145003
-0.0227519
112.312
-0.017086
85.0426
-0.0125113
64.4265
-0.00884143
48.8102
-0.00586399
36.9888
-0.00342193
28.0415
-0.00138483
21.2699
0.000355892
16.1444
0.0018969
12.2617
0.00333223
9.31744
0.00474261
7.08109
0.00617308
5.37952
0.00762154
4.08247
0.00903524
3.09306
0.0103475
2.33859
0.0114974
1.76494
0.0124516
1.32993
0.0132232
1.00126
0.0138231
0.753627
0.0142812
0.567333
0.0146233
0.427307
0.0148792
0.32201
0.242781
0.0150634
-0.0238902
112.305
-0.0179403
85.0366
-0.0131368
64.4217
-0.0092836
48.8063
-0.00615724
36.9857
-0.00359243
28.039
-0.00145188
21.2678
0.000378351
16.1426
0.00199917
12.2601
0.00350838
9.31593
0.00498964
7.07961
0.00648884
5.37802
0.00800277
4.08096
0.00947535
3.09158
0.010837
2.33723
0.0120257
1.76375
0.0130068
1.32895
0.0137956
1.00047
0.0144056
0.753017
0.014868
0.56687
0.0152105
0.426964
0.0154635
0.321757
0.242602
0.0156426
-0.0250852
112.297
-0.0188374
85.0304
-0.0137937
64.4166
-0.00974782
48.8023
-0.00646511
36.9824
-0.00377137
28.0363
-0.00152218
21.2655
0.000402137
16.1407
0.00210689
12.2584
0.0036938
9.31434
0.00524943
7.07805
0.00682047
5.37645
0.00840236
4.07938
0.00993562
3.09005
0.0113475
2.33582
0.0125752
1.76252
0.0135828
1.32794
0.0143879
0.999662
0.0150077
0.752397
0.0154732
0.566405
0.0158153
0.426622
0.0160661
0.321506
0.242426
0.0162423
-0.0263402
112.289
-0.0197793
85.0238
-0.0144833
64.4113
-0.0102352
48.798
-0.00678832
36.9789
-0.00395921
28.0335
-0.00159586
21.2632
0.000427356
16.1386
0.00222042
12.2566
0.00388902
9.31267
0.00552268
7.07642
0.00716882
5.3748
0.00882127
4.07773
0.0104171
3.08845
0.0118799
2.33435
0.0131471
1.76126
0.0141808
1.32691
0.0150011
0.998841
0.0156302
0.751767
0.0160984
0.565937
0.0164396
0.426281
0.0166893
0.321257
0.24225
0.0168645
-0.0276576
112.28
-0.0207682
85.0169
-0.0152074
64.4058
-0.0107468
48.7936
-0.0071276
36.9753
-0.00415637
28.0305
-0.00167312
21.2607
0.000454111
16.1365
0.00234004
12.2547
0.0040946
9.31092
0.00581019
7.0747
0.00753482
5.37308
0.00926048
4.076
0.0109209
3.08679
0.0124355
2.33284
0.0137423
1.75995
0.0148017
1.32585
0.0156362
0.998007
0.0162736
0.75113
0.0167442
0.565466
0.0170845
0.42594
0.0173333
0.321008
0.242076
0.0175074
-0.0290412
112.271
-0.0218065
85.0097
-0.0159673
64.3999
-0.011284
48.7889
-0.00748379
36.9715
-0.00436328
28.0274
-0.00175406
21.2581
0.000482494
16.1343
0.00246617
12.2528
0.00431113
9.30907
0.00611265
7.0729
0.00791932
5.37127
0.00972091
4.0742
0.0114478
3.08507
0.0130149
2.33127
0.0143615
1.7586
0.0154462
1.32477
0.0162938
0.997159
0.0169376
0.750486
0.0174108
0.564992
0.0177498
0.425601
0.0179964
0.320761
0.241905
0.0181674
-0.0304937
112.261
-0.0228967
85.0021
-0.0167654
64.3938
-0.0118479
48.784
-0.00785768
36.9675
-0.00458041
28.0241
-0.00183884
21.2553
0.00051269
16.1319
0.00259917
12.2507
0.00453919
9.30713
0.00643088
7.07101
0.0083232
5.36938
0.0102034
4.07232
0.0119986
3.08327
0.0136189
2.32965
0.0150051
1.75722
0.0161147
1.32366
0.0169742
0.996299
0.0176223
0.749838
0.0180971
0.564518
0.0184343
0.425264
0.0186757
0.320519
0.24174
0.0188412
-0.0320187
112.251
-0.0240412
84.9941
-0.0176032
64.3874
-0.0124399
48.7788
-0.00825016
36.9634
-0.00480829
28.0207
-0.00192765
21.2524
0.000544764
16.1295
0.00273945
12.2485
0.00477942
9.30509
0.00676559
7.06902
0.00874727
5.3674
0.0107088
4.07036
0.012574
3.08141
0.0142479
2.32798
0.0156735
1.75579
0.0168071
1.32252
0.0176773
0.995429
0.0183279
0.749187
0.0188014
0.564044
0.0191357
0.42493
0.0193689
0.320286
0.241581
0.0195271
-0.0336199
112.241
-0.0252427
84.9857
-0.0184829
64.3806
-0.0130613
48.7734
-0.00866211
36.959
-0.00504737
28.017
-0.00202064
21.2494
0.000578899
16.1269
0.00288738
12.2462
0.00503241
9.30295
0.00711761
7.06694
0.00919234
5.36532
0.0112378
4.06831
0.0131746
3.07947
0.0149024
2.32625
0.0163666
1.75433
0.0175235
1.32137
0.0184028
0.99455
0.0190548
0.748535
0.0195228
0.563576
0.019852
0.4246
0.0200747
0.320063
0.241432
0.0202247
-0.0353014
112.23
-0.0265044
84.9769
-0.0194061
64.3735
-0.0137137
48.7677
-0.00909452
36.9543
-0.00529821
28.0132
-0.00211794
21.2462
0.00061526
16.1241
0.00304338
12.2437
0.00529881
9.30069
0.00748769
7.06475
0.00965928
5.36315
0.0117912
4.06618
0.013801
3.07746
0.0155828
2.32447
0.0170846
1.75282
0.0182637
1.32019
0.0191504
0.993663
0.0198021
0.747884
0.0202618
0.563116
0.0205827
0.424279
0.020794
0.319852
0.24129
0.0209352
-0.0370664
112.218
-0.027829
84.9677
-0.0203757
64.3661
-0.0143985
48.7617
-0.00954833
36.9495
-0.00556135
28.0093
-0.00221977
21.2429
0.000653944
16.1212
0.00320793
12.2412
0.00557928
9.29832
0.00787664
7.06245
0.0101489
5.36088
0.0123698
4.06396
0.0144536
3.07538
0.0162894
2.32263
0.0178275
1.75129
0.0190278
1.31899
0.0199198
0.992771
0.020569
0.747234
0.0210194
0.562665
0.0213285
0.42397
0.0215287
0.319652
0.241157
0.0216617
-0.0389198
112.206
-0.0292195
84.958
-0.0213933
64.3582
-0.0151173
48.7554
-0.0100246
36.9444
-0.00583734
28.0051
-0.00232629
21.2394
0.000695153
16.1182
0.00338144
12.2385
0.00587448
9.29583
0.00828523