/*--------------------------------*- C++ -*----------------------------------*\
  =========                 |
  \\      /  F ield         | OpenFOAM: The Open Source CFD Toolbox
   \\    /   O peration     | Website:  https://openfoam.org
    \\  /    A nd           | Version:  7
     \\/     M anipulation  |
\*---------------------------------------------------------------------------*/
FoamFile
{
    version     2.0;
    format      ascii;
    class       volVectorField;
    location    "72";
    object      U;
}
// * * * * * * * * * * * * * * * * * * * * * * * * * * * * * * * * * * * * * //

dimensions      [0 1 -1 0 0 0 0];

internalField   nonuniform List<vector> 
12842
(
(15.5349 1.63613 3.9489e-19)
(15.5366 1.6473 1.30262e-19)
(15.5382 1.65805 6.02142e-20)
(15.5399 1.67101 -1.3798e-19)
(15.5416 1.68766 6.59399e-19)
(15.543 1.70931 0)
(15.5438 1.73744 0)
(15.5433 1.7738 5.41646e-20)
(15.5408 1.8204 -5.70797e-19)
(15.5348 1.87941 -2.01986e-20)
(15.5239 1.95305 -2.34292e-19)
(15.5058 2.04329 -3.31829e-21)
(15.4783 2.15154 -1.13274e-19)
(15.4389 2.27814 4.44111e-21)
(15.3859 2.42217 1.48428e-21)
(15.3183 2.58107 3.79816e-21)
(15.2366 2.75063 -1.79225e-20)
(15.1429 2.92524 0)
(15.0409 3.0986 6.1657e-21)
(14.9349 3.2645 3.76704e-20)
(14.83 3.41752 9.80707e-21)
(14.7305 3.55451 -3.43242e-20)
(14.6403 3.67107 3.16701e-20)
(15.5358 1.63601 -3.40161e-19)
(15.5397 1.64612 0)
(15.5435 1.65639 9.07649e-19)
(15.5479 1.66899 -6.39481e-19)
(15.553 1.68535 -5.48151e-19)
(15.5585 1.70682 0)
(15.5644 1.735 1.23778e-18)
(15.5703 1.77181 0)
(15.5755 1.81947 1.11171e-18)
(15.579 1.88045 9.91763e-20)
(15.579 1.95729 4.30855e-19)
(15.5735 2.05227 7.03819e-19)
(15.5596 2.16703 1.07862e-19)
(15.5346 2.30197 -3.33422e-19)
(15.4959 2.45592 0)
(15.4415 2.62583 -7.48874e-21)
(15.3713 2.80671 1.19616e-20)
(15.2867 2.99209 6.4583e-20)
(15.191 3.17488 0)
(15.0886 3.34839 -5.31809e-20)
(14.9849 3.5068 -4.09707e-20)
(14.8847 3.6475 7.77421e-20)
(14.7931 3.7642 -7.10224e-20)
(15.5368 1.63569 0)
(15.5423 1.64456 0)
(15.5478 1.65413 3.58566e-19)
(15.5546 1.66609 3.60737e-18)
(15.5626 1.68183 0)
(15.5718 1.70271 0)
(15.5824 1.73041 4.06786e-19)
(15.5941 1.76699 -1.3336e-18)
(15.6066 1.81487 -5.29146e-19)
(15.6189 1.87679 -5.45584e-19)
(15.6294 1.9556 -1.06153e-18)
(15.6359 2.05395 -6.83643e-19)
(15.6355 2.17375 -1.57143e-19)
(15.6247 2.31553 5.26914e-19)
(15.6002 2.47804 0)
(15.5595 2.65784 8.2253e-20)
(15.5015 2.84929 -1.04946e-19)
(15.4271 3.04517 -5.6152e-20)
(15.3392 3.23757 -1.73876e-19)
(15.2423 3.41926 8.46806e-20)
(15.1422 3.58393 2.32737e-20)
(15.0438 3.72948 0)
(14.9533 3.8476 2.09595e-20)
(15.538 1.63515 -2.37145e-19)
(15.5444 1.64275 4.89051e-19)
(15.5513 1.65149 -1.50406e-18)
(15.5602 1.66266 -6.08475e-18)
(15.5707 1.67753 5.55048e-19)
(15.5832 1.69748 -1.98128e-18)
(15.5979 1.72426 -5.36667e-20)
(15.6151 1.76003 1.30805e-18)
(15.6343 1.80739 2.28979e-18)
(15.6549 1.86933 -1.39878e-18)
(15.6755 1.94901 2.59993e-18)
(15.6937 2.04944 -3.02033e-19)
(15.7064 2.17285 3.92485e-19)
(15.7097 2.32 1.36075e-18)
(15.6998 2.48962 -2.0843e-19)
(15.6733 2.67799 2.67425e-19)
(15.6284 2.87896 8.35912e-20)
(15.5655 3.08466 2.51284e-19)
(15.4871 3.28648 -8.40534e-21)
(15.3977 3.47662 1.58226e-19)
(15.3034 3.64825 2.72609e-20)
(15.209 3.79972 3.8383e-20)
(15.1216 3.92063 -3.76886e-20)
(15.5391 1.63442 -2.63235e-18)
(15.546 1.64081 0)
(15.5541 1.64866 2.78704e-19)
(15.5647 1.65889 2.20498e-18)
(15.5774 1.67267 2.24925e-19)
(15.5928 1.69139 5.38217e-18)
(15.6113 1.71682 2.91147e-19)
(15.6333 1.75124 -3.66252e-18)
(15.6588 1.79736 -2.57672e-18)
(15.6872 1.85842 1.74643e-18)
(15.7174 1.93789 -2.87309e-18)
(15.7469 2.03913 -2.17301e-18)
(15.7726 2.16477 4.8233e-19)
(15.7902 2.3158 -2.98696e-18)
(15.7952 2.49106 -1.18343e-18)
(15.7836 2.68667 8.1853e-19)
(15.7529 2.89608 0)
(15.7028 3.11086 -2.53648e-19)
(15.6357 3.32177 0)
(15.5558 3.52053 8.94495e-20)
(15.4692 3.69967 9.28611e-20)
(15.3808 3.85799 -6.19366e-20)
(15.2982 3.98291 -2.65732e-20)
(15.5402 1.63352 2.28474e-18)
(15.5471 1.63885 0)
(15.5563 1.64578 0)
(15.5683 1.65496 3.76563e-18)
(15.5828 1.66748 -2.80424e-18)
(15.6006 1.68471 -3.15255e-18)
(15.6225 1.70842 -4.8798e-18)
(15.6488 1.74095 4.0349e-18)
(15.68 1.78516 0)
(15.7157 1.84445 2.32247e-18)
(15.7549 1.92259 2.62431e-18)
(15.7954 2.02333 1.089e-18)
(15.8339 2.14967 0)
(15.8657 2.30299 1.62131e-18)
(15.886 2.48228 9.92814e-19)
(15.89 2.68363 -5.87906e-19)
(15.8747 2.90023 -1.52708e-19)
(15.8391 3.12322 1.07054e-18)
(15.7851 3.34279 0)
(15.7165 3.55025 -4.01992e-19)
(15.6395 3.73742 1.52255e-19)
(15.5589 3.90349 4.03234e-19)
(15.4829 4.03354 -9.41187e-20)
(15.5411 1.63249 -2.55724e-19)
(15.5478 1.63694 0)
(15.5579 1.64295 0)
(15.571 1.65103 -3.73271e-18)
(15.5869 1.66218 3.22502e-18)
(15.6068 1.67772 -4.22717e-19)
(15.6314 1.6994 2.90926e-18)
(15.6616 1.72962 2.96365e-19)
(15.6978 1.77131 -3.88749e-19)
(15.7401 1.82804 -2.62661e-18)
(15.7877 1.90382 -3.08661e-19)
(15.8386 2.00278 2.21922e-18)
(15.8894 2.12835 0)
(15.9355 2.28231 -2.12821e-18)
(15.9713 2.46393 1.94618e-19)
(15.9916 2.6694 -2.50088e-19)
(15.9927 2.89176 7.76502e-19)
(15.973 3.12189 -6.22474e-19)
(15.9337 3.34949 -8.28279e-19)
(15.8785 3.56551 -1.92127e-19)
(15.8132 3.76099 2.5654e-20)
(15.7422 3.93553 -2.64184e-19)
(15.6744 4.07159 -1.60787e-19)
(15.5418 1.63142 0)
(15.5482 1.63512 -2.00614e-19)
(15.5591 1.64023 2.44863e-18)
(15.573 1.64719 -7.30542e-20)
(15.59 1.6569 -3.43195e-18)
(15.6116 1.67062 5.61428e-19)
(15.6385 1.69004 -1.03591e-19)
(15.6719 1.7176 -2.46147e-18)
(15.7124 1.75622 0)
(15.7604 1.80959 -3.20845e-18)
(15.8156 1.88192 2.7038e-19)
(15.8762 1.9777 1.49584e-19)
(15.939 2.10079 0)
(15.9991 2.25345 2.08487e-18)
(16.0507 2.43538 -1.72114e-18)
(16.0881 2.64301 0)
(16.1067 2.86944 -7.64135e-19)
(16.1045 3.10543 0)
(16.082 3.34027 6.71044e-19)
(16.0422 3.56469 0)
(15.9908 3.76875 -2.90769e-19)
(15.9315 3.95263 1.80101e-19)
(15.8736 4.09573 2.36736e-19)
(15.5425 1.63019 0)
(15.5483 1.63345 0)
(15.5597 1.63784 7.16544e-20)
(15.574 1.64391 -1.59187e-19)
(15.5917 1.65244 3.88571e-18)
(15.6143 1.66461 3.29476e-18)
(15.6427 1.68206 0)
(15.6784 1.70725 2.30877e-18)
(15.7221 1.74312 0)
(15.7745 1.79347 6.52108e-18)
(15.8353 1.86264 2.50212e-18)
(15.9033 1.95539 -1.88267e-18)
(15.9753 2.07593 -1.89721e-19)
(16.0464 2.22691 0)
(16.1107 2.40834 1.82901e-18)
(16.1622 2.61692 1.43394e-18)
(16.1958 2.84576 -1.2823e-19)
(16.209 3.0856 9.60773e-19)
(16.2018 3.32545 8.45358e-19)
(16.1766 3.55594 0)
(16.1386 3.76621 1.92571e-19)
(16.0911 3.95734 1.60253e-20)
(16.0431 4.10628 -1.37675e-19)
(15.5433 1.6289 -3.5923e-20)
(15.5483 1.63199 2.4974e-18)
(15.5604 1.63579 -2.32886e-18)
(15.575 1.6412 0)
(15.5932 1.64882 7.13312e-20)
(15.6166 1.6598 1.22608e-19)
(15.6463 1.67575 -3.07099e-18)
(15.6837 1.69912 0)
(15.7297 1.73283 0)
(15.7854 1.78076 -3.26492e-18)
(15.8507 1.8473 -2.65171e-18)
(15.9244 1.93741 -7.64468e-20)
(16.0037 2.05556 1.97797e-18)
(16.0838 2.20468 -6.40328e-20)
(16.1585 2.38504 -2.54522e-19)
(16.2217 2.59354 2.73663e-19)
(16.2681 2.82335 -9.59597e-19)
(16.2947 3.06526 -8.86739e-19)
(16.3011 3.30808 -9.56326e-19)
(16.2891 3.54254 -6.95065e-19)
(16.2638 3.75702 2.16577e-19)
(16.2273 3.95334 -9.50763e-19)
(16.1895 4.10657 1.68307e-19)
(15.5439 1.62757 3.50597e-18)
(15.5483 1.63068 -2.82987e-18)
(15.561 1.63391 7.0756e-20)
(15.5759 1.63873 2.34651e-18)
(15.5945 1.64549 -1.10484e-19)
(15.6186 1.65536 -3.38987e-18)
(15.6494 1.66987 5.83799e-18)
(15.6884 1.69151 1.61189e-19)
(15.7367 1.72315 -1.18674e-19)
(15.7954 1.76868 -3.48106e-18)
(15.8648 1.83255 9.97953e-20)
(15.944 1.91987 -2.43635e-18)
(16.0304 2.03529 -1.7599e-18)
(16.1191 2.18204 0)
(16.2042 2.36063 2.1173e-18)
(16.2793 2.56814 -3.06427e-18)
(16.339 2.79786 -2.24585e-19)
(16.3798 3.04069 9.15412e-19)
(16.4011 3.28531 -7.8871e-21)
(16.4039 3.52266 8.75569e-19)
(16.393 3.74038 0)
(16.3697 3.94107 2.89411e-19)
(16.3439 4.09788 0)
(15.5443 1.62625 -5.51864e-18)
(15.5483 1.6295 -2.77054e-18)
(15.5615 1.63218 1.19951e-19)
(15.5765 1.63646 -4.62267e-18)
(15.5956 1.64241 2.09626e-18)
(15.6204 1.6512 -9.85943e-20)
(15.6521 1.66433 -2.98339e-18)
(15.6925 1.68428 4.63183e-20)
(15.7428 1.71389 -1.37812e-19)
(15.8043 1.75702 3.58458e-18)
(15.8776 1.81814 0)
(15.962 1.90246 2.22491e-18)
(16.0551 2.01483 1.73834e-19)
(16.1524 2.15869 -8.53154e-20)
(16.2479 2.33479 -2.19267e-18)
(16.3352 2.54042 2.19676e-20)
(16.4087 2.76898 8.7181e-19)
(16.4646 3.01154 -1.50989e-18)
(16.502 3.2567 0)
(16.5211 3.49569 -6.21812e-19)
(16.5266 3.71547 8.11916e-19)
(16.5183 3.91947 0)
(16.5064 4.07901 -4.40636e-19)
(15.5446 1.62497 1.91058e-18)
(15.5482 1.62845 -1.50506e-20)
(15.562 1.63058 1.21064e-19)
(15.5771 1.63437 2.2308e-18)
(15.5965 1.63954 -4.11382e-18)
(15.6218 1.64731 1.72293e-20)
(15.6544 1.65909 4.34218e-20)
(15.6961 1.67739 2.68166e-18)
(15.7482 1.70496 -6.22008e-20)
(15.8123 1.74565 0)
(15.8892 1.80392 2.9653e-18)
(15.9786 1.88505 6.9628e-20)
(16.0783 1.994 6.83212e-20)
(16.184 2.13446 1.72109e-20)
(16.2899 2.30735 -2.18311e-19)
(16.3897 2.51018 1.70882e-18)
(16.4775 2.73647 -1.00186e-18)
(16.5495 2.9775 -1.57649e-19)
(16.6042 3.2218 -3.21598e-19)
(16.6412 3.46098 8.61794e-19)
(16.6646 3.68132 -5.72544e-19)
(16.6732 3.88723 1.16803e-18)
(16.6767 4.04842 -7.44125e-19)
(15.5448 1.62375 2.00903e-18)
(15.5481 1.62752 2.69534e-18)
(15.5623 1.6291 1.12111e-20)
(15.5775 1.63245 2.37663e-18)
(15.5972 1.63687 4.17429e-18)
(15.623 1.64363 -1.74544e-20)
(15.6563 1.6541 -4.41319e-20)
(15.6992 1.67076 4.5035e-20)
(15.753 1.6963 -2.24757e-18)
(15.8195 1.73452 1.90503e-18)
(15.8997 1.78981 -3.12004e-18)
(15.9939 1.86751 -2.4647e-18)
(16.1 1.97268 2.04723e-18)
(16.2141 2.10918 0)
(16.3306 2.2781 1.25832e-18)
(16.4431 2.47717 0)
(16.5459 2.7 1.33278e-18)
(16.6349 2.9381 8.24995e-19)
(16.7079 3.17994 -1.41687e-20)
(16.7641 3.4176 -9.69775e-19)
(16.8068 3.6367 -1.75229e-20)
(16.8338 3.8427 1.02181e-20)
(16.8543 4.00408 -3.02634e-19)
(15.5449 1.62261 3.98463e-21)
(15.5481 1.62668 2.73654e-20)
(15.5626 1.62774 -1.10977e-20)
(15.5778 1.63068 -2.37785e-18)
(15.5978 1.63437 -2.0823e-18)
(15.624 1.64016 0)
(15.658 1.64934 2.9087e-20)
(15.7019 1.66437 -2.72028e-18)
(15.7572 1.68786 -3.8071e-20)
(15.826 1.72354 -1.90717e-18)
(15.9094 1.77574 1.62776e-18)
(16.0081 1.84976 3.84145e-18)
(16.1205 1.95075 -1.97725e-18)
(16.243 2.08268 1.58508e-18)
(16.3701 2.24683 1.36493e-19)
(16.4957 2.44108 1.77649e-20)
(16.614 2.65911 -7.43023e-20)
(16.7206 2.89271 -2.64046e-19)
(16.813 3.13025 1.78863e-19)
(16.8895 3.36435 -3.06024e-19)
(16.9528 3.58001 -2.31666e-20)
(16.9995 3.78382 2.47869e-19)
(17.0382 3.94353 0)
(15.545 1.62156 -2.11889e-20)
(15.548 1.62594 0)
(15.5628 1.62648 0)
(15.578 1.62904 -2.38337e-18)
(15.5983 1.63203 -2.14888e-18)
(15.6248 1.63686 1.87984e-18)
(15.6593 1.64477 2.26736e-20)
(15.7042 1.65817 -2.49458e-20)
(15.7609 1.6796 2.32054e-18)
(15.8317 1.71268 -3.48406e-20)
(15.9182 1.76162 7.67727e-20)
(16.0214 1.8317 -1.30338e-18)
(16.1399 1.92806 0)
(16.2706 2.05479 -1.68451e-18)
(16.4084 2.21326 -2.67456e-18)
(16.5475 2.40152 -1.11149e-18)
(16.6817 2.6133 -6.90223e-19)
(16.8066 2.84062 0)
(16.9191 3.07174 0)
(17.0166 3.29989 5.43967e-19)
(17.1014 3.50951 3.7527e-19)
(17.1688 3.70835 -7.68441e-19)
(17.2266 3.86407 0)
(15.545 1.6206 -2.18626e-18)
(15.548 1.62528 1.37911e-20)
(15.5629 1.62532 -5.45925e-21)
(15.5782 1.62751 2.36688e-18)
(15.5986 1.62981 4.27752e-18)
(15.6254 1.63371 -3.74289e-18)
(15.6605 1.64035 -2.2932e-20)
(15.7062 1.65213 -2.5294e-20)
(15.7641 1.67146 3.32483e-20)
(15.8369 1.70186 0)
(15.9262 1.74737 -1.61645e-18)
(16.0336 1.8132 1.3609e-18)
(16.1581 1.90446 0)
(16.2971 2.02528 0)
(16.4457 2.1771 1.26845e-18)
(16.5983 2.35809 8.50109e-20)
(16.7488 2.56196 7.84452e-19)
(16.8923 2.78097 6.05354e-19)
(17.0254 3.00324 -8.77605e-19)
(17.1446 3.2227 -3.18058e-19)
(17.2512 3.42329 1.26003e-18)
(17.3395 3.61395 -1.16726e-18)
(17.4166 3.76294 7.6924e-19)
(15.5449 1.61974 1.10948e-18)
(15.5479 1.62468 1.27359e-18)
(15.5631 1.62424 1.28903e-20)
(15.5783 1.62608 -1.70379e-20)
(15.5988 1.62771 -2.15818e-18)
(15.6259 1.63069 1.9023e-18)
(15.6614 1.63607 -1.51052e-20)
(15.7078 1.64621 -5.7145e-21)
(15.7669 1.66341 3.36527e-20)
(15.8415 1.69102 1.80057e-20)
(15.9335 1.73293 -2.35926e-20)
(16.0449 1.79418 -1.36191e-18)
(16.1753 1.87981 1.17554e-18)
(16.3224 1.99396 -5.21341e-20)
(16.4818 2.13805 0)
(16.6481 2.31032 -1.14074e-19)
(16.8149 2.50445 9.8685e-20)
(16.9773 2.7129 -6.09554e-19)
(17.1309 2.92361 1.1107e-18)
(17.2716 3.13132 6.55152e-19)
(17.3999 3.31954 -4.43433e-19)
(17.5087 3.49845 -6.59344e-19)
(17.6046 3.63765 8.50866e-19)
(15.5448 1.61896 5.91063e-23)
(15.5479 1.62414 -1.28527e-18)
(15.5631 1.62323 0)
(15.5783 1.62474 0)
(15.599 1.62571 0)
(15.6262 1.62778 0)
(15.6621 1.63191 1.52464e-20)
(15.7092 1.64039 -7.14216e-21)
(15.7693 1.6554 -1.69976e-20)
(15.8455 1.68013 1.82377e-20)
(15.94 1.71823 -2.39029e-20)
(16.0553 1.77456 0)
(16.1913 1.854 -2.29391e-18)
(16.3464 1.96062 6.542e-20)
(16.5165 2.0958 -1.3674e-19)
(16.6963 2.25779 1.27728e-18)
(16.8794 2.44015 -1.02786e-19)
(17.0603 2.63556 1.76183e-19)
(17.2341 2.83178 -2.06947e-19)
(17.3956 3.02444 3.56028e-19)
(17.5444 3.19681 -5.06287e-19)
(17.6724 3.36028 0)
(17.7858 3.48647 4.91622e-19)
(15.5447 1.61827 -2.23073e-18)
(15.5478 1.62364 -6.29502e-19)
(15.5631 1.6223 -9.25053e-21)
(15.5783 1.62348 1.21874e-18)
(15.599 1.6238 1.09359e-18)
(15.6264 1.62497 8.92292e-21)
(15.6625 1.62783 -1.68931e-18)
(15.7102 1.63465 1.44914e-18)
(15.7712 1.64742 1.19456e-18)
(15.8489 1.66915 0)
(15.9457 1.70322 3.07966e-20)
(16.0646 1.75424 -1.46552e-18)
(16.206 1.82689 1.19961e-18)
(16.3689 1.92508 9.04283e-19)
(16.5494 2.05005 7.67677e-19)
(16.7424 2.20006 0)
(16.9414 2.36845 0)
(17.1402 2.54818 -6.98402e-19)
(17.3331 2.72684 -7.66078e-19)
(17.5138 2.90112 3.80883e-19)
(17.6812 3.05424 2.75461e-19)
(17.8261 3.19874 3.79708e-19)
(17.9546 3.3088 -5.33136e-19)
(15.5446 1.61765 1.12154e-18)
(15.5478 1.62319 6.31705e-19)
(15.5631 1.62142 -6.5541e-21)
(15.5783 1.62228 1.14285e-20)
(15.599 1.62195 -1.09292e-18)
(15.6264 1.62223 -9.60453e-19)
(15.6628 1.62382 8.21162e-19)
(15.711 1.62894 -1.43474e-18)
(15.7728 1.63941 -1.18852e-18)
(15.8517 1.65802 -2.90287e-20)
(15.9507 1.68783 0)
(16.0729 1.73315 1.42496e-18)
(16.2194 1.79834 1.19245e-18)
(16.3897 1.88712 -9.5946e-19)
(16.5802 2.00052 -6.59928e-19)
(16.7859 2.13672 -3.10981e-19)
(16.9999 2.28887 -2.57973e-19)
(17.2154 2.45024 1.42665e-18)
(17.4256 2.60833 0)
(17.6232 2.76109 0)
(17.8065 2.89184 3.01407e-19)
(17.9651 3.01439 -7.68269e-19)
(18.1054 3.10566 -5.64797e-19)
(15.5445 1.61711 -1.10438e-18)
(15.5477 1.62278 0)
(15.563 1.62061 0)
(15.5781 1.62116 -2.44225e-18)
(15.5988 1.6202 1.0888e-18)
(15.6263 1.61959 9.82017e-19)
(15.6628 1.6199 -3.82088e-21)
(15.7114 1.62328 7.11239e-19)
(15.7739 1.63137 2.84254e-20)
(15.854 1.64673 -1.04459e-18)
(15.9548 1.67204 3.1355e-20)
(16.0802 1.71125 -4.10588e-20)
(16.2314 1.76833 -1.19235e-18)
(16.4086 1.8467 9.90895e-19)
(16.6085 1.94711 7.44936e-19)
(16.826 2.06763 -6.48417e-19)
(17.0537 2.20125 5.93122e-19)
(17.284 2.34162 -7.27861e-19)
(17.5091 2.47633 0)
(17.7205 2.60489 0)
(17.9159 2.71117 -2.80124e-19)
(18.0843 2.80976 2.01458e-19)
(18.2326 2.88088 -5.63796e-19)
(15.5443 1.61659 1.16858e-20)
(15.5478 1.62236 -6.46193e-19)
(15.563 1.61975 0)
(15.578 1.61998 6.10642e-19)
(15.5988 1.61837 -2.19815e-18)
(15.6263 1.61686 9.0239e-21)
(15.663 1.61592 -1.52648e-20)
(15.7118 1.61758 -7.36336e-19)
(15.7747 1.62328 1.73583e-20)
(15.8557 1.63526 1.04708e-18)
(15.9582 1.65579 -2.4598e-20)
(16.0862 1.6884 -7.03383e-19)
(16.2417 1.73661 -7.79311e-20)
(16.4251 1.80346 -9.33852e-19)
(16.6335 1.88938 -8.57749e-19)
(16.8616 1.99237 6.24679e-20)
(17.1013 2.10527 0)
(17.3441 2.22241 -1.02079e-19)
(17.5811 2.33169 1.32258e-19)
(17.8026 2.43413 0)
(18.0059 2.51472 2.88181e-19)
(18.1798 2.58814 -1.96721e-19)
(18.332 2.63832 0)
(15.5441 1.61634 1.09808e-18)
(15.5476 1.6222 6.46406e-19)
(15.5628 1.61943 0)
(15.5778 1.61945 6.11185e-19)
(15.5984 1.61748 2.20838e-18)
(15.6258 1.61527 9.80201e-19)
(15.6626 1.61321 1.70212e-18)
(15.7117 1.61329 0)
(15.7752 1.61684 1.23218e-18)
(15.8571 1.62583 -1.03745e-18)
(15.9609 1.64206 8.69448e-19)
(16.0912 1.66846 7.36611e-19)
(16.2502 1.7079 -1.09742e-20)
(16.4389 1.7628 1.43417e-20)
(16.6545 1.83305 -8.19763e-19)
(16.8916 1.91646 6.41659e-19)
(17.1413 2.0058 0)
(17.394 2.09621 3.80032e-19)
(17.6394 2.17643 0)
(17.8673 2.24914 0)
(18.0741 2.30148 -2.81451e-19)
(18.2493 2.34776 -6.0301e-19)
(18.4013 2.37597 5.22002e-19)
(15.5441 1.61607 0)
(15.5477 1.62206 -2.79913e-23)
(15.5628 1.61914 8.84985e-23)
(15.5778 1.61902 -6.13298e-19)
(15.5983 1.61677 -5.50413e-19)
(15.6258 1.61408 -9.79461e-19)
(15.6625 1.61125 -8.52361e-19)
(15.7118 1.61017 -8.30152e-22)
(15.7755 1.61197 -6.14284e-19)
(15.8579 1.61834 -3.48222e-22)
(15.9625 1.63058 2.08214e-21)
(16.0945 1.65096 0)
(16.2563 1.68158 1.10192e-20)
(16.4494 1.72413 -1.43918e-20)
(16.6709 1.77783 1.19956e-18)
(16.9152 1.84024 3.74987e-20)
(17.1724 1.90426 0)
(17.4316 1.96599 1.05655e-19)
(17.6816 2.01562 -1.32238e-19)
(17.9113 2.05749 0)
(18.1171 2.08147 0)
(18.2894 2.1012 3.88185e-19)
(18.4376 2.10828 -2.70083e-19)
(15.5441 1.61579 1.09376e-18)
(15.5477 1.62192 6.629e-19)
(15.5628 1.61883 0)
(15.5778 1.61858 6.13569e-19)
(15.5983 1.61604 -5.55412e-19)
(15.6258 1.61288 -9.8885e-19)
(15.6626 1.60929 8.59929e-19)
(15.712 1.60705 -7.34333e-19)
(15.776 1.60711 -6.17112e-19)
(15.8588 1.61084 1.55776e-18)
(15.9643 1.61901 -8.71843e-19)
(16.0977 1.63325 -7.36122e-19)
(16.2619 1.65484 -6.19916e-19)
(16.4584 1.6847 0)
(16.6844 1.7214 -4.10559e-19)
(16.9335 1.76237 6.54444e-19)
(17.195 1.80088 3.44744e-20)
(17.4568 1.83426 -4.2301e-19)
(17.7066 1.85454 0)
(17.9334 1.8676 0)
(18.1338 1.86607 0)
(18.2997 1.86257 -5.80013e-19)
(18.4414 1.85143 5.1768e-19)
(15.544 1.61551 -1.09452e-18)
(15.5477 1.62178 3.32507e-21)
(15.5628 1.61852 0)
(15.5778 1.61814 -6.17171e-19)
(15.5983 1.61531 -6.05155e-23)
(15.6257 1.61168 1.48599e-18)
(15.6626 1.60732 -1.72369e-18)
(15.7122 1.60394 2.20867e-18)
(15.7764 1.60225 -7.02985e-22)
(15.8597 1.60332 -5.18146e-19)
(15.9659 1.6074 -4.40069e-19)
(16.1005 1.6154 7.37914e-19)
(16.2664 1.62779 6.12604e-19)
(16.4654 1.64469 -5.09737e-19)
(16.6942 1.66412 7.26657e-21)
(16.9459 1.68348 -6.61946e-19)
(17.2086 1.69673 0)
(17.4692 1.70264 0)
(17.7151 1.69536 2.74663e-19)
(17.9354 1.68215 0)
(18.1273 1.65812 0)
(18.2845 1.63479 9.27922e-20)
(18.418 1.6083 2.48659e-19)
(15.5439 1.61524 0)
(15.5478 1.62164 -6.67027e-19)
(15.5628 1.61822 1.76333e-23)
(15.5778 1.61771 -1.6064e-21)
(15.5982 1.61459 -4.1163e-23)
(15.6257 1.61049 -9.95168e-19)
(15.6626 1.60538 8.63699e-19)
(15.7122 1.60084 -1.47423e-18)
(15.7767 1.5974 -6.20987e-19)
(15.8603 1.5958 0)
(15.9671 1.59574 4.37855e-19)
(16.1024 1.59743 1.48836e-21)
(16.2695 1.6005 2.97141e-22)
(16.4698 1.60429 5.07233e-19)
(16.6999 1.60633 0)
(16.9519 1.60419 3.30965e-19)
(17.213 1.59279 -7.29802e-21)
(17.4693 1.57254 0)
(17.7082 1.53984 -2.74049e-19)
(17.9193 1.50311 0)
(18.1006 1.45962 0)
(18.2477 1.41967 0)
(18.3721 1.38047 -3.42981e-21)
(15.5438 1.61499 0)
(15.5478 1.6215 3.34943e-19)
(15.5628 1.61793 -3.25101e-24)
(15.5777 1.61729 6.19401e-19)
(15.5982 1.61388 5.64884e-19)
(15.6256 1.60931 9.98537e-19)
(15.6625 1.60345 0)
(15.7122 1.59776 -7.39189e-19)
(15.7768 1.59257 1.24217e-18)
(15.8607 1.58828 -1.62778e-23)
(15.9677 1.58405 4.38402e-19)
(16.1035 1.57939 -3.68569e-19)
(16.2711 1.57307 0)
(16.4717 1.5637 0)
(16.7014 1.54842 4.10119e-19)
(16.9516 1.52514 -3.24858e-19)
(17.2085 1.49001 0)
(17.4578 1.44522 -3.65147e-19)
(17.6871 1.38944 -2.67177e-19)
(17.887 1.33199 0)
(18.0564 1.27189 4.23843e-21)
(18.1928 1.21821 2.66316e-22)
(18.3075 1.16863 -1.28626e-19)
(15.5438 1.61475 3.99515e-24)
(15.5478 1.62137 -6.70113e-19)
(15.5628 1.61764 -9.29996e-24)
(15.5777 1.61687 0)
(15.5981 1.61318 1.68871e-21)
(15.6255 1.60816 -1.00125e-18)
(15.6624 1.60154 -1.90635e-22)
(15.7122 1.5947 7.39123e-19)
(15.7768 1.58775 -6.20966e-19)
(15.8608 1.58078 5.20449e-19)
(15.9679 1.57237 -5.34352e-22)
(16.1038 1.56133 7.36662e-19)
(16.2712 1.5456 -6.15431e-19)
(16.4711 1.52312 1.80072e-21)
(16.6989 1.49075 -8.20197e-19)
(16.9451 1.44692 3.29209e-19)
(17.1955 1.38925 -1.54561e-20)
(17.4354 1.32176 3.77374e-19)
(17.6532 1.24531 2.65293e-19)
(17.8405 1.16985 0)
(17.9972 1.09577 1.25515e-19)
(18.1226 1.03089 0)
(18.2276 0.972857 -5.44245e-20)
(15.5437 1.61452 0)
(15.5478 1.62124 3.35161e-19)
(15.5627 1.61737 3.64161e-19)
(15.5777 1.61647 3.44531e-23)
(15.598 1.6125 -1.13557e-18)
(15.6253 1.60702 5.01444e-19)
(15.6623 1.59965 0)
(15.712 1.59166 0)
(15.7767 1.58296 -3.51568e-22)
(15.8607 1.5733 -5.1997e-19)
(15.9678 1.56072 -8.04791e-22)
(16.1033 1.54331 -3.67454e-19)
(16.2698 1.51822 6.12657e-19)
(16.468 1.48276 0)
(16.6924 1.43368 4.0666e-19)
(16.9328 1.37012 -3.18959e-19)
(17.1745 1.29128 2.22046e-19)
(17.4032 1.20307 2.10536e-20)
(17.6079 1.10833 0)
(17.7817 1.01743 0)
(17.9253 0.931707 -6.22709e-20)
(18.0398 0.857778 -1.63768e-19)
(18.1352 0.792901 1.13598e-19)
(15.5436 1.6143 0)
(15.5479 1.62112 -1.41093e-23)
(15.5627 1.6171 -3.6432e-19)
(15.5776 1.61607 3.13967e-19)
(15.5979 1.61183 5.68618e-19)
(15.6252 1.6059 1.09735e-22)
(15.6621 1.59779 4.3611e-19)
(15.7118 1.58865 3.70218e-19)
(15.7765 1.5782 -6.20687e-19)
(15.8604 1.56586 0)
(15.9672 1.54911 -1.09153e-21)
(16.102 1.52536 -3.64804e-19)
(16.2671 1.49101 0)
(16.4624 1.44283 -8.83461e-21)
(16.682 1.37757 4.08477e-19)
(16.9148 1.29524 0)
(17.1461 1.19678 -3.73629e-20)
(17.3619 1.08987 -4.85989e-21)
(17.5525 0.979164 3.03552e-19)
(17.7123 0.875146 0)
(17.8428 0.779838 0)
(17.9466 0.698664 8.22143e-20)
(18.0326 0.628278 -2.69166e-19)
(15.5435 1.6141 -7.99087e-24)
(15.5479 1.62099 1.05468e-23)
(15.5627 1.61684 0)
(15.5776 1.61568 3.15976e-19)
(15.5978 1.61118 -2.90361e-22)
(15.625 1.6048 2.19913e-22)
(15.6619 1.59595 -4.35969e-19)
(15.7116 1.58567 -3.70614e-19)
(15.7762 1.57347 6.20746e-19)
(15.8599 1.55845 -5.16851e-19)
(15.9661 1.53757 -4.36983e-19)
(16.0999 1.50755 3.68019e-19)
(16.2629 1.46409 2.96126e-19)
(16.4544 1.40352 2.36468e-19)
(16.6677 1.32275 -3.99422e-19)
(16.8914 1.22278 1.77644e-20)
(17.1107 1.10633 -2.64139e-19)
(17.3124 0.982741 -1.25476e-19)
(17.4883 0.858239 -1.27008e-19)
(17.6337 0.743212 8.65608e-20)
(17.7514 0.640093 -1.11904e-19)
(17.8448 0.553183 0)
(17.9218 0.478385 1.02199e-19)
(15.5434 1.6139 0)
(15.5479 1.62087 3.33895e-19)
(15.5626 1.61658 3.66639e-19)
(15.5775 1.61531 -3.14377e-19)
(15.5977 1.61054 2.86391e-19)
(15.6248 1.60372 0)
(15.6616 1.59413 4.97855e-22)
(15.7113 1.58271 -6.54722e-22)
(15.7758 1.56878 3.09901e-19)
(15.8591 1.5511 7.76461e-19)
(15.9647 1.52612 -4.30356e-19)
(16.097 1.48992 -2.56301e-21)
(16.2573 1.43756 -2.98139e-21)
(16.444 1.36502 -2.45195e-19)
(16.6499 1.26952 0)
(16.863 1.15315 2.94638e-19)
(17.069 1.0204 -2.2e-19)
(17.2557 0.88213 1.65963e-19)
(17.4163 0.745845 5.52374e-20)
(17.5475 0.621671 4.84064e-21)
(17.6526 0.512261 -1.0725e-19)
(17.7361 0.420861 7.16245e-20)
(17.8044 0.342543 1.00111e-19)
(15.5434 1.61372 2.73659e-19)
(15.5479 1.62076 -3.09468e-22)
(15.5626 1.61633 -3.66815e-19)
(15.5775 1.61494 -3.15775e-19)
(15.5976 1.60991 -5.73343e-19)
(15.6247 1.60265 -5.0544e-19)
(15.6613 1.59234 -4.98033e-22)
(15.7109 1.57979 6.54912e-22)
(15.7752 1.56412 -3.09921e-19)
(15.8581 1.54381 -2.58438e-19)
(15.9628 1.51478 8.6261e-19)
(16.0933 1.47252 -3.57655e-19)
(16.2503 1.41152 -2.9745e-19)
(16.4314 1.32751 2.37639e-19)
(16.6286 1.21817 -1.30721e-20)
(16.8299 1.08673 -2.58359e-19)
(17.0215 0.939401 2.23787e-19)
(17.1926 0.78837 -2.32312e-19)
(17.3377 0.642148 -6.00487e-20)
(17.4547 0.510464 0)
(17.5477 0.396051 1.06806e-19)
(17.6216 0.301172 -1.41926e-19)
(17.6816 0.22005 1.90107e-19)
(15.5433 1.61355 -2.73743e-19)
(15.5479 1.62064 -5.00663e-19)
(15.5626 1.61609 -3.68555e-19)
(15.5774 1.61457 3.17111e-19)
(15.5974 1.6093 2.86903e-19)
(15.6244 1.6016 5.0549e-19)
(15.661 1.59056 4.38192e-19)
(15.7104 1.57689 0)
(15.7745 1.55951 3.09387e-19)
(15.8569 1.53659 -2.57093e-19)
(15.9606 1.50358 -4.30312e-19)
(16.0889 1.4554 3.57683e-19)
(16.2419 1.38606 0)
(16.4166 1.29118 -2.21263e-19)
(16.6041 1.16896 1.61106e-19)
(16.7925 1.02384 -1.38721e-19)
(16.969 0.863666 5.55187e-20)
(17.1239 0.701702 8.19748e-20)
(17.2533 0.547224 -2.12946e-19)
(17.3564 0.409457 1.42489e-19)
(17.4377 0.291128 0)
(17.5024 0.193593 -2.73205e-19)
(17.5545 0.110237 3.90785e-19)
(15.5432 1.61339 0)
(15.5479 1.62053 1.66864e-19)
(15.5625 1.61586 3.68592e-19)
(15.5773 1.61422 -3.17244e-19)
(15.5973 1.6087 -4.35136e-23)
(15.6242 1.60057 2.21094e-22)
(15.6607 1.58882 -2.18704e-19)
(15.7099 1.57402 0)
(15.7737 1.55494 -3.09401e-19)
(15.8555 1.52945 7.73823e-22)
(15.9579 1.49253 0)
(16.0837 1.43861 -1.75524e-19)
(16.2323 1.36128 0)
(16.3997 1.25616 1.6057e-20)
(16.5767 1.12213 -3.56533e-19)
(16.7513 0.964779 1.0693e-19)
(16.9118 0.793457 5.31338e-20)
(17.0503 0.622298 -2.09202e-19)
(17.1642 0.461092 1.03628e-19)
(17.2535 0.318484 1.41892e-19)
(17.3236 0.197159 -2.29135e-19)
(17.3795 0.0976385 1.88464e-19)
(17.4238 0.0125015 -6.96923e-19)
(15.5431 1.61324 -2.70923e-19)
(15.5479 1.62042 1.66978e-19)
(15.5625 1.61563 -1.85011e-19)
(15.5773 1.61388 -1.6451e-22)
(15.5971 1.60811 2.92573e-22)
(15.624 1.59956 -5.14114e-22)
(15.6603 1.58709 -2.19317e-19)
(15.7094 1.57119 1.49249e-21)
(15.7729 1.55042 -1.09832e-21)
(15.8539 1.52239 8.5862e-22)
(15.9548 1.48166 -2.11382e-19)
(16.0778 1.42218 1.69346e-19)
(16.2214 1.33726 8.11644e-21)
(16.3809 1.22262 -1.56266e-20)
(16.5465 1.07786 1.98111e-19)
(16.7067 0.909763 0)
(16.8508 0.728978 9.37129e-20)
(16.9726 0.55027 1.40675e-19)
(17.071 0.383731 -9.82075e-20)
(17.1468 0.237377 2.61009e-19)
(17.206 0.113834 -1.27419e-19)
(17.2534 0.0128795 2.8132e-20)
(17.2903 -0.0736643 3.49991e-19)
(15.5431 1.6131 5.4068e-19)
(15.5479 1.62032 -1.67047e-19)
(15.5624 1.61541 -3.42478e-22)
(15.5772 1.61354 0)
(15.597 1.60754 0)
(15.6237 1.59857 -2.54495e-19)
(15.6599 1.5854 -2.19899e-19)
(15.7088 1.56838 0)
(15.7719 1.54595 -1.38611e-21)
(15.8521 1.51542 2.57314e-19)
(15.9513 1.47098 2.15187e-19)
(16.0712 1.40617 -4.92768e-21)
(16.2094 1.31408 -9.76325e-21)
(16.3603 1.19067 2.79042e-20)
(16.5139 1.03634 -1.98031e-20)
(16.659 0.858984 0)
(16.7864 0.670388 -1.35106e-19)
(16.8914 0.485693 4.55429e-21)
(16.9744 0.315104 -2.66195e-19)
(17.0371 0.165986 1.19826e-19)
(17.0857 0.0408978 1.66581e-19)
(17.1248 -0.0610324 -2.69652e-19)
(17.1545 -0.148657 0)
(15.543 1.61296 -5.38245e-19)
(15.548 1.62022 2.09538e-23)
(15.5624 1.6152 1.85529e-19)
(15.5771 1.61321 0)
(15.5968 1.60697 0)
(15.6234 1.5976 -2.80048e-22)
(15.6595 1.58372 4.39861e-19)
(15.7081 1.56562 0)
(15.7708 1.54154 1.54105e-19)
(15.8501 1.50856 0)
(15.9475 1.46051 0)
(16.064 1.3906 -6.02606e-21)
(16.1963 1.29181 7.86481e-21)
(16.3381 1.16042 9.09461e-20)
(16.4791 0.997713 1.91871e-20)
(16.6087 0.812593 -3.20019e-20)
(16.7191 0.617799 1.31163e-19)
(16.8074 0.428609 0)
(16.8751 0.255167 8.70746e-20)
(16.9249 0.104192 0)
(16.9632 -0.0218434 3.64223e-20)
(16.9941 -0.12437 5.02847e-20)
(17.0167 -0.2128 0)
(15.5429 1.61284 4.02222e-19)
(15.548 1.62012 -8.40456e-20)
(15.5623 1.61499 0)
(15.577 1.61289 1.59872e-19)
(15.5967 1.60642 -1.44841e-19)
(15.6231 1.59664 2.55126e-19)
(15.659 1.58207 -2.20348e-19)
(15.7074 1.56289 -1.86703e-19)
(15.7696 1.53718 -1.53024e-19)
(15.8479 1.50181 -2.26088e-21)
(15.9433 1.45027 2.96056e-21)
(16.0561 1.37552 1.66807e-19)
(16.1822 1.2705 9.28932e-21)
(16.3145 1.13196 -1.32013e-19)
(16.4425 0.962083 1.85418e-20)
(16.5562 0.770698 0)
(16.6496 0.571288 0)
(16.7212 0.379041 0)
(16.7738 0.203881 0)
(16.8109 0.0519002 -2.51398e-20)
(16.8391 -0.0745174 -1.61464e-19)
(16.8618 -0.177301 1.58734e-19)
(16.8774 -0.266288 0)
(15.5428 1.61272 -1.33712e-19)
(15.548 1.62002 1.68367e-19)
(15.5623 1.61478 0)
(15.577 1.61257 -1.59988e-19)
(15.5965 1.60589 2.90344e-19)
(15.6228 1.5957 0)
(15.6585 1.58045 0)
(15.7066 1.56019 1.8589e-19)
(15.7683 1.53289 0)
(15.8455 1.49518 -1.23186e-19)
(15.9388 1.44028 -1.05058e-19)
(16.0477 1.36095 -8.47875e-20)
(16.1672 1.25022 1.29436e-19)
(16.2896 1.10538 0)
(16.4042 0.929539 0)
(16.5021 0.733371 2.86207e-20)
(16.5784 0.530893 -3.73925e-20)
(16.6334 0.336994 0)
(16.6711 0.161219 -3.4472e-20)
(16.6956 0.0090576 2.52753e-20)
(16.7137 -0.117169 1.27067e-19)
(16.7283 -0.21986 -1.66338e-19)
(16.7369 -0.30916 0)
(15.5428 1.61262 1.58783e-23)
(15.548 1.61993 -1.68925e-19)
(15.5622 1.61459 -5.36524e-23)
(15.5769 1.61227 -8.01957e-20)
(15.5963 1.60536 -1.45501e-19)
(15.6225 1.59478 1.28224e-19)
(15.658 1.57885 3.89053e-22)
(15.7058 1.55754 -9.37905e-20)
(15.7669 1.52865 1.55599e-19)
(15.843 1.48867 1.23664e-19)
(15.934 1.43055 1.02153e-19)
(16.0387 1.34693 -8.21413e-20)
(16.1514 1.231 -1.29545e-19)
(16.2635 1.08073 -1.31183e-20)
(16.3647 0.900135 1.71802e-20)
(16.4466 0.700648 2.68869e-20)
(16.506 0.496617 -3.51571e-20)
(16.5447 0.302453 0)
(16.5675 0.12717 3.4639e-20)
(16.5795 -0.0243325 0)
(16.5877 -0.149756 -1.52219e-20)
(16.5939 -0.25197 0)
(16.5954 -0.341299 -5.67481e-21)
(15.5427 1.61252 6.62574e-20)
(15.548 1.61983 8.45665e-20)
(15.5622 1.6144 9.36891e-20)
(15.5768 1.61197 3.56037e-24)
(15.5961 1.60485 -2.52295e-22)
(15.6222 1.59388 5.74725e-22)
(15.6575 1.57728 -1.10783e-19)
(15.7049 1.55492 -6.00045e-22)
(15.7654 1.52449 -1.53163e-19)
(15.8403 1.48228 -2.20224e-21)
(15.9289 1.42108 1.02726e-19)
(16.0292 1.33347 0)
(16.1348 1.21288 -8.49407e-21)
(16.2366 1.05804 1.10948e-20)
(16.3241 0.873895 3.36361e-20)
(16.3902 0.672528 0)
(16.4329 0.468433 0)
(16.4555 0.275384 -2.15903e-20)
(16.4637 0.101735 0)
(16.4634 -0.04821 7.89485e-20)
(16.4614 -0.172155 -9.0469e-20)
(16.4591 -0.273446 7.74019e-21)
(16.4534 -0.362417 1.76191e-19)
(15.5426 1.61243 -1.32414e-19)
(15.548 1.61975 -4.25409e-20)
(15.5621 1.61421 -1.4056e-19)
(15.5767 1.61167 8.07527e-20)
(15.5959 1.60434 7.30003e-20)
(15.6219 1.59299 -1.93346e-19)
(15.6569 1.57574 1.10906e-19)
(15.704 1.55234 9.20914e-20)
(15.7638 1.52039 2.44011e-21)
(15.8374 1.47603 -1.77155e-21)
(15.9235 1.4119 -9.98755e-20)
(16.0193 1.32058 -3.88817e-20)
(16.1176 1.19588 5.15974e-20)
(16.2089 1.03734 5.5219e-20)
(16.2829 0.850816 -3.3698e-20)
(16.3333 0.648975 0)