/*--------------------------------*- C++ -*----------------------------------*\
  =========                 |
  \\      /  F ield         | OpenFOAM: The Open Source CFD Toolbox
   \\    /   O peration     | Website:  https://openfoam.org
    \\  /    A nd           | Version:  7
     \\/     M anipulation  |
\*---------------------------------------------------------------------------*/
FoamFile
{
    version     2.0;
    format      ascii;
    class       volScalarField;
    location    "72";
    object      yPlus;
}
// * * * * * * * * * * * * * * * * * * * * * * * * * * * * * * * * * * * * * //

dimensions      [0 0 0 0 0 0 0];

internalField   uniform 0;

boundaryField
{
    inlet
    {
        type            calculated;
        value           uniform 0;
    }
    outlet
    {
        type            calculated;
        value           uniform 0;
    }
    suction_side
    {
        type            calculated;
        value           nonuniform List<scalar> 
56
(
6.85293
7.14621
7.16919
7.60368
7.64874
8.36076
8.44354
9.63889
9.69214
11.6667
12.3024
15.5983
20.9283
33.2363
42.495
45.7083
43.3291
38.079
29.4526
24.6001
32.7068
37.971
40.9606
42.6202
43.6035
43.7942
43.5117
42.9677
42.2547
41.3946
40.4874
39.6029
38.7582
37.9539
37.1787
36.4305
35.7048
35.0034
34.3195
33.6503
32.9808
32.3117
31.6288
30.9307
30.2019
29.4431
28.5965
27.6796
26.5795
25.4767
24.3868
23.3481
22.4535
21.4727
20.9859
19.8695
)
;
    }
    pressure_side
    {
        type            calculated;
        value           nonuniform List<scalar> 
56
(
29.5668
30.182
30.4181
31.0874
31.5419
32.1544
32.7496
33.3382
33.8695
34.3278
34.7272
35.0848
35.4046
35.6933
35.9568
36.1959
36.4125
36.6156
36.8098
36.9981
37.1808
37.35
37.4846
37.5516
37.5366
37.4205
37.2773
37.2514
37.4331
37.9552
38.8596
40.0555
41.3631
42.3255
42.6804
42.4546
41.0655
39.0442
35.9634
31.9017
26.8875
21.1551
14.6472
8.92352
7.27689
5.42343
4.85043
4.56395
4.7133
4.92629
5.27523
5.55568
6.06559
6.37056
6.51166
6.81229
)
;
    }
    trailing_edge
    {
        type            calculated;
        value           nonuniform List<scalar> 2(105.058 90.1035);
    }
    defaultFaces
    {
        type            empty;
    }
}


// ************************************************************************* //
