/*--------------------------------*- C++ -*----------------------------------*\
  =========                 |
  \\      /  F ield         | OpenFOAM: The Open Source CFD Toolbox
   \\    /   O peration     | Website:  https://openfoam.org
    \\  /    A nd           | Version:  7
     \\/     M anipulation  |
\*---------------------------------------------------------------------------*/
FoamFile
{
    version     2.0;
    format      ascii;
    class       volScalarField;
    location    "50";
    object      k;
}
// * * * * * * * * * * * * * * * * * * * * * * * * * * * * * * * * * * * * * //

dimensions      [0 2 -2 0 0 0 0];

internalField   nonuniform List<scalar> 
12842
(
0.0056777
0.00509055
0.00471666
0.00445968
0.00430424
0.00417583
0.00409541
0.0040319
0.00397202
0.00395036
0.00392914
0.00393249
0.00394996
0.0039999
0.00405604
0.00413301
0.00418344
0.0042666
0.0043296
0.00441165
0.00449766
0.00457193
0.00469003
0.00563632
0.00503378
0.00468165
0.00444294
0.00429364
0.00416822
0.00409246
0.00402697
0.00396483
0.0039472
0.00392144
0.00392307
0.00394577
0.00400843
0.00406463
0.00416876
0.00421538
0.00430697
0.00436241
0.00444255
0.00451826
0.00459862
0.00470535
0.00559709
0.00496842
0.00458457
0.00436753
0.00424456
0.00413649
0.00407416
0.00401034
0.00396373
0.00393799
0.00391228
0.00392926
0.00396471
0.00404356
0.00413946
0.00424876
0.00430799
0.00436641
0.0044554
0.00453805
0.00463001
0.00472001
0.00481599
0.00552514
0.00492327
0.00455105
0.00433267
0.00420581
0.00410919
0.00405629
0.00399559
0.00396509
0.0039278
0.00392087
0.00393345
0.00398304
0.00407404
0.00418472
0.004325
0.00437557
0.0044617
0.00452602
0.00462517
0.00471674
0.00484501
0.00495517
0.00546912
0.00482293
0.00446678
0.00427371
0.00415754
0.00407634
0.00402636
0.00397971
0.00395724
0.00391697
0.00392454
0.00395939
0.00403833
0.00416456
0.00427557
0.00440899
0.00451274
0.00456408
0.00462911
0.00473928
0.0048382
0.00499994
0.00513484
0.00539815
0.0047794
0.00442255
0.00423737
0.00412205
0.00405023
0.00400369
0.00396454
0.00395165
0.00392021
0.00393418
0.00397651
0.00406573
0.00422061
0.00434294
0.00449919
0.00458346
0.0046627
0.00474212
0.0048804
0.00500604
0.00515717
0.00533355
0.00533557
0.00468484
0.00436017
0.00418871
0.00408332
0.00402147
0.00397544
0.00395246
0.00394095
0.00392254
0.00395266
0.00401164
0.00413674
0.00432752
0.00446163
0.00459435
0.0047159
0.00478663
0.00487402
0.00501494
0.00516341
0.00535601
0.0055543
0.00526979
0.00464291
0.00431739
0.00416375
0.00405612
0.00400412
0.00396094
0.00394057
0.00393207
0.00393947
0.00397986
0.00406736
0.00421323
0.0044225
0.00457797
0.00473314
0.00482769
0.00489721
0.0050011
0.00517433
0.00533728
0.0055427
0.00577097
0.00520474
0.00456413
0.00426804
0.00412075
0.00402741
0.00397802
0.00394221
0.00393201
0.0039233
0.00394142
0.00401072
0.00412556
0.00431841
0.00454405
0.00471113
0.00487856
0.00497559
0.00505405
0.00517573
0.0053814
0.00556489
0.00579844
0.00602911
0.00513458
0.00451703
0.00423791
0.00410283
0.00401008
0.00396689
0.00393517
0.00392729
0.003918
0.0039624
0.00406218
0.00421497
0.00444427
0.00466753
0.00485125
0.00505104
0.00512357
0.00520052
0.00535018
0.00558244
0.00577313
0.00601269
0.00625828
0.00506027
0.00445211
0.00419046
0.00406667
0.00398311
0.00394465
0.0039229
0.00392117
0.00391028
0.00397902
0.00410809
0.00429455
0.00457293
0.00480428
0.00498354
0.00519304
0.00527626
0.00537691
0.00553986
0.00578593
0.00599159
0.00624316
0.0064858
0.00498884
0.00440893
0.00416915
0.00404886
0.00397077
0.00393335
0.00391727
0.00391712
0.00391865
0.00401728
0.00417933
0.00441827
0.00472921
0.00496007
0.00515395
0.00538225
0.00547163
0.00557836
0.00576489
0.00600811
0.00622159
0.00646689
0.00670285
0.00491632
0.00435426
0.00413002
0.00401783
0.00394735
0.00391336
0.00390687
0.0039125
0.00392433
0.00404845
0.00424841
0.00453215
0.00487354
0.00512031
0.00531532
0.0055476
0.00564551
0.00578082
0.0059816
0.00622959
0.00643615
0.00667991
0.00691158
0.00484563
0.00431958
0.0041126
0.00400202
0.00393618
0.00390372
0.00390174
0.00390757
0.00395112
0.00410555
0.00434301
0.0046858
0.00504204
0.00529444
0.00550458
0.00574314
0.00587504
0.00602307
0.00622119
0.00645177
0.00665261
0.00689608
0.00711727
0.00478042
0.00427349
0.00408051
0.00397555
0.003915
0.00388641
0.00389259
0.00389974
0.00397049
0.00415882
0.00444532
0.00483514
0.00520099
0.00546954
0.00568843
0.00592529
0.00604332
0.00620297
0.00643295
0.00666947
0.00687388
0.00710118
0.00730866
0.00472307
0.00424123
0.00406648
0.00396262
0.00390528
0.00387824
0.00388732
0.00389817
0.00402147
0.0042383
0.00456625
0.00500628
0.00537641
0.00565617
0.00589005
0.0061286
0.00629075
0.00646653
0.006656
0.00687925
0.00705555
0.00726412
0.0074652
0.00467489
0.00420679
0.00403954
0.00394049
0.00388668
0.00386388
0.00387701
0.00389689
0.00406223
0.00431691
0.0046999
0.00518033
0.00554976
0.00583957
0.0060774
0.00629915
0.00643922
0.00661682
0.00685534
0.00706013
0.00723565
0.007457
0.0076622
0.00462934
0.00417259
0.00402706
0.00392996
0.00387803
0.00385803
0.00387603
0.00392687
0.00414293
0.00442528
0.00485063
0.00536229
0.00572788
0.00603217
0.00628876
0.00652548
0.0066955
0.00686605
0.00705284
0.0072613
0.00744329
0.00764696
0.00784003
0.0045924
0.00414467
0.00400478
0.00391179
0.00386132
0.00384259
0.00387553
0.00395811
0.00420334
0.00452521
0.00500154
0.00554471
0.0059111
0.00621766
0.00647027
0.00666586
0.00683118
0.0070353
0.00725469
0.00746606
0.00760875
0.00779854
0.00800131
0.00455794
0.00411307
0.00398971
0.003903
0.00385441
0.00383926
0.00391203
0.00405087
0.00431374
0.00466238
0.00517811
0.00573848
0.00609447
0.00641724
0.00668569
0.00691156
0.00708472
0.00724253
0.00748011
0.00763141
0.0077709
0.00800854
0.00822538
0.00452708
0.00408694
0.00397531
0.00388599
0.0038369
0.00383525
0.00395229
0.0041141
0.00439254
0.00477326
0.00533019
0.00590518
0.00626702
0.0065881
0.00686434
0.00706023
0.0072554
0.007482
0.0076552
0.00784781
0.00805342
0.00832002
0.00854891
0.00450339
0.00405568
0.00395587
0.00387786
0.00383206
0.00385941
0.00405428
0.00423837
0.0045286
0.00492952
0.0055153
0.00610166
0.00645417
0.00678939
0.00706817
0.00726835
0.00747399
0.00767695
0.00793782
0.00814923
0.00830894
0.00853904
0.00877213
0.00447369
0.0040327
0.00394306
0.00385986
0.00382757
0.00390262
0.004131
0.00432432
0.00462284
0.00504667
0.00566926
0.00626048
0.00661655
0.00695388
0.00727214
0.00751298
0.0077619
0.00797165
0.00828731
0.00840396
0.00850538
0.00881279
0.0091244
0.00446051
0.00400734
0.00393393
0.0038581
0.00384162
0.00399425
0.00426223
0.00446943
0.0047839
0.00521672
0.00585662
0.00644021
0.00678999
0.00713034
0.0074367
0.00766302
0.00795459
0.0083554
0.0085897
0.00867043
0.00907587
0.00964426
0.0103089
0.00443968
0.00398764
0.0039217
0.00386654
0.0038979
0.00409653
0.00436927
0.00459187
0.00490892
0.00535198
0.00601442
0.00659303
0.00693933
0.00729501
0.00767969
0.00794308
0.00838661
0.00877714
0.00899976
0.00937735
0.0100074
0.0107483
0.0115578
0.00442823
0.00397007
0.00391231
0.0039124
0.00399506
0.00419984
0.00447841
0.00471366
0.00503115
0.005482
0.00616337
0.00673774
0.00709206
0.00745541
0.00785934
0.00824899
0.00877103
0.00914149
0.00995462
0.010348
0.0111607
0.0121197
0.0139046
0.0044088
0.00395728
0.0039228
0.00398345
0.00409725
0.00431515
0.0045902
0.00483289
0.00514772
0.00560157
0.00629865
0.00686495
0.0072148
0.00758576
0.00801765
0.00841574
0.00924757
0.0103267
0.0109594
0.011321
0.0127952
0.0153586
0.0191314
0.00439261
0.00394039
0.0039658
0.00406796
0.00420881
0.00442522
0.00469899
0.00494739
0.00525747
0.00571328
0.00642219
0.00697618
0.00734759
0.00776168
0.00833524
0.00894369
0.010169
0.0114175
0.0120279
0.0130101
0.0167506
0.0220471
0.0259891
0.00437837
0.0039369
0.00403545
0.0041637
0.00431557
0.00454388
0.00480688
0.0050552
0.00535904
0.00581283
0.00652877
0.0070774
0.00744785
0.00787278
0.00852976
0.00958239
0.0118032
0.012757
0.0143561
0.0177133
0.0244522
0.0300574
0.0337629
0.00435908
0.00392798
0.00411321
0.00425763
0.00443025
0.00465457
0.00491079
0.00515624
0.00545237
0.00590459
0.00662203
0.00715206
0.00754839
0.00801944
0.00890603
0.0101112
0.012847
0.0158333
0.0190698
0.0244838
0.0322509
0.0370565
0.0400232
0.00434342
0.00395235
0.00420859
0.00436501
0.00453808
0.00476558
0.00500754
0.00524867
0.0055367
0.00598499
0.00670374
0.00724104
0.00766185
0.00822736
0.0096422
0.0124004
0.0165592
0.0209168
0.0250999
0.0308071
0.0380711
0.0415328
0.0440474
0.00433476
0.00399742
0.00430172
0.00446015
0.00464567
0.00487306
0.00510039
0.00533299
0.00561283
0.00605871
0.00677309
0.00729071
0.00772241
0.00834563
0.0101522
0.0148658
0.0222105
0.0265959
0.0301258
0.0353372
0.0417374
0.0444772
0.0469644
0.00431671
0.00407331
0.00440185
0.00456726
0.00475046
0.00496851
0.00518475
0.00540852
0.00568021
0.00612207
0.00683372
0.00737231
0.00786027
0.00877775
0.0125674
0.0189439
0.0282412
0.0314796
0.0333456
0.0380818
0.0435621
0.0456859
0.0471257
0.00430009
0.00414849
0.00449811
0.00466314
0.00484398
0.00506459
0.00526232
0.00547564
0.00574028
0.00618043
0.00688766
0.0074133
0.00795744
0.00924558
0.0149609
0.0260914
0.0347393
0.0341325
0.0348946
0.0393404
0.0433237
0.04501
0.0463743
0.00431226
0.00423572
0.00459119
0.00475962
0.00493669
0.00514465
0.00533395
0.00553499
0.00579265
0.0062301
0.00693408
0.00749055
0.00811076
0.0100168
0.0195544
0.0342484
0.0403773
0.0348172
0.0355763
0.0385525
0.0413742
0.0427619
0.0447278
0.00434341
0.00433884
0.00468054
0.00485319
0.00502198
0.00522353
0.00539751
0.00558681
0.00583895
0.00627525
0.00697626
0.00753788
0.00842716
0.0126216
0.0259872
0.0408821
0.0414657
0.0351317
0.035469
0.0363833
0.038452
0.0402201
0.042434
0.00439555
0.00442302
0.00476435
0.00493891
0.0050931
0.00528732
0.00545486
0.00563231
0.00587885
0.00631507
0.00701723
0.00762172
0.00875847
0.0146313
0.0345452
0.0465524
0.0424416
0.0352803
0.0348307
0.0354744
0.0365155
0.0385339
0.0403735
0.00445365
0.00453575
0.00484269
0.00502095
0.00517117
0.00534956
0.00550742
0.00567205
0.00591439
0.00634958
0.00705383
0.00772215
0.00963506
0.0194746
0.0418973
0.05144
0.0433094
0.0354857
0.0346956
0.0348899
0.0351865
0.0370724
0.0383559
0.00452214
0.00462677
0.0049176
0.00509668
0.00523008
0.00540099
0.00555158
0.00570692
0.00594441
0.00638248
0.00709265
0.00781653
0.0105643
0.0245381
0.0473463
0.0543884
0.0435474
0.0356143
0.034466
0.035027
0.0358406
0.0359582
0.0362611
0.00459361
0.00472388
0.00498556
0.00516548
0.00529145
0.00544565
0.00559271
0.00573804
0.00597202
0.00640985
0.0071364
0.00809034
0.0124115
0.0295022
0.0516445
0.0573691
0.0456919
0.0364006
0.0347465
0.0341621
0.0358715
0.0347598
0.0339642
0.00466826
0.00481312
0.00505229
0.00522873
0.00534514
0.00548591
0.00562802
0.00576531
0.00599469
0.00643739
0.00717839
0.00826489
0.0139825
0.03401
0.0546101
0.0588082
0.0467515
0.0370181
0.0345816
0.0334718
0.0344395
0.0337141
0.0318218
0.00474054
0.0048982
0.00511168
0.00528297
0.00539261
0.00552069
0.00565822
0.00579042
0.00601654
0.00646176
0.00723812
0.00866983
0.0157444
0.0363701
0.0570114
0.0617959
0.0500928
0.0400252
0.0345624
0.0328601
0.0332878
0.0326547
0.0301831
0.00481546
0.00497168
0.00516914
0.00533307
0.00543283
0.00554903
0.00568406
0.00581251
0.0060341
0.00648538
0.0072865
0.00891135
0.0172048
0.0389565
0.0593655
0.0627012
0.0530327
0.042132
0.0345435
0.0318515
0.0319764
0.0309166
0.0287945
0.00487879
0.00503978
0.00522013
0.00537392
0.00547172
0.00557386
0.00570679
0.00583308
0.00605162
0.0065072
0.0073467
0.00941237
0.0188575
0.0411743
0.0620809
0.0657377
0.0550741
0.0429093
0.0348351
0.0306941
0.0303283
0.0291387
0.0274203
0.00494709
0.00509244
0.00526722
0.00540951
0.00549571
0.00559327
0.00572418
0.00585104
0.00606579
0.00652929
0.00741683
0.00974396
0.0203851
0.0426354
0.0648637
0.0673127
0.055088
0.0437909
0.0349226
0.0301958
0.0283615
0.0274106
0.0264358
0.00499862
0.00514554
0.00530939
0.00543683
0.00552268
0.00561393
0.00573889
0.00586776
0.00608002
0.00654989
0.00747373
0.0102479
0.0212146
0.0443934
0.0664897
0.0688007
0.0558868
0.0439803
0.0338762
0.0285553
0.0262818
0.0257519
0.0254388
0.00505633
0.00518745
0.00534419
0.00546012
0.00553216
0.00562666
0.00574932
0.00588216
0.00609169
0.00656919
0.00757677
0.0108272
0.023213
0.0461749
0.0666726
0.0684789
0.0557063
0.0423484
0.0318735
0.0262631
0.0240303
0.0237834
0.0236863
0.00509875
0.00522307
0.00537822
0.00547817
0.00554994
0.00564258
0.00575818
0.00589498
0.00610341
0.00659339
0.00763829
0.0111445
0.0244879
0.0478553
0.0653897
0.066131
0.0528765
0.0378799
0.0280234
0.0233973
0.0215787
0.021475
0.0213839
0.00514765
0.00525774
0.0054043
0.00549618
0.00556031
0.00565238
0.0057669
0.00590673
0.00611322
0.00661045
0.00776618
0.0119379
0.0261067
0.0500145
0.060979
0.0559945
0.0453977
0.0322486
0.0241546
0.0203356
0.0190266
0.0190229
0.0189563
0.00518874
0.00529113
0.00543553
0.00551257
0.00557494
0.00566475
0.00577652
0.00591792
0.00612274
0.00663545
0.00786013
0.012356
0.0278546
0.0508772
0.0581673
0.0441744
0.0364588
0.0264795
0.0206579
0.0176326
0.0166631
0.0165935
0.0164936
0.00523437
0.00531831
0.00546103
0.00553067
0.00559113
0.00567464
0.00578693
0.00592691
0.00613131
0.00665611
0.00797462
0.0128545
0.0277095
0.0489726
0.0525747
0.0339392
0.0279995
0.0213253
0.0176402
0.0153946
0.0146748
0.0147381
0.0146343
0.00527397
0.00534504
0.00548812
0.00554796
0.00561179
0.00568716
0.00579722
0.00593542
0.00613666
0.00668912
0.00808997
0.0128414
0.0250582
0.0415501
0.0406845
0.0252985
0.0210417
0.0171085
0.0151363
0.013556
0.0131928
0.0131248
0.0131493
0.00531397
0.00537074
0.00551426
0.0055665
0.00563191
0.00569889
0.00580669
0.00594147
0.00614527
0.00670803
0.00809941
0.0122017
0.021063
0.0314691
0.0291923
0.0189123
0.0163085
0.0141715
0.0130619
0.012081
0.0118537
0.0119291
0.0119317
0.00535239
0.00540014
0.00553901
0.00558533
0.00565335
0.00571203
0.00581652
0.00594728
0.00615431
0.0067385
0.00804301
0.0112484
0.0174825
0.0231162
0.0208782
0.0145858
0.0129673
0.0118819
0.0116514
0.0109906
0.010839
0.0108932
0.0111022
0.00538926
0.0054317
0.0055641
0.00560473
0.00567438
0.00572504
0.00582561
0.0059525
0.00615861
0.0067602
0.00795651
0.0103281
0.0145635
0.0167604
0.0151906
0.0119654
0.0108078
0.0104729
0.0105464
0.0100705
0.0101428
0.0101982
0.0102638
0.00542664
0.00546508
0.00558902
0.00562495
0.00569551
0.00573929
0.00583472
0.00595802
0.00617487
0.00678055
0.007879
0.00962228
0.0124596
0.0128
0.0120109
0.0104462
0.00970525
0.00946186
0.0097957
0.00953196
0.0095044
0.00963294
0.00980649
0.00545957
0.0054969
0.00561141
0.00564359
0.00571436
0.00575245
0.00584281
0.00596177
0.00617806
0.00675841
0.00781457
0.00911769
0.0110991
0.0107465
0.0102925
0.00960526
0.00915388
0.00899086
0.009406
0.00909332
0.0090799
0.00916693
0.00929838
0.00549118
0.00552783
0.00563372
0.00566237
0.0057329
0.00576659
0.00585076
0.00596485
0.00618349
0.00673261
0.00774819
0.00873817
0.0101134
0.00939334
0.00935245
0.00915693
0.00875053
0.0087552
0.00902426
0.00884833
0.0088476
0.00890589
0.0089765
0.00552143
0.00555775
0.00565539
0.00568183
0.00575042
0.00578069
0.00585897
0.00596766
0.00617623
0.00672837
0.00769027
0.00847073
0.00941338
0.00872942
0.00884985
0.00887532
0.00873247
0.00865373
0.00887078
0.00872741
0.00872071
0.00870225
0.0087626
0.00555041
0.00558793
0.00567722
0.00570132
0.00576901
0.00579637
0.00586804
0.00597079
0.00618677
0.00670905
0.00761881
0.0082545
0.00890597
0.00840991
0.00861878
0.0088569
0.00860502
0.00855883
0.00878245
0.0086715
0.00864103
0.0085847
0.00862694
0.00558015
0.00561821
0.00570041
0.00572281
0.00578612
0.00581161
0.00587725
0.0059742
0.00618055
0.00671494
0.00755502
0.00809187
0.00855002
0.00825922
0.00852993
0.00883071
0.00862693
0.00856581
0.00874069
0.00864732
0.00856995
0.00863449
0.00866113
0.005607
0.00564599
0.00572156
0.00574302
0.00580447
0.00582821
0.00588768
0.00597824
0.00617892
0.00669041
0.00748476
0.00795726
0.0082766
0.00824782
0.00849539
0.00880409
0.00860454
0.00856737
0.0087116
0.00862097
0.00862245
0.00863717
0.00866514
0.005635
0.00567517
0.00574505
0.00576522
0.0058206
0.00584382
0.0058977
0.00598268
0.00617983
0.00669538
0.00739671
0.00782054
0.00809115
0.00823028
0.0084783
0.00878354
0.00856986
0.00854269
0.00868993
0.00859058
0.00863001
0.00864081
0.00866458
0.00565995
0.00570277
0.00576646
0.00578547
0.00583899
0.00585983
0.00590921
0.00598749
0.00618223
0.00669346
0.0073279
0.00772398
0.00792147
0.00821234
0.00847178
0.00874657
0.00857995
0.00854892
0.008679
0.00858983
0.00857626
0.00859367
0.00865189
0.00568796
0.00572695
0.00578883
0.00580811
0.00585353
0.0058761
0.00591874
0.00599269
0.00618471
0.00668762
0.00723082
0.0076015
0.00779511
0.0081819
0.00848964
0.00873226
0.00863169
0.00857225
0.00867041
0.00859815
0.00864006
0.00858014
0.00864349
0.00570815
0.00575412
0.00580844
0.00582612
0.00587094
0.00588986
0.00593168
0.00599794
0.00618773
0.0066889
0.00721241
0.00752425
0.00771511
0.00820771
0.00848052
0.00874531
0.00871268
0.00860488
0.00866593
0.00859353
0.00860437
0.00863505
0.0086721
0.00573724
0.00577603
0.00583046
0.00584749
0.0058841
0.00590523
0.00593945
0.0060034
0.00618994
0.00668872
0.00719071
0.00741759
0.00766097
0.00823887
0.00849938
0.00880454
0.00877613
0.00867161
0.00869857
0.00860534
0.00862249
0.00865135
0.00875393
0.00575416
0.00579645
0.00584558
0.00586571
0.00589822
0.00591908
0.00595229
0.00600877
0.00619303
0.00668375
0.00714495
0.00733617
0.00768402
0.00834742
0.0085587
0.00885635
0.00884104
0.00870185
0.00872973
0.00862426
0.00866323
0.00869233
0.00881724
0.00577745
0.00581567
0.00586673
0.00587988
0.00591299
0.00592927
0.00596039
0.00601424
0.00619497
0.00668412
0.00709987
0.0073243
0.00768717
0.00845154
0.00870119
0.00893463
0.00890247
0.0087695
0.00876277
0.00867094
0.00874634
0.00883345
0.00900276
0.0057964
0.00583561
0.00587576
0.00589823
0.00591878
0.0059428
0.00596938
0.00601929
0.0061984
0.00667123
0.00710874
0.00731266
0.00768118
0.0085528
0.0088119
0.00898874
0.00896243
0.00884047
0.00878365
0.00868598
0.0088001
0.0089187
0.00911582
0.00580842
0.00584067
0.00588054
0.0059093
0.00592068
0.00595121
0.00597723
0.00602469
0.00620013
0.0066717
0.00710992
0.00730321
0.00768871
0.00861919
0.00897298
0.00906721
0.00900645
0.00886972
0.00883587
0.00871906
0.00893528
0.00919159
0.00958143
0.00581827
0.00584407
0.00588608
0.00591633
0.00592235
0.00595553
0.00598443
0.00602937
0.0062034
0.00666166
0.00710105
0.00728595
0.00767839
0.00867081
0.00914707
0.00913168
0.00905717
0.00891253
0.00887833
0.0088073
0.00904529
0.00941501
0.0100206
0.00581628
0.00584824
0.00589074
0.00591486
0.00592788
0.00595761
0.0059896
0.00603396
0.00620514
0.00665463
0.00706896
0.00725112
0.00763133
0.0087584
0.00933401
0.00920661
0.00910885
0.00895918
0.00896784
0.00901395
0.00933388
0.00987163
0.0107026
0.00582108
0.0058498
0.00589035
0.00591524
0.00593085
0.00595638
0.00598876
0.00603856
0.00620798
0.00666573
0.00709237
0.00727735
0.00767043
0.00882056
0.00947668
0.009299
0.00919075
0.00902929
0.00901721
0.00929993
0.0099006
0.0111418
0.0134349
0.00581614
0.00585636
0.0058912
0.00591866
0.00593383
0.00596028
0.00599016
0.00604213
0.00621114
0.00666692
0.00708364
0.00724297
0.00767057
0.00888438
0.00970017
0.00942344
0.00932908
0.00910113
0.00931642
0.00991817
0.0108356
0.0125615
0.0148055
0.00581541
0.00585303
0.00589152
0.00592087
0.00593132
0.0059582
0.0059881
0.00604621
0.00621279
0.00666306
0.0070862
0.00726719
0.00766839
0.00904763
0.00982572
0.00954315
0.00943454
0.00919158
0.00945333
0.0103498
0.0118203
0.0147884
0.0216749
0.00581943
0.00585147
0.00589256
0.00591977
0.00593378
0.00595792
0.00598819
0.00604687
0.00621611
0.00666977
0.00708768
0.00727477
0.00765056
0.00927834
0.0101635
0.00979537
0.00974746
0.00965263
0.0103185
0.012244
0.0153778
0.0216789
0.0287989
0.00581351
0.0058516
0.00589589
0.00591947
0.00593408
0.00595876
0.00598901
0.00604749
0.00621917
0.00668074
0.00706247
0.00727798
0.00764096
0.0094064
0.0105072
0.0100418
0.00999682
0.009824
0.0105103
0.0127468
0.0169115
0.0248567
0.0429278
0.00581252
0.00585364
0.00589132
0.00592093
0.00593517
0.00595847
0.00598977
0.00604807
0.00621912
0.00668816
0.00706482
0.00729507
0.00771702
0.00978444
0.0110767
0.0107267
0.0105609
0.0107717
0.0122624
0.0163713
0.0237281
0.0385012
0.057966
0.00581749
0.00585251
0.00589064
0.00592223
0.0059367
0.0059621
0.00598695
0.0060486
0.00621995
0.00670584
0.00708813
0.0072963
0.00778045
0.0100477
0.0120298
0.0114139
0.0111596
0.0115603
0.0136659
0.0188694
0.0293627
0.0477553
0.076039
0.00581111
0.00585073
0.00589165
0.00591713
0.00593315
0.00595925
0.00598692
0.00604862
0.00621755
0.00671405
0.00709813
0.00731187
0.00793877
0.0105624
0.0125149
0.011945
0.0123402
0.0134359
0.016443
0.0234485
0.0373132
0.0631126
0.0995903
0.00581947
0.00584943
0.00588585
0.00591595
0.00593288
0.0059603
0.0059864
0.00604878
0.00621665
0.00672606
0.00709756
0.00732105
0.00804258
0.0113095
0.0144345
0.01388
0.013874
0.0161677
0.0211881
0.0318648
0.052012
0.0833291
0.119815
0.00581343
0.00584858
0.00588455
0.00591867
0.00593337
0.00595694
0.00598635
0.00604986
0.00621575
0.00673597
0.00714668
0.00731952
0.00833668
0.0116021
0.0157367
0.0154421
0.016976
0.0190877
0.0245623
0.0360381
0.0577526
0.0979357
0.143561
0.0058162
0.00584182
0.00588331
0.00591338
0.00593572
0.00595599
0.00598763
0.00604779
0.00621497
0.00674605
0.00715538
0.00738391
0.0085227
0.013076
0.0184335
0.0181303
0.0196811
0.0253077
0.0348721
0.0533613
0.0814066
0.127001
0.172369
0.00581136
0.00584063
0.00588262
0.00591304
0.00593572
0.0059553
0.00598404
0.00604984
0.00621383
0.00675186
0.00713531
0.00733105
0.00929885
0.0154777
0.0221814
0.0237719
0.0260088
0.0285693
0.0381483
0.0543303
0.0892542
0.146037
0.196548
0.00580924
0.00584224
0.0058831
0.00591359
0.00593415
0.00595043
0.00598352
0.00604769
0.00621401
0.00677889
0.00713419
0.00739714
0.00981989
0.0166863
0.0254589
0.0276439
0.0295134
0.0360121
0.0470864
0.0695301
0.114639
0.161683
0.220898
0.00579842
0.00584309
0.00588463
0.00591438
0.005932
0.00594761
0.00598188
0.0060487
0.00621541
0.00681809
0.00714774
0.00735654
0.0111512
0.0239619
0.0309143
0.0354504
0.0372145
0.0437473
0.0609601
0.0870752
0.124875
0.189713
0.249197
0.00580345
0.005834
0.00587722
0.00591149
0.00592791
0.00594653
0.00598146
0.00604868
0.00621917
0.00684133
0.00716633
0.00739341
0.0146425
0.0297352
0.0410366
0.0414192
0.0430682
0.0507935
0.0718659
0.103919
0.158785
0.219982
0.249184
0.00579372
0.00584157
0.00587663
0.00590887
0.00592534
0.00594433
0.00598243
0.00604728
0.00622092
0.00684863
0.00719891
0.00744185
0.0163452
0.0377889
0.0478256
0.0506329
0.0512904
0.0622385
0.0845013
0.128552
0.183812
0.230055
0.253646
0.00579388
0.00583344
0.00586752
0.00590052
0.0059208
0.00594358
0.00598163
0.00604635
0.00622353
0.00685071
0.00723065
0.00750218
0.0214017
0.0537915
0.05959
0.0566048
0.0581821
0.0729426
0.108902
0.150489
0.199933
0.230815
0.257821
0.0057949
0.00583737
0.00586555
0.00589917
0.00591737
0.00594662
0.00598175
0.00604437
0.00622584
0.00685656
0.00728655
0.00763087
0.0286499
0.0592507
0.0689526
0.06708
0.0701336
0.0854929
0.119874
0.155739
0.197597
0.233981
0.254915
0.00578542
0.00583617
0.00586119
0.00590199
0.00591538
0.00594554
0.00597903
0.0060432
0.00622985
0.00689721
0.00731831
0.00771887
0.0358731
0.0740664
0.0794785
0.073235
0.0795328
0.100129
0.126457
0.156644
0.201957
0.228706
0.247273
0.00577016
0.00583125
0.00586039
0.00590158
0.00590869
0.00594371
0.00597717
0.00604096
0.00623359
0.00692471
0.00741453
0.00785743
0.0500705
0.0834935
0.092718
0.0857677
0.0921881
0.104437
0.131057
0.162687
0.19799
0.223735
0.234059
0.00577513
0.00582702
0.00585714
0.00589527
0.00590686
0.00593376
0.0059707
0.00604004
0.00624583
0.00697027
0.0074482
0.00826573
0.0626223
0.094108
0.0981512
0.0930231
0.0978062
0.107567
0.128384
0.160744
0.189589
0.205024
0.21397
0.00576188
0.00581782
0.00585611
0.00588868
0.00590716
0.00593097
0.00597373
0.00603564
0.00625556
0.00701745
0.00744155
0.00853761
0.0981369
0.0979199
0.0995322
0.103768
0.106289
0.110504
0.128
0.151857
0.171731
0.184808
0.195561
0.00576487
0.00581281
0.00586054
0.00588197
0.00590866
0.00592685
0.00597197
0.00603625
0.0062668
0.00703297
0.00761468
0.0127517
0.148839
0.117519
0.101757
0.109898
0.107332
0.106673
0.118917
0.137271
0.150006
0.159636
0.170696
0.00575767
0.00580307
0.00586023
0.00587812
0.00590403
0.00592369
0.00597207
0.00603363
0.00626202
0.00700477
0.00763034
0.0124777
0.163544
0.129658
0.104273
0.111672
0.102989
0.100565
0.104885
0.117585
0.127845
0.134932
0.144017
0.00574272
0.00579871
0.00585458
0.00586929
0.00589787
0.00592487
0.00596812
0.00602827
0.00624854
0.00695975
0.00777734
0.0122893
0.155698
0.126551
0.111932
0.120125
0.101589
0.096151
0.0975398
0.102015
0.10954
0.115113
0.126869
0.00572105
0.00577997
0.00584637
0.00586501
0.0058903
0.00591963
0.00596167
0.00602106
0.0062312
0.00690343
0.00782085
0.0121611
0.150735
0.126205
0.114326
0.128624
0.111312
0.0945559
0.0940366
0.0937997
0.0974176
0.104693
0.110383
0.00571432
0.00577426
0.00583315
0.00584925
0.00587943
0.00591198
0.00595402
0.00601348
0.00621547
0.00684308
0.00783499
0.0124335
0.147095
0.12725
0.116447
0.133032
0.11551
0.0950262
0.0885008
0.0883943
0.0880037
0.0909553
0.0958906
0.00571703
0.00577804
0.00582353
0.00582569
0.0058612
0.0059023
0.00594428
0.0060046
0.00620078
0.00678852
0.00790918
0.0130244
0.163774
0.153867
0.125876
0.132666
0.109479
0.0913776
0.0857091
0.0828305
0.0823992
0.0840613
0.0850024
0.00571152
0.00576801
0.00579789
0.00581728
0.00583561
0.00589285
0.00593374
0.00599531
0.00618912
0.00673022
0.00802625
0.0148587
0.152811
0.144561
0.137476
0.143367
0.11164
0.0871008
0.0812196
0.0787291
0.0794555
0.0754698
0.072597
0.00569496
0.00574972
0.00578067
0.00581739
0.0058257
0.0058787
0.00592012
0.00598363
0.00617737
0.00669577
0.00815379
0.0162423
0.181398
0.178342
0.152249
0.141308
0.103288
0.0838756
0.0783238
0.0756499
0.0735243
0.0685275
0.0648957
0.00567592
0.00572948
0.00576058
0.00580306
0.00582628
0.0058628
0.00590549
0.00597123
0.00616945
0.00668244
0.00833458
0.0210268
0.214717
0.173994
0.136397
0.129769
0.0945165
0.0815692
0.0766403
0.0749364
0.0683119
0.0615714
0.0533433
0.0056523
0.00569651
0.00572891
0.00578281
0.00581063
0.00584271
0.00588648
0.00595516
0.00615935
0.00667695
0.00858449
0.0253497
0.218173
0.190219
0.141673
0.116697
0.089861
0.0775764
0.0722495
0.0672874
0.0596544
0.0515465
0.0428379
0.00562607
0.00567451
0.00569691
0.00576099
0.0057894
0.0058218
0.00586628
0.00593826
0.00615687
0.00670739
0.00896988
0.0360763
0.242753
0.165497
0.137678
0.104213
0.0815113
0.0711842
0.0658476
0.0601856
0.0537549
0.0483936
0.0397896
0.005591
0.00562771
0.00568814
0.00573322
0.00576066
0.00579512
0.00584008
0.00591617
0.00613492
0.00672997
0.00992908
0.0419947
0.209538
0.17892
0.119933
0.0892045
0.071764
0.0670057
0.0596641
0.0561168
0.0534214
0.0466061
0.0375053
0.00555186
0.00558297
0.00566207
0.00570277
0.00572897
0.00576661
0.00581247
0.00589341
0.00612912
0.00696856
0.0105265
0.0489376
0.158418
0.152958
0.0993456
0.0752088
0.0726672
0.0604316
0.0570907
0.0560535
0.0532787
0.0475086
0.0398266
0.0055055
0.00554313
0.00562365
0.00566355
0.00568866
0.00572937
0.00577664
0.00586346
0.00613572
0.00714115
0.0112921
0.0568992
0.164652
0.117906
0.0838257
0.078912
0.0667387
0.0582232
0.0583162
0.0587942
0.057389
0.0523466
0.043198
0.0054574
0.00548377
0.00558038
0.00562121
0.00564617
0.00568966
0.00573922
0.00583323
0.00612739
0.00729319
0.0133706
0.0965724
0.145329
0.101612
0.0757027
0.0705552
0.0616682
0.0630409
0.0645381
0.0656974
0.0620457
0.0566215
0.0447775
0.00540025
0.00542676
0.0055245
0.0055673
0.00559356
0.00563831
0.00569051
0.00579271
0.00612313
0.00775368
0.0146898
0.077205
0.115235
0.084675
0.0763544
0.0637131
0.0655762
0.0696301
0.0720908
0.0705407
0.0694368
0.0622156
0.0430085
0.00534077
0.00538912
0.00546454
0.00551042
0.00553953
0.0055847
0.00564024
0.005752
0.00610444
0.00916029
0.0173547
0.0597815
0.100382
0.0756402
0.0687252
0.0674518
0.0722397
0.0780219
0.0795149
0.0811502
0.0773499
0.066639
0.0394307
0.00526741
0.00532884
0.0053894
0.00543847
0.0054715
0.00551573
0.00557436
0.00569594
0.00609353
0.0106678
0.0235654
0.0583221
0.0861569
0.0739393
0.067137
0.0724796
0.0808468
0.0905312
0.0904086
0.0940852
0.086295
0.0612478
0.039559
0.00519002
0.00525953
0.00531211
0.0053642
0.00540178
0.00544533
0.00550726
0.00563897
0.00605902
0.0101603
0.0260812
0.0542868
0.0677268
0.0647941
0.0739435
0.0834479
0.0996668
0.10396
0.107476
0.101917
0.0886246
0.0616536
0.0365122
0.00509415
0.00516692
0.00521646
0.0052701
0.0053121
0.00535448
0.00541855
0.00555781
0.00598467
0.0125217
0.0312719
0.0456258
0.0595111
0.0632648
0.0830373
0.103064
0.115738
0.11646
0.119992
0.108269
0.0838376
0.0591287
0.0358808
0.00499539
0.00507119
0.0051208
0.00517543
0.00522153
0.00526411
0.00533013
0.0054766
0.00594741
0.0144764
0.0317786
0.0400752
0.0590008
0.0690512
0.0942239
0.117321
0.119966
0.118208
0.11766
0.108849
0.0807232
0.0537108
0.0303638
0.00487372
0.00495017
0.00500121
0.00505441
0.00510368
0.00514607
0.00521202
0.00536219
0.00584726
0.0129235
0.0318303
0.0415072
0.0534731
0.0747163
0.101446
0.124142
0.136501
0.133751
0.134076
0.106103
0.0789033
0.0431813
0.0180371
0.00475296
0.00483186
0.00488453
0.00493688
0.00498852
0.00503248
0.00509845
0.00525263
0.00578531
0.0114068
0.0301234
0.038428
0.052696
0.0794222
0.109686
0.140817
0.148795
0.15529
0.131548
0.106375
0.0659017
0.02896
0.0110693
0.00460337
0.00468219
0.00473535
0.00478408
0.00483654
0.00488071
0.00494449
0.00509957
0.00572559
0.0174764
0.031439
0.0405043
0.0540017
0.0852179
0.118615
0.161817
0.168866
0.152208
0.130523
0.0938278
0.0463666
0.0146595
0.00813199
0.00446248
0.00454341
0.00459577
0.00464339
0.00469591
0.00474204
0.00480487
0.00496537
0.00577261
0.0178936
0.0344265
0.0428575
0.0614385
0.0910601
0.13889
0.183326
0.186108
0.165532
0.127715
0.0779238
0.0244998
0.00912218
0.00655696
0.00428329
0.00436266
0.00441136
0.00445443
0.00450451
0.00454992
0.0046095
0.00477456
0.00555822
0.0210579
0.0373292
0.0442729
0.0673839
0.107382
0.187733
0.202228
0.180734
0.157369
0.108753
0.0475984
0.0123013
0.00667093
0.00566497
0.00412762
0.00420761