/*--------------------------------*- C++ -*----------------------------------*\
  =========                 |
  \\      /  F ield         | OpenFOAM: The Open Source CFD Toolbox
   \\    /   O peration     | Website:  https://openfoam.org
    \\  /    A nd           | Version:  7
     \\/     M anipulation  |
\*---------------------------------------------------------------------------*/
FoamFile
{
    version     2.0;
    format      ascii;
    class       volScalarField;
    location    "50";
    object      nut;
}
// * * * * * * * * * * * * * * * * * * * * * * * * * * * * * * * * * * * * * //

dimensions      [0 2 -1 0 0 0 0];

internalField   nonuniform List<scalar> 
12842
(
0.00180747
0.00179789
0.00178246
0.00176741
0.00176912
0.00176287
0.00176826
0.0017629
0.00175251
0.00175837
0.00175581
0.00176442
0.00177075
0.00137469
0.00065417
0.000366519
0.000237881
0.000172547
0.000132991
0.000107727
9.06237e-05
7.91369e-05
7.0088e-05
0.00180866
0.00179106
0.0017847
0.00177612
0.00177736
0.00176416
0.00177126
0.00176549
0.00175475
0.00175949
0.00175427
0.00176266
0.00177122
0.00138188
0.000655116
0.00036825
0.000239205
0.000173954
0.000133767
0.000108375
9.09527e-05
7.98656e-05
7.02171e-05
0.00180745
0.0017984
0.00177278
0.0017635
0.00177028
0.00176444
0.00177041
0.0017648
0.00176335
0.0017607
0.00175318
0.00176675
0.00178093
0.00136344
0.000652037
0.000370383
0.000242518
0.000175708
0.000136267
0.000110543
9.31276e-05
8.23073e-05
7.17924e-05
0.00180081
0.00179654
0.00177959
0.00176952
0.00176499
0.00176124
0.00176996
0.0017627
0.0017671
0.00175974
0.00175971
0.00177166
0.00179123
0.00132053
0.000639358
0.000368736
0.000242836
0.000177658
0.000137505
0.000112191
9.46326e-05
8.47419e-05
7.37488e-05
0.00180408
0.00179198
0.0017754
0.00177213
0.00176747
0.00176348
0.00176485
0.00176395
0.00176979
0.00175758
0.00176639
0.00178507
0.00181647
0.00127815
0.000627987
0.000365751
0.000245497
0.00017938
0.000139386
0.000114391
9.67975e-05
8.76807e-05
7.63451e-05
0.00179765
0.00179066
0.00177034
0.00176922
0.001762
0.00176114
0.00176231
0.00176226
0.00177039
0.00176124
0.00177422
0.00179503
0.00182952
0.00124293
0.00061597
0.000363722
0.000245793
0.000181513
0.000141984
0.000117635
0.000100223
9.09494e-05
7.95093e-05
0.00180103
0.00178598
0.00177361
0.00177282
0.0017636
0.00176131
0.00175595
0.00176429
0.00176947
0.00176496
0.00178453
0.00181046
0.00185997
0.0012148
0.000611141
0.000363536
0.000248785
0.000184384
0.000144808
0.000120227
0.000102923
9.43739e-05
8.26563e-05
0.00179639
0.00178382
0.00176776
0.00177166
0.00176176
0.00176205
0.00175568
0.00176268
0.00176732
0.00177429
0.00179936
0.00183408
0.00188954
0.00122274
0.000617999
0.000372908
0.000256545
0.000191485
0.000151475
0.000126608
0.000108359
9.9575e-05
8.73772e-05
0.00179755
0.00178097
0.00177034
0.00177087
0.00176227
0.00176033
0.00175308
0.00176405
0.00176519
0.00177738
0.00181427
0.00186005
0.00193445
0.00123256
0.000620444
0.000376275
0.000261122
0.00019689
0.000157126
0.000132768
0.000114034
0.000105564
9.22131e-05
0.00179646
0.00177555
0.00176775
0.00177014
0.00176194
0.00175991
0.00175447
0.00176423
0.0017637
0.00179005
0.00183534
0.00189754
0.00198567
0.0012244
0.000628369
0.000384546
0.000265044
0.000198942
0.000159261
0.000135213
0.000116138
0.000107726
9.42905e-05
0.00179291
0.0017757
0.00176765
0.0017681
0.00176005
0.0017577
0.0017544
0.00176521
0.00176105
0.00179798
0.00185486
0.00192867
0.00203191
0.00122423
0.000631689
0.000390138
0.000270732
0.000205849
0.000165194
0.000140927
0.000121159
0.000112623
9.86561e-05
0.00179332
0.00177255
0.00176812
0.00176627
0.00175978
0.00175603
0.00175557
0.00176511
0.00176541
0.00181425
0.00188174
0.00197657
0.00208346
0.0012328
0.00064911
0.000405523
0.000282346
0.000214927
0.000173477
0.000147957
0.000127295
0.000118274
0.000103864
0.00178822
0.00177184
0.00176716
0.00176378
0.00175789
0.00175311
0.00175677
0.0017661
0.00176862
0.00183053
0.00191021
0.00201571
0.00212114
0.00125181
0.000663356
0.000416615
0.000291005
0.000224944
0.000182036
0.00015621
0.00013416
0.000124813
0.000109941
0.00178797
0.00177268
0.00176918
0.00176176
0.00175667
0.00175159
0.00175713
0.00176546
0.00178191
0.00185536
0.00194627
0.00206681
0.00216439
0.00127604
0.000689787
0.000438632
0.000308794
0.000238851
0.000193146
0.000165642
0.000142483
0.000132876
0.000117348
0.00178359
0.00176974
0.00176717
0.00175943
0.00175398
0.00174916
0.00175784
0.00176521
0.00179246
0.001879
0.00198592
0.00210725
0.00218935
0.00131521
0.000716191
0.00045534
0.000319301
0.000249697
0.000204023
0.00017705
0.00015279
0.000142512
0.00012602
0.00178243
0.00177102
0.00177059
0.00175809
0.00175275
0.00174816
0.00175793
0.00176632
0.00181684
0.00191027
0.002025
0.0021491
0.00222003
0.0013428
0.000745032
0.000480097
0.000341615
0.000268652
0.000218274
0.000190751
0.000164329
0.00015373
0.000137061
0.00177956
0.00176838
0.00176821
0.00175667
0.00175053
0.00174696
0.00175825
0.00176903
0.00183737
0.00194385
0.00206392
0.00217952
0.00223027
0.00139654
0.000772581
0.000496559
0.000354266
0.000281351
0.000233349
0.000205533
0.00018135
0.000170829
0.00015628
0.00177825
0.00176664
0.00177101
0.00175616
0.0017497
0.00174707
0.00176014
0.00178404
0.0018715
0.00197807
0.00209348
0.00220145
0.00224003
0.00144298
0.00082209
0.000534649
0.000383115
0.000304888
0.0002529
0.000228894
0.000206899
0.000192194
0.000177395
0.0017763
0.00176416
0.00176998
0.00175619
0.00174845
0.00174585
0.001765
0.00179978
0.00190006
0.00200639
0.0021175
0.00221473
0.00223549
0.00151138
0.000843426
0.000547936
0.000399682
0.000327244
0.000281774
0.000259008
0.000238443
0.000223835
0.000218649
0.0017756
0.00176084
0.00177045
0.00175678
0.00174862
0.0017468
0.00178212
0.00183553
0.00193449
0.00202746
0.00213191
0.00221803
0.00222519
0.00158069
0.000920337
0.000602961
0.000442395
0.000361967
0.000317587
0.000297769
0.000297515
0.000297499
0.000299272
0.00177353
0.00175718
0.00177104
0.00175707
0.00174759
0.00175101
0.00180102
0.00186132
0.00195533
0.00204128
0.00213882
0.0022164
0.00221354
0.00165797
0.000946632
0.000628222
0.000468581
0.000396426
0.000360698
0.000371329
0.000398571
0.000405017
0.000421729
0.00177468
0.00175231
0.00177092
0.00176024
0.0017485
0.00176348
0.00183963
0.00189289
0.0019717
0.00204937
0.0021401
0.00220599
0.00218651
0.00172617
0.00101626
0.000678759
0.000513832
0.000446275
0.000436352
0.000460032
0.000494681
0.000584751
0.000686085
0.00177106
0.00174883
0.00177047
0.00175824
0.00175315
0.00178485
0.00186533
0.00190851
0.00198122
0.00205251
0.00213976
0.00220337
0.00218359
0.00183101
0.00107015
0.000726864
0.000562339
0.00050231
0.000497885
0.000515528
0.000633927
0.000664279
0.000578996
0.00177325
0.0017442
0.00177366
0.00176451
0.00176048
0.00182342
0.00189661
0.00192712
0.00198976
0.00204887
0.00213103
0.00217903
0.00213749
0.00197562
0.00113089
0.000768575
0.000618477
0.000542297
0.000527003
0.000615952
0.000695192
0.000594108
0.000540314
0.00177042
0.00174089
0.001774
0.0017723
0.00178667
0.00185977
0.00190967
0.00193517
0.00198561
0.00204024
0.00212135
0.00216928
0.00213169
0.0019822
0.00121953
0.000852307
0.000653121
0.000575142
0.000618651
0.000710814
0.000645389
0.000542681
0.000454103
0.00177214
0.00173946
0.0017758
0.00179656
0.00182522
0.00188342
0.00191674
0.00193887
0.00197908
0.00203024
0.00211032
0.00214579
0.00208734
0.00191367
0.00124882
0.000897777
0.000754287
0.000680209
0.000738826
0.00071149
0.000592659
0.000450026
0.000337538
0.00176998
0.00174038
0.0017854
0.00182879
0.00185601
0.0019037
0.00192107
0.00193967
0.00197056
0.00201802
0.00209806
0.00213572
0.00207862
0.00189159
0.00138671
0.000992863
0.000833634
0.000801322
0.000812253
0.000661292
0.000505449
0.000350048
0.000308311
0.00177094
0.00173956
0.00180886
0.00186017
0.0018765
0.00191256
0.0019191
0.00193646
0.00196073
0.00200633
0.00208646
0.00211221
0.00203422
0.00182227
0.00146266
0.00115637
0.0009193
0.000914859
0.000793982
0.000573777
0.000404651
0.000338048
0.000314042
0.0017723
0.00174236
0.00183949
0.00188691
0.00188944
0.00192047
0.00191537
0.00193141
0.00195024
0.00199389
0.00207441
0.00210516
0.00202304
0.00179356
0.00153211
0.00125369
0.00104993
0.000983895
0.000721377
0.000484934
0.000402043
0.000354111
0.000338458
0.00177202
0.00174529
0.00186969
0.00189799
0.00189448
0.0019197
0.00190964
0.00192408
0.00193973
0.00198286
0.00206307
0.00208036
0.00197455
0.0017161
0.00149342
0.00130298
0.00123009
0.000931899
0.000595014
0.000462559
0.000412932
0.000376856
0.000364948
0.00177473
0.00175846
0.00189565
0.0019129
0.0018975
0.0019179
0.00190107
0.00191676
0.00192938
0.00197209
0.00205331
0.00207929
0.00196769
0.00170544
0.0014984
0.00145181
0.00126884
0.000750569
0.000544415
0.000455765
0.000425806
0.000395793
0.000383372
0.00177761
0.00178298
0.0019144
0.00191032
0.00189253
0.00191445
0.00189489
0.0019078
0.00191981
0.00196291
0.00204335
0.002053
0.00191011
0.00161539
0.0015042
0.00151586
0.00103381
0.000652277
0.000511916
0.000457256
0.000436562
0.000402857
0.000396094
0.00178107
0.00181682
0.00192614
0.00191531
0.00189215
0.0019056
0.00188591
0.00190049
0.00191078
0.00195443
0.00203609
0.0020564
0.00190736
0.00163569
0.00166397
0.00136665
0.000858945
0.00059326
0.000496302
0.000462036
0.000435157
0.000411882
0.000398582
0.00177951
0.00184874
0.00193321
0.00191028
0.00188256
0.00190132
0.00187982
0.00189158
0.00190284
0.00194731
0.00202832
0.00203112
0.00185177
0.00154571
0.00169919
0.00117578
0.00075385
0.000558637
0.000487174
0.000458587
0.000434861
0.000412099
0.000402292
0.00179242
0.00187456
0.00193289
0.00190628
0.00188018
0.00189024
0.0018732
0.00188491
0.00189568
0.00194119
0.00202355
0.00203352
0.00183632
0.00154402
0.00164909
0.000990872
0.000743088
0.000531736
0.00048299
0.00044883
0.00042592
0.000412767
0.000411172
0.00180762
0.00189857
0.00193211
0.00190369
0.0018737
0.00188463
0.00186813
0.00187768
0.00188956
0.00193585
0.00201739
0.00200678
0.00178953
0.0015964
0.00134591
0.000912832
0.000703762
0.000526944
0.000479993
0.000437329
0.000422532
0.000419039
0.000423591
0.00183075
0.00190384
0.00192391
0.00189595
0.00186848
0.00187422
0.0018637
0.00187164
0.00188429
0.00193184
0.00201529
0.00200503
0.00174834
0.00145382
0.00119146
0.000900152
0.000696832
0.000527321
0.000482691
0.000456733
0.000434548
0.000441074
0.000444383
0.00185063
0.00191609
0.00191981
0.00189255
0.00186626
0.0018679
0.00186096
0.00186661
0.00188
0.00192798
0.0020099
0.00197096
0.00166171
0.00141588
0.00110311
0.000935344
0.000708812
0.000546064
0.000510749
0.000489459
0.000461949
0.00047003
0.000467839
0.00186472
0.00191386
0.00190806
0.00188604
0.00186265
0.00185986
0.00185758
0.00186182
0.00187627
0.00192572
0.00200852
0.00194543
0.00157983
0.00133
0.00105431
0.000958855
0.000711593
0.000576917
0.000547117
0.000537968
0.000522592
0.000507645
0.000494084
0.00187641
0.00191236
0.00190213
0.00188136
0.0018605
0.00185282
0.00185626
0.00185847
0.00187355
0.00192295
0.0020039
0.00191536
0.00152327
0.00128867
0.00106643
0.00100701
0.000758157
0.000621952
0.000592447
0.000566627
0.000578416
0.000547908
0.000518346
0.00187949
0.00190813
0.00189123
0.00187495
0.001859
0.00184592
0.00185425
0.001855
0.00187098
0.00192217
0.00200123
0.00185732
0.00148139
0.00125327
0.00110398
0.00103127
0.000791699
0.000675374
0.00063419
0.00059022
0.000609262
0.000588615
0.000543113
0.00187955
0.00190102
0.00188391
0.00187016
0.00185671
0.0018388
0.00185207
0.00185298
0.00186934
0.0019202
0.00199782
0.0018689
0.00148155
0.00118549
0.00115113
0.00110395
0.000866991
0.000777646
0.000680433
0.000614586
0.000634499
0.000625348
0.000573661
0.00187629
0.00189443
0.00187357
0.0018625
0.00185266
0.00183307
0.00185024
0.00185043
0.00186756
0.00192076
0.00199698
0.00179712
0.00141915
0.00118838
0.00122047
0.00114003
0.000941586
0.000868328
0.00072859
0.000640173
0.000648582
0.000641409
0.000603365
0.00187118
0.00188319
0.00186579
0.00185511
0.00184805
0.00182932
0.00184635
0.00184909
0.00186657
0.00191902
0.0019893
0.00182514
0.00144392
0.00120902
0.00131466
0.00122238
0.00102191
0.000928743
0.000777522
0.000665526
0.000654481
0.000649345
0.00062286
0.0018692
0.00187282
0.00185583
0.00184584
0.00184027
0.00182593
0.00184236
0.00184727
0.00186529
0.00192061
0.0019934
0.00177405
0.00143214
0.00121097
0.00139545
0.00128789
0.00108119
0.000980385
0.000814673
0.000694086
0.000643889
0.000647296
0.000639668
0.00186327
0.00186051
0.00185074
0.00183913
0.00183659
0.00182543
0.00184013
0.00184689
0.00186462
0.00191922
0.00197914
0.0017829
0.00135626
0.00127212
0.00147477
0.00137901
0.00116363
0.00100394
0.000816
0.000685319
0.000623178
0.000630913
0.000639932
0.0018619
0.00185143
0.00184426
0.00183318
0.00182985
0.00182404
0.00183686
0.00184595
0.00186353
0.00192006
0.00198738
0.00177705
0.00139781
0.00134387
0.001501
0.00144518
0.00123734
0.00099102
0.000801863
0.000659101
0.000595644
0.000596415
0.000609165
0.00185818
0.00184143
0.00183955
0.00183053
0.00182904
0.00182469
0.00183528
0.00184613
0.00186305
0.0019205
0.00196555
0.00174911
0.00142921
0.00139994
0.00151891
0.0015252
0.00127724
0.000948592
0.000741643
0.000624149
0.000572709
0.000568471
0.000568703
0.00185888
0.00183697
0.00183594
0.00182833
0.0018269
0.0018249
0.00183433
0.00184568
0.001862
0.00191951
0.00196966
0.00180006
0.00145544
0.00154304
0.00156311
0.00144845
0.00120948
0.000873094
0.000689923
0.000583547
0.000543523
0.000540892
0.000539336
0.00186036
0.00183261
0.00183562
0.00182777
0.0018263
0.00182542
0.00183362
0.00184592
0.00186122
0.00192081
0.00195084
0.00172925
0.0014859
0.00159054
0.00161086
0.00130771
0.00110741
0.000806965
0.000651933
0.000564031
0.000534177
0.000524168
0.000508695
0.00186435
0.00183071
0.00183721
0.00182676
0.00182666
0.00182712
0.00183373
0.00184568
0.00186038
0.00191975
0.0019288
0.00172167
0.0015036
0.00160291
0.00162278
0.00118226
0.000992178
0.000749064
0.000630272
0.000554474
0.000529781
0.000521168
0.000497138
0.00186739
0.00182792
0.00183957
0.0018256
0.00182724
0.00182859
0.00183425
0.00184575
0.0018591
0.00192545
0.00192839
0.00172236
0.00146214
0.00149093
0.00148182
0.00105643
0.000890203
0.000705459
0.000624794
0.000559204
0.000536284
0.000514354
0.000484971
0.00186941
0.00182731
0.00184301
0.00182414
0.00182839
0.00183007
0.00183535
0.00184522
0.0018592
0.0019266
0.00193202
0.00169832
0.00137852
0.00126128
0.00131503
0.0009695
0.000833019
0.000691242
0.000629362
0.000573711
0.000540464
0.000518711
0.000484583
0.00187013
0.00182661
0.0018446
0.00182241
0.00182927
0.00183041
0.00183659
0.00184451
0.00186005
0.00193354
0.0019393
0.00167657
0.00130239
0.00105895
0.00116811
0.000916998
0.000793125
0.000684093
0.000651231
0.000589766
0.000540401
0.000511985
0.000482684
0.00187034
0.00182769
0.0018464
0.00182127
0.00183064
0.00183072
0.00183743
0.00184364
0.00185944
0.00193573
0.00195848
0.00167447
0.00125646
0.000964801
0.00106349
0.000912327
0.000779031
0.000705422
0.000616718
0.000440925
0.000445065
0.000387342
0.000361687
0.00187094
0.00182909
0.00184644
0.00182011
0.00183186
0.00183021
0.00183777
0.00184269
0.00186317
0.00194138
0.00198064
0.00169801
0.00124236
0.000949497
0.00102166
0.000921658
0.00078683
0.000715247
0.000678048
0.000553502
0.000542016
0.000392922
0.000301227
0.00187032
0.00183042
0.00184597
0.00181968
0.0018328
0.00182975
0.00183752
0.00184164
0.00186347
0.00193476
0.00200122
0.00173413
0.00125711
0.00096814
0.0010128
0.000938409
0.000806265
0.000733784
0.000690499
0.000621124
0.000563472
0.00051484
0.000302875
0.00187021
0.00183221
0.00184497
0.00181944
0.00183378
0.00182917
0.00183712
0.00184052
0.00186413
0.00192905
0.00201579
0.00177815
0.00129075
0.000998842
0.0010279
0.000962822
0.000815712
0.000756096
0.000689806
0.000627815
0.000579305
0.000404519
0.000268946
0.00186898
0.00183294
0.00184394
0.00182003
0.00183408
0.00182873
0.0018365
0.00183948
0.00186075
0.00192771
0.00202671
0.00182485
0.00133464
0.00105208
0.00105113
0.000957059
0.000849959
0.000773316
0.000692735
0.000636663
0.000585345
0.00036649
0.000263411
0.00186767
0.00183449
0.00184248
0.00182064
0.0018349
0.0018285
0.00183597
0.00183856
0.00186339
0.00192215
0.00202961
0.00186201
0.00139207
0.00111418
0.00107692
0.000953672
0.000868015
0.000777865
0.000693832
0.000642319
0.000580317
0.000373592
0.000278786
0.00186645
0.00183521
0.00184196
0.00182213
0.0018348
0.00182816
0.0018355
0.00183787
0.00186004
0.00192678
0.00202987
0.00189399
0.00144274
0.00115651
0.00100675
0.000901345
0.000884491
0.00078352
0.00069374
0.00064613
0.000557874
0.000383272
0.000296259
0.0018641
0.00183573
0.0018404
0.00182344
0.00183536
0.00182836
0.00183504
0.00183734
0.00186023
0.00192346
0.00202618
0.00183094
0.00149934
0.00118674
0.000944553
0.000854589
0.000885862
0.00078346
0.000690506
0.000647195
0.00057954
0.000403536
0.00031596
0.00186301
0.00183667
0.00184039
0.0018251
0.00183512
0.00182806
0.00183482
0.00183703
0.0018598
0.0019272
0.00201636
0.00178726
0.00154971
0.00120634
0.00089987
0.000860173
0.000882078
0.000770392
0.000686506
0.000646937
0.000612277
0.000456304
0.000369664
0.00186032
0.00183683
0.00183941
0.00182654
0.00183566
0.00182825
0.00183444
0.00183673
0.00186095
0.00192893
0.00200807
0.00176715
0.00148288
0.00120124
0.000890514
0.000905742
0.000860921
0.000756167
0.000686521
0.000648413
0.000606558
0.000527153
0.000459109
0.00185942
0.00183702
0.00183962
0.00182819
0.00183531
0.00182839
0.00183406
0.00183655
0.00186192
0.00192913
0.00199506
0.00177267
0.00139372
0.00121032
0.000889776
0.000929169
0.000845222
0.000751589
0.000685787
0.000650078
0.000608497
0.000572274
0.000538673
0.00185631
0.00183726
0.00183882
0.00182892
0.00183566
0.00182813
0.00183403
0.00183623
0.00186327
0.00192887
0.00200173
0.00173338
0.00139248
0.00121083
0.000842114
0.000962392
0.000840265
0.000751136
0.000685403
0.000650642
0.000607827
0.000568754
0.000534008
0.00185548
0.00183735
0.00183947
0.00183006
0.0018353
0.00182834
0.00183315
0.00183599
0.00186451
0.00193039
0.00200374
0.00170405
0.00135581
0.000938601
0.000809347
0.00100366
0.000841612
0.000753523
0.000687537
0.000652391
0.000606632
0.000559472
0.000532897
0.00185233
0.00183622
0.00183837
0.0018309
0.0018348
0.00182866
0.00183307
0.00183547
0.00186612
0.00192758
0.00199487
0.00173458
0.00124892
0.00081355
0.000873363
0.000992669
0.000847717
0.000757584
0.000690282
0.000654945
0.000606579
0.000559024
0.000534719
0.00184999
0.00183582
0.00183881
0.00182996
0.00183524
0.00182749
0.00183234
0.00183516
0.00186663
0.00192976
0.0019825
0.00182319
0.00117566
0.00118788
0.00101614
0.000989268
0.000854071
0.000762178
0.000694021
0.000658459
0.000610138
0.000563081
0.000543121
0.00184735
0.00183481
0.00183679
0.00183048
0.00183231
0.00182811
0.00183127
0.00183441
0.00186703
0.00192563
0.00198835
0.00192075
0.00116158
0.00116237
0.00108927
0.000983888
0.000865599
0.000772389
0.000699354
0.000657906
0.00060978
0.000568197
0.000543128
0.00184243
0.00183014
0.00183271
0.00182881
0.00182876
0.00182667
0.00183003
0.00183397
0.00186681
0.00192764
0.00199252
0.00192904
0.00116109
0.00114911
0.00106712
0.000981125
0.00087309
0.000780545
0.000705019
0.000661782
0.000612563
0.000584733
0.000567975
0.0018349
0.00182389
0.00182855
0.00182536
0.00182404
0.00182448
0.00182871
0.00183338
0.00186685
0.00192381
0.00198761
0.00192206
0.00114944
0.00114513
0.00105844
0.000980959
0.000879655
0.000788897
0.000711888
0.000659167
0.000607284
0.000592571
0.000584533
0.00182978
0.00182114
0.00182549
0.00182405
0.00182187
0.0018221
0.00182744
0.00183216
0.00186646
0.00192286
0.00198213
0.0019136
0.00111393
0.00114909
0.00106557
0.000983833
0.000884451
0.000793735
0.000719928
0.000672799
0.000619285
0.000605918
0.000615901
0.00182884
0.00181871
0.00182445
0.00182319
0.0018201
0.00182149
0.001827
0.00183208
0.00186627
0.00192793
0.0019863
0.0019209
0.00110676
0.00115439
0.00107638
0.000990157
0.00087457
0.000784954
0.000719864
0.00068771
0.000653389
0.000683769
0.00076339
0.00182504
0.00182124
0.00182373
0.00182313
0.00181933
0.00182225
0.00182707
0.00183247
0.00186634
0.00192757
0.0019855
0.00191661
0.00111561
0.00116035
0.00109979
0.000996993
0.000884374
0.000786732
0.000734579
0.000723081
0.000705967
0.000766374
0.00083894
0.00182359
0.00181995
0.0018213
0.00182205
0.00181906
0.00182
0.00182585
0.00183225
0.00186576
0.00192669
0.00198222
0.00192312
0.00113926
0.00118111
0.00111599
0.00099293
0.000869359
0.000774463
0.000717759
0.000728561
0.000758111
0.000876134
0.00116742
0.00182479
0.00181889
0.00182143
0.00182065
0.00181986
0.00182037
0.0018246
0.00183184
0.00186589
0.00192765
0.00198269
0.00192412
0.00117881
0.00121466
0.00115313
0.000985011
0.000873906
0.000794701
0.000758761
0.000829323
0.000953473
0.00125131
0.00146377
0.00182275
0.00181868
0.00182064
0.00182144
0.00181961
0.00182056
0.00182518
0.00183197
0.00186595
0.00193074
0.00197725
0.00192169
0.00120514
0.00122671
0.00118945
0.00098179
0.000848976
0.000789233
0.000754847
0.000830267
0.00101518
0.00130202
0.00183606
0.00182118
0.00181867
0.00181965
0.00182208
0.0018199
0.00182039
0.0018247
0.0018315
0.00186504
0.00193304
0.00197312
0.00191803
0.00126308
0.00127728
0.00125481
0.00100378
0.000869876
0.000813744
0.000824397
0.000980191
0.00127634
0.00180867
0.00213617
0.00182276
0.00181699
0.00181937
0.00182254
0.00182054
0.00182105
0.00182328
0.00183222
0.00186455
0.00193813
0.00197891
0.00190986
0.00131665
0.00130499
0.00127214
0.00100325
0.000882838
0.000843047
0.000880088
0.00108403
0.00148421
0.00195037
0.00232717
0.001821
0.00181599
0.00181955
0.00182031
0.0018195
0.0018212
0.00182413
0.00183221
0.00186298
0.00193901
0.00198223
0.00190655
0.00139829
0.00136298
0.00127166
0.000991257
0.000952717
0.000925441
0.000980421
0.00120136
0.0016213
0.00215345
0.00256895
0.00182381
0.00181574
0.00181776
0.0018204
0.00181957
0.00182164
0.00182372
0.0018323
0.00186191
0.00194119
0.00197587
0.00190378
0.00147383
0.00142489
0.0012961
0.00105848
0.000971405
0.00102953
0.00115099
0.00150056
0.00204785
0.00252297
0.00256498
0.00182214
0.00181582
0.00181736
0.00182122
0.00181838
0.00182042
0.00182394
0.00183258
0.00186099
0.00194143
0.0019888
0.00189397
0.00153148
0.00144811
0.00130069
0.00109821
0.0010715
0.00107551
0.00122333
0.00147084
0.00186895
0.00236556
0.00266218
0.00182105
0.00181365
0.00181675
0.00182126
0.00181988
0.00182137
0.00182449
0.00183156
0.00186041
0.00194292
0.00199391
0.00190272
0.00154247
0.00155818
0.00130615
0.00111055
0.00109343
0.00129652
0.00150134
0.00194891
0.00242352
0.00263137
0.00262575
0.0018215
0.00181476
0.00181693
0.00182156
0.00182008
0.00182121
0.00182347
0.00183308
0.00185951
0.00194115
0.00198102
0.00187784
0.00164586
0.00181204
0.00143581
0.00131683
0.00128922
0.00128492
0.00154804
0.0017904
0.00219266
0.00258775
0.00259741
0.00182164
0.00181492
0.00181716
0.00182098
0.00181953
0.00181901
0.00182304
0.00183253
0.00185963
0.00194678
0.00197944
0.00187833
0.00164671
0.00180687
0.00149816
0.00137303
0.00135389
0.00152835
0.00169116
0.00200703
0.00259746
0.00250691
0.00271302
0.00181869
0.00181579
0.00181978
0.00182295
0.00181911
0.00181829
0.00182379
0.00183261
0.00185968
0.00195366
0.00198448
0.00184947
0.0018018
0.00221824
0.00163756
0.00162873
0.00156098
0.00165549
0.00202581
0.00238789
0.00252633
0.00262566
0.00290559
0.00181957
0.00181334
0.00181795
0.00182237
0.00181862
0.0018182
0.00182383
0.00183373
0.00186032
0.00195818
0.00198671
0.00183931
0.00204018
0.00221366
0.0018966
0.00169753
0.00167398
0.00182644
0.00224805
0.00254749
0.00275854
0.00279998
0.00287259
0.00181675
0.00181818
0.00181799
0.00182164
0.00181786
0.00181872
0.00182467
0.00183351
0.00186067
0.00195774
0.00198945
0.00182127
0.00207738
0.00212291
0.00202893
0.00193827
0.00187682
0.00210673
0.00242415
0.00261194
0.00290364
0.00285085
0.00289863
0.0018179
0.00181707
0.00181613
0.00181904
0.00181852
0.00181925
0.00182452
0.00183307
0.00186107
0.00195548
0.00198628
0.00180539
0.00223702
0.00250569
0.00227009
0.00200569
0.00194276
0.00219915
0.00256096
0.0028623
0.00299759
0.00284207
0.00285298
0.00181911
0.00181885
0.00181679
0.00182092
0.00181797
0.00182058
0.00182504
0.00183376
0.00186149
0.00195619
0.0019978
0.00181099
0.0025264
0.00244401
0.00243135
0.00221701
0.00216187
0.00231257
0.00260124
0.00284305
0.00296582
0.00292083
0.00287849
0.00181934
0.0018197
0.00181563
0.00182208
0.00181838
0.00182224
0.00182435
0.00183353
0.0018621
0.0019672
0.00200535
0.0017889
0.00257353
0.00272345
0.00262528
0.00230871
0.00230166
0.00254568
0.00265564
0.00267998
0.0029153
0.00283247
0.00279881
0.0018166
0.00181872
0.00181429
0.00182143
0.00181699
0.00182201
0.00182337
0.00183252
0.00186285
0.0019737
0.00203245
0.00176854
0.00307943
0.00300666
0.00301167
0.00257844
0.00254672
0.00256843
0.00267177
0.0027788
0.00289819
0.00279124
0.00276908
0.00181895
0.00181705
0.00181391
0.00181914
0.00181713
0.00181857
0.00182127
0.00183207
0.00186559
0.00198094
0.00203408
0.0017849
0.00358649
0.00334261
0.00313859
0.00275729
0.00263124
0.00262802
0.00265297
0.00268604
0.00281408
0.00276434
0.00278784
0.00181644
0.00181404
0.00181498
0.00181836
0.00181748
0.00181766
0.00182335
0.00183169
0.00186808
0.0019924
0.00202336
0.00179983
0.00505512
0.0034447
0.00317009
0.00305407
0.00282683
0.00266718
0.0026128
0.00262319
0.00273354
0.00270778
0.0027542
0.00181845
0.00181348
0.00181825
0.00181777
0.00181684
0.00181705
0.00182449
0.00183356
0.00186998
0.00199437
0.00204888
0.00246738
0.00661356
0.00416071
0.00338928
0.00328431
0.00281651
0.00258754
0.002525
0.00254887
0.00260321
0.00259602
0.00268153
0.00181534
0.00181298
0.00182007
0.00181803
0.00181574
0.00181903
0.00182735
0.00183348
0.00186928
0.00199052
0.00204428
0.00239758
0.0070565
0.0047155
0.00368878
0.00349256
0.00271438
0.0025197
0.00242159
0.002427
0.00249291
0.0024585
0.0025309
0.00181176
0.00181395
0.00182143
0.00181759
0.00181557
0.00182125
0.0018272
0.0018316
0.0018665
0.00198394
0.00207889
0.0023577
0.00684998
0.0049963
0.00422886
0.00398386
0.00273093
0.00248456
0.00240756
0.00232523
0.00239797
0.00238582
0.00251346
0.00180806
0.00181198
0.00182078
0.0018185
0.00181606
0.0018225
0.00182508
0.00183073
0.00186355
0.00197455
0.00208067
0.00233158
0.00662822
0.00512528
0.00453527
0.00445053
0.00315614
0.0025645
0.00246561
0.00234046
0.0023389
0.00235939
0.00240832
0.00181144
0.00181355
0.00181698
0.00181697
0.00181831
0.00182289
0.00182461
0.00183018
0.00186092
0.00196499
0.00206721
0.00237074
0.0064724
0.00516421
0.00472412
0.00476791
0.00346819
0.00273026
0.00247159
0.00239918
0.00231153
0.00228348
0.00234143
0.00182036
0.00181787
0.00181711
0.00181494
0.00181528
0.00182104
0.00182477
0.00182999
0.00185884
0.0019563
0.00207494
0.00241392
0.00723495
0.00636502
0.00509985
0.0049172
0.00354225
0.00285244
0.00260807
0.0024676
0.00240948
0.00238738
0.00234236
0.00182116
0.00181832
0.00181361
0.00181993
0.00181261
0.00182124
0.00182469
0.00182987
0.00185737
0.0019438
0.00210054
0.00269259
0.00748197
0.00592738
0.00564501
0.0055588
0.00387362
0.00295438
0.00273145
0.00260082
0.00260759
0.00238326
0.00221255
0.00181495
0.00181612
0.00181453
0.00182277
0.00180996
0.00182221
0.00182426
0.00182995
0.00185641
0.0019397
0.00211734
0.00276815
0.00870863
0.00734771
0.00652432
0.00566459
0.00377471
0.00310431
0.00288938
0.00272999
0.00260362
0.00232721
0.00214097
0.00181226
0.00181667
0.00181406
0.00181858
0.00181374
0.00182223
0.00182355
0.00182995
0.00185629
0.00193779
0.00214511
0.00333442
0.0103436
0.00721316
0.00623456
0.00534875
0.00374188
0.0032789
0.00312653
0.00279193
0.00253545
0.00222032
0.00189385
0.00181112
0.00181511
0.00180993
0.00181806
0.00181436
0.00182103
0.0018228
0.00183008
0.00185636
0.00193576
0.00216399
0.00358171
0.0119386
0.00836327
0.00622267
0.00499815
0.00385293
0.00341127
0.00308798
0.00265357
0.0023183
0.00198525
0.00170984
0.00181052
0.00181693
0.00180686
0.00181816
0.00181383
0.00182018
0.00182211
0.00183009
0.00185815
0.00193892
0.00222364
0.0046919
0.0132857
0.00817676
0.00632513
0.00477961
0.00378868
0.00335925
0.00281947
0.00253285
0.00221182
0.00201889
0.00174764
0.00180927
0.00180981
0.00181392
0.00181808
0.00181296
0.00182058
0.00182152
0.00183021
0.00185544
0.00194254
0.00242751
0.0053104
0.0123382
0.00856025
0.00608195
0.00450154
0.0036944
0.00328078
0.00269478
0.00244702
0.00230067
0.00205851
0.00175126
0.00180771
0.00180358
0.00181614
0.0018174
0.00181182
0.00182127
0.00182089
0.00183017
0.00185635
0.00198179
0.00249913
0.00606903
0.0107097
0.00815651
0.00559355
0.00420558
0.00381216
0.00309602
0.00266825
0.00251517
0.00239266
0.00220188
0.00195322
0.00180678
0.00180186
0.00181653
0.00181635
0.00181064
0.00182123
0.00182022
0.00183019
0.0018632
0.00201685
0.00263476
0.00641427
0.0113846
0.00716249
0.00513018
0.0046858
0.00368628
0.00304898
0.00277785
0.00272521
0.00267765
0.00251925
0.00222705
0.00180658
0.00179506
0.00181552
0.00181497
0.00180947
0.00182004
0.00181932
0.00182993
0.00186428
0.00201135
0.0029626
0.00995523
0.0109407
0.00686311
0.0050011
0.00454557
0.00354646
0.0033462
0.00313792
0.0031483
0.00300639
0.0028323
0.00241595
0.00180687
0.00179297
0.00181349
0.00181342
0.00180866
0.001818
0.00181832
0.00182964
0.00187146
0.00209387
0.00311466
0.00859069
0.00782904
0.00623696
0.00547475
0.00430367
0.00381162
0.00375132
0.00362356
0.00352913
0.00351537
0.00325308
0.00240657
0.00180712
0.00179864
0.00181063
0.00181164
0.00180808
0.00181536
0.00181704
0.00182899
0.00187403
0.00237123
0.00325969
0.00710989
0.00719617
0.00600393
0.00530778
0.00466675
0.00432136
0.00427369
0.00413702
0.00420593
0.00408578
0.00361743
0.00234448
0.00180663
0.00180168
0.00180723
0.0018097
0.00180779
0.00181261
0.0018157
0.00182832
0.00188742
0.00270884
0.00425042
0.00768969
0.00691691
0.00670553
0.00536976
0.00511967
0.00495979
0.00504829
0.00487665
0.00509621
0.00473097
0.00354566
0.00261351
0.00180505
0.00180241
0.00180372
0.0018077
0.00180751
0.0018098
0.00181402
0.00182713
0.00189116
0.00233067
0.00458481
0.00718613
0.0063129
0.00627006
0.00606996
0.00603042
0.00628073
0.00601956
0.00616498
0.00583754
0.00521555
0.00394479
0.00275735
0.00180238
0.00180099
0.00180012
0.00180561
0.00180712
0.00180718
0.00181219
0.00182551
0.001895
0.0030051
0.00520607