/*--------------------------------*- C++ -*----------------------------------*\
  =========                 |
  \\      /  F ield         | OpenFOAM: The Open Source CFD Toolbox
   \\    /   O peration     | Website:  https://openfoam.org
    \\  /    A nd           | Version:  7
     \\/     M anipulation  |
\*---------------------------------------------------------------------------*/
FoamFile
{
    version     2.0;
    format      ascii;
    class       volScalarField;
    location    "50";
    object      omega;
}
// * * * * * * * * * * * * * * * * * * * * * * * * * * * * * * * * * * * * * //

dimensions      [0 0 -1 0 0 0 0];

internalField   nonuniform List<scalar> 
12842
(
3.14124
2.83141
2.64615
2.52329
2.43298
2.36877
2.31607
2.28708
2.26647
2.2466
2.2378
2.22878
2.23067
2.23824
2.25721
2.29367
2.35523
2.44376
2.57977
2.6929
2.87046
2.99836
3.18138
3.1163
2.8105
2.62321
2.50148
2.41575
2.36272
2.31048
2.28093
2.25949
2.24338
2.23536
2.22565
2.22771
2.23568
2.25524
2.29325
2.35926
2.45944
2.5764
2.70878
2.89798
3.02379
3.198
3.09667
2.7627
2.58609
2.47663
2.39768
2.34437
2.30125
2.27241
2.24785
2.2366
2.23154
2.22401
2.2262
2.23588
2.25742
2.2977
2.36398
2.46777
2.59199
2.71362
2.90671
3.02672
3.19765
3.06814
2.74041
2.55736
2.4485
2.38291
2.33312
2.29174
2.26674
2.24384
2.23203
2.22814
2.2202
2.22363
2.23549
2.2589
2.30424
2.3772
2.4816
2.63154
2.7557
2.94158
3.1393
3.23944
3.03153
2.6914
2.51592
2.41163
2.35226
2.31154
2.28142
2.25614
2.236
2.22862
2.22179
2.21806
2.22318
2.23791
2.2659
2.31445
2.38869
2.49193
2.64312
2.77938
2.95387
3.15133
3.41641
3.0029
2.66908
2.49814
2.39505
2.33941
2.29978
2.27185
2.24969
2.23208
2.22582
2.21741
2.21529
2.22229
2.2396
2.27201
2.32578
2.41723
2.53189
2.67477
2.84858
3.0421
3.18629
3.44213
2.9625
2.62312
2.45836
2.36273
2.31534
2.28323
2.26398
2.24025
2.22719
2.22245
2.21496
2.21581
2.22409
2.24383
2.27793
2.33424
2.43135
2.55735
2.69647
2.86662
3.13251
3.352
3.59497
2.93355
2.60279
2.44229
2.35019
2.30232
2.27243
2.25607
2.23555
2.22488
2.2203
2.21183
2.21766
2.22977
2.25337
2.29678
2.36772
2.4755
2.61931
2.77746
2.94304
3.19768
3.46754
3.68831
2.89546
2.56272
2.41085
2.32696
2.28535
2.25982
2.24873
2.22897
2.2226
2.21754
2.21065
2.21799
2.23238
2.25862
2.30435
2.38164
2.49877
2.66333
2.82603
3.01386
3.30167
3.737
3.9805
2.85817
2.54402
2.39734
2.3178
2.27595
2.25404
2.24294
2.22606
2.22147
2.21357
2.21332
2.22129
2.23817
2.26903
2.3288
2.42423
2.56369
2.74109
2.94335
3.15444
3.44595
3.83878
4.28576
2.82239
2.50724
2.37064
2.30002
2.26307
2.24421
2.23603
2.22137
2.22042
2.21305
2.21477
2.2267
2.25056
2.28702
2.34626
2.44906
2.59492
2.82192
3.01594
3.30447
3.64392
4.06662
4.6325
2.78191
2.48734
2.35795
2.29233
2.25639
2.23991
2.23134
2.21919
2.21968
2.2143
2.22099
2.23532
2.26988
2.31911
2.40088
2.53398
2.70937
2.96317
3.21456
3.51524
3.92292
4.37479
5.0027
2.74929
2.45748
2.3371
2.27796
2.24551
2.23224
2.2239
2.21534
2.21887
2.21163
2.22405
2.24842
2.29761
2.3653
2.45545
2.59835
2.77768
3.09245
3.36963
3.78593
4.21223
4.70835
5.38835
2.71013
2.43676
2.32457
2.2716
2.24071
2.22867
2.22052
2.21334
2.21735
2.21281
2.23145
2.26716
2.32954
2.41197
2.53713
2.73106
2.95823
3.30861
3.61165
4.04527
4.54109
5.12148
5.86478
2.68023
2.41475
2.30906
2.25956
2.23207
2.22187
2.21441
2.20922
2.2151
2.21332
2.23842
2.29452
2.37558
2.48574
2.62932
2.8386
3.07054
3.4611
3.82968
4.37136
4.96237
5.58086
6.34878
2.64979
2.39479
2.29668
2.25393
2.22808
2.21848
2.21131
2.20694
2.21344
2.21869
2.25493
2.32948
2.42177
2.54891
2.74312
3.01175
3.31283
3.74791
4.12551
4.73391
5.2938
5.9242
6.72966
2.627
2.3789
2.28453
2.24316
2.22029
2.21178
2.20504
2.20284
2.2109
2.22081
2.27717
2.37682
2.48838
2.64379
2.83891
3.12536
3.46636
3.95118
4.42851
5.05525
5.73234
6.53634
7.54395
2.60331
2.36188
2.27388
2.23781
2.2164
2.20829
2.20212
2.20111
2.21369
2.23717
2.31702
2.4358
2.55706
2.7366
3.01823
3.37081
3.76493
4.27797
4.7743
5.55707
6.36487
7.21123
8.11925
2.58538
2.34937
2.26261
2.22743
2.20842
2.20098
2.19577
2.19922
2.21222
2.2554
2.362
2.50356
2.64421
2.85129
3.11095
3.49244
3.94943
4.56945
5.2303
6.10195
6.85585
7.76266
8.89013
2.56698
2.33585
2.2535
2.22168
2.20426
2.19789
2.19516
2.20692
2.22992
2.29962
2.42885
2.5872
2.73885
2.97815
3.33924
3.77576
4.31952
4.98602
5.71835
6.56663
7.59398
9.00171
10.3173
2.55258
2.32585
2.24463
2.21164
2.19553
2.19031
2.19448
2.21031
2.24644
2.33836
2.49212
2.66432
2.83121
3.10044
3.46609
3.96998
4.58389
5.35977
6.17865
7.39674
8.80666
10.1462
11.1637
2.53758
2.31448
2.23379
2.20303
2.19163
2.18852
2.20386
2.23911
2.2968
2.40538
2.57712
2.76595
2.95182
3.26109
3.69271
4.25421
4.96803
5.85059
6.98997
8.46456
9.60885
11.0154
12.7858
2.526
2.30594
2.22712
2.1953
2.18325
2.18653
2.21462
2.26581
2.33333
2.45878
2.64948
2.84131
3.03012
3.36794
3.88131
4.54813
5.34473
6.464
7.82803
9.10805
10.7142
13.2667
15.759
2.51544
2.29753
2.21797
2.18651
2.18214
2.19053
2.24728
2.31923
2.40426
2.54614
2.74826
2.95554
3.17662
3.56967
4.07609
4.82421
5.91954
7.13525
8.47773
10.4563
13.0552
16.2332
19.0794
2.5077
2.29057
2.21065
2.18166
2.18165
2.20271
2.28797
2.37285
2.47225
2.62321
2.83518
3.03928
3.25531
3.68026
4.39337
5.26947
6.30747
7.67109
9.72581
12.4646
15.5059
19.806
25.4519
2.4988
2.28236
2.20313
2.17772
2.18881
2.2299
2.33647
2.43114
2.54217
2.70017
2.92059
3.13998
3.39766
3.89588
4.55016
5.60178
7.01818
8.73444
11.5701
14.5441
18.8316
26.931
41.1943
2.49088
2.27381
2.19715
2.17819
2.20756
2.26672
2.3894
2.49161
2.61231
2.77577
3.00213
3.21435
3.47095
4.01025
4.89672
5.99017
7.76256
10.1603
13.0972
17.1195
25.3145
43.8756
62.0523
2.48038
2.26517
2.19243
2.18687
2.2429
2.31378
2.44854
2.55486
2.68138
2.84763
3.07803
3.30279
3.612
4.25933
5.17453
6.73859
8.58159
11.3594
15.1488
22.6745
41.3953
65.2187
82.7565
2.47045
2.25953
2.19379
2.20663
2.28405
2.36603
2.50963
2.61737
2.74788
2.91533
3.14729
3.36193
3.68152
4.38947
5.56731
7.22241
9.39743
12.9658
19.901
36.5272
60.8199
84.8811
99.7551
2.45995
2.25061
2.19995
2.24323
2.3385
2.42464
2.57158
2.67985
2.8109
2.97781
3.2098
3.4379
3.82284
4.67306
5.96352
7.76001
10.444
16.9903
32.0494
52.9313
78.1022
98.3305
109.668
2.44736
2.24762
2.22013
2.28187
2.39161
2.48479
2.63407
2.7383
2.86968
3.03484
3.26484
3.48246
3.89383
4.8242
6.43501
8.54135
13.0507
27.8679
46.1043
67.5942
89.4094
104.935
114.895
2.43853
2.24199
2.24704
2.33476
2.45474
2.5454
2.69165
2.79537
2.92363
3.08659
3.31471
3.55124
4.04291
5.16631
6.74924
9.80689
21.4841
40.7739
58.849
77.2811
95.6047
110.404
118.569
2.42365
2.242
2.28532
2.3846
2.51062
2.60732
2.74921
2.84586
2.97273
3.13241
3.35629
3.58505
4.12103
5.36639
7.55268
13.8616
32.8789
53.0621
67.1882
82.4217
100.107
110.92
118.233
2.41645
2.24395
2.32676
2.44107
2.57309
2.66372
2.79937
2.89474
3.01669
3.17382
3.39575
3.64986
4.2972
5.98144
8.8047
22.1907
46.0825
61.0997
71.6266
85.7861
99.6266
109.221
115.275
2.40584
2.25958
2.37529
2.49681
2.62565
2.7217
2.84751
2.93647
3.05571
3.20943
3.42669
3.68354
4.41685
6.48748
11.8577
34.5639
54.3372
65.4783
73.6585
85.8955
97.1408
103.598
108.781
2.40283
2.28533
2.4225
2.54936
2.68025
2.77164
2.88926
2.97538
3.09012
3.2416
3.45806
3.7562
4.70914
7.90631
19.3083
44.786
58.92
66.6707
73.8947
83.1944
91.0038
95.9818
100.177
2.40095
2.32321
2.47639
2.60498
2.72579
2.82107
2.9269
3.00928
3.11993
3.26894
3.48199
3.8013
5.00959
10.064
28.9939
51.7162
60.9066
66.9048
72.1595
77.6698
84.0308
87.3639
90.8528
2.40656
2.3672
2.52248
2.65301
2.77087
2.86395
2.95946
3.03868
3.14595
3.29339
3.50954
3.91796
5.79828
13.7544
37.9812
54.9958
61.1014
64.9845
67.9308
71.2826
76.1695
78.8726
81.9852
2.4251
2.41751
2.57727
2.70232
2.80787
2.90398
2.9886
3.06524
3.16821
3.31433
3.53127
4.0179
6.68696
18.4497
44.9073
56.7223
61.1971
61.7322
62.9957
65.1097
68.5823
70.8335
73.3905
2.44808
2.47019
2.62105
2.74562
2.8441
2.93911
3.0129
3.08751
3.18754
3.33335
3.56126
4.22393
8.14791
22.8936
48.4275
56.9697
60.2671
58.5264
58.6491
60.2904
62.0168
63.441
65.5242
2.48378
2.52243
2.67143
2.78873
2.87528
2.97191
3.0352
3.10797
3.20405
3.34902
3.58698
4.44991
9.4388
27.1371
49.4667
57.0251
59.0521
54.8112
54.5287
56.7106
56.5265
57.277
58.5914
2.52216
2.57662
2.71334
2.82487
2.9044
3.00233
3.05508
3.12493
3.21854
3.36515
3.62302
4.639
10.6269
30.6794
49.5264
55.9771
57.7778
51.4698
50.7948
53.467
52.463
52.2184
52.6149
2.56648
2.62437
2.75898
2.86339
2.93245
3.02718
3.07206
3.14117
3.231
3.37647
3.64876
4.95869
12.1233
32.7813
48.6414
54.9995
56.3227
48.5208
47.4114
49.7546
49.302
48.201
47.7231
2.60733
2.67619
2.79781
2.89682
2.9608
3.04696
3.09085
3.15458
3.2421
3.39089
3.69311
5.15707
13.06
34.0558
47.2219
53.7786
53.8931
46.2015
44.8026
46.12
46.3394
44.874
44.0233
2.64664
2.71913
2.83821
2.93065
2.98636
3.06325
3.10698
3.1674
3.25192
3.3996
3.72069
5.49249
14.234
35.2077
46.4822
52.2661
50.9513
44.6671
42.867
43.5045
44.0472
42.3464
41.3273
2.68271
2.76565
2.8688
2.95619
3.00703
3.07539
3.11874
3.1771
3.26073
3.41279
3.77625
5.74788
15.6419
34.8972
45.0849
49.8915
48.028
43.8079
41.5149
41.6671
42.1738
40.8169
39.7523
2.71568
2.80187
2.89774
2.97849
3.02328
3.08472
3.12998
3.18652
3.2689
3.42134
3.81244
6.09281
16.6066
34.3597
44.4188
47.3842
45.021
42.7322
39.7493
39.8469
40.3434
39.8773
38.8832
2.74395
2.83642
2.92366
2.99267
3.03435
3.09235
3.13748
3.19315
3.27604
3.43317
3.88608
6.37155
17.1338
34.1838
43.0503
43.359
41.3991
39.9328
37.7856
37.4867
37.6783
37.7768
37.6011
2.76921
2.86218
2.94362
3.00612
3.04357
3.09737
3.14387
3.2003
3.28314
3.44383
3.9429
6.63192
17.9373
32.413
39.0114
38.6581
37.5348
36.936
35.0105
34.8482
35.0061
35.1694
35.1475
2.78911
2.88721
2.96115
3.016
3.05259
3.10326
3.15035
3.20594
3.28963
3.4545
4.02909
7.14528
18.746
31.9873
36.1094
33.7801
32.9225
32.8137
31.6871
31.2617
31.1939
31.6569
32.4233
2.80761
2.90505
2.97245
3.02758
3.06084
3.10578
3.15583
3.21122
3.29574
3.46717
4.13449
7.46631
18.4288
30.5524
32.398
28.7071
28.2202
28.4693
27.9883
27.7643
27.6998
28.279
29.4372
2.82425
2.92412
2.98338
3.03898
3.07118
3.11013
3.16054
3.21572
3.30087
3.47405
4.19519
7.45568
17.138
27.8686
27.4558
23.9473
23.6369
24.2515
24.2261
24.2416
24.6005
25.5171
27.1136
2.84258
2.93915
2.99198
3.05158
3.08026
3.11402
3.16381
3.21992
3.30533
3.48179
4.1922
7.18457
15.2794
24.95
22.1989
19.5073
19.5775
20.5014
20.7541
21.0577
21.9324
22.9976
24.6227
2.86205
2.95637
3.00282
3.06481
3.0905
3.12063
3.16703
3.22432
3.30869
3.48507
4.14737
6.70916
13.4233
21.8293
17.8734
15.9061
16.3496
17.3689
17.8913
18.6355
20.0574
21.2764
23.001
2.88144
2.9719
3.01349
3.07737
3.09967
3.1272
3.17052
3.22866
3.31208
3.49233
4.06259
6.16797
11.5909
17.3718
14.2838
13.1153
13.8733
14.8463
15.7745
16.6458
18.3976
19.5959
21.2243
2.90048
2.98787
3.02692
3.09044
3.10914
3.13587
3.17488
3.23332
3.31417
3.49265
3.978
5.66681
10.029
13.4808
11.7563
11.3341
12.3346
13.2288
14.4469
15.4645
17.0828
18.3121
19.9121
2.91905
3.00308
3.03982
3.10141
3.11783
3.14385
3.17972
3.2372
3.31536
3.49316
3.9049
5.25779
8.82903
11.1002
10.1625
10.2357
11.3534
12.2527
13.622
14.6401
16.1142
17.2875
18.6694
2.93613
3.01703
3.05356
3.11215
3.12627
3.15257
3.18475
3.24084
3.31709
3.49011
3.84375
4.91419
7.83533
9.40423
9.0986
9.51051
10.7275
11.5795
13.0823
14.0939
15.2728
16.409
17.609
2.95424
3.03215
3.06701
3.12183
3.13531
3.16105
3.19029
3.24421
3.31921
3.49034
3.79445
4.64188
7.05313
8.29731
8.41934
9.06069
10.274
11.1904
12.8054
13.7081
14.7215
15.7928
16.7592
2.97184
3.04604
3.08129
3.13149
3.14404
3.17001
3.19615
3.24754
3.32018
3.49038
3.75383
4.43311
6.39764
7.5481
8.0032
8.79375
9.91345
11.003
12.6579
13.5003
14.3869
15.396
16.2704
2.98971
3.06135
3.09476
3.14072
3.15354
3.17893
3.20199
3.25061
3.32281
3.48505
3.72192
4.27239
5.92622
7.14147
7.7125
8.60747
9.75356
10.9325
12.5994
13.3832
14.1677
15.1543
16.0359
3.00788
3.07561
3.10886
3.14956
3.16257
3.18768
3.20847
3.25375
3.32159
3.47833
3.69402
4.153
5.52015
6.95
7.54395
8.54084
9.71319
10.9353
12.6163
13.3205
14.1176
14.9616
15.8531
3.02467
3.08992
3.12165
3.15885
3.17179
3.19673
3.21433
3.25672
3.32285
3.47415
3.66834
4.06354
5.22108
6.82252
7.51365
8.50172
9.71553
11.0888
12.6582
13.2789
14.0949
14.9006
15.7856
3.04246
3.10468
3.13494
3.16745
3.18086
3.20516
3.22125
3.25987
3.32209
3.47005
3.64922
3.98573
5.01604
6.77493
7.48831
8.49091
9.96601
11.3056
12.642
13.2475
14.1392
14.8764
15.8451
3.059
3.11752
3.14675
3.17697
3.18939
3.21382
3.22712
3.26301
3.32168
3.46666
3.62436
3.93763
4.87364
6.76012
7.43845
8.49111
10.2123
11.4055
12.643
13.2263
14.199
14.9931
16.0459
3.075
3.1319
3.15878
3.18555
3.19827
3.22179
3.23423
3.26644
3.32089
3.46778
3.60309
3.88157
4.84409
6.7392
7.44041
8.60553
10.369
11.4558
12.6436
13.2078
14.156
15.1824
16.2396
3.09205
3.14368
3.16964
3.19525
3.20606
3.22983
3.24002
3.26985
3.31987
3.46497
3.58865
3.84184
4.79043
6.74569
7.43683
8.77244
10.4278
11.5081
12.6518
13.1905
14.2137
15.4634
16.4271
3.10645
3.15674
3.17975
3.20374
3.21464
3.23684
3.24717
3.27369
3.31867
3.46744
3.58166
3.8111
4.79264
6.87045
7.50567
8.92176
10.4292
11.4863
12.6466
13.1679
14.2821
15.5491
16.4895
3.12296
3.16789
3.19049
3.21312
3.22192
3.24449
3.25289
3.27723
3.3188
3.46371
3.58127
3.81126
4.79426
7.11483
7.74732
9.03156
10.4236
11.5059
12.6261
13.1685
14.335
15.6877
16.576
3.13768
3.18051
3.19893
3.22223
3.23023
3.25079
3.25969
3.28133
3.31991
3.46444
3.57519
3.80719
4.79263
7.35805
8.08972
9.13594
10.354
11.4456
12.5597
13.2025
14.4316
15.6965
16.7839
3.15258
3.19138
3.20866
3.23122
3.23753
3.25795
3.2662
3.28505
3.32124
3.46107
3.56831
3.78593
4.79268
7.50076
8.40858
9.24165
10.3156
11.3635
12.5328
13.1751
14.5867
15.7193
16.8695
3.17088
3.20419
3.21898
3.24118
3.24684
3.26423
3.27249
3.28866
3.32293
3.46274
3.57266
3.7907
4.78179
7.57192
8.64205
9.30893
10.2963
11.2974
12.4715
13.3613
14.8947
15.8884
17.1429
3.17868
3.21131
3.22693
3.2427
3.25373
3.26964
3.2776
3.29336
3.32456
3.4608
3.56636
3.78925
4.74593
7.62204
8.75967
9.35789
10.2989
11.2874
12.4566
13.3977
15.072
16.292
17.3772
3.18294
3.21646
3.22856
3.24445
3.25852
3.27006
3.27793
3.29601
3.3264
3.45745
3.57065
3.78852
4.76755
7.6409
8.8042
9.39144
10.5089
11.5029
12.5263
13.523
15.1527
16.2946
17.599
3.18686
3.21558
3.2303
3.24643
3.26154
3.27083
3.27856
3.29727
3.32799
3.45872
3.56769
3.77905
4.75902
7.65661
8.82001
9.45186
10.5488
11.5683
12.6827
13.7165
15.3485
16.3908
17.6479
3.18899
3.21604
3.23479
3.24956
3.26064
3.27373
3.27961
3.29988
3.32991
3.45829
3.57489
3.77886
4.77575
7.66029
8.80445
9.6111
10.8523
11.8683
13.1706
14.2058
15.5918
16.8791
18.5666
3.1891
3.21707
3.23514
3.25147
3.26057
3.27292
3.28193
3.30099
3.33144
3.46006
3.57478
3.78083
4.85265
7.63862
8.81383
9.94443
11.1539
12.1462
13.5991
14.7638
16.1282
17.3249
19.6745
3.18942
3.2175
3.23836
3.24988
3.26118
3.27304
3.28132
3.30108
3.33297
3.46021
3.57186
3.78728
4.91653
7.66797
8.83372
10.2281
11.7751
12.4475
13.9238
15.3526
16.6587
19.0909
23.3804
3.19162
3.21864
3.23761
3.24955
3.26127
3.27318
3.2826
3.30225
3.33457
3.45991
3.58053
3.80341
5.0178
7.66036
8.82734
10.6863
12.1407
13.2372
14.8744
16.7021
18.5907
21.2871
27.1355
3.19159
3.22099
3.23775
3.24944
3.26096
3.27398
3.28361
3.30123
3.3359
3.45996
3.58184
3.82033
5.09835
7.69946
9.45636
11.3769
12.6406
13.7125
15.5278
17.4068
19.7835
24.4853
32.6745
3.19116
3.22179
3.23797
3.25061
3.26087
3.27215
3.28207
3.30127
3.33743
3.46262
3.58089
3.83514
5.21651
7.74952
9.84139
12.0503
12.9527
14.5184
16.7714
19.5183
23.0144
29.3077
38.7669
3.19083
3.22151
3.23797
3.2498
3.2606
3.27194
3.28251
3.30119
3.33886
3.46491
3.59212
3.84553
5.31269
7.9371
11.1369
13.1132
14.2824
15.704
18.4086
21.2352
25.3983
33.0282
46.7118
3.19044
3.22091
3.23797
3.24983
3.26299
3.2723
3.2821
3.30128
3.34002
3.46958
3.59346
3.86464
5.44353
8.0119
12.0987
14.0612
15.8433
17.7476
20.0783
24.5017
30.901
41.4006
53.926
3.19387
3.22103
3.23837
3.24687
3.2616
3.27006
3.28181
3.30199
3.34064
3.47211
3.58862
3.88071
5.52536
8.39188
14.1129
16.3255
17.9994
19.5198
23.2273
27.3801
33.5903
48.2641
65.6454
3.19043
3.2184
3.23767
3.24615
3.26125
3.26998
3.28168
3.30038
3.34165
3.47828
3.60183
3.90397
5.64984
8.54161
15.4487
18.0524
20.174
22.2344
24.6431
30.3453
40.7058
56.4339
75.6708
3.18901
3.21901
3.23752
3.24747
3.26136
3.27124
3.28216
3.30018
3.34153
3.4821
3.60416
3.93815
5.96332
9.2349
16.9935
20.1336
21.799
23.5627
27.8427
34.6432
44.135
64.4948
81.4215
3.18824
3.21793
3.23371
3.2444
3.26094
3.27098
3.27992
3.30059
3.3422
3.48991
3.60182
3.97765
6.18894
10.8022
18.8783
21.7656
23.8404
26.4256
30.0916
36.4653
49.4293
72.2535
85.7645
3.18946
3.21727
3.23288
3.24385
3.25958
3.27057
3.27963
3.29856
3.34306
3.49371
3.60713
4.01966
7.17708
13.4326
21.6369
24.3997
25.7281
27.81
31.9681
40.7927
57.5612
78.5656
86.7453
3.18905
3.21287
3.23249
3.24372
3.25952
3.26842
3.27865
3.2982
3.34339
3.49823
3.61854
4.08608
7.8682
17.8005
23.5718
26.1228
27.3283
29.5427
34.8581
49.2171
63.3039
80.697
87.5055
3.18713
3.21036
3.23078
3.24375
3.25583
3.26705
3.27846
3.29848
3.34406
3.50334
3.6403
4.15543
9.56704
21.4677
26.25
28.2222
29.9482
33.1686
42.524
52.5763
66.6981
81.2136
90.3691
3.18557
3.20938
3.22852
3.23965
3.25493
3.26633
3.27761
3.29616
3.34454
3.50506
3.6473
4.21365
11.3402
24.2433
28.3598
30.257
32.4412
36.9689
46.0834
54.7788
66.6248
80.1075
88.5583
3.17996
3.20721
3.22818
3.23915
3.25311
3.26276
3.27735
3.29594
3.34561
3.50611
3.6494
4.31488
13.9392
27.1958
30.2743
31.7212
34.5546
39.3331
47.6184
58.4496
69.2748
80.7445
88.3492
3.17635
3.20624
3.23012
3.24007
3.25191
3.26217
3.27809
3.29654
3.34627
3.50849
3.64808
4.44289
16.2597
27.7695
30.7862
33.2634
36.1987
40.6616
49.0525
58.5459
68.3152
80.1562
84.5257
3.17498
3.20686
3.22901
3.24069
3.25065
3.26287
3.27832
3.29684
3.34791
3.51867
3.66171
4.63092
17.4606
28.154
31.2724
33.7372
37.1711
40.9309
48.3924
59.8443
67.3717
74.1673
76.751
3.17207
3.2071
3.22654
3.23846
3.2502
3.26297
3.27623
3.29513
3.34866
3.5221
3.67783
4.74355
19.4133
28.4262
31.3973
33.9769
37.6001
41.431
48.9896
57.8901
62.8236
68.2509
71.0049
3.17021
3.20534
3.22317
3.23581
3.25217
3.26179
3.27323
3.29209
3.35126
3.52641
3.71652
5.16809
22.5051
28.2449
30.0233
33.4616
38.108
41.2256
47.096
53.8558
57.6235
61.4924
63.6562
3.17168
3.20086
3.21979
3.23324
3.25158
3.25652
3.26815
3.2908
3.34996
3.51906
3.73253
5.20431
23.1763
27.4962
28.2677
31.9744
37.9422
39.9117
43.3125
48.4488
51.2832
54.8837
56.9034
3.1697
3.19674
3.21428
3.22917
3.2485
3.25319
3.26626
3.29125
3.34773
3.50805
3.7411
5.21242
22.7297
25.329
26.4685
30.153
37.1993
38.6993
40.5139
43.8729
45.6803
48.2489
50.4756
3.1642
3.18986
3.21091
3.2252
3.24344
3.24808
3.26652
3.28889
3.34373
3.4962
3.75881
5.21579
22.7414
24.624
25.2083
28.9008
35.2683
36.8711
38.1393
40.0775
41.651
44.3726
45.8339
3.15457
3.18396
3.21035
3.21923
3.23347
3.24319
3.26318
3.28572
3.34
3.4825
3.79013
5.24457
22.7265
24.6408
24.6495
27.9014
33.3054
34.8048
35.8072
36.8435
38.0716
39.8319
40.9539
3.14061
3.17846
3.20482
3.20985
3.22881
3.24117
3.25755
3.28123
3.33584
3.47009
3.81175
5.39554
22.6365
24.1738
24.6822
26.98
30.9066
32.0349
32.863
33.5672
34.1979
35.2106
36.2892
3.13619
3.17216
3.19688
3.19643
3.21945
3.23563
3.25191
3.27636
3.3322
3.4624
3.82103
5.51836
20.4239
24.3887
24.3535
25.7909
28.8206
29.4819
29.735
30.2709
30.4708
31.6666
32.8114
3.13781
3.16595
3.18576
3.19151
3.2187
3.22613
3.24522
3.26983
3.3276
3.45197
3.85096
5.86758
20.8297
24.2718
23.3357
24.9459
27.3631
27.0191
27.1075
27.7107
28.2393
29.4462
30.3113
3.13195
3.15384
3.17552
3.19098
3.2123
3.21738
3.23846
3.26305
3.32355
3.44849
3.88538
6.30597
20.7585
24.1218
21.8775
24.2616
25.2591
24.877
24.5129
26.8404
26.9428
27.7309
28.1666
3.12089
3.13838
3.16527
3.18076
3.20258
3.20847
3.22935
3.25404
3.31798
3.44926
3.96698
7.07755
18.2746
22.7446
22.7672
23.348
23.3228
22.7412
23.397
25.3573
25.732
25.9647
25.0538
3.10743
3.12313
3.15293
3.16858
3.1918
3.19847
3.2195
3.2448
3.31343
3.45935
4.03388
7.68905
18.2718
20.2399
21.7668
21.8037
21.5145
21.1905
23.3546
23.7621
24.3034
23.9704
22.7676
3.0902
3.10956
3.13582
3.15344
3.17749
3.18312
3.20616
3.2325
3.30645
3.46452
4.09024
7.90801
16.9829
20.9012
19.7195
19.8165
19.4251
20.4237
22.1407
22.9327
23.2199
22.6407
21.4162
3.07121
3.09549
3.11764
3.13787
3.16199
3.16626
3.1921
3.22014
3.3017
3.51629
4.21205
8.0635
14.7919
18.7529
17.7607
17.8831
19.0619
19.5192
21.3963
22.2861
22.2676
21.5764
20.3903
3.04714
3.07633
3.09582
3.1181
3.1418
3.14588
3.17359
3.20375
3.2931
3.54075
4.28583
8.87072
14.4628
16.4616
16.3397
16.8407
18.1046
19.096
20.9933
21.5742
21.4326
20.7786
19.397
3.02084
3.05492
3.0737
3.09713
3.12034
3.12612
3.15459
3.18768
3.28673
3.62601
4.51314
9.70067
13.2833
14.8055
15.1372
15.5217
17.3887
18.8396
20.5672
20.8676
20.638
19.9914
18.5341
2.98873
3.02669
3.04634
3.07005
3.09266
3.10139
3.12954
3.16603
3.27185
3.70304
4.71633
8.98706
14.7189
13.5763
13.9466
14.8044
17.2043
18.5615
19.895
19.9881
19.7524
19.1252
17.8713
2.95541
2.99623
3.01802
3.04168
3.06376
3.07636
3.10407
3.1449
3.25738
3.86309
5.32405
8.40821
13.9494
12.5984
12.948
14.4537
16.7169
18.2564
19.2203
19.2942
18.9315
18.4216
16.8185
2.91559
2.9577
2.98213
3.00517
3.02662
3.04298
3.07008
3.11539
3.2285
3.93813
5.54425
7.58445
12.456
11.0266
12.5028
14.1571
16.3005
17.9331
18.5391
18.4618
18.2404
17.274
15.1363
2.87529
2.91805
2.94508
2.96741
2.98853
3.0088
3.03594
3.08625
3.20386
4.35937
5.68861
7.5544
10.7283
10.3339
12.1819
13.8378
15.8687
17.2703
17.4334
17.459
16.9924
15.6291
13.2418
2.82635
2.86893
2.89784
2.91874
2.93953
2.96289
2.99006
3.04452
3.15814
4.16682
6.00682
7.31903
9.24928
9.91037
11.8365
13.534
15.3466
16.3214
16.3657
16.307
15.6254
13.8913
10.9939
2.77731
2.82012
2.85
2.86986
2.89094
2.91726
2.94524
3.00354
3.11771
4.60281
6.68054
6.99915
8.20168
9.64089
11.5149
13.1041
14.7122
15.4042
15.3563
15.1399
14.1763
11.8397
8.56425
2.71643
2.75892
2.78876
2.80719
2.82838
2.85621
2.8846
2.94501
3.0606
4.49235
6.2321
6.73732
7.52893
9.30744
11.0284
12.757
14.017
14.2408
14.1962
13.9592
12.3015
9.61378
6.32618
2.65679
2.69988
2.72893
2.74723
2.76913
2.79825
2.82783
2.89017
3.02751
5.27691
6.24981
6.4463
7.15533
9.00353
10.5717
12.2733
12.9808
13.2217
12.9946
12.4643
10.4808
7.52857
4.467
2.58132
2.62382
2.65149
2.66935
2.69113
2.71971
2.74947
2.81186
2.97125
5.39989
6.08739
6.21966
6.77856
8.51646
10.1533
11.7133
12.0179
12.1961
11.9194
10.8989
8.54254
5.27768
3.52021
2.51062
2.55379
2.57992
2.59888
2.62114
2.64945
2.6803
2.7429
2.90833
4.81137
5.92265
5.87318
6.5115
8.06067
9.78038
10.8007
10.9366
11.0686
10.6751
9.18191
6.38953
3.70051
3.11967
2.41867
2.46036
2.4844
2.50314
2.52437
2.55057
2.58086
2.64282
2.85605
5.88336
6.06499
5.7301
6.20491
7.73217
9.16524
9.85303
9.90683
9.88711
9.20309
7.24038
4.28671
3.0618
2.87552
2.33882
2.38109
2.40315
2.42306
2.44425
2.46941
2.50053
2.56179
2.81768
6.07379
6.80293
5.84895
5.84861
7.27371
8.5387
8.85801
8.85566
8.70467
7.60722
5.19801
3.15828
2.78835
2.7251
2.22922
2.26835
2.28696
2.30523
2.32426
2.34653
2.37639
2.43673
2.77635
6.09315
6.26852
5.20109
5.59375
6.99638
7.72304
7.94604
7.82612
7.47231
5.91966
3.46335
2.68701
2.57575
2.55461
2.14576
2.18593
2.20073
2.21944
2.23804
2.2592
2.2899
2.34441
2.68981
6.52201
6.54924
4.98588
5.25072
6.41473
7.04746
7.10064
6.98291
6.01822
4.0908
2.70287
2.48213
2.45195
2.44628
2.01815
2.04909
2.05908
2.07433
2.08947
2.10611
2.13623
2.2074
3.11462
7.48865
5.90614
4.45467
5.2031
6.03466
6.17281
6.09154
5.72827
4.46305
2.74615
2.32493
2.27103
2.26649
2.27369
1.94282
1.97198
1.97844
1.99261
2.00689
2.0281
2.05767
2.08549
2.7955
7.56397
6.15457
4.44906
5.27176
5.57482
5.59995
5.59812
4.85622
3.13257
2.318
2.19475
2.17788
2.17784
2.18972
1.77767
1.78573
1.78688
1.79574
1.8043
1.81132
1.85576
2.03648
4.18316
7.35196
4.55888
4.21827
4.44889
4.50491
4.32108
3.79388
2.80874
2.08888
1.92997
1.91354
1.92329
1.93579
1.94316
3.099
2.78194
2.5951
2.47124
2.39115
2.33779
2.29939
2.27813
2.25349
2.2452
2.23437
2.23525
2.24224
2.25991
2.29423
2.35097
2.44282
2.54902
2.70243
2.84874
2.99618
3.15226
3.26456
3.11021
2.78938
2.6066
2.48182
2.4015
2.35001
2.30754
2.28227
2.25734
2.24703
2.2354
2.23562
2.2419
2.25908
2.29248
2.34793
2.43271
2.54145
2.70173
2.8059
2.97614
3.0931
3.26097
3.11804
2.81017
2.62115
2.4951
2.41081
2.35739
2.31122
2.28555
2.26051
2.24795
2.2371
2.23531
2.24067
2.25575
2.28586
2.33675
2.41471
2.53364
2.65518
2.77363
2.96486
3.07248
3.2283
3.13278
2.82197
2.62848
2.50446
2.42038
2.36523
2.31854
2.29052
2.26544
2.24905
2.23859
2.23468
2.23901
2.25209
2.27924
2.32672
2.40207
2.51805
2.62271
2.77462
2.92738
3.03395
3.20028
3.14012
2.83516
2.64601
2.52527
2.43438
2.37513
2.32589
2.29356
2.26967
2.24965
2.23948
2.23411
2.23767
2.24899
2.27324
2.31619
2.3852
2.48604
2.59373
2.76609
2.87526
3.0318
3.14651
3.14843
2.84934
2.65928
2.5313
2.43741
2.3769
2.32756
2.29396
2.27086
2.24945
2.24023
2.23346
2.23598
2.24486
2.26511
2.30121
2.36389
2.44861
2.58557
2.68252
2.83714
2.93795
3.09728
3.15188
2.85699
2.66266
2.53673
2.44229
2.38149
2.33273
2.29823
2.27495
2.25294
2.24228
2.23379
2.23611
2.24413
2.26361
2.29723
2.35921
2.43895
2.56797
2.66602
2.8155
2.91783
3.07905
3.14802
2.85181
2.65756
2.52819
2.43177
2.37036
2.32455
2.29547
2.27272
2.25012
2.23894
2.22998
2.23168
2.24016
2.25916
2.29979
2.35834
2.45089
2.57255
2.68259
2.84832
2.96148
3.12692
2.96284
2.62357
2.46042
2.3665
2.30779
2.2684
2.23967
2.22463
2.21263
2.21133
2.21757
2.24163
2.29894
2.41619
2.6137
2.8334
3.13172
3.54186
3.95541
4.59091
5.04531
5.73596
6.19504
2.97418
2.6295
2.46404
2.37124
2.31244
2.27054
2.24369
2.23012
2.21468
2.20898
2.21446
2.23109
2.26874
2.35875
2.52962
2.73549
3.02183
3.41028
3.81092
4.42107
4.84965
5.51825
5.98046
2.97602
2.63326
2.46875
2.37664
2.31668
2.27536
2.24897
2.23519
2.21947
2.21202
2.21688
2.23148
2.2658
2.33276
2.46731
2.65491
2.91971
3.27387
3.67765
4.23956
4.63924
5.28199
5.74132
2.98751
2.64209
2.47312
2.38068
2.32036
2.27824
2.25283
2.23953
2.22387
2.21534
2.2192
2.23222
2.25977
2.31419
2.42186
2.58957
2.83548
3.15341
3.55389
4.04525
4.43168
5.05206
5.50993
2.98999
2.6473
2.47989
2.38739
2.32457
2.28163
2.25585
2.24146
2.22812
2.21884
2.22175
2.2328
2.25623
2.30064
2.38237
2.52248
2.74099
3.0174
3.41224
3.83018
4.2017
4.78229
5.26442
3.00191
2.65884
2.48533
2.39144
2.32959
2.2859
2.26039
2.24384
2.23223
2.22265
2.22518
2.23401
2.25541
2.2966
2.36999
2.4915
2.68401
2.92164
3.30684
3.63771
4.01498
4.58006
5.04266
3.00518
2.66572
2.49328
2.39765
2.33346
2.28855
2.26292
2.24507
2.23444
2.22485
2.22709
2.23521
2.25371
2.28884
2.3496
2.45073
2.61573
2.82451
3.17115
3.44447
3.84509
4.32586
4.76823
3.0182
2.67968
2.50248
2.40394
2.34009
2.29363
2.26804
2.24728
2.23763
2.22805
2.22904
2.23517
2.25278
2.28618
2.34352
2.43457
2.57614
2.76262
3.06544
3.31556
3.6932
4.03002
4.51902
3.02236
2.68727
2.51057
2.40904
2.34541
2.29633
2.27065
2.2494
2.23899
2.22979
2.22981
2.23467
2.25098
2.2809
2.33189
2.41434
2.54107
2.70709
2.9718
3.19934
3.49328
3.87401
4.29941
3.03695
2.70325
2.52348
2.41821
2.35195
2.30239
2.27572
2.2524
2.24119
2.23261
2.22957
2.23425
2.24992
2.27887
2.32721
2.40314
2.51645
2.67732
2.90679
3.10533
3.3779
3.71285
4.04325
3.04233
2.71043
2.53339
2.42302
2.35918
2.30589
2.27811
2.25605
2.24288
2.23553
2.22987
2.23416
2.24864
2.27557
2.32071
2.39239
2.50074
2.65481
2.84101
3.04196
3.25872
3.60518
3.84967
3.05856
2.72832
2.54696
2.43464
2.36462
2.31313
2.28322
2.25976
2.24443
2.23773
2.23075
2.23471
2.24751
2.27307
2.31571
2.38305
2.48346
2.64304
2.8015
2.99633
3.16335
3.48067
3.67747
3.06471
2.73582
2.55964
2.4409
2.37304
2.31852
2.28563
2.26402
2.24685
2.24062
2.23115
2.23445
2.24669
2.27115
2.31272
2.37823
2.47751
2.63226
2.75223
2.94548
3.10711
3.41011
3.56129
3.08039
2.75551
2.57138
2.4523
2.37761
2.32473
2.2904
2.26807
2.24843
2.24191
2.23308
2.23507
2.24563
2.26784
2.30677
2.3692
2.46515
2.6024
2.72907
2.91922
3.05488
3.30927
3.40091
3.0884
2.76289
2.58571
2.4615
2.38662
2.3325
2.29435
2.27266
2.25151
2.24405
2.23378
2.23522
2.244
2.26414
2.30114
2.36122
2.4553
2.57504
2.70797
2.87632
3.00734
3.20392
3.29274
2.88764
2.7982
2.84794
2.93434
3.0136
3.07186
3.09767
3.13912
3.16897
3.18472
3.21492
3.27285
3.35296
3.47902
3.67871
3.98903
4.38907
4.84043
5.44782
5.90998
6.2794
6.69242
7.0692
2.87744
2.76562
2.811
2.90158
2.97881
3.05049
3.0863
3.12764
3.16277
3.18017
3.21474
3.26912
3.34932
3.47454
3.67207
3.97415
4.37944
4.83365
5.44871
5.92917
6.34557
6.75333
7.17186
2.86836
2.72349
2.76921
2.86609
2.94126
3.02274
3.06203
3.11428
3.15426
3.1728
3.21043
3.26481
3.34478
3.46957
3.66317
3.95471
4.36896
4.82618
5.44411
5.9544
6.41737
6.82391
7.27958
2.86537
2.68762
2.72486
2.8235
2.90444
2.99263
3.04139
3.09074
3.14016
3.16885
3.20633
3.25956
3.33979
3.46431
3.65593
3.94091
4.35291
4.81536
5.44259
5.97962
6.49185
6.91294
7.3841
2.86893
2.65292
2.67777
2.78257
2.85771
2.95763
3.01838
3.06837
3.12574
3.16534
3.20238
3.25392
3.33392
3.45787
3.64824
3.92538
4.33547
4.8026
5.44099
5.99294
6.54285
6.9837
7.48579
2.87318
2.61958
2.63451
2.73831
2.80713
2.91912
2.98765
3.0364
3.10312
3.14915
3.19238
3.24526
3.32645
3.45044
3.63808
3.91468
4.31805
4.78649
5.44305
5.99278
6.55944
7.04357
7.56022
2.87719
2.59236
2.58338
2.68714
2.75626
2.87339
2.95527
3.00345
3.0796
3.13132
3.17519
3.23279
3.31715
3.44167
3.62875
3.89951
4.2895
4.76546
5.42796
5.99726
6.55766
7.07988
7.63116
2.88477
2.57349
2.54242
2.63795
2.69382
2.82432
2.91661
2.9637
3.05103
3.10899
3.15576
3.21677
3.30447
3.42984
3.61466
3.8898
4.26649
4.74228
5.40328
5.98966
6.55783
7.0883
7.67829
2.89096
2.55899
2.49828
2.5837
2.63628
2.7688
2.86957
2.91923
3.01835
3.07865
3.12802
3.19366
3.28827
3.41599
3.60157
3.86919
4.23705
4.71357
5.37371
5.98219
6.54035
7.08831
7.70622
2.89862
2.55824
2.46427
2.52914
2.57104
2.71183
2.81881
2.87091
2.9779
3.04647
3.09657
3.1659
3.26704
3.39718
3.58121
3.85257
4.20832
4.68846
5.33396
5.96671
6.51599
7.09344
7.70471
2.90466
2.56041
2.43541
2.47758
2.50909
2.64857
2.75644
2.81653
2.93395
3.00527
3.05862
3.13206
3.24112
3.37493
3.56145
3.83011
4.1812
4.65362
5.29559
5.9256
6.44821
7.08448
7.7114
2.9088
2.56633
2.41492
2.42728
2.45158
2.58824
2.69293
2.76108
2.88118
2.95815
3.01472
3.09247