/*--------------------------------*- C++ -*----------------------------------*\
  =========                 |
  \\      /  F ield         | OpenFOAM: The Open Source CFD Toolbox
   \\    /   O peration     | Website:  https://openfoam.org
    \\  /    A nd           | Version:  7
     \\/     M anipulation  |
\*---------------------------------------------------------------------------*/
FoamFile
{
    version     2.0;
    format      ascii;
    class       volScalarField;
    location    "50";
    object      p;
}
// * * * * * * * * * * * * * * * * * * * * * * * * * * * * * * * * * * * * * //

dimensions      [0 2 -2 0 0 0 0];

internalField   nonuniform List<scalar> 
12842
(
1.49198
1.61488
1.80925
2.13662
2.56051
3.03723
3.54113
4.0534
4.5549
5.02999
5.47405
5.89834
6.33086
6.81482
7.40209
8.13885
9.04794
10.115
11.2853
12.4767
13.5999
14.5842
15.3872
1.44506
1.60274
1.80615
2.15772
2.59671
3.06485
3.52688
3.94938
4.29707
4.54284
4.68077
4.73249
4.74804
4.80154
4.98113
5.3677
6.008
6.89452
7.96284
9.11097
10.2298
11.2301
12.0749
1.38994
1.57396
1.79654
2.17658
2.62989
3.09008
3.51313
3.84971
4.04797
4.07057
3.91386
3.61384
3.24463
2.9096
2.72801
2.80713
3.20653
3.91445
4.85158
5.89866
6.94093
7.8798
8.69965
1.32587
1.53317
1.7812
2.19146
2.65929
3.11546
3.50586
3.76286
3.81725
3.62225
3.18021
2.54499
1.81665
1.12547
0.616111
0.414827
0.584396
1.10117
1.87049
2.76386
3.67198
4.49908
5.2523
1.25298
1.49025
1.76242
2.20325
2.68533
3.14193
3.50573
3.68815
3.6019
3.19094
2.46794
1.50799
0.438971
-0.585105
-1.4001
-1.86775
-1.92922
-1.6239
-1.05774
-0.359506
0.378827
1.06418
1.72853
1.17503
1.45228
1.741
2.21398
2.70944
3.17157
3.51501
3.6283
3.40613
2.78277
1.78619
0.515016
-0.873431
-2.2069
-3.30953
-4.03697
-4.33879
-4.27017
-3.94089
-3.47135
-2.93113
-2.40917
-1.85402
1.09651
1.42141
1.71718
2.22651
2.73512
3.21098
3.54347
3.59759
3.25052
2.42474
1.16858
-0.394936
-2.07794
-3.69745
-5.07476
-6.06385
-6.62424
-6.82313
-6.76481
-6.55645
-6.24063
-5.91068
-5.48556
1.02224
1.3963
1.68953
2.23775
2.75645
3.25286
3.58256
3.5891
3.13395
2.12422
0.633151
-1.19439
-3.1399
-5.01976
-6.66205
-7.92042
-8.76133
-9.25767
-9.49936
-9.58067
-9.51361
-9.40376
-9.12639
0.944575
1.37317
1.66325
2.25756
2.7932
3.32761
3.6755
3.6626
3.13741
1.98605
0.307376
-1.73696
-3.89951
-6.00084
-7.88078
-9.39202
-10.504
-11.2886
-11.813
-12.1663
-12.3262
-12.445
-12.3043
0.873012
1.35121
1.64291
2.28581
2.84399
3.42458
3.80013
3.78252
3.21101
1.9501
0.121514
-2.10055
-4.44541
-6.73833
-8.83053
-10.5729
-11.9341
-12.9818
-13.7628
-14.3599
-14.7315
-15.0483
-15.0752
0.815698
1.33188
1.62785
2.31264
2.89209
3.51609
3.91567
3.89039
3.27307
1.90519
-0.0699324
-2.46664
-4.99466
-7.48322
-9.79416
-11.7752
-13.3943
-14.7145
-15.7649
-16.622
-17.2302
-17.7627
-17.9864
0.771328
1.31295
1.61714
2.3344
2.93338
3.59432
4.01168
3.97307
3.30861
1.83673
-0.279087
-2.84118
-5.54353
-8.21837
-10.7402
-12.9548
-14.831
-16.4266
-17.7516
-18.8751
-19.7355
-20.5043
-20.9463
0.736554
1.29241
1.60894
2.35
2.9679
3.65935
4.08995
4.03415
3.32349
1.75467
-0.490268
-3.19853
-6.05416
-8.89324
-11.6083
-14.0447
-16.1695
-18.0352
-19.6341
-21.026
-22.1493
-23.1788
-23.8664
0.708757
1.27019
1.60203
2.35988
2.99662
3.71282
4.15413
4.07925
3.3254
1.66936
-0.691206
-3.52429
-6.51143
-9.49447
-12.3881
-15.035
-17.397
-19.5232
-21.3961
-23.0636
-24.4592
-25.7688
-26.7232
0.686799
1.24827
1.59608
2.36655
3.02175
3.75838
4.20965
4.11535
3.32206
1.58846
-0.877669
-3.82039
-6.92745
-10.046
-13.1153
-15.9715
-18.5671
-20.9493
-23.1023
-25.0607
-26.736
-28.3248
-29.5482
0.668588
1.2288
1.59108
2.37268
3.04532
3.7996
4.26124
4.14786
3.31825
1.51434
-1.05321
-4.09963
-7.32727
-10.5869
-13.8453
-16.9269
-19.7684
-22.4117
-24.8543
-27.1224
-29.0812
-30.9299
-32.4262
0.652636
1.21261
1.58709
2.37954
3.06791
3.83822
4.31131
4.17971
3.31629
1.44742
-1.2224
-4.37357
-7.73129
-11.1471
-14.6199
-17.9578
-21.0735
-23.9937
-26.7365
-29.3274
-31.5718
-33.6672
-35.4548
0.638044
1.19972
1.58454
2.38754
3.08991
3.8755
4.3616
4.21327
3.31848
1.38924
-1.38647
-4.64717
-8.14823
-11.7385
-15.4546
-19.0843
-22.5081
-25.723
-28.766
-31.6617
-34.1735
-36.49
-38.5337
0.624474
1.18976
1.58373
2.39643
3.11126
3.91186
4.41289
4.25004
3.32665
1.34226
-1.54334
-4.91772
-8.57342
-12.3509
-16.3317
-20.2794
-24.0373
-27.5536
-30.8621
-33.9999
-36.7347
-39.2089
-41.4448
0.611726
1.1825
1.58486
2.40596
3.13229
3.94804
4.46631
4.29183
3.34312
1.30972
-1.68946
-5.17952
-8.99638
-12.9642
-17.2181
-21.495
-25.5999
-29.403
-32.9067
-36.2276
-39.1567
-41.6672
-43.9422
0.599891
1.1776
1.58727
2.41484
3.15171
3.98237
4.51997
4.33719
3.36664
1.29195
-1.82305
-5.42706
-9.40526
-13.5553
-18.0767
-22.6808
-27.1328
-31.1911
-34.8342
-38.322
-41.4473
-43.9359
-46.0751
0.588717
1.17535
1.59179
2.42494
3.17297
4.0197
4.58033
4.39355
3.4053
1.29825
-1.93624
-5.65076
-9.78782
-14.1049
-18.8813
-23.8056
-28.5924
-32.8748
-36.658
-40.3187
-43.6161
-46.0624
-47.8326
0.579213
1.17478
1.5952
2.43108
3.18858
4.04982
4.63497
4.44857
3.44686
1.31873
-2.03459
-5.8512
-10.1381
-14.5994
-19.6145
-24.8479
-29.9451
-34.4677
-38.4934
-42.2927
-45.4932
-47.6849
-49.1456
0.569837
1.18004
1.61
2.45574
3.23097
4.11403
4.73211
4.55428
3.54299
1.41268
-2.05588
-5.9651
-10.4014
-14.9972
-20.2421
-25.7733
-31.1813
-36.058
-40.4276
-44.2272
-47.1556
-49.2298
-50.6732
0.555943
1.18851
1.63155
2.49302
3.28986
4.19719
4.84841
4.68325
3.66452
1.54281
-2.03215
-6.02711
-10.6108
-15.3375
-20.8026
-26.6095
-32.3505
-37.7023
-42.3815
-46.114
-49.0151
-51.2386
-52.7444
0.552569
1.20548
1.66248
2.54078
3.35897
4.28722
4.96365
4.80045
3.756
1.62976
-2.06723
-6.15781
-10.8907
-15.7398
-21.4153
-27.4844
-33.5807
-39.4199
-44.4112
-48.259
-51.3995
-53.8445
-55.4305
0.55892
1.22808
1.69753
2.59057
3.42592
4.36751
5.05737
4.88333
3.79454
1.65233
-2.17601
-6.36625
-11.2406
-16.1941
-22.0732
-28.4093
-34.8646
-41.1365
-46.5274
-50.8159
-54.3736
-57.0174
-58.7584
0.56754
1.25115
1.73132
2.63686
3.48514
4.43324
5.12687
4.93273
3.78699
1.62423
-2.33636
-6.61995
-11.6152
-16.643
-22.7147
-29.3079
-36.1117
-42.7821
-48.6235
-53.5535
-57.653
-60.5485
-62.6972
0.574467
1.27195
1.76128
2.6775
3.53514
4.48475
5.17571
4.95681
3.74792
1.56644
-2.52
-6.88281
-11.9698
-17.0322
-23.2722
-30.0818
-37.2209
-44.2507
-50.5455
-56.2335
-61.1414
-64.5875
-67.3228
0.579677
1.29047
1.78782
2.71343
3.57803
4.52628
5.21133
4.96743
3.69471
1.50159
-2.69968
-7.12436
-12.2711
-17.324
-23.6963
-30.6484
-38.0559
-45.4485
-52.2856
-58.7583
-64.764
-69.3023
-72.5992
0.584301
1.30767
1.81253
2.74684
3.61716
4.56317
5.24191
4.97636
3.64331
1.44891
-2.85447
-7.32457
-12.5013
-17.5027
-23.9668
-30.9734
-38.6119
-46.4803
-53.9198
-60.8852
-67.4588
-73.0418
-77.3048
0.589271
1.32445
1.83684
2.77963
3.65539
4.59969
5.27351
4.99176
3.60409
1.4198
-2.97391
-7.4768
-12.6583
-17.5725
-24.091
-31.0835
-38.9585
-47.3022
-55.2227
-62.4851
-69.1454
-74.9683
-80.3258
0.594958
1.3413
1.86158
2.81282
3.69419
4.63793
5.30897
5.01705
3.58077
1.41682
-3.05828
-7.58694
-12.7538
-17.5534
-24.0947
-31.0349
-39.111
-47.8533
-56.1433
-63.6337
-70.2271
-76.384
-82.0379
0.601444
1.35847
1.88707
2.8467
3.73405
4.67844
5.34873
5.05217
3.57228
1.43667
-3.1142
-7.66703
-12.8042
-17.4674
-23.9983
-30.8474
-38.9962
-48.0973
-56.691
-64.2863
-70.8019
-77.1735
-82.8034
0.608557
1.37601
1.91328
2.88117
3.77473
4.72074
5.39184
5.09518
3.5752
1.47332
-3.15068
-7.73073
-12.8261
-17.3339
-23.8087
-30.5188
-38.6259
-48.0672
-56.7727
-64.3031
-70.9664
-76.9547
-82.3774
0.616132
1.39391
1.94005
2.91597
3.81588
4.76419
5.43708
5.14379
3.58586
1.521
-3.17527
-7.7885
-12.8294
-17.1637
-23.5141
-30.0214
-38.0872
-47.8497
-56.2652
-63.3467
-70.1221
-75.7211
-80.7383
0.623942
1.4121
1.96715
2.95082
3.8571
4.80813
5.48334
5.19604
3.6012
1.57506
-3.19332
-7.84767
-12.82
-16.9658
-23.0862
-29.3456
-37.5479
-47.5113
-55.109
-61.4434
-67.9734
-73.3385
-77.9269
0.631896
1.43056
1.99442
2.9856
3.89824
4.85223
5.52995
5.25061
3.61935
1.63282
-3.20694
-7.91122
-12.7973
-16.7377
-22.4969
-28.682
-37.3546
-46.3101
-53.3526
-59.1696
-65.075
-70.0955
-74.1822
0.639893
1.44923
2.02174
3.02023
3.93918
4.89629
5.57654
5.30676
3.63931
1.69284
-3.21643
-7.98066
-12.7579
-16.47
-21.7275
-28.1845
-37.5598
-44.1618
-50.595
-56.6206
-61.8119
-66.3635
-69.9091
0.647973
1.46811
2.04909
3.05478
3.98002
4.94038
5.62305
5.36424
3.66093
1.75503
-3.21998
-8.05578
-12.6945
-16.1516
-20.7917
-27.8245
-37.38
-42.1637
-47.2884
-53.2932
-58.1409
-62.2193
-65.2978
0.656134
1.48717
2.07646
3.08933
4.02082
4.98457
5.66955
5.42299
3.68439
1.81954
-3.21551
-8.13731
-12.6002
-15.7818
-19.6907
-27.623
-36.1959
-40.2221
-44.3481
-49.99
-54.378
-57.9327
-60.6292
0.664478
1.50644
2.10391
3.12398
4.06177
5.02906
5.71619
5.48314
3.71023
1.88709
-3.20002
-8.22686
-12.4733
-15.3253
-18.3623
-27.6072
-34.4829
-38.2023
-42.2092
-47.1618
-51.1731
-54.0653
-56.1785
0.673024
1.5259
2.1315
3.15886
4.10293
5.0739
5.76305
5.54478
3.73889
1.95795
-3.17115
-8.32967
-12.3015
-14.7703
-17.3329
-27.7788
-33.012
-36.6916
-41.117
-45.0917
-48.4274
-50.9421
-52.5867
0.681868
1.54557
2.1593
3.19404
4.14442
5.11924
5.81027
5.60801
3.77095
2.03256
-3.12626
-8.45067
-12.0552
-14.1943
-17.0733
-27.7262
-31.8611
-35.442
-40.1071
-43.0307
-45.573
-47.1519
-48.2564
0.690994
1.56544
2.18735
3.22959
4.18626
5.16509
5.85788
5.67287
3.80681
2.11067
-3.06352
-8.59617
-11.6998
-13.6963
-17.3547
-26.9646
-30.6048
-33.8402
-37.9871
-39.9657
-41.6246
-42.1878
-42.9435
0.700483
1.58553
2.2157
3.26552
4.22851
5.21148
5.9059
5.73934
3.84687
2.19203
-2.98058
-8.7697
-11.2195
-13.457
-17.9057
-25.7011
-28.8312
-31.415
-34.6744
-35.6704
-36.5362
-36.6177
-36.926
0.710217
1.60579
2.24438
3.30193
4.27123
5.25854
5.95455
5.80767
3.89172
2.2762
-2.87427
-8.97378
-10.6306
-13.7495
-18.4542
-24.2158
-26.5017
-28.3639
-30.7905
-31.139
-31.4048
-31.2222
-31.0838
0.720465
1.62642
2.2736
3.33892
4.31459
5.30645
6.00403
5.87804
3.942
2.36274
-2.73921
-9.2042
-9.93098
-14.8033
-18.8759
-22.5765
-23.8011
-25.1952
-26.8329
-26.8189
-26.5377
-26.0399
-25.5531
0.730383
1.64675
2.30305
3.37653
4.35899
5.35622
6.05605
5.95246
4.00137
2.45277
-2.56039
-9.43647
-8.93553
-16.233
-19.1096
-20.8641
-20.7791
-21.6919
-22.4725
-22.1311
-21.3774
-20.5475
-19.8541
0.738901
1.66708
2.33343
3.41654
4.40755
5.41267
6.11748
6.03937
4.08173
2.55621
-2.30509
-9.58961
-7.36796
-17.4805
-18.9553
-18.4702
-16.7499
-16.7408
-16.5424
-15.802
-14.661
-13.6412
-12.9016
0.749719
1.68954
2.36725
3.46153
4.46341
5.47964
6.19265
6.14174
4.18409
2.66745
-1.97954
-9.66572
-5.43334
-18.3225
-18.1665
-15.1138
-11.6775
-10.3248
-9.10006
-7.86364
-6.37562
-5.45309
-4.85216
0.763167
1.71449
2.40509
3.5121
4.52715
5.55726
6.2804
6.25468
4.29724
2.76602
-1.62316
-9.77395
-3.70321
-18.6058
-16.6959
-11.1652
-6.44035
-3.74331
-1.54413
0.180909
1.91458
2.37327
2.78007
0.777942
1.74096
2.44587
3.56699
4.59688
5.64232
6.37518
6.36804
4.40359
2.82467
-1.29371
-10.0138
-2.54777
-18.5825
-15.0028
-7.18876
-1.88955
1.7434
4.70142
6.76908
8.48116
8.13429
8.32553
0.79337
1.76838
2.48879
3.625
4.67081
5.73187
6.47215
6.47359
4.48878
2.82318
-1.03971
-10.4324
-2.18182
-18.6293
-13.5028
-3.77497
1.52999
5.5536
8.89213
11.0587
12.291
10.9237
10.7994
0.809242
1.79637
2.53297
3.68478
4.74668
5.82247
6.56642
6.56474
4.54411
2.75484
-0.889438
-11.0151
-2.60269
-18.7135
-12.5031
-1.5117
3.46982
7.4012
10.7877
12.7358
13.008
10.6027
9.97138
0.82549
1.82476
2.57817
3.74588
4.82396
5.91334
6.65698
6.64039
4.56769
2.62164
-0.844679
-11.7508
-3.72099
-18.7125
-11.8556
-0.397656
4.15891
7.67641
10.841
12.129
11.1561
7.83486
6.49528
0.842363
1.85399
2.62468
3.8088
4.90319
6.0053
6.74553
6.70503
4.56818
2.44176
-0.893699
-12.5708
-5.21837
-18.5106
-11.3498
-0.0290639
4.09525
7.11005
9.75344
10.0786
7.82715
3.69508
1.57651
0.860505
1.88431
2.67302
3.87341
4.98383
6.0971
6.83071
6.75876
4.54947
2.23247
-1.02191
-13.5253
-7.17252
-18.5354
-11.509
-0.603821
3.03583
5.34149
7.00619
6.19035
2.82395
-2.04635
-4.8551
0.878155
1.91385
2.72004
3.93582
5.0605
6.1817
6.90359
6.79126
4.50033
1.98414
-1.23146
-14.5713
-9.38887
-18.9231
-12.399
-2.08782
0.984277
2.3273
2.7946
0.859308
-3.27692
-8.54956
-11.8346
0.894902
1.94212
2.76496
3.99514
5.13239
6.25878
6.96495
6.80592
4.42772
1.71122
-1.4874
-15.6323
-11.6438
-19.5565
-13.6206
-4.02914
-1.43513
-1.15194
-1.67527
-4.45321
-8.96744
-14.1048
-17.4214
0.911282
1.96976
2.80878
4.05279
5.20154
6.33149
7.01998
6.81184
4.34674
1.44011
-1.74183
-16.6233
-13.7501
-20.3955
-14.9591
-6.1613
-3.95603
-4.53916
-5.69423
-8.7941
-13.2392
-17.5851
-20.2934
0.927684
1.99725
2.85221
4.1097
5.26944
6.4022
7.07269
6.81619
4.26965
1.19212
-1.9566
-17.4744
-15.5733
-21.3828
-16.3145
-8.29612
-6.48425
-7.21939
-8.96549
-11.9071
-15.7615
-18.7341
-20.3365
0.944112
2.02464
2.89544
4.16625
5.33669
6.47197
7.12498
6.8226
4.20275
0.977452
-2.11235
-18.1474
-17.0449
-22.4516
-17.6261
-10.2964
-8.77692
-9.17502
-11.3601
-13.8247
-16.6178
-17.9204
-18.3111
0.960554
2.05196
2.93849
4.22242
5.40333
6.54103
7.17742
6.83233
4.14798
0.797851
-2.20502
-18.6344
-18.1579
-23.5296
-18.8607
-12.1696
-10.5551
-10.7267
-12.8479
-14.5511
-15.9597
-15.7291
-15.026
0.976928
2.07912
2.98128
4.27816
5.46933
6.60936
7.22996
6.84525
4.10454
0.649442
-2.24133
-18.9524
-18.9546
-24.563
-19.9638
-13.9529
-11.9038
-11.9193
-13.4793
-14.1932
-14.1245
-12.7045
-11.0365
0.993243
2.10614
3.02379
4.33336
5.53454
6.67677
7.28234
6.86083
4.07072
0.526356
-2.23258
-19.1317
-19.508
-25.5152
-20.8694
-15.5329
-13.0559
-12.6714
-13.3504
-13.0186
-11.6295
-9.29581
-6.78687
1.00944
2.13296
3.06593
4.38798
5.5989
6.74319
7.33428
6.87837
4.04445
0.421986
-2.19218
-19.2093
-19.9048
-26.3774
-21.5097
-16.7342
-14.0284
-12.9776
-12.6418
-11.3255
-8.87368
-5.83065
-2.68384
1.02554
2.15962
3.10771
4.44193
5.66232
6.80849
7.38559
6.89731
4.02398
0.330581
-2.13235
-19.2205
-20.2493
-27.256
-21.8827
-17.5446
-14.7014
-12.9016
-11.5867
-9.39957
-6.1307
-2.57784
0.982102
1.04148
2.18605
3.14905
4.49524
5.72481
6.87268
7.43613
6.91714
4.00774
0.247111
-2.06409
-19.2
-20.5719
-28.2116
-22.1467
-18.0498
-15.0201
-12.5336
-10.3804
-7.45147
-3.61799
0.219316
3.99206
1.0573
2.21231
3.18998
4.54785
5.78633
6.9357
7.48577
6.93749
3.99463
0.167937
-1.99571
-19.1768
-20.8452
-29.0806
-22.4417
-18.3276
-15.0395
-11.9885
-9.16835
-5.62922
-1.47178
2.42362
6.22001
1.07296
2.23833
3.23046
4.59981
5.84692
6.99758
7.53442
6.95799
3.9837
0.0902546
-1.93353
-19.1711
-21.0678
-29.7627
-22.7709
-18.4432
-14.8537
-11.3854
-8.061
-4.0619
0.220551
4.03159
7.69808
1.08848
2.26416
3.27053
4.65107
5.90651
7.05823
7.58195
6.97837
3.97443
0.0124765
-1.88093
-19.1928
-21.2571
-30.299
-23.0753
-18.4549
-14.5572
-10.8118
-7.11656
-2.82981
1.40989
5.07156
8.49741
1.10383
2.28974
3.31012
4.70165
5.96514
7.11763
7.62823
6.99833
3.96633
-0.0663767
-1.8396
-19.245
-21.4285
-30.7263
-23.3085
-18.4215
-14.2482
-10.3425
-6.36348
-1.93554
2.11935
5.58229
8.69737
1.11904
2.3151
3.34928
4.75149
6.02268
7.17565
7.6731
7.01764
3.95927
-0.146389
-1.80905
-19.323
-21.5877
-31.0475
-23.4526
-18.3879
-14.0085
-10.047
-5.84818
-1.37859
2.45105
5.67523
8.44032
1.13408
2.34019
3.38793
4.80061
6.07916
7.23224
7.71643
7.03608
3.95311
-0.227311
-1.78797
-19.4168
-21.7338
-31.2445
-23.5005
-18.3823
-13.876
-9.94731
-5.60995
-1.18716
2.47438
5.47574
7.91003
1.14899
2.36503
3.42611
4.84891
6.13443
7.28724
7.75803
7.05348
3.94797
-0.308328
-1.7738
-19.5112
-21.861
-31.2892
-23.4412
-18.4093
-13.8746
-10.0134
-5.63279
-1.33487
2.23497
5.08076
7.25256
1.16371
2.38958
3.46375
4.8964
6.18849
7.34058
7.7978
7.06967
3.94393
-0.388557
-1.7641
-19.589
-21.9628
-31.1518
-23.2779
-18.4451
-14.032
-10.2343
-5.86387
-1.68825
1.83916
4.59892
6.57662
1.17828
2.41385
3.50086
4.94299
6.24118
7.39208
7.83556
7.08453
3.9412
-0.466844
-1.75626
-19.6309
-22.0346
-30.8277
-23.0439
-18.464
-14.3515
-10.6239
-6.24653
-2.09604
1.4472
4.15985
5.98094
1.19266
2.43779
3.53736
4.98865
6.29249
7.44171
7.8712
7.09791
3.9399
-0.542185
-1.74877
-19.6181
-22.0739
-30.3458
-22.7952
-18.4356
-14.8102
-11.1545
-6.70084
-2.45702
1.15076
3.82372
5.51611
1.20687
2.46141
3.57328
5.0333
6.34225
7.48926
7.90458
7.10969
3.94023
-0.613511
-1.7409
-19.5329
-22.0809
-29.7222
-22.6294
-18.39
-15.3504
-11.7619
-7.1441
-2.72925
0.953022
3.56834
5.16391
1.22085
2.48466
3.60852
5.07692
6.39048
7.5347
7.93559
7.11972
3.9422
-0.679992
-1.73381
-19.3625
-22.063
-28.931
-22.6266
-18.4775
-15.9401
-12.3698
-7.51056
-2.89906
0.819289
3.33495
4.85665
1.23464
2.50757
3.6431
5.1194
6.43697
7.57783
7.96407
7.12782
3.94592
-0.740837
-1.73003
-19.0987
-22.0426
-27.9643
-22.693
-18.7359
-16.5804
-12.9181
-7.78168
-3.00049
0.690948
3.09215
4.55771
1.24817
2.53006
3.67693
5.16073
6.48175
7.61863
7.98992
7.1338
3.9513
-0.79545
-1.73425
-18.7446
-22.0566
-26.8798
-22.7393
-19.112
-17.2424
-13.3558
-7.98579
-3.1061
0.502101
2.79615
4.21815
1.26148
2.55216
3.71003
5.2008
6.52463
7.65687
8.01295
7.13744
3.95833
-0.843356
-1.75259
-18.3038
-22.1712
-25.7795
-22.7938
-19.5594
-17.8654
-13.6765
-8.1618
-3.28355
0.203469
2.38877
3.77614
1.2745
2.57379
3.7423
5.2396
6.5656
7.69253
8.03305
7.13849
3.96685
-0.883974
-1.78842
-17.8617
-22.4784
-24.8175
-22.8983
-20.0395
-18.3675
-13.9245
-8.35332
-3.55379
-0.209035
1.88045
3.24921
1.28727
2.59499
3.77375
5.277
6.60446
7.72537
8.05002
7.13669
3.97679
-0.916772
-1.85049
-17.3871
-22.987
-24.087
-22.9835
-20.4644
-18.6929
-14.1615
-8.60571
-3.93041
-0.725273
1.29236
2.66205
1.29971
2.61567
3.80428
5.31299
6.64122
7.75534
8.06373
7.13176
3.98799
-0.941404
-1.96058
-16.8263
-23.6286
-23.6223
-22.8538
-20.7566
-18.8914
-14.4275
-8.95881
-4.42954
-1.34711
0.625766
2.01311
1.31187
2.63586
3.83389
5.34743
6.67566
7.78222
8.07397
7.12341
4.0004
-0.957009
-2.1396
-16.2131
-24.2145
-23.4934
-22.7158
-20.9456
-19.0804
-14.7129
-9.40901
-5.04138
-2.07548
-0.126815
1.28566
1.32366
2.65548
3.86249
5.38029
6.70776
7.80593
8.08061
7.11134
4.01395
-0.962001
-2.40226
-15.6005
-24.5747
-23.6783
-22.7209
-21.0731
-19.2898
-15.0055
-9.9046
-5.72278
-2.86643
-0.932319
0.504079
1.33514
2.67454
3.89006
5.41145
6.7373
7.82622
8.08345
7.09524
4.02873
-0.95377
-2.75505
-15.0414
-24.6594
-23.9944
-22.7696
-21.185
-19.5015
-15.3064
-10.4196
-6.43762
-3.67612
-1.75248
-0.295201
1.3462
2.69296
3.91651
5.44085
6.76425
7.84304
8.08235
7.0748
4.04486
-0.928652
-3.19638
-14.5803
-24.4777
-24.3147
-22.7572
-21.2944
-19.69
-15.6481
-10.9755
-7.17832
-4.4945
-2.58866
-1.11179
1.3569
2.71076
3.94181
5.46836
6.78837
7.85614
8.07713
7.04971
4.0628
-0.88171
-3.71714
-14.2571
-24.0804
-24.4774
-22.671
-21.3894
-19.8238
-16.0136
-11.5617
-7.92102
-5.31474
-3.43162
-1.94415
1.36715
2.72784
3.96586
5.49391
6.80962
7.86538
8.0676
7.01959
4.08274
-0.807081
-4.29422
-14.0903
-23.5867
-24.3527
-22.5801
-21.494
-19.9058
-16.3089
-12.1138
-8.62959
-6.09918
-4.23534
-2.75838
1.37696
2.74421
3.98864
5.5174
6.82783
7.87067
8.05371
6.98418
4.10622
-0.696472
-4.90721
-13.9975
-23.1191
-24.0123
-22.5057
-21.5892
-19.9561
-16.5218
-12.5782
-9.27734
-6.83078
-5.00059
-3.54523
1.38642
2.75989
4.01005
5.53865
6.84267
7.87145
8.03484
6.94276
4.13089
-0.547354
-5.50905
-13.8357
-22.6307
-23.6305
-22.4162
-21.6356
-19.9958
-16.7336
-13.0357
-9.9247
-7.56613
-5.78684
-4.3536
1.39528
2.77485
4.03032
5.55808
6.85475
7.86832
8.01095
6.89359
4.16061
-0.34674
-6.15706
-13.7952
-22.0975
-23.1735
-22.2104
-21.5162
-19.9115
-16.8294
-13.3832
-10.4545
-8.20175
-6.48743
-5.08733
1.4062
2.79097
4.05062
5.57551
6.86183
7.85567
7.97382
6.82869
4.14785
-0.191271
-6.52799
-13.2894
-21.0912
-22.3769
-21.811
-21.3558
-19.9466
-17.1143
-13.8802
-11.0859
-8.90612
-7.22862
-5.85555
1.41764
2.80541
4.06759
5.58448
6.85519
7.82285
7.91497
6.75388
4.10432
-0.154342
-6.93392
-12.8484
-20.1766
-21.5443
-21.2418
-20.7766
-19.4072
-16.8539
-13.8843
-11.2548
-9.17352
-7.55991
-6.23395
1.42515
2.81468
4.07545
5.57832
6.82506
7.75621
7.81562
6.64225
4.0004
-0.210169
-7.20978
-12.183
-18.9316
-20.5265
-20.5504
-19.9756
-18.5421
-16.2104
-13.5098
-11.0754
-9.12185
-7.59134
-6.3213
1.42774
2.81744
4.07229
5.55486
6.76849
7.65133
7.66705
6.47466
3.82174
-0.318128
-7.29054
-11.2894
-17.2865
-19.295
-19.6554
-19.0149
-17.5695
-15.3913
-12.9157
-10.6629
-8.82951
-7.37816
-6.16076
1.42794
2.81523
4.0598
5.51577
6.68758
7.5113
7.47326
6.25568
3.58906
-0.426858
-7.1672
-10.3384
-15.4829
-17.8529
-18.4077
-17.8009
-16.4406
-14.4346
-12.1658
-10.0758
-8.35759
-6.98809
-5.82546
1.42733
2.80904
4.03915
5.46207
6.58404
7.33968
7.24131
5.99888
3.3355
-0.489426
-6.83776
-9.39146
-13.6956
-16.1645
-16.8676
-16.3344
-15.0852
-13.2697
-11.2048
-9.29949
-7.73743
-6.48922
-5.41769
1.42523
2.79812
4.00936
5.39274
6.45732
7.13756
6.9761
5.71746
3.09204
-0.47172
-6.31098
-8.40346
-11.9389
-14.2874
-15.1221
-14.7128
-13.5994
-11.965
-10.1318
-8.44685
-7.06756
-5.96441
-5.00626
1.42057
2.78105
3.9685
5.30517
6.30475
6.90359
6.67998
5.42185
2.88177
-0.354821
-5.58792
-7.35009
-10.1049
-12.2669
-13.1189
-12.9102
-11.9944
-10.5744
-8.97896
-7.52467
-6.34483
-5.405
-4.58065
1.41225
2.75628
3.9143
5.19655
6.12343
6.63619
6.35509
5.12101
2.71915
-0.135953
-4.67198
-6.20888
-8.21514
-10.111
-10.9551
-10.9141
-10.1938
-8.99761
-7.67189
-6.49088
-5.555
-4.81457
-4.15797
1.39975
2.7225
3.84473
5.06406
5.91076
6.33467
6.00465
4.82239
2.60868
0.166831
-3.63267
-4.97769
-6.41008
-7.97514
-8.79521
-8.83903
-8.27955
-7.34523
-6.34665
-5.49484
-4.84421
-4.33594
-3.87852
1.38229
2.67822
3.75763
4.90542
5.66525
6.00017
5.63352
4.53122
2.54405
0.514104
-2.57148
-3.75245
-4.75569
-6.05154
-6.76913
-6.86364
-6.48837
-5.87092
-5.24981
-4.7566
-4.40308
-4.13523
-3.88563
1.35942
2.62203
3.65109
4.71856
5.38635
5.63527
5.2469
4.24811
2.50728
0.853303
-1.56814
-2.62467
-3.34922
-4.3881
-5.01887
-5.19906
-5.06286
-4.79518
-4.54448
-4.3749
-4.27921
-4.21878
-4.1487
1.33021
2.55221
3.52306
4.50222
5.07493
5.24406
4.84931
3.968
2.47109
1.12751
-0.72421
-1.66794
-2.22891
-3.07082
-3.68417
-3.99829
-4.1105
-4.1452
-4.18171
-4.2479
-4.33587
-4.42231
-4.47894
1.29402
2.46723
3.37194
4.25573
4.73298
4.83111
4.44284
3.67992
2.40331
1.28981
-0.108374
-0.952168
-1.39288
-2.15405
-2.80238
-3.24701
-3.54986
-3.78873
-4.00343
-4.20784
-4.40008
-4.5699
-4.69985
1.24973
2.36526
3.19629
3.97966
4.3639
4.40103
4.02687
3.36994
2.275
1.3139
0.245278
-0.488044
-0.875709
-1.61499
-2.29088
-2.81169
-3.21666
-3.55644
-3.8533
-4.11819
-4.35471
-4.56006
-4.7232
1.19666
2.24509
2.99566
3.67561
3.97184
3.95747
3.59853
3.02569
2.06933
1.19965
0.354819
-0.256435
-0.644103
-1.35864
-2.01572
-2.54285
-2.96846
-3.32876
-3.63962
-3.91153
-4.15056
-4.35704
-4.5237
1.13361
2.10541
2.77019
3.34668
3.56169
3.50338
3.1553
2.64193
1.78752
0.974081
0.282084
-0.215005
-0.613862
-1.27166
-1.86243
-2.34192
-2.73407
-3.06718
-3.35385
-3.60302
-3.82114
-4.00956
-4.16313
1.06028
1.94613
2.5216
2.99699
3.13846
3.04158
2.69794
2.22451
1.44898
0.683247
0.105758
-0.298935
-0.692036
-1.26325
-1.76035
-2.16602
-2.50092
-2.78707
-3.03407
-3.2491
-3.43747
-3.60035
-3.73422
0.975902
1.76756
2.25257
2.63188
2.70766
2.57643
2.23324
1.7899
1.08507
0.37634
-0.105835
-0.437582
-0.802227
-1.2742
-1.67306
-2.00101
-2.27484
-2.51063
-2.71538
-2.89406
-3.0505
-3.18616
-3.29869
0.881105
1.57181
1.96756
2.2575
2.27565
2.11529
1.77401
1.36078
0.728774
0.0922324
-0.304982
-0.575608
-0.894985
-1.27004
-1.57957
-1.8363
-2.05343
-2.24159
-2.40575
-2.54941
-2.67566
-2.78586
-2.87797
0.776444
1.36194
1.67206
1.88113
1.85052
1.6689
1.33668
0.959734
0.406385
-0.146057
-0.4668
-0.685804
-0.953428
-1.24388
-1.47994
-1.67848
-1.84883
-1.99784
-2.12853
-2.24307
-2.34396
-2.4328
-2.50835
0.664084
1.14305
1.37322
1.51122
1.44229
1.25027
0.9376
0.604698
0.134193
-0.329541
-0.583141
-0.757948
-0.974506
-1.19486
-1.37324
-1.52611
-1.65832
-1.77454
-1.87692
-1.96707
-2.04674
-2.11676
-2.17647
0.546732
0.921418
1.07927
1.15754
1.06246
0.872314
0.589728
0.30662
-0.0809348
-0.458021
-0.653593
-0.789715
-0.959002
-1.12332
-1.25735
-1.37391
-1.47511
-1.56453
-1.64383
-1.71434
-1.77672
-1.83131
-1.87793
0.428413
0.705055
0.799732
0.830982
0.722383
0.545509
0.300671
0.0691433
-0.240149
-0.537767
-0.684979
-0.788076
-0.916881
-1.0385
-1.13824
-1.22497
-1.30115
-1.36951
-1.43085
-1.48566
-1.53393
-1.57598
-1.61216
0.314126
0.502754
0.545171
0.542294
0.431813
0.276353
0.0726488
-0.109764
-0.349423
-0.578098
-0.686557
-0.763152
-0.859832
-0.949008
-1.02161
-1.08528
-1.14268
-1.19476
-1.24153
-1.28293
-1.31917
-1.35088
-1.3784
0.209097
0.324264
0.325957
0.301228
0.197493
0.067558
-0.0959229
-0.234702
-0.415433
-0.586555
-0.66404
-0.719897
-0.791456
-0.855306
-0.906547
-0.952507
-0.994769
-1.03327
-1.06755
-1.0977
-1.12409
-1.14742
-1.16766
0.119801
0.178855
0.151853
0.115423
0.0236416
-0.0806057
-0.207829
-0.310202
-0.443336
-0.568266
-0.622189
-0.662721
-0.714918
-0.759104
-0.794816
-0.828063
-0.858883
-0.88679
-0.911717
-0.933734
-0.953121
-0.970183
-0.984661
0.0504476
0.0737065
0.0295401
-0.0106005
-0.0882657
-0.16939
-0.266282
-0.340279
-0.437031
-0.526908
-0.564795
-0.594324
-0.631769
-0.661493
-0.687099
-0.711381
-0.733368
-0.753316
-0.771722
-0.788052
-0.802242
-0.814267
-0.824278
0.00856361
0.0167315
-0.033006
-0.0699813
-0.132353
-0.19326
-0.265164
-0.31723
-0.386244
-0.449915
-0.476796
-0.497735
-0.521429
-0.538715
-0.554577
-0.569582
-0.582803
-0.595294
-0.606863
-0.61698
-0.625395
-0.631918
-0.637141
-0.0232874
-0.00855976
-0.0508791
-0.0753398
-0.119248
-0.160862
-0.211972
-0.248168
-0.297809
-0.34461
-0.371655
-0.399621
-0.430521
-0.460658
-0.487895
-0.508246
-0.522916
-0.534768
-0.545174
-0.553966
-0.560733
-0.56578
-0.569839
0.0325032
0.0580204
0.0361858
0.0292519
0.0103639
-0.00566962
-0.0281244
-0.0400922
-0.0634937
-0.081833
-0.0800047
-0.0719051
-0.0589375
-0.0447911
-0.0361516
-0.0356842
-0.0419101
-0.0492043
-0.0547983
-0.058666
-0.0611035
-0.0623072
-0.0628272
0.984075
0.899612
1.03892
1.26497
1.54938
1.93676
2.50532
3.31025
4.42904
5.93806
7.85515
10.1805
12.8449
15.772
18.8555
21.9943
25.0779
28.0017
30.6702
33.0155
34.9961
36.6131
37.8831
1.04965
1.03659
1.15884
1.40109
1.7069
2.10941
2.67707
3.46359
4.53511
5.95815
7.75807
9.93681
12.4432
15.2074
18.1318
21.1126
24.0365
26.7929
29.283
31.439
33.2235
34.6509
35.7392
1.12566
1.17794
1.29721
1.54859
1.87604
2.29457
2.85959
3.6202
4.63112
5.94819
7.60056
9.59443
11.896
14.4477
17.1647
19.9479
22.6857
25.265
27.5832
29.5695
31.1858
32.4533
33.3893
1.21289
1.31478
1.44572
1.7026
2.04873
2.48328
3.04572
3.77746
4.72191
5.92343
7.41058
9.19304
11.2517
13.5442
16.0026
18.5398
21.0533
23.4337
25.5781
27.4115
28.8916
30.0385
30.8649
1.30965
1.43636
1.58782
1.85039
2.21036
2.65821
3.21693
3.91762
4.79252
5.87448
7.18783
8.74363
10.5338
12.5314
14.6874
16.9324
19.1794
21.3304
23.288
24.9746
26.3416
27.4016
28.1627
1.40664
1.52932
1.69913
1.96829
2.33625
2.79084
3.34085
4.00601
4.80778
5.76814
6.90542
8.2307
9.74385
11.4312
13.2616
15.1856
17.1346
19.0261
20.7728
22.3002
23.5564
24.5427
25.2598
1.48338
1.58606
1.76717
2.04753
2.42479
2.88367
3.42147
4.04621
4.7682
5.59839
6.54778
7.62635
8.83999
10.1873
11.6566
13.2211
14.8358
16.4381
17.9551
19.3196
20.4779
21.4155
22.1188
1.51536
1.61403
1.80401
2.10709
2.5073
2.97875
3.50749
4.08894
4.71997
5.39865
6.12702
6.91319
7.76995
8.71296
9.75714
10.908
12.1533
13.4572
14.7618
16.0004
17.1072
18.0415
18.7706
0.474532
-0.077636
0.255263
0.186205
0.367931
0.588829
0.91721
1.64021
2.75904
4.51472
6.78317
9.65441
12.8285
16.2715
19.769
23.2574
26.6009
29.7038
32.4749
34.8616
36.8433
38.4523
39.7158
0.488866
-0.0408907
0.291787
0.228154
0.423258
0.647689
0.997065
1.7252
2.85289
4.60838
6.8709
9.73543
12.9164
16.3854
19.9453
23.5335
27.0232
30.315
33.3132
35.9505
38.1923
40.0509
41.5402
0.505145
0.000224409
0.335946
0.279163
0.489995
0.721144
1.0928
1.82518
2.95929
4.70704
6.9565
9.8002
12.9734
16.448
20.0461
23.7041
27.3047
30.7464
33.9315
36.7818
39.2513
41.3334
43.0332
0.522932
0.0438073
0.386164
0.338049
0.56607
0.808817
1.20532
1.9448
3.08709
4.82559
7.06045
9.87586
13.031
16.4952
20.1093
23.8087
27.4841
31.0335
34.3581
37.3726
40.0242
42.2891
44.1693
0.542749
0.0890266
0.441505
0.404562
0.651379
0.910816
1.33595
2.0867
3.23983
4.97002
7.19001
9.97328
13.103
16.5444
20.156
23.8719
27.5897
31.207
34.6245
37.7523
40.5334
42.9326
44.9516
0.56488
0.134797
0.499598
0.476635
0.741822
1.02247
1.47935
2.24608
3.41356
5.13824
7.34536
10.0957
13.1952
16.6048
20.1978
23.9083
27.6392
31.2881
34.7548
37.9465
40.8049
43.2863
45.3957
0.589908
0.180383
0.556725
0.550426
0.830932
1.13449
1.62383
2.40957
3.59365
5.31571
7.51268
10.2319
13.3
16.6724
20.2353
23.9226
27.6418
31.2908
34.7686
37.9802
40.8672
43.3807
45.5305
0.618178
0.225304
0.608305
0.620772
0.91055
1.23561
1.75558
2.56239
3.76594
5.49105
7.68548
10.3824
13.4256
16.7637
20.2919
23.9438
27.6311
31.2524
34.7066
37.898
40.7685
43.2677
45.4108
0.649848
0.271889
0.6534
0.68716
0.979776
1.32329
1.86994
2.69766
3.92094
5.65275
7.85019
10.5336
13.5597
16.8695
20.3631
23.9734
27.6145
31.1872
34.5908
37.7302
40.5479
42.9937
45.0921
0.685183
0.324458
0.694451
0.75256
1.04205
1.39975
1.9665
2.81069
4.04829
5.78337
7.98182
10.6533
13.665
16.9501
20.4101
23.9758
27.5622
31.0727
34.4073
37.4728
40.2121
42.5777
44.5981
0.724627
0.386652
0.733703
0.819382
1.10118
1.46753
2.04614
2.89948
4.14154
5.87148
8.06173
10.7167
13.71
16.9702
20.3953
23.9144
27.4399
30.8782
34.1304
37.1064
39.7496
42.0151
43.9348
0.768507
0.461858
0.77459
0.891004
1.1635
1.53381
2.11633
2.96994
4.20488
5.91602
8.08442
10.7099
13.6746
16.9019
20.2869
23.7538
27.2123
30.5696
33.7288
36.6033
39.1376
41.2919
43.0965
0.816267
0.551729
0.820111
0.968655
1.23436
1.60621
2.18698
3.03354
4.24978
5.928
8.05677
10.6355
13.5542
16.7346
20.0678
23.4731
26.8555
30.1221
33.1774
35.9397
38.3555
40.3902
42.0734
0.866852
0.655516
0.873848
1.05262
1.3168
1.69022
2.26616
3.10026
4.28879
5.92014
7.99244
10.5046
13.3581
16.4736
19.7409
23.0726
26.3691
29.5351
32.4765
35.1164
37.4043
39.3147
40.8731
0.922269
0.771802
0.942503
1.14636
1.41561
1.79249
2.36268
3.18128
4.33628
5.91051
7.91308
10.3421
13.1139
16.1484
19.3373
22.5854
25.7883
28.8467
31.6665
34.1759
36.3282
38.1101
39.5443
0.268408
-0.450151