/*--------------------------------*- C++ -*----------------------------------*\
  =========                 |
  \\      /  F ield         | OpenFOAM: The Open Source CFD Toolbox
   \\    /   O peration     | Website:  https://openfoam.org
    \\  /    A nd           | Version:  7
     \\/     M anipulation  |
\*---------------------------------------------------------------------------*/
FoamFile
{
    version     2.0;
    format      ascii;
    class       surfaceScalarField;
    location    "50";
    object      phi;
}
// * * * * * * * * * * * * * * * * * * * * * * * * * * * * * * * * * * * * * //

dimensions      [0 3 -1 0 0 0 0];

internalField   nonuniform List<scalar> 
25449
(
65.898
57.4075
-34.0062
48.9007
42.6561
-25.6585
36.4531
31.8338
-19.3861
27.2757
23.8243
-14.647
20.4718
17.8691
-11.0652
15.4048
13.4294
-8.36251
11.6177
10.1134
-6.32626
8.77876
7.63321
-4.79427
6.64538
5.77614
-3.64275
5.03899
4.38367
-2.77728
3.82759
3.33743
-2.12602
2.91319
2.54902
-1.63461
2.22276
1.95269
-1.26225
1.70158
1.49979
-0.978601
1.30848
1.15436
-0.761252
1.01233
0.889809
-0.593651
0.78952
0.686419
-0.463608
0.622129
0.529527
-0.362135
0.496539
0.408195
-0.282602
0.402407
0.31423
-0.220099
0.331902
0.241418
-0.170912
0.279094
0.185107
-0.132299
0.141493
-0.101949
0.23955
50.2707
74.9238
37.4514
55.4755
28.0091
41.2762
21.0175
30.8159
15.8169
23.0697
11.9341
17.3123
9.02605
13.0214
6.84211
9.81712
5.19798
7.42026
3.95759
5.62405
3.02026
4.27476
2.31126
3.25801
1.7749
2.48905
1.36941
1.90527
1.06328
1.46049
0.832593
1.1205
0.659117
0.859895
0.528942
0.659703
0.431448
0.505688
0.358541
0.387139
0.30407
0.295888
0.263378
0.2258
0.171885
0.232987
37.4254
87.5826
28.0487
64.8524
21.0794
48.2456
15.8836
36.0117
11.9986
26.9547
9.08642
20.2244
6.89856
15.2092
5.25101
11.4647
4.00746
8.66381
3.06678
6.56474
2.35397
4.98758
1.81337
3.79862
1.40347
2.89896
1.09306
2.21569
0.858475
1.69508
0.68165
1.29733
0.548735
0.992815
0.449092
0.759348
0.374566
0.580217
0.31892
0.442784
0.277413
0.337397
0.246453
0.25676
0.19498
0.223359
27.4906
96.4305
20.8
71.5433
15.7506
53.295
11.9432
39.8191
9.07151
29.8264
6.90506
22.3909
5.26936
16.8449
4.03245
12.7015
3.09524
9.601
2.38357
7.2764
1.84223
5.52891
1.43021
4.21063
1.11685
3.21231
0.879016
2.45352
0.699019
1.87507
0.563256
1.43309
0.461208
1.09486
0.38474
0.835817
0.327583
0.637374
0.284934
0.485435
0.253135
0.369195
0.229425
0.280472
0.21267
0.211735
20.0728
102.37
15.4157
76.2007
11.8081
56.9027
9.03628
42.5909
6.91631
31.9464
5.30077
24.0064
4.07175
18.0739
3.13656
13.6367
2.42405
10.3135
1.88013
7.82033
1.46424
5.9448
1.1462
4.52868
0.903341
3.45517
0.718436
2.63843
0.578187
2.01532
0.472259
1.53902
0.392578
1.17455
0.332843
0.895555
0.288174
0.682046
0.254822
0.518787
0.229933
0.394087
0.211356
0.29905
0.226553
0.197474
14.6605
106.123
11.5151
79.3463
8.96753
59.4503
6.95022
44.6082
5.3737
33.5229
4.15421
25.2258
3.21633
19.0117
2.49648
14.3566
1.944
10.8659
1.51931
8.24499
1.19242
6.27166
0.940899
4.78018
0.747818
3.64823
0.60018
2.78605
0.487824
2.12767
0.402756
1.62409
0.33865
1.23865
0.290511
0.943693
0.254446
0.718111
0.227459
0.545775
0.207267
0.41428
0.192158
0.31416
0.237877
0.180835
10.7804
108.248
8.74559
81.3814
6.96543
61.2305
5.48771
46.086
4.29573
34.7148
3.35428
26.1673
2.61958
19.7464
2.04936
14.9268
1.60781
11.3075
1.26564
8.58718
1.00023
6.53708
0.794572
4.98586
0.635694
3.80712
0.513548
2.90821
0.420152
2.22107
0.349162
1.69508
0.295484
1.29234
0.255042
0.98414
0.224635
0.748521
0.201791
0.568621
0.184626
0.431447
0.171729
0.327058
0.247584
0.162023
8.03802
109.164
6.81225
82.6073
5.58138
62.4615
4.48379
47.1835
3.5591
35.6395
2.809
26.9174
2.21308
20.3423
1.74446
15.3954
1.37787
11.674
1.09113
8.87389
0.866742
6.76143
0.691445
5.16112
0.555052
3.94348
0.449565
3.01367
0.368498
2.30212
0.306618
1.75695
0.259646
1.3393
0.224102
1.01968
0.197246
0.775377
0.176949
0.588918
0.161611
0.446785
0.150009
0.33866
0.256351
0.141241
5.57825
111.031
4.1944
83.9913
3.16512
63.4908
2.40149
47.9472
1.8324
36.2086
1.40917
27.3406
1.0933
20.6582
0.85569
15.633
0.675411
11.8543
0.537033
9.01228
0.429807
6.86867
0.346421
5.24452
0.281625
4.00828
0.231486
3.06382
0.192898
2.34072
0.163414
1.78644
0.141041
1.36168
0.124132
1.0366
0.11137
0.788141
0.101729
0.598561
0.0944301
0.454084
0.0889011
0.344188
0.260576
0.0846762
3.66287
112.266
2.75289
84.9015
2.07884
64.1649
1.58167
48.4443
1.21296
36.5773
0.940626
27.6129
0.738497
20.8603
0.586684
15.7847
0.471208
11.9698
0.381872
9.10159
0.311796
6.93871
0.2566
5.29968
0.213165
4.05168
0.179165
3.09779
0.152711
2.36715
0.13231
1.80682
0.116709
1.37727
0.104827
1.04847
0.0957812
0.797185
0.0888745
0.605467
0.0835762
0.459382
0.0795085
0.348256
0.263733
0.0763518
2.25477
113.035
1.69355
85.4628
1.28055
64.5779
0.978726
48.7462
0.756862
36.7992
0.594984
27.7748
0.476068
20.9792
0.386983
15.8738
0.318848
12.0379
0.265331
9.15513
0.222375
6.98168
0.187761
5.33431
0.159912
4.07953
0.137671
3.12004
0.120035
2.38479
0.10621
1.82065
0.0954888
1.388
0.0872109
1.05675
0.0808106
0.803587
0.0758389
0.61044
0.0719442
0.463277
0.0688971
0.351303
0.266151
0.0664802
1.23347
113.462
0.925503
85.7709
0.701534
64.8019
0.540754
48.9069
0.424813
36.9151
0.342495
27.8571
0.283495
21.0382
0.23958
15.9177
0.205527
12.0719
0.177811
9.18282
0.15438
7.00508
0.134582
5.35408
0.117932
4.09614
0.104108
3.13384
0.0927423
2.39613
0.0835564
1.82982
0.0762483
1.39529
0.0704724
1.06252
0.0658939
0.808163
0.0622445
0.614088
0.0593033
0.466218
0.0569431
0.353664
0.268072
0.0550214
0.505081
113.646
0.377754
85.8982
0.288053
64.8916
0.227089
48.9679
0.185989
36.9562
0.159777
27.8834
0.143018
21.055
0.130966
15.9298
0.120957
12.0819
0.111469
9.19234
0.10182
7.01475
0.0924768
5.36344
0.0837062
4.10493
0.0757708
3.14179
0.0687496
2.40316
0.0627392
1.83583
0.057741
1.40029
0.0536454
1.06662
0.0502843
0.811525
0.047516
0.616857
0.0452125
0.468521
0.0433121
0.355565
0.269661
0.0417237
-0.00300435
113.658
-0.00431394
85.8996
-0.00101458
64.8883
0.00684662
48.96
0.0172177
36.9458
0.0295061
27.8711
0.0417327
21.0427
0.0515685
15.9199
0.0580799
12.0754
0.0611384
9.18926
0.0609592
7.0149
0.0587921
5.36558
0.0553952
4.10829
0.0514338
3.14572
0.0472923
2.40728
0.0433394
1.83976
0.0398046
1.40381
0.0367609
1.06966
0.03416
0.814122
0.0319425
0.619072
0.0300434
0.470419
0.0284366
0.357171
0.271037
0.0270602
-0.347238
113.556
-0.263199
85.8156
-0.197622
64.8227
-0.144021
48.9064
-0.0996071
36.9014
-0.061951
27.8334
-0.0306226
21.0114
-0.00631118
15.8956
0.0111424
12.0579
0.022543
9.17789
0.0286455
7.00882
0.0312374
5.36301
0.0313751
4.10817
0.029983
3.14713
0.0276421
2.40963
0.0249184
1.84249
0.0222165
1.40652
0.019757
1.07212
0.0175811
0.816298
0.0156777
0.620974
0.014021
0.472077
0.0126013
0.358591
0.272274
0.0113641
-0.570352
113.377
-0.431259
85.6766
-0.326124
64.7176
-0.2438
48.8241
-0.178178
36.8358
-0.124794
27.78
-0.0816079
20.9682
-0.0482585
15.8623
-0.0239556
12.0336
-0.00729291
9.16121
0.0027448
6.99875
0.00830408
5.35742
0.0106064
4.10583
0.0107383
3.14697
0.00939629
2.41095
0.00728893
1.84458
0.0049558
1.40884
0.00274354
1.07432
0.000762466
0.818274
-0.000972134
0.622707
-0.00248087
0.473584
-0.00376344
0.359874
0.273414
-0.00490391
-0.705648
113.151
-0.533429
85.5043
-0.405173
64.5893
-0.30644
48.7254
-0.228897
36.7582
-0.166755
27.7179
-0.116944
20.9184
-0.0784772
15.8238
-0.0502776
12.0054
-0.0305715
9.14153
-0.0182808
6.98649
-0.0110277
5.3502
-0.00753325
4.10236
-0.00662272
3.14607
-0.00754241
2.41188
-0.00947917
1.84652
-0.0117867
1.41115
-0.0140118
1.07655
-0.0159878
0.82025
-0.0176883
0.624406
-0.0191307
0.475027
-0.0203241
0.361067
0.274465
-0.0213752
-0.776146
112.9
-0.586965
85.3152
-0.447682
64.45
-0.341601
48.6193
-0.258966
36.6756
-0.193187
27.6521
-0.14059
20.8658
-0.0998752
15.7831
-0.0699352
11.9754
-0.0487999
9.12038
-0.035481
6.97315
-0.0274566
5.34215
-0.0234678
4.09834
-0.0223097
3.14489
-0.0232195
2.41276
-0.0253092
1.84859
-0.0278454
1.41367
-0.030278
1.07897
-0.0323806
0.822347
-0.0341196
0.626142
-0.0355145
0.47642
-0.0366171
0.362169
0.275401
-0.0375543
-0.801351
112.639
-0.606521
85.1203
-0.464639
64.3081
-0.357518
48.5122
-0.274534
36.5926
-0.208661
27.5863
-0.155923
20.8131
-0.114923
15.7421
-0.0847186
11.9452
-0.0632525
9.09895
-0.0497439
6.95967
-0.0415763
5.33401
-0.0375678
4.09436
-0.0365233
3.14386
-0.0377093
2.41396
-0.0401841
1.85107
-0.0431384
1.41663
-0.0459299
1.08177
-0.0482555
0.824673
-0.0500766
0.627961
-0.0514356
0.477779
-0.052439
0.363172
0.276173
-0.0532119
-0.794921
112.377
-0.602358
84.9278
-0.463755
64.1696
-0.359994
48.4084
-0.279962
36.5126
-0.21646
27.5228
-0.165409
20.762
-0.125473
15.7021
-0.0960139
11.9158
-0.0749552
9.07788
-0.0618203
6.94652
-0.053925
5.32609
-0.0502072
4.09062
-0.0495114
3.14314
-0.0511665
2.41559
-0.054195
1.85408
-0.0577203
1.42014
-0.0610059
1.08504
-0.0636496
0.82731
-0.0655918
0.6299
-0.0669299
0.479116
-0.0678293
0.364071
0.276742
-0.0683999
-0.770283
112.121
-0.584619
84.7421
-0.452703
64.0376
-0.354829
48.3105
-0.279623
36.4374
-0.219858
27.463
-0.171483
20.7136
-0.133319
15.664
-0.105143
11.8876
-0.0848826
9.05765
-0.0724351
6.9341
-0.065039
5.31873
-0.0617764
4.08738
-0.0615487
3.14294
-0.0637741
2.41784
-0.0674583
1.85777
-0.0716651
1.42436
-0.0755579
1.08894
-0.0786252
0.830376
-0.0807605
0.632038
-0.0821083
0.480463
-0.0829116
0.364875
0.27709
-0.0832627
-0.730067
111.876
-0.555199
84.5673
-0.432869
63.9153
-0.343077
48.2207
-0.274363
36.3687
-0.219597
27.4082
-0.174818
20.6689
-0.139063
15.6282
-0.112643
11.8611
-0.0934812
9.03848
-0.081936
6.92254
-0.0751719
5.31194
-0.0724441
4.08463
-0.0727342
3.14321
-0.0755848
2.42067
-0.080007
1.86218
-0.0850057
1.42935
-0.0896422
1.09357
-0.0933155
0.834046
-0.0958434
0.63456
-0.0973399
0.481963
-0.0981206
0.365651
0.277304
-0.0983331
-0.679218
111.645
-0.51794
84.4059
-0.407177
63.8045
-0.326834
48.1404
-0.265567
36.3074
-0.216431
27.3591
-0.175728
20.6282
-0.142852
15.5954
-0.118604
11.8369
-0.100816
9.02072
-0.0903973
6.91216
-0.0844276
5.30601
-0.0823549
4.0826
-0.0832432
3.14412
-0.0867735
2.42422
-0.0919948
1.86742
-0.0978748
1.43524
-0.103413
1.09911
-0.107937
0.838568
-0.111145
0.637773
-0.113132
0.483949
-0.114228
0.366746
0.277729
-0.114656
-0.729148
111.431
-0.569668
84.2465
-0.453297
63.6882
-0.366443
48.0535
-0.300543
36.2415
-0.249445
27.308
-0.209117
20.5878
-0.177028
15.5633
-0.152288
11.8121
-0.133596
9.00202
-0.120885
6.89944
-0.112341
5.29745
-0.107479
4.07772
-0.105903
3.14253
-0.107633
2.42593
-0.111919
1.87169
-0.117692
1.441
-0.123875
1.10529
-0.129533
0.844223
-0.133963
0.642198
-0.137012
0.486997
-0.138907
0.368639
0.278683
-0.139866
-0.708743
111.227
-0.557682
84.0954
-0.447362
63.5778
-0.364938
47.9711
-0.302302
36.1789
-0.253619
27.2593
-0.215037
20.5493
-0.1841
15.5324
-0.160159
11.7882
-0.141958
8.98386
-0.129534
6.88705
-0.121035
5.28899
-0.115987
4.0727
-0.114104
3.14068
-0.115572
2.42742
-0.119729
1.87586
-0.125614
1.4469
-0.132327
1.11201
-0.138908
0.850803
-0.144469
0.647765
-0.148662
0.491187
-0.151434
0.371411
0.28011
-0.152866
-0.688778
111.036
-0.545657
83.9523
-0.441029
63.4732
-0.36276
47.8928
-0.303184
36.1193
-0.256756
27.2129
-0.219799
20.5123
-0.189948
15.5025
-0.166757
11.765
-0.148999
8.9661
-0.136805
6.87485
-0.128296
5.28047
-0.122989
4.06739
-0.120716
3.13839
-0.121806
2.4285
-0.125683
1.87973
-0.131589
1.4528
-0.138806
1.11922
-0.146362
0.858358
-0.153355
0.654753
-0.159235
0.497067
-0.163622
0.375797
0.283027
-0.166543
-0.669284
110.854
-0.533682
83.8166
-0.434434
63.3739
-0.360092
47.8185
-0.30341
36.0626
-0.259114
27.1686
-0.223694
20.4769
-0.194867
15.4737
-0.172371
11.7425
-0.155016
8.94877
-0.143
6.86287
-0.134432
5.27194
-0.128787
4.06178
-0.126024
3.13566
-0.126598
2.4291
-0.130015
1.88316
-0.135786
1.45858
-0.143339
1.12678
-0.15176
0.866779
-0.16029
0.66329
-0.168269
0.505043
-0.175135
0.382664
0.28886
-0.180972
-0.650284
110.683
-0.521822
83.6882
-0.427677
63.2798
-0.357061
47.7478
-0.303127
36.0087
-0.260857
27.1263
-0.226899
20.4429
-0.199042
15.4458
-0.177191
11.7206
-0.160202
8.93178
-0.148319
6.85098
-0.139647
5.26326
-0.133585
4.05571
-0.130228
3.13229
-0.130142
2.429
-0.132894
1.8859
-0.138261
1.46394
-0.1458
1.13431
-0.154688
0.875668
-0.164316
0.672912
-0.174005
0.514731
-0.183175
0.391833
0.297465
-0.191782
-0.63179
110.521
-0.510125
83.5665
-0.420832
63.1905
-0.353759
47.6808
-0.302442
35.9574
-0.262103
27.086
-0.22954
20.4104
-0.202606
15.4189
-0.181353
11.6994
-0.164698
8.91516
-0.152908
6.83923
-0.144092
5.25448
-0.137531
4.04919
-0.133478
3.12827
-0.132583
2.42814
-0.134441
1.88778
-0.139036
1.46855
-0.146043
1.14133
-0.154725
0.88435
-0.164418
0.682612
-0.174531
0.524842
-0.184535
0.40184
0.306991
-0.194063
-0.613808
110.368
-0.498623
83.4513
-0.413952
63.1058
-0.350254
47.6171
-0.301434
35.9086
-0.262941
27.0475
-0.231712
20.3791
-0.205657
15.3929
-0.184963
11.6787
-0.168613
8.89881
-0.156879
6.82749
-0.147879
5.24548
-0.140738
4.04205
-0.135891
3.12342
-0.13403
2.42627
-0.134754
1.8885
-0.138165
1.47195
-0.144001
1.14716
-0.1516
0.891953
-0.160166
0.691171
-0.169083
0.533758
-0.178005
0.410763
0.315321
-0.186335
-0.596339
110.224
-0.48734
83.3423
-0.407078
63.0255
-0.346602
47.5566
-0.300169
35.8622
-0.263442
27.0108
-0.233492
20.3492
-0.208277
15.3677
-0.188104
11.6585
-0.172034
8.88277
-0.160322
6.81582
-0.151105
5.2363
-0.143304
4.03429
-0.137575
3.11773
-0.134591
2.42332
-0.133949
1.88788
-0.135765
1.47378
-0.139748
1.15116
-0.145281
0.897488
-0.151599
0.697493
-0.158096
0.540254
-0.164456
0.417125
0.321015
-0.170149
-0.579377
110.088
-0.476293
83.2392
-0.400243
62.9495
-0.342846
47.4992
-0.298696
35.818
-0.263663
26.9758
-0.23494
20.3205
-0.210529
15.3433
-0.190841
11.6388
-0.17503
8.86696
-0.163311
6.8041
-0.153847
5.22684
-0.145311
4.02575
-0.138627
3.11105
-0.13437
2.41906
-0.132138
1.88564
-0.131993
1.47363
-0.133603
1.15277
-0.136317
0.900207
-0.139504
0.700673
-0.142745
0.543494
-0.145796
0.420176
0.32351
-0.148289
-0.562919
109.96
-0.465494
83.1418
-0.393472
62.8775
-0.33902
47.4448
-0.297058
35.7761
-0.263651
26.9424
-0.236107
20.2929
-0.212469
15.3196
-0.193234
11.6196
-0.177662
8.85142
-0.16591
6.79238
-0.156178
5.21715
-0.146834
4.01645
-0.139139
3.10339
-0.133462
2.41341
-0.129452
1.88166
-0.127089
1.47129
-0.126005
1.15171
-0.1255
0.899706
-0.125156
0.700333
-0.124721
0.543058
-0.124247
0.419703
0.322812
-0.123545
-0.546958
109.84
-0.454953
83.0498
-0.386786
62.8093
-0.335155
47.3931
-0.295292
35.7362
-0.263447
26.9105
-0.237039
20.2665
-0.214142
15.2967
-0.195331
11.6008
-0.179984
8.83608
-0.168175
6.78058
-0.158161
5.20714
-0.147939
4.00624
-0.139192
3.09465
-0.131957
2.40618
-0.126039
1.87574
-0.121322
1.46657
-0.117413
1.1478
-0.113563
0.895864
-0.109622
0.696384
-0.105662
0.539099
-0.101924
0.415966
0.319263
-0.0983672
-0.531485
109.727
-0.444676
82.9629
-0.380202
62.7448
-0.331276
47.3442
-0.293429
35.6984
-0.263087
26.8802
-0.237774
20.2412
-0.215592
15.2746
-0.197176
11.5823
-0.182041
8.82097
-0.170157
6.76873
-0.159853
5.19687
-0.14868
3.9951
-0.138857
3.08486
-0.129957
2.39731
-0.122047
1.86785
-0.114969
1.4595
-0.10827
1.14112
-0.101235
0.888837
-0.0938698
0.68902
-0.0868234
0.532053
-0.0802812
0.409428
0.313378
-0.0743872
-0.516491
109.622
-0.434667
82.8812
-0.373735
62.6839
-0.327404
47.2979
-0.291493
35.6624
-0.262601
26.8513
-0.238344
20.2169
-0.216852
15.2531
-0.198805
11.5643
-0.183876
8.80605
-0.171899
6.75677
-0.161302
5.18628
-0.149109
3.98293
-0.138209
3.07397
-0.127568
2.38669
-0.117629
1.85792
-0.108334
1.45021
-0.0989715
1.13177
-0.0890334
0.87891
-0.0787928
0.678773
-0.0692091
0.522471
-0.0604341
0.400656
0.305679
-0.0527229
-0.501969
109.522
-0.42493
82.8041
-0.367398
62.6263
-0.323559
47.254
-0.289511
35.6284
-0.262016
26.8238
-0.238781
20.1937
-0.217955
15.2323
-0.200255
11.5466
-0.185526
8.79134
-0.17344
6.74471
-0.162559
5.17544
-0.149279
3.96968
-0.13732
3.06205
-0.124884
2.37428
-0.11296
1.84602
-0.10174
1.43901
-0.0898362
1.11989
-0.0773818
0.866465
-0.0649882
0.666379
-0.0534897
0.510974
-0.0431762
0.390347
0.296752
-0.034236
-0.487909
109.43
-0.415466
82.7317
-0.3612
62.5721
-0.319756
47.2126
-0.287502
35.5961
-0.261357
26.7977
-0.23911
20.1715
-0.218932
15.2121
-0.201555
11.5292
-0.187023
8.77682
-0.174817
6.73252
-0.163671
5.16431
-0.149238
3.95527
-0.136249
3.04908
-0.121993
2.36004
-0.108196
1.83223
-0.0953947
1.42621
-0.0811854
1.10569
-0.0666715
0.851964
-0.052807
0.65251
-0.0400235
0.498194
-0.0288307
0.379159
0.28722
-0.0192838
-0.4743
109.343
-0.406279
82.6636
-0.355152
62.5209
-0.316012
47.1734
-0.285488
35.5656
-0.260647
26.7728
-0.239359
20.1502
-0.219808
15.1926
-0.202734
11.5121
-0.188401
8.76251
-0.176065
6.72021
-0.164684
5.15296
-0.149016
3.93964
-0.13501
3.03511
-0.118981
2.34405
-0.103627
1.8169
-0.0892598
1.41186
-0.0732263
1.08968
-0.0571925
0.835941
-0.0424066
0.637722
-0.0289665
0.484757
-0.0174362
0.367635
0.277603
-0.00780252
-0.461135
109.263
-0.397367
82.5999
-0.349261
62.4729
-0.31234
47.1365
-0.283484
35.5368
-0.259907
26.7493
-0.239548
20.1298
-0.220608
15.1736
-0.203818
11.4953
-0.189688
8.7484
-0.177213
6.70776
-0.16563
5.14139
-0.148641
3.92268
-0.133598
3.02009
-0.115892
2.32636
-0.0995582
1.80058
-0.0833606
1.39567
-0.0659886
1.07232
-0.0490071
0.818973
-0.0337927
0.622504
-0.020242
0.47121
-0.00876504
0.356163
0.26823
0.000624277
-0.448402
109.188
-0.388733
82.5401
-0.343536
62.4276
-0.308754
47.1017
-0.281509
35.5095
-0.259155
26.7269
-0.239701
20.1104
-0.221356
15.1553
-0.20483
11.4788
-0.190912
8.7345
-0.178288
6.69516
-0.166545
5.12968
-0.148142
3.9043
-0.132051
3.00403
-0.112866
2.30721
-0.0959644
1.78369
-0.0779007
1.37762
-0.0596161
1.05406
-0.042224
0.801593
-0.0268275
0.607104
-0.0135595
0.457946
-0.00249042
0.345099
0.259342
0.00641453
-0.436094
109.119
-0.380376
82.4845
-0.337984
62.3853
-0.305266
47.069
-0.279579
35.4838
-0.258411
26.7057
-0.239837
20.0918
-0.222073
15.1375
-0.205794
11.4625
-0.192098
8.72082
-0.179318
6.6824
-0.167473
5.11786
-0.147514
3.88438
-0.130383
2.98693
-0.110277
2.28713
-0.0927504
1.76618
-0.0730687
1.35795
-0.0540897
1.0351
-0.0368244
0.78434
-0.0214654
0.591743
-0.00855051
0.445034
0.00197488
0.334578
0.251075
0.0102577
-0.424201
109.055
-0.372297
82.4325
-0.332612
62.3455
-0.301887
47.0383
-0.277707
35.4597
-0.257693
26.6857
-0.239975
20.0741
-0.222779
15.1204
-0.206732
11.4465
-0.193269
8.70737
-0.180326
6.66948
-0.16845
5.10601
-0.146792
3.86275
-0.128617
2.96878
-0.108324
2.26686
-0.0897789
1.74765
-0.0689169
1.3371
-0.0494122
1.01561
-0.0324451
0.767385
-0.0174299
0.576723
-0.00507087
0.43268
0.00494408
0.324568
0.243298
0.0127377
-0.412715
108.997
-0.364494
82.3843
-0.327426
62.3085
-0.298628
47.0095
-0.275908
35.437
-0.257015
26.6668
-0.240133
20.0572
-0.223494
15.1037
-0.207662
11.4307
-0.194446
8.69417
-0.18133
6.65638
-0.169509
5.09421
-0.146062
3.83933
-0.126976
2.94973
-0.106858
2.24677
-0.0868193
1.72763
-0.065347
1.31564
-0.0455835
0.995865
-0.0288017
0.750614
-0.0141825
0.562103
-0.0024487
0.420949
0.0069033
0.315221
0.236078
0.014138
-0.401627
108.943
-0.35697
82.3396
-0.322432
62.2739
-0.2955
46.9826
-0.274197
35.4157
-0.256395
26.649
-0.24033
20.0411
-0.224238
15.0877
-0.208605
11.415
-0.195656
8.68124
-0.182381
6.64313
-0.1707
5.08255
-0.145254
3.81391
-0.125684
2.93018
-0.105781
2.22689
-0.0840306
1.70589
-0.0622968
1.29391
-0.0425012
0.976084
-0.02577
0.733894
-0.0116111
0.547939
-0.000511404
0.409853
0.00818913
0.306524
0.229327
0.0149538
-0.390929
108.894
-0.349722
82.2984
-0.317635
62.2419
-0.292512
46.9574
-0.272585
35.3957
-0.255847
26.6323
-0.240581
20.0259
-0.225026
15.0721
-0.209577
11.3996
-0.19692
8.6686
-0.183522
6.62975
-0.172013
5.07107
-0.144118
3.78605
-0.124529
2.91063
-0.104936
2.20733
-0.0817734
1.68275
-0.0597655
1.27192
-0.0400417
0.956381
-0.0233461
0.717209
-0.00968249
0.534276
0.000993529
0.39918
0.00918574
0.298336
0.223053
0.0154709
-0.380613
108.85
-0.342751
82.2605
-0.313042
62.2121
-0.289675
46.9341
-0.271087
35.3772
-0.255388
26.6166
-0.240907
20.0114
-0.22588
15.0571
-0.210596
11.3843
-0.198261
8.65628
-0.184745
6.61625
-0.173447
5.05979
-0.14285
3.75548
-0.123562
2.89136
-0.104071
2.18786
-0.0799869
1.65867
-0.0576973
1.24963
-0.0382134
0.93691
-0.0215835
0.700589
-0.00831572
0.521002
0.00205056
0.388819
0.00982378
0.290565
0.217188
0.0157
-0.370672
108.811
-0.336058
82.226
-0.308657
62.1847
-0.286994
46.9124
-0.269706
35.3599
-0.255017
26.6019
-0.241296
19.9977
-0.226784
15.0426
-0.211667
11.3692
-0.199688
8.64432
-0.18603
6.60262
-0.17491
5.0487
-0.141839
3.72245
-0.12357
2.87313
-0.103718
2.16804
-0.0785275
1.63351
-0.055896
1.22702
-0.0367461
0.917783
-0.0200515
0.683906
-0.00697003
0.507932
0.00311299
0.378734
0.0105457
0.28314
0.211597
0.0161428
-0.348778
108.759
-0.309665
82.1868
-0.28132
62.1564
-0.260399
46.8915
-0.244589
35.3441
-0.231685
26.589
-0.21984
19.9858
-0.207311
15.0301
-0.193916
11.3558
-0.183399
8.63381
-0.171308
6.59054
-0.160846
5.03824
-0.129455
3.69107
-0.113505
2.85719
-0.0948458
2.14939
-0.0709652
1.60963
-0.0501959
1.20625
-0.0330381
0.900637
-0.0177151
0.668595
-0.0057669
0.495974
0.00330736
0.36968
0.00976038
0.276681
0.206704
0.0146699
-0.277387
108.719
-0.246569
82.156
-0.224267
62.1341
-0.207843
46.875
-0.195476
35.3317
-0.185413
26.579
-0.176148
19.9766
-0.166351
15.0203
-0.155574
11.345
-0.147014
8.62527
-0.137805
6.58136
-0.128538
5.02901
-0.103853
3.66642
-0.0897177
2.84309
-0.073821
2.13353
-0.0552374
1.59107
-0.0395692
1.1906
-0.0265691
0.887663
-0.0149755
0.657018
-0.00587602
0.486896
0.0010585
0.362739
0.00580509
0.27195
0.203175
0.00933676
-0.220579
108.687
-0.196283
82.1317
-0.178722
62.1165
-0.16582
46.8621
-0.156142
35.322
-0.148298
26.5711
-0.141068
19.9693
-0.133413
15.0126
-0.12477
11.3363
-0.117827
8.61833
-0.110879
6.57442
-0.102757
5.02089
-0.0837934
3.64747
-0.0709125
2.83022
-0.0571023
2.11972
-0.042725
1.57669
-0.0310896
1.17896
-0.021287
0.877869
-0.0126645
0.648401
-0.00582116
0.480048
-0.000452533
0.357385
0.00300728
0.268489
0.20066
0.00553095
-0.175361
108.662
-0.156176
82.1125
-0.142324
62.1027
-0.13217
46.852
-0.124582
35.3144
-0.118462
26.565
-0.112824
19.9637
-0.106844
15.0067
-0.0999458
11.3294
-0.0943406
8.61275
-0.089177
6.56928
-0.0820848
5.01382
-0.0671464
3.63257
-0.0556701
2.81878
-0.0440491
2.10813
-0.0329554
1.56563
-0.0243395
1.17036
-0.0169731
0.870529
-0.0106366
0.642083
-0.00554892
0.474978
-0.00141504
0.353245
0.00114074
0.265943
0.198815
0.00298998
-0.139382
108.642
-0.124212
82.0973
-0.113269
62.0917
-0.105265
46.844
-0.0993067
35.3085
-0.0945273
26.5602
-0.0901335
19.9593
-0.0854662
15.002
-0.079984
11.324
-0.0754805
8.60825
-0.0716896
6.56549
-0.0655808
5.00772
-0.0534435
3.62043
-0.043338
2.80867
-0.0338735
2.09867
-0.0254807
1.55723
-0.0191088
1.16398
-0.0135928
0.865018
-0.00898037
0.637471
-0.00523489
0.47123
-0.0020992
0.35012
-0.000127066
0.263966
0.197394
0.00129908
-0.110718
108.626
-0.0986725
82.0853
-0.0899874
62.083
-0.083646
46.8376
-0.0789431
35.3038
-0.0751942
26.5565
-0.0717634
19.9559
-0.0681193
14.9984
-0.0637809
11.3196
-0.0601876
8.60467
-0.0574324
6.56276
-0.0522964
5.00261
-0.0426002
3.61077
-0.0337189
2.79983
-0.0258733
2.09085
-0.0196594
1.55105
-0.0150081
1.15934
-0.0109361
0.860973
-0.00764259
0.634195
-0.00494162
0.468544
-0.00268128
0.347854
-0.00104268
0.262335
0.196218
0.000132595
-0.0881507
108.614
-0.078743
82.0759
-0.0719717
62.0762
-0.0670444
46.8327
-0.0634093
35.3002
-0.060529
26.5536
-0.0578944
19.9532
-0.0550724
14.9956
-0.0516475
11.3162
-0.0487851
8.60181
-0.0467846
6.56076
-0.0425236
4.99834
-0.0347416
3.60299
-0.0269675
2.79205
-0.0202832
2.08417
-0.0155589
1.54632
-0.0120868
1.15586
-0.00902902
0.857917
-0.00663126
0.631794
-0.0046436
0.466553
-0.00301314
0.346233
-0.00157242
0.260889
0.195153
-0.000503465
-0.0698165
108.604
-0.0621902
82.0683
-0.0566933
62.0708
-0.0526927
46.8287
-0.0497471
35.2972
-0.0474314
26.5513
-0.0453406
19.9512
-0.0431242
14.9934
-0.0404334
11.3135
-0.0381877
8.59959
-0.0367852
6.55938
-0.0333638
4.99495
-0.0271189
3.59678
-0.0205787
2.78554
-0.0151789
2.0788
-0.0117928
1.54296
-0.00936541
1.15345
-0.00719951
0.855776
-0.00558104
0.630191
-0.0042443
0.46523
-0.0031715
0.345154
-0.00191817
0.259643
0.194096
-0.000863105
-0.0598694
108.591
-0.0498828
82.0582
-0.0424212
62.0633
-0.0368454
46.8231
-0.0326819
35.2931
-0.0294678
26.5481
-0.0267283
19.9484
-0.023973
14.9906
-0.0207151
11.3102
-0.0178832
8.59676
-0.0159646
6.55746
-0.0128457
4.99183
-0.00589325
3.58983
0.00175055
2.7779
0.00686591
2.07368
0.00960275
1.54022
0.0114362
1.1516
0.0129019
0.854309
0.0139422
0.629144
0.0150311
0.464135
0.0162136
0.343981
0.0177074
0.258143
0.192847
0.0189602
-0.0628461
108.577
-0.05237
82.0478
-0.0445443
62.0555
-0.0387038
46.8173
-0.0343542
35.2887
-0.0310143
26.5447
-0.0281862
19.9456
-0.0253409
14.9878
-0.0219533
11.3068
-0.0190486
8.59387
-0.0171335
6.55557
-0.0137777
4.98849
-0.00635293
3.58244
0.00205729
2.76952
0.00777426
2.06799
0.0106626
1.53736
0.012475
1.1498
0.0139338
0.852873
0.0150181
0.628072
0.0161442
0.463021
0.017324
0.342795
0.0188621
0.256612
0.191619
0.0200884
-0.0659709
108.563
-0.0549811
82.0368
-0.0467729
62.0472
-0.0406547
46.8112
-0.0361103
35.2842
-0.0326393
26.5413
-0.0297198
19.9427
-0.0267831
14.9848
-0.0232653
11.3033
-0.0202896
8.5909
-0.0183926
6.55367
-0.0147832
4.98488
-0.00680782
3.57446
0.00242573
2.76028
0.00881752
2.06159
0.0118783
1.53429
0.0136794
1.14799
0.0151379
0.851411
0.0162436
0.626958
0.0173624
0.461895
0.0184899
0.341677
0.0200005
0.255097
0.190437
0.0211862
-0.0692514
108.548
-0.0577221
82.0253
-0.0491125
62.0386
-0.042703
46.8047
-0.0379544
35.2794
-0.0343468
26.5376
-0.0313329
19.9396
-0.0283032
14.9818
-0.0246539
11.2997
-0.0216106
8.58787
-0.0197505
6.55183
-0.0158731
4.98103
-0.00725116
3.56587
0.00286181
2.7502
0.00999029
2.05449
0.0132577
1.53105
0.0150546
1.14621
0.0164811
0.850005
0.0175459
0.625902
0.0185984
0.460853
0.0195942
0.340674
0.0209739
0.253724
0.189359
0.022051
-0.0726952
108.533
-0.0605999
82.0131
-0.051569
62.0296
-0.0448537
46.798
-0.0398912
35.2745
-0.036141
26.5339
-0.0330297
19.9365
-0.0299054
14.9787
-0.0261238
11.2959
-0.0230181
8.58476
-0.0212176
6.55003
-0.017059
4.97686
-0.00768371
3.55649
0.00336552
2.73914
0.0112897
2.04656
0.0148312
1.5275
0.0166043
1.14443
0.0179348
0.848669
0.018881
0.624945
0.0197885
0.459936
0.0205677
0.339904
0.0217041
0.252582
0.188448
0.0226177
-0.076311
108.516
-0.0636214
82.0005
-0.054148
62.0201
-0.0471119
46.791
-0.0419251
35.2693
-0.0380263
26.53
-0.0348146
19.9333
-0.0315942
14.9755
-0.0276801
11.292
-0.0245197
8.58162
-0.0228055
6.54833
-0.0183519
4.97243
-0.00810256
3.54628
0.00393945
2.72713
0.0127497
2.03778
0.0165956
1.52368
0.0182663
1.14277
0.01945
0.847503
0.0202196
0.624183
0.0208969
0.459269
0.0213842
0.339409
0.0221947
0.251779
0.187732
0.0229103
-0.0801067
108.499
-0.0667935
81.9871
-0.0568559
62.0102
-0.049483
46.7836
-0.0440612
35.2639
-0.0400074
26.526
-0.0366921
19.93
-0.0333743
14.9722
-0.0293281
11.2879
-0.0261226
8.57842
-0.024525
6.54673
-0.0197592
4.96766
-0.00849992
3.53501
0.00459479
2.71403
0.0143733
2.02799
0.0185
1.51954
0.0200123
1.14125
0.0209999
0.846508
0.021541
0.62363
0.0219099
0.458891
0.0220812
0.339247
0.0225266
0.251329
0.187254
0.0230073
-0.084092
108.481
-0.070124
81.9732
-0.0596988
61.9998
-0.0519726
46.7759
-0.0463047
35.2582
-0.042089
26.5217
-0.0386669
19.9266
-0.0352506
14.9688
-0.0310728
11.2837
-0.0278337
8.5752
-0.0263855
6.54531
-0.0212817
4.96258
-0.00878106
3.52255
0.00540661
2.69988
0.0160919
2.01733
0.0205206
1.51514
0.0219207
1.13987
0.0226052
0.845841
0.0228391
0.623403
0.0228406
0.458899
0.0227124
0.339368
0.0228019
0.251246
0.187043
0.0230126
-0.0882758
108.462
-0.0736207
81.9585
-0.0626837
61.9888
-0.0545868
46.7678
-0.0486607
35.2523
-0.0442762
26.5174
-0.0407439
19.923
-0.0372277
14.9653
-0.0329194
11.2794
-0.0296596
8.57193
-0.0283903
6.54403
-0.0229189
4.9571
-0.00916656
3.50879
0.00618793
2.68451
0.0178825
2.00563
0.022719
1.51029
0.0240562
1.13852
0.024304
0.845584
0.0241391
0.623556
0.023737
0.459293
0.0233362
0.339777
0.0230961
0.251481
0.187104
0.0230372
-0.0926684
108.442
-0.077292
81.9432
-0.0658177
61.9773
-0.0573317
46.7593
-0.051135
35.2461
-0.0465742
26.5128
-0.042928
19.9194
-0.0393108
14.9617
-0.0348727
11.275
-0.0316073
8.56869
-0.0305507
6.543
-0.0246823
4.95126
-0.0101306
3.49427
0.00657809
2.66783
0.0197875
1.99245
0.0251396
1.50497
0.0263862
1.13729
0.0261235
0.845862
0.0254922
0.624195
0.0246827
0.460112
0.0240071
0.340445
0.0234768
0.252018
0.187402
0.0231787
-0.09728
108.421
-0.0811464
81.927
-0.0691084
61.9653
-0.0602139
46.7504
-0.0537335
35.2396
-0.0489886
26.508
-0.0452246
19.9156
-0.0415048
14.958
-0.0369382
11.2704
-0.0336847
8.56543
-0.0328962
6.5422
-0.0265613
4.94491
-0.0107387
3.47844
0.0073401
2.64974
0.0218127
1.97796
0.0277093
1.49906
0.0288691
1.13612
0.0280955
0.846626
0.0269621
0.625319
0.0257594
0.461307
0.024802
0.341412
0.0240146
0.252801
0.187904
0.0235146
-0.102122
108.399
-0.0851935
81.9101
-0.0725632
61.9527
-0.0632403
46.7411
-0.0564625
35.2328
-0.0515251
26.5031
-0.0476392
19.9117
-0.0438152
14.9541
-0.0391213
11.2657
-0.0358999
8.56223
-0.0354284
6.54175
-0.0285102
4.93802
-0.0099484
3.45991
0.00927517
2.63055
0.0239446
1.96332
0.0303818
1.49265
0.031519
1.135
0.0302642
0.847894
0.0286139
0.626976
0.0270419
0.462889
0.0258032
0.342643
0.0247975
0.253813
0.18858
0.024122
-0.107206
108.376
-0.0894428
81.8923
-0.0761909
61.9394
-0.0664181
46.7313
-0.0593283
35.2257
-0.0541898
26.498
-0.0501777
19.9077
-0.0462476
14.9502
-0.0414282
11.2609
-0.0382598
8.55906
-0.0381156
6.5416
-0.030529
4.93042
-0.00933827
3.43871
0.0111306
2.61007
0.0261768
1.94826
0.03322
1.48559
0.0343729
1.13383
0.0326763
0.84958
0.0305136
0.629131
0.028588
0.464807
0.0270896
0.34415
0.025897
0.255001
0.189409
0.0250681
-0.112543
108.352
-0.0939043
81.8737
-0.0799998
61.9255
-0.0697549
46.721
-0.062338
35.2183
-0.0569891
26.4926
-0.0528461
19.9036
-0.0488079
14.9462
-0.0438649
11.2559
-0.0407718
8.55598
-0.0409561
6.54181
-0.0326552
4.92215
-0.0101609
3.41625
0.0119225
2.58802