/*--------------------------------*- C++ -*----------------------------------*\
  =========                 |
  \\      /  F ield         | OpenFOAM: The Open Source CFD Toolbox
   \\    /   O peration     | Website:  https://openfoam.org
    \\  /    A nd           | Version:  7
     \\/     M anipulation  |
\*---------------------------------------------------------------------------*/
FoamFile
{
    version     2.0;
    format      ascii;
    class       volVectorField;
    location    "50";
    object      U;
}
// * * * * * * * * * * * * * * * * * * * * * * * * * * * * * * * * * * * * * //

dimensions      [0 1 -1 0 0 0 0];

internalField   nonuniform List<vector> 
12842
(
(15.0117 4.30893 -5.72501e-18)
(15.0013 4.29699 -1.79657e-18)
(14.9911 4.28987 -5.24779e-19)
(14.9769 4.28263 1.33117e-18)
(14.9601 4.27491 -4.84974e-18)
(14.9422 4.26894 0)
(14.9233 4.26776 0)
(14.9025 4.27513 -1.95671e-19)
(14.8781 4.29527 9.85487e-19)
(14.8475 4.33237 -4.28779e-20)
(14.8071 4.39001 -1.77672e-19)
(14.7532 4.47051 -1.50126e-20)
(14.6827 4.57476 -2.22576e-19)
(14.5935 4.70219 -9.29552e-21)
(14.4851 4.85095 2.72928e-20)
(14.3589 5.01763 7.32746e-20)
(14.2179 5.19725 2.18383e-20)
(14.0664 5.38336 0)
(13.9102 5.56863 5.14131e-21)
(13.7553 5.7459 2.99682e-20)
(13.6076 5.90789 1.0992e-20)
(13.4724 6.0522 -2.88227e-20)
(13.3516 6.16863 2.83005e-20)
(15.0093 4.31144 4.61965e-18)
(14.9948 4.30531 0)
(14.983 4.30054 -6.07717e-18)
(14.9667 4.29439 3.2489e-18)
(14.9489 4.28701 3.88349e-18)
(14.9322 4.28077 0)
(14.9174 4.2791 -3.15913e-18)
(14.9044 4.28642 0)
(14.892 4.30774 -1.04765e-18)
(14.8774 4.34809 -1.38402e-19)
(14.8566 4.41168 2.42596e-19)
(14.8246 4.50098 1.11665e-18)
(14.7766 4.61652 2.17987e-19)
(14.7092 4.75693 -7.04286e-19)
(14.6206 4.91941 0)
(14.5113 5.0996 -8.67927e-20)
(14.3834 5.29164 -5.23327e-20)
(14.2414 5.48845 1.78865e-19)
(14.0912 5.68213 0)
(13.9391 5.8653 -4.80441e-20)
(13.7919 6.03056 8.54057e-22)
(13.6547 6.17637 5.46896e-20)
(13.532 6.29036 -3.13713e-20)
(15.0066 4.31499 0)
(14.9905 4.31452 0)
(14.9768 4.31169 -5.89313e-19)
(14.9581 4.30618 -1.89881e-17)
(14.9387 4.29854 0)
(14.9222 4.29101 0)
(14.9103 4.2873 -2.9156e-20)
(14.904 4.29256 1.28805e-18)
(14.9023 4.31269 4.48014e-19)
(14.9027 4.35375 -2.90772e-19)
(14.9003 4.42079 -1.46403e-18)
(14.8888 4.51665 -1.10845e-18)
(14.862 4.64156 -3.17307e-19)
(14.8151 4.79347 1.10987e-18)
(14.7453 4.96867 0)
(14.6522 5.16186 1.63242e-19)
(14.538 5.3663 -2.09661e-19)
(14.4071 5.57421 -1.36771e-19)
(14.2654 5.77709 -3.09839e-19)
(14.1195 5.96735 1.70393e-19)
(13.9765 6.13722 -1.05574e-20)
(13.841 6.28616 0)
(13.7197 6.39929 2.78246e-21)
(15.0041 4.31988 1.26137e-18)
(14.9883 4.32413 -2.86679e-18)
(14.9724 4.32306 8.76251e-18)
(14.9508 4.3181 2.86819e-17)
(14.9294 4.31003 -2.30612e-18)
(14.9124 4.30074 5.46044e-18)
(14.9025 4.2941 8.21831e-19)
(14.9017 4.29598 -1.28679e-18)
(14.9099 4.31318 2.71017e-19)
(14.9244 4.35293 -1.33624e-18)
(14.9395 4.42131 3.67348e-18)
(14.9477 4.52158 -5.65787e-19)
(14.9412 4.65386 7.37168e-19)
(14.9138 4.81546 2.66482e-18)
(14.862 5.00192 -3.91237e-19)
(14.7851 5.20705 5.04754e-19)
(14.6852 5.42327 1.41227e-19)
(14.5668 5.6421 3.97e-19)
(14.4359 5.85443 4.00612e-21)
(14.2989 6.05243 2.44855e-19)
(14.1629 6.22795 6.57655e-20)
(14.0322 6.38146 1.02607e-19)
(13.9146 6.49545 -1.38218e-19)
(15.0023 4.32599 1.1292e-17)
(14.9877 4.33361 0)
(14.9695 4.3343 -1.28648e-18)
(14.9448 4.33008 -1.04026e-17)
(14.9212 4.32174 -1.24871e-18)
(14.9029 4.3106 -1.41915e-17)
(14.8942 4.30055 -8.50046e-20)
(14.8982 4.29815 1.9922e-18)
(14.9154 4.31104 -4.50548e-19)
(14.9433 4.34773 1.46473e-18)
(14.9753 4.41551 -4.33651e-18)
(15.0023 4.51827 -3.9683e-18)
(15.0153 4.65605 9.20023e-19)
(15.007 4.82565 -5.83304e-18)
(14.9731 5.02193 -2.1588e-18)
(14.9127 5.23784 1.38885e-18)
(14.8281 5.46492 0)
(14.7237 5.694 -4.10573e-19)
(14.6054 5.91543 0)
(14.4793 6.12129 1.24091e-19)
(14.3524 6.30304 1.50544e-19)
(14.2282 6.46221 -1.32001e-19)
(14.1163 6.57856 -3.27447e-20)
(15.0013 4.333 -1.02739e-17)
(14.9881 4.34259 0)
(14.9677 4.34512 0)
(14.9399 4.34186 -1.56698e-17)
(14.9138 4.33349 9.68849e-18)
(14.8938 4.32055 8.1474e-18)
(14.8854 4.30676 7.00174e-18)
(14.8934 4.29929 -2.34761e-18)
(14.9189 4.30652 0)
(14.9595 4.33846 2.50607e-18)
(15.0079 4.40377 4.06458e-18)
(15.0535 4.50711 2.05501e-18)
(15.0856 4.64857 0)
(15.096 4.82451 3.16002e-18)
(15.0799 5.02916 1.85167e-18)
(15.0363 5.25464 -1.0047e-18)
(14.9677 5.49154 -2.34679e-19)
(14.8784 5.73006 1.61425e-18)
(14.7744 5.96012 0)
(14.6607 6.17388 -6.58139e-19)
(14.5446 6.36238 2.30979e-19)
(14.4289 6.52821 7.4911e-19)
(14.3243 6.64816 -1.64717e-19)
(15.001 4.34044 9.36822e-19)
(14.989 4.35088 0)
(14.9671 4.35533 0)
(14.9363 4.35337 1.56631e-17)
(14.9079 4.34549 -1.09377e-17)
(14.8855 4.33122 7.45016e-19)
(14.8764 4.31382 -4.38785e-18)
(14.887 4.30096 4.32809e-20)
(14.919 4.30163 -5.69335e-20)
(14.9706 4.32735 -2.97936e-18)
(15.034 4.38834 -5.58304e-19)
(15.0973 4.49016 4.19183e-18)
(15.1485 4.63311 0)
(15.1783 4.81328 -4.00744e-18)
(15.1812 5.02448 3.27997e-19)
(15.1557 5.25799 -4.23923e-19)
(15.104 5.50338 1.18056e-18)
(15.0309 5.75026 -9.48049e-19)
(14.9417 5.98823 -1.2364e-18)
(14.8416 6.2097 -2.97913e-19)
(14.7375 6.40519 4.74107e-20)
(14.6314 6.5785 -4.5593e-19)
(14.5356 6.70299 -3.0543e-19)
(15.0018 4.34796 0)
(14.9904 4.35838 9.52372e-19)
(14.9671 4.36475 -1.13222e-17)
(14.9332 4.36409 1.07731e-19)
(14.9024 4.35668 1.1314e-17)
(14.8773 4.34086 -1.32701e-18)
(14.8679 4.31926 3.74504e-19)
(14.8818 4.30023 1.0479e-18)
(14.9208 4.29312 0)
(14.9839 4.31109 -4.02263e-18)
(15.0621 4.36634 4.11177e-19)
(15.142 4.46547 3.01633e-19)
(15.2106 4.60901 0)
(15.2578 4.79248 3.95952e-18)
(15.2783 5.0091 -2.98053e-18)
(15.2705 5.24928 0)
(15.2369 5.50166 -1.17238e-18)
(15.182 5.75553 0)
(15.1105 6.00039 1.01306e-18)
(15.0268 6.22924 0)
(14.9373 6.43189 -4.84883e-19)
(14.8433 6.61368 2.93759e-19)
(14.7576 6.74341 4.16668e-19)
(15.0024 4.35575 0)
(14.992 4.36511 0)
(14.9685 4.37309 -2.18934e-19)
(14.9319 4.37441 5.80122e-19)
(14.8982 4.369 -1.31652e-17)
(14.8683 4.35417 -8.15784e-18)
(14.854 4.33144 0)
(14.8651 4.30884 -8.9662e-19)
(14.905 4.29546 0)
(14.9745 4.3058 8.14712e-18)
(15.0647 4.35359 4.32602e-18)
(15.1609 4.4466 -3.61307e-18)
(15.2483 4.58599 -3.67994e-19)
(15.3149 4.76788 0)
(15.3537 4.98634 3.14156e-18)
(15.3612 5.23147 2.25608e-18)
(15.3402 5.49051 -1.87268e-19)
(15.2965 5.75155 1.39912e-18)
(15.2363 6.00303 1.23824e-18)
(15.1642 6.23839 0)
(15.0869 6.4462 3.09996e-19)
(15.0041 6.63496 2.84506e-20)
(14.9292 6.76864 -2.42024e-19)
(15.0033 4.36388 2.20665e-20)
(14.9936 4.37126 -1.27032e-17)
(14.9694 4.38028 1.06642e-17)
(14.9303 4.38283 0)
(14.8945 4.37819 -2.01243e-19)
(14.8613 4.36309 -2.76794e-19)
(14.8445 4.3382 4.54414e-18)
(14.8551 4.31189 0)
(14.8973 4.29326 0)
(14.9726 4.29787 -4.1312e-18)
(15.072 4.34064 -4.58548e-18)
(15.1798 4.42999 -1.49585e-19)
(15.2804 4.56732 3.87962e-18)
(15.3611 4.74879 -1.33838e-19)
(15.4139 4.96877 -4.30999e-19)
(15.4347 5.21707 4.36735e-19)
(15.4263 5.47995 -1.43594e-18)
(15.395 5.74494 -1.30027e-18)
(15.347 5.99998 -1.41226e-18)
(15.2872 6.23925 -1.05062e-18)
(15.222 6.45021 3.47592e-19)
(15.1497 6.64414 -1.56694e-18)
(15.0859 6.78106 2.87522e-19)
(15.0047 4.37165 -1.46317e-17)
(14.9952 4.37681 1.43682e-17)
(14.9704 4.38695 -3.35396e-19)
(14.9292 4.39089 -1.00009e-17)
(14.8914 4.38702 4.14862e-19)
(14.8551 4.37162 8.58567e-18)
(14.8359 4.34434 -8.60062e-18)
(14.8461 4.31403 -2.92537e-20)
(14.8902 4.28985 -3.13049e-20)
(14.9708 4.28854 -4.69996e-18)
(15.0787 4.32632 1.90123e-19)
(15.1972 4.41212 -4.82661e-18)
(15.3102 4.54745 -3.47898e-18)
(15.4042 4.7284 0)
(15.4709 4.94959 3.65573e-18)
(15.5055 5.20045 -4.86142e-18)
(15.5104 5.46617 -3.30856e-19)
(15.4923 5.73386 1.34505e-18)
(15.458 5.99105 -1.28489e-20)
(15.4118 6.23296 1.33279e-18)
(15.3607 6.4459 0)
(15.3011 6.64384 4.7945e-19)
(15.2506 6.7832 0)
(15.0062 4.37882 2.43216e-17)
(14.9967 4.38175 1.42212e-17)
(14.9714 4.39308 -5.53521e-19)
(14.9284 4.39863 1.99609e-17)
(14.8888 4.39565 -7.34282e-18)
(14.8496 4.38019 2.85291e-19)
(14.8281 4.35066 4.39175e-18)
(14.8378 4.3164 1.45743e-20)
(14.8838 4.28664 -1.05691e-19)
(14.9694 4.2793 4.84356e-18)
(15.0854 4.31196 0)
(15.214 4.39399 4.4398e-18)
(15.3389 4.52703 3.43343e-19)
(15.4462 4.70703 -1.64814e-19)
(15.5269 4.92896 -3.79844e-18)
(15.5753 5.18185 2.40232e-20)
(15.5938 5.44969 1.31498e-18)
(15.5894 5.71909 -2.21535e-18)
(15.5695 5.9772 0)
(15.538 6.22035 -9.38003e-19)
(15.5025 6.43376 1.25881e-18)
(15.457 6.63419 0)
(15.4211 6.77457 -7.55723e-19)
(15.008 4.3852 -8.7729e-18)
(14.9983 4.38609 1.0171e-19)
(14.9725 4.3987 -5.61889e-19)
(14.9279 4.40603 -9.69756e-18)
(14.8866 4.40405 1.4574e-17)
(14.8446 4.38878 -8.55414e-20)
(14.8207 4.35718 -8.01615e-20)
(14.8299 4.31911 -6.27555e-19)
(14.8776 4.2838 -2.32701e-20)
(14.9678 4.27031 0)
(15.0916 4.29765 5.59951e-18)
(15.2299 4.37554 1.37636e-19)
(15.3665 4.50578 1.33175e-19)
(15.4867 4.68417 1.79705e-20)
(15.5816 4.9062 -3.83029e-19)
(15.6442 5.1606 2.76039e-18)
(15.6766 5.43 -1.51762e-18)
(15.6864 5.70035 -2.30743e-19)
(15.6814 5.95823 -4.74867e-19)
(15.6652 6.20118 1.29014e-18)
(15.6461 6.41321 -9.02774e-19)
(15.6158 6.6144 1.87642e-18)
(15.5955 6.75397 -1.24109e-18)
(15.0098 4.391 -9.39461e-18)
(14.9998 4.38989 -1.40115e-17)
(14.9737 4.40389 -6.19648e-20)
(14.9277 4.41311 -1.05024e-17)
(14.8847 4.41224 -1.49043e-17)
(14.8399 4.39732 8.77564e-20)
(14.8137 4.3638 8.12227e-20)
(14.8222 4.32202 1.12521e-19)
(14.8714 4.28118 -1.84854e-18)
(14.9658 4.26143 2.89297e-18)
(15.0971 4.28321 -5.92559e-18)
(15.2446 4.3565 -5.13166e-18)
(15.3925 4.48329 4.22729e-18)
(15.5257 4.65933 0)
(15.635 4.88079 2.24142e-18)
(15.7122 5.13619 0)
(15.7591 5.40663 2.03019e-18)
(15.7832 5.67715 1.22113e-18)
(15.7932 5.9336 -1.83507e-20)
(15.7927 6.1747 -1.44615e-18)
(15.7904 6.38308 -3.20111e-20)
(15.7762 6.5829 4.84843e-21)
(15.7723 6.71945 -5.0474e-19)
(15.0119 4.39544 2.81933e-20)
(15.0013 4.39325 -1.31185e-19)
(14.9749 4.40867 6.1037e-20)
(14.9277 4.41991 1.04729e-17)
(14.883 4.42036 7.43754e-18)
(14.8356 4.40607 0)
(14.8069 4.37085 -1.78512e-20)
(14.8145 4.32544 5.60681e-19)
(14.8649 4.27896 -1.56401e-19)
(14.9632 4.25269 -2.91125e-18)
(15.1017 4.26863 3.20449e-18)
(15.258 4.33684 8.05695e-18)
(15.4171 4.45945 -4.10535e-18)
(15.5634 4.63224 3.13366e-18)
(15.6876 4.85237 2.71877e-19)
(15.78 5.10826 1.21069e-20)
(15.8417 5.37931 -1.2756e-19)
(15.8802 5.64929 -3.91162e-19)
(15.9053 5.90306 2.64642e-19)
(15.9205 6.14067 -4.43241e-19)
(15.9349 6.34284 -3.06229e-20)
(15.937 6.53857 3.88317e-19)
(15.9503 6.66913 0)
(15.0142 4.39903 1.26158e-19)
(15.0026 4.39623 0)
(14.9762 4.41309 0)
(14.928 4.42644 1.06027e-17)
(14.8815 4.42833 7.72425e-18)
(14.8316 4.41487 -4.86255e-18)
(14.8003 4.37818 -4.12125e-20)
(14.8068 4.32929 -1.32237e-20)
(14.8582 4.27722 2.02731e-18)
(14.96 4.24417 -6.4175e-20)
(15.1055 4.25381 1.94892e-19)
(15.2704 4.31636 -2.76519e-18)
(15.4407 4.43412 0)
(15.6003 4.60282 -3.3466e-18)
(15.74 4.82082 -4.92812e-18)
(15.8485 5.07673 -1.88461e-18)
(15.9257 5.34807 -1.08529e-18)
(15.9787 5.61694 0)
(16.0184 5.86665 0)
(16.0485 6.09893 8.08682e-19)
(16.079 6.29174 5.78676e-19)
(16.0961 6.48043 -1.19782e-18)
(16.1261 6.60203 0)
(15.0166 4.40194 9.44543e-18)
(15.0039 4.3989 -6.6251e-20)
(14.9775 4.41721 2.99375e-20)
(14.9284 4.43273 -1.05293e-17)
(14.8804 4.43621 -1.5456e-17)
(14.8279 4.42374 9.67087e-18)
(14.7939 4.38577 4.16873e-20)
(14.7991 4.33348 -1.43989e-20)
(14.8513 4.27584 1.90177e-20)
(14.9561 4.23584 0)
(15.1084 4.23882 -3.23871e-18)
(15.2817 4.29504 2.95909e-18)
(15.4633 4.40705 0)
(15.6366 4.57068 0)
(15.7928 4.78572 2.36437e-18)
(15.9182 5.0411 1.12045e-19)
(16.0116 5.31245 1.22652e-18)
(16.0789 5.57983 8.99158e-19)
(16.1322 5.82488 -1.2467e-18)
(16.176 6.05083 -4.43183e-19)
(16.2203 6.23401 1.77165e-18)
(16.2507 6.41165 -1.64906e-18)
(16.2957 6.52614 1.09608e-18)
(15.0188 4.40428 -4.66541e-18)
(15.0051 4.40128 -6.68805e-18)
(14.9789 4.42106 -5.85096e-20)
(14.929 4.43881 7.75136e-20)
(14.8795 4.44403 7.82589e-18)
(14.8246 4.43273 -4.92872e-18)
(14.7878 4.39366 8.41881e-21)
(14.7914 4.33804 -2.65508e-20)
(14.844 4.27482 2.03429e-20)
(14.9515 4.22763 3.4186e-20)
(15.1106 4.22355 -4.47673e-20)
(15.292 4.2728 -2.95454e-18)
(15.485 4.37808 2.60379e-18)
(15.6723 4.53547 -1.10633e-19)
(15.8458 4.74644 0)
(15.9894 5.00061 -2.37976e-19)
(16.1001 5.27183 1.61639e-19)
(16.182 5.53764 -8.84076e-19)
(16.2481 5.77763 1.53332e-18)
(16.3042 5.99564 8.69948e-19)
(16.3595 6.16842 -5.79747e-19)
(16.4014 6.32957 -8.43349e-19)
(16.4589 6.4368 1.07503e-18)
(15.021 4.40611 2.37535e-20)
(15.0062 4.40341 6.75109e-18)
(14.9804 4.42466 0)
(14.9298 4.4447 0)
(14.8788 4.45178 0)
(14.8215 4.44183 0)
(14.7818 4.40184 -8.49885e-21)
(14.7836 4.34292 1.93652e-20)
(14.8365 4.27407 -1.07144e-20)
(14.9461 4.21939 3.51215e-20)
(15.1119 4.2078 -4.59562e-20)
(15.3012 4.24936 0)
(15.5058 4.3469 -5.13094e-18)
(15.7076 4.49675 1.32037e-19)
(15.8994 4.70245 -2.6594e-19)
(16.0626 4.9546 2.21376e-18)
(16.1916 5.2256 -1.69149e-19)
(16.2883 5.49002 2.42225e-19)
(16.366 5.72483 -2.8827e-19)
(16.4316 5.93367 4.40339e-19)
(16.4938 6.09521 -5.96359e-19)
(16.5441 6.2361 0)
(16.6097 6.33501 5.47111e-19)
(15.0231 4.4075 9.13003e-18)
(15.0072 4.4053 3.32676e-18)
(14.9819 4.42803 4.4957e-20)
(14.9308 4.45041 -5.60576e-18)
(14.8784 4.4595 -4.09348e-18)
(14.8188 4.45108 -1.65932e-20)
(14.776 4.41036 2.47411e-18)
(14.7758 4.34822 -1.26721e-19)
(14.8286 4.27376 1.2852e-18)
(14.94 4.21127 0)
(15.1122 4.19162 6.77939e-20)
(15.3091 4.22468 -3.31987e-18)
(15.5251 4.31324 2.70545e-18)
(15.7417 4.45407 1.99291e-18)
(15.953 4.65303 1.5489e-18)
(16.1372 4.90219 0)
(16.286 5.17291 0)
(16.3978 5.43661 -9.90157e-19)
(16.485 5.66703 -9.69203e-19)
(16.5559 5.86659 4.43673e-19)
(16.6202 6.01665 2.98659e-19)
(16.674 6.13586 3.83363e-19)
(16.7412 6.22331 -5.18496e-19)
(15.0251 4.40858 -4.55442e-18)
(15.0082 4.40705 -3.34368e-18)
(14.9834 4.43129 3.04704e-20)
(14.9318 4.45605 -1.03876e-19)
(14.878 4.46723 4.1019e-18)
(14.8161 4.46044 2.60086e-18)
(14.7702 4.41903 -1.17266e-18)
(14.7677 4.35355 1.35419e-19)
(14.8206 4.27324 -1.26598e-18)
(14.933 4.20237 -4.27743e-20)
(15.1118 4.17413 0)
(15.316 4.19796 3.23065e-18)
(15.5437 4.27643 2.8109e-18)
(15.7753 4.40675 -2.1065e-18)
(16.0068 4.59734 -1.33363e-18)
(16.2132 4.84233 -5.51927e-19)
(16.3832 5.11271 -4.00101e-19)
(16.5105 5.37711 1.98877e-18)
(16.6048 5.6052 0)
(16.6772 5.79695 0)
(16.7385 5.9375 2.84396e-19)
(16.7893 6.03766 -7.28763e-19)
(16.8494 6.10907 -4.79901e-19)
(15.0268 4.4091 4.40988e-18)
(15.0094 4.40841 0)
(14.9853 4.43412 0)
(14.9335 4.46137 1.14465e-17)
(14.8786 4.47493 -4.20262e-18)
(14.8143 4.47025 -2.6654e-18)
(14.7649 4.42881 3.83063e-20)
(14.7592 4.36031 -1.05548e-19)
(14.8109 4.27423 2.81704e-20)
(14.9243 4.19491 -1.77431e-18)
(15.1091 4.15729 7.10703e-20)
(15.32 4.17054 -9.25197e-20)
(15.5587 4.23697 -2.80746e-18)
(15.8054 4.35432 2.29197e-18)
(16.0587 4.53421 1.58164e-18)
(16.2897 4.77348 -1.18855e-18)
(16.4834 5.04354 9.4798e-19)
(16.6276 5.31091 -9.98391e-19)
(16.7282 5.54032 0)
(16.7988 5.72829 0)
(16.8516 5.86518 -2.69948e-19)
(16.8914 5.95462 1.65405e-19)
(16.931 6.00818 -4.32626e-19)
(15.0289 4.41019 -7.43732e-20)
(15.0099 4.41031 3.434e-18)
(14.9858 4.43764 0)
(14.9332 4.46685 -2.84479e-18)
(14.8769 4.48188 8.56137e-18)
(14.8109 4.47799 -1.78821e-20)
(14.7591 4.43449 6.94222e-20)
(14.7521 4.36153 8.80343e-20)
(14.8068 4.27049 1.16694e-20)
(14.919 4.18225 1.79205e-18)
(15.1101 4.13493 -4.91995e-20)
(15.328 4.13759 -1.66747e-18)
(15.5789 4.19167 -1.86567e-19)
(15.8407 4.29568 -2.15056e-18)
(16.115 4.46352 -1.79391e-18)
(16.3702 4.69536 8.54021e-20)
(16.5882 4.96457 0)
(16.7499 5.23699 -1.29728e-19)
(16.8584 5.47215 1.64548e-19)
(16.927 5.66281 0)
(16.967 5.80573 2.46778e-19)
(16.988 5.89935 -1.59189e-19)
(17.0007 5.94982 0)
(15.0303 4.40848 -4.3558e-18)
(15.0116 4.40994 -3.43697e-18)
(14.9888 4.43818 0)
(14.9363 4.47132 -2.91963e-18)
(14.879 4.49137 -8.69256e-18)
(14.8098 4.4933 -2.76744e-18)
(14.7534 4.45497 -2.72241e-18)
(14.7412 4.38426 0)
(14.791 4.28614 1.44347e-18)
(14.9051 4.18702 -1.78458e-18)
(15.1011 4.12958 1.90587e-18)
(15.3226 4.12017 1.7355e-18)
(15.5812 4.15801 -2.68109e-20)
(15.8577 4.24074 3.4609e-20)
(16.1578 4.38837 -1.82882e-18)
(16.445 4.60704 1.21478e-18)
(16.6951 4.87324 0)
(16.8832 5.15275 5.44547e-19)
(17.0077 5.40131 0)
(17.074 5.60892 0)
(17.0945 5.77422 -2.36136e-19)
(17.0924 5.88487 -4.00157e-19)
(17.0812 5.93856 3.23533e-19)
(15.0313 4.40778 0)
(15.0119 4.41007 1.4009e-22)
(14.9895 4.43918 -4.3511e-22)
(14.9367 4.47425 2.9898e-18)
(14.8786 4.49665 2.15877e-18)
(14.8081 4.50136 2.76885e-18)
(14.7496 4.46535 1.37532e-18)
(14.7348 4.39475 -5.73807e-22)
(14.7842 4.29336 -6.8827e-19)
(14.8976 4.18776 -3.83365e-20)
(15.0965 4.12199 3.69294e-20)
(15.322 4.10136 0)
(15.5885 4.12359 2.7786e-20)
(15.8782 4.18579 -3.58399e-20)
(16.201 4.31202 2.71648e-18)
(16.5183 4.51372 7.83217e-20)
(16.8024 4.77157 0)
(17.0253 5.05358 1.63096e-19)
(17.1774 5.3174 -1.69509e-19)
(17.2517 5.55494 0)
(17.2636 5.75932 0)
(17.2448 5.89866 2.48865e-19)
(17.2029 5.95804 -1.2841e-19)
(15.0324 4.40721 -4.31637e-18)
(15.0124 4.41032 -3.56705e-18)
(14.9902 4.44038 0)
(14.9371 4.4773 -2.99432e-18)
(14.8783 4.50193 2.22287e-18)
(14.8065 4.50919 2.82232e-18)
(14.7459 4.47509 -1.38801e-18)
(14.7287 4.40417 1.16935e-19)
(14.777 4.29983 -7.57873e-19)
(14.8897 4.18795 2.7727e-18)
(15.0919 4.11365 -1.9488e-18)
(15.3206 4.08127 -1.84236e-18)
(15.5937 4.08688 -1.64489e-18)
(15.8953 4.12701 0)
(16.2407 4.22937 -9.52817e-19)
(16.5886 4.41064 1.40033e-18)
(16.91 4.65534 5.69856e-20)
(17.1761 4.93627 -6.3285e-19)
(17.3658 5.21832 0)
(17.4628 5.49534 0)
(17.4842 5.75109 0)
(17.4523 5.93799 -3.3544e-19)
(17.3666 6.02695 2.25108e-19)
(15.0333 4.40661 4.32436e-18)
(15.0128 4.4106 -4.27139e-20)
(14.9909 4.44164 0)
(14.9376 4.48041 3.05673e-18)
(14.8783 4.50728 2.63459e-22)
(14.8052 4.5171 -4.23899e-18)
(14.7426 4.48491 2.75873e-18)
(14.723 4.41371 -2.94144e-19)
(14.77 4.30657 -1.17338e-21)
(14.8822 4.18837 -9.42497e-19)
(15.0874 4.10536 -1.02963e-18)
(15.3186 4.06087 1.85048e-18)
(15.5969 4.04885 1.62868e-18)
(15.9092 4.06488 -1.3822e-18)
(16.2763 4.14027 1.68731e-20)
(16.6548 4.29658 -1.4171e-18)
(17.017 4.52163 0)
(17.3335 4.79538 0)
(17.5742 5.0937 3.77059e-19)
(17.7181 5.41033 0)
(17.7764 5.72188 0)
(17.7556 5.97694 6.30689e-20)
(17.6632 6.13944 1.123e-19)
(15.0342 4.40597 0)
(15.0132 4.41086 3.62211e-18)
(14.9916 4.4429 -8.87209e-23)
(14.9383 4.48353 1.69881e-20)
(14.8784 4.51267 1.33663e-22)
(14.8041 4.52512 2.82056e-18)
(14.7397 4.49492 -1.37033e-18)
(14.7176 4.42352 1.77706e-19)
(14.7633 4.31368 -9.27444e-19)
(14.8748 4.18907 0)
(15.0826 4.09722 1.02611e-18)
(15.3157 4.0403 3.9129e-21)
(15.5979 4.00972 9.24885e-22)
(15.9193 3.99953 1.37782e-18)
(16.3068 4.04466 0)
(16.7152 4.17075 7.81927e-19)
(17.12 4.36805 -1.53791e-20)
(17.4924 4.62503 0)
(17.7973 4.92769 -3.74345e-19)
(18.0135 5.26837 0)
(18.142 5.61994 0)
(18.1815 5.93571 0)
(18.1601 6.18318 1.27827e-20)
(15.0351 4.40529 0)
(15.0136 4.41111 -1.84593e-18)
(14.9925 4.44414 1.62792e-23)
(14.9391 4.48663 -3.08271e-18)
(14.8787 4.51808 -2.2785e-18)
(14.8033 4.53321 -2.80536e-18)
(14.737 4.50509 0)
(14.7123 4.4336 2.07462e-20)
(14.7565 4.32114 1.91518e-18)
(14.8672 4.19005 -6.2806e-23)
(15.0772 4.08925 1.06967e-18)
(15.3114 4.01967 -9.85811e-19)
(15.5957 3.96961 0)
(15.9245 3.93104 0)
(16.3307 3.9425 1.12733e-18)
(16.767 4.03275 -7.69087e-19)
(17.2144 4.19287 0)
(17.6456 4.42003 -7.1313e-19)
(18.0228 4.70624 -4.49272e-19)
(18.3269 5.04003 0)
(18.5516 5.39413 4.14047e-21)
(18.6935 5.72832 -6.52733e-22)
(18.7949 6.01969 -7.17163e-20)
(15.036 4.40457 -1.94638e-23)
(15.0141 4.41134 3.70956e-18)
(14.9933 4.44537 4.87598e-23)
(14.9399 4.48973 0)
(14.879 4.52349 1.41519e-21)
(14.8026 4.54136 2.7849e-18)
(14.7344 4.51543 3.71054e-22)
(14.707 4.44396 -2.09922e-20)
(14.7497 4.32899 -9.87609e-19)
(14.8591 4.19138 1.09333e-18)
(15.0708 4.08155 1.17297e-20)
(15.3054 3.99912 1.9875e-18)
(15.59 3.92869 -1.80529e-18)
(15.9243 3.85957 5.26814e-21)
(16.3466 3.83401 -2.30596e-18)
(16.8073 3.88242 8.67054e-19)
(17.2947 3.99539 -3.51836e-20)
(17.7827 4.1776 7.38726e-19)
(18.2326 4.42131 4.46321e-19)
(18.6264 4.71035 0)
(18.9549 5.02295 1.86562e-19)
(19.2109 5.32148 0)
(19.4298 5.59247 -7.60242e-20)
(15.0369 4.4038 0)
(15.0147 4.41155 -1.8635e-18)
(14.9942 4.44657 -1.87521e-18)
(14.9408 4.4928 -1.73833e-22)
(14.8795 4.5289 4.56388e-18)
(14.802 4.54958 -1.38814e-18)
(14.7319 4.52593 0)
(14.7017 4.4546 0)
(14.7426 4.33724 -6.96207e-22)
(14.8507 4.19309 -1.09401e-18)
(15.0636 4.07418 5.82121e-21)
(15.2976 3.97878 -9.99905e-19)
(15.5805 3.88715 1.80123e-18)
(15.918 3.78541 0)
(16.3533 3.71977 1.16983e-18)
(16.8337 3.72068 -8.42579e-19)
(17.3552 3.77677 5.76256e-19)
(17.8935 3.89766 4.88063e-20)
(18.4083 4.07256 0)
(18.8765 4.27946 0)
(19.2896 4.50906 -8.59615e-20)
(19.6422 4.73316 -2.67581e-19)
(19.9403 4.93537 1.3378e-19)
(15.0377 4.40299 0)
(15.0152 4.41174 7.47528e-23)
(14.9951 4.44775 1.87762e-18)
(14.9417 4.49585 -1.56306e-18)
(14.8801 4.53431 -2.28312e-18)
(14.8015 4.55785 -3.49423e-22)
(14.7295 4.5366 -6.01845e-19)
(14.6963 4.46554 2.48433e-20)
(14.7354 4.3459 -1.12539e-18)
(14.8418 4.1952 0)
(15.0553 4.06718 9.38056e-22)
(15.288 3.95877 -1.01457e-18)
(15.5669 3.84518 0)
(15.9053 3.70894 -2.77671e-20)
(16.3498 3.60056 1.28285e-18)
(16.8443 3.54911 0)
(17.3921 3.53892 -5.02856e-20)
(17.9693 3.58346 -8.09779e-21)
(18.5306 3.66985 7.50011e-19)
(19.0458 3.77182 0)
(19.5071 3.8855 0)
(19.9138 4.00471 1.46108e-19)
(20.2522 4.11717 -5.34819e-19)
(15.0386 4.40215 3.95778e-23)
(15.0157 4.41191 -5.2279e-23)
(14.996 4.44891 0)
(14.9426 4.49888 -1.5709e-18)
(14.8807 4.53972 1.06177e-21)
(14.8011 4.56617 -6.96748e-22)
(14.7272 4.54743 6.02468e-19)
(14.691 4.47677 -2.47298e-20)
(14.7279 4.35498 1.12696e-18)
(14.8324 4.19772 -1.16147e-18)
(15.0461 4.0606 -1.09678e-18)
(15.2765 3.93924 1.02604e-18)
(15.5491 3.80304 9.21018e-19)
(15.8862 3.63067 7.88935e-19)
(16.3354 3.4774 -1.25812e-18)
(16.8377 3.36937 5.51819e-20)
(17.4027 3.28523 -7.44272e-19)
(18.0024 3.24316 -3.70106e-19)
(18.5844 3.2293 -2.82337e-19)
(19.1167 3.21616 2.28253e-19)
(19.5911 3.20696 -2.86705e-19)
(20.0085 3.20064 0)
(20.3472 3.20937 2.61921e-19)
(15.0394 4.40127 0)
(15.0162 4.41207 -1.91518e-18)
(14.9969 4.45004 -1.90434e-18)
(14.9436 4.50188 1.56701e-18)
(14.8813 4.54512 -1.14255e-18)
(14.8007 4.57455 0)
(14.7249 4.55842 -2.12288e-22)
(14.6856 4.4883 2.80899e-22)
(14.7202 4.36448 5.95344e-19)
(14.8227 4.20068 1.75809e-18)
(15.0359 4.05448 -1.08159e-18)
(15.2633 3.92036 -6.94069e-21)
(15.5269 3.76102 6.65163e-21)
(15.8604 3.55107 -8.20442e-19)
(16.3094 3.35127 0)
(16.8129 3.1832 9.97988e-19)
(17.384 3.02028 -7.2301e-19)
(17.9885 2.88713 4.87787e-19)
(18.5656 2.76882 2.09913e-19)
(19.0848 2.64075 2.33782e-20)
(19.5389 2.51102 -3.30356e-19)
(19.9401 2.3849 2.47778e-19)
(20.2443 2.2925 3.47592e-19)
(15.0402 4.40037 -1.10816e-18)
(15.0167 4.41222 -1.12733e-20)
(14.9979 4.45116 1.90669e-18)
(14.9446 4.50486 1.57305e-18)
(14.882 4.55052 2.28678e-18)
(14.8005 4.58297 1.34746e-18)
(14.7228 4.56957 2.04567e-22)
(14.6802 4.50013 -2.7072e-22)
(14.7124 4.37439 -5.96151e-19)
(14.8126 4.20408 -5.92919e-19)
(15.0248 4.04888 2.17022e-18)
(15.2485 3.90234 -1.02829e-18)
(15.5002 3.71929 -9.45826e-19)
(15.828 3.47059 8.57896e-19)
(16.271 3.22319 -4.66868e-20)
(16.7688 2.99303 -8.7635e-19)
(17.334 2.74907 7.41686e-19)
(17.9271 2.52518 -8.11232e-19)
(18.4752 2.30665 -1.88867e-19)
(18.9533 2.07386 0)
(19.3626 1.83099 4.09027e-19)
(19.7186 1.60008 -5.05418e-19)
(19.9703 1.42252 7.71573e-19)
(15.0409 4.39944 1.10931e-18)
(15.0173 4.41235 2.9018e-18)
(14.9988 4.45225 1.92247e-18)
(14.9456 4.50781 -1.58011e-18)
(14.8828 4.5559 -1.14418e-18)
(14.8004 4.59143 -1.34901e-18)
(14.7208 4.58086 -5.56475e-19)
(14.6749 4.51225 0)
(14.7044 4.38473 6.23557e-19)
(14.8022 4.20795 -6.12985e-19)
(15.0129 4.04387 -1.08331e-18)
(15.232 3.88532 1.03032e-18)
(15.4687 3.678 0)
(15.789 3.38985 -7.99713e-19)
(16.2197 3.09452 6.22478e-19)
(16.7048 2.80161 -5.36942e-19)
(17.2542 2.47669 2.08662e-19)
(17.8191 2.1671 2.84224e-19)
(18.317 1.85912 -8.45837e-19)
(18.73 1.53344 5.6174e-19)
(19.0815 1.19933 0)
(19.3677 0.884441 -1.26145e-18)
(19.5558 0.635296 1.8733e-18)
(15.0417 4.39848 0)
(15.0178 4.41247 -9.71923e-19)
(14.9998 4.45333 -1.92403e-18)
(14.9467 4.51073 1.58174e-18)
(14.8837 4.56127 -1.77561e-23)
(14.8003 4.59992 -6.90346e-22)
(14.7189 4.59231 2.83912e-19)
(14.6696 4.52468 0)
(14.6962 4.3955 -6.24375e-19)
(14.7915 4.2123 -1.08147e-20)
(15.0001 4.03947 0)
(15.214 3.86944 -5.18187e-19)
(15.4322 3.63746 0)
(15.7434 3.30979 6.35458e-20)
(16.155 2.96671 -1.40831e-18)
(16.6201 2.61078 4.14503e-19)
(17.1467 2.20841 2.15849e-19)
(17.6709 1.82235 -8.5879e-19)
(18.0966 1.44018 4.20153e-19)
(18.428 1.03399 6.69542e-19)
(18.7105 0.632508 -1.10619e-18)
(18.9202 0.261721 1.05534e-18)
(19.0378 -0.0417132 -4.01216e-18)
(15.0424 4.3975 1.11745e-18)
(15.0183 4.41257 -9.83799e-19)
(15.0007 4.45438 9.68781e-19)
(14.9478 4.51363 7.63327e-22)
(14.8847 4.56662 -1.05869e-21)
(14.8004 4.60845 1.19343e-21)
(14.7171 4.6039 2.72231e-19)
(14.6643 4.53741 8.93307e-22)
(14.688 4.40668 -1.49846e-21)
(14.7807 4.21715 -1.17766e-20)
(14.9864 4.03573 -5.28385e-19)
(15.1946 3.855 4.99158e-19)
(15.3907 3.59808 2.63324e-20)
(15.6913 3.23119 -6.49038e-20)
(16.0768 2.84118 8.08182e-19)
(16.5161 2.42199 0)
(17.0156 1.94633 4.13884e-19)
(17.4838 1.49994 5.9276e-19)
(17.8274 1.06281 -4.73679e-19)
(18.0707 0.588535 1.3191e-18)
(18.2732 0.138334 -6.808e-19)
(18.4086 -0.261814 1.73632e-19)
(18.4554 -0.600009 2.32163e-18)
(15.0431 4.39651 -2.23884e-18)
(15.0189 4.41266 9.84836e-19)
(15.0017 4.45541 2.82865e-21)
(14.949 4.51649 0)
(14.8857 4.57195 0)
(14.8006 4.61701 6.62561e-19)
(14.7154 4.61563 2.61284e-19)
(14.6592 4.55043 0)
(14.6796 4.41828 -3.2963e-21)
(14.7696 4.2225 6.42659e-19)
(14.9719 4.03272 5.39845e-19)
(15.1738 3.84231 -1.39051e-20)
(15.3436 3.56007 -3.8508e-20)
(15.6329 3.15422 1.16117e-19)
(15.9853 2.71833 -8.53218e-20)
(16.3977 2.23704 0)
(16.8685 1.69671 -6.12605e-19)
(17.2489 1.20333 3.65641e-20)
(17.5183 0.728108 -1.35218e-18)
(17.6858 0.205546 6.37531e-19)
(17.8012 -0.277537 1.04334e-18)
(17.8669 -0.686484 -1.75305e-18)
(17.849 -1.04178 0)
(15.0437 4.39549 2.24482e-18)
(15.0194 4.41274 -1.08493e-22)
(15.0027 4.45642 -9.73743e-19)
(14.9502 4.51933 0)
(14.8867 4.57726 0)
(14.8009 4.62558 -3.90989e-21)
(14.7139 4.62749 -5.16433e-19)
(14.6541 4.56375 0)
(14.671 4.43029 3.3785e-19)
(14.7583 4.22839 0)
(14.9565 4.03053 0)
(15.1518 3.83152 -2.00726e-20)
(15.2908 3.52337 2.63304e-20)
(15.5681 3.07946 4.10151e-19)
(15.8813 2.59794 8.69806e-20)
(16.2683 2.05501 -1.54944e-19)
(16.7042 1.46984 6.2115e-19)
(16.9818 0.940375 0)
(17.1728 0.424677 4.55856e-19)
(17.2795 -0.120087 0)
(17.3158 -0.613696 2.46655e-19)
(17.3185 -1.02147 3.64135e-19)
(17.2469 -1.37524 0)
(15.0444 4.39446 -1.68757e-18)
(15.02 4.41281 5.01319e-19)
(15.0036 4.45741 0)
(14.9514 4.52213 -7.97121e-19)
(14.8879 4.58254 5.70217e-19)
(14.8013 4.63418 -6.60211e-19)
(14.7125 4.63948 2.55787e-19)
(14.649 4.57737 -3.07808e-20)
(14.6623 4.44271 -3.36666e-19)
(14.7469 4.23484 -5.76106e-21)
(14.9403 4.02918 7.48659e-21)
(15.1287 3.82279 5.22776e-19)
(15.2319 3.48805 3.9255e-20)
(15.4968 3.00769 -5.99957e-19)
(15.7669 2.4815 8.85233e-20)
(16.1303 1.87687 0)
(16.5092 1.26592 0)
(16.7036 0.715419 0)
(16.8101 0.158806 0)
(16.8573 -0.397135 -1.66224e-19)
(16.8283 -0.883608 -1.17748e-18)
(16.7771 -1.27939 1.22165e-18)
(16.6687 -1.61556 0)
(15.045 4.39341 5.63693e-19)
(15.0205 4.41286 -1.00602e-18)
(15.0046 4.45837 0)
(14.9526 4.52489 7.98103e-19)
(14.8891 4.58779 -1.14167e-18)
(14.8018 4.64278 0)
(14.7112 4.65159 0)
(14.6441 4.59128 2.96016e-20)
(14.6534 4.45554 0)
(14.7354 4.24186 -3.43005e-19)
(14.9232 4.02865 -2.53712e-19)
(15.1047 3.81645 -2.62543e-19)
(15.1664 3.45447 4.60395e-19)
(15.4192 2.9376 0)
(15.6416 2.36908 0)
(15.9857 1.71298 1.47745e-19)
(16.2818 1.08317 -1.91732e-19)
(16.41 0.518907 0)
(16.4474 -0.0699775 -2.17815e-19)
(16.4343 -0.6275 1.70891e-19)
(16.3528 -1.09591 1.012e-18)
(16.2545 -1.47781 -1.37659e-18)
(16.1188 -1.79192 0)
(15.0457 4.39235 -8.33323e-23)
(15.0211 4.41291 1.01209e-18)
(15.0056 4.45931 2.72331e-22)
(14.9539 4.52762 3.99342e-19)
(14.8904 4.59301 5.71427e-19)
(14.8025 4.6514 -3.25196e-19)
(14.7101 4.66382 -6.2948e-22)
(14.6392 4.60549 -1.82041e-20)
(14.6444 4.46876 3.6007e-19)
(14.7238 4.24945 3.44517e-19)
(14.9053 4.02897 2.46627e-19)
(15.0799 3.81261 -2.621e-19)
(15.0939 3.42299 -4.63315e-19)
(15.3347 2.87004 -6.99737e-20)
(15.5088 2.25776 9.13345e-20)
(15.8356 1.56735 1.40816e-19)
(16.0373 0.922347 -1.83615e-19)
(16.1072 0.342704 0)
(16.0975 -0.266893 2.22861e-19)
(16.0212 -0.819685 0)
(15.9002 -1.25966 -1.21908e-19)
(15.7686 -1.61684 0)
(15.6127 -1.91605 -5.65646e-20)
(15.0463 4.39128 -2.84345e-19)
(15.0216 4.41294 -5.07471e-19)
(15.0066 4.46023 -4.95059e-19)
(14.9552 4.53031 -3.8731e-22)
(14.8917 4.59819 1.08081e-21)
(14.8032 4.66001 1.09806e-21)
(14.709 4.67617 1.16558e-19)
(14.6344 4.61998 -1.01406e-21)
(14.6352 4.48238 -3.55236e-19)
(14.7122 4.25761 -5.66159e-21)
(14.8865 4.03009 2.38422e-19)
(15.0548 3.81133 0)
(15.0139 3.39412 -3.98874e-20)
(15.2444 2.80932 5.21346e-20)
(15.3812 2.1513 1.95908e-19)
(15.6778 1.43085 0)
(15.7891 0.782243 0)
(15.8065 0.184594 -1.25759e-19)
(15.7631 -0.434844 0)
(15.6251 -0.972977 6.34866e-19)
(15.4712 -1.39003 -7.52743e-19)
(15.3148 -1.72303 7.50749e-20)
(15.1473 -1.99415 1.87013e-18)
(15.0468 4.3902 5.69944e-19)
(15.0222 4.41296 2.56447e-19)
(15.0076 4.46112 7.43384e-19)
(14.9565 4.53297 -4.01848e-19)
(14.8931 4.60334 -2.8375e-19)
(14.804 4.66863 4.85987e-19)
(14.7081 4.68862 -1.1615e-19)
(14.6296 4.63476 1.68827e-20)
(14.6258 4.49637 5.44982e-21)
(14.7005 4.26634 -4.91545e-21)
(14.8669 4.03211 -2.31406e-19)
(15.0296 3.81402 -1.30841e-19)
(14.9259 3.36834 1.66511e-19)
(15.1493 2.75172 3.15928e-19)
(15.2596 2.05605 -1.97915e-19)
(15.5016 1.305 0)
(15.5411 0.664343 0)
(15.5055 0.0443435 -2.47735e-19)
(15.4254 -0.574309 3.52164e-19)