/*--------------------------------*- C++ -*----------------------------------*\
  =========                 |
  \\      /  F ield         | OpenFOAM: The Open Source CFD Toolbox
   \\    /   O peration     | Website:  https://openfoam.org
    \\  /    A nd           | Version:  7
     \\/     M anipulation  |
\*---------------------------------------------------------------------------*/
FoamFile
{
    version     2.0;
    format      ascii;
    class       volScalarField;
    location    "50";
    object      yPlus;
}
// * * * * * * * * * * * * * * * * * * * * * * * * * * * * * * * * * * * * * //

dimensions      [0 0 0 0 0 0 0];

internalField   uniform 0;

boundaryField
{
    inlet
    {
        type            calculated;
        value           uniform 0;
    }
    outlet
    {
        type            calculated;
        value           uniform 0;
    }
    suction_side
    {
        type            calculated;
        value           nonuniform List<scalar> 
56
(
22.6669
25.234
28.1469
30.853
33.7053
37.1442
40.6461
43.8856
47.622
50.2544
52.8775
52.0187
47.4526
31.3534
27.4108
33.369
39.1602
40.5384
39.9274
38.4373
36.1705
34.5168
32.6869
30.7148
28.9555
29.7287
29.8531
35.7055
37.5961
28.1432
19.922
22.9911
27.3356
30.1034
31.7669
32.8652
33.0526
32.7501
32.2771
31.535
30.596
29.6423
28.5804
27.3067
26.086
25.0614
24.3985
24.2084
24.8423
25.2372
22.9927
18.8195
14.9752
14.5057
17.6661
15.805
)
;
    }
    pressure_side
    {
        type            calculated;
        value           nonuniform List<scalar> 
56
(
36.6573
36.0992
36.114
36.1456
36.1121
36.0693
36.0189
35.9943
35.9872
36.0356
36.133
36.2664
36.4192
36.5931
36.7351
36.8575
36.9203
36.9528
36.9041
36.8513
36.7893
36.7441
36.6972
36.6896
36.7099
36.7454
36.8276
37.0051
37.3105
37.7098
38.1021
38.4368
38.6815
38.2487
37.1367
35.5842
33.6213
31.2649
28.0657
24.053
19.8658
15.6202
12.2067
10.988
8.6406
8.42835
9.52547
9.66931
11.8727
11.4468
13.5737
13.6253
15.0539
17.0738
17.8172
20.7829
)
;
    }
    trailing_edge
    {
        type            calculated;
        value           nonuniform List<scalar> 2(119.215 71.1536);
    }
    defaultFaces
    {
        type            empty;
    }
}


// ************************************************************************* //
