/*--------------------------------*- C++ -*----------------------------------*\
  =========                 |
  \\      /  F ield         | OpenFOAM: The Open Source CFD Toolbox
   \\    /   O peration     | Website:  https://openfoam.org
    \\  /    A nd           | Version:  7
     \\/     M anipulation  |
\*---------------------------------------------------------------------------*/
FoamFile
{
    version     2.0;
    format      ascii;
    class       volScalarField;
    location    "50";
    object      k;
}
// * * * * * * * * * * * * * * * * * * * * * * * * * * * * * * * * * * * * * //

dimensions      [0 2 -2 0 0 0 0];

internalField   nonuniform List<scalar> 
12842
(
0.00569402
0.00511913
0.00474807
0.00448677
0.00432227
0.00419127
0.00411247
0.00403712
0.00399938
0.00395995
0.00394231
0.00392198
0.0039231
0.00393337
0.00395124
0.00397443
0.00399843
0.00401895
0.00405079
0.00407201
0.00409772
0.00411342
0.0041319
0.00566726
0.00507501
0.00471785
0.00447484
0.00431656
0.00418857
0.00411031
0.00403733
0.00399588
0.00395477
0.00393991
0.00392156
0.00392341
0.00393555
0.00395567
0.00397922
0.00400094
0.00402132
0.00405375
0.00407457
0.00411141
0.00412808
0.00415453
0.00564317
0.00503239
0.00465486
0.00441184
0.00426816
0.00415665
0.00408445
0.00402451
0.00398993
0.00394816
0.00393206
0.00391894
0.00392254
0.00393759
0.00396078
0.00398596
0.00401016
0.0040327
0.00406302
0.00409274
0.00412449
0.00415429
0.00419266
0.00558601
0.00498255
0.00462763
0.00438989
0.00424793
0.00414206
0.00407396
0.00400881
0.00398019
0.00394402
0.00392821
0.00391661
0.00392191
0.00393958
0.00396579
0.00399082
0.00401652
0.00403916
0.00407064
0.00410485
0.0041312
0.00417374
0.00422556
0.00555312
0.00490507
0.00455739
0.00433405
0.00419923
0.00410731
0.00404712
0.00398926
0.00396435
0.0039346
0.00392174
0.00391438
0.00392082
0.0039421
0.00397366
0.00400029
0.00403168
0.00405782
0.00409032
0.00413401
0.00416831
0.00422067
0.00428319
0.00549947
0.00486095
0.00451807
0.00431031
0.00417916
0.00409156
0.00403521
0.00397755
0.0039523
0.00392561
0.00391664
0.00391217
0.00392045
0.00394509
0.00397864
0.00400771
0.00404385
0.0040764
0.00411252
0.00416116
0.00420139
0.00426212
0.00435179
0.00545972
0.00478634
0.00445268
0.00425914
0.0041371
0.00406478
0.00401033
0.0039607
0.00394057
0.00391776
0.0039093
0.00390926
0.00391975
0.00394818
0.00398742
0.00403083
0.00407163
0.00410709
0.00415947
0.00422825
0.0042754
0.0043465
0.00446187
0.00541186
0.00475358
0.00442341
0.00423766
0.00411959
0.00405104
0.00399954
0.00395179
0.00393084
0.00391094
0.00390391
0.00390681
0.00391843
0.00395256
0.0039968
0.00404616
0.00410798
0.00416181
0.00420968
0.00428941
0.00436915
0.00446618
0.00459292
0.00536918
0.00469246
0.00436777
0.00419462
0.00408605
0.00402581
0.00398081
0.00393964
0.00392138
0.00390578
0.00389963
0.00390414
0.00391901
0.00395941
0.00400751
0.00407653
0.00416677
0.00424347
0.00430622
0.00441566
0.00451741
0.00465645
0.00480925
0.00531559
0.00465916
0.004345
0.00417653
0.0040719
0.00401498
0.00396976
0.00393421
0.00391485
0.0039027
0.0038953
0.00390113
0.00391994
0.00396735
0.00402787
0.00411185
0.00423277
0.00434094
0.00441424
0.00455514
0.00467876
0.00483357
0.00499616
0.00526529
0.00460092
0.00430275
0.00414108
0.00404539
0.00399327
0.00395306
0.00392245
0.00390854
0.00389818
0.00389064
0.00389827
0.00392017
0.00397868
0.00406034
0.004164
0.0043108
0.00444656
0.00454818
0.00471314
0.00485177
0.00503235
0.0052029
0.00521313
0.00456722
0.00427734
0.00412503
0.0040337
0.00398318
0.00394424
0.00391621
0.00390357
0.00389561
0.00388817
0.0038961
0.00392429
0.00399891
0.00409952
0.00423724
0.00441315
0.00457606
0.00469453
0.00488994
0.0050395
0.00522358
0.00539816
0.00516223
0.00452229
0.00424642
0.00409617
0.00401221
0.00396441
0.00392674
0.00390417
0.00389536
0.00389093
0.00388464
0.00389359
0.00393189
0.00402465
0.00415755
0.00433215
0.00452919
0.00471387
0.00485762
0.00506428
0.00522796
0.00542258
0.00559459
0.00511429
0.00448363
0.00421766
0.00408306
0.00400244
0.00395595
0.00391862
0.00389822
0.00389159
0.00388884
0.00388056
0.00389351
0.00394268
0.00406832
0.0042331
0.00445307
0.00466652
0.0048674
0.00502524
0.00525053
0.00541698
0.0056043
0.005772
0.00506726
0.00445204
0.00419107
0.0040592
0.00398377
0.00393985
0.00390309
0.00388642
0.00388429
0.00388336
0.00387984
0.00389776
0.00397208
0.00413211
0.00433637
0.00458778
0.00481392
0.00502455
0.00519773
0.00542119
0.00559634
0.00578486
0.00594084
0.00502522
0.00441515
0.00416649
0.00404846
0.00397402
0.00393227
0.00389564
0.00388067
0.00388092
0.00389521
0.00389424
0.00392613
0.00402758
0.00422134
0.00445962
0.00473978
0.00497195
0.00518905
0.00536818
0.00559583
0.00576951
0.00594612
0.00609289
0.00498357
0.00438849
0.00413916
0.00402791
0.00395812
0.00391749
0.00388138
0.00387028
0.00387394
0.00391258
0.00393164
0.00398255
0.00410553
0.00433148
0.00460362
0.00489728
0.00513367
0.00534941
0.00553409
0.00575164
0.00593115
0.00609969
0.00623269
0.0049479
0.0043578
0.00411758
0.00401772
0.00394436
0.00391019
0.00387492
0.00386558
0.00388402
0.00396835
0.0040013
0.00406398
0.00420364
0.00446313
0.00475988
0.00505957
0.00529466
0.00551064
0.00569153
0.00590291
0.00607865
0.00623905
0.00635821
0.00491289
0.00433399
0.00409598
0.00400035
0.00393201
0.00389567
0.00386284
0.0038561
0.00388834
0.00401677
0.00407371
0.004156
0.00432036
0.00460782
0.00492561
0.00522269
0.00545366
0.00566019
0.0058391
0.00603932
0.00621401
0.0063669
0.00647151
0.0048826
0.00430764
0.00407068
0.0039865
0.00391736
0.00388924
0.00385784
0.0038625
0.00394175
0.00410707
0.00417526
0.00427077
0.00445356
0.00476429
0.00509177
0.00537892
0.00560377
0.00580681
0.005975
0.00616564
0.00633189
0.00647863
0.00657675
0.00485408
0.00428608
0.00405427
0.00397441
0.00390103
0.00387583
0.00384628
0.00385817
0.00398973
0.00417977
0.00427227
0.00438807
0.00459405
0.00492222
0.005259
0.00553385
0.00574721
0.00593509
0.00609686
0.00627594
0.00644142
0.00657722
0.0066679
0.00482869
0.0042627
0.00403069
0.00395571
0.00389238
0.00386857
0.00385438
0.00389381
0.00409704
0.00429549
0.00439781
0.00452569
0.00474639
0.00508375
0.00541807
0.00567375
0.00587768
0.00606012
0.00620996
0.00638369
0.00653629
0.00666672
0.00675399
0.00480593
0.00424319
0.00401283
0.00394335
0.00387719
0.00386294
0.0038694
0.00394557
0.00417489
0.00438968
0.00451118
0.00465551
0.0048918
0.00523462
0.00557096
0.00581126
0.00600031
0.00616563
0.00630826
0.00647058
0.00662856
0.00674841
0.00682702
0.00478865
0.00422224
0.0039923
0.00392984
0.00386394
0.00387064
0.00391178
0.00406225
0.00431244
0.00453541
0.0046626
0.00481422
0.00505641
0.0053968
0.00572191
0.0059369
0.00611293
0.00627057
0.00640365
0.00656421
0.00670738
0.00682095
0.00689656
0.00477694
0.00421028
0.00398037
0.00392002
0.00386296
0.00390096
0.00398828
0.00416814
0.00443442
0.00465566
0.00479016
0.00495087
0.0052
0.00553959
0.00586016
0.0060571
0.00621687
0.00635784
0.00648408
0.00663869
0.00678603
0.0068856
0.00695264
0.00476413
0.00419022
0.00396792
0.00390937
0.00388142
0.0039694
0.00408814
0.00428747
0.00455661
0.00477632
0.0049152
0.0050818
0.00533343
0.00567171
0.00598315
0.00616048
0.00630876
0.00644108
0.00656253
0.00671264
0.00684623
0.00694054
0.00700325
0.00475135
0.00417702
0.00395425
0.00390933
0.00394232
0.00406131
0.00419858
0.00440786
0.00468158
0.00489468
0.00503549
0.00520592
0.00545791
0.00579535
0.00609935
0.00625632
0.00638896
0.00650945
0.00662806
0.0067787
0.00691669
0.00699097
0.00704471
0.00473809
0.00415804
0.00395406
0.00392113
0.00401472
0.00416175
0.00431773
0.00453625
0.00480129
0.0050082
0.00514943
0.00532105
0.00557122
0.00590711
0.00619948
0.00634345
0.00646599
0.0065785
0.00669456
0.00684588
0.00696318
0.00702373
0.00707365
0.0047257
0.00414115
0.00394997
0.00396756
0.00410816
0.00427571
0.00443604
0.0046604
0.00491853
0.00511585
0.00525562
0.00542695
0.00567391
0.00601146
0.006295
0.00641629
0.00652409
0.00662881
0.00675452
0.00689991
0.00701044
0.00705906
0.00711453
0.00470971
0.0041284
0.00397284
0.00402777
0.00420293
0.00438923
0.00456182
0.00478183
0.00502855
0.00521547
0.00535338
0.00552284
0.00576725
0.00610449
0.00637434
0.00649266
0.006593
0.00668925
0.00681352
0.00697062
0.00706305
0.00711155
0.00717947
0.00469535
0.0041144
0.0040098
0.00410412
0.00431101
0.00450892
0.00467792
0.00490088
0.00512925
0.00530716
0.00544226
0.00560929
0.00585006
0.00619165
0.00645086
0.00654741
0.00664228
0.00674415
0.00689388
0.00704273
0.00714554
0.00719314
0.00725766
0.0046805
0.0041001
0.00405757
0.00419261
0.00441742
0.00462424
0.00479721
0.00500486
0.0052252
0.00538972
0.00552206
0.0056861
0.00592626
0.00626975
0.00651576
0.00661917
0.00671311
0.00682116
0.0069711
0.00713979
0.00722965
0.00727777
0.00741862
0.00466352
0.00410339
0.00411888
0.00428652
0.00453078
0.00473988
0.00490267
0.00511178
0.00530569
0.00546384
0.00559308
0.00575443
0.00599275
0.00634313
0.00657614
0.00666451
0.00676464
0.00688844
0.00708508
0.00727418
0.00739114
0.00758157
0.00925533
0.00464535
0.0041206
0.00418391
0.00438659
0.00463602
0.00484486
0.00500748
0.00519698
0.00538408
0.00552886
0.00565542
0.00581438
0.00605512
0.00640982
0.00663303
0.00673464
0.00684081
0.0069846
0.00720023
0.00741764
0.00761598
0.00893768
0.0178617
0.00463469
0.0041668
0.00426285
0.00449281
0.00474506
0.00494851
0.00509455
0.0052846
0.00544556
0.00558591
0.00570997
0.0058672
0.00610922
0.00647367
0.00668199
0.00677747
0.0068955
0.00706899
0.00735671
0.00771343
0.00893379
0.0172528
0.0477294
0.00461916
0.00421496
0.0043476
0.004593
0.00484079
0.00503753
0.00518316
0.00535372
0.00550573
0.00563558
0.00575689
0.00591349
0.00616093
0.00653195
0.00673632
0.00684827
0.00697768
0.00718088
0.00750833
0.0080376
0.0105245
0.0282878
0.0686198
0.00459997
0.004287
0.00443759
0.00469652
0.00493632
0.00512261
0.00525344
0.00542015
0.00555192
0.00567753
0.00579767
0.00595404
0.00620637
0.00658855
0.00677964
0.00689042
0.00703351
0.00727438
0.00770022
0.00844606
0.0120003
0.0253902
0.0599691
0.00459552
0.00435844
0.00453323
0.00479373
0.00502156
0.00519592
0.00532331
0.00547511
0.0055958
0.00571441
0.00583225
0.00598996
0.00625042
0.00664253
0.00683409
0.00696241
0.00711558
0.00738551
0.00785099
0.00881769
0.0139028
0.0231677
0.0508496
0.00460694
0.00444559
0.0046268
0.00488738
0.00509937
0.00526361
0.00538155
0.00552383
0.00563125
0.0057456
0.0058624
0.00602155
0.00629049
0.00669273
0.00687724
0.00700331
0.00717043
0.00747205
0.00798362
0.00897393
0.0129839
0.020359
0.0401653
0.00463644
0.0045359
0.00472504
0.00497227
0.00517185
0.00532184
0.00543946
0.00556523
0.00566303
0.00577186
0.00588791
0.00604994
0.00632986
0.0067473
0.00693303
0.00707493
0.00724158
0.0075561
0.0080951
0.00905628
0.0124093
0.016965
0.0290411
0.00466869
0.00462994
0.00481269
0.00505545
0.00523803
0.00537633
0.0054814
0.00559967
0.00568974
0.00579518
0.00591048
0.00607544
0.00636714
0.00679281
0.00698111
0.0071168
0.0073102
0.00764006
0.00817797
0.00905349
0.0116428
0.0149788
0.0245296
0.00471544
0.00472411
0.00490608
0.00512555
0.00529538
0.00542257
0.00552659
0.00562983
0.00571391
0.00581503
0.00592976
0.00609869
0.00640499
0.00685064
0.00703801
0.00718922
0.00735499
0.00769322
0.00824561
0.00924878
0.0117518
0.0153337
0.0222346
0.00475669
0.00481583
0.00498539
0.00519469
0.00534967
0.00546464
0.0055616
0.00565267
0.0057326
0.00583178
0.00594711
0.0061203
0.00644121
0.00689503
0.00709517
0.00723901
0.0074417
0.00777799
0.00836957
0.00916254
0.0116784
0.0150251
0.0207315
0.00481394
0.00490849
0.00506499
0.00524893
0.00539657
0.00550202
0.00558859
0.0056707
0.00575095
0.00584783
0.00596261
0.00614024
0.00648073
0.00695672
0.00715464
0.00731155
0.00750184
0.00788725
0.00845569
0.00919493
0.0115118
0.0148809
0.0226475
0.0048559
0.00498193
0.00513387
0.00530166
0.00543819
0.00553217
0.00560279
0.00568407
0.00576307
0.00585806
0.00597629
0.00615979
0.00651683
0.00700355
0.00722431
0.00738399
0.00758329
0.00796773
0.00861807
0.00935564
0.0111447
0.014243
0.0218698
0.00491739
0.00506035
0.00519788
0.00534271
0.00547262
0.00555964
0.00561493
0.00569361
0.00577674
0.00587293
0.00598966
0.00617792
0.00656164
0.00706918
0.00728728
0.0074488
0.00770042
0.00809849
0.00881399
0.00983251
0.0118079
0.0150893
0.0221655
0.00495474
0.00511843
0.00525195
0.00537875
0.00550125
0.00557951
0.00562448
0.00570392
0.00578226
0.0058792
0.00600078
0.00619627
0.00659684
0.00711917
0.007369
0.00755353
0.00780109
0.00832217
0.00930339
0.0105906
0.0133111
0.0179748
0.0281677
0.00501368
0.00517387
0.00529895
0.00540793
0.00552591
0.00559844
0.00563971
0.00571201
0.00579225
0.00588611
0.00601294
0.00621495
0.00665046
0.00718912
0.00744036
0.00763241
0.00794137
0.00852888
0.00978108
0.0116574
0.0156857
0.0249124
0.0417598
0.00505025
0.00521587
0.00534021
0.00543832
0.00554679
0.00561508
0.00565378
0.00572437
0.00579719
0.00589195
0.00602267
0.00623119
0.00668489
0.00724139
0.00752447
0.00773605
0.00815231
0.0088962
0.0108995
0.014502
0.0236425
0.0406116
0.0586724
0.00510389
0.00525857
0.00537787
0.00546381
0.00556833
0.0056317
0.00567322
0.00573493
0.00580283
0.00590128
0.0060349
0.0062529
0.00674399
0.00730795
0.00759844
0.00785159
0.00831354
0.00947172
0.012406
0.0187661
0.0332101
0.0560131
0.0803726
0.00514919
0.00529285
0.0054115
0.00549128
0.00558509
0.00564926
0.00569018
0.00574778
0.00581036
0.00590924
0.0060428
0.00626512
0.00677742
0.00735158
0.00766018
0.00793571
0.00855934
0.0101939
0.0148594
0.0251041
0.0456572
0.0744916
0.0980177
0.00519555
0.00532377
0.00544295
0.00551588
0.00560392
0.00566589
0.00570688
0.00575854
0.00581901
0.0059184
0.00605341
0.00628407
0.00682738
0.00739717
0.00771618
0.0080255
0.00888705
0.0111489
0.0178893
0.031992
0.0574509
0.0899312
0.111016
0.00524163
0.00535032
0.00547171
0.00554073
0.00561866
0.00568324
0.00572239
0.00576949
0.00582749
0.00592556
0.00605937
0.00629356
0.00685647
0.00742297
0.00775329
0.00812646
0.00920668
0.0123064
0.0210789
0.0374063
0.0667669
0.100994
0.118424
0.00528432
0.0053802
0.00549917
0.00556337
0.00563588
0.0057003
0.00573598
0.00577989
0.0058358
0.00593376
0.00606758
0.00630787
0.00689601
0.00745067
0.00779256
0.00821969
0.00956716
0.0135086
0.0234483
0.0408035
0.0705086
0.104708
0.123552
0.00532818
0.00540721
0.00552593
0.00558486
0.00565048
0.00571685
0.00574942
0.00579003
0.00584384
0.0059404
0.00607301
0.00631586
0.00692381
0.00746319
0.00781773
0.00828586
0.00994081
0.0143966
0.0247195
0.042566
0.0715201
0.105899
0.123678
0.00536842
0.00543764
0.00555219
0.00560511
0.00566659
0.00573312
0.00576099
0.00580009
0.00585224
0.0059475
0.00607929
0.0063272
0.00695592
0.00747962
0.00783759
0.00839132
0.0103165
0.0148501
0.0250949
0.0421658
0.0717843
0.105473
0.122557
0.00540657
0.00546422
0.00557662
0.0056241
0.00568062
0.00574753
0.00577204
0.0058097
0.00585983
0.00595308
0.0060833
0.00633268
0.00697641
0.00748768
0.00784914
0.00843366
0.0103538
0.0147727
0.0239763
0.0385653
0.0654824
0.0968898
0.115385
0.00544036
0.00549111
0.00560065
0.00564204
0.00569557
0.005761
0.00578188
0.00581862
0.00586703
0.0059584
0.00608681
0.00633757
0.00699633
0.00749357
0.00786503
0.00845973
0.0103551
0.014234
0.0219121
0.0342274
0.0573144
0.0861088
0.105573
0.00547312
0.00551664
0.00562381
0.00566134
0.00571052
0.00577482
0.0057932
0.00582901
0.00587461
0.00596349
0.00609007
0.00634172
0.00701442
0.00750521
0.0078816
0.00844935
0.0102189
0.0134313
0.0196132
0.0297893
0.0491255
0.074856
0.0945246
0.00550561
0.00554407
0.00564894
0.0056807
0.00572732
0.00578777
0.00580395
0.0058386
0.00588163
0.00596855
0.00609246
0.00634552
0.00703027
0.00751079
0.00786266
0.00840358
0.0099339
0.0125456
0.0173983
0.0256085
0.0412448
0.0639121
0.0827259
0.00553513
0.00557058
0.00567128
0.00570104
0.00574372
0.00580161
0.0058167
0.00584954
0.00588941
0.00597294
0.00609501
0.00634856
0.00704471
0.00752663
0.00783671
0.00831186
0.00961829
0.0116768
0.0153832
0.0218946
0.0343362
0.0530686
0.0711946
0.00556593
0.00559815
0.00569714
0.00572213
0.00576241
0.00581423
0.00582856
0.00586043
0.00589647
0.00597785
0.00609658
0.00635141
0.00705717
0.00751468
0.00778875
0.00820511
0.00926997
0.0108646
0.0136786
0.0187787
0.0285227
0.0427519
0.060582
0.00559386
0.00562665
0.00571781
0.0057426
0.00577972
0.0058286
0.00584319
0.00587169
0.00590491
0.00598148
0.00609714
0.00635386
0.00706906
0.00749269
0.00774283
0.00810028
0.00895588
0.0101831
0.0122767
0.016238
0.0239142
0.0343029
0.0509911
0.00562109
0.00565316
0.00574319
0.00576463
0.00579915
0.00584059
0.00585524
0.00588301
0.00591249
0.00598627
0.00609743
0.00635565
0.00707298
0.00745922
0.00768673
0.00796224
0.00864296
0.00958607
0.0111632
0.0142367
0.0203821
0.0277231
0.0426932
0.00564947
0.00568238
0.00576355
0.00578478
0.00581671
0.00585596
0.00587141
0.0058953
0.00592149
0.0059896
0.00609744
0.00635723
0.00707579
0.00742255
0.00762557
0.0078591
0.00838606
0.00910026
0.0102818
0.0126817
0.0177464
0.0228171
0.0347742
0.00567342
0.00570745
0.00578434
0.00580562
0.00583606
0.00586761
0.0058831
0.00590616
0.00593016
0.00599422
0.00609735
0.00635786
0.00706603
0.00737074
0.00755694
0.00774453
0.00816995
0.00872397
0.00963008
0.0115019
0.0158014
0.019241
0.0280378
0.00569824
0.00573469
0.00580672
0.0058249
0.00585143
0.00588176
0.00589862
0.0059177
0.00593858
0.00599753
0.00609789
0.00635988
0.00703655
0.00732694
0.00750331
0.00760777
0.00792481
0.00838997
0.0091291
0.0106574
0.0143858
0.0166632
0.0227148
0.0057248
0.00575866
0.00582287
0.0058443
0.00587112
0.00589596
0.00591121
0.00592962
0.00594824
0.00600212
0.00609789
0.0063602
0.00700536
0.00727318
0.0074295
0.00759854
0.00781263
0.00816259
0.00874295
0.0100045
0.0132919
0.0148098
0.0188363
0.00574286
0.0057805
0.00584049
0.00586067
0.0058846
0.00590583
0.00592206
0.00593814
0.0059568
0.00600576
0.00609819
0.00635871
0.00696492
0.00721847
0.00736474
0.00757791
0.00771231
0.00794907
0.00849578
0.00957893
0.0124167
0.0135309
0.0163298
0.00576579
0.00580118
0.00585754
0.00587644
0.00589827
0.00591916
0.00593693
0.00595056
0.00596379
0.00601051
0.00609826
0.00635623
0.0069275
0.00716277
0.00732973
0.00753399
0.00759536
0.00786178
0.00833959
0.00931573
0.0118705
0.012581
0.0141434
0.0057884
0.00582107
0.00587117
0.00589103
0.0059149
0.00593019
0.00594268
0.00595608
0.00597302
0.00601089
0.0060986
0.00635229
0.00688537
0.00716519
0.00732668
0.00746588
0.00760246
0.00783019
0.00824304
0.00923284
0.0113605
0.0120129
0.0131038
0.00579008
0.00583208
0.0058712
0.00590388
0.00592158
0.00593632
0.00594554
0.00595802
0.00598039
0.00601182
0.00609881
0.00634808
0.00684558
0.00713711
0.00732758
0.00746973
0.00758984
0.00781619
0.00817831
0.00922514
0.0112757
0.0117735
0.0123279
0.00579269
0.00583746
0.00587258
0.00590364
0.00592337
0.00593784
0.00594878
0.00596377
0.00597963
0.00601545
0.00609864
0.00634274
0.0068414
0.00715093
0.00730779
0.00745959
0.00756453
0.00779983
0.00819895
0.00928355
0.0112394
0.0118285
0.012273
0.00579593
0.00583975
0.005875
0.00590841
0.00592421
0.00593925
0.00595181
0.00596497
0.00597989
0.00601832
0.00609826
0.00633715
0.00683584
0.00715065
0.00732801
0.00742027
0.00754807
0.00774675
0.00820472
0.00946129
0.0112165
0.0118312
0.0120629
0.00580186
0.00583946
0.0058756
0.00590535
0.00592484
0.00593766
0.00595306
0.00596509
0.00598078
0.00601679
0.00609845
0.00633169
0.00682162
0.00713778
0.00732722
0.00738739
0.00753812
0.00770699
0.00820405
0.00962688
0.0111312
0.0117923
0.0121448
0.00580071
0.00583949
0.00587618
0.00590588
0.00593081
0.00594141
0.00595289
0.00596503
0.00598092
0.00601699
0.00609727
0.00632523
0.00682086
0.00712864
0.00732749
0.00739945
0.00752329
0.00771797
0.00818708
0.0098168
0.0112093
0.01183
0.0121446
0.00579965
0.00583963
0.00587633
0.00590852
0.00592869
0.00593905
0.00595308
0.00596791
0.0059843
0.00601674
0.00609707
0.00632089
0.00680799
0.00714623
0.00732346
0.00740491
0.00752452
0.00768592
0.00818568
0.00993846
0.0112083
0.0118416
0.0119834
0.0058008
0.00584281
0.00587675
0.00590889
0.00593056
0.00593874
0.00595832
0.00596781
0.00598227
0.00601638
0.0060973
0.00631534
0.00680552
0.00714938
0.00731581
0.00739685
0.00752528
0.00772326
0.00818927
0.0100952
0.0111522
0.0118493
0.0121044
0.00580448
0.00584387
0.00588194
0.00590915
0.00592687
0.00594248
0.00595689
0.00596676
0.00598417
0.00601611
0.0060958
0.00631096
0.00680166
0.00715201
0.00729908
0.00740184
0.00749467
0.00770293
0.00820392
0.0101926
0.0111671
0.0117878
0.0119949
0.00580735
0.00584552
0.00588683
0.00590458
0.00592641
0.00593975
0.00595652
0.00596532
0.00598558
0.00601629
0.00609551
0.00630826
0.00679287
0.00715314
0.00732957
0.00738563
0.00753195
0.00770076
0.00825224
0.0102329
0.0112045
0.0117858
0.0119218
0.00580031
0.00583935
0.00588213
0.00590815
0.00592581
0.00594111
0.00595629
0.00596425
0.00598247
0.00601354
0.00609572
0.00630581
0.00678575
0.00715217
0.00733221
0.00742349
0.00752847
0.00770334
0.00828324
0.0102406
0.0112498
0.0117482
0.0118953
0.00579896
0.00584174
0.00588252
0.00590397
0.00592539
0.00593713
0.00595682
0.00596328
0.00598193
0.0060134
0.00609396
0.00630485
0.00678554
0.00715611
0.00733291
0.00742893
0.00750028
0.00771985
0.00841321
0.0103172
0.0112638
0.0117805
0.0119033
0.00580259
0.00584151
0.00588115
0.00590267
0.00592555
0.00593665
0.00595563
0.00596293
0.00598238
0.00601399
0.00609514
0.00630422
0.00678241
0.00715629
0.0073274
0.00742253
0.00755023
0.00773351
0.00849604
0.0103351
0.0112769
0.011766
0.0119294
0.00580257
0.0058408
0.00587977
0.00590184
0.00592476
0.00593572
0.00595665
0.0059639
0.00597881
0.00601361
0.0060935
0.00630379
0.00678306
0.00715836
0.00735924
0.0074712
0.0075603
0.00774047
0.00853478
0.0103965
0.0113133
0.0117658
0.0118204
0.00580224
0.00584036
0.00587683
0.00590191
0.00592472
0.00593502
0.00595215
0.00595982
0.00597828
0.006014
0.00609446
0.00630342
0.00678167
0.00715705
0.00736042
0.00748288
0.00758527
0.00778084
0.00854118
0.0103043
0.0112933
0.0116824
0.011686
0.00579653
0.00584269
0.00586939
0.00589954
0.00591907
0.00593678
0.00595169
0.0059636
0.00598096
0.00601057
0.00609417
0.00630317
0.00677731
0.00715345
0.00736931
0.00750834
0.00759442
0.00779276
0.00854117
0.0102855
0.0112446
0.0115452
0.011537
0.00579206
0.00584464
0.00587423
0.0059
0.00591966
0.00593575
0.00595416
0.00595981
0.00597699
0.0060098
0.00609301
0.00630259
0.00677877
0.00715206
0.00736442
0.00752019
0.00761629
0.00786153
0.00853893
0.0102869
0.0112051
0.0114617
0.0114042
0.00578874
0.00584451
0.00586814
0.00589276
0.00591857
0.00593265
0.00595444
0.00596096
0.00597621
0.00600891
0.00609216
0.00630242
0.00677324
0.00715295
0.00736588
0.00752886
0.00756617
0.00781418
0.0085215
0.0103367
0.0111017
0.0112528
0.0112429
0.00578398
0.00583635
0.00586506
0.00589187
0.00592534
0.00593363
0.00595155
0.00596083
0.00597628
0.00600822
0.00609065
0.00630171
0.00676966
0.00716254
0.00736158
0.00748612
0.00760644
0.00784403
0.00855242
0.0103341
0.0110161
0.01101
0.0110138
0.00577865
0.0058352
0.00586493
0.00588902
0.00591998
0.00592732
0.00594939
0.00595863
0.0059726
0.00600859
0.00608961
0.00630089
0.0067675
0.00715254
0.0073597
0.00750724
0.00757019
0.00782238
0.00861077
0.010273
0.0108834
0.0108305
0.0108351
0.00577949
0.00582454
0.00586256
0.00588759
0.00592283
0.0059322
0.00594614
0.00595671
0.00597415
0.00600416
0.0060873
0.00629914
0.00676427
0.0071528
0.00735718
0.00747967
0.00756557
0.00781946
0.00864974
0.0101518
0.0107018
0.0106263
0.0106175
0.00576713
0.00582333
0.00586202
0.00588872
0.00592257
0.00592642
0.00594319
0.00595648
0.00596888
0.00600359
0.00608591
0.00629749
0.00676272
0.00714924
0.0073621
0.0074745
0.00758723
0.0078532
0.00873331
0.0100605
0.0105594
0.0104843
0.0104805
0.00576619
0.00582931
0.00586531
0.00588642
0.00591797
0.00592916
0.00593563
0.0059499
0.00596833
0.00600464
0.00608299
0.00629355
0.00675936
0.00714257
0.00735983
0.00748444
0.00760405
0.00786895
0.00878185
0.00994617
0.0104423
0.0104063
0.0104659
0.00576729
0.00582677
0.00586616
0.00589003
0.00591358
0.00592751
0.0059344
0.00594871
0.00596784
0.0060051
0.00608128
0.00629014
0.0067558
0.00712624
0.00734456
0.00751072
0.00761069
0.00792087
0.00884906
0.0098708
0.010292
0.0103307
0.0104137
0.00577127
0.00582458
0.00586262
0.0058895
0.00590954
0.00592478
0.00593789
0.00594943
0.00596832
0.0060022
0.00607697
0.00628466
0.00675288
0.00712213
0.00735421
0.00751298
0.00761146
0.00793289
0.00879802
0.00973842
0.0101364
0.0103115
0.0103228
0.00576553
0.00580686
0.00585753
0.00587992
0.00590523
0.00591721
0.00593623
0.00595023
0.00596652
0.00599681
0.00607705
0.00628604
0.00676026
0.00711715
0.00734628
0.00750323
0.00761446
0.00796748
0.00888041
0.00969021
0.0100906
0.0103138
0.0102957
0.00575626
0.00580202
0.00584955
0.00587437
0.00589842
0.00590598
0.00593207
0.00594735
0.00596303
0.00599315
0.00607062
0.00626851
0.00673733
0.00709486
0.00732947
0.00748166
0.00760731
0.00794797
0.00871939
0.00956872
0.0099095
0.0101724
0.0102328
0.00574928
0.00579367
0.00583623
0.00586402
0.00589397
0.00590194
0.00592521
0.00594215
0.00595862
0.00598556
0.00606409
0.00624917
0.00671351
0.00707688
0.0073194
0.0074706
0.00760199
0.00792541
0.00868646
0.00947529
0.00974704
0.00993565
0.0100686
0.00573656
0.00578755
0.00581768
0.00585381
0.0058807
0.00590216
0.00591808
0.00593436
0.00595331
0.00598416
0.00605549
0.00622838
0.00668128
0.00706532
0.00731188
0.00746333
0.00760343
0.00789895
0.00867403
0.00934368
0.00961497
0.00976426
0.00991496
0.00571251
0.0057897
0.00581124
0.00584796
0.00588154
0.00589488
0.00591275
0.00592134
0.00594889
0.00597838
0.00604606
0.00620634
0.0066399
0.0070458
0.00730537
0.00745858
0.00761124
0.00787037
0.00857089
0.00922413
0.00950571
0.00964594
0.00980443
0.00570394
0.00578091
0.00581321
0.00582991
0.0058753
0.00588383
0.0059035
0.00590323
0.00593989
0.00596991
0.00603475
0.00618265
0.00658624
0.00702563
0.007299
0.00745251
0.00761932
0.00785749
0.00846795
0.00901576
0.00936988
0.00955145
0.0097148
0.00570682
0.00576887
0.00580521
0.00580355
0.00586063
0.00587135
0.00589925
0.00589654
0.00592988
0.00595754
0.00602204
0.00615817
0.00651757
0.00699921
0.00728849
0.00742483
0.00764432
0.00781079
0.00836324
0.00902539
0.00929836
0.0094843
0.00965504
0.00569428
0.00575362
0.00578935
0.00579384
0.00584575
0.0058604
0.00588722
0.00589647
0.00591539
0.00594599
0.00600784
0.00613141
0.00644495
0.00695758
0.00726917
0.00741699
0.00766288
0.0077941
0.00817811
0.00889753
0.00929739
0.0095129
0.0096402
0.0056739
0.00573636
0.0057719
0.00579543
0.00583163
0.00584346
0.00587194
0.00588753
0.00590238
0.00593391
0.00599185
0.00610358
0.00637448
0.00688871
0.00724335
0.00740665
0.0076687
0.00787283
0.00825221
0.00888099
0.00928879
0.00953301
0.00967182
0.00565186
0.00571334
0.00574967
0.00578143
0.00581322
0.00582266
0.00585168
0.00587103
0.00588681
0.00591753
0.00597131
0.00607264
0.0063057
0.00678983
0.0072012
0.00738107
0.00764759
0.00783583
0.00831947
0.00903907
0.00943044
0.00965071
0.00978271
0.00562314
0.0056867
0.00572596
0.00576088
0.00579197
0.0058005
0.00582948
0.00585215
0.00586898
0.00589855
0.00594859
0.00604058
0.00624051
0.00667905
0.00712427
0.00734586
0.00764173
0.00782942
0.00817865
0.00911623
0.00949878
0.00973535
0.00985038
0.00559233
0.00565349
0.0056954
0.0057322
0.00576413
0.00577269
0.00580122
0.00582578
0.00584464
0.00587311
0.00592007
0.00600378
0.00617488
0.00655535
0.00702203
0.00730174
0.00763605
0.00782735
0.00816626
0.00914564
0.00979786
0.0100883
0.010106
0.00555767
0.00561738
0.00566094
0.00570019
0.00573358
0.00573685
0.00576954
0.0057973
0.00581696
0.00584496
0.0058894
0.00596563
0.00611202
0.00642541
0.0068877
0.00721857
0.00760839
0.00786367
0.00817241
0.00928255
0.010168
0.0103191
0.0103554
0.00551296
0.00557358
0.00561805
0.00566025
0.00569476
0.00570108
0.00573218
0.00575926
0.00578098
0.00580817
0.00585072
0.00592003
0.00604481
0.006303
0.00668977
0.00717685
0.00755353
0.0077562
0.00824617
0.0091498
0.0100259
0.0106659
0.0107513
0.00546523
0.00552688
0.0055731
0.00561792
0.0056526
0.00566641
0.00569314
0.00571978
0.00574167
0.00576894
0.00580931
0.00587289
0.00597949
0.00618352
0.00651111
0.00695045
0.00747522
0.00774646
0.00817364
0.00876295
0.0100466
0.0109578
0.0114327
0.00540965
0.00547028
0.00551843
0.00556518
0.00559911
0.00562083
0.00564386
0.00566788
0.00569147
0.00571815
0.00575636
0.00581377
0.00590518
0.00606624
0.00634531
0.006684
0.00721421
0.00771927
0.00813188
0.00875575
0.00995169
0.0108932
0.011597
0.00535228
0.00541109
0.00546103
0.0055098
0.0055425
0.0055707
0.00559082
0.00561532
0.00563826
0.00566496
0.00570121
0.0057526
0.0058307
0.00595881
0.0061898
0.00646294
0.0068453
0.00750099
0.00795546
0.00881421
0.00984695
0.0109079
0.0116959
0.00528299
0.00533913
0.0053892
0.00543981
0.00547091
0.00550346
0.00552371
0.0055458
0.00556995
0.005596
0.00563042
0.00567586
0.00574012
0.0058415
0.00602627
0.0062502
0.00653167
0.00700507
0.00767033
0.00854183
0.00959663
0.0106777
0.0113074
0.00520942
0.00526487
0.00531444
0.00536717
0.00539713
0.00543255
0.0054529
0.00547637
0.00549941
0.0055251
0.00555704
0.0055998
0.00565295
0.00573017
0.00587578
0.0060609
0.00626335
0.00659081
0.00714183
0.00795981
0.00920861
0.0104259
0.0112304
0.00511836
0.00517339
0.00522133
0.0052752
0.00530373
0.00534033
0.00536283
0.00538388
0.00540761
0.00543298
0.00546178
0.0054996
0.00554493
0.00560229
0.00569939
0.00586393
0.00601453
0.00623315
0.00660277
0.00727048
0.00832474
0.00985729
0.0110909
0.0050236
0.00508016
0.00512792
0.00518208
0.00521041
0.00524698
0.00527104
0.00529329
0.00531511
0.00534008
0.00536818
0.00540036
0.00544258
0.00548521
0.0055499
0.00567643
0.00580668
0.00594508
0.00617649
0.00659626
0.00735774
0.00884734
0.0106839
0.00490633
0.00496379
0.0050112
0.00506358
0.00509116
0.0051267
0.00515237
0.00517256
0.00519417
0.00521716
0.00524407
0.00526865
0.00530809
0.00534259
0.00538459
0.00545714
0.0055838
0.00569067
0.00582384
0.00605887
0.00649953
0.00735825
0.00938965
0.00478939
0.00484822
0.00489802
0.00494747
0.00497581
0.00500914
0.00503668
0.00505734
0.00507709
0.00509831
0.00512743
0.00514664
0.0051784
0.00521194
0.00524259
0.00528594
0.00536469
0.0054754
0.00556936
0.00569301
0.00591554
0.00634894
0.0073313
0.00464379
0.0047023
0.00475304
0.00479749