/*--------------------------------*- C++ -*----------------------------------*\
  =========                 |
  \\      /  F ield         | OpenFOAM: The Open Source CFD Toolbox
   \\    /   O peration     | Website:  https://openfoam.org
    \\  /    A nd           | Version:  7
     \\/     M anipulation  |
\*---------------------------------------------------------------------------*/
FoamFile
{
    version     2.0;
    format      ascii;
    class       volScalarField;
    location    "50";
    object      nut;
}
// * * * * * * * * * * * * * * * * * * * * * * * * * * * * * * * * * * * * * //

dimensions      [0 2 -1 0 0 0 0];

internalField   nonuniform List<scalar> 
12842
(
0.00180905
0.00179771
0.00178506
0.00177351
0.00177437
0.00176588
0.00176806
0.00175897
0.00176187
0.00175636
0.00175954
0.00175665
0.00176308
0.00176699
0.00110333
0.000601236
0.000378922
0.000264661
0.000197856
0.000154263
0.000125041
0.000104603
9.08871e-05
0.00180789
0.00179395
0.00178289
0.00177201
0.00177346
0.00176608
0.00176807
0.00175952
0.00176135
0.00175551
0.00175989
0.00175758
0.00176336
0.00176776
0.00107661
0.00058942
0.000372317
0.000260923
0.000195688
0.00015306
0.000124759
0.000104997
9.13386e-05
0.00180898
0.00179791
0.00178088
0.00176827
0.00176585
0.00176188
0.00176341
0.00175871
0.00176188
0.00175515
0.00175834
0.00175746
0.00176329
0.00176872
0.00105206
0.000579745
0.000368012
0.000258897
0.000194501
0.000152795
0.00012457
0.000105656
9.19047e-05
0.00180334
0.001794
0.00178372
0.00176909
0.00177187
0.00176698
0.00176594
0.00175542
0.00175956
0.0017544
0.00175786
0.00175769
0.00176329
0.00176947
0.00102108
0.000566448
0.000361489
0.00025518
0.000192204
0.000151524
0.000123579
0.000105661
9.19948e-05
0.00180648
0.00179109
0.00178317
0.00176606
0.00176291
0.00176737
0.00176564
0.00175559
0.00175759
0.00175317
0.00175644
0.00175825
0.00176336
0.00177055
0.000993825
0.000554654
0.000355893
0.000252142
0.000190336
0.000150713
0.000123316
0.000106179
9.24997e-05
0.00180252
0.00178465
0.00178303
0.0017732
0.00176395
0.00176654
0.00176894
0.00175699
0.00175689
0.00175198
0.001756
0.00175815
0.00176344
0.00177198
0.000972583
0.00054557
0.000351632
0.000250001
0.000189094
0.000150108
0.00012305
0.00010656
9.32468e-05
0.00180688
0.0017819
0.00177339
0.00177078
0.00176437
0.00176814
0.00176515
0.00175723
0.00175731
0.00175198
0.0017551
0.00175868
0.00176345
0.00177329
0.00097618
0.000549036
0.000354163
0.0002518
0.000191016
0.000152251
0.000124827
0.000108535
9.52045e-05
0.00180239
0.00178082
0.0017767
0.00177119
0.00176399
0.00176741
0.0017679
0.00175819
0.00175676
0.00175269
0.00175445
0.00175902
0.00176344
0.00177511
0.000967633
0.000547756
0.000355343
0.000253651
0.000191955
0.000153179
0.000126315
0.000110592
9.72196e-05
0.00180707
0.00178058
0.00176653
0.00176833
0.00176266
0.00176608
0.00176533
0.00175817
0.00175625
0.00175311
0.00175459
0.00175895
0.00176418
0.00177808
0.000965745
0.000551813
0.000361326
0.000259616
0.000196947
0.000157993
0.000130524
0.000115281
0.000101422
0.00179906
0.00178018
0.00177154
0.00176774
0.00176213
0.00176491
0.00176496
0.00175889
0.00175582
0.00175359
0.00175432
0.00175874
0.00176529
0.00178165
0.00098194
0.000561408
0.000369588
0.000267424
0.000203154
0.000163931
0.000135694
0.000120113
0.000105476
0.00180272
0.00177771
0.00176646
0.00176513
0.00176075
0.00176244
0.00176122
0.00175751
0.00175522
0.00175317
0.00175412
0.00175875
0.00176636
0.00178678
0.000975909
0.000562201
0.000373575
0.000272534
0.0002084
0.000168969
0.000140094
0.000124541
0.000109274
0.00179804
0.0017786
0.00176743
0.001764
0.00176072
0.00176127
0.00176036
0.00175716
0.00175512
0.0017537
0.00175502
0.00175924
0.00176942
0.00179592
0.000974629
0.000567579
0.000381549
0.000280349
0.000214856
0.000175047
0.000145176
0.00012893
0.000112997
0.00179771
0.00177764
0.00176691
0.00176252
0.00175999
0.00175934
0.00175634
0.00175487
0.00175343
0.00175396
0.00175578
0.00175995
0.0017741
0.00180754
0.000979452
0.000579782
0.000392648
0.000289777
0.000222785
0.000181499
0.000150587
0.000133692
0.000116934
0.00179626
0.00177526
0.00176407
0.00176192
0.00176018
0.00175866
0.00175455
0.00175372
0.00175355
0.00175575
0.00175635
0.00176189
0.00177995
0.00182711
0.000991105
0.00059828
0.000408189
0.000301365
0.000231486
0.000188732
0.000156287
0.000138165
0.000120657
0.00179456
0.00177643
0.00176395
0.00176152
0.00175908
0.00175678
0.00175078
0.00175114
0.00175376
0.0017573
0.00175904
0.00176586
0.00179391
0.00185467
0.00101633
0.000623454
0.000425654
0.000313988
0.000241045
0.00019581
0.000162009
0.000142778
0.000124444
0.00179439
0.00177202
0.00176202
0.00176201
0.00175822
0.0017558
0.00174917
0.0017503
0.00175463
0.00176668
0.00176836
0.00178036
0.00181909
0.00188601
0.00105314
0.000654711
0.000447551
0.000328654
0.000251247
0.000203542
0.000168016
0.000147215
0.000128233
0.00179325
0.00177253
0.00175921
0.00176245
0.00175674
0.00175364
0.00174637
0.00174951
0.00175667
0.00177911
0.00178871
0.00180726
0.00185272
0.00191263
0.00110498
0.000692143
0.000471687
0.000344638
0.00026247
0.000211388
0.000174341
0.000151954
0.00013227
0.00179347
0.00176767
0.00175872
0.00176335
0.00175317
0.00175264
0.00174575
0.00174989
0.00176447
0.00180835
0.00182211
0.00184383
0.00188455
0.00193452
0.00116916
0.000737998
0.000501677
0.000363658
0.000274803
0.000220178
0.000181257
0.00015709
0.000136661
0.00179307
0.00176793
0.00175606
0.00176428
0.00175222
0.00175073
0.00174588
0.00175081
0.00177078
0.00183368
0.00185717
0.00188163
0.00191016
0.00194984
0.00124924
0.000791073
0.000535176
0.000384954
0.000288912
0.000229864
0.000188924
0.000162907
0.000141577
0.00179334
0.0017626
0.00175309
0.00176323
0.00174824
0.00175043
0.00174641
0.00175574
0.00179661
0.00187604
0.00190203
0.00191284
0.00192633
0.0019607
0.0013434
0.00085779
0.000578411
0.000411461
0.000305315
0.000241182
0.000197919
0.00016979
0.000147373
0.00179303
0.0017632
0.0017513
0.00176418
0.00174472
0.00175013
0.00174634
0.00175669
0.00182115
0.00191052
0.00194556
0.00193469
0.0019368
0.0019661
0.00145077
0.000933588
0.000627369
0.000441902
0.000324633
0.000254145
0.000208567
0.000177782
0.000154392
0.00179323
0.00175907
0.00174676
0.00176096
0.00174533
0.0017499
0.00175158
0.00177183
0.00186741
0.00195727
0.0019793
0.00194456
0.00193999
0.001969
0.00159375
0.00103747
0.000694781
0.000481454
0.000348909
0.000270261
0.000221454
0.000187622
0.000162832
0.00179268
0.00175942
0.00174299
0.00175921
0.00174121
0.00175223
0.00176024
0.00179452
0.00189951
0.00199206
0.00200454
0.00195008
0.00194132
0.0019676
0.00168816
0.00113997
0.000773998
0.000530002
0.00037745
0.000287968
0.000235223
0.000198237
0.000172245
0.00179305
0.00175673
0.00173591
0.00175806
0.0017409
0.00175923
0.00177767
0.00183565
0.00194358
0.00202517
0.00201261
0.00194446
0.00193585
0.00196442
0.00178464
0.00126903
0.000886208
0.000594423
0.000413435
0.000309667
0.00025067
0.000210545
0.000183545
0.00179193
0.00175843
0.00173182
0.00175651
0.00174223
0.00177302
0.00180547
0.00185997
0.00196311
0.00202934
0.00200522
0.00193479
0.00193
0.0019587
0.00197664
0.00145734
0.00103602
0.000677043
0.000456085
0.000334947
0.000268602
0.000224803
0.000196499
0.00179225
0.00175519
0.00172863
0.00175509
0.00175327
0.0018011
0.00182731
0.00187921
0.00196948
0.00202338
0.00199099
0.00192305
0.0019212
0.00195249
0.00197042
0.00167014
0.00126017
0.000786682
0.000505214
0.000360781
0.000284089
0.00023736
0.000207583
0.00179248
0.00175555
0.00172431
0.0017581
0.00178104
0.00183224
0.00184667
0.00188897
0.00197037
0.00201042
0.00197332
0.00191173
0.00191494
0.0019474
0.00196066
0.00191199
0.00162772
0.000943485
0.000560196
0.000385344
0.000298147
0.000247988
0.000216481
0.00179117
0.00175364
0.00172885
0.00176705
0.00181129
0.00185575
0.00185734
0.00189525
0.0019621
0.00199363
0.00195428
0.00190092
0.00190722
0.0019415
0.0019499
0.00189392
0.00181236
0.00115167
0.000612203
0.000403694
0.000305433
0.000254741
0.000222726
0.00179364
0.00175325
0.00172964
0.00179115
0.00184043
0.00187569
0.00186372
0.00189442
0.00195207
0.00197339
0.00193599
0.00189161
0.00190233
0.00193837
0.00194287
0.0018801
0.00179806
0.00138462
0.00064668
0.000411234
0.000310957
0.000263621
0.000231348
0.00179121
0.00175501
0.00174467
0.00181914
0.00185879
0.00188569
0.00186673
0.00189103
0.00193853
0.00195401
0.00191894
0.00188354
0.00189712
0.00193428
0.00193132
0.00186051
0.00176355
0.00149491
0.000649044
0.000412429
0.000315693
0.000271563
0.000233841
0.00179334
0.00175477
0.00176182
0.00185064
0.00187194
0.00189138
0.00186435
0.00188692
0.00192416
0.00193398
0.00190416
0.00187704
0.001894
0.0019331
0.00192651
0.00184817
0.00174501
0.00133552
0.000621547
0.000408847
0.00032264
0.000280144
0.000240151
0.00179185
0.00175642
0.00178443
0.0018807
0.00187754
0.00189084
0.00186284
0.00187859
0.00191199
0.0019168
0.00189119
0.00187166
0.00189145
0.0019312
0.00191488
0.00182555
0.00170398
0.00108152
0.000571705
0.000393868
0.000312723
0.000271793
0.000240071
0.00179386
0.00176145
0.00180604
0.00190027
0.00188212
0.00188901
0.00185793
0.00187575
0.00189835
0.00190076
0.00188064
0.00186766
0.00188995
0.00193167
0.00191081
0.00181302
0.0015792
0.000860299
0.000515381
0.000377317
0.000324452
0.000319123
0.000317442
0.00179192
0.00177367
0.00182151
0.00191268
0.00188287
0.00188346
0.00185611
0.00186742
0.0018899
0.00188765
0.00187165
0.00186445
0.00188955
0.00193128
0.00189915
0.00164681
0.00118107
0.000710334
0.000468104
0.00038042
0.000371379
0.00041685
0.000496873
0.00179718
0.00179483
0.0018387
0.00192019
0.00188639
0.0018806
0.00185264
0.00186567
0.00187966
0.00187682
0.00186478
0.00186234
0.00188951
0.0019333
0.00189425
0.00137996
0.000938046
0.000605536
0.000440815
0.000400559
0.000443752
0.000598264
0.00111454
0.00179627
0.00181351
0.00185215
0.00191859
0.00188748
0.00187464
0.00185323
0.00186049
0.00187434
0.0018677
0.001859
0.0018608
0.00189053
0.00193358
0.00179762
0.00119915
0.000792894
0.000531862
0.00041919
0.00041863
0.00051216
0.000934579
0.0015787
0.001797
0.00183664
0.00186831
0.00191637
0.00189022
0.0018722
0.00185259
0.0018594
0.00186813
0.00186092
0.00185502
0.00185999
0.00189186
0.00193636
0.0016518
0.00104435
0.000680083
0.000475528
0.000392902
0.000393786
0.000483652
0.00087295
0.00132561
0.00179875
0.00185017
0.00188234
0.00191082
0.00189262
0.00186856
0.00185435
0.00185668
0.0018639
0.00185454
0.00185163
0.0018597
0.00189376
0.00193728
0.00153137
0.000938305
0.0006034
0.000425472
0.000365199
0.000392996
0.000655402
0.000801149
0.00117587
0.00180945
0.00186473
0.00189615
0.00190436
0.00189341
0.00186646
0.00185563
0.00185548
0.00186047
0.00184978
0.00184974
0.00185969
0.00189631
0.00193964
0.00142239
0.000843621
0.000537079
0.000389371
0.000336202
0.000348039
0.00052823
0.000697355
0.000918904
0.00182305
0.00187393
0.0019056
0.00189747
0.00189439
0.00186396
0.00185798
0.00185238
0.00185588
0.00184441
0.00184799
0.00186029
0.00189895
0.00194164
0.00133102
0.000775232
0.000490844
0.000354916
0.00030554
0.00031451
0.00038424
0.000530862
0.000642342
0.00183215
0.00188102
0.00190987
0.00189087
0.00189442
0.00186171
0.0018572
0.00185031
0.00185161
0.0018419
0.00184737
0.00186078
0.00190239
0.00194296
0.00125664
0.000720053
0.000452547
0.000327591
0.000270928
0.00026189
0.000350518
0.000381772
0.000560258
0.00184642
0.00188394
0.0019122
0.00188111
0.0018892
0.00185843
0.00185549
0.00184662
0.00184759
0.0018397
0.00184643
0.0018619
0.001906
0.00194608
0.00119399
0.000674871
0.000421971
0.000301779
0.000240268
0.000230238
0.000307528
0.000452774
0.000551252
0.00184522
0.00188488
0.00190902
0.00187433
0.00188526
0.00185421
0.00185251
0.00184353
0.00184194
0.00183951
0.00184633
0.00186289
0.00191001
0.00194611
0.00114752
0.000646201
0.000402209
0.000278153
0.000219704
0.000242051
0.000298247
0.000476633
0.000568891
0.0018514
0.00188425
0.00190512
0.0018631
0.00187681
0.00184927
0.00184615
0.00183887
0.00183879
0.00183976
0.00184571
0.00186414
0.00191481
0.0019502
0.00111206
0.00062184
0.000382474
0.00026472
0.000201295
0.000200665
0.000335137
0.000560326
0.000598082
0.00184183
0.00187487
0.00189834
0.00185619
0.00186981
0.00184288
0.00183887
0.00183586
0.00183537
0.00183967
0.00184574
0.00186583
0.00191927
0.00194872
0.00109128
0.000610298
0.000375358
0.000252649
0.000195589
0.000220638
0.000367257
0.00047231
0.000408065
0.00184475
0.00187025
0.00189074
0.00184824
0.00186112
0.00183673
0.00183179
0.00183012
0.00183463
0.00184013
0.00184538
0.00186699
0.00192541
0.00195302
0.00107766
0.000605659
0.000369032
0.000250457
0.000194709
0.000229224
0.000436527
0.000453332
0.000363482
0.00183582
0.00186052
0.00188189
0.00184192
0.00185312
0.0018307
0.00182629
0.00182717
0.00183531
0.00183907
0.00184549
0.00186937
0.00193016
0.00195078
0.00108448
0.00061307
0.000376241
0.000252479
0.000195674
0.000242476
0.000622533
0.000385406
0.00028666
0.0018404
0.00185565
0.00187307
0.00183619
0.00184469
0.00182631
0.0018236
0.00182566
0.00183718
0.00183868
0.00184543
0.00187075
0.00193754
0.00195256
0.00108191
0.000617373
0.000379979
0.000255959
0.00020096
0.000231385
0.000824589
0.000371575
0.000334777
0.00183574
0.00184872
0.00186356
0.00183219
0.00183896
0.00182394
0.00182258
0.00182736
0.00183673
0.00183863
0.00184556
0.00187317
0.0019427
0.00195249
0.00105829
0.000616035
0.000387235
0.000256
0.000201509
0.000240632
0.000900478
0.000630108
0.000473416
0.00184211
0.0018452
0.00185394
0.00182575
0.00183509
0.00182336
0.00182295
0.00182876
0.00183562
0.00183906
0.00184578
0.00187534
0.00195048
0.0019481
0.00104917
0.000621563
0.000395055
0.000268831
0.000221003
0.000299611
0.00105794
0.00150511
0.000935686
0.00184601
0.00184161
0.00184608
0.00182283
0.0018331
0.00182434
0.00182426
0.00183039
0.00183517
0.00183957
0.00184567
0.00187681
0.00195538
0.00189991
0.00103893
0.000632255
0.000429745
0.000298552
0.000286012
0.000534356
0.00154018
0.00166294
0.00164101
0.00185342
0.00183923
0.00184076
0.00182146
0.00183225
0.00182568
0.00182571
0.0018311
0.00183492
0.00184021
0.00184594
0.00187898
0.00196206
0.0018385
0.00104393
0.000662806
0.000457176
0.000364395
0.000490732
0.00101912
0.00138822
0.00146736
0.0015406
0.00185924
0.00183719
0.00183789
0.00182273
0.0018308
0.0018269
0.00182747
0.00183142
0.00183479
0.00184074
0.00184567
0.00187986
0.00196593
0.00173536
0.00101161
0.000660191
0.000502919
0.000510949
0.000863454
0.00111233
0.00124368
0.00136259
0.00138076
0.00186305
0.00183811
0.00183735
0.00182358
0.00183045
0.00182832
0.00182875
0.00183134
0.00183437
0.00184128
0.00184574
0.00188137
0.00196999
0.00163633
0.000991113
0.000674914
0.000553404
0.000716038
0.000984347
0.000981616
0.00110967
0.00125227
0.00131683
0.00186656
0.00183871
0.0018392
0.00182484
0.00182943
0.00182946
0.00183002
0.00183068
0.00183388
0.00184159
0.00184555
0.00188188
0.00197324
0.00148384
0.000920324
0.000645657
0.000611605
0.000943323
0.00084829
0.000867092
0.00101498
0.00114632
0.00120661
0.00186802
0.00184109
0.00184153
0.00182535
0.00182976
0.0018307
0.00183073
0.00182972
0.00183327
0.00184171
0.00184544
0.00188274
0.00197535
0.00139978
0.000892593
0.000670989
0.000752556
0.000848269
0.000779869
0.000800081
0.000994691
0.0011208
0.0011569
0.0018701
0.00184157
0.00184399
0.00182664
0.00182988
0.00183167
0.00183109
0.00182913
0.00183292
0.00184153
0.00184516
0.00188262
0.00197679
0.00138758
0.000892196
0.000711276
0.000839179
0.000801094
0.000730725
0.000708055
0.000903914
0.00102002
0.00107344
0.00187123
0.00184257
0.00184574
0.00182771
0.00183088
0.00183239
0.00183108
0.00182853
0.00183249
0.00184118
0.00184479
0.00188238
0.00197835
0.00143269
0.000934369
0.00076272
0.000903898
0.000766309
0.000657108
0.000631369
0.000784612
0.00090505
0.000982108
0.00187209
0.00184208
0.00184729
0.00182986
0.00183153
0.00183317
0.00183096
0.00182876
0.00183243
0.00184078
0.00184447
0.001882
0.00197991
0.00148804
0.000986095
0.000821037
0.00093857
0.000717728
0.000591338
0.000546863
0.000675972
0.000780793
0.000877823
0.0018732
0.00184246
0.00184863
0.00183175
0.00183276
0.00183339
0.00183059
0.00182883
0.0018322
0.00184017
0.00184389
0.00188155
0.0019813
0.00155016
0.00103621
0.000866563
0.000904376
0.000666693
0.000521782
0.000477669
0.000585509
0.000668459
0.000765916
0.00187197
0.00184214
0.00184944
0.00183429
0.00183338
0.00183376
0.00183044
0.00182955
0.00183234
0.00183972
0.00184356
0.00188114
0.00198253
0.00161924
0.00108281
0.000910486
0.000868711
0.000616613
0.000474904
0.000428387
0.000512696
0.000573161
0.000662141
0.00187208
0.00184239
0.00185089
0.0018363
0.00183437
0.00183343
0.00183004
0.00183024
0.0018322
0.00183909
0.00184299
0.00188067
0.00198351
0.00168242
0.00112557
0.000954435
0.000826959
0.000577487
0.000449833
0.000395156
0.00045424
0.000492418
0.000585579
0.00186909
0.00184333
0.00185107
0.00183829
0.00183482
0.0018333
0.00183035
0.0018308
0.00183249
0.00183855
0.00184221
0.00188039
0.00198457
0.00174681
0.00116914
0.000994024
0.000797784
0.00056421
0.000439194
0.000374956
0.000406684
0.000431553
0.000535521
0.00186711
0.00184346
0.00185255
0.00183963
0.00183541
0.00183249
0.00183004
0.00183153
0.0018323
0.00183805
0.00184168
0.00187999
0.00198396
0.0018127
0.00121457
0.00102649
0.000777627
0.000566743
0.00044354
0.000369588
0.000370651
0.000388719
0.000497042
0.00186418
0.00184506
0.00185242
0.00184068
0.00183579
0.00183212
0.00183098
0.00183194
0.00183251
0.00183739
0.00184083
0.00187962
0.00198375
0.00185541
0.00124885
0.0010348
0.00077866
0.000584316
0.000456658
0.000370024
0.000343476
0.000358903
0.000460482
0.00186045
0.00184508
0.00185255
0.00184074
0.00183637
0.00183109
0.00183062
0.0018322
0.00183248
0.00183696
0.00184041
0.00187928
0.00198037
0.0018445
0.00126704
0.0010255
0.000795434
0.000613249
0.000483065
0.00038061
0.000326369
0.000339032
0.000430017
0.0018575
0.00184594
0.00185264
0.00184095
0.00183616
0.00183032
0.00183185
0.00183214
0.00183204
0.00183612
0.00184028
0.00187951
0.00197191
0.00183819
0.001274
0.000996843
0.000819256
0.000649557
0.000512969
0.000398523
0.000317596
0.000327681
0.000400202
0.00185485
0.00184573
0.00185131
0.00184026
0.00183717
0.00183017
0.00183153
0.0018325
0.00183237
0.00183585
0.00184019
0.00187962
0.00196335
0.0018337
0.00127075
0.000970806
0.000856374
0.000694275
0.000550659
0.000415041
0.000313475
0.000321271
0.000378474
0.00185101
0.00184513
0.00185006
0.00183936
0.00183687
0.00182857
0.00183188
0.00183159
0.00183179
0.00183481
0.00184002
0.00187917
0.00195369
0.00183305
0.00125536
0.000928732
0.000782101
0.000638832
0.000587621
0.000441814
0.00031653
0.000318462
0.000377502
0.00184731
0.0018434
0.00184835
0.00183744
0.00183588
0.00182805
0.00183185
0.00183156
0.00183092
0.00183468
0.00183897
0.00187845
0.00194686
0.00183419
0.00123936
0.000888025
0.000719409
0.000586582
0.000596549
0.000463009
0.000325969
0.000322225
0.000369867
0.00184494
0.00184161
0.00184654
0.00183526
0.00183631
0.00182723
0.00182993
0.00182985
0.00183076
0.00183239
0.001839
0.00187732
0.00194081
0.00185396
0.00122945
0.000855879
0.000680908
0.000558073
0.000588695
0.000493779
0.000338672
0.000333876
0.000376571
0.00183479
0.00183671
0.00183847
0.00183255
0.0018331
0.00182384
0.00182617
0.00182599
0.00182958
0.0018302
0.0018389
0.00187607
0.00193614
0.00186606
0.00122829
0.000842611
0.000650115
0.000549132
0.000584926
0.000513875
0.000361554
0.000353024
0.000380827
0.00182682
0.00182951
0.00183227
0.00182525
0.00182807
0.00182037
0.0018231
0.00182401
0.00182592
0.00182914
0.00183852
0.00187453
0.00194178
0.00188893
0.00123519
0.000834224
0.000635366
0.000547949
0.000609887
0.000540993
0.000386438
0.000380449
0.000403052
0.00182021
0.00182263
0.001826
0.0018239
0.00182426
0.00181837
0.00182199
0.00182127
0.00182503
0.00182841
0.00183793
0.00187281
0.00194674
0.00190586
0.00125841
0.000833289
0.000638622
0.00055438
0.00064889
0.000579139
0.000409528
0.000403563
0.000418181
0.00181919
0.00181828
0.00182069
0.00182164
0.00182027
0.00181602
0.00181972
0.00182115
0.00182439
0.00182702
0.00183804
0.00187127
0.0019486
0.00191605
0.00129227
0.000844856
0.000649051
0.000573336
0.00067593
0.000591458
0.000425364
0.000421438
0.000438365
0.00181799
0.00181594
0.00181751
0.00182013
0.00182128
0.00181756
0.00181977
0.00182078
0.00182226
0.00182611
0.00183751
0.00186951
0.00195271
0.00192258
0.00133369
0.000874424
0.000672973
0.00060309
0.000735238
0.000610878
0.000443972
0.000446237
0.000458495
0.00181558
0.00181489
0.00181457
0.00182015
0.00181973
0.00181673
0.00181916
0.00182108
0.00182255
0.00182624
0.00183701
0.00186852
0.00195254
0.00193439
0.00138833
0.000906889
0.000704052
0.000647562
0.00077993
0.000618635
0.000457372
0.000459361
0.000465768
0.00181516
0.00181388
0.00181505
0.0018198
0.00181974
0.00181657
0.00181974
0.00182094
0.0018217
0.00182548
0.0018374
0.00186717
0.00195463
0.00193987
0.00144916
0.000950014
0.000746342
0.000697946
0.000800262
0.000625091
0.000466925
0.000475845
0.000485448
0.00181506
0.00181487
0.00181518
0.00181985
0.00181773
0.00181773
0.00181977
0.00181996
0.00182132
0.00182601
0.00183703
0.00186639
0.00195576
0.00194432
0.00151495
0.00100707
0.000792714
0.000758257
0.000817477
0.000629809
0.000482096
0.000488655
0.000495274
0.00181762
0.00181451
0.00181786
0.00181754
0.00181709
0.00181689
0.00181859
0.001819
0.00182242
0.00182593
0.00183717
0.00186618
0.00195474
0.00194775
0.00160474
0.00106456
0.000857155
0.000821603
0.000828298
0.000608314
0.000496479
0.000501882
0.000504031
0.001815
0.00181218
0.00181623
0.00181926
0.00181707
0.00181736
0.00181931
0.00181955
0.00182098
0.00182519
0.00183733
0.00186638
0.00195394
0.00194947
0.0017002
0.00114517
0.000929841
0.000903397
0.000827127
0.00061458
0.000510779
0.000512502
0.000513511
0.00181474
0.00181373
0.00181573
0.00181799
0.00181738
0.00181586
0.00181953
0.00181919
0.00182098
0.00182511
0.00183671
0.0018671
0.00195473
0.00195192
0.0018044
0.00123495
0.00100284
0.00100561
0.000834142
0.000607119
0.000521922
0.000526051
0.000525067
0.00181577
0.00181352
0.00181546
0.00181794
0.00181752
0.00181582
0.00181925
0.00181863
0.0018213
0.00182517
0.00183767
0.00186823
0.00195462
0.00195364
0.0018123
0.00132635
0.00110144
0.00110307
0.000868907
0.000594351
0.000533062
0.000538867
0.000539275
0.0018153
0.00181433
0.00181571
0.00181748
0.00181732
0.00181505
0.00181924
0.00181974
0.00182036
0.00182487
0.00183691
0.0018694
0.00195551
0.00195554
0.00182231
0.00144865
0.00121672
0.00112727
0.000868644
0.000608425
0.000545305
0.000550791
0.000546301
0.00181523
0.00181374
0.001815
0.00181621
0.00181834
0.00181613
0.00181795
0.00181803
0.00181984
0.00182598
0.00183801
0.00187082
0.0019556
0.00195668
0.00182533
0.0015815
0.00133756
0.00113757
0.000874577
0.000592767
0.000556365
0.000557966
0.000551085
0.0018143
0.00181661
0.00181289
0.00181685
0.00181616
0.00181676
0.00181773
0.00182032
0.00182042
0.00182513
0.00183786
0.0018721
0.00195505
0.00195641
0.00182913
0.00164458
0.00140609
0.00114486
0.000869201
0.000587461
0.000567131
0.000561825
0.000553955
0.00181294
0.00181757
0.00181525
0.00181767
0.00181793
0.00181603
0.00181763
0.00181924
0.00182051
0.00182431
0.0018377
0.00187344
0.00195614
0.00195707
0.00183057
0.0016507
0.00141633
0.00115513
0.000871791
0.000598566
0.00058332
0.000572183
0.000560435
0.00181284
0.00181726
0.00181334
0.00181581
0.00181777
0.0018151
0.00181819
0.00181924
0.0018206
0.00182505
0.0018375
0.00187462
0.00195526
0.00195809
0.00183252
0.00165566
0.00141334
0.00116465
0.000854814
0.000621144
0.00060105
0.000581894
0.000570437
0.00181232
0.00181727
0.00181269
0.00181513
0.0018192
0.00181711
0.00181777
0.00182059
0.00182129
0.00182479
0.00183682
0.0018758
0.00195499
0.00196248
0.00183473
0.00165019
0.00142632
0.00117239
0.000842408
0.000650014
0.000627524
0.000597936
0.000584936
0.00181223
0.00181719
0.00181338
0.00181472
0.00181779
0.00181557
0.00181735
0.00182011
0.00182061
0.00182474
0.00183622
0.00187658
0.00195509
0.00196077
0.00183638
0.00166045
0.00142363
0.00116504
0.000817312
0.000681379
0.000657825
0.000624805
0.000608974
0.00181409
0.00181324
0.00181311
0.00181537
0.00181968
0.00181706
0.00181812
0.00181873
0.00182155
0.00182278
0.00183579
0.00187735
0.00195477
0.001963
0.00184052
0.00166163
0.00142988
0.00116487
0.00084129
0.000719052
0.000694898
0.000660161
0.000640481
0.00181219
0.00181262
0.00181402
0.00181539
0.00182082
0.00181717
0.00181745
0.00181902
0.00181878
0.0018231
0.00183592
0.00187767
0.00195493
0.00196334
0.00184493
0.00166265
0.0014388
0.00118872
0.000835437
0.000761157
0.000738199
0.000704087
0.000682177
0.00181208
0.00181551
0.00181653
0.00181705
0.00182055
0.00181648
0.00181443
0.0018176
0.00181996
0.00182391
0.00183608
0.00187775
0.0019545
0.00196474
0.00185269
0.00166509
0.00145437
0.00120072
0.000867134
0.00081333
0.00079461
0.000763934
0.00074387
0.00181361
0.00181672
0.00181789
0.00181837
0.00182176
0.00181768
0.00181413
0.00181865
0.00181933
0.00182518
0.00183614
0.00187737
0.00195375
0.00196195
0.0018535
0.00167393
0.00146337
0.00121123
0.000906079
0.000865596
0.00084565
0.000822822
0.000803098
0.00181524
0.0018199
0.00181915
0.00181694
0.00182102
0.00181606
0.00181635
0.00181942
0.00182001
0.00182548
0.00183586
0.00187722
0.00195485
0.00196638
0.00187044
0.00169697
0.00148211
0.00124115
0.000958796
0.000926679
0.000908507
0.000900228
0.000873577
0.00181148
0.00181517
0.00181819
0.00181426
0.00181968
0.00181404
0.00181758
0.00182184
0.00182049
0.00182448
0.00183642
0.00187775
0.00195534
0.00196479
0.00187028
0.00169344
0.00148137
0.00123004
0.00100793
0.000981588
0.000969067
0.000969467
0.000940008
0.00180864
0.00181287
0.00181925
0.00181373
0.00181747
0.00181215
0.00181758
0.00182148
0.00182065
0.00182424
0.00183545
0.00187444
0.0019526
0.00196822
0.00188815
0.00172015
0.00151253
0.00123125
0.00106382
0.00105206
0.00103577
0.00104385
0.00102249
0.00180802
0.00181231
0.0018158
0.00181292
0.00181794
0.00181376
0.00181708
0.00181929
0.0018209
0.00182304
0.00183619
0.00187099
0.00195018
0.00197309
0.00190734
0.00175034
0.00154671
0.00126255
0.00113015
0.00112009
0.00109787
0.00110093
0.00108867
0.00180736
0.0018146
0.00180939
0.00181358
0.00181827
0.0018181
0.00181631
0.00181748
0.00182148
0.00182403
0.00183525
0.00186721
0.00194652
0.00198068
0.00192777
0.00178399
0.00158872
0.00131017
0.0012014
0.00118356
0.00116502
0.00116606
0.00115854
0.00180317
0.00182164
0.00180755
0.00181728
0.00182092
0.00181742
0.00181652
0.00181649
0.00182443
0.00182433
0.00183517
0.00186318
0.00194112
0.00198685
0.00194883
0.00182066
0.00163844
0.0013689
0.00126485
0.00124884
0.00123525
0.0012377
0.00123501
0.0018051
0.00182098
0.00181178
0.00181361
0.00182247
0.00181409
0.00181638
0.00181425
0.00182395
0.00182497
0.0018347
0.00185903
0.0019333
0.00199396
0.00197042
0.00185867
0.0016944
0.00143956
0.00132951
0.00130652
0.00130361
0.00131358
0.00131455
0.00181251
0.00181662
0.00181367
0.00180501
0.00181909
0.00181358
0.00181935
0.00181602
0.00182445
0.00182418
0.00183184
0.00185505
0.0019216
0.00200016
0.00199105
0.00189111
0.00175591
0.0015117
0.00139551
0.00139192
0.00137567
0.00138732
0.00139307
0.00181746
0.00181454
0.00181888
0.00180481
0.00181844
0.00181482
0.00181968
0.00182103
0.00182111
0.00182398
0.00183103
0.00185169
0.0019097
0.00200307
0.00201018
0.00192838
0.00181625
0.00158723
0.00145004
0.00146083
0.00146114
0.00147309
0.00147369
0.00182292
0.00181344
0.00181964
0.00181084
0.00181971
0.00181447
0.00181876
0.00182472
0.0018205
0.00182384
0.0018302
0.0018484
0.00189833
0.00199818
0.0020273
0.00196383
0.00187016
0.00168152
0.0015504
0.00153823
0.00153908
0.00155194
0.00155439
0.0018201
0.00181202
0.00182052
0.00181336
0.00182179
0.00181384
0.00181757
0.00182029
0.00182067
0.00182398
0.00182961
0.0018457
0.00188839
0.00198529
0.00204039
0.00199498
0.00191717
0.0017382
0.00165034
0.00165226
0.00163829
0.00163825
0.00163785
0.00181057
0.00181043
0.00182519
0.00181638
0.00182239
0.00181297
0.00181622
0.00181872
0.00182047
0.00182359
0.00182868
0.00184296
0.00187917
0.00196796
0.00204218
0.00202167
0.00196847
0.00180433
0.00169198
0.00174938
0.00172666
0.0017178
0.00170796
0.00180747
0.00180956
0.00181603
0.00181739
0.00181972
0.0018121
0.00181488
0.00181757
0.00182035
0.0018233
0.00182796
0.00184073
0.00187123
0.00194739
0.00203715
0.00204599
0.00202151
0.00186974
0.00175881
0.00182257
0.00184351
0.00183517
0.00180094
0.00180617
0.00180933
0.00181256
0.00181642
0.00181815
0.00180949
0.00181298
0.0018169
0.00181962
0.00182256
0.00182708
0.00183847
0.0018639
0.00192403
0.00201978
0.00205604
0.00206679
0.00195623
0.00182812
0.00192677
0.00197945
0.00193351
0.00189821
0.00180479
0.00180902
0.00181042
0.00181464
0.00181708
0.0018096
0.00181186
0.00181591
0.00181915
0.00182187
0.00182636
0.00183657
0.00185761
0.00190545
0.0019849
0.00207697
0.00210015
0.00199914
0.00192544
0.00196022
0.00201525
0.00205171
0.00201987
0.00180387
0.00180814
0.00180884
0.00181281
0.0018157
0.00181084
0.00181091
0.00181515
0.00181786
0.00182098
0.00182533
0.00183445
0.00185184
0.00188645
0.00195422
0.00204239
0.00212515
0.00206004
0.00201079
0.00196263
0.00208317
0.0021616
0.00219071
0.00180356
0.00180679
0.00180748
0.00181104
0.00181366
0.0018121
0.0018103
0.00181357
0.00181677
0.0018198
0.00182403
0.00183216
0.00184701
0.0018728
0.00192782
0.00199458
0.00209581
0.00213337
0.00207651
0.00208029
0.00217777
0.00222292
0.00226581
0.00180355
0.00180533
0.00180628
0.00180931
0.00181114
0.00181244
0.0018093
0.00181232
0.0018149
0.00181846
0.00182239
0.00182895
0.00184162
0.00186215
0.00190328
0.00195699
0.00202922
0.00214419
0.00212523
0.00218214
0.00227731
0.00236124
0.00239694
0.00180342
0.00180403
0.00180499
0.00180737
0.00180809
0.00181176
0.00180853
0.00180999
0.00181303
0.0018165
0.00182048
0.00182618
0.0018359
0.00185212
0.0018821
0.00192409
0.00197765
0.00206514
0.00214459
0.00222092
0.00232487
0.00242666
0.00244221
0.00180264
0.00180277
0.00180353
0.0018055
0.00180521
0.00181011
0.00180728
0.00180841
0.0018107
0.00181444
0.00181762
0.00182287
0.00183031
0.00184259
0.0018648
0.00189805
0.00193633
0.00199717
0.00208606
0.00217387
0.00232893
0.00246237
0.00251502
0.00180126
0.00180134
0.00180166
0.00180358
0.00180219
0.00180744