/*--------------------------------*- C++ -*----------------------------------*\
  =========                 |
  \\      /  F ield         | OpenFOAM: The Open Source CFD Toolbox
   \\    /   O peration     | Website:  https://openfoam.org
    \\  /    A nd           | Version:  7
     \\/     M anipulation  |
\*---------------------------------------------------------------------------*/
FoamFile
{
    version     2.0;
    format      ascii;
    class       volScalarField;
    location    "50";
    object      omega;
}
// * * * * * * * * * * * * * * * * * * * * * * * * * * * * * * * * * * * * * //

dimensions      [0 0 -1 0 0 0 0];

internalField   nonuniform List<scalar> 
12842
(
3.14752
2.84758
2.6599
2.52989
2.43594
2.37347
2.32599
2.29515
2.26996
2.25463
2.24054
2.23265
2.22514
2.22604
2.23039
2.24344
2.26383
2.30745
2.36171
2.44892
2.52197
2.60187
2.68332
3.13473
2.82896
2.64619
2.52529
2.43397
2.37167
2.32474
2.29456
2.26865
2.25278
2.23872
2.23123
2.22496
2.22629
2.23161
2.24463
2.2669
2.30846
2.36555
2.45807
2.52481
2.61689
2.68299
3.11952
2.79902
2.61379
2.49501
2.41706
2.35921
2.31622
2.28833
2.2646
2.24946
2.23623
2.22989
2.22455
2.22623
2.23273
2.24682
2.27176
2.31361
2.37462
2.47118
2.53962
2.63619
2.69729
3.09758
2.77734
2.59438
2.48144
2.39743
2.34415
2.30697
2.28368
2.26204
2.24808
2.23465
2.22827
2.22421
2.22642
2.23372
2.24924
2.27655
2.32088
2.38584
2.48724
2.5524
2.64814
2.70201
3.074
2.73859
2.55578
2.45408
2.38199
2.32397
2.29215
2.27233
2.25556
2.24428
2.23277
2.22628
2.2235
2.22648
2.23483
2.25196
2.28197
2.3295
2.39901
2.505
2.57237
2.6614
2.71016
3.05098
2.72375
2.53393
2.43081
2.3692
2.31614
2.28114
2.26385
2.2496
2.24067
2.23043
2.22516
2.22318
2.22637
2.23613
2.25521
2.28783
2.33898
2.4099
2.51576
2.57825
2.66777
2.71363
3.02162
2.68609
2.51083
2.40524
2.3448
2.29891
2.27195
2.25395
2.24239
2.2362
2.2274
2.22284
2.22276
2.22647
2.23722
2.25826
2.29325
2.34718
2.41972
2.52658
2.59223
2.68857
2.73761
3.00261
2.66933
2.48967
2.39255
2.33539
2.29207
2.26231
2.24765
2.23756
2.23139
2.22514
2.22101
2.22203
2.22665
2.23817
2.26029
2.29647
2.35055
2.42434
2.53114
2.60081
2.70908
2.75841
2.97121
2.63535
2.47251
2.37208
2.31812
2.27951
2.25499
2.24076
2.23282
2.22791
2.22253
2.21958
2.22143
2.22679
2.23947
2.26197
2.2977
2.35133
2.42675
2.54391
2.61883
2.74624
2.81778
2.95465
2.61725
2.45267
2.36264
2.31079
2.2749
2.24921
2.23675
2.22963
2.22555
2.22041
2.21814
2.22056
2.22678
2.23995
2.26221
2.29834
2.35492
2.43534
2.55862
2.66201
2.8133
2.90064
2.92075
2.58812
2.43581
2.34605
2.29754
2.26576
2.2445
2.23183
2.2268
2.22351
2.218
2.21651
2.21935
2.22673
2.24014
2.26275
2.3
2.3593
2.45035
2.60881
2.73494
2.91005
3.02173
2.89933
2.56788
2.4201
2.33845
2.29093
2.26154
2.24059
2.22871
2.2241
2.22137
2.21546
2.21465
2.21784
2.22666
2.24037
2.26421
2.30711
2.38082
2.48889
2.66541
2.83375
3.0322
3.17081
2.87155
2.54398
2.4033
2.32404
2.27968
2.25334
2.23576
2.22476
2.22157
2.21837
2.21249
2.21233
2.21628
2.22659
2.24148
2.27008
2.3181
2.40877
2.55059
2.76406
2.94691
3.16614
3.33674
2.8472
2.52563
2.39087
2.31739
2.27389
2.2494
2.23341
2.22283
2.21927
2.21491
2.20945
2.20985
2.21505
2.22665
2.24381
2.28604
2.35956
2.47517
2.6233
2.85856
3.08693
3.32303
3.51517
2.82368
2.50617
2.37596
2.30437
2.26469
2.24265
2.22935
2.21936
2.21484
2.20985
2.20566
2.20728
2.21421
2.22795
2.2584
2.32222
2.4026
2.53954
2.72627
2.98276
3.21656
3.48521
3.70145
2.80051
2.49159
2.36461
2.29763
2.26025
2.23959
2.22714
2.21715
2.21182
2.20482
2.20218
2.20524
2.21407
2.23824
2.28724
2.37255
2.48053
2.63528
2.82362
3.09861
3.38892
3.66519
3.90149
2.77907
2.47583
2.35285
2.2854
2.2531
2.23391
2.22254
2.21221
2.20527
2.19918
2.19803
2.20364
2.21595
2.26467
2.33429
2.43372
2.54986
2.72358
2.94617
3.22777
3.52439
3.84118
4.09749
2.75884
2.46527
2.34124
2.27845
2.24985
2.23103
2.21964
2.20904
2.20124
2.19446
2.19597
2.20409
2.23057
2.3071
2.39202
2.5107
2.65141
2.83672
3.05801
3.35844
3.7088
4.04644
4.3046
2.73993
2.45145
2.33249
2.26742
2.24402
2.22516
2.21255
2.20246
2.19584
2.19055
2.1935
2.20872
2.26178
2.36318
2.46373
2.58731
2.73327
2.93517
3.17946
3.48705
3.8314
4.2197
4.51241
2.72262
2.44391
2.322
2.26091
2.24074
2.22188
2.20901
2.19992
2.19399
2.18922
2.19516
2.23268
2.31194
2.4299
2.53874
2.67771
2.84445
3.05077
3.29695
3.62047
4.0157
4.42215
4.73665
2.7072
2.43086
2.315
2.25284
2.2359
2.2146
2.20248
2.19627
2.19078
2.18777
2.1959
2.2681
2.37198
2.50355
2.62341
2.76138
2.92806
3.15196
3.40869
3.74745
4.13513
4.57466
4.93433
2.69274
2.42327
2.30753
2.24633
2.23016
2.21074
2.20052
2.19763
2.19397
2.19463
2.2219
2.32736
2.4466
2.5819
2.70352
2.85233
3.03637
3.25613
3.52312
3.87388
4.30717
4.77069
5.13982
2.68087
2.4117
2.30226
2.24155
2.22672
2.20459
2.19822
2.19868
2.19787
2.20359
2.25047
2.38734
2.51983
2.66042
2.79015
2.93788
3.11998
3.36306
3.63163
4.00288
4.43923
4.9122
5.31466
2.67068
2.40347
2.29983
2.23532
2.21951
2.20019
2.2005
2.21297
2.21881
2.23952
2.31669
2.47587
2.61198
2.74728
2.8745
3.02745
3.22141
3.44933
3.73282
4.11512
4.57278
5.06717
5.46778
2.6658
2.39434
2.29837
2.2317
2.21725
2.20018
2.209
2.24098
2.25887
2.29418
2.38885
2.55887
2.6943
2.82821
2.96038
3.11451
3.30636
3.56226
3.84523
4.24483
4.73144
5.21423
5.63233
2.65818
2.38733
2.29541
2.22744
2.21381
2.20387
2.23724
2.28153
2.31362
2.36056
2.46871
2.64257
2.7761
2.90486
3.03648
3.19591
3.3991
3.63511
3.93219
4.34697
4.81593
5.30221
5.70414
2.65072
2.37933
2.29324
2.22362
2.21349
2.21658
2.2736
2.33347
2.37599
2.43465
2.55178
2.72315
2.85017
2.97594
3.11087
3.27216
3.4712
3.73602
4.03832
4.46181
4.97589
5.44134
5.84121
2.64525
2.37109
2.2871
2.21903
2.2165
2.24263
2.32468
2.39348
2.44701
2.5121
2.63496
2.7992
2.92113
3.04256
3.17939
3.34938
3.56772
3.82146
4.13926
4.58601
5.07053
5.53924
5.95613
2.63469
2.36199
2.28369
2.21509
2.23217
2.27954
2.38021
2.46007
2.51965
2.59241
2.71469
2.86896
2.98262
3.1013
3.24005
3.41275
3.62841
3.91578
4.26748
4.74503
5.29359
5.79045
6.26568
2.62935
2.35236
2.27712
2.2141
2.26111
2.32765
2.44375
2.52869
2.594
2.66911
2.78977
2.93216
3.04
3.15595
3.30052
3.48971
3.73848
4.04552
4.43458
4.95901
5.4881
6.01389
6.56691
2.61821
2.3447
2.27594
2.21768
2.30297
2.38393
2.50914
2.59729
2.6657
2.74417
2.85809
2.98836
3.08873
3.20297
3.34847
3.54264
3.80645
4.17617
4.65883
5.29359
6.02172
6.84032
7.74187
2.6121
2.33435
2.27387
2.22928
2.35277
2.4456
2.57521
2.66416
2.73286
2.81183
2.91989
3.03799
3.13318
3.24656
3.4027
3.62585
3.93966
4.37695
4.95588
5.76146
6.65938
7.65902
8.7792
2.59972
2.32956
2.28061
2.25575
2.40727
2.50919
2.63877
2.72519
2.7949
2.87455
2.97404
3.08108
3.17084
3.28376
3.44154
3.67591
4.03984
4.59435
5.35832
6.41406
7.68843
9.14366
10.8949
2.59239
2.32321
2.29695
2.29342
2.4622
2.57233
2.69784
2.78297
2.84887
2.92897
3.02162
3.11854
3.20454
3.31895
3.49263
3.77026
4.20827
4.87854
5.85426
7.29378
8.99485
11.3753
15.617
2.57887
2.32155
2.3184
2.33978
2.51541
2.63135
2.74988
2.83255
2.8971
2.97626
3.062
3.15044
3.23323
3.3485
3.52752
3.82853
4.34821
5.19538
6.43393
8.18698
10.5426
14.4997
22.7359
2.57153
2.32421
2.34733
2.39395
2.56468
2.68719
2.79683
2.87758
2.93743
3.01739
3.09676
3.17792
3.25885
3.37816
3.57705
3.93411
4.54587
5.53065
7.08079
9.37999
12.3474
18.7459
43.4659
2.5598
2.33416
2.37519
2.45074
2.61151
2.73614
2.83573
2.915
2.97191
3.05093
3.12539
3.20111
3.28056
3.40254
3.6142
4.00508
4.70788
5.89628
7.66422
10.1254
14.6532
29.0856
45.239
2.55484
2.35569
2.4083
2.50873
2.65323
2.78071
2.87071
2.94887
3.00219
3.08131
3.14978
3.22092
3.30054
3.4288
3.66097
4.11315
4.90708
6.20161
8.24736
11.5166
18.0206
28.9181
43.2443
2.54605
2.38404
2.4401
2.56642
2.69321
2.82011
2.90012
2.97703
3.02679
3.1061
3.16931
3.23793
3.31722
3.4505
3.70516
4.19601
5.06132
6.51578
8.7338
12.4817
21.3203
29.1946
40.6697
2.54323
2.42053
2.47955
2.62048
2.73009
2.85512
2.92761
3.00437
3.0514
3.12938
3.18612
3.25215
3.33335
3.47504
3.74925
4.289
5.22822
6.74162
9.15062
13.4411
21.8229
29.8924
43.761
2.5482
2.4614
2.5199
2.67361
2.76498
2.88785
2.95144
3.02635
3.07286
3.14631
3.1994
3.26499
3.34691
3.49611
3.799
4.38587
5.36676
6.94094
9.43879
13.7524
22.6133
29.724
43.7827
2.55384
2.50757
2.56567
2.72475
2.80298
2.91783
2.9785
3.04872
3.09263
3.16086
3.21148
3.27551
3.36043
3.52023
3.84496
4.46134
5.47716
7.11378
9.7088
14.7286
21.0052
29.288
40.3348
2.57784
2.55499
2.61149
2.7715
2.83764
2.94715
3.0022
3.06623
3.11227
3.17029
3.22104
3.28538
3.37234
3.54298
3.8972
4.56098
5.62046
7.23121
9.94801
15.494
19.8033
26.357
36.4419
2.60016
2.60501
2.65862
2.81731
2.8754
2.97524
3.02715
3.08379
3.12757
3.17859
3.23052
3.29387
3.38452
3.56719
3.94772
4.64079
5.7066
7.42609
10.3493
15.3229
19.7027
25.9905
37.2511
2.63645
2.65721
2.7044
2.8562
2.90843
3.00192
3.04686
3.09613
3.14
3.1843
3.23788
3.30136
3.39547
3.59393
4.00753
4.73471
5.85746
7.53263
10.2218
14.4478
19.1042
25.7061
36.2702
2.66561
2.70571
2.74913
2.8907
2.9405
3.02692
3.06527
3.11105
3.14872
3.19159
3.24576
3.30902
3.40792
3.61961
4.06066
4.82875
5.9602
7.71704
10.3362
15.3613
19.4726
25.7314
37.2796
2.69892
2.75108
2.79078
2.92018
2.96864
3.04775
3.07973
3.12172
3.15057
3.19683
3.25159
3.31464
3.41778
3.6494
4.13014
4.94224
6.12874
7.87883
10.4913
14.9329
19.3131
25.6838
37.9239
2.72423
2.78818
2.82901
2.9452
2.99558
3.06544
3.09263
3.12873
3.15279
3.20127
3.25829
3.32217
3.43243
3.68189
4.19713
5.04569
6.26823
8.05091
10.4799
14.913
19.0224
25.4476
36.4376
2.75107
2.82134
2.86559
2.9682
3.01627
3.07854
3.10208
3.13258
3.15625
3.20452
3.26332
3.32656
3.44104
3.70879
4.2583
5.17159
6.47077
8.15861
10.7681
14.483
18.8038
25.7493
39.6602
2.77067
2.84987
2.90078
2.99264
3.03436
3.08865
3.11211
3.13597
3.16124
3.20886
3.26956
3.33427
3.4576
3.75132
4.35249
5.31395
6.60507
8.30161
10.8994
14.9195
21.008
32.2627
47.0872
2.78936
2.87403
2.93134
3.0125
3.0468
3.09661
3.11917
3.14019
3.16612
3.21229
3.27405
3.33817
3.46605
3.77277
4.4
5.39781
6.87029
8.58511
11.5417
17.9676
29.6441
44.7951
59.73
2.80322
2.89456
2.9569
3.02827
3.0585
3.10344
3.12584
3.14485
3.17126
3.21615
3.27931
3.3444
3.4797
3.81152
4.49307
5.58183
7.0867
9.08929
13.9633
25.0282
41.3845
61.2879
72.0604
2.81923
2.91223
2.97717
3.0398
3.06897
3.11086
3.13132
3.15028
3.17611
3.21913
3.28303
3.34789
3.48765
3.83405
4.54967
5.69452
7.46632
10.605
18.7491
33.6288
53.6847
74.1193
85.7675
2.83638
2.92703
2.99299
3.05079
3.07895
3.11778
3.13656
3.1561
3.18137
3.22263
3.28734
3.35281
3.50052
3.87234
4.64867
5.88171
7.91711
12.4716
23.8211
41.5677
63.5401
83.6144
93.8257
2.85455
2.94076
3.00453
3.06047
3.08865
3.12489
3.14172
3.16278
3.1866
3.22569
3.29062
3.35615
3.50885
3.89673
4.71036
6.01422
8.51139
15.2616
29.1404
49.0906
70.4648
92.3821
102.501
2.87385
2.95348
3.01499
3.07071
3.0969
3.13165
3.14683
3.16994
3.19225
3.22933
3.29422
3.36063
3.52137
3.93058
4.79194
6.23023
9.51879
17.5064
32.1784
52.702
72.1675
94.1046
105.935
2.89106
2.96715
3.02421
3.07894
3.10436
3.13787
3.15225
3.17622
3.19699
3.23269
3.29689
3.36375
3.52915
3.94778
4.84761
6.46219
10.2075
18.4407
32.8116
54.4665
72.4431
94.9882
107.491
2.90738
2.98015
3.03436
3.08695
3.11084
3.14397
3.15763
3.18212
3.20167
3.23619
3.29946
3.36679
3.53644
3.96199
4.9122
6.66968
10.774
18.5748
33.3463
54.2115
73.0481
95.1426
107.496
2.92353
2.99479
3.04435
3.09387
3.1179
3.15018
3.16402
3.18741
3.20591
3.23966
3.3018
3.36968
3.54281
3.9737
4.97246
6.85152
10.8877
18.7136
33.1675
54.4731
72.6739
95.8718
107.681
2.93914
3.00906
3.05575
3.10125
3.12496
3.15686
3.17053
3.19253
3.21015
3.24348
3.30414
3.3725
3.54831
3.98374
5.01788
6.94574
10.9843
18.8176
33.3441
53.6115
70.4427
95.6111
108.009
2.95685
3.02398
3.06649
3.10803
3.13285
3.16378
3.17775
3.19726
3.21414
3.24666
3.30612
3.37486
3.5534
3.99122
5.03895
6.99265
11.0719
18.937
32.3922
51.1094
66.9718
92.5894
107.522
2.97313
3.03852
3.07805
3.11612
3.14136
3.17123
3.18493
3.202
3.21824
3.25044
3.30799
3.37721
3.55792
3.99586
5.04969
6.99926
11.2097
18.8136
30.4082
47.5222
62.7922
86.8204
103.457
2.99282
3.05243
3.08892
3.12387
3.15003
3.1793
3.19239
3.20717
3.22235
3.25336
3.30968
3.379
3.56201
3.99864
5.05752
7.00995
11.226
18.0484
27.9529
43.3065
58.8029
79.4871
95.2177
3.01058
3.0666
3.10015
3.13358
3.1596
3.18724
3.19952
3.21208
3.22681
3.25685
3.31081
3.38068
3.56508
4.00044
5.05725
7.01731
11.1145
16.9143
25.1685
38.5204
54.9899
71.3192
85.8946
3.03054
3.07978
3.11136
3.14274
3.16851
3.19628
3.20671
3.21806
3.23136
3.25985
3.31233
3.38218
3.56687
4.0005
5.05342
6.97134
10.7699
15.5742
22.5153
34.2726
51.6669
63.5746
75.517
3.04949
3.09334
3.12237
3.15396
3.17804
3.20444
3.21373
3.22353
3.23614
3.26312
3.31303
3.38314
3.56804
3.99607
5.02039
6.84263
10.2711
14.2258
19.9354
30.2197
48.4159
56.7526
65.2018
3.06769
3.10664
3.13429
3.16407
3.18677
3.21351
3.22003
3.22994
3.2415
3.26642
3.31356
3.38379
3.5684
3.98594
4.95766
6.65317
9.67317
12.9164
17.7966
26.7424
45.2958
50.8519
56.7583
3.08639
3.12
3.14527
3.1758
3.19574
3.22154
3.22747
3.2358
3.2462
3.26939
3.31374
3.38377
3.56807
3.9664
4.87209
6.42294
9.03989
11.757
15.8772
24.1049
42.4017
46.0974
49.7692
3.10255
3.13284
3.15692
3.18626
3.20361
3.22975
3.23277
3.24207
3.2519
3.27323
3.3142
3.38378
3.565
3.93795
4.76402
6.16514
8.41023
10.7462
14.4579
21.6809
39.2275
42.4883
43.2574
3.12118
3.147
3.16906
3.19817
3.21277
3.23797
3.24095
3.24891
3.25727
3.27605
3.31613
3.38376
3.55829
3.90514
4.64936
5.90153
7.82803
9.90659
13.2302
20.12
36.416
39.0442
38.2392
3.13744
3.16086
3.17955
3.20992
3.22108
3.24545
3.24749
3.25496
3.26259
3.28036
3.31625
3.38371
3.54767
3.86481
4.53427
5.65344
7.31528
9.23634
12.4291
18.6983
33.5443
35.98
34.7978
3.15571
3.17529
3.19353
3.22167
3.23037
3.25486
3.25574
3.26289
3.26873
3.28479
3.31655
3.38371
3.53568
3.82469
4.42759
5.43122
6.88311
8.69137
11.769
17.9521
31.1868
33.3503
32.3713
3.17092
3.19072
3.20508
3.23442
3.24023
3.26189
3.263
3.26959
3.27486
3.28867
3.31715
3.38365
3.52327
3.78571
4.33501
5.24375
6.5352
8.2866
11.2851
17.1602
29.0845
31.091
30.4502
3.18422
3.20402
3.21742
3.23945
3.24746
3.26625
3.26666
3.27517
3.2766
3.29156
3.318
3.38376
3.51143
3.75193
4.2586
5.08644
6.26068
7.96491
11.06
16.3368
27.3888
29.317
28.8462
3.18925
3.21152
3.22713
3.24178
3.25491
3.2696
3.27141
3.27546
3.27823
3.29322
3.31791
3.38364
3.50077
3.72526
4.19844
4.95999
6.05414
7.72801
10.7331
16.2765
26.1687
27.9812
27.7046
3.19073
3.21569
3.23309
3.24475
3.2564
3.26889
3.27124
3.27608
3.28215
3.29498
3.31822
3.38336
3.49301
3.70785
4.15202
4.86157
5.89852
7.5233
10.554
16.07
25.2477
26.5105
26.488
3.19439
3.21762
3.23842
3.24617
3.25801
3.2691
3.27244
3.27714
3.28348
3.29461
3.31902
3.38283
3.48674
3.6943
4.118
4.78719
5.78823
7.40644
10.3296
16.0651
24.5059
25.7784
25.7283
3.19575
3.22117
3.23779
3.24699
3.25901
3.26921
3.27428
3.27732
3.2839
3.29578
3.31844
3.3823
3.48175
3.68549
4.09301
4.72932
5.70535
7.27974
10.2332
16.1499
23.8844
24.9016
24.9344
3.19795
3.21998
3.24042
3.24705
3.26059
3.26918
3.27344
3.27852
3.28563
3.29468
3.31829
3.38137
3.47775
3.67842
4.07537
4.68606
5.64033
7.20594
10.0357
16.1837
23.1636
24.1228
24.2187
3.19503
3.22154
3.23834
3.24867
3.26148
3.26919
3.27536
3.27945
3.28441
3.29491
3.31788
3.3803
3.47508
3.67251
4.06425
4.65339
5.59134
7.1142
9.9629
16.8218
22.5679
23.4832
23.6529
3.19577
3.22227
3.23865
3.24756
3.26119
3.26909
3.27393
3.27787
3.28531
3.29475
3.31771
3.37863
3.47285
3.66878
4.05561
4.62916
5.54648
7.03897
10.0145
16.6628
22.0249
22.9232
23.1646
3.19548
3.22085
3.23976
3.24753
3.2604
3.26959
3.27382
3.27798
3.285
3.29481
3.31786
3.37682
3.47135
3.66619
4.04974
4.61152
5.51223
6.98531
10.0861
16.9936
21.5814
22.3942
22.6701
3.19567
3.22108
3.23948
3.2469
3.26023
3.26941
3.27367
3.2788
3.28467
3.29503
3.31677
3.37443
3.46993
3.66305
4.04315
4.59622
5.47524
6.91351
9.77785
17.389
21.1549
21.8347
22.1212
3.19648
3.21925
3.23828
3.24727
3.26016
3.27027
3.27424
3.27733
3.28441
3.29537
3.31726
3.37209
3.46869
3.66056
4.03842
4.58536
5.45263
6.86654
9.8254
17.0875
20.7467
21.3617
21.6371
3.19642
3.22007
3.23793
3.24959
3.25831
3.26795
3.27411
3.27817
3.28506
3.29357
3.31579
3.36934
3.46782
3.65776
4.03239
4.57408
5.4235
6.83988
9.76606
17.3833
20.2983
20.9374
21.2055
3.19491
3.21625
3.23759
3.24713
3.25911
3.26779
3.27423
3.27613
3.28548
3.29324
3.31591
3.3669
3.46657
3.65642
4.02885
4.56552
5.40109
6.80671
9.82646
17.5083
19.8272
20.5494
20.8266
3.19485
3.21564
3.23604
3.24592
3.25626
3.26852
3.27579
3.27598
3.28314
3.29428
3.31556
3.36418
3.46538
3.65447
4.02303
4.55576
5.37749
6.80577
9.7947
17.186
19.2092
20.0316
20.3489
3.19319
3.21611
3.2361
3.24525
3.25595
3.2685
3.27493
3.27662
3.28255
3.29246
3.31547
3.36198
3.46411
3.65302
4.01954
4.54735
5.3534
6.70949
9.96883
16.6414
18.4705
19.3382
19.7092
3.19148
3.21161
3.23556
3.24598
3.25711
3.26543
3.27409
3.27411
3.28135
3.29255
3.31587
3.35947
3.46276
3.64973
4.01235
4.53653
5.33292
6.69061
10.1523
15.8982
17.5549
18.4133
18.829
3.18869
3.21111
3.23426
3.24515
3.25669
3.26471
3.27365
3.27377
3.28054
3.29285
3.31639
3.35765
3.46147
3.64782
4.00772
4.52122
5.31753
6.71425
10.5355
15.0768
16.5445
17.3342
17.7924
3.1859
3.21223
3.23342
3.2432
3.25487
3.26473
3.27049
3.27521
3.27971
3.29395
3.3159
3.35534
3.46039
3.64382
3.99734
4.5014
5.29106
6.71275
10.2815
14.1184
15.4006
16.0965
16.5774
3.18241
3.21265
3.23151
3.24377
3.2527
3.26135
3.27008
3.27455
3.2818
3.29306
3.31491
3.35388
3.45931
3.64136
3.99045
4.49553
5.27331
6.60642
10.4536
13.2174
14.3043
14.8906
15.3633
3.18208
3.21085
3.22885
3.23954
3.25065
3.2641
3.27135
3.2735
3.27938
3.29217
3.31303
3.35164
3.45835
3.63537
3.97251
4.49492
5.22842
6.55353
10.1274
12.2289
13.1414
13.622
14.0695
3.18001
3.20731
3.22691
3.23918
3.24609
3.26103
3.27122
3.27095
3.28024
3.29014
3.31199
3.3505
3.45786
3.63222
3.96253
4.48689
5.20079
6.53953
9.76632
11.4035
12.1705
12.5552
12.967
3.17934
3.2005
3.22272
3.24143
3.24518
3.26244
3.26914
3.26995
3.27928
3.288
3.31015
3.34786
3.45443
3.62195
3.9318
4.42728
5.13555
6.39159
9.17611
10.5089
11.1572
11.4543
11.8168
3.18277
3.19908
3.22163
3.24095
3.24521
3.26189
3.26601
3.26606
3.27743
3.28686
3.30919
3.34764
3.45733
3.62235
3.92791
4.43077
5.14013
6.47744
8.81057
9.87197
10.4127
10.6386
10.9528
3.18265
3.20047
3.21536
3.23884
3.24539
3.2591
3.26372
3.26512
3.27522
3.28528
3.30742
3.34421
3.45044
3.60472
3.88183
4.34943
5.02951
6.45522
8.19633
9.09525
9.56729
9.74506
10.0077
3.17987
3.19684
3.21414
3.23457
3.24211
3.25397
3.26085
3.26619
3.27234
3.28329
3.30254
3.34003
3.4425
3.5867
3.8375
4.26809
4.91495
6.2773
7.68608
8.45941
8.87816
9.02474
9.24856
3.174
3.18943
3.21528
3.22777
3.23423
3.24634
3.25829
3.26517
3.2684
3.28073
3.29955
3.33566
3.43243
3.56712
3.79292
4.1835
4.78588
6.02897
7.21995
7.89457
8.25302
8.37371
8.55816
3.16804
3.1783
3.21498
3.21798
3.22998
3.24354
3.25499
3.25977
3.26069
3.27702
3.29455
3.33105
3.42065
3.54621
3.74859
4.09663
4.64541
5.74942
6.77622
7.38613
7.69535
7.79342
7.93873
3.15991
3.17462
3.20856
3.21453
3.22381
3.2434
3.25014
3.25382
3.25661
3.27123
3.28923
3.32574
3.40673
3.52345
3.70428
4.00959
4.49677
5.45827
6.36924
6.90059
7.18762
7.27133
7.39023
3.14858
3.17561
3.20081
3.21525
3.22174
3.23744
3.24251
3.24696
3.25023
3.26588
3.28742
3.31967
3.39175
3.49933
3.66064
3.92617
4.35348
5.16689
5.99298
6.48415
6.75914
6.83644
6.93076
3.1331
3.17084
3.18292
3.21021
3.21471
3.2292
3.2353
3.23799
3.24824
3.2599
3.28112
3.31126
3.37485
3.47346
3.61619
3.84623
4.21908
4.91051
5.63993
6.09075
6.3631
6.45781
6.54154
3.11254
3.16324
3.17201
3.20041
3.2047
3.22048
3.22854
3.22653
3.24218
3.25353
3.27387
3.30209
3.35794
3.4475
3.57291
3.77153
4.10056
4.68198
5.32264
5.7735
6.03528
6.14263
6.22226
3.10525
3.15303
3.15825
3.18824
3.19094
3.21013
3.21951
3.22533
3.23333
3.2443
3.26371
3.29015
3.33919
3.42008
3.52932
3.69983
3.98899
4.50802
5.04106
5.47074
5.75626
5.89085
5.9729
3.10573
3.14107
3.13718
3.17162
3.17823
3.19946
3.20967
3.21773
3.22389
3.23459
3.25295
3.27766
3.32089
3.39389
3.48856
3.63355
3.88206
4.33925
4.83377
5.21111
5.50126
5.66733
5.76733
3.094
3.12423
3.13619
3.15408
3.1676
3.18563
3.19648
3.20525
3.21072
3.22113
3.23862
3.26163
3.29991
3.36622
3.44699
3.56881
3.7774
4.18633
4.64307
5.01799
5.3148
5.49719
5.61152
3.07704
3.10468
3.12317
3.13815
3.15352
3.17043
3.18235
3.19076
3.19679
3.207
3.22339
3.24489
3.27915
3.33956
3.41012
3.5109
3.68126
4.01981
4.4704
4.81768
5.13679
5.33699
5.45532
3.05462
3.081
3.10318
3.11921
3.13402
3.15047
3.1637
3.17155
3.17785
3.18802
3.20349
3.22341
3.25408
3.30789
3.37033
3.45545
3.59666
3.87976
4.28276
4.66774
4.97501
5.19853
5.32273
3.02973
3.05667
3.08104
3.099
3.11318
3.12916
3.1438
3.15114
3.15849
3.16804
3.1826
3.20144
3.22895
3.27787
3.33182
3.4031
3.5175
3.76034
4.06489
4.4649
4.82276
5.06929
5.21873
2.99943
3.02762
3.05311
3.07292
3.08719
3.10183
3.11764
3.12526
3.13274
3.14219
3.15585
3.17317
3.19715
3.23913
3.29144
3.35109
3.44221
3.61835
3.91614
4.2089
4.56967
4.90042
5.11825
2.96764
2.99728
3.02336
3.04525
3.06023
3.07359
3.09004
3.09841
3.10665
3.11524
3.12843
3.1453
3.16607
3.19996
3.25218
3.30249
3.37336
3.49829
3.74334
4.03926
4.32394
4.61956
4.87951
2.92943
2.95956
2.98572
3.00979
3.02579
3.03764
3.05426
3.064
3.07218
3.08065
3.09282
3.10806
3.1266
3.15395
3.20189
3.24839
3.30274
3.39206
3.57659
3.84608
4.12782
4.40014
4.62998
2.88988
2.92044
2.94668
2.97267
2.98976
3.00123
3.01718
3.02827
3.03718
3.04506
3.05732
3.07197
3.08852
3.10984
3.1509
3.19322
3.23465
3.30008
3.42361
3.66159
3.95401
4.23411
4.46534
2.84154
2.87197
2.89807
2.92486
2.94293
2.95463
2.96951
2.98189
2.99083
2.99859
3.00986
3.02273
3.0389
3.05572
3.08549
3.12922
3.16157
3.20514
3.28313
3.43513
3.74788
4.05322
4.34411
2.79176
2.82353
2.84972
2.87601
2.89496
2.9079
2.92166
2.93468
2.94446
2.95216
2.96392
2.97514
2.99026
3.00376
3.02427
3.06335
3.09732
3.12696
3.17583
3.26487
3.4944
3.80508
4.1769
2.7305
2.76328
2.7893
2.81367
2.83303
2.8472
2.85991
2.87327
2.88296
2.89013
2.90115
2.91118
2.92495
2.93668
2.95026
2.97413
3.01312
3.03917
3.06826
3.11822
3.22698
3.47052
3.87156
2.66948
2.70498
2.731
2.75304
2.7724
2.78743
2.79969
2.81317
2.82374
2.83121
2.84164
2.85128
2.86268
2.87499
2.88574
2.90014
2.92747
2.96017
2.98424
3.01202
3.06344
3.17589
3.42344
2.59398
2.63074
2.65617
2.67553
2.69387
2.70876
2.71989
2.73308
2.74373
2.75087
2.75995
2.76892
2.77786
2.78733
2.79725
2.80722
2.82213
2.8492
2.87693
2.89757
2.9227
2.96998
3.07685
2.52287
2.56164
2.58657
2.60435
2.62156
2.63542
2.64578
2.65861
2.67025
2.67873
2.68693
2.69571
2.70442
2.71294
2.72073
2.72862
2.73835
2.75378
2.77898
2.80448
2.82281
2.84395
2.88513
2.43248
2.47035
2.49368
2.50973
2.52484
2.53678
2.54494
2.55603
2.56685
2.57521
2.58292
2.58989
2.5969
2.60386
2.61142
2.61693
2.62362
2.6316
2.64506
2.66621
2.68864
2.70467
2.72274
2.35347
2.39091
2.41307
2.42895
2.44292
2.45322
2.4604
2.47015
2.48079
2.48995
2.49788
2.50514
2.51199
2.51754
2.52468
2.53035
2.53702
2.5421
2.55015
2.56044
2.57866
2.59811
2.61447
2.24657
2.27937
2.29845
2.31226
2.32415
2.33241
2.33706
2.34353
2.35131
2.35845
2.36538
2.371
2.37712
2.38155
2.38636
2.39039
2.39552
2.39972
2.40528
2.40995
2.41844
2.43026
2.44743
2.16352
2.19396
2.2115
2.22474
2.23539
2.24395
2.24955
2.25549
2.2625
2.26876
2.27472
2.27991
2.28485
2.28961
2.29424
2.29846
2.30291
2.30645
2.31215
2.31605
2.32133
2.32693
2.33647
2.03574
2.05741
2.07017
2.07954
2.08574
2.09082
2.09452
2.09824
2.10281
2.10728
2.11112
2.11463
2.11753
2.12014
2.12289
2.12558
2.12909
2.13125
2.13504
2.13808
2.14197
2.14473
2.14932
1.96231
1.98174
1.99067
1.9981
2.00292
2.00704
2.01037
2.01387
2.01806
2.02241
2.02621
2.02976
2.03267
2.03506
2.03747
2.03984
2.04302
2.04521
2.04845
2.05115
2.05467
2.05709
2.06069
1.78252
1.78897
1.79331
1.79568
1.7951
1.79369
1.79233
1.79142
1.79164
1.79244
1.79352
1.7961
1.79654
1.79714
1.79813
1.79908
1.80203
1.80189
1.80389
1.80582
1.80819
1.8107
1.81079
3.07079
2.7452
2.56212
2.44921
2.37414
2.32227
2.28875
2.26475
2.24634
2.23431
2.2256
2.21836
2.21781
2.22076
2.2294
2.24618
2.27549
2.32196
2.38896
2.48796
2.58308
2.64551
2.74367
3.08388
2.75705
2.57097
2.45682
2.38695
2.33397
2.2962
2.26804
2.25019
2.23802
2.22837
2.2213
2.2197
2.22244
2.23012
2.24605
2.2749
2.32063
2.38675
2.48654
2.5635
2.62797
2.72679
3.09785
2.78101
2.59546
2.47975
2.39994
2.33987
2.29998
2.27425
2.2541
2.241
2.23094
2.22394
2.22121
2.22366
2.23068
2.24602
2.27318
2.31682
2.3803
2.47652
2.551
2.62858
2.71628
3.11614
2.7964
2.61186
2.48936
2.40809
2.35196
2.31122
2.28256
2.26068
2.24634
2.23471
2.22729
2.22288
2.22471
2.23095
2.24537
2.27126
2.31371
2.37553
2.46713
2.54549
2.62024
2.69983
3.12493
2.82366
2.63223
2.51312
2.42511
2.36355
2.3166
2.28739
2.26354
2.24959
2.23661
2.22934
2.22391
2.22547
2.23088
2.24456
2.26866
2.31106
2.37173
2.45727
2.54908
2.60521
2.69733
3.14423
2.83774
2.6512
2.5221
2.42969
2.36724
2.32238
2.29297
2.26879
2.25333
2.23897
2.23147
2.22493
2.22592
2.23057
2.24415
2.26632
2.31204
2.36933
2.45828
2.54081
2.60732
2.69925
3.14942
2.85237
2.66144
2.53278
2.4418
2.38136
2.33407
2.30216
2.2751
2.25748
2.24177
2.23321
2.22555
2.22651
2.2304
2.24612
2.26706
2.31666
2.37232
2.45725
2.54301
2.61516
2.70846
3.15202
2.85713
2.66491
2.53582
2.44381
2.38194
2.33407
2.30195
2.27468
2.25677
2.24091
2.23232
2.22476
2.22551
2.22937
2.24559
2.26594
2.31333
2.36667
2.45226
2.53254
2.60513
2.69513
2.88015
2.55173
2.39554
2.32465
2.27403
2.24374
2.22931
2.21282
2.19715
2.19262
2.19874
2.23112
2.30404
2.39474
2.49368
2.61931
2.74483
2.94945
3.15593
3.44378
3.73561
4.10069
4.43242
2.89547
2.55756
2.40162
2.33064
2.27818
2.24639
2.23289
2.21717
2.20096
2.1932
2.19377
2.20495
2.25555
2.33132
2.42136
2.54021
2.65883
2.85737
3.05609
3.34836
3.62922
3.99075
4.32142
2.89802
2.56139
2.41043
2.33635
2.2827
2.25165
2.23625
2.22002
2.20436
2.19689
2.19574
2.20033
2.22854
2.28792
2.36442
2.47049
2.57929
2.7634
2.95185
3.24327
3.50943
3.87476
4.1842
2.91336
2.57068
2.41822
2.34114
2.28584
2.25414
2.24027
2.22469
2.2082
2.19988
2.19711
2.19773
2.21074
2.2515
2.31549
2.40739
2.5061
2.6758
2.85276
3.13786
3.38736
3.75324
4.01439
2.91732
2.57668
2.42724
2.34887
2.29163
2.2591
2.24267
2.22842
2.21388
2.20533
2.20054
2.19974
2.20616
2.23158
2.2802
2.35443
2.44111
2.5905
2.75425
3.02741
3.25533
3.60441
3.84137
2.93355
2.5889
2.43512
2.35289
2.29497
2.26167
2.24574
2.23101
2.21667
2.20843
2.20376
2.20169
2.20482
2.21897
2.25396
2.31236
2.38847
2.51846
2.66841
2.92485
3.12488
3.46555
3.66696
2.93883
2.59836
2.44597
2.36096
2.30139
2.26747
2.24952
2.23489
2.22162
2.21239
2.20757
2.20402
2.20653
2.21652
2.23948
2.28172
2.34626
2.45487
2.59017
2.8219
3.00825
3.31714
3.49741
2.95673
2.61237
2.45409
2.36718
2.30708
2.27173
2.25264
2.23676
2.22418
2.21507
2.21063
2.20612
2.20832
2.21516
2.23163
2.26333
2.31834
2.40918
2.53069
2.73866
2.89804
3.17374
3.34561
2.96318
2.62478
2.4664
2.37355
2.31283
2.27717
2.25674
2.24029
2.2272
2.21692
2.21286
2.20807
2.20977
2.21551
2.22889
2.25396
2.29817
2.37275
2.48215
2.65958
2.80824
3.05244
3.21517
2.98339
2.64131
2.47646
2.38294
2.32142
2.28416
2.2609
2.24289
2.23095
2.21932
2.215
2.21
2.21142
2.21653
2.2287
2.25167
2.29109
2.35487
2.45218
2.61131
2.73428
2.93388
3.10027
2.99082
2.65425
2.48845
2.39016
2.32749
2.28982
2.2646
2.24545
2.2329
2.22191
2.21614
2.21111
2.21244
2.21713
2.22818
2.24958
2.28615
2.34422
2.4312
2.56669
2.68057
2.85985
2.99929
3.01325
2.67478
2.50281
2.40101
2.33704
2.29668
2.27019
2.24924
2.2367
2.22413
2.21797
2.2131
2.21401
2.21815
2.22831
2.24903
2.2844
2.34002
2.42183
2.54603
2.64731
2.78066
2.91752
3.02109
2.68656
2.51288
2.41121
2.34553
2.30353
2.27373
2.25147
2.23846
2.22747
2.21984
2.21405
2.21475
2.21869
2.22831
2.24809
2.2818
2.3347
2.41296
2.52273
2.62615
2.74354
2.86527
3.04383
2.71015
2.5319
2.42307
2.35425
2.30837
2.27988
2.25612
2.24154
2.22966
2.22145
2.21568
2.21596
2.21939
2.22859
2.24756
2.28007
2.33094
2.40618
2.50912
2.62087
2.6962
2.79967
3.05335
2.72252
2.54125
2.43415
2.36523
2.31731
2.28435
2.25841
2.24378
2.23257
2.22416
2.21702
2.21657
2.21987
2.2286
2.24683
2.27767
2.32582
2.39702
2.49102
2.60106
2.66458
2.76875
2.83254
2.82219
2.90494
2.96224
3.0317
3.06894
3.11864
3.14664
3.15795
3.17565
3.18854
3.20783
3.22966
3.27487
3.33314
3.42015
3.53999
3.71686
3.96956
4.26374
4.64573
5.01642
5.26271
2.82168
2.78592
2.87192
2.92249
3.00225
3.0429
3.10721
3.14316
3.15773
3.1729
3.18784
3.20294
3.22921
3.27529
3.33193
3.41706
3.5364
3.70782
3.95503
4.25355
4.62456
4.96892
5.27096
2.79365
2.73421
2.82037
2.88238
2.96583
3.01495
3.0927
3.12932
3.14722
3.16715
3.18236
3.19966
3.22996
3.27176
3.32956
3.41465
3.53225
3.70324
3.94766
4.23056
4.58991
5.00753
5.29035
2.78133
2.70121
2.78478
2.84257
2.92695
2.98084
3.06885
3.11328
3.13765
3.16267
3.18002
3.19636
3.2253
3.26835
3.32847
3.41136
3.52812
3.69766
3.93725
4.21937
4.57273
4.97163
5.255
2.77521
2.64703
2.72994
2.79255
2.88239
2.94733
3.04811
3.09214
3.12213
3.155
3.17517
3.19277
3.22219
3.26546
3.3279
3.4071
3.52301
3.69185
3.92866
4.20508
4.54718
4.97696
5.29181
2.7661
2.61138
2.68671
2.74421
2.83479
2.9054
3.01793
3.06863
3.10383
3.14341
3.16985
3.19013
3.21727
3.26327
3.32232
3.40348
3.51857
3.68612
3.91839
4.19258
4.52425
4.96493
5.29495
2.76788
2.56913
2.63406
2.69245
2.77993
2.86413
2.98496
3.04083
3.08081
3.12522
3.1627
3.18574
3.21218
3.26169
3.31808
3.39764
3.51307
3.67996
3.90715
4.18178
4.50762
4.92739
5.2694
2.77465
2.53337
2.58474
2.63516
2.72344
2.81441
2.94796
3.00664
3.05678
3.10211
3.15243
3.17857
3.20853
3.25258
3.31099
3.39202
3.50686
3.67358
3.89802
4.17323
4.48223
4.90715
5.25589
2.77925
2.50552
2.53786
2.58117
2.66118
2.76235
2.90275
2.9704
3.02897
3.07682
3.12881
3.16256
3.20184
3.24404
3.30248
3.38364
3.49921
3.66645
3.88491
4.1618
4.46521
4.88204
5.22812
2.79038
2.48218
2.48908
2.52488
2.59754
2.70811
2.85313
2.92502
2.99408
3.04616
3.10906
3.14658
3.18472
3.23173
3.29157
3.37415
3.49019
3.65828
3.87489
4.15507
4.44434
4.8576
5.21527
2.79852
2.46941
2.45175
2.47114
2.53319
2.64584
2.79432
2.87519
2.95608
3.01259
3.07927
3.12407
3.16745
3.21622
3.27736
3.36152
3.4781
3.64847
3.86089
4.14226
4.43197
4.81999
5.18373
2.80706
2.46983
2.41234
2.42452
2.47209
2.58745
2.73286
2.82157
2.90819
2.96908
3.04344
3.09782