/*--------------------------------*- C++ -*----------------------------------*\
  =========                 |
  \\      /  F ield         | OpenFOAM: The Open Source CFD Toolbox
   \\    /   O peration     | Website:  https://openfoam.org
    \\  /    A nd           | Version:  7
     \\/     M anipulation  |
\*---------------------------------------------------------------------------*/
FoamFile
{
    version     2.0;
    format      ascii;
    class       volScalarField;
    location    "50";
    object      p;
}
// * * * * * * * * * * * * * * * * * * * * * * * * * * * * * * * * * * * * * //

dimensions      [0 2 -2 0 0 0 0];

internalField   nonuniform List<scalar> 
12842
(
0.222534
0.239387
0.265023
0.303142
0.351886
0.410396
0.485851
0.594069
0.757886
1.00568
1.36933
1.88051
2.56535
3.43909
4.50136
5.73297
7.09735
8.54474
10.0178
11.4589
12.817
14.0506
15.1392
0.195227
0.208811
0.220969
0.241107
0.260284
0.272842
0.284028
0.308757
0.370197
0.498764
0.729923
1.09974
1.63869
2.36579
3.284
4.37778
5.61565
6.95408
8.34175
9.72384
11.0498
12.2725
13.3685
0.176716
0.181572
0.179945
0.182979
0.17312
0.140424
0.0889784
0.0333997
-0.00219208
0.0153453
0.125527
0.368562
0.777878
1.37378
2.15929
3.11937
4.22541
5.43936
6.71657
8.00722
9.26397
10.4364
11.5018
0.165194
0.155259
0.140413
0.128092
0.0900089
0.0131689
-0.0988238
-0.231366
-0.35892
-0.444989
-0.445715
-0.317288
-0.0249838
0.450178
1.10828
1.93233
2.89557
3.96595
5.10742
6.27741
7.43452
8.52594
9.53353
0.157241
0.129643
0.102353
0.0773481
0.0120304
-0.10731
-0.277203
-0.483202
-0.698096
-0.881669
-0.985762
-0.963927
-0.781964
-0.424624
0.102972
0.780632
1.58394
2.48873
3.47025
4.4953
5.53015
6.51986
7.45285
0.150643
0.105339
0.0666837
0.0328061
-0.0584642
-0.217276
-0.440876
-0.715354
-1.01173
-1.28598
-1.48607
-1.56422
-1.48854
-1.24946
-0.85873
-0.340041
0.2857
1.00427
1.80459
2.66401
3.55772
4.42773
5.27088
0.144379
0.082759
0.0346496
-0.00360608
-0.119386
-0.312958
-0.584487
-0.920867
-1.29126
-1.64794
-1.93569
-2.10684
-2.13338
-2.01291
-1.76452
-1.41539
-0.981842
-0.466902
0.13347
0.807419
1.54006
2.26989
3.00503
0.138399
0.0621203
0.00736384
-0.0313127
-0.169957
-0.391985
-0.704515
-1.09508
-1.53132
-1.9624
-2.33088
-2.59052
-2.71779
-2.71772
-2.61624
-2.44378
-2.21172
-1.91236
-1.52641
-1.05606
-0.504195
0.0625728
0.670523
0.131345
0.0434589
-0.0128962
-0.0484829
-0.206094
-0.447259
-0.790246
-1.22157
-1.70707
-2.19285
-2.61994
-2.94444
-3.14781
-3.2427
-3.26157
-3.23847
-3.18067
-3.0722
-2.88015
-2.60036
-2.22026
-1.8186
-1.33416
0.124939
0.0257145
-0.0270999
-0.0601558
-0.234615
-0.489957
-0.857916
-1.32207
-1.84625
-2.37338
-2.84326
-3.2143
-3.47269
-3.63811
-3.74916
-3.84391
-3.92717
-3.97756
-3.95204
-3.84144
-3.6207
-3.37111
-3.01736
0.117929
0.00984847
-0.0355672
-0.0693873
-0.259892
-0.528008
-0.920536
-1.41659
-1.9784
-2.5459
-3.05819
-3.47609
-3.79015
-4.02649
-4.2293
-4.44097
-4.66519
-4.8774
-5.02642
-5.09897
-5.05768
-4.98238
-4.78617
0.109944
-0.00380043
-0.0388957
-0.0770965
-0.281502
-0.561132
-0.977454
-1.50405
-2.10215
-2.70912
-3.26401
-3.73004
-4.10167
-4.41054
-4.70581
-5.03444
-5.40039
-5.7784
-6.11073
-6.38076
-6.53836
-6.65915
-6.64287
0.101063
-0.0150205
-0.0386632
-0.0840891
-0.299315
-0.589352
-1.02819
-1.58347
-2.21611
-2.86118
-3.45831
-3.97294
-4.40299
-4.78481
-5.17208
-5.61702
-6.12538
-6.67352
-7.19836
-7.68009
-8.0548
-8.39149
-8.5771
0.0916012
-0.0234201
-0.0365244
-0.0908538
-0.313631
-0.613302
-1.07314
-1.65515
-2.32049
-3.00224
-3.64109
-4.20434
-4.69283
-5.14681
-5.62428
-6.18363
-6.83417
-7.556
-8.28164
-8.98775
-9.59569
-10.1652
-10.5724
0.0821547
-0.0287137
-0.0338446
-0.0973895
-0.324875
-0.633755
-1.11302
-1.71995
-2.4164
-3.13367
-3.81392
-4.42589
-4.97274
-5.49779
-6.06331
-6.73476
-7.52681
-8.42507
-9.35818
-10.2988
-11.1525
-11.9676
-12.611
0.0731687
-0.0310029
-0.0315956
-0.103515
-0.33362
-0.651505
-1.14869
-1.77904
-2.50538
-3.25743
-3.97922
-4.64037
-5.24585
-5.84117
-6.49276
-7.27391
-8.20606
-9.28168
-10.4256
-11.606
-12.7118
-13.7779
-14.6645
0.0649912
-0.030833
-0.0304259
-0.109031
-0.340502
-0.667247
-1.181
-1.83356
-2.58888
-3.37535
-4.13908
-4.85017
-5.51483
-6.17987
-6.91566
-7.80369
-8.8731
-10.1238
-11.4768
-12.8949
-14.2505
-15.5637
-16.6909
0.0578383
-0.0289542
-0.0305663
-0.113826
-0.346098
-0.681469
-1.21054
-1.8843
-2.66789
-3.48851
-4.29459
-5.05622
-5.78036
-6.51425
-7.3317
-8.32226
-9.52306
-10.9417
-12.4947
-14.1396
-15.7317
-17.2763
-18.6293
0.0519286
-0.026195
-0.0319869
-0.117862
-0.350837
-0.69443
-1.23767
-1.9317
-2.74287
-3.59725
-4.44578
-5.25806
-6.04142
-6.8425
-7.73775
-8.824
-10.1461
-11.7186
-13.4534
-15.3023
-17.1055
-18.8528
-20.4038
0.0473503
-0.0232449
-0.0344364
-0.121185
-0.354986
-0.706237
-1.2626
-1.97606
-2.81415
-3.70186
-4.59268
-5.45534
-6.29714
-7.16297
-8.13064
-9.30263
-10.7304
-12.435
-14.3235
-16.3413
-18.3151
-20.219
-21.9231
0.0441896
-0.0206664
-0.03766
-0.123929
-0.358725
-0.716889
-1.28534
-2.01736
-2.88169
-3.80222
-4.7351
-5.64777
-6.54714
-7.47485
-8.50811
-9.75258
-11.2647
-13.0699
-15.0705
-17.2051
-19.2931
-21.2917
-23.0892
0.0422895
-0.0187413
-0.0413375
-0.126106
-0.362021
-0.726457
-1.30633
-2.05639
-2.94659
-3.89952
-4.87409
-5.83614
-6.79182
-7.7778
-8.86819
-10.168
-11.7355
-13.5983
-15.6557
-17.8407
-19.9736
-21.9961
-23.8158
0.0417372
-0.0176531
-0.0452454
-0.127932
-0.364878
-0.734548
-1.32478
-2.09202
-3.0077
-3.99314
-5.01001
-6.02213
-7.03431
-8.07593
-9.21423
-10.5476
-12.1326
-13.9995
-16.049
-18.2096
-20.311
-22.2823
-24.0482
0.0414705
-0.0174638
-0.0483968
-0.128587
-0.36708
-0.742259
-1.34298
-2.12653
-3.06518
-4.0786
-5.13157
-6.18658
-7.24805
-8.33741
-9.51208
-10.8584
-12.4274
-14.25
-16.2312
-18.2965
-20.2906
-22.1374
-23.7709
0.0429073
-0.0175581
-0.0507331
-0.129426
-0.370421
-0.751649
-1.36264
-2.16099
-3.11939
-4.15619
-5.2394
-6.33116
-7.43604
-8.56656
-9.76675
-11.105
-12.6204
-14.3418
-16.1814
-18.0664
-19.8645
-21.507
-22.9401
0.0464967
-0.0174255
-0.0526257
-0.131481
-0.376817
-0.766153
-1.3897
-2.20495
-3.18474
-4.24623
-5.36048
-6.48944
-7.63691
-8.8041
-10.0172
-11.3207
-12.7369
-14.2912
-15.9101
-17.5319
-19.0565
-20.433
-21.6189
0.051146
-0.0176424
-0.0549097
-0.135553
-0.386715
-0.785309
-1.42222
-2.25447
-3.25515
-4.34061
-5.48503
-6.65057
-7.83935
-9.03945
-10.2554
-11.5031
-12.7826
-14.1161
-15.4519
-16.75
-17.9504
-19.0247
-19.9374
0.0546325
-0.0190214
-0.0584765
-0.141916
-0.399569
-0.807528
-1.45719
-2.30494
-3.32428
-4.43128
-5.60347
-6.80377
-8.03223
-9.26262
-10.4749
-11.652
-12.7681
-13.8429
-14.8523
-15.7882
-16.6362
-17.3914
-18.0194
0.0560267
-0.0217308
-0.0634038
-0.150054
-0.414187
-0.83089
-1.49193
-2.35301
-3.38834
-4.51423
-5.71183
-6.94535
-8.21254
-9.47223
-10.6775
-11.7757
-12.7122
-13.5047
-14.1608
-14.7113
-15.1921
-15.6212
-15.9584
0.0557592
-0.0252785
-0.0690696
-0.159015
-0.429211
-0.853703
-1.52453
-2.39689
-3.44596
-4.58882
-5.81034
-7.07646
-8.38248
-9.67218
-10.8704
-11.8876
-12.6392
-13.1397
-13.4298
-13.5833
-13.69
-13.7895
-13.8287
0.0546169
-0.0290934
-0.0747814
-0.167854
-0.443501
-0.874757
-1.55392
-2.43593
-3.49718
-4.65586
-5.90058
-7.19928
-8.54477
-9.8663
-11.0604
-12.0014
-12.5739
-12.7874
-12.7134
-12.4693
-12.2023
-11.9713
-11.7038
0.0532029
-0.0327501
-0.0800491
-0.176014
-0.456468
-0.893578
-1.57995
-2.47053
-3.54306
-4.71709
-5.98479
-7.31632
-8.70206
-10.0582
-11.2543
-12.131
-12.5426
-12.4895
-12.0677
-11.4392
-10.8087
-10.2501
-9.67035
0.0518309
-0.0360763
-0.0847069
-0.183304
-0.468018
-0.910309
-1.60317
-2.50176
-3.58526
-4.77458
-6.06514
-7.4295
-8.8559
-10.2497
-11.4568
-12.2884
-12.5697
-12.2869
-11.5504
-10.5667
-9.59666
-8.71925
-7.82833
0.050638
-0.0390075
-0.0887594
-0.189832
-0.478417
-0.925487
-1.62451
-2.53101
-3.62552
-4.83033
-6.14354
-7.54037
-9.00737
-10.4424
-11.6722
-12.4847
-12.6787
-12.2207
-11.2219
-9.93012
-8.65951
-7.48771
-6.29763
0.0496345
-0.0415949
-0.0923526
-0.1958
-0.488027
-0.939712
-1.64486
-2.55944
-3.66522
-4.88566
-6.22101
-7.64942
-9.15633
-10.6362
-11.9027
-12.7279
-12.8893
-12.3293
-11.1441
-9.60958
-8.0982
-6.68596
-5.22415
0.0487992
-0.0438861
-0.095632
-0.201456
-0.497221
-0.953515
-1.66491
-2.58786
-3.70516
-4.94127
-6.29795
-7.75664
-9.30242
-10.8311
-12.1499
-13.0252
-13.2192
-12.6486
-11.3778
-9.69188
-8.02843
-6.46062
-4.77248
0.0480773
-0.0459738
-0.0987673
-0.206983
-0.506258
-0.967236
-1.68505
-2.61663
-3.74557
-4.99717
-6.37403
-7.86135
-9.44457
-11.0258
-12.4137
-13.3798
-13.6808
-13.2077
-11.9793
-10.2723
-8.58465
-6.96332
-5.1171
0.0474442
-0.0479076
-0.101861
-0.212527
-0.51532
-0.981075
-1.70544
-2.64581
-3.78634
-5.05299
-6.44865
-7.9628
-9.58186
-11.2196
-12.6934
-13.7931
-14.2818
-14.028
-12.9998
-11.4553
-9.91372
-8.36158
-6.47294
0.0468686
-0.0497624
-0.105009
-0.218148
-0.524475
-0.995079
-1.72607
-2.67523
-3.8271
-5.10816
-6.521
-8.06001
-9.71301
-11.4104
-12.986
-14.2613
-15.0215
-15.1197
-14.4809
-13.3374
-12.1603
-10.8622
-9.14727
0.0463594
-0.0515629
-0.108238
-0.223884
-0.533753
-1.00924
-1.74683
-2.70465
-3.86743
-5.16212
-6.59041
-8.15225
-9.83699
-11.5965
-13.2875
-14.777
-15.8899
-16.4783
-16.4425
-15.978
-15.4376
-14.6848
-13.4772
0.0459109
-0.0533598
-0.111579
-0.229715
-0.543125
-1.02348
-1.76758
-2.73383
-3.90697
-5.21436
-6.65626
-8.23877
-9.95249
-11.7751
-13.5911
-15.3262
-16.8643
-18.0766
-18.8618
-19.3612
-19.772
-19.9391
-19.6208
0.0455477
-0.0551569
-0.115007
-0.235634
-0.55257
-1.03775
-1.7882
-2.76256
-3.94543
-5.26457
-6.71818
-8.31914
-10.0585
-11.9434
-13.8888
-15.8905
-17.9085
-19.8591
-21.6574
-23.374
-25.0443
-26.4822
-27.3388
0.0452666
-0.0569881
-0.118523
-0.241602
-0.562045
-1.05198
-1.80861
-2.79073
-3.98267
-5.31256
-6.77594
-8.39297
-10.1536
-12.0976
-14.1703
-16.4454
-18.9722
-21.7374
-24.684
-27.8013
-30.9618
-33.87
-35.9867
0.0450881
-0.0588444
-0.122088
-0.24761
-0.571541
-1.06615
-1.82876
-2.81829
-4.01861
-5.3583
-6.82948
-8.46009
-10.237
-12.2344
-14.4245
-16.9628
-19.9933
-23.5944
-27.7416
-32.3443
-37.0912
-41.4793
-44.7694
0.0449955
-0.0607514
-0.1257
-0.25363
-0.581034
-1.08025
-1.84865
-2.84522
-4.0533
-5.40185
-6.87887
-8.52044
-10.3075
-12.35
-14.6393
-17.412
-20.9011
-25.2916
-30.597
-36.6584
-42.9469
-48.6922
-53.0029
0.0450039
-0.0626905
-0.129323
-0.259667
-0.590534
-1.09428
-1.86828
-2.87158
-4.0868
-5.44333
-6.92423
-8.57405
-10.3641
-12.4411
-14.8028
-17.7617
-21.6226
-26.6822
-33.0082
-40.39
-48.0564
-54.9679
-60.1482
0.0450605
-0.0646928
-0.132971
-0.265716
-0.60005
-1.10827
-1.88773
-2.8975
-4.11932
-5.48306
-6.96595
-8.62132
-10.4067
-12.5051
-14.9049
-17.9844
-22.0905
-27.627
-34.7435
-43.2022
-52.0069
-59.8878
-65.8109
0.0452042
-0.0667282
-0.136614
-0.271802
-0.609621
-1.12229
-1.90711
-2.92313
-4.15111
-5.5214
-7.00447
-8.66285
-10.4351
-12.5406
-14.9382
-18.0571
-22.2495
-28.0041
-35.5876
-44.7807
-54.4302
-63.0939
-69.6595
0.0450481
-0.0689262
-0.140273
-0.277862
-0.61916
-1.1363
-1.92653
-2.94889
-4.18303
-5.55993
-7.04263
-8.70354
-10.4577
-12.5605
-14.9217
-17.9995
-22.1173
-27.8004
-35.4547
-44.9721
-55.1416
-64.4121
-71.485
0.0451597
-0.0710798
-0.143798
-0.283852
-0.628777
-1.15067
-1.94685
-2.97644
-4.21804
-5.60374
-7.08929
-8.75872
-10.5023
-12.6102
-14.9353
-17.9337
-21.8896
-27.2916
-34.6724
-44.166
-54.5953
-64.3573
-71.8739
0.045898
-0.0730002
-0.146875
-0.289575
-0.638432
-1.16575
-1.96906
-3.00767
-4.25916
-5.6571
-7.15066
-8.83723
-10.5848
-12.7158
-15.0345
-17.9596
-21.762
-26.8328
-33.7713
-43.0343
-53.5203
-63.6281
-71.5114
0.0472249
-0.0747684
-0.149588
-0.295267
-0.648522
-1.1822
-1.99417
-3.04389
-4.30782
-5.72103
-7.22682
-8.93699
-10.7017
-12.8715
-15.2222
-18.0974
-21.7988
-26.5867
-33.0363
-41.9195
-52.2765
-62.5951
-70.6436
0.048789
-0.0766342
-0.152271
-0.301293
-0.659508
-1.20058
-2.02274
-3.08545
-4.36378
-5.79401
-7.31433
-9.05103
-10.8424
-13.0612
-15.4816
-18.3401
-22.0072
-26.6084
-32.6014
-41.0056
-51.11
-61.4849
-69.3721
0.050403
-0.0787054
-0.155148
-0.307971
-0.671773
-1.2213
-2.05507
-3.13231
-4.42625
-5.87388
-7.40893
-9.17158
-10.9949
-13.266
-15.7873
-18.6655
-22.3591
-26.8782
-32.4967
-40.4029
-50.1334
-60.2048
-67.7357
0.0520381
-0.0809509
-0.158266
-0.315279
-0.685193
-1.24396
-2.09025
-3.18265
-4.49215
-5.95575
-7.50336
-9.2876
-11.1422
-13.4606
-16.0979
-19.0242
-22.7815
-27.2998
-32.6514
-40.0862
-49.2295
-58.6682
-65.8173
0.0536562
-0.0833478
-0.161657
-0.323265
-0.699768
-1.26847
-2.12794
-3.23572
-4.56011
-6.03725
-7.59383
-9.39318
-11.2751
-13.6315
-16.3895
-19.3874
-23.2303
-27.8233
-33.0455
-40.0499
-48.4536
-57.1998
-64.0253
0.055421
-0.0857333
-0.165156
-0.331654
-0.715151
-1.29427
-2.16731
-3.29031
-4.62838
-6.11613
-7.67727
-9.48388
-11.3851
-13.7652
-16.6314
-19.7075
-23.6259
-28.2943
-33.4304
-40.0009
-47.6315
-55.6919
-62.0781
0.0571444
-0.088191
-0.168771
-0.340382
-0.730891
-1.32034
-2.20628
-3.34282
-4.69141
-6.18422
-7.74194
-9.54289
-11.4466
-13.8243
-16.7637
-19.8959
-23.8534
-28.6104
-33.7395
-39.9231
-46.9145
-54.4038
-60.2742
0.0586175
-0.0908451
-0.172824
-0.349672
-0.747253
-1.34681
-2.24482
-3.39305
-4.74896
-6.24178
-7.78929
-9.57352
-11.4646
-13.8146
-16.7866
-19.9397
-23.8751
-28.672
-33.7823
-39.6662
-46.1658
-53.1089
-58.4105
0.0598133
-0.0936484
-0.177274
-0.359406
-0.764015
-1.37333
-2.28256
-3.44085
-4.80163
-6.29097
-7.824
-9.58448
-11.4527
-13.7553
-16.7235
-19.8596
-23.7052
-28.4544
-33.4772
-39.1611
-45.252
-51.5906
-56.2211
0.0608807
-0.0964297
-0.181792
-0.369086
-0.780494
-1.39904
-2.31851
-3.48533
-4.84902
-6.33257
-7.8488
-9.58174
-11.4208
-13.662
-16.5944
-19.6798
-23.3749
-27.9898
-32.8556
-38.377
-44.0751
-49.7433
-53.6303
0.0619533
-0.0990498
-0.18612
-0.3784
-0.796281
-1.42345
-2.35222
-3.52629
-4.89155
-6.36814
-7.86706
-9.57165
-11.3797
-13.5516
-16.4235
-19.4335
-22.9328
-27.3426
-31.9946
-37.3276
-42.5509
-47.4978
-50.662
0.0630249
-0.101533
-0.190236
-0.387289
-0.811331
-1.44662
-2.38396
-3.56448
-4.93072
-6.40048
-7.88342
-9.5618
-11.341
-13.4432
-16.2394
-19.1613
-22.4384
-26.5884
-30.9653
-36.0197
-40.6498
-44.8241
-47.3174
0.064096
-0.103911
-0.194181
-0.395861
-0.82583
-1.46888
-2.41437
-3.60099
-4.9684
-6.4325
-7.90223
-9.55872
-11.3145
-13.3529
-16.0684
-18.9011
-21.9481
-25.7966
-29.8334
-34.4928
-38.4298
-41.7658
-43.6057
0.065133
-0.106251
-0.198036
-0.404215
-0.839959
-1.49056
-2.44399
-3.63676
-5.006
-6.46623
-7.92615
-9.56601
-11.3054
-13.2899
-15.9272
-18.6776
-21.5024
-25.02
-28.6539
-32.8307
-35.9796
-38.4374
-39.6231
0.0661531
-0.108563
-0.201835
-0.412459
-0.853886
-1.51192
-2.47325
-3.67238
-5.04428
-6.50248
-7.95579
-9.58378
-11.313
-13.2543
-15.8196
-18.4978
-21.1169
-24.2901
-27.4856
-31.0597
-33.3567
-34.9583
-35.6238
0.067133
-0.110883
-0.205632
-0.420642
-0.867701
-1.53312
-2.50235
-3.70808
-5.08339
-6.54104
-7.99007
-9.60946
-11.3326
-13.2394
-15.7382
-18.3521
-20.7833
-23.6061
-26.3349
-29.1576
-30.6413
-31.5225
-31.7242
0.0680934
-0.113202
-0.209431
-0.428818
-0.881472
-1.55422
-2.53135
-3.74386
-5.12304
-6.58103
-8.02692
-9.63889
-11.3568
-13.2335
-15.6673
-18.2184
-20.4739
-22.9357
-25.16
-27.1847
-27.95
-28.2157
-27.8846
0.0690088
-0.115543
-0.213263
-0.436988
-0.895202
-1.57523
-2.56021
-3.77953
-5.16275
-6.62131
-8.06399
-9.66759
-11.3778
-13.2235
-15.588
-18.0689
-20.152
-22.2378
-23.8932
-25.2269
-25.3511
-25.0407
-24.2097
0.0699003
-0.117885
-0.217115
-0.445174
-0.908903
-1.59612
-2.58884
-3.81486
-5.20199
-6.66076
-8.09906
-9.6915
-11.3885
-13.1975
-15.4817
-17.8756
-19.7795
-21.4826
-22.5285
-23.226
-22.7971
-21.9823
-20.8029
0.070741
-0.12025
-0.221005
-0.453353
-0.922545
-1.61685
-2.61712
-3.84963
-5.24026
-6.69841
-8.13037
-9.70752
-11.3836
-13.1458
-15.3334
-17.6156
-19.3248
-20.6505
-21.1153
-21.1547
-20.2695
-19.046
-17.6537
0.0715551
-0.122615
-0.224914
-0.461538
-0.936125
-1.63738
-2.64499
-3.88362
-5.27717
-6.73356
-8.15672
-9.7136
-11.3597
-13.0624
-15.1331
-17.2733
-18.767
-19.7253
-19.6969
-19.0948
-17.8437
-16.3534
-14.7885
0.0723152
-0.124998
-0.228858
-0.469705
-0.94961
-1.65766
-2.67233
-3.91668
-5.31243
-6.76572
-8.17739
-9.70875
-11.3153
-12.9443
-14.8762
-16.8425
-18.099
-18.6973
-18.2789
-17.1321
-15.6074
-13.9573
-12.2347
0.0730471
-0.127378
-0.232819
-0.477866
-0.963002
-1.67768
-2.69911
-3.9487
-5.34585
-6.79462
-8.19206
-9.69272
-11.2505
-12.7916
-14.5632
-16.325
-17.3266
-17.5695
-16.8514
-15.2972
-13.5866
-11.8175
-9.94689
0.0737211
-0.129774
-0.236812
-0.485998
-0.976275
-1.69739
-2.72525
-3.97956
-5.37727
-6.82009
-8.20071
-9.66588
-11.1664
-12.6068
-14.1991
-15.7299
-16.4667
-16.3638
-15.417
-13.5879
-11.7352
-9.85002
-7.85578
0.0743651
-0.132162
-0.24082
-0.494118
-0.989437
-1.7168
-2.75072
-4.00921
-5.4066
-6.84205
-8.20345
-9.62885
-11.0649
-12.3935
-13.7913
-15.0711
-15.5431
-15.1154
-13.9821
-11.9805
-10.0025
-8.00499
-5.97058
0.0749464
-0.134564
-0.244861
-0.502206
-1.00247
-1.73586
-2.77548
-4.03756
-5.43374
-6.86048
-8.20049
-9.58246
-10.9481
-12.1565
-13.3499
-14.366
-14.5821
-13.8662
-12.5642
-10.4661
-8.39778
-6.33391
-4.33245
0.0754933
-0.136957
-0.248917
-0.51028
-1.01537
-1.75459
-2.7995
-4.06455
-5.45862
-6.87533
-8.192
-9.5275
-10.8181
-11.9008
-12.8849
-13.6326
-13.6076
-12.6431
-11.2011
-9.0603
-6.95326
-4.89072
-2.98026
0.0759697
-0.139361
-0.253009
-0.51832
-1.02814
-1.77293
-2.82273
-4.09011
-5.48114
-6.88655
-8.17817
-9.46472
-10.6771
-11.6313
-12.4067
-12.889
-12.6424
-11.4585
-9.9208
-7.77809
-5.67579
-3.6764
-1.88903
0.0764059
-0.141756
-0.257119
-0.526344
-1.04076
-1.79089
-2.84512
-4.11416
-5.50121
-6.89408
-8.15911
-9.39469
-10.5269
-11.3523
-11.9248
-12.1511
-11.7076
-10.3389
-8.72531
-6.61448
-4.55995
-2.66403
-0.997774
0.0767633
-0.144163
-0.261267
-0.534333
-1.05323
-1.80843
-2.86661
-4.13661
-5.51872
-6.89783
-8.13489
-9.31796
-10.3689
-11.0676
-11.4473
-11.4329
-10.8204
-9.31565
-7.62927
-5.57063
-3.61104
-1.83205
-0.268802
0.0770738
-0.146561
-0.265436
-0.542303
-1.06555
-1.82554
-2.88718
-4.15738
-5.53356
-6.89771
-8.10551
-9.23483
-10.2043
-10.7803
-10.9807
-10.7449
-9.99032
-8.40618
-6.65981
-4.66616
-2.82374
-1.15459
0.301156
0.077296
-0.148971
-0.269647
-0.550233
-1.07768
-1.84217
-2.90674
-4.17637
-5.54561
-6.8936
-8.07099
-9.14561
-10.0343
-10.4929
-10.5298
-10.0955
-9.22162
-7.60771
-5.82819
-3.90903
-2.17786
-0.612652
0.723554
0.0774657
-0.151372
-0.27388
-0.558139
-1.08964
-1.85831
-2.92525
-4.19351
-5.55477
-6.88538
-8.03124
-9.05039
-9.85922
-10.2068
-10.0977
-9.48903
-8.5127
-6.90246
-5.12105
-3.27889
-1.64675
-0.18647
1.03628
0.0775393
-0.153787
-0.278156
-0.565999
-1.10139
-1.87392
-2.94264
-4.20869
-5.5609
-6.87291
-7.98619
-8.9493
-9.67976
-9.92323
-9.68572
-8.92792
-7.85982
-6.27183
-4.51358
-2.75375
-1.21584
0.135266
1.25184
0.0775551
-0.156193
-0.282456
-0.573828
-1.11295
-1.88897
-2.95887
-4.22181
-5.56389
-6.85605
-7.9357
-8.84227
-9.496
-9.64261
-9.2937
-8.41177
-7.25949
-5.7042
-3.98709
-2.31999
-0.882527
0.358072
1.37538
0.0774669
-0.158613
-0.2868
-0.581603
-1.12427
-1.90343
-2.97385
-4.23279
-5.5636
-6.83465
-7.87969
-8.72934
-9.30813
-9.3651
-8.92067
-7.93952
-6.71112
-5.19547
-3.53374
-1.96956
-0.635205
0.500532
1.42607
0.0773166
-0.161024
-0.291167
-0.589339
-1.13536
-1.91726
-2.98754
-4.24152
-5.55989
-6.80854
-7.81795
-8.61035
-9.11596
-9.09021
-8.56446
-7.50883
-6.21605
-4.74388
-3.14988
-1.69303
-0.458379
0.581076
1.42298
0.0770557
-0.163449
-0.295579
-0.597011
-1.14618
-1.93041
-2.99984
-4.24788
-5.55264
-6.77755
-7.75038
-8.48529
-8.91948
-8.81766
-8.22289
-7.11678
-5.7757
-4.34818
-2.83098
-1.47977
-0.339904
0.611956
1.37629
0.0767282
-0.165864
-0.300015
-0.604634
-1.15674
-1.94288
-3.01072
-4.25178
-5.54168
-6.7415
-7.67678
-8.35399
-8.71837
-8.54669
-7.89321
-6.75885
-5.38795
-4.00628
-2.56953
-1.31845
-0.270398
0.599788
1.29449
0.0762824
-0.168291
-0.304494
-0.612182
-1.167
-1.95459
-3.02007
-4.2531
-5.52688
-6.70023
-7.59703
-8.21646
-8.51257
-8.27694
-7.57311
-6.43003
-5.04773
-3.71358
-2.35673
-1.19932
-0.237549
0.55733
1.18915
0.0757653
-0.170707
-0.308996
-0.619669
-1.17696
-1.96552
-3.02783
-4.25172
-5.50808
-6.65356
-7.51099
-8.07262
-8.3018
-8.00783
-7.26007
-6.12463
-4.74846
-3.46194
-2.18353
-1.11158
-0.22889
0.497437
1.07088
0.0751258
-0.173133
-0.31354
-0.627065
-1.18658
-1.97561
-3.03391
-4.24749
-5.4851
-6.60129
-7.41854
-7.92255
-8.08612
-7.73928
-6.95239
-5.83681
-4.48322
-3.24159
-2.04075
-1.04687
-0.235819
0.426863
0.946531
0.0744041
-0.175549
-0.31811
-0.634396
-1.19586
-1.98486
-3.03828
-4.24039
-5.45791
-6.54337
-7.31967
-7.76643
-7.86556
-7.47116
-6.64845
-5.56241
-4.25003
-3.04699
-1.92221
-1.00116
-0.254203
0.349091
0.819737
0.0735919
-0.177957
-0.322707
-0.641606
-1.20474
-1.99311
-3.04068
-4.23001
-5.42598
-6.4793
-7.21402
-7.6042
-7.64004
-7.20369
-6.34834
-5.29152
-4.03346
-2.86618
-1.82119
-0.970222
-0.281777
0.266941
0.693636
0.0726859
-0.180371
-0.327394
-0.648908
-1.21356
-2.00093
-3.04187
-4.21722
-5.39019
-6.40974
-7.10215
-7.43678
-7.41077
-6.93757
-6.052
-5.03487
-3.86902
-2.71667
-1.75089
-0.964391
-0.32281
0.179566
0.568149
0.0724128
-0.182515
-0.332084
-0.656454
-1.22258
-2.0081
-3.04028
-4.19817
-5.34393
-6.32579
-6.97392
-7.25425
-7.16861
-6.66824
-5.76969
-4.73139
-3.59961
-2.4968
-1.64442
-0.936586
-0.35395
0.100597
0.453482
0.0714821
-0.185111
-0.337119
-0.66375
-1.22977
-2.01034
-3.02878
-4.16262
-5.27417
-6.21342
-6.81703
-7.05003
-6.91874
-6.41169
-5.55433
-4.58917
-3.57308
-2.53965
-1.71851
-1.04464
-0.501117
-0.0754896
0.255825
0.0697531
-0.188367
-0.343101
-0.671208
-1.23545
-2.00746
-3.0064
-4.10872
-5.17831
-6.06915
-6.62602
-6.81459
-6.64477
-6.13794
-5.33554
-4.4527
-3.54914
-2.60092
-1.81707
-1.18174
-0.67162
-0.272962
0.0408831
0.0673855
-0.19215
-0.349939
-0.678845
-1.23972
-1.99979
-2.97376
-4.03734
-5.05713
-5.89274
-6.39848
-6.54208
-6.33568
-5.82507
-5.05819
-4.21606
-3.38903
-2.54044
-1.8375
-1.26438
-0.799026
-0.433538
-0.14154
0.0648986
-0.195882
-0.356776
-0.68556
-1.24101
-1.98524
-2.92818
-3.9452
-4.9066
-5.67922
-6.12861
-6.2264
-5.98638
-5.47011
-4.72748
-3.91251
-3.15173
-2.40702
-1.79743
-1.29683
-0.886058
-0.557109
-0.292791
0.0626004
-0.199172
-0.362991
-0.690542
-1.23799
-1.96181
-2.8668
-3.8285
-4.72196
-5.42294
-5.81029
-5.86205
-5.59463
-5.08015
-4.3732
-3.60414
-2.91401
-2.26409
-1.73676
-1.30697
-0.946978
-0.657646
-0.423235
0.0601149
-0.202151
-0.368666
-0.693646
-1.23022
-1.9287
-2.78845
-3.68581
-4.50158
-5.12214
-5.44171
-5.44761
-5.16126
-4.66244
-4.01162
-3.31058
-2.69354
-2.12684
-1.66945
-1.30048
-0.989002
-0.73931
-0.535608
0.0571207
-0.205063
-0.374073
-0.695116
-1.21782
-1.88596
-2.69334
-3.5179
-4.24723
-4.77987
-5.0273
-4.98881
-4.69323
-4.2241
-3.64473
-3.02547
-2.48283
-1.99242
-1.59463
-1.28134
-1.01687
-0.802301
-0.626332
0.0533026
-0.208111
-0.379426
-0.695004
-1.20075
-1.8336
-2.58198
-3.32655
-3.96293
-4.40333
-4.57805
-4.4998
-4.20553
-3.77705
-3.27631
-2.74575
-2.27894
-1.86181
-1.51794
-1.25376
-1.03015
-0.846983
-0.694974
0.048695
-0.211288
-0.384638
-0.693127
-1.17862
-1.77131
-2.4548
-3.11407
-3.65431
-4.00299
-4.10997
-4.00084
-3.71892
-3.33852
-2.91735
-2.47696
-2.08645
-1.73978
-1.44468
-1.22072
-1.03253
-0.875906
-0.744586
0.0432298
-0.214562
-0.389513
-0.68896
-1.15069
-1.69852
-2.31228
-2.8834
-3.32852
-3.59159
-3.64142
-3.51348
-3.25399
-2.92548
-2.57947
-2.22434
-1.90604
-1.62532
-1.3783
-1.18714
-1.02774
-0.893418
-0.779885
0.0370565
-0.217744
-0.393615
-0.681855
-1.11609
-1.61474
-2.15545
-2.63857
-2.994
-3.18252
-3.18944
-3.05524
-2.82527
-2.5485
-2.26893
-1.98907
-1.73545
-1.51337
-1.31411
-1.15293
-1.01829
-0.902876
-0.804756
0.0301314
-0.220715
-0.396498
-0.670989
-1.07398
-1.51987
-1.98621
-2.38477
-2.65984
-2.78786
-2.76658
-2.63637
-2.43879
-2.21004
-1.98602
-1.76865
-1.57038
-1.39742
-1.24265
-1.11172
-1.00112
-0.903882
-0.819338
0.0226373
-0.223163
-0.397507
-0.655589
-1.02378
-1.41456
-1.80762
-2.12813
-2.33468
-2.41657
-2.37952
-2.25968
-2.09348
-1.90687
-1.72752
-1.55921
-1.40626
-1.27256
-1.15481
-1.0528
-0.965319
-0.887314
-0.817363
0.0145599
-0.224896
-0.396047
-0.6349
-0.965353
-1.30033
-1.6237
-1.875
-2.02553
-2.07388
-2.02976
-1.92309
-1.78475
-1.63355
-1.48943
-1.35798
-1.24029
-1.13709
-1.04722
-0.969525
-0.901855
-0.841241
-0.786129
0.00616353
-0.225438
-0.391366
-0.608446
-0.899191
-1.17959
-1.4391
-1.6312
-1.73736
-1.76186
-1.71592
-1.62284
-1.508
-1.38571
-1.26936
-1.16498
-1.07335
-0.993292
-0.923431
-0.863749
-0.811861
-0.765152
-0.722358
-0.00250464
-0.224509
-0.382904
-0.576015
-0.826439
-1.05548
-1.25853
-1.40155
-1.47338
-1.4812
-1.43637
-1.35639
-1.26123
-1.16242
-1.06856
-0.984696
-0.912134
-0.849539
-0.794587
-0.747509
-0.70732
-0.671507
-0.638414
-0.0110048
-0.221536
-0.370078
-0.537908
-0.748924
-0.931478
-1.08636
-1.18992
-1.23593
-1.23265
-1.19092
-1.12359
-1.04554
-0.966221
-0.891218
-0.823945
-0.765842
-0.71631
-0.672908
-0.63492
-0.602509
-0.574384
-0.548726
-0.0191881
-0.216234
-0.352707
-0.494839
-0.668891
-0.811065
-0.926331
-0.999322
-1.02702
-1.01752
-0.980687
-0.925915
-0.863597
-0.801172
-0.742528
-0.689632
-0.643498
-0.604144
-0.569926
-0.539403
-0.512567
-0.489344
-0.468811
-0.0264793
-0.208115
-0.330763
-0.448001
-0.588779
-0.69732
-0.781309
-0.831863
-0.847847
-0.836442
-0.806135
-0.763881
-0.716476
-0.669334
-0.625312
-0.585497
-0.550298
-0.519871
-0.493467
-0.469793
-0.448251
-0.428937
-0.411947
-0.0326419
-0.19709
-0.304712
-0.398805
-0.510807
-0.592519
-0.652909
-0.687954
-0.697525
-0.687363
-0.664375
-0.633758
-0.599835
-0.566134
-0.534747
-0.506327
-0.480903
-0.458449
-0.438733
-0.421034
-0.404676
-0.389414
-0.375538
-0.0371616
-0.183035
-0.275186
-0.3487
-0.436689
-0.497781
-0.541028
-0.565773
-0.572341
-0.564895
-0.548735
-0.527805
-0.504918
-0.482191
-0.461022
-0.441869
-0.424626
-0.40909
-0.395145
-0.382509
-0.370794
-0.359671
-0.349179
-0.0398311
-0.166243
-0.243107
-0.298944
-0.36734
-0.413022
-0.443956
-0.461811
-0.467
-0.462413
-0.451839
-0.43833
-0.423802
-0.409528
-0.396291
-0.384404
-0.37374
-0.364046
-0.355143
-0.346926
-0.339245
-0.331938
-0.324918
-0.0404697
-0.147072
-0.209437
-0.250403
-0.303069
-0.337314
-0.359396
-0.372391
-0.376845
-0.374626
-0.368338
-0.360239
-0.351718
-0.343565
-0.336162
-0.329654
-0.323924
-0.31875
-0.313921
-0.309341
-0.30496
-0.300757
-0.296701
-0.0390852
-0.126239
-0.17505
-0.203824
-0.243825
-0.269714
-0.285457
-0.294968
-0.298927
-0.298505
-0.295366
-0.291107
-0.286723
-0.282749
-0.27935
-0.276552
-0.274235
-0.272234
-0.27036
-0.268511
-0.266642
-0.264775
-0.26295
-0.0360742
-0.104427
-0.140979
-0.159767
-0.189742
-0.209595
-0.22104
-0.228095
-0.231785
-0.232696
-0.231901
-0.230387
-0.228899
-0.227754
-0.227072
-0.226777
-0.226784
-0.226935
-0.22712
-0.227223
-0.227217
-0.227091
-0.226923
-0.0316994
-0.0826883
-0.108271
-0.11904
-0.14107
-0.156739
-0.165419
-0.170851
-0.174354
-0.176215
-0.177029
-0.177378
-0.177762
-0.178377
-0.179304
-0.180457
-0.181764
-0.183099
-0.184394
-0.185566
-0.186598
-0.187469
-0.188245
-0.0267426
-0.062003
-0.0780012
-0.0822477
-0.0978045
-0.110473
-0.117435
-0.121739
-0.125023
-0.127471
-0.129347
-0.130928
-0.13253
-0.134255
-0.136159
-0.13816
-0.140204
-0.142193
-0.144088
-0.14583
-0.14742
-0.148841
-0.150141
-0.0218157
-0.0436374
-0.051396
-0.050247
-0.0602947
-0.0706997
-0.0766967
-0.0802116
-0.0831269
-0.0856775
-0.087936
-0.0899314
-0.091873
-0.09379
-0.0957525
-0.0976877
-0.0995909
-0.101381
-0.103061
-0.104584
-0.105978
-0.107227
-0.108378
-0.0175173
-0.0280252
-0.0285363
-0.0219589
-0.0260959
-0.0337718
-0.0388547
-0.0419465
-0.0451297
-0.0488212
-0.0529588
-0.0572683
-0.0617656
-0.0663184
-0.0709244
-0.0754358
-0.0798247
-0.083972
-0.0878722
-0.0914565
-0.0947512
-0.0977292
-0.100438
-0.0102039
-0.0162619
-0.0126949
-0.0048584
-0.00413912
-0.00749585
-0.00927113
-0.0082637
-0.00630091
-0.0041997
-0.00228539
-0.000309031
0.00160807
0.00356871
0.00542619
0.00726783
0.00899582
0.0106892
0.0122694
0.0137893
0.0151777
0.0164665
0.0176017
0.314486
0.242461
0.318579
0.438214
0.604002
0.839763
1.16354
1.59276
2.14119
2.81681
3.63403
4.61333
5.7917
7.20515
8.87891
10.8027
12.9288
15.1733
17.4342
19.6047
21.6048
23.3609
24.8885
0.312203
0.265296
0.324328
0.443838
0.607415
0.83707
1.15349
1.57485
2.11737
2.79384
3.6205
4.61783
5.81601
7.24285
8.91372
10.8128
12.89
15.0635
17.2353
19.3057
21.1994
22.8536
24.281
0.308213
0.286933
0.332523
0.44576
0.604092
0.823538
1.12602
1.53102
2.057
2.72094
3.54145
4.53916
5.73871
7.16026
8.81023
10.6674
12.6799
14.7684
16.8401
18.803
20.5878
22.1409
23.4726
0.302385
0.304171
0.342253
0.444591
0.593707
0.798888
1.08112
1.46107
1.95911
2.59553
3.39139
4.3679
5.54594
6.93955
8.54811
10.3459
12.2798
14.2735
16.2394
18.0931
19.771
21.2282
22.4726
0.295026
0.313781
0.350386
0.439779
0.575307
0.761795
1.01753
1.36353
1.82167
2.41465
3.1659
4.09756
5.22865
6.56917
8.11393
9.83432
11.6775
13.5703
15.4307
17.1804
18.7605
20.1323
21.3006
0.286112
0.312913
0.351299
0.427915
0.54577
0.708568
0.931209
1.23407
1.63978
2.17278
2.85824
3.71971
4.77569
6.03467
7.48935
9.11086
10.8484
12.634
14.3908
16.0468
17.5461
18.8528
19.966
0.273556
0.299268
0.338243
0.403106
0.500554
0.634715
0.817608
1.06808
1.40889
1.86547
2.46441
3.23071
4.18366
5.33209
6.66927
8.16835
9.78288
11.4512
13.1038
14.6747
16.1111
17.378
18.4694
0.252667
0.273339
0.30913
0.362969
0.438924
0.540161
0.676346
0.864735
1.12806
1.49294
1.98797
2.64054
3.47223
4.49385
5.70079
7.06926
8.55731
10.1092
11.662
13.155
14.5373
15.7728
16.8497
0.289298
0.0682204
0.259736
0.309763
0.489294
0.733625
1.05638
1.49684
2.01821
2.55798
3.11856
3.63019
4.1779
4.7832
5.51625
6.3691
7.30401
8.24251
9.11191
9.85656
10.4482
10.9024
11.2151
0.289697
0.071016
0.258446
0.311075
0.489761
0.734956
1.05931
1.5033
2.03167
2.58875
3.17937
3.7452
4.36891
5.08045
5.94713
6.96523
8.09689
9.26219
10.3823
11.3879
12.2394
12.9354
13.4637
0.290482
0.075603
0.257711
0.311959
0.489145
0.733484
1.05739
1.50229
2.03487
2.60671
3.22437
3.84163
4.53752
5.34955
6.34146
7.51295
8.82658
10.2024
11.5579
12.8126
13.9178
14.8531
15.6035
0.291589
0.0824223
0.259195
0.314071
0.489655
0.731953
1.05395
1.49734
2.03129
2.61444
3.25481
3.91858
4.6811
5.58635
6.69425
8.0067
9.48642
11.0539
12.6243
14.1087
15.4509
16.6132
17.5798