/*--------------------------------*- C++ -*----------------------------------*\
  =========                 |
  \\      /  F ield         | OpenFOAM: The Open Source CFD Toolbox
   \\    /   O peration     | Website:  https://openfoam.org
    \\  /    A nd           | Version:  7
     \\/     M anipulation  |
\*---------------------------------------------------------------------------*/
FoamFile
{
    version     2.0;
    format      ascii;
    class       surfaceScalarField;
    location    "50";
    object      phi;
}
// * * * * * * * * * * * * * * * * * * * * * * * * * * * * * * * * * * * * * //

dimensions      [0 3 -1 0 0 0 0];

internalField   nonuniform List<scalar> 
25449
(
69.4271
41.5145
-16.6619
51.4576
30.6059
-12.6364
38.3359
22.7027
-9.58106
28.6781
16.9261
-7.26826
21.5245
12.6725
-5.51894
16.1992
9.52152
-4.19616
12.2191
7.17589
-3.19579
9.23525
5.42269
-2.43887
6.99307
4.10783
-1.86565
5.30525
3.11879
-1.43097
4.03316
2.37289
-1.1008
3.07362
1.80903
-0.849495
2.34952
1.38186
-0.657767
1.80304
1.05753
-0.511045
1.39067
0.810694
-0.398329
1.07964
0.622351
-0.311325
0.8452
0.478229
-0.243788
0.668624
0.367629
-0.191053
0.535737
0.282543
-0.149656
0.435798
0.216973
-0.117033
0.360671
0.166408
-0.0912814
0.304198
0.127432
-0.070959
0.0974191
-0.0549854
0.261765
55.0313
60.7457
40.9962
44.641
30.6698
33.0291
23.0233
24.5726
17.3322
18.3636
13.0793
13.7745
9.89093
10.3643
7.49478
7.81884
5.69068
5.91194
4.33054
4.47892
3.30426
3.39918
2.52952
2.58377
1.94461
1.96677
1.50308
1.49906
1.16992
1.14385
0.918682
0.873592
0.729365
0.667546
0.586839
0.510156
0.479636
0.389746
0.399064
0.297544
0.338542
0.226931
0.29308
0.172894
0.131553
0.258946
42.6121
75.1416
31.9648
55.2883
24.0474
40.9465
18.1356
30.4844
13.7065
22.7926
10.3795
17.1015
7.87503
12.8687
5.98676
9.70712
4.56139
7.3373
3.48465
5.55566
2.671
4.21282
2.05616
3.19861
1.59168
2.43125
1.24096
1.84978
0.97629
1.40852
0.776711
1.07317
0.626347
0.81791
0.513168
0.623333
0.428062
0.474852
0.364113
0.361493
0.316088
0.274956
0.280021
0.208961
0.158632
0.252942
32.6303
85.6128
24.7223
63.1962
18.7463
46.9224
14.2285
35.0022
10.8112
26.21
8.22505
19.6877
6.26703
14.8267
4.78403
11.1901
3.6606
8.46074
2.80964
6.40663
2.16529
4.85718
1.67768
3.68621
1.30898
2.79996
1.03041
2.12835
0.820124
1.61881
0.661517
1.23178
0.541997
0.937431
0.452016
0.713315
0.384335
0.542533
0.333465
0.412363
0.295247
0.313174
0.266532
0.237676
0.180205
0.244959
24.9126
92.9942
19.1461
68.9627
14.6786
51.39
11.2382
38.4426
8.59944
28.8487
6.58139
21.7057
5.04114
16.367
3.86728
12.364
2.97374
9.35428
2.29439
7.08597
1.77857
5.373
1.38745
4.07733
1.09129
3.09611
0.867322
2.35231
0.698133
1.788
0.57044
1.35947
0.474149
1.03372
0.401598
0.785865
0.346977
0.597154
0.30588
0.45346
0.274969
0.344084
0.251719
0.260927
0.197696
0.234227
19.0819
97.9828
14.9582
73.0864
11.6381
54.71
9.01128
41.0694
6.95674
30.9033
5.36286
23.2996
4.13326
17.5966
3.18847
13.3088
2.4648
10.078
1.91197
7.6388
1.4907
5.79427
1.17043
4.39761
0.927459
3.33909
0.743461
2.53632
0.604304
1.92716
0.499158
1.46462
0.419764
1.11312
0.359852
0.845778
0.314666
0.64234
0.280602
0.487523
0.254929
0.369757
0.235581
0.280275
0.212281
0.220997
14.7446
101.135
11.8669
75.964
9.40776
57.1692
7.3856
43.0915
5.76171
32.5272
4.47845
24.5828
3.47505
18.6
2.69634
14.0875
2.09534
10.679
1.63357
8.10057
1.28015
6.14769
1.01058
4.66718
0.805577
3.54409
0.650035
2.69186
0.53221
2.04498
0.443033
1.55379
0.375567
1.18058
0.324538
0.896806
0.285952
0.680926
0.25678
0.516695
0.23473
0.391807
0.218066
0.296939
0.224877
0.205471
11.5495
102.882
9.61188
77.9016
7.79376
58.9873
6.21634
44.669
4.90592
33.8376
3.84674
25.642
3.0053
19.4414
2.34472
14.7481
1.83053
11.1932
1.43293
8.49818
1.12714
6.45348
0.893065
4.90126
0.714573
3.72259
0.578857
2.82758
0.475848
2.14799
0.397716
1.63193
0.338452
1.23985
0.293487
0.941772
0.259367
0.715047
0.233474
0.542587
0.213831
0.41145
0.198932
0.311839
0.236173
0.187636
8.94197
106.046
6.6534
80.1901
4.98389
60.6568
3.75596
45.8969
2.84621
34.7473
2.16849
26.3197
1.66091
19.949
1.2792
15.1298
0.991283
11.4811
0.773734
8.71573
0.609275
6.61794
0.485006
5.02553
0.391198
3.8164
0.320439
2.89834
0.267069
2.20136
0.226774
1.67222
0.196298
1.27032
0.1732
0.964869
0.155664
0.732582
0.142334
0.555918
0.132192
0.421592
0.124481
0.319551
0.242043
0.118611
6.69997
108.423
4.98551
81.9046
3.73827
61.904
2.82272
46.8124
2.14539
35.4247
1.64129
26.8238
1.26381
20.3265
0.97985
15.4138
0.765501
11.6954
0.603402
8.87783
0.480762
6.74059
0.388038
5.11826
0.31802
3.88643
0.265192
2.95117
0.225325
2.24123
0.19518
1.70237
0.172314
1.29319
0.154903
0.982281
0.141602
0.745884
0.131414
0.566106
0.123599
0.429407
0.117607
0.325543
0.246641
0.113009
4.98395
110.189
3.71236
83.1761
2.78918
62.8272
2.11239
47.4892
1.61216
35.9249
1.24003
27.196
0.961244
20.6053
0.751324
15.6237
0.592647
11.8541
0.472469
8.99801
0.381419
6.83163
0.312502
5.18718
0.260419
3.93851
0.221093
2.99049
0.191376
2.27095
0.168844
1.7249
0.15167
1.31036
0.138498
0.995453
0.128339
0.756042
0.120474
0.573971
0.114369
0.435513
0.109634
0.330278
0.250314
0.10596
3.6782
111.483
2.74679
84.1075
2.07092
63.5031
1.57543
47.9847
1.20918
36.2911
0.936555
27.4686
0.732024
20.8098
0.577707
15.778
0.460774
11.971
0.371987
9.0868
0.304557
6.89907
0.253413
5.23833
0.214695
3.97724
0.185412
3.01978
0.163229
2.29314
0.146334
1.7418
0.133361
1.32334
0.123303
1.00551
0.115441
0.763905
0.109261
0.580152
0.104387
0.440388
0.100549
0.334116
0.253334
0.0975299
2.69079
112.413
2.01938
84.7789
1.53099
63.9915
1.1721
48.3436
0.906302
36.5569
0.707976
27.6669
0.558721
20.959
0.445699
15.891
0.359702
12.057
0.294135
9.15236
0.244143
6.94906
0.206092
5.27638
0.177198
4.00613
0.155281
3.0417
0.138614
2.3098
0.125837
1.75458
0.115924
1.33325
0.108127
1.01331
0.101925
0.770107
0.0969558
0.58512
0.0929613
0.444382
0.0897602
0.337317
0.255893
0.0872006
1.95342
113.063
1.47892
85.2534
1.131
64.3394
0.873642
48.601
0.682008
36.7486
0.53824
27.8107
0.429406
21.0679
0.346474
15.9739
0.282953
12.1206
0.234206
9.20111
0.196805
6.98647
0.168178
5.30501
0.146332
4.02798
0.129683
3.05835
0.11695
2.32254
0.107103
1.76443
0.0993595
1.341
0.0931587
1.01951
0.0881212
0.775146
0.0839961
0.589246
0.0806086
0.44777
0.0778429
0.340082
0.258141
0.0755951
1.39853
113.497
1.07458
85.5774
0.832712
64.5812
0.651267
48.7824
0.514621
36.8852
0.411037
27.9143
0.331826
21.1471
0.270852
16.0349
0.223669
12.1678
0.187102
9.23767
0.158783
7.01478
0.136918
5.32687
0.120104
4.04479
0.1072
3.07125
0.0972546
2.33248
0.0894783
1.7722
0.0832658
1.34721
0.0781867
1.02459
0.0739638
0.779369
0.0704251
0.592785
0.0674572
0.450738
0.0649909
0.342549
0.260176
0.062956
0.993146
113.767
0.781707
85.7888
0.617703
64.7452
0.491206
48.9089
0.393862
36.9826
0.318711
27.9894
0.260288
21.2055
0.214615
16.0806
0.178742
12.2036
0.150553
9.26587
0.128435
7.03691
0.111155
5.34416
0.0977256
4.05823
0.087327
3.08166
0.0792421
2.34057
0.0728496
1.7786
0.0676628
1.3524
0.0633382
1.02892
0.0596657
0.783043
0.0565257
0.595926
0.0538463
0.453418
0.0515887
0.344806
0.262059
0.0497057
0.696842
113.909
0.570039
85.9156
0.463343
64.8519
0.376537
48.9957
0.307106
37.052
0.251872
28.0447
0.207845
21.2495
0.172662
16.1158
0.14447
12.2318
0.121914
9.28842
0.103919
7.05489
0.0896478
5.35842
0.0784128
4.06946
0.0696232
3.09045
0.0627314
2.34746
0.057233
1.7841
0.0527181
1.35692
0.0488968
1.03274
0.0456004
0.786339
0.0427415
0.598785
0.0402736
0.455885
0.0381782
0.346901
0.263818
0.0364195
0.483503
113.953
0.420071
85.979
0.355054
64.917
0.296355
49.0544
0.24621
37.1021
0.204452
28.0864
0.169994
21.284
0.14167
16.1441
0.11842
12.2551
0.0994281
9.30741
0.0839897
7.07034
0.0715411
5.37088
0.0616033
4.0794
0.0537507
3.0983
0.0475567
2.35366
0.0425963
1.78906
0.0385056
1.36101
0.0350221
1.03622
0.0319973
0.789366
0.0293593
0.601424
0.0270742
0.458171
0.0251321
0.348843
0.265449
0.0235017
0.333694
113.922
0.317342
85.9954
0.28207
64.9522
0.242648
49.0938
0.205224
37.1396
0.17205
28.1196
0.143493
21.3126
0.119272
16.1683
0.0988863
12.2755
0.0818863
9.3244
0.067814
7.0844
0.0562855
5.3824
0.0469627
4.08872
0.0395378
3.10572
0.0336714
2.35953
0.0289913
1.79374
0.0251555
1.36485
0.0219083
1.03947
0.019103
0.792171
0.016669
0.603859
0.0145721
0.460268
0.0128037
0.350612
0.266923
0.0113293
0.23141
113.831
0.249923
85.9769
0.235478
64.9667
0.208749
49.1206
0.179166
37.1691
0.150943
28.1478
0.125572
21.3379
0.103412
16.1905
0.0843521
12.2945
0.0681798
9.34058
0.0545901
7.098
0.0433105
5.39369
0.034094
4.09794
0.0267183
3.11311
0.0209089
2.36534
0.0163295
1.79833
0.0126432
1.36853
0.00958446
1.04253
0.00699212
0.794765
0.00478424
0.606067
0.0029137
0.462138
0.00136422
0.352161
0.2682
8.77511e-05
0.16465
113.695
0.208864
85.9327
0.208582
64.967
0.189632
49.1395
0.164257
37.1945
0.138285
28.1738
0.114074
21.3621
0.0924549
16.2121
0.0735698
12.3134
0.0573545
9.35679
0.0435872
7.11176
0.0320553
5.40521
0.0225669
4.10742
0.0149624
3.1207
0.00901854
2.37128
0.00442525
1.80292
0.000837382
1.37212
-0.00203624
1.0454
-0.00438965
0.797119
-0.00632846
0.608005
-0.00792324
0.463733
-0.00920808
0.353446
0.269236
-0.0102429
0.123974
113.522
0.187123
85.8695
0.196085
64.958
0.1813
49.1543
0.157473
37.2183
0.131783
28.1995
0.107275
21.3866
0.0851066
16.2343
0.0655773
12.333
0.0486968
9.37367
0.0342758
7.12618
0.0221247
5.41737
0.0120812
4.11747
0.00403589
3.12876
-0.00218593
2.37751
-0.00687223
1.80761
-0.0103873
1.37564
-0.0130599
1.04808
-0.0151301
0.79919
-0.0167412
0.609618
-0.0179978
0.464988
-0.0189588
0.354408
0.269975
-0.0196991
0.102984
113.319
0.180009
85.7925
0.194541
64.9435
0.181211
49.1676
0.156916
37.2426
0.12999
28.2264
0.104028
21.4126
0.0804329
16.2579
0.0596
12.3538
0.0415642
9.3917
0.0261268
7.14161
0.0130865
5.4304
0.0022887
4.12826
-0.00633894
3.13738
-0.0129315
2.38409
-0.0177581
1.81243
-0.0212024
1.37908
-0.0236418
1.05052
-0.0253767
0.800925
-0.0266038
0.610844
-0.0274608
0.465846
-0.0280466
0.354994
0.27037
-0.0284408
-0.310811
113.218
-0.236323
85.718
-0.181104
64.8882
-0.139643
49.1262
-0.108586
37.2116
-0.0853952
28.2032
-0.0683249
21.3955
-0.0561101
16.2456
-0.0477852
12.3455
-0.0425667
9.38648
-0.0398191
7.13887
-0.0389533
5.42954
-0.0393639
4.12868
-0.0403825
3.1384
-0.041409
2.38513
-0.042054
1.81308
-0.0422131
1.37924
-0.0419629
1.05027
-0.0414463
0.800409
-0.0407803
0.610178
-0.0400504
0.465116
-0.0393345
0.354278
0.269713
-0.0386756
-0.303533
113.123
-0.233799
85.6483
-0.182032
64.8365
-0.143093
49.0872
-0.113884
37.1824
-0.0920443
28.1814
-0.0759621
21.3794
-0.0644741
16.2342
-0.0566903
12.3377
-0.0518844
9.38167
-0.0494613
7.13644
-0.0488623
5.42893
-0.0494928
4.1293
-0.050664
3.13956
-0.0517206
2.38618
-0.0522117
1.81356
-0.0520074
1.37903
-0.0512143
1.04947
-0.0500461
0.799241
-0.0487006
0.608831
-0.0473239
0.463739
-0.046043
0.352997
0.268577
-0.044906
-0.296235
113.035
-0.230897
85.5829
-0.182317
64.7879
-0.145703
49.0506
-0.118195
37.1549
-0.0975976
28.1608
-0.0824226
21.3643
-0.0716002
16.2233
-0.0643099
12.3304
-0.0598779
9.37724
-0.0577463
7.13431
-0.0573863
5.42857
-0.0582161
4.13013
-0.0595318
3.14088
-0.0606271
2.38728
-0.0609894
1.81393
-0.0604588
1.3785
-0.0591692
1.04818
-0.0574049
0.797477
-0.0554439
0.606871
-0.0534977
0.461793
-0.0517274
0.351227
0.267028
-0.0501781
-0.28898
112.952
-0.227732
85.5217
-0.182114
64.7423
-0.147658
49.0162
-0.121726
37.1289
-0.102277
28.1413
-0.0879377
21.3499
-0.0777257
16.2131
-0.0708848
12.3236
-0.0667909
9.37314
-0.0649209
7.13243
-0.0647763
5.42842
-0.0657918
4.13114
-0.0672562
3.14234
-0.0684172
2.38843
-0.0687001
1.81421
-0.0679064
1.37771
-0.0661922
1.04647
-0.0639057
0.79519
-0.0614057
0.604369
-0.0589604
0.459348
-0.0567576
0.349024
0.265112
-0.0548407
-0.281806
112.875
-0.224384
85.4642
-0.181532
64.6994
-0.14909
48.9837
-0.124625
37.1045
-0.106244
28.1229
-0.0926777
21.3364
-0.0830274
16.2035
-0.0765968
12.3171
-0.0728089
9.36935
-0.0711733
7.13079
-0.0712235
5.42847
-0.0724147
4.13233
-0.0740384
3.14397
-0.0753048
2.3897
-0.0755771
1.81448
-0.0746086
1.37674
-0.0725644
1.04443
-0.0698467
0.792472
-0.0668792
0.601403
-0.0639935
0.456462
-0.0614105
0.346441
0.26289
-0.0591885
-0.274738
112.803
-0.220908
85.4104
-0.180652
64.6592
-0.150097
48.9532
-0.127006
37.0814
-0.10962
28.1055
-0.0967724
21.3235
-0.0876407
16.1943
-0.0815856
12.3111
-0.0780748
9.36583
-0.0766492
7.12936
-0.0768754
5.42869
-0.0782345
4.13368
-0.0800323
3.14575
-0.0814534
2.39111
-0.0818018
1.81483
-0.0807715
1.37571
-0.0785137
1.04217
-0.0754644
0.789423
-0.0721163
0.598053
-0.0688838
0.45323
-0.0660339
0.34359
0.260468
-0.0636117
-0.267796
112.735
-0.217349
85.36
-0.179535
64.6214
-0.150755
48.9244
-0.128953
37.0596
-0.112498
28.0891
-0.100321
21.3113
-0.0916695
16.1857
-0.0859589
12.3054
-0.0826991
9.36257
-0.081461
7.12812
-0.0818456
5.42907
-0.0833658
4.1352
-0.0853551
3.14775
-0.0869882
2.39275
-0.0875152
1.81535
-0.0865588
1.37475
-0.0842282
1.03984
-0.080982
0.786176
-0.0773967
0.594469
-0.0739757
0.449809
-0.0709709
0.340585
0.257876
-0.0683786
-0.260991
112.673
-0.213739
85.3127
-0.17823
64.5858
-0.151123
48.8973
-0.130534
37.039
-0.114955
28.0735
-0.103404
21.2998
-0.0951981
16.1775
-0.0898039
12.3
-0.0867715
9.35954
-0.0857001
7.12704
-0.0862264
5.42959
-0.0879012
4.13687
-0.0901004
3.14994
-0.0920077
2.39465
-0.0928302
1.81617
-0.092108
1.37403
-0.0898844
1.03761
-0.0866246
0.782916
-0.0829657
0.590808
-0.07941
0.446253
-0.0761742
0.337348
0.254998
-0.073296
-0.254331
112.614
-0.210104
85.2685
-0.176776
64.5525
-0.151249
48.8718
-0.131805
37.0195
-0.11705
28.0588
-0.106086
21.2888
-0.0982952
16.1697
-0.0931919
12.2949
-0.0903652
9.35671
-0.0894408
7.12612
-0.0900926
5.43024
-0.0919146
4.13869
-0.0943413
3.15236
-0.0965873
2.3969
-0.0978335
1.81742
-0.0975336
1.37373
-0.0956375
1.03571
-0.0925491
0.779826
-0.0888579
0.587118
-0.0850659
0.442461
-0.0815325
0.333814
0.251923
-0.0784579
-0.247825
112.56
-0.206465
85.2271
-0.175203
64.5213
-0.151174
48.8477
-0.132812
37.0012
-0.118835
28.0448
-0.108422
21.2784
-0.101018
16.1623
-0.0961826
12.29
-0.0935415
9.35406
-0.0927454
7.12531
-0.0935063
5.431
-0.0954667
4.14064
-0.0981355
3.15502
-0.100783
2.39953
-0.10259
1.81922
-0.102924
1.37406
-0.101591
1.03438
-0.0988213
0.777055
-0.0951735
0.583468
-0.0913791
0.438667
-0.0880411
0.330475
0.249174
-0.0852927
-0.241476
112.509
-0.202841
85.1885
-0.17354
64.492
-0.150931
48.8251
-0.133596
36.9838
-0.120353
28.0315
-0.110459
21.2685
-0.103416
16.1552
-0.0988276
12.2854
-0.0963533
9.35159
-0.0956677
7.12463
-0.0965211
5.43185
-0.0986085
4.14273
-0.101529
3.15794
-0.104636
2.40264
-0.10714
1.82172
-0.108329
1.37525
-0.107803
1.03385
-0.10563
0.774879
-0.102556
0.580396
-0.0996016
0.435711
-0.0971103
0.327983
0.246886
-0.0948249
-0.235288
112.462
-0.199246
85.1525
-0.17181
64.4645
-0.150551
48.8039
-0.134189
36.9675
-0.121643
28.019
-0.112238
21.2591
-0.105534
16.1485
-0.101172
12.2811
-0.0988471
9.34925
-0.0982547
7.12403
-0.0991831
5.43277
-0.101383
4.14492
-0.104557
3.16111
-0.10817
2.40625
-0.111498
1.82505
-0.113759
1.3775
-0.114364
1.03445
-0.113364
0.773878
-0.111686
0.578716
-0.10997
0.433995
-0.107828
0.325839
0.244141
-0.105085
-0.229262
112.419
-0.195691
85.1189
-0.170032
64.4389
-0.150059
48.7839
-0.134623
36.952
-0.122738
28.0071
-0.113795
21.2502
-0.107407
16.1421
-0.103255
12.2769
-0.101063
9.34706
-0.100547
7.12351
-0.101533
5.43375
-0.103827
4.14721
-0.107247
3.16453
-0.111397
2.41039
-0.115653
1.8293
-0.119207
1.38106
-0.12138
1.03662
-0.122207
0.774702
-0.122123
0.578633
-0.120715
0.432587
-0.117645
0.322767
0.240353
-0.113859
-0.223402
112.378
-0.192189
85.0877
-0.168226
64.4149
-0.149478
48.7651
-0.134925
36.9375
-0.123669
27.9958
-0.115164
21.2417
-0.109073
16.136
-0.105113
12.273
-0.103039
9.34498
-0.102583
7.12305
-0.103607
5.43477
-0.105972
4.14957
-0.10962
3.16817
-0.114312
2.41508
-0.11957
1.83455
-0.124641
1.38612
-0.128826
1.0408
-0.131805
0.777678
-0.132845
0.579672
-0.131088
0.43083
-0.127767
0.319443
0.237398
-0.124815
-0.217706
112.342
-0.188749
85.0587
-0.166406
64.3926
-0.14883
48.7476
-0.13512
36.9238
-0.124463
27.9852
-0.116373
21.2336
-0.11056
16.1302
-0.106778
12.2692
-0.104808
9.34301
-0.104397
7.12263
-0.105439
5.43581
-0.107848
4.15197
-0.111691
3.172
-0.116902
2.42029
-0.123193
1.84084
-0.129952
1.39288
-0.136447
1.04729
-0.14169
0.782918
-0.144178
0.582161
-0.144219
0.43087
-0.144495
0.319718
0.23878
-0.145881
-0.212177
112.308
-0.185381
85.0319
-0.16459
64.3718
-0.148134
48.7311
-0.135231
36.9109
-0.125146
27.9751
-0.11745
21.2259
-0.1119
16.1247
-0.108282
12.2656
-0.106402
9.34112
-0.10602
7.12224
-0.10706
5.43684
-0.109482
4.15439
-0.113472
3.17599
-0.119147
2.42595
-0.12644
1.84813
-0.134944
1.40138
-0.14387
1.05621
-0.151797
0.790842
-0.157789
0.588153
-0.163778
0.436859
-0.171311
0.327249
0.245954
-0.178488
-0.206814
112.277
-0.182091
85.0072
-0.162789
64.3525
-0.147409
48.7157
-0.135279
36.8987
-0.125741
27.9656
-0.118421
21.2186
-0.11312
16.1194
-0.109651
12.2621
-0.10785
9.33932
-0.107484
7.12188
-0.1085
5.43785
-0.110898
4.15678
-0.114974
3.18006
-0.121019
2.43199
-0.129202
1.85631
-0.139351
1.41153
-0.150714
1.06757
-0.162109
0.802234
-0.173958
0.600003
-0.188053
0.450953
-0.202392
0.341587
0.256775
-0.213217
-0.201618
112.249
-0.178888
84.9845
-0.161017
64.3346
-0.146671
48.7014
-0.135284
36.8873
-0.126271
27.9565
-0.119311
21.2116
-0.114244
16.1143
-0.110915
12.2588
-0.10918
9.33758
-0.108815
7.1215
-0.109788
5.43882
-0.112121
4.1591
-0.116207
3.18414
-0.122489
2.43827
-0.13136
1.86518
-0.142887
1.42305
-0.15655
1.08123
-0.171917
0.817598
-0.190129
0.618215
-0.21053
0.471353
-0.227785
0.358841
0.267591
-0.238604
-0.196589
112.224
-0.175779
84.9637
-0.159286
64.3181
-0.145937
48.688
-0.135265
36.8767
-0.126758
27.948
-0.120142
21.205
-0.115297
16.1095
-0.112097
12.2556
-0.110419
9.3359
-0.110042
7.12112
-0.110949
5.43972
-0.113175
4.16132
-0.117183
3.18814
-0.123533
2.44461
-0.1328
1.87444
-0.145282
1.43553
-0.160844
1.09679
-0.179765
0.836516
-0.202534
0.640985
-0.225236
0.494056
-0.241304
0.374907
0.275706
-0.249422
-0.191727
112.201
-0.172771
84.9447
-0.157609
64.3029
-0.145222
48.6756
-0.135242
36.8667
-0.127222
27.94
-0.120936
21.1987
-0.116303
16.1048
-0.113222
12.2525
-0.111592
9.33427
-0.111192
7.12072
-0.112012
5.44053
-0.114085
4.16339
-0.117917
3.19197
-0.124135
2.45083
-0.133435
1.88374
-0.146303
1.4484
-0.163004
1.11348
-0.184073
0.857582
-0.208383
0.665295
-0.229651
0.515323
-0.242122
0.387378
0.280155
-0.246574
-0.18703
112.181
-0.169869
84.9275
-0.155996
64.2891
-0.144541
48.6642
-0.13523
36.8574
-0.127681
27.9325
-0.121715
21.1927
-0.117284
16.1004
-0.114314
12.2495
-0.112723
9.33267
-0.112288
7.12028
-0.113002
5.44124
-0.114878
4.16526
-0.118429
3.19551
-0.124297
2.45669
-0.133211
1.89265
-0.145778
1.46096
-0.162526
1.13023
-0.183756
0.878809
-0.206655
0.688195
-0.224178
0.532845
-0.232408
0.395607
0.281295
-0.233552
-0.182501
112.163
-0.167081
84.9121
-0.154458
64.2764
-0.143907
48.6536
-0.135247
36.8487
-0.128156
27.9254
-0.122498
21.1871
-0.118261
16.0961
-0.115396
12.2467
-0.113836
9.33111
-0.113357
7.11979
-0.113945
5.44183
-0.115581
4.16689
-0.118747
3.19867
-0.124039
2.46197
-0.132128
1.90073
-0.143632
1.47246
-0.159138
1.14573
-0.178452
0.898121
-0.197729
0.707474
-0.210605
0.545721
-0.215093
0.400094
0.280138
-0.213939
-0.178138
112.148
-0.164411
84.8984
-0.153005
64.265
-0.143336
48.644
-0.135308
36.8407
-0.128664
27.9187
-0.123306
21.1817
-0.119255
16.0921
-0.116488
12.2439
-0.114954
9.32957
-0.114421
7.11926
-0.114868
5.44227
-0.116224
4.16824
-0.118904
3.20134
-0.123405
2.46647
-0.130239
1.90756
-0.139911
1.48213
-0.15286
1.15867
-0.168421
0.91368
-0.182669
0.721722
-0.190852
0.553904
-0.192517
0.401758
0.277834
-0.190215
-0.173942
112.135
-0.161866
84.8863
-0.151647
64.2548
-0.142839
48.6352
-0.13543
36.8333
-0.129221
27.9125
-0.124156
21.1766
-0.120286
16.0882
-0.117612
12.2412
-0.116097
9.32805
-0.115504
7.11866
-0.115792
5.44255
-0.116832
4.16927
-0.118933
3.20344
-0.12245
2.46998
-0.127642
1.91275
-0.13479
1.48928
-0.144022
1.1679
-0.154395
0.924052
-0.162801
0.730129
-0.166563
0.557665
-0.166252
0.401447
0.27535
-0.163771
-0.169911
112.125
-0.15945
84.8759
-0.150393
64.2458
-0.142427
48.6272
-0.135625
36.8265
-0.129844
27.9067
-0.125065
21.1719
-0.121374
16.0845
-0.118789
12.2386
-0.117292
9.32655
-0.116634
7.118
-0.116754
5.44266
-0.117457
4.16997
-0.118914
3.20489
-0.121315
2.47238
-0.124577
1.91601
-0.128677
1.49337
-0.133314
1.17254
-0.137454
0.92819
-0.139496
0.732168
-0.13904
0.55721
-0.137377
0.399782
0.273485
-0.135513
-0.160262
112.109
-0.147689
84.8633
-0.138127
64.2362
-0.130446
48.6195
-0.124251
36.8203
-0.11916
27.9017
-0.115019
21.1677
-0.111841
16.0813
-0.109619
12.2364
-0.108321
9.32525
-0.107718
7.11739
-0.10771
5.44265
-0.10807
4.17033
-0.108789
3.20561
-0.109877
2.47346
-0.110894
1.91703
-0.111531
1.49401
-0.111158
1.17216
-0.108818
0.925847
-0.104585
0.727937
-0.100192
0.552812
-0.0974274
0.39702
0.272338
-0.0962835
-0.127682
112.096
-0.117913
84.8535
-0.11049
64.2288
-0.104517
48.6135
-0.0996858
36.8155
-0.0956952
27.8977
-0.0924251
21.1645
-0.0898881
16.0788
-0.088085
12.2346
-0.0869845
9.32414
-0.086407
7.11681
-0.0862251
5.44247
-0.0862305
4.17033
-0.0862709
3.20564
-0.0862184
2.4734
-0.0854954
1.9163
-0.0837011
1.49221
-0.0802319
1.16868
-0.0742893
0.919901
-0.0666447
0.720288
-0.0598298
0.545999
-0.0558082
0.392995
0.270784
-0.0542554
-0.101693
112.087
-0.0940828
84.8459
-0.0883071
64.223
-0.0836521
48.6089
-0.0798781
36.8117
-0.0767461
27.8945
-0.0741608
21.1619
-0.0721347
16.0768
-0.0706722
12.2332
-0.0697455
9.32322
-0.0692158
7.11628
-0.0689473
5.4422
-0.0687619
4.17014
-0.0684443
3.20532
-0.0678111
2.47277
-0.066285
1.91477
-0.0634658
1.48939
-0.0588551
1.16407
-0.0517752
0.91282
-0.0430923
0.711606
-0.0353722
0.538276
-0.0305088
0.388132
0.268437
-0.0281638
-0.0809559
112.079
-0.0750029
84.8399
-0.0704903
64.2185
-0.0668492
48.6052
-0.0638912
36.8087
-0.0614265
27.8921
-0.0593787
21.1598
-0.0577585
16.0752
-0.0565719
12.232
-0.0557951
9.32243
-0.0553215
7.1158
-0.0550201
5.44189
-0.0547438
4.16985
-0.0542657
3.20484
-0.0533861
2.47188
-0.0515958
1.91298
-0.0485276
1.48632
-0.0437971
1.15934
-0.036875
0.905894
-0.0284736
0.703201
-0.0207971
0.530601
-0.0155555
0.382888
0.265493
-0.0126127
-0.0644219
112.073
-0.0597479
84.8353
-0.0562093
64.215
-0.0533521
48.6024
-0.0510272
36.8064
-0.0490833
27.8901
-0.0474585
21.1582
-0.0461614
16.0739
-0.0451985
12.231
-0.0445498
9.32178
-0.0441336
7.11538
-0.0438305
5.44159
-0.0435213
4.16954
-0.0429947
3.20431
-0.0420529
2.47094
-0.0402769
1.9112
-0.037346
1.48339
-0.0329752
1.15496
-0.02678
0.899699
-0.0192726
0.695694
-0.0122018
0.523527
-0.00705613
0.377743
0.262446
-0.00400966
-0.0512181
112.069
-0.0475139
84.8316
-0.0447132
64.2121
-0.0424521
48.6001
-0.040611
36.8046
-0.0390682
27.8886
-0.0377727
21.1569
-0.0367301
16.0728
-0.035946
12.2302
-0.0354038
9.32124
-0.0350404
7.11501
-0.0347512
5.44129
-0.0344401
4.16923
-0.0339243
3.20379
-0.0330167
2.47003
-0.0313899
1.90957
-0.0287779
1.48078
-0.0249693
1.15115
-0.0197059
0.894431
-0.0133386
0.689323
-0.00717901
0.517369
-0.00247434
0.373037
0.259577
0.000394134
-0.0408447
112.065
-0.0380036
84.8287
-0.0358583
64.21
-0.0341225
48.5984
-0.032704
36.8031
-0.0315079
27.8874
-0.0304947
21.1559
-0.0296707
16.072
-0.0290428
12.2296
-0.028599
9.32079
-0.0282912
7.1147
-0.0280298
5.44103
-0.0277363
4.16893
-0.0272568
3.20331
-0.0264185
2.46919
-0.0249636
1.90812
-0.0226768
1.47849
-0.019393
1.14787
-0.0149412
0.88998
-0.00957279
0.683956
-0.00428632
0.51208
-0.000110482
0.368862
0.256983
0.00248325
-0.0323395
112.062
-0.0299881
84.8264
-0.0282148
64.2082
-0.026785
48.597
-0.0256207
36.802
-0.0246424
27.8864
-0.0238146
21.1551
-0.0231386
16.0713
-0.0226179
12.2291
-0.0222409
9.32041
-0.0219699
7.11443
-0.0217301
5.44078
-0.0214584
4.16865
-0.0210327
3.20287
-0.0203006
2.46845
-0.0190731
1.90688
-0.0171908
1.47661
-0.01453
1.1452
-0.0109974
0.886444
-0.00676159
0.679717
-0.00251931
0.50784
0.0009584
0.365383
0.254777
0.00316447
-0.0250729
112.055
-0.0193228
84.8206
-0.0147637
64.2037
-0.0110618
48.5933
-0.00804043
36.799
-0.00553275
27.8839
-0.00342469
21.153
-0.00165523
16.0695
-0.00018041
12.2276
0.0010445
9.31919
0.00209268
7.11338
0.00306996
5.43981
0.00408168
4.16764
0.00529582
3.20166
0.00686776
2.46688
0.00901168
1.90474
0.0118984
1.47372
0.0155763
1.14152
0.0199781
0.882044
0.024548
0.675149
0.0281535
0.504232
0.0300091
0.363529
0.254776
0.0300095
-0.026333
112.048
-0.0202951
84.8146
-0.01551
64.1989
-0.0116253
48.5894
-0.0084546
36.7958
-0.0058213
27.8813
-0.00360407
21.1507
-0.00173771
16.0677
-0.000175706
12.226
0.00112845
9.31788
0.00225198
7.11225
0.00330937
5.43874
0.00441239
4.16653
0.00574628
3.20032
0.0074752
2.46515
0.0098104
1.9024
0.0129307
1.4706
0.0168732
1.13758
0.0215524
0.877362
0.026413
0.670285
0.030326
0.50032
0.0324419
0.361411
0.25457
0.0326485
-0.0276563
112.04
-0.0213163
84.8083
-0.0162937
64.1939
-0.0122175
48.5853
-0.00889015
36.7925
-0.00612517
27.8785
-0.00379341
21.1484
-0.00182517
16.0657
-0.000171325
12.2244
0.00121668
9.31649
0.00242008
7.11105
0.00356238
5.4376
0.00476202
4.16533
0.00622084
3.19886
0.00811337
2.46326
0.0106447
1.89987
0.0140013
1.46724
0.0182076
1.13337
0.0231616
0.87241
0.0282994
0.66515
0.0324891
0.496129
0.0348484
0.359053
0.254124
0.0352928
-0.0290459
112.032
-0.0223885
84.8016
-0.0171168
64.1886
-0.0128397
48.581
-0.00934814
36.789
-0.0064451
27.8756
-0.00399314
21.146
-0.00191785
16.0636
-0.000167189
12.2226
0.0013095
9.31501
0.00259767
7.10975
0.00383017
5.43637
0.00513234
4.16402
0.00672193
3.19727
0.00878541
2.46119
0.0115185
1.89713
0.0151133
1.46364
0.0195803
1.1289
0.0248024
0.867186
0.0301897
0.65976
0.0346109
0.491709
0.0371835
0.356478
0.253438
0.0378701
-0.0305047
112.023
-0.0235144
84.7946
-0.0179814
64.1831
-0.0134934
48.5765
-0.00982968
36.7853
-0.00678186
27.8726
-0.00420383
21.1434
-0.00201602
16.0614
-0.000163286
12.2208
0.00140733
9.31344
0.00278557
7.10838
0.00411407
5.43504
0.00552532
4.16261
0.00725212
3.19554
0.00949412
2.45895
0.0124348
1.89419
0.0162686
1.45981
0.0209919
1.12418
0.0264677
0.861712
0.0320659
0.654164
0.0366686
0.487104
0.0394257
0.353723
0.252524
0.0403393
-0.0320368
112.014
-0.0246968
84.7873
-0.0188894
64.1773
-0.0141803
48.5718
-0.010336
36.7815
-0.00713636
27.8694
-0.00442604
21.1407
-0.00211995
16.0591
-0.000159534
12.2188
0.00151059
9.31176
0.00298472
7.1069
0.00441554
5.4336
0.00594311
4.16108
0.00781409
3.19366
0.0102423
2.45651
0.0133965
1.89103
0.0174691
1.45574
0.0224421
1.1192
0.0281474
0.856005
0.0339094
0.6484
0.0386423
0.482373
0.041552
0.350811
0.251409
0.0426666
-0.0336451
112.005
-0.0259383
84.7796
-0.019843
64.1712
-0.0149019
48.5669
-0.0108683
36.7774
-0.00750951
27.866
-0.00466039
21.1378
-0.00222989
16.0567
-0.000155887
12.2168
0.00161981
9.30998
0.00319614
7.10532
0.00473617
5.43206
0.00638794
4.15943
0.0084108
3.19164
0.0110334
2.45389
0.0144074
1.88766
0.0187174
1.45143
0.0239301
1.11399
0.0298312
0.850107
0.0357069
0.642527
0.040518
0.47756
0.0435437
0.347787
0.25012
0.044832
-0.0353341
111.995
-0.0272419
84.7715
-0.0208443
64.1648
-0.0156601
48.5617
-0.0114279
36.7732
-0.00790221
27.8625
-0.00490742
21.1348
-0.00234613
16.0541
-0.000152159
12.2146
0.00173552
9.30809
0.0034208
7.10363
0.00507751
5.4304
0.00686201
4.15763
0.00904521
3.18945
0.0118704
2.45106
0.0154706
1.88406
0.0200155
1.44688
0.0254531
1.10855
0.0315098
0.844048
0.0374494
0.636585
0.0422896
0.472722
0.0453889
0.344686
0.248687
0.0468219
-0.0371073
111.985
-0.0286108
84.763
-0.0218961
64.158
-0.0164565
48.5563
-0.0120161
36.7688
-0.00831542
27.8588
-0.00516774
21.1317
-0.00246885
16.0514
-0.000148289
12.2122
0.0018582
9.30609
0.00365971
7.10183
0.00544098
5.42862
0.00736728
4.15571
0.00971987
3.1871
0.0127559
2.44803
0.0165885
1.88022
0.0213638
1.44211
0.0270067
1.10291
0.0331744
0.837883
0.03913
0.630632
0.0439533
0.467897
0.047089
0.341552
0.247142
0.0486339
-0.0389691
111.974
-0.030048
84.754
-0.0230004
64.151
-0.0172932
48.5506
-0.0126344
36.7641
-0.00875021
27.8549
-0.00544206
21.1284
-0.00259845
16.0486
-0.000144203
12.2098
0.00198833
9.30395
0.00391362
7.0999
0.00582772
5.4267
0.00790529
4.15363
0.0104366
3.18456
0.0136912
2.44477
0.0177614
1.87615
0.02276
1.4371
0.0285848
1.09708
0.0348151
0.831651
0.0407416
0.624704
0.0455075
0.463133
0.0486416
0.338416
0.245513
0.0502704
-0.0409237
111.962
-0.0315569
84.7447
-0.0241604
64.1436
-0.0181721
48.5446
-0.0132843
36.7592
-0.00920759
27.8508
-0.00573104
21.1249
-0.00273522
16.0456
-0.000139922
12.2072
0.00212618
9.30168
0.00418324
7.09784
0.00623864
5.42465
0.00847711
4.15139
0.0111966
3.18185
0.0146767
2.44129
0.0189873
1.87184
0.024199
1.4319
0.030177
1.09111
0.0364222
0.825407
0.0422794
0.618849
0.0469534
0.458457
0.0500441
0.335327
0.243832
0.0517254
-0.0429763
111.95
-0.0331415
84.7348
-0.0253781
64.1358
-0.0190954
48.5383
-0.0139673
36.7541
-0.00968874
27.8465
-0.00603542
21.1212
-0.00287953
16.0424
-0.000135492
12.2045
0.00227208
9.29927
0.0044691
7.09564
0.00667453
5.42244
0.00908347
4.14897
0.0120001
3.17892
0.0157111
2.43757
0.0202624
1.86729
0.0256734
1.42648
0.0317683
1.08501
0.0379896
0.819184
0.0437414
0.613095
0.0482921
0.453908
0.0512943
0.332323
0.242142
0.0529837
-0.0451308
111.938
-0.0348052
84.7245
-0.0266571
64.1277
-0.0200652
48.5317
-0.0146851
36.7487
-0.0101948
27.842
-0.006356
21.1174
-0.00303185
16.0391
-0.000130937
12.2016
0.00242629
9.29671
0.00477177
7.0933
0.00713603
5.42007
0.00972485
4.14639
0.0128471
3.1758
0.0167923
2.43363
0.0215811
1.8625
0.0271742
1.42089
0.0333452
1.07884
0.0395101
0.813021
0.0451216
0.607486
0.0495095
0.449519
0.052394
0.32944
0.240499
0.0540366
-0.047393
111.924
-0.0365517
84.7137
-0.0279999
64.1191
-0.0210837
48.5248
-0.0154395
36.7431
-0.0107271
27.8373
-0.00669361
21.1134
-0.00319257
16.0356
-0.000126351
12.1985
0.0025891
9.29399
0.00509176
7.09079
0.00762381
5.41754
0.0104016
4.1436
0.0137368
3.17246
0.0179177
2.42945
0.0229365
1.85748
0.0286903
1.41513
0.0349027
1.07262
0.040974
0.806948
0.0464078
0.60205
0.0505945
0.445334
0.05334