/*--------------------------------*- C++ -*----------------------------------*\
  =========                 |
  \\      /  F ield         | OpenFOAM: The Open Source CFD Toolbox
   \\    /   O peration     | Website:  https://openfoam.org
    \\  /    A nd           | Version:  7
     \\/     M anipulation  |
\*---------------------------------------------------------------------------*/
FoamFile
{
    version     2.0;
    format      ascii;
    class       volVectorField;
    location    "50";
    object      U;
}
// * * * * * * * * * * * * * * * * * * * * * * * * * * * * * * * * * * * * * //

dimensions      [0 1 -1 0 0 0 0];

internalField   nonuniform List<vector> 
12842
(
(15.5033 1.90465 -8.65012e-19)
(15.5043 1.90918 4.93363e-19)
(15.5041 1.91345 1.35481e-19)
(15.503 1.91913 -3.49702e-19)
(15.5004 1.92714 1.35254e-18)
(15.4957 1.93845 0)
(15.4882 1.95403 0)
(15.4767 1.97489 6.10886e-20)
(15.4599 2.00208 -5.18281e-19)
(15.4363 2.03662 -7.74429e-22)
(15.4042 2.07954 -2.80984e-20)
(15.3622 2.13192 -2.38052e-20)
(15.3088 2.19475 1.3204e-19)
(15.243 2.26877 5.52919e-20)
(15.1644 2.35407 -7.50251e-20)
(15.0733 2.44991 -2.2768e-19)
(14.9712 2.55433 -2.07789e-19)
(14.8608 2.66423 0)
(14.7457 2.77567 1.83938e-20)
(14.6303 2.88451 1.32859e-19)
(14.519 2.98697 1.76702e-20)
(14.4154 3.08014 -8.45049e-20)
(14.3232 3.16279 6.06915e-20)
(15.5033 1.90478 5.68328e-19)
(15.5054 1.90884 0)
(15.5063 1.91344 1.66948e-18)
(15.5068 1.91958 -9.66215e-19)
(15.5064 1.92833 -1.07112e-18)
(15.5048 1.94081 0)
(15.5012 1.95821 1.52859e-18)
(15.4943 1.98178 0)
(15.4826 2.01273 9.79486e-19)
(15.4646 2.05219 1.06759e-19)
(15.4384 2.10122 8.91838e-20)
(15.4026 2.16083 3.86249e-20)
(15.3559 2.23189 -1.25946e-19)
(15.2973 2.31495 1.92045e-19)
(15.2263 2.40983 0)
(15.143 2.51542 2.39602e-19)
(15.0486 2.62927 2.98805e-19)
(14.9452 2.74768 -3.85553e-19)
(14.8358 2.86621 0)
(14.7247 2.98037 -1.66973e-19)
(14.6162 3.08618 -2.58441e-19)
(14.5141 3.18131 2.25835e-19)
(14.4227 3.26273 -2.31404e-19)
(15.5033 1.90475 0)
(15.5062 1.90834 0)
(15.5082 1.91299 2.75388e-19)
(15.5101 1.91921 5.55383e-18)
(15.5119 1.9282 0)
(15.5132 1.94127 0)
(15.5134 1.95986 3.88777e-19)
(15.5111 1.98545 -1.3512e-18)
(15.5045 2.01944 -4.81553e-19)
(15.4921 2.06303 -3.32678e-19)
(15.4718 2.11728 -4.2036e-19)
(15.4421 2.18309 -3.75794e-20)
(15.4019 2.2612 3.9876e-20)
(15.3504 2.35203 -2.38373e-19)
(15.287 2.45526 0)
(15.2117 2.56955 -9.75718e-20)
(15.1253 2.69211 1.25009e-19)
(15.0293 2.81881 2.46806e-19)
(14.9266 2.94471 3.04305e-19)
(14.8209 3.06496 -2.24851e-19)
(14.7166 3.17527 1.91898e-19)
(14.6176 3.27383 0)
(14.5285 3.35573 8.4763e-20)
(15.5032 1.90465 3.82882e-20)
(15.5069 1.90776 7.7056e-19)
(15.5098 1.91227 -2.43208e-18)
(15.5129 1.91828 -8.71599e-18)
(15.5167 1.92711 7.63893e-19)
(15.5209 1.94027 -2.49533e-18)
(15.5248 1.95946 -1.17768e-19)
(15.5269 1.98644 1.32748e-18)
(15.5255 2.02277 1.9498e-18)
(15.5185 2.06977 -9.05933e-19)
(15.504 2.12843 1.09113e-18)
(15.4805 2.19952 -3.4163e-20)
(15.4467 2.28365 4.45681e-20)
(15.4023 2.3811 -8.93057e-20)
(15.3467 2.49147 7.83576e-20)
(15.2799 2.61334 -1.00994e-19)
(15.2022 2.74372 -6.08564e-20)
(15.1146 2.87819 -1.64065e-19)
(15.0196 3.01138 -1.02036e-19)
(14.9205 3.13817 -4.23658e-20)
(14.8218 3.25382 -7.56106e-20)
(14.7271 3.35698 -9.71001e-20)
(14.6419 3.44086 1.88665e-19)
(15.5032 1.90454 7.23168e-20)
(15.5074 1.90719 0)
(15.5111 1.91144 3.91079e-19)
(15.5152 1.91701 3.10999e-18)
(15.5208 1.92534 3.26507e-19)
(15.5277 1.93813 6.71629e-18)
(15.5352 1.95736 3.24379e-19)
(15.5417 1.98509 -3.68433e-18)
(15.5454 2.02312 -2.14882e-18)
(15.5439 2.07285 1.15991e-18)
(15.5353 2.13523 -1.30552e-18)
(15.5178 2.21086 -5.96409e-19)
(15.4907 2.30017 8.33843e-20)
(15.4535 2.40327 6.3107e-20)
(15.4061 2.51973 8.87264e-20)
(15.3484 2.64813 -1.17542e-19)
(15.2801 2.78543 0)
(15.202 2.92704 1.42247e-19)
(15.1158 3.0673 0)
(15.0245 3.20081 4.94677e-20)
(14.9326 3.32236 -3.05716e-20)
(14.8435 3.431 7.77553e-20)
(14.7632 3.51798 -1.8807e-20)
(15.5032 1.90446 2.39779e-19)
(15.5078 1.90668 0)
(15.512 1.91062 0)
(15.517 1.91556 4.99531e-18)
(15.5243 1.92311 -3.65584e-18)
(15.5336 1.93508 -3.92626e-18)
(15.5445 1.95382 -5.56178e-18)
(15.5554 1.98168 4.08499e-18)
(15.5641 2.02073 0)
(15.5681 2.07248 1.58105e-18)
(15.5651 2.13782 1.22198e-18)
(15.5537 2.2172 2.84341e-19)
(15.5332 2.31078 0)
(15.5035 2.41852 2.40375e-20)
(15.4647 2.53994 -7.57714e-20)
(15.4165 2.67373 1.00856e-19)
(15.3586 2.81693 2.41515e-20)
(15.2909 2.96495 -1.20858e-19)
(15.2147 3.11193 0)
(15.1325 3.25226 1.68799e-19)
(15.0486 3.38017 8.50072e-21)
(14.9662 3.49505 -2.0788e-19)
(14.8919 3.58613 1.10217e-20)
(15.5031 1.90441 -5.98521e-20)
(15.5082 1.90624 0)
(15.5126 1.90987 0)
(15.5181 1.91407 -4.95602e-18)
(15.5268 1.9206 4.18832e-18)
(15.5383 1.93139 -5.00816e-19)
(15.5523 1.9491 3.36378e-18)
(15.5673 1.97646 2.69962e-19)
(15.581 2.01583 -3.54592e-19)
(15.5906 2.06889 -1.73914e-18)
(15.5936 2.13652 -1.14506e-19)
(15.5886 2.21896 7.24026e-19)
(15.5749 2.3161 0)
(15.5528 2.42762 -2.09628e-19)
(15.5227 2.553 1.01791e-21)
(15.4844 2.69106 -1.31453e-21)
(15.4373 2.83909 1.00436e-20)
(15.3808 2.99267 7.44606e-20)
(15.3156 3.14585 1.32299e-20)
(15.2437 3.29288 1.77315e-20)
(15.1693 3.42737 9.96644e-21)
(15.0948 3.54904 5.96931e-20)
(15.0276 3.64489 4.4402e-20)
(15.5031 1.90444 0)
(15.5084 1.90594 -2.831e-19)
(15.5129 1.90921 3.35073e-18)
(15.519 1.91255 -8.92835e-20)
(15.529 1.91789 -4.48274e-18)
(15.5424 1.92722 6.97165e-19)
(15.5593 1.94356 -1.46114e-19)
(15.578 1.96994 -2.5709e-18)
(15.596 2.00901 0)
(15.6103 2.0626 -2.15556e-18)
(15.6184 2.13156 1.50093e-19)
(15.6189 2.2159 6.30615e-20)
(15.6115 2.31519 0)
(15.5969 2.42892 2.05556e-19)
(15.5758 2.55654 -1.40987e-19)
(15.5481 2.6972 0)
(15.5128 2.84859 -9.90052e-21)
(15.4687 3.00665 0)
(15.416 3.16542 -9.00153e-21)
(15.356 3.31909 0)
(15.2925 3.46047 7.78167e-21)
(15.2276 3.58973 1.02982e-21)
(15.1688 3.6913 1.9627e-21)
(15.5032 1.90444 0)
(15.5085 1.90566 0)
(15.5127 1.90888 2.62257e-20)
(15.5186 1.9116 -2.08163e-19)
(15.5292 1.91585 5.08495e-18)
(15.5439 1.92364 4.17838e-18)
(15.5633 1.9382 0)
(15.5858 1.96289 2.40153e-18)
(15.6088 2.0008 0)
(15.6289 2.05411 4.43947e-18)
(15.643 2.1239 1.22371e-18)
(15.6493 2.21013 -6.21397e-19)
(15.6473 2.31207 -4.72014e-20)
(15.6381 2.42873 0)
(15.6229 2.55917 1.49759e-19)
(15.6024 2.70245 1.30666e-19)
(15.5761 2.85648 -1.14717e-20)
(15.5424 3.01763 9.86853e-20)
(15.5009 3.18009 9.56707e-20)
(15.452 3.33831 0)
(15.3991 3.48436 1.2234e-20)
(15.3434 3.61924 6.95738e-21)
(15.2924 3.72508 8.06916e-22)
(15.5033 1.90458 7.41282e-21)
(15.5087 1.90555 3.88345e-18)
(15.5127 1.90865 -3.09781e-18)
(15.5186 1.91076 0)
(15.5298 1.91407 9.18707e-20)
(15.5454 1.92067 1.71176e-19)
(15.5667 1.93397 -3.67943e-18)
(15.5918 1.95756 0)
(15.6181 1.99477 0)
(15.6418 2.04797 -2.24167e-18)
(15.6597 2.11826 -1.30808e-18)
(15.6698 2.20555 -1.91587e-20)
(15.6718 2.30884 4.12047e-19)
(15.6668 2.42684 -1.4627e-20)
(15.6567 2.55845 -2.72681e-20)
(15.6428 2.70278 5.14288e-20)
(15.6243 2.85799 -1.14893e-19)
(15.5998 3.02083 -9.66533e-20)
(15.5682 3.18561 -1.06079e-19)
(15.5295 3.34702 -1.01606e-19)
(15.4865 3.49651 2.55781e-20)
(15.4397 3.63571 -1.09096e-19)
(15.3968 3.74511 1.81225e-20)
(15.5034 1.90482 1.93176e-18)
(15.5089 1.90554 -4.33437e-18)
(15.5125 1.90854 9.69723e-20)
(15.5185 1.91001 3.04576e-18)
(15.5302 1.91235 -1.45301e-19)
(15.5467 1.91778 -4.32803e-18)
(15.5697 1.92983 7.03092e-18)
(15.5972 1.95237 1.65889e-19)
(15.6265 1.98896 -1.13946e-19)
(15.6536 2.04211 -2.44081e-18)
(15.6753 2.11296 3.90893e-20)
(15.6892 2.20127 -8.21848e-19)
(15.6951 2.30575 -3.68174e-19)
(15.6945 2.42478 0)
(15.6897 2.55704 2.51767e-19)
(15.6824 2.70174 -3.50919e-19)
(15.6722 2.85734 -5.00251e-20)
(15.6575 3.02104 1.38936e-19)
(15.6367 3.1873 -2.37188e-21)
(15.6094 3.35115 1.30745e-19)
(15.5778 3.50339 0)
(15.5414 3.64632 4.05038e-20)
(15.5081 3.7589 0)
(15.5035 1.90515 -3.5013e-18)
(15.5091 1.90561 -4.34604e-18)
(15.5124 1.90852 1.58976e-19)
(15.5183 1.90937 -6.01224e-18)
(15.5305 1.91073 2.79055e-18)
(15.5478 1.91499 -1.28403e-19)
(15.5723 1.92577 -3.60977e-18)
(15.6021 1.94724 4.49716e-20)
(15.6342 1.98317 -1.18938e-19)
(15.6647 2.03623 2.522e-18)
(15.6899 2.10759 0)
(15.7076 2.19686 7.49973e-19)
(15.7175 2.30243 3.96188e-20)
(15.7213 2.42228 -1.48459e-20)
(15.7219 2.55484 -2.60583e-19)
(15.7215 2.69935 -1.45124e-20)
(15.7199 2.85457 1.16156e-19)
(15.7155 3.01825 -2.49666e-19)
(15.7065 3.185 0)
(15.6917 3.35031 -1.26409e-19)
(15.6728 3.5044 1.7048e-19)
(15.6483 3.65025 0)
(15.626 3.76539 -9.15963e-20)
(15.5037 1.90557 1.34836e-18)
(15.5092 1.90574 -3.74607e-20)
(15.5121 1.9086 1.59093e-19)
(15.5182 1.90883 2.91095e-18)
(15.5306 1.90922 -5.48957e-18)
(15.5486 1.91232 2.447e-20)
(15.5746 1.92181 5.43428e-20)
(15.6064 1.94215 2.95326e-18)
(15.6413 1.97734 -6.11504e-20)
(15.675 2.03023 0)
(15.7038 2.10199 1.5283e-18)
(15.7252 2.19211 2.80562e-20)
(15.739 2.29865 1.22033e-20)
(15.7473 2.41914 -1.1947e-21)
(15.7533 2.55165 -3.00989e-20)
(15.7598 2.69543 2.2469e-19)
(15.7672 2.84952 -1.63053e-19)
(15.7738 3.01219 -3.84894e-20)
(15.7774 3.17831 -6.53738e-20)
(15.7761 3.34389 1.85712e-19)
(15.7713 3.49861 -1.27119e-19)
(15.7601 3.64623 2.87411e-19)
(15.7501 3.76308 -1.86739e-19)
(15.5039 1.90605 1.5222e-18)
(15.5093 1.90594 4.2651e-18)
(15.5119 1.90874 1.59914e-20)
(15.5179 1.90837 3.14074e-18)
(15.5306 1.90781 5.58573e-18)
(15.5492 1.90976 -2.47743e-20)
(15.5766 1.91794 -5.57068e-20)
(15.6104 1.9371 8.02818e-20)
(15.6479 1.97148 -2.1031e-18)
(15.6846 2.02409 1.37562e-18)
(15.7169 2.09616 -1.59966e-18)
(15.7421 2.18702 -8.52954e-19)
(15.7598 2.29439 4.64849e-19)
(15.7725 2.41533 0)
(15.7839 2.54744 1.72732e-19)
(15.7975 2.68991 0)
(15.814 2.84199 2.16723e-19)
(15.832 3.00256 1.52588e-19)
(15.849 3.1667 -6.98678e-21)
(15.8622 3.3311 -2.38236e-19)
(15.8726 3.48492 -9.26126e-21)
(15.876 3.63279 6.4893e-21)
(15.8797 3.75012 -9.26445e-20)
(15.5041 1.90662 -5.08243e-21)
(15.5094 1.90618 3.59007e-20)
(15.5117 1.90896 -1.53931e-20)
(15.5177 1.908 -3.14364e-18)
(15.5305 1.90651 -2.79086e-18)
(15.5496 1.90732 0)
(15.5782 1.91413 3.39324e-20)
(15.6139 1.93206 -3.03685e-18)
(15.6539 1.96554 -5.96453e-20)
(15.6937 2.01776 -1.37764e-18)
(15.7294 2.09001 8.58873e-19)
(15.7583 2.18151 1.34232e-18)
(15.7801 2.28962 -4.52181e-19)
(15.7972 2.41083 2.53191e-19)
(15.8139 2.54221 2.17212e-20)
(15.8346 2.68275 5.01895e-21)
(15.8604 2.83187 -9.54856e-21)
(15.8902 2.98904 -5.51082e-20)
(15.9212 3.14963 3.99528e-20)
(15.9497 3.31109 -9.18086e-20)
(15.9762 3.4621 -1.29421e-20)
(15.9954 3.60823 7.6884e-20)
(16.0137 3.72441 0)
(15.5043 1.90725 -3.04097e-20)
(15.5094 1.90646 0)
(15.5115 1.90922 0)
(15.5174 1.9077 -3.1941e-18)
(15.5302 1.9053 -2.89374e-18)
(15.5499 1.90496 2.49543e-18)
(15.5796 1.9104 2.91193e-20)
(15.6171 1.92704 -2.53392e-20)
(15.6595 1.95953 2.1993e-18)
(15.7023 2.01126 -2.10015e-20)
(15.7414 2.08358 5.56846e-20)
(15.7741 2.17561 -4.59428e-19)
(15.7999 2.28434 0)
(15.8214 2.40565 -2.71728e-19)
(15.8435 2.53594 -3.72707e-19)
(15.8712 2.67389 -1.68884e-19)
(15.9064 2.81895 -1.25758e-19)
(15.9482 2.97127 0)
(15.9935 3.12646 0)
(16.0379 3.28286 1.46566e-19)
(16.0812 3.42875 1.11204e-19)
(16.1168 3.57073 -2.40671e-19)
(16.1506 3.68369 0)
(15.5045 1.90793 -1.91594e-18)
(15.5094 1.90678 1.78973e-20)
(15.5113 1.90953 -7.22937e-21)
(15.517 1.90747 3.17395e-18)
(15.5299 1.90417 5.77258e-18)
(15.55 1.90269 -4.98899e-18)
(15.5808 1.90672 -2.97233e-20)
(15.6199 1.922 -2.60123e-20)
(15.6647 1.95341 3.42134e-20)
(15.7104 2.00454 0)
(15.7531 2.07682 -8.6178e-19)
(15.7896 2.16927 4.9396e-19)
(15.8194 2.27852 0)
(15.8454 2.39978 0)
(15.8727 2.52861 1.76354e-19)
(15.9073 2.66323 1.32464e-20)
(15.9518 2.80305 1.41961e-19)
(16.0056 2.94883 1.34399e-19)
(16.0652 3.09647 -2.28815e-19)
(16.1258 3.24535 -9.75449e-20)
(16.1861 3.38343 3.99693e-19)
(16.2384 3.51835 -4.00073e-19)
(16.2879 3.62559 2.7147e-19)
(15.5046 1.90865 9.77721e-19)
(15.5094 1.90713 1.97594e-18)
(15.5111 1.90988 1.66657e-20)
(15.5167 1.90729 -2.20423e-20)
(15.5295 1.90312 -2.91823e-18)
(15.55 1.9005 2.54615e-18)
(15.5817 1.90308 -1.82122e-20)
(15.6224 1.91694 -2.70307e-21)
(15.6696 1.94717 3.51008e-20)
(15.7182 1.99757 1.11926e-20)
(15.7644 2.06967 -1.46993e-20)
(15.8048 2.16244 -4.94382e-19)
(15.8389 2.27212 2.76978e-19)
(15.8693 2.39317 -9.87809e-21)
(15.9017 2.52016 0)
(15.9428 2.65069 -1.52577e-20)
(15.9963 2.78393 1.68217e-20)
(16.0616 2.9213 -1.35684e-19)
(16.1354 3.05897 2.86968e-19)
(16.2118 3.19755 1.99104e-19)
(16.2887 3.32473 -1.42059e-19)
(16.3573 3.44934 -2.43473e-19)
(16.4222 3.548 3.15194e-19)
(15.5048 1.90939 -1.19695e-20)
(15.5093 1.9075 -1.99126e-18)
(15.5109 1.91027 0)
(15.5163 1.90717 0)
(15.5291 1.90215 0)
(15.5499 1.89837 0)
(15.5824 1.89948 1.8617e-20)
(15.6247 1.91184 -1.08349e-20)
(15.6741 1.94078 -1.79947e-20)
(15.7257 1.99032 1.1548e-20)
(15.7754 2.06212 -1.5169e-20)
(15.8199 2.15508 0)
(15.8582 2.26509 -5.46725e-19)
(15.8931 2.38578 9.30348e-21)
(15.9303 2.51057 -1.94411e-20)
(15.9776 2.63619 1.89741e-19)
(16.0392 2.76145 -1.72552e-20)
(16.1155 2.88837 4.41563e-20)
(16.2025 3.01344 -5.11476e-20)
(16.2938 3.1387 1.10365e-19)
(16.3863 3.25176 -1.74305e-19)
(16.47 3.36264 0)
(16.5489 3.44961 1.97689e-19)
(15.5049 1.91016 -1.98696e-18)
(15.5093 1.9079 -9.69166e-19)
(15.5107 1.91068 -1.20227e-20)
(15.5158 1.9071 1.66716e-18)
(15.5286 1.90126 1.50393e-18)
(15.5496 1.89631 1.19301e-20)
(15.5829 1.8959 -2.24472e-18)
(15.6266 1.90668 1.74144e-18)
(15.6783 1.93421 1.21811e-18)
(15.7328 1.98276 0)
(15.7862 2.05408 1.3758e-20)
(15.8348 2.14712 -5.64917e-19)
(15.8776 2.25736 2.84984e-19)
(15.9168 2.37757 1.38515e-19)
(15.9587 2.49982 9.49248e-20)
(16.0113 2.61974 0)
(16.0802 2.73554 0)
(16.166 2.84985 -1.53569e-19)
(16.2647 2.95949 -2.13404e-19)
(16.369 3.06822 1.21381e-19)
(16.4751 3.16365 1.01791e-19)
(16.5718 3.2573 1.43633e-19)
(16.6627 3.32928 -2.19588e-19)
(15.505 1.91092 1.00165e-18)
(15.5092 1.90831 9.72592e-19)
(15.5106 1.9111 -8.60572e-21)
(15.5154 1.90705 2.43144e-20)
(15.528 1.90038 -1.50345e-18)
(15.5493 1.89426 -1.33546e-18)
(15.5834 1.8923 1.07662e-18)
(15.6284 1.90143 -1.72626e-18)
(15.6823 1.92746 -1.21611e-18)
(15.7397 1.97488 -2.57108e-20)
(15.7968 2.0456 0)
(15.8496 2.13857 5.46786e-19)
(15.8969 2.24894 2.91005e-19)
(15.9404 2.36855 -1.48948e-19)
(15.9863 2.48794 -8.143e-20)
(16.0434 2.60139 -4.38842e-20)
(16.118 2.70625 -4.35664e-20)
(16.2115 2.80583 3.07613e-19)
(16.3198 2.89745 0)
(16.4348 2.98685 0)
(16.5518 3.0621 1.05752e-19)
(16.6585 3.13572 -2.74274e-19)
(16.7588 3.19087 -2.21104e-19)
(15.5051 1.91174 -9.44717e-19)
(15.5091 1.90879 0)
(15.5104 1.91161 0)
(15.5148 1.90717 -3.37074e-18)
(15.5272 1.89972 1.52093e-18)
(15.5485 1.89243 1.36559e-18)
(15.5831 1.88881 -2.06458e-20)
(15.6295 1.89611 8.86514e-19)
(15.6856 1.92038 2.93855e-20)
(15.7461 1.96639 -8.73211e-19)
(15.8072 2.03627 1.46873e-20)
(15.8646 2.129 -1.93093e-20)
(15.9167 2.23947 -2.9103e-19)
(15.9646 2.35854 1.46495e-19)
(16.014 2.47499 7.8376e-20)
(16.0742 2.58145 -7.44537e-20)
(16.1526 2.67424 9.29972e-20)
(16.2512 2.75733 -1.5117e-19)
(16.3659 2.82869 0)
(16.4878 2.89606 0)
(16.6117 2.94896 -9.24883e-20)
(16.7244 2.99996 7.04057e-20)
(16.8302 3.03638 -2.17613e-19)
(15.505 1.91241 3.10686e-20)
(15.5093 1.90904 -9.97814e-19)
(15.5105 1.91177 0)
(15.5148 1.90679 8.38426e-19)
(15.5273 1.8985 -3.08747e-18)
(15.549 1.89004 1.25217e-20)
(15.5844 1.885 -4.0725e-20)
(15.6321 1.89081 -9.14854e-19)
(15.6901 1.9137 1.97691e-20)
(15.7531 1.95857 8.7168e-19)
(15.8174 2.02763 -1.71739e-20)
(15.8788 2.12 -2.94835e-19)
(15.935 2.23027 -1.86022e-20)
(15.9865 2.34841 -1.35776e-19)
(16.0387 2.46139 -9.00896e-20)
(16.101 2.5602 1.72117e-20)
(16.1813 2.63994 0)
(16.2824 2.70508 -2.17738e-20)
(16.4001 2.75461 2.83143e-20)
(16.525 2.79814 0)
(16.6514 2.8274 8.79956e-20)
(16.766 2.8545 -6.85229e-20)
(16.873 2.87113 0)
(15.5051 1.91355 9.14755e-19)
(15.5089 1.91007 9.96749e-19)
(15.5099 1.91317 0)
(15.5137 1.90819 8.51862e-19)
(15.5257 1.89938 3.12479e-18)
(15.547 1.8898 1.40707e-18)
(15.5828 1.88261 2.37289e-18)
(15.6317 1.88563 0)
(15.692 1.90552 1.36144e-18)
(15.7585 1.94773 -9.05769e-19)
(15.8274 2.01491 5.53058e-19)
(15.8943 2.10639 3.0396e-19)
(15.9563 2.2168 -1.97478e-21)
(16.0125 2.33534 2.5866e-21)
(16.0669 2.4469 -6.41358e-20)
(16.1286 2.53967 5.94181e-20)
(16.2066 2.60663 0)
(16.3049 2.65233 5.6161e-20)
(16.42 2.67757 0)
(16.5425 2.69406 0)
(16.6661 2.69696 -8.56035e-20)
(16.7779 2.69818 -1.98136e-19)
(16.8818 2.69399 1.74686e-19)
(15.5051 1.91429 0)
(15.5089 1.91063 -3.73882e-23)
(15.5098 1.91382 1.18995e-22)
(15.5134 1.90875 -8.67532e-19)
(15.5254 1.89961 -7.73663e-19)
(15.5468 1.88939 -1.40616e-18)
(15.5828 1.88106 -1.19552e-18)
(15.6325 1.8825 -9.8076e-22)
(15.6942 1.90055 -6.6565e-19)
(15.7629 1.94088 -1.93983e-20)
(15.8349 2.00639 1.38924e-20)
(15.9059 2.09668 0)
(15.9726 2.20648 1.94037e-21)
(16.033 2.32447 -2.53901e-21)
(16.0896 2.43387 8.74724e-20)
(16.1504 2.52039 2.43746e-21)
(16.2245 2.57487 0)
(16.3168 2.60149 5.0438e-21)
(16.4249 2.60287 -2.16174e-20)
(16.5397 2.59265 0)
(16.6549 2.56974 0)
(16.7589 2.54626 1.14319e-19)
(16.855 2.52253 -8.89164e-20)
(15.5051 1.915 8.48035e-19)
(15.5088 1.91115 1.03615e-18)
(15.5097 1.91441 0)
(15.5132 1.90922 8.68031e-19)
(15.5251 1.89975 -7.97494e-19)
(15.5465 1.88889 -1.45676e-18)
(15.5829 1.87946 1.2413e-18)
(15.6333 1.87942 -9.75096e-19)
(15.6964 1.89572 -6.94718e-19)
(15.7672 1.93425 1.39755e-18)
(15.8424 1.99814 -5.66597e-19)
(15.9176 2.0872 -3.23408e-19)
(15.9893 2.19633 -1.57985e-19)
(16.0539 2.31384 0)
(16.1121 2.42151 -2.5427e-20)
(16.1702 2.50269 1.39711e-20)
(16.2372 2.54606 2.79496e-21)
(16.3188 2.55527 -4.73141e-20)
(16.4143 2.5349 0)
(16.5157 2.50036 0)
(16.6172 2.45433 0)
(16.7095 2.40954 -1.53712e-19)
(16.7947 2.3693 1.47338e-19)
(15.5052 1.91572 -8.48722e-19)
(15.5088 1.91167 1.68211e-20)
(15.5096 1.91498 0)
(15.5129 1.90969 -8.9318e-19)
(15.5247 1.89987 -8.80239e-23)
(15.5461 1.88837 2.19921e-18)
(15.5828 1.87785 -2.50549e-18)
(15.6339 1.87633 2.96105e-18)
(15.6984 1.89088 -7.05555e-22)
(15.7714 1.92758 -4.70892e-19)
(15.8499 1.98975 -2.97072e-19)
(15.9295 2.07747 3.23267e-19)
(16.0062 2.18586 1.55567e-19)
(16.0751 2.30313 -5.79013e-20)
(16.1345 2.40986 1.29677e-22)
(16.1885 2.48722 -1.40677e-20)
(16.2452 2.52168 0)
(16.3118 2.51608 0)
(16.3896 2.4769 2.02306e-20)
(16.4725 2.42118 0)
(16.5564 2.35503 0)
(16.6339 2.29205 2.27069e-20)
(16.7052 2.23749 5.54514e-20)
(15.5052 1.91644 0)
(15.5087 1.91219 -1.05449e-18)
(15.5096 1.91555 2.4584e-23)
(15.5127 1.91016 -1.33972e-20)
(15.5244 1.90001 -6.15581e-23)
(15.5458 1.88788 -1.49563e-18)
(15.5827 1.87626 1.26411e-18)
(15.6345 1.87324 -1.98597e-18)
(15.7003 1.886 -7.31063e-19)
(15.7755 1.92079 0)
(15.8572 1.98113 2.95463e-19)
(15.9412 2.06735 6.22582e-22)
(16.0231 2.17493 -1.30063e-22)
(16.0963 2.29221 5.74506e-20)
(16.1567 2.39901 0)
(16.2053 2.47455 -1.42827e-20)
(16.2494 2.50303 1.82078e-22)
(16.2972 2.4861 0)
(16.3526 2.43182 -2.01179e-20)
(16.4129 2.35837 0)
(16.4755 2.27477 0)
(16.535 2.19625 0)
(16.5895 2.12979 -7.57932e-21)
(15.5052 1.91717 0)
(15.5087 1.91271 5.4531e-19)
(15.5095 1.91613 -4.60415e-24)
(15.5124 1.91064 9.07645e-19)
(15.524 1.90018 8.52417e-19)
(15.5454 1.88741 1.51872e-18)
(15.5825 1.8747 0)
(15.635 1.87016 -1.01906e-18)
(15.7021 1.88108 1.47035e-18)
(15.7794 1.91387 1.60247e-24)
(15.8643 1.97223 3.04576e-19)
(15.9527 2.05678 -1.69911e-19)
(16.0398 2.16347 0)
(16.1176 2.28105 0)
(16.1788 2.38907 -6.70202e-21)
(16.2214 2.46516 1.4084e-20)
(16.2508 2.49127 0)
(16.2766 2.46733 3.28583e-20)
(16.3058 2.40222 1.54477e-20)
(16.3391 2.31469 0)
(16.3768 2.21681 3.49258e-22)
(16.4161 2.12702 2.07939e-22)
(16.4535 2.05336 -1.97934e-20)
(15.5053 1.91789 5.05561e-24)
(15.5087 1.91324 -1.09941e-18)
(15.5094 1.91671 -1.32409e-23)
(15.5122 1.91114 0)
(15.5237 1.90036 1.09042e-20)
(15.545 1.88698 -1.53847e-18)
(15.5823 1.87317 -2.89051e-22)
(15.6354 1.86709 1.01908e-18)
(15.7037 1.87612 -7.38999e-19)
(15.7831 1.90683 4.99369e-19)
(15.8712 1.96307 3.81975e-21)
(15.964 2.04576 3.42294e-19)
(16.0565 2.15144 -1.61512e-19)
(16.1391 2.26962 2.81376e-22)
(16.2014 2.38008 2.2664e-20)
(16.2377 2.45944 -3.99873e-20)
(16.2512 2.48739 1.89926e-21)
(16.2523 2.46152 -3.41447e-20)
(16.2515 2.39062 -1.53199e-20)
(16.2541 2.29381 0)
(16.2655 2.18721 -9.0824e-21)
(16.2853 2.09195 0)
(16.3054 2.01448 3.85548e-21)
(15.5054 1.91862 0)
(15.5086 1.91377 5.54084e-19)
(15.5094 1.91729 4.91319e-19)
(15.5119 1.91165 4.98437e-23)
(15.5233 1.90057 -1.73762e-18)
(15.5446 1.88658 7.74109e-19)
(15.582 1.87167 0)
(15.6357 1.86403 0)
(15.7052 1.87112 -3.70434e-22)
(15.7866 1.89965 -4.98864e-19)
(15.8778 1.95363 3.92439e-21)
(15.9751 2.03427 -1.72203e-19)
(16.0732 2.1388 1.607e-19)
(16.161 2.25782 0)
(16.2251 2.372 -1.56777e-20)
(16.2555 2.45758 3.887e-20)
(16.2526 2.49213 -5.10703e-20)
(16.2271 2.47034 -4.20929e-21)
(16.1934 2.40003 0)
(16.1635 2.30035 0)
(16.1485 2.18995 2.46151e-21)
(16.1462 2.08997 2.05849e-20)
(16.1421 2.00512 -2.80221e-22)
(15.5055 1.91935 0)
(15.5086 1.9143 -2.05084e-23)
(15.5093 1.91787 -4.91568e-19)
(15.5117 1.91217 4.76275e-19)
(15.5229 1.9008 8.7365e-19)
(15.5441 1.8862 1.70594e-22)
(15.5817 1.8702 6.67886e-19)
(15.6358 1.86098 5.22652e-19)
(15.7065 1.86608 -7.58193e-19)
(15.7899 1.89234 0)
(15.8843 1.9439 4.29277e-21)
(15.9861 2.02228 -1.78457e-19)
(16.0898 2.12549 0)
(16.1835 2.24555 1.19055e-22)
(16.2503 2.36467 -3.32647e-20)
(16.276 2.45953 0)
(16.2572 2.50598 -7.06421e-21)
(16.2043 2.49537 2.01797e-21)
(16.1363 2.43327 -1.06023e-19)
(16.0715 2.3357 0)
(16.0238 2.22085 0)
(15.9885 2.11318 -1.21539e-20)
(15.9525 2.02101 4.71301e-20)
(15.5056 1.92007 -1.04294e-23)
(15.5086 1.91484 1.37676e-23)
(15.5092 1.91846 0)
(15.5115 1.9127 4.84577e-19)
(15.5225 1.90106 -4.51347e-22)
(15.5436 1.88586 3.44061e-22)
(15.5813 1.86876 -6.67762e-19)
(15.636 1.85794 -5.23279e-19)
(15.7077 1.86101 7.5833e-19)
(15.7931 1.88491 -5.14264e-19)
(15.8905 1.93389 -3.17311e-19)
(15.9969 2.00978 1.79509e-19)
(16.1065 2.11144 8.32899e-20)
(16.2066 2.23263 1.98151e-20)
(16.2775 2.3578 3.51916e-20)
(16.3004 2.46498 -3.22688e-21)
(16.2676 2.52903 8.15506e-20)
(16.1882 2.53769 6.10937e-20)
(16.0839 2.49119 2.89683e-20)
(15.9776 2.39894 -3.58225e-20)
(15.887 2.28276 4.56201e-20)
(15.8169 2.1799 0)
(15.7591 2.09967 -3.35072e-20)
(15.5056 1.9208 0)
(15.5086 1.91537 5.77648e-19)
(15.5092 1.91905 5.02543e-19)
(15.5112 1.91324 -4.76989e-19)
(15.5222 1.90133 4.48621e-19)
(15.5431 1.88556 0)
(15.5808 1.86736 7.3224e-22)
(15.636 1.85492 -9.62588e-22)
(15.7088 1.85591 3.85751e-19)
(15.7961 1.87736 7.7603e-19)
(15.8965 1.9236 -3.24933e-19)
(16.0074 1.99675 -1.52863e-21)
(16.1232 2.09658 2.58217e-21)
(16.2305 2.21885 -1.95331e-20)
(16.3071 2.35097 0)
(16.3301 2.47331 -9.16111e-20)
(16.2866 2.56081 1.02804e-19)
(16.1827 2.59699 -7.57543e-20)
(16.0398 2.57399 -5.16071e-20)
(15.8875 2.49732 -3.90502e-21)
(15.7611 2.40266 6.25435e-20)
(15.6763 2.33289 -4.8115e-20)
(15.6082 2.2798 -4.66874e-20)
(15.5057 1.92152 2.14009e-19)
(15.5085 1.9159 3.94786e-21)
(15.5091 1.91963 -5.02819e-19)
(15.511 1.9138 -4.84336e-19)
(15.5218 1.90163 -9.01045e-19)
(15.5426 1.88528 -8.06481e-19)
(15.5804 1.86599 -7.38009e-22)
(15.6359 1.85191 9.70119e-22)
(15.7098 1.85077 -3.85823e-19)
(15.799 1.86968 -2.60793e-19)
(15.9023 1.91303 6.57889e-19)
(16.0177 1.98318 -1.91456e-19)
(16.1399 2.08083 -8.72093e-20)
(16.2551 2.20397 1.99654e-20)
(16.3397 2.34358 3.35951e-21)
(16.3663 2.48355 7.82285e-20)
(16.317 2.59995 -1.08163e-19)
(16.1922 2.67207 1.61792e-19)
(16.0126 2.68471 3.64497e-20)
(15.8255 2.6463 0)
(15.6857 2.60044 -8.60638e-20)
(15.5871 2.56451 9.10701e-20)
(15.4755 2.51031 -1.24144e-19)
(15.5058 1.92224 -2.14087e-19)
(15.5085 1.91644 -8.74973e-19)
(15.5091 1.92022 -5.09241e-19)
(15.5107 1.91436 4.92197e-19)
(15.5214 1.90195 4.52344e-19)
(15.5421 1.88504 8.06653e-19)
(15.5798 1.86465 6.89006e-19)
(15.6358 1.84892 0)
(15.7107 1.84561 3.93593e-19)
(15.8016 1.86188 -2.67943e-19)
(15.9079 1.90217 -3.31793e-19)
(16.0278 1.96905 1.91353e-19)
(16.1564 2.0641 0)
(16.2806 2.18769 -2.08987e-20)
(16.3753 2.33493 -2.69254e-20)
(16.4102 2.49424 5.6353e-20)
(16.3614 2.64423 -3.96832e-20)
(16.2228 2.76158 -5.8411e-20)
(16.0183 2.82719 2.16665e-19)
(15.8136 2.84773 -1.39122e-19)
(15.6514 2.84566 0)
(15.4803 2.80205 2.68171e-19)
(15.2657 2.70809 -3.88852e-19)
(15.5059 1.92296 0)
(15.5085 1.91697 2.92964e-19)
(15.509 1.92081 5.09309e-19)
(15.5105 1.91494 -4.9246e-19)
(15.521 1.90229 -7.27169e-23)
(15.5415 1.88483 3.54859e-22)
(15.5793 1.86335 -3.41562e-19)
(15.6356 1.84596 0)
(15.7114 1.84042 -3.93666e-19)
(15.8041 1.85398 -3.83868e-21)
(15.9131 1.89104 0)
(16.0375 1.95435 -1.01207e-19)
(16.1728 2.04632 0)
(16.3069 2.1697 -9.88016e-22)
(16.4142 2.32413 5.01462e-20)
(16.4627 2.50353 -4.57998e-20)
(16.4227 2.69073 -4.46948e-20)
(16.2826 2.86314 1.99297e-19)
(16.0697 2.998 -1.05639e-19)
(15.8437 3.08149 -1.93231e-19)
(15.603 3.1007 3.12914e-19)
(15.307 3.0408 -2.79528e-19)
(15.0068 2.94527 9.42246e-19)
(15.506 1.92367 -2.13219e-19)
(15.5085 1.91751 2.96557e-19)
(15.509 1.92139 -2.58127e-19)
(15.5103 1.91552 -2.55677e-22)
(15.5206 1.90266 4.69492e-22)
(15.541 1.88465 -8.2623e-22)
(15.5787 1.86209 -3.47284e-19)
(15.6353 1.84302 2.1349e-21)
(15.712 1.83522 -1.49484e-21)
(15.8064 1.84597 -3.9191e-21)
(15.9181 1.87964 -1.75495e-19)
(16.0468 1.93907 9.8409e-20)
(16.189 2.02739 3.57867e-21)
(16.3337 2.14967 9.11989e-22)
(16.4564 2.31023 -2.98425e-20)
(16.5241 2.50917 0)
(16.5034 2.73563 -7.68543e-20)
(16.3781 2.97098 -1.40206e-19)
(16.1693 3.18455 1.48202e-19)
(15.9011 3.33329 -4.12074e-19)
(15.5564 3.40132 2.11485e-19)
(15.1998 3.42124 -5.59363e-20)
(14.9361 3.44603 -5.95182e-19)
(15.5061 1.92438 4.26021e-19)
(15.5084 1.91804 -2.96688e-19)
(15.5089 1.92198 -1.91654e-21)
(15.51 1.91611 0)
(15.5202 1.90304 0)
(15.5404 1.8845 -4.16693e-19)
(15.578 1.86087 -3.5299e-19)
(15.6349 1.84011 0)
(15.7124 1.83 -1.62408e-21)
(15.8084 1.83787 2.77878e-19)
(15.9228 1.86798 1.7811e-19)
(16.0558 1.92322 -3.43376e-21)
(16.2048 2.00725 -2.20386e-21)
(16.3609 2.12728 2.12897e-21)
(16.5015 2.29218 9.36668e-22)
(16.5944 2.5086 0)
(16.6049 2.77382 1.03191e-19)
(16.5121 3.07489 -3.10569e-20)
(16.3186 3.37156 4.33742e-19)
(16.018 3.61183 -2.05113e-19)
(15.6535 3.82411 -3.64823e-19)
(15.3964 4.06127 5.44197e-19)
(15.2554 4.29007 0)
(15.5062 1.92508 -4.24996e-19)
(15.5084 1.91857 2.84752e-23)
(15.5089 1.92256 2.60322e-19)
(15.5098 1.91671 0)
(15.5198 1.90344 0)
(15.5398 1.88439 -2.93694e-21)
(15.5774 1.85969 7.08483e-19)
(15.6345 1.83722 0)
(15.7128 1.82478 2.05449e-19)
(15.8103 1.82967 0)
(15.9271 1.85606 0)
(16.0643 1.90679 -2.99098e-21)
(16.2201 1.98584 3.88373e-21)
(16.3883 2.10222 1.87663e-20)
(16.5489 2.26895 -5.30736e-22)
(16.673 2.49907 2.42975e-20)
(16.7267 2.79889 -1.09533e-19)
(16.6844 3.16151 0)
(16.5302 3.54389 -1.43086e-19)
(16.2679 3.91825 0)
(16.0371 4.35763 -9.30284e-20)
(15.9766 4.84799 -1.22304e-19)
(15.8993 5.23655 0)
(15.5063 1.92577 3.18006e-19)
(15.5084 1.9191 -1.51234e-19)
(15.5088 1.92314 0)
(15.5096 1.91732 2.56695e-19)
(15.5194 1.90387 -2.37362e-19)
(15.5392 1.88432 4.20334e-19)
(15.5766 1.85855 -3.56118e-19)
(15.634 1.83437 -2.8407e-19)
(15.7129 1.81954 -2.03946e-19)
(15.8119 1.82139 -2.21359e-21)
(15.9311 1.8439 2.89088e-21)
(16.0723 1.88979 1.14243e-19)
(16.2348 1.96312 2.6781e-21)
(16.4154 2.07424 -2.18337e-20)
(16.5979 2.23958 5.16464e-23)
(16.7583 2.47778 0)
(16.8663 2.80372 0)
(16.8936 3.21666 0)
(16.8202 3.68238 0)
(16.6987 4.21194 6.1433e-20)
(16.7061 4.86856 4.54156e-19)
(16.796 5.51793 -4.14003e-19)
(16.64 5.94853 0)
(15.5064 1.92646 -1.05799e-19)
(15.5084 1.91962 3.03552e-19)
(15.5088 1.92372 0)
(15.5094 1.91793 -2.56913e-19)
(15.519 1.90431 4.77255e-19)
(15.5385 1.88428 0)
(15.5759 1.85745 0)
(15.6334 1.83155 2.8296e-19)
(15.713 1.81431 0)
(15.8133 1.81303 -1.4349e-19)
(15.9347 1.83151 -9.74716e-20)
(16.0797 1.87223 -5.52521e-20)
(16.2487 1.93907 6.45429e-20)
(16.4418 2.04315 0)
(16.6474 2.20326 0)
(16.8479 2.44218 -2.1911e-20)
(17.0191 2.78163 2.77859e-20)
(17.1353 3.22708 0)
(17.1913 3.7615 6.96376e-20)
(17.2888 4.42059 -5.97307e-20)
(17.5328 5.20188 -3.98078e-19)
(17.638 5.87492 4.65799e-19)
(17.2685 6.24951 0)
(15.5065 1.92713 2.18389e-23)
(15.5084 1.92014 -3.05714e-19)
(15.5088 1.92429 -8.33474e-23)
(15.5092 1.91855 -1.30454e-19)
(15.5186 1.90478 -2.39893e-19)
(15.5379 1.88427 2.15009e-19)
(15.5751 1.85639 6.43244e-22)
(15.6327 1.82877 -1.4522e-19)
(15.7129 1.80908 2.15091e-19)
(15.8145 1.80461 1.43518e-19)
(15.9379 1.8189 9.45294e-20)
(16.0866 1.85415 -5.89467e-20)
(16.2616 1.9137 -6.45096e-20)
(16.467 2.00884 -1.37741e-21)
(16.696 2.15946 1.77499e-21)
(16.9386 2.39035 -1.91685e-20)
(17.179 2.72738 2.424e-20)
(17.4003 3.1817 0)
(17.6234 3.75375 -6.85569e-20)
(17.963 4.47739 0)
(18.3627 5.26905 4.20975e-20)
(18.3436 5.86701 0)
(17.6763 6.14405 1.84685e-20)
(15.5066 1.9278 5.23631e-20)
(15.5083 1.92066 1.53354e-19)
(15.5087 1.92486 1.35735e-19)
(15.509 1.91918 -8.22201e-22)
(15.5182 1.90526 -4.17026e-22)
(15.5373 1.88429 2.25617e-21)
(15.5743 1.85538 -1.83944e-19)
(15.632 1.82603 -2.29298e-21)
(15.7126 1.80385 -2.11849e-19)
(15.8154 1.79613 -2.32441e-21)
(15.9407 1.8061 1.01085e-19)
(16.0927 1.83558 0)
(16.2734 1.88707 -3.72596e-21)
(16.4904 1.97135 4.8098e-21)
(16.7422 2.10794 3.83469e-21)
(17.0267 2.32122 0)
(17.3381 2.63789 0)
(17.6735 3.07277 2.65828e-20)
(18.0783 3.6377 0)
(18.6325 4.34642 -2.07999e-19)
(19.0834 5.05826 2.18141e-19)
(18.8456 5.53813 -2.09844e-20)
(17.8526 5.72151 -6.10845e-19)
(15.5067 1.92846 -1.0458e-19)
(15.5083 1.92117 -7.77966e-20)
(15.5087 1.92543 -2.04122e-19)
(15.5088 1.91982 1.3223e-19)
(15.5178 1.90577 1.22551e-19)
(15.5366 1.88435 -3.26917e-19)
(15.5734 1.85441 1.84135e-19)
(15.6311 1.82333 1.44104e-19)
(15.7123 1.79864 3.34845e-21)
(15.8161 1.7876 -2.28683e-21)
(15.9431 1.79312 -9.80497e-20)
(16.0982 1.81655 -3.25054e-20)
(16.2839 1.85926 3.48402e-20)
(16.5116 1.9308 2.62191e-20)
(16.7844 2.04888 -3.8303e-21)
(17.1082 2.23486 0)
(17.4874 2.51263 0)
(17.9353 2.89722 5.20721e-20)
(18.5112 3.40406 -7.30229e-20)
(19.2236 4.02523 0)