/*--------------------------------*- C++ -*----------------------------------*\
  =========                 |
  \\      /  F ield         | OpenFOAM: The Open Source CFD Toolbox
   \\    /   O peration     | Website:  https://openfoam.org
    \\  /    A nd           | Version:  7
     \\/     M anipulation  |
\*---------------------------------------------------------------------------*/
FoamFile
{
    version     2.0;
    format      ascii;
    class       volScalarField;
    location    "50";
    object      yPlus;
}
// * * * * * * * * * * * * * * * * * * * * * * * * * * * * * * * * * * * * * //

dimensions      [0 0 0 0 0 0 0];

internalField   uniform 0;

boundaryField
{
    inlet
    {
        type            calculated;
        value           uniform 0;
    }
    outlet
    {
        type            calculated;
        value           uniform 0;
    }
    suction_side
    {
        type            calculated;
        value           nonuniform List<scalar> 
56
(
6.58152
6.85944
6.91098
7.34064
7.40772
8.09808
8.22114
9.39642
9.50625
11.5839
12.0717
15.6327
19.4872
30.5187
39.944
45.316
44.2221
40.0295
33.6187
26.6665
32.0269
38.6037
41.6753
43.0957
43.1267
42.2501
40.912
39.3438
37.7714
36.2446
34.6711
32.8883
31.1692
29.4373
27.3412
25.3297
24.6345
24.7725
27.27
30.6468
34.1187
38.2547
37.7762
39.1113
24.8753
16.9435
19.3653
22.1064
22.9658
21.4933
20.639
23.4822
24.237
24.3917
24.6788
24.4405
)
;
    }
    pressure_side
    {
        type            calculated;
        value           nonuniform List<scalar> 
56
(
46.5597
44.3959
43.8753
42.6309
41.3887
40.7026
39.8368
39.0968
38.5545
38.2784
38.0851
37.9561
37.9181
37.9198
37.9405
37.9723
38.0159
38.074
38.1458
38.2319
38.3306
38.4328
38.5191
38.5534
38.4871
38.3134
38.1204
38.0075
38.1359
38.6341
39.5773
40.8733
42.3122
43.4677
44.0428
44.1001
43.153
41.2629
38.3962
34.4173
29.4169
23.648
17.4736
11.4083
9.91314
6.54438
5.78768
5.06256
4.83381
4.84707
5.02773
5.23562
5.6387
5.92571
6.17093
6.50562
)
;
    }
    trailing_edge
    {
        type            calculated;
        value           nonuniform List<scalar> 2(146.389 93.197);
    }
    defaultFaces
    {
        type            empty;
    }
}


// ************************************************************************* //
