# Residuals   
# Time        	p             	Ux            	Uy            
0.2           	1.000000e+00	1.000000e+00	1.000000e+00
0.4           	3.325906e-01	1.423651e-01	3.734823e-01
0.6           	8.527842e-01	6.224719e-02	2.116488e-01
0.8           	5.308123e-01	7.269033e-02	2.350278e-01
1             	7.894882e-01	5.311588e-02	2.159436e-01
1.2           	5.417027e-01	6.053129e-02	2.162805e-01
1.4           	7.291697e-01	4.811292e-02	2.119479e-01
1.6           	5.318843e-01	5.478278e-02	2.093010e-01
1.8           	6.874546e-01	4.401991e-02	1.974439e-01
2             	5.219033e-01	4.893309e-02	1.900912e-01
2.2           	6.621533e-01	3.990126e-02	1.774904e-01
2.4           	5.156323e-01	4.455638e-02	1.719600e-01
2.6           	6.396743e-01	3.765349e-02	1.639328e-01
2.8           	5.102526e-01	4.232224e-02	1.622872e-01
3             	6.187288e-01	3.713696e-02	1.576497e-01
3.2           	5.038672e-01	4.151315e-02	1.580825e-01
3.4           	5.977752e-01	3.729577e-02	1.536711e-01
3.6           	4.943226e-01	4.073912e-02	1.533297e-01
3.8           	5.781396e-01	3.686359e-02	1.478520e-01
4             	4.857055e-01	3.931624e-02	1.467926e-01
4.2           	5.636054e-01	3.581379e-02	1.405536e-01
4.4           	4.794519e-01	3.756185e-02	1.392472e-01
4.6           	5.519557e-01	3.442060e-02	1.328760e-01
4.8           	4.746698e-01	3.573303e-02	1.319578e-01
5             	5.426766e-01	3.305054e-02	1.260025e-01
5.2           	4.717920e-01	3.423904e-02	1.260271e-01
5.4           	5.360350e-01	3.217155e-02	1.211205e-01
5.6           	4.718499e-01	3.345870e-02	1.223378e-01
5.8           	5.320126e-01	3.200839e-02	1.187374e-01
6             	4.740065e-01	3.340028e-02	1.209336e-01
6.2           	5.291455e-01	3.241935e-02	1.184161e-01
6.4           	4.758235e-01	3.377001e-02	1.209360e-01
6.6           	5.257123e-01	3.303102e-02	1.189890e-01
6.8           	4.763254e-01	3.414951e-02	1.210738e-01
7             	5.212778e-01	3.346649e-02	1.191105e-01
7.2           	4.749376e-01	3.424181e-02	1.203140e-01
7.4           	5.158424e-01	3.353824e-02	1.181284e-01
7.6           	4.724653e-01	3.398438e-02	1.184196e-01
7.8           	5.102912e-01	3.327597e-02	1.162022e-01
8             	4.699668e-01	3.351837e-02	1.159284e-01
8.2           	5.054061e-01	3.285945e-02	1.139711e-01
8.4           	4.680329e-01	3.304993e-02	1.135723e-01
8.6           	5.016435e-01	3.249441e-02	1.120807e-01
8.8           	4.671953e-01	3.275158e-02	1.118508e-01
9             	4.990938e-01	3.230932e-02	1.109631e-01
9.2           	4.673601e-01	3.266409e-02	1.109478e-01
9.4           	4.973350e-01	3.230872e-02	1.107142e-01
9.6           	4.677837e-01	3.272723e-02	1.107897e-01
9.8           	4.956292e-01	3.239801e-02	1.110737e-01
10            	4.677443e-01	3.280352e-02	1.110329e-01
10.2          	4.936397e-01	3.244278e-02	1.116057e-01
10.4          	4.672107e-01	3.276370e-02	1.112446e-01
10.6          	4.914151e-01	3.234827e-02	1.118913e-01
10.8          	4.662747e-01	3.255074e-02	1.110999e-01
11            	4.891134e-01	3.212649e-02	1.115467e-01
11.2          	4.652574e-01	3.222932e-02	1.104910e-01
11.4          	4.869846e-01	3.185673e-02	1.107753e-01
11.6          	4.642823e-01	3.191001e-02	1.097002e-01
11.8          	4.850003e-01	3.162739e-02	1.099401e-01
12            	4.634098e-01	3.168891e-02	1.089877e-01
12.2          	4.831372e-01	3.150562e-02	1.093515e-01
12.4          	4.625666e-01	3.160975e-02	1.086247e-01
12.6          	4.810464e-01	3.149397e-02	1.091382e-01
12.8          	4.613446e-01	3.164544e-02	1.086214e-01
13            	4.785569e-01	3.156928e-02	1.093296e-01
13.2          	4.598487e-01	3.174753e-02	1.090624e-01
13.4          	4.760912e-01	3.166166e-02	1.098016e-01
13.6          	4.583289e-01	3.182979e-02	1.096602e-01
13.8          	4.736958e-01	3.169741e-02	1.102910e-01
14            	4.568726e-01	3.182534e-02	1.102461e-01
14.2          	4.717229e-01	3.163778e-02	1.106697e-01
14.4          	4.556967e-01	3.172683e-02	1.107268e-01
14.6          	4.702573e-01	3.151845e-02	1.109767e-01
14.8          	4.549099e-01	3.158440e-02	1.111410e-01
15            	4.694215e-01	3.141050e-02	1.112969e-01
15.2          	4.545205e-01	3.148380e-02	1.115719e-01
15.4          	4.687564e-01	3.137838e-02	1.115418e-01
15.6          	4.540420e-01	3.149569e-02	1.118763e-01
15.8          	4.676569e-01	3.146169e-02	1.115769e-01
16            	4.532200e-01	3.164223e-02	1.121777e-01
16.2          	4.664946e-01	3.166798e-02	1.117999e-01
16.4          	4.522885e-01	3.191446e-02	1.128927e-01
16.6          	4.652635e-01	3.194850e-02	1.123048e-01
16.8          	4.510227e-01	3.222055e-02	1.138463e-01
17            	4.636837e-01	3.218741e-02	1.130574e-01
17.2          	4.493651e-01	3.243334e-02	1.148356e-01
17.4          	4.624544e-01	3.230040e-02	1.139065e-01
17.6          	4.477747e-01	3.252436e-02	1.156578e-01
17.8          	4.614118e-01	3.234222e-02	1.146045e-01
18            	4.459565e-01	3.256451e-02	1.162710e-01
18.2          	4.600495e-01	3.241237e-02	1.151441e-01
18.4          	4.438394e-01	3.267353e-02	1.166725e-01
18.6          	4.585412e-01	3.255804e-02	1.154030e-01
18.8          	4.415013e-01	3.289217e-02	1.167778e-01
19            	4.566338e-01	3.280157e-02	1.154427e-01
19.2          	4.389751e-01	3.323820e-02	1.165702e-01
19.4          	4.544135e-01	3.319480e-02	1.153710e-01
19.6          	4.360967e-01	3.374425e-02	1.165229e-01
19.8          	4.515680e-01	3.368975e-02	1.156093e-01
20            	4.325837e-01	3.428526e-02	1.168933e-01
20.2          	4.490146e-01	3.411575e-02	1.164812e-01
20.4          	4.291729e-01	3.467680e-02	1.175526e-01
20.6          	4.464510e-01	3.437448e-02	1.175097e-01
20.8          	4.263656e-01	3.484959e-02	1.180485e-01
21            	4.451578e-01	3.453074e-02	1.180491e-01
21.2          	4.251643e-01	3.491574e-02	1.180121e-01
21.4          	4.456757e-01	3.464514e-02	1.180146e-01
21.6          	4.254102e-01	3.499981e-02	1.175060e-01
21.8          	4.476115e-01	3.479186e-02	1.174952e-01
22            	4.263436e-01	3.516972e-02	1.166963e-01
22.2          	4.497084e-01	3.504915e-02	1.167814e-01
22.4          	4.272006e-01	3.551922e-02	1.160051e-01
22.6          	4.516167e-01	3.548317e-02	1.163373e-01
22.8          	4.276192e-01	3.604129e-02	1.161757e-01
23            	4.521033e-01	3.601383e-02	1.169712e-01
23.2          	4.260748e-01	3.655048e-02	1.174340e-01
23.4          	4.514063e-01	3.634160e-02	1.183307e-01
23.6          	4.243920e-01	3.677821e-02	1.188990e-01
23.8          	4.514372e-01	3.647682e-02	1.195519e-01
24            	4.227549e-01	3.680265e-02	1.199126e-01
24.2          	4.515405e-01	3.643473e-02	1.199167e-01
24.4          	4.208845e-01	3.668278e-02	1.200404e-01
24.6          	4.520795e-01	3.630856e-02	1.193128e-01
24.8          	4.193681e-01	3.651824e-02	1.192749e-01
25            	4.525406e-01	3.621119e-02	1.179273e-01
25.2          	4.177994e-01	3.642979e-02	1.181727e-01
25.4          	4.517339e-01	3.633252e-02	1.168834e-01
25.6          	4.160638e-01	3.670108e-02	1.176272e-01
25.8          	4.506119e-01	3.684509e-02	1.167566e-01
26            	4.134452e-01	3.729799e-02	1.183841e-01
26.2          	4.477245e-01	3.742181e-02	1.180766e-01
26.4          	4.092069e-01	3.771458e-02	1.198924e-01
26.6          	4.443466e-01	3.773715e-02	1.194582e-01
26.8          	4.056771e-01	3.777179e-02	1.207951e-01
27            	4.437175e-01	3.771631e-02	1.198573e-01
27.2          	4.050009e-01	3.756092e-02	1.206293e-01
27.4          	4.468453e-01	3.754402e-02	1.193467e-01
27.6          	4.070866e-01	3.730607e-02	1.198326e-01
27.8          	4.523044e-01	3.735141e-02	1.184767e-01
28            	4.103611e-01	3.717122e-02	1.189126e-01
28.2          	4.581492e-01	3.734131e-02	1.178747e-01
28.4          	4.134392e-01	3.738160e-02	1.185689e-01
28.6          	4.631626e-01	3.767209e-02	1.181745e-01
28.8          	4.155063e-01	3.801477e-02	1.195263e-01
29            	4.647044e-01	3.827015e-02	1.199216e-01
29.2          	4.136224e-01	3.866244e-02	1.217560e-01
29.4          	4.637495e-01	3.866647e-02	1.222127e-01
29.6          	4.117292e-01	3.895494e-02	1.234720e-01
29.8          	4.637474e-01	3.867920e-02	1.234131e-01
30            	4.102956e-01	3.878331e-02	1.237459e-01
30.2          	4.646391e-01	3.836805e-02	1.230166e-01
30.4          	4.093824e-01	3.832261e-02	1.227445e-01
30.6          	4.662016e-01	3.789060e-02	1.215332e-01
30.8          	4.095738e-01	3.775578e-02	1.210884e-01
31            	4.675372e-01	3.749216e-02	1.198785e-01
31.2          	4.093618e-01	3.730792e-02	1.199812e-01
31.4          	4.668525e-01	3.746486e-02	1.195210e-01
31.6          	4.091208e-01	3.748300e-02	1.204923e-01
31.8          	4.659778e-01	3.809409e-02	1.208463e-01
32            	4.068009e-01	3.822321e-02	1.229159e-01
32.2          	4.610022e-01	3.891402e-02	1.237941e-01
32.4          	4.022747e-01	3.885203e-02	1.256834e-01
32.6          	4.555114e-01	3.933314e-02	1.256758e-01
32.8          	3.985278e-01	3.894546e-02	1.264195e-01
33            	4.535174e-01	3.923425e-02	1.252598e-01
33.2          	4.001056e-01	3.862944e-02	1.251135e-01
33.4          	4.557742e-01	3.890265e-02	1.234447e-01
33.6          	4.052844e-01	3.827328e-02	1.230597e-01
33.8          	4.606139e-01	3.853697e-02	1.214170e-01
34            	4.113463e-01	3.796691e-02	1.214037e-01
34.2          	4.650848e-01	3.835441e-02	1.204645e-01
34.4          	4.169242e-01	3.803198e-02	1.211774e-01
34.6          	4.693191e-01	3.862385e-02	1.213200e-01
34.8          	4.206740e-01	3.862815e-02	1.231365e-01
35            	4.693994e-01	3.921084e-02	1.240979e-01
35.2          	4.198658e-01	3.932121e-02	1.264367e-01
35.4          	4.669106e-01	3.960646e-02	1.271046e-01
35.6          	4.176469e-01	3.962515e-02	1.284674e-01
35.8          	4.646700e-01	3.952429e-02	1.280395e-01
36            	4.161223e-01	3.940524e-02	1.279868e-01
36.2          	4.643160e-01	3.908355e-02	1.264989e-01
36.4          	4.159173e-01	3.885216e-02	1.256914e-01
36.6          	4.650431e-01	3.845720e-02	1.237373e-01
36.8          	4.167688e-01	3.820335e-02	1.229603e-01
37            	4.652778e-01	3.793579e-02	1.212627e-01
37.2          	4.168584e-01	3.768695e-02	1.212378e-01
37.4          	4.636962e-01	3.782969e-02	1.205831e-01
37.6          	4.168718e-01	3.786772e-02	1.216834e-01
37.8          	4.621448e-01	3.841349e-02	1.219907e-01
38            	4.138474e-01	3.862675e-02	1.241684e-01
38.2          	4.560649e-01	3.921023e-02	1.249866e-01
38.4          	4.082521e-01	3.920160e-02	1.267710e-01
38.6          	4.503599e-01	3.948099e-02	1.265325e-01
38.8          	4.040581e-01	3.914427e-02	1.270491e-01
39            	4.490411e-01	3.925488e-02	1.257205e-01
39.2          	4.053801e-01	3.871876e-02	1.254719e-01
39.4          	4.522431e-01	3.887459e-02	1.238205e-01
39.6          	4.101765e-01	3.834038e-02	1.234079e-01
39.8          	4.579860e-01	3.852170e-02	1.218178e-01
40            	4.154552e-01	3.807208e-02	1.218156e-01
40.2          	4.628445e-01	3.840038e-02	1.209793e-01
40.4          	4.202158e-01	3.822457e-02	1.215949e-01
40.6          	4.675265e-01	3.877979e-02	1.217377e-01
40.8          	4.227835e-01	3.893801e-02	1.233770e-01
41            	4.674446e-01	3.942956e-02	1.242650e-01
41.2          	4.211081e-01	3.962775e-02	1.263121e-01
41.4          	4.648928e-01	3.976730e-02	1.267750e-01
41.6          	4.182762e-01	3.983178e-02	1.277849e-01
41.8          	4.629996e-01	3.959685e-02	1.271788e-01
42            	4.172779e-01	3.950943e-02	1.269967e-01
42.2          	4.632680e-01	3.908059e-02	1.255998e-01
42.4          	4.169992e-01	3.888188e-02	1.249155e-01
42.6          	4.643130e-01	3.842790e-02	1.231420e-01
42.8          	4.176328e-01	3.820781e-02	1.225695e-01
43            	4.646649e-01	3.792942e-02	1.210160e-01
43.2          	4.173103e-01	3.772321e-02	1.212254e-01
43.4          	4.632348e-01	3.791685e-02	1.206284e-01
43.6          	4.170845e-01	3.800489e-02	1.217911e-01
43.8          	4.614660e-01	3.859281e-02	1.220208e-01
44            	4.134951e-01	3.882838e-02	1.242240e-01
44.2          	4.549510e-01	3.938115e-02	1.248491e-01
44.4          	4.074982e-01	3.936080e-02	1.264930e-01
44.6          	4.493269e-01	3.957967e-02	1.260216e-01
44.8          	4.039317e-01	3.922747e-02	1.264382e-01
45            	4.487754e-01	3.929554e-02	1.250337e-01
45.2          	4.057062e-01	3.876003e-02	1.248643e-01
45.4          	4.524084e-01	3.889601e-02	1.232829e-01
45.6          	4.108092e-01	3.837469e-02	1.229882e-01
45.8          	4.583929e-01	3.854090e-02	1.215441e-01
46            	4.161707e-01	3.812938e-02	1.216781e-01
46.2          	4.632268e-01	3.845624e-02	1.209469e-01
46.4          	4.209994e-01	3.832995e-02	1.216796e-01
46.6          	4.677597e-01	3.888877e-02	1.219105e-01
46.8          	4.230039e-01	3.908803e-02	1.235802e-01
47            	4.672019e-01	3.953944e-02	1.244702e-01
47.2          	4.209932e-01	3.975114e-02	1.264178e-01
47.4          	4.645603e-01	3.982076e-02	1.267652e-01
47.6          	4.181490e-01	3.987923e-02	1.276195e-01
47.8          	4.628453e-01	3.959722e-02	1.268961e-01
48            	4.174311e-01	3.950528e-02	1.266559e-01
48.2          	4.632489e-01	3.904424e-02	1.252304e-01
48.4          	4.172301e-01	3.884750e-02	1.245401e-01
48.6          	4.643852e-01	3.838743e-02	1.228158e-01
48.8          	4.178643e-01	3.817232e-02	1.223084e-01
49            	4.645900e-01	3.789745e-02	1.208323e-01
49.2          	4.174700e-01	3.772826e-02	1.211371e-01
49.4          	4.632564e-01	3.795717e-02	1.205999e-01
49.6          	4.171373e-01	3.807843e-02	1.218870e-01
49.8          	4.610221e-01	3.867263e-02	1.221352e-01
50            	4.131945e-01	3.892583e-02	1.243765e-01
50.2          	4.543216e-01	3.943484e-02	1.249216e-01
50.4          	4.070199e-01	3.939664e-02	1.264360e-01
50.6          	4.489560e-01	3.957380e-02	1.258640e-01
50.8          	4.039305e-01	3.921153e-02	1.261780e-01
51            	4.488232e-01	3.925583e-02	1.247317e-01
51.2          	4.060404e-01	3.872474e-02	1.245766e-01
51.4          	4.528751e-01	3.885502e-02	1.229974e-01
51.6          	4.112876e-01	3.834871e-02	1.227276e-01
51.8          	4.588001e-01	3.850650e-02	1.213757e-01
52            	4.166376e-01	3.813476e-02	1.215645e-01
52.2          	4.637379e-01	3.846952e-02	1.209134e-01
52.4          	4.214889e-01	3.838593e-02	1.217199e-01
52.6          	4.679531e-01	3.894676e-02	1.220405e-01
52.8          	4.229251e-01	3.917593e-02	1.237496e-01
53            	4.670049e-01	3.958590e-02	1.246527e-01
53.2          	4.206785e-01	3.980576e-02	1.265066e-01
53.4          	4.643685e-01	3.981909e-02	1.267616e-01
53.6          	4.179957e-01	3.987394e-02	1.274884e-01
53.8          	4.628622e-01	3.955579e-02	1.266667e-01
54            	4.173437e-01	3.945937e-02	1.263905e-01
54.2          	4.632684e-01	3.897941e-02	1.249158e-01
54.4          	4.172110e-01	3.878098e-02	1.242384e-01
54.6          	4.645344e-01	3.832649e-02	1.225346e-01
54.8          	4.178170e-01	3.811802e-02	1.220754e-01
55            	4.645166e-01	3.785820e-02	1.206758e-01
55.2          	4.173687e-01	3.771950e-02	1.210681e-01
55.4          	4.632792e-01	3.798872e-02	1.205868e-01
55.6          	4.169196e-01	3.814093e-02	1.219928e-01
55.8          	4.605697e-01	3.873698e-02	1.222856e-01
56            	4.126531e-01	3.899323e-02	1.245363e-01
56.2          	4.537813e-01	3.947065e-02	1.250155e-01
56.4          	4.064608e-01	3.940543e-02	1.263994e-01
56.6          	4.487458e-01	3.955692e-02	1.257571e-01
56.8          	4.038428e-01	3.917972e-02	1.259764e-01
57            	4.489729e-01	3.921256e-02	1.245247e-01
57.2          	4.063236e-01	3.868862e-02	1.243565e-01
57.4          	4.533964e-01	3.881416e-02	1.227685e-01
57.6          	4.116593e-01	3.831861e-02	1.225250e-01
57.8          	4.592413e-01	3.848211e-02	1.212240e-01
58            	4.168866e-01	3.812888e-02	1.214744e-01
58.2          	4.642039e-01	3.848275e-02	1.209001e-01
58.4          	4.217078e-01	3.843916e-02	1.217746e-01
58.6          	4.681349e-01	3.899730e-02	1.221707e-01
58.8          	4.227962e-01	3.924188e-02	1.239582e-01
59            	4.668625e-01	3.962149e-02	1.248337e-01
59.2          	4.203624e-01	3.983580e-02	1.266157e-01
59.4          	4.642034e-01	3.980815e-02	1.267847e-01
59.6          	4.178600e-01	3.985992e-02	1.274077e-01
59.8          	4.628740e-01	3.951232e-02	1.265134e-01
60            	4.173182e-01	3.940532e-02	1.261998e-01
60.2          	4.633330e-01	3.891921e-02	1.246839e-01
60.4          	4.172851e-01	3.872084e-02	1.239948e-01
60.6          	4.646638e-01	3.827302e-02	1.223018e-01
60.8          	4.178153e-01	3.806133e-02	1.218989e-01
61            	4.644930e-01	3.783119e-02	1.205817e-01
61.2          	4.172058e-01	3.771362e-02	1.210466e-01
61.4          	4.632704e-01	3.802421e-02	1.206098e-01
61.6          	4.166862e-01	3.820879e-02	1.221261e-01
61.8          	4.599935e-01	3.880523e-02	1.224821e-01
62            	4.120336e-01	3.905324e-02	1.247316e-01
62.2          	4.533257e-01	3.950236e-02	1.251361e-01
62.4          	4.059785e-01	3.941240e-02	1.264034e-01
62.6          	4.485050e-01	3.953899e-02	1.256880e-01
62.8          	4.038677e-01	3.914278e-02	1.258115e-01
63            	4.490933e-01	3.917215e-02	1.243737e-01
63.2          	4.066454e-01	3.866419e-02	1.241889e-01
63.4          	4.538908e-01	3.878211e-02	1.225921e-01
63.6          	4.120756e-01	3.828950e-02	1.223815e-01
63.8          	4.596825e-01	3.846923e-02	1.211153e-01
64            	4.171534e-01	3.813821e-02	1.214180e-01
64.2          	4.645512e-01	3.850160e-02	1.209021e-01
64.4          	4.218653e-01	3.849801e-02	1.218539e-01
64.6          	4.681796e-01	3.904895e-02	1.223215e-01
64.8          	4.225671e-01	3.930530e-02	1.241855e-01
65            	4.666928e-01	3.965417e-02	1.250410e-01
65.2          	4.200472e-01	3.985418e-02	1.267275e-01
65.4          	4.639908e-01	3.979472e-02	1.268257e-01
65.6          	4.177626e-01	3.983748e-02	1.273387e-01
65.8          	4.629349e-01	3.946652e-02	1.263983e-01
66            	4.172922e-01	3.935565e-02	1.260244e-01
66.2          	4.634115e-01	3.886338e-02	1.244860e-01
66.4          	4.173843e-01	3.866101e-02	1.237796e-01
66.6          	4.647226e-01	3.822295e-02	1.221106e-01
66.8          	4.178409e-01	3.801173e-02	1.217366e-01
67            	4.644056e-01	3.782139e-02	1.204989e-01
67.2          	4.170936e-01	3.772192e-02	1.210414e-01
67.4          	4.632959e-01	3.806584e-02	1.206690e-01
67.6          	4.164788e-01	3.827668e-02	1.222833e-01
67.8          	4.594916e-01	3.887313e-02	1.226962e-01
68            	4.114657e-01	3.911003e-02	1.249541e-01
68.2          	4.529270e-01	3.952827e-02	1.252548e-01
68.4          	4.054897e-01	3.941355e-02	1.264216e-01
68.6          	4.483299e-01	3.951604e-02	1.256148e-01
68.8          	4.039614e-01	3.910446e-02	1.256731e-01
69            	4.493764e-01	3.913985e-02	1.242191e-01
69.2          	4.069975e-01	3.863517e-02	1.240271e-01
69.4          	4.544132e-01	3.874845e-02	1.224285e-01
69.6          	4.125174e-01	3.826021e-02	1.222563e-01
69.8          	4.600961e-01	3.845261e-02	1.210368e-01
70            	4.174309e-01	3.814433e-02	1.213803e-01
70.2          	4.649592e-01	3.852125e-02	1.209381e-01
70.4          	4.220940e-01	3.855463e-02	1.219600e-01
70.6          	4.682100e-01	3.910225e-02	1.224923e-01
70.8          	4.223819e-01	3.936139e-02	1.244055e-01
71            	4.664688e-01	3.968155e-02	1.252435e-01
71.2          	4.197505e-01	3.987008e-02	1.268324e-01
71.4          	4.638628e-01	3.977219e-02	1.268639e-01
71.6          	4.176793e-01	3.980411e-02	1.272544e-01
71.8          	4.630644e-01	3.942237e-02	1.262659e-01
72            	4.173048e-01	3.930108e-02	1.258394e-01
72.2          	4.636139e-01	3.879880e-02	1.242833e-01
72.4          	4.175210e-01	3.860201e-02	1.235764e-01
72.6          	4.648548e-01	3.817527e-02	1.219305e-01
72.8          	4.178330e-01	3.796200e-02	1.215969e-01
73            	4.643689e-01	3.781048e-02	1.204198e-01
73.2          	4.171665e-01	3.773835e-02	1.210701e-01
73.4          	4.632658e-01	3.812361e-02	1.207424e-01
73.6          	4.162361e-01	3.834633e-02	1.224647e-01
73.8          	4.590250e-01	3.894608e-02	1.229223e-01
74            	4.108709e-01	3.916534e-02	1.251573e-01
74.2          	4.524611e-01	3.954630e-02	1.253658e-01
74.4          	4.050839e-01	3.940451e-02	1.264202e-01
74.6          	4.482369e-01	3.949285e-02	1.255219e-01
74.8          	4.041327e-01	3.906094e-02	1.255280e-01
75            	4.496666e-01	3.910708e-02	1.240529e-01
75.2          	4.073226e-01	3.860229e-02	1.238715e-01
75.4          	4.549512e-01	3.871801e-02	1.222655e-01
75.6          	4.129614e-01	3.823781e-02	1.221197e-01
75.8          	4.605456e-01	3.844628e-02	1.210023e-01
76            	4.177231e-01	3.816205e-02	1.213651e-01
76.2          	4.654680e-01	3.856090e-02	1.210109e-01
76.4          	4.223287e-01	3.862013e-02	1.221061e-01
76.6          	4.681861e-01	3.916426e-02	1.227043e-01
76.8          	4.222072e-01	3.942172e-02	1.246563e-01
77            	4.662218e-01	3.971134e-02	1.254580e-01
77.2          	4.194708e-01	3.989051e-02	1.269507e-01
77.4          	4.636458e-01	3.975348e-02	1.269016e-01
77.6          	4.175626e-01	3.977084e-02	1.271735e-01
77.8          	4.630857e-01	3.937451e-02	1.261128e-01
78            	4.172451e-01	3.924639e-02	1.256626e-01
78.2          	4.637242e-01	3.873357e-02	1.240492e-01
78.4          	4.175926e-01	3.853978e-02	1.233704e-01
78.6          	4.648998e-01	3.813269e-02	1.217471e-01
78.8          	4.177767e-01	3.791714e-02	1.214942e-01
79            	4.642526e-01	3.780257e-02	1.203765e-01
79.2          	4.172159e-01	3.776136e-02	1.211136e-01
79.4          	4.631472e-01	3.818454e-02	1.208535e-01
79.6          	4.160428e-01	3.841648e-02	1.226640e-01
79.8          	4.585207e-01	3.901867e-02	1.231753e-01
80            	4.102543e-01	3.921131e-02	1.253509e-01
80.2          	4.519420e-01	3.956135e-02	1.254569e-01
80.4          	4.047859e-01	3.938869e-02	1.263916e-01
80.6          	4.481400e-01	3.946424e-02	1.254261e-01
80.8          	4.043255e-01	3.901540e-02	1.253800e-01
81            	4.499973e-01	3.907265e-02	1.238940e-01
81.2          	4.077283e-01	3.857092e-02	1.237225e-01
81.4          	4.554054e-01	3.869001e-02	1.221115e-01
81.6          	4.134643e-01	3.821705e-02	1.220104e-01
81.8          	4.610238e-01	3.844050e-02	1.209608e-01
82            	4.181376e-01	3.817993e-02	1.213496e-01
82.2          	4.659401e-01	3.860109e-02	1.210845e-01
82.4          	4.225133e-01	3.869449e-02	1.222690e-01
82.6          	4.681645e-01	3.923118e-02	1.229315e-01
82.8          	4.220440e-01	3.949114e-02	1.249198e-01
83            	4.659980e-01	3.975272e-02	1.256837e-01
83.2          	4.192169e-01	3.991487e-02	1.270759e-01
83.4          	4.634877e-01	3.974461e-02	1.269285e-01
83.6          	4.174396e-01	3.974433e-02	1.271092e-01
83.8          	4.630815e-01	3.933108e-02	1.259936e-01
84            	4.171745e-01	3.919241e-02	1.254936e-01
84.2          	4.637331e-01	3.867306e-02	1.238412e-01
84.4          	4.176309e-01	3.848315e-02	1.231880e-01
84.6          	4.648863e-01	3.809106e-02	1.215668e-01
84.8          	4.177077e-01	3.786872e-02	1.213893e-01
85            	4.641148e-01	3.779910e-02	1.203632e-01
85.2          	4.172846e-01	3.779063e-02	1.211635e-01
85.4          	4.629968e-01	3.824508e-02	1.209833e-01
85.6          	4.157231e-01	3.849759e-02	1.228854e-01
85.8          	4.580304e-01	3.909083e-02	1.234453e-01
86            	4.097156e-01	3.925809e-02	1.255487e-01
86.2          	4.513714e-01	3.957912e-02	1.255412e-01
86.4          	4.045818e-01	3.937124e-02	1.263856e-01
86.6          	4.480601e-01	3.943375e-02	1.253330e-01
86.8          	4.044910e-01	3.897341e-02	1.252674e-01
87            	4.503439e-01	3.903489e-02	1.237636e-01
87.2          	4.082346e-01	3.853924e-02	1.235714e-01
87.4          	4.558562e-01	3.865825e-02	1.219661e-01
87.6          	4.138528e-01	3.818973e-02	1.219133e-01
87.8          	4.614476e-01	3.842986e-02	1.209028e-01
88            	4.185633e-01	3.818758e-02	1.213480e-01
88.2          	4.664521e-01	3.863314e-02	1.211453e-01
88.4          	4.226889e-01	3.875969e-02	1.224314e-01
88.6          	4.680962e-01	3.928980e-02	1.231549e-01
88.8          	4.218599e-01	3.955097e-02	1.251775e-01
89            	4.657886e-01	3.977908e-02	1.258804e-01
89.2          	4.189911e-01	3.992211e-02	1.271613e-01
89.4          	4.633792e-01	3.972683e-02	1.269373e-01
89.6          	4.173749e-01	3.970895e-02	1.270194e-01
89.8          	4.631191e-01	3.928068e-02	1.258645e-01
90            	4.170837e-01	3.913131e-02	1.253075e-01
90.2          	4.638200e-01	3.861511e-02	1.236379e-01
90.4          	4.176588e-01	3.842263e-02	1.229979e-01
90.6          	4.649281e-01	3.804456e-02	1.213944e-01
90.8          	4.176690e-01	3.782658e-02	1.212775e-01
91            	4.639931e-01	3.779958e-02	1.203442e-01
91.2          	4.173466e-01	3.781485e-02	1.212161e-01
91.4          	4.628443e-01	3.829981e-02	1.211246e-01
91.6          	4.153460e-01	3.857360e-02	1.231073e-01
91.8          	4.575596e-01	3.915305e-02	1.236955e-01
92            	4.092254e-01	3.929679e-02	1.257242e-01
92.2          	4.509034e-01	3.958454e-02	1.256068e-01
92.4          	4.044264e-01	3.935231e-02	1.263711e-01
92.6          	4.480565e-01	3.939930e-02	1.252334e-01
92.8          	4.046372e-01	3.893315e-02	1.251549e-01
93            	4.507734e-01	3.899665e-02	1.236304e-01
93.2          	4.087528e-01	3.850216e-02	1.234014e-01
93.4          	4.563777e-01	3.862537e-02	1.218331e-01
93.6          	4.142974e-01	3.816474e-02	1.218103e-01
93.8          	4.618474e-01	3.842431e-02	1.208785e-01
94            	4.190227e-01	3.820784e-02	1.213739e-01
94.2          	4.667912e-01	3.867120e-02	1.212513e-01
94.4          	4.228179e-01	3.883054e-02	1.226020e-01
94.6          	4.680456e-01	3.934244e-02	1.233904e-01
94.8          	4.216759e-01	3.960561e-02	1.254139e-01
95            	4.655479e-01	3.980104e-02	1.260628e-01
95.2          	4.187356e-01	3.992838e-02	1.272321e-01
95.4          	4.632817e-01	3.970767e-02	1.269188e-01
95.6          	4.173022e-01	3.968004e-02	1.269244e-01
95.8          	4.631969e-01	3.923472e-02	1.257253e-01
96            	4.170141e-01	3.907991e-02	1.251395e-01
96.2          	4.639761e-01	3.856911e-02	1.234485e-01
96.4          	4.175785e-01	3.837565e-02	1.228217e-01
96.6          	4.648360e-01	3.800825e-02	1.212339e-01
96.8          	4.175408e-01	3.779731e-02	1.212113e-01
97            	4.636651e-01	3.781751e-02	1.203454e-01
97.2          	4.172712e-01	3.785543e-02	1.212821e-01
97.4          	4.625696e-01	3.836367e-02	1.212590e-01
97.6          	4.147853e-01	3.864696e-02	1.233287e-01
97.8          	4.568860e-01	3.921335e-02	1.239349e-01
98            	4.087373e-01	3.932899e-02	1.258621e-01
98.2          	4.504186e-01	3.958849e-02	1.256502e-01
98.4          	4.041672e-01	3.933017e-02	1.263289e-01
98.6          	4.481541e-01	3.937273e-02	1.251097e-01
98.8          	4.047326e-01	3.889291e-02	1.250294e-01
99            	4.512010e-01	3.896308e-02	1.234801e-01
99.2          	4.091997e-01	3.846886e-02	1.232294e-01
99.4          	4.568591e-01	3.859716e-02	1.216947e-01
99.6          	4.147265e-01	3.814665e-02	1.217181e-01
99.8          	4.621908e-01	3.841952e-02	1.208371e-01
100           	4.193657e-01	3.823543e-02	1.213938e-01
