/*--------------------------------*- C++ -*----------------------------------*\
  =========                 |
  \\      /  F ield         | OpenFOAM: The Open Source CFD Toolbox
   \\    /   O peration     | Website:  https://openfoam.org
    \\  /    A nd           | Version:  7
     \\/     M anipulation  |
\*---------------------------------------------------------------------------*/
FoamFile
{
    version     2.0;
    format      ascii;
    class       volScalarField;
    location    "0.24";
    object      p;
}
// * * * * * * * * * * * * * * * * * * * * * * * * * * * * * * * * * * * * * //

dimensions      [0 2 -2 0 0 0 0];

internalField   nonuniform List<scalar> 
1600
(
5.81128e-06
-0.00118045
-0.00390979
-0.0075822
-0.0115253
-0.0152437
-0.0183799
-0.0206815
-0.0219812
-0.0221792
-0.0212298
-0.0191311
-0.0159166
-0.0116491
-0.00641597
-0.000324934
0.00649912
0.0139169
0.021777
0.0299187
0.0381738
0.0463697
0.054332
0.061888
0.0688699
0.0751194
0.0804918
0.0848613
0.0881262
0.0902151
0.091093
0.0907688
0.0893025
0.0868154
0.0835005
0.0796371
0.0756051
0.0719129
0.0692281
0.0681131
0.00119745
7.77624e-06
-0.00220778
-0.00505752
-0.00809843
-0.0109655
-0.0133743
-0.0151118
-0.0160279
-0.0160267
-0.0150581
-0.0131107
-0.0102051
-0.00638965
-0.00173537
0.00366704
0.00971045
0.0162739
0.0232252
0.0304229
0.0377191
0.0449619
0.0519981
0.0586766
0.0648514
0.0703859
0.0751567
0.0790581
0.0820074
0.0839494
0.0848621
0.0847626
0.0837127
0.0818253
0.0792711
0.0762839
0.0731655
0.0702919
0.0681096
0.0670001
0.00394129
0.0022146
-3.13567e-05
-0.0025895
-0.00521688
-0.00764381
-0.0096468
-0.0110543
-0.0117406
-0.0116221
-0.0106527
-0.00881917
-0.00613692
-0.00264571
0.00159358
0.00650199
0.0119851
0.0179354
0.0242349
0.0307566
0.0373678
0.0439316
0.0503105
0.0563685
0.0619751
0.0670083
0.0713588
0.0749336
0.0776611
0.0794947
0.0804177
0.080448
0.0796419
0.0780983
0.0759613
0.0734216
0.0707192
0.0681357
0.0659295
0.0643129
0.00770343
0.00509312
0.00245321
-0.000174581
-0.00272845
-0.00500858
-0.00684082
-0.00809348
-0.0086682
-0.00849818
-0.00754674
-0.00580449
-0.00328626
-2.82955e-05
0.0039144
0.00847048
0.0135544
0.0190685
0.0249051
0.0309482
0.037076
0.0431631
0.0490826
0.0547097
0.0599239
0.0646129
0.0686757
0.0720269
0.0745997
0.0763508
0.0772631
0.07735
0.0766579
0.0752684
0.0732986
0.0709003
0.0682656
0.0656097
0.0630197
0.0605519
0.0118902
0.00825153
0.00504436
0.00216503
-0.000491463
-0.00278121
-0.00457169
-0.00576831
-0.0062999
-0.00611813
-0.00519801
-0.00353658
-0.00115094
0.00192363
0.00563554
0.00991873
0.0146944
0.0198724
0.0253535
0.0310304
0.0367903
0.0425163
0.0480904
0.0533957
0.0583191
0.0627548
0.0666073
0.0697948
0.0722526
0.0739369
0.0748274
0.07493
0.0742792
0.0729386
0.070999
0.0685772
0.0658267
0.0629108
0.0597588
0.0562897
0.0160758
0.0113658
0.00749866
0.00425003
0.00136872
-0.00104421
-0.00288981
-0.00410612
-0.00464736
-0.00448348
-0.00360214
-0.00200832
0.000276738
0.00321675
0.00676154
0.0108483
0.015403
0.0203412
0.0255698
0.0309885
0.0364909
0.041967
0.0473049
0.0523933
0.0571238
0.0613945
0.0651123
0.0681962
0.070581
0.0722194
0.0730854
0.0731761
0.0725129
0.0711417
0.0691297
0.0665637
0.0635675
0.0602664
0.0564526
0.0519319
0.019951
0.0141747
0.00960108
0.00590719
0.0027164
9.84052e-05
-0.00187379
-0.00316598
-0.00375507
-0.00362823
-0.00278583
-0.00124159
0.000977932
0.00383392
0.00727597
0.0112429
0.0156634
0.0204571
0.0255353
0.0308024
0.0361569
0.0414932
0.0467033
0.0516792
0.056315
0.0605098
0.0641705
0.0672146
0.0695733
0.0711942
0.0720434
0.0721079
0.0713959
0.0699366
0.0677765
0.0649781
0.0616435
0.0578727
0.0533415
0.0477649
0.0232829
0.0164646
0.0111666
0.00698391
0.00343106
0.000555311
-0.00159
-0.00299389
-0.00365314
-0.00357072
-0.00275919
-0.00124123
0.000950523
0.00377372
0.00717649
0.0110978
0.0154678
0.0202084
0.0252338
0.0304513
0.0357626
0.0410645
0.0462512
0.0512159
0.0558528
0.0600602
0.0637424
0.0668133
0.0691984
0.0708382
0.0716897
0.0717287
0.0709502
0.0693681
0.067011
0.0639218
0.0601883
0.0558946
0.0506173
0.0439969
0.0258896
0.0180562
0.0120309
0.00733694
0.00339234
0.00022838
-0.00211637
-0.00365037
-0.00438777
-0.00434581
-0.00354858
-0.00202766
0.000177904
0.0030215
0.00644885
0.010398
0.0147993
0.0195757
0.0246429
0.0299099
0.0352796
0.0406501
0.0459157
0.0509692
0.0557031
0.0600127
0.063798
0.0669671
0.0694382
0.0711428
0.0720276
0.0720563
0.071211
0.0694913
0.0669102
0.0634952
0.059325
0.0544755
0.0484359
0.0407835
0.0276206
0.0187941
0.0120441
0.00682927
0.00247875
-0.000987561
-0.00354227
-0.00521039
-0.00602136
-0.0060054
-0.00519748
-0.00363787
-0.00137223
0.00154807
0.00506566
0.00911681
0.0136312
0.0185316
0.0237343
0.0291484
0.0346772
0.0402185
0.0456655
0.0509087
0.0558376
0.0603425
0.0643176
0.0676631
0.0702882
0.0721141
0.0730755
0.0731238
0.0722274
0.0703724
0.0675583
0.0637998
0.0591709
0.0537444
0.0469297
0.0382473
0.0283431
0.0185368
0.0110659
0.00532782
0.000567842
-0.00320274
-0.00596529
-0.00775933
-0.0086281
-0.00861389
-0.00776198
-0.00612121
-0.00374401
-0.000686823
0.00298935
0.00721836
0.0119284
0.0170416
0.0224733
0.0281325
0.0339215
0.0397366
0.0454689
0.0510054
0.0562308
0.0610294
0.0652874
0.0688959
0.0717532
0.0737683
0.074863
0.0749748
0.0740583
0.0720861
0.0690451
0.0649393
0.0598407
0.0538226
0.0462183
0.0364947
0.0279316
0.017149
0.00895931
0.00270001
-0.00246551
-0.00653286
-0.00949068
-0.0113918
-0.0122925
-0.0122464
-0.011309
-0.00953767
-0.00699171
-0.00373297
0.000173529
0.00465877
0.00964893
0.0150646
0.0208202
0.0268234
0.032975
0.039169
0.0452933
0.0512304
0.0568591
0.0620561
0.0666984
0.070666
0.0738449
0.0761301
0.0774286
0.0776627
0.0767723
0.0747159
0.0714678
0.0670223
0.0614511
0.0548303
0.0464176
0.0356264
0.0262607
0.0144957
0.00558649
-0.00118968
-0.00675133
-0.0111002
-0.0142317
-0.0162115
-0.0171085
-0.0169879
-0.0159153
-0.0139567
-0.0111786
-0.00764852
-0.00343591
0.00138704
0.00674418
0.0125543
0.0187303
0.0251783
0.031797
0.0384777
0.0451043
0.0515542
0.0576992
0.0634073
0.0685447
0.0729788
0.0765813
0.0792314
0.0808194
0.0812505
0.0804478
0.0783551
0.074933
0.0701659
0.064126
0.0568935
0.0476479
0.0357478
0.0231995
0.0104372
0.000804286
-0.00648295
-0.0124268
-0.0170352
-0.0203103
-0.022331
-0.0231792
-0.0229322
-0.0216659
-0.0194555
-0.0163752
-0.0124985
-0.00789936
-0.00265347
0.00316049
0.00945945
0.0161547
0.0231505
0.0303435
0.0376221
0.0448659
0.0519464
0.0587279
0.0650684
0.0708224
0.0758429
0.0799852
0.0831107
0.0850905
0.0858102
0.0851742
0.0831087
0.0795593
0.0744993
0.0680013
0.0601494
0.0500406
0.0369755
0.0186076
0.00482426
-0.00553961
-0.0133309
-0.0196386
-0.0244777
-0.0278577
-0.0298719
-0.0306163
-0.0301808
-0.028653
-0.026118
-0.022658
-0.0183529
-0.0132816
-0.00752333
-0.00115929
0.00572568
0.0130414
0.0206907
0.0285683
0.0365596
0.04454
0.0523751
0.059921
0.0670253
0.073529
0.0792695
0.0840838
0.0878125
0.0903051
0.0914243
0.0910524
0.0890952
0.0854804
0.080168
0.0732294
0.0647524
0.0537446
0.0394445
0.0123315
-0.00250485
-0.0136102
-0.0218971
-0.0285456
-0.0335791
-0.0370159
-0.0389653
-0.0395394
-0.0388424
-0.0369747
-0.0340324
-0.0301066
-0.0252843
-0.0196494
-0.0132846
-0.00627358
0.00129755
0.00933763
0.0177486
0.0264238
0.0352461
0.0440874
0.0528074
0.0612538
0.0692633
0.0766627
0.083272
0.0889076
0.093387
0.0965341
0.0981853
0.0981965
0.0964488
0.0928482
0.0873373
0.0799847
0.07088
0.0589326
0.0433139
0.00420139
-0.0117287
-0.0235892
-0.0323611
-0.0393215
-0.0445039
-0.0479379
-0.0497516
-0.0500756
-0.0490308
-0.0467324
-0.043289
-0.0388017
-0.0333651
-0.0270685
-0.019998
-0.0122391
-0.00387872
0.00499192
0.0142748
0.0238629
0.0336379
0.0434686
0.0532096
0.0627008
0.0717675
0.0802219
0.0878649
0.0944904
0.0998894
0.103857
0.106197
0.106735
0.105322
0.101836
0.0961977
0.0884689
0.0787388
0.0658076
0.0487733
-0.0059725
-0.0230467
-0.035679
-0.0449222
-0.0521577
-0.0574322
-0.0607897
-0.0623809
-0.0623585
-0.0608636
-0.0580288
-0.0539771
-0.0488211
-0.0426637
-0.0355998
-0.0277187
-0.0191071
-0.00985164
-4.23621e-05
0.0102242
0.0208422
0.0316936
0.0426456
0.053549
0.0642366
0.0745231
0.0842052
0.0930642
0.100869
0.10738
0.11236
0.115576
0.116814
0.115889
0.112644
0.10697
0.0989172
0.0885713
0.0746095
0.0560495
-0.0184037
-0.036684
-0.0501077
-0.0598039
-0.0672674
-0.0725619
-0.0757508
-0.0770125
-0.076527
-0.0744597
-0.0709643
-0.0661809
-0.0602353
-0.0532395
-0.0452943
-0.0364917
-0.0269185
-0.0166598
-0.00580274
0.00555963
0.0173247
0.0293769
0.0415841
0.0537951
0.0658373
0.0775156
0.0886119
0.0988866
0.108082
0.115925
0.12214
0.12645
0.128597
0.128347
0.1255
0.119909
0.111606
0.100664
0.0856239
0.065414
-0.0333347
-0.0528975
-0.0671359
-0.0772598
-0.0848896
-0.0901117
-0.0930154
-0.0938144
-0.0927226
-0.0899357
-0.0856328
-0.0799746
-0.0731019
-0.0651372
-0.0561869
-0.0463453
-0.0356978
-0.0243261
-0.0123123
0.000256827
0.0132847
0.0266609
0.040257
0.0539226
0.0674821
0.0807325
0.0934419
0.10535
0.11617
0.125594
0.1333
0.138963
0.142267
0.142922
0.140671
0.135316
0.126859
0.115357
0.0991914
0.0771926
-0.0510439
-0.071985
-0.0870648
-0.0975807
-0.105295
-0.110324
-0.112794
-0.112962
-0.111087
-0.107401
-0.102116
-0.0954152
-0.0874585
-0.0783791
-0.0682894
-0.0572842
-0.0454464
-0.0328514
-0.0195733
-0.00568963
0.00871264
0.0235322
0.0386479
0.053914
0.0691554
0.0841641
0.0986965
0.112472
0.125176
0.13646
0.145953
0.153271
0.158031
0.159871
0.158462
0.153539
0.145062
0.133056
0.11572
0.0917762
-0.0718551
-0.0942957
-0.110248
-0.121105
-0.128792
-0.13347
-0.135313
-0.134638
-0.131758
-0.126954
-0.120474
-0.112535
-0.103314
-0.0929566
-0.081581
-0.069281
-0.0561338
-0.0422061
-0.02756
-0.0122598
0.00362162
0.0199965
0.036756
0.0537636
0.0708496
0.0878054
0.104379
0.120273
0.135143
0.1486
0.160218
0.169544
0.176116
0.179485
0.179228
0.174991
0.166671
0.154247
0.135702
0.109636
-0.0961519
-0.120247
-0.137106
-0.148229
-0.155737
-0.159852
-0.160815
-0.159023
-0.15486
-0.148667
-0.140741
-0.13133
-0.120637
-0.108819
-0.0959985
-0.0822657
-0.0676891
-0.0523221
-0.0362107
-0.019401
-0.0019466
0.0160841
0.0346003
0.0534809
0.0725677
0.0916574
0.110495
0.128771
0.146112
0.162089
0.176217
0.187964
0.196776
0.202094
0.203377
0.200154
0.192232
0.179516
0.159733
0.131341
-0.124397
-0.150349
-0.168151
-0.17943
-0.186545
-0.189811
-0.189562
-0.186299
-0.180502
-0.172585
-0.162904
-0.151749
-0.139345
-0.125862
-0.111425
-0.0961162
-0.0799907
-0.063084
-0.0454201
-0.0270211
-0.00791507
0.0118554
0.0322246
0.0530944
0.0743257
0.0957284
0.117053
0.137981
0.15812
0.177
0.194072
0.208723
0.220285
0.228068
0.231382
0.2296
0.222399
0.209576
0.188541
0.157588
-0.157163
-0.185236
-0.204013
-0.215281
-0.221704
-0.223728
-0.221823
-0.216633
-0.208755
-0.198702
-0.186897
-0.173674
-0.159287
-0.143915
-0.127677
-0.110647
-0.0928574
-0.0743204
-0.0550316
-0.0349817
-0.0141663
0.00740544
0.0297009
0.0526539
0.0761536
0.100033
0.124058
0.147914
0.171193
0.193391
0.2139
0.232012
0.246935
0.257819
0.263785
0.264001
0.257962
0.245299
0.223025
0.189232
-0.195174
-0.225715
-0.24549
-0.25649
-0.261789
-0.262031
-0.257878
-0.250164
-0.239644
-0.226945
-0.212572
-0.196908
-0.18023
-0.162722
-0.144494
-0.125597
-0.106039
-0.0857976
-0.0648318
-0.043094
-0.0205388
0.0028663
0.027131
0.0522309
0.078095
0.104592
0.131515
0.158566
0.185339
0.211303
0.235795
0.258013
0.277026
0.291795
0.301205
0.304155
0.299881
0.287768
0.264311
0.227339
-0.239376
-0.272841
-0.293601
-0.303935
-0.307485
-0.305193
-0.297997
-0.286985
-0.273112
-0.257146
-0.23968
-0.221146
-0.201837
-0.181934
-0.161524
-0.140627
-0.119213
-0.0972153
-0.0745489
-0.0511178
-0.0268272
-0.00159359
0.0246448
0.0519165
0.0802028
0.109423
0.139414
0.169913
0.200532
0.230734
0.259813
0.286878
0.310849
0.330471
0.34434
0.351001
0.34933
0.338341
0.313828
0.273264
-0.291036
-0.328024
-0.34968
-0.358718
-0.359602
-0.353724
-0.342416
-0.327105
-0.308993
-0.289009
-0.267838
-0.245954
-0.223652
-0.20109
-0.178318
-0.155308
-0.131978
-0.108208
-0.0838544
-0.0587654
-0.032787
-0.00577532
0.0223937
0.0518131
0.0825306
0.114532
0.14772
0.181889
0.216694
0.25162
0.285942
0.318696
0.348656
0.374329
0.393961
0.405643
0.40775
0.398742
0.373428
0.32876
-0.351913
-0.393199
-0.415497
-0.422232
-0.41909
-0.40815
-0.391296
-0.370396
-0.34695
-0.322061
-0.296496
-0.270744
-0.245078
-0.219608
-0.194322
-0.169125
-0.143864
-0.11835
-0.0923734
-0.0657124
-0.0381463
-0.00946166
0.0205379
0.0520216
0.0851182
0.119899
0.156354
0.194364
0.233664
0.273796
0.314057
0.353446
0.39061
0.42381
0.450887
0.469362
0.476919
0.471195
0.445566
0.396159
-0.424528
-0.471082
-0.493437
-0.496232
-0.487033
-0.468956
-0.444643
-0.416519
-0.386416
-0.355602
-0.324888
-0.294741
-0.265366
-0.236783
-0.208887
-0.181487
-0.154342
-0.127177
-0.0997014
-0.0716165
-0.0426252
-0.0124367
0.0192265
0.0526209
0.0879704
0.125451
0.165166
0.207117
0.25116
0.296949
0.343862
0.390922
0.436703
0.479238
0.515933
0.543609
0.559024
0.558599
0.533568
0.478671
-0.512646
-0.565589
-0.586735
-0.582906
-0.564605
-0.536482
-0.502187
-0.464801
-0.42649
-0.388627
-0.351998
-0.316966
-0.283603
-0.251786
-0.221273
-0.191746
-0.162849
-0.134205
-0.105432
-0.0761447
-0.0459632
-0.0145133
0.0185705
0.0536405
0.0910285
0.131033
0.1739
0.219788
0.268727
0.32055
0.374803
0.43063
0.48663
0.540691
0.589791
0.62995
0.656727
0.664781
0.642073
0.580894
-0.622137
-0.68249
-0.699794
-0.684906
-0.652934
-0.610725
-0.563183
-0.514076
-0.465819
-0.419755
-0.376506
-0.336214
-0.298721
-0.263689
-0.230685
-0.199227
-0.168821
-0.138971
-0.109193
-0.079009
-0.0479537
-0.0155663
0.0186097
0.055028
0.0941376
0.136376
0.182155
0.231834
0.285674
0.343773
0.405958
0.471639
0.53961
0.607779
0.672821
0.729926
0.773193
0.79481
0.777712
0.70974
-0.762615
-0.83046
-0.838552
-0.805263
-0.752812
-0.691001
-0.626109
-0.562457
-0.50245
-0.447142
-0.396763
-0.351062
-0.309521
-0.271499
-0.236312
-0.203279
-0.171742
-0.141077
-0.110688
-0.0800079
-0.0484831
-0.0155695
0.0192786
0.0566162
0.0970136
0.141058
0.189349
0.242483
0.301015
0.365406
0.435905
0.512391
0.594115
0.679321
0.764677
0.844727
0.911984
0.955361
0.950202
0.876195
-0.950769
-1.02277
-1.01074
-0.946952
-0.864049
-0.775337
-0.688211
-0.607032
-0.53366
-0.468409
-0.410782
-0.359895
-0.314722
-0.274218
-0.237393
-0.203331
-0.171201
-0.14024
-0.109748
-0.079067
-0.0475676
-0.014629
0.0203754
0.0580951
0.0992175
0.144481
0.194685
0.25069
0.313406
0.383752
0.462568
0.550459
0.647508
0.752805
0.863636
0.974483
1.07657
1.15496
1.17408
1.09888
-1.21711
-1.2797
-1.22548
-1.11153
-0.984065
-0.859368
-0.744752
-0.643428
-0.55574
-0.480569
-0.416238
-0.360957
-0.313024
-0.27091
-0.233273
-0.198952
-0.166936
-0.136337
-0.106359
-0.0762721
-0.0453815
-0.0130074
0.0215418
0.0589939
0.100139
0.145854
0.197135
0.255118
0.321101
0.396547
0.483053
0.582239
0.69551
0.823559
0.965369
1.11671
1.26883
1.40346
1.47113
1.41115
-1.61764
-1.63093
-1.4915
-1.29671
-1.10589
-0.935007
-0.788315
-0.66555
-0.563987
-0.480144
-0.410644
-0.352518
-0.303268
-0.260831
-0.223516
-0.189928
-0.158902
-0.12945
-0.100705
-0.071887
-0.0422644
-0.0111206
0.0222761
0.0587058
0.0990329
0.144246
0.195507
0.254208
0.322032
0.401027
0.493663
0.602853
0.731866
0.883982
1.06156
1.26423
1.4865
1.71006
1.87237
1.87265
-2.2544
-2.11586
-1.81359
-1.49443
-1.21742
-0.990516
-0.80942
-0.666459
-0.553631
-0.464018
-0.392072
-0.333475
-0.284905
-0.243806
-0.208188
-0.176483
-0.147426
-0.119969
-0.0932174
-0.0663762
-0.0387059
-0.00948533
0.0220252
0.0566227
0.0952051
0.138824
0.188753
0.246575
0.314298
0.394509
0.490573
0.606863
0.748996
0.92395
1.13978
1.40421
1.72095
2.0794
2.41783
2.58902
-3.35614
-2.78296
-2.17273
-1.67591
-1.2926
-1.00574
-0.794161
-0.637286
-0.51934
-0.429183
-0.358982
-0.30319
-0.257845
-0.220064
-0.187705
-0.159137
-0.133079
-0.108491
-0.0845024
-0.060344
-0.0353079
-0.0087046
0.0201755
0.0521024
0.0879545
0.128779
0.17587
0.230887
0.29601
0.374182
0.469466
0.587561
0.736544
0.92791
1.17799
1.50837
1.94106
2.49112
3.15772
3.79466
-5.52259
-3.65931
-2.43085
-1.71435
-1.24188
-0.921874
-0.704917
-0.554009
-0.445525
-0.365235
-0.304209
-0.256589
-0.218418
-0.186932
-0.160138
-0.136542
-0.114992
-0.0945596
-0.0744714
-0.0540488
-0.0326669
-0.00971801
0.0154241
0.043441
0.0751138
0.11138
0.153412
0.202733
0.261387
0.332215
0.4193
0.528706
0.669719
0.857123
1.11547
1.484
2.01615
2.80529
4.12187
6.09344
-9.21004
-4.51834
-2.30603
-1.42124
-0.95892
-0.682872
-0.512231
-0.400571
-0.322911
-0.266415
-0.223895
-0.190917
-0.164576
-0.14286
-0.124315
-0.107842
-0.0925817
-0.0778364
-0.0630158
-0.0475988
-0.0311025
-0.013056
0.00702557
0.0296679
0.0554696
0.0851435
0.119574
0.159898
0.207637
0.264901
0.334751
0.421851
0.533747
0.683725
0.897415
1.22408
1.75395
2.73304
5.06019
9.8724
)
;

boundaryField
{
    movingWall
    {
        type            zeroGradient;
    }
    fixedWalls
    {
        type            zeroGradient;
    }
    frontAndBack
    {
        type            empty;
    }
}


// ************************************************************************* //
