/*--------------------------------*- C++ -*----------------------------------*\
  =========                 |
  \\      /  F ield         | OpenFOAM: The Open Source CFD Toolbox
   \\    /   O peration     | Website:  https://openfoam.org
    \\  /    A nd           | Version:  7
     \\/     M anipulation  |
\*---------------------------------------------------------------------------*/
FoamFile
{
    version     2.0;
    format      ascii;
    class       surfaceScalarField;
    location    "0.24";
    object      phi;
}
// * * * * * * * * * * * * * * * * * * * * * * * * * * * * * * * * * * * * * //

dimensions      [0 3 -1 0 0 0 0];

internalField   nonuniform List<scalar> 
3120
(
2.53489e-09
-2.54749e-09
4.09542e-09
-1.56056e-09
2.25197e-09
1.8434e-09
-3.5537e-09
5.80565e-09
-1.31328e-08
9.57907e-09
-2.59769e-08
1.28441e-08
-4.14468e-08
1.54699e-08
-5.88662e-08
1.74195e-08
-7.75678e-08
1.87017e-08
-9.6915e-08
1.93473e-08
-1.16314e-07
1.93988e-08
-1.35218e-07
1.89044e-08
-1.53134e-07
1.79155e-08
-1.69618e-07
1.64846e-08
-1.84283e-07
1.4665e-08
-1.96793e-07
1.25104e-08
-2.06869e-07
1.00751e-08
-2.14283e-07
7.41412e-09
-2.18866e-07
4.58364e-09
-2.20508e-07
1.6415e-09
-2.19155e-07
-1.35247e-09
-2.14819e-07
-4.3362e-09
-2.07574e-07
-7.24529e-09
-1.97561e-07
-1.00131e-08
-1.8499e-07
-1.25714e-08
-1.70139e-07
-1.48505e-08
-1.53358e-07
-1.67811e-08
-1.35064e-07
-1.82946e-08
-1.15738e-07
-1.93255e-08
-9.59255e-08
-1.98128e-08
-7.62232e-08
-1.97023e-08
-5.7274e-08
-1.89493e-08
-3.97521e-08
-1.7522e-08
-2.4345e-08
-1.54072e-08
-1.17247e-08
-1.26205e-08
-2.49683e-09
-9.22791e-09
2.89506e-09
-5.3919e-09
4.35678e-09
-1.46167e-09
2.56069e-09
1.79614e-09
2.56067e-09
1.61475e-09
-4.16228e-09
-1.1739e-09
1.22791e-09
-1.17148e-08
1.23841e-08
-3.10675e-08
2.51583e-08
-5.90305e-08
3.75421e-08
-9.46606e-08
4.84742e-08
-1.36609e-07
5.74183e-08
-1.83337e-07
6.41473e-08
-2.33245e-07
6.86097e-08
-2.84753e-07
7.0855e-08
-3.36347e-07
7.09926e-08
-3.8661e-07
6.91677e-08
-4.34242e-07
6.55475e-08
-4.7807e-07
6.03121e-08
-5.17055e-07
5.36501e-08
-5.503e-07
4.57557e-08
-5.77053e-07
3.68281e-08
-5.9671e-07
2.70713e-08
-6.08821e-07
1.66947e-08
-6.13094e-07
5.91403e-09
-6.09398e-07
-5.04791e-09
-5.97774e-07
-1.5961e-08
-5.78431e-07
-2.65875e-08
-5.51761e-07
-3.66836e-08
-5.18332e-07
-4.60005e-08
-4.78894e-07
-5.42879e-08
-4.34378e-07
-6.12973e-08
-3.85885e-07
-6.67878e-08
-3.34678e-07
-7.05322e-08
-2.82166e-07
-7.23243e-08
-2.2988e-07
-7.19889e-08
-1.79436e-07
-6.93933e-08
-1.32494e-07
-6.44633e-08
-9.06947e-08
-5.72067e-08
-5.55637e-08
-4.77513e-08
-2.8378e-08
-3.64136e-08
-9.9483e-09
-2.38217e-08
-2.9394e-10
-1.11161e-08
1.85348e-09
-3.51281e-10
4.41418e-09
-1.66826e-09
-2.49407e-09
-1.21151e-08
1.16747e-08
-3.40824e-08
3.43514e-08
-6.84322e-08
5.9508e-08
-1.14751e-07
8.38611e-08
-1.71754e-07
1.05477e-07
-2.37608e-07
1.23273e-07
-3.10178e-07
1.36717e-07
-3.87194e-07
1.45626e-07
-4.66374e-07
1.50035e-07
-5.45498e-07
1.50116e-07
-6.22465e-07
1.46135e-07
-6.95329e-07
1.38412e-07
-7.62324e-07
1.27307e-07
-8.21881e-07
1.13206e-07
-8.72638e-07
9.65126e-08
-9.13453e-07
7.76436e-08
-9.43412e-07
5.70303e-08
-9.61834e-07
3.51166e-08
-9.6828e-07
1.23602e-08
-9.62562e-07
-1.07666e-08
-9.44746e-07
-3.37768e-08
-9.15164e-07
-5.61695e-08
-8.74415e-07
-7.74325e-08
-8.2337e-07
-9.70462e-08
-7.63168e-07
-1.1449e-07
-6.95212e-07
-1.29252e-07
-6.2116e-07
-1.4084e-07
-5.429e-07
-1.48793e-07
-4.62521e-07
-1.52703e-07
-3.82277e-07
-1.52233e-07
-3.04528e-07
-1.47143e-07
-2.31663e-07
-1.37328e-07
-1.66007e-07
-1.22863e-07
-1.09683e-07
-1.04075e-07
-6.44341e-08
-8.16625e-08
-3.1377e-08
-5.68789e-08
-1.06896e-08
-3.18035e-08
-1.23918e-09
-9.80169e-09
3.17504e-09
-5.56776e-09
3.07361e-09
-2.49721e-08
3.10791e-08
-5.96702e-08
6.90495e-08
-1.09838e-07
1.09676e-07
-1.74585e-07
1.48608e-07
-2.52204e-07
1.83097e-07
-3.40426e-07
2.11494e-07
-4.36632e-07
2.32923e-07
-5.38035e-07
2.47029e-07
-6.41806e-07
2.53806e-07
-7.45176e-07
2.53486e-07
-8.45505e-07
2.46464e-07
-9.40334e-07
2.33241e-07
-1.02742e-06
2.14393e-07
-1.10476e-06
1.90551e-07
-1.17063e-06
1.62378e-07
-1.22356e-06
1.30571e-07
-1.26238e-06
9.58517e-08
-1.28623e-06
5.89634e-08
-1.29454e-06
2.06753e-08
-1.28709e-06
-1.82199e-08
-1.26396e-06
-5.69058e-08
-1.22558e-06
-9.4545e-08
-1.17273e-06
-1.30283e-07
-1.10652e-06
-1.63258e-07
-1.0284e-06
-1.92607e-07
-9.40167e-07
-2.17489e-07
-8.43911e-07
-2.37096e-07
-7.4202e-07
-2.50684e-07
-6.37125e-07
-2.57598e-07
-5.32047e-07
-2.57311e-07
-4.29724e-07
-2.49466e-07
-3.33116e-07
-2.33936e-07
-2.45085e-07
-2.10893e-07
-1.68245e-07
-1.80915e-07
-1.04773e-07
-1.45135e-07
-5.61848e-08
-1.05467e-07
-2.30957e-08
-6.48927e-08
-4.98549e-09
-2.79119e-08
-1.81042e-09
-9.46635e-09
1.25399e-08
-3.81647e-08
5.97775e-08
-8.60541e-08
1.16939e-07
-1.52349e-07
1.7597e-07
-2.3548e-07
2.31739e-07
-3.3321e-07
2.80827e-07
-4.42802e-07
3.21086e-07
-5.6119e-07
3.51312e-07
-6.85139e-07
3.70978e-07
-8.11372e-07
3.80038e-07
-9.36674e-07
3.78788e-07
-1.05797e-06
3.67762e-07
-1.17239e-06
3.47664e-07
-1.27732e-06
3.19318e-07
-1.3704e-06
2.83632e-07
-1.4496e-06
2.41578e-07
-1.51321e-06
1.94176e-07
-1.55984e-06
1.42486e-07
-1.58849e-06
8.76081e-08
-1.59849e-06
3.06763e-08
-1.58957e-06
-2.71392e-08
-1.56184e-06
-8.46349e-08
-1.5158e-06
-1.40578e-07
-1.45237e-06
-1.93714e-07
-1.37285e-06
-2.42778e-07
-1.27895e-06
-2.86513e-07
-1.17275e-06
-3.23689e-07
-1.05671e-06
-3.53137e-07
-9.3361e-07
-3.73782e-07
-8.06517e-07
-3.84691e-07
-6.78711e-07
-3.85117e-07
-5.53602e-07
-3.74575e-07
-4.34631e-07
-3.52908e-07
-3.25132e-07
-3.20393e-07
-2.28184e-07
-2.77863e-07
-1.46436e-07
-2.26882e-07
-8.19253e-08
-1.69978e-07
-3.59074e-08
-1.1091e-07
-8.75395e-09
-5.50654e-08
-1.05643e-08
-1.31594e-08
2.56992e-08
-5.10146e-08
9.76328e-08
-1.12064e-07
1.77988e-07
-1.9445e-07
2.58356e-07
-2.95797e-07
3.33087e-07
-4.13243e-07
3.98273e-07
-5.43528e-07
4.51371e-07
-6.83131e-07
4.90914e-07
-8.28392e-07
5.16239e-07
-9.75635e-07
5.27282e-07
-1.12127e-06
5.2442e-07
-1.26185e-06
5.08349e-07
-1.39419e-06
4.8e-07
-1.51534e-06
4.4047e-07
-1.62269e-06
3.9098e-07
-1.71395e-06
3.32841e-07
-1.78721e-06
2.67434e-07
-1.84092e-06
1.96201e-07
-1.87395e-06
1.20636e-07
-1.88556e-06
4.22836e-08
-1.87543e-06
-3.72653e-08
-1.84369e-06
-1.16375e-07
-1.7909e-06
-1.93372e-07
-1.71806e-06
-2.66554e-07
-1.62663e-06
-3.34208e-07
-1.51851e-06
-3.94634e-07
-1.39603e-06
-4.46172e-07
-1.26192e-06
-4.87246e-07
-1.11928e-06
-5.16414e-07
-9.71554e-07
-5.32421e-07
-8.22394e-07
-5.34278e-07
-6.75631e-07
-5.21338e-07
-5.35139e-07
-4.93399e-07
-4.04713e-07
-4.50819e-07
-2.87917e-07
-3.94658e-07
-1.87938e-07
-3.26862e-07
-1.07436e-07
-2.50479e-07
-4.84422e-08
-1.69904e-07
-1.23336e-08
-9.1174e-08
-2.28979e-08
-1.66067e-08
4.23059e-08
-6.32956e-08
1.44322e-07
-1.37238e-07
2.51931e-07
-2.35491e-07
3.56608e-07
-3.54812e-07
4.52408e-07
-4.91637e-07
5.35099e-07
-6.42138e-07
6.01871e-07
-8.02304e-07
6.5108e-07
-9.68054e-07
6.81989e-07
-1.13533e-06
6.94562e-07
-1.30021e-06
6.89291e-07
-1.45893e-06
6.67069e-07
-1.608e-06
6.29079e-07
-1.74426e-06
5.76723e-07
-1.86484e-06
5.11561e-07
-1.96727e-06
4.35276e-07
-2.04948e-06
3.49641e-07
-2.10979e-06
2.56509e-07
-2.14695e-06
1.57802e-07
-2.16017e-06
5.5504e-08
-2.1491e-06
-4.83381e-08
-2.11385e-06
-1.51623e-07
-2.05502e-06
-2.52202e-07
-1.97369e-06
-3.47889e-07
-1.87141e-06
-4.36485e-07
-1.75024e-06
-5.15809e-07
-1.61268e-06
-5.83729e-07
-1.4617e-06
-6.38225e-07
-1.30067e-06
-6.77442e-07
-1.13332e-06
-6.9977e-07
-9.63668e-07
-7.03932e-07
-7.95922e-07
-6.89084e-07
-6.34386e-07
-6.54935e-07
-4.83326e-07
-6.0188e-07
-3.46835e-07
-5.31149e-07
-2.28702e-07
-4.44994e-07
-1.32294e-07
-3.46887e-07
-6.04882e-08
-2.4171e-07
-1.56857e-08
-1.35977e-07
-3.85835e-08
-1.98374e-08
6.21433e-08
-7.5012e-08
1.99497e-07
-1.61512e-07
3.38431e-07
-2.75343e-07
4.70439e-07
-4.12372e-07
5.89437e-07
-5.68294e-07
6.9102e-07
-7.3866e-07
7.72238e-07
-9.18947e-07
8.31366e-07
-1.10463e-06
8.67677e-07
-1.2913e-06
8.81222e-07
-1.47467e-06
8.72663e-07
-1.65073e-06
8.43128e-07
-1.81574e-06
7.94092e-07
-1.96631e-06
7.27293e-07
-2.09941e-06
6.44662e-07
-2.21241e-06
5.48277e-07
-2.3031e-06
4.4033e-07
-2.3697e-06
3.23111e-07
-2.41089e-06
1.9899e-07
-2.42581e-06
7.04163e-08
-2.41406e-06
-6.00869e-08
-2.37575e-06
-1.89928e-07
-2.3115e-06
-3.16457e-07
-2.22241e-06
-4.36978e-07
-2.11011e-06
-5.48777e-07
-1.97677e-06
-6.49154e-07
-1.82502e-06
-7.35474e-07
-1.65802e-06
-8.05226e-07
-1.47936e-06
-8.56103e-07
-1.29304e-06
-8.8609e-07
-1.1034e-06
-8.93571e-07
-9.15035e-07
-8.77453e-07
-7.32675e-07
-8.37296e-07
-5.61091e-07
-7.73464e-07
-4.04953e-07
-6.87287e-07
-2.68712e-07
-5.81235e-07
-1.56502e-07
-4.59097e-07
-7.20801e-08
-3.26133e-07
-1.8847e-08
-1.8921e-07
-5.74305e-08
-2.29039e-08
8.5047e-08
-8.62694e-08
2.62862e-07
-1.85021e-07
4.37182e-07
-3.14159e-07
5.99577e-07
-4.68658e-07
7.43936e-07
-6.43445e-07
8.65807e-07
-8.33422e-07
9.62215e-07
-1.03352e-06
1.03146e-06
-1.23877e-06
1.07292e-06
-1.44436e-06
1.08681e-06
-1.64572e-06
1.07402e-06
-1.83856e-06
1.03597e-06
-2.01894e-06
9.74471e-07
-2.18328e-06
8.9163e-07
-2.3284e-06
7.89782e-07
-2.45155e-06
6.71428e-07
-2.55042e-06
5.392e-07
-2.62315e-06
3.95839e-07
-2.66834e-06
2.44183e-07
-2.68508e-06
8.71578e-08
-2.67295e-06
-7.22218e-08
-2.63201e-06
-2.30861e-07
-2.56288e-06
-3.8559e-07
-2.46668e-06
-5.33184e-07
-2.34506e-06
-6.70388e-07
-2.20026e-06
-7.93958e-07
-2.03502e-06
-9.00716e-07
-1.85262e-06
-9.87622e-07
-1.65686e-06
-1.05186e-06
-1.45198e-06
-1.09097e-06
-1.24264e-06
-1.10292e-06
-1.03379e-06
-1.0863e-06
-8.30648e-07
-1.04044e-06
-6.38503e-07
-9.6561e-07
-4.62652e-07
-8.63138e-07
-3.08264e-07
-7.35622e-07
-1.80284e-07
-5.87078e-07
-8.33664e-08
-4.2305e-07
-2.1882e-08
-2.50694e-07
-7.93124e-08
-2.58619e-08
1.10909e-07
-9.72094e-08
3.3421e-07
-2.07984e-07
5.47957e-07
-3.52223e-07
7.43815e-07
-5.24012e-07
9.15725e-07
-7.17493e-07
1.05929e-06
-9.26896e-07
1.17162e-06
-1.14658e-06
1.25115e-06
-1.37111e-06
1.29746e-06
-1.5953e-06
1.311e-06
-1.81426e-06
1.29298e-06
-2.02347e-06
1.24518e-06
-2.21878e-06
1.16978e-06
-2.39646e-06
1.06931e-06
-2.55322e-06
9.46546e-07
-2.68622e-06
8.04427e-07
-2.79307e-06
6.46045e-07
-2.87184e-06
4.74608e-07
-2.92108e-06
2.93427e-07
-2.93983e-06
1.05912e-07
-2.92763e-06
-8.44273e-08
-2.8845e-06
-2.73985e-07
-2.81103e-06
-4.59066e-07
-2.70831e-06
-6.35903e-07
-2.57802e-06
-8.00681e-07
-2.42239e-06
-9.49587e-07
-2.24424e-06
-1.07886e-06
-2.04697e-06
-1.1849e-06
-1.83451e-06
-1.26432e-06
-1.61136e-06
-1.31412e-06
-1.38245e-06
-1.33182e-06
-1.15315e-06
-1.31559e-06
-9.29129e-07
-1.26447e-06
-7.16259e-07
-1.17848e-06
-5.20508e-07
-1.05889e-06
-3.4781e-07
-9.08319e-07
-2.03963e-07
-7.30925e-07
-9.45411e-08
-5.32472e-07
-2.48616e-08
-3.20374e-07
-1.04174e-07
-2.87635e-08
1.39672e-07
-1.07978e-07
4.13425e-07
-2.3065e-07
6.70628e-07
-3.8987e-07
9.03036e-07
-5.7884e-07
1.1047e-06
-7.90905e-07
1.27135e-06
-1.0196e-06
1.40031e-06
-1.2587e-06
1.49025e-06
-1.50228e-06
1.54104e-06
-1.74478e-06
1.55349e-06
-1.981e-06
1.52921e-06
-2.20619e-06
1.47037e-06
-2.41603e-06
1.37962e-06
-2.60669e-06
1.25996e-06
-2.77476e-06
1.11462e-06
-2.91735e-06
9.47012e-07
-3.032e-06
7.60703e-07
-3.11677e-06
5.59371e-07
-3.17014e-06
3.46804e-07
-3.19113e-06
1.26895e-07
-3.1792e-06
-9.63566e-08
-3.13434e-06
-3.18838e-07
-3.05708e-06
-5.36328e-07
-2.94847e-06
-7.44512e-07
-2.81015e-06
-9.39005e-07
-2.64434e-06
-1.1154e-06
-2.45388e-06
-1.26932e-06
-2.24223e-06
-1.39655e-06
-2.01347e-06
-1.49308e-06
-1.77228e-06
-1.55531e-06
-1.5239e-06
-1.5802e-06
-1.27409e-06
-1.56541e-06
-1.02901e-06
-1.50955e-06
-7.95143e-07
-1.41234e-06
-5.7918e-07
-1.27485e-06
-3.8787e-07
-1.09963e-06
-2.27905e-07
-8.90889e-07
-1.0581e-07
-6.54567e-07
-2.78553e-08
-3.98329e-07
-1.32029e-07
-3.16551e-08
1.71327e-07
-1.18715e-07
5.00485e-07
-2.53259e-07
8.05171e-07
-4.27437e-07
1.07721e-06
-6.33556e-07
1.31081e-06
-8.64143e-07
1.50194e-06
-1.11202e-06
1.64819e-06
-1.37036e-06
1.7486e-06
-1.63276e-06
1.80344e-06
-1.89325e-06
1.81399e-06
-2.14637e-06
1.78232e-06
-2.38713e-06
1.71113e-06
-2.6111e-06
1.60359e-06
-2.81431e-06
1.46318e-06
-2.99333e-06
1.29364e-06
-3.14521e-06
1.0989e-06
-3.2675e-06
8.82991e-07
-3.35821e-06
6.50074e-07
-3.41581e-06
4.04404e-07
-3.43925e-06
1.50342e-07
-3.42798e-06
-1.07631e-07
-3.38191e-06
-3.6491e-07
-3.30148e-06
-6.1676e-07
-3.18767e-06
-8.58321e-07
-3.04204e-06
-1.08463e-06
-2.86677e-06
-1.29067e-06
-2.66466e-06
-1.47143e-06
-2.43921e-06
-1.622e-06
-2.19458e-06
-1.7377e-06
-1.93564e-06
-1.81425e-06
-1.6679e-06
-1.84793e-06
-1.39751e-06
-1.8358e-06
-1.13115e-06
-1.77591e-06
-8.75946e-07
-1.66755e-06
-6.39347e-07
-1.51145e-06
-4.28977e-07
-1.31e-06
-2.52479e-07
-1.06739e-06
-1.17376e-07
-7.8967e-07
-3.09283e-08
-4.84777e-07
-1.62957e-07
-3.45768e-08
2.05904e-07
-1.29545e-07
5.95454e-07
-2.76037e-07
9.51663e-07
-4.65241e-07
1.26642e-06
-6.88542e-07
1.53411e-06
-9.37628e-07
1.75103e-06
-1.20459e-06
1.91515e-06
-1.48198e-06
2.02599e-06
-1.76289e-06
2.08435e-06
-2.041e-06
2.09209e-06
-2.31054e-06
2.05186e-06
-2.56636e-06
1.96696e-06
-2.8039e-06
1.84112e-06
-3.01915e-06
1.67843e-06
-3.20865e-06
1.48314e-06
-3.36946e-06
1.25971e-06
-3.49913e-06
1.01266e-06
-3.59567e-06
7.46614e-07
-3.65756e-06
4.66289e-07
-3.68371e-06
1.76494e-07
-3.6735e-06
-1.17837e-07
-3.62678e-06
-4.11631e-07
-3.54388e-06
-6.99656e-07
-3.42568e-06
-9.76524e-07
-3.27361e-06
-1.2367e-06
-3.08975e-06
-1.47454e-06
-2.87683e-06
-1.68435e-06
-2.63831e-06
-1.86052e-06
-2.3784e-06
-1.99761e-06
-2.10211e-06
-2.09054e-06
-1.81521e-06
-2.13484e-06
-1.52422e-06
-2.12679e-06
-1.23636e-06
-2.06377e-06
-9.59419e-07
-1.94449e-06
-7.01664e-07
-1.76921e-06
-4.71649e-07
-1.54001e-06
-2.78043e-07
-1.26099e-06
-1.29434e-07
-9.38279e-07
-3.41409e-08
-5.8007e-07
-1.97098e-07
-3.7564e-08
2.43468e-07
-1.40581e-07
6.98471e-07
-2.99188e-07
1.11027e-06
-5.03566e-07
1.4708e-06
-7.44137e-07
1.77469e-06
-1.01171e-06
2.01861e-06
-1.29763e-06
2.20106e-06
-1.5938e-06
2.32216e-06
-1.89283e-06
2.38338e-06
-2.18801e-06
2.38727e-06
-2.47334e-06
2.33719e-06
-2.74352e-06
2.23714e-06
-2.99391e-06
2.09151e-06
-3.22049e-06
1.90501e-06
-3.41984e-06
1.68249e-06
-3.58904e-06
1.42892e-06
-3.72571e-06
1.14932e-06
-3.82788e-06
8.48792e-07
-3.89406e-06
5.32465e-07
-3.92314e-06
2.05572e-07
-3.91444e-06
-1.26537e-07
-3.86771e-06
-4.58357e-07
-3.78317e-06
-7.84195e-07
-3.66154e-06
-1.09816e-06
-3.50409e-06
-1.39415e-06
-3.31272e-06
-1.6659e-06
-3.09004e-06
-1.90703e-06
-2.83942e-06
-2.11114e-06
-2.56505e-06
-2.27197e-06
-2.27202e-06
-2.38357e-06
-1.96632e-06
-2.44054e-06
-1.65484e-06
-2.43827e-06
-1.34531e-06
-2.3733e-06
-1.04623e-06
-2.24356e-06
-7.66735e-07
-2.0487e-06
-5.16375e-07
-1.79037e-06
-3.04933e-07
-1.47243e-06
-1.42165e-07
-1.10105e-06
-3.75496e-08
-6.84685e-07
-2.34648e-07
-4.06486e-08
2.84116e-07
-1.51926e-07
8.09749e-07
-3.22899e-07
1.28124e-06
-5.42669e-07
1.69057e-06
-8.00636e-07
2.03265e-06
-1.08669e-06
2.30466e-06
-1.39136e-06
2.50572e-06
-1.70592e-06
2.63673e-06
-2.0225e-06
2.69995e-06
-2.33401e-06
2.69879e-06
-2.63427e-06
2.63745e-06
-2.91784e-06
2.52071e-06
-3.18009e-06
2.35375e-06
-3.41703e-06
2.14195e-06
-3.62532e-06
1.89078e-06
-3.80216e-06
1.60576e-06
-3.94525e-06
1.29242e-06
-4.05273e-06
9.56265e-07
-4.12311e-06
6.02845e-07
-4.1553e-06
2.37761e-07
-4.14856e-06
-1.33271e-07
-4.10255e-06
-5.04365e-07
-4.01733e-06
-8.69417e-07
-3.89342e-06
-1.22207e-06
-3.73188e-06
-1.55569e-06
-3.53438e-06
-1.8634e-06
-3.30332e-06
-2.1381e-06
-3.04189e-06
-2.37258e-06
-2.75419e-06
-2.55967e-06
-2.44533e-06
-2.69243e-06
-2.12145e-06
-2.76442e-06
-1.78976e-06
-2.76996e-06
-1.45852e-06
-2.70454e-06
-1.13696e-06
-2.56513e-06
-8.35105e-07
-2.35056e-06
-5.63609e-07
-2.06187e-06
-3.33471e-07
-1.70257e-06
-1.55743e-07
-1.27878e-06
-4.12077e-08
-7.99221e-07
-2.75855e-07
-4.38611e-08
3.27977e-07
-1.6368e-07
9.29568e-07
-3.47346e-07
1.46491e-06
-5.82786e-07
1.92601e-06
-8.58292e-07
2.30816e-06
-1.16276e-06
2.60913e-06
-1.48589e-06
2.82885e-06
-1.8183e-06
2.96914e-06
-2.1516e-06
3.03326e-06
-2.47843e-06
3.02562e-06
-2.7924e-06
2.95142e-06
-3.08807e-06
2.81637e-06
-3.36081e-06
2.6265e-06
-3.60678e-06
2.38792e-06
-3.8228e-06
2.10679e-06
-4.00624e-06
1.78919e-06
-4.15494e-06
1.44112e-06
-4.26716e-06
1.06849e-06
-4.34152e-06
6.77205e-07
-4.37694e-06
2.73176e-07
-4.37263e-06
-1.37575e-07
-4.32815e-06
-5.48852e-07
-4.24336e-06
-9.54205e-07
-4.11856e-06
-1.34687e-06
-3.95452e-06
-1.71973e-06
-3.75262e-06
-2.0653e-06
-3.51493e-06
-2.37578e-06
-3.24439e-06
-2.64311e-06
-2.94492e-06
-2.85914e-06
-2.62152e-06
-3.01583e-06
-2.28043e-06
-3.10551e-06
-1.92912e-06
-3.12127e-06
-1.57634e-06
-3.05732e-06
-1.23205e-06
-2.90942e-06
-9.07246e-07
-2.67536e-06
-6.13765e-07
-2.35535e-06
-3.63959e-07
-1.95238e-06
-1.70337e-07
-1.4724e-06
-4.51676e-08
-9.24391e-07
-3.21023e-07
-4.72332e-08
3.7521e-07
-1.75943e-07
1.05828e-06
-3.72707e-07
1.66167e-06
-6.24146e-07
2.17745e-06
-9.1733e-07
2.60134e-06
-1.24008e-06
2.93188e-06
-1.58122e-06
3.16999e-06
-1.93067e-06
3.31859e-06
-2.2796e-06
3.38218e-06
-2.62034e-06
3.36636e-06
-2.94642e-06
3.2775e-06
-3.25241e-06
3.12237e-06
-3.53385e-06
2.90794e-06
-3.7871e-06
2.64117e-06
-4.00921e-06
2.3289e-06
-4.1978e-06
1.97779e-06
-4.35097e-06
1.59429e-06
-4.46715e-06
1.18467e-06
-4.54509e-06
7.55138e-07
-4.58375e-06
3.11835e-07
-4.58233e-06
-1.38996e-07
-4.54024e-06
-5.90935e-07
-4.45718e-06
-1.03727e-06
-4.33313e-06
-1.47092e-06
-4.16853e-06
-1.88433e-06
-3.96435e-06
-2.26948e-06
-3.72228e-06
-2.61785e-06
-3.44486e-06
-2.92054e-06
-3.13568e-06
-3.16832e-06
-2.79956e-06
-3.35195e-06
-2.44269e-06
-3.46238e-06
-2.07273e-06
-3.49123e-06
-1.69888e-06
-3.43117e-06
-1.33182e-06
-3.27649e-06
-9.83556e-07
-3.02362e-06
-6.67225e-07
-2.67168e-06
-3.96687e-07
-2.22292e-06
-1.86113e-07
-1.68297e-06
-4.94819e-08
-1.06102e-06
-3.70505e-07
-5.08005e-08
4.26011e-07
-1.88829e-07
1.19631e-06
-3.99177e-07
1.87202e-06
-6.66988e-07
2.44526e-06
-9.77969e-07
2.91232e-06
-1.31877e-06
3.27268e-06
-1.67724e-06
3.52846e-06
-2.04264e-06
3.68399e-06
-2.40566e-06
3.74521e-06
-2.75845e-06
3.71915e-06
-3.0945e-06
3.61354e-06
-3.40852e-06
3.43639e-06
-3.6963e-06
3.19571e-06
-3.95451e-06
2.89939e-06
-4.18057e-06
2.55496e-06
-4.37245e-06
2.16967e-06
-4.52855e-06
1.75038e-06
-4.64757e-06
1.3037e-06
-4.72844e-06
8.36007e-07
-4.77022e-06
3.53617e-07
-4.7721e-06
-1.37118e-07
-4.73337e-06
-6.29663e-07
-4.65349e-06
-1.11716e-06
-4.53212e-06
-1.59228e-06
-4.36928e-06
-2.04717e-06
-4.16546e-06
-2.4733e-06
-3.9218e-06
-2.86152e-06
-3.64032e-06
-3.20201e-06
-3.32416e-06
-3.48448e-06
-2.97777e-06
-3.69834e-06
-2.60716e-06
-3.83299e-06
-2.22006e-06
-3.87833e-06
-1.82602e-06
-3.82521e-06
-1.43642e-06
-3.66608e-06
-1.06435e-06
-3.39569e-06
-7.24337e-07
-3.0117e-06
-4.31942e-07
-2.51531e-06
-2.03239e-07
-1.91167e-06
-5.42058e-08
-1.21005e-06
-4.24711e-07
-5.46066e-08
4.80617e-07
-2.02475e-07
1.34417e-06
-4.26984e-07
2.09653e-06
-7.11585e-07
2.72986e-06
-1.04043e-06
3.24117e-06
-1.39887e-06
3.63111e-06
-1.77374e-06
3.90333e-06
-2.15357e-06
4.06383e-06
-2.52868e-06
4.12031e-06
-2.89106e-06
4.08153e-06
-3.2343e-06
3.95678e-06
-3.55338e-06
3.75546e-06
-3.84446e-06
3.4868e-06
-4.1047e-06
3.15962e-06
-4.33196e-06
2.78223e-06
-4.5247e-06
2.36241e-06
-4.68173e-06
1.90741e-06
-4.80209e-06
1.42407e-06
-4.88498e-06
9.18888e-07
-4.92958e-06
3.98219e-07
-4.9351e-06
-1.31595e-07
-4.90073e-06
-6.64033e-07
-4.82567e-06
-1.19222e-06
-4.70922e-06
-1.70873e-06
-4.55089e-06
-2.2055e-06
-4.35057e-06
-2.67362e-06
-4.10876e-06
-3.10333e-06
-3.82679e-06
-3.48398e-06
-3.50714e-06
-3.80413e-06
-3.15372e-06
-4.05176e-06
-2.77216e-06
-4.21455e-06
-2.37009e-06
-4.2804e-06
-1.95731e-06
-4.23799e-06
-1.54584e-06
-4.07755e-06
-1.14986e-06
-3.79167e-06
-7.85427e-07
-3.37613e-06
-4.70015e-07
-2.83072e-06
-2.21898e-07
-2.15979e-06
-5.94003e-08
-1.37255e-06
-4.84111e-07
-5.87077e-08
5.39325e-07
-2.17055e-07
1.50252e-06
-4.56418e-07
2.33589e-06
-7.58272e-07
3.03171e-06
-1.10499e-06
3.5879e-06
-1.48045e-06
4.00657e-06
-1.8704e-06
4.29327e-06
-2.26265e-06
4.45609e-06
-2.64719e-06
4.50484e-06
-3.01598e-06
4.45032e-06
-3.36286e-06
4.30366e-06
-3.68322e-06
4.07583e-06
-3.97381e-06
3.77738e-06
-4.23235e-06
3.41817e-06
-4.45738e-06
3.00725e-06
-4.64791e-06
2.55295e-06
-4.80332e-06
2.06282e-06
-4.92309e-06
1.54384e-06
-5.00672e-06
1.00252e-06
-5.05361e-06
4.45113e-07
-5.06302e-06
-1.22183e-07
-5.03404e-06
-6.93015e-07
-4.96561e-06
-1.26065e-06
-4.85661e-06
-1.81773e-06
-4.70599e-06
-2.35612e-06
-4.51294e-06
-2.86667e-06
-4.27715e-06
-3.33912e-06
-3.99908e-06
-3.76204e-06
-3.68035e-06
-4.12287e-06
-3.32408e-06
-4.40803e-06
-2.93529e-06
-4.60334e-06
-2.5213e-06
-4.69439e-06
-2.09196e-06
-4.66733e-06
-1.65985e-06
-4.50967e-06
-1.24023e-06
-4.21129e-06
-8.50803e-07
-3.76555e-06
-5.11215e-07
-3.17031e-06
-2.42292e-07
-2.42871e-06
-6.51351e-08
-1.54971e-06
-5.49246e-07
-6.31792e-08
6.02504e-07
-2.32799e-07
1.67214e-06
-4.87856e-07
2.59095e-06
-8.07481e-07
3.35134e-06
-1.17198e-06
3.9524e-06
-1.56356e-06
4.39815e-06
-1.96678e-06
4.69649e-06
-2.36879e-06
4.8581e-06
-2.75931e-06
4.89536e-06
-3.13046e-06
4.82147e-06
-3.47649e-06
4.64968e-06
-3.79343e-06
4.39278e-06
-4.07877e-06
4.06272e-06
-4.33106e-06
3.67045e-06
-4.54959e-06
3.22579e-06
-4.73417e-06
2.73752e-06
-4.8848e-06
2.21344e-06
-5.00151e-06
1.66055e-06
-5.08423e-06
1.08523e-06
-5.13261e-06
4.93495e-07
-5.14601e-06
-1.08781e-07
-5.12344e-06
-7.15584e-07
-5.06359e-06
-1.3205e-06
-4.96488e-06
-1.91644e-06
-4.82564e-06
-2.49536e-06
-4.64425e-06
-3.04806e-06
-4.41944e-06
-3.56394e-06
-4.15061e-06
-4.03088e-06
-3.83826e-06
-4.43522e-06
-3.48445e-06
-4.76184e-06
-3.09331e-06
-4.99448e-06
-2.67152e-06
-5.11618e-06
-2.22876e-06
-5.1101e-06
-1.77797e-06
-4.96045e-06
-1.33549e-06
-4.65377e-06
-9.20767e-07
-4.18027e-06
-5.55885e-07
-3.53519e-06
-2.64657e-07
-2.71994e-06
-7.14944e-08
-1.74287e-06
-6.2074e-07
-6.81246e-08
6.70629e-07
-2.50021e-07
1.85404e-06
-5.21801e-07
2.86273e-06
-8.59778e-07
3.68931e-06
-1.24181e-06
4.33443e-06
-1.64822e-06
4.80456e-06
-2.0623e-06
5.11058e-06
-2.47058e-06
5.26637e-06
-2.86266e-06
5.28745e-06
-3.23104e-06
5.18985e-06
-3.57063e-06
4.98927e-06
-3.87834e-06
4.7005e-06
-4.15265e-06
4.33703e-06
-4.39312e-06
3.91092e-06
-4.60004e-06
3.43272e-06
-4.77411e-06
2.91159e-06
-4.91612e-06
2.35546e-06
-5.02678e-06
1.7712e-06
-5.10648e-06
1.16493e-06
-5.15523e-06
5.42245e-07
-5.17253e-06
-9.14786e-08
-5.15735e-06
-7.30763e-07
-5.10813e-06
-1.36972e-06
-5.02284e-06
-2.00173e-06
-4.89911e-06
-2.61909e-06
-4.73442e-06
-3.21275e-06
-4.52639e-06
-3.77196e-06
-4.27317e-06
-4.2841e-06
-3.97387e-06
-4.73452e-06
-3.62916e-06
-5.10655e-06
-3.24189e-06
-5.38174e-06
-2.81776e-06
-5.54031e-06
-2.36591e-06
-5.56194e-06
-1.89943e-06
-5.42694e-06
-1.43556e-06
-5.11764e-06
-9.95619e-07
-4.62021e-06
-6.04423e-07
-3.92639e-06
-2.8928e-07
-3.03509e-06
-7.85831e-08
-1.95357e-06
-6.99323e-07
-7.3687e-08
7.44316e-07
-2.69147e-07
2.0495e-06
-5.58932e-07
3.15252e-06
-9.15907e-07
4.04629e-06
-1.31502e-06
4.73354e-06
-1.73444e-06
5.22397e-06
-2.15615e-06
5.53229e-06
-2.56615e-06
5.67637e-06
-2.95418e-06
5.67548e-06
-3.31337e-06
5.54904e-06
-3.63962e-06
5.31552e-06
-3.93103e-06
4.99191e-06
-4.18734e-06
4.59334e-06
-4.40938e-06
4.13295e-06
-4.59862e-06
3.62195e-06
-4.75681e-06
3.06978e-06
-4.88568e-06
2.48432e-06
-4.98667e-06
1.8722e-06
-5.06079e-06
1.23905e-06
-5.10844e-06
5.89892e-07
-5.12932e-06
-7.05951e-08
-5.12241e-06
-7.37674e-07
-5.08593e-06
-1.40621e-06
-5.01738e-06
-2.07027e-06
-4.9137e-06
-2.72278e-06
-4.77139e-06
-3.35506e-06
-4.58683e-06
-3.95652e-06
-4.35668e-06
-4.51424e-06
-4.07842e-06
-5.01278e-06
-3.75094e-06
-5.43403e-06
-3.3754e-06
-5.75728e-06
-2.95602e-06
-5.95969e-06
-2.50095e-06
-6.01701e-06
-2.02302e-06
-5.90487e-06
-1.5402e-06
-5.60046e-06
-1.07567e-06
-5.08474e-06
-6.57309e-07
-4.34475e-06
-3.16528e-07
-3.37587e-06
-8.65376e-08
-2.18356e-06
-7.85861e-07
-8.00666e-08
8.24383e-07
-2.90764e-07
2.26019e-06
-6.00158e-07
3.46191e-06
-9.76834e-07
4.42296e-06
-1.39225e-06
5.14896e-06
-1.82214e-06
5.65386e-06
-2.24717e-06
5.95733e-06
-2.653e-06
6.08219e-06
-3.02985e-06
6.05234e-06
-3.37189e-06
5.89107e-06
-3.6764e-06
5.62002e-06
-3.94303e-06
5.25855e-06
-4.1731e-06
4.82342e-06
-4.36896e-06
4.32881e-06
-4.53346e-06
3.78645e-06
-4.66958e-06
3.2059e-06
-4.78007e-06
2.59482e-06
-4.86724e-06
1.95937e-06
-4.93274e-06
1.30456e-06
-4.97744e-06
6.34593e-07
-5.00132e-06
-4.67181e-08
-5.0034e-06
-7.35593e-07
-4.98173e-06
-1.42787e-06
-4.93341e-06
-2.1186e-06
-4.85465e-06
-2.80154e-06
-4.74095e-06
-3.46876e-06
-4.58736e-06
-4.1101e-06
-4.3889e-06
-4.71271e-06
-4.14107e-06
-5.26061e-06
-3.84065e-06
-5.73445e-06
-3.48657e-06
-6.11137e-06
-3.08099e-06
-6.36527e-06
-2.63046e-06
-6.46754e-06
-2.14701e-06
-6.38832e-06
-1.64895e-06
-6.09852e-06
-1.16125e-06
-5.57244e-06
-7.15145e-07
-4.79086e-06
-3.46877e-07
-3.74414e-06
-9.55402e-08
-2.4349e-06
-8.81401e-07
-8.75446e-08
9.11927e-07
-3.15676e-07
2.48833e-06
-6.46691e-07
3.79293e-06
-1.04379e-06
4.82006e-06
-1.47422e-06
5.57939e-06
-1.91101e-06
6.09065e-06
-2.3336e-06
6.37992e-06
-2.72766e-06
6.47625e-06
-3.08438e-06
6.40906e-06
-3.39946e-06
6.20616e-06
-3.6721e-06
5.89266e-06
-3.90392e-06
5.49037e-06
-4.09817e-06
5.01767e-06
-4.25897e-06
4.4896e-06
-4.39074e-06
3.91823e-06
-4.49782e-06
3.31297e-06
-4.58407e-06
2.68108e-06
-4.65273e-06
2.02802e-06
-4.70614e-06
1.35797e-06
-4.74569e-06
6.74142e-07
-4.77168e-06
-2.07292e-08
-4.78325e-06
-7.24017e-07
-4.77836e-06
-1.43276e-06
-4.75375e-06
-2.14321e-06
-4.70498e-06
-2.85031e-06
-4.62656e-06
-3.54718e-06
-4.51218e-06
-4.22448e-06
-4.35506e-06
-4.86982e-06
-4.14853e-06
-5.46714e-06
-3.8868e-06
-5.99618e-06
-3.56603e-06
-6.43213e-06
-3.18565e-06
-6.74566e-06
-2.7498e-06
-6.90338e-06
-2.26892e-06
-6.8692e-06
-1.76105e-06
-6.60639e-06
-1.25269e-06
-6.0808e-06
-7.78696e-07
-5.26485e-06
-3.80966e-07
-4.14186e-06
-1.05842e-07
-2.71002e-06
-9.87243e-07
-9.65206e-08
1.00845e-06
-3.44994e-07
2.7368e-06
-7.00138e-07
4.14807e-06
-1.11829e-06
5.23821e-06
-1.56165e-06
6.02275e-06
-2.00031e-06
6.52931e-06
-2.41274e-06
6.79235e-06
-2.78521e-06
6.84872e-06
-3.11055e-06
6.7344e-06
-3.38675e-06
6.48235e-06
-3.61546e-06
6.12137e-06
-3.80081e-06
5.67572e-06
-3.94832e-06
5.16518e-06
-4.06412e-06
4.60541e-06
-4.15437e-06
4.00848e-06
-4.22481e-06
3.38341e-06
-4.28048e-06
2.73675e-06
-4.32553e-06
2.07307e-06
-4.36304e-06
1.39547e-06
-4.39491e-06
7.06021e-07
-4.42184e-06
6.19166e-09
-4.44313e-06
-7.02719e-07
-4.45675e-06
-1.41915e-06
-4.45918e-06
-2.14078e-06
-4.44545e-06
-2.86404e-06
-4.4092e-06
-3.58344e-06
-4.34277e-06
-4.29091e-06
-4.23758e-06
-4.97502e-06
-4.08456e-06
-5.62016e-06
-3.87503e-06
-6.20571e-06
-3.6018e-06
-6.70536e-06
-3.26073e-06
-7.08673e-06
-2.85258e-06
-7.31154e-06
-2.38512e-06
-7.33666e-06
-1.87521e-06
-7.1163e-06
-1.3503e-06
-6.6057e-06
-8.48951e-07
-5.76621e-06
-4.19674e-07
-4.57114e-06
-1.17797e-07
-3.0119e-06
-1.10504e-06
-1.07569e-07
1.11602e-06
-3.80251e-07
3.00948e-06
-7.62595e-07
4.53041e-06
-1.20212e-06
5.67774e-06
-1.65502e-06
6.47564e-06
-2.08837e-06
6.96267e-06
-2.48028e-06
7.18426e-06
-2.81849e-06
7.18693e-06
-3.09849e-06
7.0144e-06
-3.32139e-06
6.70525e-06
-3.49209e-06
6.29207e-06
-3.61768e-06
5.80132e-06
-3.70632e-06
5.25382e-06
-3.76635e-06
4.66543e-06
-3.8057e-06
4.04782e-06
-3.83154e-06
3.40926e-06
-3.85005e-06
2.75526e-06
-3.86623e-06
2.08925e-06
-3.88384e-06
1.41308e-06
-3.90531e-06
7.27499e-07
-3.93171e-06
3.25915e-08
-3.96263e-06
-6.71806e-07
-3.9961e-06
-1.38568e-06
-4.02853e-06
-2.10835e-06
-4.05462e-06
-2.83795e-06
-4.06729e-06
-3.57077e-06
-4.05774e-06
-4.30046e-06
-4.01563e-06
-5.01713e-06
-3.92949e-06
-5.70629e-06
-3.78747e-06
-6.34773e-06
-3.57848e-06
-6.91435e-06
-3.29393e-06
-7.37128e-06
-2.92999e-06
-7.67548e-06
-2.49039e-06
-7.77626e-06
-1.98934e-06
-7.61734e-06
-1.45426e-06
-7.14079e-06
-9.27185e-07
-6.29328e-06
-4.64218e-07
-5.03411e-06
-1.31918e-07
-3.3442e-06
-1.23696e-06
-1.21531e-07
1.23755e-06
-4.23575e-07
3.31152e-06
-8.36762e-07
4.9436e-06
-1.29722e-06
6.1382e-06
-1.75413e-06
6.93254e-06
-2.1719e-06
7.38044e-06
-2.52931e-06
7.54166e-06
-2.81699e-06
7.47462e-06
-3.03439e-06
7.2318e-06
-3.1869e-06
6.85776e-06
-3.28341e-06
6.38858e-06
-3.33453e-06
5.85244e-06
-3.35129e-06
5.27058e-06
-3.3443e-06
4.65844e-06
-3.32324e-06
4.02677e-06
-3.29659e-06
3.38261e-06
-3.2715e-06
2.73016e-06
-3.25368e-06
2.07144e-06
-3.24748e-06
1.40687e-06
-3.25577e-06
7.3579e-07
-3.27999e-06
5.68102e-08
-3.32003e-06
-6.31757e-07
-3.37419e-06
-1.33152e-06
-3.43897e-06
-2.04357e-06
-3.50897e-06
-2.76794e-06
-3.57674e-06
-3.503e-06
-3.63264e-06
-4.24456e-06
-3.66486e-06
-4.98491e-06
-3.65966e-06
-5.71149e-06
-3.60194e-06
-6.40546e-06
-3.4763e-06
-7.03999e-06
-3.26884e-06
-7.57874e-06
-2.96978e-06
-7.97454e-06
-2.57695e-06
-8.16909e-06
-2.09995e-06
-8.09434e-06
-1.56439e-06
-7.67635e-06
-1.015e-06
-6.84266e-06
-5.16317e-07
-5.5328e-06
-1.48968e-07
-3.71155e-06
-1.38593e-06
-1.39666e-07
1.37721e-06
-4.77934e-07
3.64979e-06
-9.26004e-07
5.39167e-06
-1.40532e-06
6.61752e-06
-1.85728e-06
7.3845e-06
-2.24463e-06
7.76779e-06
-2.54872e-06
7.84576e-06
-2.76509e-06
7.69099e-06
-2.89892e-06
7.36563e-06
-2.96113e-06
6.91997e-06
-2.96545e-06
6.3929e-06
-2.92638e-06
5.81337e-06
-2.85793e-06
5.20213e-06
-2.77288e-06
4.57338e-06
-2.68241e-06
3.9363e-06
-2.59604e-06
3.29624e-06
-2.52159e-06
2.65571e-06
-2.46526e-06
2.01511e-06
-2.43175e-06
1.37336e-06
-2.42426e-06
7.28301e-07
-2.44454e-06
7.70967e-08
-2.49286e-06
-5.83443e-07
-2.56784e-06
-1.25654e-06
-2.66636e-06
-1.94505e-06
-2.78328e-06
-2.65103e-06
-2.91115e-06
-3.37512e-06
-3.04001e-06
-4.1157e-06
-3.15709e-06
-4.86783e-06
-3.2468e-06
-5.62178e-06
-3.29102e-06
-6.36124e-06
-3.26988e-06
-7.06113e-06
-3.16349e-06
-7.68514e-06
-2.95466e-06
-8.18336e-06
-2.63316e-06
-8.49059e-06
-2.20118e-06
-8.52632e-06
-1.67969e-06
-8.19783e-06
-1.11433e-06
-7.40803e-06
-5.78404e-07
-6.06872e-06
-1.70114e-07
-4.11983e-06
-1.55604e-06
-1.63914e-07
1.54113e-06
-5.47478e-07
4.03336e-06
-1.0343e-06
5.8785e-06
-1.52718e-06
7.11039e-06
-1.95969e-06
7.81701e-06
-2.29521e-06
8.10331e-06
-2.52075e-06
8.0713e-06
-2.63962e-06
7.80985e-06
-2.66487e-06
7.39089e-06
-2.61435e-06
6.86944e-06
-2.50726e-06
6.28581e-06
-2.36216e-06
5.66827e-06
-2.19583e-06
5.0358e-06
-2.02283e-06
4.40038e-06