/*--------------------------------*- C++ -*----------------------------------*\
  =========                 |
  \\      /  F ield         | OpenFOAM: The Open Source CFD Toolbox
   \\    /   O peration     | Website:  https://openfoam.org
    \\  /    A nd           | Version:  7
     \\/     M anipulation  |
\*---------------------------------------------------------------------------*/
FoamFile
{
    version     2.0;
    format      ascii;
    class       volVectorField;
    location    "0.24";
    object      U;
}
// * * * * * * * * * * * * * * * * * * * * * * * * * * * * * * * * * * * * * //

dimensions      [0 1 -1 0 0 0 0];

internalField   nonuniform List<vector> 
1600
(
(6.04542e-05 -6.04944e-05 0)
(0.000155836 -5.7095e-05 0)
(0.00015684 -7.03225e-06 0)
(6.60294e-06 5.24022e-05 0)
(-0.000303246 0.000107885 0)
(-0.000756314 0.000154705 0)
(-0.00132815 0.000191502 0)
(-0.00199178 0.00021832 0)
(-0.00272001 0.000235731 0)
(-0.00348655 0.000244483 0)
(-0.00426669 0.000245366 0)
(-0.00503756 0.000239165 0)
(-0.00577831 0.00022664 0)
(-0.00647019 0.000208526 0)
(-0.00709657 0.000185528 0)
(-0.00764295 0.000158339 0)
(-0.00809703 0.000127639 0)
(-0.00844867 9.41089e-05 0)
(-0.00868993 5.84376e-05 0)
(-0.00881518 2.1332e-05 0)
(-0.00882114 -1.64743e-05 0)
(-0.00870694 -5.42152e-05 0)
(-0.00847428 -9.10883e-05 0)
(-0.00812745 -0.000126255 0)
(-0.00767346 -0.000158845 0)
(-0.00712209 -0.000187959 0)
(-0.0064859 -0.000212688 0)
(-0.00578022 -0.000232116 0)
(-0.00502309 -0.000245344 0)
(-0.0042351 -0.000251508 0)
(-0.00343916 -0.000249795 0)
(-0.0026602 -0.000239464 0)
(-0.00192474 -0.000219882 0)
(-0.00126026 -0.000190567 0)
(-0.000694317 -0.000151318 0)
(-0.000253151 -0.000102554 0)
(4.07451e-05 -4.61605e-05 0)
(0.000174245 1.26328e-05 0)
(0.000160272 6.01459e-05 0)
(6.02234e-05 5.99872e-05 0)
(5.86073e-05 -0.000156919 0)
(7.2437e-05 -6.94242e-05 0)
(-0.000178467 0.000182281 0)
(-0.000772544 0.000476752 0)
(-0.00172426 0.000760694 0)
(-0.00300707 0.00100896 0)
(-0.00457244 0.00121026 0)
(-0.00636098 0.00136068 0)
(-0.00830897 0.00146013 0)
(-0.0103522 0.00151051 0)
(-0.0124284 0.00151478 0)
(-0.0144787 0.00147651 0)
(-0.0164486 0.00139958 0)
(-0.0182885 0.00128802 0)
(-0.0199542 0.00114597 0)
(-0.0214068 0.000977635 0)
(-0.0226134 0.000787264 0)
(-0.0235467 0.000579193 0)
(-0.0241857 0.000357853 0)
(-0.0245154 0.000127803 0)
(-0.0245274 -0.000106243 0)
(-0.0242197 -0.000339403 0)
(-0.0235974 -0.000566618 0)
(-0.0226725 -0.00078267 0)
(-0.0214641 -0.000982215 0)
(-0.0199986 -0.00115984 0)
(-0.0183096 -0.00131013 0)
(-0.016438 -0.00142781 0)
(-0.0144311 -0.00150782 0)
(-0.0123425 -0.00154549 0)
(-0.0102313 -0.00153675 0)
(-0.00816096 -0.00147832 0)
(-0.00619742 -0.00136803 0)
(-0.00440745 -0.00120533 0)
(-0.00285543 -0.000992111 0)
(-0.0015991 -0.000734422 0)
(-0.000682884 -0.000445816 0)
(-0.000126917 -0.000153442 0)
(9.19161e-05 8.82985e-05 0)
(6.16938e-05 0.000160659 0)
(1.14355e-05 -0.000162749 0)
(-0.000171887 0.000178406 0)
(-0.000803786 0.000813642 0)
(-0.0019304 0.0015358 0)
(-0.00355261 0.00223792 0)
(-0.00563447 0.00286053 0)
(-0.00811121 0.00337206 0)
(-0.0109014 0.00375812 0)
(-0.0139155 0.00401455 0)
(-0.0170615 0.0041433 0)
(-0.0202488 0.00415005 0)
(-0.0233905 0.00404278 0)
(-0.0264054 0.00383092 0)
(-0.029219 0.0035248 0)
(-0.0317645 0.0031353 0)
(-0.033983 0.00267374 0)
(-0.0358246 0.00215175 0)
(-0.0372479 0.00158129 0)
(-0.0382211 0.000974627 0)
(-0.0387215 0.000344436 0)
(-0.0387367 -0.000296222 0)
(-0.038264 -0.000933854 0)
(-0.0373115 -0.00155456 0)
(-0.0358976 -0.00214408 0)
(-0.0340518 -0.00268792 0)
(-0.0318143 -0.00317151 0)
(-0.0292362 -0.00358045 0)
(-0.0263786 -0.00390082 0)
(-0.0233128 -0.00411953 0)
(-0.0201187 -0.00422482 0)
(-0.0168836 -0.00420684 0)
(-0.0137004 -0.0040583 0)
(-0.0106649 -0.00377553 0)
(-0.0078726 -0.00335978 0)
(-0.0054139 -0.00281948 0)
(-0.00336824 -0.00217399 0)
(-0.00179529 -0.00145991 0)
(-0.000722942 -0.00074101 0)
(-0.000138858 -0.000126488 0)
(1.76487e-05 0.000179989 0)
(-4.53811e-05 -2.20036e-05 0)
(-0.000464206 0.000767799 0)
(-0.00153487 0.00194077 0)
(-0.00324068 0.00322554 0)
(-0.00555259 0.00446654 0)
(-0.00841963 0.00556893 0)
(-0.0117608 0.00647772 0)
(-0.0154763 0.00716481 0)
(-0.0194564 0.00761957 0)
(-0.0235876 0.0078427 0)
(-0.0277572 0.00784232 0)
(-0.0318564 0.00763145 0)
(-0.0357829 0.00722634 0)
(-0.0394422 0.00664539 0)
(-0.0427492 0.00590845 0)
(-0.0456292 0.00503645 0)
(-0.0480181 0.00405111 0)
(-0.0498631 0.00297491 0)
(-0.0511236 0.00183102 0)
(-0.0517707 0.000643357 0)
(-0.0517886 -0.000563427 0)
(-0.0511744 -0.00176391 0)
(-0.0499384 -0.002932 0)
(-0.0481045 -0.004041 0)
(-0.0457106 -0.00506394 0)
(-0.0428079 -0.00597381 0)
(-0.0394617 -0.00674411 0)
(-0.0357496 -0.00734941 0)
(-0.0317619 -0.00776608 0)
(-0.0275992 -0.00797327 0)
(-0.0233712 -0.00795394 0)
(-0.019194 -0.00769632 0)
(-0.0151865 -0.00719569 0)
(-0.0114664 -0.00645684 0)
(-0.00814512 -0.00549764 0)
(-0.00532052 -0.00435455 0)
(-0.00306803 -0.00309108 0)
(-0.00142949 -0.00180943 0)
(-0.000419932 -0.000669468 0)
(-3.6673e-05 5.97496e-05 0)
(-0.000100419 0.00027851 0)
(-0.000760902 0.00172865 0)
(-0.00228904 0.0035908 0)
(-0.00459201 0.00555412 0)
(-0.00760037 0.007426 0)
(-0.0112421 0.0090814 0)
(-0.0154176 0.0104434 0)
(-0.0200088 0.0114699 0)
(-0.024888 0.0121431 0)
(-0.0299239 0.0124618 0)
(-0.0349859 0.0124365 0)
(-0.0399474 0.0120854 0)
(-0.0446892 0.0114327 0)
(-0.0491008 0.0105059 0)
(-0.0530827 0.00933545 0)
(-0.0565469 0.00795375 0)
(-0.0594184 0.00639467 0)
(-0.061635 0.00469341 0)
(-0.0631489 0.00288637 0)
(-0.0639264 0.00101113 0)
(-0.0639489 -0.000893552 0)
(-0.0632128 -0.00278779 0)
(-0.0617306 -0.0046307 0)
(-0.0595303 -0.00638063 0)
(-0.0566563 -0.00799553 0)
(-0.053169 -0.00943355 0)
(-0.0491443 -0.0106537 0)
(-0.0446736 -0.011617 0)
(-0.0398618 -0.0122874 0)
(-0.0348264 -0.0126335 0)
(-0.0296952 -0.0126301 0)
(-0.0246028 -0.0122606 0)
(-0.0196874 -0.0115194 0)
(-0.0150859 -0.0104157 0)
(-0.0109283 -0.00897765 0)
(-0.00733122 -0.00725972 0)
(-0.00438877 -0.00535142 0)
(-0.00216304 -0.00338909 0)
(-0.000707018 -0.00157304 0)
(-8.95678e-05 -0.000214677 0)
(-0.000150625 0.000732404 0)
(-0.00104551 0.00306171 0)
(-0.00302865 0.00577103 0)
(-0.00592864 0.00852891 0)
(-0.00963049 0.0111173 0)
(-0.0140364 0.013388 0)
(-0.019025 0.015246 0)
(-0.0244587 0.0166369 0)
(-0.0301927 0.0175365 0)
(-0.0360791 0.0179423 0)
(-0.0419716 0.0178674 0)
(-0.0477291 0.0173362 0)
(-0.0532181 0.016381 0)
(-0.0583155 0.0150401 0)
(-0.0629099 0.0133557 0)
(-0.066903 0.011373 0)
(-0.0702106 0.00913994 0)
(-0.0727633 0.00670605 0)
(-0.0745075 0.00412287 0)
(-0.0754054 0.0014436 0)
(-0.0754359 -0.00127693 0)
(-0.0745952 -0.00398231 0)
(-0.0728968 -0.00661483 0)
(-0.0703719 -0.00911578 0)
(-0.0670698 -0.011426 0)
(-0.0630577 -0.0134868 0)
(-0.0584205 -0.0152407 0)
(-0.0532596 -0.0166334 0)
(-0.0476923 -0.0176148 0)
(-0.0418497 -0.0181416 0)
(-0.0358745 -0.0181795 0)
(-0.0299177 -0.017706 0)
(-0.0241342 -0.0167143 0)
(-0.018679 -0.0152176 0)
(-0.0137007 -0.0132541 0)
(-0.00933649 -0.0108946 0)
(-0.00570245 -0.00825166 0)
(-0.00288595 -0.00548988 0)
(-0.000983354 -0.00283971 0)
(-0.000137815 -0.000637628 0)
(-0.000195903 0.00132936 0)
(-0.00131367 0.00475559 0)
(-0.00373989 0.00847382 0)
(-0.0072274 0.0121443 0)
(-0.011614 0.0155334 0)
(-0.0167732 0.0184766 0)
(-0.0225589 0.0208658 0)
(-0.0288128 0.0226377 0)
(-0.0353719 0.0237635 0)
(-0.0420724 0.0242408 0)
(-0.0487538 0.0240865 0)
(-0.0552618 0.0233319 0)
(-0.061451 0.022019 0)
(-0.0671877 0.0201976 0)
(-0.0723509 0.0179228 0)
(-0.0768339 0.0152543 0)
(-0.0805454 0.012255 0)
(-0.0834102 0.00899037 0)
(-0.0853698 0.00552852 0)
(-0.0863833 0.00193975 0)
(-0.0864273 -0.00170349 0)
(-0.0854974 -0.00532674 0)
(-0.0836075 -0.00885383 0)
(-0.080791 -0.0122074 0)
(-0.0771009 -0.0153094 0)
(-0.0726091 -0.0180827 0)
(-0.0674072 -0.0204518 0)
(-0.061605 -0.0223452 0)
(-0.0553294 -0.0236973 0)
(-0.0487233 -0.0244513 0)
(-0.0419421 -0.0245624 0)
(-0.0351516 -0.0240012 0)
(-0.0285231 -0.0227583 0)
(-0.0222292 -0.0208493 0)
(-0.0164388 -0.0183209 0)
(-0.0113112 -0.0152575 0)
(-0.00698806 -0.0117909 0)
(-0.00358536 -0.00810762 0)
(-0.00124479 -0.0044602 0)
(-0.000181291 -0.00119941 0)
(-0.000237183 0.00205967 0)
(-0.0015666 0.00679575 0)
(-0.0044217 0.0116858 0)
(-0.0084841 0.0163888 0)
(-0.0135448 0.020663 0)
(-0.0194466 0.0243343 0)
(-0.0260172 0.0272863 0)
(-0.0330757 0.0294506 0)
(-0.04044 0.030797 0)
(-0.0479304 0.0313252 0)
(-0.0553725 0.0310577 0)
(-0.0625999 0.0300342 0)
(-0.0694569 0.0283078 0)
(-0.0758007 0.0259407 0)
(-0.0815023 0.0230025 0)
(-0.0864485 0.0195682 0)
(-0.0905421 0.0157168 0)
(-0.0937034 0.0115309 0)
(-0.0958701 0.00709629 0)
(-0.0969983 0.00250136 0)
(-0.0970629 -0.00216267 0)
(-0.0960583 -0.00680215 0)
(-0.0939985 -0.0113213 0)
(-0.0909179 -0.0156227 0)
(-0.0868714 -0.0196083 0)
(-0.0819347 -0.023181 0)
(-0.076204 -0.0262456 0)
(-0.0697956 -0.0287121 0)
(-0.0628444 -0.0304975 0)
(-0.0555032 -0.03153 0)
(-0.0479395 -0.0317522 0)
(-0.0403327 -0.0311261 0)
(-0.0328706 -0.0296376 0)
(-0.0257443 -0.0273028 0)
(-0.0191443 -0.0241735 0)
(-0.0132547 -0.0203452 0)
(-0.00824493 -0.0159639 0)
(-0.00426204 -0.0112337 0)
(-0.00149314 -0.0064228 0)
(-0.000221011 -0.00189116 0)
(-0.000275602 0.00291555 0)
(-0.00180764 0.00916884 0)
(-0.00507902 0.0153934 0)
(-0.00970445 0.0212506 0)
(-0.0154292 0.0264957 0)
(-0.0220646 0.0309506 0)
(-0.0294107 0.0344955 0)
(-0.0372626 0.037061 0)
(-0.0454185 0.0386191 0)
(-0.0536822 0.0391742 0)
(-0.0618655 0.0387568 0)
(-0.0697907 0.0374172 0)
(-0.0772928 0.0352206 0)
(-0.0842208 0.0322437 0)
(-0.0904395 0.0285713 0)
(-0.0958301 0.0242948 0)
(-0.100291 0.0195105 0)
(-0.103739 0.0143188 0)
(-0.106109 0.00882379 0)
(-0.107355 0.00313287 0)
(-0.107449 -0.00264331 0)
(-0.106384 -0.00839114 0)
(-0.104174 -0.0139943 0)
(-0.100853 -0.0193347 0)
(-0.0964775 -0.0242929 0)
(-0.0911245 -0.0287506 0)
(-0.0848934 -0.0325916 0)
(-0.0779054 -0.0357056 0)
(-0.0703021 -0.0379906 0)
(-0.062245 -0.0393574 0)
(-0.0539124 -0.039734 0)
(-0.0454979 -0.0390712 0)
(-0.0372056 -0.0373475 0)
(-0.0292467 -0.0345764 0)
(-0.0218344 -0.0308121 0)
(-0.0151802 -0.0261568 0)
(-0.00948332 -0.0207675 0)
(-0.0049234 -0.014861 0)
(-0.00173271 -0.00871811 0)
(-0.000258269 -0.00270635 0)
(-0.000312216 0.00389153 0)
(-0.00204068 0.0118646 0)
(-0.00571915 0.0195856 0)
(-0.0108986 0.0267197 0)
(-0.0172798 0.033023 0)
(-0.024642 0.0383174 0)
(-0.0327567 0.0424847 0)
(-0.0413941 0.0454588 0)
(-0.0503317 0.0472172 0)
(-0.0593564 0.0477728 0)
(-0.0682665 0.0471668 0)
(-0.0768731 0.0454621 0)
(-0.0850027 0.0427384 0)
(-0.0924975 0.039088 0)
(-0.0992171 0.0346125 0)
(-0.105038 0.0294206 0)
(-0.109857 0.0236266 0)
(-0.113586 0.0173494 0)
(-0.116158 0.0107119 0)
(-0.117525 0.00384082 0)
(-0.117658 -0.00313337 0)
(-0.116549 -0.0100767 0)
(-0.114208 -0.0168519 0)
(-0.110671 -0.0233192 0)
(-0.105991 -0.0293373 0)
(-0.100247 -0.0347655 0)
(-0.0935407 -0.0394652 0)
(-0.0859957 -0.043304 0)
(-0.0777591 -0.0461587 0)
(-0.0689999 -0.0479206 0)
(-0.0599072 -0.0485002 0)
(-0.050688 -0.0478338 0)
(-0.0415638 -0.0458896 0)
(-0.0327665 -0.0426747 0)
(-0.0245346 -0.0382418 0)
(-0.0171083 -0.0326962 0)
(-0.0107188 -0.0262023 0)
(-0.00557978 -0.0189868 0)
(-0.00196853 -0.0113412 0)
(-0.000294329 -0.00364129 0)
(-0.000347924 0.00498431 0)
(-0.0022695 0.0148765 0)
(-0.00634995 0.0242552 0)
(-0.0120784 0.0327896 0)
(-0.0191115 0.0402389 0)
(-0.0271963 0.0464293 0)
(-0.0360749 0.0512479 0)
(-0.0454916 0.0546363 0)
(-0.0552029 0.0565819 0)
(-0.0649782 0.0571095 0)
(-0.0746023 0.056274 0)
(-0.0838759 0.0541539 0)
(-0.0926174 0.0508455 0)
(-0.100663 0.0464585 0)
(-0.107869 0.0411126 0)
(-0.114109 0.034935 0)
(-0.119276 0.0280584 0)
(-0.123282 0.0206205 0)
(-0.126057 0.0127635 0)
(-0.127552 0.00463333 0)
(-0.127735 -0.00361964 0)
(-0.126597 -0.011841 0)
(-0.124147 -0.0198724 0)
(-0.120416 -0.0275522 0)
(-0.115458 -0.0347164 0)
(-0.10935 -0.0412009 0)
(-0.102193 -0.0468435 0)
(-0.0941136 -0.0514877 0)
(-0.0852617 -0.054987 0)
(-0.0758131 -0.05721 0)
(-0.0659669 -0.0580468 0)
(-0.0559436 -0.0574155 0)
(-0.0459825 -0.0552698 0)
(-0.0363376 -0.0516064 0)
(-0.0272739 -0.0464724 0)
(-0.0190627 -0.0399727 0)
(-0.0119692 -0.0322753 0)
(-0.00624242 -0.0236147 0)
(-0.00220572 -0.0142924 0)
(-0.000330331 -0.00469515 0)
(-0.000383478 0.0061926 0)
(-0.00249753 0.0182018 0)
(-0.00697899 0.0293993 0)
(-0.0132556 0.0394575 0)
(-0.0209396 0.0481408 0)
(-0.0297453 0.0552828 0)
(-0.0393845 0.0607804 0)
(-0.0495753 0.0645871 0)
(-0.0600521 0.0667042 0)
(-0.0705671 0.0671727 0)
(-0.0808915 0.0660649 0)
(-0.0908162 0.0634776 0)
(-0.100153 0.0595264 0)
(-0.108733 0.0543404 0)
(-0.116409 0.0480587 0)
(-0.123055 0.0408276 0)
(-0.12856 0.0327994 0)
(-0.132837 0.0241306 0)
(-0.135816 0.0149823 0)
(-0.137445 0.00551959 0)
(-0.137692 -0.00408762 0)
(-0.136543 -0.0136648 0)
(-0.134006 -0.0230328 0)
(-0.130108 -0.0320079 0)
(-0.124901 -0.0404033 0)
(-0.118458 -0.0480305 0)
(-0.110879 -0.0547022 0)
(-0.10229 -0.0602362 0)
(-0.0928435 -0.0644598 0)
(-0.0827203 -0.067216 0)
(-0.0721285 -0.0683705 0)
(-0.0613019 -0.0678191 0)
(-0.0504978 -0.0654964 0)
(-0.0399934 -0.0613841 0)
(-0.0300821 -0.055519 0)
(-0.0210679 -0.0480013 0)
(-0.0132526 -0.0389997 0)
(-0.00692261 -0.0287546 0)
(-0.00244918 -0.0175777 0)
(-0.00036729 -0.00586981 0)
(-0.000419504 0.00751684 0)
(-0.00272781 0.0218414 0)
(-0.00761323 0.0350189 0)
(-0.014441 0.0467241 0)
(-0.0227782 0.0567286 0)
(-0.0323053 0.0648765 0)
(-0.0427029 0.0710784 0)
(-0.0536619 0.0753041 0)
(-0.0648943 0.077574 0)
(-0.0761352 0.0779491 0)
(-0.0871425 0.0765234 0)
(-0.0976984 0.0734154 0)
(-0.107608 0.0687626 0)
(-0.116701 0.0627157 0)
(-0.124828 0.0554346 0)
(-0.131861 0.047086 0)
(-0.137693 0.0378416 0)
(-0.142235 0.0278769 0)
(-0.145416 0.0173716 0)
(-0.147185 0.00650926 0)
(-0.147508 -0.00452145 0)
(-0.146368 -0.0155267 0)
(-0.14377 -0.0263069 0)
(-0.139737 -0.0366569 0)
(-0.134314 -0.0463666 0)
(-0.127571 -0.0552228 0)
(-0.119605 -0.063012 0)
(-0.110538 -0.069524 0)
(-0.100523 -0.0745572 0)
(-0.0897456 -0.0779256 0)
(-0.0784204 -0.079466 0)
(-0.0667941 -0.0790471 0)
(-0.055142 -0.0765791 0)
(-0.0437655 -0.072023 0)
(-0.0329876 -0.0654007 0)
(-0.0231478 -0.0568028 0)
(-0.0145866 -0.0463955 0)
(-0.00763116 -0.0344233 0)
(-0.0027035 -0.0212086 0)
(-0.000406118 -0.00716969 0)
(-0.000456533 0.00895897 0)
(-0.00296304 0.0257995 0)
(-0.00825896 0.0411189 0)
(-0.0156448 0.0545941 0)
(-0.0246403 0.0660051 0)
(-0.0348906 0.07521 0)
(-0.0460441 0.0821374 0)
(-0.0577634 0.0867787 0)
(-0.069738 0.0891778 0)
(-0.0816858 0.0894211 0)
(-0.0933526 0.0876283 0)
(-0.104513 0.0839437 0)
(-0.114967 0.0785297 0)
(-0.124544 0.0715606 0)
(-0.133094 0.063219 0)
(-0.140491 0.0536926 0)
(-0.14663 0.0431729 0)
(-0.151424 0.0318539 0)
(-0.154804 0.0199331 0)
(-0.156718 0.00761179 0)
(-0.15713 -0.00490407 0)
(-0.156021 -0.0174024 0)
(-0.153392 -0.0296644 0)
(-0.149258 -0.0414641 0)
(-0.143661 -0.0525686 0)
(-0.136662 -0.0627396 0)
(-0.128351 -0.0717361 0)
(-0.118848 -0.079318 0)
(-0.108302 -0.0852522 0)
(-0.0968985 -0.0893194 0)
(-0.0848598 -0.0913228 0)
(-0.0724431 -0.0910985 0)
(-0.0599417 -0.088526 0)
(-0.0476813 -0.0835396 0)
(-0.0360165 -0.0761399 0)
(-0.0253246 -0.066403 0)
(-0.0159881 -0.0544887 0)
(-0.00837836 -0.0406439 0)
(-0.00297297 -0.0252017 0)
(-0.000447649 -0.00860153 0)
(-0.000495039 0.0105223 0)
(-0.00320567 0.0300832 0)
(-0.00892198 0.0477078 0)
(-0.0168759 0.0630747 0)
(-0.0265372 0.0759747 0)
(-0.0375134 0.0862831 0)
(-0.0494187 0.0939515 0)
(-0.0618868 0.0989982 0)
(-0.0745844 0.101497 0)
(-0.0872125 0.101564 0)
(-0.099506 0.0993503 0)
(-0.111233 0.0950301 0)
(-0.122192 0.0887938 0)
(-0.132212 0.0808423 0)
(-0.141147 0.071382 0)
(-0.148875 0.0606225 0)
(-0.155295 0.0487748 0)
(-0.160323 0.0360512 0)
(-0.163892 0.0226657 0)
(-0.165953 0.00883555 0)
(-0.166467 -0.00521741 0)
(-0.165414 -0.0192647 0)
(-0.162786 -0.03307 0)
(-0.158596 -0.0463876 0)
(-0.152873 -0.0589627 0)
(-0.145672 -0.0705321 0)
(-0.137073 -0.0808264 0)
(-0.127187 -0.0895739 0)
(-0.116159 -0.0965067 0)
(-0.104172 -0.101368 0)
(-0.0914503 -0.103922 0)
(-0.0782618 -0.103966 0)
(-0.064916 -0.101342 0)
(-0.0517636 -0.0959495 0)
(-0.0391919 -0.0877611 0)
(-0.0276187 -0.0768322 0)
(-0.0174727 -0.0633115 0)
(-0.00917397 -0.0474455 0)
(-0.00326172 -0.0295785 0)
(-0.000492675 -0.0101743 0)
(-0.000535474 0.0122113 0)
(-0.00345807 0.0347023 0)
(-0.00960781 0.0547972 0)
(-0.018143 0.0721762 0)
(-0.0284792 0.0866429 0)
(-0.0401835 0.0980946 0)
(-0.0528339 0.106511 0)
(-0.0660337 0.111944 0)
(-0.0794268 0.114504 0)
(-0.0926982 0.114343 0)
(-0.105573 0.111649 0)
(-0.117816 0.10663 0)
(-0.129226 0.099509 0)
(-0.139636 0.0905158 0)
(-0.148904 0.0798822 0)
(-0.156917 0.0678402 0)
(-0.163579 0.0546203 0)
(-0.168813 0.0404517 0)
(-0.172557 0.0255635 0)
(-0.174762 0.0101868 0)
(-0.17539 -0.00544283 0)
(-0.174417 -0.0210831 0)
(-0.171831 -0.0364821 0)
(-0.167633 -0.0513769 0)
(-0.161846 -0.0654918 0)
(-0.15451 -0.0785393 0)
(-0.145694 -0.0902212 0)
(-0.135495 -0.100233 0)
(-0.124051 -0.108268 0)
(-0.111537 -0.114028 0)
(-0.0981794 -0.117234 0)
(-0.0842504 -0.117634 0)
(-0.0700753 -0.115025 0)
(-0.056029 -0.109265 0)
(-0.0425331 -0.100289 0)
(-0.0300488 -0.0881234 0)
(-0.0190553 -0.0729006 0)
(-0.0100274 -0.054863 0)
(-0.00357374 -0.0343655 0)
(-0.000541978 -0.0118989 0)
(-0.000578309 0.0140316 0)
(-0.00372268 0.0396694 0)
(-0.0103221 0.0624017 0)
(-0.0194546 0.0819106 0)
(-0.0304761 0.0980157 0)
(-0.0429094 0.110641 0)
(-0.0562934 0.119802 0)
(-0.0702 0.125591 0)
(-0.0842501 0.128161 0)
(-0.0981141 0.12771 0)
(-0.11151 0.124468 0)
(-0.1242 0.118683 0)
(-0.135989 0.110613 0)
(-0.146716 0.10052 0)
(-0.156249 0.0886633 0)
(-0.164485 0.075297 0)
(-0.171337 0.0606707 0)
(-0.176738 0.0450291 0)
(-0.180631 0.0286143 0)
(-0.182972 0.0116687 0)
(-0.183724 -0.0055618 0)
(-0.182858 -0.0228237 0)
(-0.180357 -0.039853 0)
(-0.176212 -0.0563717 0)
(-0.170432 -0.0720857 0)
(-0.163044 -0.0866845 0)
(-0.154098 -0.0998414 0)
(-0.143678 -0.111217 0)
(-0.131904 -0.120465 0)
(-0.118944 -0.12724 0)
(-0.105015 -0.13121 0)
(-0.0903947 -0.132071 0)
(-0.0754194 -0.129565 0)
(-0.0604874 -0.123494 0)
(-0.0460553 -0.113746 0)
(-0.0326311 -0.100312 0)
(-0.0207497 -0.083297 0)
(-0.0109478 -0.0629363 0)
(-0.00391305 -0.0395933 0)
(-0.000596362 -0.0137886 0)
(-0.000624082 0.0159905 0)
(-0.00400226 0.0449999 0)
(-0.0110712 0.0705391 0)
(-0.0208198 0.0922921 0)
(-0.0325378 0.110098 0)
(-0.0456983 0.123916 0)
(-0.0597982 0.133802 0)
(-0.0743762 0.139901 0)
(-0.0890305 0.142418 0)
(-0.103418 0.141602 0)
(-0.117254 0.137735 0)
(-0.130302 0.131109 0)
(-0.142376 0.122024 0)
(-0.153325 0.110775 0)
(-0.163033 0.0976507 0)
(-0.17141 0.0829277 0)
(-0.178384 0.0668734 0)
(-0.183898 0.049746 0)
(-0.187905 0.0317979 0)
(-0.190367 0.0132793 0)
(-0.191247 -0.0055567 0)
(-0.190517 -0.0244499 0)
(-0.188149 -0.0431277 0)
(-0.184125 -0.0613008 0)
(-0.178439 -0.0786598 0)
(-0.171098 -0.0948733 0)
(-0.162132 -0.109587 0)
(-0.151604 -0.122427 0)
(-0.139614 -0.133002 0)
(-0.126311 -0.140918 0)
(-0.111903 -0.145784 0)
(-0.0966629 -0.147231 0)
(-0.0809357 -0.144934 0)
(-0.0651406 -0.138631 0)
(-0.0497694 -0.128151 0)
(-0.0353801 -0.113431 0)
(-0.0225695 -0.0945449 0)
(-0.0119445 -0.0717103 0)
(-0.00428389 -0.0452973 0)
(-0.000656695 -0.0158586 0)
(-0.000673459 0.0180964 0)
(-0.00430018 0.0507127 0)
(-0.0118625 0.0792306 0)
(-0.0222495 0.103336 0)
(-0.0346753 0.122895 0)
(-0.0485575 0.137905 0)
(-0.0633466 0.148481 0)
(-0.0785468 0.154823 0)
(-0.0937341 0.157203 0)
(-0.108556 0.155933 0)
(-0.122725 0.151352 0)
(-0.136015 0.143804 0)
(-0.148252 0.133635 0)
(-0.159302 0.121177 0)
(-0.16907 0.106748 0)
(-0.177484 0.0906469 0)
(-0.184489 0.0731581 0)
(-0.190046 0.0545506 0)
(-0.194119 0.0350834 0)
(-0.196676 0.0150108 0)
(-0.197686 -0.00541196 0)
(-0.197117 -0.0259223 0)
(-0.194936 -0.0462439 0)
(-0.191112 -0.0660811 0)
(-0.185619 -0.085113 0)
(-0.178445 -0.102991 0)
(-0.169593 -0.119334 0)
(-0.159099 -0.133735 0)
(-0.147036 -0.145758 0)
(-0.133527 -0.154951 0)
(-0.118762 -0.160859 0)
(-0.103003 -0.16304 0)
(-0.0865971 -0.161088 0)
(-0.0699811 -0.154662 0)
(-0.0536813 -0.143513 0)
(-0.0383084 -0.127514 0)
(-0.024528 -0.10669 0)
(-0.0130275 -0.0812342 0)
(-0.00469087 -0.0515177 0)
(-0.00072396 -0.0181264 0)
(-0.00072731 0.0203599 0)
(-0.00462077 0.0568306 0)
(-0.0127058 0.0885012 0)
(-0.023757 0.115061 0)
(-0.036902 0.136407 0)
(-0.0514948 0.152591 0)
(-0.0669349 0.163792 0)
(-0.0826901 0.170288 0)
(-0.0983161 0.172426 0)
(-0.113453 0.170593 0)
(-0.12782 0.165193 0)
(-0.141204 0.156635 0)
(-0.15345 0.14531 0)
(-0.164451 0.131593 0)
(-0.174134 0.115831 0)
(-0.182453 0.0983458 0)
(-0.189377 0.0794348 0)
(-0.194886 0.0593748 0)
(-0.198959 0.0384277 0)
(-0.201576 0.0168469 0)
(-0.20271 -0.00511537 0)
(-0.202328 -0.0272 0)
(-0.200391 -0.0491328 0)
(-0.196853 -0.0706172 0)
(-0.19167 -0.0913265 0)
(-0.184802 -0.110899 0)
(-0.176225 -0.128932 0)
(-0.165938 -0.144984 0)
(-0.153979 -0.158574 0)
(-0.140439 -0.169192 0)
(-0.125477 -0.176309 0)
(-0.109337 -0.179397 0)
(-0.0923585 -0.177957 0)
(-0.0749904 -0.17155 0)
(-0.0577912 -0.15983 0)
(-0.0414269 -0.142587 0)
(-0.0266391 -0.11978 0)
(-0.0142075 -0.0915617 0)
(-0.00513928 -0.0582993 0)
(-0.00079932 -0.0206122 0)
(-0.000786823 0.0227942 0)
(-0.00496984 0.063382 0)
(-0.0136135 0.0983813 0)
(-0.0253599 0.127486 0)
(-0.0392349 0.150634 0)
(-0.0545196 0.167943 0)
(-0.0705569 0.179676 0)
(-0.0867775 0.186204 0)
(-0.102719 0.187966 0)
(-0.11802 0.185436 0)
(-0.132411 0.179101 0)
(-0.145703 0.169433 0)
(-0.157768 0.156881 0)
(-0.16853 0.14186 0)
(-0.177951 0.124748 0)
(-0.186014 0.105889 0)
(-0.192717 0.0855897 0)
(-0.198064 0.0641311 0)
(-0.202054 0.0417728 0)
(-0.204681 0.0187615 0)
(-0.205924 -0.00465965 0)
(-0.205752 -0.0282414 0)
(-0.204118 -0.0517189 0)
(-0.200963 -0.0748013 0)
(-0.196221 -0.0971629 0)
(-0.189823 -0.118435 0)
(-0.181709 -0.138198 0)
(-0.171837 -0.15598 0)
(-0.160201 -0.171256 0)
(-0.146848 -0.183453 0)
(-0.131896 -0.191962 0)
(-0.115557 -0.19616 0)
(-0.0981536 -0.195436 0)
(-0.0801366 -0.189232 0)
(-0.0620929 -0.177084 0)
(-0.0447448 -0.15867 0)
(-0.0289174 -0.133859 0)
(-0.0154971 -0.102751 0)
(-0.00563545 -0.0656928 0)
(-0.000884209 -0.0233392 0)
(-0.000853643 0.0254157 0)
(-0.0053553 0.0704023 0)
(-0.0146028 0.108908 0)
(-0.0270811 0.140633 0)
(-0.0416961 0.165569 0)
(-0.0576435 0.183918 0)
(-0.0742039 0.196051 0)
(-0.0907705 0.202449 0)
(-0.106867 0.203667 0)
(-0.122139 0.200284 0)
(-0.136338 0.192875 0)
(-0.149307 0.181989 0)
(-0.160956 0.168136 0)
(-0.171252 0.151775 0)
(-0.180195 0.133313 0)
(-0.187807 0.113111 0)
(-0.19412 0.0914836 0)
(-0.199168 0.0687108 0)
(-0.202972 0.0450438 0)
(-0.205544 0.0207165 0)
(-0.206872 -0.00404413 0)
(-0.206927 -0.0290062 0)
(-0.205657 -0.0539217 0)
(-0.202988 -0.0785139 0)
(-0.198832 -0.102466 0)
(-0.193088 -0.12541 0)
(-0.185656 -0.146917 0)
(-0.176445 -0.16649 0)
(-0.165396 -0.183562 0)
(-0.1525 -0.197497 0)
(-0.137819 -0.2076 0)
(-0.121518 -0.21314 0)
(-0.103889 -0.213379 0)
(-0.0853711 -0.207614 0)
(-0.066572 -0.195231 0)
(-0.0482694 -0.175767 0)
(-0.0313795 -0.148973 0)
(-0.0169114 -0.114863 0)
(-0.00618727 -0.0737555 0)
(-0.000980458 -0.0263343 0)
(-0.000930091 0.0282461 0)
(-0.00578809 0.0779366 0)
(-0.0156967 0.120127 0)
(-0.0289516 0.154527 0)
(-0.044314 0.181199 0)
(-0.0608801 0.200457 0)
(-0.0778625 0.212804 0)
(-0.0946178 0.218866 0)
(-0.110663 0.219332 0)
(-0.125662 0.214906 0)
(-0.1394 0.206267 0)
(-0.151763 0.194049 0)
(-0.162714 0.178824 0)
(-0.172269 0.161095 0)
(-0.180478 0.141301 0)
(-0.187409 0.119813 0)
(-0.193134 0.0969492 0)
(-0.197719 0.0729818 0)
(-0.201214 0.0481476 0)
(-0.203648 0.0226603 0)
(-0.205025 -0.00327656 0)
(-0.205318 -0.0294567 0)
(-0.204471 -0.0556574 0)
(-0.202398 -0.0816252 0)
(-0.198986 -0.107062 0)
(-0.194102 -0.13161 0)
(-0.187599 -0.15484 0)
(-0.179335 -0.176238 0)
(-0.169186 -0.1952 0)
(-0.157072 -0.21103 0)
(-0.142987 -0.222943 0)
(-0.127028 -0.23009 0)
(-0.109436 -0.231585 0)
(-0.0906231 -0.226553 0)
(-0.0712036 -0.214195 0)
(-0.0520062 -0.193868 0)
(-0.0340446 -0.165158 0)
(-0.0184691 -0.127966 0)
(-0.00680496 -0.0825527 0)
(-0.00109049 -0.029629 0)
(-0.00101947 0.0313134 0)
(-0.00628343 0.086043 0)
(-0.0169268 0.132094 0)
(-0.0310122 0.169194 0)
(-0.0471248 0.1975 0)
(-0.0642446 0.217473 0)
(-0.0815106 0.229788 0)
(-0.098248 0.235248 0)
(-0.113979 0.234709 0)
(-0.128398 0.229017 0)
(-0.141344 0.218973 0)
(-0.152761 0.205301 0)
(-0.162676 0.188639 0)
(-0.171168 0.169535 0)
(-0.178346 0.14845 0)
(-0.184329 0.125764 0)
(-0.189236 0.101791 0)
(-0.193169 0.0767888 0)
(-0.19621 0.0509719 0)
(-0.198409 0.0245268 0)
(-0.199785 -0.00237472 0)
(-0.200318 -0.0295602 0)
(-0.199951 -0.0568414 0)
(-0.198584 -0.0839981 0)
(-0.196083 -0.110761 0)
(-0.192281 -0.136795 0)
(-0.186985 -0.161682 0)
(-0.179992 -0.184902 0)
(-0.171105 -0.205823 0)
(-0.160163 -0.223694 0)
(-0.14707 -0.237643 0)
(-0.131835 -0.246691 0)
(-0.114622 -0.249785 0)
(-0.0957931 -0.24585 0)
(-0.0759484 -0.233859 0)
(-0.0559578 -0.212933 0)
(-0.036936 -0.182446 0)
(-0.0201947 -0.142131 0)
(-0.00750212 -0.0921601 0)
(-0.00121762 -0.0332613 0)
(-0.00112653 0.0346553 0)
(-0.00686262 0.0947978 0)
(-0.0183357 0.144883 0)
(-0.0333163 0.184665 0)
(-0.0501729 0.214434 0)
(-0.0677501 0.234849 0)
(-0.0851108 0.246807 0)
(-0.101559 0.251331 0)
(-0.116638 0.249479 0)
(-0.130099 0.242266 0)
(-0.141848 0.230625 0)
(-0.151912 0.215377 0)
(-0.160396 0.197227 0)
(-0.167454 0.176761 0)
(-0.173261 0.154458 0)
(-0.177997 0.1307 0)
(-0.181828 0.105787 0)
(-0.184898 0.0799535 0)
(-0.18732 0.053386 0)
(-0.189171 0.0262347 0)
(-0.190484 -0.00136778 0)
(-0.191249 -0.0292914 0)
(-0.191409 -0.0573917 0)
(-0.190857 -0.0854918 0)
(-0.189438 -0.113363 0)
(-0.186953 -0.140706 0)
(-0.183162 -0.167127 0)
(-0.1778 -0.192115 0)
(-0.17059 -0.215026 0)
(-0.161274 -0.235063 0)
(-0.149648 -0.25127 0)
(-0.13561 -0.262536 0)
(-0.119215 -0.267627 0)
(-0.100741 -0.26523 0)
(-0.0807462 -0.254043 0)
(-0.0601219 -0.232887 0)
(-0.0400821 -0.200852 0)
(-0.0221203 -0.157434 0)
(-0.00829737 -0.102667 0)
(-0.00136649 -0.0372775 0)
(-0.00125821 0.0383225 0)
(-0.00755564 0.104301 0)
(-0.0199817 0.158583 0)
(-0.0359332 0.200967 0)
(-0.0535099 0.231938 0)
(-0.0714013 0.252418 0)
(-0.0885974 0.263595 0)
(-0.104398 0.266772 0)
(-0.118399 0.263244 0)
(-0.13043 0.254221 0)
(-0.140498 0.24078 0)
(-0.14873 0.223843 0)
(-0.155329 0.204176 0)
(-0.160533 0.182396 0)
(-0.164595 0.158989 0)
(-0.167754 0.134327 0)
(-0.170231 0.108689 0)
(-0.172209 0.082279 0)
(-0.173835 0.0552429 0)
(-0.175209 0.0276891 0)
(-0.176385 -0.000296976 0)
(-0.177362 -0.0286352 0)
(-0.178088 -0.0572333 0)
(-0.17845 -0.0859679 0)
(-0.17828 -0.114663 0)
(-0.17735 -0.143069 0)
(-0.175377 -0.170832 0)
(-0.172032 -0.19747 0)
(-0.166957 -0.222345 0)
(-0.159787 -0.244632 0)
(-0.150191 -0.263303 0)
(-0.137925 -0.277121 0)
(-0.122901 -0.284653 0)
(-0.10527 -0.284321 0)
(-0.0855055 -0.27449 0)
(-0.0644876 -0.253605 0)
(-0.0435174 -0.220373 0)
(-0.0242892 -0.173958 0)
(-0.00921688 -0.11418 0)
(-0.00154382 -0.0417358 0)
(-0.00142489 0.042385 0)
(-0.00840525 0.114687 0)
(-0.0219436 0.173304 0)
(-0.0389502 0.218124 0)
(-0.0571904 0.249907 0)
(-0.0751815 0.269943 0)
(-0.0918543 0.2798 0)
(-0.106538 0.281126 0)
(-0.118917 0.275503 0)
(-0.128943 0.264358 0)
(-0.136754 0.248918 0)
(-0.142603 0.230201 0)
(-0.146806 0.209024 0)
(-0.149698 0.186022 0)
(-0.15161 0.161675 0)
(-0.152847 0.136332 0)
(-0.153678 0.110238 0)
(-0.154328 0.0835554 0)
(-0.154973 0.0563846 0)
(-0.155737 0.0287836 0)
(-0.156691 0.000784678 0)
(-0.157848 -0.0275885 0)
(-0.159163 -0.0563031 0)
(-0.160524 -0.085298 0)
(-0.161756 -0.114461 0)
(-0.162609 -0.143606 0)
(-0.162766 -0.17244 0)
(-0.161841 -0.200529 0)
(-0.159393 -0.227266 0)
(-0.154945 -0.251823 0)
(-0.148025 -0.273125 0)
(-0.13822 -0.28982 0)
(-0.125255 -0.300278 0)
(-0.1091 -0.302626 0)
(-0.0900854 -0.294838 0)
(-0.0690269 -0.274885 0)
(-0.047283 -0.240969 0)
(-0.0267604 -0.191788 0)
(-0.0102981 -0.12683 0)
(-0.00175964 -0.0467112 0)
(-0.00164242 0.0469403 0)
(-0.0094731 0.126132 0)
(-0.024328 0.189184 0)
(-0.0424735 0.236139 0)
(-0.0612608 0.268174 0)
(-0.0790278 0.287087 0)
(-0.0946794 0.294945 0)
(-0.107628 0.293824 0)
(-0.117702 0.285638 0)
(-0.125028 0.272048 0)
(-0.12991 0.254431 0)
(-0.132754 0.233886 0)
(-0.134004 0.211263 0)
(-0.134098 0.187194 0)
(-0.133447 0.162134 0)
(-0.132415 0.136392 0)
(-0.131316 0.110168 0)
(-0.130408 0.0835714 0)
(-0.129891 0.0566501 0)
(-0.129911 0.0294061 0)
(-0.130554 0.00181415 0)
(-0.131848 -0.0261627 0)
(-0.133757 -0.0545559 0)
(-0.136179 -0.083373 0)
(-0.138938 -0.112576 0)
(-0.141777 -0.142055 0)
(-0.144356 -0.171594 0)
(-0.146244 -0.200837 0)
(-0.146928 -0.229233 0)
(-0.145822 -0.25599 0)
(-0.142303 -0.280019 0)
(-0.135763 -0.299881 0)
(-0.125698 -0.313765 0)
(-0.11183 -0.319488 0)
(-0.0942664 -0.314575 0)
(-0.0736789 -0.296418 0)
(-0.0514241 -0.262549 0)
(-0.029614 -0.211011 0)
(-0.0115961 -0.140782 0)
(-0.00202944 -0.0523037 0)
(-0.00193588 0.0521266 0)
(-0.0108497 0.138875 0)
(-0.0272781 0.206379 0)
(-0.0466246 0.254972 0)
(-0.0657363 0.286464 0)
(-0.0827874 0.303363 0)
(-0.0967247 0.308388 0)
(-0.107126 0.304134 0)
(-0.114047 0.292888 0)
(-0.117843 0.276551 0)
(-0.119032 0.256632 0)
(-0.118195 0.234285 0)
(-0.115912 0.21036 0)
(-0.112723 0.185459 0)
(-0.10911 0.159987 0)
(-0.105488 0.134198 0)
(-0.102202 0.108228 0)
(-0.0995319 0.082129 0)
(-0.0976958 0.0558871 0)
(-0.0968508 0.0294464 0)
(-0.0970964 0.00272192 0)
(-0.0984732 -0.0243846 0)
(-0.100961 -0.0519704 0)
(-0.104471 -0.0801149 0)
(-0.108841 -0.10886 0)
(-0.113821 -0.138183 0)
(-0.119067 -0.167966 0)
(-0.124125 -0.197949 0)
(-0.128427 -0.227677 0)
(-0.131295 -0.256436 0)
(-0.131955 -0.283171 0)
(-0.129593 -0.306412 0)
(-0.123432 -0.324198 0)
(-0.112874 -0.334049 0)
(-0.0977014 -0.332997 0)
(-0.0783203 -0.317736 0)
(-0.0559813 -0.284933 0)
(-0.0329583 -0.231704 0)
(-0.013193 -0.156245 0)
(-0.00237807 -0.0586506 0)
(-0.00234639 0.0581446 0)
(-0.0126703 0.153231 0)
(-0.030983 0.225056 0)
(-0.051525 0.274498 0)
(-0.0705518 0.304333 0)
(-0.0861404 0.31807 0)
(-0.0974007 0.319264 0)