/*--------------------------------*- C++ -*----------------------------------*\
  =========                 |
  \\      /  F ield         | OpenFOAM: The Open Source CFD Toolbox
   \\    /   O peration     | Website:  https://openfoam.org
    \\  /    A nd           | Version:  7
     \\/     M anipulation  |
\*---------------------------------------------------------------------------*/
FoamFile
{
    version     2.0;
    format      ascii;
    class       volScalarField;
    location    "150";
    object      omega;
}
// * * * * * * * * * * * * * * * * * * * * * * * * * * * * * * * * * * * * * //

dimensions      [0 0 -1 0 0 0 0];

internalField   nonuniform List<scalar> 
12842
(
3.13118
2.82919
2.63777
2.50964
2.4164
2.3559
2.31269
2.28773
2.26434
2.25259
2.24127
2.24355
2.25214
2.27482
2.31547
2.39149
2.50652
2.6495
2.84037
3.01974
3.19982
3.40815
3.5574
3.10813
2.79442
2.61271
2.49899
2.41041
2.3505
2.30801
2.28102
2.26066
2.24959
2.23948
2.24181
2.25141
2.27512
2.31845
2.39327
2.51334
2.64952
2.85054
3.01694
3.21772
3.40699
3.58849
3.08269
2.75613
2.5682
2.46192
2.38584
2.33147
2.29309
2.27047
2.25159
2.24218
2.23575
2.23972
2.2516
2.27794
2.32564
2.40429
2.53445
2.68347
2.89788
3.06393
3.28091
3.42142
3.61021
3.04602
2.71871
2.53985
2.43766
2.36783
2.31889
2.28314
2.26237
2.24727
2.23836
2.23326
2.23695
2.25105
2.28141
2.33569
2.42241
2.55675
2.69839
2.91498
3.08196
3.33584
3.50521
3.68606
3.01185
2.67433
2.50018
2.40511
2.34255
2.29941
2.26914
2.25219
2.23923
2.23236
2.23132
2.23687
2.2538
2.28778
2.3447
2.43559
2.58945
2.74974
2.97758
3.1391
3.36967
3.52708
3.75503
2.97087
2.63602
2.47194
2.38237
2.32508
2.28633
2.25846
2.24465
2.23455
2.22811
2.2294
2.23689
2.25505
2.29276
2.35898
2.46147
2.61353
2.77163
3.00536
3.17984
3.45541
3.61688
3.84869
2.93416
2.59635
2.43897
2.35601
2.30349
2.26972
2.24636
2.23599
2.22789
2.22402
2.22772
2.2362
2.25992
2.30056
2.36851
2.4753
2.65544
2.83355
3.08431
3.25311
3.49996
3.66106
3.91644
2.8937
2.56218
2.41478
2.3375
2.28922
2.25844
2.23699
2.22908
2.22318
2.22081
2.22546
2.23531
2.26119
2.30801
2.38545
2.50397
2.6765
2.85723
3.11867
3.30958
3.61359
3.77269
3.9966
2.85587
2.52975
2.38957
2.31804
2.27341
2.24631
2.22825
2.22288
2.2182
2.21854
2.22411
2.23611
2.26444
2.31211
2.39246
2.51727
2.72118
2.91662
3.19792
3.383
3.66423
3.87714
4.14488
2.81031
2.4961
2.36854
2.3034
2.26301
2.23807
2.22215
2.21817
2.21529
2.21689
2.22325
2.23796
2.26792
2.32087
2.40876
2.53993
2.73981
2.94119
3.23298
3.45044
3.77105
3.95115
4.20809
2.76772
2.46738
2.34786
2.28814
2.25131
2.22912
2.21609
2.21343
2.21183
2.21538
2.22142
2.2406
2.27259
2.32772
2.41731
2.56217
2.7862
3.00541
3.31678
3.52237
3.83839
4.0721
4.37707
2.72206
2.43796
2.32985
2.27556
2.24264
2.22222
2.21137
2.20935
2.20936
2.21383
2.22157
2.24236
2.27806
2.33854
2.43867
2.58139
2.80966
3.03843
3.37383
3.61381
3.95905
4.16601
4.4549
2.67998
2.41383
2.31259
2.26288
2.23317
2.21492
2.20656
2.20503
2.20641
2.2126
2.21959
2.24551
2.28279
2.34713
2.44958
2.61858
2.86711
3.12056
3.46228
3.70337
4.06251
4.30462
4.67047
2.64235
2.38932
2.29742
2.25221
2.22591
2.20933
2.20295
2.2016
2.20427
2.21126
2.22094
2.24749
2.28939
2.35934
2.47543
2.63855
2.89761
3.17224
3.55353
3.82552
4.21734
4.46636
4.79507
2.60987
2.3696
2.28306
2.24171
2.21815
2.20357
2.19907
2.19769
2.2018
2.21045
2.22237
2.25084
2.29503
2.37067
2.4898
2.68889
2.97156
3.27506
3.65601
3.95652
4.3724
4.63884
5.12833
2.58072
2.34965
2.27026
2.23278
2.21198
2.19923
2.19618
2.19484
2.2
2.20923
2.22405
2.25355
2.30321
2.38515
2.52121
2.71706
3.01244
3.3594
3.7877
4.12146
4.57551
4.93059
5.33901
2.55559
2.33385
2.25822
2.22399
2.20551
2.19478
2.19292
2.1914
2.19803
2.20835
2.22557
2.2576
2.31051
2.40081
2.54394
2.78267
3.10852
3.48001
3.91605
4.31109
4.8073
5.16396
5.79708
2.53285
2.31761
2.24732
2.21649
2.20023
2.19139
2.19034
2.18902
2.19657
2.2072
2.22705
2.2612
2.32108
2.41875
2.57952
2.81877
3.16383
3.59724
4.0928
4.53098
5.06919
5.63783
6.24448
2.51344
2.30493
2.23714
2.209
2.19477
2.18787
2.1874
2.18604
2.19506
2.20597
2.2288
2.26674
2.33064
2.44006
2.61614
2.90274
3.28267
3.73593
4.26629
4.78329
5.43206
6.02367
6.71192
2.49575
2.29163
2.22769
2.20261
2.1902
2.18504
2.18492
2.1841
2.19392
2.20648
2.23117
2.27149
2.34407
2.46173
2.65437
2.94825
3.36016
3.89332
4.48756
5.09704
5.83054
6.64957
7.5744
2.48064
2.28133
2.21902
2.19607
2.1855
2.18201
2.18203
2.18149
2.19303
2.2068
2.23298
2.27883
2.35671
2.49107
2.70848
3.0496
3.49921
4.05422
4.72647
5.43094
6.35494
7.34612
8.13963
2.4669
2.27016
2.21077
2.19042
2.18146
2.17939
2.17959
2.17995
2.19167
2.20814
2.23684
2.2852
2.37174
2.51397
2.74692
3.10596
3.60076
4.25925
4.98458
5.86007
6.95233
7.95951
9.31926
2.45495
2.26162
2.20329
2.18454
2.1772
2.17639
2.17666
2.17759
2.19071
2.20825
2.23893
2.29473
2.38916
2.55388
2.82066
3.22854
3.77459
4.44957
5.30006
6.29359
7.48421
8.93363
10.5489
2.4461
2.25421
2.1976
2.18082
2.17465
2.17481
2.17503
2.17689
2.19083
2.21017
2.24392
2.30196
2.40145
2.57624
2.8618
3.29794
3.89052
4.68993
5.59085
6.73376
8.20626
9.82522
11.8252
2.43895
2.24936
2.19378
2.17822
2.17292
2.17356
2.17371
2.17638
2.18999
2.21197
2.24872
2.31441
2.42297
2.62024
2.94533
3.44186
4.10943
4.92233
5.92354
7.21224
8.89227
11.1234
14.5169
2.43292
2.24457
2.19035
2.17596
2.17113
2.17223
2.17254
2.17612
2.19015
2.21365
2.25351
2.32296
2.43547
2.64508
2.99106
3.52132
4.23931
5.152
6.24476
7.79449
10.0484
13.9845
20.9546
2.42615
2.24003
2.18683
2.17343
2.16924
2.17074
2.1712
2.17582
2.19015
2.21516
2.25884
2.33638
2.46051
2.6986
3.08945
3.6817
4.47817
5.46467
6.74904
8.75145
12.7585
21.8304
40.9769
2.42077
2.23555
2.18372
2.17119
2.16723
2.16918
2.16999
2.17566
2.19108
2.21654
2.26336
2.34535
2.47329
2.72704
3.14231
3.79114
4.68348
5.81544
7.45673
10.9778
20.5193
47.635
113.507
2.4143
2.23127
2.18049
2.16865
2.16517
2.16752
2.16863
2.17543
2.1906
2.21808
2.26924
2.35921
2.49977
2.78706
3.2517
3.95547
4.94263
6.36799
8.93511
17.0476
45.0367
133.085
273.72
2.40936
2.22709
2.17767
2.16632
2.16301
2.16586
2.16742
2.17522
2.1909
2.21933
2.27393
2.36856
2.51381
2.81916
3.31307
4.11628
5.31119
7.18567
12.5223
33.4488
111.854
260.055
377.536
2.40319
2.22305
2.1747
2.16375
2.16083
2.16412
2.16608
2.17489
2.19078
2.22085
2.27984
2.38284
2.54285
2.88536
3.43573
4.29996
5.67546
8.87732
21.301
75.6634
203.466
353.381
431.001
2.39846
2.2191
2.17207
2.16126
2.15864
2.16248
2.16487
2.17458
2.19038
2.22245
2.28567
2.39301
2.55861
2.92175
3.51038
4.518
6.47209
12.4426
40.7385
129.854
285.929
393.679
431.776
2.39261
2.2153
2.16933
2.1587
2.15644
2.1607
2.16357
2.17397
2.1894
2.22408
2.29165
2.40828
2.59154
2.995
3.64931
4.80026
7.59212
19.8799
71.4338
196.236
337.242
384.031
405.742
2.38791
2.21146
2.16676
2.15608
2.15432
2.1591
2.16236
2.17328
2.18838
2.22596
2.29798
2.41925
2.61052
3.04426
3.78804
5.27363
10.2649
32.3912
105.683
248.079
338.194
362.493
357.23
2.38243
2.20792
2.16422
2.15363
2.15226
2.15733
2.16106
2.17217
2.18714
2.22798
2.30506
2.43637
2.64803
3.1188
3.92808
5.82602
13.468
46.9309
140.592
274.029
322.019
322.94
304.647
2.37771
2.20407
2.16161
2.15101
2.1503
2.15577
2.15987
2.17094
2.18642
2.22993
2.31165
2.44861
2.67487
3.21032
4.26561
7.13738
19.0744
65.4473
173.693
282.205
300.905
282.531
259.086
2.37258
2.20081
2.15921
2.14874
2.1485
2.15404
2.15857
2.16953
2.18609
2.23215
2.31954
2.46689
2.71518
3.28946
4.52574
8.41028
26.6583
82.8269
197.409
274.385
279.725
247.519
225.85
2.36795
2.19692
2.15657
2.14626
2.14677
2.15252
2.15745
2.168
2.18605
2.23466
2.32681
2.48117
2.75776
3.43844
5.13247
11.4734
35.678
99.9785
210.996
261.056
254.37
221.577
202.841
2.36312
2.19393
2.15425
2.1441
2.14529
2.15086
2.15618
2.16644
2.18608
2.23855
2.33573
2.50226
2.80407
3.62562
5.89105
14.2181
44.8668
113.789
216.316
249.685
233.932
204.218
186.771
2.3587
2.19007
2.1517
2.14185
2.14384
2.14938
2.15513
2.16496
2.18638
2.24209
2.34397
2.51998
2.87303
3.79573
6.80812
19.263
56.1105
129.389
220.522
237.721
215.026
191.202
175.127
2.35417
2.1873
2.14941
2.13983
2.1426
2.14786
2.15399
2.16346
2.18671
2.24801
2.35408
2.54295
2.93992
4.25135
8.9002
24.9203
66.6656
144.663
216.883
226.264
202.388
180.929
167.109
2.35004
2.18359
2.14706
2.13787
2.1414
2.14643
2.15299
2.16225
2.18737
2.25222
2.36403
2.57222
3.0647
4.56977
10.3782
31.4002
81.1314
158.247
209.025
215.029
193.466
174.992
161.616
2.34582
2.18101
2.1448
2.13603
2.14029
2.14511
2.15209
2.16104
2.18786
2.25589
2.37385
2.59916
3.17136
5.34165
13.9526
40.749
96.139
170.937
204.048
203.85
185.653
169.547
158.914
2.34198
2.17758
2.14267
2.13434
2.13927
2.14376
2.15113
2.16011
2.18844
2.25964
2.38403
2.6343
3.33076
5.99928
17.1445
51.6622
113.618
178.571
197.449
194.096
179.49
170.208
159.526
2.33811
2.17516
2.14055
2.13272
2.13826
2.14268
2.15048
2.15925
2.1888
2.26225
2.39705
2.67637
3.56517
7.73463
23.7291
64.4613
130.488
183.313
193.445
190.993
179.19
169.145
161.187
2.33458
2.17209
2.13857
2.13124
2.13732
2.1415
2.14961
2.15866
2.18941
2.26473
2.41009
2.72733
3.82828
8.9911
29.0872
77.4641
145.149
188.835
191.439
187.243
180.739
172.349
165.507
2.33103
2.1698
2.13667
2.12986
2.13635
2.14062
2.14914
2.15795
2.18992
2.27115
2.4335
2.79847
4.31396
11.7554
37.7689
91.1904
157.919
193.897
192.75
185.952
178.36
172.922
168.349
2.3278
2.16716
2.1348
2.12853
2.13545
2.13981
2.14842
2.15755
2.19048
2.27859
2.45143
2.90896
4.97093
14.1625
45.2502
103.77
169.043
197.464
194.755
188.056
181.543
174.533
169.98
2.32463
2.16501
2.13315
2.12739
2.13452
2.13904
2.14805
2.15701
2.1915
2.28768
2.49189
3.02319
5.6761
16.9806
54.3504
121.284
179.479
200.28
198.047
191.875
184.14
176.752
171.929
2.32195
2.16309
2.13168
2.12643
2.13388
2.13854
2.14771
2.15663
2.19237
2.29757
2.5147
3.13887
6.47489
20.7965
65.3009
142.401
188.932
202.798
197.717
193.361
185.807
178.895
173.966
2.31993
2.16165
2.13063
2.12579
2.13327
2.13809
2.14759
2.1563
2.19294
2.30022
2.5266
3.25561
6.88453
23.4687
77.0017
160.379
196.766
205.262
200.952
194.992
187.111
180.888
176.567
2.3183
2.16067
2.12976
2.12527
2.1329
2.13749
2.14747
2.15604
2.1937
2.30251
2.55014
3.42359
7.52661
27.397
89.6637
173.551
202.844
207.446
203.138
196.299
188.586
183.51
180.012
2.31724
2.15988
2.12916
2.12494
2.13251
2.13728
2.14737
2.15605
2.19489
2.30348
2.55381
3.46745
7.94655
31.7072
100.755
182.641
207.253
209.387
205.874
198.041
190.382
186.164
183.37
2.31636
2.15948
2.12869
2.12463
2.13227
2.13749
2.14734
2.1562
2.1977
2.30249
2.55707
3.56012
8.61541
34.5961
108.907
188.697
210.63
212.317
207.374
198.566
191.679
188.141
185.895
2.31588
2.15915
2.12838
2.12444
2.132
2.13809
2.14715
2.15644
2.20036
2.30352
2.55554
3.5544
9.11004
35.32
113.527
192.456
213.076
213.869
207.374
198.007
191.679
189.051
187.262
2.31549
2.15907
2.12817
2.12421
2.13181
2.13869
2.14719
2.15732
2.20438
2.30796
2.54015
3.49671
9.0418
35.3525
116.204
194.874
216.12
213.836
205.647
196.24
190.604
188.841
187.726
2.31529
2.15898
2.12802
2.12401
2.13157
2.13915
2.14736
2.15842
2.20769
2.31177
2.53877
3.40233
8.67118
33.6207
116.426
197.231
216.71
212.357
202.838
193.662
188.546
187.615
187.126
2.315
2.15892
2.12786
2.12372
2.13132
2.13942
2.14769
2.15952
2.21099
2.31618
2.52918
3.30152
8.09138
31.1876
115.243
198.046
215.95
209.239
198.078
188.953
184.742
184.151
185.628
2.31473
2.15876
2.1277
2.12346
2.13102
2.13965
2.14814
2.16077
2.21408
2.32015
2.53015
3.21879
7.32152
27.6795
111.776
198.213
214.049
204.822
191.992
183.292
180.025
179.564
182.281
2.31434
2.15861
2.12749
2.12308
2.13069
2.1395
2.14846
2.16192
2.21712
2.32477
2.52562
3.15636
6.68469
23.7784
105.611
197.472
210.466
199.374
185.315
178.016
175.273
175.087
178.741
2.31391
2.1584
2.12729
2.12278
2.13034
2.13958
2.14875
2.16306
2.21978
2.3288
2.52581
3.11609
6.08107
20.6248
96.581
195.611
205.172
193.097
178.928
172.73
170.578
171.386
176.157
2.31341
2.15806
2.127
2.12234
2.12994
2.13934
2.14864
2.16413
2.22243
2.33362
2.53018
3.08684
5.67831
17.9712
86.1171
192.498
198.397
186.11
172.828
167.724
166.39
168.911
174.742
2.31276
2.15777
2.12675
2.12201
2.12953
2.13931
2.14874
2.16516
2.22464
2.33768
2.53666
3.09606
5.4212
16.13
75.557
187.999
190.74
178.931
167.185
163.255
163.29
167.874
174.352
2.31211
2.15722
2.12636
2.12155
2.12904
2.13939
2.14881
2.16612
2.22697
2.34269
2.54497
3.07853
5.29332
15.7557
67.2774
182.263
182.757
171.969
162.929
159.882
161.228
167.451
174.48
2.31122
2.15683
2.12602
2.12122
2.12856
2.13912
2.14859
2.167
2.22885
2.34679
2.554
3.09267
5.20478
15.334
60.8974
175.79
174.911
165.852
159.034
156.971
160.338
167.711
175.401
2.3104
2.15608
2.12554
2.12075
2.12803
2.13867
2.14856
2.16772
2.23103
2.35202
2.56464
3.07397
5.17485
15.0276
58.1881
169.308
167.67
160.525
155.466
154.627
159.74
168.998
176.789
2.30932
2.15554
2.12505
2.12041
2.12744
2.13806
2.14864
2.1683
2.23273
2.35613
2.57463
3.08872
5.17752
14.3206
56.8909
163.497
161.361
155.899
152.541
153.757
159.731
171.557
177.791
2.30826
2.15465
2.1245
2.11994
2.12689
2.1375
2.1486
2.16872
2.23487
2.36152
2.58548
3.08139
5.1855
14.1921
56.2522
158.657
156.028
152.471
150.175
153.134
160.39
174.715
177.655
2.30709
2.15393
2.12382
2.11961
2.12622
2.13679
2.14836
2.16897
2.2365
2.36526
2.5951
3.08731
5.07277
14.2642
56.4971
154.75
151.555
149.349
147.709
152.945
162.265
176.229
178.745
2.30576
2.15296
2.12324
2.1191
2.12568
2.13626
2.14792
2.16915
2.2386
2.37058
2.60338
3.09526
5.16348
13.9913
56.2335
151.527
148.061
146.58
146.453
153.137
164.86
177.771
179.003
2.30453
2.15205
2.12239
2.11879
2.12494
2.13558
2.14745
2.16926
2.24006
2.37344
2.60913
3.10286
5.11165
14.2362
57.3597
148.796
145.243
144.036
145.271
153.638
167.335
179.956
180.409
2.30301
2.15102
2.12178
2.11821
2.1244
2.1351
2.14689
2.16926
2.24195
2.37841
2.61401
3.12008
5.19001
15.7253
61.7503
146.365
142.783
141.871
144.404
154.533
169.399
183.023
183.242
2.30169
2.14999
2.12082
2.11789
2.12368
2.13447
2.14639
2.1693
2.24302
2.3809
2.6205
3.15302
5.5481
19.0481
68.1839
144.025
140.756
140.004
144.033
156.024
171.284
181.953
186.597
2.30011
2.14885
2.12019
2.11724
2.12311
2.13402
2.14584
2.16928
2.24462
2.38666
2.63716
3.27978
6.72808
24.0804
75.7488
141.59
138.688
138.227
144.016
157.724
172.746
190.057
191.338
2.2986
2.14783
2.11915
2.11689
2.12249
2.13345
2.1454
2.16929
2.24542
2.38994
2.67267
3.61438
8.75686
30.244
83.5641
139.055
136.645
136.428
144.142
159.994
174.266
194.971
196.793
2.29714
2.14647
2.11849
2.11617
2.12186
2.13296
2.14493
2.16929
2.24709
2.40032
2.74198
4.18796
11.609
37.0963
91.0057
136.222
134.612
135.545
144.781
163.609
175.204
198.138
207.019
2.29538
2.14556
2.11739
2.11577
2.12136
2.13246
2.1445
2.1693
2.248
2.40695
2.84352
5.04149
15.1839
44.2741
97.5997
133.265
132.429
134.67
146.213
167.358
179.578
206.22
213.885
2.29401
2.14401
2.11671
2.11494
2.1207
2.13187
2.14413
2.16941
2.25072
2.42817
2.99993
6.16639
19.3904
51.6156
102.75
130.035
130.44
134.177
148.758
171.768
185
212.336
225.713
2.29217
2.1431
2.11555
2.11448
2.12014
2.13139
2.14365
2.16942
2.25227
2.44188
3.1906
7.52847
23.9937
58.8409
106.78
126.787
128.424
134.654
152.572
177.133
193.014
220.278
235.628
2.29058
2.1415
2.11488
2.11353
2.11957
2.13076
2.14333
2.16996
2.25817
2.47943
3.4455
9.10602
28.9426
65.7842
109.6
123.824
126.156
136.072
157.499
182.075
201.09
227.395
243.032
2.28891
2.14045
2.11366
2.11296
2.11877
2.13026
2.14262
2.17013
2.26158
2.50327
3.72107
10.8093
33.9299
72.1028
111.173
121.021
124.99
138.788
162.082
189.24
209.609
232.962
245.764
2.28678
2.13886
2.113
2.11198
2.11826
2.12954
2.14221
2.1722
2.27339
2.55976
4.05592
12.6327
39.0002
77.7827
111.711
118.586
123.945
141.924
168.797
195.251
214.644
234.515
246.95
2.28534
2.13751
2.11169
2.11115
2.11721
2.12908
2.1413
2.17343
2.28032
2.595
4.38961
14.4636
43.7579
82.7944
111.82
116.664
123.045
146.6
172.419
196.483
213.934
235.676
248.682
2.28273
2.13602
2.11099
2.11035
2.11659
2.12801
2.14106
2.17868
2.3003
2.66852
4.77072
16.296
48.3615
86.5795
111.371
114.941
122.994
150.266
174.883
198.079
215.124
234.458
246.554
2.28134
2.1342
2.10952
2.10907
2.11515
2.12728
2.14074
2.18251
2.31229
2.71372
5.12564
18.0362
52.3093
90.1769
110.32
112.989
124.643
152.126
178.508
197.214
216.802
232.43
242.184
2.27853
2.13271
2.10871
2.10832
2.11428
2.12619
2.14169
2.19301
2.34163
2.79948
5.51957
19.7003
56.0782
92.3911
108.762
112.104
126.407
156.27
178.963
197.691
214.457
228.549
237.309
2.27705
2.13047
2.10704
2.10667
2.11248
2.12503
2.14216
2.20122
2.36049
2.85166
5.86213
21.1757
58.8912
94.6387
106.771
110.527
130.343
156.298
178.411
196.984
213.338
224.552
231.408
2.274
2.1287
2.10593
2.10564
2.11181
2.12569
2.14672
2.21805
2.39856
2.9465
6.23869
22.5446
61.8878
95.3274
104.554
109.206
132.448
157.304
179.43
194.518
205.448
212.599
217.639
2.27229
2.12606
2.10416
2.10342
2.11033
2.12532
2.15148
2.23256
2.42521
3.00241
6.54608
23.7319
64.0594
95.2686
102.107
109.646
133.581
159.296
175.261
184.856
192.081
198.642
204.592
2.26899
2.12415
2.10245
2.10274
2.11112
2.12937
2.16217
2.25618
2.46973
3.10378
6.88386
24.8063
66.8531
94.3633
99.2983
110.167
136.571
155.383
164.645
172.77
180.491
187.523
193.615
2.26656
2.12084
2.10039
2.10087
2.11193
2.13259
2.17299
2.27849
2.50465
3.16066
7.14489
25.6631
67.6952
92.6083
96.4683
112.287
134.357
145.216
153.351
161.938
169.439
175.732
181.204
2.26314
2.1191
2.09881
2.10319
2.11698
2.1422
2.1903
2.30949
2.55519
3.26744
7.42631
26.3005
68.5074
90.2016
94.5171
112.202
126.257
134.966
143.932
152.951
160.446
166.526
171.65
2.25909
2.11543
2.09607
2.10225
2.12163
2.15232
2.20908
2.33874
2.59653
3.32445
7.6529
26.7061
67.8077
87.3682
93.3229
107.861
117.328
126.463
135.877
144.501
150.864
155.36
158.801
2.25552
2.11348
2.09352
2.10795
2.13368
2.1676
2.23332
2.37835
2.65422
3.43863
7.85117
27.3404
67.2535
84.3536
91.6778
101.528
109.873
119.581
128.712
136.298
141.394
144.657
147.057
2.24973
2.10911
2.09382
2.11157
2.14373
2.18578
2.26041
2.41233
2.6985
3.5
8.18894
27.4533
65.7104
81.4328
89.1861
95.3407
103.767
113.298
121.61
127.897
131.777
134.099
135.754
2.24551
2.10731
2.09343
2.12179
2.16243
2.20838
2.29246
2.45954
2.76385
3.64419
8.70514
28.4264
64.772
78.6666
85.3786
90.0041
98.3467
107.065
114.162
119.09
121.769
123.104
124.009
2.23932
2.10352
2.09802
2.13269
2.18002
2.23166
2.32335
2.49574
2.80883
3.68581
8.75731
27.9108
62.2832
75.1904
81.4781
85.7237
93.5262
101.804
108.389
112.885
115.194
115.968
115.094
2.23442
2.10191
2.10091
2.14602
2.20119
2.25903
2.35776
2.53556
2.85127
3.72784
8.73317
27.4202
59.6065
71.763
77.5522
81.9314
89.3919
97.4457
103.558
107.852
109.686
110.245
109.149
2.22857
2.09769
2.1099
2.16282
2.22572
2.28618
2.3894
2.5736
2.89649
3.7919
9.03872
26.9054
56.8689
68.3737
73.77
78.6671
85.329
92.7833
98.1283
101.173
102.113
101.531
100.664
2.22256
2.0983
2.11797
2.18042
2.2514
2.31645
2.42815
2.61347
2.94116
3.8569
9.04709
26.4482
54.0617
65.3705
70.3307
75.5355
82.3512
90.0242
94.8828
96.6222
96.8341
97.0975
95.8943
2.21585
2.09779
2.13127
2.19942
2.27659
2.34923
2.46121
2.65117
2.98425
3.94408
9.12847
25.922
51.131
62.0504
67.0732
73.9525
81.1565
88.8827
94.0912
96.8474
97.8027
97.5454
96.7343
2.20892
2.10178
2.1425
2.2228
2.31178
2.38156
2.49988
2.69195
3.0334
4.05047
9.01315
25.5043
48.3958
59.2267
64.5976
72.5172
78.9335
86.5739
93.2678
98.4777
102.119
102.632
102.473
2.20095
2.11262
2.16302
2.24628
2.33253
2.41235
2.5351
2.73057
3.08091
4.17087
9.04075
24.9351
45.4754
55.0568
63.1091
69.7586
74.379
79.6622
85.4259
91.7687
97.5984
101.588
103.193
2.1947
2.11614
2.17394
2.26526
2.3725
2.46041
2.57648
2.76818
3.12319
4.2793
9.26158
24.5231
42.9315
52.4228
61.8693
66.4626
69.9656
72.8192
74.6827
77.0617
80.0578
84.4259
88.8307
2.18599
2.13063
2.20782
2.31086
2.40594
2.48279
2.6116
2.77482
3.15484
4.3824
9.59042
23.8078
40.3907
51.9315
61.4433
64.2792
67.157
67.5734
67.7794
67.2618
66.776
67.3216
68.75
2.17847
2.14624
2.21318
2.31435
2.40697
2.49633
2.61219
2.78099
3.17627
4.43249
9.49046
23.2414
39.1783
51.058
60.7404
62.9714
64.3519
64.7333
64.3123
63.2571
61.6967
60.3886
59.5589
2.1689
2.15545
2.21939
2.32833
2.41054
2.49182
2.61427
2.78651
3.18711
4.55331
9.37123
22.6426
38.5854
52.3809
59.1692
61.0974
60.9247
62.3558
62.1524
60.6794
59.5702
59.5065
59.8767
2.15994
2.15916
2.24089
2.32269
2.42478
2.50453
2.61651
2.80068
3.19979
4.56817
9.14434
22.152
38.5872
49.7454
57.9663
57.2934
58.6817
58.425
57.591
57.5016
58.5195
60.6031
63.2538
2.1489
2.16525
2.23387
2.3308
2.41703
2.49622
2.62411
2.79587
3.20317
4.5324
8.98361
21.3516
39.081
48.9315
52.7115
54.7385
53.3565
52.5553
54.0677
56.4225
64.1009
82.6388
100.868
2.13112
2.15045
2.24089
2.3159
2.41477
2.5033
2.62428
2.79638
3.19991
4.58875
8.54326
22.9744
42.0948
48.1764
49.7726
46.5098
46.6352
53.8205
70.0527
87.3817
93.6042
63.3924
32.4503
2.10593
2.14405
2.22396
2.3138
2.41219
2.49847
2.61266
2.78674
3.18888
4.54565
9.08383
23.801
44.6741
46.7919
38.8397
43.2047
58.1969
69.865
74.9946
65.9227
40.6862
15.8528
9.01105
2.09712
2.13881
2.22073
2.316
2.42441
2.49288
2.60606
2.77871
3.18553
4.51264
9.35109
24.5454
43.623
35.6708
37.9814
51.8551
60.9823
62.8199
55.4177
39.402
14.386
7.12878
5.43815
2.09075
2.13668
2.22201
2.28954
2.39847
2.47492
2.59251
2.76054
3.17651
4.6307
8.66979
31.0558
42.4676
29.8314
41.6144
50.8331
52.5521
49.3693
39.4559
19.4357
6.93034
4.96118
4.54495
2.09339
2.10919
2.19429
2.28374
2.39172
2.46079
2.56828
2.74714
3.15026
4.56045
10.517
32.3484
35.7101
29.2151
41.0586
44.3246
43.7002
39.0921
25.3692
8.18309
4.79749
4.31176
4.16742
2.07983
2.09845
2.202
2.28858
2.38594
2.41794
2.52726
2.7357
3.17486
4.7512
9.88625
31.9794
29.6107
29.0165
37.4937
38.4259
36.8889
29.2291
10.5677
5.04113
4.1775
4.00299
3.9149
2.0595
2.09148
2.18066
2.27108
2.3907
2.40472
2.51262
2.70609
3.18601
4.6668
11.0985
31.0989
25.3488
28.0531
32.9199
32.6243
29.2705
15.9349
5.70666
4.1387
3.86696
3.76064
3.66739
2.03232
2.0991
2.18248
2.222
2.37414
2.40475
2.49494
2.67527
3.20166
4.74778
11.6131
28.2478
22.7464
26.4505
29.0846
27.9776
20.3246
7.19722
4.16517
3.73519
3.59196
3.4926
3.42639
2.00865
2.07603
2.16428
2.19417
2.32769
2.37477
2.4587
2.65541
3.1972
4.95007
12.7956
24.9661
20.0372
24.8495
25.4802
22.1118
9.0244
4.4153
3.62259
3.43608
3.3345
3.25786
3.2248
1.95795
2.02517
2.13833
2.15568
2.2717
2.30244
2.41774
2.63006
3.25901
5.41715
14.0475
22.2584
18.5831
22.4439
20.894
12.2464
4.83888
3.5077
3.24898
3.14992
3.07091
3.03807
3.0091
1.91366
1.99682
2.10536
2.14743
2.21013
2.24826
2.35808
2.62438
3.37299
5.95031
14.7196
18.2785
17.3778
19.4619
14.7699
5.79416
3.46518
3.10998
2.99494
2.92849
2.88833
2.86968
2.84525
1.87559
1.97361
2.05117
2.11067
2.16565
2.19684
2.32202
2.6296
3.57848
7.07926
15.4098
14.959
15.7306
15.3347
6.93599
3.55226
2.9274
2.80316
2.74674
2.70822
2.69182
2.67489
2.66398
1.82514
1.95517
2.00023
2.0709
2.11703
2.14979
2.31102
2.66546
4.02459
8.20664
14.0085
11.7938
12.6493
9.00182
3.79973
2.83097
2.67322
2.61906
2.58719
2.57145
2.56237
2.55234
2.54822
1.78173
1.90165
1.93333
2.01191
2.06502
2.11879
2.27051
2.76527
4.4789
9.58852
10.8719
9.47982
8.99281
4.19139
2.73102
2.48709
2.43554
2.41062
2.39459
2.38769
2.37991
2.37541
2.37252
1.76578
1.86002
1.88601
1.95707
1.99163
2.07159
2.28319
3.07455
5.53757
8.73486
7.93343
7.06064
4.93136
2.74582
2.37942
2.32047
2.2989
2.287
2.2803
2.27665
2.27252
2.27098
2.26882
1.70792
1.78439
1.80436
1.86603
1.91984
2.00992
2.33256
3.28416
5.93533
6.7557
5.46814
4.67604
2.74064
2.21021
2.12009
2.10448
2.09626
2.09042
2.08779
2.08476
2.08261
2.08116
2.07937
1.67062
1.72992
1.75379
1.81064
1.8388
2.005
2.46506
4.04151
5.39173
5.00402
4.05211
2.83621
2.17013
2.04501
2.01772
2.00839
2.00383
1.9997
1.99782
1.99512
1.99348
1.99187
1.99028
1.56075
1.61494
1.62661
1.68264
1.78077
2.06874
2.81867
3.7127
3.83699
3.09251
2.44608
1.92107
1.78426
1.75813
1.75459
1.75398
1.75177
1.74974
1.74796
1.74574
1.74439
1.74247
1.74121
3.10769
2.79819
2.6083
2.48406
2.39927
2.34399
2.30363
2.2781
2.25811
2.2461
2.24093
2.246
2.26048
2.29107
2.34555
2.43428
2.55216
2.73156
2.87264
3.08696
3.23485
3.46965
3.59029
3.11565
2.80506
2.61319
2.49385
2.40839
2.35282
2.31035
2.28292
2.2602
2.24746
2.24159
2.24603
2.26011
2.29004
2.34312
2.42885
2.54501
2.71855
2.8575
3.06657
3.20913
3.43267
3.54862
3.12393
2.82267
2.63073
2.50464
2.41521
2.3572
2.31363
2.28599
2.26349
2.25129
2.24265
2.24666
2.25946
2.28754
2.33762
2.42105
2.53348
2.70253
2.83949
3.04658
3.18734
3.40691
3.52614
3.135
2.83287
2.63594
2.50993
2.42346
2.3677
2.32291
2.29344
2.26744
2.2529
2.24268
2.24579
2.25725
2.28472
2.33136
2.41583
2.52387
2.69152
2.82809
3.03549
3.17677
3.39352
3.51256
3.14249
2.84403
2.65047
2.52757
2.43726
2.37592
2.32689
2.29547
2.26806
2.25376
2.24239
2.2451
2.2546
2.28267
2.32421
2.41236
2.51455
2.67634
2.81042
3.01653
3.15597
3.37116
3.49209
3.14917
2.85344
2.66039
2.53252
2.43953
2.377
2.32717
2.29575
2.26809
2.25368
2.24142
2.24353
2.25049
2.28248
2.32036
2.40568
2.50002
2.65663
2.78784
2.99264
3.13258
3.3524
3.47689
3.15123
2.85683
2.66325
2.53545
2.44367
2.38122
2.33196
2.30027
2.27208
2.25784
2.2443
2.24619
2.25272
2.28112
2.31717
2.40593
2.49751
2.65673
2.78819
2.99838
3.14233
3.35175
3.48008
3.14574
2.84788
2.652
2.52455
2.43283
2.37549
2.32901
2.29886
2.27148
2.25753
2.24397
2.24559
2.2531
2.27784
2.31683
2.39924
2.50364
2.65205
2.8145
3.01689
3.17162
3.3987
3.5357
2.99095
2.65341
2.48177
2.38575
2.32522
2.28359
2.25483
2.23612
2.22711
2.22287
2.22821
2.24445
2.27444
2.33417
2.43678
2.59574
2.84838
3.09424
3.43927
3.80282
4.15045
4.53387
4.88666
3.00001
2.65961
2.48571
2.38857
2.32779
2.28555
2.25678
2.23834
2.22895
2.22424
2.22929
2.24383
2.27377
2.33166
2.43045
2.58314
2.82362
3.0618
3.37699
3.75174
4.04394
4.44811
4.74677
3.00102
2.66365
2.49233
2.39456
2.33258
2.28922
2.25959
2.24052
2.23081
2.22562
2.23037
2.24435
2.2726
2.32743
2.42136
2.56664
2.79671
3.02649
3.31486
3.69299
3.93941
4.33744
4.59894
3.01115
2.67132
2.49687
2.3978
2.33507
2.29132
2.2615
2.24279
2.23258
2.22685
2.23121
2.24503
2.27165
2.32443
2.41476
2.5545
2.77292
2.9952
3.26222
3.62738
3.86846
4.24575
4.48317
3.01325
2.67607
2.50451
2.40467
2.34025
2.29548
2.26472
2.24524
2.23454
2.22826
2.23221
2.24503
2.27031
2.32038
2.40616
2.5392
2.74697
2.9629
3.2094
3.56141
3.78748
4.13865
4.35205
3.0243
2.68558
2.50987
2.40838
2.34287
2.29771
2.26682
2.24748
2.23624
2.22948
2.23305
2.24494
2.26939
2.31756
2.39992
2.52778
2.7243
2.93512
3.1608
3.49981
3.71526
4.04931
4.25184
3.02735
2.69112
2.51867
2.41618
2.34868
2.30257
2.27042
2.25034
2.23832
2.23099
2.23406
2.24465
2.26832
2.31396
2.39227
2.51421
2.69996
2.90751
3.1126
3.44017
3.64482
3.96288
4.14717
3.03953
2.70288
2.52505
2.42057
2.35169
2.3051
2.2729
2.25255
2.23995
2.23229
2.2349
2.24512
2.26732
2.31093
2.38585
2.50288
2.67808
2.88138
3.07237
3.3841
3.58148
3.88471
4.05397
3.04335
2.70914
2.53501
2.42925
2.35809
2.31066
2.27683
2.25573
2.24216
2.2339
2.23577
2.24506
2.2661
2.30765
2.37899
2.49092
2.65639
2.85667
3.03527
3.32771
3.51694
3.80894
3.96762
3.05667
2.72352
2.54264
2.43454
2.36194
2.31365
2.27969
2.25799
2.24384
2.23539
2.23659
2.24516
2.26534
2.30517
2.37374
2.48143
2.63746
2.83434
3.00486
3.28285
3.46492
3.74673
3.89482
3.06098
2.73018
2.55364
2.44418
2.36888
2.31978
2.28392
2.26138
2.24631
2.23714
2.23725
2.24521
2.26424
2.30208
2.36754
2.47075
2.61863
2.81376
2.97517
3.23485
3.40864
3.68206
3.82418
3.07491
2.74713
2.56271
2.45019
2.37366
2.3232
2.28704
2.26389
2.24822
2.2388
2.23785
2.24523
2.26342
2.29984
2.36305
2.46288
2.60374
2.79534
2.95106
3.19949
3.36983
3.639
3.7746
3.07974
2.7542
2.57419
2.46095
2.38109
2.32977
2.29161
2.26759
2.25094
2.24053
2.2385
2.24525
2.26257
2.29731
2.3579
2.45422
2.58948
2.77681
2.92742
3.16528
3.32791
3.58697
3.71618
3.09294
2.77319
2.585
2.46692
2.38627
2.33327
2.29484
2.27053
2.25309
2.24221
2.23927
2.24543
2.26196
2.29544
2.35425
2.44824
2.57805
2.76071
2.90865
3.14008
3.30035
3.55427
3.67953
3.0983
2.78017
2.59528
2.47856
2.39432
2.34041
2.30015
2.27472
2.25563
2.2438
2.23995
2.24588
2.26167
2.29399
2.35086
2.4419
2.56633
2.74509
2.88821
3.11133
3.26403
3.50646
3.6258
2.9296
2.58588
2.42949
2.33674
2.28664
2.24668
2.22578
2.20889
2.20262
2.20357
2.21391
2.24442
2.30276
2.42033
2.61925
2.92672
3.35063
3.89518
4.36334
5.06993
5.49536
6.13871
6.59986
2.93214
2.58762
2.43113
2.33827
2.28771
2.24821
2.22659
2.20997
2.20313
2.20391
2.21413
2.24436
2.30198
2.41825
2.61419
2.92007
3.33123
3.8791
4.34471
5.02154
5.45078
6.07936
6.55339
2.93279
2.58926
2.43264
2.33974
2.28863
2.24973
2.22708
2.21111
2.20385
2.20447
2.21449
2.24315
2.30124
2.41593
2.61018
2.91526
3.30965
3.86469
4.30827
4.99251
5.42702
6.04054
6.51977
2.93523
2.59133
2.43411
2.34148
2.28959
2.25143
2.22784
2.21214
2.20442
2.20487
2.21479
2.24427
2.30018
2.41335
2.60464
2.90839
3.29465
3.84535
4.29129
4.94783
5.40104
5.98571
6.49456
2.93584
2.59317
2.43556
2.34317
2.29049
2.25302
2.22838
2.21325
2.20518
2.20538
2.21507
2.2447
2.29939
2.41084
2.60015
2.90173
3.27426
3.82793
4.26856
4.91855
5.38291
5.94478
6.46144
2.93834
2.59558
2.43701
2.34495
2.29146
2.25467
2.2292
2.21429
2.20582
2.20584
2.21544
2.24451
2.29813
2.40792
2.59376
2.89309
3.25933
3.80546
4.2511
4.87354
5.36671
5.89415
6.43865
2.93901
2.59766
2.43834
2.34692
2.29231
2.25636
2.2298
2.21534
2.20669
2.20635
2.2157
2.24422
2.2971
2.40499
2.5886
2.88509
3.24399
3.78494
4.23044
4.83941
5.35275
5.85498
6.40392
2.9416
2.60035
2.43987
2.34866
2.2934
2.2579
2.23078
2.21637
2.20742
2.20692
2.21612
2.24292
2.29593
2.40204
2.58206
2.87491
3.22822
3.75896
4.21703
4.79444
5.33908
5.80836
6.37818
2.94235
2.60267
2.44117
2.35086
2.29428
2.25958
2.23148
2.21738
2.20842
2.20743
2.21641
2.24312
2.29459
2.39862
2.57577
2.86448
3.21445
3.73629
4.19425
4.75194
5.32305
5.7735
6.34122
2.94511
2.60555
2.4428
2.35256
2.29551
2.26104
2.23265
2.21834
2.20925
2.20811
2.21687
2.24382
2.29361
2.39563
2.56919
2.8537
3.19902
3.70737
4.18293
4.70655
5.3046
5.73083
6.30917
2.94598
2.60808
2.44424
2.35483
2.29654
2.26261
2.23349
2.21934
2.21037
2.20867
2.21724
2.24406
2.29224
2.39192
2.56207
2.84109
3.18321
3.68154
4.15879
4.65831
5.28074
5.69741
6.27227
2.94896
2.61107
2.44595
2.35653
2.29789
2.26402
2.23484
2.22022
2.21131
2.20948
2.21776
2.24384
2.29119