/*--------------------------------*- C++ -*----------------------------------*\
  =========                 |
  \\      /  F ield         | OpenFOAM: The Open Source CFD Toolbox
   \\    /   O peration     | Website:  https://openfoam.org
    \\  /    A nd           | Version:  7
     \\/     M anipulation  |
\*---------------------------------------------------------------------------*/
FoamFile
{
    version     2.0;
    format      ascii;
    class       volScalarField;
    location    "150";
    object      p;
}
// * * * * * * * * * * * * * * * * * * * * * * * * * * * * * * * * * * * * * //

dimensions      [0 2 -2 0 0 0 0];

internalField   nonuniform List<scalar> 
12842
(
0.678949
0.741407
0.832858
1.02754
1.34256
1.79567
2.4168
3.23063
4.24391
5.44401
6.80484
8.29621
9.89214
11.573
13.3189
15.1017
16.8803
18.6008
20.2049
21.6406
22.8725
23.8862
24.6925
0.509187
0.552375
0.601954
0.745628
0.99287
1.36336
1.88901
2.58915
3.45929
4.47314
5.59373
6.7889
8.04414
9.36386
10.7586
12.2292
13.7546
15.2906
16.7788
18.1601
19.39
20.4379
21.3161
0.361476
0.372368
0.384354
0.479379
0.661131
0.95634
1.39899
2.0016
2.74632
3.59044
4.48364
5.39107
6.311
7.27449
8.32414
9.48792
10.7611
12.1045
13.4571
14.7528
15.9424
16.9795
17.8864
0.232641
0.208048
0.184898
0.231691
0.349854
0.577131
0.948358
1.46784
2.10212
2.78904
3.46223
4.0835
4.66649
5.2726
5.97908
6.84007
7.86317
9.00937
10.213
11.4009
12.5216
13.514
14.4144
0.120572
0.0655172
0.00640889
0.00504282
0.0605124
0.22574
0.533834
0.980349
1.51402
2.05078
2.50526
2.83603
3.07499
3.31855
3.68168
4.24344
5.01973
5.9674
7.01409
8.07853
9.1099
10.0309
10.8974
0.0248131
-0.0524304
-0.149966
-0.197939
-0.20454
-0.0957953
0.155029
0.536075
0.976195
1.36816
1.60439
1.64083
1.5302
1.40799
1.42905
1.69571
2.22841
2.976
3.85807
4.78448
5.70661
6.53132
7.33911
-0.0551746
-0.146587
-0.284361
-0.376008
-0.44377
-0.385209
-0.186873
0.136396
0.491205
0.747151
0.769804
0.513419
0.0521349
-0.436108
-0.755281
-0.781563
-0.492462
0.0499034
0.756787
1.52741
2.31862
3.01909
3.74477
-0.120143
-0.219829
-0.398149
-0.530446
-0.658013
-0.644285
-0.496737
-0.225641
0.051313
0.182803
0.00303891
-0.534382
-1.33646
-2.1825
-2.83657
-3.15483
-3.11337
-2.78671
-2.27019
-1.67811
-1.04158
-0.499658
0.123097
-0.176667
-0.275938
-0.489142
-0.65435
-0.829612
-0.844918
-0.732317
-0.489598
-0.260982
-0.216071
-0.555639
-1.3252
-2.41785
-3.57241
-4.5177
-5.09154
-5.26774
-5.13338
-4.78715
-4.36336
-3.86583
-3.4942
-2.96362
-0.229399
-0.323932
-0.567844
-0.761585
-0.971233
-1.00361
-0.911393
-0.678716
-0.475611
-0.488884
-0.951164
-1.90593
-3.23484
-4.64246
-5.8303
-6.62129
-6.98752
-7.02584
-6.83721
-6.57232
-6.21333
-5.98947
-5.57604
-0.270967
-0.362829
-0.636656
-0.859982
-1.0975
-1.14659
-1.07183
-0.846292
-0.664677
-0.732771
-1.31184
-2.44394
-3.99956
-5.65333
-7.08409
-8.10147
-8.67526
-8.9096
-8.90521
-8.82791
-8.63806
-8.58708
-8.31995
-0.302461
-0.394982
-0.69733
-0.949902
-1.20876
-1.27579
-1.2154
-0.995392
-0.832538
-0.953514
-1.64379
-2.94603
-4.71937
-6.61426
-8.29058
-9.54546
-10.3451
-10.798
-11.0019
-11.1361
-11.1396
-11.2863
-11.1821
-0.326182
-0.422918
-0.75283
-1.03228
-1.30779
-1.39427
-1.34492
-1.12843
-0.981342
-1.1517
-1.94632
-3.41063
-5.39346
-7.52677
-9.45367
-10.9587
-12.0021
-12.6932
-13.1257
-13.4877
-13.7023
-14.0595
-14.1334
-0.343368
-0.447697
-0.804913
-1.10715
-1.39747
-1.50416
-1.46321
-1.2482
-1.11437
-1.32954
-2.22121
-3.83925
-6.02489
-8.39679
-10.5827
-12.3532
-13.6595
-14.6074
-15.2868
-15.8868
-16.3283
-16.8921
-17.1642
-0.354421
-0.469846
-0.853605
-1.17371
-1.47952
-1.60586
-1.57172
-1.35647
-1.23418
-1.48941
-2.4715
-4.23601
-6.62097
-9.2359
-11.6939
-13.7496
-15.3406
-16.565
-17.5092
-18.3534
-19.0344
-19.791
-20.2753
-0.359897
-0.489997
-0.897844
-1.23163
-1.55487
-1.69899
-1.67106
-1.4543
-1.34224
-1.63311
-2.70003
-4.60576
-7.1903
-10.0572
-12.8052
-15.1692
-17.0687
-18.5891
-19.8131
-20.9045
-21.8274
-22.7601
-23.4509
-0.360778
-0.508833
-0.936675
-1.28152
-1.62431
-1.78377
-1.76232
-1.54338
-1.44032
-1.76286
-2.90987
-4.95347
-7.74113
-10.8724
-13.9315
-16.6297
-18.8624
-20.6975
-22.2125
-23.5506
-24.7056
-25.7957
-26.6638
-0.358415
-0.526661
-0.969512
-1.32471
-1.68846
-1.86101
-1.84693
-1.62563
-1.53006
-1.88063
-3.10316
-5.28237
-8.27835
-11.6883
-15.0815
-18.1409
-20.7319
-22.8997
-24.7143
-26.2968
-27.6646
-28.8885
-29.8845
-0.354187
-0.543466
-0.99651
-1.36274
-1.74785
-1.93203
-1.92661
-1.70332
-1.61335
-1.98829
-3.28125
-5.59361
-8.80301
-12.5061
-16.2564
-19.7045
-22.6794
-25.1987
-27.3215
-29.1461
-30.7032
-32.0326
-33.0942
-0.349372
-0.558967
-1.01837
-1.39716
-1.80309
-1.99849
-2.00305
-1.77827
-1.6914
-2.08661
-3.44373
-5.88577
-9.3124
-13.3221
-17.4524
-21.3182
-24.7049
-27.5972
-30.0403
-32.109
-33.8367
-35.2435
-36.3111
-0.344852
-0.572725
-1.03608
-1.42882
-1.85443
-2.06173
-2.07777
-1.85245
-1.76607
-2.17694
-3.59046
-6.15646
-9.80145
-14.1292
-18.6618
-22.9759
-26.8059
-30.098
-32.8808
-35.2061
-37.1032
-38.5836
-39.6364
-0.341272
-0.584652
-1.051
-1.4589
-1.90286
-2.12311
-2.15104
-1.92467
-1.83424
-2.25438
-3.71473
-6.39753
-10.2607
-14.9176
-19.8759
-24.6722
-28.9822
-32.7071
-35.8582
-38.4685
-40.5668
-42.1689
-43.255
-0.338182
-0.593889
-1.06349
-1.48669
-1.94817
-2.1839
-2.22593
-2.0005
-1.90336
-2.32612
-3.82122
-6.60851
-10.6836
-15.6756
-21.08
-26.3944
-31.2266
-35.4251
-38.9839
-41.9308
-44.3019
-46.1287
-47.4119
-0.335611
-0.600298
-1.07241
-1.50792
-1.98016
-2.22415
-2.26871
-2.03287
-1.91612
-2.33223
-3.85092
-6.73159
-11.0096
-16.3373
-22.2044
-28.0781
-33.4921
-38.2299
-42.265
-45.6352
-48.4008
-50.6625
-52.4807
-0.342452
-0.610633
-1.08467
-1.52719
-2.0024
-2.2453
-2.28034
-2.02421
-1.87884
-2.28228
-3.81673
-6.78072
-11.2496
-16.9065
-23.2407
-29.7003
-35.7423
-41.073
-45.6349
-49.4843
-52.7554
-55.6549
-58.252
-0.347254
-0.619115
-1.09641
-1.54463
-2.02029
-2.25893
-2.28054
-2.00268
-1.83023
-2.22691
-3.78345
-6.83297
-11.4893
-17.4685
-24.262
-31.3101
-37.9929
-43.9275
-48.9976
-53.2766
-57.0028
-60.4635
-63.703
-0.349831
-0.625228
-1.10609
-1.55765
-2.03118
-2.26307
-2.26978
-1.97218
-1.77782
-2.17472
-3.75821
-6.88994
-11.7228
-18.0112
-25.2502
-32.8862
-40.2224
-46.7649
-52.301
-56.9172
-60.9171
-64.6078
-68.0751
-0.353171
-0.630921
-1.1147
-1.56702
-2.03633
-2.25968
-2.2513
-1.93649
-1.72455
-2.1253
-3.7353
-6.93951
-11.9325
-18.5146
-26.1842
-34.4084
-42.4133
-49.5654
-55.5327
-60.3891
-64.4014
-67.9014
-71.112
-0.357812
-0.636873
-1.12248
-1.57331
-2.03734
-2.25159
-2.2295
-1.90085
-1.67509
-2.08079
-3.71293
-6.9753
-12.1072
-18.9646
-27.0468
-35.8582
-44.5506
-52.3294
-58.7244
-63.7088
-67.5055
-70.563
-73.1705
-0.362339
-0.64248
-1.12861
-1.57657
-2.03505
-2.24065
-2.20718
-1.86832
-1.63175
-2.0416
-3.68887
-6.9924
-12.2385
-19.3497
-27.8221
-37.217
-46.6247
-55.0794
-61.9108
-66.9078
-70.4229
-73.0154
-74.8409
-0.365411
-0.647158
-1.1325
-1.57685
-2.03013
-2.22802
-2.18559
-1.83954
-1.59373
-2.00483
-3.65845
-6.98484
-12.3183
-19.66
-28.4959
-38.4679
-48.6342
-57.8419
-65.1178
-70.096
-73.4091
-75.5897
-76.6435
-0.366537
-0.650701
-1.13409
-1.57482
-2.02348
-2.21473
-2.16545
-1.81401
-1.55902
-1.96664
-3.61688
-6.94751
-12.3403
-19.8875
-29.0562
-39.597
-50.5785
-60.6279
-68.4019
-73.4878
-76.6789
-78.3866
-78.7463
-0.3659
-0.653332
-1.134
-1.57151
-2.01638
-2.20203
-2.14751
-1.79154
-1.52633
-1.92463
-3.56168
-6.87837
-12.3013
-20.0271
-29.4938
-40.5904
-52.4457
-63.436
-71.8624
-77.2844
-80.3744
-81.5212
-81.2949
-0.364057
-0.655393
-1.13301
-1.56813
-2.01
-2.191
-2.13239
-1.772
-1.49487
-1.87776
-3.49217
-6.77724
-12.1989
-20.0731
-29.798
-41.4252
-54.2027
-66.2668
-75.6048
-81.5674
-84.5594
-85.2366
-84.6374
-0.361731
-0.65733
-1.13198
-1.56556
-2.00516
-2.18226
-2.12021
-1.75512
-1.46404
-1.82556
-3.40833
-6.64457
-12.0309
-20.0194
-29.9553
-42.0668
-55.799
-69.1243
-79.6786
-86.2868
-89.233
-89.6708
-89.0617
-0.359614
-0.65945
-1.13149
-1.56432
-2.00206
-2.1757
-2.11042
-1.73998
-1.43268
-1.76723
-3.30963
-6.4799
-11.7935
-19.8573
-29.9464
-42.467
-57.1698
-71.9906
-84.027
-91.2797
-94.2654
-94.8037
-94.5286
-0.358191
-0.661957
-1.13186
-1.56433
-2.00035
-2.1707
-2.10192
-1.7254
-1.3995
-1.70178
-3.19524
-6.28253
-11.483
-19.5777
-29.7491
-42.5708
-58.2396
-74.7909
-88.4785
-96.3238
-99.4366
-100.318
-100.475
-0.357637
-0.664803
-1.13298
-1.56524
-1.99932
-2.16625
-2.09342
-1.70997
-1.3631
-1.62815
-3.06408
-6.0514
-11.0955
-19.1708
-29.3382
-42.3179
-58.9234
-77.3857
-92.761
-101.225
-104.632
-105.826
-106.264
-0.357861
-0.667865
-1.13461
-1.56643
-1.99816
-2.1614
-2.08383
-1.69266
-1.32261
-1.54567
-2.91562
-5.78647
-10.6292
-18.6286
-28.6901
-41.651
-59.1357
-79.5961
-96.5845
-105.759
-109.73
-111.269
-111.761
-0.358584
-0.670904
-1.13635
-1.56737
-1.9962
-2.15543
-2.07243
-1.67283
-1.27762
-1.45419
-2.7498
-5.48834
-10.0837
-17.9437
-27.7817
-40.5165
-58.7837
-81.1992
-99.7351
-109.798
-114.352
-116.154
-116.505
-0.359491
-0.673771
-1.13794
-1.56764
-1.9931
-2.14805
-2.05906
-1.65051
-1.22848
-1.35422
-2.56739
-5.15906
-9.46163
-17.1118
-26.5948
-38.874
-57.773
-81.9263
-101.855
-112.878
-117.871
-119.775
-120.013
-0.360303
-0.676344
-1.13913
-1.56712
-1.98881
-2.13931
-2.04396
-1.62604
-1.17587
-1.24667
-2.36955
-4.80116
-8.76668
-16.1303
-25.1154
-36.6974
-56.0046
-81.5222
-102.608
-114.574
-119.872
-121.862
-122.142
-0.360858
-0.678647
-1.13993
-1.56583
-1.98355
-2.12957
-2.02768
-1.60012
-1.12081
-1.13268
-2.15774
-4.418
-8.00477
-15.0008
-23.3361
-33.9763
-53.4116
-79.8573
-101.864
-114.721
-120.301
-122.42
-122.748
-0.361094
-0.680723
-1.14036
-1.56401
-1.97764
-2.11922
-2.01077
-1.57328
-1.06406
-1.01319
-1.93318
-4.01268
-7.18212
-13.7265
-21.2616
-30.7204
-50.0195
-76.9982
-99.8151
-113.114
-119.033
-121.297
-121.583
-0.361056
-0.682703
-1.14056
-1.56183
-1.97142
-2.10862
-1.99366
-1.54599
-1.00622
-0.888859
-1.69684
-3.58851
-6.30635
-12.3139
-18.9222
-26.9823
-45.9885
-73.0361
-96.4786
-109.879
-116.094
-118.411
-118.481
-0.36082
-0.684661
-1.14062
-1.55954
-1.96511
-2.09798
-1.97654
-1.51829
-0.947416
-0.759987
-1.44934
-3.1484
-5.38587
-10.7703
-16.3585
-22.8503
-41.5772
-68.3856
-91.6846
-105.18
-111.542
-113.691
-113.34
-0.36049
-0.686693
-1.14064
-1.55719
-1.9588
-2.08727
-1.95928
-1.48993
-0.887261
-0.626055
-1.19034
-2.69436
-4.42935
-9.10399
-13.6183
-18.4809
-36.9511
-63.2723
-85.6425
-99.0137
-105.272
-107.045
-106.126
-0.360065
-0.688762
-1.14059
-1.55483
-1.95243
-2.07631
-1.94157
-1.46033
-0.824996
-0.486302
-0.919319
-2.228
-3.44642
-7.32541
-10.7758
-14.174
-32.3294
-57.5985
-78.7948
-91.6482
-97.5108
-98.7886
-97.258
-0.35933
-0.690712
-1.14023
-1.55214
-1.9455
-2.06413
-1.92147
-1.42617
-0.755832
-0.33544
-0.633382
-1.75356
-2.46497
-5.49477
-8.03713
-10.3527
-27.9061
-51.6725
-71.7449
-83.907
-89.2141
-89.9559
-87.8123
-0.360532
-0.693984
-1.14092
-1.55004
-1.93791
-2.04891
-1.89427
-1.37832
-0.6654
-0.155093
-0.316062
-1.26311
-1.51655
-3.70786
-5.62
-7.44532
-23.9369
-46.2884
-65.4059
-76.9352
-81.7428
-81.951
-79.2661
-0.361137
-0.697005
-1.14127
-1.5475
-1.92865
-2.02912
-1.85686
-1.31106
-0.545059
0.0641902
0.0366037
-0.760653
-0.639448
-2.09878
-3.70189
-5.69209
-20.7293
-41.8906
-60.2276
-71.1849
-75.5834
-75.2871
-72.2018
-0.36138
-0.699934
-1.14144
-1.54455
-1.91734
-2.00375
-1.80737
-1.22164
-0.3922
0.322053
0.416577
-0.262605
0.130241
-0.80025
-2.41955
-4.95108
-18.4277
-38.5356
-56.1536
-66.5467
-70.4977
-69.7514
-66.3449
-0.362038
-0.703134
-1.14178
-1.5412
-1.90373
-1.97237
-1.74546
-1.11075
-0.210365
0.608646
0.804122
0.199304
0.743523
0.0653642
-1.84553
-5.00474
-17.0913
-36.2894
-53.1571
-62.8966
-66.2569
-65.1003
-61.445
-0.363365
-0.706617
-1.14232
-1.53735
-1.88764
-1.93484
-1.67151
-0.980187
-0.00425575
0.913649
1.1819
0.598467
1.16927
0.44465
-1.99397
-5.75653
-16.7475
-35.1939
-51.2281
-60.1268
-62.7264
-61.1079
-57.2566
-0.365264
-0.710199
-1.14293
-1.53278
-1.86913
-1.89197
-1.58798
-0.835602
0.215855
1.22031
1.52882
0.911341
1.39918
0.379571
-2.80342
-7.20742
-17.4573
-35.2518
-50.3544
-58.2687
-59.9857
-57.8092
-53.7089
-0.367482
-0.713608
-1.14324
-1.52704
-1.8477
-1.84335
-1.4948
-0.677701
0.448159
1.52493
1.84057
1.13675
1.4531
-0.0775023
-4.25994
-9.41094
-19.1854
-36.3058
-50.3201
-57.2219
-58.072
-55.2845
-50.8022
-0.370165
-0.717172
-1.14381
-1.52104
-1.82493
-1.7915
-1.39585
-0.512137
0.686123
1.82283
2.12033
1.28875
1.37689
-0.723286
-5.85597
-11.6624
-21.0882
-37.4519
-50.3027
-56.3392
-56.5575
-53.3213
-48.5953
-0.372215
-0.719702
-1.14267
-1.51215
-1.79755
-1.73314
-1.28887
-0.339212
0.925293
2.1046
2.357
1.35481
1.15225
-1.60015
-7.64918
-13.9769
-23.126
-38.6924
-50.4897
-55.724
-55.4155
-51.8302
-47.0378
-0.374529
-0.722137
-1.14133
-1.50248
-1.76898
-1.67351
-1.18195
-0.171248
1.14825
2.34786
2.52687
1.31707
0.794288
-2.5793
-9.30475
-15.9754
-24.9236
-39.7718
-50.7551
-55.3419
-54.6324
-50.872
-46.1675
-0.377017
-0.72441
-1.13982
-1.49235
-1.74006
-1.61425
-1.07771
-0.0116917
1.35199
2.55298
2.6387
1.2023
0.364317
-3.53692
-10.6609
-17.6231
-26.4012
-40.638
-51.002
-55.1228
-54.139
-50.2741
-45.5885
-0.379308
-0.726314
-1.13778
-1.48153
-1.71069
-1.55551
-0.976444
0.139603
1.53889
2.72826
2.71258
1.05179
-0.0705954
-4.38423
-11.6803
-18.9865
-27.5941
-41.3161
-51.2048
-55.0055
-53.8449
-49.8896
-45.0953
-0.381235
-0.727834
-1.13516
-1.47015
-1.68116
-1.49766
-0.878403
0.283164
1.71195
2.88249
2.76779
0.902934
-0.454085
-5.05959
-12.3695
-20.1042
-28.537
-41.8189
-51.3423
-54.9191
-53.65
-49.6081
-44.6196
-0.382888
-0.729181
-1.13224
-1.45865
-1.65201
-1.44131
-0.784007
0.419392
1.87366
3.02267
2.81834
0.781375
-0.746538
-5.52976
-12.7492
-20.9863
-29.2519
-42.1584
-51.4097
-54.8426
-53.5272
-49.3977
-44.1753
-0.384386
-0.730543
-1.12932
-1.44745
-1.62373
-1.38692
-0.693442
0.548866
2.02625
3.1542
2.8733
0.700739
-0.92683
-5.79303
-12.8567
-21.6452
-29.7602
-42.354
-51.4092
-54.7856
-53.4925
-49.2676
-43.7585
-0.385841
-0.73205
-1.12659
-1.43677
-1.59647
-1.33449
-0.606382
0.672655
2.17203
3.2813
2.93766
0.664043
-0.994241
-5.8784
-12.7511
-22.1072
-30.0919
-42.4293
-51.35
-54.766
-53.5625
-49.2598
-43.4233
-0.38731
-0.733731
-1.12413
-1.42665
-1.5702
-1.28381
-0.522261
0.791905
2.31294
3.40699
3.01337
0.667169
-0.96514
-5.83453
-12.5106
-22.4049
-30.275
-42.4033
-51.2463
-54.7935
-53.7259
-49.3669
-43.2311
-0.388855
-0.735583
-1.12194
-1.41701
-1.54468
-1.23445
-0.440407
0.907742
2.45044
3.53296
3.09988
0.701187
-0.868385
-5.71834
-12.2183
-22.5665
-30.3326
-42.291
-51.1147
-54.8754
-53.9573
-49.5015
-43.0763
-0.390476
-0.737538
-1.11995
-1.40768
-1.51968
-1.18603
-0.360282
1.02089
2.58528
3.6598
3.19513
0.75569
-0.736947
-5.58184
-11.9432
-22.6116
-30.2817
-42.1026
-50.9699
-55.0293
-54.28
-49.6868
-42.998
-0.392171
-0.739528
-1.11805
-1.39846
-1.4949
-1.13817
-0.281468
1.13186
2.71777
3.78722
3.29611
0.820575
-0.60042
-5.46578
-11.7254
-22.5546
-30.1357
-41.8446
-50.8201
-55.246
-54.693
-49.9661
-43.1584
-0.393891
-0.741464
-1.1161
-1.38917
-1.47017
-1.0907
-0.20382
1.24067
2.84763
3.91438
3.39965
0.887939
-0.478728
-5.39474
-11.5721
-22.4088
-29.9098
-41.528
-50.671
-55.478
-55.1029
-50.2449
-43.5236
-0.395608
-0.7433
-1.11403
-1.3797
-1.44537
-1.04354
-0.127363
1.34718
2.97438
4.04009
3.50277
0.952153
-0.380768
-5.37232
-11.474
-22.1859
-29.6189
-41.1656
-50.5223
-55.683
-55.4274
-50.4802
-43.9966
-0.397278
-0.745
-1.11179
-1.37003
-1.42054
-0.996835
-0.0523512
1.4509
3.09724
4.16302
3.60329
1.01026
-0.304774
-5.3823
-11.4118
-21.8957
-29.2779
-40.7682
-50.37
-55.8706
-55.6804
-50.8285
-44.7545
-0.398899
-0.746578
-1.10937
-1.36019
-1.39575
-0.950733
0.020951
1.55143
3.21558
4.28194
3.69978
1.06136
-0.241888
-5.39998
-11.3605
-21.5465
-28.9014
-40.3447
-50.1863
-56.005
-55.8439
-51.3533
-45.9174
-0.400451
-0.748046
-1.10683
-1.35025
-1.37117
-0.905486
0.0922237
1.64827
3.32873
4.39591
3.79162
1.10632
-0.180304
-5.3984
-11.2984
-21.1447
-28.5024
-39.9005
-49.9302
-55.969
-55.7807
-51.801
-47.1254
-0.401956
-0.749442
-1.1042
-1.3403
-1.34688
-0.861223
0.161291
1.7412
3.43637
4.50427
3.8786
1.14695
-0.108569
-5.34865
-11.2084
-20.6915
-28.0862
-39.4337
-49.5793
-55.7164
-55.6487
-52.3414
-48.3855
-0.403404
-0.750785
-1.10153
-1.3304
-1.32301
-0.818094
0.228
1.82995
3.53815
4.60666
3.96088
1.18583
-0.0169998
-5.22226
-11.0776
-20.191
-27.6582
-38.9471
-49.1399
-55.2563
-55.6109
-53.1651
-49.966
-0.404821
-0.752098
-1.09884
-1.32061
-1.29955
-0.776083
0.292361
1.91457
3.63402
4.70292
4.03884
1.22583
0.101352
-4.99483
-10.8994
-19.648
-27.224
-38.4383
-48.5864
-54.599
-55.571
-53.8893
-51.3512
-0.406195
-0.753383
-1.09616
-1.31091
-1.27654
-0.735216
0.354354
1.99492
3.72377
4.7929
4.11289
1.26962
0.249614
-4.65181
-10.6738
-19.0637
-26.7851
-37.8957
-47.8577
-53.7696
-55.3845
-54.4386
-52.5074
-0.407545
-0.754641
-1.09347
-1.30129
-1.25388
-0.695391
0.414056
2.07106
3.80728
4.87638
4.18326
1.31909
0.426251
-4.19074
-10.4018
-18.4374
-26.3317
-37.305
-46.982
-52.92
-55.0688
-54.8438
-53.6247
-0.408851
-0.755857
-1.09076
-1.29172
-1.2316
-0.656605
0.471425
2.14278
3.88415
4.95286
4.24965
1.37473
0.624363
-3.62323
-10.089
-17.7738
-25.8514
-36.6618
-46.0533
-52.0744
-54.6654
-55.0279
-54.3683
-0.410131
-0.757021
-1.08799
-1.28217
-1.20958
-0.618774
0.526459
2.21
3.95399
5.02166
4.31109
1.4355
0.832827
-2.97348
-9.73993
-17.0773
-25.3351
-35.9571
-45.0819
-51.0685
-53.9413
-54.7995
-54.6145
-0.41136
-0.758116
-1.08516
-1.27259
-1.18784
-0.581953
0.579005
2.2723
4.01614
5.08183
4.36599
1.49878
1.03715
-2.27718
-9.35343
-16.3517
-24.7797
-35.1586
-43.9707
-49.8399
-52.8821
-54.1616
-54.4737
-0.412559
-0.759134
-1.08223
-1.26297
-1.16633
-0.546121
0.628958
2.32947
4.07002
5.13236
4.41253
1.56154
1.22257
-1.57344
-8.92919
-15.608
-24.1738
-34.238
-42.6829
-48.3853
-51.5721
-53.2059
-53.8827
-0.413702
-0.760062
-1.0792
-1.25329
-1.1451
-0.511396
0.676077
2.381
4.11487
5.17213
4.44879
1.62098
1.37572
-0.903216
-8.47395
-14.8618
-23.514
-33.181
-41.2074
-46.6755
-49.9006
-51.7585
-52.6623
-0.414813
-0.760891
-1.07605
-1.24353
-1.12411
-0.477799
0.720213
2.42662
4.15012
5.2002
4.47319
1.67385
1.48683
-0.302232
-7.9994
-14.1159
-22.7908
-31.9764
-39.4756
-44.6446
-47.8288
-49.8171
-50.9369
-0.415861
-0.761612
-1.07277
-1.23371
-1.10344
-0.44548
0.761107
2.46584
4.17508
5.21562
4.48441
1.71583
1.5498
0.199629
-7.52099
-13.3843
-21.9712
-30.6038
-37.518
-42.3252
-45.4513
-47.5865
-48.8559
-0.416871
-0.762218
-1.06936
-1.2238
-1.08306
-0.414465
0.79863
2.49846
4.18934
5.21768
4.48167
1.74322
1.56312
0.5816
-7.0533
-12.684
-21.0479
-29.0633
-35.3965
-39.8185
-42.8111
-44.9531
-46.279
-0.41781
-0.762702
-1.06581
-1.21382
-1.06307
-0.384905
0.832546
2.52407
4.1923
5.20563
4.46454
1.75358
1.53043
0.830059
-6.60858
-12.0278
-20.0475
-27.3888
-33.0915
-37.0881
-39.887
-41.9253
-43.1313
-0.418701
-0.763056
-1.06211
-1.20377
-1.04344
-0.356815
0.862763
2.54251
4.18366
5.17891
4.43318
1.74594
1.45961
0.934901
-6.19249
-11.4254
-18.9912
-25.5885
-30.5894
-34.1173
-36.6364
-38.4649
-39.5485
-0.419508
-0.763275
-1.05826
-1.19365
-1.02424
-0.330334
0.889077
2.55345
4.1629
5.13687
4.38763
1.71792
1.35892
0.891624
-5.82257
-10.8768
-17.8814
-23.6958
-27.9799
-30.9978
-33.1953
-34.7717
-35.65
-0.420257
-0.763351
-1.05425
-1.18347
-1.00545
-0.305464
0.91142
2.55676
4.1297
5.07897
4.32813
1.66472
1.23843
0.701446
-5.52479
-10.3792
-16.7343
-21.7456
-25.3464
-27.8725
-29.6987
-30.9861
-31.7033
-0.420912
-0.763279
-1.05008
-1.17322
-0.987149
-0.282327
0.929617
2.55214
4.08355
5.00472
4.25528
1.57909
1.10139
0.367745
-5.32031
-9.94699
-15.601
-19.8125
-22.7772
-24.8526
-26.3854
-27.4317
-27.9376
-0.421498
-0.763052
-1.04574
-1.1629
-0.969297
-0.26093
0.943577
2.53941
4.02395
4.9134
4.17003
1.45502
0.944594
-0.0945418
-5.21723
-9.60388
-14.555
-18.021
-20.3876
-22.0601
-23.3132
-24.2011
-24.6631
-0.421982
-0.762665
-1.04123
-1.15252
-0.951929
-0.241289
0.953323
2.51859
3.95079
4.80551
4.07642
1.28627
0.740462
-0.674828
-5.23243
-9.39031
-13.6592
-16.4549
-18.2707
-19.5414
-20.5473
-21.256
-21.568
-0.422412
-0.762135
-1.03655
-1.14209
-0.935082
-0.22359
0.95838
2.4888
3.8624
4.67757
3.97197
1.07958
0.485281
-1.31337
-5.34981
-9.32346
-12.9541
-15.1782
-16.5213
-17.4733
-18.2546
-18.8411
-19.1315
-0.422888
-0.761537
-1.03171
-1.13131
-0.917904
-0.205989
0.96197
2.4547
3.76446
4.53868
3.87002
0.804198
0.0352926
-2.08247
-5.70697
-9.551
-12.5555
-14.2115
-15.1
-15.7081
-16.2719
-16.701
-16.8805
-0.424137
-0.761588
-1.02719
-1.12031
-0.899682
-0.187659
0.963236
2.41078
3.64362
4.34149
3.67318
0.606607
-0.146779
-2.50984
-5.86901
-9.71261
-12.3287
-13.5988
-14.1493
-14.4967
-14.8488
-15.1362
-15.2348
-0.42151
-0.7571
-1.01611
-1.10105
-0.872003
-0.160958
0.96851
2.36281
3.51059
4.09969
3.32972
0.158696
-0.84652
-3.59069
-6.71369
-10.3774
-12.6063
-13.4852
-13.6656
-13.7051
-13.8224
-13.9236
-13.8823
-0.419891
-0.75252
-1.00417
-1.07994
-0.843245
-0.13771
0.959719
2.28278
3.32294
3.75514
2.78787
-0.524328
-1.86575
-4.97694
-8.00938
-11.4973
-13.3769
-13.8565
-13.6481
-13.3208
-13.0991
-12.8842
-12.5744
-0.419358
-0.748105
-0.992394
-1.05885
-0.816873
-0.123646
0.927513
2.15475
3.05109
3.26455
2.01733
-1.45277
-3.15905
-6.53291
-9.70549
-13.16
-14.8169
-14.9869
-14.4388
-13.7393
-13.0953
-12.4541
-11.7563
-0.418362
-0.742388
-0.979151
-1.03658
-0.792446
-0.119656
0.869258
1.97389
2.68466
2.61495
1.01714
-2.65604
-4.82153
-8.42902
-11.9765
-15.4997
-17.0697
-17.1239
-16.3963
-15.4116
-14.3794
-13.2846
-12.1561
-0.416221
-0.734575
-0.963368
-1.01212
-0.769186
-0.125315
0.785209
1.74155
2.22809
1.8209
-0.180887
-4.1209
-6.8742
-10.7609
-14.8202
-18.4464
-20.0699
-20.2654
-19.6353
-18.5619
-17.2346
-15.7302
-14.2055
-0.413353
-0.724773
-0.945092
-0.985616
-0.74739
-0.140979
0.6757
1.46158
1.69593
0.921081
-1.50617
-5.75424
-9.16241
-13.3728
-17.959
-21.6783
-23.5115
-24.0879
-23.8991
-23.1605
-21.9216
-20.2442
-18.3024
-0.41013
-0.713226
-0.924665
-0.957643
-0.72797
-0.167507
0.541526
1.14066
1.11138
-0.0264009
-2.85102
-7.38467
-11.3652
-15.8944
-20.8042
-24.5223
-26.7221
-27.9989
-28.5872
-28.529
-27.7333
-26.1811
-24.0295
-0.406637
-0.699901
-0.902141
-0.928467
-0.711342
-0.204754
0.386166
0.79145
0.508425
-0.946015
-4.07647
-8.77961
-13.0915
-17.7539
-22.5034
-26.0561
-28.5871
-30.6204
-32.1691
-33.0192
-32.9314
-31.875
-30.0442
-0.402597
-0.684523
-0.877316
-0.898046
-0.69744
-0.251325
0.216317
0.433421
-0.0679298
-1.74866
-5.02835
-9.68689
-13.9868
-18.3955
-22.539
-25.7702
-28.4352
-30.9661
-33.1394
-34.6431
-35.3112
-35.1732
-34.3438
-0.397769
-0.666751
-0.849899
-0.866166
-0.685682
-0.304364
0.0421066
0.0924217
-0.564555
-2.34099
-5.56267
-9.90504
-13.8286
-17.5842
-20.913
-23.7329
-26.3869
-28.935
-31.1055
-32.7543
-33.864
-34.4947
-34.6763
-0.391786
-0.646177
-0.819565
-0.832583
-0.675183
-0.359763
-0.123655
-0.202482
-0.929632
-2.64684
-5.58476
-9.34371
-12.5915
-15.4541
-17.9395
-20.2225
-22.5107
-24.643
-26.4595
-27.928
-29.0883
-29.9877
-30.5765
-0.384393
-0.622435
-0.786019
-0.796991
-0.66454
-0.412001
-0.266351
-0.42373
-1.12598
-2.63286
-5.08731
-8.05863
-10.4446
-12.4035
-14.1851
-15.8572
-17.5376
-19.0734
-20.3333
-21.3087
-22.0395
-22.5945
-23.0377
-0.375248
-0.595153
-0.749016
-0.759112
-0.652007
-0.454898
-0.372482
-0.553009
-1.14552
-2.32908
-4.1747
-6.27267
-7.7821
-9.01424
-10.2689
-11.4101
-12.5193
-13.4757
-14.2402
-14.8835
-15.4698
-16.0303
-16.5197
-0.364212
-0.564184
-0.708512
-0.718686
-0.635572
-0.48276
-0.43365
-0.589151
-1.01844
-1.83422
-3.06078
-4.35467
-5.14898
-5.86893
-6.73498
-7.55076
-8.35013
-9.04005
-9.62497
-10.174
-10.7248
-11.2626
-11.7187
-0.351114
-0.529466
-0.664625
-0.675582
-0.613525
-0.492424
-0.450881
-0.552741
-0.811433
-1.29673
-2.01661
-2.71886
-3.08263
-3.5469
-4.16819
-4.80882
-5.42048
-5.96876
-6.49891
-7.04
-7.57659
-8.06996
-8.46863
-0.336
-0.491263
-0.617736
-0.629799
-0.58501
-0.48491
-0.436107
-0.481623
-0.60662
-0.858217
-1.24582
-1.59783
-1.77097
-2.13997
-2.61468
-3.12271
-3.60863
-4.08575
-4.57591
-5.06323
-5.52029
-5.91707
-6.22709
-0.318827
-0.449923
-0.568345
-0.581654
-0.55068
-0.465785
-0.408569
-0.415846
-0.464951
-0.588034
-0.793716
-0.965368
-1.07063
-1.3683
-1.74972
-2.15099
-2.54858
-2.95877
-3.37007
-3.76103
-4.11016
-4.40206
-4.62869
-0.299762
-0.406127
-0.517202
-0.531881
-0.512685
-0.442932
-0.386099
-0.379709
-0.402706
-0.472338
-0.589273
-0.675022
-0.763509
-1.00314
-1.30182
-1.61137
-1.93361
-2.26168
-2.57954
-2.86972
-3.11949
-3.32625
-3.48883
-0.278889
-0.360653
-0.46519
-0.481631
-0.473739
-0.422372
-0.376611
-0.373443
-0.396282
-0.449025
-0.522935
-0.570262
-0.659328
-0.852949
-1.07491
-1.30827
-1.54997
-1.78827
-2.01208
-2.20838
-2.37427
-2.51226
-2.62129
-0.256518
-0.314586
-0.413382
-0.432125
-0.435489
-0.404919
-0.376025
-0.381172
-0.409305
-0.45626
-0.506413
-0.540806
-0.638539
-0.785815
-0.946145
-1.11844
-1.29037
-1.45842
-1.6105
-1.74073
-1.8518
-1.94524
-2.0195
-0.232965
-0.269085
-0.362827
-0.384099
-0.397462
-0.38633
-0.373862
-0.384817
-0.413803
-0.452911
-0.485061
-0.520369
-0.620861
-0.72898
-0.846321
-0.966219
-1.08661
-1.20133
-1.30061
-1.38573
-1.45926
-1.52096
-1.56951
-0.208732
-0.22543
-0.31438
-0.337529
-0.357678
-0.360841
-0.360539
-0.372807
-0.396106
-0.42051
-0.436258
-0.478487
-0.566387
-0.644623
-0.725677
-0.807628
-0.891246
-0.965834
-1.02897
-1.08426
-1.13211
-1.17172
-1.20216
-0.184356
-0.184724
-0.268561
-0.291943
-0.31443
-0.325192
-0.331787
-0.342085
-0.354728
-0.359627
-0.365087
-0.41189
-0.478208
-0.530616
-0.583012
-0.641637
-0.697804
-0.744527
-0.78499
-0.821034
-0.851989
-0.877241
-0.896026
-0.160321
-0.147817
-0.225577
-0.247168
-0.267989
-0.280566
-0.289841
-0.2967
-0.296518
-0.283988
-0.288709
-0.333781
-0.377155
-0.405165
-0.441546
-0.483276
-0.518386
-0.547262
-0.573277
-0.596491
-0.616322
-0.632311
-0.643696
-0.136996
-0.114937
-0.185285
-0.203381
-0.220135
-0.230999
-0.240108
-0.241934
-0.228901
-0.20862
-0.217602
-0.251573
-0.269634
-0.281624
-0.307282
-0.332189
-0.350435
-0.366029
-0.380288
-0.392936
-0.40368
-0.411962
-0.417131
-0.114265
-0.0856596
-0.147276
-0.161183
-0.173796
-0.182067
-0.188871
-0.183719
-0.162442
-0.146639
-0.158628
-0.176088
-0.175044
-0.18245
-0.199121
-0.210985
-0.219127
-0.226615
-0.233522
-0.239841
-0.245296
-0.249289
-0.251326
-0.0917198
-0.0586163
-0.109947
-0.1188
-0.127572
-0.133145
-0.136391
-0.126623
-0.108766
-0.104015
-0.11339
-0.113762
-0.107668
-0.114411
-0.122747
-0.126442
-0.128967
-0.131373
-0.133687
-0.136055
-0.138141
-0.1394
-0.139455
-0.0690799
-0.032763
-0.0739039
-0.0796556
-0.0874097
-0.091455
-0.0908475
-0.0800204
-0.0699167
-0.0697805
-0.0702551
-0.0605839
-0.0565073
-0.0599919
-0.0609897
-0.0597046
-0.0583941
-0.0571839
-0.0563689
-0.0560168
-0.0557592
-0.0550699
-0.0536573
-0.0431479
-0.00706749
-0.0388051
-0.0353184
-0.0250581
-0.00867285
-0.00331594
-0.0172485
-0.0451405
-0.065713
-0.0665944
-0.0588642
-0.0578752
-0.0587073
-0.0572036
-0.0551545
-0.0532594
-0.0516474
-0.0506722
-0.0502638
-0.0500694
-0.0496439
-0.048753
-0.0257889
0.00846963
-0.0138598
-0.0250167
-0.045059
-0.0566361
-0.0439046
-0.00224528
0.0419088
0.0610397
0.0587971
0.0523128
0.0502419
0.0519335
0.0544523
0.0571544
0.0599701
0.06244
0.0642446
0.0654963
0.0664769
0.0675995
0.0691257
1.07077
1.06308
1.23573
1.57289
2.06113
2.75352
3.72529
5.03297
6.73457
8.88754
11.5051
14.5856
18.0617
21.8443
25.7904
29.7528
33.5732
37.1143
40.2664
42.9622
45.184
46.9457
48.3219
1.08296
1.11505
1.28661
1.63691
2.14522
2.85637
3.83861
5.14649
6.83088
8.93731
11.4772
14.4408
17.768
21.3707
25.1173
28.8642
32.4604
35.7716
38.6934
41.1642
43.1713
44.7373
45.934
1.09267
1.15673
1.32937
1.68235
2.20084
2.91941
3.8985
5.18977
6.8375
8.87703
11.3164
14.1403
17.2936
20.6922
24.2159
27.7285
31.0875
34.1645
36.8608
39.1197
40.9318
42.3255
43.3694
1.09711
1.18052
1.35616
1.70236
2.21836
2.93065
3.89089
5.14688
6.73715
8.68844
11.0047
13.6667
16.6232
19.7959
23.0762
26.3383
29.4504
32.2921
34.771
36.8341
38.4747
39.7232
40.6445
1.0902
1.17768
1.35503
1.68675
2.18663
2.87752
3.80208
5.00325
6.51441
8.3553
10.5254
13.0033
15.7411
18.6681
21.6874
24.6864
27.5459
30.1556
32.4291
34.317
35.8108
36.9391
37.7618
1.05944
1.13808
1.31045
1.62032
2.09042
2.74328
3.61457
4.74186
6.15373
7.86356
9.86725
12.1414
14.6426
17.3075
20.0528
22.7798
25.3841
27.7667
29.8477
31.5795
32.9485
33.9786
34.7194
0.987388
1.05569
1.21343
1.49434
1.92327
2.52264
3.32371
4.35938
5.65255
7.21056
9.02452
11.0697
13.3066
15.6821
18.1278
20.5634
22.9017
25.0578
26.9594
28.5603
29.841
30.8178
31.5254
0.856229
0.923784
1.05639
1.3012
1.68092
2.21572
2.93495
3.86753
5.02944
6.41967
8.02193
9.80864
11.7451
13.7915
15.9
18.0135
20.0667
21.991
23.7232
25.2161
26.4442
27.4106
28.1366
0.871722
0.480099
0.721345
0.765916
1.0857
1.49528
2.26244
3.37122
4.96306
7.21307
10.0198
13.5399
17.5261
21.9406
26.5165
31.1114
35.5224
39.6049
43.2407
46.3688
48.971
51.0874
52.7591
0.881075
0.499323
0.745453
0.806605
1.14419
1.57586
2.36911
3.50726
5.131
7.40711
10.2437
13.7813
17.7938
22.2367
26.8649
31.5385
36.0676
40.3074
44.137
47.4835
50.3155
52.657
54.5342
0.891351
0.521022
0.770948
0.848854
1.20334
1.65745
2.4747
3.63998
5.29251
7.58962
10.4517
13.9997
18.03
22.4886
27.1508
31.8778
36.4923
40.8507
44.8321
48.3552
51.3788
53.9119
55.9714
0.902237
0.545046
0.797783
0.89204
1.26152
1.73801
2.57674
3.76694
5.44526
7.75943
10.6431
14.1968
18.2377
22.7016
27.3813
32.1385
36.8066
41.2446
45.3331
48.9855
52.1551
54.837
57.0447
0.913986
0.57134
0.826023
0.936432
1.31939
1.81826
2.67654
3.88972
5.59082
7.91845
10.8193
14.3743
18.4193
22.8797
27.5624
32.3291
37.0219
41.5025
45.6541
49.3873
52.6528
55.4355
57.7488
0.926595
0.600009
0.8557
0.981887
1.37596
1.89668
2.77228
4.00622
5.72684
8.06433
10.9778
14.5303
18.5731
23.0227
27.6961
32.4547
37.1464
41.6363
45.8098
49.5768
52.8883
55.7216
58.0938
0.940115
0.631119
0.886729
1.02883
1.43113
1.97188
2.86128
4.11181
5.84641
8.18748
11.1059
14.6496
18.6831
23.1147
27.7688
32.5054
37.1762
41.648
45.8087
49.5686
52.8804
55.7167
58.1013
0.954427
0.664929
0.919235
1.07815
1.48608
2.04486
2.94451
4.20711
5.9495
8.28706
11.2015
14.7284
18.7438
23.1496
27.7749
32.4776
37.1109
41.5422