/*--------------------------------*- C++ -*----------------------------------*\
  =========                 |
  \\      /  F ield         | OpenFOAM: The Open Source CFD Toolbox
   \\    /   O peration     | Website:  https://openfoam.org
    \\  /    A nd           | Version:  7
     \\/     M anipulation  |
\*---------------------------------------------------------------------------*/
FoamFile
{
    version     2.0;
    format      ascii;
    class       surfaceScalarField;
    location    "150";
    object      phi;
}
// * * * * * * * * * * * * * * * * * * * * * * * * * * * * * * * * * * * * * //

dimensions      [0 3 -1 0 0 0 0];

internalField   nonuniform List<scalar> 
25449
(
63.8272
64.0706
-41.5015
47.4022
47.8947
-31.4695
35.3499
35.9222
-23.8698
26.4455
27.014
-18.1096
19.8312
20.3582
-13.7439
14.8978
15.3696
-10.4362
11.2072
11.6216
-7.93099
8.44042
8.80119
-6.03441
6.36314
6.67654
-4.59925
4.8019
5.07463
-3.51339
3.62777
3.8655
-2.69136
2.74456
2.95122
-2.06802
2.08042
2.2581
-1.59395
1.58147
1.73094
-1.23199
1.20719
1.32862
-0.954342
0.926959
1.02058
-0.74035
0.717571
0.784092
-0.574704
0.561407
0.602183
-0.446019
0.445104
0.462091
-0.345789
0.358558
0.35416
-0.267616
0.294169
0.271028
-0.206639
0.246225
0.207098
-0.159156
0.157895
-0.12219
0.21052
47.791
80.688
35.6169
60.069
26.6353
44.9038
19.9711
33.6783
15.0041
25.3252
11.2904
19.0833
8.50752
14.4045
6.419
10.8897
4.84988
8.24565
3.66997
6.25453
2.78216
4.7533
2.11398
3.61941
1.61129
2.76078
1.23359
2.10864
0.950385
1.61183
0.738592
1.23237
0.580642
0.94204
0.463142
0.719682
0.375901
0.54933
0.3112
0.418861
0.263231
0.318996
0.227638
0.242691
0.184317
0.201216
34.8716
92.4776
26.1364
68.8043
19.6331
51.4072
14.7729
38.5386
11.1305
28.9676
8.39615
21.8177
6.34155
16.4591
4.79692
12.4343
3.63516
9.40742
2.76085
7.12885
2.10241
5.41175
1.60639
4.11543
1.23291
3.13426
0.9522
2.38936
0.741805
1.82222
0.584671
1.38951
0.467735
1.05898
0.380982
0.806435
0.316763
0.613548
0.26928
0.466343
0.234177
0.3541
0.208198
0.268669
0.203563
0.188951
25.0479
100.536
18.954
74.8984
14.3435
56.0178
10.8546
42.0274
8.21521
31.607
6.22031
23.8126
4.71431
17.9651
3.5787
13.5699
2.72289
10.2632
2.07784
7.7739
1.59127
5.8983
1.22408
4.48262
0.947154
3.41118
0.738794
2.59772
0.582628
1.97839
0.466125
1.50601
0.379603
1.1455
0.31558
0.870457
0.268314
0.660813
0.233453
0.501205
0.20773
0.379822
0.188728
0.287672
0.21763
0.17466
17.832
105.786
13.7076
79.0229
10.4965
59.229
8.01456
44.5094
6.10725
33.5143
4.64956
25.2703
3.54063
19.0741
2.70025
14.4103
2.06483
10.8986
1.58462
8.25411
1.2214
6.26152
0.946469
4.75756
0.738512
3.61914
0.581698
2.75453
0.464053
2.09603
0.376324
1.59374
0.311268
1.21055
0.263225
0.9185
0.227827
0.696211
0.201759
0.527273
0.182541
0.39904
0.168353
0.301859
0.228141
0.157841
12.6562
108.955
9.97344
81.7059
7.77514
61.4273
6.01505
46.2695
4.62823
34.9012
3.5499
26.3486
2.7198
19.9042
2.08594
15.0442
1.60422
11.3804
1.23873
8.61959
0.961127
6.53911
0.750026
4.96865
0.58959
3.77956
0.46812
2.87599
0.376748
2.1874
0.308534
1.66195
0.257958
1.26113
0.220634
0.955821
0.193152
0.723692
0.172915
0.547509
0.157984
0.413971
0.146952
0.312891
0.236335
0.138757
9.01557
110.596
7.37415
83.3475
5.89691
62.9046
4.64421
47.5222
3.61912
35.9263
2.80185
27.1659
2.16205
20.544
1.66824
15.538
1.29028
11.7583
1.00197
8.9079
0.781802
6.75929
0.613355
5.1371
0.484503
3.90841
0.386357
2.97414
0.312177
2.26158
0.256618
1.71751
0.215346
1.3024
0.18485
0.986317
0.162368
0.746174
0.14578
0.564097
0.133508
0.426242
0.12441
0.321988
0.243123
0.117622
6.4987
111.123
5.60243
84.2439
4.63156
63.8755
3.72904
48.4247
2.94972
36.7056
2.30748
27.8082
1.79387
21.0576
1.39227
15.9396
1.08226
12.0683
0.844277
9.14588
0.661283
6.94226
0.520167
5.2782
0.411262
4.0173
0.327597
3.05779
0.263902
2.32527
0.215933
1.76547
0.180163
1.33817
0.153659
1.01282
0.134071
0.765759
0.119569
0.578598
0.108804
0.437006
0.10077
0.330022
0.249138
0.0947537
4.12921
112.402
3.15003
85.2232
2.39606
64.6295
1.81898
49.0018
1.37871
37.1459
1.0455
28.1414
0.795078
21.308
0.60859
16.1261
0.470099
12.2068
0.366889
9.24909
0.289014
7.02014
0.229486
5.33773
0.183598
4.06319
0.148278
3.09311
0.121364
2.35218
0.101146
1.78569
0.086164
1.35315
0.0751641
1.02382
0.0671184
0.773805
0.0612165
0.584499
0.0568592
0.441363
0.0536354
0.333245
0.251586
0.0511863
2.37436
113.124
1.81813
85.7795
1.38587
65.0618
1.05324
49.3344
0.798626
37.4005
0.606159
28.3339
0.462365
21.4518
0.356601
16.2318
0.279168
12.2842
0.22209
9.30616
0.179014
7.0632
0.145684
5.37104
0.119458
4.0894
0.0988369
3.11372
0.0828568
2.36815
0.0707291
1.79781
0.0617079
1.36216
0.0550832
1.03044
0.0502419
0.778644
0.0466801
0.58806
0.0440258
0.444016
0.0420365
0.335233
0.253132
0.0404909
1.11297
113.45
0.859285
86.0333
0.657581
65.2635
0.500272
49.4918
0.378929
37.5218
0.2875
28.4253
0.220294
21.519
0.172508
16.2796
0.138923
12.3178
0.114941
9.33015
0.0967886
7.08136
0.082164
5.38567
0.0699165
4.10165
0.0596842
3.12396
0.0513759
2.37646
0.0448796
1.80431
0.0399732
1.36707
0.0363482
1.03407
0.0336915
0.7813
0.0317195
0.590031
0.0302148
0.44552
0.0290566
0.336391
0.254079
0.0281086
0.223726
113.497
0.181778
86.0753
0.141863
65.3034
0.107714
49.5259
0.0800435
37.5495
0.0596216
28.4457
0.0462451
21.5324
0.0391958
16.2867
0.0364194
12.3206
0.0356777
9.33088
0.0350033
7.08201
0.033451
5.3872
0.0309108
4.10417
0.0278207
3.12703
0.0247174
2.37956
0.0219834
1.80704
0.0197832
1.36926
0.0181068
1.03574
0.0168576
0.782546
0.0159083
0.590978
0.0151451
0.446281
0.0145208
0.337014
0.254646
0.0139529
-0.386953
113.355
-0.285364
85.9738
-0.21506
65.2331
-0.165168
49.476
-0.128898
37.5133
-0.100865
28.4177
-0.0775238
21.5091
-0.0568027
16.266
-0.03857
12.3024
-0.0234564
9.31578
-0.0122125
7.07078
-0.00488553
5.37989
-0.000892933
4.10019
0.000748418
3.12539
0.00101988
2.37929
0.000665104
1.80739
0.0001332
1.3698
-0.000362743
1.03623
-0.000767505
0.782949
-0.00109202
0.591301
-0.0013988
0.446587
-0.00167627
0.337291
0.254979
-0.00201032
-0.792618
113.091
-0.597552
85.7788
-0.455043
65.0906
-0.349964
49.3709
-0.271702
37.435
-0.211852
28.3579
-0.164419
21.4617
-0.125483
16.227
-0.0934563
12.2703
-0.0679219
9.29024
-0.0488528
7.05169
-0.035734
5.36675
-0.0275484
4.09198
-0.0229577
3.12079
-0.0206717
2.37699
-0.0196857
1.8064
-0.0193401
1.36944
-0.0192537
1.03614
-0.0192632
0.782955
-0.0192975
0.591332
-0.0193883
0.446676
-0.0194949
0.337397
0.255181
-0.0196985
-1.04462
112.754
-0.793492
85.5277
-0.607246
64.9044
-0.468598
49.2323
-0.364791
37.3312
-0.285603
28.2787
-0.223566
21.3996
-0.173606
16.1771
-0.133222
12.2299
-0.10136
9.25839
-0.0775432
7.02789
-0.0609518
5.35017
-0.0503331
4.08137
-0.0441388
3.1146
-0.0408731
2.37373
-0.0393438
1.80487
-0.0387338
1.36883
-0.0385339
1.03594
-0.0384957
0.782915
-0.0384951
0.59133
-0.0385325
0.446713
-0.0385975
0.337461
0.255325
-0.038742
-1.18921
112.379
-0.908182
85.2467
-0.698158
64.6944
-0.541133
49.0753
-0.423338
37.2134
-0.333576
28.1889
-0.263584
21.3296
-0.207618
16.1211
-0.162644
12.185
-0.127273
9.22301
-0.100824
7.00142
-0.0823527
5.33168
-0.0705129
4.06951
-0.0636453
3.10771
-0.0601165
2.37019
-0.058597
1.80334
-0.058148
1.36838
-0.058161
1.03595
-0.0583139
0.783064
-0.0584451
0.591458
-0.0585301
0.446796
-0.0586223
0.337553
0.255439
-0.0587369
-1.25622
111.99
-0.964092
84.9546
-0.744652
64.4749
-0.580194
48.9108
-0.456732
37.09
-0.362722
28.0949
-0.289579
21.2565
-0.231236
16.0628
-0.184393
12.1381
-0.147546
9.18617
-0.119979
6.97387
-0.100767
5.31248
-0.0885756
4.05733
-0.0817117
3.10086
-0.0784532
2.36693
-0.0773683
1.80226
-0.0774204
1.36843
-0.0779203
1.03645
-0.0784753
0.783618
-0.0788897
0.591871
-0.0791286
0.447035
-0.0793122
0.337736
0.255541
-0.0794155
-1.26704
111.606
-0.977339
84.6649
-0.758846
64.2564
-0.594858
48.7468
-0.471734
36.9669
-0.378052
28.0012
-0.305235
21.1837
-0.24714
16.0047
-0.200391
12.0914
-0.163522
9.1493
-0.135912
6.94624
-0.116759
5.29331
-0.104827
4.04538
-0.0984452
3.09446
-0.0958407
2.36432
-0.0955042
1.80191
-0.0963205
1.36924
-0.0975328
1.03766
-0.0986795
0.78476
-0.0995277
0.592717
-0.100045
0.447551
-0.100371
0.338061
0.255629
-0.100461
-1.24085
111.238
-0.96243
84.3865
-0.751695
64.0457
-0.593378
48.5885
-0.474553
36.848
-0.384222
27.9109
-0.314025
21.1135
-0.257904
15.9485
-0.212522
12.046
-0.17656
9.11335
-0.149581
6.91928
-0.130984
5.27473
-0.119691
4.0341
-0.114099
3.08888
-0.112407
2.36263
-0.113042
1.80255
-0.114824
1.37103
-0.116941
1.03977
-0.118865
0.786683
-0.120325
0.594175
-0.121273
0.448499
-0.121813
0.3386
0.255763
-0.121948
-1.19014
110.894
-0.928823
84.1252
-0.730359
63.8473
-0.581159
48.4393
-0.469261
36.7362
-0.384298
27.826
-0.318252
21.0474
-0.265255
15.8956
-0.22208
12.0028
-0.187624
9.07889
-0.161697
6.89334
-0.143958
5.25697
-0.133533
4.02366
-0.128929
3.08426
-0.128327
2.36202
-0.130102
1.80431
-0.133018
1.37394
-0.13622
1.04297
-0.139138
0.789596
-0.141462
0.596495
-0.143103
0.45014
-0.144122
0.339619
0.256255
-0.144616
-1.12858
110.578
-0.886919
83.8836
-0.702741
63.6631
-0.564218
48.3008
-0.460448
36.6324
-0.38178
27.7473
-0.320579
20.9862
-0.271202
15.8462
-0.230561
11.9621
-0.197814
9.04616
-0.173057
6.8686
-0.156246
5.24018
-0.146746
4.01418
-0.143195
3.08072
-0.143758
2.36259
-0.146759
1.80732
-0.150911
1.37809
-0.155345
1.04741
-0.159485
0.793733
-0.162993
0.600005
-0.165699
0.452845
-0.16753
0.341451
0.257238
-0.168516
-1.05615
110.292
-0.836702
83.6642
-0.668786
63.4952
-0.542436
48.1745
-0.447952
36.5379
-0.376494
27.6758
-0.320864
20.9306
-0.275677
15.801
-0.237979
11.9244
-0.207198
9.01537
-0.183748
6.84514
-0.167924
5.22434
-0.159376
4.00562
-0.156916
3.07825
-0.158703
2.36436
-0.163002
1.81161
-0.168485
1.38357
-0.174294
1.05321
-0.179896
0.799333
-0.184907
0.605012
-0.188921
0.456862
-0.191643
0.344169
0.258705
-0.193108
-0.976658
110.039
-0.781197
83.4687
-0.630968
63.3449
-0.517905
48.0614
-0.433533
36.4535
-0.369844
27.6121
-0.320111
20.8809
-0.279263
15.7601
-0.244573
11.8897
-0.215815
8.98663
-0.193742
6.82308
-0.178976
5.20959
-0.171448
3.99811
-0.170159
3.07697
-0.173248
2.36746
-0.178921
1.81729
-0.185807
1.39046
-0.193094
1.0605
-0.20032
0.806557
-0.207016
0.61171
-0.212647
0.462492
-0.217069
0.348591
0.262422
-0.220789
-0.885669
109.775
-0.69439
83.2774
-0.554668
63.2052
-0.45278
47.9595
-0.378496
36.3792
-0.324143
27.5578
-0.283774
20.8405
-0.252866
15.7292
-0.228297
11.8652
-0.208642
8.96697
-0.193754
6.80819
-0.184101
5.19992
-0.1801
3.99409
-0.181582
3.07844
-0.187371
2.37324
-0.195953
1.82586
-0.205987
1.40049
-0.216655
1.07116
-0.22745
0.81735
-0.237884
0.622142
-0.247695
0.472301
-0.257087
0.357982
0.271685
-0.266354
-0.860255
109.523
-0.678624
83.0958
-0.545756
63.0723
-0.448819
47.8626
-0.378184
36.3086
-0.326585
27.5062
-0.288323
20.8022
-0.259018
15.6999
-0.235585
11.8417
-0.21663
8.94803
-0.202067
6.79365
-0.19247
5.19035
-0.188399
3.99004
-0.189864
3.07992
-0.195735
2.37912
-0.204483
1.83462
-0.214723
1.41074
-0.225574
1.08202
-0.236509
0.828284
-0.247367
0.633003
-0.258355
0.483288
-0.269377
0.369003
0.281922
-0.279618
-0.835464
109.286
-0.662956
82.9233
-0.536562
62.946
-0.444292
47.7703
-0.377093
36.2414
-0.32808
27.4572
-0.291789
20.766
-0.263973
15.6721
-0.241585
11.8193
-0.223257
8.9297
-0.208962
6.77934
-0.199364
5.18074
-0.195154
3.98582
-0.196524
3.08128
-0.202397
2.38498
-0.211213
1.84343
-0.221431
1.42095
-0.231939
1.09252
-0.242238
0.838581
-0.252502
0.643265
-0.262758
0.493543
-0.271949
0.378193
0.288505
-0.278534
-0.811319
109.06
-0.647466
82.7594
-0.527204
62.8257
-0.439352
47.6824
-0.375402
36.1774
-0.328835
27.4106
-0.294411
20.7315
-0.268004
15.6457
-0.2466
11.7979
-0.228845
8.91197
-0.214764
6.76528
-0.205099
5.17109
-0.200662
3.98141
-0.20184
3.08248
-0.207622
2.39078
-0.216383
1.8522
-0.226359
1.43093
-0.23623
1.10239
-0.24551
0.847861
-0.254213
0.651971
-0.261638
0.500967
-0.266102
0.382658
0.288684
-0.266284
-0.787836
108.846
-0.632217
82.6039
-0.517781
62.7113
-0.434118
47.5988
-0.373251
36.1166
-0.329005
27.3663
-0.296357
20.6989
-0.271294
15.6207
-0.250825
11.7774
-0.2336
8.89474
-0.219683
6.75136
-0.209886
5.16129
-0.205127
3.97664
-0.206008
3.08334
-0.211586
2.39635
-0.220193
1.8608
-0.229919
1.44065
-0.239195
1.11167
-0.247122
0.855787
-0.25323
0.658076
-0.25642
0.504156
-0.254808
0.381045
0.281344
-0.24747
-0.765023
108.644
-0.617252
82.4561
-0.508362
62.6024
-0.428685
47.5191
-0.370747
36.0586
-0.328709
27.3243
-0.297757
20.6679
-0.273978
15.5969
-0.254405
11.7579
-0.237673
8.87803
-0.223874
6.73758
-0.213878
5.15131
-0.2087
3.97148
-0.209161
3.08383
-0.214429
2.40163
-0.222899
1.86928
-0.232521
1.45028
-0.241081
1.12023
-0.247148
0.861855
-0.250352
0.661284
-0.249161
0.502964
-0.240844
0.372728
0.265911
-0.225411
-0.742879
108.452
-0.602601
82.3158
-0.499
62.4988
-0.42312
47.4432
-0.367972
36.0035
-0.328039
27.2844
-0.298707
20.6386
-0.276162
15.5743
-0.257447
11.7391
-0.241173
8.86175
-0.22745
6.72386
-0.217192
5.14105
-0.211489
3.96577
-0.211404
3.08373
-0.2163
2.40652
-0.224694
1.87767
-0.234115
1.45969
-0.241632
1.12775
-0.246242
0.866467
-0.247584
0.662623
-0.241803
0.497183
-0.225621
0.356546
0.242498
-0.202208
-0.721398
108.271
-0.588283
82.1827
-0.489734
62.4002
-0.417478
47.371
-0.36499
35.9509
-0.327067
27.2464
-0.299286
20.6108
-0.277926
15.553
-0.260038
11.7212
-0.244192
8.84592
-0.230504
6.71019
-0.21992
5.13049
-0.213584
3.95946
-0.212837
3.08301
-0.217307
2.41101
-0.225502
1.88588
-0.234401
1.4686
-0.241398
1.13475
-0.246488
0.871557
-0.246413
0.662551
-0.233653
0.484423
-0.207872
0.330765
0.212283
-0.177656
-0.700572
108.1
-0.574313
82.0565
-0.480594
62.3065
-0.411799
47.3022
-0.361853
35.901
-0.32585
27.2104
-0.299558
20.5845
-0.279339
15.5328
-0.262247
11.7042
-0.246802
8.83048
-0.233111
6.6965
-0.222138
5.11951
-0.215066
3.95239
-0.21354
3.08148
-0.217442
2.41491
-0.225098
1.89353
-0.233611
1.47711
-0.24201
1.14315
-0.248922
0.87847
-0.244591
0.658217
-0.221079
0.460912
-0.185867
0.295553
0.178508
-0.152091
-0.680389
107.938
-0.560699
81.9368
-0.471603
62.2174
-0.406119
47.2367
-0.358601
35.8534
-0.324436
27.1762
-0.299572
20.5596
-0.280454
15.5136
-0.264132
11.6878
-0.249064
8.81543
-0.235333
6.68279
-0.223913
5.10811
-0.216004
3.9445
-0.213559
3.07905
-0.216605
2.41797
-0.223454
1.90039
-0.232633
1.4863
-0.244335
1.15485
-0.25127
0.885407
-0.237767
0.644718
-0.202353
0.425498
-0.16171
0.254912
0.145356
-0.128557
-0.660839
107.785
-0.547446
81.8234
-0.462779
62.1328
-0.400464
47.1744
-0.35527
35.8083
-0.322865
27.1438
-0.299374
20.5361
-0.281318
15.4956
-0.265742
11.6723
-0.251029
8.80072
-0.237226
6.66899
-0.225305
5.09619
-0.216461
3.93566
-0.212894
3.07548
-0.214725
2.4198
-0.220873
1.90653
-0.232168
1.49759
-0.247099
1.16979
-0.249765
0.888075
-0.224397
0.619347
-0.180655
0.381758
-0.140428
0.214687
0.116872
-0.111941
-0.641908
107.641
-0.534556
81.716
-0.454137
62.0524
-0.394859
47.1151
-0.35189
35.7652
-0.321171
27.1131
-0.299001
20.5139
-0.281973
15.4785
-0.26712
11.6574
-0.252744
8.78636
-0.23884
6.6551
-0.226369
5.08374
-0.216482
3.92579
-0.211534
3.07056
-0.211848
2.42013
-0.217761
1.91246
-0.231947
1.51179
-0.247701
1.18555
-0.242221
0.882597
-0.206533
0.583663
-0.161062
0.336288
-0.126762
0.18039
0.0959915
-0.105879
-0.623582
107.506
-0.522031
81.6145
-0.445688
61.976
-0.389321
47.0587
-0.348484
35.7244
-0.319383
27.084
-0.298484
20.4931
-0.282452
15.4625
-0.268302
11.6432
-0.254247
8.77231
-0.240218
6.64108
-0.227152
5.07068
-0.216102
3.91475
-0.209485
3.06394
-0.208122
2.41877
-0.214282
1.91862
-0.230794
1.52829
-0.243914
1.19867
-0.228824
0.867511
-0.187226
0.542063
-0.146004
0.295068
-0.12005
0.154439
0.0822376
-0.106293
-0.605848
107.378
-0.50987
81.5185
-0.437441
61.9036
-0.383867
47.0052
-0.345075
35.6856
-0.317528
27.0564
-0.297854
20.4734
-0.282786
15.4474
-0.269324
11.6298
-0.255577
8.75857
-0.241401
6.62692
-0.2277
5.057
-0.215353
3.90242
-0.206794
3.0554
-0.203707
2.4157
-0.210228
1.92515
-0.227298
1.54537
-0.234805
1.20618
-0.211102
0.84381
-0.168381
0.499347
-0.134179
0.260868
-0.115283
0.135548
0.0727218
-0.105763
-0.588691
107.259
-0.498071
81.4279
-0.429405
61.835
-0.378513
46.9543
-0.341684
35.6488
-0.315628
27.0304
-0.297136
20.4549
-0.283005
15.4333
-0.270214
11.617
-0.256766
8.74513
-0.242427
6.61259
-0.228052
5.04263
-0.21427
3.88865
-0.203542
3.04468
-0.19871
2.41088
-0.205142
1.93159
-0.220412
1.56064
-0.220602
1.20637
-0.190737
0.813951
-0.150518
0.459125
-0.123505
0.233858
-0.109371
0.121418
0.0651492
-0.101794
-0.572097
107.146
-0.486634
81.3425
-0.421587
61.7699
-0.373272
46.9059
-0.338327
35.6138
-0.313706
27.0057
-0.296355
20.4375
-0.283134
15.4201
-0.271001
11.6048
-0.257846
8.73199
-0.243334
6.59809
-0.228245
5.02756
-0.2129
3.87332
-0.199838
3.03164
-0.193186
2.40424
-0.198546
1.93696
-0.209635
1.57174
-0.202062
1.19881
-0.16891
0.780802
-0.13353
0.423751
-0.113059
0.213389
-0.102235
0.110599
0.0585073
-0.0955877
-0.556052
107.041
-0.475555
81.262
-0.413991
61.7084
-0.368155
46.8601
-0.335023
35.5807
-0.311781
26.9825
-0.295532
20.4213
-0.283198
15.4078
-0.271711
11.5933
-0.258846
8.71913
-0.244153
6.58341
-0.228312
5.01173
-0.211302
3.85633
-0.195802
3.01615
-0.187113
2.39556
-0.190014
1.93987
-0.194885
1.57661
-0.179968
1.1839
-0.14606
0.746902
-0.116784
0.394475
-0.102061
0.198669
-0.0938074
0.102351
0.0524526
-0.087746
-0.540544
106.943
-0.464833
81.1863
-0.406623
61.6501
-0.363174
46.8167
-0.331785
35.5492
-0.309872
26.9605
-0.294688
20.4061
-0.283219
15.3963
-0.27237
11.5825
-0.259794
8.70657
-0.244917
6.56855
-0.228291
4.99512
-0.209553
3.83761
-0.191555
2.99817
-0.180441
2.38447
-0.179282
1.93872
-0.176328
1.57366
-0.154819
1.1624
-0.122053
0.714141
-0.0992107
0.371638
-0.0891773
0.188639
-0.0830199
0.0962003
0.0471496
-0.0777092
-0.525558
106.852
-0.454463
81.1152
-0.399489
61.5952
-0.358339
46.7755
-0.328629
35.5195
-0.307997
26.9399
-0.293845
20.3919
-0.283219
15.3857
-0.273
11.5723
-0.260717
8.6943
-0.245654
6.5535
-0.22822
4.9777
-0.207736
3.81714
-0.187199
2.97764
-0.173116
2.3704
-0.166299
1.93191
-0.154402
1.56177
-0.127105
1.13511
-0.0967772
0.683824
-0.079947
0.354808
-0.073298
0.181995
-0.068774
0.0916831
0.0429365
-0.0645509
-0.511083
106.767
-0.444444
81.0485
-0.392593
61.5433
-0.353661
46.7366
-0.325568
35.4914
-0.306172
26.9205
-0.29302
20.3787
-0.283219
15.3759
-0.273624
11.5627
-0.261638
8.68232
-0.246393
6.53827
-0.228143
4.95946
-0.205941
3.79496
-0.182829
2.95455
-0.165139
2.35272
-0.151266
1.91805
-0.129904
1.54041
-0.097697
1.10291
-0.0702025
0.656337
-0.0580345
0.342645
-0.0532135
0.177179
-0.0497143
0.0881918
0.0398911
-0.0466571
-0.497106
106.689
-0.434772
80.9862
-0.385938
61.4945
-0.349147
46.6998
-0.322616
35.4649
-0.304413
26.9023
-0.292231
20.3666
-0.283237
15.3669
-0.274262
11.5537
-0.262581
8.67065
-0.24716
6.52286
-0.228101
4.94042
-0.204254
3.77113
-0.178528
2.92884
-0.156596
2.33081
-0.134655
1.89611
-0.1038
1.50956
-0.0670091
1.06614
-0.0407924
0.630133
-0.0308236
0.332678
-0.0262923
0.172654
-0.0234908
0.0853969
0.0381975
-0.0217835
-0.483614
106.617
-0.425446
80.9281
-0.379529
61.4486
-0.344807
46.6651
-0.319785
35.4398
-0.302736
26.8852
-0.291496
20.3553
-0.283293
15.3586
-0.274937
11.5453
-0.263569
8.65929
-0.247983
6.50728
-0.228142
4.92059
-0.202763
3.74576
-0.174388
2.90048
-0.147666
2.3041
-0.117046
1.8655
-0.0768565
1.46938
-0.0344322
1.02372
-0.00640651
0.602117
0.00433992
0.321933
0.00877047
0.168228
0.0101478
0.0840254
0.0386809
0.00967636
-0.470597
106.55
-0.416461
80.8739
-0.373368
61.4055
-0.34065
46.6323
-0.317087
35.4162
-0.301155
26.8693
-0.29083
20.345
-0.283404
15.3512
-0.275664
11.5376
-0.264619
8.64826
-0.248882
6.49156
-0.228304
4.90003
-0.201541
3.71902
-0.170507
2.86947
-0.138569
2.27219
-0.0990223
1.82597
-0.0495815
1.41995
-0.000709915
0.974866
0.0298259
0.571593
0.0420386
0.309722
0.0466255
0.163645
0.0468968
0.0837583
0.0410928
0.0444958
-0.458044
106.489
-0.407815
80.8237
-0.36746
61.3651
-0.336682
46.6016
-0.314533
35.394
-0.299683
26.8544
-0.29025
20.3355
-0.283588
15.3446
-0.276467
11.5304
-0.26576
8.63756
-0.249895
6.47571
-0.228655
4.8788
-0.200707
3.69108
-0.167048
2.83582
-0.129572
2.23472
-0.0812663
1.77767
-0.0228234
1.36151
0.031872
0.920182
0.0645275
0.538947
0.0786349
0.295613
0.083787
0.158498
0.0834956
0.0840524
0.044606
0.0799917
-0.445942
106.434
-0.399507
80.7773
-0.361809
61.3275
-0.332915
46.5727
-0.312138
35.3732
-0.298337
26.8406
-0.289771
20.327
-0.283856
15.3386
-0.277342
11.5239
-0.266964
8.62719
-0.25098
6.45974
-0.229155
4.85699
-0.200184
3.66214
-0.163871
2.79953
-0.12063
2.1915
-0.0641655
1.72122
0.00250927
1.29484
0.0614441
0.861265
0.0955011
0.5049
0.111387
0.279736
0.117479
0.152403
0.117476
0.0840614
0.0481331
0.113952
-0.419511
106.364
-0.367791
80.7256
-0.329225
61.2889
-0.301359
46.5448
-0.282214
35.3541
-0.270057
26.8284
-0.262972
20.3199
-0.258435
15.3341
-0.253344
11.5188
-0.24455
8.61841
-0.230255
6.44545
-0.210132
4.83687
-0.183192
3.63521
-0.148206
2.76455
-0.103587
2.14689
-0.0451241
1.66276
0.0225443
1.22718
0.079109
0.804709
0.111165
0.472855
0.126942
0.26395
0.133715
0.145647
0.134909
0.0828543
0.0502508
0.132807
-0.333615
106.309
-0.292703
80.6847
-0.262189
61.2584
-0.240141
46.5227
-0.225012
35.3389
-0.215453
26.8188
-0.209978
20.3144
-0.206586
15.3307
-0.202781
11.515
-0.195997
8.61164
-0.184674
6.43415
-0.16843
4.82065
-0.146914
3.61371
-0.118521
2.73618
-0.0795513
2.10794
-0.0279071
1.61113
0.0306717
1.16861
0.0775391
0.75786
0.104091
0.446316
0.117463
0.250594
0.123714
0.139387
0.125905
0.0806735
0.0505687
0.125581
-0.265292
106.266
-0.232916
80.6523
-0.208763
61.2342
-0.191308
46.5053
-0.179342
35.3269
-0.171816
26.8113
-0.167576
20.3101
-0.165046
15.3282
-0.162228
11.5122
-0.157035
8.60645
-0.14814
6.42526
-0.135193
4.80771
-0.118187
3.59671
-0.0954241
2.71342
-0.0622228
2.07474
-0.0175077
1.56642
0.0323523
1.11875
0.0712
0.719017
0.0935766
0.423944
0.105036
0.239132
0.110646
0.133786
0.113239
0.0780762
0.0497361
0.114076
-0.210923
106.231
-0.18527
80.6266
-0.166127
61.2151
-0.152288
46.4915
-0.142805
35.3174
-0.136863
26.8053
-0.133565
20.3068
-0.131673
15.3263
-0.129595
11.5101
-0.125638
8.60251
-0.118693
6.41833
-0.108467
4.7975
-0.0951167
3.58338
-0.0770071
2.69534
-0.0491675
2.04692
-0.0108859
1.52815
0.0310742
1.0768
0.0633486
0.68676
0.0823829
0.404924
0.092261
0.229268
0.0970971
0.128945
0.0995475
0.0756315
0.0484797
0.100806
-0.16767
106.204
-0.147323
80.6063
-0.132135
61.1999
-0.121149
46.4805
-0.113623
35.3099
-0.108919
26.8006
-0.106342
20.3042
-0.104924
15.3248
-0.103397
11.5085
-0.100396
8.59952
-0.0950005
6.41294
-0.0869831
4.78948
-0.0765993
3.573
-0.062249
2.68098
-0.0390687
2.02374
-0.00649607
1.49558
0.0285484
1.04175
0.05531
0.659999
0.0714235
0.388809
0.079876
0.220813
0.0839299
0.1249
0.0859294
0.0736278
0.047356
0.0870555
-0.133217
106.182
-0.117022
80.5901
-0.104928
61.1878
-0.0961737
46.4717
-0.0901712
35.3038
-0.0864215
26.7968
-0.0843849
20.3022
-0.0833048
15.3238
-0.0821792
11.5074
-0.0799105
8.59727
-0.0757436
6.40879
-0.0695185
4.78328
-0.0615513
3.56506
-0.0502317
2.66969
-0.0310166
2.00454
-0.00353265
1.46811
0.025416
1.01281
0.047365
0.638066
0.0607662
0.375421
0.0678471
0.213745
0.0711339
0.121609
0.0726119
0.0721559
0.0466184
0.0733489
-0.106076
106.165
-0.0933641
80.5774
-0.0838705
61.1783
-0.0770004
46.4648
-0.0722998
35.2991
-0.069385
26.7939
-0.0678414
20.3006
-0.0670789
15.323
-0.0662991
11.5066
-0.0646095
8.59559
-0.0613823
6.40557
-0.0565147
4.77841
-0.0503654
3.55891
-0.0413093
2.66063
-0.0250903
1.98832
-0.00163376
1.44465
0.0225115
0.988656
0.0406646
0.619911
0.0518041
0.364278
0.0576884
0.207857
0.0603289
0.118977
0.0613837
0.0710969
0.0462313
0.0617736
-0.0840514
106.152
-0.073758
80.5671
-0.0660645
61.1707
-0.0604838
46.4593
-0.0566477
35.2952
-0.0542476
26.7915
-0.0529577
20.2993
-0.0523201
15.3224
-0.0517137
11.506
-0.0504353
8.59432
-0.0479815
6.40314
-0.0442976
4.77474
-0.0397242
3.55436
-0.0327051
2.65363
-0.019491
1.97512
-0.000401911
1.42557
0.0187595
0.969506
0.0330222
0.605663
0.0417285
0.355582
0.0462751
0.203321
0.0482318
0.117015
0.0489029
0.0704318
0.0460983
0.0490347
-0.0731526
106.136
-0.0609021
80.5548
-0.0514921
61.1612
-0.0444215
46.4522
-0.0393223
35.2901
-0.0359009
26.788
-0.0338631
20.2973
-0.0327854
15.3213
-0.0320414
11.5052
-0.030828
8.59312
-0.02849
6.4008
-0.0249538
4.77121
-0.0205084
3.54991
-0.0131723
2.64629
0.000896853
1.96105
0.020309
1.40616
0.0382886
0.951518
0.0502363
0.593712
0.0563852
0.349428
0.0587562
0.200945
0.0591534
0.116626
0.0588547
0.0707263
0.0464758
0.05848
-0.0768169
106.119
-0.0639468
80.542
-0.0540581
61.1514
-0.0466233
46.4448
-0.0412583
35.2847
-0.0376592
26.7844
-0.0355257
20.2951
-0.0344245
15.3202
-0.0337056
11.5045
-0.032516
8.59195
-0.0301529
6.39846
-0.0265658
4.76764
-0.0220622
3.54543
-0.0144012
2.63865
0.000671954
1.94599
0.0214197
1.38542
0.0403169
0.932632
0.0526667
0.581376
0.0589612
0.343143
0.0614159
0.1985
0.0618936
0.116144
0.0616491
0.0709773
0.0467243
0.0613999
-0.0806655
106.101
-0.0671442
80.5284
-0.0567525
61.141
-0.0489347
46.4369
-0.0432896
35.279
-0.0395031
26.7806
-0.037268
20.2929
-0.0361417
15.319
-0.0354496
11.5038
-0.0342866
8.59079
-0.0319021
6.39607
-0.0282686
4.764
-0.0236795
3.54083
-0.0156593
2.63062
0.000457624
1.92987
0.0225036
1.36337
0.0422352
0.912893
0.0549669
0.568641
0.0614455
0.336657
0.0639628
0.195977
0.0644356
0.11568
0.0641444
0.0712646
0.0469834
0.063888
-0.0847074
106.083
-0.0705019
80.5143
-0.0595816
61.1301
-0.051361
46.4287
-0.0454213
35.2731
-0.0414369
26.7766
-0.0390942
20.2905
-0.0379409
15.3179
-0.0372771
11.5031
-0.0361436
8.58968
-0.0337421
6.39369
-0.03007
4.76035
-0.0253737
3.53616
-0.0169437
2.62221
0.000272162
1.91267
0.0235768
1.34008
0.0440792
0.892403
0.0571816
0.555552
0.0638283
0.330018
0.0663919
0.193423
0.0668397
0.115226
0.0664656
0.0716456
0.0473589
0.0660895
-0.0889519
106.063
-0.0740279
80.4993
-0.0625524
61.1186
-0.0539083
46.4201
-0.0476583
35.2668
-0.0434652
26.7724
-0.0410085
20.2881
-0.0398263
15.3167
-0.0391924
11.5024
-0.0380918
8.58858
-0.0356791
6.39128
-0.0319799
4.75664
-0.0271682
3.53134
-0.0182571
2.61329
0.000132594
1.89427
0.0246537
1.31555
0.0458766
0.871171
0.0593389
0.542085
0.0661451
0.323203
0.0687407
0.19082
0.0691539
0.114822
0.0686885
0.0721068
0.0479142
0.0681357
-0.0934098
106.043
-0.0777307
80.4837
-0.0656717
61.1066
-0.0565824
46.411
-0.0500059
35.2602
-0.0455927
26.768
-0.0430152
20.2855
-0.0418021
15.3155
-0.0412002
11.5018
-0.0401363
8.58754
-0.0377199
6.38888
-0.03401
4.75295
-0.0290845
3.52644
-0.0195987
2.60383
5.46673e-05
1.87464
0.0257502
1.28987
0.0476531
0.849281
0.0614788
0.528272
0.0684536
0.316234
0.0710827
0.1882
0.0714548
0.114444
0.0709069
0.0726617
0.0486549
0.0701663
-0.098091
106.022
-0.0816192
80.4672
-0.0689472
61.0939
-0.0593898
46.4014
-0.0524695
35.2532
-0.0478242
26.7633
-0.045119
20.2828
-0.0438729
15.3142
-0.0433052
11.5012
-0.0422823
8.58652
-0.0398714
6.38647
-0.036171
4.74925
-0.0311333
3.5214
-0.0209704
2.59366
4.48839e-05
1.85361
0.0268868
1.26302
0.0494386
0.826722
0.0636391
0.514066
0.0707972
0.309066
0.0734678
0.185522
0.0738114
0.114109
0.0732005
0.0732684
0.0495522
0.0723053
-0.103007
105.999
-0.0857025
80.4499
-0.0723864
61.0806
-0.062337
46.3914
-0.0550551
35.2459
-0.050165
26.7584
-0.0473245
20.2799
-0.0460434
15.3129
-0.045512
11.5007
-0.0445352
8.58556
-0.0421401
6.3841
-0.0384721
4.7456
-0.0333156
3.51626
-0.022375
2.58274
9.85742e-05
1.83116
0.0280859
1.23505
0.051264
0.803557
0.0658501
0.499493
0.0732055
0.301717
0.0759329
0.182804
0.0762651
0.113771
0.0756244
0.0739161
0.0505429
0.074634
-0.108171
105.975
-0.0899906
80.4317
-0.0759978
61.0666
-0.0654311
46.3808
-0.0577686
35.2382
-0.0526203
26.7532
-0.0496368
20.2769
-0.0483184
15.3116
-0.047826
11.5001
-0.0469005
8.58464
-0.0445329
6.38172
-0.0409227
4.74198
-0.0356321
3.51096
-0.0238028
2.5709
0.000217245
1.80713
0.0293731
1.20589
0.053166
0.779756
0.06814
0.484512
0.0756984
0.294149
0.0784967
0.179998
0.0788403
0.113436
0.0782019
0.07455
0.0515554
0.0771911
-0.113593
105.951
-0.0944936
80.4126
-0.0797899
61.0519
-0.0686795
46.3697
-0.0606164
35.2301
-0.0551961
26.7478
-0.0520613
20.2738
-0.0507032
15.3102
-0.0502524
11.4997
-0.0493838
8.58379
-0.0470567
6.37942
-0.043531
4.73848
-0.0380894
3.50555
-0.0252428
2.55808
0.000409996
1.7815
0.0307721
1.17554
0.0551852
0.755357
0.0705405
0.469168
0.0782894
0.286407
0.0811716
0.177126
0.0815374
0.113063
0.0809331
0.075161
0.0525065
0.0799824
-0.119287
105.925
-0.0992222
80.3925
-0.0837719
61.0364
-0.0720898
46.358
-0.0636053
35.2216
-0.0578983
26.7421
-0.0546036
20.2705
-0.0532033
15.3088
-0.0527969
11.4993
-0.0519908
8.58298
-0.0497186
6.37714
-0.0463056
4.73505
-0.0406957
3.49993
-0.0266879
2.54406
0.000690904
1.75411
0.0323119
1.14391
0.0573557
0.730305
0.0730747
0.453442
0.0809905
0.278483
0.083961
0.174147
0.0843703
0.112663
0.0838168
0.0757102
0.0533282
0.0829962
-0.125267
105.897
-0.104188
80.3715
-0.0879529
61.0202
-0.0756703
46.3457
-0.0667425
35.2127
-0.0607333
26.736
-0.0572696
20.267
-0.0558244
15.3074
-0.0554652
11.4989
-0.0547276
8.58227
-0.0525263
6.37496
-0.0492552
4.7318
-0.0434465
3.49414
-0.0281194
2.52875
0.00107945
1.72493
0.0340289
1.11098
0.0597153
0.704632
0.075767
0.437401
0.0838135
0.270443
0.0868653
0.171106
0.0873614
0.11216
0.0869019
0.0761758
0.0539731
0.0862576
-0.131547
105.869
-0.109403
80.3493
-0.0923435
61.0032
-0.0794294
46.3328
-0.0700352
35.2033
-0.0637078
26.7297
-0.0600655
20.2633
-0.0585726
15.3059
-0.0582634
11.4986
-0.0576004
8.5816
-0.0554877
6.37284
-0.0523875
4.72869
-0.0463347
3.48808
-0.0295125
2.51192
0.00159937
1.6938
0.0359519
1.07662
0.0622937
0.678279
0.0786398
0.421047
0.086771
0.262305
0.0898755
0.167993
0.0905291
0.111516
0.0902417
0.0764589
0.0544066
0.0898087
-0.138142
105.838
-0.114879
80.326
-0.0969537
60.9853
-0.0833761
46.3192
-0.0734914
35.1933
-0.0668287
26.723
-0.0629978
20.2595
-0.0614542
15.3043
-0.0611979
11.4983
-0.0606156
8.58104
-0.0586111
6.37086
-0.0557124
4.72582
-0.0493769
3.48177
-0.030861
2.49343
0.00227809
1.66069
0.0381034
1.04081
0.0651126
0.651282
0.0817145
0.404454
0.0898856
0.25414
0.0930216