/*--------------------------------*- C++ -*----------------------------------*\
  =========                 |
  \\      /  F ield         | OpenFOAM: The Open Source CFD Toolbox
   \\    /   O peration     | Website:  https://openfoam.org
    \\  /    A nd           | Version:  7
     \\/     M anipulation  |
\*---------------------------------------------------------------------------*/
FoamFile
{
    version     2.0;
    format      ascii;
    class       volVectorField;
    location    "150";
    object      U;
}
// * * * * * * * * * * * * * * * * * * * * * * * * * * * * * * * * * * * * * //

dimensions      [0 1 -1 0 0 0 0];

internalField   nonuniform List<vector> 
12842
(
(14.6765 5.35066 -2.29127e-18)
(14.67 5.36372 -1.04257e-18)
(14.6594 5.37796 -3.33933e-19)
(14.6408 5.39422 8.7905e-19)
(14.6132 5.41313 -3.5298e-18)
(14.5756 5.43592 0)
(14.5267 5.46429 0)
(14.4652 5.50067 -4.4944e-19)
(14.39 5.5483 2.98193e-18)
(14.2992 5.61086 -2.58168e-21)
(14.1909 5.69184 8.97068e-19)
(14.0627 5.7937 -1.37398e-19)
(13.9124 5.91714 5.6375e-19)
(13.7394 6.06097 1.23995e-19)
(13.5446 6.22214 -1.49283e-19)
(13.3318 6.39619 -3.21173e-19)
(13.1069 6.57764 -2.56053e-19)
(12.8771 6.7605 0)
(12.6503 6.9386 1.67568e-20)
(12.4342 7.10617 1.16961e-19)
(12.2345 7.25828 2.02073e-20)
(12.0568 7.39285 -7.17298e-20)
(11.8998 7.50287 5.47413e-20)
(14.6773 5.35256 1.88228e-18)
(14.6732 5.37023 0)
(14.6657 5.38831 -2.66265e-18)
(14.6496 5.40936 1.62206e-18)
(14.6246 5.43405 2.84066e-18)
(14.5898 5.46335 0)
(14.5445 5.49871 -3.67892e-18)
(14.4882 5.54247 0)
(14.4205 5.59806 -3.9174e-18)
(14.3406 5.66966 -3.69855e-19)
(14.2462 5.76138 -1.76068e-18)
(14.1346 5.87604 -1.16176e-18)
(14.0022 6.01423 -5.59488e-19)
(13.8469 6.17396 4.05299e-19)
(13.6684 6.35097 0)
(13.4695 6.53947 3.59671e-19)
(13.2556 6.73293 3.51446e-19)
(13.0339 6.92468 -3.02535e-19)
(12.8125 7.10836 0)
(12.5992 7.27846 -1.6411e-19)
(12.4002 7.43032 -1.64244e-19)
(12.2207 7.56313 1.78139e-19)
(12.0633 7.66748 -1.54004e-19)
(14.6789 5.35435 0)
(14.678 5.37541 0)
(14.6735 5.39653 3.77945e-19)
(14.6601 5.42175 -8.98416e-18)
(14.6376 5.45161 0)
(14.6053 5.48661 0)
(14.563 5.52784 1.67472e-19)
(14.5109 5.57739 2.72082e-18)
(14.4498 5.63884 1.62682e-18)
(14.3796 5.71699 1.00071e-18)
(14.2986 5.81682 9.71669e-19)
(14.2029 5.94187 1.16422e-18)
(14.0878 6.09283 1.04571e-19)
(13.9495 6.26709 -5.42232e-19)
(13.7863 6.45916 0)
(13.6004 6.66187 -4.33245e-20)
(13.3971 6.86755 5.60602e-20)
(13.1839 7.0689 1.74467e-19)
(12.9691 7.25935 3.22767e-20)
(12.7606 7.43363 -3.45633e-20)
(12.5652 7.58715 1.1986e-19)
(12.3872 7.72056 0)
(12.2325 7.82146 5.04944e-20)
(14.6812 5.35593 2.59504e-19)
(14.6838 5.37915 -9.54664e-19)
(14.6822 5.40272 3.48026e-18)
(14.6716 5.43163 1.21563e-17)
(14.6517 5.46618 -1.11252e-18)
(14.6217 5.50631 3.56294e-18)
(14.5817 5.55265 9.14327e-19)
(14.5331 5.60685 -2.73358e-18)
(14.4777 5.67258 -3.07929e-18)
(14.4167 5.7553 1.20711e-18)
(14.3486 5.86109 -1.9972e-18)
(14.2688 5.99449 6.26192e-20)
(14.1711 6.15653 -8.20075e-20)
(14.0495 6.34405 5.08644e-19)
(13.9012 6.55034 -6.67605e-20)
(13.7278 6.7668 8.67621e-20)
(13.5349 6.98459 2.87026e-20)
(13.3305 7.19579 1.42413e-19)
(13.1233 7.39367 -8.71806e-20)
(12.9213 7.57324 1.54846e-19)
(12.7317 7.7299 5.20496e-21)
(12.5576 7.86577 2.84513e-20)
(12.4078 7.96519 -3.58825e-21)
(14.6841 5.35711 1.48324e-18)
(14.69 5.38141 0)
(14.6914 5.40702 -4.48773e-19)
(14.6837 5.4392 -4.08904e-18)
(14.6665 5.47807 -3.53287e-19)
(14.6386 5.52297 -9.18885e-18)
(14.6007 5.57396 6.83838e-20)
(14.5549 5.63205 5.0346e-18)
(14.5048 5.70083 3.52744e-18)
(14.4525 5.78636 -1.86842e-18)
(14.3973 5.89606 1.1095e-18)
(14.3336 6.03573 -2.79433e-19)
(14.2533 6.20708 1.003e-19)
(14.1485 6.40657 -1.64421e-18)
(14.015 6.62627 -9.40488e-19)
(13.854 6.85604 6.84383e-19)
(13.6715 7.08581 0)
(13.4763 7.307 -1.48897e-19)
(13.2776 7.51272 0)
(13.0834 7.69841 1.3102e-19)
(12.9012 7.85928 9.37999e-20)
(12.7326 7.9991 -5.89742e-20)
(12.5893 8.09861 -3.38746e-20)
(14.6874 5.35778 -1.48372e-18)
(14.6962 5.38227 0)
(14.7005 5.40958 0)
(14.6959 5.44455 -4.7846e-18)
(14.6816 5.48736 3.7446e-18)
(14.6557 5.53668 4.98199e-18)
(14.6195 5.59198 7.16521e-18)
(14.576 5.6533 -5.62033e-18)
(14.5305 5.72403 0)
(14.4866 5.81074 -1.16231e-18)
(14.4443 5.92231 -5.41756e-19)
(14.3972 6.06616 1.94629e-19)
(14.335 6.24501 0)
(14.2476 6.45516 1.13298e-18)
(14.1293 6.68752 7.85305e-19)
(13.9808 6.93031 -4.83968e-19)
(13.8089 7.17201 -1.42309e-19)
(13.6233 7.40335 1.06001e-18)
(13.4338 7.61723 0)
(13.2483 7.80964 -3.85466e-19)
(13.0748 7.97551 1.79179e-19)
(12.9128 8.12049 4.6991e-19)
(12.7772 8.22117 -1.25666e-19)
(14.6907 5.35789 7.13948e-20)
(14.7019 5.38197 0)
(14.7094 5.41063 0)
(14.708 5.44789 4.79516e-18)
(14.6969 5.49424 -4.42481e-18)
(14.6733 5.54775 5.75903e-19)
(14.639 5.60724 -4.09059e-18)
(14.5974 5.67155 -2.84795e-19)
(14.5555 5.74353 3.75642e-19)
(14.5189 5.83001 1.25569e-18)
(14.4882 5.94144 -1.08639e-19)
(14.4566 6.08714 1.22059e-18)
(14.4122 6.27136 0)
(14.3425 6.49064 -2.26283e-18)
(14.2399 6.73481 2.07609e-19)
(14.1049 6.99029 -2.70856e-19)
(13.9446 7.24392 8.5897e-19)
(13.7694 7.48554 -6.2463e-19)
(13.59 7.70776 -9.13933e-19)
(13.4142 7.90725 -2.1441e-19)
(13.2503 8.07855 4.6316e-20)
(13.0958 8.2297 -3.23746e-19)
(12.9688 8.3323 -2.27242e-19)
(14.6938 5.35752 0)
(14.7071 5.38071 2.00014e-19)
(14.7176 5.41034 -2.30408e-18)
(14.7192 5.44931 1.07633e-19)
(14.7108 5.49859 4.01261e-18)
(14.6889 5.55561 -7.17724e-19)
(14.6557 5.61847 1.5811e-19)
(14.6156 5.6846 2.71723e-18)
(14.5779 5.75628 0)
(14.5498 5.84053 6.88376e-19)
(14.5331 5.94963 1.37451e-20)
(14.5195 6.09506 3.54463e-19)
(14.4945 6.2829 0)
(14.443 6.51016 2.24606e-18)
(14.3561 6.76561 -2.11259e-18)
(14.2341 7.0338 0)
(14.0848 7.2996 -8.58667e-19)
(13.9201 7.55185 0)
(13.7514 7.78265 7.58993e-19)
(13.5866 7.98967 0)
(13.4339 8.16667 -3.78356e-19)
(13.2889 8.32524 2.33322e-19)
(13.1718 8.42985 3.47493e-19)
(14.6968 5.35675 0)
(14.7118 5.37907 0)
(14.7256 5.40907 1.77924e-19)
(14.7306 5.44908 1.725e-19)
(14.726 5.50079 -4.48854e-18)
(14.7065 5.56148 -4.14132e-18)
(14.6741 5.62899 0)
(14.6326 5.69945 -2.51402e-18)
(14.5929 5.77387 0)
(14.5644 5.85824 -1.31169e-18)
(14.5522 5.96539 9.37726e-19)
(14.549 6.10859 -1.34314e-18)
(14.5399 6.29638 -1.81627e-19)
(14.5068 6.52738 0)
(14.4375 6.79043 2.2107e-18)
(14.3301 7.06881 1.757e-18)
(14.1919 7.34548 -1.46926e-19)
(14.0354 7.60789 1.11606e-18)
(13.8735 7.84693 9.88727e-19)
(13.7152 8.06105 0)
(13.5694 8.24229 2.48323e-19)
(13.4306 8.40744 2.82966e-20)
(13.3222 8.51286 -1.98897e-19)
(14.6999 5.35555 -2.8967e-20)
(14.716 5.37724 -2.05411e-18)
(14.7323 5.40783 1.99852e-18)
(14.7396 5.44895 0)
(14.7372 5.50269 -8.61589e-20)
(14.7187 5.56608 -1.33733e-19)
(14.6865 5.63653 3.91239e-18)
(14.6442 5.70909 0)
(14.6042 5.78405 0)
(14.5778 5.86712 6.06888e-19)
(14.5716 5.97211 -9.66573e-19)
(14.5785 6.11386 -7.88255e-20)
(14.5823 6.30253 2.31179e-18)
(14.5631 6.53753 -7.44303e-20)
(14.5067 6.80723 -3.23382e-19)
(14.4104 7.09369 3.88935e-19)
(14.2815 7.37834 -1.17664e-18)
(14.1334 7.64781 -1.04956e-18)
(13.9796 7.8922 -1.13536e-18)
(13.8295 8.11115 -8.66124e-19)
(13.6927 8.29497 2.88608e-19)
(13.5612 8.46527 -1.33057e-18)
(13.4627 8.57149 2.50329e-19)
(14.7027 5.35399 -1.42956e-19)
(14.7198 5.37527 2.30291e-18)
(14.7385 5.40637 -5.32266e-20)
(14.7479 5.44865 -2.01192e-18)
(14.7476 5.50446 1.12195e-19)
(14.7303 5.57064 4.30063e-18)
(14.6984 5.64404 -7.54128e-18)
(14.6553 5.71855 -1.59843e-19)
(14.6152 5.7936 1.01012e-19)
(14.5906 5.8746 4.33417e-19)
(14.5901 5.9765 7.46768e-20)
(14.6067 6.116 -2.29013e-18)
(14.6234 6.30508 -2.08147e-18)
(14.618 6.54399 0)
(14.5749 6.82055 2.86419e-18)
(14.4903 7.1154 -3.95408e-18)
(14.3716 7.40822 -2.95404e-19)
(14.2326 7.68466 1.12783e-18)
(14.0877 7.93383 -8.85868e-21)
(13.9467 8.15689 1.11187e-18)
(13.82 8.34224 0)
(13.6971 8.51688 4.18173e-19)
(13.6101 8.62266 0)
(14.7052 5.35212 6.07676e-19)
(14.7231 5.37325 2.01974e-18)
(14.7442 5.40472 -8.75396e-20)
(14.7556 5.4481 3.8718e-18)
(14.7573 5.50591 -2.27168e-18)
(14.7412 5.57488 1.19418e-19)
(14.7096 5.65126 3.89653e-18)
(14.6658 5.72776 -3.97655e-20)
(14.6253 5.80279 7.75629e-20)
(14.6024 5.88141 -4.69985e-19)
(14.6074 5.9797 0)
(14.6335 6.11628 2.11453e-18)
(14.6628 6.30514 2.13732e-19)
(14.6715 6.54752 -1.14681e-19)
(14.6422 6.83079 -2.98729e-18)
(14.57 7.13413 -1.20345e-20)
(14.4622 7.43531 1.102e-18)
(14.3329 7.71886 -1.88054e-18)
(14.1974 7.97253 0)
(14.0659 8.19915 -8.1662e-19)
(13.9502 8.38473 1.12181e-18)
(13.837 8.56295 0)
(13.7632 8.66594 -7.21988e-19)
(14.7074 5.34969 -1.90994e-19)
(14.7262 5.37119 -9.35011e-20)
(14.7495 5.40288 -8.22033e-20)
(14.7629 5.44727 -1.83131e-18)
(14.7665 5.50694 4.42706e-18)
(14.7515 5.57869 -1.74967e-20)
(14.7203 5.65808 -5.71884e-20)
(14.6756 5.73672 -3.12551e-18)
(14.6346 5.81182 5.4302e-20)
(14.6131 5.88797 0)
(14.6233 5.9822 1.64422e-18)
(14.6588 6.11521 5.97324e-20)
(14.701 6.30312 9.39795e-20)
(14.7244 6.54846 2.55714e-20)
(14.7096 6.83822 -3.0636e-19)
(14.6507 7.15015 2.3124e-18)
(14.5543 7.45998 -1.31638e-18)
(14.4351 7.75094 -2.18361e-19)
(14.309 8.00894 -4.13663e-19)
(14.1867 8.2387 1.13941e-18)
(14.0822 8.42286 -8.10015e-19)
(13.9787 8.60393 1.75392e-18)
(13.9195 8.70134 -1.19784e-18)
(14.7094 5.34707 -1.32841e-19)
(14.7291 5.36916 -1.84852e-18)
(14.7543 5.40094 -3.76071e-21)
(14.7696 5.44625 -1.83541e-18)
(14.7751 5.50766 -4.46735e-18)
(14.7614 5.58212 1.73375e-20)
(14.7304 5.66453 5.8892e-20)
(14.6848 5.74538 -1.2515e-19)
(14.6431 5.82058 1.63427e-18)
(14.6228 5.89415 -1.25617e-19)
(14.6379 5.98403 -1.74688e-18)
(14.6827 6.11294 -2.69701e-18)
(14.7381 6.29926 2.80349e-18)
(14.7767 6.54696 0)
(14.7774 6.84291 1.8126e-18)
(14.7327 7.16356 0)
(14.6487 7.48262 1.71321e-18)
(14.5396 7.78183 1.03116e-18)
(14.4225 8.04533 -1.40068e-20)
(14.3083 8.27859 -1.22807e-18)
(14.2131 8.46298 -2.87292e-20)
(14.1186 8.64394 6.21319e-21)
(14.0708 8.74181 -4.46129e-19)
(14.711 5.34449 -1.94701e-20)
(14.7318 5.36717 -1.50887e-20)
(14.7588 5.39895 2.77512e-21)
(14.776 5.44506 1.83426e-18)
(14.7833 5.50809 2.22314e-18)
(14.7709 5.5852 0)
(14.7401 5.67064 -3.67893e-20)
(14.6936 5.75377 3.24611e-18)
(14.651 5.82911 6.26123e-20)
(14.6316 5.89999 1.24507e-19)
(14.6513 5.98513 9.86268e-19)
(14.7053 6.10931 4.21364e-18)
(14.7742 6.29332 -2.68897e-18)
(14.8289 6.5428 2.36337e-18)
(14.8463 6.84467 2.31463e-19)
(14.817 7.17417 1.25889e-20)
(14.7462 7.50306 -1.06266e-19)
(14.6479 7.81129 -3.24717e-19)
(14.5395 8.08132 2.18551e-19)
(14.4328 8.31777 -3.6307e-19)
(14.3453 8.50346 -2.41552e-20)
(14.2601 8.67962 3.07536e-19)
(14.2211 8.78277 0)
(14.7124 5.34203 -3.29618e-20)
(14.7343 5.36525 0)
(14.7629 5.39695 0)
(14.7818 5.44374 1.81858e-18)
(14.791 5.50829 2.31439e-18)
(14.78 5.58797 -2.52688e-18)
(14.7495 5.67644 -3.14607e-20)
(14.7021 5.76189 2.29452e-20)
(14.6585 5.83735 -1.72702e-18)
(14.6397 5.90534 -1.30828e-20)
(14.6638 5.98529 7.22717e-20)
(14.727 6.10408 -1.45757e-18)
(14.8097 6.28502 0)
(14.8813 6.53565 -2.49124e-18)
(14.9166 6.84317 -3.90758e-18)
(14.9043 7.18171 -1.53803e-18)
(14.8481 7.52114 -8.90344e-19)
(14.7612 7.8394 0)
(14.6614 8.1173 0)
(14.5615 8.35701 6.22904e-19)
(14.4794 8.54459 4.35313e-19)
(14.4032 8.71314 -8.73962e-19)
(14.3699 8.82341 0)
(14.7135 5.33969 2.00783e-19)
(14.7365 5.36338 -6.86853e-21)
(14.7666 5.39494 5.7701e-22)
(14.7873 5.4423 -1.81162e-18)
(14.7984 5.50826 -4.62447e-18)
(14.7887 5.59045 5.09411e-18)
(14.7586 5.68196 3.25683e-20)
(14.7104 5.76978 2.3941e-20)
(14.6656 5.84537 -3.16446e-20)
(14.6472 5.91027 0)
(14.6754 5.98453 -1.02619e-18)
(14.7478 6.09714 1.61077e-18)
(14.8448 6.27411 0)
(14.9344 6.52515 0)
(14.9891 6.83795 1.86302e-18)
(14.9954 7.18569 8.68616e-20)
(14.9554 7.53648 9.9622e-19)
(14.881 7.86603 7.25162e-19)
(14.7898 8.15352 -9.84525e-19)
(14.6955 8.39749 -3.37949e-19)
(14.616 8.58748 1.31905e-18)
(14.547 8.74891 -1.18755e-18)
(14.5157 8.8647 7.59294e-19)
(14.7144 5.3375 -1.38233e-19)
(14.7386 5.36158 -6.71494e-19)
(14.77 5.39293 -8.53556e-21)
(14.7924 5.44073 1.12417e-20)
(14.8055 5.508 2.34929e-18)
(14.7972 5.59263 -2.61949e-18)
(14.7676 5.68719 2.0699e-20)
(14.7185 5.77748 -2.32638e-21)
(14.6724 5.85322 -3.30635e-20)
(14.6541 5.91483 7.19726e-21)
(14.6861 5.98287 -9.47532e-21)
(14.7676 6.0884 -1.61185e-18)
(14.8794 6.26034 1.77422e-18)
(14.9883 6.51086 -8.01029e-20)
(15.0641 6.82843 0)
(15.0909 7.18542 -1.96687e-19)
(15.0691 7.54838 1.31167e-19)
(15.0088 7.89081 -7.12169e-19)
(14.9266 8.19017 1.2126e-18)
(14.8365 8.44077 6.62912e-19)
(14.757 8.63514 -4.28565e-19)
(14.6918 8.79271 -5.933e-19)
(14.6575 8.90934 7.28008e-19)
(14.7151 5.33548 -1.54177e-20)
(14.7406 5.35983 6.77474e-19)
(14.7732 5.39092 0)
(14.7972 5.43905 0)
(14.8122 5.50753 0)
(14.8055 5.59452 0)
(14.7765 5.69217 -2.15102e-20)
(14.7265 5.78501 1.53282e-20)
(14.6788 5.86093 1.72906e-20)
(14.6603 5.91905 7.41332e-21)
(14.6959 5.98026 -9.75516e-21)
(14.7865 6.07771 0)
(14.9138 6.24339 -3.50518e-18)
(15.0431 6.49225 1.03066e-19)
(15.1419 6.81385 -2.09742e-19)
(15.1917 7.17995 1.79765e-18)
(15.1903 7.55577 -1.37678e-19)
(15.1463 7.91287 1.95054e-19)
(15.0741 8.22698 -2.24146e-19)
(14.9875 8.48839 3.36767e-19)
(14.9055 8.69155 -4.32967e-19)
(14.838 8.84959 0)
(14.7918 8.9623 3.55541e-19)
(14.7158 5.33361 3.09735e-19)
(14.7423 5.35815 3.08844e-19)
(14.776 5.3889 4.37299e-21)
(14.8018 5.43725 -9.53443e-19)
(14.8188 5.50683 -1.23149e-18)
(14.8137 5.59612 -1.36442e-20)
(14.7854 5.69687 2.68435e-18)
(14.7346 5.79237 -2.04684e-18)
(14.6853 5.86853 -1.05468e-18)
(14.6662 5.92295 0)
(14.7048 5.97669 3.25088e-20)
(14.8043 6.06494 -1.86115e-18)
(14.9475 6.2229 1.86036e-18)
(15.0988 6.46871 1.52178e-18)
(15.2227 6.79333 1.23938e-18)
(15.2979 7.16812 0)
(15.3202 7.55725 0)
(15.2955 7.93074 -8.17591e-19)
(15.2358 8.26315 -7.67117e-19)
(15.1534 8.54188 3.37622e-19)
(15.0674 8.76221 2.10597e-19)
(14.9906 8.92969 2.57439e-19)
(14.9269 9.04536 -3.20442e-19)
(14.7163 5.33191 -1.60041e-19)
(14.7439 5.35651 -3.1151e-19)
(14.7787 5.3869 4.42908e-21)
(14.806 5.43538 -1.23886e-20)
(14.825 5.50599 1.23539e-18)
(14.8215 5.59755 1.43769e-18)
(14.7939 5.70145 -1.2783e-18)
(14.7422 5.79969 2.03867e-18)
(14.691 5.87602 1.06693e-18)
(14.671 5.92637 1.14657e-20)
(14.7126 5.97181 0)
(14.8212 6.04951 1.82071e-18)
(14.9811 6.19809 1.95098e-18)
(15.1558 6.43921 -1.60582e-18)
(15.307 6.76553 -1.06329e-18)
(15.4106 7.14824 -4.54638e-19)
(15.4599 7.55067 -3.41297e-19)
(15.4587 7.94196 1.65518e-18)
(15.416 8.29677 0)
(15.3421 8.60179 0)
(15.2551 8.85225 2.0392e-19)
(15.1697 9.04296 -4.8802e-19)
(15.0914 9.17008 -2.79421e-19)
(14.7167 5.33038 1.59721e-19)
(14.7454 5.35494 0)
(14.7812 5.38485 0)
(14.8104 5.43324 1.93761e-18)
(14.8317 5.50465 -1.26166e-18)
(14.8303 5.59831 -1.47483e-18)
(14.8039 5.70545 3.92184e-20)
(14.7517 5.80685 -1.08411e-18)
(14.6982 5.88397 -2.46927e-20)
(14.6762 5.93053 1.62237e-19)
(14.7192 5.9672 3.43991e-20)
(14.8359 6.03294 -4.49331e-20)
(15.0125 6.16993 -1.95019e-18)
(15.2121 6.404 1.76688e-18)
(15.3933 6.73 1.28148e-18)
(15.5289 7.1191 -9.99391e-19)
(15.6096 7.53387 7.94968e-19)
(15.6377 7.94322 -8.36768e-19)
(15.62 8.32374 0)
(15.5645 8.66368 0)
(15.4846 8.95448 -1.96129e-19)
(15.3893 9.17322 1.13029e-19)
(15.2792 9.30168 -2.37699e-19)
(14.7172 5.32901 -1.91263e-21)
(14.7466 5.35358 3.15209e-19)
(14.7829 5.3832 0)
(14.8131 5.43189 -4.78849e-19)
(14.8353 5.5045 2.59114e-18)
(14.8345 5.60038 -1.48723e-20)
(14.8077 5.71019 7.47264e-20)
(14.7542 5.81325 1.11729e-18)
(14.699 5.88872 -2.09303e-20)
(14.6776 5.9291 -1.49062e-19)
(14.7253 5.95528 -9.44005e-21)
(14.8525 6.00789 -9.46505e-19)
(15.0477 6.13232 -1.31649e-19)
(15.2741 6.3583 -1.66133e-18)
(15.4867 6.68278 -1.45674e-18)
(15.6563 7.07684 5.74452e-20)
(15.7718 7.50227 0)
(15.835 7.92819 -1.13936e-19)
(15.8521 8.33529 1.41702e-19)
(15.8271 8.71339 0)
(15.7614 9.04721 2.05969e-19)
(15.6528 9.30531 -1.07469e-19)
(15.5141 9.47077 0)
(14.7172 5.32744 -1.58878e-19)
(14.7479 5.35124 -3.16138e-19)
(14.7855 5.37969 0)
(14.818 5.42701 -4.96724e-19)
(14.8434 5.49906 -2.66648e-18)
(14.8459 5.59667 -1.58332e-18)
(14.8214 5.71153 -3.0133e-18)
(14.7671 5.82229 0)
(14.7078 5.90527 -1.37103e-18)
(14.6804 5.94763 2.43851e-19)
(14.7249 5.96643 5.87051e-19)
(14.8568 6.00331 9.95272e-19)
(15.0677 6.10841 -2.01929e-20)
(15.3218 6.31776 2.60005e-20)
(15.5707 6.63282 -1.50738e-18)
(15.7813 7.02549 1.03063e-18)
(15.9395 7.456 0)
(16.0485 7.89413 4.95178e-19)
(16.1155 8.32516 0)
(16.1385 8.73875 0)
(16.109 9.12033 -1.95228e-19)
(16.0345 9.45593 -3.20279e-19)
(15.9667 9.73884 2.2945e-19)
(14.7177 5.32668 0)
(14.7487 5.35031 1.41849e-23)
(14.7867 5.37835 -5.61205e-23)
(14.8198 5.42526 5.27215e-19)
(14.8461 5.49732 6.49659e-19)
(14.8494 5.59596 1.58424e-18)
(14.8252 5.7132 1.53337e-18)
(14.7703 5.82746 1.11201e-21)
(14.7091 5.91343 6.42857e-19)
(14.6797 5.95537 4.22912e-20)
(14.7246 5.96793 -4.50657e-21)
(14.8625 5.99235 0)
(15.0885 6.08103 2.09795e-20)
(15.3689 6.27471 -2.69728e-20)
(15.6532 6.57867 2.23777e-18)
(15.905 6.96567 6.59542e-20)
(16.1087 7.39487 0)
(16.2695 7.83509 1.69813e-19)
(16.3964 8.27025 -1.59129e-19)
(16.4876 8.68921 0)
(16.5451 9.09095 0)
(16.5958 9.484 2.61091e-19)
(16.6857 9.8477 -1.28893e-19)
(14.7181 5.32598 -1.10848e-19)
(14.7495 5.34951 -3.35417e-19)
(14.7879 5.3772 0)
(14.8218 5.42379 -5.28241e-19)
(14.849 5.49599 7.04493e-19)
(14.8533 5.59571 1.71783e-18)
(14.8297 5.71524 -1.66853e-18)
(14.7744 5.83268 1.31586e-18)
(14.7113 5.92099 7.29599e-19)
(14.6799 5.96175 -4.49235e-19)
(14.7246 5.9674 -5.85438e-19)
(14.8676 5.97861 -1.05158e-18)
(15.108 6.04969 -1.16472e-18)
(15.4148 6.22589 0)
(15.735 6.51624 -7.86666e-19)
(16.0291 6.89451 1.21245e-18)
(16.2787 7.31761 5.31158e-20)
(16.4892 7.74813 -5.89303e-19)
(16.6718 8.16378 0)
(16.8373 8.55794 0)
(17.0053 8.9397 0)
(17.1821 9.31106 -4.78672e-19)
(17.3482 9.61986 3.65218e-19)
(14.7183 5.32532 1.1111e-19)
(14.7502 5.34874 -1.37774e-20)
(14.789 5.37607 0)
(14.8236 5.42236 5.84843e-19)
(14.8519 5.49469 7.27612e-23)
(14.8574 5.5955 -2.61757e-18)
(14.8346 5.71733 3.40958e-18)
(14.779 5.83794 -4.0577e-18)
(14.7142 5.92853 4.71813e-22)
(14.6804 5.96795 1.62086e-19)
(14.7243 5.96628 -2.98648e-19)
(14.8717 5.96343 1.05802e-18)
(15.1256 6.01524 1.15354e-18)
(15.4585 6.17149 -1.09071e-18)
(15.815 6.44531 1.44637e-20)
(16.1519 6.81145 -1.22345e-18)
(16.4458 7.22277 0)
(16.6988 7.63364 0)
(16.9281 8.01845 4.05759e-19)
(17.1614 8.37043 0)
(17.4088 8.68623 0)
(17.6118 8.94685 7.70649e-20)
(17.6821 9.08841 2.47186e-19)
(14.7184 5.32469 0)
(14.7509 5.34798 3.50665e-19)
(14.79 5.37496 -1.35862e-23)
(14.8254 5.42091 3.45189e-20)
(14.8547 5.49336 6.97044e-23)
(14.8614 5.59522 1.83258e-18)
(14.8394 5.71935 -1.74094e-18)
(14.7837 5.84317 2.74336e-18)
(14.7171 5.9361 8.35728e-19)
(14.6807 5.97418 0)
(14.7233 5.96496 2.97925e-19)
(14.8743 5.94721 2.2927e-21)
(15.1407 5.97795 1.0081e-21)
(15.4994 6.11158 1.0857e-18)
(15.8926 6.36552 0)
(16.2722 6.71561 6.83107e-19)
(16.6075 7.11184 -1.36443e-20)
(16.8964 7.50426 0)
(17.1611 7.85756 -4.03054e-19)
(17.4305 8.14537 0)
(17.6773 8.35223 0)
(17.7727 8.45118 0)
(17.5747 8.37349 1.91194e-20)
(14.7186 5.32412 0)
(14.7515 5.34725 -1.93416e-19)
(14.791 5.37386 2.89935e-24)
(14.8272 5.41945 -6.21614e-19)
(14.8575 5.49197 -8.51732e-19)
(14.8654 5.59485 -1.90761e-18)
(14.8442 5.72127 0)
(14.7884 5.84835 1.46324e-18)
(14.72 5.94373 -1.7003e-18)
(14.6806 5.98054 -6.53179e-23)
(14.7213 5.96355 3.08306e-19)
(14.875 5.9301 -5.70772e-19)
(15.1529 5.93794 0)
(15.537 6.04601 0)
(15.9668 6.27627 9.54379e-19)
(16.3894 6.60731 -6.69042e-19)
(16.7656 6.99146 0)
(17.0846 7.37077 -6.8393e-19)
(17.3608 7.68012 -4.70322e-19)
(17.6142 7.88297 0)
(17.7769 7.98016 6.45391e-21)
(17.623 7.91017 5.58702e-22)
(16.9564 7.58188 -1.66281e-19)
(14.7188 5.32359 -1.53093e-24)
(14.7521 5.34654 3.98237e-19)
(14.792 5.37277 6.0673e-24)
(14.8289 5.41797 0)
(14.8603 5.49053 -3.72514e-20)
(14.8693 5.59439 1.97949e-18)
(14.8492 5.72308 4.02561e-22)
(14.7933 5.85349 -1.46466e-18)
(14.723 5.95144 8.64159e-19)
(14.6803 5.98706 -2.11331e-19)
(14.7185 5.96214 4.2746e-21)
(14.8737 5.91223 1.15717e-18)
(15.1619 5.89525 -1.31884e-18)
(15.5705 5.97454 4.07718e-21)
(16.0371 6.17732 -1.9594e-18)
(16.5042 6.4888 7.64328e-19)
(16.9219 6.86472 -3.20718e-20)
(17.2581 7.22305 7.04115e-19)
(17.5159 7.47603 4.64677e-19)
(17.72 7.62482 0)
(17.7178 7.64855 2.10261e-19)
(17.1242 7.38181 0)
(15.7986 6.77452 -8.54915e-20)
(14.719 5.32311 0)
(14.7527 5.34585 -2.04826e-19)
(14.7929 5.37169 -2.73359e-19)
(14.8305 5.41647 -3.43995e-23)
(14.863 5.48904 1.81914e-18)
(14.8733 5.59383 -1.0082e-18)
(14.8542 5.72478 0)
(14.7983 5.85856 0)
(14.726 5.95923 2.79274e-22)
(14.6797 5.99378 2.11224e-19)
(14.7146 5.9608 3.17194e-21)
(14.8704 5.89372 -5.85103e-19)
(15.1672 5.84993 1.31509e-18)
(15.5994 5.89706 0)
(16.103 6.06924 9.96997e-19)
(16.6169 6.36071 -7.38983e-19)
(17.073 6.72249 5.13457e-19)
(17.4125 7.04799 4.40765e-20)
(17.6514 7.28304 0)
(17.7917 7.4535 0)
(17.4719 7.3785 -1.00033e-19)
(16.2066 6.82468 -2.74746e-19)
(14.15 5.93484 1.83069e-19)
(14.7191 5.32267 0)
(14.7532 5.34519 1.04953e-23)
(14.7938 5.37063 2.73823e-19)
(14.8321 5.41497 -3.86575e-19)
(14.8657 5.48749 -9.28539e-19)
(14.8773 5.59318 -2.13463e-22)
(14.8592 5.72637 -1.01455e-18)
(14.8033 5.86358 -7.87801e-19)
(14.729 5.9671 9.35465e-19)
(14.6787 6.00073 0)
(14.7097 5.95962 1.66368e-21)
(14.8648 5.87468 -6.0847e-19)
(15.1685 5.80207 0)
(15.623 5.81377 -2.38314e-20)
(16.1642 5.95236 1.12024e-18)
(16.7252 6.21839 0)
(17.2153 6.55262 -4.65842e-20)
(17.5675 6.86467 -8.23636e-21)
(17.8188 7.17076 6.31222e-19)
(17.8104 7.37001 0)
(16.9041 7.05528 0)
(14.7945 6.14026 1.45235e-19)
(12.1371 5.0486 -4.68835e-19)
(14.7192 5.32227 3.74727e-24)
(14.7538 5.34455 -4.93181e-24)
(14.7946 5.36957 0)
(14.8337 5.41344 -4.2109e-19)
(14.8683 5.48588 5.26863e-22)
(14.8812 5.59242 -4.39848e-22)
(14.8643 5.72784 1.01516e-18)
(14.8085 5.86855 7.89355e-19)
(14.732 5.97507 -9.36451e-19)
(14.6775 6.00795 2.48757e-19)
(14.7037 5.95867 -3.19448e-19)
(14.8568 5.85525 6.16448e-19)
(15.1654 5.75186 6.98138e-19)
(15.6408 5.72502 6.58644e-19)
(16.2192 5.82546 -1.09747e-18)
(16.8256 6.05418 4.82932e-20)
(17.3554 6.35644 -6.48388e-19)
(17.7614 6.71595 -3.05871e-19)
(18.0229 7.1466 -2.45871e-19)
(17.6473 7.24768 1.65346e-19)
(15.8883 6.55268 -2.15577e-19)
(12.9873 5.33908 0)
(10.0425 4.20862 1.9097e-19)
(14.7193 5.32192 0)
(14.7543 5.34393 -2.53862e-19)
(14.7955 5.36853 -3.25331e-19)
(14.8352 5.41191 3.88951e-19)
(14.8709 5.48422 -5.13322e-19)
(14.8852 5.59157 0)
(14.8694 5.72919 -1.12856e-21)
(14.8137 5.87345 1.48821e-21)
(14.7351 5.98315 -4.91265e-19)
(14.6759 6.01547 -3.80778e-19)
(14.6965 5.95804 -3.1478e-19)
(14.8463 5.8356 -3.48643e-21)
(15.1575 5.69962 1.28893e-20)
(15.6518 5.63096 -6.8456e-19)
(16.2655 5.68579 0)
(16.9168 5.86369 8.93189e-19)
(17.5105 6.15044 -6.24517e-19)
(18.0144 6.62096 3.94142e-19)
(18.1895 7.12341 1.32514e-19)
(17.1726 6.95857 4.91481e-22)
(14.4695 5.89136 -2.25213e-19)
(11.0463 4.58194 1.48843e-19)
(8.08572 3.55189 1.93067e-19)
(14.7194 5.3216 -5.53243e-20)
(14.7548 5.34333 -1.1364e-20)
(14.7962 5.3675 3.2586e-19)
(14.8367 5.41036 4.20714e-19)
(14.8734 5.48252 1.04217e-18)
(14.8891 5.59062 1.15193e-18)
(14.8746 5.73043 1.15161e-21)
(14.8191 5.8783 -1.51847e-21)
(14.7383 5.99135 4.91738e-19)
(14.674 6.02335 1.32224e-19)
(14.6883 5.95781 6.31956e-19)
(14.8331 5.81593 -6.35606e-19)
(15.1445 5.64571 -7.23261e-19)
(15.6549 5.53133 7.27586e-19)
(16.3007 5.53058 -4.25576e-20)
(17.0015 5.64909 -7.77749e-19)
(17.6963 5.95054 6.26126e-19)
(18.3051 6.54646 -6.25647e-19)
(18.2179 6.98986 -1.28868e-19)
(16.3652 6.48007 0)
(12.8471 5.20114 2.35383e-19)
(9.25356 4.02088 -3.26138e-19)
(6.51941 3.23088 4.08727e-19)
(14.7195 5.32133 5.53995e-20)
(14.7552 5.34276 4.04457e-19)
(14.797 5.36649 3.55537e-19)
(14.8381 5.4088 -4.50488e-19)
(14.876 5.48076 -5.28689e-19)
(14.8931 5.58957 -1.15295e-18)
(14.8798 5.73155 -1.10449e-18)
(14.8245 5.88309 0)
(14.7415 5.99967 -5.17164e-19)
(14.6718 6.0316 1.5102e-19)
(14.6788 5.95809 -3.14504e-19)
(14.8173 5.79648 6.36999e-19)
(15.1261 5.5905 0)
(15.6487 5.42562 -6.738e-19)
(16.323 5.35874 5.75529e-19)
(17.0846 5.41668 -4.90136e-19)
(17.9148 5.75631 1.71556e-19)
(18.5809 6.42645 2.10245e-19)
(18.0468 6.68353 -5.52089e-19)
(15.3178 5.87175 3.79195e-19)
(11.2714 4.59346 0)
(7.82988 3.67803 -6.616e-19)
(5.46349 3.17561 9.73218e-19)
(14.7195 5.3211 0)
(14.7556 5.34221 -1.38637e-19)
(14.7977 5.36549 -3.55896e-19)
(14.8395 5.40723 4.51196e-19)
(14.8784 5.47895 1.51797e-22)
(14.897 5.58843 -4.85333e-22)
(14.8851 5.73255 5.41758e-19)
(14.8301 5.88782 0)
(14.7448 6.00814 5.17613e-19)
(14.6693 6.04029 1.10172e-20)
(14.6682 5.95898 0)
(14.7987 5.77755 -3.23456e-19)
(15.1016 5.53432 0)
(15.6316 5.31339 5.80052e-20)
(16.3315 5.17123 -1.29927e-18)
(17.1688 5.17179 3.74276e-19)
(18.1508 5.54848 1.79488e-19)
(18.7864 6.20183 -6.83972e-19)
(17.6743 6.20455 2.91309e-19)
(14.1709 5.20764 4.12428e-19)
(9.9224 4.09113 -7.61113e-19)
(6.79371 3.4518 5.61935e-19)
(4.7701 3.15625 -1.97958e-18)
(14.7196 5.32091 6.33872e-20)
(14.7561 5.34169 -1.49538e-19)
(14.7984 5.3645 1.91715e-19)
(14.8409 5.40566 2.62581e-22)
(14.8809 5.4771 -6.01224e-22)
(14.9009 5.58719 1.23509e-21)
(14.8904 5.73343 5.63569e-19)
(14.8358 5.89249 -3.2608e-21)
(14.7481 6.01675 2.17685e-21)
(14.6665 6.04943 1.21431e-20)
(14.6564 5.96059 -1.45356e-19)
(14.7771 5.7594 3.09381e-19)
(15.0706 5.47743 1.92229e-20)
(15.6023 5.19465 -6.01536e-20)
(16.3261 4.97068 7.50441e-19)
(17.2527 4.91601 0)
(18.3775 5.29947 3.74754e-19)
(18.8832 5.84255 4.68865e-19)
(17.1417 5.58912 -3.29975e-19)
(13.0495 4.53903 9.81187e-19)
(8.84515 3.65604 -5.44005e-19)
(6.04563 3.24293 1.17093e-19)
(4.26691 3.05643 1.16877e-18)
(14.7197 5.32076 -1.28975e-19)
(14.7565 5.34119 1.49743e-19)
(14.7991 5.36353 6.86693e-21)
(14.8422 5.40408 0)
(14.8833 5.4752 0)
(14.9048 5.58586 6.27793e-19)
(14.8958 5.73419 5.85815e-19)
(14.8416 5.89709 0)
(14.7515 6.02551 1.53697e-21)
(14.6635 6.05908 -1.76744e-19)
(14.6434 5.96305 1.51016e-19)
(14.7526 5.74233 -7.08162e-21)
(15.0327 5.42008 -3.26648e-20)
(15.5597 5.07011 1.03948e-19)
(16.3063 4.76075 -7.78918e-20)
(17.3294 4.6476 0)
(18.5654 4.98546 -5.69619e-19)
(18.8552 5.34496 1.31692e-20)
(16.5095 4.87687 -1.16746e-18)
(12.039 3.88298 5.92668e-19)
(8.02586 3.25435 8.15586e-19)
(5.48979 3.01621 -1.33127e-18)
(3.85079 2.89493 0)
(14.7197 5.32066 1.33472e-19)
(14.7569 5.34071 -1.3507e-23)
(14.7998 5.36258 -1.99131e-19)
(14.8435 5.4025 0)
(14.8857 5.47326 0)
(14.9087 5.58443 1.2187e-20)
(14.9012 5.73482 -1.18299e-18)
(14.8475 5.90163 0)
(14.7551 6.03444 -2.89516e-19)
(14.6602 6.06928 0)
(14.6293 5.96649 0)
(14.725 5.72658 -1.50385e-20)
(14.9873 5.36262 1.94916e-20)
(15.503 4.9413 3.4569e-19)
(16.271 4.54535 8.04898e-20)
(17.3879 4.36134 -1.60454e-19)
(18.6876 4.58991 5.92714e-19)
(18.7049 4.71926 0)
(15.8394 4.09368 4.29339e-19)
(11.1867 3.2308 0)
(7.43288 2.85134 2.6194e-19)
(5.0647 2.76369 3.16476e-19)
(3.46447 2.69068 0)
(14.7198 5.32059 -1.03264e-19)
(14.7572 5.34026 8.36011e-20)
(14.8004 5.36165 0)
(14.8448 5.40091 -2.63092e-19)
(14.888 5.47128 3.08199e-19)
(14.9126 5.58291 -6.41853e-19)
(14.9067 5.73534 5.98168e-19)
(14.8535 5.90611 4.7693e-19)
(14.7587 6.04353 2.87356e-19)
(14.6568 6.08006 -1.70162e-22)
(14.6139 5.97103 2.24418e-22)
(14.6943 5.71239 3.25738e-19)
(14.9341 5.30559 3.35974e-20)
(15.432 4.81051 -5.22282e-19)
(16.2184 4.32796 8.30597e-20)
(17.4143 4.05167 0)
(18.7218 4.10586 0)
(18.4416 3.97781 0)
(15.1708 3.24804 0)
(10.4994 2.56103 -2.18999e-19)
(7.00518 2.41037 -1.29374e-18)
(4.7164 2.45052 1.35264e-18)
(3.08558 2.4169 0)
(14.7198 5.32056 3.53519e-20)
(14.7576 5.33983 -1.70385e-19)
(14.801 5.36074 0)
(14.846 5.39932 2.63529e-19)
(14.8903 5.46926 -6.25058e-19)
(14.9164 5.5813 0)
(14.9122 5.73572 0)
(14.8596 5.91052 -4.75419e-19)
(14.7625 6.05279 0)
(14.6531 6.09147 1.16934e-19)
(14.5975 5.97679 -5.72034e-20)
(14.6605 5.69996 -1.64566e-19)
(14.8731 5.24973 3.87606e-19)
(15.3463 4.68043 0)
(16.145 4.111 0)
(17.3935 3.71444 1.82113e-19)
(18.6516 3.53557 -2.22029e-19)
(18.0745 3.13728 0)
(14.5248 2.34618 -3.17342e-19)
(9.96061 1.85487 2.33052e-19)
(6.69513 1.89946 1.41838e-18)
(4.43645 2.02302 -1.82862e-18)
(2.75698 2.02571 0)
(14.7199 5.32057 -1.14716e-23)
(14.7579 5.33943 1.76639e-19)
(14.8015 5.35984 8.25587e-23)
(14.8471 5.39773 1.39564e-19)
(14.8926 5.4672 3.16864e-19)
(14.9203 5.5796 -3.40589e-19)
(14.9177 5.73598 -1.07522e-21)
(14.8659 5.91485 2.49981e-19)
(14.7664 6.06224 -3.20333e-19)
(14.6493 6.10355 -1.14524e-19)
(14.58 5.98387 5.7227e-20)
(14.6234 5.68954 -1.62692e-19)
(14.8043 5.19603 -3.89758e-19)
(15.2458 4.55396 -7.03894e-20)
(16.0471 3.89661 8.79644e-20)
(17.3118 3.34927 1.94068e-19)
(18.4645 2.89147 -2.39085e-19)
(17.6143 2.22652 0)
(13.9363 1.40285 3.34695e-19)
(9.58457 1.0886 0)
(6.50838 1.2687 -2.0099e-19)
(4.2682 1.41659 0)
(2.55089 1.45577 -8.50542e-20)
(14.7199 5.32062 -2.02603e-20)
(14.7582 5.33906 -8.98849e-20)
(14.8021 5.35897 -1.18648e-19)
(14.8483 5.39614 3.64457e-21)
(14.8948 5.46511 5.24746e-22)
(14.9241 5.57781 -7.56025e-21)
(14.9233 5.73612 3.23009e-19)
(14.8723 5.91912 7.10612e-21)
(14.7705 6.07187 3.16153e-19)
(14.6454 6.11634 2.02045e-22)
(14.5615 5.99238 4.56805e-20)
(14.5833 5.68133 0)
(14.728 5.14565 -3.41946e-20)
(15.1306 4.43387 4.39602e-20)
(15.9198 3.68678 2.16793e-19)
(17.1578 2.96071 0)
(18.1602 2.19668 0)
(17.0814 1.27583 -2.37283e-19)
(13.4176 0.407281 0)
(9.34011 0.188186 1.32056e-18)
(6.40293 0.410537 -1.70644e-18)
(4.16567 0.540211 1.60893e-19)
(2.42727 0.621754 2.99503e-18)
(14.72 5.32071 4.14936e-20)
(14.7585 5.33871 4.80526e-20)
(14.8026 5.35811 1.80008e-19)
(14.8494 5.39456 -1.44557e-19)
(14.897 5.46297 -1.69534e-19)
(14.9279 5.57593 5.2628e-19)
(14.9289 5.73612 -3.23471e-19)
(14.8788 5.9233 -2.51629e-19)
(14.7748 6.08169 -4.64541e-21)
(14.6415 6.12988 2.6999e-21)
(14.542 6.00238 -4.6027e-20)
(14.5401 5.6756 -7.86539e-20)
(14.6446 5.09988 1.56234e-19)
(15.0005 4.32287 2.57751e-19)
(15.7596 3.48414 -2.18948e-19)
(16.9245 2.55801 0)
(17.7391 1.47612 0)
(16.4763 0.296327 -5.44515e-19)
(12.8615 -0.683223 8.26714e-19)
(9.03314 -0.932384 0)