/*--------------------------------*- C++ -*----------------------------------*\
  =========                 |
  \\      /  F ield         | OpenFOAM: The Open Source CFD Toolbox
   \\    /   O peration     | Website:  https://openfoam.org
    \\  /    A nd           | Version:  7
     \\/     M anipulation  |
\*---------------------------------------------------------------------------*/
FoamFile
{
    version     2.0;
    format      ascii;
    class       volSymmTensorField;
    location    "800";
    object      devReff;
}
// * * * * * * * * * * * * * * * * * * * * * * * * * * * * * * * * * * * * * //

dimensions      [0 2 -2 0 0 0 0];

internalField   nonuniform List<symmTensor> 
180
(
(-2.83026e-20 -0.0415349 -0 5.66053e-20 -0 -2.83026e-20)
(1.21532e-21 -0.0220152 -0 -2.43065e-21 -0 1.21532e-21)
(-1.30194e-20 -0.0172931 -0 2.60388e-20 -0 -1.30194e-20)
(1.08834e-20 -0.00835194 -0 -2.17667e-20 -0 1.08834e-20)
(2.9625e-20 -0.0161328 -0 -5.925e-20 -0 2.9625e-20)
(-4.14872e-21 -0.0108365 -0 8.29744e-21 -0 -4.14872e-21)
(5.54353e-20 -0.0153877 -0 -1.10871e-19 -0 5.54353e-20)
(-3.50444e-20 -0.0127533 -0 7.00888e-20 -0 -3.50444e-20)
(3.44348e-20 -0.0147614 -0 -6.88696e-20 -0 3.44348e-20)
(-4.96497e-20 -0.0136924 -0 9.92994e-20 -0 -4.96497e-20)
(7.55787e-21 -0.0141678 -0 -1.51157e-20 -0 7.55787e-21)
(-2.20628e-20 -0.0139664 -0 4.41255e-20 -0 -2.20628e-20)
(3.74855e-20 -0.0135827 -0 -7.4971e-20 -0 3.74855e-20)
(5.0728e-21 -0.0138206 -0 -1.01456e-20 -0 5.0728e-21)
(3.57275e-20 -0.0130086 -0 -7.14551e-20 -0 3.57275e-20)
(4.05566e-20 -0.0134327 -0 -8.11133e-20 -0 4.05566e-20)
(-2.9919e-21 -0.0124498 -0 5.9838e-21 -0 -2.9919e-21)
(6.0674e-20 -0.01292 -0 -1.21348e-19 -0 6.0674e-20)
(-1.26254e-20 -0.0119073 -0 2.52509e-20 -0 -1.26254e-20)
(5.6064e-20 -0.0123526 -0 -1.12128e-19 -0 5.6064e-20)
(-3.76331e-20 -0.0113793 -0 7.52662e-20 -0 -3.76331e-20)
(-4.98361e-20 -0.011768 -0 9.96722e-20 -0 -4.98361e-20)
(2.9033e-20 -0.0108624 -0 -5.8066e-20 -0 2.9033e-20)
(-1.63473e-19 -0.0111842 -0 3.26945e-19 -0 -1.63473e-19)
(1.58077e-19 -0.0103528 -0 -3.16153e-19 -0 1.58077e-19)
(-2.28523e-20 -0.0106083 -0 4.57046e-20 -0 -2.28523e-20)
(-1.0273e-20 -0.00984696 -0 2.0546e-20 -0 -1.0273e-20)
(3.77886e-20 -0.0100422 -0 -7.55772e-20 -0 3.77886e-20)
(-9.23676e-20 -0.00934205 -0 1.84735e-19 -0 -9.23676e-20)
(-2.55056e-20 -0.00948508 -0 5.10112e-20 -0 -2.55056e-20)
(1.13097e-19 -0.00883601 -0 -2.26195e-19 -0 1.13097e-19)
(8.72067e-20 -0.00893548 -0 -1.74413e-19 -0 8.72067e-20)
(5.05606e-20 -0.00832755 -0 -1.01121e-19 -0 5.05606e-20)
(1.15676e-19 -0.00839175 -0 -2.31353e-19 -0 1.15676e-19)
(-7.19565e-20 -0.00781605 -0 1.43913e-19 -0 -7.19565e-20)
(4.16134e-20 -0.00785249 -0 -8.32268e-20 -0 4.16134e-20)
(-3.38626e-20 -0.00730144 -0 6.77252e-20 -0 -3.38626e-20)
(1.86059e-20 -0.00731664 -0 -3.72119e-20 -0 1.86059e-20)
(-1.11331e-20 -0.00678409 -0 2.22662e-20 -0 -1.11331e-20)
(3.01431e-21 -0.00678345 -0 -6.02862e-21 -0 3.01431e-21)
(6.71187e-22 -0.00626466 -0 -1.34237e-21 -0 6.71187e-22)
(-5.84023e-21 -0.00625252 -0 1.16805e-20 -0 -5.84023e-21)
(5.82696e-21 -0.00574397 -0 -1.16539e-20 -0 5.82696e-21)
(-1.02737e-20 -0.00572368 -0 2.05474e-20 -0 -1.02737e-20)
(6.23988e-21 -0.00522295 -0 -1.24798e-20 -0 6.23988e-21)
(-1.18281e-20 -0.00519699 -0 2.36563e-20 -0 -1.18281e-20)
(3.62017e-21 -0.00470253 -0 -7.24035e-21 -0 3.62017e-21)
(-1.18581e-20 -0.00467265 -0 2.37163e-20 -0 -1.18581e-20)
(1.59227e-22 -0.00418361 -0 -3.18455e-22 -0 1.59227e-22)
(-1.13538e-20 -0.00415099 -0 2.27076e-20 -0 -1.13538e-20)
(-3.02822e-21 -0.00366702 -0 6.05644e-21 -0 -3.02822e-21)
(-1.0319e-20 -0.00363241 -0 2.0638e-20 -0 -1.0319e-20)
(-5.85966e-21 -0.00315356 -0 1.17193e-20 -0 -5.85966e-21)
(-9.03165e-21 -0.0031174 -0 1.80633e-20 -0 -9.03165e-21)
(-7.79537e-21 -0.00264393 -0 1.55907e-20 -0 -7.79537e-21)
(-8.29787e-21 -0.00260644 -0 1.65957e-20 -0 -8.29787e-21)
(-8.73084e-21 -0.0021388 -0 1.74617e-20 -0 -8.73084e-21)
(-7.89944e-21 -0.00210007 -0 1.57989e-20 -0 -7.89944e-21)
(-8.82393e-21 -0.0016388 -0 1.76479e-20 -0 -8.82393e-21)
(-7.48595e-21 -0.00159884 -0 1.49719e-20 -0 -7.48595e-21)
(-8.32859e-21 -0.00114452 -0 1.66572e-20 -0 -8.32859e-21)
(-7.31208e-21 -0.0011033 -0 1.46242e-20 -0 -7.31208e-21)
(-7.25675e-21 -0.000656532 -0 1.45135e-20 -0 -7.25675e-21)
(-7.28352e-21 -0.000614016 -0 1.4567e-20 -0 -7.28352e-21)
(-5.85037e-21 -0.000175412 -0 1.17007e-20 -0 -5.85037e-21)
(-7.3452e-21 -0.000131546 -0 1.46904e-20 -0 -7.3452e-21)
(-4.16453e-21 0.000298285 -0 8.32906e-21 -0 -4.16453e-21)
(-7.4438e-21 0.000343541 -0 1.48876e-20 -0 -7.4438e-21)
(-2.30518e-21 0.000764002 -0 4.61036e-21 -0 -2.30518e-21)
(-7.55072e-21 0.00081068 -0 1.51014e-20 -0 -7.55072e-21)
(-4.65188e-22 0.00122119 -0 9.30377e-22 -0 -4.65188e-22)
(-7.52756e-21 0.00126931 -0 1.50551e-20 -0 -7.52756e-21)
(1.09805e-21 0.00166929 -0 -2.1961e-21 -0 1.09805e-21)
(-7.49304e-21 0.00171887 -0 1.49861e-20 -0 -7.49304e-21)
(2.54727e-21 0.00210776 -0 -5.09454e-21 -0 2.54727e-21)
(-7.48053e-21 0.0021588 -0 1.49611e-20 -0 -7.48053e-21)
(4.2321e-21 0.00253607 -0 -8.4642e-21 -0 4.2321e-21)
(-7.33623e-21 0.00258858 -0 1.46725e-20 -0 -7.33623e-21)
(5.57353e-21 0.0029537 -0 -1.11471e-20 -0 5.57353e-21)
(-7.04096e-21 0.00300767 -0 1.40819e-20 -0 -7.04096e-21)
(6.07683e-21 0.00336012 -0 -1.21537e-20 -0 6.07683e-21)
(-6.55703e-21 0.00341556 -0 1.31141e-20 -0 -6.55703e-21)
(6.43742e-21 0.00375486 -0 -1.28748e-20 -0 6.43742e-21)
(-5.84484e-21 0.00381175 -0 1.16897e-20 -0 -5.84484e-21)
(6.89956e-21 0.00413744 -0 -1.37991e-20 -0 6.89956e-21)
(-4.89326e-21 0.00419577 -0 9.78652e-21 -0 -4.89326e-21)
(6.87196e-21 0.0045074 -0 -1.37439e-20 -0 6.87196e-21)
(-4.25702e-21 0.00456715 -0 8.51404e-21 -0 -4.25702e-21)
(6.95963e-21 0.00486431 -0 -1.39193e-20 -0 6.95963e-21)
(-3.41843e-21 0.00492547 -0 6.83686e-21 -0 -3.41843e-21)
(6.71274e-21 0.00520777 -0 -1.34255e-20 -0 6.71274e-21)
(-1.85745e-21 0.00527032 -0 3.71491e-21 -0 -1.85745e-21)
(5.5975e-21 0.0055374 -0 -1.1195e-20 -0 5.5975e-21)
(-6.08237e-22 0.0056013 -0 1.21647e-21 -0 -6.08237e-22)
(4.63685e-21 0.00585283 -0 -9.2737e-21 -0 4.63685e-21)
(8.47662e-22 0.00591807 -0 -1.69532e-21 -0 8.47662e-22)
(3.43785e-21 0.00615374 -0 -6.8757e-21 -0 3.43785e-21)
(2.40278e-21 0.00622028 -0 -4.80555e-21 -0 2.40278e-21)
(2.01807e-21 0.00643982 -0 -4.03615e-21 -0 2.01807e-21)
(3.97949e-21 0.00650764 -0 -7.95899e-21 -0 3.97949e-21)
(4.53763e-22 0.00671079 -0 -9.07525e-22 -0 4.53763e-22)
(5.62838e-21 0.00677985 -0 -1.12568e-20 -0 5.62838e-21)
(-1.85086e-21 0.00696642 -0 3.70173e-21 -0 -1.85086e-21)
(7.433e-21 0.00703668 -0 -1.4866e-20 -0 7.433e-21)
(-3.38056e-21 0.00720646 -0 6.76112e-21 -0 -3.38056e-21)
(8.9168e-21 0.00727789 -0 -1.78336e-20 -0 8.9168e-21)
(-4.95866e-21 0.00743074 -0 9.91733e-21 -0 -4.95866e-21)
(1.03735e-20 0.00750329 -0 -2.0747e-20 -0 1.03735e-20)
(-7.68082e-21 0.00763907 -0 1.53616e-20 -0 -7.68082e-21)
(1.27104e-20 0.0077127 -0 -2.54208e-20 -0 1.27104e-20)
(-9.46253e-21 0.00783133 -0 1.89251e-20 -0 -9.46253e-21)
(1.49795e-20 0.00790599 -0 -2.99591e-20 -0 1.49795e-20)
(-1.11825e-20 0.00800739 -0 2.23651e-20 -0 -1.11825e-20)
(1.6247e-20 0.00808305 -0 -3.24941e-20 -0 1.6247e-20)
(-1.39217e-20 0.00816718 -0 2.78435e-20 -0 -1.39217e-20)
(1.73477e-20 0.00824378 -0 -3.46953e-20 -0 1.73477e-20)
(-1.56577e-20 0.00831063 -0 3.13155e-20 -0 -1.56577e-20)
(1.93707e-20 0.00838813 -0 -3.87415e-20 -0 1.93707e-20)
(-1.7269e-20 0.00843771 -0 3.45379e-20 -0 -1.7269e-20)
(2.13999e-20 0.00851607 -0 -4.27998e-20 -0 2.13999e-20)
(-1.96806e-20 0.00854842 -0 3.93611e-20 -0 -1.96806e-20)
(2.2328e-20 0.00862759 -0 -4.46559e-20 -0 2.2328e-20)
(-2.19547e-20 0.00864278 -0 4.39094e-20 -0 -2.19547e-20)
(2.30668e-20 0.00872272 -0 -4.61336e-20 -0 2.30668e-20)
(-2.31659e-20 0.00872085 -0 4.63318e-20 -0 -2.31659e-20)
(2.45231e-20 0.0088015 -0 -4.90462e-20 -0 2.45231e-20)
(-2.41644e-20 0.00878269 -0 4.83288e-20 -0 -2.41644e-20)
(2.57479e-20 0.00886402 -0 -5.14958e-20 -0 2.57479e-20)
(-2.60309e-20 0.00882841 -0 5.20617e-20 -0 -2.60309e-20)
(2.69336e-20 0.00891038 -0 -5.38672e-20 -0 2.69336e-20)
(-2.78547e-20 0.00885815 -0 5.57093e-20 -0 -2.78547e-20)
(2.80739e-20 0.0089407 -0 -5.61479e-20 -0 2.80739e-20)
(-2.96445e-20 0.00887205 -0 5.9289e-20 -0 -2.96445e-20)
(2.91877e-20 0.00895515 -0 -5.83754e-20 -0 2.91877e-20)
(-3.03244e-20 0.00887029 -0 6.06488e-20 -0 -3.03244e-20)
(3.03014e-20 0.0089539 -0 -6.06028e-20 -0 3.03014e-20)
(-3.08098e-20 0.0088531 -0 6.16196e-20 -0 -3.08098e-20)
(3.0364e-20 0.00893718 -0 -6.0728e-20 -0 3.0364e-20)
(-3.20124e-20 0.00882069 -0 6.40248e-20 -0 -3.20124e-20)
(3.03331e-20 0.0089052 -0 -6.06662e-20 -0 3.03331e-20)
(-3.29838e-20 0.00877334 -0 6.59675e-20 -0 -3.29838e-20)
(3.1192e-20 0.00885824 -0 -6.23839e-20 -0 3.1192e-20)
(-3.38978e-20 0.00871132 -0 6.77956e-20 -0 -3.38978e-20)
(3.18485e-20 0.00879658 -0 -6.36971e-20 -0 3.18485e-20)
(-3.47594e-20 0.00863494 -0 6.95187e-20 -0 -3.47594e-20)
(3.23188e-20 0.00872053 -0 -6.46375e-20 -0 3.23188e-20)
(-3.55543e-20 0.00854452 -0 7.11086e-20 -0 -3.55543e-20)
(3.25626e-20 0.0086304 -0 -6.51251e-20 -0 3.25626e-20)
(-3.63057e-20 0.00844039 -0 7.26113e-20 -0 -3.63057e-20)
(3.27201e-20 0.00852654 -0 -6.54401e-20 -0 3.27201e-20)
(-3.7017e-20 0.00832288 -0 7.4034e-20 -0 -3.7017e-20)
(3.29201e-20 0.00840928 -0 -6.58401e-20 -0 3.29201e-20)
(-3.77486e-20 0.00819232 -0 7.54971e-20 -0 -3.77486e-20)
(3.31004e-20 0.00827893 -0 -6.62007e-20 -0 3.31004e-20)
(-3.74346e-20 0.00804897 -0 7.48691e-20 -0 -3.74346e-20)
(3.3238e-20 0.00813578 -0 -6.6476e-20 -0 3.3238e-20)
(-3.70447e-20 0.00789309 -0 7.40894e-20 -0 -3.70447e-20)
(3.33169e-20 0.00798006 -0 -6.66337e-20 -0 3.33169e-20)
(-3.75467e-20 0.00772484 -0 7.50934e-20 -0 -3.75467e-20)
(3.3332e-20 0.00781197 -0 -6.66639e-20 -0 3.3332e-20)
(-3.78735e-20 0.00754435 -0 7.5747e-20 -0 -3.78735e-20)
(3.32979e-20 0.00763161 -0 -6.65957e-20 -0 3.32979e-20)
(-3.80886e-20 0.0073517 -0 7.61772e-20 -0 -3.80886e-20)
(3.32251e-20 0.0074391 -0 -6.64502e-20 -0 3.32251e-20)
(-3.82088e-20 0.00714709 -0 7.64176e-20 -0 -3.82088e-20)
(3.31286e-20 0.00723461 -0 -6.62571e-20 -0 3.31286e-20)
(-3.82857e-20 0.006931 -0 7.65714e-20 -0 -3.82857e-20)
(3.30707e-20 0.00701863 -0 -6.61413e-20 -0 3.30707e-20)
(-3.83551e-20 0.0067046 -0 7.67102e-20 -0 -3.83551e-20)
(3.31086e-20 0.00679239 -0 -6.62172e-20 -0 3.31086e-20)
(-3.84933e-20 0.00647047 -0 7.69865e-20 -0 -3.84933e-20)
(3.31745e-20 0.00655845 -0 -6.6349e-20 -0 3.31745e-20)
(-3.87217e-20 0.00623361 -0 7.74433e-20 -0 -3.87217e-20)
(3.32233e-20 0.00632188 -0 -6.64465e-20 -0 3.32233e-20)
(-3.88782e-20 0.00599062 -0 7.77564e-20 -0 -3.88782e-20)
(3.32336e-20 0.00607932 -0 -6.64672e-20 -0 3.32336e-20)
(-3.68261e-20 0.00574838 -0 7.36522e-20 -0 -3.68261e-20)
(3.16918e-20 0.00583775 -0 -6.33836e-20 -0 3.16918e-20)
(-3.31718e-20 0.0028011 -0 6.63436e-20 -0 -3.31718e-20)
(2.84554e-20 0.00284599 -0 -5.69107e-20 -0 2.84554e-20)
)
;

boundaryField
{
    inlet
    {
        type            cyclic;
    }
    outlet
    {
        type            cyclic;
    }
    bottom
    {
        type            symmetry;
    }
    top
    {
        type            calculated;
        value           nonuniform List<symmTensor> 2((-8.10188e-21 -0.0164007 -0 1.62038e-20 -0 -8.10188e-21) (-3.48982e-21 -0.0174966 -0 6.97964e-21 -0 -3.48982e-21));
    }
    frontAndBack
    {
        type            empty;
    }
}


// ************************************************************************* //
