/*--------------------------------*- C++ -*----------------------------------*\
  =========                 |
  \\      /  F ield         | OpenFOAM: The Open Source CFD Toolbox
   \\    /   O peration     | Website:  https://openfoam.org
    \\  /    A nd           | Version:  7
     \\/     M anipulation  |
\*---------------------------------------------------------------------------*/
FoamFile
{
    version     2.0;
    format      ascii;
    class       volScalarField;
    location    "800";
    object      k;
}
// * * * * * * * * * * * * * * * * * * * * * * * * * * * * * * * * * * * * * //

dimensions      [0 2 -2 0 0 0 0];

internalField   nonuniform List<scalar> 
180
(
0.102769
0.0389362
0.0571285
0.0397837
0.0512304
0.0445129
0.0499236
0.0478177
0.0499305
0.049845
0.0506868
0.0513921
0.0519743
0.0528938
0.0536427
0.0545228
0.0555741
0.0563194
0.0576788
0.0582681
0.0598909
0.0603362
0.0621643
0.0624893
0.0644671
0.0646982
0.066778
0.0669394
0.0690833
0.0691953
0.0713744
0.0714529
0.0736459
0.0737032
0.0758947
0.0759396
0.0781191
0.0781578
0.0803181
0.0803547
0.0824915
0.0825285
0.0846389
0.084678
0.0867602
0.0868023
0.0888556
0.088901
0.0909249
0.0909738
0.0929681
0.0930206
0.0949853
0.0950411
0.0969762
0.0970353
0.098941
0.0990032
0.100879
0.100945
0.102791
0.10286
0.104677
0.104748
0.106536
0.10661
0.108368
0.108444
0.110172
0.110252
0.11195
0.112032
0.1137
0.113785
0.115423
0.11551
0.117118
0.117208
0.118784
0.118877
0.120422
0.120517
0.122032
0.122129
0.123612
0.123712
0.125163
0.125265
0.126684
0.126789
0.128176
0.128283
0.129637
0.129746
0.131067
0.131179
0.132467
0.132581
0.133835
0.133952
0.135172
0.135291
0.136477
0.136598
0.137751
0.137873
0.138991
0.139116
0.1402
0.140326
0.141375
0.141503
0.142517
0.142648
0.143626
0.143758
0.144701
0.144835
0.145743
0.145879
0.14675
0.146888
0.147724
0.147863
0.148663
0.148803
0.149568
0.149709
0.150438
0.150581
0.151273
0.151417
0.152073
0.152219
0.152839
0.152986
0.153569
0.153717
0.154264
0.154414
0.154924
0.155075
0.155549
0.155701
0.156139
0.156291
0.156693
0.156846
0.157212
0.157366
0.157696
0.157851
0.158145
0.1583
0.158558
0.158714
0.158936
0.159092
0.159278
0.159435
0.159586
0.159743
0.159858
0.160015
0.160095
0.160253
0.160297
0.160455
0.160464
0.160622
0.160596
0.160754
0.160693
0.160851
0.160755
0.160913
0.160781
0.16094
0.160772
0.16093
)
;

boundaryField
{
    inlet
    {
        type            cyclic;
    }
    outlet
    {
        type            cyclic;
    }
    bottom
    {
        type            symmetry;
    }
    top
    {
        type            kqRWallFunction;
        value           nonuniform List<scalar> 2(0.102769 0.0389362);
    }
    frontAndBack
    {
        type            empty;
    }
}


// ************************************************************************* //
