/*--------------------------------*- C++ -*----------------------------------*\
  =========                 |
  \\      /  F ield         | OpenFOAM: The Open Source CFD Toolbox
   \\    /   O peration     | Website:  https://openfoam.org
    \\  /    A nd           | Version:  7
     \\/     M anipulation  |
\*---------------------------------------------------------------------------*/
FoamFile
{
    version     2.0;
    format      ascii;
    class       volScalarField;
    location    "800";
    object      nut;
}
// * * * * * * * * * * * * * * * * * * * * * * * * * * * * * * * * * * * * * //

dimensions      [0 2 -1 0 0 0 0];

internalField   nonuniform List<scalar> 
180
(
3.29233e-05
1.2137e-05
6.42304e-05
3.20435e-05
0.00010553
7.13252e-05
0.000158583
0.000127805
0.000223011
0.000197392
0.000299114
0.000278812
0.000386637
0.000371024
0.000484764
0.000472936
0.000592354
0.000583438
0.000708159
0.000701442
0.000830955
0.0008259
0.000959607
0.000955811
0.00109308
0.00109024
0.00123044
0.00122831
0.00137083
0.00136922
0.00151349
0.00151225
0.00165771
0.00165673
0.00180287
0.00180207
0.00194841
0.00194775
0.00209383
0.00209329
0.0022387
0.00223828
0.00238264
0.00238234
0.00252532
0.00252516
0.00266646
0.00266645
0.00280584
0.00280599
0.00294325
0.00294357
0.00307852
0.003079
0.00321151
0.00321216
0.0033421
0.00334292
0.00347019
0.00347118
0.00359571
0.00359686
0.0037186
0.0037199
0.0038388
0.00384025
0.00395628
0.00395787
0.00407102
0.00407275
0.00418301
0.00418486
0.00429223
0.00429421
0.00439869
0.00440079
0.0045024
0.00450462
0.00460337
0.0046057
0.00470163
0.00470406
0.00479719
0.00479973
0.00489008
0.00489272
0.00498033
0.00498307
0.00506798
0.0050708
0.00515305
0.00515597
0.00523559
0.00523859
0.00531562
0.00531871
0.00539319
0.00539636
0.00546834
0.00547158
0.00554109
0.00554441
0.0056115
0.00561489
0.00567959
0.00568305
0.00574541
0.00574893
0.00580899
0.00581258
0.00587037
0.00587402
0.00592958
0.00593329
0.00598667
0.00599043
0.00604165
0.00604547
0.00609458
0.00609845
0.00614547
0.00614939
0.00619436
0.00619833
0.00624129
0.0062453
0.00628627
0.00629033
0.00632934
0.00633344
0.00637052
0.00637466
0.00640984
0.00641402
0.00644733
0.00645154
0.006483
0.00648725
0.00651689
0.00652117
0.006549
0.00655331
0.00657936
0.0065837
0.00660799
0.00661235
0.0066349
0.00663929
0.00666012
0.00666453
0.00668365
0.00668808
0.00670551
0.00670996
0.00672571
0.00673019
0.00674427
0.00674876
0.00676119
0.0067657
0.00677648
0.00678101
0.00679016
0.0067947
0.00680223
0.00680678
0.0068127
0.00681726
0.00682159
0.00682615
0.00682889
0.00683346
0.00683461
0.00683918
0.00683875
0.00684333
0.00684129
0.00684587
0.00684218
0.00684676
)
;

boundaryField
{
    inlet
    {
        type            cyclic;
    }
    outlet
    {
        type            cyclic;
    }
    bottom
    {
        type            symmetry;
    }
    top
    {
        type            nutkWallFunction;
        Cmu             0.09;
        kappa           0.41;
        E               9.8;
        value           uniform 0;
    }
    frontAndBack
    {
        type            empty;
    }
}


// ************************************************************************* //
