/*--------------------------------*- C++ -*----------------------------------*\
  =========                 |
  \\      /  F ield         | OpenFOAM: The Open Source CFD Toolbox
   \\    /   O peration     | Website:  https://openfoam.org
    \\  /    A nd           | Version:  7
     \\/     M anipulation  |
\*---------------------------------------------------------------------------*/
FoamFile
{
    version     2.0;
    format      ascii;
    class       volScalarField;
    location    "800";
    object      omega;
}
// * * * * * * * * * * * * * * * * * * * * * * * * * * * * * * * * * * * * * //

dimensions      [0 0 -1 0 0 0 0];

internalField   nonuniform List<scalar> 
180
(
2592
3111.22
889.432
1241.55
485.459
624.083
314.81
374.145
223.892
252.517
169.457
184.325
134.427
142.562
110.657
115.286
93.819
96.5301
81.4489
83.069
72.0748
73.0551
64.781
65.3783
58.9774
59.3432
54.2718
54.4973
50.3953
50.5363
47.1589
47.2496
44.4262
44.4872
42.0965
42.1401
40.0937
40.1272
38.3594
38.3868
36.8479
36.8715
35.5232
35.5441
34.3562
34.375
33.3234
33.3406
32.4056
32.4213
31.5869
31.6013
30.8542
30.8675
30.1965
30.2087
29.6045
29.6158
29.0703
29.0808
28.5872
28.5971
28.1495
28.1588
27.7523
27.7611
27.3912
27.3997
27.0626
27.0707
26.7631
26.7709
26.4898
26.4974
26.2403
26.2477
26.0123
26.0195
25.8037
25.8108
25.6129
25.6199
25.4381
25.445
25.2781
25.2849
25.1314
25.1382
24.997
25.0037
24.8737
24.8805
24.7607
24.7674
24.657
24.6637
24.5619
24.5686
24.4746
24.4813
24.3945
24.4013
24.321
24.3278
24.2536
24.2604
24.1917
24.1986
24.1349
24.1418
24.0828
24.0897
24.0349
24.0419
23.991
23.998
23.9506
23.9576
23.9135
23.9206
23.8794
23.8865
23.8481
23.8552
23.8193
23.8264
23.7927
23.7999
23.7683
23.7755
23.7457
23.753
23.7249
23.7322
23.7057
23.713
23.6879
23.6953
23.6715
23.6788
23.6562
23.6636
23.642
23.6494
23.6288
23.6362
23.6165
23.624
23.605
23.6125
23.5943
23.6018
23.5843
23.5917
23.5749
23.5823
23.566
23.5735
23.5577
23.5652
23.5499
23.5574
23.5426
23.5501
23.5357
23.5431
23.5291
23.5366
23.523
23.5304
23.5172
23.5246
23.5117
23.5191
23.5065
23.5139
23.5016
23.509
23.4972
23.5046
)
;

boundaryField
{
    inlet
    {
        type            cyclic;
    }
    outlet
    {
        type            cyclic;
    }
    bottom
    {
        type            symmetry;
    }
    top
    {
        beta1           0.075;
        blended         0;
        type            omegaWallFunction;
        value           nonuniform List<scalar> 2(2592 3111.22);
    }
    frontAndBack
    {
        type            empty;
    }
}


// ************************************************************************* //
