/*--------------------------------*- C++ -*----------------------------------*\
  =========                 |
  \\      /  F ield         | OpenFOAM: The Open Source CFD Toolbox
   \\    /   O peration     | Website:  https://openfoam.org
    \\  /    A nd           | Version:  7
     \\/     M anipulation  |
\*---------------------------------------------------------------------------*/
FoamFile
{
    version     2.0;
    format      ascii;
    class       volScalarField;
    location    "800";
    object      p;
}
// * * * * * * * * * * * * * * * * * * * * * * * * * * * * * * * * * * * * * //

dimensions      [0 2 -2 0 0 0 0];

internalField   nonuniform List<scalar> 
180
(
1.92978e-20
-2.2441e-16
4.00121e-20
-2.24415e-16
5.46866e-20
-2.24436e-16
1.15802e-19
-2.24484e-16
1.52233e-19
-2.24537e-16
1.33252e-19
-2.2449e-16
1.72005e-19
-2.24465e-16
2.23634e-19
-2.24437e-16
1.95123e-19
-2.245e-16
2.7791e-19
-2.2458e-16
3.79124e-19
-2.24676e-16
3.41809e-19
-2.24791e-16
4.82222e-19
-2.24746e-16
6.42766e-19
-2.24697e-16
1.42412e-19
-2.24191e-16
3.45894e-19
-2.24388e-16
5.71647e-19
-2.24607e-16
5.16849e-19
-2.24546e-16
4.59062e-19
-2.24483e-16
3.98155e-19
-2.24417e-16
3.34099e-19
-2.24349e-16
2.67371e-19
-2.24279e-16
1.97551e-19
-2.24208e-16
1.25585e-19
-2.24134e-16
5.07763e-20
-2.24059e-16
-2.56353e-20
-2.23983e-16
-1.04484e-19
-2.23905e-16
-1.84402e-19
-2.23827e-16
-2.66258e-19
-2.23747e-16
-3.48739e-19
-2.23667e-16
-4.32632e-19
-2.23586e-16
-5.16753e-19
-2.23504e-16
-6.01773e-19
-2.23422e-16
-6.86734e-19
-2.2334e-16
-7.72137e-19
-2.23257e-16
-8.57243e-19
-2.23174e-16
-9.42401e-19
-2.23091e-16
-1.0271e-18
-2.23009e-16
-1.11154e-18
-2.22926e-16
-1.19538e-18
-2.22843e-16
-1.27873e-18
-2.22761e-16
-1.36137e-18
-2.2268e-16
-1.44336e-18
-2.22598e-16
-1.52453e-18
-2.22518e-16
-1.60494e-18
-2.22438e-16
-1.68442e-18
-2.22359e-16
-1.76305e-18
-2.2228e-16
-1.84065e-18
-2.22203e-16
-1.91734e-18
-2.22126e-16
-1.99287e-18
-2.2205e-16
-2.06744e-18
-2.21976e-16
-2.14072e-18
-2.21903e-16
-2.21297e-18
-2.2183e-16
-2.28379e-18
-2.21759e-16
-2.35351e-18
-2.2169e-16
-2.42167e-18
-2.21622e-16
-2.48862e-18
-2.21555e-16
-2.55388e-18
-2.2149e-16
-2.61783e-18
-2.21426e-16
-2.67996e-18
-2.21364e-16
-2.74067e-18
-2.21304e-16
-2.79947e-18
-2.21245e-16
-2.85672e-18
-2.21188e-16
-2.91199e-18
-2.21133e-16
-2.96562e-18
-2.2108e-16
-3.01721e-18
-2.21029e-16
-3.06708e-18
-2.20979e-16
-3.11486e-18
-2.20932e-16
-3.16087e-18
-2.20886e-16
-3.20474e-18
-2.20843e-16
-3.24678e-18
-2.20801e-16
-3.28663e-18
-2.20761e-16
-3.3246e-18
-2.20724e-16
-3.36033e-18
-2.20689e-16
-3.39411e-18
-2.20655e-16
-3.4256e-18
-2.20624e-16
-3.45507e-18
-2.20595e-16
-3.48222e-18
-2.20569e-16
-3.50727e-18
-2.20544e-16
-3.52999e-18
-2.20522e-16
-3.55053e-18
-2.20502e-16
-3.56876e-18
-2.20484e-16
-3.58476e-18
-2.20468e-16
-3.59845e-18
-2.20455e-16
-3.6099e-18
-2.20443e-16
-3.61906e-18
-2.20435e-16
-3.62596e-18
-2.20428e-16
-3.6306e-18
-2.20423e-16
-3.63296e-18
-2.20421e-16
-3.63326e-18
-2.20421e-16
)
;

boundaryField
{
    inlet
    {
        type            cyclic;
    }
    outlet
    {
        type            cyclic;
    }
    bottom
    {
        type            symmetry;
    }
    top
    {
        type            zeroGradient;
    }
    frontAndBack
    {
        type            empty;
    }
}


// ************************************************************************* //
