/*--------------------------------*- C++ -*----------------------------------*\
  =========                 |
  \\      /  F ield         | OpenFOAM: The Open Source CFD Toolbox
   \\    /   O peration     | Website:  https://openfoam.org
    \\  /    A nd           | Version:  7
     \\/     M anipulation  |
\*---------------------------------------------------------------------------*/
FoamFile
{
    version     2.0;
    format      ascii;
    class       surfaceScalarField;
    location    "800";
    object      phi;
}
// * * * * * * * * * * * * * * * * * * * * * * * * * * * * * * * * * * * * * //

dimensions      [0 3 -1 0 0 0 0];

internalField   nonuniform List<scalar> 
268
(
0.00104695
-5.59848e-19
3.12373e-20
0.00137658
-7.08847e-19
2.38877e-19
0.00157932
-5.56772e-19
2.91902e-19
0.00171328
-1.74948e-19
6.02139e-20
0.00180614
-2.0691e-21
-2.66436e-19
0.00187292
-1.208e-19
-2.45235e-19
0.00192237
-4.74779e-22
-2.5433e-19
0.00195994
9.2295e-20
-1.61375e-19
0.00198915
5.8431e-20
-8.70734e-20
0.00201232
4.04116e-20
-2.15642e-20
0.00203104
3.84813e-20
4.40234e-20
0.00204639
-7.29672e-20
-3.15143e-19
0.00205916
2.20068e-19
-2.0888e-19
0.00206988
2.18929e-19
-1.57715e-19
0.00207896
-3.27495e-20
-2.84468e-19
0.00208671
2.4371e-19
-1.63658e-19
0.00209337
1.97803e-19
-1.26914e-19
0.00209909
1.54321e-19
-9.77438e-20
0.00210404
1.39943e-19
-8.96844e-20
0.00210831
1.35618e-19
-8.85046e-20
0.002112
1.35664e-19
-9.06799e-20
0.00211518
1.37958e-19
-9.41639e-20
0.00211791
1.39675e-19
-9.81578e-20
0.00212025
1.41157e-19
-1.01687e-19
0.00212223
1.40816e-19
-1.05212e-19
0.0021239
1.40341e-19
-1.07927e-19
0.00212529
1.3837e-19
-1.10552e-19
0.00212641
1.36709e-19
-1.12496e-19
0.0021273
1.34194e-19
-1.14648e-19
0.00212797
1.32385e-19
-1.16247e-19
0.00212844
1.30173e-19
-1.18113e-19
0.00212874
1.28789e-19
-1.19569e-19
0.00212886
1.27309e-19
-1.21311e-19
0.00212884
1.26606e-19
-1.22729e-19
0.00212866
1.25984e-19
-1.24399e-19
0.00212836
1.26004e-19
-1.25777e-19
0.00212793
1.26122e-19
-1.27327e-19
0.00212739
1.26671e-19
-1.2865e-19
0.00212674
1.27397e-19
-1.3008e-19
0.00212598
1.28441e-19
-1.31288e-19
0.00212514
1.29484e-19
-1.32494e-19
0.00212421
1.30622e-19
-1.33469e-19
0.0021232
1.31774e-19
-1.34325e-19
0.00212211
1.32942e-19
-1.35022e-19
0.00212095
1.34059e-19
-1.35584e-19
0.00211973
1.3517e-19
-1.3589e-19
0.00211845
1.36026e-19
-1.3597e-19
0.00211711
1.36792e-19
-1.3586e-19
0.00211572
1.37273e-19
-1.35461e-19
0.00211428
1.37636e-19
-1.34888e-19
0.0021128
1.37641e-19
-1.34007e-19
0.00211128
1.37437e-19
-1.32944e-19
0.00210973
1.36865e-19
-1.31599e-19
0.00210814
1.36229e-19
-1.30137e-19
0.00210653
1.35044e-19
-1.28278e-19
0.00210488
1.33791e-19
-1.26195e-19
0.00210322
1.32133e-19
-1.23878e-19
0.00210154
1.30287e-19
-1.21506e-19
0.00209984
1.28043e-19
-1.18803e-19
0.00209814
1.25769e-19
-1.1592e-19
0.00209642
1.23024e-19
-1.12861e-19
0.00209469
1.20151e-19
-1.09803e-19
0.00209296
1.16989e-19
-1.06497e-19
0.00209123
1.1386e-19
-1.03131e-19
0.0020895
1.10371e-19
-9.95519e-20
0.00208778
1.06798e-19
-9.59288e-20
0.00208606
1.02886e-19
-9.21014e-20
0.00208435
9.9036e-20
-8.82336e-20
0.00208265
9.50179e-20
-8.43004e-20
0.00208097
9.09951e-20
-8.04668e-20
0.0020793
8.67402e-20
-7.64716e-20
0.00207765
8.25165e-20
-7.24779e-20
0.00207602
7.80786e-20
-6.83823e-20
0.00207442
7.36784e-20
-6.43267e-20
0.00207283
6.90875e-20
-6.02189e-20
0.00207128
6.45285e-20
-5.61419e-20
0.00206975
5.98001e-20
-5.2021e-20
0.00206825
5.52067e-20
-4.79247e-20
0.00206678
5.06034e-20
-4.38058e-20
0.00206535
4.6008e-20
-3.97141e-20
0.00206395
4.1337e-20
-3.56237e-20
0.00206259
3.66849e-20
-3.15558e-20
0.00206127
3.19983e-20
-2.75072e-20
0.00205998
2.73316e-20
-2.34678e-20
0.00205874
2.26448e-20
-1.94327e-20
0.00205755
1.79597e-20
-1.53927e-20
0.00205639
1.32439e-20
-1.13511e-20
0.00205528
8.48976e-21
-7.28879e-21
0.00205422
3.76302e-21
-3.18944e-21
0.00205319
)
;

boundaryField
{
    inlet
    {
        type            cyclic;
        value           nonuniform List<scalar> 
90
(
-0.00104695
-0.00137658
-0.00157932
-0.00171328
-0.00180614
-0.00187292
-0.00192237
-0.00195994
-0.00198915
-0.00201232
-0.00203104
-0.00204639
-0.00205916
-0.00206988
-0.00207896
-0.00208671
-0.00209337
-0.00209909
-0.00210404
-0.00210831
-0.002112
-0.00211518
-0.00211791
-0.00212025
-0.00212223
-0.0021239
-0.00212529
-0.00212641
-0.0021273
-0.00212797
-0.00212844
-0.00212874
-0.00212886
-0.00212884
-0.00212866
-0.00212836
-0.00212793
-0.00212739
-0.00212674
-0.00212598
-0.00212514
-0.00212421
-0.0021232
-0.00212211
-0.00212095
-0.00211973
-0.00211845
-0.00211711
-0.00211572
-0.00211428
-0.0021128
-0.00211128
-0.00210973
-0.00210814
-0.00210653
-0.00210488
-0.00210322
-0.00210154
-0.00209984
-0.00209814
-0.00209642
-0.00209469
-0.00209296
-0.00209123
-0.0020895
-0.00208778
-0.00208606
-0.00208435
-0.00208265
-0.00208097
-0.0020793
-0.00207765
-0.00207602
-0.00207442
-0.00207283
-0.00207128
-0.00206975
-0.00206825
-0.00206678
-0.00206535
-0.00206395
-0.00206259
-0.00206127
-0.00205998
-0.00205874
-0.00205755
-0.00205639
-0.00205528
-0.00205422
-0.00205319
)
;
    }
    outlet
    {
        type            cyclic;
        value           nonuniform List<scalar> 
90
(
0.00104695
0.00137658
0.00157932
0.00171328
0.00180614
0.00187292
0.00192237
0.00195994
0.00198915
0.00201232
0.00203104
0.00204639
0.00205916
0.00206988
0.00207896
0.00208671
0.00209337
0.00209909
0.00210404
0.00210831
0.002112
0.00211518
0.00211791
0.00212025
0.00212223
0.0021239
0.00212529
0.00212641
0.0021273
0.00212797
0.00212844
0.00212874
0.00212886
0.00212884
0.00212866
0.00212836
0.00212793
0.00212739
0.00212674
0.00212598
0.00212514
0.00212421
0.0021232
0.00212211
0.00212095
0.00211973
0.00211845
0.00211711
0.00211572
0.00211428
0.0021128
0.00211128
0.00210973
0.00210814
0.00210653
0.00210488
0.00210322
0.00210154
0.00209984
0.00209814
0.00209642
0.00209469
0.00209296
0.00209123
0.0020895
0.00208778
0.00208606
0.00208435
0.00208265
0.00208097
0.0020793
0.00207765
0.00207602
0.00207442
0.00207283
0.00207128
0.00206975
0.00206825
0.00206678
0.00206535
0.00206395
0.00206259
0.00206127
0.00205998
0.00205874
0.00205755
0.00205639
0.00205528
0.00205422
0.00205319
)
;
    }
    bottom
    {
        type            symmetry;
        value           uniform 0;
    }
    top
    {
        type            calculated;
        value           uniform 0;
    }
    frontAndBack
    {
        type            empty;
        value           nonuniform 0();
    }
}


// ************************************************************************* //
