/*--------------------------------*- C++ -*----------------------------------*\
  =========                 |
  \\      /  F ield         | OpenFOAM: The Open Source CFD Toolbox
   \\    /   O peration     | Website:  https://openfoam.org
    \\  /    A nd           | Version:  7
     \\/     M anipulation  |
\*---------------------------------------------------------------------------*/
FoamFile
{
    version     2.0;
    format      ascii;
    class       volVectorField;
    location    "800";
    object      U;
}
// * * * * * * * * * * * * * * * * * * * * * * * * * * * * * * * * * * * * * //

dimensions      [0 1 -1 0 0 0 0];

internalField   nonuniform List<vector> 
180
(
(0.911148 -6.75156e-19 0)
(0.972031 -2.90818e-19 0)
(1.23919 -1.52277e-18 0)
(1.23797 4.73819e-19 0)
(1.42885 -1.2598e-18 0)
(1.41348 5.72046e-19 0)
(1.54951 -6.6801e-19 0)
(1.53408 3.03773e-19 0)
(1.63168 -1.63695e-19 0)
(1.61913 -2.75635e-19 0)
(1.69029 -1.75403e-19 0)
(1.68079 -4.94228e-19 0)
(1.73354 -8.21942e-20 0)
(1.7266 -5.30273e-19 0)
(1.76639 1.39625e-19 0)
(1.7614 -4.49849e-19 0)
(1.79196 1.5851e-19 0)
(1.78841 -2.50342e-19 0)
(1.81232 1.23068e-19 0)
(1.80978 -1.09044e-19 0)
(1.82881 9.99092e-20 0)
(1.82699 1.23358e-20 0)
(1.84239 -2.60997e-20 0)
(1.84106 -3.07776e-19 0)
(1.8537 1.99719e-19 0)
(1.85272 -5.51862e-19 0)
(1.86324 4.51583e-19 0)
(1.86249 -3.77011e-19 0)
(1.87135 1.72114e-19 0)
(1.87075 -4.50141e-19 0)
(1.87828 2.28607e-19 0)
(1.87777 -4.38653e-19 0)
(1.88423 4.19567e-19 0)
(1.88379 -2.5918e-19 0)
(1.88937 3.29665e-19 0)
(1.88896 -2.07309e-19 0)
(1.89381 2.8726e-19 0)
(1.89342 -1.82632e-19 0)
(1.89766 2.72028e-19 0)
(1.89727 -1.7563e-19 0)
(1.90098 2.69621e-19 0)
(1.90059 -1.77855e-19 0)
(1.90385 2.73023e-19 0)
(1.90345 -1.84289e-19 0)
(1.90632 2.77739e-19 0)
(1.9059 -1.92169e-19 0)
(1.90843 2.81227e-19 0)
(1.908 -1.99841e-19 0)
(1.91022 2.82247e-19 0)
(1.90978 -2.06938e-19 0)
(1.91173 2.81416e-19 0)
(1.91128 -2.13281e-19 0)
(1.91298 2.78829e-19 0)
(1.91252 -2.18584e-19 0)
(1.914 2.75092e-19 0)
(1.91352 -2.23027e-19 0)
(1.9148 2.70763e-19 0)
(1.91431 -2.27168e-19 0)
(1.91542 2.6641e-19 0)
(1.91491 -2.3088e-19 0)
(1.91585 2.62312e-19 0)
(1.91533 -2.34336e-19 0)
(1.91612 2.5871e-19 0)
(1.91559 -2.37637e-19 0)
(1.91624 2.55824e-19 0)
(1.9157 -2.40845e-19 0)
(1.91622 2.53643e-19 0)
(1.91567 -2.43996e-19 0)
(1.91607 2.52324e-19 0)
(1.91551 -2.47098e-19 0)
(1.91581 2.51761e-19 0)
(1.91523 -2.50161e-19 0)
(1.91543 2.51954e-19 0)
(1.91483 -2.5308e-19 0)
(1.91494 2.52611e-19 0)
(1.91434 -2.55964e-19 0)
(1.91436 2.5388e-19 0)
(1.91375 -2.58733e-19 0)
(1.91369 2.55738e-19 0)
(1.91306 -2.61381e-19 0)
(1.91294 2.57907e-19 0)
(1.9123 -2.63818e-19 0)
(1.91211 2.60037e-19 0)
(1.91145 -2.66017e-19 0)
(1.91121 2.62371e-19 0)
(1.91054 -2.67869e-19 0)
(1.91023 2.6473e-19 0)
(1.90955 -2.69344e-19 0)
(1.9092 2.66961e-19 0)
(1.90851 -2.70711e-19 0)
(1.9081 2.69299e-19 0)
(1.9074 -2.71587e-19 0)
(1.90696 2.71295e-19 0)
(1.90624 -2.71909e-19 0)
(1.90576 2.72856e-19 0)
(1.90503 -2.71973e-19 0)
(1.90451 2.74197e-19 0)
(1.90377 -2.71379e-19 0)
(1.90323 2.74977e-19 0)
(1.90247 -2.70492e-19 0)
(1.9019 2.75425e-19 0)
(1.90113 -2.68959e-19 0)
(1.90054 2.75249e-19 0)
(1.89976 -2.67114e-19 0)
(1.89915 2.74328e-19 0)
(1.89835 -2.64554e-19 0)
(1.89773 2.73268e-19 0)
(1.89692 -2.61893e-19 0)
(1.89628 2.71456e-19 0)
(1.89546 -2.5855e-19 0)
(1.89481 2.68869e-19 0)
(1.89397 -2.54617e-19 0)
(1.89332 2.66092e-19 0)
(1.89247 -2.50064e-19 0)
(1.89181 2.62593e-19 0)
(1.89095 -2.45504e-19 0)
(1.89029 2.58354e-19 0)
(1.88942 -2.40427e-19 0)
(1.88876 2.53968e-19 0)
(1.88787 -2.34841e-19 0)
(1.88722 2.48924e-19 0)
(1.88632 -2.28749e-19 0)
(1.88568 2.43311e-19 0)
(1.88476 -2.22758e-19 0)
(1.88413 2.37129e-19 0)
(1.8832 -2.16364e-19 0)
(1.88258 2.30958e-19 0)
(1.88163 -2.0969e-19 0)
(1.88103 2.24336e-19 0)
(1.88007 -2.02742e-19 0)
(1.87948 2.17271e-19 0)
(1.87851 -1.95537e-19 0)
(1.87794 2.09784e-19 0)
(1.87696 -1.88085e-19 0)
(1.87641 2.01879e-19 0)
(1.87541 -1.80392e-19 0)
(1.87489 1.9413e-19 0)
(1.87388 -1.72453e-19 0)
(1.87338 1.86062e-19 0)
(1.87236 -1.64814e-19 0)
(1.87189 1.77781e-19 0)
(1.87085 -1.56972e-19 0)
(1.87041 1.69299e-19 0)
(1.86936 -1.48973e-19 0)
(1.86895 1.60633e-19 0)
(1.86789 -1.40871e-19 0)
(1.86751 1.51792e-19 0)
(1.86643 -1.32705e-19 0)
(1.86609 1.42798e-19 0)
(1.865 -1.24548e-19 0)
(1.8647 1.33648e-19 0)
(1.86359 -1.16364e-19 0)
(1.86333 1.24364e-19 0)
(1.86221 -1.08165e-19 0)
(1.86198 1.14911e-19 0)
(1.86086 -9.99454e-20 0)
(1.86067 1.05839e-19 0)
(1.85953 -9.17271e-20 0)
(1.85939 9.66291e-20 0)
(1.85823 -8.35139e-20 0)
(1.85814 8.7355e-20 0)
(1.85697 -7.53293e-20 0)
(1.85692 7.80267e-20 0)
(1.85573 -6.71698e-20 0)
(1.85573 6.86846e-20 0)
(1.85454 -5.90538e-20 0)
(1.85459 5.93305e-20 0)
(1.85338 -5.09703e-20 0)
(1.85348 4.99795e-20 0)
(1.85225 -4.29074e-20 0)
(1.85241 4.06159e-20 0)
(1.85117 -3.48264e-20 0)
(1.85137 3.12176e-20 0)
(1.85012 -2.67486e-20 0)
(1.85038 2.17585e-20 0)
(1.84912 -1.86575e-20 0)
(1.84943 1.22953e-20 0)
(1.84815 -1.05844e-20 0)
(1.84852 3.84157e-21 0)
(1.84722 -3.24886e-21 0)
)
;

boundaryField
{
    inlet
    {
        type            cyclic;
    }
    outlet
    {
        type            cyclic;
    }
    bottom
    {
        type            symmetry;
    }
    top
    {
        type            noSlip;
    }
    frontAndBack
    {
        type            empty;
    }
}


// ************************************************************************* //
