0 	0 	0 	0
0.000502513 	0.857447 	-5.96438e-20 	0
0.00100503 	1.71489 	-1.19288e-19 	0
0.00150754 	1.97376 	-1.31738e-19 	0
0.00201005 	2.11094 	-1.29191e-19 	0
0.00251256 	2.19797 	-8.29024e-20 	0
0.00301508 	2.2558 	5.85473e-21 	0
0.00351759 	2.30198 	1.06743e-19 	0
0.0040201 	2.33211 	1.351e-19 	0
0.00452261 	2.35948 	1.48957e-19 	0
0.00502513 	2.37701 	1.27891e-19 	0
0.00552764 	2.39377 	2.30622e-20 	0
0.00603015 	2.40516 	1.193e-19 	0
0.00653266 	2.4158 	1.11243e-19 	0
0.00703518 	2.42351 	1.1992e-19 	0
0.00753769 	2.43026 	1.41735e-19 	0
0.0080402 	2.4356 	1.38357e-19 	0
0.00854271 	2.43981 	1.8799e-19 	0
0.00904523 	2.44329 	2.51214e-19 	0
0.00954774 	2.44584 	3.53413e-19 	0
0.0100503 	2.44768 	2.84471e-19 	0
0.0105528 	2.44923 	4.91543e-19 	0
0.0110553 	2.44988 	3.29331e-19 	0
0.0115578 	2.45053 	5.4879e-19 	0
0.0120603 	2.45038 	4.37097e-19 	0
0.0125628 	2.45015 	5.32108e-19 	0
0.0130653 	2.44936 	5.08414e-19 	0
0.0135678 	2.4482 	4.22299e-19 	0
0.0140704 	2.44692 	4.77065e-19 	0
0.0145729 	2.4449 	2.9541e-19 	0
0.0150754 	2.4433 	4.29552e-19 	0
0.0155779 	2.44054 	1.68301e-19 	0
0.0160804 	2.43869 	1.75888e-19 	0
0.0165829 	2.4355 	1.06807e-19 	0
0.0170854 	2.43317 	-1.73639e-19 	0
0.0175879 	2.42968 	-1.02034e-19 	0
0.0180905 	2.42661 	-2.67993e-19 	0
0.018593 	2.42307 	-2.94136e-19 	0
0.0190955 	2.41919 	-2.53603e-19 	0
0.019598 	2.41571 	-4.24546e-19 	0
0.0201005 	2.41103 	-2.2229e-19 	0
0.020603 	2.40755 	-4.83628e-19 	0
0.0211055 	2.40219 	-1.57553e-19 	0
0.021608 	2.39864 	-5.05647e-19 	0
0.0221106 	2.39309 	-2.028e-19 	0
0.0226131 	2.38882 	-4.24163e-19 	0
0.0231156 	2.38337 	-2.55507e-19 	0
0.0236181 	2.37833 	-3.10635e-19 	0
0.0241206 	2.37306 	-3.27845e-19 	0
0.0246231 	2.36724 	-1.87259e-19 	0
0.0251256 	2.36218 	-4.14476e-19 	0
0.0256281 	2.35555 	-6.51345e-20 	0
0.0261307 	2.35073 	-4.99132e-19 	0
0.0266332 	2.34345 	-1.93196e-20 	0
0.0271357 	2.33831 	-4.3087e-19 	0
0.0276382 	2.33114 	-1.20814e-19 	0
0.0281407 	2.32523 	-3.25645e-19 	0
0.0286432 	2.31831 	-2.22637e-19 	0
0.0291457 	2.31161 	-2.29284e-19 	0
0.0296482 	2.30499 	-3.19514e-19 	0
0.0301508 	2.29747 	-1.4278e-19 	0
0.0306533 	2.2911 	-3.84979e-19 	0
0.0311558 	2.28282 	-6.7009e-20 	0
0.0316583 	2.27644 	-3.62801e-19 	0
0.0321608 	2.268 	-9.81499e-20 	0
0.0326633 	2.26131 	-3.41304e-19 	0
0.0331658 	2.25296 	-1.91937e-19 	0
0.0336683 	2.24562 	-3.05128e-19 	0
0.0341709 	2.23749 	-2.74833e-19 	0
0.0346734 	2.22931 	-2.40541e-19 	0
0.0351759 	2.22143 	-3.12814e-19 	0
0.0356784 	2.21254 	-1.9045e-19 	0
0.0361809 	2.2047 	-3.0042e-19 	0
0.0366834 	2.19532 	-1.58527e-19 	0
0.0371859 	2.18755 	-2.87045e-19 	0
0.0376884 	2.17824 	-2.03152e-19 	0
0.038191 	2.17 	-2.67734e-19 	0
0.0386935 	2.16089 	-2.28519e-19 	0
0.039196 	2.15205 	-2.36778e-19 	0
0.0396985 	2.14292 	-2.1464e-19 	0
0.040201 	2.13367 	-1.90359e-19 	0
0.0407035 	2.1244 	-1.77925e-19 	0
0.041206 	2.11468 	-1.12393e-19 	0
0.0417085 	2.10553 	-1.41814e-19 	0
0.0422111 	2.0954 	-4.43473e-20 	0
0.0427136 	2.08631 	-1.0713e-19 	0
0.0432161 	2.07648 	-7.27056e-20 	0
0.0437186 	2.06678 	-7.53695e-20 	0
0.0442211 	2.05689 	-6.0356e-20 	0
0.0447236 	2.04693 	-4.80618e-20 	0
0.0452261 	2.03689 	-3.5264e-20 	0
0.0457286 	2.0268 	-2.3644e-20 	0
0.0462312 	2.01661 	-1.34383e-20 	0
0.0467337 	2.00638 	-1.34983e-21 	0
0.0472362 	1.99606 	3.12041e-21 	0
0.0477387 	1.98568 	1.65168e-20 	0
0.0482412 	1.97527 	1.5156e-20 	0
0.0487437 	1.9648 	2.06295e-20 	0
0.0492462 	1.95426 	2.34421e-20 	0
0.0497487 	1.94367 	2.58164e-20 	0
0.0502513 	1.93303 	2.66439e-20 	0
0.0507538 	1.92234 	2.59244e-20 	0
0.0512563 	1.91162 	2.50466e-20 	0
0.0517588 	1.90083 	2.11394e-20 	0
0.0522613 	1.89008 	1.11883e-20 	0
0.0527638 	1.87916 	1.06747e-20 	0
0.0532663 	1.86832 	-1.14765e-21 	0
0.0537688 	1.85735 	1.13495e-21 	0
0.0542714 	1.84641 	-1.38845e-21 	0
0.0547739 	1.83542 	3.94381e-21 	0
0.0552764 	1.82442 	1.55507e-20 	0
0.0557789 	1.81339 	2.07442e-20 	0
0.0562814 	1.80234 	3.59417e-20 	0
0.0567839 	1.79144 	2.00984e-20 	0
0.0572864 	1.78019 	4.78636e-20 	0
0.0577889 	1.76995 	-3.12001e-20 	0
0.0582915 	1.75798 	4.86367e-20 	0
0.058794 	1.74742 	7.0822e-21 	0
0.0592965 	1.73575 	3.98579e-20 	0
0.059799 	1.72473 	3.93859e-20 	0
0.0603015 	1.7135 	4.28733e-20 	0
0.060804 	1.7024 	5.37833e-20 	0
0.0613065 	1.69159 	4.36312e-20 	0
0.061809 	1.68018 	7.15974e-20 	0
0.0623116 	1.67015 	2.44586e-20 	0
0.0628141 	1.658 	7.88154e-20 	0
0.0633166 	1.64859 	1.82977e-20 	0
0.0638191 	1.63588 	7.83306e-20 	0
0.0643216 	1.62605 	4.8476e-20 	0
0.0648241 	1.61385 	7.11611e-20 	0
0.0653266 	1.60358 	5.97635e-20 	0
0.0658291 	1.59241 	5.24486e-20 	0
0.0663317 	1.58119 	5.08098e-20 	0
0.0668342 	1.57144 	1.97564e-20 	0
0.0673367 	1.55928 	2.22525e-20 	0
0.0678392 	1.55065 	-4.33693e-21 	0
0.0683417 	1.5377 	7.89813e-21 	0
0.0688442 	1.52946 	-7.19166e-21 	0
0.0693467 	1.51629 	1.172e-20 	0
0.0698492 	1.50764 	2.76245e-21 	0
0.0703518 	1.49576 	8.54979e-21 	0
0.0708543 	1.486 	1.35201e-20 	0
0.0713568 	1.47568 	2.35773e-20 	0
0.0718593 	1.46455 	4.0467e-20 	0
0.0723618 	1.45585 	5.52261e-20 	0
0.0728643 	1.44331 	8.39341e-20 	0
0.0733668 	1.43631 	7.96355e-20 	0
0.0738693 	1.42264 	1.19169e-19 	0
0.0743719 	1.41601 	9.44823e-20 	0
0.0748744 	1.40345 	1.38655e-19 	0
0.0753769 	1.39549 	1.16104e-19 	0
0.0758794 	1.38463 	1.47541e-19 	0
0.0763819 	1.37526 	1.47462e-19 	0
0.0768844 	1.36615 	1.48848e-19 	0
0.0773869 	1.35532 	1.82701e-19 	0
0.0778894 	1.34803 	1.42709e-19 	0
0.078392 	1.33583 	2.11118e-19 	0
0.0788945 	1.33029 	1.36588e-19 	0
0.079397 	1.31757 	2.18012e-19 	0
0.0798995 	1.31135 	1.57991e-19 	0
0.080402 	1.29997 	2.1197e-19 	0
0.0809045 	1.29269 	1.68242e-19 	0
0.081407 	1.28318 	1.84925e-19 	0
0.0819095 	1.27439 	1.78453e-19 	0
0.0824121 	1.26683 	1.46461e-19 	0
0.0829146 	1.25682 	1.83475e-19 	0
0.0834171 	1.25091 	1.04073e-19 	0
0.0839196 	1.24041 	1.65382e-19 	0
0.0844221 	1.23509 	7.19641e-20 	0
0.0849246 	1.22446 	1.49182e-19 	0
0.0854271 	1.21831 	8.63925e-20 	0
0.0859296 	1.20896 	1.31579e-19 	0
0.0864322 	1.20198 	1.04264e-19 	0
0.0869347 	1.19414 	1.07948e-19 	0
0.0874372 	1.18665 	1.0595e-19 	0
0.0879397 	1.18036 	6.80973e-20 	0
0.0884422 	1.17239 	8.93005e-20 	0
0.0889447 	1.16709 	3.03677e-20 	0
0.0894472 	1.15864 	7.34586e-20 	0
0.0899497 	1.15347 	2.27501e-20 	0
0.0904523 	1.14541 	5.8863e-20 	0
0.0909548 	1.13937 	4.32949e-20 	0
0.0914573 	1.1327 	4.5767e-20 	0
0.0919598 	1.12655 	4.20294e-20 	0
0.0924623 	1.12053 	3.43375e-20 	0
0.0929648 	1.11469 	3.15011e-20 	0
0.0934673 	1.10902 	2.28232e-20 	0
0.0939698 	1.10338 	2.26488e-20 	0
0.0944724 	1.09875 	3.99051e-21 	0
0.0949749 	1.09262 	1.52495e-20 	0
0.0954774 	1.08761 	1.04952e-20 	0
0.0959799 	1.08243 	9.06884e-21 	0
0.0964824 	1.07752 	7.57636e-21 	0
0.0969849 	1.0728 	4.15036e-21 	0
0.0974874 	1.0682 	3.10897e-21 	0
0.0979899 	1.06372 	8.44565e-22 	0
0.0984925 	1.05942 	4.99905e-22 	0
0.098995 	1.05551 	-4.89481e-22 	0
0.0994975 	1.05354 	-2.44741e-22 	0
0.1 	1.05156 	0 	0
