/*--------------------------------*- C++ -*----------------------------------*\
  =========                 |
  \\      /  F ield         | OpenFOAM: The Open Source CFD Toolbox
   \\    /   O peration     | Website:  https://openfoam.org
    \\  /    A nd           | Version:  7
     \\/     M anipulation  |
\*---------------------------------------------------------------------------*/
FoamFile
{
    version     2.0;
    format      ascii;
    class       volScalarField;
    location    "68";
    object      k;
}
// * * * * * * * * * * * * * * * * * * * * * * * * * * * * * * * * * * * * * //

dimensions      [0 2 -2 0 0 0 0];

internalField   nonuniform List<scalar> 
12842
(
0.00569842
0.00511562
0.00475444
0.00449523
0.00432843
0.00419441
0.00410959
0.00403879
0.00399651
0.00396305
0.00394344
0.00393192
0.00393684
0.00395384
0.00397755
0.00399712
0.00401985
0.0040396
0.0040626
0.00407766
0.00409072
0.00409821
0.00410452
0.0056846
0.00507289
0.00472768
0.00448572
0.00432534
0.00419355
0.00410928
0.0040374
0.0039949
0.00396111
0.0039419
0.00393106
0.00393699
0.00395486
0.00398096
0.00399963
0.00401988
0.00403882
0.00406164
0.00407636
0.00409144
0.00409778
0.00410409
0.00565027
0.00503332
0.00466074
0.00442666
0.00428245
0.00416407
0.00408812
0.00402006
0.00398237
0.00395079
0.00393503
0.00392828
0.00393597
0.00395813
0.0039852
0.00400644
0.00402357
0.00404214
0.00406291
0.00407648
0.00408937
0.00409934
0.0041024
0.00561467
0.00498717
0.00463144
0.00440067
0.00426255
0.0041496
0.00407749
0.00401224
0.00397718
0.00394684
0.00393259
0.00392739
0.00393629
0.00396084
0.00398952
0.00401061
0.00403106
0.00404683
0.00406812
0.00408047
0.00409059
0.00409868
0.0041025
0.00556352
0.00492898
0.00456909
0.00435442
0.00421687
0.00411356
0.0040502
0.00399284
0.00396449
0.00393756
0.00392724
0.00392602
0.00393672
0.00396466
0.00399512
0.00401559
0.00403564
0.00405366
0.00407103
0.00408398
0.0040929
0.00409838
0.00410142
0.00552663
0.00488016
0.0045278
0.00431271
0.00419323
0.00409747
0.00403804
0.00398464
0.00395919
0.00393395
0.00392496
0.00392557
0.00393763
0.00396826
0.00400017
0.00401886
0.00404041
0.00405892
0.00407703
0.00408688
0.00409544
0.00409999
0.00410242
0.00547337
0.00482029
0.00448472
0.00428434
0.00415503
0.00406474
0.00401286
0.00396793
0.00394827
0.00392669
0.00392055
0.00392463
0.00394011
0.00397355
0.00400707
0.0040246
0.00404514
0.00406337
0.00408191
0.0040917
0.00409977
0.00410275
0.00410398
0.00543912
0.00478167
0.0044382
0.00424475
0.00413266
0.00405104
0.00400215
0.00396095
0.00394348
0.00392353
0.00391839
0.00392338
0.00393988
0.00397524
0.00401079
0.00402838
0.00404889
0.00406894
0.00408439
0.00409409
0.00410181
0.00410807
0.00410896
0.00537951
0.00472926
0.00441245
0.00422257
0.0041052
0.00402652
0.00398269
0.00394798
0.00393459
0.00391768
0.00391474
0.00392174
0.00394147
0.0039782
0.00401366
0.00403091
0.00405133
0.00407031
0.00408881
0.00409909
0.00410619
0.00411115
0.004112
0.0053553
0.0046864
0.00436805
0.00419045
0.00408324
0.0040148
0.00397327
0.00394245
0.0039297
0.00391436
0.00391279
0.00392046
0.00394194
0.00397955
0.00401498
0.00403262
0.00405304
0.00407168
0.0040915
0.00410227
0.00410958
0.00411628
0.00411593
0.00528487
0.00463996
0.00434495
0.00417167
0.00406513
0.00399768
0.00395951
0.00393142
0.00392036
0.0039075
0.00390863
0.00391798
0.00394312
0.00398282
0.00401713
0.00403494
0.00405524
0.00407313
0.00409392
0.00410885
0.00411461
0.0041206
0.00411985
0.005259
0.00459924
0.00430607
0.00414241
0.00404403
0.0039875
0.00395113
0.00392565
0.00391395
0.00390323
0.00390579
0.00391587
0.00394365
0.00398547
0.00401889
0.00403698
0.00405725
0.00407608
0.00409662
0.00411375
0.00411892
0.00412265
0.00412176
0.00519189
0.00455934
0.00428477
0.00412511
0.00403126
0.00397515
0.00394194
0.00391699
0.00390508
0.0038967
0.0039009
0.00391328
0.00394471
0.00399093
0.0040223
0.00404011
0.00405999
0.00407882
0.00410241
0.0041211
0.00412255
0.00412322
0.00412435
0.00516709
0.00452271
0.00425161
0.00410003
0.00401343
0.0039666
0.00393416
0.00391134
0.00389909
0.00389285
0.00389815
0.00391154
0.00394545
0.0039987
0.00402547
0.00404324
0.00406256
0.00408246
0.00410774
0.00412786
0.00412627
0.00412607
0.00412987
0.00510546
0.00448878
0.00423251
0.00408286
0.00400264
0.00395708
0.00392816
0.00390519
0.00389181
0.0038874
0.00389409
0.00390934
0.00394434
0.004003
0.00402947
0.00404662
0.00406598
0.00408612
0.00411333
0.00413256
0.00412991
0.00413143
0.00414058
0.00508355
0.00445696
0.00420485
0.00406356
0.0039887
0.00394897
0.00392045
0.00389915
0.00388685
0.00388438
0.00389201
0.00390845
0.00394498
0.00401143
0.00403505
0.0040507
0.0040688
0.00408972
0.00411836
0.00414711
0.00413733
0.00413941
0.00416701
0.00502831
0.00442845
0.00418745
0.00404752
0.00397839
0.00393917
0.00391578
0.00389469
0.0038814
0.00387987
0.00388884
0.00390679
0.00394605
0.00401801
0.00404001
0.00405461
0.00407229
0.00409225
0.00413165
0.00414929
0.00414555
0.00416346
0.00420424
0.00501027
0.0044012
0.00416435
0.00403325
0.00396733
0.00393093
0.00390763
0.00388842
0.00387741
0.00387748
0.00388725
0.00390642
0.00394729
0.00402079
0.00404667
0.00405913
0.00407542
0.0040964
0.00413489
0.0041466
0.00416095
0.00419715
0.00426266
0.00496125
0.00437742
0.00414835
0.0040199
0.00395763
0.00392041
0.00390297
0.0038845
0.00387349
0.00387368
0.00388452
0.00390492
0.00394884
0.00403226
0.00405244
0.00406254
0.00407799
0.00410167
0.00413308
0.00415535
0.00420067
0.00425548
0.00433581
0.00494742
0.00435427
0.00412885
0.00400836
0.00394814
0.00391228
0.00389475
0.00387865
0.00387029
0.00387171
0.00388283
0.0039037
0.0039507
0.00403427
0.00406005
0.00406677
0.00408141
0.00411269
0.00414331
0.00418591
0.00424776
0.00432698
0.00443142
0.00490416
0.00433468
0.00411415
0.0039979
0.00393894
0.00390225
0.00388951
0.00387477
0.00386733
0.00386844
0.00387975
0.00390254
0.00395254
0.00403068
0.00406594
0.00406996
0.00408671
0.00412946
0.00416812
0.00423571
0.00432383
0.00442369
0.00454291
0.00489351
0.00431512
0.0040974
0.00398649
0.00393054
0.00389443
0.00388134
0.00386935
0.00386455
0.00386631
0.00387678
0.00390158
0.00395656
0.00403273
0.00407927
0.00407543
0.00409816
0.00416338
0.00421392
0.00430707
0.00441177
0.00453922
0.00468054
0.00485384
0.0042993
0.0040841
0.00397802
0.00392139
0.00388546
0.00387626
0.00386557
0.00386221
0.00386345
0.00387327
0.00390079
0.00395924
0.00403609
0.00409005
0.00408201
0.0041168
0.0042075
0.00427475
0.00439952
0.00452873
0.00467983
0.00483988
0.00484384
0.00428661
0.0040723
0.00396892
0.00391612
0.00387964
0.00386938
0.00386168
0.00385997
0.00386091
0.00386976
0.00389984
0.00396257
0.00403828
0.00409889
0.00409503
0.00415514
0.00427577
0.00436247
0.00451805
0.00466759
0.00484921
0.00502932
0.00482998
0.00427721
0.00406392
0.00396389
0.00391104
0.00387556
0.00386686
0.00385895
0.00385842
0.00385855
0.00386712
0.00389964
0.00396505
0.00404132
0.00410979
0.00412066
0.00420861
0.00436244
0.00447435
0.00466611
0.0048401
0.00504763
0.0052439
0.0048166
0.00426939
0.00405638
0.00395783
0.00390818
0.00387269
0.00386235
0.00385543
0.003856
0.00385663
0.00386486
0.00389849
0.00396725
0.00404275
0.00411984
0.00416772
0.00428726
0.00447583
0.00461519
0.00483501
0.0050315
0.00526493
0.00547553
0.00480176
0.00426129
0.00404777
0.00395316
0.00390299
0.00386966
0.00385877
0.00385175
0.00385329
0.00385406
0.00386322
0.00389681
0.00396899
0.00404972
0.00413125
0.00423413
0.00438433
0.00460379
0.00477828
0.0050307
0.00524396
0.00550112
0.00572132
0.00478995
0.00425363
0.0040409
0.00394788
0.00390016
0.00386715
0.00385414
0.00384715
0.0038501
0.00385138
0.00386219
0.00389863
0.00397273
0.00406473
0.004173
0.0043233
0.00450588
0.00475767
0.00496236
0.00523672
0.00547056
0.00573983
0.00596278
0.00477595
0.00424688
0.00403184
0.0039437
0.00389557
0.0038637
0.00384825
0.00384239
0.0038463
0.00384891
0.003862
0.00389883
0.0039815
0.00410668
0.00424326
0.00443451
0.00464537
0.00491985
0.00515436
0.00545426
0.00569417
0.00597231
0.0061929
0.00476538
0.00423843
0.00402584
0.00393929
0.00389163
0.00386
0.0038423
0.00383714
0.0038432
0.00384867
0.00386518
0.00390817
0.00400862
0.00416729
0.00433801
0.00456382
0.00480124
0.00510101
0.00535789
0.00566792
0.00591958
0.00619722
0.00640946
0.00475289
0.00423281
0.00401607
0.00393563
0.00388724
0.00385496
0.00383588
0.00383236
0.00383946
0.00385111
0.00387842
0.00393577
0.00406007
0.00425625
0.00445794
0.00471257
0.00497159
0.00528263
0.00555578
0.00588017
0.00613026
0.00640229
0.00660233
0.00474363
0.0042229
0.00400994
0.00393195
0.00388097
0.00384962
0.00383016
0.00382765
0.00383883
0.00386434
0.00391068
0.00398441
0.00413179
0.00436146
0.00459439
0.00487125
0.00514672
0.00547267
0.00575785
0.00608077
0.00633098
0.00659332
0.00677847
0.00473262
0.00421778
0.00399998
0.00392749
0.00387428
0.00384326
0.00382446
0.0038261
0.00384041
0.00389275
0.00395755
0.00404982
0.00422427
0.00449106
0.00474911
0.00504244
0.00532997
0.00565534
0.00594163
0.00626619
0.00651113
0.00675829
0.00692669
0.00472502
0.00420665
0.00399145
0.00392316
0.00386646
0.00383741
0.00382
0.00382537
0.00385507
0.00393877
0.00402425
0.0041362
0.00433526
0.00462867
0.00491123
0.00521472
0.00550713
0.00583608
0.00612464
0.00643936
0.00667478
0.00690797
0.00705941
0.00471514
0.00420046
0.00398052
0.0039165
0.00385898
0.0038313
0.0038188
0.00383334
0.00388701
0.00400013
0.00410348
0.00423383
0.00445709
0.00478222
0.00508189
0.00538989
0.00568443
0.00600301
0.00628188
0.00658755
0.00681576
0.00703073
0.00716611
0.00470948
0.00418966
0.00396861
0.00390985
0.00385129
0.00382636
0.0038211
0.00385612
0.0039385
0.0040778
0.0041994
0.00434887
0.0045934
0.00493591
0.00525275
0.00555967
0.00584834
0.00616107
0.00643417
0.00672628
0.00694124
0.00714321
0.00726312
0.00470062
0.00418006
0.0039547
0.00390193
0.00384482
0.00382513
0.00383674
0.00389927
0.00400696
0.00416714
0.00430276
0.00446704
0.00472829
0.00509279
0.00542094
0.00572203
0.00600512
0.00630152
0.00656107
0.00683849
0.00704547
0.00723073
0.00733669
0.00469666
0.00416905
0.00394139
0.00389488
0.00383952
0.00382722
0.00386864
0.0039581
0.004091
0.0042688
0.0044177
0.00459719
0.0048732
0.0052465
0.00558559
0.00587645
0.00614564
0.00643008
0.00667885
0.00694258
0.00713741
0.00731381
0.0074077
0.00468872
0.0041549
0.00392818
0.00388725
0.0038393
0.00384256
0.00392014
0.00403449
0.00418763
0.00437626
0.00453392
0.00472243
0.00500644
0.00538904
0.00573774
0.00601503
0.00627399
0.0065412
0.00677751
0.00702623
0.00721514
0.00737784
0.00745933
0.00468501
0.00414084
0.00391695
0.00388493
0.00384356
0.00387451
0.00398694
0.00412228
0.00429386
0.00449126
0.00465639
0.00485407
0.00514526
0.00552911
0.00588469
0.00614584
0.00638734
0.00663908
0.00686388
0.00710134
0.0072806
0.00743707
0.00750968
0.00467739
0.00412396
0.00390687
0.00388502
0.00386306
0.00392618
0.00406836
0.00422171
0.00440596
0.00460585
0.00477435
0.00497469
0.00526665
0.0056512
0.00601406
0.00625652
0.00648544
0.00672331
0.00693919
0.00716425
0.00734114
0.00748735
0.00755072
0.00467348
0.00411086
0.00389945
0.00389378
0.00389937
0.00399318
0.00416128
0.0043275
0.00452235
0.00472356
0.00489407
0.00509735
0.00539008
0.00577097
0.00613676
0.00636025
0.00657284
0.00679502
0.00700111
0.00721874
0.00739004
0.00752932
0.00758534
0.00466537
0.0040946
0.0038975
0.00391569
0.00395298
0.00407439
0.00426239
0.00443752
0.00463744
0.00483521
0.0050047
0.00520532
0.00549366
0.00587265
0.00624149
0.00644386
0.00664383
0.00685538
0.00705785
0.00726713
0.00743703
0.00756722
0.00761842
0.00466022
0.00408634
0.00389988
0.00395095
0.00402173
0.00416725
0.00436911
0.00455006
0.0047524
0.00494677
0.00511392
0.00531275
0.0055983
0.00597018
0.00633851
0.00652143
0.00670848
0.00690869
0.00710402
0.00730895
0.00747857
0.00760227
0.00764969
0.00465003
0.00407576
0.00391329
0.0040013
0.00410246
0.00426523
0.00447764
0.00465928
0.00486056
0.00504779
0.005211
0.00540412
0.00568163
0.00605198
0.0064181
0.00658164
0.00675862
0.00694971
0.0071456
0.00734668
0.00751437
0.0076281
0.00767295
0.00463938
0.00407308
0.00394087
0.0040617
0.00419375
0.00437059
0.00458692
0.00476878
0.00496466
0.00514693
0.00530502
0.00549387
0.00576814
0.00613122
0.00649094
0.00663667
0.00680479
0.00698935
0.007183
0.00738251
0.00755322
0.00766342
0.00771006
0.00462584
0.00407209
0.00398168
0.00413471
0.00428975
0.00447248
0.00469171
0.00486796
0.00505902
0.00523256
0.00538526
0.00556772
0.0058315
0.00619429
0.0065464
0.00667831
0.00683892
0.00701832
0.00721413
0.00741276
0.00758439
0.00768603
0.00773221
0.00461439
0.0040815
0.00403454
0.0042131
0.00439016
0.00457745
0.00479341
0.00496583
0.00514758
0.0053157
0.00546195
0.00564013
0.00590245
0.00625993
0.00659835
0.0067159
0.00687258
0.00704653
0.00724561
0.0074465
0.00762204
0.00772097
0.00777443
0.00460106
0.00410165
0.00409775
0.00430032
0.00449247
0.00467689
0.00489002
0.00505339
0.00522965
0.00538729
0.00552718
0.00569911
0.00594949
0.00630645
0.00663535
0.00674267
0.00689309
0.00706772
0.00726931
0.00747285
0.00765476
0.00774882
0.0078066
0.00458992
0.00413708
0.00417336
0.00439502
0.00459853
0.00477954
0.00498744
0.00514292
0.00530722
0.00545804
0.00559017
0.00575861
0.00600684
0.00635823
0.00666786
0.0067641
0.00691078
0.00709026
0.00728956
0.00749861
0.00768559
0.00777325
0.00784036
0.00458288
0.00418561
0.00425661
0.00449237
0.00470162
0.00487334
0.00507739
0.00522205
0.00537664
0.00551684
0.00564182
0.0058044
0.00604142
0.00638907
0.00668653
0.00677408
0.00692254
0.00709331
0.00730105
0.00750933
0.00770461
0.007781
0.00785306
0.00458409
0.00424745
0.00434497
0.00459076
0.00479977
0.00496247
0.00516348
0.00529695
0.00543791
0.00556968
0.00568741
0.00584745
0.00608068
0.00642254
0.00670081
0.00678312
0.00692903
0.00711829
0.00730949
0.00754391
0.00771221
0.00778691
0.00787226
0.00459159
0.00431814
0.00443635
0.00468757
0.00489307
0.00504457
0.00524033
0.00536373
0.00549194
0.00561369
0.00572564
0.00588155
0.00610555
0.00644251
0.00670755
0.00678374
0.00694045
0.00710612
0.00733047
0.00754731
0.00771334
0.00779267
0.00788566
0.0046097
0.0044001
0.0045302
0.0047822
0.00498012
0.00512147
0.00530922
0.00542277
0.00553768
0.00565137
0.00575887
0.00591227
0.00613318
0.00646405
0.00671262
0.00679152
0.00694223
0.00711242
0.00733178
0.00755293
0.00771581
0.00780238
0.00791525
0.00463976
0.0044858
0.00462379
0.00487204
0.00506097
0.0051923
0.00536741
0.00547312
0.00557557
0.00568269
0.00578714
0.00593748
0.00615138
0.0064757
0.00671418
0.00678918
0.00694247
0.00710948
0.00734452
0.00755393
0.00771772
0.00781649
0.00793884
0.00467837
0.00457936
0.00471915
0.0049577
0.00513566
0.00525827
0.00541713
0.00551411
0.00560598
0.00570891
0.00581239
0.00595976
0.00617124
0.00648965
0.00671548
0.00678766
0.00693592
0.00709652
0.00733487
0.00754381
0.00772865
0.00783809
0.00799821
0.00472402
0.0046671
0.00480674
0.00503188
0.00519878
0.0053134
0.00545547
0.00554384
0.00562764
0.00572884
0.00583212
0.00597643
0.0061837
0.00649646
0.00671715
0.00678555
0.00691982
0.00707737
0.00731299
0.00752909
0.00773912
0.00788975
0.00807818
0.00477004
0.00475183
0.00488944
0.00509833
0.0052539
0.00536201
0.00548849
0.00556763
0.0056455
0.00574559
0.00584987
0.00599066
0.00619554
0.00650341
0.00671629
0.00678351
0.00691712
0.00706561
0.00729607
0.00752193
0.00774726
0.00791649
0.00814323
0.00481998
0.00483198
0.00496787
0.00516023
0.00530455
0.00540605
0.00551769
0.00558715
0.00566009
0.00576054
0.00586585
0.00600368
0.00620687
0.00651144
0.00671698
0.00678071
0.00691103
0.00706127
0.00728789
0.00751755
0.00775104
0.00794585
0.00815812
0.00486932
0.0049098
0.00504291
0.00521629
0.0053485
0.00544431
0.00554349
0.00560323
0.00567291
0.00577336
0.00588102
0.00601547
0.00621763
0.00652166
0.00671924
0.00678194
0.00691159
0.00706103
0.00728564
0.00751432
0.00775111
0.00795254
0.00820458
0.0049198
0.00498116
0.00511154
0.00526832
0.00538917
0.00547873
0.00556705
0.00561793
0.00568442
0.00578537
0.00589385
0.00602608
0.00622979
0.00653519
0.00672521
0.00679114
0.00691204
0.00706135
0.00728433
0.00752187
0.00778318
0.00816012
0.00880331
0.00496815
0.00504817
0.00517551
0.00531501
0.0054239
0.00550818
0.00558813
0.00563107
0.00569536
0.00579586
0.00590752
0.00603634
0.00624143
0.0065516
0.00673608
0.00680862
0.00692609
0.00706988
0.00728726
0.00754857
0.00823744
0.00985137
0.0131805
0.0050157
0.00510913
0.00523256
0.00535753
0.00545672
0.00553478
0.00560737
0.00564477
0.00570633
0.00580631
0.00591736
0.0060455
0.00625498
0.00657232
0.00675178
0.00683391
0.00695338
0.00710431
0.00736012
0.00780662
0.00895349
0.0123094
0.0186946
0.00506148
0.00516435
0.00528438
0.00539606
0.00548487
0.00555815
0.00562524
0.00565798
0.00571722
0.00581533
0.0059297
0.0060545
0.00626883
0.00659559
0.00677283
0.00686716
0.00699629
0.00716039
0.00749294
0.00823988
0.0105325
0.0155624
0.0262419
0.00510488
0.00521537
0.0053303
0.0054298
0.00551239
0.00557946
0.00564107
0.00567217
0.00572858
0.00582492
0.00593755
0.00606286
0.00628321
0.0066227
0.00679857
0.00690908
0.0070513
0.00724904
0.00771744
0.00883031
0.0113536
0.0178774
0.0306636
0.00514793
0.00525991
0.00537101
0.00546099
0.00553631
0.00559925
0.00565649
0.00568647
0.00574016
0.00583284
0.00594782
0.00607192
0.00630006
0.00665301
0.00682884
0.00695885
0.00711981
0.00735588
0.00795356
0.00930551
0.0118252
0.0178033
0.0330285
0.00518757
0.00530241
0.00540803
0.0054879
0.00556044
0.00561782
0.00567025
0.00570084
0.00575161
0.00584179
0.0059564
0.00607995
0.00631496
0.00668518
0.00686263
0.00701597
0.00719762
0.00748322
0.00817861
0.00959793
0.012401
0.0180617
0.0345241
0.00522781
0.00533862
0.00544008
0.00551258
0.00558194
0.00563542
0.00568362
0.00571602
0.00576377
0.00584881
0.0059641
0.00608833
0.00633434
0.00672172
0.00690001
0.00707626
0.00728006
0.00761058
0.00834161
0.00980092
0.0130036
0.0187443
0.0332426
0.00526447
0.00537421
0.00547032
0.00553539
0.00560341
0.00565292
0.00569641
0.0057298
0.00577491
0.00585723
0.00597117
0.00609657
0.00635157
0.0067577
0.00693872
0.00713867
0.00736081
0.0077229
0.00843743
0.00991942
0.0128946
0.0187896
0.0328333
0.00530192
0.00540451
0.0054975
0.00555508
0.00562382
0.00566923
0.0057089
0.00574483
0.00578666
0.0058639
0.00597185
0.00609801
0.00637151
0.00679659
0.00697881
0.00719758
0.00743696
0.00782621
0.00850268
0.0100294
0.0131561
0.0189151
0.0329055
0.00533554
0.00543512
0.00552204
0.00557628
0.00564274
0.00568557
0.00572072
0.0057582
0.00579796
0.00587098
0.00597277
0.0060995
0.00638819
0.00683318
0.00701774
0.00725105
0.00749981
0.00789087
0.00856152
0.00997595
0.0129638
0.0190847
0.0339622
0.00537077
0.00546144
0.00554734
0.00559324
0.00566259
0.00570194
0.00573394
0.0057718
0.00580825
0.00587869
0.00597353
0.00610291
0.0064049
0.00686945
0.00705423
0.00729623
0.00755087
0.00792494
0.0085503
0.0100178
0.0130503
0.0194955
0.0321873
0.00540052
0.00548848
0.00556772
0.00561334
0.00567968
0.00571595
0.00574484
0.00578467
0.00581961
0.00588387
0.005974
0.00610208
0.00641112
0.00689767
0.00708686
0.00733051
0.00758747
0.00794496
0.00857122
0.0100447
0.0130221
0.0197985
0.0320798
0.00543276
0.0055116
0.00559076
0.00563052
0.00569748
0.00573194
0.00575801
0.00579699
0.0058289
0.00589205
0.00597516
0.00610225
0.00641396
0.00692137
0.0071139
0.00735308
0.00759411
0.00794088
0.00857288
0.00993715
0.0130403
0.0190184
0.0321808
0.0054587
0.00553547
0.00560902
0.00564728
0.00571383
0.00574506
0.00577007
0.00580781
0.00583889
0.00589958
0.00597557
0.00610275
0.00641729
0.00693673
0.0071335
0.00736705
0.00759871
0.00793982
0.0085811
0.0099164
0.0131477
0.0189188
0.0297134
0.00548595
0.00555692
0.00563077
0.00566713
0.00572922
0.00575787
0.00578091
0.0058208
0.00584883
0.00590515
0.00597676
0.00610523
0.00641587
0.00693858
0.00714797
0.00736906
0.00760183
0.00793922
0.00854494
0.00991645
0.0127386
0.0176947
0.0261988
0.00551143
0.00557678
0.00564996
0.00568207
0.00574324
0.00577364
0.00579658
0.00583069
0.00585758
0.00590536
0.00597783
0.00610359
0.00641553
0.00694046
0.00715078
0.00737053
0.00760497
0.00793904
0.00853451
0.00973657
0.0120574
0.016049
0.0225342
0.00553621
0.005607
0.00567345
0.00570406
0.00576255
0.00578721
0.00580918
0.0058464
0.00586965
0.00590656
0.00597559
0.00610326
0.0064168
0.00694225
0.00715393
0.00736843
0.00759476
0.00790722
0.00845344
0.00945754
0.0112821
0.0143461
0.0191756
0.00556919
0.0056218
0.00569764
0.00572349
0.00577675
0.00580314
0.0058228
0.00585603
0.00587809
0.00590841
0.00597523
0.00610305
0.00641592
0.0069458
0.00715511
0.00735306
0.00756351
0.00784618
0.00832985
0.00913749
0.0105239
0.0127963
0.0163157
0.00558482
0.005629
0.00570047
0.00574412
0.00578416
0.00580934
0.00583498
0.0058607
0.00588004
0.00591204
0.00597483
0.00610319
0.00641717
0.00694405
0.00715394
0.00732595
0.00751574
0.00776648
0.00818603
0.00881157
0.00983735
0.0114757
0.0139887
0.00559564
0.00564455
0.00570443
0.00574613
0.00579188
0.00581263
0.00583523
0.00586525
0.00588558
0.00591025
0.00597473
0.00610235
0.00641274
0.00694134
0.00714258
0.00728888
0.00745678
0.00767447
0.00803337
0.00850533
0.00925076
0.0104115
0.0121801
0.00559446
0.00564468
0.00571162
0.00574944
0.00580229
0.0058168
0.00583662
0.00586329
0.00588424
0.00591001
0.00597516
0.00610161
0.00641232
0.00693015
0.00712281
0.00724513
0.00739066
0.00757876
0.00788179
0.00823105
0.00876667
0.00958051
0.0108151
0.00559529
0.00564745
0.00572133
0.00576012
0.00580107
0.00581681
0.0058383
0.00586283
0.0058842
0.00591056
0.0059742
0.00610021
0.00641186
0.00690776
0.00709491
0.00719769
0.00732215
0.00748344
0.0077369
0.00799431
0.00837694
0.00894834
0.0098135
0.00559435
0.00565503
0.00571929
0.00576003
0.0058012
0.00582224
0.00584016
0.00586263
0.00588511
0.00591043
0.00597364
0.00610013
0.00641374
0.00688217
0.00706331
0.00714928
0.00725515
0.00739545
0.00760435
0.00779531
0.00807177
0.00847851
0.00909392
0.00559358
0.0056616
0.00571966
0.00576123
0.00580666
0.00582071
0.0058453
0.00586234
0.00588517
0.00591089
0.00597293
0.00609634
0.00640811
0.00684938
0.00702791
0.00710205
0.00719267
0.00731497
0.00748597
0.00763
0.00783265
0.00813254
0.00859067
0.00559536
0.00565618
0.00572148
0.00576331
0.00580347
0.00582087
0.00584186
0.00586215
0.00589012
0.00591274
0.00597029
0.00609868
0.00639995
0.0068182
0.0069942
0.00705822
0.00713754
0.00724621
0.00738474
0.00749606
0.00765093
0.00787866
0.00823211
0.00559482
0.0056556
0.0057208
0.00576838
0.00580588
0.00582153
0.00584164
0.00586159
0.00588728
0.00590931
0.00597006
0.00609514
0.00638679
0.00678314
0.00695974
0.00701869
0.00708913
0.00718585
0.00729817
0.00738776
0.00750969
0.00769352
0.00798246
0.00560318
0.00566077
0.00572151
0.00576304
0.0058007
0.00582425
0.00584099
0.00586118
0.00588643
0.00591245
0.0059688
0.00609681
0.00637488
0.00675343
0.00693086
0.00698541
0.00705025
0.00713751
0.00722858
0.00730256
0.00740545
0.00755529
0.00779506
0.00559628
0.00565744
0.00572636
0.00576355
0.00580054
0.00581924
0.00584077
0.00586394
0.00588616
0.00590892
0.00596837
0.00609626
0.00635893
0.0067214
0.00690183
0.00695638
0.00701632
0.00709512
0.00716976
0.00723445
0.00732217
0.00745408
0.00766102
0.00559305
0.00565753
0.00571979
0.00576679
0.00580012
0.0058188
0.00584295
0.00586175
0.00588738
0.0059089
0.0059699
0.00609425
0.00634669
0.0066971
0.00688012
0.00693429
0.00699165
0.00706315
0.00712548
0.00718406
0.00726481
0.00737629
0.00755378
0.00559353
0.00566069
0.00572649
0.00576022
0.0058001
0.0058201
0.00584467
0.00586272
0.00588236
0.00590775
0.00596952
0.0060902
0.00633011
0.00667006
0.00685695
0.00691324
0.00696838
0.00703384
0.00708644
0.00714105
0.00721625
0.00731564
0.00746869
0.00559156
0.00566057
0.00571956
0.00576005
0.0058024
0.00581364
0.00583888
0.00586016
0.0058815
0.00590773
0.00596617
0.00608622
0.00631937
0.00665233
0.00684205
0.00689879
0.00695309
0.00701305
0.00705933
0.00711333
0.00718403
0.00727721
0.00741142
0.00559508
0.00565188
0.00571781
0.00576017
0.00579535
0.00581308
0.00583787
0.00586023
0.00588212
0.0059022
0.00596134
0.00607788
0.00630289
0.00662927
0.0068225
0.00688224
0.00693573
0.00699205
0.00703224
0.0070835
0.00715217
0.00723578
0.00734895
0.00558332
0.00565294
0.00571644
0.0057649
0.00579423
0.00581461
0.00583584
0.00585863
0.00587613
0.00590139
0.00595547
0.00607381
0.00629526
0.00661836
0.00681354
0.0068722
0.00692573
0.00697831
0.00701593
0.00706854
0.00713427
0.00721518
0.00731664
0.00558162
0.00565556
0.00571997
0.00576507
0.00579091
0.00580735
0.00583437
0.00585883
0.00587561
0.00590292
0.0059485
0.00606626
0.00627723
0.00659477
0.00679542
0.00685813
0.00691069
0.00696168
0.0069953
0.00704463
0.0071092
0.00717998
0.00726785
0.00558182
0.00564431
0.00571739
0.00576299
0.00579007
0.00580685
0.00583225
0.00585194
0.00587749
0.00590276
0.00594778
0.00606695
0.00627691
0.00659417
0.00679077
0.00685119
0.00690379
0.00695242
0.00698538
0.00703573
0.00709867
0.0071642
0.00723859
0.00557648
0.00564337
0.00571301
0.00576002
0.00578658
0.00580799
0.00583016
0.00585021
0.0058783
0.00589967
0.00594714
0.0060601
0.00625632
0.00656821
0.00677412
0.00683853
0.00688913
0.00693729
0.00696833
0.00701556
0.00707368
0.00713773
0.00720241
0.0055739
0.00564624
0.00570573
0.00575316
0.00578446
0.00580888
0.00582939
0.0058521
0.00587492
0.00589323
0.00594204
0.00605075
0.00623541
0.00654053
0.00675563
0.00682572
0.00687591
0.0069223
0.00695298
0.00699908
0.00705037
0.00711292
0.00717685
0.00556721
0.00564577
0.00569561
0.00574633
0.00578613
0.0058052
0.00581722
0.00584978
0.0058696
0.00588837
0.00593393
0.00603692
0.00621175
0.00650864
0.00673342
0.00681212
0.00686051
0.00690646
0.00693638
0.00697957
0.00702938
0.0070805
0.00714282
0.00556592
0.00563642
0.00568743
0.00573461
0.00578676
0.00579618
0.00581398
0.00584211
0.00585867
0.00587711
0.00592487
0.00602225
0.00618648
0.00647167
0.00670847
0.0067959
0.006845
0.00688773
0.00691872
0.00695815
0.00701214
0.00705195
0.00710534
0.00554313
0.00562124
0.00567807
0.00571345
0.00577858
0.00578084
0.00581668
0.00583236
0.00584203
0.00586901
0.00591478
0.00600462
0.00615765
0.00642977
0.00667426
0.00677881
0.00682816
0.00686901
0.00689816
0.00693214
0.00698679
0.00702353
0.00707515
0.00553662
0.00560906
0.00567509
0.00570645
0.00576338
0.00575854
0.00581109
0.00581949
0.00583627
0.00585851
0.00590415
0.00598564
0.00612699
0.00638097
0.00663803
0.00675476
0.00680971
0.00684783
0.00687676
0.00690555
0.00695338
0.00699104
0.00705226
0.00554084
0.00559465
0.00566246
0.00570865
0.00574863
0.00575018
0.00580162
0.00581165
0.00583605
0.00585404
0.00589032
0.00596394
0.00609269
0.00632531
0.00658741
0.00672868
0.00678977
0.00682652
0.00685292
0.00687898
0.00691813
0.00695428
0.00702279
0.00552815
0.00557886
0.00564279
0.00569876
0.00572685
0.00574883
0.0057881
0.00579674
0.00582473
0.00584252
0.00587603
0.00594184
0.00605684
0.00626442
0.00653242
0.00668716
0.00676507
0.00680611
0.00683344
0.0068553
0.00688373
0.00691349
0.00697408
0.00550377
0.00555372
0.00561738
0.00567897
0.00571169
0.00573032
0.0057689
0.00578403
0.00580788
0.00582591
0.00585734
0.00591534
0.00601626
0.0061932
0.00646288
0.00664011
0.00672683
0.00677363
0.00680579
0.00682994
0.00685297
0.00687596
0.00692174
0.00546745
0.00553116
0.00559172
0.00565279
0.00568787
0.00571209
0.00574943
0.0057723
0.00579013
0.00580882
0.0058375
0.00588758
0.00597445
0.00612385
0.00637743
0.00657002
0.00668908
0.00673732
0.0067729
0.00680173
0.0068219
0.00684173
0.0068777
0.00544042
0.00548746
0.00557406
0.00561751
0.00565915
0.00568848
0.00572384
0.00574582
0.00576527
0.00578519
0.00581142
0.00585467
0.00592841
0.00605225
0.00627933
0.00647874
0.00661391
0.00669427
0.00673761
0.00677014
0.0067923
0.00680644
0.00683173
0.00541401
0.00544619
0.0055507
0.0055882
0.00562405
0.00566084
0.00569723
0.00571615
0.00573831
0.00575983
0.00578337
0.00582073
0.00588265
0.00598418
0.00616579
0.00638899
0.00653312
0.0066209
0.00668463
0.00673026
0.00675872
0.00677746
0.00679604
0.00537933
0.00540321
0.00551594
0.00555658
0.00557766
0.00562266
0.00566194
0.00567895
0.00570327
0.00572496
0.00574685
0.00577907
0.00583067
0.00591174
0.00604679
0.00625914
0.00644078
0.00654863
0.00661362
0.00667026
0.00670982
0.00673352
0.0067589
0.00534115
0.00537352
0.00547563
0.00552107
0.00553943
0.00558478
0.00562195
0.00563988
0.00566703
0.00568807
0.00570753
0.00573567
0.00577964
0.00584623
0.00594351
0.00610523
0.00630077
0.00644926
0.00655404
0.00661537
0.00665931
0.00668639
0.00671476
0.00529222
0.00533901
0.00542303
0.00547107
0.00549661
0.00553807
0.00556894
0.00558858
0.00561907
0.00563936
0.00565735
0.005681
0.00571777
0.00577384
0.00584614
0.00595385
0.00611779
0.0062764
0.0064164
0.00653771
0.00660811
0.00664466
0.00667585
0.00523998
0.00529031
0.00536723
0.00541591
0.00545044
0.00548943
0.00551346
0.00553456
0.00556803
0.00558875
0.00560534
0.00562623
0.00565654
0.00570367
0.00575973
0.00583664
0.00594364
0.00607749
0.00621781
0.00635271
0.00649434
0.00657289
0.00662564
0.00517411
0.00522641
0.00529817
0.00534614
0.00538654
0.00542558
0.00544483
0.00546663
0.00550136
0.00552256
0.00553889
0.00555682
0.00558166
0.00562063
0.00566142
0.00572424
0.00579493
0.00588092
0.00599201
0.00610992
0.00624207
0.00637084
0.00648867
0.00510494
0.00515897
0.00522769
0.00527545
0.00531784
0.00535858
0.00537612
0.00539907
0.0054325
0.00545443
0.00547131
0.00548825
0.00550858
0.00554268
0.00557125
0.00561785
0.00567778
0.0057291
0.0058099
0.00588442
0.00599713
0.00609687
0.00622421
0.00501842
0.0050745
0.00513979
0.00518772
0.00522893
0.00527084
0.00528979
0.00531317
0.0053439
0.00536499
0.00538233
0.00539812
0.00541481
0.00544396
0.0054677
0.00549583
0.00554609
0.00558205
0.00564231
0.00568654
0.00576411
0.00582915
0.005928
0.00492966
0.00498791
0.00505121
0.00510028
0.00513912
0.0051812
0.00520331
0.00522718
0.00525538
0.00527507
0.00529312
0.00530904
0.00532339
0.00534713
0.0053705
0.00538955
0.00542646
0.00545398
0.00550373
0.00553604
0.0055867
0.00563284
0.00569457
0.00481934
0.00487866
0.00493875
0.00498857
0.00502448
0.00506506
0.00509028
0.00511437
0.00513968
0.00515697
0.00517389
0.00518956
0.00520306
0.00521898
0.00524153
0.00525517
0.00528042
0.00530059
0.0053383
0.00536564
0.00540361
0.00543514
0.00547946
0.00470969
0.00477002
0.00482833
0.0048788