/*--------------------------------*- C++ -*----------------------------------*\
  =========                 |
  \\      /  F ield         | OpenFOAM: The Open Source CFD Toolbox
   \\    /   O peration     | Website:  https://openfoam.org
    \\  /    A nd           | Version:  7
     \\/     M anipulation  |
\*---------------------------------------------------------------------------*/
FoamFile
{
    version     2.0;
    format      ascii;
    class       volScalarField;
    location    "68";
    object      nut;
}
// * * * * * * * * * * * * * * * * * * * * * * * * * * * * * * * * * * * * * //

dimensions      [0 2 -1 0 0 0 0];

internalField   nonuniform List<scalar> 
12842
(
0.00181053
0.00179321
0.0017887
0.00177443
0.00177446
0.0017647
0.00176545
0.00175852
0.00175886
0.00175739
0.00175865
0.00176029
0.00176555
0.00177135
0.000906609
0.000498898
0.00031776
0.000224166
0.000168915
0.000132805
0.000108233
9.13004e-05
7.86738e-05
0.00181263
0.00178892
0.00178788
0.00177469
0.00177459
0.00176479
0.00176562
0.00175814
0.00175838
0.00175637
0.00175777
0.00175976
0.00176505
0.00177074
0.000876961
0.000483058
0.000307698
0.000217594
0.000164454
0.00012978
0.000106198
9.01641e-05
7.76742e-05
0.00180933
0.00179191
0.00178359
0.00177366
0.00177315
0.00176369
0.001765
0.00175646
0.00175735
0.00175447
0.00175642
0.00175952
0.00176457
0.00175602
0.000841368
0.000466294
0.000298197
0.000211754
0.000160475
0.000127042
0.000104193
8.90484e-05
7.65077e-05
0.00181037
0.00178607
0.00178449
0.00177374
0.0017725
0.0017631
0.00176477
0.0017563
0.00175761
0.00175441
0.00175636
0.0017598
0.00176452
0.00167065
0.000804129
0.000448276
0.000288357
0.000205505
0.000156308
0.000124125
0.000102007
8.76259e-05
7.51826e-05
0.00180762
0.00178909
0.00177789
0.00177526
0.00177172
0.00176185
0.00176417
0.00175633
0.00175865
0.00175477
0.00175687
0.00176089
0.00176493
0.0015955
0.000771227
0.000432138
0.000279175
0.000199748
0.000152179
0.000121238
9.98314e-05
8.61398e-05
7.3804e-05
0.00180726
0.00178496
0.00177843
0.00176873
0.00176994
0.00176121
0.0017639
0.00175674
0.00175949
0.00175536
0.00175734
0.00176148
0.00176562
0.00153898
0.000745755
0.000419116
0.00027161
0.000194838
0.000148764
0.000118695
9.78832e-05
8.47896e-05
7.25503e-05
0.00180576
0.00178423
0.00177708
0.00177293
0.00176877
0.00176
0.0017632
0.00175776
0.00176123
0.00175671
0.00175846
0.00176264
0.00176735
0.00150445
0.000729708
0.000410381
0.000266072
0.000190989
0.000145995
0.000116611
9.62052e-05
8.35303e-05
7.13571e-05
0.00180476
0.00178415
0.00177379
0.00176732
0.0017667
0.00175938
0.00176281
0.00175819
0.00176192
0.00175732
0.00175925
0.00176292
0.00176784
0.00149813
0.000725264
0.000406795
0.000263164
0.000188692
0.000144025
0.000114974
9.47356e-05
8.24093e-05
7.03463e-05
0.00180301
0.00178168
0.0017767
0.00176801
0.00176467
0.00175815
0.00176155
0.0017588
0.00176265
0.0017582
0.00176012
0.00176358
0.00176931
0.0014933
0.000721374
0.000403697
0.000260641
0.000186639
0.000142469
0.000113767
9.36526e-05
8.1513e-05
6.95222e-05
0.00180224
0.00178204
0.00177266
0.00176584
0.00176216
0.00175793
0.00176115
0.00175901
0.00176254
0.00175837
0.00176073
0.00176378
0.0017702
0.00146597
0.000708667
0.000396812
0.000256397
0.000183755
0.00014043
0.000112307
9.24856e-05
8.06325e-05
6.86925e-05
0.00180013
0.00177993
0.00177636
0.00176503
0.00176131
0.00175675
0.00176023
0.00175879
0.00176177
0.00175789
0.00176075
0.00176403
0.00177141
0.0014432
0.000698454
0.000391565
0.000253184
0.000181572
0.000138823
0.000111223
9.15616e-05
7.98525e-05
6.80066e-05
0.00179938
0.00177929
0.00177215
0.00176337
0.00175884
0.00175742
0.00176003
0.00175872
0.00176105
0.00175766
0.0017609
0.00176405
0.00177241
0.00142159
0.000688834
0.000386579
0.00025016
0.000179523
0.000137261
0.000110097
9.06239e-05
7.90159e-05
6.73517e-05
0.00179746
0.00177779
0.00177557
0.0017619
0.00175899
0.00175688
0.0017602
0.00175853
0.00176001
0.00175703
0.00176045
0.00176429
0.00177352
0.00139929
0.000679097
0.000381584
0.000247046
0.000177407
0.000135747
0.000109001
8.96725e-05
7.81362e-05
6.67478e-05
0.00179682
0.00177635
0.00177141
0.00176059
0.00175736
0.00175853
0.00176018
0.0017584
0.00175948
0.001757
0.00176061
0.00176457
0.00177473
0.00137713
0.000669166
0.000376528
0.000244022
0.000175394
0.000134281
0.000107944
8.87862e-05
7.73295e-05
6.62667e-05
0.00179521
0.00177554
0.00177419
0.00175834
0.00175784
0.0017583
0.00176121
0.00175833
0.00175838
0.00175647
0.00176052
0.00176497
0.00177467
0.00135537
0.000659494
0.000371709
0.000241098
0.000173452
0.000132917
0.00010692
8.80084e-05
7.66476e-05
6.59905e-05
0.00179472
0.00177364
0.00177036
0.00175837
0.00175692
0.00175982
0.00176122
0.00175815
0.00175815
0.00175678
0.00176098
0.00176558
0.00177514
0.0013353
0.0006504
0.000367098
0.000238433
0.000171756
0.000131669
0.000106282
8.74604e-05
7.61366e-05
6.61285e-05
0.00179338
0.00177354
0.00177235
0.0017558
0.00175746
0.00175886
0.00176257
0.00175801
0.00175704
0.00175622
0.00176106
0.001766
0.00177596
0.0013174
0.000641892
0.000362932
0.00023596
0.000170098
0.000130877
0.000105517
8.71423e-05
7.61105e-05
6.6654e-05
0.00179304
0.00177106
0.00176889
0.00175736
0.00175676
0.00175943
0.00176218
0.00175783
0.001757
0.00175664
0.00176152
0.00176658
0.00177621
0.00129906
0.000634296
0.000359213
0.000233932
0.000168917
0.000130034
0.000104881
8.7262e-05
7.65354e-05
6.77992e-05
0.00179187
0.00177153
0.00177002
0.00175537
0.00175712
0.00175782
0.00176332
0.00175754
0.00175617
0.00175595
0.00176125
0.00176665
0.00177697
0.00128817
0.000627591
0.000356222
0.000232181
0.000167924
0.000129373
0.000104882
8.82655e-05
7.77889e-05
6.95401e-05
0.00179157
0.00176873
0.00176711
0.00175729
0.00175668
0.00175749
0.00176238
0.00175729
0.0017562
0.00175624
0.00176132
0.00176658
0.00177792
0.00127533
0.000622306
0.000353827
0.000231114
0.000167743
0.000129489
0.000105842
8.98893e-05
7.97826e-05
7.20876e-05
0.00179083
0.00176953
0.00176726
0.00175638
0.00175637
0.00175591
0.00176287
0.00175702
0.00175571
0.0017554
0.0017604
0.00176649
0.00177894
0.00126063
0.000617921
0.000352479
0.000230505
0.000168051
0.000130586
0.000107826
9.2684e-05
8.28694e-05
7.54578e-05
0.00178968
0.00176728
0.00176501
0.00175722
0.00175686
0.00175525
0.00176126
0.00175658
0.00175565
0.00175525
0.00175966
0.00176659
0.00178009
0.00124957
0.000614823
0.000351576
0.000230894
0.000169811
0.000132922
0.000110975
9.64413e-05
8.70758e-05
7.99722e-05
0.00179052
0.00176827
0.00176449
0.00175718
0.00175597
0.00175396
0.0017614
0.00175632
0.00175546
0.00175459
0.00175866
0.00176694
0.00178169
0.00124662
0.000614022
0.000352123
0.000232125
0.000172504
0.000136456
0.000115358
0.000101557
9.25943e-05
8.57057e-05
0.00178937
0.00176754
0.00176253
0.00175666
0.00175765
0.00175336
0.00175901
0.00175564
0.001755
0.00175412
0.00175793
0.00176773
0.001783
0.00123641
0.000610164
0.000351517
0.000234672
0.000176759
0.000141423
0.000121146
0.000108033
9.96967e-05
9.3046e-05
0.00178849
0.00176853
0.00176136
0.0017569
0.00175793
0.00175243
0.00175804
0.00175513
0.00175513
0.00175425
0.00175806
0.00176912
0.00178393
0.00122476
0.000605621
0.000352036
0.000237972
0.000182219
0.000147995
0.000128678
0.000116242
0.000108466
0.00010197
0.00178903
0.00176823
0.00175984
0.00175635
0.00175922
0.00175187
0.00175643
0.00175459
0.00175532
0.00175519
0.00175885
0.00177027
0.001785
0.00121598
0.000604402
0.000354494
0.00024407
0.000189723
0.000156409
0.000137755
0.000125843
0.000118639
0.0001123
0.00178727
0.00176915
0.00175819
0.00175722
0.0017589
0.00175103
0.00175484
0.00175442
0.00175599
0.0017564
0.00176017
0.00177098
0.00178457
0.00121095
0.000603593
0.000360677
0.000251888
0.0001987
0.000166557
0.000148611
0.000136904
0.000130199
0.000123981
0.00178859
0.00176842
0.00175701
0.00175692
0.00175918
0.00175027
0.00175311
0.00175412
0.00175683
0.00175782
0.00176187
0.00177303
0.00178612
0.00120633
0.000608623
0.000369382
0.000262478
0.000209619
0.00017818
0.0001607
0.000149263
0.000142788
0.000136705
0.00178654
0.00176943
0.00175508
0.0017581
0.00175825
0.00174949
0.00175148
0.00175425
0.00175764
0.00175948
0.00176379
0.00177367
0.00179068
0.00120533
0.000619871
0.000382441
0.000274999
0.000221895
0.000191047
0.00017405
0.000162457
0.000156107
0.000150131
0.00178831
0.00176781
0.0017543
0.00175813
0.00175704
0.00174874
0.00175032
0.00175425
0.00175896
0.00176196
0.00176693
0.001778
0.00180217
0.00121901
0.000638144
0.000398189
0.000289916
0.000235975
0.000205226
0.000188279
0.000176609
0.000170066
0.000164157
0.00178653
0.00176894
0.00175228
0.00175861
0.00175585
0.0017481
0.00174934
0.00175469
0.00175975
0.00176538
0.00177421
0.00179059
0.00182249
0.00124742
0.000662801
0.000418677
0.000307117
0.000251262
0.000220096
0.000203224
0.000191198
0.000184303
0.000178522
0.00178861
0.00176656
0.00175138
0.00175936
0.00175368
0.00174779
0.0017492
0.00175481
0.00176176
0.00177318
0.00178976
0.00181145
0.00184121
0.00129322
0.000694849
0.000441471
0.000325904
0.000267992
0.000236144
0.000218723
0.0002062
0.00019865
0.000192896
0.00178721
0.00176753
0.00174931
0.00175894
0.00175207
0.00174744
0.00174897
0.0017566
0.00176435
0.00178749
0.00181125
0.0018337
0.00185827
0.00135128
0.000732291
0.000468699
0.000346947
0.000285463
0.000252029
0.000234122
0.000221141
0.000212848
0.000207368
0.0017896
0.00176478
0.00174713
0.00175994
0.00175025
0.0017478
0.00174933
0.00175724
0.00177244
0.00180884
0.00183886
0.00185198
0.00187055
0.00142608
0.000776671
0.000497487
0.000368706
0.000303984
0.000268971
0.000249917
0.000236111
0.000226792
0.000221331
0.0017884
0.0017649
0.00174396
0.00175931
0.00174937
0.00174782
0.00175089
0.00176226
0.00178727
0.00183502
0.00186329
0.00186535
0.00188009
0.00150908
0.000824545
0.000529774
0.000392167
0.000322501
0.000284966
0.000264834
0.000250432
0.0002401
0.000235146
0.00179113
0.00176223
0.00174098
0.00175955
0.00174856
0.00174836
0.00175357
0.00177108
0.00180739
0.00186141
0.00188244
0.00187379
0.00188589
0.00160685
0.000878608
0.000562977
0.000415839
0.000341856
0.000301799
0.000280102
0.000264766
0.000253242
0.000248328
0.00179005
0.00176083
0.00173687
0.00175964
0.00174863
0.00175006
0.00176076
0.00178604
0.001829
0.00188207
0.00189428
0.00187726
0.00188872
0.00170737
0.000933427
0.000597958
0.000440129
0.000360349
0.000317253
0.000293994
0.000277909
0.000265071
0.000260778
0.00179309
0.00175798
0.00173302
0.00175931
0.00174906
0.00175287
0.00177203
0.00179708
0.00184629
0.00189802
0.0018999
0.00187769
0.00189022
0.0018202
0.000993685
0.000633879
0.000464662
0.000379616
0.000333253
0.000308142
0.000291115
0.000277011
0.000272781
0.00179222
0.00175533
0.0017291
0.0017598
0.0017513
0.00175965
0.00178494
0.00180951
0.00186206
0.00190697
0.00189952
0.00187502
0.00188921
0.00192501
0.00105182
0.000669224
0.000488519
0.000397418
0.000347741
0.000320734
0.000302919
0.000287135
0.000283443
0.00179517
0.00175173
0.00172525
0.00176067
0.00175512
0.00177169
0.00179549
0.00181714
0.00187173
0.00191103
0.00189531
0.0018716
0.0018885
0.00192356
0.00111462
0.000706261
0.000513077
0.000415911
0.000362617
0.000333584
0.000314838
0.000297522
0.000293926
0.00179442
0.00174941
0.00172293
0.00176351
0.00176335
0.00178484
0.00180492
0.0018238
0.00187842
0.00190964
0.00188787
0.0018668
0.00188626
0.00192214
0.00117328
0.000740657
0.000535905
0.000432804
0.000376044
0.000344931
0.000325361
0.000305873
0.000302645
0.00179723
0.00174668
0.00172082
0.00176728
0.00177499
0.0017971
0.00181128
0.00182706
0.00188062
0.00190553
0.00187977
0.00186277
0.00188469
0.00191985
0.00123595
0.000777451
0.000560081
0.000450481
0.000389943
0.00035675
0.000336165
0.000314474
0.000311274
0.00179662
0.00174513
0.0017221
0.00177716
0.00178653
0.00180686
0.00181687
0.00182869
0.0018799
0.00189848
0.00187064
0.00185823
0.00188256
0.00191864
0.00129357
0.000810914
0.000582153
0.000466686
0.000402598
0.000367238
0.000345389
0.000320809
0.000317761
0.00179852
0.00174575
0.0017223
0.00178491
0.00179658
0.00181488
0.00181977
0.00182885
0.00187684
0.00189099
0.00186267
0.00185523
0.00188102
0.00191618
0.00135519
0.00084706
0.000606056
0.000484075
0.000416127
0.00037861
0.000355293
0.000327873
0.000324886
0.00179811
0.00174533
0.00172946
0.0017952
0.00180515
0.00181887
0.00182303
0.00182776
0.00187232
0.00188235
0.00185484
0.00185197
0.00187928
0.00191595
0.00141146
0.000880328
0.000628415
0.000500611
0.000428763
0.00038898
0.000363493
0.000332794
0.000329657
0.00179762
0.00174747
0.00173777
0.0017996
0.00181208
0.00182191
0.00182473
0.00182706
0.00186662
0.00187428
0.00184883
0.00185037
0.00187838
0.00191443
0.00147269
0.000916785
0.000652887
0.000518373
0.000442963
0.000400945
0.000373223
0.000339829
0.000336469
0.0017972
0.00175075
0.00175142
0.00180685
0.00181805
0.00182119
0.00182686
0.00182477
0.00186081
0.00186501
0.00184325
0.00184862
0.00187683
0.00191503
0.00152856
0.000951192
0.000676877
0.000536756
0.000457292
0.000412667
0.000382064
0.000345403
0.000341187
0.00179726
0.00175464
0.00176366
0.00180895
0.00182339
0.00182093
0.00182859
0.00182461
0.00185508
0.00185724
0.00183955
0.00184818
0.00187695
0.00191506
0.00159072
0.000989555
0.000704117
0.000557103
0.000473307
0.000426758
0.000393366
0.000354703
0.000349769
0.00179687
0.00176401
0.00178068
0.00181323
0.00182852
0.00181795
0.00183035
0.00182236
0.00184959
0.00184869
0.00183626
0.00184756
0.00187533
0.00191576
0.00164622
0.00102545
0.000728633
0.000577358
0.000492008
0.000442614
0.000405385
0.000364119
0.000356617
0.0017971
0.00177398
0.00179498
0.00181479
0.00183368
0.00181598
0.00183374
0.00182321
0.00184322
0.00184252
0.00183416
0.00184772
0.00187586
0.00191639
0.00170044
0.00105974
0.000758848
0.000603028
0.000508771
0.000458809
0.000417518
0.000375351
0.000366951
0.00179856
0.00178611
0.00181087
0.00181713
0.00183855
0.00181276
0.00183697
0.00182278
0.00183721
0.00183735
0.00183263
0.00184773
0.0018744
0.00191677
0.00174136
0.00108657
0.000778418
0.000618349
0.000527442
0.000469814
0.000427405
0.000385481
0.000373936
0.00180189
0.00179587
0.00182239
0.00181866
0.00184271
0.0018108
0.00184104
0.00182394
0.00183197
0.00183448
0.00183146
0.00184811
0.00187476
0.00191726
0.00178114
0.00111013
0.000797208
0.00063852
0.000538369
0.000486726
0.00043768
0.000395048
0.000382729
0.00180647
0.00180553
0.00183299
0.0018197
0.00184617
0.00180868
0.00184273
0.00182384
0.00182866
0.00183272
0.00183094
0.00184846
0.00187378
0.00191758
0.00181238
0.00112997
0.000813436
0.000647898
0.000554017
0.000495592
0.000445734
0.000404881
0.00039004
0.00181318
0.00181276
0.00183909
0.00181971
0.00184824
0.00180751
0.0018428
0.00182365
0.00182676
0.00183203
0.00183073
0.00184874
0.00187435
0.00191782
0.00183833
0.00114707
0.000825811
0.000657601
0.000558194
0.000502038
0.000453164
0.000414765
0.000398164
0.00182258
0.00181803
0.00184267
0.0018185
0.00184924
0.00180647
0.0018401
0.0018225
0.00182606
0.00183202
0.00183114
0.00184904
0.00187379
0.00191748
0.00186031
0.00116234
0.000838088
0.000667963
0.000570551
0.000509888
0.000463715
0.000427127
0.000408103
0.00183017
0.00182195
0.00184248
0.00181661
0.00184837
0.00180602
0.00183594
0.00182077
0.00182569
0.00183223
0.00183199
0.00184913
0.00187434
0.00191746
0.00187092
0.00116533
0.00083314
0.00066313
0.000565407
0.000506712
0.000467955
0.000433881
0.000410973
0.00183659
0.00182389
0.00184015
0.00181473
0.00184642
0.00180618
0.00183165
0.00181863
0.00182532
0.00183257
0.00183299
0.00184911
0.00187423
0.00191693
0.00187467
0.00116739
0.000827396
0.000658696
0.000560253
0.000505263
0.000470634
0.000438802
0.000410459
0.00184091
0.00182598
0.00183752
0.00181357
0.00184332
0.00180666
0.0018279
0.00181646
0.00182492
0.00183274
0.00183416
0.00184899
0.00187467
0.00191692
0.00189702
0.00120356
0.000854805
0.00068077
0.000581309
0.000526473
0.000497028
0.000462799
0.000433155
0.00184483
0.0018269
0.00183415
0.00181301
0.00183993
0.00180787
0.00182477
0.00181421
0.0018244
0.00183294
0.00183532
0.00184879
0.00187516
0.00191708
0.00189506
0.0012257
0.000869467
0.000693574
0.000594395
0.000539501
0.000510569
0.000480296
0.00044856
0.0018474
0.00182857
0.00183213
0.00181347
0.00183567
0.0018091
0.00182254
0.00181229
0.00182402
0.00183295
0.00183674
0.00184882
0.001876
0.00191784
0.00189398
0.00124325
0.000881532
0.000702023
0.000603161
0.000551168
0.000524131
0.000504217
0.000524754
0.00184954
0.00182959
0.00182997
0.00181461
0.00183196
0.001811
0.00182118
0.00181083
0.00182367
0.00183299
0.0018378
0.00184857
0.00187721
0.0019194
0.00189166
0.00127049
0.000900953
0.000718856
0.000623348
0.000564565
0.000550624
0.000584309
0.000742623
0.00185084
0.00183102
0.00182959
0.0018166
0.00182787
0.00181268
0.00182043
0.00181001
0.0018237
0.0018329
0.00183942
0.00184871
0.00187855
0.00192115
0.00189095
0.00130603
0.000927969
0.000739844
0.000643479
0.000598763
0.000677611
0.00087044
0.000810054
0.00185186
0.00183262
0.00182922
0.00181872
0.00182495
0.00181471
0.00182021
0.00180982
0.00182378
0.00183297
0.00184015
0.0018486
0.00188025
0.00192375
0.00188836
0.00134635
0.000968058
0.000774788
0.000686711
0.000673152
0.00090964
0.000856726
0.000812013
0.00185231
0.00183384
0.0018301
0.00182142
0.00182196
0.00181655
0.00182036
0.00181042
0.00182431
0.00183285
0.00184179
0.00184879
0.0018821
0.00192663
0.00188665
0.00139871
0.00101397
0.000829193
0.000760354
0.000846838
0.000946203
0.000817674
0.00083241
0.00185273
0.00183611
0.00183116
0.00182362
0.00182052
0.00181842
0.00182056
0.00181128
0.00182472
0.00183306
0.00184218
0.0018489
0.0018841
0.00192941
0.00188343
0.00146027
0.00108478
0.000895311
0.000868746
0.00105418
0.000838255
0.000802505
0.000837819
0.001853
0.00183724
0.00183267
0.00182606
0.00181902
0.00182017
0.00182112
0.00181293
0.00182562
0.00183298
0.00184346
0.0018496
0.00188654
0.00193302
0.00187951
0.00153085
0.00116453
0.00100326
0.00105702
0.000978721
0.000768024
0.000739868
0.000847757
0.00185347
0.00183999
0.00183474
0.00182791
0.00181914
0.00182188
0.00182162
0.00181428
0.00182609
0.00183325
0.00184409
0.00184979
0.00188883
0.00193629
0.00187578
0.00162213
0.0012728
0.00113997
0.0011362
0.000883371
0.000739587
0.000706156
0.000882066
0.00185446
0.00184109
0.00183656
0.00182943
0.00181913
0.00182333
0.00182215
0.00181637
0.0018272
0.00183325
0.00184472
0.00185045
0.00189171
0.00193915
0.00186872
0.0017221
0.0014034
0.00129648
0.00105252
0.000837154
0.000725067
0.000687761
0.00079541
0.00185553
0.00184392
0.00183902
0.00183077
0.00182035
0.00182481
0.00182309
0.0018178
0.00182763
0.00183353
0.00184492
0.00185058
0.00189435
0.00194241
0.00186335
0.00170537
0.00147561
0.00123541
0.000988181
0.000813986
0.000724547
0.000694373
0.000806712
0.00185784
0.00184478
0.00184137
0.00183133
0.00182154
0.00182601
0.00182347
0.0018198
0.00182866
0.00183367
0.00184343
0.00184921
0.00189725
0.00194405
0.00185343
0.00168353
0.00143846
0.00119546
0.0009372
0.000797738
0.000735708
0.00067524
0.000782372
0.00185937
0.00184723
0.0018432
0.00183203
0.00182321
0.00182688
0.00182459
0.00182141
0.00182939
0.00183365
0.00184187
0.0018496
0.00189909
0.00194558
0.0018446
0.00166163
0.00140363
0.00114923
0.000927942
0.0007803
0.000717121
0.000677937
0.000834249
0.00186291
0.00184755
0.00184599
0.00183196
0.00182506
0.00182801
0.00182497
0.00182289
0.00182992
0.00183435
0.00184065
0.00185042
0.00190138
0.0019479
0.00183682
0.00165048
0.00139578
0.00114289
0.000917299
0.000768676
0.000704822
0.00068572
0.000788619
0.00186395
0.00184877
0.00184672
0.00183187
0.00182668
0.001828
0.00182586
0.00182464
0.00183093
0.00183365
0.00183892
0.00184992
0.00190302
0.00195251
0.00183267
0.00164808
0.00139336
0.00114026
0.000909701
0.000779968
0.000717541
0.000725854
0.000760139
0.00186729
0.00184838
0.00184845
0.00183141
0.00182824
0.00182851
0.00182585
0.00182572
0.00183119
0.00183466
0.00183835
0.00184979
0.00190354
0.00195768
0.0018332
0.00164299
0.00138814
0.0011371
0.000907112
0.000760675
0.00071206
0.000700431
0.000791289
0.00186734
0.00184747
0.00184837
0.00183045
0.00182937
0.00182843
0.00182686
0.00182675
0.00183149
0.00183472
0.00183652
0.00184984
0.00190419
0.00195977
0.00183605
0.00164708
0.00138389
0.00113525
0.000903403
0.000770859
0.00072059
0.000693047
0.000731339
0.00186845
0.00184667
0.00184883
0.0018302
0.00183045
0.00182754
0.00182614
0.00182842
0.00183233
0.00183497
0.00183612
0.00184981
0.00190298
0.00195791
0.00183762
0.00164635
0.00137859
0.00113409
0.000905674
0.000771948
0.00068893
0.000675746
0.00063498
0.0018688
0.00184437
0.00184848
0.00182958
0.00183048
0.0018285
0.00182791
0.00182876
0.00183191
0.00183285
0.00183598
0.00184957
0.00190296
0.00195923
0.00184063
0.00164425
0.00138559
0.00113344
0.000898176
0.000750901
0.000668706
0.000614409
0.000570362
0.00186823
0.00184564
0.00184975
0.00182995
0.00183305
0.00182819
0.00182831
0.00183162
0.0018334
0.00183155
0.00183473
0.00184952
0.00190337
0.00195908
0.00183886
0.00164373
0.00138453
0.00112862
0.000897632
0.000723828
0.000626397
0.000542405
0.000523758
0.00187077
0.0018431
0.00184999
0.00183082
0.00183347
0.0018282
0.0018284
0.00183157
0.00183307
0.00182931
0.00183337
0.00184944
0.00190246
0.00195974
0.00184211
0.00164021
0.0013759
0.00111634
0.000885699
0.000714749
0.000578248
0.00050501
0.000490666
0.00186608
0.00183522
0.0018443
0.00183018
0.00183136
0.00182634
0.00182839
0.00183009
0.0018304
0.00182732
0.00183341
0.00184922
0.00190343
0.00196016
0.00184142
0.00162904
0.00136865
0.00110573
0.000866786
0.000689499
0.000556906
0.00048891
0.000470423
0.00185869
0.00183078
0.00183711
0.00182388
0.00182992
0.00182028
0.00182262
0.00182758
0.00182826
0.00182455
0.00183239
0.00184976
0.00190179
0.00196012
0.00183932
0.00162676
0.0013544
0.00109195
0.000865254
0.000662019
0.000553924
0.000487853
0.000460744
0.00184575
0.0018222
0.00183084
0.00181859
0.00182668
0.00181783
0.00181943
0.00182308
0.00182434
0.00182267
0.00183313
0.0018496
0.00190273
0.00195639
0.00183448
0.00161686
0.00135237
0.00107298
0.000850487
0.000658095
0.000564073
0.000499306
0.000461325
0.00183446
0.0018137
0.00182481
0.00182119
0.001822
0.00181594
0.00181796
0.00181936
0.00182229
0.00182193
0.00183243
0.00184951
0.00190279
0.00194904
0.00182758
0.00160284
0.00134165
0.0010649
0.000834991
0.000673169
0.000585027
0.000518279
0.000471401
0.00182516
0.00181305
0.00182079
0.00182003
0.00181977
0.00181675
0.0018173
0.00181948
0.00182053
0.00182055
0.00183224
0.00184953
0.00190324
0.00194389
0.00181968
0.00159228
0.00132931
0.00105913
0.000840353
0.000698461
0.000614557
0.000546137
0.000487756
0.00182012
0.00181366
0.00181923
0.00181874
0.00182126
0.00181507
0.00181735
0.00181904
0.00182085
0.00182138
0.00183212
0.00184869
0.00190288
0.0019357
0.00180971
0.00159173
0.00133681
0.0010744
0.000864145
0.000735278
0.000650545
0.00057822
0.00051157
0.00182075
0.00181173
0.00181787
0.00181633
0.00181981
0.00181522
0.00181708
0.00181739
0.0018212
0.00182142
0.00183129
0.0018495
0.0019006
0.00192765
0.00180609
0.00159843
0.00135465
0.0010999
0.000894845
0.000775276
0.000690828
0.000611458
0.000537839
0.00181985
0.00181141
0.00181684
0.00181901
0.00181986
0.00181401
0.001817
0.00181744
0.00182127
0.00182005
0.00183081
0.00184827
0.00189619
0.00191834
0.00180862
0.00161369
0.00138238
0.00113675
0.000937057
0.000823214
0.000734804
0.000647144
0.000566797
0.00181972
0.00181142
0.00181727
0.00181661
0.00181821
0.00181549
0.00181644
0.00181717
0.00182108
0.00182222
0.00183155
0.00184868
0.0018933
0.00191282
0.00181381
0.0016306
0.00141263
0.00117544
0.000978504
0.000867792
0.000776346
0.0006794
0.00059351
0.00181588
0.00181077
0.0018186
0.00181721
0.00181724
0.00181395
0.00181549
0.00181692
0.00182111
0.00182114
0.0018315
0.00184892
0.00189003
0.00190966
0.0018225
0.00165268
0.00144768
0.00122106
0.00102787
0.000918411
0.000821168
0.000711293
0.000624085
0.00181627
0.00180853
0.00181594
0.0018184
0.001817
0.00181366
0.00181544
0.0018169
0.00182154
0.00182103
0.00183225
0.00184909
0.00188841
0.00190783
0.00183117
0.00167237
0.00147964
0.00126107
0.00106938
0.000958879
0.000857728
0.000739956
0.000645461
0.00181666
0.00181129
0.00181835
0.00181484
0.00181599
0.00181361
0.00181747
0.00181724
0.00181887
0.00182044
0.00183235
0.00184848
0.00188401
0.00190757
0.00184188
0.00169486
0.00151463
0.0013063
0.00111786
0.00100546
0.000897971
0.000770044
0.000673972
0.00181536
0.00181051
0.00181592
0.00181669
0.00181604
0.00181175
0.00181586
0.00181627
0.00181992
0.0018219
0.0018309
0.00184884
0.00188058
0.00190731
0.00185023
0.00171158
0.00154074
0.00133853
0.00115159
0.00103613
0.000925791
0.000789656
0.000696946
0.00181694
0.00180821
0.00181555
0.00181668
0.00181586
0.00181122
0.00181487
0.00181655
0.00182018
0.00182048
0.00182993
0.00184669
0.00187638
0.00190855
0.00186049
0.00173157
0.00157251
0.00137904
0.001196
0.0010767
0.000960537
0.000817691
0.000726262
0.00181315
0.00180821
0.00181415
0.00181821
0.0018159
0.00181302
0.00181429
0.00181571
0.0018189
0.00182015
0.00182862
0.00184723
0.00187495
0.0019091
0.00186616
0.0017416
0.00158815
0.00139853
0.00121913
0.00109641
0.000976317
0.000831841
0.000741734
0.00181146
0.00181234
0.00181804
0.00181831
0.00181377
0.00181052
0.00181595
0.00181757
0.00181877
0.00182241
0.00182678
0.00184522
0.00187223
0.00191016
0.00187599
0.00176055
0.00161662
0.00143502
0.0012609
0.00113707
0.00101169
0.000864997
0.00077544
0.00181534
0.00180934
0.00181749
0.00181691
0.00181528
0.00181074
0.00181556
0.00181564
0.00181983
0.00182247
0.00182846
0.00184428
0.00187254
0.00191212
0.001877
0.0017619
0.00162074
0.00144325
0.00127528
0.00114853
0.00101543
0.000875784
0.00077832
0.00181376
0.00180925
0.00181478
0.00181894
0.00181424
0.00181176
0.00181469
0.00181463
0.00182028
0.00182113
0.00182897
0.00184439
0.00187087
0.00191218
0.00188618
0.00177953
0.0016448
0.00147733
0.00131671
0.00119106
0.00104957
0.000919668
0.00081444
0.00181453
0.00181148
0.0018127
0.00181477
0.00181441
0.001814
0.00181726
0.0018163
0.00181936
0.00182147
0.00182713
0.00184321
0.00186893
0.0019116
0.00189428
0.00179684
0.00166651
0.00150913
0.00135705
0.00123464
0.00108772
0.000963695
0.000851354
0.00181274
0.00181284
0.00181072
0.00181592
0.00181694
0.00181408
0.00181419
0.00181674
0.00181697
0.00182029
0.0018258
0.00184316
0.00186728
0.00191019
0.00190174
0.00181516
0.0016882
0.00154215
0.0014002
0.0012824
0.00113505
0.00101334
0.000894403
0.0018144
0.00181197
0.00181067
0.00181106
0.00181931
0.00181569
0.00181295
0.00181609
0.00181455
0.0018161
0.00182659
0.0018426
0.00186503
0.00190763
0.00190886
0.00183341
0.0017112
0.00157563
0.00144589
0.00133499
0.00119229
0.00107247
0.000947541
0.00180829
0.00180786
0.001811
0.00180548
0.00182038
0.00181215
0.00181446
0.00181695
0.00181109
0.00181387
0.00182503
0.0018408
0.00186202
0.00190447
0.00191428
0.00185247
0.00173629
0.00161099
0.00149301
0.00139197
0.00125992
0.00113968
0.00100896
0.00180472
0.00181125
0.00181748
0.00180607
0.0018223
0.00180421
0.00181615
0.00181377
0.00181222
0.00181238
0.00182583
0.0018374
0.00185803
0.00189951
0.00191967
0.00187049
0.00176369
0.00164648
0.00154116
0.00145123
0.00133548
0.00121584
0.0010803
0.00180942
0.00180851
0.00181566
0.00181173
0.00181991
0.00180423
0.00182048
0.00181446
0.00181654
0.0018143
0.00182175
0.00183345
0.00185367
0.0018931
0.00192163
0.00188908
0.00179405
0.00168429
0.00158987
0.00151045
0.00141377
0.00130015
0.00116492
0.00181024
0.00180114
0.00180831
0.00181562
0.00181226
0.00180813
0.00181965
0.0018145
0.00181856
0.00181471
0.00181981
0.00183017
0.00184875
0.00188498
0.00192238
0.00190357
0.00182645
0.00172296
0.00163946
0.00157005
0.00149077
0.00138917
0.00126131
0.00180772
0.0017958
0.00180533
0.00181893
0.00181136
0.00181276
0.00182042
0.00181542
0.00182236
0.00181524
0.00181847
0.00182714
0.00184346
0.00187438
0.00191895
0.00191697
0.00185737
0.00176279
0.00168724
0.00162767
0.00156437
0.00148004
0.00136602
0.00180182
0.00179353
0.00180586
0.00182354
0.00180833
0.00181398
0.00181446
0.00181516
0.00182161
0.0018154
0.00181749
0.00182411
0.00183806
0.00186419
0.00191002
0.00192268
0.00188956
0.00180221
0.00173378
0.00168313
0.00163257
0.00156703
0.00147177
0.00179968
0.00178687
0.00181658
0.00181705
0.00180513
0.00181481
0.00181199
0.00181227
0.00182054
0.00181461
0.00181663
0.00182176
0.00183324
0.00185476
0.00189767
0.00192161
0.00190872
0.00184536
0.00178062
0.00173567
0.00169706
0.00164803
0.00157409
0.00180037
0.00178224
0.00181668
0.00180712
0.00180032
0.00181706
0.00181075
0.00181003
0.00181341
0.00181353
0.00181549
0.00181946
0.00182903
0.00184664
0.00188021
0.00191875
0.00192191
0.00188051
0.00182479
0.00178443
0.0017526
0.00171961
0.00166591
0.00180298
0.00178028
0.00182044
0.00180426
0.00179482
0.00180668
0.00180944
0.00180821
0.00181022
0.00181187
0.00181408
0.0018175
0.00182524
0.00183919
0.00186252
0.00190349
0.00192926
0.00191297
0.00186753
0.00183119
0.00180474
0.00178198
0.00174639
0.00180512
0.00178411
0.00180697
0.00180283
0.00179308
0.0018028
0.00180755
0.00180667
0.00180843
0.00181032
0.00181191
0.001815
0.00182192
0.00183369
0.00184924
0.00187859
0.00191708
0.00193028
0.00190843
0.00187878
0.00185175
0.00183657
0.00181317
0.00180555
0.0017899
0.00180046
0.00180119
0.00179381
0.00180105
0.00180488
0.00180466
0.0018073
0.00180869
0.0018099
0.00181225
0.0018179
0.00182845
0.00183964
0.0018559
0.00189028
0.00191881
0.00192654
0.00191901
0.00190171
0.00188844
0.00187285
0.00180436
0.00179151
0.00179638
0.00179932
0.00179487
0.00180027
0.00180188
0.00180252
0.0018062
0.00180742
0.00180792
0.00180967
0.00181401
0.00182319
0.00183237
0.00184188
0.00186144
0.00188987
0.00191274
0.00192409
0.00192797
0.00192767
0.00191776
0.00180202
0.00179173
0.00179368
0.00179734
0.00179526
0.00179968
0.00179911
0.00180032
0.00180509
0.00180621
0.00180656
0.00180741
0.00181011
0.00181786
0.00182457
0.0018332
0.00184336
0.00186074
0.00188249
0.00190364
0.00191652
0.00193177
0.00194196
0.00179925
0.00179073
0.00179185
0.0017957
0.00179503
0.00179901
0.00179679
0.0017987
0.00180343
0.00180469
0.00180529
0.00180597
0.00180707
0.00181357
0.00181805
0.00182467
0.00183234
0.00184098
0.00185671
0.00187146
0.00189108
0.0019052
0.00192312
0.00179644
0.00178912
0.00179023
0.00179403
0.00179415
0.00179783