/*--------------------------------*- C++ -*----------------------------------*\
  =========                 |
  \\      /  F ield         | OpenFOAM: The Open Source CFD Toolbox
   \\    /   O peration     | Website:  https://openfoam.org
    \\  /    A nd           | Version:  7
     \\/     M anipulation  |
\*---------------------------------------------------------------------------*/
FoamFile
{
    version     2.0;
    format      ascii;
    class       volScalarField;
    location    "68";
    object      omega;
}
// * * * * * * * * * * * * * * * * * * * * * * * * * * * * * * * * * * * * * //

dimensions      [0 0 -1 0 0 0 0];

internalField   nonuniform List<scalar> 
12842
(
3.14738
2.85277
2.65804
2.53333
2.43929
2.37684
2.32779
2.29669
2.27221
2.25508
2.2423
2.23367
2.2298
2.2321
2.23826
2.25806
2.28445
2.33789
2.40227
2.4995
2.57068
2.66298
2.73151
3.13611
2.83572
2.64429
2.52761
2.43737
2.37624
2.32738
2.2964
2.27193
2.25528
2.24256
2.23385
2.23053
2.23345
2.24135
2.25999
2.28843
2.34078
2.40699
2.50996
2.57704
2.66938
2.73198
3.12286
2.80891
2.61313
2.49578
2.41516
2.361
2.31622
2.28873
2.26612
2.25184
2.24036
2.23259
2.23055
2.23395
2.24348
2.26321
2.29618
2.35139
2.41887
2.52042
2.59209
2.67935
2.73065
3.10139
2.79226
2.59539
2.48101
2.40482
2.35358
2.31049
2.28449
2.26284
2.24967
2.23906
2.23173
2.2308
2.23482
2.24558
2.26678
2.30234
2.35866
2.43158
2.5298
2.59799
2.69991
2.74667
3.07782
2.75502
2.56996
2.45284
2.3801
2.33479
2.2958
2.27339
2.25428
2.24392
2.23536
2.22957
2.23052
2.23548
2.24791
2.27158
2.31083
2.37316
2.44379
2.55224
2.61044
2.70219
2.76076
3.05802
2.73405
2.54595
2.4383
2.36914
2.32651
2.28927
2.2682
2.25019
2.24111
2.23347
2.22856
2.23016
2.23589
2.24941
2.27497
2.31711
2.38523
2.45592
2.55768
2.64006
2.72334
2.77243
3.03106
2.70161
2.52365
2.41653
2.3491
2.30951
2.27589
2.25738
2.24177
2.23525
2.22954
2.22656
2.22938
2.23684
2.25231
2.28047
2.32592
2.3982
2.47962
2.56943
2.65282
2.74345
2.79417
3.01377
2.68009
2.5021
2.4018
2.3392
2.30254
2.27032
2.25286
2.23817
2.23268
2.22731
2.2255
2.22864
2.23683
2.25391
2.28369
2.33153
2.40558
2.49919
2.58604
2.67986
2.77587
2.82218
2.98363
2.65438
2.4835
2.38831
2.32633
2.29021
2.26091
2.24471
2.2322
2.22824
2.22413
2.22374
2.22769
2.23785
2.25571
2.28694
2.33716
2.41463
2.51465
2.5932
2.69254
2.79494
2.84997
2.97146
2.62979
2.46412
2.37307
2.31718
2.28382
2.25607
2.24129
2.22956
2.22614
2.22225
2.22276
2.22684
2.23805
2.25686
2.2893
2.34195
2.42202
2.52608
2.61177
2.7139
2.81716
2.87164
2.93582
2.60682
2.44598
2.36351
2.30802
2.27561
2.24943
2.2353
2.22524
2.22284
2.21987
2.22105
2.22598
2.2379
2.25828
2.29253
2.34743
2.43255
2.53548
2.6233
2.73434
2.83706
2.91059
2.92267
2.58487
2.42986
2.34914
2.29926
2.26895
2.24493
2.23211
2.22251
2.22069
2.21807
2.21982
2.22502
2.23802
2.25969
2.29556
2.35406
2.44446
2.54937
2.65059
2.76652
2.86147
2.93542
2.88845
2.56462
2.41318
2.34129
2.2918
2.26261
2.23949
2.22742
2.21879
2.21777
2.21586
2.21805
2.22423
2.23834
2.26141
2.29939
2.36036
2.45666
2.56171
2.67142
2.8007
2.89856
2.98068
2.87568
2.54607
2.40013
2.32878
2.28378
2.25563
2.23509
2.22437
2.21604
2.21562
2.21409
2.21671
2.22313
2.23862
2.26325
2.3034
2.3694
2.4742
2.58238
2.70208
2.83905
2.92865
3.0194
2.84394
2.52812
2.3856
2.322
2.27702
2.25052
2.23038
2.22097
2.2133
2.2132
2.2119
2.21496
2.22258
2.23904
2.26538
2.3085
2.37801
2.48893
2.60324
2.73397
2.88328
2.97554
3.06918
2.8325
2.51289
2.37514
2.31097
2.27028
2.24396
2.22598
2.21776
2.21076
2.21108
2.21014
2.21368
2.22235
2.24011
2.26778
2.31344
2.38985
2.51382
2.62959
2.76751
2.92226
3.01748
3.12388
2.80381
2.49696
2.36265
2.30523
2.26372
2.23962
2.22163
2.21539
2.20906
2.20922
2.20823
2.21222
2.22192
2.24159
2.27045
2.31976
2.4013
2.53182
2.65827
2.80831
2.96804
3.07505
3.18615
2.79428
2.48506
2.35422
2.29507
2.25833
2.2342
2.2175
2.21206
2.20684
2.20733
2.20676
2.21129
2.22231
2.24299
2.27352
2.32618
2.41692
2.56253
2.68787
2.84517
3.0091
3.13697
3.26179
2.76876
2.47099
2.34367
2.29006
2.25234
2.23027
2.21342
2.2102
2.20565
2.20603
2.20555
2.21035
2.22223
2.24456
2.27683
2.33508
2.43157
2.58128
2.72018
2.89363
3.06228
3.21697
3.35325
2.7615
2.46181
2.33649
2.281
2.2475
2.22605
2.20994
2.20718
2.20379
2.20455
2.2045
2.20975
2.22209
2.24815
2.28128
2.34384
2.45119
2.6131
2.75223
2.93821
3.1197
3.30841
3.46642
2.73849
2.44962
2.32798
2.27621
2.24266
2.22235
2.20635
2.20531
2.20271
2.20374
2.2039
2.20921
2.22184
2.24897
2.28522
2.35567
2.46669
2.6313
2.78959
3.0011
3.19504
3.42167
3.60005
2.7343
2.44167
2.32146
2.26864
2.23725
2.21873
2.20373
2.20277
2.20121
2.20271
2.20314
2.20853
2.22267
2.24836
2.2905
2.36652
2.48832
2.66418
2.82957
3.06648
3.28948
3.56053
3.77791
2.71085
2.43135
2.31461
2.26386
2.23318
2.21526
2.20067
2.20095
2.20011
2.20191
2.2024
2.20766
2.22219
2.24848
2.29388
2.37794
2.50118
2.68913
2.88145
3.15419
3.39783
3.71449
3.96538
2.70701
2.42518
2.31048
2.25936
2.22804
2.21269
2.19976
2.19959
2.19942
2.20105
2.20132
2.20613
2.22241
2.25071
2.2968
2.38508
2.52357
2.73144
2.94311
3.25842
3.546
3.92256
4.23407
2.70059
2.41851
2.30727
2.25618
2.22479
2.21153
2.19952
2.19867
2.19837
2.19954
2.19965
2.20428
2.22265
2.25331
2.29828
2.39565
2.54037
2.77781
3.02787
3.3888
3.71161
4.14371
4.4997
2.6923
2.4145
2.30497
2.25345
2.22155
2.21061
2.19897
2.19733
2.19675
2.19727
2.19738
2.2022
2.22255
2.25595
2.30034
2.40395
2.57219
2.83621
3.12934
3.53946
3.90933
4.41217
4.83572
2.68665
2.40866
2.30224
2.24967
2.21899
2.20993
2.19894
2.19545
2.19437
2.19429
2.1948
2.20037
2.22406
2.25836
2.30459
2.42082
2.60596
2.90391
3.25714
3.71917
4.13503
4.69809
5.16966
2.67806
2.40533
2.29987
2.24704
2.21703
2.20946
2.19846
2.19322
2.19151
2.191
2.1921
2.19886
2.22423
2.26092
2.31369
2.44206
2.65758
2.98382
3.39058
3.90712
4.37046
4.98451
5.50328
2.6733
2.40015
2.29724
2.24316
2.2156
2.20848
2.19714
2.19033
2.18833
2.18752
2.1896
2.19817
2.22345
2.2643
2.33221
2.48069
2.71834
3.07593
3.53364
4.09496
4.60383
5.2608
5.81445
2.66474
2.39756
2.29484
2.24061
2.21489
2.20731
2.1952
2.18733
2.18492
2.18431
2.18751
2.19808
2.22434
2.2726
2.36339
2.52532
2.79221
3.17806
3.68259
4.2862
4.83342
5.52077
6.09823
2.6604
2.39286
2.29191
2.23792
2.21388
2.20523
2.19276
2.18407
2.18181
2.18146
2.186
2.19803
2.22776
2.29307
2.40411
2.58878
2.8788
3.28867
3.8271
4.46502
5.05488
5.77132
6.37485
2.65213
2.39046
2.28959
2.23487
2.21304
2.20256
2.18967
2.18123
2.17898
2.17932
2.18503
2.19957
2.24406
2.32985
2.45873
2.65664
2.97012
3.40634
3.98028
4.64561
5.26569
5.99476
6.60287
2.64804
2.38626
2.28661
2.23287
2.21125
2.19936
2.18669
2.17813
2.17666
2.17778
2.18498
2.20855
2.27322
2.37549
2.52018
2.74004
3.07237
3.5238
4.11556
4.80385
5.45868
6.20705
6.835
2.64027
2.38366
2.28457
2.22915
2.20909
2.19556
2.18369
2.17693
2.17501
2.17752
2.18844
2.23339
2.31764
2.43584
2.5934
2.82394
3.1729
3.64689
4.26132
4.96599
5.64561
6.39747
7.01635
2.63651
2.38
2.28246
2.22615
2.20592
2.19204
2.18106
2.17524
2.17483
2.17988
2.20227
2.26973
2.37068
2.50008
2.66825
2.91668
3.27754
3.75925
4.38157
5.09995
5.80355
6.56595
7.19922
2.62934
2.37748
2.27952
2.22207
2.20255
2.18855
2.17904
2.17726
2.17911
2.19071
2.23083
2.32089
2.43566
2.57485
2.75149
3.00723
3.37877
3.87789
4.51183
5.241
5.96589
6.73223
7.3497
2.62597
2.37391
2.27692
2.21746
2.19876
2.18571
2.17902
2.18319
2.19079
2.21413
2.27145
2.37955
2.50343
2.64787
2.83025
3.0976
3.47493
3.97745
4.61493
5.35239
6.09311
6.86225
7.48777
2.61932
2.3715
2.27429
2.21387
2.19519
2.1834
2.18317
2.20252
2.2158
2.24907
2.32523
2.44832
2.57811
2.72682
2.91434
3.18646
3.56972
4.08402
4.72748
5.47371
6.23248
7.0093
7.61797
2.61616
2.36701
2.27181
2.20892
2.19225
2.1837
2.19623
2.2296
2.24893
2.29487
2.38688
2.5186
2.65002
2.79949
2.98885
3.26587
3.65142
4.16806
4.81344
5.56536
6.33608
7.11051
7.7199
2.60978
2.36385
2.27037
2.2065
2.18992
2.1869
2.22053
2.26856
2.29406
2.35018
2.4568
2.59354
2.72453
2.87442
3.06626
3.34633
3.73479
4.25859
4.90958
5.6701
6.45734
7.23929
7.836
2.60663
2.35735
2.26757
2.20301
2.19075
2.19974
2.25404
2.31479
2.34556
2.4119
2.52896
2.66481
2.79212
2.94005
3.13119
3.41142
3.80053
4.32715
4.98041
5.74582
6.54322
7.31765
7.91098
2.60038
2.35353
2.26604
2.20326
2.19683
2.22201
2.29742
2.36855
2.40471
2.47887
2.60355
2.73643
2.85993
3.00595
3.19737
3.47871
3.86987
4.40158
5.0624
5.83771
6.65095
7.42783
8.01598
2.59675
2.3463
2.26322
2.20334
2.21266
2.25495
2.34601
2.42661
2.46686
2.54688
2.6754
2.80122
2.91819
3.06084
3.25008
3.52981
3.92143
4.45705
5.12143
5.9026
6.72217
7.48449
8.06914
2.59114
2.34073
2.26434
2.21353
2.23855
2.29616
2.40091
2.48794
2.53213
2.61597
2.74548
2.86366
2.9762
3.11568
3.30363
3.5828
3.97639
4.51656
5.19192
5.98557
6.81696
7.57657
8.1681
2.58606
2.33524
2.26273
2.22889
2.27264
2.34499
2.45615
2.54917
2.59601
2.68164
2.80941
2.91803
3.02331
3.15874
3.34378
3.62121
4.017
4.56424
5.24382
6.04504
6.87505
7.62097
8.2212
2.58085
2.33084
2.26778
2.257
2.31432
2.3989
2.51376
2.61009
2.65971
2.74609
2.8694
2.96907
3.07081
3.20263
3.38553
3.66186
4.06014
4.61078
5.30368
6.12096
6.95832
7.71414
8.33343
2.57392
2.3259
2.2734
2.28835
2.35954
2.4558
2.56818
2.66772
2.71872
2.80565
2.92161
3.01183
3.1071
3.23456
3.41456
3.68995
4.09159
4.65143
5.35779
6.18122
7.01514
7.76503
8.40231
2.56746
2.32612
2.2876
2.32903
2.40769
2.5138
2.62137
2.72158
2.77486
2.86216
2.96918
3.05173
3.1447
3.26879
3.44654
3.72111
4.12799
4.69453
5.40177
6.24883
7.09149
7.8718
8.55285
2.5606
2.32518
2.30123
2.37163
2.45688
2.57262
2.67163
2.773
2.82747
2.91411
3.01001
3.08467
3.17251
3.29188
3.46679
3.74118
4.15154
4.72562
5.46259
6.31643
7.15573
7.94434
8.64068
2.55406
2.33209
2.32501
2.42178
2.50781
2.63193
2.71982
2.8208
2.87932
2.96227
3.04781
3.1166
3.20217
3.31781
3.48945
3.76157
4.18252
4.77365
5.48445
6.36231
7.1859
8.02279
8.8072
2.54808
2.34343
2.35059
2.47224
2.55724
2.68835
2.76401
2.86489
2.92652
3.0026
3.07854
3.14136
3.22312
3.33326
3.5008
3.77119
4.19649
4.80654
5.56325
6.43775
7.23338
8.07221
8.88501
2.54404
2.36512
2.38422
2.52425
2.60474
2.74049
2.80466
2.90412
2.96834
3.03611
3.10539
3.16402
3.24344
3.34985
3.51361
3.77887
4.20742
4.83492
5.57843
6.46834
7.26149
8.10005
8.98162
2.54174
2.39162
2.42028
2.57601
2.65038
2.78909
2.84378
2.9409
3.00325
3.06304
3.12716
3.18187
3.25842
3.35971
3.51928
3.78159
4.2054
4.82733
5.59621
6.44606
7.26337
8.11797
9.03049
2.54233
2.42729
2.46329
2.62801
2.69452
2.83343
2.88106
2.97359
3.03142
3.08476
3.14566
3.198
3.27216
3.37052
3.52709
3.78332
4.22017
4.81361
5.58921
6.43844
7.23552
8.16107
9.0975
2.54571
2.4674
2.50928
2.67915
2.73679
2.87427
2.91691
3.00309
3.05332
3.10188
3.1604
3.21111
3.28286
3.37719
3.53052
3.78482
4.20817
4.80337
5.58226
6.39876
7.22519
8.19518
9.13513
2.55625
2.51343
2.5613
2.72909
2.77849
2.91152
2.9506
3.02844
3.07061
3.11584
3.17272
3.22301
3.29248
3.38451
3.53644
3.78812
4.19995
4.7935
5.54917
6.39737
7.27749
8.30962
9.21831
2.57217
2.55887
2.61215
2.77281
2.8156
2.94179
2.97845
3.04836
3.08309
3.12613
3.18175
3.23206
3.29933
3.38899
3.53838
3.78511
4.17619
4.75236
5.48025
6.33909
7.28954
8.28836
9.18104
2.59113
2.60234
2.6609
2.81121
2.85024
2.96791
3.00262
3.0651
3.09355
3.13497
3.1894
3.23997
3.30488
3.39263
3.54045
3.78292
4.15906
4.71839
5.43511
6.31736
7.27276
8.28216
9.15842
2.61269
2.6449
2.70855
2.84623
2.88302
2.99028
3.02378
3.07966
3.10244
3.14278
3.19608
3.24735
3.31004
3.39654
3.54447
3.78283
4.15078
4.70032
5.41348
6.28505
7.26868
8.28088
9.14174
2.63577
2.68505
2.75248
2.87642
2.91365
3.0094
3.04163
3.09179
3.11011
3.14976
3.20187
3.25368
3.3143
3.40053
3.54768
3.78624
4.14707
4.68563
5.38782
6.28013
7.29849
8.33892
9.42131
2.66001
2.72256
2.79323
2.90328
2.94175
3.02525
3.05684
3.10241
3.11702
3.15624
3.20702
3.25986
3.31865
3.4048
3.5552
3.78988
4.147
4.6839
5.40269
6.26936
7.31398
8.5478
10.6476
2.68426
2.75703
2.82879
2.92581
2.96734
3.0387
3.06968
3.11107
3.12297
3.16213
3.21162
3.26516
3.32248
3.41024
3.56227
3.80648
4.15632
4.69062
5.39979
6.31571
7.88202
11.3177
16.2712
2.70847
2.78788
2.86055
2.94577
2.99007
3.04995
3.08062
3.11897
3.12884
3.1677
3.2157
3.27032
3.32668
3.41642
3.57547
3.82539
4.20051
4.7289
5.47447
6.53
8.97285
14.368
23.0226
2.73253
2.81614
2.88748
2.96255
3.01042
3.05972
3.09018
3.12523
3.13392
3.17284
3.21953
3.27484
3.33076
3.42339
3.58987
3.85651
4.2426
4.84874
5.70769
7.16056
11.1313
19.0326
31.5252
2.75532
2.84044
2.91089
2.97748
3.02792
3.0683
3.09853
3.13158
3.13942
3.1777
3.22312
3.27918
3.33486
3.43249
3.60967
3.90045
4.34245
4.98008
6.01188
8.37648
13.5443
22.277
36.5993
2.77816
2.86295
2.9307
2.99058
3.04356
3.07622
3.10605
3.13661
3.14423
3.18215
3.22645
3.28283
3.33947
3.44177
3.63331
3.94832
4.45221
5.22313
6.59258
9.50782
15.3969
24.0627
38.9598
2.79884
2.88176
2.94757
3.00228
3.05663
3.08353
3.11275
3.14221
3.14969
3.18657
3.23
3.28684
3.34331
3.45258
3.65855
4.01969
4.60556
5.52229
7.19825
10.8651
16.7675
25.5775
39.1401
2.81905
2.8997
2.96211
3.01328
3.06847
3.09073
3.11918
3.14695
3.15444
3.19041
3.23307
3.2902
3.34846
3.46633
3.69237
4.09038
4.782
5.87019
7.92536
11.7074
17.9343
27.2541
41.7931
2.83719
2.91455
2.97459
3.02354
3.07821
3.09781
3.12459
3.15205
3.15978
3.19451
3.23654
3.29441
3.3529
3.47902
3.72378
4.18599
4.9883
6.25128
8.53835
12.1862
17.7967
27.0598
40.7001
2.85382
2.92963
2.98556
3.03336
3.0874
3.10472
3.13078
3.15685
3.16444
3.1979
3.23953
3.29764
3.35829
3.49611
3.76534
4.27529
5.17008
6.54663
9.07242
12.5723
17.8822
28.0125
42.0586
2.86954
2.94231
2.9959
3.04377
3.09494
3.11218
3.13535
3.1614
3.16934
3.2018
3.24279
3.29775
3.36381
3.51216
3.80448
4.36382
5.34316
6.86621
9.22636
12.7848
18.0775
28.1512
40.7099
2.883
2.95604
3.00508
3.05315
3.10269
3.11921
3.14194
3.16629
3.17404
3.20479
3.24533
3.29812
3.36856
3.52659
3.84046
4.42068
5.40978
6.93411
9.32116
13.0326
18.5158
28.4307
40.8148
2.89735
2.96873
3.01492
3.06427
3.1093
3.12688
3.14638
3.1703
3.17851
3.20883
3.24864
3.29856
3.36892
3.53271
3.86696
4.44792
5.44544
6.9677
9.42202
12.8783
18.1483
27.2762
42.2026
2.90944
2.98186
3.02457
3.07442
3.11638
3.13476
3.15361
3.17518
3.18312
3.21151
3.25029
3.29889
3.3695
3.5355
3.88058
4.47541
5.4707
6.98347
9.45074
13.0636
18.3135
27.1524
40.6689
2.92326
2.99624
3.03457
3.08519
3.12338
3.14207
3.15846
3.17931
3.18805
3.21552
3.25375
3.29908
3.3701
3.53956
3.88525
4.47279
5.49085
6.99389
9.49864
12.8641
18.2458
27.298
40.6287
2.9361
3.00916
3.04558
3.09646
3.12996
3.15062
3.16564
3.18351
3.19201
3.21812
3.25511
3.30046
3.37149
3.54388
3.8898
4.476
5.5142
7.00054
9.4349
12.846
18.4904
26.1854
41.2592
2.94919
3.02367
3.05655
3.10568
3.13757
3.15759
3.17115
3.18833
3.19752
3.22196
3.25594
3.30001
3.37134
3.54245
3.88496
4.4826
5.48861
7.00438
9.50204
12.9665
18.0309
26.121
39.5086
2.96334
3.03797
3.06714
3.11706
3.14369
3.16554
3.17735
3.19193
3.20152
3.2249
3.25694
3.29992
3.37128
3.54363
3.89042
4.48275
5.48543
7.00612
9.41749
13.066
18.0111
26.449
36.6116
2.97696
3.05019
3.07982
3.1262
3.15072
3.17424
3.18464
3.19727
3.20668
3.22985
3.25915
3.29994
3.37244
3.54425
3.8842
4.483
5.49715
7.02848
9.40483
12.7842
18.1997
25.3387
33.2522
2.9928
3.06721
3.09086
3.13855
3.15839
3.18086
3.19132
3.20241
3.21243
3.23536
3.25886
3.30042
3.37138
3.5426
3.88502
4.49708
5.49134
7.02387
9.44412
12.7797
17.6643
23.472
29.7365
3.01054
3.08314
3.10511
3.1505
3.1651
3.19327
3.20156
3.20931
3.21923
3.2393
3.26062
3.299
3.37194
3.54129
3.88326
4.48062
5.50562
7.0282
9.28441
12.8476
16.7004
21.3414
26.4357
3.03099
3.09773
3.11967
3.16149
3.17641
3.19986
3.20794
3.21615
3.22541
3.24249
3.25953
3.29888
3.37006
3.54231
3.88274
4.481
5.46499
7.06327
9.26738
12.5074
15.5417
19.1876
23.4437
3.05011
3.11377
3.1353
3.16283
3.1839
3.20319
3.21146
3.22247
3.22901
3.24412
3.26026
3.29828
3.36971
3.54419
3.88213
4.49058
5.45756
7.02736
9.26585
11.8756
14.3189
17.2655
20.8177
3.06513
3.11907
3.1411
3.1648
3.18788
3.20475
3.21364
3.22215
3.23264
3.24651
3.2603
3.2982
3.3699
3.54041
3.88162
4.48996
5.45783
6.98255
9.049
11.1607
13.1343
15.5245
18.6444
3.07319
3.12164
3.14401
3.1677
3.18826
3.20688
3.21639
3.22277
3.23211
3.24528
3.26012
3.29766
3.3676
3.53846
3.88344
4.46184
5.38048
6.80843
8.66287
10.377
12.0401
14.0648
16.7928
3.07311
3.12198
3.14736
3.17306
3.18906
3.20671
3.21497
3.22558
3.2342
3.24622
3.26016
3.29747
3.36733
3.53705
3.87257
4.41572
5.26891
6.58806
8.25254
9.66889
11.075
12.885
15.3059
3.07433
3.12221
3.14876
3.17117
3.19028
3.2092
3.21499
3.22519
3.23252
3.24677
3.26088
3.29775
3.36822
3.53594
3.8481
4.34946
5.1282
6.32138
7.78839
8.97429
10.22
11.8884
14.0835
3.07914
3.12505
3.14841
3.17242
3.19034
3.2081
3.21562
3.22545
3.23238
3.24465
3.25887
3.29793
3.36708
3.53061
3.82116
4.28394
4.99087
6.07222
7.38738
8.4151
9.53886
11.1205
13.1338
3.08185
3.12432
3.14878
3.17164
3.19196
3.20805
3.21718
3.2274
3.23217
3.24462
3.25873
3.2972
3.36446
3.51969
3.787
4.20916
4.84658
5.8106
6.97536
7.87714
8.91677
10.4796
12.2756
3.07942
3.12825
3.14977
3.17135
3.19215
3.20832
3.21847
3.22623
3.23209
3.24481
3.25823
3.2958
3.36086
3.51032
3.75723
4.14639
4.72523
5.60091
6.66316
7.49215
8.46983
9.96856
11.7029
3.07902
3.12522
3.14927
3.17395
3.19391
3.20913
3.21582
3.22617
3.23408
3.24523
3.25785
3.2947
3.35992
3.49662
3.72281
4.07894
4.60071
5.38455
6.33929
7.10225
8.03617
9.50028
11.0816
3.08014
3.1265
3.14967
3.17063
3.19507
3.20885
3.2155
3.22648
3.23174
3.24263
3.2586
3.29191
3.36034
3.48781
3.69795
4.03066
4.51283
5.23936
6.13006
6.86529
7.75988
9.21567
10.6341
3.0794
3.12569
3.14935
3.17071
3.19152
3.20948
3.21668
3.22602
3.23162
3.24211
3.25769
3.29123
3.35907
3.47345
3.66705
3.97458
4.41062
5.07021
5.87982
6.57889
7.44602
8.84904
10.1189
3.07934
3.12626
3.15103
3.17065
3.19082
3.20714
3.2166
3.22664
3.2306
3.24225
3.25681
3.28806
3.35756
3.46675
3.6511
3.9459
4.36088
4.98975
5.75488
6.447
7.30733
8.67376
9.86423
3.08127
3.12058
3.14622
3.17057
3.19275
3.20756
3.21286
3.22343
3.23055
3.23908
3.25628
3.28755
3.3528
3.45248
3.62232
3.89545
4.27478
4.85128
5.54785
6.1954
7.02704
8.30058
9.37255
3.0748
3.11954
3.14577
3.17186
3.18963
3.2069
3.21237
3.22307
3.22969
3.23888
3.25289
3.28961
3.35209
3.44862
3.61788
3.88851
4.25965
4.81719
5.47755
6.12585
6.99083
8.18033
9.30027
3.07454
3.11918
3.14804
3.1667
3.18954
3.20572
3.21276
3.22391
3.22934
3.23957
3.25163
3.28569
3.34408
3.43494
3.59145
3.84288
4.18843
4.69584
5.29221
5.89016
6.7396
7.7612
8.84338
3.07182
3.11692
3.14764
3.17019
3.18807
3.20225
3.20778
3.22198
3.22912
3.23543
3.25211
3.28273
3.33635
3.42149
3.56633
3.79873
4.12593
4.58695
5.12361
5.66892
6.48177
7.38088
8.42993
3.07116
3.11432
3.14549
3.16442
3.18455
3.20009
3.20651
3.21994
3.23044
3.23485
3.25004
3.27531
3.32662
3.40734
3.54066
3.7529
4.0638
4.47846
4.95383
5.44259
6.19301
6.98727
7.98613
3.06765
3.11065
3.14107
3.16644
3.18075
3.19228
3.20691
3.21687
3.22872
3.23611
3.24368
3.26835
3.31709
3.39253
3.51438
3.7067
4.00013
4.37141
4.7851
5.21215
5.88125
6.57546
7.49872
3.0654
3.10933
3.13532
3.1645
3.17438
3.19005
3.20573
3.20997
3.22571
3.23563
3.24093
3.26196
3.30698
3.37615
3.48657
3.65934
3.93263
4.26386
4.62031
4.98008
5.54544
6.16273
7.01234
3.06786
3.09678
3.12251
3.15959
3.1627
3.19172
3.19968
3.2085
3.2205
3.23249
3.23367
3.25768
3.29758
3.35928
3.4579
3.61122
3.86105
4.15908
4.46206
4.75843
5.20667
5.74996
6.52805
3.06222
3.09351
3.11868
3.15093
3.15874
3.18705
3.18686
3.20297
3.21273
3.22662
3.23334
3.25286
3.28683
3.34124
3.42803
3.56189
3.7846
4.05305
4.31036
4.55426
4.89338
5.34883
6.02855
3.05381
3.09741
3.12048
3.13874
3.16007
3.17943
3.18089
3.19468
3.20294
3.21954
3.22892
3.2466
3.27618
3.32334
3.39809
3.51295
3.70395
3.95024
4.16809
4.36629
4.61756
4.97669
5.52923
3.04458
3.09262
3.11155
3.12215
3.15326
3.16111
3.16899
3.18606
3.18701
3.20945
3.22103
3.23749
3.26357
3.30413
3.36793
3.46386
3.6217
3.84256
4.03368
4.19616
4.38066
4.64578
5.06708
3.0344
3.08394
3.09643
3.0999
3.14537
3.14893
3.16868
3.18005
3.17858
3.19975
3.21185
3.22764
3.2504
3.28498
3.33894
3.41712
3.54003
3.73836
3.90644
4.04111
4.17862
4.36604
4.67309
3.02299
3.07099
3.06843
3.09155
3.13503
3.13448
3.15886
3.17051
3.16679
3.18812
3.19901
3.21373
3.23384
3.2631
3.30896
3.37151
3.46509
3.62762
3.78386
3.9006
4.0024
4.13005
4.34012
3.00716
3.0558
3.05541
3.09233
3.12392
3.11538
3.14633
3.15803
3.16437
3.17603
3.18557
3.19915
3.21627
3.24057
3.27931
3.32977
3.39928
3.5208
3.66324
3.77166
3.8564
3.94128
4.07947
2.98358
3.03503
3.03001
3.0797
3.10764
3.11215
3.12911
3.14066
3.1506
3.15969
3.16792
3.17968
3.19447
3.21433
3.24657
3.28824
3.33848
3.42329
3.54138
3.64258
3.71789
3.77868
3.8702
2.95889
3.01187
3.03029
3.06245
3.08934
3.09785
3.11025
3.12171
3.13368
3.14202
3.15
3.16016
3.17228
3.18823
3.21403
3.2499
3.28664
3.34109
3.43427
3.52109
3.59623
3.64069
3.70332
2.93108
2.98285
3.01202
3.03748
3.06422
3.07492
3.08548
3.09676
3.1091
3.11792
3.12577
3.13477
3.14527
3.15778
3.17787
3.20806
3.23645
3.27099
3.33053
3.40682
3.47483
3.5186
3.56454
2.90406
2.953
2.9878
3.00998
3.03667
3.04923
3.05983
3.07046
3.08273
3.09211
3.10044
3.10899
3.11825
3.1284
3.14333
3.16885
3.19304
3.21583
3.25074
3.30168
3.36848
3.40976
3.4549
2.87128
2.91696
2.9538
2.97448
3.00043
3.01474
3.02639
3.03648
3.04769
3.05754
3.06598
3.07446
3.0836
3.0919
3.10287
3.12254
3.14367
3.16052
3.18302
3.20959
3.25698
3.29793
3.3413
2.83727
2.88093
2.91748
2.93783
2.96254
2.97863
2.99206
3.00165
3.01232
3.02237
3.03071
3.03895
3.04835
3.05622
3.06442
3.07884
3.09865
3.11199
3.12914
3.14429
3.17128
3.20012
3.23652
2.79353
2.83632
2.87101
2.89166
2.91444
2.93178
2.94682
2.95636
2.96607
2.9762
2.98433
2.99183
3.00114
3.00876
3.01525
3.02406
3.0405
3.05272
3.06822
3.07822
3.09598
3.11103
3.13752
2.74796
2.79126
2.82389
2.84544
2.86646
2.88465
2.90119
2.9109
2.92054
2.93072
2.93868
2.94535
2.95447
2.96273
2.96935
2.97507
2.9866
2.99558
3.01116
3.02006
3.03404
3.04436
3.06059
2.68987
2.73353
2.76404
2.78644
2.80568
2.82381
2.84085
2.85076
2.85985
2.87009
2.87824
2.88359
2.89088
2.8988
2.90603
2.9103
2.91821
2.92423
2.9353
2.94407
2.95609
2.96468
2.97767
2.6321
2.6759
2.70534
2.7288
2.74705
2.76489
2.78225
2.79244
2.80134
2.81139
2.82034
2.82612
2.83203
2.83865
2.84705
2.85105
2.85798
2.86236
2.87007
2.87676
2.88767
2.89466
2.90713
2.55937
2.60158
2.62986
2.65361
2.67082
2.68751
2.70401
2.71422
2.7223
2.73128
2.7399
2.74575
2.75095
2.75504
2.76245
2.76661
2.77242
2.77601
2.7815
2.78554
2.79364
2.79891
2.80838
2.49125
2.53119
2.55919
2.58327
2.60027
2.61599
2.63192
2.6423
2.65039
2.65856
2.66711
2.67329
2.67952
2.68294
2.68909
2.69328
2.6995
2.70292
2.70825
2.71136
2.71743
2.72148
2.7289
2.40393
2.43954
2.46588
2.48894
2.50487
2.51871
2.53255
2.54247
2.54971
2.55633
2.56355
2.56815
2.57392
2.57671
2.58118
2.584
2.58898
2.59202
2.59657
2.59901
2.60327
2.60599
2.61113
2.32792
2.35953
2.38486
2.40714
2.42305
2.43561
2.44829
2.45774
2.46569
2.47155
2.47923
2.48333
2.48919
2.4921
2.49681
2.49926
2.50367
2.50634
2.51114
2.51353
2.51774
2.51991
2.5241
2.22446
2.24976
2.27145
2.29073
2.30469
2.31503
2.32428
2.33174
2.33847
2.34253
2.34859
2.35179
2.35595
2.3581
2.36137
2.36323
2.36618
2.36795
2.37112
2.37298
2.37612
2.37777
2.38087
2.14443
2.16565
2.18523
2.20258
2.21616
2.22575
2.23449
2.23967
2.24682
2.25028
2.25613
2.25939
2.26399
2.26609
2.26952
2.27127
2.27453
2.27623
2.27934
2.28108
2.28427
2.28587
2.28895
2.02187
2.03422
2.0476
2.05916
2.06886
2.07532
2.08111
2.08383
2.08712
2.08909
2.09163
2.09352
2.09609
2.09756
2.09949
2.10059
2.1023
2.10345
2.10533
2.1065
2.10857
2.10971
2.11164
1.94332
1.95567
1.96822
1.97806
1.98675
1.99257
1.99795
2.00053
2.00329
2.0049
2.00718
2.00869
2.01097
2.01248
2.01442
2.01549
2.01719
2.01826
2.02
2.02105
2.02286
2.02389
2.02559
1.78262
1.78005
1.77989
1.78014
1.78104
1.78151
1.78249
1.78221
1.78207
1.78076
1.7804
1.77967
1.77927
1.77875
1.77891
1.77961
1.77961
1.77979
1.78044
1.78137
1.78231
1.78243
1.78325
3.06257
2.7379
2.55002
2.44012
2.36768
2.3216
2.28281
2.26
2.24136
2.23329
2.22548
2.22135
2.22155
2.22459
2.23295
2.24982
2.27922
2.3297
2.40737
2.48342
2.57999
2.63118
2.70575
3.0751
2.74906
2.56183
2.45829
2.38262
2.33318
2.291
2.26681
2.24735
2.23806
2.2298
2.22516
2.2242
2.22704
2.23514
2.25244
2.2816
2.33235
2.40858
2.47563
2.57471
2.6279
2.70511
3.09294
2.77743
2.58859
2.47214
2.3923
2.34157
2.29628
2.27181
2.25142
2.24233
2.23338
2.22803
2.22546
2.22811
2.23604
2.25366
2.28272
2.33438
2.40775
2.4793
2.56966
2.62932
2.709
3.10893
2.79093
2.60004
2.48831
2.40442
2.34886
2.30323
2.27856
2.25976
2.24803
2.23696
2.22998
2.22677
2.22937
2.2368
2.25422
2.28235
2.33627
2.41
2.4735
2.56458
2.6297
2.70434
3.12219
2.82057
2.63221
2.50952
2.41954
2.36224
2.3154
2.29062
2.2673
2.25237
2.23978
2.2321
2.22811
2.23046
2.2369
2.25676
2.28339
2.33655
2.40651
2.47472
2.57117
2.63462
2.71121
3.13848
2.83986
2.641
2.51545
2.42493
2.36681
2.32364
2.29548
2.27057
2.25438
2.24119
2.23306
2.22882
2.23108
2.23719
2.25779
2.28637
2.3385
2.40784
2.47535
2.5771
2.63666
2.72294
3.14919
2.85114
2.65781
2.53513
2.44403
2.38366
2.33505
2.30258
2.27605
2.25752
2.24388
2.23424
2.22963
2.23186
2.23647
2.2639
2.28933
2.34708
2.41012
2.48921
2.57779
2.64516
2.74007
3.15145
2.85844
2.66471
2.53898
2.44466
2.38305
2.3344
2.30181
2.2754
2.25671
2.24333
2.2336
2.22955
2.23188
2.23666
2.26357
2.28802
2.34585
2.408
2.49473
2.57827
2.65917
2.74809
2.85596
2.53077
2.38557
2.31551
2.27178
2.24169
2.22509
2.21662
2.20932
2.2061
2.20271
2.20295
2.20483
2.21029
2.22376
2.2491
2.29423
2.36932
2.48459
2.66526
2.87337
3.07888
3.23462
2.87204
2.53849
2.39274
2.32046
2.27589
2.24532
2.22729
2.21839
2.21058
2.2074
2.20375
2.20385
2.20543
2.21085
2.2241
2.24853
2.29147
2.36192
2.46995
2.64008
2.82753
3.00066
3.13699
2.8743
2.54642
2.39806
2.32641
2.28071
2.24913
2.23002
2.22077
2.21195
2.20885
2.20472
2.20438
2.20616
2.21138
2.22431
2.24781
2.28954
2.35802
2.46255
2.62231
2.7895
2.94088
3.07297
2.89046
2.55545
2.40625
2.33203
2.28505
2.25307
2.23255
2.223
2.21367
2.21051
2.20592
2.2052
2.20666
2.21174
2.22438
2.24707
2.28681
2.35133
2.45016
2.5967
2.76016
2.88734
3.01235
2.89469
2.56484
2.4124
2.33858
2.29041
2.25734
2.23527
2.22522
2.21515
2.21195
2.20712
2.2059
2.20745
2.21233
2.22436
2.24671
2.28535
2.34799
2.44451
2.57855
2.7353
2.83526
2.96049
2.91259
2.57547
2.42218
2.34491
2.2953
2.26175
2.23866
2.22774
2.21692
2.21339
2.20828
2.20673
2.20808
2.21277
2.22464
2.2465
2.28278
2.34166
2.43404
2.55413
2.70429
2.79544
2.91928
2.91847
2.58676
2.42988
2.35225
2.30083
2.26645
2.24162
2.23029
2.21909
2.21524
2.20974
2.20787
2.20915
2.21359
2.22473
2.24714
2.28218
2.33924
2.43061
2.53958
2.68129
2.75756
2.87841
2.93844
2.59931
2.44057
2.35915
2.30661
2.27152
2.24559
2.23255
2.22078
2.21662
2.21109
2.2089
2.21007
2.21435
2.22499
2.24691
2.28221
2.33619
2.4238
2.52019
2.65077
2.73316
2.85098
2.94571
2.61258
2.45141
2.36772
2.31268
2.27653
2.24952
2.23585
2.2234
2.21856
2.21265
2.21035
2.21143
2.21545
2.22538
2.24593
2.28243
2.3356
2.42231
2.50626
2.63346
2.70993
2.81356
2.96781
2.62796
2.46222
2.37533
2.31919
2.28255
2.25378
2.23826
2.22542
2.22042
2.21422
2.21165
2.2126
2.21644
2.22598
2.24627
2.28211
2.33717
2.41798
2.49584
2.61591
2.69478
2.79465
2.97603
2.64244
2.47618
2.38541
2.32686
2.28801
2.25844
2.24184
2.22789
2.22216
2.21595
2.21321
2.21409
2.21773
2.22685
2.24675
2.28016
2.33155
2.41305
2.48726
2.60848
2.68253
2.77336
3.00007
2.66227
2.48807
2.39404
2.33337
2.29455
2.26336
2.24533
2.2304
2.22444
2.21763
2.21465
2.21539
2.2189
2.22801
2.2466
2.27987
2.32798
2.40731
2.48301
2.6088
2.68005
2.75816
3.00857
2.67619
2.50277
2.40599
2.34347
2.30179
2.26811
2.24853
2.23266
2.22623
2.21959
2.21629
2.21697
2.22034
2.22899
2.24802
2.28014
2.32755
2.4076
2.48144
2.60731
2.66821
2.73988
3.03347
2.70094
2.51753
2.41527
2.34948
2.30737
2.27317
2.25274
2.2354
2.22836
2.22119
2.21769
2.21827
2.22151
2.23009
2.2484
2.2783
2.32776
2.40737
2.48329
2.60079
2.6597
2.72486
3.04214
2.71293
2.53106
2.42984
2.36135
2.3166
2.27858
2.25614
2.23801
2.2307
2.22364
2.21959
2.22001
2.22321
2.23163
2.24932
2.27943
2.32927
2.40769
2.4835
2.60008
2.64634
2.71183
2.74331
2.4332
2.35724
2.38669
2.40465
2.52742
2.63091
2.7135
2.79972
2.87128
2.94804
3.01488
3.06965
3.12281
3.18326
3.26036
3.37266
3.52935
3.74609
4.01749
4.34134
4.70404
5.03848
2.74925
2.43244
2.33386
2.33893
2.35268
2.46765
2.56461
2.64955
2.7365
2.81455
2.89717
2.97204
3.03346
3.09124
3.1542
3.2364
3.34926
3.50642
3.72195
3.9921
4.30491
4.66624
4.99516
2.75258
2.43752
2.32781
2.31553
2.31628
2.41827
2.50846
2.59129
2.67647
2.75259
2.84302
2.92411
2.99355
3.05702
3.12502
3.20804
3.32494
3.48469
3.69833
3.96825
4.2834
4.64457
4.97226
2.75765
2.44127
2.32068
2.28585
2.27726
2.36587
2.44599
2.52654
2.60949
2.68648
2.7825
2.86994
2.94528
3.01459
3.08653
3.17426
3.29297
3.45464
3.66795
3.93741
4.24522
4.60448
4.92852
2.75947
2.44911
2.32193
2.27246
2.25418
2.32484
2.39454
2.46728
2.54233
2.61643
2.7153
2.80947
2.8909
2.96838
3.04626
3.13623
3.25905
3.42469
3.63703
3.90796
4.21903
4.57591
4.90305
2.76308
2.45453
2.32291
2.26335
2.2311
2.28481
2.34346
2.40769
2.47537
2.54697
2.64656
2.74396
2.83277
2.91416
2.9964
3.09129
3.21695
3.38578
3.59838
3.86947
4.17732
4.53208
4.85576
2.76592
2.46281
2.32718
2.26433
2.22297
2.25767
2.30349
2.35688
2.41164
2.47472
2.57424
2.6749
2.76775
2.85679
2.9435
3.0419
3.17162
3.34472
3.55794
3.83226
4.14449
4.4934
4.82469
2.76851
2.46727
2.32933
2.26366
2.21832
2.23296
2.26755
2.30908
2.35337
2.41186
2.5022
2.60295
2.70047
2.79245
2.88406
2.98584
3.11858
3.2954
3.5096
3.78414
4.09601
4.44405
4.7742
2.77244
2.47301
2.33391
2.26747
2.2196
2.22122
2.24286
2.2724
2.30218
2.34894
2.43493
2.53256
2.63092
2.72686
2.82076
2.92519
3.06167
3.24147
3.4578
3.73741
4.05497
4.39333
4.73319
2.77625
2.47542
2.33598
2.26978
2.22213
2.2129
2.22292
2.24223
2.26145
2.29968
2.37056
2.46272
2.56016
2.65712
2.75272
2.8599
2.9986
3.18103
3.39922
3.67857
3.99677
4.33621
4.67862
2.78
2.47892
2.34002
2.27486
2.22664
2.21317
2.21202
2.21994
2.228
2.25612
2.3164
2.39934
2.49272
2.58857
2.68563
2.79086
2.93218
3.11486
3.3359
3.62115
3.94515
4.27346
4.6255
2.78542
2.4803
2.34198
2.27768
2.23136
2.21431
2.20715
2.20718
2.20766
2.225
2.2702
2.34119
2.42672
2.52008
2.61346
2.72061
2.86232