/*--------------------------------*- C++ -*----------------------------------*\
  =========                 |
  \\      /  F ield         | OpenFOAM: The Open Source CFD Toolbox
   \\    /   O peration     | Website:  https://openfoam.org
    \\  /    A nd           | Version:  7
     \\/     M anipulation  |
\*---------------------------------------------------------------------------*/
FoamFile
{
    version     2.0;
    format      ascii;
    class       volScalarField;
    location    "68";
    object      p;
}
// * * * * * * * * * * * * * * * * * * * * * * * * * * * * * * * * * * * * * //

dimensions      [0 2 -2 0 0 0 0];

internalField   nonuniform List<scalar> 
12842
(
-0.028906
-0.0352897
-0.0516939
-0.0784269
-0.1109
-0.144296
-0.174495
-0.195859
-0.198972
-0.168818
-0.0836578
0.0847518
0.368888
0.801182
1.40732
2.19828
3.16495
4.27619
5.48197
6.72066
7.93159
9.06037
10.0758
-0.117873
-0.132521
-0.164806
-0.220287
-0.292928
-0.378297
-0.475158
-0.581641
-0.69195
-0.794004
-0.867612
-0.883821
-0.806324
-0.595117
-0.213493
0.362951
1.13904
2.09551
3.18987
4.36203
5.54774
6.68183
7.72599
-0.188312
-0.212734
-0.259984
-0.342474
-0.451396
-0.583293
-0.740518
-0.925176
-1.13517
-1.3615
-1.5858
-1.77879
-1.90086
-1.90517
-1.74506
-1.38415
-0.805381
-0.0177921
0.942743
2.01749
3.14045
4.23738
5.26742
-0.24411
-0.275792
-0.337877
-0.446089
-0.58772
-0.761421
-0.973784
-1.23094
-1.53451
-1.87881
-2.24764
-2.61192
-2.92937
-3.14703
-3.20918
-3.06848
-2.6968
-2.09391
-1.28937
-0.340211
0.687423
1.71198
2.69406
-0.288337
-0.32282
-0.400092
-0.531995
-0.7022
-0.912773
-1.17496
-1.49878
-1.8896
-2.34553
-2.85311
-3.38438
-3.8952
-4.32748
-4.61722
-4.70684
-4.55751
-4.15976
-3.53615
-2.74089
-1.83807
-0.915349
-0.00682897
-0.323067
-0.356
-0.448919
-0.601441
-0.795572
-1.03771
-1.34383
-1.72744
-2.19779
-2.75728
-3.39595
-4.08807
-4.7888
-5.4361
-5.95868
-6.28941
-6.37896
-6.20833
-5.79184
-5.17937
-4.43054
-3.63784
-2.8272
-0.349841
-0.377996
-0.48665
-0.656021
-0.869281
-1.13754
-1.48117
-1.91661
-2.45706
-3.10984
-3.86919
-4.71297
-5.59699
-6.45686
-7.21523
-7.79643
-8.14088
-8.21983
-8.03787
-7.63909
-7.07556
-6.44373
-5.75695
-0.370049
-0.391494
-0.515284
-0.697445
-0.9252
-1.21425
-1.58868
-2.06721
-2.66727
-3.40156
-4.26921
-5.25313
-6.31124
-7.3786
-8.37321
-9.21203
-9.82556
-10.1753
-10.2545
-10.1003
-9.75358
-9.31498
-8.77838
-0.385808
-0.398644
-0.535886
-0.726121
-0.962753
-1.26577
-1.66115
-2.16909
-2.81064
-3.60337
-4.5509
-5.64174
-6.8369
-8.07281
-9.26497
-10.3255
-11.1768
-11.7726
-12.0948
-12.1748
-12.0382
-11.7968
-11.409
-0.401608
-0.403129
-0.554705
-0.750776
-0.993982
-1.30832
-1.71981
-2.25004
-2.92296
-3.75997
-4.76831
-5.94135
-7.24307
-8.61195
-9.96242
-11.204
-12.2539
-13.0601
-13.5957
-13.8867
-13.9459
-13.8866
-13.6534
-0.413386
-0.405176
-0.571508
-0.77216
-1.02148
-1.3468
-1.77294
-2.32351
-3.0252
-3.9031
-4.96801
-6.2184
-7.62163
-9.11911
-10.6253
-12.0485
-13.3019
-14.3292
-15.0948
-15.619
-15.9015
-16.0539
-16.0086
-0.42124
-0.405572
-0.586013
-0.789674
-1.04459
-1.37998
-1.81871
-2.38725
-3.11469
-4.02983
-5.14713
-6.47054
-7.97134
-9.59476
-11.2562
-12.8642
-14.3286
-15.5897
-16.6033
-17.3837
-17.9167
-18.3096
-18.481
-0.426267
-0.405131
-0.598444
-0.80365
-1.06383
-1.40804
-1.85726
-2.44149
-3.19183
-4.1409
-5.30697
-6.69992
-8.29557
-10.0438
-11.8619
-13.6593
-15.3435
-16.8519
-18.1314
-19.1898
-19.9985
-20.6576
-21.0729
-0.429284
-0.404353
-0.608981
-0.81469
-1.08006
-1.4318
-1.88981
-2.48794
-3.25889
-4.23926
-5.45129
-6.91118
-8.59977
-10.4723
-12.4486
-14.4401
-16.3524
-18.12
-19.6815
-21.0374
-22.1438
-23.0913
-23.7755
-0.43084
-0.403472
-0.617679
-0.82339
-1.09398
-1.45199
-1.91753
-2.52821
-3.31796
-4.32754
-5.58325
-7.10793
-8.88779
-10.8841
-13.02
-15.2096
-17.3569
-19.3945
-21.2519
-22.9217
-24.3445
-25.5988
-26.5726
-0.431323
-0.402621
-0.624626
-0.83032
-1.10602
-1.46913
-1.94126
-2.56336
-3.37034
-4.40728
-5.70455
-7.29185
-9.16114
-11.2803
-13.5765
-15.9672
-18.3553
-20.6713
-22.8354
-24.8317
-26.5843
-28.1577
-29.4344
-0.431086
-0.401839
-0.630004
-0.835999
-1.11644
-1.48355
-1.96155
-2.59401
-3.41672
-4.4792
-5.81582
-7.46336
-9.41983
-11.6603
-14.1167
-16.7104
-19.3433
-21.9435
-24.4211
-26.7502
-28.8388
-30.7343
-32.3179
-0.430384
-0.401109
-0.634089
-0.840818
-1.12534
-1.49553
-1.97873
-2.62045
-3.45732
-4.54337
-5.91685
-7.62179
-9.66252
-12.0219
-14.6373
-17.4342
-20.3132
-23.1993
-25.9913
-28.6516
-31.0719
-33.2813
-35.1628
-0.429404
-0.400368
-0.637186
-0.845024
-1.13278
-1.50531
-1.99305
-2.64284
-3.49223
-4.5997
-6.00722
-7.76618
-9.88749
-12.3624
-15.1338
-18.1317
-21.2545
-24.4226
-27.5217
-30.5011
-33.2361
-35.7368
-37.8919
-0.428264
-0.399569
-0.639614
-0.848731
-1.13881
-1.51313
-2.00471
-2.66135
-3.52154
-4.64815
-6.08661
-7.89578
-10.0933
-12.6791
-15.6018
-18.7955
-22.1549
-25.594
-28.9833
-32.2573
-35.2757
-38.0297
-40.4176
-0.427048
-0.398681
-0.641573
-0.851902
-1.14349
-1.51917
-2.01386
-2.67609
-3.54533
-4.68866
-6.1547
-8.0098
-10.2782
-12.9689
-16.036
-19.4164
-22.9994
-26.6901
-30.3416
-33.872
-37.1274
-40.0821
-42.6469
-0.425771
-0.397753
-0.643348
-0.854599
-1.14701
-1.52373
-2.02071
-2.68728
-3.56376
-4.72125
-6.21116
-8.1073
-10.4404
-13.2282
-16.4296
-19.983
-23.7698
-27.6832
-31.5572
-35.2931
-38.726
-41.8169
-44.4927
-0.424345
-0.396738
-0.644709
-0.856499
-1.14928
-1.52676
-2.02525
-2.69499
-3.57699
-4.74607
-6.25603
-8.18787
-10.5783
-13.4534
-16.7756
-20.483
-24.4462
-28.5442
-32.5904
-36.4701
-40.0125
-43.1698
-45.8855
-0.421953
-0.396018
-0.646365
-0.858307
-1.15127
-1.52932
-2.0286
-2.70027
-3.58564
-4.76255
-6.28659
-8.24523
-10.6808
-13.6273
-17.0506
-20.8871
-24.9951
-29.2368
-33.4049
-37.3687
-40.955
-44.1106
-46.795
-0.423954
-0.397869
-0.650385
-0.862169
-1.15526
-1.53369
-2.03324
-2.70578
-3.5927
-4.77415
-6.30737
-8.28547
-10.756
-13.7597
-17.2639
-21.2006
-25.4132
-29.7438
-33.9662
-37.9361
-41.4855
-44.564
-47.1514
-0.425489
-0.400047
-0.654683
-0.866539
-1.16034
-1.53978
-2.04046
-2.71496
-3.60473
-4.79169
-6.33424
-8.32986
-10.8296
-13.8779
-17.4409
-21.4424
-25.7091
-30.063
-34.2644
-38.1624
-41.603
-44.5458
-46.9911
-0.426094
-0.402021
-0.658231
-0.870103
-1.16475
-1.54527
-2.04724
-2.72389
-3.6166
-4.8086
-6.35891
-8.36815
-10.889
-13.9673
-17.5651
-21.5953
-25.8681
-30.1873
-34.3066
-38.0755
-41.3601
-44.1332
-46.4119
-0.426291
-0.403878
-0.660924
-0.872639
-1.16795
-1.54921
-2.05206
-2.73024
-3.62489
-4.82012
-6.37511
-8.39253
-10.9251
-14.0176
-17.6257
-21.6499
-25.8848
-30.1203
-34.1101
-37.71
-40.8095
-43.3952
-45.4978
-0.426204
-0.405588
-0.662809
-0.874379
-1.17021
-1.55194
-2.0553
-2.73439
-3.62992
-4.82651
-6.38303
-8.4031
-10.9377
-14.0287
-17.6229
-21.6078
-25.7652
-29.8754
-33.6984
-37.1012
-39.9973
-42.3876
-44.3133
-0.425754
-0.407054
-0.664027
-0.87568
-1.17204
-1.55418
-2.05794
-2.73758
-3.63328
-4.82978
-6.38507
-8.40255
-10.9298
-14.0035
-17.5603
-21.4746
-25.5183
-29.4681
-33.0954
-36.2818
-38.9647
-41.1581
-42.9101
-0.425032
-0.408264
-0.664838
-0.876922
-1.17391
-1.55651
-2.06068
-2.74064
-3.63596
-4.83107
-6.38252
-8.39225
-10.9028
-13.9435
-17.44
-21.2547
-25.1529
-28.9133
-32.3233
-35.2818
-37.7482
-39.7475
-41.332
-0.424314
-0.40933
-0.66556
-0.878398
-1.1761
-1.55919
-2.06371
-2.7437
-3.63801
-4.83036
-6.37525
-8.37193
-10.8562
-13.8487
-17.2632
-20.9516
-24.6769
-28.2247
-31.4029
-34.1278
-36.3792
-38.1903
-39.6152
-0.423852
-0.410357
-0.666425
-0.880247
-1.17866
-1.56217
-2.06689
-2.74647
-3.639
-4.82709
-6.36254
-8.34075
-10.7893
-13.7188
-17.0309
-20.5693
-24.0985
-27.4162
-30.3529
-32.8433
-34.8839
-36.5143
-37.7877
-0.423754
-0.411401
-0.667533
-0.882423
-1.18145
-1.56522
-2.06985
-2.74851
-3.63841
-4.82069
-6.34377
-8.29809
-10.7017
-13.5541
-16.745
-20.1123
-23.4266
-26.501
-29.1908
-31.4482
-33.284
-34.7418
-35.8719
-0.423973
-0.412441
-0.668847
-0.884775
-1.18423
-1.56804
-2.07225
-2.74945
-3.63588
-4.81082
-6.31866
-8.24384
-10.5936
-13.3558
-16.4084
-19.5866
-22.6705
-25.4923
-27.9327
-29.9606
-31.5984
-32.8917
-33.8868
-0.424379
-0.41344
-0.670281
-0.88711
-1.18677
-1.57039
-2.07384
-2.7491
-3.63128
-4.79743
-6.28727
-8.17826
-10.4658
-13.1255
-16.0247
-18.9982
-21.8397
-24.4026
-26.5935
-28.3967
-29.8438
-30.9814
-31.8499
-0.424825
-0.414354
-0.671733
-0.889288
-1.18894
-1.57215
-2.07457
-2.7475
-3.62476
-4.78077
-6.24997
-8.10194
-10.3193
-12.8656
-15.598
-18.3541
-20.9439
-23.2443
-25.1872
-26.7714
-28.0354
-29.0251
-29.7749
-0.425202
-0.415171
-0.673141
-0.891227
-1.1907
-1.57336
-2.07454
-2.74485
-3.6166
-4.7612
-6.20721
-8.01557
-10.1555
-12.5784
-15.1326
-17.6609
-19.9924
-22.0288
-23.7265
-25.0972
-26.1852
-27.0335
-27.6701
-0.425442
-0.415896
-0.67447
-0.892927
-1.19211
-1.57413
-2.07397
-2.74144
-3.60716
-4.73914
-6.15952
-7.9199
-9.97573
-12.2664
-14.6329
-16.9255
-18.9946
-20.767
-22.2225
-23.3848
-24.302
-25.0135
-25.5404
-0.425532
-0.416561
-0.675732
-0.894428
-1.19327
-1.57463
-2.07307
-2.73754
-3.59675
-4.71491
-6.10728
-7.81557
-9.78114
-11.9321
-14.1033
-16.1548
-17.9591
-19.4687
-20.6852
-21.6426
-22.3926
-22.9706
-23.3906
-0.42549
-0.417198
-0.676944
-0.895805
-1.19431
-1.57503
-2.07206
-2.73338
-3.58556
-4.68871
-6.05081
-7.70318
-9.57312
-11.5781
-13.5484
-15.3554
-16.8945
-18.1433
-19.1238
-19.8791
-20.4643
-20.9116
-21.2277
-0.425358
-0.417851
-0.678144
-0.897125
-1.19533
-1.57545
-2.07104
-2.72904
-3.57366
-4.66063
-5.99027
-7.58323
-9.35289
-11.207
-12.9726
-14.5339
-15.8089
-16.7998
-17.5474
-18.1033
-18.5254
-18.8436
-19.0581
-0.425181
-0.418543
-0.679352
-0.89845
-1.19641
-1.57596
-2.07006
-2.72453
-3.56104
-4.63064
-5.9258
-7.45623
-9.12181
-10.8215
-12.3805
-13.6969
-14.7107
-15.4475
-15.9655
-16.3245
-16.5847
-16.774
-16.8868
-0.425005
-0.4193
-0.680592
-0.899809
-1.19757
-1.57655
-2.0691
-2.71978
-3.54757
-4.59866
-5.85748
-7.32267
-8.88118
-10.4242
-11.7764
-12.8509
-13.6081
-14.0957
-14.3877
-14.5522
-14.6509
-14.7091
-14.7173
-0.424859
-0.420121
-0.68186
-0.901219
-1.19882
-1.57722
-2.0681
-2.71467
-3.53316
-4.56464
-5.78544
-7.18311
-8.63238
-10.0178
-11.1649
-12.0024
-12.5092
-12.7542
-12.8242
-12.7958
-12.732
-12.6554
-12.5546
-0.424771
-0.42101
-0.683158
-0.90267
-1.20012
-1.57789
-2.06695
-2.70911
-3.51767
-4.52853
-5.70983
-7.03812
-8.3768
-9.6049
-10.5501
-11.1577
-11.4222
-11.4327
-11.2859
-11.0658
-10.8379
-10.6225
-10.4075
-0.424733
-0.421946
-0.684467
-0.904153
-1.20145
-1.57852
-2.06559
-2.703
-3.50108
-4.49037
-5.63091
-6.88834
-8.11587
-9.18814
-9.93637
-10.3228
-10.3551
-10.1414
-9.78427
-9.37558
-8.98362
-8.62731
-8.29489
-0.424744
-0.42291
-0.685768
-0.905634
-1.20275
-1.57905
-2.06396
-2.6963
-3.48338
-4.45027
-5.54898
-6.73449
-7.85101
-8.77001
-9.32757
-9.50377
-9.31596
-8.89112
-8.33301
-7.74232
-7.19055
-6.69603
-6.24684
-0.424457
-0.423801
-0.686968
-0.90706
-1.20402
-1.57952
-2.06226
-2.68954
-3.46572
-4.41053
-5.46842
-6.58434
-7.59525
-8.37052
-8.75258
-8.73885
-8.35329
-7.7416
-7.00278
-6.24879
-5.55205
-4.93179
-4.37163
-0.425091
-0.425134
-0.688624
-0.90887
-1.20564
-1.58038
-2.06118
-2.684
-3.45064
-4.37608
-5.39851
-6.4542
-7.37547
-8.02999
-8.26796
-8.10087
-7.55776
-6.80022
-5.91872
-5.03651
-4.22597
-3.50797
-2.85582
-0.425811
-0.42643
-0.690386
-0.910886
-1.20762
-1.58188
-2.06127
-2.68073
-3.43996
-4.35001
-5.34432
-6.35207
-7.20339
-7.76409
-7.8933
-7.61127
-6.95389
-6.09112
-5.10988
-4.13443
-3.24649
-2.46113
-1.74202
-0.426639
-0.4277
-0.692275
-0.913081
-1.20989
-1.58391
-2.0624
-2.6795
-3.43322
-4.33136
-5.3038
-6.27395
-7.07133
-7.55961
-7.60755
-7.23906
-6.50104
-5.56098
-4.51649
-3.46974
-2.52974
-1.70069
-0.936364
-0.427668
-0.428977
-0.69429
-0.91539
-1.21234
-1.58625
-2.06423
-2.67977
-3.42947
-4.31849
-5.27399
-6.21476
-6.97052
-7.40284
-7.38992
-6.95555
-6.16177
-5.16282
-4.08295
-2.98033
-1.9986
-1.14533
-0.351688
-0.428861
-0.430247
-0.69638
-0.917714
-1.21481
-1.58872
-2.06646
-2.68105
-3.42787
-4.30989
-5.25213
-6.16975
-6.89292
-7.28152
-7.22217
-6.73648
-5.90363
-4.85828
-3.75866
-2.6174
-1.59433
-0.732481
0.0771837
-0.43014
-0.431466
-0.698467
-0.919986
-1.21724
-1.59122
-2.06896
-2.68307
-3.42784
-4.30439
-5.23603
-6.13516
-6.83219
-7.18604
-7.08989
-6.56321
-5.70071
-4.61854
-3.50245
-2.34245
-1.27713
-0.415513
0.400772
-0.431398
-0.432605
-0.700489
-0.922138
-1.21957
-1.59371
-2.07166
-2.6857
-3.42908
-4.30143
-5.22457
-6.109
-6.78493
-7.11143
-6.98559
-6.42659
-5.53935
-4.42952
-3.29299
-2.13319
-1.03237
-0.167128
0.655433
-0.432836
-0.433808
-0.702671
-0.924482
-1.22217
-1.5966
-2.07497
-2.68919
-3.43148
-4.30011
-5.21549
-6.08676
-6.74344
-7.04592
-6.89291
-6.30621
-5.39467
-4.2642
-3.10174
-1.94895
-0.818885
0.066497
0.897378
-0.433973
-0.434739
-0.704445
-0.926286
-1.22409
-1.59865
-2.07722
-2.69124
-3.4318
-4.29588
-5.20252
-6.06015
-6.69754
-6.97839
-6.80124
-6.19447
-5.26328
-4.12411
-2.94097
-1.81041
-0.678172
0.221247
1.04383
-0.435122
-0.43569
-0.706236
-0.928105
-1.22603
-1.60072
-2.07941
-2.69299
-3.43135
-4.29023
-5.18726
-6.03062
-6.64807
-6.90804
-6.70732
-6.0846
-5.13507
-3.99348
-2.79164
-1.67997
-0.553745
0.358222
1.15831
-0.436287
-0.43668
-0.708077
-0.930006
-1.22812
-1.60301
-2.08183
-2.69487
-3.43077
-4.28404
-5.17085
-5.99927
-6.59575
-6.83413
-6.60845
-5.97014
-5.00113
-3.8589
-2.63909
-1.53248
-0.408613
0.517268
1.30085
-0.437411
-0.437658
-0.709908
-0.931951
-1.2303
-1.60543
-2.08434
-2.69669
-3.42985
-4.27713
-5.15321
-5.96605
-6.54065
-6.75653
-6.50483
-5.85035
-4.86142
-3.71975
-2.48635
-1.37829
-0.261882
0.671547
1.45295
-0.438497
-0.438632
-0.711745
-0.933938
-1.23254
-1.6079
-2.08681
-2.69824
-3.42832
-4.26918
-5.13405
-5.93072
-6.48287
-6.6756
-6.39789
-5.72704
-4.71948
-3.5795
-2.33994
-1.2329
-0.136497
0.797624
1.57608
-0.439577
-0.439624
-0.71363
-0.936016
-1.23488
-1.61043
-2.08919
-2.69944
-3.42612
-4.26018
-5.11342
-5.89338
-6.42278
-6.59191
-6.2889
-5.60198
-4.57834
-3.44037
-2.20208
-1.09984
-0.0331311
0.898133
1.67712
-0.440682
-0.440654
-0.715589
-0.938175
-1.23729
-1.61294
-2.09138
-2.7002
-3.42317
-4.25008
-5.09134
-5.85406
-6.36046
-6.50547
-6.17788
-5.47524
-4.43839
-3.30152
-2.07007
-0.97342
0.061132
0.985769
1.76774
-0.441801
-0.441704
-0.717586
-0.940365
-1.23968
-1.61533
-2.09326
-2.70039
-3.4194
-4.23883
-5.06778
-5.81267
-6.29572
-6.41587
-6.06409
-5.34564
-4.29793
-3.16022
-1.93879
-0.846714
0.157145
1.06047
1.83402
-0.442919
-0.442756
-0.719578
-0.942502
-1.24194
-1.61747
-2.0947
-2.69992
-3.41474
-4.22639
-5.04266
-5.76907
-6.22831
-6.32273
-5.94671
-5.21188
-4.15479
-3.01397
-1.80384
-0.716128
0.259178
1.12932
1.87209
-0.444012
-0.443789
-0.721515
-0.944537
-1.24402
-1.61929
-2.09568
-2.69882
-3.40928
-4.2129
-5.01617
-5.72344
-6.1584
-6.22627
-5.82586
-5.07391
-4.00852
-2.86287
-1.66429
-0.581651
0.359047
1.19347
1.89437
-0.445073
-0.444804
-0.723384
-0.946444
-1.24591
-1.62082
-2.09624
-2.69719
-3.4032
-4.19859
-4.98854
-5.67609
-6.08631
-6.12711
-5.70238
-4.93298
-3.8606
-2.70993
-1.52352
-0.44585
0.463739
1.25387
1.91351
-0.446091
-0.445796
-0.725174
-0.94824
-1.24762
-1.62211
-2.09652
-2.69525
-3.39674
-4.18373
-4.96002
-5.62732
-6.01239
-6.0259
-5.57732
-4.79093
-3.71369
-2.55985
-1.38702
-0.316803
0.57593
1.3297
1.97198
-0.447071
-0.446779
-0.726903
-0.949942
-1.24921
-1.62325
-2.09664
-2.69312
-3.39003
-4.1684
-4.93063
-5.57707
-5.93653
-5.92271
-5.45109
-4.64901
-3.56987
-2.41662
-1.25907
-0.202257
0.68154
1.41626
2.06124
-0.448008
-0.447751
-0.728577
-0.951588
-1.25073
-1.62432
-2.09669
-2.6909
-3.38312
-4.15254
-4.90016
-5.52502
-5.85821
-5.81702
-5.32328
-4.50724
-3.42958
-2.28192
-1.1413
-0.102765
0.771886
1.48228
2.10748
-0.448912
-0.448725
-0.730216
-0.953194
-1.25221
-1.62535
-2.09669
-2.68856
-3.37588
-4.13589
-4.86813
-5.47048
-5.77648
-5.70766
-5.19252
-4.36426
-3.29119
-2.15431
-1.03248
-0.0137111
0.848621
1.52839
2.1056
-0.449778
-0.449692
-0.731821
-0.954785
-1.25368
-1.62636
-2.09664
-2.68604
-3.36814
-4.11812
-4.83403
-5.41274
-5.69037
-5.59338
-5.05719
-4.21801
-3.15175
-2.02999
-0.929398
0.0706492
0.919692
1.58248
2.11499
-0.450615
-0.450659
-0.733402
-0.956357
-1.25512
-1.62733
-2.09647
-2.6832
-3.35963
-4.09883
-4.79731
-5.3511
-5.59904
-5.4731
-4.91583
-4.06642
-3.00806
-1.90421
-0.828047
0.154212
0.991084
1.65295
2.15919
-0.451416
-0.451615
-0.734953
-0.957915
-1.25654
-1.62823
-2.09611
-2.67989
-3.35014
-4.07773
-4.75761
-5.28519
-5.50212
-5.34639
-4.76777
-3.9083
-2.858
-1.77318
-0.725112
0.236991
1.06008
1.72221
2.21419
-0.452191
-0.452563
-0.736477
-0.959439
-1.25789
-1.629
-2.09547
-2.67597
-3.33947
-4.05457
-4.71471
-5.21487
-5.39965
-5.21347
-4.61331
-3.74379
-2.70122
-1.63549
-0.619115
0.315651
1.11749
1.76844
2.2491
-0.452927
-0.453491
-0.73796
-0.960926
-1.25917
-1.62962
-2.09449
-2.67135
-3.32748
-4.02926
-4.66862
-5.14036
-5.29222
-5.07532
-4.45382
-3.57448
-2.53949
-1.4927
-0.510966
0.386832
1.15633
1.78281
2.25054
-0.453632
-0.454402
-0.739402
-0.962353
-1.26035
-1.63003
-2.09308
-2.66592
-3.31412
-4.00177
-4.61944
-5.06204
-5.18066
-4.93332
-4.29136
-3.40315
-2.37636
-1.34892
-0.403877
0.449388
1.17724
1.77126
2.22249
-0.454292
-0.455286
-0.740788
-0.963713
-1.2614
-1.63019
-2.09122
-2.65966
-3.29936
-3.97219
-4.56745
-4.98048
-5.066
-4.78916
-4.12845
-3.23327
-2.21639
-1.20962
-0.302604
0.502465
1.18396
1.74181
2.17133
-0.454914
-0.456146
-0.74212
-0.964988
-1.2623
-1.63009
-2.08886
-2.65254
-3.28322
-3.94061
-4.51289
-4.89617
-4.94922
-4.64441
-3.96755
-3.06833
-2.0643
-1.08031
-0.212138
0.543358
1.17685
1.69622
2.10045
-0.455482
-0.456975
-0.743383
-0.966176
-1.26304
-1.62971
-2.086
-2.64456
-3.26574
-3.90713
-4.45601
-4.8096
-4.83114
-4.50043
-3.81074
-2.91136
-1.92408
-0.965447
-0.136085
0.569741
1.15512
1.63518
2.01326
-0.456004
-0.457777
-0.744581
-0.967261
-1.26361
-1.62903
-2.08262
-2.63571
-3.24694
-3.87183
-4.39697
-4.72107
-4.71231
-4.35809
-3.65944
-2.76439
-1.79841
-0.867896
-0.0757844
0.582455
1.12196
1.5636
1.91545
-0.456464
-0.458545
-0.7457
-0.968244
-1.26401
-1.62805
-2.07873
-2.62601
-3.22684
-3.83478
-4.33589
-4.63075
-4.59302
-4.21786
-3.51432
-2.62833
-1.68824
-0.788628
-0.030672
0.585286
1.08349
1.48936
1.81472
-0.456869
-0.459284
-0.746746
-0.969114
-1.26422
-1.62675
-2.0743
-2.61544
-3.20544
-3.79595
-4.27275
-4.53865
-4.47328
-4.07972
-3.37532
-2.50291
-1.59286
-0.726863
0.000440886
0.581679
1.04439
1.41854
1.71744
-0.457203
-0.459988
-0.747705
-0.969873
-1.26425
-1.62514
-2.06933
-2.60399
-3.18272
-3.75532
-4.20751
-4.44469
-4.35293
-3.94332
-3.24175
-2.38691
-1.51017
-0.68039
0.0184967
0.57246
1.00565
1.35192
1.62551
-0.457476
-0.460662
-0.748582
-0.970509
-1.26408
-1.6232
-2.06381
-2.59164
-3.15862
-3.7128
-4.14005
-4.34867
-4.23167
-3.80809
-3.1125
-2.27845
-1.43724
-0.646075
0.0243409
0.555756
0.965079
1.28698
1.53781
-0.45767
-0.461297
-0.749366
-0.971024
-1.2637
-1.62091
-2.05771
-2.57834
-3.1331
-3.66832
-4.07024
-4.25042
-4.10919
-3.67337
-2.98626
-2.17537
-1.37081
-0.620195
0.0197057
0.529686
0.919618
1.22082
1.45257
-0.457794
-0.461901
-0.750059
-0.971405
-1.26311
-1.61827
-2.05101
-2.56405
-3.10607
-3.62175
-3.99795
-4.14975
-3.98519
-3.53857
-2.86176
-2.07556
-1.30776
-0.598856
0.00785567
0.494802
0.867821
1.15212
1.36862
-0.457831
-0.462463
-0.750648
-0.971653
-1.2623
-1.61525
-2.04368
-2.54871
-3.07747
-3.57301
-3.92307
-4.04657
-3.85951
-3.40322
-2.73792
-1.97722
-1.24539
-0.578292
-0.00679678
0.454729
0.810933
1.08105
1.28545
-0.457789
-0.462988
-0.751135
-0.97175
-1.26124
-1.61183
-2.03566
-2.53227
-3.04719
-3.52198
-3.84551
-3.9408
-3.73209
-3.26711
-2.61399
-1.87905
-1.18172
-0.555358
-0.0198188
0.414366
0.752387
1.00938
1.20331
-0.45765
-0.463466
-0.751506
-0.971697
-1.25994
-1.60799
-2.02694
-2.51467
-3.01517
-3.46861
-3.76528
-3.83253
-3.60305
-3.13028
-2.48965
-1.78036
-1.11557
-0.527885
-0.0278058
0.378245
0.696376
0.939775
1.12352
-0.457423
-0.463901
-0.751761
-0.971475
-1.25836
-1.60369
-2.01745
-2.49584
-2.98133
-3.41284
-3.68236
-3.72189
-3.47267
-2.99305
-2.365
-1.68109
-1.04678
-0.495014
-0.0291248
0.349064
0.64619
0.874772
1.0477
-0.457088
-0.464282
-0.751883
-0.97108
-1.2565
-1.59891
-2.00716
-2.47571
-2.94561
-3.35464
-3.59685
-3.60911
-3.34134
-2.85598
-2.24053
-1.58175
-0.976079
-0.457074
-0.023793
0.327447
0.603287
0.815868
0.977285
-0.456652
-0.464612
-0.751874
-0.97049
-1.25432
-1.59362
-1.99602
-2.45424
-2.90795
-3.294
-3.50888
-3.49453
-3.20962
-2.71992
-2.11719
-1.48344
-0.905178
-0.415645
-0.0134385
0.311771
0.566906
0.763142
0.912766
-0.45612
-0.464887
-0.75172
-0.969703
-1.2518
-1.58776
-1.98396
-2.43132
-2.86827
-3.23093
-3.41856
-3.37846
-3.07806
-2.58567
-1.99591
-1.38717
-0.836029
-0.372666
0.00106879
0.301503
0.536483
0.716559
0.854524
-0.455521
-0.465143
-0.751453
-0.968709
-1.24893
-1.58129
-1.97091
-2.40688
-2.82651
-3.16546
-3.32621
-3.26166
-2.94792
-2.45518
-1.87918
-1.29563
-0.772135
-0.332451
0.0136173
0.288886
0.507188
0.672907
0.799881
-0.455477
-0.465608
-0.751275
-0.967531
-1.24539
-1.57341
-1.9553
-2.37832
-2.77898
-3.09314
-3.22734
-3.14051
-2.81703
-2.32807
-1.76813
-1.21012
-0.716611
-0.298563
0.0364375
0.291574
0.489632
0.63909
0.75607
-0.453832
-0.464571
-0.74883
-0.963445
-1.23789
-1.56003
-1.93205
-2.33951
-2.7189
-3.00776
-3.11825
-3.01626
-2.69325
-2.21912
-1.68418
-1.15509
-0.69288
-0.30957
0.00166974
0.244821
0.435272
0.579253
0.692755
-0.452187
-0.463323
-0.745616
-0.957986
-1.22794
-1.54265
-1.90256
-2.29168
-2.64707
-2.90895
-2.99627
-2.88237
-2.56529
-2.11237
-1.60856
-1.11181
-0.677553
-0.324024
-0.0367109
0.192736
0.373596
0.511252
0.620431
-0.450605
-0.462042
-0.741944
-0.951669
-1.21635
-1.52242
-1.86832
-2.23652
-2.56495
-2.79713
-2.85965
-2.73369
-2.42417
-1.99527
-1.52628
-1.06602
-0.657967
-0.323649
-0.0549315
0.156566
0.322411
0.449882
0.552403
-0.448658
-0.460425
-0.737465
-0.944189
-1.20283
-1.49906
-1.82906
-2.17372
-2.47225
-2.6719
-2.70786
-2.56941
-2.26877
-1.86641
-1.43561
-1.01761
-0.642713
-0.33128
-0.0822913
0.111971
0.264971
0.384279
0.481214
-0.446193
-0.458319
-0.731956
-0.935174
-1.18686
-1.47185
-1.78385
-2.10231
-2.36827
-2.53341
-2.54229
-2.39233
-2.10282
-1.72982
-1.33987
-0.968782
-0.636265
-0.356611
-0.130178
0.0493289
0.192943
0.30657
0.399071
-0.443188
-0.455696
-0.725329
-0.924424
-1.1681
-1.44022
-1.73202
-2.02178
-2.25314
-2.383
-2.36591
-2.20675
-1.93092
-1.58928
-1.24036
-0.915681
-0.627249
-0.382006
-0.179376
-0.0152274
0.117933
0.224508
0.311702
-0.43962
-0.45249
-0.717448
-0.91165
-1.14611
-1.40358
-1.67298
-1.93188
-2.12751
-2.22272
-2.18226
-2.01728
-1.75755
-1.4479
-1.13753
-0.853909
-0.604567
-0.391618
-0.213469
-0.0671517
0.0526531
0.149488
0.229481
-0.435297
-0.448494
-0.707977
-0.896408
-1.12026
-1.36119
-1.60606
-1.8324
-1.99207
-2.05456
-1.99467
-1.82812
-1.5868
-1.30909
-1.03433
-0.785933
-0.569971
-0.386262
-0.232288
-0.104956
2.51969e-05
0.0855694
0.156961
-0.430052
-0.443462
-0.696516
-0.878124
-1.08981
-1.31222
-1.5306
-1.7232
-1.84764
-1.88047
-1.80597
-1.6425
-1.42189
-1.17613
-0.935341
-0.718703
-0.531933
-0.374127
-0.2422
-0.13278
-0.0419726
0.0325679
0.0953149
-0.423703
-0.437133
-0.682664
-0.856291
-1.05414
-1.25609
-1.44634
-1.60474
-1.69558
-1.70263
-1.61857
-1.46265
-1.26464
-1.05084
-0.843273
-0.656649
-0.496046
-0.360745
-0.247742
-0.153847
-0.075437
-0.0105724
0.0444382
-0.416173
-0.429308
-0.666112
-0.83048
-1.01282
-1.1926
-1.35366
-1.47831
-1.53815
-1.52377
-1.43487
-1.29012
-1.11578
-0.933133
-0.757628
-0.59955
-0.462914
-0.347381
-0.250539
-0.169739
-0.101845
-0.0451228
0.00331254
-0.407334
-0.419758
-0.646566
-0.800386
-0.965672
-1.12199
-1.25362
-1.34604
-1.3784
-1.3472
-1.2575
-1.12635
-0.975631
-0.822117
-0.676393
-0.544915
-0.430426
-0.332749
-0.250167
-0.180666
-0.121839
-0.0721262
-0.0293345
-0.3971
-0.408277
-0.623784
-0.765761
-0.912699
-1.04488
-1.14782
-1.21069
-1.21987
-1.17654
-1.08923
-0.972885
-0.844615
-0.71721
-0.597848
-0.490237
-0.395855
-0.314483
-0.244891
-0.185628
-0.13499
-0.0917377
-0.0541273
-0.385281
-0.394572
-0.597489
-0.726452
-0.854124
-0.962233
-1.03828
-1.07531
-1.06613
-1.01518
-0.932625
-0.831063
-0.723165
-0.61824
-0.521166
-0.43396
-0.357158
-0.290381
-0.232682
-0.182989
-0.140107
-0.103156
-0.0707456
-0.371736
-0.378396
-0.567469
-0.682396
-0.790377
-0.875299
-0.927226
-0.942886
-0.92035
-0.865777
-0.789478
-0.701732
-0.611538
-0.525309
-0.446361
-0.375783
-0.313593
-0.259261
-0.211998
-0.170955
-0.135246
-0.104249
-0.0769131
-0.356226
-0.359425
-0.533534
-0.633714
-0.722161
-0.785597
-0.816955
-0.816091
-0.784867
-0.730014
-0.6608
-0.585458
-0.510198
-0.439255
-0.37478
-0.3174
-0.266894
-0.222713
-0.184143
-0.150506
-0.121081
-0.095404
-0.0726808
-0.338632
-0.337453
-0.495656
-0.580734
-0.650446
-0.694817
-0.709612
-0.696991
-0.661193
-0.608671
-0.547093
-0.482854
-0.42026
-0.361989
-0.30935
-0.262663
-0.221642
-0.185771
-0.154427
-0.12704
-0.103022
-0.0819812
-0.063317
-0.318757
-0.312268
-0.453936
-0.524064
-0.576463
-0.604709
-0.607035
-0.587031
-0.550046
-0.501844
-0.448326
-0.394254
-0.342609
-0.295036
-0.25224
-0.214317
-0.18097
-0.151755
-0.126159
-0.103715
-0.0839588
-0.0665642
-0.0510755
-0.296592
-0.283881
-0.408742
-0.464586
-0.501637
-0.516968
-0.51069
-0.487033
-0.451479
-0.408928
-0.363658
-0.319008
-0.277006
-0.238654
-0.204287
-0.173856
-0.147074
-0.123568
-0.102924
-0.0847694
-0.0687341
-0.0545569
-0.0418791
-0.272115
-0.252415
-0.360671
-0.403453
-0.427522
-0.433152
-0.421677
-0.39729
-0.364968
-0.328666
-0.291364
-0.255232
-0.221589
-0.19103
-0.163698
-0.139469
-0.11809
-0.0992502
-0.0826296
-0.0679303
-0.0548742
-0.0432544
-0.0328038
-0.245539
-0.218312
-0.310622
-0.342037
-0.35571
-0.354655
-0.340763
-0.31774
-0.289663
-0.259597
-0.229551
-0.200861
-0.174317
-0.150265
-0.128747
-0.109636
-0.0927159
-0.077742
-0.0644636
-0.0526535
-0.0420982
-0.0326425
-0.0240873
-0.217175
-0.182239
-0.259742
-0.281862
-0.287774
-0.28267
-0.268473
-0.24814
-0.224738
-0.20053
-0.176875
-0.154552
-0.133997
-0.115385
-0.0987099
-0.0838547
-0.0706504
-0.0589052
-0.0484306
-0.0390535
-0.0306169
-0.0230053
-0.0160771
-0.187579
-0.145218
-0.209409
-0.224539
-0.225166
-0.218149
-0.205092
-0.188122
-0.169364
-0.150406
-0.132172
-0.115116
-0.09946
-0.0852721
-0.0725269
-0.0611301
-0.0509545
-0.0418584
-0.0337014
-0.0263565
-0.0197081
-0.0136732
-0.00815274
-0.15751
-0.108497
-0.16118
-0.171613
-0.169152
-0.161769
-0.150687
-0.137223
-0.12273
-0.108246
-0.0944105
-0.0815056
-0.0696511
-0.0588627
-0.0491207
-0.0403534
-0.0324789
-0.0253917
-0.0189977
-0.0132
-0.00792231
-0.00310015
0.00132834
-0.127863
-0.0735936
-0.116627
-0.124515
-0.120725
-0.114016
-0.10528
-0.0952252
-0.084585
-0.0740101
-0.0639185
-0.0545303
-0.045899
-0.0380369
-0.0309067
-0.0244711
-0.0186599
-0.0134109
-0.0086459
-0.00430642
-0.000329551
0.00331968
0.00669129
-0.0997792
-0.0420477
-0.0772234
-0.0843521
-0.0805677
-0.0750842
-0.0686902
-0.0616538
-0.054275
-0.0468926
-0.039768
-0.0330869
-0.0268975
-0.0212187
-0.0160219
-0.0112918
-0.00698208
-0.00305952
0.000529587
0.00381926
0.00685321
0.00964982
0.0122436
-0.074252
-0.0153082
-0.0441768
-0.0519175
-0.0491002
-0.0450953
-0.0408375
-0.036365
-0.0317053
-0.0269647
-0.0222687
-0.0177789
-0.0135593
-0.00964752
-0.0060285
-0.00270067
0.00036333
0.00317768
0.00577521
0.00817317
0.0103986
0.0124592
0.0143767
-0.0525127
0.00549404
-0.0180879
-0.0272349
-0.0259583
-0.023396
-0.0208248
-0.0182495
-0.015588
-0.0128084
-0.00991083
-0.00703473
-0.00426112
-0.00166481
0.000759161
0.00299608
0.0050713
0.00698264
0.00875796
0.0103984
0.0119274
0.0133403
0.0146567
-0.0341369
0.0196099
-4.73084e-07
-0.0109698
-0.0118142
-0.0111495
-0.0105858
-0.0101479
-0.00972241
-0.00918833
-0.00839331
-0.00740576
-0.00630125
-0.00519488
-0.00410511
-0.00307025
-0.0020742
-0.00113634
-0.00023929
0.000601886
0.00140092
0.00214229
0.00283864
-0.0227361
0.0222755
0.0119003
0.00262657
0.00185474
0.00309416
0.00431948
0.00526613
0.00594978
0.00639369
0.00682181
0.00726361
0.00773759
0.00814638
0.00849523
0.00874821
0.0089477
0.00908277
0.00919241
0.0092663
0.0093309
0.00937527
0.00941303
0.468026
0.486863
0.573991
0.710882
0.892302
1.12718
1.42637
1.81024
2.29615
2.91021
3.67696
4.62701
5.78739
7.18181
8.81765
10.6774
12.712
14.8438
16.9786
19.019
20.8916
22.531
23.9518
0.441314
0.465471
0.542339
0.669647
0.839036
1.06009
1.34413
1.70941
2.17453
2.7647
3.50585
4.42787
5.55771
6.91649
8.50857
10.3127
12.2773
14.3236
16.3585
18.2887
20.0445
21.5704
22.8796
0.407712
0.434464
0.500088
0.614887
0.769037
0.971389
1.23401
1.57348
2.0087
2.56403
3.26598
4.14373
5.2238
6.5253
8.05053
9.77622
11.6499
13.5938
15.5171
17.3312
18.9702
20.3864
21.5918
0.366113
0.391808
0.445613
0.54451
0.679818
0.858488
1.09286
1.39837
1.79352
2.30169
2.94932
3.76486
4.77432
5.99561
7.43022
9.05485
10.8184
12.6459
14.4503
16.1475
17.6748
18.9905
20.1042
0.315044
0.335607
0.377338
0.456907
0.569012
0.718654
0.917445
1.17983
1.52344
1.97048
2.54677
3.28009
4.19607
5.31251
6.63164
8.13232
9.76734
11.4669
13.1491
14.7345
16.1622
17.3935
18.4328
0.252095
0.264474
0.293866
0.351301
0.435419
0.550236
0.705763
0.915109
1.19462
1.56504
2.05118
2.68015
3.47762
4.46234
5.63899
6.99098
8.47753
10.0365
11.5935
13.0743
14.4195
15.5902
16.5824
0.173606
0.178043
0.194451
0.227474
0.27874
0.352402
0.456564
0.602441
0.804644
1.08223
1.45877
1.9609
2.61494
3.44176
4.45026
5.63028
6.94965
8.35588
9.78341
11.1646
12.4421
13.5762
14.5555
0.0756931
0.0749637
0.076443
0.0816009
0.0939772
0.118313
0.160945
0.230726
0.34012
0.506435
0.752319
1.10476
1.59212
2.23942
3.06185
4.05771
5.2046
6.45988
7.76602
9.05974
10.284
11.3949
12.3732
0.562395
0.525914
0.736544
0.904779
1.13369
1.42169
1.77914
2.22852
2.77565
3.44107
4.22398
5.13282
6.15637
7.28821
8.50373
9.76963
11.0335
12.2312
13.3052
14.214
14.9395
15.5018
15.9042
0.564365
0.524132
0.733446
0.90105
1.12771
1.41449
1.77038
2.21881
2.76576
3.43357
4.22327
5.14835
6.20318
7.38929
8.68988
10.0779
11.5042
12.902
14.2067
15.3619
16.3373
17.1348
17.7494
0.566259
0.522204
0.729908
0.897315
1.12178
1.40737
1.76193
2.20932
2.75598
3.42563
4.22117
5.16026
6.24274
7.47699
8.85359
10.3512
11.9245
13.5055
15.0249
16.4136
17.6307
18.6596
19.4902
0.567988
0.520204
0.72557
0.893455
1.11577
1.40001
1.75336
2.19965