/*--------------------------------*- C++ -*----------------------------------*\
  =========                 |
  \\      /  F ield         | OpenFOAM: The Open Source CFD Toolbox
   \\    /   O peration     | Website:  https://openfoam.org
    \\  /    A nd           | Version:  7
     \\/     M anipulation  |
\*---------------------------------------------------------------------------*/
FoamFile
{
    version     2.0;
    format      ascii;
    class       surfaceScalarField;
    location    "68";
    object      phi;
}
// * * * * * * * * * * * * * * * * * * * * * * * * * * * * * * * * * * * * * //

dimensions      [0 3 -1 0 0 0 0];

internalField   nonuniform List<scalar> 
25449
(
69.9759
37.8532
-12.7592
51.8456
27.8484
-9.71817
38.6166
20.6303
-7.40125
28.8858
15.3736
-5.64282
21.682
11.5138
-4.30992
16.3215
8.66012
-3.29963
12.3165
6.53853
-2.53356
9.31474
4.95405
-1.95229
7.05927
3.7662
-1.51073
5.36123
2.87271
-1.17467
4.0809
2.19852
-0.918193
3.11442
1.68813
-0.721648
2.38428
1.30034
-0.570197
1.83245
1.00448
-0.452652
1.41537
0.777738
-0.360653
1.10023
0.603127
-0.28799
0.86228
0.468034
-0.230082
0.682771
0.363096
-0.183586
0.547483
0.28135
-0.146062
0.445612
0.217588
-0.115717
0.368955
0.167864
-0.0912077
0.311286
0.129169
-0.0714997
0.0990944
-0.0557313
0.267923
55.9002
57.4059
41.6367
42.1119
31.1467
31.1204
23.3811
23.1391
17.603
17.292
13.2862
12.9769
10.051
9.77372
7.62038
7.38468
5.79065
5.59593
4.41114
4.25222
3.36983
3.23983
2.58312
2.47484
1.98842
1.89503
1.53879
1.45411
1.19891
1.11762
0.942139
0.859894
0.748352
0.661822
0.60227
0.509177
0.49229
0.39133
0.409581
0.300297
0.347431
0.230014
0.300743
0.175858
0.134151
0.265686
43.6161
72.1466
32.7167
53.0113
24.6133
39.2237
18.5628
29.1897
14.0302
21.8245
10.6262
16.3809
8.06474
12.3352
6.13424
9.31519
4.67745
7.05271
3.57705
5.35263
2.74518
4.07169
2.11597
3.10405
1.63992
2.37109
1.27976
1.81427
1.00741
1.38997
0.801639
1.06566
0.64637
0.817092
0.529374
0.626173
0.441344
0.479359
0.37519
0.366451
0.325518
0.279687
0.288229
0.213147
0.162133
0.260247
33.6561
82.9516
25.4992
61.1682
19.3356
45.3873
14.6754
33.8499
11.1506
25.3493
8.48391
19.0476
6.46588
14.3532
4.93835
10.8427
3.7818
8.20926
2.9059
6.22853
2.24239
4.73521
1.73969
3.60675
1.35885
2.75193
1.07043
2.1027
0.852151
1.60825
0.687151
1.23066
0.562606
0.941637
0.468748
0.720031
0.398125
0.549982
0.345051
0.419525
0.305199
0.319539
0.275278
0.243067
0.184592
0.252819
25.8968
90.6376
19.8991
67.1659
15.2538
50.0327
11.6764
37.4273
8.93325
28.0924
6.83646
21.1443
5.23735
15.9523
4.01976
12.0603
3.09372
9.1353
2.38994
6.93232
1.85533
5.26981
1.44938
4.01269
1.14126
3.06005
0.907541
2.33642
0.730432
1.78536
0.596398
1.3647
0.495125
1.04291
0.418736
0.79642
0.361206
0.607512
0.317933
0.462798
0.285408
0.352065
0.260965
0.26751
0.202961
0.242597
19.992
95.8926
15.662
71.4959
12.1796
53.5151
9.42581
40.1811
7.27372
30.2445
5.60571
22.8124
4.32051
17.2375
3.33445
13.0464
2.58014
9.88961
2.00432
7.50813
1.56538
5.70876
1.23111
4.34696
0.976771
3.31439
0.783426
2.52976
0.636618
1.93216
0.525305
1.47601
0.441043
1.12717
0.377365
0.860098
0.329316
0.655561
0.293101
0.499013
0.265824
0.379341
0.245286
0.288048
0.218427
0.22982
15.5675
99.27
12.5107
74.5526
9.90704
56.1188
7.76996
42.3182
6.05692
31.9575
4.70533
24.1639
3.65054
18.2923
2.83367
13.8632
2.20443
10.5188
1.72154
7.99103
1.3519
6.0784
1.06944
4.62942
0.853876
3.52995
0.689559
2.69408
0.564458
2.05726
0.469349
1.57112
0.397154
1.19937
0.342435
0.914817
0.301019
0.696977
0.269706
0.530327
0.246047
0.403001
0.228178
0.305916
0.231922
0.214684
12.283
101.202
10.1931
76.6425
8.24833
58.0635
6.56846
43.9981
5.17766
33.3483
4.05634
25.2853
3.16805
19.1806
2.47273
14.5586
1.93294
11.0586
1.51626
8.40771
1.19584
6.39882
0.950074
4.87519
0.761892
3.71814
0.617989
2.83798
0.508081
2.16717
0.424239
1.65496
0.360368
1.26324
0.31177
0.963414
0.274838
0.73391
0.246795
0.55837
0.225521
0.424275
0.209387
0.322051
0.24415
0.197158
9.6506
104.65
7.16988
79.1232
5.3622
59.8712
4.03464
45.3256
3.05299
34.33
2.32311
26.0151
1.77806
19.7257
1.36957
14.9671
1.06249
11.3657
0.831036
8.63917
0.656163
6.57369
0.523753
5.0076
0.423313
3.81858
0.347014
2.91428
0.289003
2.22518
0.244879
1.69908
0.211316
1.2968
0.185788
0.988942
0.166374
0.753324
0.15161
0.573133
0.140382
0.435503
0.131851
0.330583
0.250641
0.12536
7.34396
107.278
5.45812
81.0091
4.08597
61.2434
3.07983
46.3318
2.33669
35.0731
1.78465
26.5672
1.37269
20.1376
1.06407
15.2757
0.832115
11.5977
0.657259
8.81402
0.525094
6.70585
0.424933
5.10776
0.348851
3.89466
0.290941
2.97219
0.246791
2.26933
0.21309
1.73278
0.187337
1.32255
0.167639
1.00864
0.152556
0.768406
0.140999
0.58469
0.132138
0.444365
0.125348
0.337372
0.255847
0.120142
5.566
109.264
4.14251
82.4326
3.10716
62.2787
2.34851
47.0904
1.78841
35.6332
1.37248
26.9831
1.06217
20.4479
0.829708
15.5081
0.654966
11.7724
0.523178
8.94581
0.423478
6.80555
0.347812
5.18343
0.29021
3.95226
0.246228
3.01617
0.212555
2.30301
0.186706
1.75863
0.166815
1.34245
0.151468
1.02399
0.139601
0.780274
0.130408
0.593883
0.123279
0.451494
0.117757
0.342894
0.260125
0.11348
4.20234
110.748
3.13699
83.4979
2.36095
63.0547
1.79183
47.6595
1.37131
36.0537
1.05884
27.2956
0.825576
20.6812
0.650728
15.683
0.519199
11.9039
0.419896
9.04511
0.344657
6.88079
0.287423
5.24066
0.243705
3.99598
0.210165
3.04971
0.18432
2.32885
0.164313
1.77864
0.148757
1.358
0.136606
1.03614
0.12708
0.7898
0.119594
0.60137
0.113702
0.457387
0.109075
0.347521
0.263755
0.105445
3.16168
111.842
2.37276
84.2868
1.79533
63.6322
1.3704
48.0845
1.0555
36.3686
0.820969
27.5301
0.64557
20.8566
0.513871
15.8147
0.414637
12.0032
0.339572
9.12018
0.282557
6.93781
0.239033
5.28419
0.205623
4.02939
0.179814
3.07552
0.159745
2.34892
0.144027
1.79436
0.131635
1.3704
0.1218
1.04597
0.113956
0.797644
0.107683
0.607642
0.102663
0.462407
0.0986603
0.351524
0.266939
0.0954761
2.37679
112.633
1.7995
84.8641
1.3726
64.0591
1.05599
48.4011
0.819872
36.6047
0.643146
27.7069
0.510458
20.9893
0.410494
15.9147
0.334945
12.0787
0.277613
9.17751
0.233901
6.98152
0.200364
5.31772
0.17444
4.05531
0.154225
3.09573
0.13831
2.36483
0.125656
1.80701
0.115501
1.38055
0.107286
1.05419
0.100603
0.804327
0.0951566
0.613089
0.0907205
0.466843
0.0871294
0.355115
0.269834
0.0842345
1.77787
113.185
1.36473
85.2773
1.05328
64.3705
0.818886
48.6355
0.642054
36.7816
0.50853
27.8404
0.407582
21.0902
0.331097
15.9911
0.273009
12.1368
0.228714
9.22181
0.194758
7.01548
0.168524
5.34396
0.148056
4.07578
0.131897
3.11189
0.118974
2.37776
0.108504
1.81748
0.0999249
1.38913
0.0928339
1.06128
0.0869443
0.810217
0.0820526
0.617981
0.0780021
0.470894
0.0746786
0.358439
0.272544
0.0719687
1.33418
113.553
1.04558
85.5658
0.820283
64.5958
0.646323
48.8094
0.512519
36.9154
0.410018
27.9429
0.331664
21.1686
0.271777
16.051
0.225963
12.1826
0.190789
9.25698
0.163633
7.04263
0.142466
5.36512
0.125766
4.09248
0.112388
3.12527
0.101496
2.38865
0.0924914
1.82649
0.0849544
1.39667
0.0785942
1.06764
0.0732121
0.815599
0.0686712
0.622522
0.0648631
0.474702
0.0617083
0.361594
0.275136
0.0591167
1.00382
113.777
0.810737
85.7589
0.650185
64.7564
0.520794
48.9388
0.418208
37.018
0.337898
28.0232
0.275516
21.231
0.227249
16.0993
0.189964
12.2199
0.161088
9.28586
0.138601
7.06512
0.120896
5.38283
0.106752
4.10662
0.0952429
3.13678
0.0857006
2.39819
0.0776523
1.83453
0.0707828
1.40354
0.0648826
1.07354
0.0598167
0.820665
0.055495
0.626844
0.0518423
0.478355
0.0488017
0.364634
0.277642
0.0462956
0.760099
113.887
0.640256
85.8788
0.528088
64.8685
0.431163
49.0357
0.350801
37.0983
0.285966
28.088
0.234526
21.2824
0.194105
16.1397
0.162509
12.2515
0.137795
9.31057
0.118368
7.08455
0.102916
5.39828
0.0904211
4.11912
0.080105
3.1471
0.0714106
2.40689
0.0639535
1.84199
0.0574906
1.41
0.0518705
1.07916
0.0470026
0.825533
0.0428288
0.631018
0.0392937
0.48189
0.0363522
0.367576
0.280063
0.0339314
0.583654
113.907
0.51977
85.9427
0.443302
64.945
0.369486
49.1096
0.304402
37.1634
0.249861
28.1426
0.20549
21.3268
0.170008
16.1752
0.141918
12.2796
0.119725
9.33276
0.102128
7.10214
0.0880046
5.41241
0.0764702
4.13065
0.066838
3.15673
0.0586209
2.4151
0.0514914
1.84912
0.0452551
1.41623
0.0398
1.08462
0.0350649
0.830268
0.0310104
0.635072
0.0275892
0.485311
0.0247594
0.370406
0.282377
0.0224452
0.458029
113.856
0.437026
85.9637
0.386687
64.9954
0.328936
49.1673
0.273912
37.2184
0.225781
28.1907
0.185576
21.367
0.15286
16.2079
0.126647
12.3058
0.105751
9.35366
0.089067
7.11883
0.0755908
5.42588
0.064513
4.14173
0.0551979
3.16605
0.0471977
2.4231
0.0402188
1.8561
0.0340976
1.42236
0.0287472
1.08997
0.0241232
0.834893
0.0201938
0.639002
0.0169098
0.488595
0.0142235
0.373092
0.28455
0.0120514
0.371578
113.747
0.383353
85.9519
0.351754
65.027
0.304642
49.2144
0.255662
37.2674
0.210954
28.2354
0.172685
21.4052
0.141066
16.2395
0.11548
12.3314
0.0949476
9.37419
0.0784798
7.1353
0.0651354
5.43923
0.0541397
4.15273
0.0448767
3.17531
0.0369149
2.43107
0.0299764
1.86304
0.0239144
1.42842
0.0186545
1.09523
0.014157
0.83939
0.0103874
0.642772
0.00728511
0.491697
0.0047902
0.375587
0.286534
0.00280602
0.313443
113.59
0.350656
85.9147
0.332452
65.0452
0.292064
49.2548
0.246235
37.3132
0.202802
28.2788
0.164871
21.4432
0.133157
16.2712
0.107307
12.3572
0.0864731
9.39503
0.0697309
7.15204
0.0561608
5.4528
0.044994
4.16389
0.0356125
3.18469
0.0275841
2.43909
0.0206341
1.86999
0.0146202
1.43443
0.00947019
1.10038
0.0051385
0.843722
0.00157865
0.646332
-0.00129045
0.494566
-0.00354859
0.377845
0.288296
-0.00531044
0.276764
113.394
0.333851
85.8576
0.324984
65.054
0.28835
49.2914
0.243481
37.3581
0.199698
28.3226
0.160894
21.482
0.128181
16.304
0.101393
12.384
0.0797614
9.41666
0.0623812
7.16942
0.048326
5.46685
0.0368111
4.17541
0.0271999
3.1943
0.0190467
2.44725
0.0120683
1.87697
0.00611725
1.44038
0.00111316
1.10538
-0.00300589
0.847841
-0.00631086
0.649637
-0.00890525
0.497161
-0.0108921
0.379832
0.289802
-0.0123981
-0.216557
113.319
-0.161836
85.8029
-0.121332
65.0135
-0.0912855
49.2614
-0.068851
37.3357
-0.0520507
28.3058
-0.0394567
21.4694
-0.0300421
16.2945
-0.0230596
12.377
-0.017986
9.41159
-0.0144451
7.16588
-0.012197
5.4646
-0.0110586
4.17427
-0.0108749
3.19412
-0.0114621
2.44784
-0.0125942
1.8781
-0.014013
1.4418
-0.0154771
1.10684
-0.0168039
0.849168
-0.0178898
0.650722
-0.0187079
0.497979
-0.0192814
0.380406
0.290191
-0.0196705
-0.212058
113.25
-0.161294
85.7521
-0.123677
64.9759
-0.0957603
49.2335
-0.0749049
37.3148
-0.0592794
28.2902
-0.0475591
21.4577
-0.03879
16.2858
-0.0322758
12.3705
-0.027525
9.40683
-0.0241786
7.16253
-0.0220024
5.46243
-0.0208101
4.17308
-0.02044
3.19375
-0.0207039
2.4481
-0.0213779
1.87877
-0.0222232
1.44265
-0.0230306
1.10765
-0.0236652
0.849803
-0.0240731
0.65113
-0.0242662
0.498172
-0.0242974
0.380437
0.290127
-0.0242327
-0.207456
113.185
-0.160319
85.705
-0.125342
64.9409
-0.0993691
49.2075
-0.0799526
37.2954
-0.0653956
28.2756
-0.0544676
21.4467
-0.0462809
16.2776
-0.0401847
12.3644
-0.035715
9.40236
-0.0325266
7.15934
-0.0303875
5.46029
-0.0291066
4.1718
-0.0285141
3.19316
-0.0284193
2.448
-0.0286057
1.87896
-0.0288605
1.4429
-0.0290153
1.10781
-0.0289864
0.849774
-0.0287676
0.650911
-0.028402
0.497807
-0.0279613
0.379997
0.289676
-0.02751
-0.202808
113.125
-0.159019
85.6612
-0.126475
64.9084
-0.102291
49.1833
-0.0841965
37.2773
-0.070619
28.2621
-0.0604156
21.4365
-0.0527587
16.2699
-0.047039
12.3587
-0.0428158
9.39814
-0.0397553
7.15628
-0.037625
5.45816
-0.036227
4.1704
-0.0353836
3.19231
-0.034904
2.44753
-0.0345846
1.87864
-0.0342466
1.44256
-0.0337683
1.10733
-0.0331181
0.849124
-0.032332
0.650125
-0.0314764
0.496951
-0.030634
0.379154
0.288905
-0.0298624
-0.198155
113.069
-0.157476
85.6205
-0.127185
64.8781
-0.104657
49.1608
-0.0877843
37.2604
-0.0751105
28.2494
-0.0655737
21.427
-0.0584018
16.2628
-0.0530231
12.3533
-0.0490174
9.39414
-0.0460594
7.15332
-0.0439141
5.45601
-0.0423758
4.16886
-0.0412593
3.1912
-0.0403769
2.44664
-0.0395443
1.87781
-0.0386227
1.44164
-0.0375418
1.10625
-0.0363201
0.847903
-0.0350291
0.648834
-0.0337516
0.495674
-0.0325732
0.377976
0.287871
-0.0315396
-0.193526
113.018
-0.155746
85.5827
-0.127555
64.8499
-0.106567
49.1398
-0.0908284
37.2447
-0.0789924
28.2376
-0.070072
21.4181
-0.0633464
16.256
-0.0582781
12.3483
-0.0544648
9.39032
-0.0515875
7.15045
-0.0494074
5.45383
-0.0477099
4.16717
-0.0463038
3.18979
-0.045008
2.44535
-0.0436638
1.87646
-0.0421774
1.44016
-0.0405319
1.1046
-0.0387921
0.846163
-0.0370583
0.6471
-0.0354221
0.494037
-0.0339659
0.37652
0.286625
-0.03272
-0.188942
112.97
-0.153876
85.5476
-0.127647
64.8237
-0.108096
49.1203
-0.0934149
37.23
-0.0823586
28.2265
-0.0740105
21.4097
-0.0676972
16.2497
-0.0629125
12.3435
-0.0592697
9.38668
-0.0564546
7.14763
-0.0542229
5.4516
-0.0523514
4.16529
-0.0506444
3.18808
-0.0489314
2.44363
-0.0470849
1.87462
-0.0450598
1.43813
-0.0428926
1.10244
-0.0406892
0.84396
-0.0385711
0.644982
-0.0366333
0.4921
-0.0349492
0.374836
0.285209
-0.0335325
-0.18442
112.926
-0.151899
85.5151
-0.12751
64.7993
-0.109306
49.1021
-0.0956132
37.2163
-0.085285
28.2162
-0.07747
21.4019
-0.0715387
16.2438
-0.0670141
12.3389
-0.0635228
9.38319
-0.0607539
7.14486
-0.0584568
5.44931
-0.0564
4.16324
-0.0543859
3.18607
-0.0522582
2.44151
-0.0499252
1.87228
-0.0473931
1.4356
-0.0447495
1.09979
-0.0421357
0.841346
-0.0396876
0.642534
-0.0374978
0.48991
-0.0356279
0.372966
0.283656
-0.0340746
-0.17997
112.885
-0.149845
85.485
-0.127186
64.7766
-0.110245
49.0851
-0.0974796
37.2036
-0.0878331
28.2065
-0.0805161
21.3946
-0.0749399
16.2382
-0.0706542
12.3347
-0.0672976
9.37983
-0.0645612
7.14213
-0.0621877
5.44693
-0.0599379
4.16099
-0.0576148
3.18375
-0.0550803
2.43897
-0.0522823
1.86949
-0.0492787
1.4326
-0.0462049
1.09672
-0.0432313
0.838373
-0.0405015
0.639804
-0.0381028
0.487511
-0.0360821
0.370945
0.281993
-0.0344198
-0.175602
112.847
-0.147736
85.4571
-0.126706
64.7556
-0.110954
49.0694
-0.0990608
37.1917
-0.0900543
28.1975
-0.0832033
21.3877
-0.077958
16.233
-0.0738925
12.3306
-0.0706559
9.3766
-0.0679401
7.13941
-0.0654815
5.44447
-0.0630343
4.15854
-0.0604047
3.18112
-0.0574762
2.43604
-0.054239
1.86625
-0.0508018
1.42916
-0.0473434
1.09326
-0.0440568
0.835086
-0.0410884
0.636836
-0.0385171
0.48494
-0.0363745
0.368803
0.280244
-0.0346254
-0.171322
112.812
-0.145592
85.4314
-0.1261
64.7361
-0.111469
49.0547
-0.100397
37.1806
-0.0919925
28.1891
-0.0855791
21.3813
-0.0806429
16.228
-0.0767806
12.3267
-0.0736508
9.37347
-0.070946
7.13671
-0.0683959
5.44192
-0.0657497
4.15589
-0.0628201
3.17819
-0.0595148
2.43274
-0.0558677
1.8626
-0.052036
1.42533
-0.0482371
1.08946
-0.0446803
0.831529
-0.041511
0.633667
-0.0387981
0.482227
-0.0365572
0.366562
0.278426
-0.0347393
-0.167136
112.78
-0.143428
85.4077
-0.125391
64.7181
-0.11182
49.0412
-0.101523
37.1703
-0.0936865
28.1813
-0.0876846
21.3753
-0.0830376
16.2234
-0.0793636
12.3231
-0.0763293
9.37043
-0.0736272
7.13401
-0.0709813
5.43928
-0.0681375
4.15305
-0.0649178
3.17497
-0.0612566
2.42908
-0.0572315
1.85858
-0.0530453
1.42114
-0.0489477
1.08536
-0.0451597
0.827741
-0.0418224
0.630329
-0.0389937
0.479398
-0.036674
0.364242
0.276554
-0.0348018
-0.163048
112.751
-0.141258
85.3859
-0.124601
64.7014
-0.112034
49.0286
-0.10247
37.1607
-0.0951698
28.174
-0.0895559
21.3697
-0.0851804
16.219
-0.0816811
12.3196
-0.0787322
9.36748
-0.0760264
7.1313
-0.0732824
5.43653
-0.070245
4.15001
-0.0667484
3.17147
-0.0627554
2.42509
-0.0583863
1.85421
-0.0538853
1.41664
-0.049529
1.08101
-0.0455449
0.823757
-0.042068
0.626852
-0.0391451
0.476475
-0.036762
0.361859
0.274639
-0.0348467
-0.159063
112.724
-0.139095
85.3659
-0.123749
64.6861
-0.112134
49.017
-0.103266
37.1519
-0.0964737
28.1672
-0.0912264
21.3645
-0.0871064
16.2149
-0.0837698
12.3162
-0.0808978
9.36461
-0.0781832
7.12859
-0.0753406
5.43369
-0.0721161
4.14679
-0.0683587
3.16771
-0.0640607
2.42079
-0.0593832
1.84953
-0.0546069
1.41186
-0.0500293
1.07643
-0.0458806
0.819609
-0.0422886
0.62326
-0.0392892
0.473476
-0.0368546
0.359425
0.272689
-0.0349044
-0.155182
112.7
-0.136951
85.3477
-0.122853
64.672
-0.112143
49.0063
-0.103936
37.1437
-0.0976261
28.1609
-0.0927261
21.3596
-0.088847
16.211
-0.0856625
12.313
-0.0828601
9.36181
-0.0801329
7.12586
-0.0771931
5.43075
-0.0737904
4.14339
-0.0697907
3.16371
-0.0652166
2.41621
-0.0602674
1.84458
-0.0552546
1.40685
-0.050491
1.07167
-0.0462065
0.815324
-0.0425202
0.619574
-0.0394587
0.470414
-0.0369821
0.356948
0.27071
-0.0350031
-0.151408
112.678
-0.134836
85.3311
-0.121928
64.6591
-0.112081
48.9964
-0.104505
37.1361
-0.0986535
28.155
-0.0940835
21.355
-0.0904325
16.2074
-0.0873907
12.31
-0.0846516
9.35907
-0.0819096
7.12312
-0.0788755
5.42772
-0.0753054
4.13982
-0.0710842
3.15949
-0.0662647
2.41139
-0.0610814
1.8394
-0.0558702
1.40164
-0.0509543
1.06675
-0.0465599
0.81093
-0.0427982
0.615812
-0.0396868
0.467303
-0.0371758
0.354437
0.268707
-0.0351731
-0.147745
112.658
-0.132758
85.3162
-0.120989
64.6473
-0.111968
48.9874
-0.104993
37.1291
-0.0995801
28.1496
-0.0953245
21.3507
-0.0918902
16.2039
-0.0889828
12.3071
-0.086302
9.35639
-0.083544
7.12036
-0.08042
5.42459
-0.0766951
4.13609
-0.072275
3.15507
-0.0672424
2.40636
-0.061863
1.83402
-0.0564912
1.39627
-0.0514552
1.06171
-0.0469757
0.80645
-0.0431558
0.611992
-0.0400056
0.464153
-0.037467
0.351898
0.266684
-0.0354447
-0.144193
112.641
-0.130729
85.3027
-0.120051
64.6366
-0.111821
48.9792
-0.105423
37.1227
-0.100429
28.1446
-0.0964741
21.3468
-0.0932462
16.2007
-0.0904662
12.3043
-0.0878398
9.35376
-0.0850656
7.11758
-0.0818574
5.42139
-0.0779919
4.13223
-0.073397
3.15048
-0.0681846
2.40115
-0.0626477
1.82848
-0.0571529
1.39077
-0.0520284
1.05659
-0.0474876
0.801909
-0.0436264
0.608131
-0.0404478
0.460974
-0.0378877
0.349338
0.264646
-0.0358492
-0.140755
112.626
-0.128754
85.2907
-0.119127
64.627
-0.111657
48.9717
-0.105813
37.1169
-0.101222
28.14
-0.0975557
21.3431
-0.0945254
16.1977
-0.0918668
12.3017
-0.0892916
9.35119
-0.0865024
7.1148
-0.0832169
5.4181
-0.0792261
4.12824
-0.0744818
3.14573
-0.0691239
2.39579
-0.0634682
1.82283
-0.057888
1.38519
-0.0527067
1.05141
-0.0481285
0.797331
-0.0442425
0.604245
-0.0410462
0.457778
-0.0384704
0.346762
0.262594
-0.0364191
-0.137433
112.612
-0.126844
85.2801
-0.118229
64.6184
-0.111493
48.965
-0.106183
37.1116
-0.101981
28.1358
-0.098592
21.3397
-0.0957516
16.1948
-0.0932093
12.2991
-0.0906834
9.34866
-0.087881
7.11199
-0.0845261
5.41475
-0.0804267
4.12414
-0.0755592
3.14087
-0.0700904
2.39032
-0.0643551
1.81709
-0.058727
1.37956
-0.0535213
1.0462
-0.0489303
0.79274
-0.0450371
0.600352
-0.0418343
0.454575
-0.0392498
0.344178
0.260534
-0.0371895
-0.134228
112.601
-0.125004
85.2709
-0.11737
64.6107
-0.111344
48.9589
-0.106551
37.1068
-0.102724
28.132
-0.0996039
21.3366
-0.0969469
16.1922
-0.0945169
12.2967
-0.0920389
9.34619
-0.0892262
7.10918
-0.0858108
5.41133
-0.08162
4.11994
-0.0766563
3.1359
-0.0711116
2.38478
-0.0653357
1.81131
-0.0596978
1.37393
-0.0545009
1.04101
-0.0499238
0.788162
-0.0460426
0.596471
-0.0428468
0.451379
-0.0402624
0.341593
0.25847
-0.038199
-0.131141
112.591
-0.123244
85.263
-0.116562
64.604
-0.111225
48.9536
-0.106934
37.1025
-0.103472
28.1285
-0.100613
21.3338
-0.0981337
16.1897
-0.0958128
12.2944
-0.0933823
9.34376
-0.0905628
7.10636
-0.0870967
5.40786
-0.0828325
4.11568
-0.0777995
3.13087
-0.0722137
2.37919
-0.0664361
1.80554
-0.0608269
1.36832
-0.0556738
1.03585
-0.0511397
0.783628
-0.0472936
0.592625
-0.0441214
0.448207
-0.041549
0.339021
0.256412
-0.0394907
-0.128175
112.583
-0.121569
85.2564
-0.115814
64.5983
-0.11115
48.9489
-0.107349
37.0987
-0.104243
28.1254
-0.101638
21.3311
-0.0993324
16.1874
-0.0971184
12.2921
-0.0947358
9.34137
-0.091914
7.10354
-0.0884071
5.40436
-0.0840878
4.11136
-0.0790126
3.12579
-0.0734201
2.3736
-0.0676796
1.7998
-0.0621379
1.36277
-0.0570657
1.03078
-0.0526076
0.77917
-0.048824
0.588841
-0.0456974
0.44508
-0.043154
0.336477
0.254372
-0.0411143
-0.12533
112.577
-0.119987
85.251
-0.11514
64.5934
-0.111133
48.9449
-0.107811
37.0953
-0.105054
28.1227
-0.102698
21.3288
-0.100563
16.1853
-0.0984547
12.29
-0.0961212
9.33904
-0.0933017
7.10072
-0.0897649
5.40082
-0.0854089
4.107
-0.0803179
3.1207
-0.0747524
2.36803
-0.0690868
1.79413
-0.0636519
1.35734
-0.0586995
1.02583
-0.0543547
0.774825
-0.0506669
0.585153
-0.0476141
0.442027
-0.0451232
0.333986
0.252369
-0.0431207
-0.122608
112.573
-0.118503
85.2469
-0.114547
64.5895
-0.111187
48.9416
-0.108337
37.0925
-0.105923
28.1203
-0.103812
21.3267
-0.101846
16.1833
-0.0998417
12.288
-0.0975589
9.33676
-0.0947474
7.09791
-0.0911916
5.39727
-0.0868173
4.10263
-0.0817366
3.11562
-0.076231
2.36253
-0.0706772
1.78858
-0.0653889
1.35205
-0.0605973
1.02104
-0.0564079
0.770636
-0.0528547
0.5816
-0.0499103
0.439083
-0.0475039
0.33158
0.250427
-0.0455621
-0.115776
112.565
-0.110081
85.2412
-0.10565
64.5851
-0.102338
48.9383
-0.0997649
37.0899
-0.0977024
28.1182
-0.0959466
21.3249
-0.0943097
16.1816
-0.0926064
12.2863
-0.0906083
9.33476
-0.088089
7.09539
-0.0848627
5.39404
-0.080884
4.09865
-0.0762792
3.11102
-0.0713258
2.35757
-0.0663688
1.78362
-0.0616853
1.34737
-0.0574672
1.01682
-0.0537993
0.766967
-0.0506943
0.578495
-0.0481208
0.436509
-0.0460184
0.329478
0.248726
-0.0443175
-0.0922875
112.559
-0.0879943
85.2369
-0.0846432
64.5817
-0.082141
48.9358
-0.0801921
37.088
-0.0786221
28.1166
-0.0772731
21.3236
-0.0759981
16.1804
-0.0746523
12.285
-0.0730563
9.33316
-0.0710344
7.09337
-0.0684489
5.39145
-0.0652785
4.09548
-0.0616389
3.10738
-0.0577624
2.3537
-0.0539185
1.77977
-0.0503224
1.34377
-0.047105
1.0136
-0.0443309
0.764193
-0.0419939
0.576158
-0.0400587
0.434574
-0.0384821
0.327901
0.247454
-0.0372094
-0.0735323
112.554
-0.0702797
85.2337
-0.0677331
64.5792
-0.0658335
48.9339
-0.0643506
37.0865
-0.0631506
28.1154
-0.0621108
21.3225
-0.061116
16.1794
-0.0600531
12.2839
-0.0587812
9.33189
-0.0571638
7.09175
-0.0550984
5.38939
-0.0525773
4.09296
-0.0497023
3.1045
-0.0466657
2.35066
-0.0436777
1.77679
-0.0409082
1.341
-0.0384444
1.01114
-0.0363396
0.762088
-0.0345777
0.574396
-0.0331207
0.433117
-0.0319395
0.32672
0.246504
-0.0309901
-0.0585536
112.551
-0.0560678
85.2312
-0.0541164
64.5772
-0.0526619
48.9324
-0.0515244
37.0854
-0.0506005
28.1145
-0.0497942
21.3217
-0.0490152
16.1786
-0.0481747
12.2831
-0.0471622
9.33088
-0.0458714
7.09046
-0.0442255
5.38774
-0.0422242
4.09096
-0.0399549
3.10223
-0.0375743
2.34828
-0.0352475
1.77446
-0.0331084
1.33886
-0.0312159
1.00924
-0.0296113
0.760484
-0.0282801
0.573065
-0.0271799
0.432017
-0.0262938
0.325834
0.245795
-0.0255849
-0.0466023
112.548
-0.0446869
85.2293
-0.0431802
64.5757
-0.0420579
48.9313
-0.0411788
37.0845
-0.0404625
28.1138
-0.0398339
21.3211
-0.0392217
16.178
-0.0385562
12.2824
-0.0377507
9.33007
-0.0367221
7.08943
-0.0354126
5.38643
-0.0338254
4.08937
-0.0320341
3.10044
-0.0301655
2.34641
-0.0283498
1.77264
-0.0266915
1.3372
-0.0252336
1.00779
-0.0240025
0.759252
-0.0229927
0.572055
-0.0221581
0.431182
-0.0214909
0.325167
0.245264
-0.0209597
-0.0370493
112.546
-0.0355432
85.2278
-0.0343569
64.5745
-0.0334735
48.9304
-0.0327812
37.0838
-0.0322163
28.1132
-0.0317193
21.3206
-0.0312336
16.1775
-0.0307042
12.2819
-0.0300628
9.32943
-0.0292446
7.08861
-0.0282055
5.38539
-0.0269503
4.08812
-0.0255399
3.09903
-0.0240752
2.34494
-0.0226598
1.77123
-0.0213731
1.33592
-0.0202505
1.00666
-0.0193032
0.758305
-0.0185349
0.571287
-0.0179013
0.430549
-0.0173975
0.324663
0.244866
-0.0169996
-0.0295604
112.544
-0.0284562
85.2267
-0.0275827
64.5736
-0.0269332
48.9297
-0.0264225
37.0833
-0.0260028
28.1128
-0.0256287
21.3202
-0.0252562
16.1771
-0.0248429
12.2815
-0.024335
9.32892
-0.0236816
7.08796
-0.0228491
5.38456
-0.0218429
4.08711
-0.0207142
3.0979
-0.0195451
2.34378
-0.0184199
1.7701
-0.0173998
1.3349
-0.0165163
1.00578
-0.0157707
0.757559
-0.0151708
0.570687
-0.0146788
0.430057
-0.0142878
0.324272
0.244561
-0.0139832
-0.0233852
112.543
-0.0224299
85.2257
-0.0216767
64.5729
-0.0211158
48.9292
-0.0206762
37.0828
-0.0203175
28.1124
-0.0200016
21.3199
-0.0196924
16.1768
-0.0193556
12.2811
-0.0189487
9.32852
-0.0184318
7.08744
-0.0177791
5.38391
-0.0169951
4.08633
-0.0161204
3.09703
-0.0152181
2.34287
-0.014354
1.76924
-0.0135727
1.33412
-0.0129012
1.00511
-0.0123352
0.756993
-0.0118807
0.570232
-0.0115121
0.429688
-0.0112179
0.323977
0.244336
-0.0109923
-0.0167603
112.537
-0.012161
85.2211
-0.00842294
64.5692
-0.00542588
48.9262
-0.00300325
37.0804
-0.00103004
28.1105
0.000605048
21.3183
0.00199999
16.1754
0.00323952
12.2799
0.00440386
9.32735
0.00555819
7.08629
0.00674063
5.38273
0.00794926
4.08512
0.00914305
3.09583
0.0102631
2.34175
0.0112554
1.76825
0.012094
1.33328
0.0127707
1.00443
0.0133148
0.756449
0.0137266
0.56982
0.0140467
0.429368
0.0142912
0.323733
0.244162
0.014465
-0.0175976
112.531
-0.0127678
85.2163
-0.00884236
64.5652
-0.00569482
48.923
-0.00315054
37.0779
-0.00107806
28.1084
0.000639633
21.3166
0.00210555
16.174
0.00340848
12.2786
0.00463216
9.32613
0.00584425
7.08508
0.0070837
5.38149
0.0083477
4.08385
0.00959212
3.09459
0.0107561
2.34059
0.0117824
1.76722
0.0126474
1.33241
0.0133397
1.00374
0.0138952
0.755894
0.0143136
0.569402
0.0146331
0.429048
0.0148781
0.323488
0.243987
0.0150533
-0.0184768
112.525
-0.013405
85.2112
-0.0092826
64.5611
-0.00597702
48.9197
-0.00330498
37.0752
-0.00112824
28.1062
0.000676226
21.3148
0.00221674
16.1724
0.00358625
12.2772
0.00487224
9.32484
0.00614487
7.0838
0.00744378
5.38019
0.00876526
4.08253
0.0100618
3.09329
0.0112708
2.33938
0.0123314
1.76616
0.0132227
1.33152
0.0139305
1.00303
0.0144956
0.755328
0.0149202
0.568977
0.0152384
0.42873
0.0154828
0.323244
0.243811
0.0156585
-0.0194
112.518
-0.0140739
85.2059
-0.00974463
64.5568
-0.00627317
48.9163
-0.00346693
37.0724
-0.00118067
28.1039
0.000715006
21.3129
0.00233389
16.1708
0.00377341
12.2758
0.00512483
9.32349
0.00646092
7.08247
0.00782195
5.37883
0.00920307
4.08115
0.0105534
3.09194
0.0118081
2.33813
0.0129033
1.76506
0.0138205
1.3306
0.0145438
1.00231
0.0151163
0.754756
0.0155464
0.568547
0.0158629
0.428413
0.0161048
0.323002
0.243638
0.0162776
-0.0203691
112.511
-0.0147761
85.2003
-0.0102298
64.5522
-0.00658394
48.9126
-0.00363675
37.0694
-0.0012354
28.1015
0.000756082
21.3109
0.00245735
16.1691
0.00397046
12.2743
0.00539065
9.32207
0.00679325
7.08107
0.00821914
5.3774
0.00966211
4.07971
0.0110677
3.09054
0.0123689
2.33682
0.013499
1.76393
0.0144412
1.32966
0.01518
1.00157
0.0157581
0.754178
0.0161928
0.568112
0.0165076
0.428099
0.0167454
0.322764
0.243471
0.0169122
-0.0213869
112.504
-0.0155134
85.1944
-0.010739
64.5475
-0.00691004
48.9088
-0.0038148
37.0663
-0.00129257
28.099
0.000799606
21.3088
0.00258747
16.1673
0.00417795
12.2727
0.00567036
9.32058
0.00714268
7.07959
0.00863626
5.37591
0.0101434
4.0782
0.0116058
3.08907
0.0129542
2.33548
0.0141193
1.76277
0.0150857
1.3287
0.0158396
1.00081
0.0164221
0.753595
0.0168604
0.567674
0.017173
0.427786
0.0174055
0.322531
0.243311
0.0175662
-0.0224552
112.496
-0.0162875
85.1883
-0.0112737
64.5424
-0.00725224
48.9048
-0.00400146
37.0631
-0.00135227
28.0964
0.000845689
21.3066
0.00272459
16.1654
0.00439638
12.271
0.0059647
9.31901
0.0075101
7.07805
0.00907432
5.37434
0.0106478
4.07663
0.0121688
3.08755
0.0135648
2.33408
0.0147651
1.76157
0.0157546
1.32771
0.0165231
1.00005
0.0171088
0.753009
0.0175497
0.567233
0.0178596
0.427476
0.0180854
0.322305
0.243154
0.018242
-0.0235772
112.488
-0.0171001
85.1818
-0.0118346
64.5372
-0.00761133
48.9005
-0.00419719
37.0597
-0.00141459
28.0936
0.000894527
21.3043
0.00286908
16.1635
0.00462639
12.2693
0.00627444
9.31736
0.00789637
7.07643
0.00953428
5.37271
0.0111765
4.07498
0.0127575
3.08597
0.0142016
2.33264
0.0154372
1.76033
0.0164485
1.3267
0.0172309
0.999263
0.0178188
0.752422
0.0182605
0.566791
0.0185675
0.427169
0.018786
0.322087
0.243
0.0189402
-0.024755
112.479
-0.0179533
85.175
-0.0124236
64.5316
-0.0079881
48.8961
-0.00440238
37.0561
-0.00147963
28.0907
0.000946281
21.3018
0.0030214
16.1614
0.00486856
12.2674
0.00660036
9.31563
0.00830249
7.07472
0.0100172
5.37099
0.0117304
4.07327
0.0133728
3.08433
0.0148654
2.33114
0.0161362
1.75906
0.0171678
1.32566
0.0179629
0.998468
0.0185522
0.751832
0.0189922
0.566351
0.0192961
0.426865
0.0195084
0.321874
0.242849
0.0196594
-0.0259916
112.47
-0.018849
85.1678
-0.0130418
64.5258
-0.00838347
48.8915
-0.00461752
37.0523
-0.00154756
28.0876
0.00100109
21.2993
0.00318192
16.1592
0.00512359
12.2655
0.00694336
9.31381
0.00872941
7.07294
0.0105242
5.3692
0.0123107
4.07149
0.0140159
3.08262
0.015557
2.3296
0.0168624
1.75776
0.017913
1.32461
0.0187192
0.997661
0.0193088
0.751243
0.0197452
0.565914
0.0200452
0.426565
0.0202523
0.321667
0.242705
0.020396
-0.0272898
112.461
-0.0197891
85.1603
-0.0136909
64.5197
-0.00879834
48.8866
-0.00484305
37.0484
-0.00161841
28.0844
0.00105919
21.2966
0.00335114
16.1569
0.00539215
12.2634
0.00730429
9.3119
0.00917824
7.07106
0.0110562
5.36732
0.0129184
4.06962
0.0146876
3.08085
0.0162773
2.32801
0.0176166
1.75642
0.0186848
1.32354
0.0195003
0.996846
0.020089
0.750654
0.0205201
0.565483
0.0208156
0.426269
0.0210166
0.321466
0.242573
0.0211491
-0.0286532
112.451
-0.0207763
85.1524
-0.0143719
64.5133
-0.00923366
48.8814
-0.0050795
37.0442
-0.00169236
28.081
0.0011208
21.2938
0.00352958
16.1545
0.00567498
12.2613
0.00768415
9.30989
0.00965004
7.0691
0.0116147
5.36535
0.0135547
4.06768
0.0153891
3.07902
0.0170272
2.32637
0.0183997
1.75504
0.0194841
1.32246
0.0203068
0.996023
0.0208936
0.750067
0.0213171
0.56506
0.0216063
0.42598
0.0217982
0.321274
0.242451
0.0219196
-0.0300843
112.44
-0.0218128
85.1442
-0.015087
64.5066
-0.00969041
48.876
-0.00532734
37.0399
-0.00176948
28.0774
0.00118612
21.2909
0.00371772
16.152
0.00597292
12.259
0.00808392
9.30778
0.010146
7.06704
0.0122006
5.3633
0.0142208
4.06566
0.0161214
3.07712
0.0178078
2.32469
0.0192124
1.75364
0.0203117
1.32136
0.0211394
0.995195
0.0217239
0.749483
0.0221375
0.564646
0.0224185
0.425699
0.0225969
0.321096
0.242339
0.0227091
-0.0315869
112.429
-0.0229006
85.1355
-0.0158375
64.4995
-0.0101697
48.8704
-0.00558714
37.0353
-0.00184988
28.0737
0.00125543
21.2877
0.00391616
16.1493
0.00628676
12.2567
0.00850465
9.30556
0.0106672
7.06487