/*--------------------------------*- C++ -*----------------------------------*\
  =========                 |
  \\      /  F ield         | OpenFOAM: The Open Source CFD Toolbox
   \\    /   O peration     | Website:  https://openfoam.org
    \\  /    A nd           | Version:  7
     \\/     M anipulation  |
\*---------------------------------------------------------------------------*/
FoamFile
{
    version     2.0;
    format      ascii;
    class       volVectorField;
    location    "68";
    object      U;
}
// * * * * * * * * * * * * * * * * * * * * * * * * * * * * * * * * * * * * * //

dimensions      [0 1 -1 0 0 0 0];

internalField   nonuniform List<vector> 
12842
(
(15.5611 1.36501 3.04359e-19)
(15.5625 1.37597 3.30701e-20)
(15.5637 1.38685 2.99277e-20)
(15.5649 1.3998 -5.91599e-20)
(15.5659 1.41615 3.37409e-19)
(15.5666 1.43704 0)
(15.5665 1.46377 0)
(15.5651 1.49787 2.0263e-20)
(15.5615 1.54107 -3.07678e-19)
(15.5546 1.59527 -1.56289e-20)
(15.5425 1.66238 -1.33343e-19)
(15.5234 1.74411 -1.16636e-20)
(15.4947 1.84165 -4.12601e-20)
(15.4544 1.95531 1.73525e-20)
(15.4005 2.08422 -1.76619e-20)
(15.3322 2.22614 -5.13762e-20)
(15.2501 2.37735 -6.42638e-20)
(15.1563 2.53296 0)
(15.0543 2.68744 9.63863e-21)
(14.9488 2.83537 6.436e-20)
(14.8447 2.97199 1.21785e-20)
(14.746 3.09442 -4.94707e-20)
(14.6568 3.19914 4.08688e-20)
(15.562 1.36493 -2.63454e-19)
(15.5655 1.3751 0)
(15.5689 1.38562 6.03128e-19)
(15.5727 1.39832 -4.49171e-19)
(15.5768 1.41452 -2.94219e-19)
(15.5811 1.43539 0)
(15.5855 1.46233 8.32652e-19)
(15.5897 1.49703 0)
(15.5929 1.54144 7.07897e-19)
(15.5941 1.59774 6.38507e-20)
(15.5918 1.66816 2.45082e-19)
(15.5836 1.75472 4.74254e-19)
(15.5671 1.85885 3.91456e-20)
(15.5395 1.98086 -2.03449e-19)
(15.4982 2.11969 0)
(15.4417 2.27257 5.12831e-20)
(15.3697 2.43503 8.19583e-20)
(15.2838 2.60131 -4.60994e-20)
(15.1874 2.7651 0)
(15.085 2.92044 -8.47836e-20)
(14.9819 3.06223 -1.03079e-19)
(14.8825 3.18818 1.21803e-19)
(14.7921 3.29295 -1.19615e-19)
(15.5631 1.36466 0)
(15.5682 1.37384 0)
(15.5732 1.38378 3.35371e-19)
(15.5793 1.39601 2.54365e-18)
(15.5861 1.41178 0)
(15.5937 1.43228 0)
(15.6022 1.45897 3.45328e-19)
(15.6115 1.49366 -9.59373e-19)
(15.6211 1.53851 -3.51883e-19)
(15.6301 1.59595 -3.87565e-19)
(15.637 1.66853 -7.88696e-19)
(15.6397 1.75863 -4.59495e-19)
(15.6351 1.86793 -1.06874e-19)
(15.6201 1.99689 3.35276e-19)
(15.5916 2.14433 0)
(15.5472 2.30709 4.061e-20)
(15.486 2.48007 -5.18308e-20)
(15.4091 2.65675 1.8296e-20)
(15.3196 2.83003 -5.23394e-20)
(15.2221 2.99343 1.88694e-21)
(15.122 3.14138 7.09461e-20)
(15.0243 3.27208 0)
(14.9349 3.37828 4.01583e-20)
(15.5642 1.3642 -2.20311e-19)
(15.5704 1.37231 3.57469e-19)
(15.5768 1.38154 -1.07374e-18)
(15.5848 1.39314 -4.48151e-18)
(15.5941 1.40827 4.07902e-19)
(15.6046 1.42811 -1.46671e-18)
(15.6169 1.45417 4.19781e-22)
(15.6309 1.48834 9.39179e-19)
(15.6465 1.53294 1.71763e-18)
(15.6629 1.59067 -1.0692e-18)
(15.6788 1.66438 1.95613e-18)
(15.6919 1.75679 -2.26502e-19)
(15.6991 1.86994 2.94462e-19)
(15.6968 2.00445 1.0297e-18)
(15.6813 2.15913 -1.44665e-19)
(15.6495 2.33055 1.85693e-19)
(15.6 2.51308 4.95687e-20)
(15.5334 2.69957 1.49963e-19)
(15.4523 2.8822 -3.29817e-20)
(15.3614 3.05399 1.06376e-19)
(15.2665 3.20885 -2.0056e-21)
(15.1724 3.3454 -1.70252e-21)
(15.0859 3.45441 2.92695e-20)
(15.5654 1.36356 -2.5024e-18)
(15.5721 1.37059 0)
(15.5798 1.37904 2.11601e-19)
(15.5895 1.38988 1.6463e-18)
(15.6008 1.40418 1.72705e-19)
(15.614 1.4231 4.00972e-18)
(15.6296 1.44814 2.44129e-19)
(15.6479 1.48129 -2.76461e-18)
(15.6691 1.525 -1.92745e-18)
(15.6925 1.58218 1.31728e-18)
(15.717 1.65601 -2.22581e-18)
(15.7403 1.74958 -1.70547e-18)
(15.7593 1.86526 3.75194e-19)
(15.7698 2.00396 -2.30228e-18)
(15.7678 2.16454 -9.13417e-19)
(15.7494 2.34342 6.17656e-19)
(15.7127 2.53454 0)
(15.6576 2.7302 -1.59183e-19)
(15.5866 2.92196 0)
(15.5042 3.10237 7.95586e-20)
(15.4162 3.26471 5.96628e-20)
(15.3274 3.40804 -2.14435e-20)
(15.2453 3.52104 -2.51163e-20)
(15.5665 1.36275 2.13305e-18)
(15.5733 1.36879 0)
(15.5822 1.37641 0)
(15.5933 1.38638 2.93246e-18)
(15.6063 1.39969 -2.15588e-18)
(15.6218 1.41745 -2.36927e-18)
(15.6404 1.44115 -3.67901e-18)
(15.6626 1.4728 3.0434e-18)
(15.6888 1.51498 0)
(15.7188 1.57079 1.82631e-18)
(15.7514 1.64371 2.05777e-18)
(15.7847 1.73719 8.55377e-19)
(15.8153 1.85402 0)
(15.8388 1.99542 1.26798e-18)
(15.8506 2.16042 7.64981e-19)
(15.8465 2.34539 -4.38821e-19)
(15.8236 2.54399 -1.1192e-19)
(15.7816 2.74807 7.92179e-19)
(15.7224 2.94863 0)
(15.6502 3.13779 -2.50177e-19)
(15.5709 3.30816 1.15227e-19)
(15.4892 3.45916 2.29472e-19)
(15.413 3.57726 -6.43032e-20)
(15.5675 1.36181 -2.41951e-19)
(15.5742 1.367 0)
(15.5841 1.37376 0)
(15.5964 1.38279 -2.90423e-18)
(15.6108 1.395 2.47188e-18)
(15.6281 1.41142 -3.21629e-19)
(15.6492 1.4335 2.20507e-18)
(15.6749 1.46327 2.2948e-19)
(15.7056 1.50337 -3.01096e-19)
(15.7415 1.55707 -2.06315e-18)
(15.7818 1.62812 -2.484e-19)
(15.8245 1.72034 1.80031e-18)
(15.8665 1.83693 0)
(15.903 1.97951 -1.72873e-18)
(15.929 2.14738 1.54189e-19)
(15.9398 2.33696 -1.98215e-19)
(15.9319 2.54176 6.08634e-19)
(15.9043 2.75332 -4.60476e-19)
(15.8586 2.96215 -6.23976e-19)
(15.7985 3.16 -1.38461e-19)
(15.7298 3.33873 2.03518e-20)
(15.6567 3.49814 -1.74589e-19)
(15.5879 3.62222 -1.01219e-19)
(15.5683 1.36081 0)
(15.5747 1.36525 -1.59669e-19)
(15.5855 1.37116 1.9657e-18)
(15.5987 1.37922 -5.427e-20)
(15.6142 1.39025 -2.66677e-18)
(15.6331 1.4052 4.31305e-19)
(15.6563 1.42544 -7.85122e-20)
(15.6848 1.45298 -1.91011e-18)
(15.7194 1.49046 0)
(15.7605 1.54129 -2.57425e-18)
(15.8077 1.60942 2.17848e-19)
(15.8594 1.69904 1.36746e-19)
(15.9122 1.81379 0)
(15.9617 1.95575 1.69204e-18)
(16.0022 2.12459 -1.40466e-18)
(16.0286 2.31698 0)
(16.0369 2.52641 -5.98429e-19)
(16.0253 2.7443 0)
(15.9949 2.96073 5.03242e-19)
(15.9488 3.16717 0)
(15.8927 3.35458 -2.08968e-19)
(15.8303 3.52329 1.32257e-19)
(15.7704 3.65439 1.70503e-19)
(15.569 1.35965 0)
(15.575 1.36361 0)
(15.5865 1.36879 7.91358e-20)
(15.6002 1.37605 -1.25015e-19)
(15.6165 1.38612 3.02452e-18)
(15.6364 1.39983 2.54305e-18)
(15.661 1.41849 0)
(15.6915 1.4441 1.79338e-18)
(15.7289 1.47928 0)
(15.774 1.52755 5.24724e-18)
(15.8264 1.59299 2.04613e-18)
(15.885 1.68009 -1.54385e-18)
(15.9464 1.79283 -1.56399e-19)
(16.0062 1.93368 0)
(16.0586 2.10263 1.49404e-18)
(16.0981 2.29655 1.17095e-18)
(16.1202 2.50897 -1.02374e-19)
(16.1228 2.73122 7.66919e-19)
(16.1065 2.95309 6.67062e-19)
(16.0736 3.16593 0)
(16.0298 3.3598 1.44269e-19)
(15.978 3.53585 1.32297e-20)
(15.9272 3.67283 -9.85399e-20)
(15.5698 1.3584 -3.72721e-20)
(15.5752 1.36215 2.01071e-18)
(15.5874 1.36675 -1.88789e-18)
(15.6016 1.37343 0)
(15.6184 1.38278 5.53547e-20)
(15.6391 1.39556 1.03719e-19)
(15.6647 1.41302 -2.37818e-18)
(15.6968 1.43712 0)
(15.7363 1.47048 0)
(15.7843 1.51666 -2.63162e-18)
(15.8408 1.57985 -2.1663e-18)
(15.9047 1.66472 -6.32125e-20)
(15.9729 1.77552 1.64066e-18)
(16.041 1.91501 -5.32491e-20)
(16.1031 2.08342 -2.09497e-19)
(16.1534 2.2778 2.33432e-19)
(16.1874 2.49173 -7.84112e-19)
(16.2024 2.71657 -7.09918e-19)
(16.1985 2.94189 -7.53885e-19)
(16.1779 3.1591 -5.4919e-19)
(16.1456 3.35751 1.66086e-19)
(16.1039 3.53894 -7.24523e-19)
(16.0623 3.68036 1.26981e-19)
(15.5705 1.35709 3.23914e-18)
(15.5753 1.36082 -2.28125e-18)
(15.5882 1.36485 5.78658e-20)
(15.6027 1.37104 1.89152e-18)
(15.6201 1.37972 -8.74789e-20)
(15.6415 1.39163 -2.62261e-18)
(15.6681 1.40795 4.52434e-18)
(15.7015 1.43061 1.26794e-19)
(15.743 1.46221 -9.39603e-20)
(15.7938 1.50632 -2.82248e-18)
(15.8541 1.56721 8.2306e-20)
(15.923 1.64971 -2.0182e-18)
(15.9978 1.75827 -1.45945e-18)
(16.0739 1.89592 0)
(16.1457 2.06313 1.75897e-18)
(16.2072 2.25715 -2.52636e-18)
(16.2534 2.47163 -1.91194e-19)
(16.2816 2.69803 7.47821e-19)
(16.2915 2.92577 -5.25582e-21)
(16.2845 3.14642 6.92979e-19)
(16.2656 3.34856 0)
(16.236 3.53471 2.2267e-19)
(16.2054 3.68002 0)
(15.571 1.35577 -5.03981e-18)
(15.5754 1.3596 -2.26211e-18)
(15.589 1.36308 9.8388e-20)
(15.6037 1.36882 -3.73332e-18)
(15.6215 1.37688 1.64992e-18)
(15.6435 1.38796 -7.68991e-20)
(15.671 1.40318 -2.31394e-18)
(15.7057 1.42446 3.67189e-20)
(15.749 1.45431 -1.10302e-19)
(15.8024 1.49634 2.9046e-18)
(15.8662 1.55485 0)
(15.9399 1.63479 1.84232e-18)
(16.021 1.74079 1.44643e-19)
(16.1051 1.87613 -7.10799e-20)
(16.1866 2.04149 -1.82031e-18)
(16.2594 2.23432 8.99389e-21)
(16.3186 2.44839 7.15809e-19)
(16.3609 2.6753 -1.23736e-18)
(16.3857 2.90435 0)
(16.3939 3.12736 -5.02553e-19)
(16.3901 3.33222 6.52151e-19)
(16.3745 3.52219 0)
(16.3566 3.67071 -3.43905e-19)
(15.5713 1.35446 1.73081e-18)
(15.5754 1.3585 -2.68278e-20)
(15.5896 1.36142 9.98216e-20)
(15.6045 1.36677 1.80279e-18)
(15.6227 1.37423 -3.23987e-18)
(15.6453 1.38452 1.35897e-20)
(15.6736 1.39868 3.37441e-20)
(15.7094 1.41858 2.10564e-18)
(15.7543 1.44669 -4.93661e-20)
(15.81 1.48661 0)
(15.8772 1.54264 2.4419e-18)
(15.9555 1.61982 5.76441e-20)
(16.0427 1.72293 5.70739e-20)
(16.1347 1.85546 1.43875e-20)
(16.226 2.01831 -1.8243e-19)
(16.3105 2.20912 1.42157e-18)
(16.3832 2.42178 -8.3689e-19)
(16.4406 2.64806 -1.37645e-19)
(16.4816 2.87718 -2.63966e-19)
(16.5065 3.10126 7.03997e-19)
(16.5193 3.30755 -4.58635e-19)
(16.5194 3.50011 9.39376e-19)
(16.5159 3.65093 -5.94756e-19)
(15.5715 1.3532 1.82341e-18)
(15.5754 1.35749 2.21316e-18)
(15.5901 1.35986 9.68504e-21)
(15.6052 1.36486 1.92619e-18)
(15.6238 1.37174 3.29065e-18)
(15.6469 1.38127 -1.37933e-20)
(15.6758 1.39439 -3.42988e-20)
(15.7126 1.41293 3.561e-20)
(15.759 1.4393 -1.79479e-18)
(15.8169 1.47707 1.54861e-18)
(15.8872 1.53049 -2.56861e-18)
(15.97 1.6047 -2.05175e-18)
(16.0632 1.70457 1.71483e-18)
(16.1631 1.83378 0)
(16.2642 1.99341 1.05905e-18)
(16.3608 2.18131 0)
(16.4476 2.39146 1.11118e-18)
(16.5209 2.61586 6.84507e-19)
(16.5792 2.84361 -1.10023e-20)
(16.6221 3.06724 -7.97868e-19)
(16.653 3.27334 -1.30133e-20)
(16.6704 3.46687 1.11711e-20)
(16.6827 3.61874 -2.44962e-19)
(15.5717 1.352 1.42439e-20)
(15.5754 1.35658 2.2884e-20)
(15.5905 1.35842 -9.67988e-21)
(15.6058 1.36309 -1.9265e-18)
(15.6247 1.36941 -1.64196e-18)
(15.6482 1.37819 0)
(15.6777 1.39029 2.27277e-20)
(15.7154 1.40749 -2.13396e-18)
(15.7632 1.4321 -3.05847e-20)
(15.8231 1.46765 -1.54979e-18)
(15.8964 1.51835 1.34248e-18)
(15.9834 1.58934 3.19829e-18)
(16.0826 1.6856 -1.65535e-18)
(16.1903 1.81093 1.33667e-18)
(16.3015 1.96658 1.20006e-19)
(16.4105 2.1506 1.48195e-20)
(16.5119 2.35704 -6.28117e-20)
(16.6019 2.57811 -2.21399e-19)
(16.6785 2.80283 1.49661e-19)
(16.7405 3.02416 -2.57741e-19)
(16.7909 3.22808 -2.01574e-20)
(16.8268 3.4205 2.04834e-19)
(16.8562 3.57173 0)
(15.5717 1.35088 -7.98748e-21)
(15.5755 1.35575 0)
(15.5909 1.35707 0)
(15.6063 1.36143 -1.92994e-18)
(15.6255 1.36721 -1.69608e-18)
(15.6493 1.37526 1.46087e-18)
(15.6794 1.38635 1.75939e-20)
(15.7179 1.40221 -1.97767e-20)
(15.7669 1.42504 1.85168e-18)
(15.8288 1.45831 -2.85848e-20)
(15.9048 1.50615 6.48291e-20)
(15.996 1.57367 -1.08614e-18)
(16.1009 1.66589 0)
(16.2165 1.78674 -1.41971e-18)
(16.3379 1.93759 -2.26458e-18)
(16.4596 2.11665 -9.43904e-19)
(16.5761 2.31802 -5.86018e-19)
(16.6835 2.53413 0)
(16.7792 2.75386 0)
(16.8612 2.97071 4.53927e-19)
(16.9319 3.17008 3.09527e-19)
(16.9874 3.35884 -6.3725e-19)
(17.0349 3.50734 0)
(15.5717 1.34984 -1.96813e-18)
(15.5755 1.355 1.15639e-20)
(15.5912 1.3558 -4.81025e-21)
(15.6067 1.35987 1.9158e-18)
(15.6262 1.36511 3.376e-18)
(15.6503 1.37245 -2.90612e-18)
(15.6808 1.38255 -1.77699e-20)
(15.7201 1.39706 -2.00402e-20)
(15.7702 1.41808 2.6353e-20)
(15.8338 1.44899 0)
(15.9126 1.4938 -1.33408e-18)
(16.0077 1.55757 1.13852e-18)
(16.1183 1.64531 0)
(16.2417 1.76103 0)
(16.3734 1.90616 1.07573e-18)
(16.508 2.07906 6.80257e-20)
(16.6401 2.27383 6.65566e-19)
(16.7653 2.48311 5.15639e-19)
(16.8806 2.69561 -7.4582e-19)
(16.9833 2.90542 -2.68174e-19)
(17.0749 3.09746 1.05819e-18)
(17.1504 3.27956 -9.77542e-19)
(17.2163 3.42281 6.416e-19)
(15.5717 1.34888 1.00787e-18)
(15.5755 1.3543 1.05933e-18)
(15.5914 1.35461 1.05711e-20)
(15.607 1.35839 -1.3973e-20)
(15.6267 1.36311 -1.70303e-18)
(15.6511 1.36975 1.47592e-18)
(15.682 1.37885 -1.17631e-20)
(15.722 1.39201 -4.77879e-21)
(15.7731 1.41118 2.66564e-20)
(15.8383 1.43965 1.47964e-20)
(15.9196 1.48125 -1.93972e-20)
(16.0186 1.54097 -1.13898e-18)
(16.1347 1.62375 9.94718e-19)
(16.2659 1.7336 -4.42145e-20)
(16.4079 1.87201 0)
(16.5556 2.03741 -1.01688e-19)
(16.7034 2.22386 8.43649e-20)
(16.8467 2.42418 -5.19019e-19)
(16.9819 2.62692 9.4557e-19)
(17.1053 2.82681 5.56875e-19)
(17.2177 3.00841 -3.76039e-19)
(17.313 3.18048 -5.5651e-19)
(17.3971 3.31562 7.15708e-19)
(15.5716 1.34801 6.1246e-21)
(15.5755 1.35366 -1.06923e-18)
(15.5916 1.35349 0)
(15.6073 1.35699 0)
(15.6272 1.3612 0)
(15.6518 1.36714 0)
(15.683 1.37525 1.18585e-20)
(15.7236 1.38703 -5.38548e-21)
(15.7756 1.40432 -1.34556e-20)
(15.8424 1.43024 1.50014e-20)
(15.9259 1.46846 -1.96712e-20)
(16.0286 1.52379 0)
(16.1501 1.60107 -1.94305e-18)
(16.289 1.70428 5.58977e-20)
(16.4412 1.83485 -1.17026e-19)
(16.602 1.99127 1.09398e-18)
(16.7655 2.16749 -8.82441e-20)
(16.9268 2.35652 1.51141e-19)
(17.0816 2.5467 -1.7499e-19)
(17.2252 2.73354 3.05624e-19)
(17.3577 2.90141 -4.33707e-19)
(17.4717 3.05991 0)
(17.5728 3.18391 4.16645e-19)
(15.5715 1.34722 -2.03702e-18)
(15.5755 1.35306 -5.20078e-19)
(15.5917 1.35244 -7.72961e-21)
(15.6075 1.35566 9.87487e-19)
(15.6275 1.35936 8.62642e-19)
(15.6523 1.36461 6.87967e-21)
(15.6838 1.37172 -1.30021e-18)
(15.7249 1.38212 1.13132e-18)
(15.7777 1.39746 9.51821e-19)
(15.8458 1.42073 0)
(15.9316 1.45536 2.57465e-20)
(16.0377 1.50596 -1.23294e-18)
(16.1644 1.57717 1.01741e-18)
(16.3107 1.67287 7.74409e-19)
(16.473 1.79439 6.60505e-19)
(16.6467 1.94022 0)
(16.8256 2.10413 0)
(17.0044 2.27933 -6.03757e-19)
(17.1779 2.45401 -6.58998e-19)
(17.3406 2.62458 3.28888e-19)
(17.4915 2.7754 2.35905e-19)
(17.6224 2.91694 3.266e-19)
(17.7383 3.02678 -4.55305e-19)
(15.5714 1.3465 1.02601e-18)
(15.5755 1.3525 5.21682e-19)
(15.5918 1.35144 -5.37758e-21)
(15.6077 1.35438 1.07679e-20)
(15.6278 1.35757 -8.61893e-19)
(15.6527 1.36213 -7.40932e-19)
(15.6845 1.36824 6.32549e-19)
(15.7259 1.37723 -1.1196e-18)
(15.7795 1.39058 -9.46363e-19)
(15.8488 1.41108 -2.34671e-20)
(15.9366 1.4419 0)
(16.0459 1.48738 1.19863e-18)
(16.1776 1.55191 1.01601e-18)
(16.331 1.63918 -8.21203e-19)
(16.5031 1.75035 -5.67296e-19)
(16.6891 1.88385 -2.68755e-19)
(16.8828 2.03325 -2.24259e-19)
(17.078 2.19203 1.23588e-18)
(17.2689 2.34828 0)
(17.4485 2.49948 0)
(17.6154 2.63028 2.62255e-19)
(17.7603 2.75188 -6.62632e-19)
(17.8883 2.84484 -4.90809e-19)
(15.5713 1.34585 -1.021e-18)
(15.5755 1.35198 0)
(15.5918 1.35049 0)
(15.6078 1.35315 -1.9825e-18)
(15.628 1.35583 8.58265e-19)
(15.653 1.3597 7.57422e-19)
(15.685 1.36481 -2.30159e-21)
(15.7267 1.37236 5.54127e-19)
(15.7809 1.38365 2.26645e-20)
(15.8513 1.40128 -8.51888e-19)
(15.9409 1.42806 2.62945e-20)
(16.0532 1.46804 -3.44505e-20)
(16.1894 1.52527 -1.01559e-18)
(16.3496 1.60316 8.52397e-19)
(16.5309 1.70262 6.4441e-19)
(16.7286 1.82199 -5.6322e-19)
(16.9359 1.95465 5.14418e-19)
(17.1461 2.09444 -6.31786e-19)
(17.352 2.22949 0)
(17.5458 2.35855 0)
(17.7254 2.46684 -2.47742e-19)
(17.8808 2.56637 1.80704e-19)
(18.0174 2.64066 -5.06727e-19)
(15.5711 1.34525 6.07492e-21)
(15.5755 1.35148 -5.25499e-19)
(15.5919 1.34957 0)
(15.6078 1.35196 4.95326e-19)
(15.6281 1.35413 -1.73133e-18)
(15.6532 1.35731 6.93063e-21)
(15.6853 1.36139 -1.07146e-20)
(15.7273 1.36748 -5.73797e-19)
(15.7819 1.37666 1.37124e-20)
(15.8532 1.39126 8.53944e-19)
(15.9443 1.41376 -2.03185e-20)
(16.0593 1.44779 -5.94465e-19)
(16.1997 1.497 -6.66405e-20)
(16.3661 1.56446 -8.03129e-19)
(16.5558 1.65078 -7.41953e-19)
(16.7641 1.75421 5.24256e-20)
(16.9836 1.86801 0)
(17.2066 1.9865 -8.97298e-20)
(17.4248 2.0981 1.17147e-19)
(17.6295 2.20306 0)
(17.818 2.28751 2.58589e-19)
(17.9799 2.36377 -1.76223e-19)
(18.1213 2.41842 0)
(15.5709 1.34483 1.02453e-18)
(15.5754 1.35112 5.26344e-19)
(15.5918 1.34895 0)
(15.6079 1.35108 4.97891e-19)
(15.6281 1.35293 1.74021e-18)
(15.6533 1.35559 7.53996e-19)
(15.6855 1.35889 1.30548e-18)
(15.7278 1.36379 0)
(15.7828 1.37118 9.82001e-19)
(15.8549 1.38317 -8.48672e-19)
(15.9473 1.40178 7.25876e-19)
(16.0645 1.43018 6.24871e-19)
(16.2084 1.47139 -9.47705e-21)
(16.3802 1.52796 1.23986e-20)
(16.5771 1.59996 -7.16849e-19)
(16.7946 1.68547 5.6308e-19)
(17.0245 1.77763 0)
(17.2579 1.8715 3.37937e-19)
(17.4855 1.95621 0)
(17.6975 2.03357 0)
(17.8909 2.09155 -2.52356e-19)
(18.0553 2.14243 -5.45396e-19)
(18.1977 2.17614 4.73521e-19)
(15.571 1.34445 0)
(15.5755 1.35088 -2.33884e-23)
(15.5919 1.34853 7.34359e-23)
(15.6079 1.35051 -4.99191e-19)
(15.6282 1.35211 -4.34467e-19)
(15.6534 1.35442 -7.53338e-19)
(15.6856 1.35713 -6.53112e-19)
(15.728 1.3611 -6.55464e-22)
(15.7833 1.36703 -4.89994e-19)
(15.8558 1.37672 -2.02054e-22)
(15.9491 1.39176 1.99567e-21)
(16.068 1.41471 0)
(16.2148 1.44792 9.52803e-21)
(16.391 1.49322 -1.24572e-20)
(16.594 1.55004 1.04936e-18)
(16.819 1.61622 3.29735e-20)
(17.057 1.68494 0)
(17.2978 1.75217 9.54922e-20)
(17.5311 1.80825 -1.1818e-19)
(17.7463 1.85665 0)
(17.9402 1.88774 0)
(18.1032 1.91346 3.51842e-19)
(18.2431 1.92673 -2.46125e-19)
(15.5709 1.34407 1.02923e-18)
(15.5756 1.35065 5.3658e-19)
(15.5919 1.3481 0)
(15.6081 1.34994 4.99352e-19)
(15.6284 1.3513 -4.36149e-19)
(15.6536 1.35324 -7.56034e-19)
(15.6859 1.35537 6.55449e-19)
(15.7284 1.35841 -5.69969e-19)
(15.7839 1.36286 -4.91219e-19)
(15.857 1.37024 1.27384e-18)
(15.9511 1.38165 -7.27971e-19)
(16.0715 1.39905 -6.25832e-19)
(16.2207 1.42403 -5.33946e-19)
(16.4004 1.4577 0)
(16.6082 1.49886 -3.59587e-19)
(16.8386 1.5452 5.78481e-19)
(17.0816 1.59015 3.06915e-20)
(17.326 1.63084 -3.77143e-19)
(17.5605 1.65923 0)
(17.7744 1.68033 0)
(17.9645 1.68697 0)
(18.1224 1.69046 -5.27552e-19)
(18.2571 1.68594 4.72829e-19)
(15.5709 1.34369 -1.02982e-18)
(15.5756 1.35041 2.15994e-21)
(15.592 1.34767 0)
(15.6082 1.34938 -4.9933e-19)
(15.6285 1.3505 -4.78779e-23)
(15.6538 1.35207 1.13469e-18)
(15.6862 1.35361 -1.31191e-18)
(15.7288 1.35573 1.71235e-18)
(15.7845 1.3587 -5.68692e-22)
(15.858 1.36375 -4.23643e-19)
(15.9529 1.37148 -3.67732e-19)
(16.0745 1.38323 6.27323e-19)
(16.2256 1.39982 5.27599e-19)
(16.408 1.42158 -4.44019e-19)
(16.6191 1.44676 6.40408e-21)
(16.8526 1.47299 -5.84918e-19)
(17.0978 1.49427 0)
(17.3423 1.50908 0)
(17.5743 1.51129 2.47612e-19)
(17.7832 1.50727 0)
(17.9663 1.4922 0)
(18.1169 1.47653 8.41705e-20)
(18.2445 1.45691 2.27776e-19)
(15.5708 1.34332 0)
(15.5757 1.35018 -5.39268e-19)
(15.592 1.34725 1.45515e-23)
(15.6082 1.34883 7.87705e-22)
(15.6286 1.3497 -3.15473e-23)
(15.6539 1.3509 -7.56806e-19)
(15.6863 1.35187 6.56416e-19)
(15.7291 1.35306 -1.14223e-18)
(15.785 1.35454 -4.93317e-19)
(15.8588 1.35725 0)
(15.9543 1.36126 3.65845e-19)
(16.0768 1.36729 1.26868e-21)
(16.2292 1.37535 2.67668e-22)
(16.4133 1.38503 4.41758e-19)
(16.6261 1.39406 0)
(16.8607 1.40019 2.93656e-19)
(17.1053 1.39826 -6.49895e-21)
(17.3468 1.38826 0)
(17.5732 1.36616 -2.46878e-19)
(17.7745 1.33951 0)
(17.9485 1.30549 0)
(18.0902 1.27363 0)
(18.2098 1.24143 -2.77205e-21)
(15.5707 1.34297 0)
(15.5757 1.34996 2.70485e-19)
(15.592 1.34683 -2.66174e-24)
(15.6083 1.34828 4.98937e-19)
(15.6287 1.3489 4.36766e-19)
(15.654 1.34975 7.56933e-19)
(15.6865 1.35013 0)
(15.7293 1.3504 -5.71492e-19)
(15.7854 1.35039 9.86678e-19)
(15.8594 1.35074 -1.46255e-23)
(15.9552 1.35101 3.66743e-19)
(16.0783 1.35126 -3.14021e-19)
(16.2314 1.35071 0)
(16.4162 1.34821 0)
(16.6292 1.3411 3.61478e-19)
(16.8628 1.3274 -2.88129e-19)
(17.1043 1.30301 0)
(17.3402 1.26962 -3.28841e-19)
(17.5586 1.22531 -2.41888e-19)
(17.7502 1.17858 0)
(17.9137 1.12827 3.87038e-21)
(18.0457 1.08291 2.53072e-22)
(18.1566 1.04034 -1.18012e-19)
(15.5706 1.34263 3.44925e-24)
(15.5758 1.34973 -5.41043e-19)
(15.592 1.34643 -7.74582e-24)
(15.6083 1.34774 0)
(15.6288 1.34812 -4.74466e-23)
(15.6541 1.34861 -7.56964e-19)
(15.6866 1.34841 -1.44129e-22)
(15.7295 1.34775 5.71379e-19)
(15.7856 1.34625 -4.93192e-19)
(15.8598 1.34423 4.26029e-19)
(15.9557 1.34075 -1.75137e-22)
(16.079 1.33519 6.27849e-19)
(16.2322 1.326 -5.31991e-19)
(16.4167 1.31134 1.56681e-21)
(16.6285 1.28824 -7.23296e-19)
(16.8591 1.25518 2.93005e-19)
(17.0953 1.20936 -1.38504e-20)
(17.3233 1.15422 3.39655e-19)
(17.5316 1.08989 2.40021e-19)
(17.712 1.02561 0)
(17.8641 0.961465 1.14792e-19)
(17.9861 0.904984 0)
(18.0883 0.853916 -5.01489e-20)
(15.5706 1.3423 0)
(15.5758 1.34951 2.70551e-19)
(15.592 1.34602 3.06038e-19)
(15.6084 1.3472 2.80073e-23)
(15.6288 1.34734 -8.7409e-19)
(15.6542 1.34747 3.78638e-19)
(15.6867 1.3467 0)
(15.7296 1.34512 0)
(15.7857 1.34213 -2.84583e-22)
(15.86 1.33775 -4.25601e-19)
(15.9559 1.33051 -4.22802e-22)
(16.0791 1.31914 -3.13278e-19)
(16.2318 1.30132 5.29536e-19)
(16.4149 1.2746 0)
(16.624 1.23583 3.58787e-19)
(16.8499 1.1841 -2.83783e-19)
(17.0787 1.11807 1.9931e-19)
(17.2967 1.04295 1.89638e-20)
(17.4935 0.960831 0)
(17.6618 0.881371 0)
(17.802 0.805624 -5.67633e-20)
(17.9139 0.740067 -1.50331e-19)
(18.0073 0.682062 1.04508e-19)
(15.5705 1.34198 0)
(15.5758 1.34929 -1.17043e-23)
(15.592 1.34563 -3.06143e-19)
(15.6084 1.34667 2.49263e-19)
(15.6289 1.34657 4.37126e-19)
(15.6542 1.34635 8.32264e-23)
(15.6867 1.345 3.28948e-19)
(15.7296 1.3425 2.85926e-19)
(15.7858 1.33803 -4.93217e-19)
(15.86 1.33129 0)
(15.9557 1.32029 -7.25198e-22)
(16.0784 1.30314 -3.11459e-19)
(16.23 1.27677 0)
(16.4109 1.23819 -7.77212e-21)
(16.6159 1.18421 3.61244e-19)
(16.8352 1.11466 0)
(17.0549 1.02981 -3.33074e-20)
(17.2615 0.936579 -4.57159e-21)
(17.4455 0.838808 2.75804e-19)
(17.601 0.746376 0)
(17.7292 0.66098 0)
(17.8312 0.588082 7.54617e-20)
(17.9161 0.524432 -2.4825e-19)
(15.5704 1.34167 -6.88496e-24)
(15.5759 1.34908 9.08675e-24)
(15.592 1.34524 0)
(15.6085 1.34615 2.49833e-19)
(15.6289 1.34581 -2.22169e-22)
(15.6543 1.34524 1.66565e-22)
(15.6868 1.34332 -3.28809e-19)
(15.7296 1.3399 -2.86205e-19)
(15.7858 1.33395 4.93225e-19)
(15.8598 1.32486 -4.23382e-19)
(15.9552 1.31013 -3.66126e-19)
(16.077 1.28724 3.14207e-19)
(16.2268 1.25246 2.56583e-19)
(16.4046 1.20229 2.07115e-19)
(16.6042 1.13368 -3.53261e-19)
(16.8155 1.04733 1.5809e-20)
(17.0244 0.94515 -2.37407e-19)
(17.2183 0.835685 -1.13665e-19)
(17.3889 0.724305 -1.15235e-19)
(17.5313 0.620894 7.91481e-20)
(17.6475 0.527553 -1.02422e-19)
(17.7398 0.448768 0)
(17.8164 0.380533 9.42234e-20)
(15.5703 1.34137 0)
(15.5759 1.34886 2.69117e-19)
(15.592 1.34486 3.05759e-19)
(15.6085 1.34563 -2.4944e-19)
(15.6289 1.34506 2.19137e-19)
(15.6543 1.34413 0)
(15.6868 1.34165 3.80733e-22)
(15.7296 1.33732 -5.0093e-22)
(15.7856 1.3299 2.46036e-19)
(15.8594 1.31847 6.35951e-19)
(15.9542 1.30004 -3.60634e-19)
(16.0748 1.27149 -2.17502e-21)
(16.2224 1.22847 -2.44501e-21)
(16.396 1.1671 -2.14737e-19)
(16.5891 1.08456 0)
(16.7909 0.982522 2.63288e-19)
(16.9878 0.864581 -1.98031e-19)
(17.168 0.740737 1.50134e-19)
(17.3246 0.617655 5.04665e-20)
(17.4538 0.505041 4.63266e-21)
(17.5583 0.40522 -9.82022e-20)
(17.6413 0.321762 6.58889e-20)
(17.7099 0.249815 9.24582e-20)
(15.5702 1.34109 2.56263e-19)
(15.5759 1.34865 -5.19387e-22)
(15.592 1.34449 -3.0588e-19)
(15.6085 1.34511 -2.49736e-19)
(15.629 1.34432 -4.38334e-19)
(15.6543 1.34304 -3.78879e-19)
(15.6867 1.33999 -3.80401e-22)
(15.7295 1.33476 5.00466e-22)
(15.7854 1.32588 -2.46037e-19)
(15.8588 1.31213 -2.11616e-19)
(15.9528 1.29004 7.22773e-19)
(16.072 1.25594 -3.05572e-19)
(16.2166 1.2049 -2.57801e-19)
(16.3853 1.13278 2.08339e-19)
(16.5707 1.03712 -1.16346e-20)
(16.7618 0.920618 -2.30749e-19)
(16.9456 0.788515 2.01492e-19)
(17.1115 0.652096 -2.10431e-19)
(17.2536 0.519069 -5.46775e-20)
(17.3696 0.398825 0)
(17.4628 0.293779 9.80309e-20)
(17.5368 0.206654 -1.30359e-19)
(17.5977 0.131712 1.75412e-19)
(15.5701 1.34081 -2.56323e-19)
(15.5759 1.34844 -4.0286e-19)
(15.592 1.34412 -3.06105e-19)
(15.6085 1.34461 2.50031e-19)
(15.629 1.34358 2.19162e-19)
(15.6543 1.34196 3.78887e-19)
(15.6867 1.33835 3.28644e-19)
(15.7293 1.33222 0)
(15.785 1.32188 2.45016e-19)
(15.858 1.30584 -2.10181e-19)
(15.9511 1.28015 -3.60497e-19)
(16.0684 1.24062 3.05578e-19)
(16.2096 1.18184 0)
(16.3725 1.0995 -1.93841e-19)
(16.5492 0.991608 1.4285e-19)
(16.7286 0.861941 -1.24029e-19)
(16.8985 0.717292 5.01416e-20)
(17.0493 0.57003 7.43324e-20)
(17.177 0.428673 -1.93995e-19)
(17.2799 0.302181 1.30006e-19)
(17.362 0.192976 0)
(17.4274 0.103006 -2.5141e-19)
(17.4809 0.0256445 3.60136e-19)
(15.57 1.34055 0)
(15.576 1.34824 1.34122e-19)
(15.592 1.34376 3.06115e-19)
(15.6086 1.34411 -2.50111e-19)
(15.629 1.34285 -3.04297e-23)
(15.6543 1.34089 1.66306e-22)
(15.6866 1.33673 -1.64416e-19)
(15.7291 1.3297 0)
(15.7845 1.31792 -2.45019e-19)
(15.857 1.29962 8.49778e-22)
(15.949 1.27039 0)
(16.0641 1.22559 -1.4991e-19)
(16.2014 1.15939 0)
(16.3578 1.06741 1.4158e-20)
(16.5249 0.948258 -3.15752e-19)
(16.6917 0.806772 9.56538e-20)
(16.8468 0.65119 4.79851e-20)
(16.9824 0.494742 -1.89319e-19)
(17.0954 0.346525 9.42676e-20)
(17.1855 0.215 1.29807e-19)
(17.2569 0.102534 -2.09826e-19)
(17.3141 0.0103813 1.73486e-19)
(17.3604 -0.0689489 -6.42513e-19)
(15.57 1.34029 -2.55666e-19)
(15.576 1.34804 1.33588e-19)
(15.592 1.3434 -1.53071e-19)
(15.6086 1.34361 -1.28728e-22)
(15.629 1.34213 2.21769e-22)
(15.6543 1.33982 -3.84498e-22)
(15.6865 1.33511 -1.64077e-19)
(15.7289 1.3272 1.15144e-21)
(15.784 1.314 -8.58277e-22)
(15.8558 1.29346 9.18665e-22)
(15.9465 1.26079 -1.7681e-19)
(16.0592 1.21089 1.44573e-19)
(16.192 1.13761 6.99878e-21)
(16.3413 1.03665 -1.37776e-20)
(16.4979 0.907268 1.75453e-19)
(16.6514 0.755349 0)
(16.7913 0.59043 8.43422e-20)
(16.9113 0.426372 1.27334e-19)
(17.0098 0.272644 -8.94903e-20)
(17.0872 0.137152 2.38332e-19)
(17.1483 0.0221896 -1.16556e-19)
(17.1974 -0.071612 2.58486e-20)
(17.2368 -0.152547 3.227e-19)
(15.5699 1.34004 5.10791e-19)
(15.576 1.34784 -1.33635e-19)
(15.592 1.34305 1.11891e-23)
(15.6086 1.34312 0)
(15.629 1.34141 0)
(15.6542 1.33877 -1.8869e-19)
(15.6863 1.33352 -1.63599e-19)
(15.7286 1.32473 0)
(15.7833 1.31012 -1.11591e-21)
(15.8545 1.28739 2.0989e-19)
(15.9437 1.25135 1.80022e-19)
(16.0536 1.19655 -4.17566e-21)
(16.1816 1.11659 -8.52435e-21)
(16.3231 1.00735 2.44877e-20)
(16.4687 0.868809 -1.74772e-20)
(16.6082 0.707868 0)
(16.7324 0.535182 -1.21396e-19)
(16.8367 0.36502 4.38554e-21)
(16.9207 0.207023 -2.41923e-19)
(16.9857 0.0685181 1.09166e-19)
(17.0367 -0.0482717 1.52675e-19)
(17.0779 -0.143268 -2.47402e-19)
(17.1105 -0.225495 0)
(15.5698 1.33981 -5.0952e-19)
(15.576 1.34764 1.80419e-23)
(15.5919 1.34271 1.53182e-19)
(15.6086 1.34263 0)
(15.6289 1.34071 0)
(15.6541 1.33773 3.94244e-22)
(15.6862 1.33194 3.26789e-19)
(15.7282 1.32228 0)
(15.7826 1.30628 1.21278e-19)
(15.8529 1.28141 0)
(15.9406 1.2421 0)
(16.0474 1.18261 -5.18921e-21)
(16.1701 1.09639 6.77763e-21)
(16.3033 0.97962 7.96486e-20)
(16.4373 0.833025 1.69252e-20)
(16.5624 0.664485 -2.86759e-20)
(16.6708 0.485577 1.17816e-19)
(16.7593 0.310753 0)
(16.8288 0.149655 7.90718e-20)
(16.8815 0.00901244 0)
(16.9227 -0.108995 3.3281e-20)
(16.9562 -0.204777 4.61082e-20)
(16.9821 -0.288018 0)
(15.5697 1.33958 3.81254e-19)
(15.576 1.34744 -6.66026e-20)
(15.5919 1.34237 0)
(15.6086 1.34215 1.24498e-19)
(15.6289 1.34001 -1.08773e-19)
(15.6541 1.3367 1.88542e-19)
(15.686 1.33037 -1.63476e-19)
(15.7278 1.31985 -1.42019e-19)
(15.7818 1.30249 -1.20433e-19)
(15.8512 1.27551 -1.86988e-21)
(15.9371 1.23304 2.45055e-21)
(16.0407 1.1691 1.42302e-19)
(16.1577 1.07707 8.10469e-21)
(16.2822 0.953539 -1.15759e-19)
(16.4042 0.80003 1.63453e-20)
(16.5145 0.625318 0)
(16.6069 0.441706 0)
(16.6796 0.263617 0)
(16.7348 0.100539 0)
(16.7753 -0.0414081 -2.28547e-20)
(16.8068 -0.160058 -1.47559e-19)
(16.8326 -0.256252 1.45139e-19)
(16.8519 -0.340254 0)
(15.5696 1.33936 -1.26846e-19)
(15.576 1.34725 1.33209e-19)
(15.5919 1.34204 0)
(15.6086 1.34168 -1.24581e-19)
(15.6289 1.33931 2.17682e-19)
(15.654 1.33568 0)
(15.6858 1.32882 0)
(15.7274 1.31745 1.41379e-19)
(15.7809 1.29874 0)
(15.8493 1.26972 -1.00164e-19)
(15.9333 1.22421 -8.77286e-20)
(16.0334 1.15606 -7.23303e-20)
(16.1445 1.05868 1.12062e-19)
(16.2599 0.929184 0)
(16.3695 0.769913 0)
(16.4649 0.590448 2.55847e-20)
(16.5412 0.403627 -3.34409e-20)
(16.5982 0.223639 0)
(16.6392 0.0596801 -3.11568e-20)
(16.6677 -0.0827465 2.29664e-20)
(16.6895 -0.201475 1.15816e-19)
(16.7076 -0.297728 -1.51769e-19)
(16.7202 -0.382231 0)
(15.5695 1.33915 1.36138e-23)
(15.576 1.34706 -1.33244e-19)
(15.5919 1.34171 -4.24467e-23)
(15.6085 1.34121 -6.20757e-20)
(15.6288 1.33863 -1.08908e-19)
(15.6539 1.33466 9.3931e-20)
(15.6856 1.32728 2.86386e-22)
(15.7269 1.31508 -7.11267e-20)
(15.7799 1.29505 1.221e-19)
(15.8473 1.26403 1.00593e-19)
(15.9293 1.2156 8.53149e-20)
(16.0256 1.1435 -7.00423e-20)
(16.1304 1.04127 -1.12135e-19)
(16.2365 0.906613 -1.15471e-20)
(16.3335 0.742731 1.51171e-20)
(16.414 0.55992 2.39936e-20)
(16.4743 0.371362 -3.13861e-20)
(16.5157 0.190827 0)
(16.5427 0.0270893 3.12932e-20)
(16.5592 -0.114969 0)
(16.5713 -0.233183 -1.38371e-20)
(16.5816 -0.329132 0)
(16.5874 -0.413838 -5.16922e-21)
(15.5695 1.33895 6.29408e-20)
(15.5761 1.34688 6.66032e-20)
(15.5918 1.34139 7.65924e-20)
(15.6085 1.34074 1.79422e-22)
(15.6288 1.33795 -1.90399e-22)
(15.6537 1.33366 1.85953e-22)
(15.6853 1.32576 -8.14444e-20)
(15.7263 1.31273 -3.59492e-22)
(15.7788 1.2914 -1.20164e-19)
(15.8451 1.25845 -1.81952e-21)
(15.9249 1.20723 8.57434e-20)
(16.0173 1.13145 0)
(16.1157 1.02487 -7.39649e-21)
(16.2122 0.885865 9.66629e-21)
(16.2966 0.718518 2.96375e-20)
(16.3622 0.533746 0)
(16.4067 0.344902 0)
(16.4328 0.165168 -1.93206e-20)
(16.4457 0.00278065 0)
(16.4503 -0.138009 7.12878e-20)
(16.4528 -0.255044 -8.17521e-20)
(16.455 -0.350258 6.99631e-21)
(16.4539 -0.434784 1.60165e-19)
(15.5694 1.33875 -1.25781e-19)
(15.5761 1.34669 -3.33394e-20)
(15.5918 1.34107 -1.14836e-19)
(15.6085 1.34028 6.23192e-20)
(15.6287 1.33727 5.41569e-20)
(15.6536 1.33267 -1.41166e-19)
(15.685 1.32426 8.15372e-20)
(15.7258 1.31041 6.97115e-20)
(15.7776 1.28781 1.92519e-21)
(15.8428 1.25298 -1.42035e-21)
(15.9203 1.19911 -8.3375e-20)
(16.0087 1.11993 -3.31146e-20)
(16.1004 1.0095 4.45448e-20)
(16.1872 0.866963 4.82023e-20)
(16.2589 0.697276 -2.96842e-20)