/*--------------------------------*- C++ -*----------------------------------*\
  =========                 |
  \\      /  F ield         | OpenFOAM: The Open Source CFD Toolbox
   \\    /   O peration     | Website:  https://openfoam.org
    \\  /    A nd           | Version:  7
     \\/     M anipulation  |
\*---------------------------------------------------------------------------*/
FoamFile
{
    version     2.0;
    format      ascii;
    class       volScalarField;
    location    "68";
    object      yPlus;
}
// * * * * * * * * * * * * * * * * * * * * * * * * * * * * * * * * * * * * * //

dimensions      [0 0 0 0 0 0 0];

internalField   uniform 0;

boundaryField
{
    inlet
    {
        type            calculated;
        value           uniform 0;
    }
    outlet
    {
        type            calculated;
        value           uniform 0;
    }
    suction_side
    {
        type            calculated;
        value           nonuniform List<scalar> 
56
(
6.51771
6.83427
6.90737
7.34256
7.41542
8.10406
8.20015
9.33839
9.40858
11.4019
11.4059
14.8513
17.9433
29.3956
39.865
47.0314
46.7081
43.2053
38.2878
31.3608
29.957
34.6347
39.2072
41.8669
43.3078
43.9215
43.9256
43.5478
42.9371
42.1944
41.3595
40.504
39.6731
38.8831
38.1317
37.4063
36.698
36.002
35.3191
34.6465
33.9763
33.3014
32.6044
31.8825
31.116
30.3125
29.4273
28.4497
27.325
26.1847
25.1176
24.1038
23.2728
22.308
22.0587
20.7277
)
;
    }
    pressure_side
    {
        type            calculated;
        value           nonuniform List<scalar> 
56
(
28.9391
29.5898
29.8448
30.5481
31.047
31.6984
32.3295
32.9718
33.5444
34.0402
34.4677
34.849
35.199
35.5199
35.8149
36.0881
36.3382
36.5674
36.7863
36.9989
37.2033
37.3953
37.5605
37.6717
37.6948
37.6151
37.4798
37.4303
37.5787
38.0665
38.9764
40.2526
41.711
42.9193
43.5511
43.6391
42.696
40.8482
38.0456
34.1418
29.3013
23.7534
17.8658
11.8587
7.60383
6.47961
5.13877
4.71729
4.53956
4.68474
4.95532
5.21683
5.64281
6.00945
6.12774
6.43406
)
;
    }
    trailing_edge
    {
        type            calculated;
        value           nonuniform List<scalar> 2(104.577 92.3835);
    }
    defaultFaces
    {
        type            empty;
    }
}


// ************************************************************************* //
