/*--------------------------------*- C++ -*----------------------------------*\
  =========                 |
  \\      /  F ield         | OpenFOAM: The Open Source CFD Toolbox
   \\    /   O peration     | Website:  https://openfoam.org
    \\  /    A nd           | Version:  7
     \\/     M anipulation  |
\*---------------------------------------------------------------------------*/
FoamFile
{
    version     2.0;
    format      ascii;
    class       volSymmTensorField;
    location    "1100";
    object      devReff;
}
// * * * * * * * * * * * * * * * * * * * * * * * * * * * * * * * * * * * * * //

dimensions      [0 2 -2 0 0 0 0];

internalField   nonuniform List<symmTensor> 
180
(
(2.3987e-20 -0.0255038 -0 -3.57754e-20 -0 1.17884e-20)
(-1.52994e-20 -0.0322228 -0 1.54068e-20 -0 -1.07444e-22)
(6.47421e-21 -0.0133598 -0 -1.29484e-20 -0 6.47421e-21)
(-2.25541e-21 -0.0137945 -0 4.51083e-21 -0 -2.25541e-21)
(-2.24829e-20 -0.0132615 -0 4.49658e-20 -0 -2.24829e-20)
(5.88074e-21 -0.0137874 -0 -1.17615e-20 -0 5.88074e-21)
(-2.89051e-21 -0.0128084 -0 5.78102e-21 -0 -2.89051e-21)
(7.21657e-21 -0.0133437 -0 -1.44331e-20 -0 7.21657e-21)
(6.39872e-21 -0.0124424 -0 -1.27974e-20 -0 6.39872e-21)
(-4.0052e-21 -0.0129374 -0 8.01039e-21 -0 -4.0052e-21)
(-1.31329e-23 -0.0121252 -0 2.62657e-23 -0 -1.31329e-23)
(-1.12927e-20 -0.0125749 -0 2.25854e-20 -0 -1.12927e-20)
(-7.83882e-21 -0.0118324 -0 1.56776e-20 -0 -7.83882e-21)
(-5.09118e-21 -0.0122388 -0 1.01824e-20 -0 -5.09118e-21)
(-2.60274e-21 -0.0115539 -0 5.20548e-21 -0 -2.60274e-21)
(-7.80071e-21 -0.0119198 -0 1.56014e-20 -0 -7.80071e-21)
(6.30417e-21 -0.0112855 -0 -1.26083e-20 -0 6.30417e-21)
(-1.11122e-20 -0.0116134 -0 2.22244e-20 -0 -1.11122e-20)
(1.22413e-20 -0.0110253 -0 -2.44826e-20 -0 1.22413e-20)
(-1.05113e-20 -0.0113169 -0 2.10227e-20 -0 -1.05113e-20)
(3.06432e-20 -0.0107719 -0 -6.12864e-20 -0 3.06432e-20)
(-1.15518e-20 -0.0110288 -0 2.31037e-20 -0 -1.15518e-20)
(5.60309e-20 -0.0105244 -0 -1.12062e-19 -0 5.60309e-20)
(-1.3432e-20 -0.0107478 -0 2.68639e-20 -0 -1.3432e-20)
(-1.48289e-20 -0.0102818 -0 2.96579e-20 -0 -1.48289e-20)
(-2.35274e-20 -0.0104728 -0 4.70547e-20 -0 -2.35274e-20)
(-1.44981e-19 -0.0100427 -0 2.89962e-19 -0 -1.44981e-19)
(8.61896e-20 -0.0102027 -0 -1.72379e-19 -0 8.61896e-20)
(-1.41248e-19 -0.00980608 -0 2.82497e-19 -0 -1.41248e-19)
(1.47332e-19 -0.00993675 -0 -2.94664e-19 -0 1.47332e-19)
(-7.99182e-20 -0.00957075 -0 1.59836e-19 -0 -7.99182e-20)
(-2.33647e-20 -0.00967394 -0 4.67295e-20 -0 -2.33647e-20)
(-6.79038e-20 -0.00933567 -0 1.35808e-19 -0 -6.79038e-20)
(-2.0854e-20 -0.00941356 -0 4.1708e-20 -0 -2.0854e-20)
(-5.104e-20 -0.00909997 -0 1.0208e-19 -0 -5.104e-20)
(7.83152e-20 -0.009155 -0 -1.5663e-19 -0 7.83152e-20)
(-3.06025e-20 -0.00886297 -0 6.1205e-20 -0 -3.06025e-20)
(5.22241e-20 -0.00889776 -0 -1.04448e-19 -0 5.22241e-20)
(-1.92276e-20 -0.00862425 -0 3.84551e-20 -0 -1.92276e-20)
(3.06622e-20 -0.00864152 -0 -6.13244e-20 -0 3.06622e-20)
(-1.24277e-20 -0.00838357 -0 2.48554e-20 -0 -1.24277e-20)
(1.65852e-20 -0.00838604 -0 -3.31705e-20 -0 1.65852e-20)
(-7.72849e-21 -0.00814091 -0 1.5457e-20 -0 -7.72849e-21)
(8.76077e-21 -0.00813124 -0 -1.75215e-20 -0 8.76077e-21)
(-4.69952e-21 -0.00789642 -0 9.39904e-21 -0 -4.69952e-21)
(4.96096e-21 -0.00787713 -0 -9.92193e-21 -0 4.96096e-21)
(-3.67013e-21 -0.00765041 -0 7.34025e-21 -0 -3.67013e-21)
(2.93466e-21 -0.00762381 -0 -5.86932e-21 -0 2.93466e-21)
(-3.09321e-21 -0.00740328 -0 6.18641e-21 -0 -3.09321e-21)
(1.82617e-21 -0.00737143 -0 -3.65235e-21 -0 1.82617e-21)
(-2.88271e-21 -0.0071555 -0 5.76542e-21 -0 -2.88271e-21)
(1.2253e-21 -0.00712021 -0 -2.45061e-21 -0 1.2253e-21)
(-2.87342e-21 -0.0069076 -0 5.74684e-21 -0 -2.87342e-21)
(8.36575e-22 -0.00687039 -0 -1.67315e-21 -0 8.36575e-22)
(-2.85449e-21 -0.00666011 -0 5.70899e-21 -0 -2.85449e-21)
(5.75621e-22 -0.00662225 -0 -1.15124e-21 -0 5.75621e-22)
(-2.61663e-21 -0.00641355 -0 5.23327e-21 -0 -2.61663e-21)
(3.21579e-22 -0.00637605 -0 -6.43158e-22 -0 3.21579e-22)
(-2.70419e-21 -0.00616844 -0 5.40837e-21 -0 -2.70419e-21)
(7.56218e-24 -0.00613207 -0 -1.51244e-23 -0 7.56218e-24)
(-2.74069e-21 -0.00592525 -0 5.48138e-21 -0 -2.74069e-21)
(-3.62439e-22 -0.00589056 -0 7.24878e-22 -0 -3.62439e-22)
(-2.23417e-21 -0.0056844 -0 4.46834e-21 -0 -2.23417e-21)
(-7.99069e-22 -0.00565178 -0 1.59814e-21 -0 -7.99069e-22)
(-1.69511e-21 -0.00544629 -0 3.39022e-21 -0 -1.69511e-21)
(-7.62677e-22 -0.00541595 -0 1.52535e-21 -0 -7.62677e-22)
(-1.0078e-21 -0.00521124 -0 2.01559e-21 -0 -1.0078e-21)
(-7.35906e-22 -0.0051833 -0 1.47181e-21 -0 -7.35906e-22)
(-2.35956e-22 -0.00497956 -0 4.71912e-22 -0 -2.35956e-22)
(-1.24155e-21 -0.00495399 -0 2.48309e-21 -0 -1.24155e-21)
(8.45038e-23 -0.00475149 -0 -1.69008e-22 -0 8.45038e-23)
(-1.83296e-21 -0.00472821 -0 3.66593e-21 -0 -1.83296e-21)
(3.53849e-22 -0.00452723 -0 -7.07699e-22 -0 3.53849e-22)
(-2.44496e-21 -0.00450611 -0 4.88992e-21 -0 -2.44496e-21)
(1.17969e-21 -0.00430697 -0 -2.35937e-21 -0 1.17969e-21)
(-3.12761e-21 -0.00428782 -0 6.25522e-21 -0 -3.12761e-21)
(2.05629e-21 -0.00409083 -0 -4.11258e-21 -0 2.05629e-21)
(-3.28552e-21 -0.00407344 -0 6.57104e-21 -0 -3.28552e-21)
(2.99019e-21 -0.00387893 -0 -5.98038e-21 -0 2.99019e-21)
(-3.434e-21 -0.00386309 -0 6.868e-21 -0 -3.434e-21)
(3.40749e-21 -0.00367136 -0 -6.81497e-21 -0 3.40749e-21)
(-3.99758e-21 -0.00365684 -0 7.99517e-21 -0 -3.99758e-21)
(3.76247e-21 -0.00346817 -0 -7.52494e-21 -0 3.76247e-21)
(-4.52612e-21 -0.00345477 -0 9.05224e-21 -0 -4.52612e-21)
(4.33946e-21 -0.00326942 -0 -8.67892e-21 -0 4.33946e-21)
(-5.06036e-21 -0.00325692 -0 1.01207e-20 -0 -5.06036e-21)
(4.8971e-21 -0.00307514 -0 -9.7942e-21 -0 4.8971e-21)
(-5.64752e-21 -0.00306336 -0 1.1295e-20 -0 -5.64752e-21)
(5.69206e-21 -0.00288534 -0 -1.13841e-20 -0 5.69206e-21)
(-6.02064e-21 -0.00287411 -0 1.20413e-20 -0 -6.02064e-21)
(6.21362e-21 -0.00270003 -0 -1.24272e-20 -0 6.21362e-21)
(-6.38301e-21 -0.0026892 -0 1.2766e-20 -0 -6.38301e-21)
(6.6675e-21 -0.00251922 -0 -1.3335e-20 -0 6.6675e-21)
(-6.97226e-21 -0.00250865 -0 1.39445e-20 -0 -6.97226e-21)
(7.35488e-21 -0.00234289 -0 -1.47098e-20 -0 7.35488e-21)
(-7.53204e-21 -0.00233249 -0 1.50641e-20 -0 -7.53204e-21)
(7.75364e-21 -0.00217104 -0 -1.55073e-20 -0 7.75364e-21)
(-7.84894e-21 -0.0021607 -0 1.56979e-20 -0 -7.84894e-21)
(8.08645e-21 -0.00200364 -0 -1.61729e-20 -0 8.08645e-21)
(-8.11755e-21 -0.00199329 -0 1.62351e-20 -0 -8.11755e-21)
(8.64128e-21 -0.00184068 -0 -1.72826e-20 -0 8.64128e-21)
(-8.58536e-21 -0.00183026 -0 1.71707e-20 -0 -8.58536e-21)
(9.05875e-21 -0.00168212 -0 -1.81175e-20 -0 9.05875e-21)
(-9.00599e-21 -0.00167159 -0 1.8012e-20 -0 -9.00599e-21)
(9.44828e-21 -0.00152795 -0 -1.88966e-20 -0 9.44828e-21)
(-9.28657e-21 -0.00151726 -0 1.85731e-20 -0 -9.28657e-21)
(9.79352e-21 -0.00137812 -0 -1.9587e-20 -0 9.79352e-21)
(-9.55749e-21 -0.00136726 -0 1.9115e-20 -0 -9.55749e-21)
(1.01046e-20 -0.0012326 -0 -2.02092e-20 -0 1.01046e-20)
(-9.80938e-21 -0.00122156 -0 1.96188e-20 -0 -9.80938e-21)
(1.03949e-20 -0.00109136 -0 -2.07897e-20 -0 1.03949e-20)
(-1.00379e-20 -0.00108012 -0 2.00759e-20 -0 -1.00379e-20)
(1.06405e-20 -0.000954365 -0 -2.12809e-20 -0 1.06405e-20)
(-1.03599e-20 -0.000942923 -0 2.07199e-20 -0 -1.03599e-20)
(1.09123e-20 -0.000821562 -0 -2.18246e-20 -0 1.09123e-20)
(-1.06022e-20 -0.000809923 -0 2.12045e-20 -0 -1.06022e-20)
(1.10988e-20 -0.000692912 -0 -2.21977e-20 -0 1.10988e-20)
(-1.07491e-20 -0.000681081 -0 2.14982e-20 -0 -1.07491e-20)
(1.13221e-20 -0.000568372 -0 -2.26442e-20 -0 1.13221e-20)
(-1.09485e-20 -0.000556356 -0 2.1897e-20 -0 -1.09485e-20)
(1.15847e-20 -0.000447895 -0 -2.31695e-20 -0 1.15847e-20)
(-1.11866e-20 -0.000435703 -0 2.23732e-20 -0 -1.11866e-20)
(1.17923e-20 -0.000331434 -0 -2.35846e-20 -0 1.17923e-20)
(-1.13714e-20 -0.000319077 -0 2.27429e-20 -0 -1.13714e-20)
(1.19552e-20 -0.000218941 -0 -2.39103e-20 -0 1.19552e-20)
(-1.15155e-20 -0.000206429 -0 2.3031e-20 -0 -1.15155e-20)
(1.21107e-20 -0.000110369 -0 -2.42215e-20 -0 1.21107e-20)
(-1.1654e-20 -9.77138e-05 -0 2.33079e-20 -0 -1.1654e-20)
(1.22637e-20 -5.6713e-06 -0 -2.45273e-20 -0 1.22637e-20)
(-1.1798e-20 7.11721e-06 -0 2.35961e-20 -0 -1.1798e-20)
(1.24085e-20 9.51984e-05 -0 -2.48171e-20 -0 1.24085e-20)
(-1.19282e-20 0.00010811 -0 2.38565e-20 -0 -1.19282e-20)
(1.25458e-20 0.000192284 -0 -2.50916e-20 -0 1.25458e-20)
(-1.20551e-20 0.000205309 -0 2.41102e-20 -0 -1.20551e-20)
(1.26516e-20 0.000285627 -0 -2.53032e-20 -0 1.26516e-20)
(-1.21778e-20 0.000298757 -0 2.43556e-20 -0 -1.21778e-20)
(1.27647e-20 0.000375267 -0 -2.55294e-20 -0 1.27647e-20)
(-1.22801e-20 0.000388494 -0 2.45603e-20 -0 -1.22801e-20)
(1.2901e-20 0.00046124 -0 -2.5802e-20 -0 1.2901e-20)
(-1.2372e-20 0.000474556 -0 2.47439e-20 -0 -1.2372e-20)
(1.30255e-20 0.00054358 -0 -2.6051e-20 -0 1.30255e-20)
(-1.24935e-20 0.000556977 -0 2.4987e-20 -0 -1.24935e-20)
(1.30749e-20 0.000622315 -0 -2.61498e-20 -0 1.30749e-20)
(-1.25992e-20 0.000635789 -0 2.51985e-20 -0 -1.25992e-20)
(1.31263e-20 0.000697476 -0 -2.62527e-20 -0 1.31263e-20)
(-1.26313e-20 0.000711021 -0 2.52627e-20 -0 -1.26313e-20)
(1.32315e-20 0.00076909 -0 -2.6463e-20 -0 1.32315e-20)
(-1.26419e-20 0.000782702 -0 2.52838e-20 -0 -1.26419e-20)
(1.33261e-20 0.000837188 -0 -2.66522e-20 -0 1.33261e-20)
(-1.27038e-20 0.000850862 -0 2.54076e-20 -0 -1.27038e-20)
(1.34064e-20 0.000901803 -0 -2.68128e-20 -0 1.34064e-20)
(-1.276e-20 0.000915537 -0 2.55199e-20 -0 -1.276e-20)
(1.34719e-20 0.00096298 -0 -2.69437e-20 -0 1.34719e-20)
(-1.28018e-20 0.000976769 -0 2.56036e-20 -0 -1.28018e-20)
(1.35293e-20 0.00102077 -0 -2.70586e-20 -0 1.35293e-20)
(-1.284e-20 0.00103462 -0 2.56799e-20 -0 -1.284e-20)
(1.35707e-20 0.00107526 -0 -2.71415e-20 -0 1.35707e-20)
(-1.2865e-20 0.00108915 -0 2.573e-20 -0 -1.2865e-20)
(1.36065e-20 0.00112653 -0 -2.72129e-20 -0 1.36065e-20)
(-1.28861e-20 0.00114048 -0 2.57722e-20 -0 -1.28861e-20)
(1.36439e-20 0.00117474 -0 -2.72877e-20 -0 1.36439e-20)
(-1.29118e-20 0.00118874 -0 2.58237e-20 -0 -1.29118e-20)
(1.368e-20 0.00122009 -0 -2.736e-20 -0 1.368e-20)
(-1.29358e-20 0.00123413 -0 2.58715e-20 -0 -1.29358e-20)
(1.37337e-20 0.00126285 -0 -2.74673e-20 -0 1.37337e-20)
(-1.29782e-20 0.00127695 -0 2.59565e-20 -0 -1.29782e-20)
(1.38097e-20 0.00130343 -0 -2.76193e-20 -0 1.38097e-20)
(-1.30414e-20 0.00131757 -0 2.60828e-20 -0 -1.30414e-20)
(1.39194e-20 0.0013424 -0 -2.78388e-20 -0 1.39194e-20)
(-1.31394e-20 0.0013566 -0 2.62787e-20 -0 -1.31394e-20)
(1.40908e-20 0.00138059 -0 -2.81816e-20 -0 1.40908e-20)
(-1.32997e-20 0.00139487 -0 2.65994e-20 -0 -1.32997e-20)
(1.434e-20 0.00141915 -0 -2.86801e-20 -0 1.434e-20)
(-1.35405e-20 0.00143352 -0 2.7081e-20 -0 -1.35405e-20)
(1.44781e-20 0.00146002 -0 -2.89562e-20 -0 1.44781e-20)
(-1.36771e-20 0.00147449 -0 2.73542e-20 -0 -1.36771e-20)
(1.37317e-20 0.00150549 -0 -2.74634e-20 -0 1.37317e-20)
(-1.29422e-20 0.00152011 -0 2.58843e-20 -0 -1.29422e-20)
(1.27578e-20 0.00076563 -0 -2.55156e-20 -0 1.27578e-20)
(-1.1973e-20 0.000772981 -0 2.39461e-20 -0 -1.1973e-20)
)
;

boundaryField
{
    inlet
    {
        type            cyclic;
    }
    outlet
    {
        type            cyclic;
    }
    bottom
    {
        type            symmetry;
    }
    top
    {
        type            calculated;
        value           nonuniform List<symmTensor> 2((6.4954e-21 -0.0132874 -0 -9.08767e-21 -0 2.59227e-21) (-4.05493e-21 -0.013823 -0 4.20673e-21 -0 -1.51803e-22));
    }
    frontAndBack
    {
        type            empty;
    }
}


// ************************************************************************* //
