/*--------------------------------*- C++ -*----------------------------------*\
  =========                 |
  \\      /  F ield         | OpenFOAM: The Open Source CFD Toolbox
   \\    /   O peration     | Website:  https://openfoam.org
    \\  /    A nd           | Version:  7
     \\/     M anipulation  |
\*---------------------------------------------------------------------------*/
FoamFile
{
    version     2.0;
    format      ascii;
    class       volScalarField;
    location    "1100";
    object      k;
}
// * * * * * * * * * * * * * * * * * * * * * * * * * * * * * * * * * * * * * //

dimensions      [0 2 -2 0 0 0 0];

internalField   nonuniform List<scalar> 
180
(
0.0559468
0.077239
0.0396529
0.0450597
0.0393756
0.0420831
0.0391867
0.0411156
0.0389015
0.0404346
0.0386186
0.0398805
0.0383969
0.0394449
0.0382656
0.0391344
0.0382364
0.0389509
0.0383103
0.038891
0.038482
0.0389467
0.0387426
0.0391075
0.0390821
0.0393619
0.03949
0.0396979
0.0399565
0.0401046
0.0404725
0.0405714
0.04103
0.0410891
0.041622
0.0416496
0.0422425
0.0422457
0.0428864
0.0428713
0.0435494
0.043521
0.0442278
0.0441904
0.0449186
0.0448757
0.0456192
0.0455733
0.0463273
0.0462807
0.0470411
0.0469953
0.0477589
0.0477151
0.0484792
0.0484382
0.0492009
0.0491632
0.0499228
0.0498886
0.0506438
0.0506133
0.0513632
0.0513362
0.05208
0.0520564
0.0527935
0.0527731
0.053503
0.0534856
0.0542078
0.054193
0.0549073
0.0548948
0.0556009
0.0555905
0.0562881
0.0562795
0.0569683
0.0569612
0.0576411
0.0576353
0.058306
0.0583012
0.0589625
0.0589586
0.0596102
0.0596071
0.0602487
0.0602462
0.0608777
0.0608757
0.0614967
0.0614952
0.0621054
0.0621043
0.0627036
0.0627028
0.0632908
0.0632903
0.0638669
0.0638665
0.0644314
0.0644312
0.0649841
0.0649842
0.0655248
0.0655251
0.0660533
0.0660536
0.0665692
0.0665697
0.0670723
0.067073
0.0675625
0.0675633
0.0680394
0.0680404
0.068503
0.0685042
0.068953
0.0689543
0.0693892
0.0693906
0.0698114
0.069813
0.0702195
0.0702213
0.0706133
0.0706152
0.0709926
0.0709946
0.0713573
0.0713595
0.0717072
0.0717095
0.0720422
0.0720446
0.0723622
0.0723647
0.0726669
0.0726696
0.0729564
0.0729591
0.0732304
0.0732332
0.0734889
0.0734918
0.0737317
0.0737347
0.0739587
0.0739619
0.07417
0.0741732
0.0743652
0.0743685
0.0745445
0.0745479
0.0747077
0.0747111
0.0748546
0.0748581
0.0749854
0.0749889
0.0750998
0.0751033
0.0751979
0.0752014
0.0752795
0.0752831
0.0753446
0.0753482
0.0753931
0.0753967
0.0754248
0.0754284
0.0754396
0.0754432
0.0754371
0.0754407
)
;

boundaryField
{
    inlet
    {
        type            cyclic;
    }
    outlet
    {
        type            cyclic;
    }
    bottom
    {
        type            symmetry;
    }
    top
    {
        type            kqRWallFunction;
        value           nonuniform List<scalar> 2(0.0559468 0.077239);
    }
    frontAndBack
    {
        type            empty;
    }
}


// ************************************************************************* //
