/*--------------------------------*- C++ -*----------------------------------*\
  =========                 |
  \\      /  F ield         | OpenFOAM: The Open Source CFD Toolbox
   \\    /   O peration     | Website:  https://openfoam.org
    \\  /    A nd           | Version:  7
     \\/     M anipulation  |
\*---------------------------------------------------------------------------*/
FoamFile
{
    version     2.0;
    format      ascii;
    class       volScalarField;
    location    "1100";
    object      nut;
}
// * * * * * * * * * * * * * * * * * * * * * * * * * * * * * * * * * * * * * //

dimensions      [0 2 -1 0 0 0 0];

internalField   nonuniform List<scalar> 
180
(
2.12535e-05
2.89225e-05
4.62258e-05
5.26212e-05
8.41187e-05
8.9499e-05
0.000126152
0.000131019
0.000170768
0.000175116
0.0002179
0.000221636
0.000267842
0.000270869
0.000320927
0.000323175
0.000377423
0.00037886
0.000437502
0.000438135
0.000501233
0.000501112
0.000568597
0.000567804
0.0006395
0.000638146
0.000713794
0.000712002
0.000791286
0.000789188
0.000871759
0.000869482
0.000954978
0.000952637
0.0010407
0.00103839
0.00112866
0.00112647
0.00121862
0.0012166
0.00131033
0.00130852
0.00140353
0.00140195
0.00149798
0.00149663
0.00159344
0.00159231
0.00168968
0.00168874
0.00178647
0.0017857
0.00188358
0.00188296
0.00198081
0.0019803
0.00207796
0.00207754
0.00217483
0.00217447
0.00227124
0.00227092
0.00236704
0.00236674
0.00246206
0.00246177
0.00255615
0.00255587
0.00264921
0.00264892
0.00274109
0.0027408
0.00283171
0.00283142
0.00292096
0.00292066
0.00300876
0.00300847
0.00309504
0.00309476
0.00317974
0.00317947
0.0032628
0.00326254
0.00334418
0.00334393
0.00342383
0.00342361
0.00350172
0.00350152
0.00357783
0.00357766
0.00365213
0.00365199
0.00372461
0.00372449
0.00379525
0.00379516
0.00386405
0.00386399
0.00393099
0.00393096
0.00399607
0.00399607
0.0040593
0.00405933
0.00412068
0.00412073
0.0041802
0.00418028
0.00423788
0.00423799
0.00429372
0.00429385
0.00434773
0.00434788
0.00439992
0.00440009
0.0044503
0.00445049
0.00449887
0.00449909
0.00454566
0.00454589
0.00459067
0.00459092
0.00463392
0.00463419
0.00467541
0.0046757
0.00471517
0.00471547
0.0047532
0.00475351
0.00478951
0.00478984
0.00482413
0.00482446
0.00485705
0.0048574
0.0048883
0.00488866
0.00491789
0.00491826
0.00494582
0.0049462
0.00497211
0.0049725
0.00499677
0.00499718
0.00501982
0.00502023
0.00504125
0.00504167
0.00506109
0.00506151
0.00507933
0.00507976
0.005096
0.00509643
0.00511109
0.00511153
0.00512462
0.00512507
0.00513659
0.00513704
0.00514701
0.00514747
0.0051559
0.00515636
0.00516324
0.0051637
0.00516905
0.00516951
0.00517332
0.00517379
0.00517607
0.00517654
0.00517728
0.00517774
)
;

boundaryField
{
    inlet
    {
        type            cyclic;
    }
    outlet
    {
        type            cyclic;
    }
    bottom
    {
        type            symmetry;
    }
    top
    {
        type            nutkWallFunction;
        Cmu             0.09;
        kappa           0.41;
        E               9.8;
        value           uniform 0;
    }
    frontAndBack
    {
        type            empty;
    }
}


// ************************************************************************* //
