/*--------------------------------*- C++ -*----------------------------------*\
  =========                 |
  \\      /  F ield         | OpenFOAM: The Open Source CFD Toolbox
   \\    /   O peration     | Website:  https://openfoam.org
    \\  /    A nd           | Version:  7
     \\/     M anipulation  |
\*---------------------------------------------------------------------------*/
FoamFile
{
    version     2.0;
    format      ascii;
    class       volScalarField;
    location    "1100";
    object      omega;
}
// * * * * * * * * * * * * * * * * * * * * * * * * * * * * * * * * * * * * * //

dimensions      [0 0 -1 0 0 0 0];

internalField   nonuniform List<scalar> 
180
(
2592
2592
857.809
856.303
468.096
470.208
310.63
313.813
227.804
230.902
177.231
179.937
143.357
145.624
119.235
121.093
101.309
102.811
87.5661
88.7649
76.7746
77.7207
68.1372
68.875
61.1135
61.6816
55.3242
55.7554
50.4957
50.8175
46.4263
46.6615
42.9644
43.132
39.9944
40.1098
37.4271
37.5027
35.1925
35.2385
33.2355
33.2598
31.5119
31.5208
29.9861
29.9845
28.6293
28.621
27.4178
27.4054
26.3319
26.3176
25.3554
25.3405
24.4744
24.46
23.6775
23.6642
22.9548
22.9429
22.2978
22.2875
21.6993
21.6907
21.153
21.1459
20.6535
20.6478
20.1959
20.1914
19.776
19.7727
19.3902
19.3878
19.0352
19.0335
18.7081
18.707
18.4063
18.4057
18.1276
18.1273
17.8699
17.8699
17.6314
17.6315
17.4104
17.4106
17.2054
17.2057
17.0152
17.0155
16.8386
16.8388
16.6743
16.6746
16.5216
16.5217
16.3794
16.3795
16.247
16.2471
16.1237
16.1236
16.0087
16.0086
15.9015
15.9013
15.8014
15.8012
15.7081
15.7079
15.621
15.6207
15.5397
15.5394
15.4638
15.4634
15.3929
15.3925
15.3267
15.3263
15.2649
15.2645
15.2072
15.2068
15.1534
15.1529
15.1031
15.1026
15.0562
15.0557
15.0125
15.012
14.9717
14.9712
14.9337
14.9332
14.8984
14.8978
14.8655
14.8649
14.8349
14.8343
14.8065
14.806
14.7802
14.7796
14.7559
14.7553
14.7334
14.7328
14.7126
14.712
14.6935
14.693
14.676
14.6755
14.6601
14.6595
14.6455
14.6449
14.6324
14.6318
14.6206
14.62
14.61
14.6094
14.6007
14.6001
14.5925
14.5919
14.5855
14.5849
14.5796
14.5789
14.5747
14.5741
14.5708
14.5702
)
;

boundaryField
{
    inlet
    {
        type            cyclic;
    }
    outlet
    {
        type            cyclic;
    }
    bottom
    {
        type            symmetry;
    }
    top
    {
        beta1           0.075;
        blended         0;
        type            omegaWallFunction;
        value           uniform 2592;
    }
    frontAndBack
    {
        type            empty;
    }
}


// ************************************************************************* //
