/*--------------------------------*- C++ -*----------------------------------*\
  =========                 |
  \\      /  F ield         | OpenFOAM: The Open Source CFD Toolbox
   \\    /   O peration     | Website:  https://openfoam.org
    \\  /    A nd           | Version:  7
     \\/     M anipulation  |
\*---------------------------------------------------------------------------*/
FoamFile
{
    version     2.0;
    format      ascii;
    class       volScalarField;
    location    "1100";
    object      p;
}
// * * * * * * * * * * * * * * * * * * * * * * * * * * * * * * * * * * * * * //

dimensions      [0 2 -2 0 0 0 0];

internalField   nonuniform List<scalar> 
180
(
-1.28454e-20
5.23222e-17
-4.35448e-20
5.23431e-17
-7.18851e-20
5.23505e-17
-8.67281e-20
5.2343e-17
-9.43356e-20
5.23347e-17
-1.58137e-19
5.23437e-17
-2.38236e-19
5.23786e-17
-2.82786e-19
5.23686e-17
-3.36423e-19
5.23896e-17
-4.35909e-19
5.24152e-17
-5.09466e-19
5.24457e-17
-5.46393e-19
5.24814e-17
-6.42385e-19
5.24694e-17
-7.50397e-19
5.24568e-17
-1.13656e-18
5.27085e-17
-1.12411e-18
5.2695e-17
-1.11127e-18
5.26811e-17
-1.09789e-18
5.26667e-17
-1.08412e-18
5.26519e-17
-1.06984e-18
5.26366e-17
-1.05517e-18
5.26208e-17
-1.04004e-18
5.26047e-17
-1.02456e-18
5.25881e-17
-1.00865e-18
5.25712e-17
-9.92424e-19
5.25539e-17
-9.75824e-19
5.25363e-17
-9.58937e-19
5.25183e-17
-9.41732e-19
5.25002e-17
-9.24283e-19
5.24817e-17
-9.06571e-19
5.2463e-17
-8.88658e-19
5.24441e-17
-8.70541e-19
5.24251e-17
-8.52267e-19
5.24059e-17
-8.33847e-19
5.23867e-17
-8.15317e-19
5.23673e-17
-7.967e-19
5.23479e-17
-7.78018e-19
5.23284e-17
-7.59307e-19
5.23089e-17
-7.40579e-19
5.22894e-17
-7.21876e-19
5.227e-17
-7.03204e-19
5.22505e-17
-6.84606e-19
5.22312e-17
-6.66089e-19
5.22119e-17
-6.47687e-19
5.21927e-17
-6.29414e-19
5.21737e-17
-6.11295e-19
5.21548e-17
-5.93347e-19
5.2136e-17
-5.75588e-19
5.21175e-17
-5.58039e-19
5.20992e-17
-5.40713e-19
5.20812e-17
-5.23632e-19
5.20634e-17
-5.06806e-19
5.2046e-17
-4.90255e-19
5.20288e-17
-4.7399e-19
5.2012e-17
-4.58029e-19
5.19955e-17
-4.42384e-19
5.19794e-17
-4.27066e-19
5.19636e-17
-4.12093e-19
5.19482e-17
-3.97472e-19
5.19332e-17
-3.83221e-19
5.19185e-17
-3.69345e-19
5.19043e-17
-3.55863e-19
5.18904e-17
-3.42776e-19
5.1877e-17
-3.30105e-19
5.1864e-17
-3.17851e-19
5.18514e-17
-3.06027e-19
5.18392e-17
-2.94641e-19
5.18275e-17
-2.83696e-19
5.18162e-17
-2.73206e-19
5.18054e-17
-2.63168e-19
5.17951e-17
-2.53598e-19
5.17852e-17
-2.44492e-19
5.17759e-17
-2.35862e-19
5.1767e-17
-2.27711e-19
5.17586e-17
-2.20044e-19
5.17507e-17
-2.12866e-19
5.17433e-17
-2.06181e-19
5.17365e-17
-1.99995e-19
5.17301e-17
-1.9431e-19
5.17243e-17
-1.89129e-19
5.1719e-17
-1.84456e-19
5.17142e-17
-1.80293e-19
5.171e-17
-1.76641e-19
5.17063e-17
-1.73504e-19
5.1703e-17
-1.70882e-19
5.17004e-17
-1.68777e-19
5.16982e-17
-1.67188e-19
5.16966e-17
-1.66117e-19
5.16955e-17
-1.65564e-19
5.1695e-17
-1.65494e-19
5.16949e-17
)
;

boundaryField
{
    inlet
    {
        type            cyclic;
    }
    outlet
    {
        type            cyclic;
    }
    bottom
    {
        type            symmetry;
    }
    top
    {
        type            zeroGradient;
    }
    frontAndBack
    {
        type            empty;
    }
}


// ************************************************************************* //
