/*--------------------------------*- C++ -*----------------------------------*\
  =========                 |
  \\      /  F ield         | OpenFOAM: The Open Source CFD Toolbox
   \\    /   O peration     | Website:  https://openfoam.org
    \\  /    A nd           | Version:  7
     \\/     M anipulation  |
\*---------------------------------------------------------------------------*/
FoamFile
{
    version     2.0;
    format      ascii;
    class       surfaceScalarField;
    location    "1100";
    object      phi;
}
// * * * * * * * * * * * * * * * * * * * * * * * * * * * * * * * * * * * * * //

dimensions      [0 3 -1 0 0 0 0];

internalField   nonuniform List<scalar> 
268
(
0.000836689
5.43739e-19
-1.60579e-19
0.00119274
5.7498e-19
-1.84366e-19
0.00140202
2.41625e-19
-9.57939e-20
0.00153778
2.84505e-19
-3.552e-21
0.00163499
3.47126e-19
-6.16099e-20
0.00170904
3.47483e-19
-1.26524e-19
0.0017677
2.97739e-19
-1.04104e-19
0.00181542
2.98441e-19
-1.48786e-19
0.00185497
3.25268e-19
-1.64228e-19
0.00188825
3.40401e-19
-1.86579e-19
0.00191657
3.76858e-19
-2.08963e-19
0.0019409
4.74589e-19
-2.19077e-19
0.00196199
5.29793e-19
-2.30984e-19
0.0019804
2.43932e-19
-2.99612e-19
0.00199657
1.04935e-19
2.15012e-19
0.00201085
5.96729e-20
-1.15686e-19
0.00202355
1.43094e-21
-4.11979e-20
0.00203487
-3.95798e-20
2.17477e-20
0.00204502
-6.13484e-20
5.92188e-20
0.00205415
-7.50317e-20
8.09207e-20
0.00206238
-8.2226e-20
9.0505e-20
0.00206984
-8.73869e-20
9.65447e-20
0.0020766
-8.94107e-20
9.84459e-20
0.00208276
-9.18024e-20
1.0072e-19
0.00208837
-9.28957e-20
1.00941e-19
0.00209349
-9.45713e-20
1.02083e-19
0.00209818
-9.5554e-20
1.01952e-19
0.00210248
-9.69435e-20
1.02576e-19
0.00210642
-9.78495e-20
1.02405e-19
0.00211004
-9.89543e-20
1.02614e-19
0.00211337
-9.99227e-20
1.02341e-19
0.00211644
-1.00685e-19
1.02115e-19
0.00211926
-1.01309e-19
1.01862e-19
0.00212186
-1.01549e-19
1.01558e-19
0.00212426
-1.0173e-19
1.01274e-19
0.00212647
-1.01573e-19
1.0057e-19
0.00212851
-1.01612e-19
1.00026e-19
0.0021304
-1.01121e-19
9.89399e-20
0.00213213
-1.00714e-19
9.82396e-20
0.00213374
-9.97445e-20
9.71061e-20
0.00213521
-9.90215e-20
9.62693e-20
0.00213657
-9.78945e-20
9.49148e-20
0.00213782
-9.69828e-20
9.3849e-20
0.00213898
-9.56305e-20
9.22997e-20
0.00214003
-9.44378e-20
9.1036e-20
0.002141
-9.2841e-20
8.94004e-20
0.00214189
-9.14704e-20
8.7956e-20
0.0021427
-8.96903e-20
8.61401e-20
0.00214343
-8.81222e-20
8.45504e-20
0.0021441
-8.62604e-20
8.26774e-20
0.00214471
-8.45468e-20
8.09867e-20
0.00214525
-8.25579e-20
7.89883e-20
0.00214574
-8.07181e-20
7.72101e-20
0.00214617
-7.8655e-20
7.51584e-20
0.00214656
-7.67247e-20
7.33283e-20
0.0021469
-7.46141e-20
7.12438e-20
0.00214719
-7.26173e-20
6.93456e-20
0.00214744
-7.04735e-20
6.72183e-20
0.00214765
-6.84267e-20
6.52776e-20
0.00214783
-6.62666e-20
6.31535e-20
0.00214796
-6.41646e-20
6.11531e-20
0.00214807
-6.19727e-20
5.90167e-20
0.00214814
-5.98376e-20
5.69775e-20
0.00214818
-5.76373e-20
5.48491e-20
0.0021482
-5.54798e-20
5.278e-20
0.00214818
-5.32703e-20
5.06539e-20
0.00214814
-5.10935e-20
4.85618e-20
0.00214808
-4.88812e-20
4.64347e-20
0.00214799
-4.66938e-20
4.43275e-20
0.00214788
-4.44741e-20
4.2202e-20
0.00214776
-4.22667e-20
4.00824e-20
0.00214761
-4.00483e-20
3.79462e-20
0.00214744
-3.78475e-20
3.58281e-20
0.00214726
-3.56279e-20
3.37068e-20
0.00214706
-3.34161e-20
3.15997e-20
0.00214684
-3.11879e-20
2.94779e-20
0.00214661
-2.8972e-20
2.73733e-20
0.00214637
-2.67425e-20
2.52575e-20
0.00214611
-2.45249e-20
2.31549e-20
0.00214584
-2.23017e-20
2.10508e-20
0.00214556
-2.00831e-20
1.89498e-20
0.00214527
-1.78617e-20
1.68512e-20
0.00214497
-1.56397e-20
1.47498e-20
0.00214466
-1.34054e-20
1.26414e-20
0.00214434
-1.11623e-20
1.05231e-20
0.00214402
-8.89041e-21
8.3796e-21
0.00214368
-6.58382e-21
6.2015e-21
0.00214334
-4.2459e-21
3.99261e-21
0.00214298
-1.89363e-21
1.7674e-21
0.00214262
)
;

boundaryField
{
    inlet
    {
        type            cyclic;
        value           nonuniform List<scalar> 
90
(
-0.000836689
-0.00119274
-0.00140202
-0.00153778
-0.00163499
-0.00170904
-0.0017677
-0.00181542
-0.00185497
-0.00188825
-0.00191657
-0.0019409
-0.00196199
-0.0019804
-0.00199657
-0.00201085
-0.00202355
-0.00203487
-0.00204502
-0.00205415
-0.00206238
-0.00206984
-0.0020766
-0.00208276
-0.00208837
-0.00209349
-0.00209818
-0.00210248
-0.00210642
-0.00211004
-0.00211337
-0.00211644
-0.00211926
-0.00212186
-0.00212426
-0.00212647
-0.00212851
-0.0021304
-0.00213213
-0.00213374
-0.00213521
-0.00213657
-0.00213782
-0.00213898
-0.00214003
-0.002141
-0.00214189
-0.0021427
-0.00214343
-0.0021441
-0.00214471
-0.00214525
-0.00214574
-0.00214617
-0.00214656
-0.0021469
-0.00214719
-0.00214744
-0.00214765
-0.00214783
-0.00214796
-0.00214807
-0.00214814
-0.00214818
-0.0021482
-0.00214818
-0.00214814
-0.00214808
-0.00214799
-0.00214788
-0.00214776
-0.00214761
-0.00214744
-0.00214726
-0.00214706
-0.00214684
-0.00214661
-0.00214637
-0.00214611
-0.00214584
-0.00214556
-0.00214527
-0.00214497
-0.00214466
-0.00214434
-0.00214402
-0.00214368
-0.00214334
-0.00214298
-0.00214262
)
;
    }
    outlet
    {
        type            cyclic;
        value           nonuniform List<scalar> 
90
(
0.000836689
0.00119274
0.00140202
0.00153778
0.00163499
0.00170904
0.0017677
0.00181542
0.00185497
0.00188825
0.00191657
0.0019409
0.00196199
0.0019804
0.00199657
0.00201085
0.00202355
0.00203487
0.00204502
0.00205415
0.00206238
0.00206984
0.0020766
0.00208276
0.00208837
0.00209349
0.00209818
0.00210248
0.00210642
0.00211004
0.00211337
0.00211644
0.00211926
0.00212186
0.00212426
0.00212647
0.00212851
0.0021304
0.00213213
0.00213374
0.00213521
0.00213657
0.00213782
0.00213898
0.00214003
0.002141
0.00214189
0.0021427
0.00214343
0.0021441
0.00214471
0.00214525
0.00214574
0.00214617
0.00214656
0.0021469
0.00214719
0.00214744
0.00214765
0.00214783
0.00214796
0.00214807
0.00214814
0.00214818
0.0021482
0.00214818
0.00214814
0.00214808
0.00214799
0.00214788
0.00214776
0.00214761
0.00214744
0.00214726
0.00214706
0.00214684
0.00214661
0.00214637
0.00214611
0.00214584
0.00214556
0.00214527
0.00214497
0.00214466
0.00214434
0.00214402
0.00214368
0.00214334
0.00214298
0.00214262
)
;
    }
    bottom
    {
        type            symmetry;
        value           uniform 0;
    }
    top
    {
        type            calculated;
        value           uniform 0;
    }
    frontAndBack
    {
        type            empty;
        value           nonuniform 0();
    }
}


// ************************************************************************* //
