/*--------------------------------*- C++ -*----------------------------------*\
  =========                 |
  \\      /  F ield         | OpenFOAM: The Open Source CFD Toolbox
   \\    /   O peration     | Website:  https://openfoam.org
    \\  /    A nd           | Version:  7
     \\/     M anipulation  |
\*---------------------------------------------------------------------------*/
FoamFile
{
    version     2.0;
    format      ascii;
    class       volVectorField;
    location    "1100";
    object      U;
}
// * * * * * * * * * * * * * * * * * * * * * * * * * * * * * * * * * * * * * //

dimensions      [0 1 -1 0 0 0 0];

internalField   nonuniform List<vector> 
180
(
(0.738188 3.24443e-19 0)
(0.767944 -1.2107e-19 0)
(1.07521 1.36653e-18 0)
(1.07177 -3.21812e-19 0)
(1.26621 7.08265e-19 0)
(1.25746 -2.41126e-19 0)
(1.38833 5.70265e-19 0)
(1.3797 -1.248e-19 0)
(1.47526 6.37499e-19 0)
(1.46774 -7.05453e-20 0)
(1.54129 6.88257e-19 0)
(1.535 -1.9692e-19 0)
(1.5935 6.37306e-19 0)
(1.58838 -2.33052e-19 0)
(1.63592 5.94213e-19 0)
(1.63183 -2.57342e-19 0)
(1.67108 6.1109e-19 0)
(1.66788 -3.11096e-19 0)
(1.70066 6.48453e-19 0)
(1.6982 -3.52597e-19 0)
(1.72583 7.02272e-19 0)
(1.724 -3.89282e-19 0)
(1.74748 8.48252e-19 0)
(1.74615 -4.27935e-19 0)
(1.76625 1.02507e-18 0)
(1.76533 -4.6677e-19 0)
(1.78266 7.72148e-19 0)
(1.78206 -5.48933e-19 0)
(1.79709 3.57379e-19 0)
(1.79674 -6.88507e-20 0)
(1.80985 1.84558e-19 0)
(1.80969 6.55735e-20 0)
(1.82121 5.52622e-20 0)
(1.82118 -1.57406e-19 0)
(1.83135 -5.00031e-20 0)
(1.83142 -6.6379e-21 0)
(1.84045 -1.06662e-19 0)
(1.84059 9.1596e-20 0)
(1.84865 -1.39589e-19 0)
(1.84882 1.46538e-19 0)
(1.85605 -1.58828e-19 0)
(1.85624 1.74921e-19 0)
(1.86276 -1.70965e-19 0)
(1.86295 1.88467e-19 0)
(1.86885 -1.77053e-19 0)
(1.86904 1.95604e-19 0)
(1.8744 -1.81353e-19 0)
(1.87457 1.99443e-19 0)
(1.87945 -1.84683e-19 0)
(1.87961 2.01709e-19 0)
(1.88407 -1.87419e-19 0)
(1.88421 2.03027e-19 0)
(1.8883 -1.90031e-19 0)
(1.88842 2.03984e-19 0)
(1.89218 -1.92477e-19 0)
(1.89228 2.045e-19 0)
(1.89574 -1.94811e-19 0)
(1.89582 2.04948e-19 0)
(1.89901 -1.96655e-19 0)
(1.89907 2.05013e-19 0)
(1.90201 -1.98937e-19 0)
(1.90206 2.04959e-19 0)
(1.90478 -2.00659e-19 0)
(1.90481 2.04484e-19 0)
(1.90733 -2.0207e-19 0)
(1.90734 2.03838e-19 0)
(1.90967 -2.02945e-19 0)
(1.90968 2.03455e-19 0)
(1.91184 -2.03379e-19 0)
(1.91183 2.02882e-19 0)
(1.91384 -2.03241e-19 0)
(1.91382 2.01899e-19 0)
(1.91568 -2.03276e-19 0)
(1.91565 2.00661e-19 0)
(1.91738 -2.02826e-19 0)
(1.91734 1.9903e-19 0)
(1.91894 -2.01935e-19 0)
(1.9189 1.97104e-19 0)
(1.92039 -2.00555e-19 0)
(1.92034 1.95402e-19 0)
(1.92172 -1.98725e-19 0)
(1.92167 1.93417e-19 0)
(1.92295 -1.96994e-19 0)
(1.92289 1.91224e-19 0)
(1.92407 -1.94893e-19 0)
(1.92401 1.88807e-19 0)
(1.92511 -1.92682e-19 0)
(1.92504 1.86195e-19 0)
(1.92606 -1.90139e-19 0)
(1.92599 1.83324e-19 0)
(1.92694 -1.87279e-19 0)
(1.92686 1.8048e-19 0)
(1.92774 -1.84366e-19 0)
(1.92766 1.77394e-19 0)
(1.92847 -1.8121e-19 0)
(1.92839 1.74133e-19 0)
(1.92913 -1.77801e-19 0)
(1.92905 1.70671e-19 0)
(1.92973 -1.74418e-19 0)
(1.92965 1.67258e-19 0)
(1.93028 -1.70844e-19 0)
(1.93019 1.63686e-19 0)
(1.93077 -1.67109e-19 0)
(1.93068 1.59996e-19 0)
(1.93121 -1.63306e-19 0)
(1.93112 1.56193e-19 0)
(1.93161 -1.5937e-19 0)
(1.93151 1.52389e-19 0)
(1.93195 -1.55403e-19 0)
(1.93185 1.4848e-19 0)
(1.93226 -1.51331e-19 0)
(1.93216 1.44586e-19 0)
(1.93253 -1.47246e-19 0)
(1.93242 1.40604e-19 0)
(1.93275 -1.4309e-19 0)
(1.93264 1.36562e-19 0)
(1.93294 -1.38899e-19 0)
(1.93283 1.32494e-19 0)
(1.9331 -1.34701e-19 0)
(1.93299 1.28437e-19 0)
(1.93323 -1.30438e-19 0)
(1.93311 1.24312e-19 0)
(1.93332 -1.26136e-19 0)
(1.9332 1.20168e-19 0)
(1.93339 -1.21809e-19 0)
(1.93326 1.15992e-19 0)
(1.93343 -1.17474e-19 0)
(1.9333 1.11825e-19 0)
(1.93344 -1.13116e-19 0)
(1.93331 1.07628e-19 0)
(1.93343 -1.0875e-19 0)
(1.9333 1.03432e-19 0)
(1.9334 -1.04363e-19 0)
(1.93326 9.92134e-20 0)
(1.93334 -9.99701e-20 0)
(1.9332 9.49961e-20 0)
(1.93327 -9.55761e-20 0)
(1.93312 9.07563e-20 0)
(1.93317 -9.11683e-20 0)
(1.93302 8.65291e-20 0)
(1.93305 -8.67405e-20 0)
(1.93291 8.22837e-20 0)
(1.93292 -8.23043e-20 0)
(1.93277 7.80278e-20 0)
(1.93277 -7.78963e-20 0)
(1.93262 7.37619e-20 0)
(1.93261 -7.34754e-20 0)
(1.93245 6.95325e-20 0)
(1.93243 -6.90436e-20 0)
(1.93227 6.53044e-20 0)
(1.93224 -6.46034e-20 0)
(1.93207 6.10754e-20 0)
(1.93203 -6.0159e-20 0)
(1.93187 5.68489e-20 0)
(1.93181 -5.57132e-20 0)
(1.93164 5.26282e-20 0)
(1.93159 -5.12659e-20 0)
(1.93141 4.84096e-20 0)
(1.93134 -4.68249e-20 0)
(1.93117 4.42027e-20 0)
(1.93109 -4.23833e-20 0)
(1.93092 3.99979e-20 0)
(1.93084 -3.79441e-20 0)
(1.93065 3.57991e-20 0)
(1.93057 -3.35023e-20 0)
(1.93038 3.16009e-20 0)
(1.93029 -2.90491e-20 0)
(1.9301 2.73941e-20 0)
(1.93001 -2.45762e-20 0)
(1.92981 2.31721e-20 0)
(1.92971 -2.00675e-20 0)
(1.92952 1.89166e-20 0)
(1.92941 -1.54969e-20 0)
(1.92921 1.46033e-20 0)
(1.9291 -1.08379e-20 0)
(1.9289 1.02025e-20 0)
(1.92879 -6.18621e-21 0)
(1.92858 5.80846e-21 0)
(1.92846 -2.01192e-21 0)
(1.92825 1.8847e-21 0)
)
;

boundaryField
{
    inlet
    {
        type            cyclic;
    }
    outlet
    {
        type            cyclic;
    }
    bottom
    {
        type            symmetry;
    }
    top
    {
        type            noSlip;
    }
    frontAndBack
    {
        type            empty;
    }
}


// ************************************************************************* //
