/*--------------------------------*- C++ -*----------------------------------*\
  =========                 |
  \\      /  F ield         | OpenFOAM: The Open Source CFD Toolbox
   \\    /   O peration     | Website:  https://openfoam.org
    \\  /    A nd           | Version:  7
     \\/     M anipulation  |
\*---------------------------------------------------------------------------*/
FoamFile
{
    version     2.0;
    format      ascii;
    class       volScalarField;
    location    "50";
    object      k;
}
// * * * * * * * * * * * * * * * * * * * * * * * * * * * * * * * * * * * * * //

dimensions      [0 2 -2 0 0 0 0];

internalField   nonuniform List<scalar> 
12842
(
0.00568751
0.00511207
0.00472683
0.00447696
0.00429507
0.00417973
0.00410419
0.00404308
0.00399973
0.00396521
0.00393969
0.00392907
0.00393583
0.00395662
0.0039823
0.00401261
0.00403941
0.00407155
0.00411245
0.00414182
0.00417913
0.00421415
0.0042573
0.00565128
0.00506435
0.00471054
0.00447492
0.00428823
0.00416838
0.00408945
0.00403554
0.00399539
0.00396301
0.00393854
0.00392784
0.00393569
0.00395806
0.00398531
0.00401493
0.00404083
0.00407359
0.00411545
0.00414421
0.00418614
0.00422707
0.00427126
0.00562385
0.00499744
0.00462751
0.00442407
0.00424885
0.00413278
0.00405139
0.00401078
0.00397858
0.00395193
0.00393263
0.00392531
0.0039354
0.0039618
0.00399707
0.00402884
0.00406391
0.00409943
0.0041479
0.00418861
0.00423473
0.00429188
0.00435168
0.00556773
0.00494261
0.00459413
0.00439825
0.00423323
0.00412105
0.00403649
0.00399574
0.00396616
0.00394167
0.00392636
0.00392237
0.00393354
0.00396356
0.00400581
0.00404448
0.00408551
0.0041336
0.00418617
0.0042502
0.00431723
0.00440982
0.00449306
0.00552476
0.00485849
0.00450998
0.004331
0.00419161
0.00409123
0.00401228
0.00397884
0.00395217
0.00393292
0.00391782
0.00391823
0.00393368
0.00397051
0.00402586
0.00409168
0.00414566
0.00421562
0.00428264
0.00436201
0.0044435
0.00456847
0.00468496
0.0054696
0.00480461
0.00447367
0.00430005
0.00416963
0.00407428
0.00399538
0.00396424
0.00393948
0.00392459
0.00391403
0.00391606
0.00393321
0.00397663
0.00403798
0.00412565
0.00419808
0.00428534
0.00437169
0.00448865
0.00459369
0.00474273
0.00489074
0.005414
0.0047407
0.00440618
0.00423535
0.00413177
0.00404538
0.00397753
0.00395001
0.00392748
0.00391737
0.00390762
0.00391235
0.00393495
0.00399146
0.00407355
0.00420816
0.00431517
0.00442568
0.00451892
0.00464513
0.00478548
0.00495202
0.00512591
0.00536381
0.00468746
0.00437394
0.0042097
0.00410345
0.00402956
0.00396408
0.00393991
0.00391869
0.0039108
0.00390442
0.00391086
0.00393981
0.00401615
0.00412235
0.00428707
0.00441382
0.00455323
0.00467923
0.00482096
0.00497382
0.00515718
0.00533721
0.00530471
0.00463382
0.00432786
0.00416224
0.00407678
0.00400072
0.00395015
0.00392443
0.00390941
0.00390512
0.0038991
0.00391075
0.00395137
0.00405567
0.00420248
0.00441748
0.00456746
0.00473017
0.00487826
0.0050439
0.00521018
0.00539955
0.00558925
0.00524961
0.00458721
0.0042901
0.00414316
0.00405621
0.00398937
0.00394234
0.00391815
0.00390464
0.00390221
0.00390207
0.00392013
0.00397877
0.00411626
0.00430003
0.0045367
0.00471053
0.00489537
0.00505957
0.0052405
0.00541823
0.00560493
0.0057827
0.00518509
0.00452888
0.00425535
0.00410817
0.00402884
0.00396725
0.00393005
0.00390599
0.00389831
0.00389719
0.00390478
0.00395206
0.00403994
0.0041994
0.00441128
0.00468013
0.00486919
0.00507132
0.00524615
0.00543606
0.00561188
0.00580493
0.0059755
0.00512772
0.00449047
0.00422141
0.00409282
0.00401573
0.00395709
0.00392183
0.00389968
0.00389227
0.0038908
0.00392259
0.00400304
0.00412105
0.00431404
0.00455275
0.00483062
0.00503741
0.00525156
0.00543362
0.00563293
0.00580822
0.00598729
0.0061461
0.00506789
0.00443867
0.00418829
0.00406371
0.00398996
0.00393829
0.00391186
0.00388813
0.00388775
0.0038916
0.00395138
0.00406723
0.00421457
0.00444383
0.00470287
0.00500198
0.00521644
0.00544016
0.00562202
0.00582036
0.0059875
0.00616334
0.00630653
0.00501282
0.00440248
0.00416403
0.00405062
0.00397811
0.00392972
0.0039042
0.00388307
0.00388423
0.00391426
0.00401053
0.0041556
0.00433549
0.00460302
0.00487817
0.00517541
0.00539198
0.00561585
0.00580421
0.0059989
0.00616016
0.00632039
0.00645001
0.0049583
0.00435708
0.00413345
0.00402537
0.0039559
0.00391402
0.00389275
0.00387209
0.0038747
0.00394622
0.00407377
0.00424856
0.00445699
0.00476549
0.00505377
0.00535986
0.00557907
0.00580104
0.00597576
0.00616782
0.00631612
0.00646495
0.00657814
0.00490928
0.00432628
0.00411327
0.00401358
0.00394556
0.00390669
0.00388756
0.00386921
0.00388256
0.0040061
0.00416736
0.00437152
0.00460827
0.00495154
0.00524445
0.0055396
0.00574475
0.00595984
0.00614074
0.00631861
0.00645924
0.00659412
0.00669691
0.00486105
0.00428661
0.0040881
0.00399057
0.00392565
0.00389279
0.00387761
0.00386557
0.00389116
0.00406243
0.00425917
0.00448742
0.00475304
0.00513177
0.00542695
0.00571905
0.00592554
0.00612636
0.00628405
0.00645979
0.00659037
0.00671116
0.00679642
0.00481831
0.00425657
0.00407065
0.00397966
0.00391617
0.00388601
0.00387226
0.00389052
0.00395037
0.00415442
0.00437905
0.00463124
0.00491878
0.00532186
0.00561522
0.00588881
0.0060716
0.00626386
0.00642513
0.00658216
0.0067021
0.00681217
0.00689717
0.00478057
0.00422684
0.00404934
0.00395838
0.00389769
0.00387347
0.0038635
0.00391302
0.00400688
0.00423857
0.00449178
0.00476191
0.00507656
0.0055008
0.00578454
0.00604886
0.00623228
0.00640055
0.00654088
0.00668538
0.0068098
0.00690668
0.00697293
0.0047471
0.00419795
0.00402988
0.00394836
0.00388966
0.00386899
0.00387993
0.00399742
0.00411754
0.00436009
0.00462696
0.00491116
0.00524339
0.00568072
0.0059577
0.0061955
0.00635441
0.00651666
0.00665128
0.00679009
0.00689435
0.00699424
0.00707073
0.00471778
0.00417247
0.00401552
0.00392878
0.00387216
0.00385683
0.00389207
0.00406172
0.00419793
0.00446488
0.00474859
0.00504466
0.00539935
0.00584069
0.00610436
0.00633477
0.00649158
0.00662439
0.00675255
0.00686485
0.00698161
0.00706934
0.00713979
0.00469086
0.00414649
0.00399544
0.00391985
0.00387341
0.00387821
0.00396671
0.00418065
0.00433476
0.00460593
0.00488894
0.00519005
0.00555989
0.00600645
0.00625389
0.0064517
0.00659072
0.00672414
0.00683041
0.00695257
0.0070464
0.00714046
0.00721781
0.004667
0.00412633
0.0039784
0.00390138
0.0038856
0.00391067
0.00403508
0.00426754
0.00443319
0.0047199
0.00500781
0.00531663
0.00570455
0.00614084
0.00638106
0.00657557
0.00670477
0.00680083
0.00691809
0.00700993
0.00711696
0.00720194
0.00727927
0.0046475
0.00410556
0.00396575
0.00389902
0.00390944
0.00400253
0.00416011
0.00441408
0.00459842
0.00488206
0.00515819
0.00546432
0.00586358
0.00629396
0.00650373
0.00666165
0.00678285
0.00689305
0.00697743
0.00707988
0.00717185
0.00725894
0.00733771
0.00463219
0.00408875
0.00395713
0.00390676
0.00396961
0.0040982
0.00427849
0.00453356
0.00472684
0.00500906
0.00527731
0.00558755
0.00599948
0.00640934
0.00662043
0.00677615
0.00687985
0.00694261
0.00704365
0.0071264
0.00722412
0.00731734
0.00739757
0.00461576
0.00407819
0.00394448
0.00395036
0.00406008
0.00421287
0.00439759
0.00465336
0.00485281
0.00512984
0.00538925
0.00570067
0.00612556
0.00652552
0.00670556
0.00683434
0.00693612
0.00702412
0.00709799
0.00718167
0.00729052
0.0073747
0.00745487
0.00460024
0.00406424
0.00394161
0.00403186
0.00416879
0.00432661
0.00451831
0.00477175
0.0049744
0.00524287
0.00549361
0.00581052
0.0062407
0.0066197
0.00681132
0.00693434
0.0070239
0.00707076
0.00715081
0.0072371
0.00733419
0.00742886
0.00751131
0.00458392
0.00404704
0.0039557
0.00412386
0.00427304
0.00444738
0.00463725
0.00488757
0.00508904
0.0053463
0.00558785
0.00590735
0.00635051
0.00671405
0.00687828
0.00698642
0.00706522
0.00713131
0.00720824
0.00727789
0.00739517
0.00748822
0.00761225
0.00456819
0.00405345
0.00400502
0.00423017
0.00438625
0.00456677
0.00475589
0.00499517
0.00519564
0.00544076
0.0056773
0.00600575
0.0064459
0.00679188
0.00696796
0.00707399
0.00715351
0.00719293
0.0072516
0.00733783
0.00750228
0.0076224
0.00774568
0.00454753
0.00407049
0.00406962
0.00433264
0.0044908
0.00467905
0.00486665
0.00509752
0.00529283
0.00552416
0.00575367
0.00608812
0.00654128
0.0068744
0.00704414
0.00714049
0.00719453
0.00726398
0.00733743
0.00746378
0.00762675
0.00780578
0.00806834
0.00453436
0.00411616
0.00415401
0.00444082
0.0046007
0.00479553
0.00497357
0.00518798
0.00538058
0.00559907
0.00582791
0.00617427
0.00661993
0.00693883
0.00711013
0.00721055
0.0073034
0.00733082
0.00742887
0.00759566
0.00788013
0.00815398
0.0087426
0.00452289
0.00417321
0.00423364
0.00454222
0.00470042
0.00489387
0.00507093
0.00527276
0.00545818
0.00566362
0.00588913
0.00624626
0.00670252
0.00702071
0.00721772
0.00733044
0.0073748
0.00751301
0.00762439
0.00780131
0.00823763
0.00877024
0.00954045
0.00450069
0.00424056
0.0043302
0.00464455
0.00480211
0.00499541
0.00515675
0.00534478
0.00552684
0.00572081
0.00594854
0.00631915
0.0067675
0.00707497
0.0072737
0.00739772
0.00755011
0.00765113
0.00780078
0.00828265
0.00887208
0.00954753
0.0108005
0.00449381
0.00431622
0.00441506
0.00473909
0.00489085
0.00508082
0.00523888
0.00541181
0.0055864
0.00576966
0.00599806
0.00638345
0.00683946
0.00716153
0.00740283
0.00755859
0.00766623
0.00783928
0.00818443
0.00873432
0.00962989
0.0107407
0.0129887
0.00450406
0.00439661
0.00450973
0.0048331
0.00498204
0.00516502
0.00530884
0.00546753
0.00563798
0.00581245
0.0060451
0.00644617
0.0068952
0.00721372
0.00747695
0.0076598
0.00789586
0.00819705
0.00863012
0.00952906
0.0108864
0.0129513
0.0178957
0.00453748
0.00448699
0.00459429
0.00491822
0.00505871
0.00523027
0.00536745
0.00551872
0.00568282
0.00584916
0.00608536
0.00650353
0.00695824
0.00729942
0.00761504
0.007869
0.00814483
0.00864537
0.00932864
0.0108782
0.0132502
0.0192938
0.0246157
0.00457384
0.00456655
0.00468499
0.00500124
0.00513776
0.00530418
0.00542912
0.00556269
0.00572072
0.00588119
0.00612388
0.00656044
0.00701222
0.00736848
0.00772881
0.00802254
0.00848666
0.00903865
0.010347
0.0131831
0.0195206
0.0261305
0.0311707
0.00462876
0.00466521
0.00476598
0.00507542
0.00520225
0.00535118
0.00547486
0.00560084
0.00575412
0.00590895
0.00615638
0.00661254
0.00706596
0.00743519
0.0078417
0.00823241
0.00878106
0.0100121
0.0122383
0.0178289
0.0267912
0.0313623
0.0360476
0.00467504
0.00474289
0.00485084
0.00514713
0.00526741
0.00541043
0.00551629
0.00563485
0.00578209
0.00593349
0.0061899
0.00666576
0.00712454
0.00753137
0.00802585
0.00854837
0.00951769
0.0114098
0.0156393
0.0254836
0.0323942
0.035748
0.0424053
0.00474061
0.00483467
0.00492653
0.00520813
0.00532799
0.00544854
0.00555758
0.00566599
0.00580691
0.00595493
0.00621664
0.00671596
0.00717087
0.00758308
0.00812767
0.00875245
0.0102231
0.0135057
0.0209551
0.0322359
0.0366808
0.0393816
0.0468706
0.00479306
0.00490875
0.00500653
0.0052677
0.00536841
0.00548879
0.00558926
0.0056907
0.00582778
0.00597437
0.00624639
0.00676561
0.00723378
0.0076886
0.00834056
0.00931366
0.0116909
0.0171148
0.0275075
0.0368161
0.03897
0.0409975
0.0537623
0.00485151
0.00498389
0.00507571
0.0053154
0.00542207
0.005522
0.00560958
0.00571235
0.00584662
0.00599171
0.00627063
0.00681621
0.00727759
0.00774516
0.00849937
0.00974705
0.0132376
0.021796
0.0338171
0.0396227
0.0411128
0.0443794
0.063456
0.00491486
0.00505202
0.00513786
0.00536303
0.00546082
0.00554441
0.00562867
0.00573593
0.00586225
0.0060077
0.00629691
0.00686448
0.00734322
0.00785857
0.00876815
0.0107398
0.0167483
0.0268082
0.0381525
0.0413304
0.0415269
0.0491233
0.0752707
0.00495933
0.00510933
0.00520133
0.00539768
0.0054669
0.00556327
0.00564187
0.00574581
0.00587682
0.00602217
0.00632
0.00691326
0.00738524
0.00793041
0.00912708
0.0119513
0.019483
0.0313792
0.0404836
0.0417258
0.0417843
0.0543549
0.0897883
0.00501768
0.00515981
0.00525365
0.00543302
0.00548292
0.00556798
0.00563878
0.00574769
0.00588857
0.00603631
0.00634521
0.00696498
0.00745449
0.00805348
0.0094381
0.0135077
0.0231275
0.0353784
0.0419003
0.04171
0.0413257
0.0552153
0.0892943
0.00502747
0.00520511
0.00528489
0.00545848
0.00551132
0.00558024
0.00564761
0.00575829
0.00590039
0.00604816
0.00636688
0.00700872
0.00749764
0.00818544
0.0101634
0.0156019
0.0264561
0.037871
0.0426604
0.0416519
0.0425845
0.0562335
0.086236
0.00503797
0.00524225
0.00531922
0.00548438
0.00552485
0.00559173
0.00565771
0.00576516
0.00590874
0.00606159
0.0063917
0.00706677
0.00756603
0.00831343
0.0107358
0.0173992
0.0289125
0.0394973
0.0431516
0.0419431
0.0419026
0.0566483
0.0871828
0.00507563
0.00527856
0.00534124
0.00550461
0.00553688
0.00561072
0.00566478
0.00577217
0.00591856
0.00607112
0.00641545
0.00710742
0.00762411
0.00854272
0.0114051
0.0193606
0.0315202
0.0404383
0.0435517
0.0423087
0.0418397
0.0564013
0.0761487
0.00510119
0.00531029
0.00537893
0.00552589
0.00555161
0.00562225
0.00567378
0.00578049
0.00592529
0.0060843
0.00643704
0.00716564
0.00767839
0.00870461
0.0123623
0.0218852
0.03392
0.0411701
0.0439748
0.0425234
0.0419694
0.0555966
0.0829481
0.00514518
0.00534135
0.00540497
0.00554612
0.00557207
0.00563621
0.0056881
0.00579153
0.00593353
0.0060933
0.00646519
0.00721574
0.00775555
0.0089569
0.0132135
0.0236216
0.0351049
0.0416839
0.04437
0.0437943
0.0424825
0.0505365
0.068598
0.00518436
0.00537277
0.00544125
0.00556813
0.00559573
0.00564995
0.00570366
0.00580287
0.00594037
0.00610324
0.00648102
0.00725691
0.00780018
0.00921969
0.0139636
0.0254505
0.0365568
0.0421103
0.0446881
0.0446726
0.0427064
0.0526685
0.0549779
0.00523501
0.00539818
0.00547152
0.00558811
0.00561837
0.0056683
0.00572141
0.00581561
0.00594703
0.00611233
0.00650698
0.00730858
0.00784815
0.00943021
0.0147832
0.0274749
0.0383082
0.0429872
0.04509
0.0457898
0.0425408
0.0500944
0.0461593
0.00527284
0.0054266
0.00550365
0.00561071
0.00564487
0.00568664
0.0057389
0.00582751
0.00595301
0.0061179
0.00651941
0.00733688
0.00789866
0.00966431
0.0155725
0.0289401
0.0390795
0.0440422
0.0454156
0.0456842
0.0411445
0.0445949
0.0388994
0.00531947
0.00545256
0.00553481
0.00563101
0.00566732
0.00570525
0.00575661
0.00584061
0.00595978
0.00612724
0.00654135
0.00737636
0.00793412
0.00990683
0.0161259
0.0295347
0.0393269
0.044646
0.0463508
0.0443338
0.0378846
0.0380392
0.0326442
0.00535932
0.00548053
0.00556367
0.00565364
0.00569274
0.00572365
0.00577375
0.00585198
0.00596489
0.00613181
0.00655445
0.00740346
0.00796671
0.010077
0.0163859
0.0296718
0.039189
0.0445714
0.0463533
0.0428465
0.0335883
0.0313585
0.0268039
0.00540318
0.00550708
0.00559214
0.00567385
0.00571428
0.00574105
0.00579035
0.00586456
0.00597123
0.00613874
0.00657216
0.00743104
0.00800963
0.010165
0.0161165
0.0287911
0.0376445
0.0421008
0.0441875
0.038454
0.0284483
0.0256681
0.0222751
0.00544379
0.00553364
0.00561764
0.00569417
0.00573563
0.00575736
0.00580443
0.00587468
0.00597616
0.00614343
0.00658436
0.00744973
0.00802559
0.0100658
0.0151369
0.0261681
0.0339812
0.0367029
0.0391275
0.0334347
0.0243316
0.0212259
0.0183804
0.00548014
0.00555763
0.00564042
0.00571191
0.00575339
0.00577235
0.005818
0.00588451
0.00598072
0.00614951
0.00659549
0.00746749
0.00802096
0.00979963
0.0139314
0.0230745
0.0295603
0.0308315
0.0333049
0.0285672
0.0205373
0.0174176
0.0158635
0.0055182
0.0055834
0.00566419
0.00573058
0.00577243
0.00578834
0.00583071
0.00589432
0.00598506
0.00615427
0.0066063
0.0074756
0.00797931
0.00944063
0.0127492
0.0199729
0.0251681
0.0253722
0.0276445
0.0237852
0.017433
0.0148079
0.0136121
0.0055522
0.00560921
0.00568725
0.00574898
0.00578977
0.00580355
0.00584378
0.00590352
0.00598904
0.00616002
0.00661755
0.00747871
0.00790809
0.00908106
0.0116438
0.0172531
0.0209081
0.0207016
0.0227501
0.0197565
0.0149101
0.0124212
0.0121142
0.00558728
0.00563485
0.00570937
0.0057666
0.00580681
0.00581984
0.00585683
0.00591293
0.0059928
0.00616448
0.00662286
0.00746547
0.00782908
0.00872754
0.0106867
0.0149114
0.0174078
0.0169775
0.0185724
0.0163921
0.012957
0.0112079
0.0106439
0.00561841
0.00566258
0.00573405
0.00578542
0.00582398
0.00583516
0.0058692
0.00592257
0.00599644
0.00616892
0.00662426
0.00743815
0.00772888
0.00841715
0.00991626
0.0131609
0.0146165
0.0143612
0.0155867
0.0139964
0.011599
0.0105835
0.010183
0.00565061
0.00568788
0.00575558
0.00580248
0.00583918
0.00585084
0.0058828
0.00593102
0.00600015
0.00616936
0.00662209
0.00739486
0.00764162
0.00815265
0.00927534
0.0118475
0.0126623
0.0124429
0.0132433
0.0121653
0.0106039
0.0100885
0.00994796
0.00567807
0.00571532
0.00577909
0.00582109
0.00585608
0.00586697
0.00589576
0.00594127
0.00600388
0.00616995
0.00661185
0.00733147
0.00754149
0.00793504
0.00879601
0.0110102
0.0111484
0.0112046
0.0117788
0.0110524
0.0102465
0.00978427
0.00970437
0.00570614
0.0057405
0.00580017
0.00583826
0.00586899
0.00588097
0.00590775
0.00594967
0.00600796
0.00617045
0.00659802
0.00727738
0.00745152
0.0077388
0.00841838
0.0104177
0.010603
0.0106095
0.0108445
0.0103919
0.0100994
0.00982152
0.00960752
0.00573137
0.00576466
0.00582287
0.00585424
0.00588587
0.00589626
0.00592154
0.00595851
0.00601211
0.00617138
0.00658546
0.00721155
0.00735877
0.0076026
0.00813344
0.010072
0.010358
0.010185
0.0104475
0.0103547
0.0100121
0.00962836
0.00950266
0.00575635
0.00579022
0.00584019
0.0058735
0.00589714
0.00591106
0.00593303
0.00596826
0.00601626
0.00617113
0.00657393
0.00714709
0.00729016
0.00747149
0.00790051
0.0100477
0.0101816
0.0102278
0.0102928
0.0103027
0.00987589
0.00969118
0.00941524
0.00577409
0.00580814
0.00585734
0.00588548
0.00591041
0.00592163
0.00594358
0.0059754
0.00602116
0.0061708
0.00656199
0.00708522
0.0072016
0.00736039
0.00772018
0.0100173
0.0100843
0.0102155
0.0102163
0.0100868
0.0099507
0.00964294
0.0094888
0.00580079
0.00583018
0.00587658
0.00590432
0.00592418
0.00593619
0.00595489
0.0059829
0.00602482
0.00616993
0.00655257
0.00705026
0.00714493
0.00727151
0.00771328
0.00994444
0.0099523
0.0101977
0.0101404
0.0101323
0.00993535
0.00963572
0.00943847
0.005803
0.00584641
0.00588277
0.00590735
0.00592568
0.00594581
0.00596329
0.00599188
0.00603029
0.00616923
0.00654353
0.00701401
0.00710315
0.00727182
0.00764029
0.00989811
0.00998762
0.0101203
0.0101891
0.0101684
0.00992487
0.0096695
0.00942124
0.00580591
0.00585756
0.00588561
0.00591061
0.00592766
0.00595023
0.00597164
0.00599441
0.00603349
0.00616849
0.00653648
0.00700008
0.00710698
0.007264
0.00766159
0.00992064
0.00998968
0.010064
0.0102066
0.0101719
0.0100796
0.00964021
0.0095527
0.00580918
0.00586497
0.00588868
0.00591813
0.00593229
0.00595582
0.00597054
0.0059963
0.00603815
0.00616748
0.00653093
0.00699135
0.00710071
0.0072146
0.0076553
0.00992154
0.00997805
0.0101689
0.0101873
0.0101881
0.0100881
0.00970159
0.00958527
0.00581005
0.00586347
0.00588733
0.0059233
0.00593182
0.00595522
0.0059716
0.00599581
0.00604175
0.00616828
0.00652477
0.00699006
0.00709626
0.00722981
0.00765149
0.00992012
0.00991502
0.0100667
0.0102009
0.010147
0.0100513
0.00968338
0.00962225
0.00581188
0.00586373
0.00589179
0.00592264
0.00593212
0.00595548
0.00597169
0.00599616
0.00604493
0.00616853
0.00652179
0.00697892
0.00707876
0.00721264
0.00764817
0.00991374
0.0100116
0.0101308
0.0102049
0.0102908
0.0100913
0.0095726
0.00963199
0.00581696
0.00587035
0.00588927
0.00592602
0.00593243
0.00595976
0.00597184
0.00599635
0.00604371
0.006169
0.00652066
0.0069631
0.00706933
0.00724025
0.00762995
0.00990242
0.0100147
0.010074
0.0101706
0.0102992
0.0100923
0.00959091
0.00955674
0.00581205
0.00586704
0.00589061
0.00592277
0.00593329
0.00595761
0.00597391
0.00600004
0.00604485
0.00616966
0.00651789
0.00694901
0.00707325
0.00724262
0.00766827
0.0099193
0.00998414
0.0101774
0.0102491
0.0102423
0.0100107
0.00964299
0.00960296
0.00581194
0.00586895
0.00589188
0.00592636
0.00593294
0.00595937
0.00597479
0.0059985
0.0060455
0.00616882
0.00651751
0.00695025
0.00706375
0.00724011
0.00767476
0.0100113
0.0100511
0.0101778
0.0103849
0.0103304
0.0100795
0.00973942
0.00972084
0.00581162
0.00586366
0.00588712
0.00593001
0.00593377
0.00595707
0.00597521
0.00599986
0.0060433
0.00616861
0.00651716
0.00695014
0.00706374
0.00724536
0.00766909
0.0101231
0.0102415
0.0103351
0.0105448
0.010491
0.010242
0.00987707
0.0098669
0.00581912
0.0058628
0.00588874
0.00592627
0.00593336
0.00595632
0.00597374
0.00599703
0.0060429
0.00616595
0.00651675
0.0069495
0.00706901
0.00724377
0.0077121
0.0103006
0.0104779
0.0105933
0.0107566
0.0106494
0.010412
0.0100383
0.0100558
0.00581465
0.00586386
0.00589356
0.00592436
0.00593334
0.00595454
0.00597432
0.00599647
0.00604326
0.00616184
0.00651716
0.00694842
0.00707761
0.00727478
0.00771615
0.010417
0.0106697
0.0108327
0.0109531
0.0108644
0.0106183
0.0102679
0.0102837
0.00581696
0.0058576
0.00588933
0.00592388
0.00593475
0.00595417
0.0059706
0.005995
0.00604068
0.00615687
0.00651736
0.00694789
0.00709422
0.00728266
0.00770867
0.0106675
0.0109812
0.0111694
0.0112031
0.0110338
0.0107801
0.0104875
0.010578
0.00581578
0.00585716
0.00589036
0.00592473
0.00593025
0.00595283
0.00596977
0.00599471
0.00604008
0.00615176
0.00651631
0.00695356
0.00709655
0.00728497
0.0077254
0.0108016
0.0112029
0.0113813
0.0114536
0.0112844
0.0110017
0.0107848
0.0108237
0.00581052
0.00585865
0.00588696
0.00592353
0.00593388
0.00595194
0.00597135
0.0059935
0.00604118
0.00614645
0.00651792
0.00695329
0.00710311
0.00732163
0.0077963
0.0110792
0.0114937
0.0116613
0.0116291
0.0114351
0.0111231
0.0110057
0.0112497
0.00580811
0.00585907
0.00588869
0.00592243
0.00592972
0.00595261
0.0059716
0.00599642
0.00604089
0.00614208
0.00651785
0.00695292
0.00710651
0.00732371
0.00787711
0.0114194
0.0118688
0.0119142
0.0118896
0.0117108
0.0113867
0.011382
0.0115812
0.00581196
0.00585823
0.00588191
0.00592257
0.00593216
0.00595315
0.00597068
0.00599311
0.00604046
0.00613768
0.00651719
0.00696194
0.00709492
0.00730669
0.00799561
0.0116932
0.0121432
0.0121724
0.0120935
0.0118781
0.0115527
0.0115905
0.0119851
0.00580326
0.00585449
0.00588087
0.00591608
0.00593159
0.00595271
0.00597013
0.00599419
0.00603969
0.00613423
0.00651731
0.00696333
0.00710657
0.00731092
0.00816666
0.0120956
0.0125335
0.0124521
0.0123318
0.0121476
0.0118459
0.0119946
0.0126379
0.00580302
0.00585211
0.00588114
0.00591454
0.00592957
0.0059484
0.00596649
0.00599384
0.00603856
0.00613154
0.00652085
0.00696482
0.0071
0.00733674
0.00837825
0.0125928
0.0129351
0.0127609
0.0125991
0.0123561
0.0120675
0.0122832
0.012946
0.00580362
0.00585108
0.00588303
0.00591698
0.00592501
0.00594476
0.00596503
0.00599112
0.00603722
0.00612917
0.00652655
0.00696358
0.00710856
0.00735896
0.00868718
0.0130431
0.0132871
0.013063
0.0128378
0.012665
0.0123872
0.0127202
0.0136611
0.00580876
0.0058411
0.00588215
0.0059162
0.00592179
0.00594348
0.00595874
0.00598899
0.00603513
0.00612739
0.00653515
0.00695184
0.00712089
0.00739893
0.00894144
0.013539
0.0137306
0.0133962
0.0131589
0.0128648
0.012836
0.0132475
0.0143726
0.00580615
0.00584677
0.00587831
0.00591357
0.00591933
0.00594079
0.00595767
0.00598457
0.00603236
0.00612624
0.0065464
0.00695947
0.00713454
0.00743245
0.00936057
0.0140922
0.0141477
0.0137716
0.0133872
0.0131415
0.0132652
0.0143684
0.0162301
0.005802
0.00583793
0.00587324
0.00590873
0.00591797
0.00593932
0.00595765
0.00598286
0.00603017
0.0061249
0.00655382
0.00695675
0.00715763
0.00746299
0.00974402
0.014477
0.0145498
0.0141331
0.0136593
0.0133853
0.0139313
0.0153391
0.0174379
0.00579766
0.00584163
0.0058698
0.00590557
0.00590965
0.00594156
0.00595807
0.00597681
0.00602669
0.00612379
0.00656594
0.00697207
0.00718779
0.00749584
0.010117
0.014916
0.0148723
0.0143932
0.0138295
0.0138181
0.0147306
0.0168756
0.0192752
0.00579253
0.00583894
0.005861
0.00589869
0.00590747
0.00594005
0.00595131
0.0059753
0.00602514
0.00612333
0.00657252
0.00698354
0.00720357
0.00751679
0.0106377
0.0152437
0.0152443
0.0148504
0.0140473
0.0143973
0.015585
0.0181104
0.0217442
0.0057823
0.00583355
0.00584914
0.0058883
0.00590755
0.00593793
0.00595092
0.00597606
0.00601968
0.00612209
0.00658333
0.00701477
0.00721748
0.0075766
0.0109396
0.0156003
0.015562
0.0151271
0.0144156
0.0148017
0.0166718
0.0202286
0.0235849
0.00578231
0.0058294
0.00584689
0.00588656
0.00590834
0.00593322
0.00595404
0.00597224
0.00602394
0.00612171
0.00658716
0.00703116
0.00723077
0.00766505
0.011494
0.0158153
0.0157874
0.0154553
0.0147703
0.0155093
0.017494
0.0205918
0.0236167
0.00577697
0.00581802
0.00584853
0.00588914
0.00590651
0.00592885
0.00595491
0.00597009
0.00602067
0.00612454
0.00660015
0.00707554
0.00726985
0.00771837
0.0115952
0.0159111
0.0161057
0.0157767
0.0152027
0.0163613
0.0180451
0.0212281
0.024203
0.00577098
0.0058022
0.00584896
0.00588859
0.00589856
0.00592462
0.00595103
0.00596738
0.00602307
0.00612272
0.00658696
0.00709179
0.00732537
0.00779305
0.0116821
0.015835
0.0161709
0.0160168
0.0157077
0.0165964
0.0183213
0.0208339
0.0235513
0.00576169
0.00579732
0.00584324
0.00588263
0.00588473
0.00591433
0.00594452
0.00595624
0.00602198
0.00611952
0.00656068
0.00708738
0.00737475
0.00790764
0.0114981
0.0154829
0.0161962
0.0162026
0.0161312
0.0167454
0.0180515
0.0207759
0.0234954
0.005742
0.00579334
0.00583715
0.00586867
0.00588043
0.00589885
0.00593516
0.00595238
0.00601782
0.00611415
0.00652623
0.00709173
0.00741495
0.00799634
0.0112725
0.0150941
0.0162838
0.0164411
0.0164608
0.0169153
0.0180863
0.0206927
0.0232062
0.00573299
0.0057956
0.00582907
0.00584843
0.00588247
0.00589357
0.00591884
0.00595405
0.00601152
0.00610649
0.00648818
0.00708625
0.0074144
0.00806565
0.0111683
0.0146467
0.0161892
0.0166435
0.0168353
0.017174
0.0180672
0.0198331
0.0216532
0.00570873
0.00578732
0.00581855
0.0058413
0.00587417
0.00589478
0.00591077
0.00594812
0.00600217
0.00609567
0.00644828
0.00707452
0.00741234
0.00813412
0.0110065
0.0144602
0.0160609
0.0167731
0.0171368
0.017494
0.0180093
0.019151
0.0205043
0.00570936
0.00577367
0.00580749
0.00584366
0.0058632
0.00588689
0.00589103
0.00593887
0.00599149
0.00608282
0.0064078
0.00704817
0.00745095
0.00820962
0.0104885
0.0138768
0.015983
0.0170273
0.0173837
0.017729
0.0181506
0.0189004
0.0197903
0.00568686
0.00575788
0.00579173
0.00583363
0.0058363
0.00587147
0.00589113
0.00592561
0.00597759
0.00606703
0.00636676
0.00700978
0.00752968
0.00831932
0.0105642
0.0138923
0.0159532
0.0171894
0.0178106
0.018125
0.0183733
0.0188948
0.019641
0.00566766
0.00574101
0.00576915
0.00581858
0.00582217
0.00585472
0.00588019
0.00591066
0.00596254
0.00605018
0.00632698
0.00695842
0.00750499
0.00854152
0.0107219
0.0141067
0.0159306
0.0174152
0.0183045
0.0186214
0.018874
0.0191886
0.0198778
0.00563113
0.00571744
0.00574627
0.00579757
0.0057972
0.00583252
0.0058614
0.00589124
0.00594349
0.00602994
0.00628655
0.00689283
0.00749407
0.00875638
0.0111649
0.0141038
0.0159481
0.0175322
0.018872
0.0192749
0.0194813
0.0199586
0.0203312
0.00560063
0.00569063
0.00572434
0.00577372
0.00575796
0.00580592
0.00583903
0.00587032
0.00592321
0.006009
0.00624808
0.0068167
0.00748894
0.00900104
0.0117059
0.0149865
0.0165944
0.0180874
0.0190939
0.019857
0.0202462
0.0209434
0.0217999
0.00556739
0.0056586
0.00569505
0.0057428
0.00575605
0.0057794
0.00581147
0.00584351
0.00589682
0.00598271
0.0062068
0.00673381
0.00755619
0.00942197
0.0122868
0.0154004
0.0181508
0.0191111
0.0200056
0.020575
0.0210075
0.0217521
0.0228273
0.00555656
0.00562483
0.00566303
0.00570931
0.00573395
0.00575296
0.00578263
0.00581514
0.00586883
0.00595538
0.00616671
0.0066558
0.00748044
0.00919159
0.0130832
0.0163934
0.0185212
0.0201278
0.0208531
0.0215417
0.0221449
0.0229349
0.0240703
0.00552126
0.00558357
0.005623
0.00566794
0.00569809
0.00571849
0.00574619
0.00577836
0.00583199
0.00591962
0.00611992
0.0065692
0.00738976
0.00900442
0.0140528
0.0177983
0.0202163
0.0216283
0.0222756
0.0231296
0.0231362
0.0234945
0.0246332
0.00547771
0.0055391
0.00558006
0.0056246
0.00565702
0.00568023
0.00570722
0.00573966
0.00579344
0.00588229
0.00607294
0.00648651
0.00729558
0.00892607
0.0150093
0.0185626
0.0215859
0.0219695
0.0233424
0.024541
0.0253161
0.0266826
0.0286915
0.00542103
0.00548355
0.00552533
0.00557064
0.00560369
0.00562985
0.0056569
0.00568919
0.00574248
0.00583215
0.00601422
0.00639389
0.00722699
0.00866847
0.0153901
0.0214852
0.0244916
0.0246646
0.0241156
0.0256749
0.0288462
0.0315839
0.0314193
0.00535945
0.00542452
0.00546704
0.00551425
0.00554721
0.00557603
0.00560377
0.00563654
0.00568971
0.00577974
0.00595344
0.00630551
0.00693996
0.0087491
0.0146758
0.0221012
0.0273899
0.0276345
0.0278634
0.0283777
0.0306264
0.0338566
0.0374048
0.00528423
0.00535096
0.00539342
0.00544289
0.00547559
0.00550654
0.00553501
0.00556782
0.00561968
0.00570857
0.00587343
0.00619182
0.00684004
0.00864293
0.0140602
0.025956
0.029761
0.0294559
0.0306281
0.0303974
0.0346516
0.0408453
0.0457542
0.00520578
0.00527478
0.00531708
0.00536904
0.00540192
0.00543496
0.00546427
0.0054974
0.005548
0.00563483
0.00579161
0.00606815
0.00684909
0.00910548
0.016054
0.0299143
0.035203
0.0336705
0.0363598
0.0378474
0.0397098
0.0433689
0.0502277
0.00511081
0.00517988
0.00522168
0.00527522
0.0053085
0.00534253
0.00537223
0.00540539
0.00545295
0.00553469
0.0056855
0.00592131
0.00662692
0.0100774
0.0176199
0.0360835
0.0391217
0.0380583
0.0396046
0.0408197
0.0432468
0.0547027
0.0646703
0.00501384
0.00508424
0.0051265
0.00518055
0.00521477
0.00525023
0.00528039
0.00531325
0.00535817
0.00543391
0.00557711
0.00579291
0.00625058
0.00914635
0.0192628
0.0336873
0.0436962
0.0424641
0.0465563
0.0501237
0.0505774
0.0560485
0.0732998
0.00489521
0.00496461
0.00500769
0.00505999
0.00509487
0.00512988
0.00515962
0.00519203
0.00523259
0.0052997
0.00543228
0.00562002
0.00612519
0.00920657
0.0174302
0.0336272
0.0468868
0.0489477
0.0514166
0.0601303
0.0606291
0.0717032
0.0811201
0.00477741
0.00484789
0.0048936
0.00494245
0.00497818
0.00501371
0.00504331
0.00507463
0.00511308
0.00517091
0.00528953
0.00544838
0.00611836
0.00901813
0.0158877
0.0334425
0.0518782
0.0534964
0.0558874
0.0671383
0.072712
0.0910752
0.103324
0.004631
0.00470016
0.00474787
0.00479118
0.00482628
0.00485979
0.00488783
0.00491758
0.00495316
0.00499981
0.00509772
0.00523157
0.00575054
0.00847919
0.0152001
0.0330919
0.0497593
0.0558007
0.0576678
0.0704238
0.0815843
0.0947302
0.110357
0.00449222
0.00456254
0.00461361
0.00465067
0.00468546
0.00471815
0.00474506
0.00477308
0.00480808
0.00484658
0.00492861
0.00503928
0.00537203
0.00754767