/*--------------------------------*- C++ -*----------------------------------*\
  =========                 |
  \\      /  F ield         | OpenFOAM: The Open Source CFD Toolbox
   \\    /   O peration     | Website:  https://openfoam.org
    \\  /    A nd           | Version:  7
     \\/     M anipulation  |
\*---------------------------------------------------------------------------*/
FoamFile
{
    version     2.0;
    format      ascii;
    class       volScalarField;
    location    "50";
    object      nut;
}
// * * * * * * * * * * * * * * * * * * * * * * * * * * * * * * * * * * * * * //

dimensions      [0 2 -1 0 0 0 0];

internalField   nonuniform List<scalar> 
12842
(
0.00180893
0.00179849
0.00178144
0.00177058
0.00175698
0.00175896
0.00176044
0.00176294
0.00176281
0.00176352
0.00176031
0.0017647
0.00176888
0.00172789
0.000822224
0.000454158
0.000288639
0.000204096
0.000154134
0.000121514
9.96455e-05
8.4665e-05
7.39076e-05
0.00180524
0.00179596
0.00179169
0.00178915
0.00176353
0.00175814
0.00175551
0.00176007
0.00176077
0.00176297
0.00176148
0.00176521
0.00176929
0.00169561
0.000810244
0.000448635
0.000286067
0.000202778
0.000153517
0.000121289
9.97462e-05
8.52999e-05
7.42819e-05
0.00181102
0.00178396
0.0017733
0.00178573
0.00177235
0.00175922
0.00174958
0.00175566
0.00175757
0.00176008
0.00175993
0.00176491
0.00176925
0.00164891
0.000793194
0.000441628
0.000283486
0.000201732
0.000153366
0.000121818
0.000100452
8.66826e-05
7.55048e-05
0.00180608
0.00179331
0.00178153
0.00178441
0.00177338
0.00176574
0.00174946
0.00175312
0.00175421
0.00175901
0.00175975
0.00176476
0.00176886
0.00159036
0.000770791
0.000432514
0.000279593
0.000200269
0.000152798
0.000122369
0.000101575
8.88107e-05
7.75258e-05
0.00180792
0.00177911
0.00177084
0.00177926
0.00177401
0.00176784
0.00175279
0.00175607
0.00175373
0.00175756
0.00175852
0.00176462
0.00176998
0.00153682
0.000751082
0.000425972
0.000277959
0.000201016
0.000154312
0.000124293
0.000103616
9.16151e-05
8.03137e-05
0.00180664
0.00178243
0.00177668
0.00177773
0.00177344
0.0017674
0.00175116
0.00175451
0.00175242
0.00175812
0.0017587
0.00176443
0.00177026
0.00149481
0.000735878
0.000421296
0.000277407
0.000202109
0.000156136
0.000126983
0.000106379
9.47884e-05
8.33989e-05
0.00180573
0.00177892
0.00176815
0.00177209
0.00177463
0.0017674
0.00175481
0.0017577
0.0017527
0.00175752
0.00175821
0.00176423
0.00177189
0.00148287
0.000733493
0.000424453
0.000282926
0.000207758
0.000160799
0.000130969
0.000110369
9.87609e-05
8.70495e-05
0.00180431
0.00177719
0.00176984
0.00176991
0.00177027
0.00176561
0.00175365
0.00175726
0.001754
0.00175851
0.00175836
0.00176436
0.00177476
0.00146335
0.000734676
0.000431427
0.000290319
0.000214695
0.000166955
0.000135958
0.00011438
0.000102578
9.04514e-05
0.00180367
0.0017765
0.00176896
0.00176651
0.00177147
0.00176254
0.00175557
0.00175576
0.00175375
0.0017594
0.00175801
0.00176523
0.00178037
0.00144846
0.00073819
0.000442217
0.000301569
0.000224699
0.000175251
0.000143046
0.000120132
0.000107648
9.46043e-05
0.00180052
0.00177673
0.00176441
0.00176536
0.00176852
0.00176143
0.00175532
0.00175484
0.00175389
0.00175977
0.00176081
0.00177043
0.00179349
0.00145158
0.000743135
0.000448254
0.000308135
0.000231106
0.000180998
0.000148216
0.000124514
0.000111452
9.7412e-05
0.00180103
0.00177241
0.00176785
0.00176421
0.00176682
0.00175898
0.00175525
0.00175278
0.00175356
0.00175943
0.0017642
0.00178612
0.00182117
0.00143489
0.000744027
0.000456241
0.000316749
0.000238768
0.00018727
0.000153525
0.000128716
0.000115221
0.000100411
0.00179664
0.00177433
0.00176233
0.00176437
0.00176633
0.00175836
0.00175396
0.00175148
0.00175219
0.00175819
0.00177419
0.00181048
0.00185792
0.00142551
0.000751253
0.000466949
0.000327211
0.0002477
0.000194338
0.000159396
0.000133342
0.000118885
0.000103334
0.0017985
0.00176963
0.00176398
0.00176319
0.00176326
0.00175637
0.0017539
0.00174918
0.00175321
0.00176117
0.00178956
0.00184057
0.0019001
0.00143123
0.000769455
0.000485457
0.000341183
0.000258199
0.000201885
0.000165248
0.000137778
0.000122523
0.000106191
0.00179355
0.00177054
0.00176195
0.0017638
0.00176215
0.00175551
0.00175264
0.00174846
0.00175343
0.00177379
0.00181852
0.001881
0.00195172
0.00145559
0.000792511
0.000503647
0.00035485
0.000268415
0.000209696
0.000171236
0.000142336
0.000125952
0.000108949
0.0017958
0.00176567
0.00176148
0.00176275
0.00175929
0.00175341
0.00175171
0.00174665
0.00175342
0.00179185
0.00184923
0.00192273
0.00199473
0.00149611
0.000828669
0.000530535
0.000372782
0.000280751
0.000217765
0.000177458
0.000146967
0.000129447
0.00011177
0.00179163
0.00176615
0.00176148
0.00176272
0.001758
0.00175249
0.00175174
0.00174715
0.00175943
0.00182053
0.00189173
0.00197026
0.00203421
0.00154703
0.000863722
0.000555031
0.000389091
0.000292326
0.000226622
0.000183939
0.000151936
0.00013313
0.000114954
0.00179275
0.00176062
0.00176017
0.00176197
0.00175472
0.00175072
0.00175224
0.00174942
0.00176722
0.00184787
0.00193225
0.00200407
0.00205968
0.00161893
0.000916503
0.00059025
0.000411865
0.000307321
0.000235912
0.000191156
0.000157491
0.00013725
0.000118351
0.00179087
0.00175951
0.00176207
0.0017618
0.00175319
0.00175012
0.00175262
0.00176248
0.00179519
0.00188743
0.00197251
0.00203518
0.0020824
0.00169236
0.00096479
0.00062321
0.000433278
0.000322306
0.000247254
0.000199394
0.000164055
0.000142239
0.000122927
0.00179019
0.0017551
0.00175935
0.00176028
0.00175007
0.00174957
0.00175394
0.00177689
0.00182193
0.0019224
0.00200458
0.00205419
0.00209248
0.0017938
0.00103478
0.00066978
0.000463527
0.000341641
0.000259891
0.0002088
0.000172328
0.000148146
0.00012836
0.00178973
0.00175285
0.00176006
0.00176173
0.00174939
0.00175037
0.00176393
0.00181565
0.00186516
0.0019526
0.00202802
0.00206744
0.00210124
0.00188528
0.00109657
0.000713311
0.000494015
0.0003636
0.00027607
0.0002207
0.000182151
0.000155301
0.000135711
0.00178895
0.00174936
0.00175858
0.00175869
0.00174739
0.00175071
0.00177246
0.0018455
0.00189533
0.00197526
0.00204586
0.00207421
0.00210045
0.0020055
0.00118417
0.000777392
0.000537491
0.000390854
0.000295854
0.000234284
0.000194386
0.000164638
0.000144292
0.00178784
0.00174707
0.00175729
0.00176251
0.00175185
0.00176234
0.00180519
0.00189074
0.00192222
0.00199022
0.00205389
0.00207386
0.00209971
0.00212948
0.00127078
0.000842235
0.00058652
0.000427091
0.000320051
0.000252761
0.000209018
0.000176301
0.000155729
0.00178759
0.00174574
0.0017538
0.00175865
0.00176304
0.00178163
0.00183266
0.00191751
0.00193808
0.00200093
0.00205799
0.00207141
0.00209316
0.00214135
0.00135468
0.000925378
0.000651559
0.000467455
0.000351531
0.000273799
0.000225963
0.000190974
0.000170366
0.00178585
0.00174402
0.00175311
0.00176527
0.00177928
0.00182171
0.00187197
0.00194881
0.0019549
0.00200456
0.0020534
0.00206091
0.00208464
0.00213591
0.00141162
0.000998998
0.000728624
0.000531828
0.000391576
0.000302319
0.000247489
0.000210117
0.000188537
0.0017862
0.00174358
0.00175226
0.0017722
0.00180766
0.00185758
0.00189412
0.0019581
0.00195505
0.00200095
0.00204301
0.00204898
0.00207479
0.00210688
0.00154452
0.00112616
0.000839617
0.000602766
0.000442802
0.000336304
0.000273266
0.000232395
0.000210334
0.00178408
0.00174431
0.00174977
0.00179599
0.00184708
0.00188835
0.00190747
0.00195686
0.00195134
0.00199386
0.00202964
0.00203425
0.00206311
0.00209427
0.00161547
0.00123278
0.000976896
0.000719291
0.000512042
0.000378201
0.000300444
0.00025994
0.000238993
0.00178475
0.00174636
0.0017522
0.00183621
0.00188871
0.00190836
0.00191457
0.00195274
0.00194581
0.0019841
0.00201446
0.00202132
0.00205488
0.00207313
0.0017233
0.00139756
0.00119732
0.000876728
0.000599941
0.000423418
0.00033788
0.000298373
0.00027353
0.00178323
0.00174459
0.00176129
0.00187807
0.00191359
0.00192234
0.00191576
0.00194491
0.00193829
0.00197236
0.00199777
0.00200641
0.00204282
0.00205403
0.00180057
0.00154801
0.00152021
0.00116852
0.000720244
0.000486404
0.000385429
0.000336256
0.000304687
0.00178415
0.00175626
0.00178837
0.00191849
0.00193505
0.00193009
0.00191529
0.00193582
0.00192987
0.0019599
0.00198254
0.00199638
0.00203776
0.00204428
0.00188044
0.00174408
0.00164522
0.00149275
0.000870671
0.00055185
0.000424863
0.000380164
0.000367931
0.00178274
0.00177083
0.00181876
0.0019472
0.00193962
0.00192997
0.00191037
0.00192665
0.00192104
0.00194651
0.00196636
0.00198423
0.00202695
0.00202093
0.00191944
0.00177363
0.00161461
0.00141169
0.00102076
0.000586995
0.000468977
0.000466632
0.000498675
0.00178394
0.00179653
0.0018562
0.00196684
0.00194246
0.00192884
0.00190471
0.00191636
0.0019118
0.00193381
0.00195349
0.00197781
0.00202398
0.00201683
0.00191123
0.00174543
0.00154583
0.00135586
0.00101714
0.000626307
0.000573605
0.000649398
0.000561332
0.00178768
0.00182749
0.00188463
0.00197613
0.00193442
0.00192126
0.00189865
0.00190816
0.00190294
0.0019212
0.00194022
0.00197024
0.00201609
0.00199654
0.00188091
0.00169868
0.00150542
0.0012793
0.000992355
0.000717211
0.000706495
0.000580471
0.000502229
0.00178613
0.00186157
0.00191268
0.00197973
0.00192768
0.00191472
0.00189049
0.00189893
0.00189462
0.00191005
0.00193028
0.00196664
0.00201334
0.00198985
0.00186465
0.00167438
0.00143888
0.00122084
0.00097905
0.000797064
0.000642431
0.000538587
0.00047811
0.00179133
0.00189495
0.00192517
0.00197674
0.00191537
0.00190615
0.00188543
0.00189295
0.00188704
0.00189978
0.0019208
0.00196358
0.00200907
0.00197291
0.00183691
0.00162521
0.00139214
0.00112426
0.000915095
0.000731008
0.00061482
0.000513562
0.000471413
0.00180176
0.00192347
0.00193867
0.0019719
0.00190672
0.00189918
0.00188028
0.00188558
0.00188072
0.00189115
0.00191373
0.00196245
0.0020055
0.00196283
0.00181823
0.00159106
0.00131044
0.00106717
0.000856738
0.000713372
0.000588037
0.000481597
0.000442604
0.00182262
0.00194812
0.00193889
0.00196344
0.00189515
0.00188981
0.0018739
0.00188161
0.00187509
0.00188367
0.0019077
0.00196259
0.00200436
0.00195044
0.00178324
0.00152674
0.00125578
0.00102168
0.000840195
0.000704035
0.000539599
0.00043834
0.000405213
0.00184296
0.00195849
0.00194426
0.00195474
0.00188869
0.00188651
0.00187369
0.00187649
0.00187089
0.00187761
0.00190333
0.00196369
0.0020001
0.00192741
0.00174321
0.00144911
0.00120821
0.000973446
0.000837038
0.000662736
0.000484763
0.000392335
0.000391303
0.00186544
0.00196875
0.00194029
0.00194525
0.0018786
0.00187741
0.00186941
0.00187295
0.00186679
0.00187252
0.0018999
0.00196579
0.00199853
0.00191971
0.00172045
0.00142804
0.00114569
0.00094538
0.000834366
0.000598789
0.000430649
0.000378528
0.000386915
0.00187687
0.00196783
0.00194144
0.00193469
0.00187305
0.00187525
0.00186723
0.00186924
0.00186397
0.00186856
0.00189795
0.00196858
0.00199719
0.00188855
0.00165863
0.00136732
0.00114477
0.00101386
0.000806744
0.000551158
0.000404444
0.000381469
0.00040978
0.00189275
0.00196479
0.00193641
0.00192479
0.00186671
0.00186824
0.0018662
0.00186622
0.00186051
0.00186519
0.00189645
0.00197175
0.00198878
0.00186815
0.0016317
0.00133847
0.00113259
0.00102523
0.000747453
0.000510098
0.000403761
0.000395577
0.000432025
0.00189472
0.00195716
0.00193627
0.00191521
0.00185745
0.00186228
0.00186274
0.00186176
0.00185831
0.00186265
0.00189611
0.00197538
0.00199267
0.00184675
0.00158225
0.00130605
0.00117577
0.00100181
0.000687377
0.000476734
0.000406434
0.000402104
0.000462027
0.00189849
0.00194286
0.00192837
0.00190277
0.00185328
0.001857
0.00185578
0.00185719
0.00185489
0.00186051
0.00189643
0.00197908
0.00197762
0.00180778
0.00155681
0.00128313
0.00112382
0.000905988
0.000652298
0.000464628
0.000414655
0.000404348
0.000491975
0.00189742
0.00193219
0.00192035
0.00189384
0.00184867
0.00184892
0.00184967
0.00185434
0.00185335
0.00185885
0.0018969
0.00198307
0.00198049
0.0017942
0.00150555
0.00126953
0.00109843
0.000819111
0.000613999
0.000463781
0.0004089
0.000457381
0.000602873
0.00188948
0.00191432
0.00190895
0.00188037
0.00183415
0.00184126
0.00184199
0.00184703
0.0018501
0.00185747
0.00189837
0.00198615
0.00196503
0.0017468
0.00147789
0.00122168
0.000976087
0.000752248
0.000575685
0.000445901
0.000414649
0.000500801
0.000738148
0.00188365
0.00190126
0.00189589
0.00187034
0.00182833
0.00183242
0.00183055
0.0018398
0.00184885
0.0018566
0.00189982
0.00199118
0.0019614
0.00172268
0.00141212
0.001139
0.000903394
0.000712334
0.000566411
0.000448113
0.000419474
0.000521536
0.000748659
0.00186325
0.00188717
0.00187475
0.00185877
0.00182747
0.00182409
0.00182447
0.00183564
0.00184679
0.0018555
0.00190151
0.00199226
0.00194715
0.00167244
0.00133627
0.00105519
0.000834255
0.000676365
0.00054231
0.000457627
0.000446295
0.000546569
0.00074422
0.00184419
0.0018769
0.00186193
0.00185279
0.00182579
0.00181999
0.00182053
0.00183293
0.00184445
0.00185555
0.00190358
0.00199876
0.00193129
0.00161717
0.00125652
0.000967023
0.000776281
0.000664445
0.000547967
0.00048096
0.000465435
0.000577292
0.000800306
0.00184003
0.00186864
0.00184656
0.001846
0.00182279
0.0018188
0.00181807
0.00183081
0.0018437
0.00185461
0.00190627
0.00199749
0.0019167
0.00156574
0.0011603
0.000900378
0.000742298
0.000643038
0.00056402
0.000509394
0.000487731
0.000612091
0.00074286
0.00183376
0.00186318
0.00184371
0.00184429
0.00182303
0.00181846
0.0018172
0.00183002
0.00184296
0.00185535
0.00190734
0.00200386
0.00189344
0.00150301
0.00109772
0.000869874
0.000729291
0.000649258
0.000591104
0.00054095
0.000528643
0.000648961
0.000900793
0.00183578
0.0018592
0.00183796
0.00184026
0.00182315
0.00181789
0.0018192
0.00182995
0.00184243
0.00185472
0.00191166
0.00200417
0.0018723
0.00144563
0.00104825
0.000834362
0.000712426
0.000666192
0.000626995
0.000594131
0.000561422
0.000647178
0.00081908
0.00183846
0.00185699
0.0018402
0.00184025
0.00182597
0.00182058
0.00182169
0.00183106
0.00184225
0.00185517
0.00191168
0.0020056
0.00185132
0.00140942
0.00100246
0.000815187
0.000715559
0.000689422
0.00066935
0.000644278
0.000605097
0.000736213
0.000733814
0.00184511
0.00185465
0.00184172
0.00183919
0.00182734
0.00182335
0.00182442
0.00183241
0.00184198
0.00185513
0.00191536
0.00201061
0.00183051
0.00137394
0.000964726
0.000810981
0.000733951
0.000720128
0.000710945
0.000700823
0.000631551
0.000722423
0.000663836
0.00184814
0.00185392
0.00184623
0.0018407
0.00183078
0.0018262
0.00182654
0.00183334
0.00184205
0.00185484
0.00191627
0.00201069
0.00181545
0.00133856
0.000927966
0.000801727
0.000740432
0.000751186
0.000749351
0.000734315
0.000635475
0.000665141
0.000595787
0.00185291
0.00185338
0.00185007
0.0018423
0.00183201
0.00182811
0.00182871
0.0018344
0.00184221
0.00185505
0.0019186
0.00201381
0.00180039
0.00130345
0.000902609
0.000785824
0.000740828
0.000772146
0.000790794
0.000734138
0.000595405
0.000588118
0.000524508
0.00185515
0.00185391
0.00185273
0.00184551
0.00183432
0.00183064
0.00183073
0.00183498
0.00184226
0.00185461
0.00192011
0.00201653
0.00179241
0.00126961
0.000886209
0.000775168
0.000734951
0.000771991
0.000795471
0.000714539
0.000542316
0.000503232
0.000457438
0.00185765
0.00185413
0.00185375
0.00184836
0.00183469
0.00183259
0.00183299
0.0018362
0.00184245
0.00185434
0.00192213
0.00201547
0.0017759
0.00124113
0.000856122
0.000746632
0.000705716
0.000733915
0.000767987
0.000657765
0.000486359
0.000440607
0.000409784
0.00185958
0.0018549
0.00185438
0.00185131
0.00183583
0.00183462
0.00183477
0.00183708
0.00184251
0.00185398
0.00192289
0.00201459
0.00177134
0.00122545
0.000813525
0.000690546
0.000643157
0.000663405
0.000706624
0.000609741
0.000455233
0.000397996
0.00037653
0.00186037
0.00185481
0.00185401
0.00185306
0.00183618
0.00183626
0.00183649
0.00183818
0.00184259
0.00185416
0.0019234
0.00201555
0.00176788
0.00119189
0.000782273
0.000645966
0.000586086
0.000603297
0.000645266
0.000569747
0.000429908
0.000365377
0.000360074
0.00186214
0.00185502
0.00185483
0.00185471
0.00183744
0.0018378
0.00183767
0.00183908
0.00184254
0.00185415
0.00192409
0.00201586
0.00175764
0.00116202
0.000764186
0.000609457
0.000544615
0.000555626
0.00058903
0.00053045
0.000416089
0.000354092
0.000357563
0.00186258
0.00185492
0.00185507
0.00185524
0.0018385
0.00183907
0.00183877
0.00183986
0.00184253
0.00185469
0.00192508
0.00201596
0.00174331
0.00115107
0.000761209
0.000590003
0.00051072
0.000520225
0.000543179
0.000498726
0.000412845
0.000346338
0.00031401
0.00186365
0.00185382
0.00185592
0.00185531
0.00183987
0.00183998
0.0018394
0.00184027
0.00184229
0.00185513
0.00192502
0.0020123
0.0017387
0.00115283
0.000772396
0.000581126
0.000493108
0.000497168
0.00050284
0.000469974
0.000412416
0.00036685
0.000236938
0.00186396
0.00185396
0.00185695
0.00185469
0.00184139
0.00184042
0.00183977
0.0018407
0.00184216
0.00185585
0.00192398
0.00200609
0.00173387
0.00116967
0.000801814
0.000590401
0.000488212
0.00049256
0.000479536
0.000454595
0.000419542
0.000306842
0.000194973
0.00186449
0.00185174
0.00185762
0.00185355
0.00184233
0.00184048
0.00183988
0.00184022
0.00184176
0.00185555
0.00192272
0.00199769
0.00174062
0.0011976
0.000841849
0.00061049
0.00050175
0.000497321
0.000461809
0.00044207
0.000419758
0.00025937
0.000169948
0.0018639
0.00185161
0.00185795
0.00185231
0.00184382
0.00184035
0.00184008
0.00184038
0.00184149
0.00185553
0.00191942
0.00198461
0.00174684
0.00123717
0.000896385
0.000641596
0.000520406
0.000515816
0.000464846
0.000442205
0.000374587
0.000239033
0.000162143
0.0018638
0.00184938
0.0018582
0.00185054
0.00184362
0.00183959
0.0018394
0.00183941
0.00184097
0.00185546
0.00191511
0.0019759
0.00175881
0.00127987
0.000952794
0.000670013
0.000568471
0.00055164
0.00048067
0.000450841
0.000355229
0.0002408
0.00016055
0.00186252
0.00184809
0.00185788
0.00184874
0.00184492
0.00183879
0.00183948
0.00183887
0.00184058
0.00185579
0.0019115
0.0019637
0.00177191
0.00133516
0.00101213
0.00069563
0.000621294
0.000585918
0.000514369
0.000480276
0.000348544
0.000238917
0.000165822
0.00186151
0.00184721
0.00185666
0.00184743
0.00184374
0.0018384
0.00183881
0.00183819
0.00183982
0.00185552
0.00190804
0.00195374
0.00179026
0.00138948
0.00106388
0.000727384
0.000664176
0.000636051
0.000556255
0.000507864
0.000347437
0.000249048
0.000174602
0.00185882
0.00184387
0.00185474
0.00184496
0.00184363
0.00183633
0.00183759
0.00183711
0.00183943
0.00185529
0.00190483
0.00194514
0.00180492
0.00143905
0.00110756
0.000744473
0.00069289
0.000672963
0.000596139
0.000527423
0.000358356
0.000260104
0.000188743
0.00185768
0.00184347
0.00185387
0.00184379
0.00184291
0.001836
0.00183716
0.00183588
0.00183832
0.00185476
0.00190266
0.00194516
0.00182003
0.00148509
0.00116252
0.000750074
0.000709292
0.000699366
0.000628539
0.000524562
0.000367325
0.000280278
0.000204118
0.00185037
0.00183989
0.00184884
0.00183843
0.00183855
0.00183384
0.00183501
0.00183531
0.00183792
0.00185426
0.00190059
0.00194611
0.00183611
0.00153777
0.00119569
0.000752017
0.000723271
0.00071217
0.000655845
0.000522752
0.00038596
0.000299979
0.000222589
0.00184152
0.00183696
0.00184292
0.00183344
0.00183371
0.00183066
0.00183376
0.00183298
0.00183657
0.00185368
0.00189953
0.00195228
0.00185729
0.00157748
0.00123168
0.000757546
0.000728896
0.000721162
0.000669693
0.000541906
0.000417958
0.000327153
0.000248416
0.00183398
0.00183024
0.00183629
0.0018287
0.00183051
0.00182729
0.00182892
0.00182937
0.00183595
0.00185288
0.001899
0.00195885
0.00186959
0.00159897
0.00125409
0.000760589
0.000733525
0.000730067
0.000673416
0.00058149
0.0004494
0.000365059
0.000278792
0.0018246
0.00182566
0.00182924
0.00182585
0.00182535
0.00182444
0.00182535
0.00182726
0.0018341
0.00185273
0.0018986
0.00196484
0.00187867
0.00162362
0.00126927
0.000760801
0.000732028
0.000724461
0.000675398
0.000620063
0.000492806
0.000402199
0.000316597
0.00182154
0.00182366
0.00182687
0.00182382
0.00182212
0.00182296
0.00182224
0.00182634
0.00183431
0.00185206
0.00189923
0.00196689
0.00187576
0.00163173
0.00127943
0.000761364
0.000740454
0.000730954
0.000676823
0.000630754
0.000541915
0.000439451
0.000361979
0.00182132
0.00182307
0.00182385
0.00182448
0.00181982
0.00182433
0.00182207
0.00182508
0.00183316
0.00185224
0.00190033
0.00196605
0.00187612
0.00164591
0.00128298
0.00075867
0.000741784
0.00072938
0.000673354
0.000631617
0.000584968
0.000489196
0.000407343
0.00181816
0.00181907
0.00182382
0.00182305
0.00182027
0.00182342
0.00182234
0.00182579
0.00183197
0.00185229
0.00190096
0.00196387
0.0018793
0.00164911
0.00129245
0.000763025
0.000740476
0.000736553
0.000676047
0.000627264
0.000580582
0.000540789
0.000462104
0.00181743
0.00182023
0.00182165
0.00182343
0.00182002
0.001823
0.00182215
0.00182521
0.00183162
0.00185122
0.00190233
0.00196589
0.0018764
0.00164981
0.00129268
0.000769714
0.000746754
0.00073795
0.000682089
0.000629948
0.000584516
0.000546711
0.000526458
0.00181456
0.00181743
0.00182062
0.00182434
0.00181904
0.00182145
0.00182159
0.0018256
0.00183072
0.00185142
0.00190359
0.00196648
0.0018763
0.0016524
0.00129027
0.000782532
0.000763277
0.000749293
0.000687851
0.000637352
0.000592648
0.000553998
0.000535124
0.00181804
0.00181851
0.00182067
0.00182301
0.00181964
0.0018212
0.0018206
0.00182453
0.00182972
0.00185071
0.00190512
0.00196645
0.0018777
0.0016514
0.00128414
0.000796417
0.00078068
0.00076196
0.000694685
0.000641061
0.000596818
0.000559685
0.000543008
0.00181665
0.00181866
0.00182082
0.00182134
0.00181918
0.00182037
0.00182168
0.00182442
0.00183041
0.00184945
0.0019071
0.00196691
0.00188064
0.00165881
0.00127578
0.000804945
0.000793229
0.000766618
0.000695698
0.000647017
0.000602854
0.000565421
0.000546985
0.00181727
0.00181707
0.00182072
0.00182161
0.00182078
0.00182077
0.00182066
0.00182375
0.00182929
0.0018477
0.00190928
0.00196667
0.00188433
0.00166037
0.00125851
0.00082309
0.000814004
0.00077431
0.00069835
0.00064629
0.000603985
0.000566789
0.000553854
0.00181606
0.00181677
0.00182101
0.00182121
0.00181964
0.00182003
0.00182055
0.00182375
0.00182934
0.00184676
0.00191098
0.00196876
0.00188515
0.00165787
0.00123957
0.000835113
0.000827371
0.000772096
0.000697535
0.000649247
0.000608092
0.000573181
0.000558416
0.00181651
0.00181562
0.00181999
0.00182222
0.0018201
0.0018197
0.00182113
0.00182343
0.00182926
0.0018452
0.00191333
0.00196841
0.00188697
0.00166308
0.00123158
0.000863668
0.00084378
0.000775574
0.000698107
0.000648512
0.00060811
0.00058028
0.000571058
0.00181601
0.00181747
0.00182058
0.0018206
0.0018201
0.00182123
0.00182133
0.00182446
0.00182891
0.00184412
0.00191486
0.00196845
0.0018885
0.00165864
0.00121294
0.000887213
0.000864714
0.000778531
0.000707981
0.000658622
0.000619201
0.000594787
0.000583356
0.00181677
0.00181708
0.00181732
0.00182196
0.00182097
0.00182151
0.00182098
0.00182358
0.00182987
0.0018428
0.00191595
0.00197097
0.00188511
0.00165337
0.00120484
0.000903669
0.000874066
0.000788391
0.000718641
0.000664586
0.000624009
0.000601236
0.00060081
0.00181661
0.00181396
0.00181724
0.00181899
0.00182046
0.00182188
0.00182093
0.00182374
0.00182991
0.00184196
0.00191697
0.00197152
0.00188695
0.00164728
0.00120419
0.000925255
0.0008894
0.000802468
0.000732304
0.000678939
0.00064088
0.000620206
0.000624739
0.00181696
0.00181486
0.00181721
0.00181945
0.00182141
0.00182055
0.00181973
0.00182494
0.00182963
0.00184129
0.00191883
0.00197202
0.00188428
0.00164782
0.00120712
0.00095539
0.000898351
0.000819315
0.000748028
0.000690727
0.000653026
0.000635891
0.000634419
0.00181685
0.00181313
0.00181846
0.00181997
0.0018202
0.00181984
0.00181954
0.00182434
0.00183042
0.00184066
0.00192116
0.00197183
0.00188378
0.00163702
0.00122728
0.000979435
0.000912828
0.000834228
0.00076226
0.000710182
0.000673319
0.000660559
0.000669094
0.00182137
0.00180995
0.0018185
0.00182023
0.00181991
0.0018196
0.00181828
0.00182322
0.00182901
0.00184021
0.00192419
0.00196877
0.00188326
0.00163492
0.00123333
0.00100813
0.000939772
0.000856346
0.000785949
0.000725324
0.000700299
0.000689178
0.000696224
0.00182066
0.00181234
0.00181845
0.00182065
0.00181926
0.00181791
0.00181854
0.00182208
0.00182923
0.0018401
0.0019277
0.00196964
0.001883
0.0016228
0.00125119
0.00104493
0.000969125
0.000879747
0.000805425
0.000748791
0.000727468
0.000748709
0.000781406
0.00181687
0.00181108
0.00181662
0.0018209
0.00181941
0.00181815
0.00181873
0.00182198
0.00182817
0.00184012
0.00193046
0.00196817
0.00188444
0.00161917
0.0012457
0.00105795
0.000999028
0.000913429
0.000831447
0.000767959
0.000766824
0.000794518
0.000834999
0.00181822
0.00181358
0.00181815
0.00182104
0.00181696
0.00181996
0.00182073
0.00182086
0.00182753
0.0018402
0.00193378
0.00196972
0.00188569
0.0015954
0.00123703
0.00109347
0.00102511
0.000942792
0.000850748
0.000800886
0.000816898
0.000872582
0.000914733
0.00181616
0.00181518
0.00181564
0.00181953
0.00181609
0.00182061
0.00181899
0.00182148
0.00182774
0.00184031
0.00193581
0.00197063
0.00188316
0.00158405
0.00122243
0.00111797
0.00106857
0.000991098
0.000874894
0.000840005
0.00086651
0.000931832
0.00102516
0.00181483
0.00181726
0.00181065
0.00181906
0.00181531
0.00182059
0.0018189
0.00182272
0.00182749
0.00184008
0.0019387
0.00197476
0.00187974
0.00155592
0.00122732
0.00114764
0.00110495
0.00101988
0.000903271
0.00087052
0.000929452
0.0010461
0.0011143
0.00181706
0.0018168
0.00180997
0.00181905
0.00181629
0.00182156
0.00181956
0.0018224
0.00183068
0.00184092
0.00193961
0.00197643
0.00188191
0.00156454
0.00127819
0.00119544
0.00114783
0.00105717
0.000934215
0.00092102
0.000980206
0.00106658
0.00111225
0.00181783
0.00181261
0.00181202
0.00181983
0.00181667
0.00182071
0.00182109
0.00182235
0.0018296
0.00184155
0.00194171
0.00198618
0.00188423
0.00153481
0.00127307
0.0012222
0.00117981
0.00108093
0.000961206
0.000970093
0.00100781
0.00109526
0.00112925
0.00181602
0.00180942
0.00181489
0.0018192
0.00181586
0.00181894
0.00182228
0.00182217
0.00183087
0.00184135
0.00193847
0.00199156
0.00190363
0.00155926
0.00129218
0.00127404
0.0012054
0.00111073
0.00100374
0.000991458
0.00102796
0.00106988
0.00111873
0.00181775
0.00181166
0.00181537
0.00181913
0.00181427
0.0018166
0.00182376
0.00182037
0.00183162
0.00184167
0.00193183
0.00199224
0.00192743
0.00159263
0.00131564
0.0013135
0.00123365
0.00115168
0.00105205
0.00101374
0.0010252
0.00107878
0.00112992
0.00181258
0.00181602
0.00181549
0.00181818
0.00181684
0.00181438
0.00182203
0.00182082
0.001834
0.00184206
0.00192358
0.00199673
0.0019421
0.00163576
0.00137141
0.00136953
0.00129569
0.00122191
0.00112431
0.00106539
0.00106484
0.00112626
0.00118221
0.00180802
0.00181877
0.00181571
0.00181673
0.00182284
0.00181564
0.00181654
0.00182288
0.00183402
0.00184184
0.00191494
0.00199849
0.00194063
0.00168185
0.00146421
0.00143149
0.00137423
0.00131281
0.00122073
0.00114875
0.00113972
0.00116705
0.00120089
0.00180261
0.00181591
0.00181556
0.0018211
0.00182225
0.00181933
0.00181579
0.00182392
0.00183436
0.00184129
0.00190705
0.00200173
0.00194828
0.00173317
0.00156336
0.00154073
0.0014719
0.00142036
0.00133934
0.00126487
0.00123825
0.00123953
0.00125915
0.00180652
0.00181461
0.00181703
0.00182419
0.00181828
0.00182214
0.00181231
0.00182413
0.00183152
0.0018404
0.00189957
0.00200343
0.00196731
0.0017834
0.00161015
0.00161973
0.00159325
0.001561
0.00146696
0.00139736
0.00136482
0.00135559
0.00135555
0.00180457
0.00181386
0.0018165
0.00182097
0.00181219
0.00182187
0.0018164
0.00182368
0.0018303
0.00183974
0.00189313
0.00200394
0.00200729
0.00183661
0.00173218
0.00177551
0.00174176
0.0017112
0.00163331
0.0015617
0.00151729
0.00150761
0.0015062
0.00180454
0.00181366
0.00181668
0.00182075
0.00181165
0.00181914
0.00181804
0.0018232
0.00182949
0.00183902
0.00188727
0.00200106
0.0020137
0.00190649
0.00185731
0.00192558
0.00189705
0.00186598
0.00181122
0.00174364
0.00170227
0.00168871
0.00169201
0.00180083
0.00181367
0.0018176
0.00182017
0.00180977
0.0018175
0.00181863
0.00182289
0.00182909
0.00183865
0.00188246
0.00199518
0.00203782
0.00198214
0.00201481
0.00202788
0.00201678
0.00201822
0.00201059
0.00195266
0.00190579
0.00191168
0.00189257
0.00180004
0.00181395
0.00181612
0.00182169
0.0018044
0.00181712
0.00181862
0.00182268
0.00182878
0.0018383
0.00187819
0.00198469
0.00205595
0.00205937
0.00218553
0.00221107
0.00216148
0.00218967
0.00216523
0.0021457
0.00212887
0.00215828
0.00217994
0.00180015
0.00181444
0.00181391
0.00182251
0.00181353
0.0018186
0.00181852
0.00182231
0.00182844
0.00183821
0.00187482
0.00197324
0.00209626
0.00219761
0.00236154
0.00237399
0.00246848
0.00240339
0.00238341
0.00236365
0.00234035
0.00234267
0.00234136
0.00180804
0.00181467
0.00181452
0.00182114
0.00181734
0.00181879
0.00181808
0.00182177
0.00182794
0.00183804
0.00187168
0.00196182
0.00209392
0.00216566
0.00258997
0.00256716
0.00255661
0.00258142
0.00259071
0.00259526
0.0025651
0.00255822
0.00256583
0.00181009
0.00181436
0.00181559
0.00181876
0.00181894
0.00181801
0.0018176
0.00182085
0.00182717
0.0018379
0.00186909
0.00194982
0.00208364
0.00223992
0.00290484
0.00293382
0.00288859
0.00282837
0.00282254
0.00286866
0.00279123
0.00270276
0.00260818
0.00181003
0.00181338
0.00181567
0.00181632
0.00181864
0.00181648
0.00181673
0.00181975
0.00182631
0.00183753
0.00186621
0.00193848
0.00207369
0.00220789
0.00309875
0.00301506
0.00301852
0.0029232
0.00303188
0.00312385
0.0030518
0.00308628
0.0030143
0.00180871
0.00181173
0.00181424
0.00181406
0.001817
0.00181483
0.00181573
0.00181837
0.00182506
0.0018368
0.00186365
0.00192796
0.00207348
0.00220209
0.00321183
0.00343176
0.00338117
0.00326767
0.00315537
0.00327146
0.00343317
0.00363541
0.0031537
0.00180661
0.00180967
0.00181189
0.00181206
0.00181459
0.00181314
0.00181429
0.00181686
0.00182375
0.00183566
0.00186028
0.00191832
0.00202018
0.0022681
0.00303229
0.00351276
0.00373359
0.00366394
0.0036251
0.003575
0.00373111
0.00363262
0.00358008
0.00180421
0.00180717
0.0018089
0.00180993
0.00181176
0.00181134
0.00181264
0.0018151
0.00182189
0.0018338
0.00185667
0.00190763
0.00201573
0.00225943
0.002952
0.00400973
0.00398607
0.00391204
0.00398413
0.00383524
0.00410924
0.00438439
0.00434348
0.00180159
0.00180468
0.00180592
0.00180794
0.00180902
0.00180963
0.00181077
0.00181314
0.0018198
0.00183134
0.00185188
0.00189385
0.00206162
0.00239575
0.00345396
0.00456984
0.00469217
0.00440916
0.00465866
0.00471426
0.00475553
0.00465354
0.0046599
0.00179892
0.00180195
0.00180256