/*--------------------------------*- C++ -*----------------------------------*\
  =========                 |
  \\      /  F ield         | OpenFOAM: The Open Source CFD Toolbox
   \\    /   O peration     | Website:  https://openfoam.org
    \\  /    A nd           | Version:  7
     \\/     M anipulation  |
\*---------------------------------------------------------------------------*/
FoamFile
{
    version     2.0;
    format      ascii;
    class       volScalarField;
    location    "50";
    object      omega;
}
// * * * * * * * * * * * * * * * * * * * * * * * * * * * * * * * * * * * * * //

dimensions      [0 0 -1 0 0 0 0];

internalField   nonuniform List<scalar> 
12842
(
3.14414
2.84242
2.65338
2.52854
2.44458
2.37625
2.33134
2.29337
2.26894
2.24847
2.23806
2.22648
2.22504
2.2284
2.2403
2.25924
2.30786
2.36731
2.4472
2.55944
2.64533
2.76658
2.84051
3.13049
2.81985
2.6291
2.50114
2.43162
2.3709
2.32949
2.29283
2.26912
2.24791
2.23593
2.22514
2.22445
2.22843
2.23994
2.26203
2.30511
2.37223
2.45062
2.56258
2.64236
2.76233
2.83383
3.10535
2.80132
2.60955
2.47745
2.39729
2.34921
2.31563
2.28448
2.26368
2.24532
2.23454
2.22409
2.22434
2.2291
2.24171
2.26587
2.30853
2.37799
2.46049
2.58056
2.65973
2.77242
2.84185
3.08277
2.75613
2.57875
2.46483
2.38709
2.33389
2.30728
2.27921
2.26094
2.24084
2.23121
2.22261
2.22377
2.22908
2.24281
2.26954
2.31492
2.38927
2.46907
2.58994
2.66754
2.77773
2.84578
3.05587
2.73086
2.54681
2.43416
2.36278
2.31425
2.28909
2.26577
2.25358
2.23772
2.22791
2.22044
2.22245
2.22923
2.24469
2.27329
2.3215
2.40196
2.48623
2.60512
2.68506
2.80245
2.87751
3.0275
2.69553
2.51799
2.41884
2.35115
2.30523
2.28157
2.25946
2.24802
2.23227
2.22552
2.21944
2.22183
2.22938
2.24605
2.27697
2.32689
2.40819
2.49293
2.62498
2.70563
2.82331
2.89006
2.99824
2.66493
2.49198
2.39004
2.32824
2.28889
2.26665
2.24727
2.24082
2.22893
2.2225
2.21759
2.22076
2.23015
2.24857
2.28152
2.33612
2.42673
2.51187
2.63673
2.7319
2.88828
2.95949
2.97278
2.63757
2.47138
2.37849
2.31798
2.28225
2.26048
2.24208
2.23414
2.22393
2.22049
2.21659
2.21991
2.23031
2.24923
2.28273
2.33793
2.43234
2.52745
2.67434
2.77031
2.93124
3.04902
2.94107
2.60839
2.44656
2.35619
2.30136
2.26987
2.25007
2.23517
2.22917
2.21957
2.2179
2.21543
2.21941
2.22998
2.24958
2.28483
2.34537
2.45023
2.55113
2.70358
2.82568
2.99925
3.17607
2.9156
2.58182
2.43146
2.34692
2.29356
2.26484
2.24594
2.23277
2.22627
2.21746
2.21606
2.21423
2.21846
2.22986
2.24993
2.28666
2.34976
2.45938
2.58989
2.78889
2.92419
3.109
3.32684
2.87895
2.5552
2.40708
2.32861
2.28028
2.25543
2.23902
2.22846
2.22308
2.21503
2.21335
2.21265
2.21832
2.23031
2.25213
2.29449
2.36901
2.49412
2.64535
2.85076
3.03774
3.23757
3.47704
2.85407
2.5308
2.39535
2.31971
2.27348
2.25044
2.23599
2.2265
2.22138
2.21296
2.21092
2.21103
2.2181
2.23124
2.25481
2.30034
2.3818
2.52488
2.72033
2.98102
3.17493
3.40408
3.69678
2.81784
2.50824
2.37434
2.30474
2.26283
2.24229
2.23038
2.22284
2.21751
2.20967
2.20801
2.20977
2.21807
2.23586
2.27122
2.33564
2.43924
2.62235
2.81667
3.08701
3.34449
3.57925
3.86993
2.79491
2.48652
2.36331
2.29653
2.25753
2.2385
2.22761
2.22085
2.21522
2.20672
2.20538
2.20925
2.22136
2.25149
2.29055
2.36298
2.47916
2.68484
2.93059
3.23973
3.51174
3.78055
4.13757
2.76104
2.46766
2.34658
2.28358
2.24858
2.23223
2.22226
2.21686
2.2098
2.20231
2.20296
2.20965
2.23438
2.28491
2.34495
2.44209
2.58544
2.82304
3.04829
3.38977
3.71013
3.98962
4.3248
2.74011
2.44956
2.33512
2.27693
2.24435
2.22922
2.21925
2.21458
2.20671
2.20051
2.20294
2.21875
2.26539
2.3251
2.38895
2.49831
2.65403
2.90965
3.19069
3.55774
3.91047
4.21289
4.62034
2.71151
2.43472
2.32256
2.26484
2.2372
2.22354
2.21295
2.20963
2.20186
2.19845
2.20425
2.23916
2.30766
2.38734
2.47464
2.60895
2.7866
3.06386
3.322
3.72833
4.11533
4.44772
4.83055
2.69049
2.41917
2.31015
2.25886
2.23373
2.22043
2.20941
2.20741
2.20053
2.20109
2.22004
2.2756
2.36208
2.44602
2.53884
2.68453
2.87551
3.17277
3.48346
3.90409
4.32829
4.6778
5.14883
2.67042
2.40832
2.30161
2.24873
2.22717
2.21395
2.20275
2.20217
2.19925
2.20484
2.24076
2.31814
2.42609
2.53038
2.64562
2.81314
3.01912
3.31835
3.62721
4.07452
4.53193
4.94303
5.38914
2.65241
2.39492
2.28963
2.24119
2.22344
2.21038
2.1996
2.20164
2.20761
2.23296
2.28152
2.37547
2.49538
2.59901
2.72061
2.89677
3.12204
3.45397
3.79277
4.26628
4.72405
5.1508
5.71312
2.63718
2.38514
2.28338
2.23392
2.21597
2.20301
2.19585
2.20088
2.21488
2.2604
2.32107
2.43209
2.57056
2.69587
2.83902
3.03624
3.26728
3.57584
3.95731
4.42628
4.91329
5.42394
5.98327
2.62375
2.37339
2.27364
2.22402
2.21105
2.2006
2.19739
2.21111
2.25509
2.31428
2.38034
2.5026
2.64793
2.76795
2.91628
3.1206
3.3793
3.74824
4.11685
4.62844
5.11784
5.62116
6.19977
2.61077
2.36366
2.26845
2.2184
2.20392
2.19499
2.20176
2.22556
2.28742
2.35885
2.43335
2.56668
2.72534
2.86774
3.03793
3.2638
3.52191
3.83656
4.28768
4.78125
5.27099
5.82938
6.45959
2.6024
2.35408
2.26212
2.20874
2.19721
2.19713
2.22232
2.26502
2.35225
2.43548
2.51202
2.65142
2.81276
2.94674
3.11713
3.34627
3.63235
4.03623
4.4633
4.97906
5.49145
6.13268
6.70581
2.59332
2.34503
2.2583
2.20447
2.196
2.2062
2.25883
2.31529
2.41776
2.50334
2.5831
2.727
2.89161
3.0421
3.23717
3.49272
3.78436
4.13132
4.61889
5.14942
5.7478
6.32609
6.8784
2.5872
2.338
2.25428
2.19955
2.19811
2.23098
2.30546
2.37797
2.48692
2.57282
2.65527
2.80235
2.9691
3.11589
3.30944
3.56839
3.89098
4.32902
4.83005
5.40072
5.91939
6.57278
7.23654
2.57753
2.32726
2.24952
2.19575
2.20721
2.26719
2.35995
2.44362
2.55647
2.64244
2.72709
2.87462
3.03701
3.19309
3.41496
3.71022
4.04368
4.43283
5.0188
5.57482
6.24677
7.09452
7.8338
2.57057
2.31977
2.24591
2.19579
2.233
2.31352
2.42058
2.51301
2.62553
2.71061
2.79705
2.94424
3.1087
3.26871
3.49242
3.78722
4.15812
4.68037
5.25634
5.90123
6.77278
7.63053
8.43007
2.56043
2.308
2.23948
2.20495
2.26673
2.3661
2.48312
2.58039
2.69222
2.77605
2.86364
3.00832
3.16323
3.32238
3.56959
3.9214
4.34805
4.81859
5.52573
6.39829
7.35676
8.51447
9.84541
2.55086
2.29864
2.23758
2.22506
2.3153
2.42441
2.54749
2.64579
2.7552
2.83798
2.92606
3.06825
3.22716
3.4016
3.66989
4.02592
4.4559
5.14559
6.01785
6.91206
8.23791
10.0368
12.3085
2.54177
2.29118
2.23791
2.25785
2.36849
2.48622
2.6112
2.7072
2.8144
2.89535
2.98334
3.12177
3.27076
3.44046
3.72019
4.13109
4.72457
5.40675
6.4021
7.68424
9.68358
12.4334
15.5747
2.53003
2.28358
2.24641
2.29854
2.42988
2.54722
2.6708
2.76328
2.86829
2.94797
3.03529
3.1703
3.32452
3.51644
3.83735
4.31539
4.89882
5.87276
7.01364
8.85087
11.6599
15.1088
18.9962
2.5198
2.27794
2.26394
2.34605
2.49113
2.60895
2.72774
2.81464
2.91712
2.99511
3.0817
3.21317
3.36134
3.55553
3.90084
4.41819
5.24722
6.26713
7.90801
10.3914
13.8102
17.727
22.5901
2.50864
2.27774
2.29333
2.39742
2.55348
2.66548
2.77862
2.85893
2.96041
3.03702
3.12269
3.25093
3.4043
3.62993
4.03004
4.65084
5.50678
6.97282
8.9438
11.9483
15.6629
20.9142
27.5526
2.49981
2.28577
2.3262
2.45099
2.61289
2.7196
2.82344
2.89966
2.99778
3.07351
3.15881
3.28475
3.43815
3.67516
4.1122
4.81427
6.02537
7.68108
10.0732
13.3578
18.5131
26.8923
40.4328
2.48954
2.30324
2.36955
2.50489
2.66929
2.76762
2.86431
2.93298
3.03069
3.1052
3.1899
3.31375
3.47156
3.74245
4.27034
5.15412
6.48585
8.4201
11.1029
15.4513
24.5557
44.0155
60.7476
2.48179
2.33166
2.40965
2.55853
2.72027
2.81164
2.89756
2.96441
3.05775
3.13227
3.21745
3.34088
3.50593
3.823
4.43366
5.40517
7.02414
9.25793
12.3614
19.8919
40.2684
66.6025
79.6588
2.48132
2.36963
2.45632
2.60914
2.76922
2.85031
2.92866
2.99038
3.08237
3.15561
3.24038
3.36381
3.53558
3.87308
4.55792
5.75249
7.66443
10.0786
14.6678
29.7749
62.2112
82.8533
93.1666
2.49087
2.41022
2.49857
2.66044
2.8122
2.88518
2.95427
3.01451
3.10203
3.17544
3.26137
3.38607
3.56728
3.98791
4.83885
6.25193
8.31405
11.2538
19.3857
46.2365
80.0956
93.7116
103.483
2.50461
2.46065
2.54416
2.70582
2.85422
2.91641
2.97802
3.03607
3.12113
3.19266
3.27803
3.40609
3.60567
4.05913
4.98112
6.53912
9.02626
13.1734
28.0354
63.1956
90.8479
99.5549
108.49
2.5297
2.5081
2.58566
2.75045
2.8902
2.94735
3.00056
3.05662
3.13607
3.20746
3.29432
3.42496
3.63019
4.1633
5.27134
7.13118
9.94315
17.0839
40.018
77.2257
95.8826
101.957
116.362
2.55546
2.56523
2.63212
2.7935
2.92566
2.97362
3.02276
3.0758
3.152
3.22046
3.30654
3.44414
3.67997
4.28436
5.45948
7.59631
11.7792
24.0578
51.8429
85.2783
99.1495
109.755
128.982
2.59029
2.61467
2.67548
2.83183
2.95393
2.99872
3.04307
3.09324
3.16305
3.23194
3.31959
3.46153
3.70777
4.37999
5.82389
8.45967
15.2474
32.7284
62.1377
89.1162
101.558
107.401
124.853
2.6247
2.669
2.72471
2.87054
2.98061
3.02145
3.06291
3.11084
3.17649
3.24214
3.32916
3.48073
3.75834
4.53996
6.17576
9.78271
19.9603
41.7139
70.3225
93.5763
100.77
108.536
121.64
2.66381
2.7139
2.77107
2.90482
2.99886
3.03858
3.08038
3.12409
3.185
3.25127
3.3399
3.49791
3.8006
4.67496
6.68364
11.8593
25.6007
49.6655
73.9751
93.0791
98.5178
105.871
119.272
2.69823
2.75816
2.81899
2.93662
3.01582
3.05919
3.09548
3.13695
3.19494
3.25958
3.34833
3.51797
3.85057
4.89431
7.6058
14.7858
31.7123
55.9919
78.6644
91.017
95.4178
102.884
115.874
2.73181
2.79304
2.85683
2.96007
3.026
3.07239
3.10773
3.14533
3.20353
3.26673
3.35773
3.53558
3.91761
5.14072
8.54406
17.9925
37.2449
59.444
78.7485
87.207
90.0289
98.1276
108.937
2.75846
2.82482
2.89253
2.98192
3.03759
3.08485
3.11582
3.15279
3.21016
3.27353
3.36544
3.55818
3.97772
5.45603
9.82944
21.5028
42.463
62.8864
77.2166
83.057
85.7845
92.1453
102.507
2.78182
2.85012
2.91744
2.99621
3.04527
3.09176
3.12226
3.15871
3.21509
3.27933
3.37488
3.57592
4.05526
5.79147
11.2618
25.159
46.5109
63.4111
74.3944
78.6087
79.3909
85.6702
92.0834
2.80272
2.87292
2.94074
3.01377
3.05629
3.10041
3.1267
3.16486
3.22049
3.28529
3.38198
3.60037
4.14226
6.19583
12.6054
28.3109
49.2752
62.5703
70.7661
73.7114
75.6695
78.0876
83.75
2.81994
2.89326
2.95687
3.02575
3.06452
3.10338
3.13097
3.16914
3.22451
3.28985
3.39022
3.61832
4.21331
6.54147
13.9294
31.2204
51.0884
61.0806
66.7635
69.3375
70.5778
71.5397
74.9208
2.83723
2.91062
2.97087
3.03835
3.07462
3.10873
3.13601
3.17376
3.2286
3.29482
3.39727
3.63501
4.28742
6.86361
15.3238
33.8786
52.1944
59.6938
63.4226
65.3372
67.3593
69.3422
69.5341
2.85304
2.92709
2.98102
3.04815
3.08332
3.11391
3.14194
3.17863
3.23174
3.29835
3.40213
3.64893
4.35079
7.21992
16.7813
36.0972
52.7794
58.6302
60.6066
62.2133
64.746
67.0458
65.2907
2.87087
2.94196
2.99168
3.05651
3.09351
3.12084
3.14791
3.18393
3.23513
3.303
3.40945
3.66288
4.40689
7.60049
17.8659
37.5843
53.0852
57.8207
58.6131
60.389
63.6283
64.6794
62.2376
2.88889
2.9562
3.00295
3.06345
3.10345
3.12658
3.15379
3.18912
3.23782
3.30625
3.41357
3.67138
4.44469
7.93709
18.4899
38.2779
53.3219
57.7357
58.2715
59.9639
61.9348
62.3142
58.5956
2.90862
2.97017
3.01667
3.06967
3.11457
3.13275
3.15896
3.19387
3.24091
3.31047
3.4192
3.68701
4.51017
8.19011
18.8249
38.5614
53.3423
57.3646
57.5368
58.4616
58.4924
58.2562
54.3581
2.92743
2.98325
3.02939
3.07576
3.12427
3.13818
3.16358
3.19783
3.24348
3.31365
3.4242
3.69789
4.5308
8.21394
18.6066
37.8948
52.835
55.3251
55.3725
54.8342
53.4488
53.332
48.8151
2.94572
2.99633
3.04229
3.08243
3.13334
3.14353
3.16801
3.20127
3.24581
3.3166
3.42907
3.70494
4.53706
8.22194
17.8088
35.7209
50.4369
51.105
51.6142
50.1402
47.7715
47.6703
44.0562
2.96337
3.00989
3.05376
3.08975
3.14157
3.1496
3.17288
3.20503
3.24827
3.31919
3.43347
3.70839
4.5398
8.12433
16.6834
32.7716
46.2127
45.6642
46.9323
44.8397
41.8973
41.8194
38.0691
2.98091
3.02396
3.06578
3.09877
3.14918
3.1557
3.17809
3.20869
3.25045
3.32132
3.43755
3.70975
4.53626
7.88923
15.2965
29.2424
40.9385
39.7936
41.8832
39.614
36.1155
35.8644
33.9234
2.99803
3.03959
3.07631
3.10815
3.1561
3.16299
3.1841
3.21308
3.25291
3.32294
3.44041
3.70991
4.50283
7.57052
13.8358
25.6595
35.3022
34.1485
36.9351
34.8787
31.4172
30.5516
29.0219
3.01423
3.05432
3.08788
3.11935
3.16281
3.17055
3.19018
3.21757
3.25512
3.32404
3.44301
3.70779
4.45758
7.19617
12.3673
22.2914
29.9389
29.1563
32.5036
30.7887
27.6469
26.7233
26.0165
3.03064
3.07165
3.09835
3.13047
3.16945
3.17898
3.19738
3.223
3.25784
3.32481
3.44412
3.7017
4.39017
6.80748
11.0178
19.4065
25.2362
25.0197
28.6769
27.5191
24.954
23.7701
23.2926
3.04634
3.08667
3.11047
3.14262
3.17607
3.18797
3.20409
3.22829
3.26033
3.32517
3.44472
3.69416
4.31722
6.41385
9.81275
17.1606
21.4226
21.722
25.3391
24.9938
22.9891
21.9011
21.5894
3.06156
3.10402
3.12139
3.15489
3.1834
3.1969
3.21179
3.23456
3.26348
3.32555
3.44524
3.68307
4.23668
6.04654
8.83546
15.5485
18.6518
19.2327
22.5613
23.0501
21.5721
20.6786
20.5526
3.0772
3.11924
3.13415
3.16661
3.19032
3.2066
3.21914
3.24031
3.26642
3.32548
3.44518
3.67243
4.15302
5.69414
8.03595
14.479
16.6717
17.383
20.3113
21.5598
20.5256
19.9339
19.9435
3.0923
3.13459
3.14554
3.17929
3.19846
3.21532
3.22655
3.24682
3.27003
3.32582
3.44538
3.65816
4.07214
5.37719
7.4261
13.8135
15.3297
16.0802
18.5038
20.2864
19.7368
19.5182
19.549
3.10632
3.14998
3.15804
3.19003
3.20585
3.22471
3.23445
3.25261
3.27339
3.32606
3.44493
3.64252
3.98998
5.11474
6.97041
13.4556
14.554
15.1799
17.1374
19.1247
19.0962
19.1028
19.2676
3.12259
3.1626
3.1699
3.20228
3.21457
3.23323
3.24135
3.25887
3.27736
3.32654
3.44391
3.62451
3.92572
4.89634
6.63498
13.258
14.0313
14.5813
16.1332
18.174
18.6364
18.8339
19.1421
3.13612
3.17758
3.18187
3.21326
3.22301
3.24227
3.24973
3.26478
3.28103
3.32705
3.44289
3.60412
3.8686
4.7288
6.38988
13.1621
13.809
14.2105
15.5359
17.3935
18.2623
18.6548
19.0625
3.15279
3.18873
3.19363
3.22379
3.2326
3.25032
3.2565
3.27031
3.28519
3.3277
3.4411
3.58559
3.82654
4.60481
6.22042
13.0958
13.7052
13.9552
15.2407
16.8372
17.9862
18.548
18.9771
3.16753
3.20447
3.20684
3.23625
3.24078
3.25937
3.26453
3.27779
3.28884
3.32859
3.43914
3.56912
3.79799
4.51203
6.10428
13.0445
13.6029
13.9288
15.1278
16.5104
17.729
18.4277
18.9723
3.18428
3.21169
3.21846
3.24414
3.24968
3.26413
3.27148
3.28132
3.29413
3.32929
3.43662
3.55758
3.77729
4.4529
6.02824
13.0391
13.5446
13.8954
15.1035
16.3645
17.4674
18.2691
18.9358
3.19065
3.21536
3.22507
3.24737
3.25562
3.26693
3.27711
3.28316
3.29548
3.33063
3.43392
3.5482
3.77381
4.42024
5.97779
13.021
13.5209
13.8598
15.0777
16.315
17.3257
18.1041
18.851
3.19382
3.22005
3.22903
3.24807
3.2599
3.26682
3.2775
3.28553
3.29688
3.33055
3.43132
3.54168
3.76807
4.39893
5.94705
13.0523
13.5008
13.8117
15.1044
16.3061
17.2527
17.9131
18.7529
3.19666
3.2253
3.22983
3.24883
3.25956
3.26727
3.27815
3.28626
3.29964
3.33082
3.42873
3.53843
3.76377
4.39182
5.93311
13
13.4834
13.8176
15.1603
16.3285
17.2426
17.8313
18.6187
3.19788
3.22429
3.23437
3.25011
3.25982
3.269
3.27898
3.28647
3.30064
3.33231
3.42607
3.53543
3.76451
4.38844
5.93708
13.0066
13.4597
13.792
15.2251
16.3989
17.2441
17.8146
18.4646
3.20276
3.22635
3.23358
3.25049
3.26204
3.27051
3.28022
3.28652
3.30105
3.33182
3.42362
3.53431
3.76472
4.38474
5.94378
12.9364
13.4177
13.7932
15.33
16.4602
17.2818
17.8287
18.4385
3.20077
3.22396
3.23437
3.25081
3.26073
3.27055
3.2812
3.2869
3.30264
3.33167
3.42065
3.53403
3.76471
4.38644
6.00567
12.9337
13.4215
13.9027
15.4842
16.6121
17.4458
17.9355
18.5187
3.20076
3.22428
3.23676
3.25274
3.26154
3.27105
3.27956
3.28678
3.30159
3.33171
3.41732
3.53266
3.76341
4.38553
6.0482
12.9413
13.451
14.1304
15.744
16.7915
17.6134
18.1597
18.8007
3.20094
3.22365
3.23461
3.25199
3.25945
3.27014
3.27936
3.28718
3.3022
3.33217
3.41352
3.53282
3.76485
4.38616
6.12522
12.9603
13.4904
14.425
16.0423
17.0725
17.8482
18.5034
19.0989
3.20241
3.22393
3.23467
3.25319
3.25903
3.27074
3.2791
3.28703
3.30178
3.33111
3.40993
3.53195
3.76444
4.39418
6.23232
12.9343
13.5404
14.7408
16.4202
17.3808
18.0921
18.8156
19.3828
3.19873
3.22681
3.2346
3.25071
3.26019
3.27084
3.27892
3.28694
3.30252
3.33105
3.40658
3.53244
3.76428
4.40246
6.33033
12.828
13.6217
15.0357
16.6581
17.6328
18.2913
18.9663
19.6997
3.19828
3.22374
3.23451
3.25301
3.2579
3.26846
3.2787
3.28668
3.30299
3.33062
3.40382
3.53218
3.76304
4.41549
6.49425
12.8711
13.7257
15.3035
16.7937
17.7807
18.3893
19.1362
19.8527
3.19906
3.22398
3.23658
3.25065
3.25768
3.26825
3.27884
3.28645
3.30102
3.33063
3.40155
3.53225
3.76366
4.41927
6.63625
12.9397
13.8928
15.4395
16.8283
17.873
18.5136
19.2777
19.9482
3.19455
3.22747
3.23615
3.2524
3.2583
3.26735
3.27862
3.28676
3.30053
3.33027
3.3998
3.53196
3.76617
4.43818
6.7819
13.0727
14.092
15.5172
16.8397
17.892
18.4838
19.3396
20.229
3.19381
3.22456
3.23635
3.25073
3.25548
3.26737
3.27877
3.28441
3.30043
3.33003
3.39834
3.53181
3.76801
4.4524
6.9407
13.1808
14.3987
15.5751
16.8431
17.8886
18.4794
19.3166
20.4061
3.19433
3.22707
3.23518
3.25114
3.25513
3.26664
3.27833
3.28399
3.29826
3.32988
3.39719
3.53153
3.77356
4.49535
7.07838
13.317
14.556
15.6588
16.8417
17.8334
18.3972
19.2567
20.4174
3.18922
3.22721
3.23461
3.25024
3.2539
3.26636
3.27714
3.28484
3.29967
3.32972
3.39632
3.53106
3.78114
4.52557
7.24984
13.4298
14.6106
15.6435
16.7427
17.7366
18.3293
19.2222
20.6436
3.18904
3.2261
3.23259
3.24806
3.2537
3.26793
3.27607
3.28447
3.29775
3.3293
3.39596
3.53338
3.78893
4.58001
7.48134
13.4862
14.5984
15.654
16.6213
17.5503
18.2348
19.1909
20.7704
3.1934
3.22345
3.23305
3.24494
3.25269
3.26667
3.27572
3.28372
3.29847
3.32854
3.39495
3.53464
3.79827
4.60914
7.82213
13.684
14.5639
15.4726
16.4283
17.4297
18.1675
19.3062
20.8837
3.18865
3.22105
3.22844
3.24297
3.25249
3.26466
3.27235
3.2824
3.29773
3.32778
3.3954
3.53962
3.81175
4.69842
8.17848
13.6411
14.508
15.2666
16.2557
17.2535
18.0324
19.3398
21.0719
3.18944
3.21673
3.22805
3.24188
3.25285
3.26267
3.27177
3.28047
3.2965
3.32733
3.39522
3.54381
3.82525
4.74528
8.70212
13.6351
14.2661
14.9838
16.056
17.1396
17.986
19.4353
21.2106
3.18614
3.21007
3.23041
3.23701
3.2543
3.26154
3.27172
3.27865
3.29397
3.32707
3.39575
3.55221
3.83962
4.86955
8.91346
13.5934
14.0839
14.8322
15.9593
17.0032
17.9372
19.337
21.1657
3.18223
3.2086
3.23038
3.23606
3.25297
3.25722
3.27223
3.27713
3.29054
3.32536
3.39612
3.5575
3.84226
4.89923
8.99235
13.2296
13.7541
14.6195
15.8103
16.8392
17.8472
19.3063
21.2333
3.17795
3.20976
3.22763
3.2361
3.25128
3.25633
3.26997
3.27604
3.2907
3.32574
3.39915
3.56238
3.85826
5.02887
9.1081
13.0184
13.6511
14.5954
15.8163
16.8657
17.9053
19.3819
21.4328
3.17781
3.20666
3.22276
3.23691
3.24836
3.25719
3.26571
3.27487
3.28972
3.32513
3.39803
3.56091
3.8481
4.99791
9.04059
12.429
13.4154
14.4201
15.6492
16.7394
17.8229
19.4731
21.0519
3.16969
3.20001
3.21875
3.23376
3.24359
3.25572
3.25948
3.272
3.2878
3.3228
3.3961
3.55749
3.82621
4.96516
8.73958
11.7876
13.1286
14.0687
15.3331
16.5185
17.6078
19.2586
20.7939
3.16786
3.19013
3.2152
3.22777
3.23662
3.25116
3.25744
3.26907
3.28126
3.31919
3.39275
3.55166
3.818
4.88847
8.21961
11.0213
12.5677
13.4553
14.6408
15.8771
16.985
18.373
19.6294
3.17086
3.18655
3.21035
3.21921
3.22709
3.24601
3.25831
3.26629
3.27779
3.31544
3.38818
3.54581
3.82062
4.79569
7.62752
10.2318
11.7806
12.6778
13.7912
14.9502
15.8524
16.9941
18.0309
3.16693
3.18701
3.20482
3.20758
3.22357
3.24008
3.2552
3.26118
3.27208
3.31055
3.38128
3.5342
3.80455
4.6932
7.04027
9.38528
10.9117
11.8091
12.795
13.8307
14.5441
15.4501
16.2842
3.16042
3.18177
3.19614
3.20342
3.22458
3.23075
3.25057
3.25572
3.27132
3.30517
3.37329
3.51805
3.78739
4.60334
6.51398
8.56734
10.0317
10.9079
11.8502
12.6875
13.2988
13.9426
14.5994
3.15137
3.17438
3.18839
3.20359
3.22057
3.22277
3.2433
3.24925
3.26591
3.29776
3.36308
3.49799
3.75117
4.52972
6.09879
7.82436
9.15923
10.0452
10.9046
11.6059
12.1093
12.5329
13.0401
3.14079
3.16542
3.17565
3.1957
3.21375
3.2184
3.23436
3.24192
3.25912
3.28989
3.35245
3.47736
3.72696
4.48024
5.77278
7.32598
8.39754
9.33301
10.1062
10.6796
11.0875
11.3629
11.748
3.12697
3.15242
3.16145
3.18517
3.20327
3.20908
3.22297
3.23181
3.24943
3.27954
3.33955
3.45475
3.6775
4.41764
5.5414
6.95494
7.90772
8.68694
9.38628
9.8711
10.2222
10.4404
10.7426
3.11139
3.13714
3.15197
3.16944
3.19106
3.19512
3.2107
3.22072
3.23889
3.26878
3.32665
3.43465
3.64258
4.37078
5.35612
6.77794
7.67733
8.26032
8.8184
9.25431
9.51033
9.70376
10.0003
3.09274
3.11865
3.13965
3.15104
3.17396
3.17794
3.19571
3.20664
3.22506
3.25464
3.31061
3.41256
3.60461
4.28737
5.20286
6.48715
7.35301
7.95173
8.39369
8.70473
8.97625
9.28518
9.74959
3.07326
3.09964
3.12096
3.13503
3.15513
3.16307
3.18062
3.19203
3.21063
3.24006
3.29475
3.39267
3.57246
4.24424
5.05148
6.38584
7.24445
7.79716
8.04918
8.30039
8.63312
8.96518
9.38108
3.05027
3.07744
3.09706
3.11638
3.13264
3.14546
3.16142
3.17345
3.19183
3.22087
3.27427
3.36913
3.54656
4.01996
4.83772
6.06659
6.99868
7.6469
7.89206
8.06287
8.28889
8.69277
9.44462
3.02631
3.05458
3.07328
3.0967
3.11058
3.12706
3.14147
3.1541
3.17221
3.2012
3.25415
3.34618
3.51816
4.0428
4.84365
6.15663
7.15117
7.51558
7.699
7.85602
8.29545
8.64554
9.51847
2.99718
3.0267
3.04554
3.07082
3.08402
3.10213
3.1155
3.12873
3.14645
3.17517
3.22713
3.31641
3.48544
3.93648
4.79169
6.26069
7.24354
7.54807
7.64274
7.84814
8.4022
8.68784
9.96268
2.96658
2.99753
3.01732
3.04308
3.057
3.07534
3.08868
3.10234
3.11978
3.14859
3.20029
3.287
3.43532
3.85746
4.83983
6.29169
7.33609
7.5423
7.68623
7.93783
8.20839
9.32015
10.448
2.92884
2.96096
2.98159
3.00724
3.02225
3.04003
3.05356
3.06751
3.08453
3.11298
3.16343
3.24582
3.39334
3.82527
4.76294
6.47324
7.46626
7.52954
7.68753
7.92581
8.43259
9.31608
10.534
2.88954
2.92283
2.94425
2.9697
2.98611
3.00334
3.01765
3.03198
3.04869
3.07689
3.12741
3.20414
3.32219
3.80069
4.64802
6.54603
7.5025
7.6365
7.80477
8.02828
8.35023
9.31956
10.7787
2.84104
2.87459
2.89681
2.92172
2.93921
2.95579
2.97019
2.98489
3.00096
3.02802
3.07728
3.14506
3.26951
3.56093
4.71519
6.7936
7.73459
7.75923
7.72111
8.06532
8.69819
9.68609
10.8775
2.79162
2.82553
2.84882
2.87299
2.89166
2.90787
2.92263
2.93812
2.9538
2.97981
3.02742
3.09393
3.15049
3.62889
4.38798
6.34447
7.37037
7.71546
7.78945
8.1738
9.25437
9.91262
10.913
2.73053
2.76355
2.78826
2.81102
2.83024
2.84569
2.85974
2.87559
2.89048
2.91421
2.95819
3.01985
3.10052
3.74694
4.36693
6.18747
7.29795
7.8793
7.80219
8.28225
8.91838
9.81267
11.735
2.67017
2.70314
2.72936
2.75082
2.77048
2.78566
2.79965
2.81602
2.83093
2.85225
2.89206
2.94617
3.09886
3.5375
4.58665
6.12779
7.27778
7.57929
7.86803
8.24975
8.67017
10.5258
11.0694
2.59481
2.62623
2.65368
2.67328
2.69228
2.70638
2.71941
2.73514
2.74931
2.7673
2.80138
2.84796
2.97793
3.56534
4.23662
5.95234
7.41573
7.62909
7.75811
7.77738
9.01031
9.69319
11.6061
2.52362
2.55526
2.5835
2.60209
2.62022
2.6342
2.64749
2.6629
2.67701
2.69237
2.72166
2.76202
2.85932
3.34683
4.19657
5.86535
7.2583
7.50698
7.57337
7.64056
8.09768
10.0495
11.5535
2.43242
2.46192
2.48974
2.50648
2.52242
2.5347
2.5472
2.56089
2.5738
2.58566
2.60901
2.64294
2.71109
3.03796
4.20337
5.70237
6.59049
7.1369
7.02562
7.13435
8.41018
9.85902
10.9316
2.35219
2.38213
2.40926
2.42559
2.43965
2.45175
2.46465
2.47763
2.49018
2.5004
2.51918
2.54926
2.59848
2.79505
3.73912
5.51724
6.36358
6.85978
6.7182
6.78012
8.05466
9.33937
10.1012
2.24326
2.27
2.29395
2.30797
2.31881
2.32837
2.3398
2.35044
2.36074
2.3685
2.38144
2.40622
2.43997
2.5456
3.15343
5.54491
6.31517
6.7456
6.36511
6.62499
7.5959
8.63186
8.96718
2.15916
2.18634
2.20803
2.22141
2.23041
2.23958
2.25076
2.26079
2.27021
2.27844
2.2875
2.3081
2.33515
2.39178
2.72881
4.63831
6.38994
6.35189
6.12455
6.32905
7.06629
7.84341
7.88132
2.03038
2.05242
2.06721
2.07608
2.08113
2.08699
2.09534
2.10245
2.10842
2.11461
2.1193
2.131
2.15348
2.18133
2.33659
3.48496
6.06336
6.53754
5.85239
5.83435
6.38975
6.90711
6.69844
1.94974
1.97161
1.98319
1.99339
1.99808
2.00348
2.01139
2.01817
2.02367
2.02958
2.03356
2.04251
2.06248
2.08715
2.16202
2.81665
5.26861
6.04973
5.34582
5.41535
6.0835
6.15966
5.78609
1.78593
1.79532
1.79533
1.79315
1.79071
1.78982
1.79128
1.79396
1.79502
1.798
1.79888
1.80067
1.81118
1.82686
1.85082
2.06975
3.54691
5.66969
5.58675
4.40805
5.00361
5.40664
4.99527
3.08425
2.76127
2.57134
2.46087
2.38511
2.33005
2.29849
2.26791
2.25405
2.23689
2.23034
2.22276
2.22458
2.23167
2.24778
2.27764
2.32698
2.40212
2.51888
2.60519
2.73552
2.81707
2.93757
3.09513
2.77531
2.5906
2.47361
2.39084
2.33952
2.30364
2.27355
2.25789
2.23963
2.23212
2.22374
2.22528
2.23205
2.24779
2.27723
2.32576
2.3993
2.51199
2.59513
2.72023
2.79337
2.90099
3.10763
2.79478
2.60338
2.48235
2.40814
2.34745
2.31169
2.27834
2.26075
2.24171
2.23376
2.22496
2.22629
2.2324
2.24709
2.27465
2.3209
2.39139
2.50079
2.5822
2.705
2.77724
2.88459
3.12249
2.80916
2.62315
2.50169
2.42031
2.35799
2.31843
2.28323
2.26371
2.24431
2.23616
2.22645
2.22744
2.23273
2.2464
2.27224
2.31755
2.38471
2.49162
2.57251
2.69448
2.76801
2.87526
3.13104
2.83233
2.64205
2.51555
2.43122
2.36279
2.32145
2.28557
2.26662
2.24774
2.23912
2.22797
2.22816
2.23264
2.24558
2.2685
2.31469
2.37693
2.48354
2.56131
2.68131
2.75055
2.85431
3.14716
2.84365
2.65642
2.5236
2.43631
2.36945
2.32882
2.29363
2.27242
2.25103
2.24087
2.22865
2.22841
2.23204
2.24501
2.2648
2.31489
2.37294
2.47548
2.55347
2.67514
2.74735
2.85596
3.15193
2.85364
2.66675
2.53238
2.44669
2.37864
2.33466
2.29684
2.27447
2.25268
2.24255
2.23051
2.22927
2.23223
2.24779
2.26706
2.32482
2.38001
2.47812
2.55541
2.67974
2.75386
2.86624
3.15312
2.8523
2.66592
2.53158
2.44321
2.37472
2.32971
2.29278
2.26944
2.24834
2.23778
2.22608
2.22495
2.22749
2.24275
2.26345
2.31383
2.37435
2.45876
2.56426
2.6629
2.76396
2.84844
2.91909
2.5843
2.43306
2.3416
2.28697
2.2532
2.23565
2.22132
2.20328
2.19456
2.19557
2.20836
2.25129
2.33016
2.45625
2.59934
2.82364
3.0801
3.4127
3.74617
4.17035
4.62353
5.05889
2.93207
2.59102
2.43582
2.34766
2.29266
2.25717
2.23771
2.22463
2.20718
2.19712
2.19309
2.19912
2.22138
2.27412
2.37737
2.50904
2.72174
2.96923
3.30079
3.62545
4.04202
4.46862
4.87218
2.93384
2.59718
2.44072
2.3529
2.29779
2.26178
2.24173
2.22995
2.21127
2.20056
2.19518
2.19972
2.21654
2.25225
2.33112
2.44707
2.6396
2.86695
3.19735
3.51261
3.89159
4.30378
4.66752
2.9471
2.60601
2.44518
2.35819
2.30209
2.26466
2.2437
2.23209
2.21543
2.20365
2.19649
2.19995
2.21026
2.23262
2.2867
2.38546
2.55749
2.76828
3.09059
3.38266
3.72991
4.11387
4.45242
2.9503
2.61341
2.45255
2.36521
2.3087
2.27004
2.24758
2.2361
2.22094
2.20906
2.2004
2.20248
2.21139
2.2314
2.27029
2.34789
2.49281
2.6831
2.98875
3.25257
3.55681
3.9365
4.26496
2.9647
2.62438
2.45862
2.36963
2.31294
2.27422
2.24955
2.23854
2.22376
2.21405
2.20467
2.20577
2.21281
2.22983
2.26118
2.32242
2.44349
2.61303
2.89128
3.12381
3.40939
3.77535
4.06725
2.9692
2.6334
2.46796
2.37721
2.31927
2.27852
2.25383
2.24092
2.22736
2.21796
2.2088
2.2092
2.21427
2.22996
2.25844
2.31004
2.40436
2.55492
2.80062
3.00303
3.26515
3.60245
3.86168
2.98537
2.646
2.47665
2.38358
2.32489
2.28434
2.25703
2.24387
2.22954
2.22103
2.21307
2.21275
2.21703
2.23068
2.25686
2.30464
2.38707
2.51566
2.72268
2.90505
3.15436
3.4513
3.69757
2.99101
2.65614
2.48644
2.39052
2.32998
2.28859
2.2607
2.24659
2.23263
2.22306
2.21638
2.21553
2.21979
2.23123
2.25571
2.29831
2.36893
2.48102
2.66329
2.82049
3.04147
3.30938
3.49262
3.00918
2.67172
2.49795
2.4
2.33752
2.29443
2.26533
2.24934
2.23616
2.2246
2.21983
2.21768
2.22148
2.23227
2.25502
2.29561
2.36174
2.46247
2.61974
2.7511
2.96944
3.15378
3.33895
3.01565
2.68126
2.50814
2.40655
2.34164
2.30024
2.26877
2.25272
2.23888
2.22658
2.2224
2.21912
2.2226
2.23274
2.25434
2.29091
2.35039
2.44217
2.58492
2.70558
2.8877
3.0439
3.21393
3.03536
2.70122
2.52139
2.41898
2.35055
2.30542
2.27497
2.25494
2.24312
2.22843
2.22424
2.21992
2.22314
2.23269
2.25253
2.28825
2.34596
2.43273
2.56723
2.66972
2.83773
2.94135
3.11966
3.04244
2.71052
2.53309
2.42542
2.35499
2.31297
2.27888
2.25861
2.24551
2.23084
2.22605
2.22087
2.22365
2.23266
2.25172
2.28559
2.34068
2.42378
2.54961
2.64676
2.79161
2.89618
3.06248
3.06121
2.7317
2.54585
2.43976
2.36603
2.31731
2.2861
2.26076
2.24889
2.23279
2.22726
2.22137
2.22398
2.23245
2.25085
2.28406
2.33777
2.41859
2.54283
2.63393
2.77577
2.86501
2.99431
3.07023
2.74468
2.56135
2.44756
2.37147
2.32562
2.29049
2.26507
2.25127
2.23544
2.22901
2.22224
2.22429
2.23209
2.2494
2.2811
2.33319
2.4118
2.53062
2.62005
2.7547
2.83903
2.96894
2.83938
2.79105
2.86461
2.95177
3.04169
3.06589
3.12073
3.13728
3.15777
3.18022
3.20092
3.23483
3.28319
3.34198
3.43904
3.58742
3.7892
4.07452
4.3772
4.73451
5.08733
5.46209
5.81953
2.82332
2.75372
2.81966
2.91811
3.01037
3.03865
3.10036
3.13579
3.15843
3.17471
3.1966
3.23118
3.28016
3.34133
3.43777
3.5772
3.77945
4.067
4.37741
4.74247
5.11824
5.51655
5.84849
2.80981
2.70839
2.77392
2.88077
2.9793
3.00631
3.08281
3.11715
3.15279
3.1714
3.19452
3.228
3.27757
3.34248
3.43498
3.57207
3.77189
4.06422
4.37945
4.76519
5.157
5.55449
5.91364
2.80803
2.66745
2.72298
2.8455
2.94455
2.97713
3.0571
3.10009
3.14159
3.16782
3.19366
3.22354
3.27381
3.33798
3.42977
3.56482
3.76373
4.05595
4.38081
4.77295
5.17432
5.59009
5.95785
2.8058
2.62859
2.67732
2.79734
2.90677
2.9383
3.03229
3.07594
3.13047
3.1512
3.18477
3.21944
3.26964
3.33387
3.42533
3.55737
3.75429
4.04389
4.36787
4.77456
5.18892
5.62491
6.00885
2.81146
2.59016
2.62083
2.7516
2.86198
2.89994
3.00219
3.04839
3.1162
3.13517
3.17133
3.2092
3.26371
3.32874
3.41905
3.55123
3.74606
4.02921
4.36402
4.75876
5.18217
5.64301
6.04301
2.8169
2.5587
2.57795
2.69987
2.81743
2.85136
2.96617
3.01644
3.0958
3.11588
3.15536
3.19526
3.25615
3.32144
3.41295
3.54284
3.73668
4.01236
4.35285
4.74529
5.16318
5.65058
6.05923
2.82391
2.53096
2.52503
2.64273
2.75974
2.80232
2.92753
2.97769
3.06689
3.09073
3.13752
3.18066
3.24535
3.31279
3.40355
3.53455
3.72794
3.9966
4.33808
4.72867
5.15056
5.64619
6.05947
2.83425
2.514
2.48466
2.58786
2.70678
2.74262
2.87898
2.9338
3.03541
3.06195
3.11268
3.15808
3.23161
3.30072
3.39361
3.5237
3.71706
3.97733
4.31922
4.70373
5.12977
5.62901
6.04253
2.84292
2.50515
2.44369
2.53067
2.64184
2.68254
2.8266
2.88312
2.99802
3.02662
3.0858
3.13348
3.21291
3.28601
3.38034
3.51098
3.70508
3.96077
4.29737
4.67703
5.10664
5.61252
6.02515
2.85294
2.50673
2.41162
2.47851
2.58061
2.61495
2.76483
2.8264
2.95351
2.98782
3.05072
3.10132
3.18987
3.26683
3.36397
3.49594
3.69046
3.94196
4.27443
4.64861
5.08605
5.58658
6.00547
2.86019
2.50783
2.38754
2.43044
2.51751
2.5486
2.69743
2.76339
2.90271
2.94025