/*--------------------------------*- C++ -*----------------------------------*\
  =========                 |
  \\      /  F ield         | OpenFOAM: The Open Source CFD Toolbox
   \\    /   O peration     | Website:  https://openfoam.org
    \\  /    A nd           | Version:  7
     \\/     M anipulation  |
\*---------------------------------------------------------------------------*/
FoamFile
{
    version     2.0;
    format      ascii;
    class       volScalarField;
    location    "50";
    object      p;
}
// * * * * * * * * * * * * * * * * * * * * * * * * * * * * * * * * * * * * * //

dimensions      [0 2 -2 0 0 0 0];

internalField   nonuniform List<scalar> 
12842
(
0.771318
0.82907
0.900661
1.00146
1.11281
1.21359
1.29799
1.3739
1.45959
1.58277
1.77933
2.08853
2.54578
3.17499
3.9823
4.95132
6.04554
7.21384
8.39779
9.54059
10.5952
11.5305
12.3316
0.774022
0.842444
0.903614
0.99512
1.08049
1.12685
1.12349
1.07449
0.996463
0.919827
0.88779
0.950154
1.15397
1.5341
2.10592
2.86066
3.76837
4.78356
5.85176
6.9171
7.93127
8.85484
9.67137
0.785072
0.849579
0.901241
0.985827
1.04534
1.03792
0.949386
0.780511
0.54732
0.284426
0.0437951
-0.114258
-0.132979
0.0292286
0.391177
0.945728
1.66501
2.5073
3.42373
4.3634
5.28293
6.13946
6.92134
0.801236
0.847473
0.892726
0.974153
1.00901
0.950179
0.780339
0.496984
0.116489
-0.320803
-0.752842
-1.10914
-1.32559
-1.35819
-1.19015
-0.831846
-0.311865
0.332268
1.06083
1.83284
2.61535
3.36477
4.07723
0.81635
0.837578
0.879443
0.962138
0.973834
0.866912
0.62028
0.227786
-0.292974
-0.894789
-1.50443
-2.04232
-2.43944
-2.65365
-2.67446
-2.51868
-2.21603
-1.79739
-1.28861
-0.71634
-0.0999318
0.515978
1.13611
0.826916
0.822282
0.863172
0.952577
0.942849
0.792998
0.476072
-0.0179532
-0.669521
-1.42404
-2.19654
-2.90047
-3.46457
-3.85233
-4.06265
-4.12023
-4.05457
-3.88657
-3.62381
-3.27617
-2.84831
-2.38802
-1.8815
0.831826
0.803105
0.845739
0.948054
0.918846
0.733667
0.355387
-0.22962
-0.999172
-1.89159
-2.80994
-3.66389
-4.3824
-4.93804
-5.34069
-5.623
-5.81215
-5.91619
-5.92158
-5.82132
-5.60505
-5.32563
-4.95653
0.832263
0.780917
0.828541
0.948516
0.901357
0.690208
0.261321
-0.401394
-1.27313
-2.28683
-3.33395
-4.32433
-5.18831
-5.90933
-6.50743
-7.02204
-7.47606
-7.86417
-8.15135
-8.31652
-8.33287
-8.26101
-8.05316
0.825946
0.755879
0.815251
0.956624
0.895713
0.671081
0.206391
-0.514056
-1.46167
-2.56602
-3.70704
-4.79962
-5.77632
-6.63266
-7.39661
-8.11283
-8.79885
-9.43837
-9.97771
-10.3882
-10.623
-10.7605
-10.7032
0.821862
0.728959
0.809215
0.969616
0.896215
0.662868
0.168347
-0.599814
-1.60793
-2.78313
-3.99429
-5.16353
-6.22598
-7.1888
-8.08604
-8.96646
-9.84304
-10.6915
-11.4449
-12.07
-12.5048
-12.8349
-12.9426
0.815285
0.701821
0.809819
0.982466
0.895882
0.65348
0.127847
-0.688526
-1.75602
-3.00076
-4.28006
-5.5252
-6.67306
-7.7418
-8.76964
-9.80871
-10.8686
-11.9204
-12.8877
-13.7358
-14.3889
-14.9355
-15.2415
0.80531
0.675472
0.816457
0.993619
0.894892
0.6427
0.0852015
-0.779376
-1.90477
-3.21778
-4.56375
-5.88451
-7.11755
-8.29098
-9.44531
-10.636
-11.8708
-13.1206
-14.3027
-15.3833
-16.2725
-17.0578
-17.5862
0.792002
0.65096
0.827532
1.00288
0.895025
0.632924
0.0445008
-0.86678
-2.04726
-3.42618
-4.83646
-6.23148
-7.54807
-8.82341
-10.0992
-11.4348
-12.8387
-14.2849
-15.6871
-17.013
-18.1566
-19.2008
-19.9735
0.775732
0.629821
0.841248
1.01049
0.897472
0.62577
0.0087061
-0.946703
-2.17865
-3.62069
-5.09305
-6.56116
-7.96007
-9.33492
-10.7278
-12.2029
-13.7717
-15.4148
-17.0434
-18.626
-20.0384
-21.356
-22.3902
0.757449
0.613498
0.855964
1.0172
0.902885
0.622086
-0.0205626
-1.01708
-2.29677
-3.79946
-5.33273
-6.87435
-8.35645
-9.83072
-11.3388
-12.95
-14.6806
-16.52
-18.3779
-20.2229
-21.9114
-23.5082
-24.8129
0.737849
0.602771
0.870351
1.02368
0.911217
0.621955
-0.0429685
-1.07762
-2.40173
-3.96336
-5.55789
-7.17532
-8.74391
-10.32
-11.9434
-13.6882
-15.577
-17.6088
-19.6929
-21.7973
-23.7594
-25.6295
-27.202
0.717677
0.597482
0.883302
1.03039
0.921911
0.624948
-0.0590023
-1.12904
-2.49478
-4.11422
-5.77128
-7.46761
-9.12689
-10.8077
-12.5472
-14.4229
-16.4645
-18.6811
-20.9817
-23.3322
-25.5539
-27.6805
-29.5053
0.697493
0.596925
0.894227
1.03751
0.934197
0.630458
-0.069494
-1.17239
-2.57728
-4.2535
-5.97435
-7.75209
-9.50552
-11.2931
-13.1484
-15.1509
-17.3374
-19.7254
-22.2241
-24.7962
-27.2502
-29.6027
-31.6521
0.67796
0.600009
0.902843
1.04503
0.947352
0.637945
-0.0752337
-1.20854
-2.65025
-4.3818
-6.16699
-8.02708
-9.87636
-11.7704
-13.7391
-15.8612
-18.1794
-20.7163
-23.3823
-26.1361
-28.7795
-31.3099
-33.544
0.659785
0.605557
0.909285
1.05289
0.960905
0.647099
-0.0768483
-1.23832
-2.71475
-4.49994
-6.34932
-8.29103
-10.2358
-12.2333
-14.309
-16.5374
-18.9651
-21.6171
-24.4055
-27.2839
-30.0551
-32.6936
-35.0458
0.64386
0.612241
0.913595
1.06057
0.974119
0.657239
-0.0752281
-1.26254
-2.77162
-4.60834
-6.52111
-8.54223
-10.5802
-12.6751
-14.8472
-17.1619
-19.6689
-22.3935
-25.2488
-28.1824
-31.005
-33.6685
-36.0523
0.630247
0.619362
0.916554
1.06856
0.987812
0.669114
-0.0701523
-1.28177
-2.82211
-4.70848
-6.68361
-8.78067
-10.9082
-13.0921
-15.3474
-17.7248
-20.2764
-23.0252
-25.8841
-28.795
-31.5822
-34.1815
-36.499
0.619679
0.625695
0.917516
1.07521
1.00015
0.681125
-0.0627129
-1.29607
-2.86599
-4.79996
-6.83685
-9.00678
-11.2209
-13.4859
-15.8118
-18.2277
-20.7853
-23.5043
-26.2956
-29.0994
-31.7598
-34.2003
-36.3576
0.609279
0.631866
0.919986
1.08538
1.01575
0.695634
-0.0540503
-1.30915
-2.90702
-4.88114
-6.97178
-9.20108
-11.4911
-13.8253
-16.2111
-18.6473
-21.1791
-23.8219
-26.4816
-29.1011
-31.5473
-33.7456
-35.6595
0.60619
0.639808
0.925452
1.09716
1.03009
0.706035
-0.0526229
-1.32954
-2.95436
-4.96208
-7.09981
-9.37741
-11.7347
-14.1278
-16.5631
-19.0002
-21.4684
-23.9794
-26.4356
-28.7834
-30.9281
-32.8154
-34.419
0.608821
0.649104
0.932306
1.10793
1.03971
0.706815
-0.0674093
-1.37233
-3.03098
-5.07571
-7.26373
-9.58793
-12.0099
-14.4541
-16.9259
-19.3386
-21.6966
-24.0147
-26.1964
-28.1928
-29.9761
-31.5211
-32.7864
0.615083
0.657665
0.937594
1.11389
1.04059
0.694621
-0.099749
-1.43546
-3.13074
-5.21183
-7.44957
-9.81635
-12.2992
-14.7878
-17.2867
-19.6582
-21.8728
-23.953
-25.8087
-27.4105
-28.8151
-30.018
-30.9484
0.620716
0.66371
0.939548
1.11412
1.03319
0.672019
-0.143951
-1.50959
-3.23996
-5.35293
-7.63631
-10.0396
-12.579
-15.1067
-17.6272
-19.9491
-22.0003
-23.8103
-25.3098
-26.5122
-27.5381
-28.3936
-28.994
0.623674
0.666783
0.938068
1.10966
1.02
0.643424
-0.193153
-1.5854
-3.34682
-5.48564
-7.80951
-10.2434
-12.8363
-15.4005
-17.94
-20.2104
-22.0883
-23.605
-24.7349
-25.541
-26.1727
-26.6714
-26.9673
0.624288
0.667706
0.934358
1.10248
1.004
0.613104
-0.241743
-1.65626
-3.44406
-5.60296
-7.96308
-10.4236
-13.0692
-15.6701
-18.2295
-20.4522
-22.1576
-23.3702
-24.1293
-24.5337
-24.7603
-24.9155
-24.9275
0.623576
0.667497
0.929797
1.09454
0.987808
0.584311
-0.286032
-1.71856
-3.52849
-5.70286
-8.09648
-10.5814
-13.2808
-15.9207
-18.5041
-20.6895
-22.2373
-23.1565
-23.5572
-23.5634
-23.4154
-23.2637
-22.9925
0.622351
0.666955
0.925423
1.0871
0.972949
0.558645
-0.324668
-1.77173
-3.60072
-5.78755
-8.21348
-10.7218
-13.4769
-16.16
-18.7746
-20.9409
-22.3646
-23.0277
-23.1022
-22.7433
-22.268
-21.8399
-21.2843
0.621023
0.666444
0.921696
1.0807
0.959923
0.536303
-0.358127
-1.81739
-3.66373
-5.8615
-8.31964
-10.851
-13.6629
-16.3934
-19.0492
-21.2224
-22.5748
-23.0437
-22.8485
-22.1788
-21.4091
-20.6972
-19.8221
0.619775
0.666156
0.918752
1.07531
0.94849
0.516565
-0.387924
-1.85823
-3.7215
-5.92989
-8.42073
-10.9745
-13.8431
-16.625
-19.3348
-21.5472
-22.8968
-23.2513
-22.8606
-21.9469
-20.8923
-19.8576
-18.6601
0.618606
0.666079
0.916461
1.0707
0.938179
0.498486
-0.415693
-1.89677
-3.77742
-5.99674
-8.52071
-11.0955
-14.0187
-16.8552
-19.6336
-21.9207
-23.3459
-23.6865
-23.1972
-22.1401
-20.8766
-19.5473
-18.06
0.6175
0.66622
0.914671
1.06653
0.928453
0.481178
-0.442778
-1.93491
-3.83384
-6.06463
-8.62177
-11.2155
-14.1895
-17.083
-19.946
-22.3442
-23.9297
-24.3894
-23.922
-22.8546
-21.565
-20.0787
-18.3494
0.616385
0.666498
0.913168
1.06257
0.918953
0.464075
-0.469976
-1.97366
-3.89179
-6.13439
-8.72402
-11.3341
-14.3529
-17.3054
-20.2688
-22.8138
-24.6487
-25.3842
-25.0747
-24.1645
-23.1112
-21.7179
-19.8673
0.615255
0.666907
0.911834
1.05861
0.909428
0.446847
-0.497655
-2.01336
-3.95141
-6.2058
-8.82655
-11.45
-14.5064
-17.5194
-20.5973
-23.3252
-25.4944
-26.6696
-26.7235
-26.2356
-25.6657
-24.722
-23.1566
0.614087
0.667385
0.910543
1.0546
0.899813
0.429434
-0.525805
-2.0538
-4.01213
-6.27786
-8.92757
-11.5614
-14.6467
-17.7209
-20.9234
-23.8701
-26.4447
-28.2237
-28.9216
-29.169
-29.2602
-28.8616
-28.0069
0.612937
0.667949
0.909271
1.0505
0.890087
0.411864
-0.55427
-2.09462
-4.0732
-6.3494
-9.02531
-11.6668
-14.7705
-17.9069
-21.2373
-24.4382
-27.4678
-30.0115
-31.653
-32.9143
-34.0645
-34.603
-34.41
0.61182
0.668557
0.907974
1.04636
0.880322
0.394267
-0.582793
-2.13531
-4.13378
-6.41929
-9.11799
-11.7648
-14.8747
-18.074
-21.5257
-25.0131
-28.5248
-31.9686
-34.8169
-37.2854
-39.63
-41.5939
-42.5211
0.610817
0.669237
0.906684
1.04218
0.870551
0.37673
-0.611176
-2.17552
-4.1932
-6.48671
-9.20432
-11.855
-14.9565
-18.22
-21.7736
-25.5743
-29.5663
-33.9768
-38.2448
-42.3394
-46.11
-49.2378
-51.3263
0.609944
0.66995
0.905388
1.03804
0.860842
0.359354
-0.639247
-2.21493
-4.25097
-6.55108
-9.28326
-11.937
-15.0128
-18.3433
-21.9637
-26.0931
-30.5307
-35.9198
-41.6536
-47.478
-53.0053
-57.4508
-60.3147
0.609271
0.670727
0.90413
1.03392
0.851193
0.342154
-0.66694
-2.25343
-4.3068
-6.61223
-9.35421
-12.0114
-15.0409
-18.4432
-22.078
-26.5361
-31.3564
-37.669
-44.7925
-52.08
-58.9672
-64.6871
-68.5742
0.608784
0.671521
0.902894
1.02986
0.841627
0.32515
-0.694224
-2.29094
-4.36058
-6.67019
-9.41679
-12.079
-15.0379
-18.5202
-22.0987
-26.8653
-31.9754
-39.0328
-47.4136
-56.2352
-64.3195
-71.1219
-75.9613
0.60854
0.672367
0.901717
1.02583
0.832099
0.308292
-0.72114
-2.32752
-4.41232
-6.7252
-9.47083
-12.141
-15.001
-18.5757
-22.0134
-27.0369
-32.3029
-39.9098
-49.4914
-59.9109
-69.6362
-77.2136
-82.5597
0.608436
0.673191
0.900556
1.02184
0.822595
0.291532
-0.747779
-2.36333
-4.46222
-6.77783
-9.51647
-12.1993
-14.9274
-18.6128
-21.8129
-26.9809
-32.3248
-40.4995
-51.0379
-62.4244
-73.5154
-81.9374
-87.339
0.608565
0.674054
0.899461
1.01784
0.813043
0.274761
-0.774306
-2.39867
-4.51069
-6.82894
-9.55418
-12.2565
-14.8152
-18.6352
-21.4937
-26.655
-32.2
-40.5507
-50.8627
-62.5674
-74.3528
-83.5888
-89.3706
0.60785
0.674514
0.898246
1.01386
0.803584
0.258099
-0.800818
-2.43413
-4.55897
-6.88127
-9.58737
-12.3196
-14.6742
-18.6538
-21.0761
-26.0692
-32.1489
-39.9067
-49.154
-60.7051
-72.6884
-82.6484
-89.1325
0.608285
0.6755
0.897745
1.01061
0.794734
0.241675
-0.828027
-2.47204
-4.61157
-6.94321
-9.62839
-12.4078
-14.5421
-18.6916
-20.6514
-25.4998
-32.2529
-38.7011
-47.0981
-58.3971
-70.3228
-80.5808
-87.5166
0.610073
0.677138
0.898474
1.00859
0.786913
0.225347
-0.857305
-2.51592
-4.67488
-7.02508
-9.6932
-12.5401
-14.467
-18.7707
-20.4095
-25.1171
-31.9703
-37.0469
-44.9228
-56.0312
-67.8273
-77.8584
-84.7346
0.613213
0.679341
0.900381
1.00748
0.779432
0.207702
-0.891165
-2.5699
-4.75479
-7.13469
-9.79327
-12.7275
-14.4833
-18.9116
-20.5112
-24.9251
-31.0081
-35.1074
-42.8435
-53.6351
-65.1204
-74.7538
-81.3678
0.617081
0.681566
0.902778
1.00644
0.771085
0.187024
-0.931874
-2.63675
-4.85415
-7.27426
-9.93177
-12.9675
-14.6065
-19.1245
-20.9554
-24.8008
-29.6538
-33.3415
-41.1668
-51.6098
-62.6264
-72.0363
-78.4701
0.621318
0.683515
0.905156
1.00471
0.760856
0.16201
-0.980887
-2.71778
-4.97345
-7.44205
-10.1055
-13.2484
-14.8307
-19.4012
-21.6343
-24.7102
-28.3737
-32.2483
-40.1312
-50.3098
-60.8128
-70.2782
-76.7116
0.625869
0.685149
0.90729
1.00207
0.748585
0.132839
-1.03711
-2.81008
-5.10692
-7.62718
-10.2994
-13.542
-15.1195
-19.7006
-22.3825
-24.7451
-27.4986
-32.0222
-39.8243
-49.8258
-59.9033
-69.5559
-76.1184
0.630582
0.686418
0.909007
0.998278
0.734049
0.0994254
-1.10021
-2.91242
-5.25163
-7.82314
-10.5026
-13.8267
-15.4357
-19.9844
-23.0974
-25.0371
-27.1315
-32.5674
-40.2037
-50.0509
-59.8182
-69.5888
-76.299
0.635974
0.687859
0.910893
0.994182
0.718365
0.0634311
-1.16762
-3.02066
-5.4016
-8.02065
-10.7024
-14.0839
-15.745
-20.2138
-23.6466
-25.478
-27.1184
-33.4795
-40.9151
-50.5078
-59.8758
-69.4387
-76.0418
0.641281
0.688965
0.912392
0.989097
0.701163
0.0252081
-1.23729
-3.12985
-5.54764
-8.20406
-10.8755
-14.279
-15.9927
-20.3528
-24.0409
-26.1099
-27.5878
-34.6012
-41.7276
-51.083
-59.9618
-69.0481
-75.3071
0.646248
0.689515
0.912888
0.982504
0.681856
-0.0155525
-1.30893
-3.23861
-5.6872
-8.36951
-11.0184
-14.4086
-16.1606
-20.3707
-24.1793
-26.7309
-28.3199
-35.6778
-42.3457
-51.4444
-59.6282
-67.9564
-73.5751
0.65075
0.689508
0.912327
0.97449
0.660831
-0.0579626
-1.38109
-3.34497
-5.81856
-8.51628
-11.1327
-14.48
-16.2433
-20.255
-24.0127
-27.1589
-28.9825
-36.4945
-42.6023
-51.161
-58.3527
-65.5868
-70.2311
0.655022
0.689321
0.911349
0.966055
0.639534
-0.0999748
-1.45105
-3.44557
-5.93835
-8.64187
-11.2176
-14.4973
-16.2391
-20.0117
-23.5278
-27.3213
-29.4733
-36.8864
-42.3871
-50.0434
-56.086
-61.96
-65.3355
0.6593
0.689283
0.910487
0.957882
0.61893
-0.140296
-1.51724
-3.53881
-6.04572
-8.74722
-11.2766
-14.4715
-16.1625
-19.6718
-22.7818
-27.2553
-29.7696
-36.7192
-41.6431
-48.1533
-53.0332
-57.4953
-59.47
0.663558
0.68941
0.909842
0.950195
0.599295
-0.178658
-1.57962
-3.62529
-6.14288
-8.83764
-11.3196
-14.4224
-16.0439
-19.2894
-21.9498
-27.0683
-29.8205
-36.0265
-40.3656
-45.6962
-49.4313
-52.5896
-53.3241
0.667792
0.689692
0.909406
0.9429
0.580469
-0.215403
-1.63897
-3.70675
-6.23342
-8.92012
-11.3584
-14.3724
-15.92
-18.9293
-21.207
-26.7871
-29.6018
-34.9379
-38.6523
-42.8735
-45.5553
-47.6051
-47.4835
0.671928
0.690034
0.909069
0.935893
0.562237
-0.250963
-1.69619
-3.78496
-6.32073
-9.00088
-11.4029
-14.3403
-15.8231
-18.6466
-20.6428
-26.4088
-29.1479
-33.5831
-36.6708
-39.9484
-41.715
-42.746
-42.1523
0.675991
0.690434
0.908794
0.929021
0.544357
-0.285755
-1.75204
-3.86128
-6.40719
-9.08404
-11.4594
-14.3377
-15.7743
-18.4744
-20.3029
-25.9814
-28.4862
-32.0327
-34.5753
-37.1143
-38.0769
-38.2608
-37.4427
0.679931
0.690824
0.908489
0.922218
0.526695
-0.320028
-1.80698
-3.93655
-6.49408
-9.17155
-11.5301
-14.3685
-15.7822
-18.4223
-20.1773
-25.5029
-27.6497
-30.4087
-32.4631
-34.3872
-34.6678
-34.3514
-33.4325
0.683787
0.691224
0.908153
0.915393
0.509129
-0.35396
-1.86129
-4.01113
-6.58173
-9.26357
-11.6138
-14.4301
-15.8434
-18.477
-20.214
-24.9568
-26.7348
-28.9603
-30.4066
-31.7578
-31.5751
-31.0204
-30.0187
0.687511
0.691584
0.907726
0.908543
0.491637
-0.387591
-1.91502
-4.08506
-6.66988
-9.35908
-11.7074
-14.5157
-15.9468
-18.6089
-20.3479
-24.3573
-25.8072
-27.7457
-28.5157
-29.2951
-28.8508
-28.1363
-27.029
0.69115
0.691941
0.907232
0.901622
0.474179
-0.420957
-1.96818
-4.15821
-6.75792
-9.45642
-11.8065
-14.616
-16.0757
-18.7794
-20.523
-23.7558
-24.8698
-26.6686
-26.8587
-27.0532
-26.4553
-25.5758
-24.3396
0.694652
0.692248
0.906627
0.894659
0.456779
-0.454017
-2.02069
-4.23035
-6.84511
-9.55377
-11.9067
-14.7214
-16.2123
-18.9491
-20.6901
-23.1633
-23.9287
-25.6126
-25.3429
-25.0317
-24.2881
-23.2512
-21.9034
0.698071
0.692546
0.905944
0.887618
0.439415
-0.486779
-2.07249
-4.30125
-6.93074
-9.64934
-12.0038
-14.8225
-16.3394
-19.0806
-20.8054
-22.5886
-23.027
-24.515
-23.872
-23.175
-22.2414
-21.0642
-19.6438
0.701355
0.69279
0.905141
0.880529
0.422114
-0.519204
-2.12349
-4.3707
-7.01414
-9.7416
-12.0944
-14.9117
-16.4425
-19.1449
-20.802
-22.0864
-22.275
-23.3916
-22.4485
-21.4117
-20.2497
-18.9328
-17.4281
0.704557
0.693018
0.904251
0.873351
0.404843
-0.55131
-2.17367
-4.4385
-7.09474
-9.82922
-12.1756
-14.9827
-16.5108
-19.1271
-20.6342
-21.6066
-21.6594
-22.2646
-21.0893
-19.7143
-18.3027
-16.7933
-15.149
0.707621
0.693186
0.903227
0.866109
0.387619
-0.583074
-2.22295
-4.50448
-7.17207
-9.9112
-12.2456
-15.0313
-16.5374
-19.0245
-20.3175
-21.0006
-21.0292
-21.1001
-19.753
-18.097
-16.4195
-14.6756
-12.8678
0.710604
0.693331
0.902101
0.858755
0.370401
-0.614522
-2.27131
-4.56849
-7.24571
-9.98668
-12.3028
-15.0546
-16.519
-18.8399
-19.9079
-20.2484
-20.2857
-19.8989
-18.3786
-16.5344
-14.6088
-12.6614
-10.7313
0.713442
0.693407
0.900823
0.851311
0.353202
-0.645629
-2.31868
-4.63036
-7.31529
-10.0551
-12.3466
-15.0515
-16.4562
-18.5805
-19.463
-19.4295
-19.442
-18.7282
-16.9803
-15.0003
-12.8577
-10.7508
-8.76567
0.716192
0.693453
0.899421
0.843725
0.335981
-0.676419
-2.36502
-4.68993
-7.38049
-10.1159
-12.3766
-15.022
-16.3518
-18.2557
-19.0191
-18.6198
-18.534
-17.5541
-15.6225
-13.4803
-11.152
-8.93955
-6.96695
0.718783
0.693419
0.897843
0.836021
0.318755
-0.706853
-2.41025
-4.74703
-7.44101
-10.1687
-12.393
-14.9672
-16.2115
-17.8756
-18.5905
-17.8595
-17.6051
-16.3629
-14.2995
-11.9895
-9.54364
-7.31031
-5.409
0.721275
0.693345
0.896119
0.828146
0.301488
-0.736942
-2.4543
-4.8015
-7.49659
-10.2134
-12.396
-14.8884
-16.0418
-17.449
-18.1717
-17.1589
-16.6936
-15.1972
-13.0091
-10.5918
-8.12593
-5.94686
-4.14469
0.723591
0.693182
0.894196
0.820128
0.284205
-0.766634
-2.49707
-4.85316
-7.547
-10.2497
-12.3862
-14.788
-15.8504
-16.9841
-17.7472
-16.5183
-15.7982
-14.0743
-11.7816
-9.32334
-6.90404
-4.8111
-3.1134
0.725794
0.692968
0.892105
0.811916
0.266876
-0.79593
-2.53851
-4.90185
-7.59201
-10.2776
-12.3644
-14.668
-15.6446
-16.4884
-17.3057
-15.9164
-14.892
-12.9983
-10.6353
-8.17514
-5.83596
-3.85773
-2.26149
0.727799
0.692653
0.889792
0.803542
0.249532
-0.82477
-2.57849
-4.94741
-7.63144
-10.2969
-12.3312
-14.5307
-15.4318
-15.9711
-16.8484
-15.3272
-13.9915
-11.9739
-9.57551
-7.1594
-4.93214
-3.09961
-1.59572
0.729677
0.692278
0.887288
0.794956
0.232146
-0.853149
-2.61695
-4.98969
-7.66513
-10.3076
-12.2875
-14.3779
-15.2181
-15.4424
-16.3713
-14.7543
-13.1568
-11.0349
-8.63497
-6.29595
-4.22147
-2.54447
-1.13192
0.731336
0.691789
0.884542
0.786191
0.214754
-0.881001
-2.65379
-5.02853
-7.69293
-10.3097
-12.234
-14.2115
-15.0089
-14.9157
-15.8536
-14.2204
-12.4172
-10.2244
-7.85111
-5.60011
-3.66436
-2.12379
-0.82675
0.732853
0.691228
0.881584
0.777197
0.197328
-0.908322
-2.68892
-5.0638
-7.71467
-10.3032
-12.1715
-14.0324
-14.8073
-14.4056
-15.2728
-13.6897
-11.7612
-9.50852
-7.18071
-5.03499
-3.23624
-1.7993
-0.625918
0.734128
0.690542
0.878362
0.76801
0.179906
-0.935045
-2.72226
-5.09536
-7.73023
-10.288
-12.1005
-13.8415
-14.6143
-13.923
-14.6476
-13.1033
-11.1415
-8.84968
-6.5744
-4.55775
-2.92098
-1.57952
-0.516332
0.735244
0.68977
0.874905
0.758578
0.162461
-0.961165
-2.75372
-5.12306
-7.73944
-10.264
-12.0214
-13.6392
-14.4281
-13.471
-14.0147
-12.4488
-10.5143
-8.24417
-6.06235
-4.18358
-2.69882
-1.46792
-0.502609
0.736096
0.68886
0.871159
0.748935
0.145031
-0.986614
-2.78321
-5.14676
-7.74216
-10.2311
-11.9346
-13.4254
-14.2466
-13.0616
-13.3933
-11.7669
-9.89542
-7.70876
-5.66126
-3.93604
-2.57178
-1.45083
-0.562879
0.736771
0.687849
0.867155
0.739029
0.127588
-1.01139
-2.81065
-5.16631
-7.73822
-10.1892
-11.8403
-13.1997
-14.0658
-12.7115
-12.7843
-11.1072
-9.32411
-7.25249
-5.33877
-3.75973
-2.50772
-1.48134
-0.657959
0.737156
0.686684
0.862836
0.728896
0.110172
-1.03541
-2.83593
-5.18155
-7.72743
-10.1379
-11.7386
-12.9617
-13.8798
-12.4246
-12.1938
-10.5098
-8.82212
-6.87647
-5.08306
-3.62488
-2.46407
-1.5357
-0.787536
0.737342
0.685403
0.858232
0.718481
0.092755
-1.05867
-2.85897
-5.19234
-7.70963
-10.0771
-11.6292
-12.7109
-13.6811
-12.1861
-11.6454
-9.98664
-8.39505
-6.568
-4.89522
-3.55436
-2.47161
-1.62662
-0.946942
0.737219
0.683954
0.853286
0.707821
0.0753827
-1.08109
-2.87962
-5.19846
-7.68456
-10.0064
-11.5122
-12.4472
-13.4602
-11.9724
-11.1632
-9.54279
-8.03138
-6.30908
-4.75638
-3.51945
-2.51635
-1.73711
-1.11434
0.736859
0.682364
0.848021
0.696851
0.0579997
-1.10271
-2.89793
-5.19994
-7.65226
-9.9259
-11.3871
-12.17
-13.2128
-11.774
-10.7476
-9.16566
-7.71859
-6.07526
-4.62422
-3.47394
-2.55833
-1.84158
-1.27161
0.736277
0.680641
0.842419
0.685629
0.0406973
-1.12333
-2.91349
-5.19615
-7.6119
-9.83448
-11.254
-11.8818
-12.9221
-11.5655
-10.3642
-8.83015
-7.43369
-5.86221
-4.50837
-3.44556
-2.60867
-1.95403
-1.43579
0.735469
0.678787
0.836425
0.673829
0.0227941
-1.14421
-2.92823
-5.1895
-7.56601
-9.73394
-11.1102
-11.5782
-12.6166
-11.3947
-10.0167
-8.53737
-7.16504
-5.67871
-4.41918
-3.43891
-2.66355
-2.05868
-1.58404
0.736749
0.677902
0.830626
0.661123
0.00318553
-1.16659
-2.94201
-5.17651
-7.50553
-9.60939
-10.9536
-11.2795
-12.1373
-10.9861
-9.55177
-8.19489
-6.90114
-5.55661
-4.41326
-3.5103
-2.78904
-2.21907
-1.77245
0.735088
0.674294
0.821563
0.644598
-0.0190435
-1.18821
-2.94777
-5.14465
-7.41273
-9.43767
-10.7586
-11.0072
-11.7398
-10.7838
-9.41861
-8.05478
-6.80235
-5.56179
-4.4908
-3.62848
-2.94099
-2.39785
-1.97182
0.731543
0.668477
0.808907
0.624079
-0.0442477
-1.20877
-2.94404
-5.09119
-7.2852
-9.21835
-10.5157
-10.7068
-11.2971
-10.5197
-9.30184
-7.94341
-6.73981
-5.58583
-4.57294
-3.75278
-3.09695
-2.58373
-2.17217
0.72638
0.660579
0.792749
0.599756
-0.072187
-1.22814
-2.93119
-5.01734
-7.12589
-8.95578
-10.2166
-10.3297
-10.7269
-10.0308
-8.98688
-7.7368
-6.62943
-5.56836
-4.62743
-3.86356
-3.25249
-2.77203
-2.37638
0.720463
0.651457
0.774362
0.573507
-0.0999533
-1.24196
-2.9031
-4.91501
-6.92523
-8.63861
-9.8441
-9.86445
-10.0643
-9.39483
-8.51531
-7.44125
-6.46543
-5.50698
-4.6562
-3.96171
-3.40616
-2.95987
-2.5904
0.714423
0.641692
0.754672
0.546597
-0.125188
-1.24614
-2.85324
-4.7746
-6.67009
-8.24994
-9.38186
-9.31998
-9.3682
-8.72867
-7.97952
-7.08954
-6.2441
-5.40206
-4.65405
-4.04053
-3.54566
-3.1459
-2.81241
0.707552
0.630906
0.733366
0.519101
-0.147158
-1.23887
-2.77824
-4.59077
-6.35279
-7.78008
-8.82383
-8.7073
-8.66012
-8.07096
-7.41456
-6.68004
-5.95381
-5.24035
-4.6053
-4.07963
-3.65085
-3.30973
-3.01932
0.699231
0.618471
0.709736
0.490302
-0.166193
-1.21992
-2.67741
-4.3626
-5.97253
-7.22991
-8.17471
-8.03276
-7.93111
-7.3977
-6.81755
-6.20339
-5.59836
-5.01278
-4.48909
-4.05239
-3.69591
-3.40753
-3.15875
0.688699
0.603749
0.683047
0.45969
-0.182509
-1.18923
-2.55102
-4.0918
-5.53411
-6.60971
-7.44809
-7.3025
-7.17221
-6.68718
-6.18171
-5.66953
-5.17984
-4.70661
-4.2847
-3.93128
-3.64127
-3.40291
-3.19809
0.675857
0.586415
0.652994
0.427062
-0.195842
-1.14633
-2.39949
-3.78169
-5.04627
-5.93629
-6.66385
-6.52742
-6.38638
-5.94569
-5.50575
-5.09064
-4.69582
-4.32084
-3.98908
-3.70831
-3.47578
-3.28632
-3.12228
0.660293
0.566116
0.619382
0.392784
-0.205263
-1.09023
-2.2235
-3.43726
-4.52116
-5.23088
-5.84645
-5.72488
-5.58632
-5.19533
-4.80742
-4.47831
-4.16171
-3.87134
-3.61255
-3.39158
-3.20915
-3.05966
-2.93035
0.642081
0.542758
0.582431
0.357478
-0.209522
-1.01998
-2.02467
-3.0657
-3.97362
-4.51663
-5.02262
-4.91789
-4.78903
-4.45501
-4.11309
-3.85297
-3.60244
-3.3747
-3.1723
-3.0009
-2.85868
-2.74095
-2.6404
0.620812
0.516068
0.54235
0.322181
-0.207198
-0.935179
-1.8063
-2.6767
-3.42037
-3.81673
-4.21884
-4.13105
-4.01469
-3.73943
-3.44312
-3.23494
-3.03517
-2.85376
-2.69619
-2.56174
-2.44989
-2.35837
-2.28111
0.596593
0.486145
0.499799
0.287994
-0.197177
-0.836602
-1.57384
-2.28217
-2.87869
-3.15244
-3.45939
-3.3872
-3.28402
-3.06506
-2.81136
-2.6444
-2.48376
-2.33867
-2.21278
-2.10543
-2.01684
-1.94339
-1.88181
0.569008
0.452814
0.455365
0.256182
-0.17888
-0.726604
-1.33484
-1.89538
-2.36503
-2.54192
-2.76476
-2.70628
-2.61536
-2.44769
-2.23347
-2.10042
-1.96976
-1.8519
-1.74962
-1.66325
-1.5904
-1.52941
-1.47876
0.538287
0.41655
0.410089
0.227708
-0.152787
-0.609321
-1.09843
-1.52961
-1.89362
-1.9989
-2.15069
-2.10436
-2.02526
-1.90398
-1.72314
-1.61485
-1.5092
-1.41289
-1.32847
-1.25647
-1.19526
-1.14357
-1.10006
0.504075
0.377431
0.364779
0.203268
-0.120513
-0.490365
-0.874227
-1.19667
-1.4753
-1.53195
-1.62663
-1.59089
-1.52219
-1.44077
-1.29316
-1.20269
-1.11796
-1.03907
-0.969144
-0.908539
-0.856586
-0.812029
-0.774314
0.46699
0.33632
0.320559
0.18276
-0.0849465
-0.37618
-0.67101
-0.905608
-1.11676
-1.14406
-1.1954
-1.16883
-1.10929
-1.05978
-0.948333
-0.8697
-0.801733
-0.737825
-0.680024
-0.629313
-0.58515
-0.546897
-0.514375
0.426903
0.293593
0.27797
0.165468
-0.0497369
-0.272985
-0.495567
-0.661862
-0.820469
-0.833236
-0.854196
-0.835514
-0.784614
-0.756686
-0.683227
-0.616472
-0.560861
-0.510062
-0.463935
-0.422655
-0.385662
-0.352973
-0.324839
0.38483
0.250381
0.237572
0.149876
-0.0187809
-0.185826
-0.351835
-0.467139
-0.585068
-0.59363
-0.595702
-0.583659
-0.542045
-0.525291
-0.485883
-0.435639
-0.392184
-0.352005
-0.315814
-0.282766
-0.252642
-0.225925
-0.203255
0.34101
0.207214
0.199177
0.134203
0.00467619
-0.117755
-0.240786
-0.319559
-0.406096
-0.416341
-0.409128
-0.402178
-0.371134
-0.358247
-0.342829
-0.311869
-0.281497
-0.251052
-0.223615
-0.19851
-0.1751
-0.153679
-0.135247
0.29659
0.165144
0.162573
0.116753
0.0185333
-0.0695664
-0.160637
-0.214364
-0.276615
-0.290675
-0.281383
-0.277891
-0.257988
-0.246597
-0.243986
-0.230819
-0.213286
-0.192529
-0.172197
-0.153684
-0.135954
-0.119279
-0.104912
0.252198
0.124639
0.127222
0.0963857
0.0223314
-0.0401427
-0.107469
-0.144879
-0.188338
-0.205597
-0.198855
-0.197513
-0.187663
-0.178668
-0.180159
-0.179454
-0.172452
-0.161027
-0.147356
-0.134695
-0.122742
-0.111176
-0.101173
0.20874
0.0864863
0.0928422
0.0730175
0.0168679
-0.0268117
-0.0764384
-0.103576
-0.132968
-0.151252
-0.149345
-0.149558
-0.147426
-0.142657
-0.14443
-0.149896
-0.150482
-0.146749
-0.139481
-0.131696
-0.124434
-0.117239
-0.111107
0.16709
0.0510684
0.0598693
0.0472158
0.00419766
-0.0262101
-0.06243
-0.0832779
-0.102688
-0.119635
-0.122498
-0.124143
-0.126635
-0.126526
-0.128225
-0.134703
-0.139354
-0.140304
-0.137783
-0.133563
-0.129372
-0.125116
-0.12155
0.127567
0.0194505
0.0289937
0.0207898
-0.013134
-0.034403
-0.060623
-0.0774985
-0.0906988
-0.104871
-0.111307
-0.11468
-0.119616
-0.12341
-0.126387
-0.131996
-0.138006
-0.141355
-0.142029
-0.140492
-0.138297
-0.136096
-0.134731
0.0916044
-0.00746538
0.00189799
-0.00396748
-0.0316364
-0.0471368
-0.0658936
-0.0801167
-0.0899469
-0.101132
-0.109278
-0.114366
-0.120323
-0.126412
-0.131201
-0.13625
-0.142001
-0.146108
-0.148268
-0.148567
-0.147835
-0.146878
-0.146436
0.059367
-0.0280775
-0.0191094
-0.0235707
-0.0467097
-0.0586912
-0.0720339
-0.0841596
-0.0926334
-0.101615
-0.110216
-0.116806
-0.123468
-0.130696
-0.137147
-0.142667
-0.148014
-0.15226
-0.155095
-0.156607
-0.15697
-0.156993
-0.157402
0.0337511
-0.0399356
-0.0303544
-0.0331955
-0.0523169
-0.0618611
-0.0710084
-0.0807142
-0.0881567
-0.0951236
-0.10254
-0.108985
-0.115067
-0.121498
-0.127709
-0.132937
-0.137245
-0.140484
-0.142584
-0.14377
-0.143863
-0.143479
-0.143379
0.00897233
-0.0437875
-0.0300634
-0.0282931
-0.0414788
-0.0478032
-0.0536288
-0.0621213
-0.0712825
-0.0808573
-0.0919124
-0.103559
-0.115438
-0.127541
-0.139785
-0.151725
-0.16249
-0.170475
-0.175082
-0.177366
-0.178369
-0.178674
-0.178887
0.0161247
-0.0238794
-0.0103034
-0.00620072
-0.0115146
-0.010462
-0.0060619
-0.00203156
0.0015958
0.00604568
0.0102673
0.0144329
0.0185741
0.0226579
0.0260198
0.0295627
0.0343839
0.0403152
0.0456408
0.04964
0.0525223
0.054679
0.0558242
0.609035
0.507004
0.590663
0.740445
0.952926
1.26519
1.70927
2.31981
3.12752
4.14888
5.39216
6.85862
8.55609
10.4876
12.6479
14.9986
17.4718
19.9709
22.3904
24.6314
26.6235
28.3194
29.7364
0.621005
0.560938
0.626267
0.777311
0.987478
1.28866
1.71532
2.30036
3.07452
4.05858
5.26443
6.69557
8.35505
10.2386
12.33
14.5851
16.9326
19.2791
21.5251
23.5819
25.3879
26.9104
28.1661
0.635163
0.617694
0.671326
0.816383
1.02104
1.30629
1.70599
2.252
2.97478
3.89869
5.04002
6.40576
7.99706
9.8046
11.8041
13.946
16.157
18.3459
20.4187
22.2957
23.9238
25.2824
26.3879
0.652994
0.673531
0.725082
0.859643
1.05477
1.3202
1.6854
2.18086
2.83632
3.67851
4.72785
5.99567
7.48401
9.18186
11.0607
13.0681
15.1301
17.1582
19.0633
20.7725
22.2389
23.4516
24.4257
0.676984
0.724773
0.783139
0.906702
1.08817
1.32979
1.65406
2.08865
2.66226
3.40261
4.33374
5.47152
6.82139
8.37378
10.1003
11.9491
13.8479
15.7121
17.4573
19.0154
20.343
21.4341
22.3021
0.708089
0.767378
0.836082
0.950781
1.11496
1.32807
1.60491
1.96904
2.44711
3.06719
3.85564
4.83307
6.00957
7.38032
8.92082
10.5839
12.3024
13.9977
15.5909
17.0177
18.2361
19.239
20.0366
0.741131
0.796174
0.871466
0.979945
1.12584
1.30652
1.52981
1.81404
2.18317
2.66448
3.28613
4.07292
5.04094
6.19222
7.51008
8.95558
10.4707
11.9856
13.429
14.7405
15.8786
16.8313
17.6029
0.765449
0.814966
0.89204
0.998361
1.12949
1.27635
1.4399
1.63307
1.87673
2.19757
2.62611
3.19252
3.92062
4.82174
5.88954
7.09585
8.39362
9.7232
11.0209
12.2296
13.3063
14.2309
14.9986
0.486627
0.133123
0.374175
0.435523
0.645946
0.97942
1.40788
2.09512
2.98104
4.03694
5.27384
6.5825
8.04199
9.64739
11.4495
13.4073
15.4457
17.4507
19.316
20.962
22.3446
23.4735
24.3516
0.488692
0.1402
0.373998
0.438775
0.648503
0.980714
1.41139
2.09994
2.99019
4.06015
5.31985
6.67872
8.20762
9.91307
11.8398
13.9521
16.1758
18.3974
20.5063
22.4111
24.0561
25.434
26.5373
0.491845
0.150773
0.376288
0.443191
0.652263
0.980768
1.41053
2.09496
2.98324
4.05969
5.33335
6.73242
8.31984
10.1121
12.1482
14.3965
16.7838
19.1978
21.5261
23.6674
25.5571
27.17
28.4933
0.495887
0.165247
0.383537
0.451721
0.661559
0.985913
1.41381
2.09082
2.97268
4.04878
5.3276
6.75515
8.38803
10.2512
12.3794
14.7431
17.2697
19.8482
22.3651
24.7122
26.818
28.6408
30.166
0.500963
0.183023
0.396882
0.466677
0.679787
1.00156
1.42856
2.09703
2.96987
4.04044
5.31668
6.76096
8.42536
10.3422
12.5432
15
17.6401
20.3529
23.0243
25.5409
27.8263
29.825
31.5233
0.507116
0.203373
0.416365
0.488867
0.707885
1.02973
1.45816
2.11854
2.98157
4.04308
5.31061
6.76072
8.44279
10.3956
12.6493
15.176
17.903
20.7193
23.5095
26.1564
28.5806
30.7153
32.5497
0.514501
0.224501
0.438933
0.515212
0.741326
1.06554
1.49807
2.15245
3.00746
4.06027
5.31767
6.76753
8.45743
10.431
12.7184
15.2921
18.0788
20.9669
23.8393
26.576
29.0956
31.3234
33.252
0.523014
0.244976
0.461224
0.542332
0.775438
1.10411
1.54412
2.19657
3.04841
4.09716
5.34823
6.79723
8.48979
10.4725
12.7761
15.3737