/*--------------------------------*- C++ -*----------------------------------*\
  =========                 |
  \\      /  F ield         | OpenFOAM: The Open Source CFD Toolbox
   \\    /   O peration     | Website:  https://openfoam.org
    \\  /    A nd           | Version:  7
     \\/     M anipulation  |
\*---------------------------------------------------------------------------*/
FoamFile
{
    version     2.0;
    format      ascii;
    class       surfaceScalarField;
    location    "50";
    object      phi;
}
// * * * * * * * * * * * * * * * * * * * * * * * * * * * * * * * * * * * * * //

dimensions      [0 3 -1 0 0 0 0];

internalField   nonuniform List<scalar> 
25449
(
68.0736
48.7112
-24.4332
50.4952
36.0682
-18.4898
37.6422
26.847
-13.9941
28.173
20.0646
-10.5954
21.1541
15.0463
-8.02744
15.9262
11.3168
-6.08884
12.0169
8.53544
-4.62619
9.08476
6.45489
-3.52275
6.88028
4.89442
-2.68994
5.21997
3.72102
-2.06071
3.96798
2.83644
-1.58445
3.0232
2.16784
-1.22306
2.31003
1.66112
-0.947951
1.77171
1.27595
-0.73764
1.36553
0.982229
-0.576051
1.05925
0.757435
-0.45115
0.828474
0.584736
-0.353964
0.654756
0.451566
-0.277849
0.524108
0.348557
-0.217908
0.425924
0.268719
-0.170534
0.352175
0.206793
-0.133045
0.296783
0.158812
-0.103419
0.121652
-0.0800659
0.255198
53.089
67.2297
39.5642
49.5929
29.6075
36.8037
22.233
27.4391
16.7436
20.5357
12.6405
15.4199
9.56362
11.6123
7.25014
8.76838
5.50711
6.63745
4.19198
5.03616
3.19882
3.8296
2.44853
2.91814
1.88175
2.2279
1.4538
1.70391
1.1309
1.30513
0.887507
1.00083
0.704249
0.767995
0.566438
0.589378
0.462926
0.45207
0.385252
0.346394
0.327007
0.265039
0.283332
0.202487
0.154385
0.2506
40.4449
80.8858
30.3416
59.6961
22.8288
44.3165
17.2212
33.0467
13.0213
24.7357
9.86656
18.5746
7.49131
13.9876
5.69938
10.5603
4.34547
7.99135
3.32151
6.06011
2.54679
4.60432
1.96071
3.50421
1.51758
2.67102
1.18284
2.03865
0.930262
1.55771
0.739918
1.19117
0.596672
0.91124
0.489024
0.697026
0.408235
0.532859
0.347668
0.406961
0.302292
0.310415
0.268297
0.236483
0.179845
0.242837
30.4555
90.654
23.0747
67.0768
17.4992
49.8919
13.2873
37.2586
10.103
27.9201
7.69343
20.9841
5.86853
15.8125
4.48512
11.9437
3.43569
9.04079
2.63941
6.8564
2.0354
5.20833
1.5776
3.96201
1.23104
3.01759
0.969047
2.30064
0.771289
1.75547
0.622243
1.34022
0.510082
1.0234
0.425804
0.781305
0.362561
0.596103
0.315152
0.454371
0.279633
0.345934
0.253019
0.263096
0.199784
0.23308
22.849
97.403
17.5665
72.3593
13.4741
53.9843
10.3245
40.4082
7.9093
30.3352
6.06207
22.8313
4.65119
17.2234
3.57436
13.0206
2.75299
9.86216
2.12698
7.48241
1.65048
5.68483
1.2884
4.3241
1.01379
3.29219
0.805952
2.50848
0.648939
1.91248
0.530526
1.45863
0.441362
1.11256
0.374317
0.84835
0.323962
0.646457
0.286176
0.492157
0.257833
0.374277
0.236572
0.284358
0.215739
0.220618
17.187
101.844
13.4923
76.0539
10.5119
56.9647
8.15243
42.7677
6.30559
32.1821
4.87164
24.2653
3.76378
18.3312
2.91053
13.8738
2.25502
10.5177
1.75253
7.98491
1.36834
6.06903
1.0754
4.61704
0.852692
3.51491
0.683824
2.67735
0.556075
2.04023
0.459605
1.55511
0.386857
1.18531
0.332057
0.903151
0.290813
0.687702
0.259789
0.523181
0.236458
0.397608
0.218913
0.301902
0.22894
0.205713
13.0396
104.537
10.5327
78.5607
8.37448
59.1229
6.59293
44.5492
5.1581
33.6169
4.02173
25.4016
3.13085
19.2221
2.437
14.5677
1.8993
11.0554
1.48425
8.39996
1.16519
6.38808
0.920895
4.86133
0.734567
3.70124
0.592934
2.81898
0.485563
2.1476
0.404314
1.63635
0.342899
1.24673
0.296503
0.949547
0.261465
0.722739
0.23501
0.549636
0.215037
0.41758
0.199961
0.316979
0.240326
0.188575
10.035
105.909
8.41173
80.1839
6.85604
60.6786
5.49233
45.9129
4.35202
34.7572
3.42636
26.3273
2.68788
19.9606
2.10519
15.1504
1.64919
11.5114
1.29446
8.7547
1.02016
6.66238
0.809176
5.07233
0.647701
3.86272
0.524618
2.94208
0.431075
2.24115
0.360093
1.70734
0.306259
1.30056
0.265422
0.990385
0.234438
0.753724
0.210922
0.573152
0.193079
0.435425
0.179539
0.330519
0.250594
0.169272
7.48578
108.496
5.59347
82.0761
4.20826
62.0638
3.1861
46.9351
2.42633
35.517
1.85873
26.8949
1.4319
20.3874
1.10902
15.4732
0.863796
11.7566
0.677017
8.94147
0.534775
6.80462
0.426586
5.18051
0.344516
3.94479
0.282414
3.00418
0.235507
2.28805
0.200088
1.74276
0.173316
1.32734
0.153037
1.01066
0.137645
0.769117
0.125938
0.584859
0.117023
0.44434
0.110237
0.337306
0.255775
0.105056
5.38126
110.365
4.01961
83.4377
3.02818
63.0552
2.29889
47.6644
1.75808
36.0578
1.35466
27.2983
1.05121
20.6909
0.821252
15.7032
0.646141
11.9317
0.512308
9.07532
0.410084
6.90686
0.332136
5.25847
0.272906
4.00403
0.228036
3.04905
0.19411
2.32199
0.168447
1.76842
0.148984
1.3468
0.134158
1.02549
0.122817
0.780459
0.114108
0.593569
0.107402
0.451047
0.102239
0.34247
0.259762
0.0982519
3.79569
111.686
2.83629
84.3971
2.14194
63.7496
1.63282
48.1735
1.25627
36.4343
0.975744
27.5788
0.764534
20.9021
0.603963
15.8638
0.481173
12.0545
0.386838
9.16964
0.314455
6.97924
0.259043
5.31388
0.216818
4.04625
0.184759
3.08111
0.160464
2.34628
0.142018
1.78687
0.127942
1.36088
0.117118
1.03631
0.108734
0.788844
0.1022
0.600103
0.0970855
0.456162
0.0930873
0.346468
0.262897
0.0899529
2.61102
112.594
1.95438
85.0537
1.48219
64.2217
1.13705
48.5186
0.8825
36.6889
0.693026
27.7683
0.550047
21.0451
0.44075
15.9731
0.356586
12.1387
0.291387
9.23485
0.240992
7.02964
0.202162
5.35272
0.172423
4.07601
0.149747
3.1038
0.132485
2.36355
0.119292
1.80007
0.109119
1.37106
0.101179
1.04426
0.0949118
0.795113
0.0899231
0.605093
0.0859309
0.460155
0.0827452
0.349654
0.265443
0.0801988
1.73427
113.192
1.30354
85.4844
0.99572
64.5296
0.771292
48.7431
0.606212
36.8539
0.4833
27.8912
0.390109
21.1383
0.318171
16.045
0.262116
12.1947
0.218091
9.27887
0.183649
7.06408
0.156823
5.37954
0.136098
4.09673
0.120176
3.11971
0.107962
2.37576
0.098526
1.8095
0.0911356
1.37845
0.0852432
1.05015
0.0804727
0.799883
0.0765709
0.608996
0.0733633
0.463363
0.070741
0.352276
0.267585
0.0685994
1.09521
113.559
0.830918
85.7486
0.64283
64.7176
0.505781
48.8801
0.405119
36.9546
0.329928
27.9664
0.272337
21.1958
0.227052
16.0903
0.191007
12.2308
0.162021
9.30786
0.138874
7.08723
0.120516
5.39791
0.106121
4.11113
0.09492
3.13092
0.0862177
2.38447
0.0793866
1.81634
0.0739175
1.38392
0.069433
1.05464
0.0656868
0.803632
0.0625247
0.612159
0.0598473
0.466041
0.0576033
0.35452
0.269457
0.0557319
0.630991
113.754
0.489157
85.8905
0.387875
64.8189
0.313655
48.9543
0.258973
37.0093
0.217662
28.0077
0.185263
21.2282
0.15879
16.1168
0.136833
12.2528
0.118404
9.32628
0.103151
7.10248
0.0906771
5.41038
0.0806492
4.12115
0.0726826
3.13889
0.0663717
2.39078
0.0613061
1.8214
0.0571353
1.38809
0.0536003
1.05817
0.0505442
0.806688
0.0478805
0.614824
0.0455609
0.46836
0.0435743
0.356508
0.271145
0.0418863
0.304243
113.823
0.250144
85.9445
0.209826
64.8592
0.179185
48.985
0.156033
37.0324
0.137768
28.026
0.122405
21.2436
0.108592
16.1306
0.0960617
12.2653
0.0846551
9.3377
0.0746076
7.11254
0.0659782
5.41902
0.0587696
4.12837
0.0528695
3.14479
0.0480768
2.39558
0.0441321
1.82536
0.04079
1.39144
0.0378684
1.0611
0.0352664
0.809293
0.03294
0.617152
0.0308722
0.470429
0.0290742
0.358305
0.272692
0.0275284
0.0776056
113.801
0.0858614
85.9363
0.0877141
64.8574
0.0866684
48.986
0.0845706
37.0345
0.0815111
28.029
0.0772936
21.2478
0.0717009
16.1362
0.0652389
12.2717
0.0583081
9.34462
0.0515292
7.11931
0.0452715
5.42527
0.0397635
4.13387
0.0350864
3.14947
0.0311835
2.39948
0.027901
1.82864
0.0250604
1.39428
0.0225256
1.06363
0.0202266
0.811592
0.0181428
0.619236
0.0162721
0.4723
0.0146377
0.35994
0.274103
0.0132267
-0.0737725
113.712
-0.0222813
85.8848
0.00764204
64.8274
0.0257041
48.968
0.0368165
37.0234
0.0431028
28.0227
0.0456325
21.2453
0.0449505
16.1369
0.0420537
12.2747
0.0377023
9.34897
0.0327485
7.12427
0.0277659
5.43026
0.0231255
4.13852
0.0190462
3.15355
0.0155724
2.40296
0.0126246
1.83159
0.0100626
1.39684
0.00777333
1.06592
0.0056968
0.813671
0.00382187
0.621113
0.00214648
0.473976
0.000695772
0.36139
0.275358
-0.000558342
-0.169396
113.577
-0.0888803
85.8043
-0.0412781
64.7799
-0.0118335
48.9385
0.00673047
37.0049
0.0180683
28.0114
0.0241238
21.2392
0.0259281
16.1351
0.0247601
12.2758
0.0215944
9.35213
0.0174019
7.12845
0.0128857
5.43476
0.00849714
4.1429
0.00455492
3.15749
0.0011761
2.40633
-0.00166519
1.83443
-0.00409308
1.39927
-0.00621769
1.06805
-0.00810799
0.815562
-0.00977977
0.622786
-0.0112482
0.475444
-0.0124938
0.362636
0.276424
-0.0135596
-0.224286
113.409
-0.125171
85.7051
-0.0674621
64.7221
-0.0322609
48.9033
-0.0104251
36.983
0.00285661
27.9981
0.0101124
21.232
0.0126561
16.1325
0.0118935
12.2766
0.00890962
9.35512
0.00470818
7.13266
7.12623e-05
5.43941
-0.00451399
4.1475
-0.00865269
3.16164
-0.012176
2.40987
-0.015069
1.83733
-0.0174525
1.40166
-0.0194485
1.07005
-0.0211489
0.817265
-0.0225896
0.624228
-0.0238026
0.476657
-0.0247927
0.363627
0.277245
-0.0256123
-0.251124
113.218
-0.140641
85.5946
-0.0780247
64.6595
-0.0409137
48.8662
-0.0186469
36.9608
-0.00552911
27.985
0.00134682
21.2251
0.00343524
16.1304
0.00216487
12.2779
-0.00133355
9.35861
-0.00607954
7.1374
-0.0112428
5.44456
-0.0163357
4.15258
-0.020901
3.16619
-0.0247275
2.41369
-0.0277634
1.84036
-0.0301349
1.40402
-0.0319917
1.0719
-0.033461
0.818735
-0.0346134
0.625379
-0.0355035
0.477548
-0.0361763
0.364298
0.27776
-0.0366904
-0.256419
113.012
-0.140149
85.4784
-0.0766606
64.596
-0.0406361
48.8302
-0.0201461
36.9403
-0.00881488
27.9737
-0.0035071
21.2198
-0.00274512
16.1297
-0.00517898
12.2803
-0.00968736
9.36312
-0.0153676
7.14308
-0.0213596
5.45056
-0.0272003
4.15843
-0.0323738
3.17137
-0.0366298
2.41795
-0.0398773
1.84362
-0.0422506
1.4064
-0.0439429
1.0736
-0.0451318
0.819926
-0.0459351
0.626184
-0.0464461
0.478057
-0.0467525
0.364607
0.277932
-0.0469261
-0.24577
112.795
-0.127777
85.3604
-0.0663001
64.5346
-0.0334819
48.7973
-0.0163529
36.9231
-0.00802367
27.9653
-0.00525174
21.217
-0.00658774
16.131
-0.0107772
12.2845
-0.0167268
9.36906
-0.0236579
7.15
-0.0307011
5.45759
-0.0374554
4.16517
-0.0433558
3.17727
-0.0481201
2.42271
-0.0516176
1.84711
-0.0539909
1.40877
-0.0554906
1.07509
-0.056356
0.820792
-0.0567699
0.626596
-0.0568676
0.478155
-0.0567897
0.36453
0.277743
-0.0565989
-0.498484
112.642
-0.384154
85.246
-0.299731
64.4501
-0.235965
48.7336
-0.187753
36.8749
-0.151184
27.9288
-0.123743
21.1896
-0.10365
16.1109
-0.0895744
12.2704
-0.080323
9.35981
-0.0749328
7.14462
-0.0724037
5.45507
-0.0719744
4.16475
-0.0726968
3.17799
-0.0737758
2.42379
-0.0745663
1.8479
-0.074795
1.409
-0.0744777
1.07478
-0.0737495
0.820065
-0.0727637
0.625612
-0.0716512
0.477042
-0.0705523
0.363432
0.276696
-0.069503
-0.485539
112.498
-0.377565
85.1381
-0.297745
64.3703
-0.237319
48.6732
-0.191533
36.8291
-0.156712
27.8939
-0.13052
21.1634
-0.11131
16.0917
-0.0978822
12.257
-0.0891028
9.35103
-0.084086
7.13959
-0.0818457
5.45282
-0.0816561
4.16455
-0.082545
3.17887
-0.0836728
2.42491
-0.084332
1.84856
-0.0842119
1.40888
-0.0833676
1.07393
-0.0820131
0.818711
-0.0803832
0.62398
-0.0786753
0.475335
-0.0770669
0.361824
0.275226
-0.0755944
-0.47275
112.362
-0.370725
85.036
-0.2952
64.2948
-0.237888
48.6158
-0.19436
36.7856
-0.161164
27.8607
-0.136134
21.1384
-0.117744
16.0733
-0.104914
12.2442
-0.0965627
9.34268
-0.091879
7.13491
-0.0898909
5.45083
-0.0899101
4.16457
-0.0909511
3.17992
-0.0921357
2.4261
-0.0926986
1.84912
-0.0922865
1.40847
-0.0909819
1.07263
-0.0890734
0.816803
-0.0868742
0.621782
-0.084673
0.473134
-0.0826767
0.359828
0.27346
-0.0809096
-0.460178
112.235
-0.363749
84.9396
-0.292256
64.2233
-0.237866
48.5615
-0.196454
36.7442
-0.164778
27.8291
-0.14083
21.1144
-0.123197
16.0557
-0.110915
12.2319
-0.102951
9.3347
-0.0985621
7.13051
-0.0967953
5.44906
-0.0970003
4.16477
-0.0981928
3.1811
-0.0994615
2.42736
-0.099987
1.84964
-0.0993639
1.40784
-0.0976815
1.07095
-0.0952968
0.814419
-0.0926342
0.619117
-0.0900692
0.47057
-0.0877993
0.357558
0.271478
-0.0858153
-0.447858
112.114
-0.356714
84.8484
-0.289024
64.1556
-0.237388
48.5098
-0.197968
36.7048
-0.167718
27.7988
-0.144781
21.0915
-0.127851
16.0387
-0.116069
12.2201
-0.108454
9.32709
-0.104326
7.12638
-0.102752
5.44749
-0.103124
4.16514
-0.104474
3.18245
-0.105866
2.42876
-0.106431
1.85021
-0.105701
1.40712
-0.103748
1.069
-0.101002
0.811674
-0.0979973
0.616114
-0.0951432
0.467716
-0.0925921
0.355007
0.269247
-0.0903601
-0.435811
112.001
-0.349672
84.7623
-0.285581
64.0915
-0.23655
48.4608
-0.199012
36.6672
-0.170107
27.7699
-0.148118
21.0695
-0.13184
16.0225
-0.120518
12.2088
-0.113217
9.31978
-0.109316
7.12247
-0.107911
5.44607
-0.108432
4.16565
-0.109948
3.18396
-0.111512
2.43031
-0.11221
1.8509
-0.111505
1.4064
-0.109427
1.06691
-0.106448
0.808695
-0.10315
0.612813
-0.0999288
0.464495
-0.0969962
0.352073
0.266724
-0.0944716
-0.42405
111.895
-0.342664
84.6809
-0.281986
64.0308
-0.235426
48.4142
-0.19967
36.6315
-0.172035
27.7423
-0.150937
21.0484
-0.135267
16.0068
-0.124367
12.1979
-0.117348
9.31276
-0.113645
7.11877
-0.112385
5.44481
-0.113039
4.1663
-0.114732
3.18566
-0.116524
2.43211
-0.117465
1.85184
-0.116948
1.40589
-0.114913
1.06488
-0.111788
0.805569
-0.108141
0.609169
-0.104479
0.460833
-0.101197
0.348791
0.263981
-0.0984531
-0.412583
111.795
-0.335718
84.6041
-0.278284
63.9734
-0.234072
48.37
-0.200009
36.5974
-0.173578
27.7158
-0.15332
21.0281
-0.138217
15.9917
-0.127703
12.1874
-0.120938
9.30599
-0.117405
7.11522
-0.116268
5.44366
-0.117038
4.16706
-0.11892
3.18753
-0.121
2.43418
-0.12231
1.85315
-0.122165
1.40574
-0.12034
1.06305
-0.117145
0.802374
-0.11323
0.605251
-0.109342
0.456945
-0.105961
0.345409
0.261135
-0.103114
-0.401412
111.701
-0.328856
84.5315
-0.274512
63.919
-0.232534
48.328
-0.200082
36.565
-0.174794
27.6906
-0.155329
21.0087
-0.140757
15.9771
-0.130598
12.1772
-0.124061
9.29945
-0.12067
7.11183
-0.119636
5.44263
-0.120504
4.16793
-0.122585
3.18961
-0.125013
2.43661
-0.126825
1.85496
-0.12724
1.40616
-0.125822
1.06163
-0.122818
0.799367
-0.119083
0.601519
-0.115456
0.453318
-0.112174
0.342127
0.258131
-0.109171
-0.39054
111.613
-0.322097
84.4631
-0.270698
63.8677
-0.230853
48.2882
-0.199934
36.5341
-0.175733
27.6664
-0.157018
20.99
-0.142944
15.963
-0.13311
12.1674
-0.126777
9.29311
-0.123505
7.10855
-0.122553
5.44167
-0.1235
4.16886
-0.125782
3.19188
-0.128615
2.43943
-0.131059
1.8574
-0.132237
1.40733
-0.13155
1.06094
-0.129277
0.797092
-0.126331
0.59857
-0.123177
0.450165
-0.11979
0.338738
0.254678
-0.116338
-0.379967
111.53
-0.315454
84.3985
-0.266869
63.8191
-0.229058
48.2504
-0.199604
36.5046
-0.176439
27.6432
-0.158435
20.972
-0.144828
15.9494
-0.135293
12.1578
-0.129141
9.28696
-0.125962
7.10537
-0.125073
5.44078
-0.126075
4.16986
-0.128558
3.19436
-0.131837
2.44271
-0.135031
1.86059
-0.137219
1.40952
-0.137741
1.06146
-0.136791
0.796139
-0.134807
0.596588
-0.131733
0.44709
-0.127834
0.334838
0.250657
-0.123816
-0.369692
111.453
-0.308939
84.3378
-0.263044
63.7732
-0.22718
48.2145
-0.199125
36.4765
-0.176948
27.621
-0.15962
20.9546
-0.146451
15.9362
-0.137191
12.1486
-0.1312
9.28096
-0.128091
7.10225
-0.127244
5.43992
-0.128274
4.17088
-0.130945
3.19702
-0.134696
2.44645
-0.138748
1.86463
-0.142227
1.41299
-0.144447
1.06367
-0.145109
0.796798
-0.143809
0.595286
-0.140561
0.443842
-0.136579
0.330855
0.24694
-0.132865
-0.359713
111.381
-0.302561
84.2806
-0.259241
63.7298
-0.22524
48.1805
-0.198526
36.4498
-0.177293
27.5998
-0.160608
20.9379
-0.147852
15.9235
-0.138843
12.1396
-0.132994
9.27511
-0.129932
7.09919
-0.129106
5.43909
-0.130133
4.17191
-0.132968
3.19985
-0.13719
2.45066
-0.142191
1.86963
-0.147212
1.41801
-0.15144
1.0679
-0.153796
0.799148
-0.153448
0.594942
-0.151397
0.441789
-0.149471
0.328928
0.245499
-0.148035
-0.350026
111.314
-0.296328
84.2269
-0.255476
63.689
-0.223262
48.1483
-0.197832
36.4244
-0.177504
27.5795
-0.16143
20.9219
-0.149063
15.9111
-0.140285
12.1308
-0.13456
9.26937
-0.131523
7.09614
-0.130699
5.43825
-0.131685
4.17288
-0.134647
3.2028
-0.139311
2.45532
-0.145308
1.87562
-0.152002
1.4247
-0.158373
1.07426
-0.162869
0.80364
-0.165297
0.597369
-0.167562
0.444053
-0.170452
0.331816
0.247929
-0.172886
-0.34063
111.251
-0.290247
84.1765
-0.251763
63.6505
-0.221264
48.1178
-0.197066
36.4002
-0.177606
27.56
-0.162116
20.9064
-0.150117
15.8991
-0.141549
12.1222
-0.135932
9.26375
-0.132899
7.09311
-0.132055
5.43741
-0.132957
4.17378
-0.135998
3.20583
-0.141038
2.46035
-0.148004
1.88259
-0.156357
1.43305
-0.16499
1.08289
-0.17271
0.811354
-0.18056
0.605222
-0.189695
0.453187
-0.198154
0.340273
0.253697
-0.203928
-0.33152
111.193
-0.284325
84.1294
-0.248116
63.6143
-0.219265
48.089
-0.196252
36.3772
-0.177624
27.5414
-0.162692
20.8914
-0.151041
15.8875
-0.142666
12.1139
-0.137142
9.25823
-0.134091
7.09005
-0.133208
5.43651
-0.133978
4.17454
-0.137037
3.20888
-0.142343
2.46565
-0.150156
1.89039
-0.160029
1.44292
-0.171094
1.09394
-0.183198
0.823453
-0.197763
0.619789
-0.213201
0.468623
-0.22495
0.35202
0.260259
-0.231518
-0.322694
111.139
-0.278565
84.0852
-0.244545
63.5803
-0.21728
48.0617
-0.195407
36.3553
-0.177581
27.5235
-0.163184
20.877
-0.151861
15.8761
-0.143662
12.1057
-0.138218
9.25278
-0.135129
7.08695
-0.134186
5.43557
-0.134773
4.17512
-0.137776
3.21188
-0.143197
2.47106
-0.151636
1.89883
-0.162774
1.45405
-0.176338
1.1075
-0.193192
0.840301
-0.213385
0.639984
-0.231766
0.487003
-0.243071
0.363324
0.264779
-0.247597
-0.314147
111.09
-0.272973
84.0441
-0.241061
63.5484
-0.215326
48.036
-0.194552
36.3346
-0.177498
27.5065
-0.163613
20.8632
-0.152603
15.8651
-0.144564
12.0976
-0.139187
9.24739
-0.136041
7.0838
-0.13502
5.43454
-0.135367
4.17545
-0.138232
3.21473
-0.143573
2.47639
-0.152329
1.90758
-0.164369
1.46609
-0.180145
1.12327
-0.200787
0.860939
-0.223807
0.663006
-0.241458
0.504653
-0.249572
0.371437
0.26573
-0.250529
-0.305876
111.045
-0.267552
84.0057
-0.237676
63.5185
-0.213416
48.0117
-0.193704
36.3148
-0.177395
27.4902
-0.164003
20.8498
-0.15329
15.8544
-0.145398
12.0897
-0.140077
9.24207
-0.136855
7.08057
-0.135739
5.43341
-0.135787
4.17549
-0.138419
3.21735
-0.143458
2.48142
-0.152146
1.91626
-0.164586
1.47853
-0.181834
1.14051
-0.204358
0.883458
-0.22699
0.685639
-0.241334
0.518996
-0.245289
0.375392
0.263153
-0.242718
-0.297877
111.003
-0.262309
83.9702
-0.234397
63.4906
-0.211564
47.9889
-0.192879
36.2962
-0.177291
27.4746
-0.164374
20.8369
-0.153945
15.844
-0.146186
12.082
-0.140911
9.23679
-0.137598
7.07725
-0.136369
5.43218
-0.136061
4.17518
-0.138361
3.21965
-0.142859
2.48591
-0.151037
1.92443
-0.163201
1.49069
-0.180699
1.158
-0.20286
0.905614
-0.222688
0.70547
-0.232656
0.528963
-0.232728
0.375463
0.257828
-0.227408
-0.290148
110.965
-0.257245
83.9372
-0.231235
63.4646
-0.209783
47.9674
-0.192094
36.2785
-0.177204
27.4597
-0.164747
20.8244
-0.154589
15.8338
-0.146951
12.0743
-0.141714
9.23155
-0.138294
7.07383
-0.136937
5.43081
-0.136218
4.17445
-0.138083
3.2215
-0.141803
2.48962
-0.148987
1.93161
-0.160077
1.50177
-0.176339
1.17426
-0.195958
0.92523
-0.21151
0.721023
-0.217255
0.534707
-0.214573
0.37278
0.250975
-0.207725
-0.282684
110.931
-0.252365
83.9069
-0.228198
63.4404
-0.208087
47.9473
-0.191365
36.2618
-0.177153
27.4455
-0.16514
20.8124
-0.155242
15.8239
-0.147716
12.0668
-0.142509
9.22634
-0.13897
7.07028
-0.13747
5.42931
-0.136292
4.17326
-0.137617
3.22282
-0.140341
2.49234
-0.14603
1.93729
-0.155201
1.51094
-0.168782
1.18783
-0.184158
0.940602
-0.19473
0.731598
-0.196965
0.536942
-0.192861
0.368675
0.243951
-0.185842
-0.275482
110.9
-0.247671
83.8791
-0.225295
63.418
-0.206486
47.9285
-0.190705
36.246
-0.177154
27.4319
-0.165572
20.8008
-0.155925
15.8143
-0.148501
12.0594
-0.143318
9.22115
-0.139648
7.06661
-0.137994
5.42765
-0.136318
4.17158
-0.136999
3.22349
-0.138548
2.49388
-0.142265
1.941
-0.148695
1.51737
-0.158287
1.19742
-0.168236
0.950548
-0.173569
0.736931
-0.173068
0.53644
-0.16878
0.364386
0.237918
-0.16275
-0.268539
110.873
-0.243168
83.8538
-0.222533
63.3974
-0.204994
47.911
-0.19013
36.2311
-0.177224
27.419
-0.166062
20.7896
-0.156658
15.8049
-0.149326
12.0521
-0.144162
9.21598
-0.140352
7.06279
-0.138531
5.42582
-0.136332
4.16937
-0.136267
3.22342
-0.136515
2.49412
-0.137858
1.94234
-0.140847
1.52036
-0.145295
1.20186
-0.148868
0.954118
-0.14891
0.736976
-0.146057
0.533585
-0.142189
0.360518
0.233679
-0.137953
-0.261852
110.849
-0.238857
83.8307
-0.219919
63.3784
-0.203617
47.8947
-0.189647
36.2172
-0.177371
27.4068
-0.16662
20.7789
-0.157453
15.7957
-0.150212
12.0448
-0.145065
9.21083
-0.141113
7.05883
-0.139116
5.42382
-0.136395
4.16664
-0.135492
3.22251
-0.134388
2.493
-0.13307
1.94102
-0.132081
1.51936
-0.130492
1.20027
-0.126955
0.950577
-0.121716
0.731733
-0.116788
0.528659
-0.113586
0.357313
0.231634
-0.111542
-0.246632
110.817
-0.220544
83.8047
-0.201049
63.359
-0.185451
47.8791
-0.172704
36.2044
-0.161803
27.3959
-0.152354
20.7694
-0.144303
15.7877
-0.137894
12.0384
-0.133315
9.20625
-0.129718
7.05523
-0.127739
5.42183
-0.124941
4.16384
-0.123279
3.22084
-0.121061
2.49078
-0.117429
1.93739
-0.112669
1.5146
-0.10533
1.19292
-0.0953872
0.94063
-0.0855215
0.721872
-0.0786847
0.521815
-0.0756831
0.354313
0.23106
-0.0751137
-0.196312
110.792
-0.175807
83.7842
-0.160508
63.3436
-0.148263
47.8668
-0.138243
36.1944
-0.129643
27.3873
-0.122139
20.7619
-0.1157
15.7812
-0.110503
12.0332
-0.106739
9.20248
-0.103769
7.05226
-0.101869
5.41993
-0.0994422
4.1614
-0.0973648
3.21875
-0.0946421
2.48805
-0.090196
1.93293
-0.0836703
1.50807
-0.0740586
1.1833
-0.0618731
0.92844
-0.0501154
0.710106
-0.0418628
0.513566
-0.0377112
0.350156
0.229931
-0.0365845
-0.156226
110.772
-0.140094
83.768
-0.128076
63.3316
-0.118455
47.8572
-0.110575
36.1865
-0.10379
27.3805
-0.0978344
20.756
-0.0926868
15.7761
-0.0884815
12.029
-0.0853943
9.19939
-0.0829569
7.04982
-0.0812031
5.41817
-0.0791674
4.15936
-0.077015
3.2166
-0.074194
2.48523
-0.069814
1.92855
-0.0629034
1.50116
-0.0532432
1.17364
-0.0411504
0.916346
-0.0292412
0.698199
-0.0203122
0.504631
-0.0151171
0.344961
0.22781
-0.0129995
-0.124283
110.757
-0.111565
83.7553
-0.102103
63.3222
-0.0945314
47.8496
-0.088325
36.1803
-0.0829677
27.3751
-0.0782413
20.7513
-0.0741282
15.772
-0.0707314
12.0256
-0.0682049
9.19686
-0.0662136
7.04782
-0.0646416
5.41659
-0.0629632
4.15767
-0.0609408
3.21457
-0.0582384
2.48252
-0.054254
1.92456
-0.0477194
1.49462
-0.0390683
1.16498
-0.0281586
0.90543
-0.0171652
0.687199
-0.0083961
0.495865
-0.00303522
0.339596
0.225371
-0.000597755
-0.098842
110.744
-0.0887974
83.7453
-0.0813351
63.3147
-0.0753662
47.8436
-0.0704723
36.1754
-0.0662397
27.3709
-0.0624888
20.7475
-0.0592034
15.7687
-0.0564641
12.0229
-0.0544002
9.1948
-0.0527777
7.0462
-0.0514014
5.41522
-0.0500237
4.1563
-0.0482359
3.21278
-0.045765
2.48005
-0.0422549
1.92105
-0.0364832
1.48885
-0.0291725
1.15767
-0.0198206
0.896078
-0.0102281
0.677609
-0.00224997
0.487882
0.00276076
0.334587
0.222894
0.00523562
-0.0785515
110.735
-0.0705777
83.7373
-0.0646609
63.3088
-0.0599332
47.8389
-0.0560588
36.1715
-0.0527055
27.3675
-0.0497243
20.7445
-0.0470991
15.766
-0.0448918
12.0207
-0.0432081
9.19311
-0.0418869
7.04487
-0.0407035
5.41402
-0.0395727
4.15516
-0.0380554
3.21125
-0.0358645
2.47785
-0.0328407
1.91802
-0.0279986
1.484
-0.0220273
1.15169
-0.0142978
0.888343
-0.00627038
0.669576
0.000585364
0.481029
0.00502764
0.330142
0.220543
0.00737848
-0.0625858
110.727
-0.0563781
83.7311
-0.0517792
63.3042
-0.0481039
47.8352
-0.0450868
36.1685
-0.0424642
27.3649
-0.0401159
20.7422
-0.0380287
15.764
-0.0362552
12.0189
-0.0348843
9.19174
-0.0338067
7.04379
-0.0328003
5.41302
-0.0318595
4.15421
-0.0305852
3.20998
-0.0286668
2.47593
-0.0260576
1.91541
-0.0220219
1.47997
-0.017096
1.14677
-0.0106943
0.881942
-0.00398269
0.662866
0.00181417
0.475229
0.00568108
0.326278
0.218386
0.00783658
-0.0495699
110.721
-0.0445182
83.726
-0.0407778
63.3004
-0.0377972
47.8323
-0.0353592
36.1661
-0.0332494
27.3628
-0.0313652
20.7403
-0.0296897
15.7623
-0.0282598
12.0175
-0.0271431
9.19062
-0.0262643
7.04291
-0.0254224
5.41217
-0.0246505
4.15343
-0.0236223
3.20894
-0.0220169
2.47432
-0.0198747
1.91326
-0.0167221
1.47681
-0.0128487
1.14288
-0.00785924
0.876948
-0.00256804
0.65757
0.00203658
0.470627
0.00524371
0.323068
0.2165
0.00713106
-0.0410669
110.711
-0.0331072
83.7181
-0.0269683
63.2943
-0.0220336
47.8273
-0.0179985
36.1621
-0.0145627
27.3594
-0.0115337
20.7373
-0.00881932
15.7596
-0.00641121
12.0151
-0.00436785
9.18857
-0.00258136
7.04112
-0.00090762
5.4105
0.000733264
4.15179
0.00270116
3.20697
0.00515569
2.47187
0.00802924
1.91039
0.0121483
1.4727
0.0170007
1.13803
0.0225743
0.871377
0.0273858
0.652762
0.0302986
0.46771
0.0311456
0.322223
0.217279
0.0303651
-0.0431205
110.701
-0.0347676
83.7097
-0.028329
63.2879
-0.0231573
47.8222
-0.0189306
36.1578
-0.0153313
27.3558
-0.0121532
20.7341
-0.00929535
15.7567
-0.00674796
12.0125
-0.00457562
9.18639
-0.00266601
7.03921
-0.000861988
5.40869
0.000898497
4.15002
0.00301892
3.20484
0.00570213
2.46917
0.00880416
1.90728
0.0131996
1.4683
0.0183423
1.13288
0.0242404
0.865474
0.029407
0.647591
0.032614
0.464506
0.0336875
0.321147
0.217888
0.0330788
-0.0452762
110.69
-0.0365109
83.701
-0.0297577
63.2811
-0.0243379
47.8167
-0.0199107
36.1534
-0.0161405
27.352
-0.0128067
20.7308
-0.00979867
15.7537
-0.00710529
12.0098
-0.00479672
9.18409
-0.00275755
7.03717
-0.000816246
5.40675
0.00107122
4.14814
0.00334421
3.20257
0.00627302
2.46625
0.00963095
1.90392
0.0142854
1.46365
0.0197242
1.12745
0.0259184
0.859284
0.0314019
0.642111
0.0348589
0.461046
0.0361237
0.319885
0.21832
0.0356911
-0.0475391
110.679
-0.038341
83.6917
-0.0312579
63.274
-0.0255782
47.8111
-0.0209411
36.1488
-0.0169924
27.3481
-0.0134958
20.7273
-0.0103307
15.7505
-0.00748425
12.007
-0.00503202
9.18163
-0.00285644
7.03499
-0.00077094
5.40465
0.00125089
4.14611
0.00367735
3.20014
0.00686549
2.46305
0.0105034
1.90028
0.0153989
1.45874
0.0211375
1.1217
0.0275821
0.852836
0.0333292
0.63636
0.0369802
0.457398
0.0383879
0.318474
0.218589
0.0381194
-0.0499142
110.667
-0.0402623
83.6821
-0.0328334
63.2666
-0.0268812
47.8051
-0.0220244
36.1439
-0.0178891
27.3439
-0.0142224
20.7236
-0.0108929
15.7472
-0.00788608
12.004
-0.00528227
9.17903
-0.00296285
7.03267
-0.0007261
5.40242
0.00143782
4.14394
0.00402066
3.19756
0.00747598
2.4596
0.0114141
1.89634
0.0165329
1.45363
0.0225691
1.11567
0.0292104
0.846199
0.0351668
0.630408
0.0389598
0.453602
0.0404744
0.316962
0.218711
0.0403506
-0.0524077
110.655
-0.0422795
83.672
-0.0344876
63.2588
-0.02825
47.7989
-0.0231634
36.1388
-0.0188329
27.3396
-0.0149885
20.7198
-0.011487
15.7437
-0.00831198
12.0008
-0.00554821
9.17626
-0.00307667
7.03019
-0.000681079
5.40002
0.00163345
4.14162
0.00438101
3.1948
0.00810582
2.45587
0.0123577
1.89208
0.0176809
1.4483
0.0240022
1.10934
0.0307924
0.839406
0.0369008
0.624296
0.0407969
0.449709
0.0424034
0.315353
0.218705
0.0424096
-0.0550247
110.642
-0.0443972
83.6613
-0.0362248
63.2506
-0.029688
47.7923
-0.0243607
36.1335
-0.0198263
27.3351
-0.0157962
20.7157
-0.0121147
15.74
-0.00876316
11.9975
-0.00583032
9.17333
-0.0031974
7.02756
-0.00063438
5.39746
0.00184035
4.13915
0.00476919
3.19188
0.00876068
2.45188
0.0133301
1.88752
0.0188433
1.44279
0.0254227
1.10277
0.0323283
0.832505
0.0385335
0.618096
0.0425019
0.445737
0.0442076
0.313649
0.218578
0.0443347
-0.0577721
110.628
-0.0466205
83.6502
-0.0380488
63.2421
-0.0311986
47.7855
-0.0256194
36.1279
-0.0208717
27.3303
-0.0166475
20.7115
-0.0127777
15.7361
-0.00924067
11.9939
-0.00612898
9.17021
-0.00332442
7.02475
-0.000584034
5.39471
0.00206223
4.13649
0.00519587
3.18873
0.00944376
2.44762
0.0143276
1.88263
0.0200239
1.43709
0.0268248
1.09596
0.033823
0.825504
0.0400747
0.611841
0.0440918
0.441724
0.0459109
0.311827
0.218329
0.0461593
-0.0606558
110.614
-0.0489545
83.6385
-0.0399641
63.2331
-0.0327854
47.7783
-0.0269424
36.1221
-0.0219717
27.3254
-0.0175446
20.7071
-0.0134775
15.7321
-0.0097457
11.9902
-0.00644465
9.16691
-0.00345707
7.02176
-0.000527968
5.39178
0.00230322
4.13366
0.00566838
3.18537
0.0101553
2.44314
0.0153461
1.87744
0.0212254
1.43121
0.0282082
1.08898
0.0352803
0.818436
0.0415406
0.605585
0.0455887
0.437673
0.0475246
0.309894
0.217954
0.0478997
-0.0636827
110.599
-0.0514048
83.6262
-0.0419752
63.2236
-0.0344523
47.7708
-0.0283331
36.116
-0.0231292
27.3202
-0.0184899
20.7024
-0.0142161
15.7278
-0.0102795
11.9863
-0.00677789
9.1634
-0.00359508
7.01857
-0.000464502
5.38865
0.0025667
4.13062
0.00618942
3.18174
0.0108959
2.43843
0.0163838
1.87194
0.0224501
1.42514
0.0295751
1.08185
0.0366997
0.811308
0.0429343
0.599347
0.0470098
0.433601
0.0490468
0.307855
0.217446
0.0495543
-0.06686
110.583
-0.0539771
83.6133
-0.0440871
63.2138
-0.0362031
47.7629
-0.0297948
36.1096
-0.0243469
27.3147
-0.0194858
20.6976
-0.0149955
15.7233
-0.0108436
11.9821
-0.0071296
9.15969
-0.00373851
7.01518
-0.000392547
5.3853
0.00285468
4.12738
0.00675754
3.17784
0.0116669
2.43352
0.0174419
1.86617
0.0237052
1.41888
0.0309305
1.07463
0.038077
0.804165
0.044257
0.593171
0.0483531
0.429502
0.0504604
0.305749
0.216815
0.0510916
-0.0701953
110.566
-0.0566777
83.5998
-0.0463041
63.2034
-0.0380422
47.7546
-0.031331
36.1029
-0.025628
27.309
-0.0205347
20.6925
-0.0158177
15.7186
-0.0114395
11.9777
-0.00750079
9.15575
-0.00388786
7.01156
-0.000311609
5.38172
0.00316763
4.12389
0.00736812
3.17363
0.0124684
2.42841
0.0185217
1.86011
0.0249951
1.4124
0.0322799
1.06734
0.0394081
0.797034
0.0455117
0.587065
0.0496066
0.42541
0.0517403
0.303614
0.21609
0.0524655
-0.073696
110.549
-0.0595128
83.5856
-0.0486324
63.1925
-0.0399738
47.746
-0.0329455
36.0958
-0.0269754
27.303
-0.0216395
20.6872
-0.016685
15.7136
-0.012069
11.9731
-0.00789275
9.15157
-0.00404394
7.00772
-0.00022192
5.3779
0.00350436
4.12017
0.00801447
3.16913
0.0133011
2.42313
0.0196241
1.8538
0.0263087
1.40572
0.0336236
1.06003
0.04069
0.78997
0.0466958
0.581063
0.0507429
0.42136
0.0528639
0.301495
0.215312
0.0536412
-0.0773707
110.53
-0.0624889
83.5707
-0.0510767
63.1811
-0.0420026
47.7369
-0.0346421
36.0885
-0.0283927
27.2968
-0.0228029
20.6816
-0.0175997
15.7084
-0.012734
11.9683
-0.00830686
9.14714
-0.00420788
7.00361
-0.000124232
5.37381
0.00386224
4.11617
0.00868926
3.16429
0.0141693
2.41765
0.0207521
1.84721
0.0276257
1.39885
0.0349544
1.0527
0.0419182