/*--------------------------------*- C++ -*----------------------------------*\
  =========                 |
  \\      /  F ield         | OpenFOAM: The Open Source CFD Toolbox
   \\    /   O peration     | Website:  https://openfoam.org
    \\  /    A nd           | Version:  7
     \\/     M anipulation  |
\*---------------------------------------------------------------------------*/
FoamFile
{
    version     2.0;
    format      ascii;
    class       volVectorField;
    location    "50";
    object      U;
}
// * * * * * * * * * * * * * * * * * * * * * * * * * * * * * * * * * * * * * //

dimensions      [0 1 -1 0 0 0 0];

internalField   nonuniform List<vector> 
12842
(
(15.3314 2.98047 -3.01914e-18)
(15.3318 2.97963 6.76696e-19)
(15.3314 2.97984 2.00302e-19)
(15.3302 2.98136 -5.29144e-19)
(15.3277 2.98519 2.20864e-18)
(15.3238 2.99303 0)
(15.3177 3.00687 0)
(15.3082 3.02881 2.36418e-19)
(15.2933 3.06099 -1.88097e-18)
(15.2712 3.10552 -2.37804e-20)
(15.2396 3.16434 -6.13108e-19)
(15.1967 3.23921 3.21712e-20)
(15.1409 3.33155 -2.81567e-19)
(15.0711 3.44201 -1.50775e-20)
(14.9871 3.57029 2.42414e-20)
(14.8894 3.71458 3.05297e-20)
(14.7798 3.87128 -4.50263e-21)
(14.6614 4.03523 0)
(14.5379 4.20019 5.26886e-21)
(14.4142 4.35979 3.22444e-20)
(14.2948 4.5083 8.58122e-21)
(14.1839 4.64207 -2.89233e-20)
(14.0847 4.75692 2.71203e-20)
(15.3301 2.98097 2.18039e-18)
(15.3305 2.97966 0)
(15.3304 2.98042 2.0552e-18)
(15.3302 2.98206 -1.32881e-18)
(15.33 2.98594 -1.76956e-18)
(15.33 2.9941 0)
(15.3298 3.00892 3.1029e-18)
(15.3278 3.0329 0)
(15.322 3.06848 3.03464e-18)
(15.3101 3.11792 2.82885e-19)
(15.2896 3.18319 1.16941e-18)
(15.2585 3.26589 1.32451e-18)
(15.2148 3.36719 2.72003e-19)
(15.1574 3.48746 -4.79028e-19)
(15.0858 3.62601 0)
(15.0003 3.78061 -3.91516e-20)
(14.9021 3.94721 -2.83957e-21)
(14.7934 4.12007 6.13001e-20)
(14.6778 4.29247 0)
(14.5596 4.45773 -4.62262e-20)
(14.4435 4.60983 -3.1063e-20)
(14.3338 4.74575 6.46223e-20)
(14.2347 4.85919 -5.61317e-20)
(15.3284 2.98149 0)
(15.3291 2.98006 0)
(15.3294 2.98102 1.84596e-19)
(15.3297 2.98218 7.47895e-18)
(15.3315 2.98532 0)
(15.3352 2.99286 0)
(15.3404 3.00757 5.83762e-19)
(15.3456 3.03245 -3.0192e-18)
(15.3485 3.07028 -1.36878e-18)
(15.3465 3.12353 -1.17159e-18)
(15.3368 3.19411 -1.91779e-18)
(15.3168 3.28346 -1.30047e-18)
(15.2847 3.3925 -2.2004e-19)
(15.2392 3.52129 7.55445e-19)
(15.1797 3.66887 0)
(15.1063 3.83273 7.89628e-20)
(15.0197 4.00844 -1.01153e-19)
(14.9217 4.18987 -5.08351e-20)
(14.8152 4.36981 -1.52097e-19)
(14.7042 4.54127 7.90255e-20)
(14.5935 4.69787 1.68361e-20)
(14.4874 4.83722 0)
(14.391 4.9507 1.56474e-20)
(15.3264 2.98231 4.72429e-19)
(15.3278 2.98095 7.73939e-19)
(15.3282 2.98185 -2.96988e-18)
(15.3287 2.98214 -1.1495e-17)
(15.3322 2.984 1.0823e-18)
(15.3393 2.99016 -4.06404e-18)
(15.3496 3.00386 -3.23298e-19)
(15.3618 3.02865 2.98819e-18)
(15.3732 3.06767 4.77686e-18)
(15.3808 3.12362 -2.66739e-18)
(15.3813 3.19838 4.63095e-18)
(15.372 3.29319 -4.34569e-19)
(15.351 3.40869 5.66333e-19)
(15.317 3.54466 1.52594e-18)
(15.2696 3.69994 -2.01801e-19)
(15.2086 3.87183 2.59957e-19)
(15.1344 4.05566 7.24049e-20)
(15.0482 4.24501 2.1584e-19)
(14.9523 4.43229 -7.83937e-21)
(14.8503 4.61024 1.44492e-19)
(14.7469 4.77206 2.92525e-20)
(14.6462 4.91596 4.43214e-20)
(14.5544 5.03097 -4.91743e-20)
(15.3244 2.9836 4.31316e-18)
(15.3267 2.98234 0)
(15.3267 2.98303 4.84513e-19)
(15.3272 2.98221 4.00819e-18)
(15.3321 2.98239 3.55104e-19)
(15.3422 2.98652 1.09918e-17)
(15.3574 2.99841 4.9979e-19)
(15.3762 3.02215 -7.74108e-18)
(15.3959 3.06135 -5.39834e-18)
(15.4128 3.11898 3.44808e-18)
(15.4232 3.19689 -4.87281e-18)
(15.4244 3.29611 -3.11545e-18)
(15.4142 3.41695 6.48231e-19)
(15.3917 3.55889 -3.25341e-18)
(15.3566 3.72056 -1.11423e-18)
(15.3085 3.89914 7.17269e-19)
(15.2475 4.0899 0)
(15.1742 4.28627 -2.19433e-19)
(15.0903 4.48043 0)
(14.9987 4.66492 8.21096e-20)
(14.9042 4.83247 8.81316e-20)
(14.8107 4.98184 -6.56071e-20)
(14.7251 5.09966 -2.39003e-20)
(15.3226 2.98539 -3.1611e-18)
(15.3259 2.98416 0)
(15.3251 2.9846 0)
(15.3251 2.98255 6.20102e-18)
(15.3312 2.98074 -5.08107e-18)
(15.344 2.98236 -6.35413e-18)
(15.3637 2.9917 -1.02849e-17)
(15.389 3.01353 8.57119e-18)
(15.4166 3.05189 0)
(15.4425 3.11016 4.29899e-18)
(15.4626 3.19014 4.34373e-18)
(15.4737 3.29268 1.54766e-18)
(15.4741 3.41768 0)
(15.463 3.56429 1.72372e-18)
(15.4403 3.73093 9.49823e-19)
(15.4057 3.91475 -5.15612e-19)
(15.3588 4.11107 -1.31147e-19)
(15.2995 4.31342 9.25238e-19)
(15.2288 4.51385 0)
(15.1493 4.70483 -3.78574e-19)
(15.0654 4.87851 1.41007e-19)
(14.9806 5.03418 4.07348e-19)
(14.9027 5.15588 -9.36561e-20)
(15.321 2.98758 2.66918e-19)
(15.3252 2.98628 0)
(15.3234 2.98653 0)
(15.3226 2.98322 -6.17399e-18)
(15.3294 2.97928 5.93581e-18)
(15.3441 2.97797 -8.71931e-19)
(15.3675 2.98409 6.10344e-18)
(15.3986 3.00311 6.04396e-19)
(15.4336 3.03957 -7.93288e-19)
(15.4684 3.09741 -4.83694e-18)
(15.4981 3.17843 -4.45892e-19)
(15.5196 3.2833 3.01644e-18)
(15.5307 3.41145 0)
(15.531 3.56162 -2.09061e-18)
(15.5206 3.73192 1.69764e-19)
(15.4995 3.91955 -2.19157e-19)
(15.4669 4.12004 6.5805e-19)
(15.4223 4.32721 -5.38091e-19)
(15.3661 4.53314 -7.36076e-19)
(15.3001 4.73032 -1.76692e-19)
(15.2286 4.91024 2.67233e-20)
(15.1542 5.0727 -2.594e-19)
(15.0856 5.199 -1.64994e-19)
(15.3198 2.99016 0)
(15.3246 2.98874 -3.05992e-19)
(15.3216 2.98873 3.68248e-18)
(15.3204 2.98406 -1.63975e-19)
(15.328 2.97787 -6.27522e-18)
(15.3445 2.97339 1.11496e-18)
(15.3717 2.97589 -2.06639e-19)
(15.4082 2.9916 -5.21112e-18)
(15.45 3.02546 0)
(15.4924 3.08199 -5.78603e-18)
(15.5302 3.16291 4.48891e-19)
(15.5604 3.2687 1.42552e-19)
(15.5812 3.39836 0)
(15.5926 3.5502 2.0568e-18)
(15.5949 3.72214 -1.50859e-18)
(15.5881 3.91154 0)
(15.571 4.11434 -6.50845e-19)
(15.5425 4.32486 0)
(15.5023 4.53535 6.04055e-19)
(15.4516 4.73847 0)
(15.3943 4.92484 -2.81576e-19)
(15.3323 5.09493 1.72183e-19)
(15.2744 5.22676 2.34691e-19)
(15.3188 2.99289 0)
(15.3242 2.99106 0)
(15.3193 2.99141 -3.81489e-20)
(15.3162 2.9861 -2.7378e-19)
(15.323 2.97831 7.01887e-18)
(15.3394 2.97112 6.57472e-18)
(15.3686 2.96993 0)
(15.4096 2.98155 4.88325e-18)
(15.4582 3.01155 0)
(15.5094 3.06541 1.17844e-17)
(15.5567 3.14523 3.86425e-18)
(15.5963 3.25161 -2.4876e-18)
(15.6257 3.38312 -2.22307e-19)
(15.6452 3.53744 0)
(15.6557 3.71183 1.59675e-18)
(15.6581 3.90335 1.19327e-18)
(15.6522 4.10804 -1.08687e-19)
(15.6366 4.32068 8.21363e-19)
(15.6107 4.5338 7.43543e-19)
(15.5744 4.74051 0)
(15.5309 4.93067 1.82528e-19)
(15.4811 5.10605 1.54751e-20)
(15.4336 5.24183 -1.36371e-19)
(15.3178 2.99623 8.02052e-20)
(15.324 2.99358 4.24756e-18)
(15.3174 2.9939 -3.3836e-18)
(15.3134 2.98762 0)
(15.3199 2.97819 1.38016e-19)
(15.3367 2.96868 2.72313e-19)
(15.3679 2.96462 -6.56136e-18)
(15.4124 2.97339 0)
(15.4657 3.00083 0)
(15.5228 3.053 -5.9292e-18)
(15.5761 3.13206 -4.12137e-18)
(15.622 3.2386 -8.84662e-20)
(15.6578 3.37084 2.12851e-18)
(15.6838 3.52606 -7.33106e-20)
(15.7016 3.70116 -2.19847e-19)
(15.7126 3.89308 2.1938e-19)
(15.7166 4.09802 -7.95141e-19)
(15.7126 4.31123 -7.58255e-19)
(15.699 4.52541 -8.44341e-19)
(15.6756 4.7342 -6.24108e-19)
(15.6449 4.92674 2.03469e-19)
(15.6064 5.10595 -9.0521e-19)
(15.5697 5.24477 1.63149e-19)
(15.3171 2.99984 -1.76037e-18)
(15.324 2.99614 -4.67742e-18)
(15.3156 2.99647 1.03605e-19)
(15.3108 2.98915 3.54016e-18)
(15.3172 2.97799 -1.88496e-19)
(15.3342 2.96614 -6.81823e-18)
(15.3671 2.95918 1.25754e-17)
(15.4148 2.96514 3.42922e-19)
(15.4725 2.99016 -2.48745e-19)
(15.535 3.04081 -6.39031e-18)
(15.5942 3.11927 1.37992e-19)
(15.6462 3.22599 -3.14612e-18)
(15.6882 3.35881 -1.90023e-18)
(15.7208 3.51454 0)
(15.746 3.68969 1.80686e-18)
(15.7657 3.88113 -2.53398e-18)
(15.7802 4.08528 -1.79124e-19)
(15.7882 4.29791 7.6975e-19)
(15.7881 4.51196 -9.5227e-21)
(15.7788 4.72167 7.87508e-19)
(15.7623 4.91546 0)
(15.737 5.09749 2.75579e-19)
(15.7127 5.23856 0)
(15.3169 3.00359 1.91886e-18)
(15.324 2.99867 -4.89431e-18)
(15.3139 2.99909 1.7164e-19)
(15.3084 2.99076 -6.92602e-18)
(15.3144 2.97791 3.79415e-18)
(15.3317 2.96376 -1.92375e-19)
(15.3661 2.9539 -6.46896e-18)
(15.4168 2.95703 9.8251e-20)
(15.4786 2.97958 -2.77356e-19)
(15.5463 3.0287 6.60436e-18)
(15.6112 3.10652 0)
(15.6692 3.21334 2.87904e-18)
(15.7173 3.34659 1.89008e-19)
(15.7565 3.50254 -8.39814e-20)
(15.7891 3.67725 -1.87488e-18)
(15.8176 3.86748 2.91259e-20)
(15.8427 4.06983 7.22424e-19)
(15.8633 4.28069 -1.27016e-18)
(15.8775 4.49321 0)
(15.8833 4.70242 -5.51909e-19)
(15.8826 4.89602 7.35897e-19)
(15.872 5.0795 0)
(15.8617 5.22172 -4.27817e-19)
(15.3169 3.00741 -4.09509e-19)
(15.324 3.00113 -1.0801e-19)
(15.3123 3.00175 1.69505e-19)
(15.3061 2.99245 3.3454e-18)
(15.3118 2.97797 -7.43275e-18)
(15.3291 2.96161 2.76844e-20)
(15.3649 2.94884 9.30123e-20)
(15.4185 2.94913 5.99367e-18)
(15.4841 2.96912 -1.33276e-19)
(15.5568 3.01659 0)
(15.6271 3.09363 4.64401e-18)
(15.6909 3.20039 9.65967e-20)
(15.7451 3.33388 6.68069e-20)
(15.7908 3.48979 5.59869e-21)
(15.8307 3.66364 -1.87932e-19)
(15.8681 3.85199 1.40737e-18)
(15.9041 4.05159 -8.11554e-19)
(15.9378 4.25942 -1.18847e-19)
(15.967 4.46888 -2.75887e-19)
(15.9891 4.67595 7.54168e-19)
(16.0054 4.86761 -5.27466e-19)
(16.011 5.05086 1.087e-18)
(16.016 5.19281 -7.0795e-19)
(15.3171 3.01124 -1.68056e-19)
(15.3239 3.00348 4.8829e-18)
(15.3107 3.00439 1.51744e-20)
(15.304 2.99417 3.52365e-18)
(15.3091 2.97815 7.52122e-18)
(15.3266 2.95963 -2.77462e-20)
(15.3636 2.94398 -9.51759e-20)
(15.4197 2.94139 1.40066e-19)
(15.489 2.95875 -4.76108e-18)
(15.5666 3.00445 3.55368e-18)
(15.642 3.08057 -4.88036e-18)
(15.7116 3.18708 -3.16346e-18)
(15.7718 3.3206 2.18555e-18)
(15.824 3.47619 0)
(15.8711 3.64875 1.05784e-18)
(15.9174 3.83453 0)
(15.9644 4.03034 1.08741e-18)
(16.0116 4.23378 6.84933e-19)
(16.0565 4.43847 -1.5056e-20)
(16.0958 4.64148 -8.50122e-19)
(16.1301 4.82909 -2.17341e-20)
(16.153 5.01001 3.75252e-21)
(16.1747 5.14987 -2.91412e-19)
(15.3175 3.01506 5.46925e-20)
(15.3238 3.00575 3.63685e-20)
(15.3093 3.00704 -1.42231e-20)
(15.302 2.99596 -3.53154e-18)
(15.3065 2.97846 -3.74552e-18)
(15.3239 2.95786 0)
(15.362 2.93932 6.55696e-20)
(15.4206 2.9338 -6.15015e-18)
(15.4934 2.94841 -1.00346e-19)
(15.5755 2.99219 -3.56404e-18)
(15.6561 3.0672 2.56067e-18)
(15.7314 3.17329 4.94853e-18)
(15.7976 3.30665 -2.12154e-18)
(15.8561 3.46167 1.45029e-18)
(15.9106 3.63252 1.02723e-19)
(15.9657 3.81503 1.18153e-20)
(16.0239 4.00593 -5.97901e-20)
(16.0847 4.20345 -2.16353e-19)
(16.1457 4.40141 1.48787e-19)
(16.2027 4.5981 -2.61024e-19)
(16.2558 4.77916 -2.1e-20)
(16.297 4.95518 2.26764e-19)
(16.3361 5.09067 0)
(15.3181 3.01881 5.78451e-20)
(15.3237 3.0079 0)
(15.3081 3.00964 0)
(15.3001 2.99775 -3.51412e-18)
(15.304 2.97888 -3.82105e-18)
(15.3212 2.95625 3.86071e-18)
(15.3602 2.93482 4.93352e-20)
(15.421 2.92633 -5.46434e-20)
(15.4971 2.93808 4.95622e-18)
(15.5837 2.9798 -5.8659e-20)
(15.6695 3.05353 1.29413e-19)
(15.7505 3.159 -1.68064e-18)
(15.8226 3.29201 0)
(15.8876 3.4462 -1.5499e-18)
(15.9493 3.61492 -2.2272e-18)
(16.0132 3.7934 -8.79713e-19)
(16.0824 3.97816 -5.41757e-19)
(16.1569 4.16806 0)
(16.234 4.35705 0)
(16.3089 4.54487 4.69542e-19)
(16.381 4.71642 3.42079e-19)
(16.4408 4.88452 -7.01768e-19)
(16.4977 5.01285 0)
(15.3187 3.02243 -4.23501e-19)
(15.3234 3.00995 1.73493e-20)
(15.307 3.0122 -6.14143e-21)
(15.2983 2.99956 3.49819e-18)
(15.3015 2.97939 7.58622e-18)
(15.3185 2.95478 -7.70911e-18)
(15.3583 2.93046 -5.00605e-20)
(15.4211 2.91892 -5.57258e-20)
(15.5004 2.92769 7.31861e-20)
(15.5914 2.96718 0)
(15.6822 3.03946 -2.54957e-18)
(15.7689 3.14412 1.76009e-18)
(15.8472 3.27659 0)
(15.9187 3.42972 0)
(15.9876 3.59588 1.05647e-18)
(16.06 3.76952 8.23141e-20)
(16.1399 3.94683 6.18987e-19)
(16.2277 4.12725 4.77264e-19)
(16.3205 4.30481 -7.12256e-19)
(16.4129 4.48089 -2.73405e-19)
(16.5037 4.6397 1.11112e-18)
(16.5816 4.79641 -1.06364e-18)
(16.6561 4.91443 7.20293e-19)
(15.3193 3.02604 2.7587e-19)
(15.3232 3.01193 2.2046e-18)
(15.306 3.01472 1.6803e-20)
(15.2966 3.0014 -2.22492e-20)
(15.299 2.98 -3.82268e-18)
(15.3158 2.95346 3.9252e-18)
(15.3561 2.92623 -3.46129e-20)
(15.4209 2.91157 -1.12115e-20)
(15.5031 2.91722 7.45383e-20)
(15.5984 2.95429 3.05892e-20)
(15.6943 3.02491 -4.0068e-20)
(15.7869 3.12854 -1.76389e-18)
(15.8714 3.2603 1.25197e-18)
(15.9495 3.41211 -5.05978e-20)
(16.0253 3.5753 0)
(16.106 3.7433 -7.19103e-20)
(16.196 3.91174 7.65662e-20)
(16.2963 4.08063 -4.82731e-19)
(16.404 4.24401 8.97454e-19)
(16.5128 4.40516 5.50253e-19)
(16.6209 4.54737 -3.81803e-19)
(16.7157 4.68893 -6.01095e-19)
(16.8067 4.79264 7.90374e-19)
(15.3199 3.0295 2.40617e-20)
(15.3228 3.01386 -2.21526e-18)
(15.3051 3.01718 0)
(15.2949 3.00325 0)
(15.2965 2.98071 0)
(15.3129 2.95227 0)
(15.3537 2.92211 3.51484e-20)
(15.4203 2.90424 -1.73694e-20)
(15.5054 2.9066 -3.79263e-20)
(15.605 2.94105 3.11975e-20)
(15.706 3.00979 -4.08715e-20)
(15.8044 3.11218 0)
(15.8954 3.24301 -2.45451e-18)
(15.9799 3.39329 5.49419e-20)
(16.0626 3.5531 -1.12137e-19)
(16.1507 3.71461 9.83782e-19)
(16.25 3.87274 -7.80149e-20)
(16.3617 4.0281 1.35911e-19)
(16.4828 4.17481 -1.6981e-19)
(16.6062 4.3181 2.81331e-19)
(16.7297 4.44107 -4.09375e-19)
(16.8391 4.56388 0)
(16.9445 4.65207 4.19071e-19)
(15.3205 3.03274 -5.86304e-19)
(15.3225 3.01576 -1.0282e-18)
(15.3044 3.01958 -1.09338e-20)
(15.2933 3.00514 1.7715e-18)
(15.2941 2.98153 1.91591e-18)
(15.31 2.95124 1.9693e-20)
(15.351 2.91812 -3.85913e-18)
(15.4191 2.89693 3.40851e-18)
(15.5071 2.89584 2.64217e-18)
(15.6108 2.92742 0)
(15.7171 2.99403 4.36796e-20)
(15.8215 3.09491 -1.93109e-18)
(15.919 3.22462 1.27975e-18)
(16.0101 3.37312 8.02247e-19)
(16.0993 3.52916 5.99498e-19)
(16.1944 3.68344 0)
(16.3016 3.83001 0)
(16.4229 3.96986 -4.98611e-19)
(16.555 4.09752 -5.74561e-19)
(16.6902 4.21985 2.8459e-19)
(16.8258 4.32096 2.16043e-19)
(16.9465 4.42082 2.86743e-19)
(17.0629 4.49122 -4.11092e-19)
(15.3211 3.03578 2.99898e-19)
(15.3221 3.0176 1.03211e-18)
(15.3038 3.0219 -8.41917e-21)
(15.2918 3.007 1.37472e-20)
(15.2917 2.98235 -1.91652e-18)
(15.3072 2.9502 -2.00508e-18)
(15.3484 2.91406 1.86809e-18)
(15.4181 2.88946 -3.38134e-18)
(15.5087 2.88477 -2.6373e-18)
(15.6165 2.9133 -5.94114e-20)
(15.7279 2.97756 0)
(15.8383 3.07667 1.87119e-18)
(15.9424 3.20498 1.27434e-18)
(16.04 3.35147 -8.49946e-19)
(16.1353 3.50343 -5.16047e-19)
(16.236 3.64983 -2.21222e-19)
(16.3495 3.7836 -1.69408e-19)
(16.4779 3.90606 9.81503e-19)
(16.6181 4.01249 0)
(16.7617 4.11104 0)
(16.9051 4.18809 2.09427e-19)
(17.0331 4.26189 -5.45603e-19)
(17.1561 4.31233 -3.98948e-19)
(15.3216 3.03863 -2.7858e-19)
(15.3218 3.01946 0)
(15.3031 3.02426 0)
(15.2902 3.00912 -3.55515e-18)
(15.2891 2.98363 1.90945e-18)
(15.3036 2.94977 2.05248e-18)
(15.3446 2.91064 -2.25471e-20)
(15.4154 2.88237 1.71073e-18)
(15.5087 2.87363 6.29415e-20)
(15.6208 2.89862 -2.07434e-18)
(15.7378 2.96004 4.52445e-20)
(15.8546 3.057 -5.91313e-20)
(15.9659 3.18372 -1.2696e-18)
(16.0701 3.32812 8.57158e-19)
(16.171 3.47594 5.49673e-19)
(16.276 3.61405 -4.28775e-19)
(16.3933 3.73406 3.9436e-19)
(16.5256 3.83752 -4.83382e-19)
(16.67 3.92092 0)
(16.8174 3.9935 0)
(16.9636 4.04493 -1.92484e-19)
(17.094 4.09124 1.33182e-19)
(17.2185 4.12059 -3.82327e-19)
(15.322 3.04121 2.06662e-20)
(15.3215 3.0209 -9.87074e-19)
(15.303 3.02604 0)
(15.2894 3.01013 8.85753e-19)
(15.288 2.98336 -3.87508e-18)
(15.3026 2.94747 2.03257e-20)
(15.3442 2.90532 -5.79092e-20)
(15.4166 2.8739 -1.77097e-18)
(15.5124 2.86201 4.05049e-20)
(15.6273 2.88398 2.07449e-18)
(15.749 2.94286 -4.39121e-20)
(15.8708 3.03749 -9.51955e-19)
(15.9882 3.16216 -8.08111e-20)
(16.098 3.30396 -7.99477e-19)
(16.2036 3.4471 -6.23216e-19)
(16.3116 3.57636 5.84566e-20)
(16.4306 3.68189 0)
(16.564 3.76538 -6.35276e-20)
(16.7087 3.82489 8.18928e-20)
(16.8553 3.87076 0)
(16.9989 3.89636 1.80443e-19)
(17.1272 3.91596 -1.29821e-19)
(17.2478 3.9247 0)
(15.3226 3.04397 2.58511e-19)
(15.3211 3.02357 9.85119e-19)
(15.3019 3.02964 0)
(15.2871 3.01481 8.90648e-19)
(15.284 2.98839 3.88919e-18)
(15.297 2.95168 2.08385e-18)
(15.3376 2.90651 3.98822e-18)
(15.4108 2.87016 0)
(15.5092 2.85184 2.86433e-18)
(15.6292 2.86822 -2.0998e-18)
(15.7571 2.92262 1.47224e-18)
(15.8864 3.01401 9.80783e-19)
(16.0121 3.13682 -1.01484e-20)
(16.129 3.27716 1.32138e-20)
(16.2392 3.41752 -5.65502e-19)
(16.3478 3.53958 4.04288e-19)
(16.4643 3.63109 0)
(16.5931 3.69351 2.14335e-19)
(16.732 3.72728 0)
(16.872 3.74441 0)
(17.0074 3.74291 -1.75434e-19)
(17.1283 3.73618 -3.63757e-19)
(17.2396 3.7245 3.10983e-19)
(15.3226 3.04586 0)
(15.3207 3.02503 -3.27275e-23)
(15.3016 3.03142 1.11097e-22)
(15.2863 3.01688 -9.11385e-19)
(15.2828 2.99045 -9.60162e-19)
(15.2953 2.95313 -2.08338e-18)
(15.3358 2.9063 -2.00975e-18)
(15.4095 2.86716 -1.98814e-21)
(15.5095 2.84509 -1.40062e-18)
(15.6321 2.85747 -3.71826e-20)
(15.7641 2.90802 2.98019e-20)
(15.8986 2.9959 0)
(16.0309 3.11585 1.01808e-20)
(16.154 3.25349 -1.32428e-20)
(16.2687 3.39001 8.21949e-19)
(16.3777 3.50457 2.34708e-20)
(16.4901 3.58248 0)
(16.6114 3.62475 4.38371e-20)
(16.7402 3.63414 -7.25172e-20)
(16.8684 3.62418 0)
(16.9907 3.59734 0)
(17.0994 3.56694 2.1952e-19)
(17.1966 3.53675 -1.52499e-19)
(15.3228 3.04772 1.41781e-19)
(15.3204 3.0264 9.90818e-19)
(15.3013 3.03306 0)
(15.2855 3.01873 9.12316e-19)
(15.2815 2.9922 -9.96149e-19)
(15.2936 2.95422 -2.17829e-18)
(15.334 2.90575 2.10295e-18)
(15.4082 2.86393 -1.86445e-18)
(15.5098 2.83835 -1.46401e-18)
(15.635 2.84688 3.2295e-18)
(15.7712 2.89364 -1.50279e-18)
(15.9111 2.97794 -1.01984e-18)
(16.0501 3.09488 -6.70421e-19)
(16.1795 3.22979 0)
(16.2981 3.36291 -2.76138e-19)
(16.4058 3.47114 3.61312e-19)
(16.5107 3.53734 1.76022e-20)
(16.6197 3.56195 -2.21262e-19)
(16.733 3.5499 0)
(16.8439 3.51594 0)
(16.9487 3.46706 0)
(17.0422 3.41814 -3.03771e-19)
(17.1237 3.37445 2.6783e-19)
(15.3231 3.04952 -1.41968e-19)
(15.3202 3.02773 1.62119e-20)
(15.301 3.03464 0)
(15.2847 3.02052 -9.59098e-19)
(15.2803 2.9939 -1.05417e-22)
(15.2919 2.95526 3.29932e-18)
(15.3321 2.90513 -4.26173e-18)
(15.4068 2.86064 5.68127e-18)
(15.5099 2.83156 -1.57604e-21)
(15.6378 2.8362 -1.08742e-18)
(15.7783 2.87908 -7.84824e-19)
(15.9236 2.95963 1.02105e-18)
(16.0696 3.0734 6.61561e-19)
(16.2054 3.20571 -4.2301e-19)
(16.3275 3.33622 4.22118e-21)
(16.4325 3.43995 -3.65064e-19)
(16.5271 3.49715 0)
(16.6196 3.50731 0)
(16.7123 3.47713 1.18635e-19)
(16.8013 3.42273 0)
(16.8865 3.35625 0)
(16.9648 3.29478 4.78019e-20)
(17.0307 3.24193 1.13314e-19)
(15.3234 3.05127 0)
(15.3199 3.02904 -1.00941e-18)
(15.3008 3.0362 2.41666e-23)
(15.284 3.02231 -2.90897e-20)
(15.2791 2.99562 -8.82274e-23)
(15.2903 2.95632 -2.26783e-18)
(15.3302 2.90456 2.15868e-18)
(15.4053 2.85738 -3.81779e-18)
(15.5099 2.82476 -1.56072e-18)
(15.6403 2.82541 0)
(15.7851 2.86426 7.81024e-19)
(15.9357 2.94083 2.02672e-21)
(16.0887 3.05125 -2.81135e-23)
(16.2309 3.18112 4.20364e-19)
(16.3564 3.30999 0)
(16.4579 3.41146 1.6363e-19)
(16.5401 3.46304 -3.39224e-21)
(16.6123 3.46269 0)
(16.6803 3.41869 -1.17976e-19)
(16.7448 3.34858 0)
(16.8103 3.26889 0)
(16.8724 3.19743 0)
(16.9204 3.1352 -7.82452e-21)
(15.3237 3.05296 0)
(15.3197 3.03032 5.30453e-19)
(15.3005 3.03774 -4.74403e-24)
(15.2833 3.0241 9.90156e-19)
(15.278 2.99736 1.11232e-18)
(15.2886 2.95744 2.32584e-18)
(15.3283 2.90407 0)
(15.4037 2.85418 -1.97926e-18)
(15.5096 2.81796 3.14784e-18)
(15.6425 2.8145 -1.18145e-23)
(15.7914 2.84915 8.03779e-19)
(15.9474 2.92149 -5.3001e-19)
(16.1074 3.02836 0)
(16.2561 3.15594 0)
(16.3851 3.28424 2.52355e-19)
(16.4828 3.38601 -1.60363e-19)
(16.5509 3.43603 0)
(16.5999 3.43027 -1.15814e-19)
(16.6399 3.37786 -8.04343e-20)
(16.6779 3.29628 0)
(16.7208 3.20373 1.51373e-21)
(16.7606 3.11962 1.87095e-22)
(16.7878 3.04605 -4.96573e-20)
(15.3241 3.05459 3.78847e-24)
(15.3195 3.03157 -1.07628e-18)
(15.3004 3.03925 -1.23978e-23)
(15.2827 3.02588 0)
(15.2769 2.99912 2.83613e-20)
(15.287 2.95862 -2.37934e-18)
(15.3264 2.90365 -4.83397e-22)
(15.4019 2.85104 1.98028e-18)
(15.5092 2.81118 -1.58654e-18)
(15.6444 2.80349 1.1556e-18)
(15.7973 2.83376 8.37713e-21)
(15.9585 2.90161 1.06551e-18)
(16.1255 3.0047 -6.90611e-19)
(16.2812 3.13012 1.68185e-21)
(16.4141 3.25893 -4.98976e-19)
(16.5081 3.36383 1.42844e-19)
(16.5615 3.41711 -5.29779e-21)
(16.585 3.41225 1.19215e-19)
(16.5938 3.35692 7.94604e-20)
(16.6002 3.26514 0)
(16.6119 3.15727 2.76701e-20)
(16.6245 3.05996 0)
(16.6328 2.97825 -1.05632e-20)
(15.3245 3.05616 0)
(15.3193 3.0328 5.45807e-19)
(15.3002 3.04073 4.6356e-19)
(15.2821 3.02766 5.32889e-23)
(15.2759 3.00092 -2.31152e-18)
(15.2853 2.95986 1.20323e-18)
(15.3243 2.90331 0)
(15.4 2.84797 0)
(15.5084 2.80442 -8.35322e-22)
(15.6459 2.79237 -1.155e-18)
(15.8028 2.81808 7.79357e-21)
(15.9691 2.88119 -5.34765e-19)
(16.1433 2.98021 6.87247e-19)
(16.3062 3.10353 0)
(16.4439 3.23393 2.4486e-19)
(16.5352 3.34495 -1.37879e-19)
(16.5742 3.40707 5.8822e-20)
(16.5707 3.41008 5.1047e-21)
(16.5436 3.35631 0)
(16.5098 3.25608 0)
(16.4845 3.13779 -1.58995e-20)
(16.4722 3.03664 -2.49322e-20)
(16.4647 2.95414 2.78954e-20)
(15.3248 3.05768 0)
(15.3191 3.034 -1.98992e-23)
(15.3001 3.04218 -4.63968e-19)
(15.2815 3.02944 5.52035e-19)
(15.2748 3.00274 1.16949e-18)
(15.2836 2.96116 2.55187e-22)
(15.3222 2.90307 1.18463e-18)
(15.3979 2.84498 1.02822e-18)
(15.5075 2.79768 -1.64568e-18)
(15.6471 2.78116 0)
(15.8079 2.80213 7.95659e-21)
(15.9793 2.8602 -5.46401e-19)
(16.1606 2.95484 0)
(16.3315 3.07604 -6.08335e-21)
(16.4751 3.20901 2.41625e-19)
(16.5653 3.32922 0)
(16.5916 3.40605 -1.97323e-20)
(16.5601 3.42391 2.58695e-21)
(16.4921 3.37802 9.98083e-21)
(16.414 3.28004 0)
(16.3556 3.16905 0)
(16.3224 3.07738 1.03225e-20)
(16.2918 2.99655 -2.2961e-20)
(15.3252 3.05914 -8.19221e-24)
(15.319 3.03518 1.08184e-23)
(15.2999 3.04361 0)
(15.2809 3.03122 5.7607e-19)
(15.2737 3.00458 -6.40159e-22)
(15.2819 2.96252 5.19257e-22)
(15.32 2.9029 -1.18489e-18)
(15.3957 2.84207 -1.02991e-18)
(15.5063 2.79098 1.64675e-18)
(15.6479 2.76986 -1.18657e-18)
(15.8125 2.7859 -8.30967e-19)
(15.989 2.83864 5.50523e-19)
(16.1775 2.92854 3.48433e-19)
(16.357 3.04745 2.06984e-19)
(16.508 3.18376 -2.31535e-19)
(16.5998 3.31602 7.91475e-21)
(16.6161 3.4133 -5.11364e-20)
(16.5573 3.45402 4.35995e-21)
(16.4483 3.42874 -1.68656e-20)
(16.3321 3.3541 -8.45914e-21)
(16.2464 3.26781 1.06462e-20)
(16.1799 3.185 0)
(16.1042 3.0959 -7.55909e-21)
(15.3256 3.06054 0)
(15.3188 3.03633 5.98682e-19)
(15.2998 3.04502 5.00307e-19)
(15.2803 3.03299 -5.53551e-19)
(15.2726 3.00646 6.19872e-19)
(15.2802 2.96394 0)
(15.3177 2.90283 1.39638e-21)
(15.3933 2.83924 -1.83397e-21)
(15.5049 2.78431 8.41433e-19)
(15.6485 2.75848 1.79046e-18)
(15.8167 2.7694 -8.42764e-19)
(15.9982 2.81652 -4.31482e-21)
(16.194 2.90122 4.81979e-21)
(16.3828 3.01752 -2.12706e-19)
(16.5432 3.15765 0)
(16.64 3.30428 9.55717e-20)
(16.6506 3.42748 -2.03278e-20)
(16.569 3.50165 -4.61819e-22)
(16.427 3.51575 -2.91993e-20)
(16.2798 3.48218 -6.08835e-21)
(16.1524 3.41822 2.91971e-20)
(16.0204 3.32803 -2.98673e-20)
(15.8747 3.22019 -2.44243e-20)
(15.3259 3.06188 3.09035e-20)
(15.3186 3.03745 1.1111e-20)
(15.2997 3.04639 -5.00763e-19)
(15.2798 3.03476 -5.75927e-19)
(15.2716 3.00835 -1.25121e-18)
(15.2785 2.96543 -1.30247e-18)
(15.3154 2.90285 -1.41256e-21)
(15.3908 2.8365 1.85517e-21)
(15.5033 2.77769 -8.41977e-19)
(15.6487 2.74704 -6.012e-19)
(15.8204 2.75264 1.70284e-18)
(16.0069 2.79382 -5.70218e-19)
(16.2099 2.87284 -3.58274e-19)
(16.4088 2.98599 2.18327e-19)
(16.5808 3.12995 -5.55259e-21)
(16.687 3.29252 -8.48675e-20)
(16.6984 3.44695 1.41903e-20)
(16.6041 3.56723 4.43623e-20)
(16.4393 3.63731 1.44738e-20)
(16.2525 3.64767 0)
(16.0486 3.5944 -5.79032e-20)
(15.827 3.49717 5.38764e-20)
(15.6134 3.38951 -8.5871e-20)
(15.3263 3.06315 -3.09164e-20)
(15.3185 3.03853 -9.21393e-19)
(15.2996 3.04774 -5.22284e-19)
(15.2792 3.03653 5.98395e-19)
(15.2706 3.01028 6.31175e-19)
(15.2767 2.96698 1.30315e-18)
(15.3131 2.90296 1.24909e-18)
(15.3882 2.83386 0)
(15.5015 2.77111 8.61999e-19)
(15.6487 2.73553 -6.15613e-19)
(15.8238 2.73564 -8.56776e-19)
(16.0151 2.77055 5.70168e-19)
(16.2253 2.84331 0)
(16.4351 2.95256 -2.05895e-19)
(16.621 3.0998 9.78805e-20)
(16.7416 3.27894 -4.11557e-20)
(16.7632 3.46925 -8.35724e-21)
(16.6697 3.64655 -2.03417e-20)
(16.4873 3.78091 1.25745e-19)
(16.2414 3.83588 -8.3739e-20)
(15.9462 3.81623 0)
(15.666 3.77002 2.10733e-19)
(15.4316 3.72727 -3.03011e-19)
(15.3267 3.06437 0)
(15.3184 3.03959 3.10876e-19)
(15.2995 3.04906 5.22503e-19)
(15.2787 3.03829 -5.98958e-19)
(15.2696 3.01223 -1.53074e-22)
(15.275 2.96859 5.51873e-22)
(15.3107 2.90317 -6.16799e-19)
(15.3855 2.83131 0)
(15.4995 2.7646 -8.6255e-19)
(15.6483 2.72397 -7.74367e-21)
(15.8266 2.71839 0)
(16.0228 2.74673 -2.9508e-19)
(16.2398 2.81258 0)
(16.4615 2.9169 1.23379e-20)
(16.6637 3.06625 -2.33815e-19)
(16.8046 3.26142 2.74329e-20)
(16.8474 3.49016 -1.2243e-20)
(16.7688 3.72999 7.18892e-20)
(16.5726 3.93316 -5.84508e-20)
(16.2728 4.05926 -1.45925e-19)
(15.9418 4.15478 2.34793e-19)
(15.6897 4.26102 -2.44449e-19)
(15.4824 4.35188 8.10136e-19)
(15.327 3.06553 -3.80509e-20)
(15.3182 3.04062 3.21276e-19)
(15.2994 3.05035 -2.71904e-19)
(15.2783 3.04004 -3.27978e-22)
(15.2686 3.01421 6.93992e-22)
(15.2733 2.97026 -1.38346e-21)
(15.3083 2.90348 -6.32922e-19)
(15.3827 2.82886 4.33815e-21)
(15.4973 2.75815 -3.16222e-21)
(15.6477 2.71237 -7.97872e-21)
(15.8289 2.70092 -4.45021e-19)
(16.0298 2.72237 2.85874e-19)
(16.2535 2.78059 1.1898e-20)
(16.4877 2.87872 -1.26144e-20)
(16.7085 3.02827 1.31194e-19)
(16.8759 3.23742 0)
(16.9516 3.50351 -7.2033e-21)
(16.9023 3.80532 -5.56346e-20)
(16.7106 4.08676 1.01088e-19)
(16.4176 4.33904 -2.9993e-19)
(16.1625 4.64253 1.57533e-19)
(16.0028 4.9621 -4.64965e-20)
(15.8 5.18897 -5.47456e-19)
(15.3274 3.06663 7.85591e-20)
(15.3181 3.04162 -3.21512e-19)
(15.2993 3.05161 -5.40228e-21)
(15.2778 3.04179 0)
(15.2676 3.01621 0)
(15.2716 2.972 -6.88466e-19)
(15.3059 2.90389 -6.48542e-19)
(15.3798 2.82652 0)
(15.4949 2.75177 -3.66825e-21)
(15.6467 2.70076 6.37112e-19)
(15.8307 2.68324 4.52348e-19)
(16.0361 2.69749 -9.30091e-21)
(16.2661 2.74731 -1.16714e-20)
(16.5134 2.83774 2.80149e-20)
(16.7548 2.98487 -1.66594e-20)
(16.955 3.2041 0)
(17.0745 3.502 -2.60655e-21)
(17.0718 3.86027 -3.18062e-20)
(16.9281 4.23376 2.62244e-19)
(16.7415 4.65951 -1.3599e-19)
(16.645 5.19127 -2.98658e-19)
(16.5424 5.67728 4.43609e-19)
(16.2483 5.96807 0)
(15.3278 3.06767 -8.33728e-20)
(15.318 3.04259 2.48698e-23)
(15.2993 3.05284 2.7777e-19)
(15.2774 3.04354 0)
(15.2667 3.01823 0)
(15.2699 2.97381 -8.04591e-21)
(15.3034 2.90439 1.30463e-18)
(15.3768 2.82429 0)
(15.4922 2.74547 4.53038e-19)
(15.6454 2.68913 0)
(15.8319 2.66536 0)
(16.0417 2.67213 -9.53232e-21)
(16.2774 2.71271 1.23063e-20)
(16.5383 2.79373 1.09651e-19)
(16.8017 2.93512 1.72654e-20)
(17.0399 3.15851 -3.50086e-21)
(17.2133 3.47827 -2.26191e-21)
(17.2796 3.88329 0)
(17.2445 4.35524 -8.3615e-20)
(17.2476 4.95601 0)
(17.3039 5.64895 -6.57134e-20)
(17.1393 6.18266 -9.7588e-20)
(16.6334 6.43825 0)
(15.3281 3.06865 6.54073e-20)
(15.3179 3.04353 -1.68401e-19)
(15.2992 3.05405 0)
(15.2769 3.04527 3.27573e-19)
(15.2658 3.02028 -3.47182e-19)
(15.2682 2.97567 6.98193e-19)
(15.3009 2.905 -6.57198e-19)
(15.3737 2.82218 -5.71874e-19)
(15.4894 2.73926 -4.50042e-19)
(15.6437 2.67751 -5.33472e-21)
(15.8324 2.64731 6.93266e-21)
(16.0465 2.64632 3.17311e-19)
(16.2873 2.6768 1.22605e-20)
(16.5621 2.74654 -1.52906e-19)
(16.8479 2.87819 1.80202e-20)
(17.1283 3.09791 0)
(17.364 3.42606 0)
(17.5247 3.86336 0)
(17.6536 4.42059 0)
(17.8714 5.14297 3.53532e-20)
(17.994 5.88747 3.26754e-19)
(17.6342 6.37053 -3.00727e-19)
(16.8234 6.53151 0)
(15.3285 3.06957 -2.25506e-20)
(15.3178 3.04443 3.39457e-19)
(15.2992 3.05523 0)
(15.2765 3.047 -3.27954e-19)
(15.2649 3.02235 7.00525e-19)
(15.2665 2.9776 0)
(15.2983 2.90572 0)
(15.3704 2.82019 5.69732e-19)
(15.4863 2.73315 0)
(15.6418 2.66591 -3.27278e-19)
(15.8324 2.62911 -2.39345e-19)
(16.0506 2.62013 -1.55778e-19)
(16.2956 2.6396 2.03017e-19)
(16.5841 2.69615 0)
(16.892 2.81351 0)
(17.2167 3.02027 8.07178e-21)
(17.5213 3.34066 -1.01535e-20)
(17.799 3.78933 0)
(18.1239 4.39756 2.68596e-20)
(18.5263 5.16173 -3.47496e-20)
(18.5964 5.85579 -2.43967e-19)
(17.9359 6.23502 3.04978e-19)
(16.7789 6.29949 0)
(15.3289 3.07043 1.97911e-23)
(15.3177 3.04531 -3.44636e-19)
(15.2992 3.05638 -1.02692e-22)
(15.2762 3.04872 -1.6937e-19)
(15.264 3.02444 -3.53347e-19)
(15.2649 2.9796 3.61997e-19)
(15.2957 2.90654 1.15594e-21)
(15.3671 2.81833 -2.93677e-19)
(15.483 2.72713 4.75963e-19)
(15.6394 2.65435 3.2783e-19)
(15.8317 2.61077 2.32438e-19)
(16.0538 2.5936 -1.6164e-19)
(16.3019 2.60118 -2.03062e-19)
(16.6039 2.64262 -1.56307e-20)
(16.9323 2.74087 1.99746e-20)
(17.3014 2.92454 1.18889e-20)
(17.6781 3.21908 -1.49284e-20)
(18.0859 3.65078 0)
(18.6078 4.25825 -2.65943e-20)
(19.1319 4.98572 0)
(19.0526 5.5737 2.35059e-20)
(18.0375 5.84058 0)
(16.5311 5.82987 9.69916e-21)
(15.3292 3.07124 1.27119e-20)
(15.3176 3.04615 1.73582e-19)
(15.2992 3.0575 1.53367e-19)
(15.2758 3.05043 -2.42429e-21)
(15.2631 3.02656 -5.94454e-22)
(15.2632 2.98166 5.37958e-21)
(15.2931 2.90747 -3.44341e-19)
(15.3636 2.81659 -5.07457e-21)
(15.4795 2.72122 -4.69037e-19)
(15.6368 2.64283 -5.50494e-21)
(15.8303 2.59231 2.43323e-19)
(16.0562 2.56681 0)
(16.3062 2.56162 -1.33552e-20)
(16.621 2.58617 1.71481e-20)
(16.9672 2.66052 4.20986e-20)
(17.378 2.81073 0)
(17.8252 3.06018 0)
(18.3631 3.44149 -6.43285e-21)
(19.0557 3.99062 0)
(19.6269 4.61604 -5.70179e-20)
(19.3411 5.07583 6.58238e-20)
(17.9757 5.25866 -4.81339e-21)
(16.1468 5.21212 -2.82436e-19)
(15.3295 3.07198 -2.58562e-20)
(15.3175 3.04696 -8.93787e-20)
(15.2992 3.05859 -2.31518e-19)
(15.2755 3.05214 1.73207e-19)
(15.2623 3.0287 1.84041e-19)
(15.2615 2.98378 -5.5386e-19)
(15.2904 2.90851 3.4493e-19)
(15.36 2.81499 2.91863e-19)
(15.4758 2.71543 7.36938e-21)
(15.6337 2.63139 -5.14291e-21)
(15.8282 2.57377 -2.36286e-19)
(16.0577 2.53985 -8.54731e-20)
(16.3082 2.52106 9.2497e-20)
(16.6348 2.52714 9.21171e-20)
(16.995 2.57312 -4.21199e-20)
(17.4419 2.68005 0)
(17.9524 2.86516 0)
(18.6064 3.16104 -2.57381e-20)
(19.4271 3.60009 2.0606e-20)
(19.9853 4.08031 0)
(19.4776 4.40913 4.7067e-21)