/*--------------------------------*- C++ -*----------------------------------*\
  =========                 |
  \\      /  F ield         | OpenFOAM: The Open Source CFD Toolbox
   \\    /   O peration     | Website:  https://openfoam.org
    \\  /    A nd           | Version:  7
     \\/     M anipulation  |
\*---------------------------------------------------------------------------*/
FoamFile
{
    version     2.0;
    format      ascii;
    class       volScalarField;
    location    "50";
    object      yPlus;
}
// * * * * * * * * * * * * * * * * * * * * * * * * * * * * * * * * * * * * * //

dimensions      [0 0 0 0 0 0 0];

internalField   uniform 0;

boundaryField
{
    inlet
    {
        type            calculated;
        value           uniform 0;
    }
    outlet
    {
        type            calculated;
        value           uniform 0;
    }
    suction_side
    {
        type            calculated;
        value           nonuniform List<scalar> 
56
(
7.49596
7.92124
7.86977
8.33787
8.36683
9.05429
9.60008
9.9583
11.2387
12.7286
13.6432
19.4405
28.7969
36.1272
34.3416
26.1376
18.5677
28.4633
40.2891
41.7974
42.8239
43.8386
42.939
40.8191
37.7643
34.1856
30.0872
25.419
20.3318
16.1902
17.5198
19.5375
20.4717
20.5465
20.3996
20.7079
21.8683
22.0029
25.8742
29.8778
35.2154
35.2828
29.4126
19.3736
17.114
21.4601
24.5004
25.9703
25.8456
23.2852
19.4093
17.6736
20.1867
20.9257
21.0681
21.9415
)
;
    }
    pressure_side
    {
        type            calculated;
        value           nonuniform List<scalar> 
56
(
46.0633
44.8865
43.0767
42.8584
41.8777
41.2043
40.427
39.6822
39.124
38.8137
38.5863
38.4264
38.3248
38.2461
38.1645
38.1295
38.1103
38.1002
38.0993
38.1128
38.1388
38.1615
38.1315
38.0113
37.8081
37.5767
37.3853
37.394
37.6483
38.219
39.034
39.9613
40.7914
41.0218
40.414
39.2266
37.491
35.0541
31.6128
27.2323
22.2897
17.0233
11.6954
7.74139
6.4439
5.32516
5.11427
5.33397
5.74181
5.99229
6.6638
6.82771
7.29032
7.41619
7.50427
7.54943
)
;
    }
    trailing_edge
    {
        type            calculated;
        value           nonuniform List<scalar> 2(145.531 92.6003);
    }
    defaultFaces
    {
        type            empty;
    }
}


// ************************************************************************* //
