/*--------------------------------*- C++ -*----------------------------------*\
  =========                 |
  \\      /  F ield         | OpenFOAM: The Open Source CFD Toolbox
   \\    /   O peration     | Website:  https://openfoam.org
    \\  /    A nd           | Version:  7
     \\/     M anipulation  |
\*---------------------------------------------------------------------------*/
FoamFile
{
    version     2.0;
    format      ascii;
    class       volScalarField;
    location    "129";
    object      k;
}
// * * * * * * * * * * * * * * * * * * * * * * * * * * * * * * * * * * * * * //

dimensions      [0 2 -2 0 0 0 0];

internalField   nonuniform List<scalar> 
12842
(
0.0056974
0.00505527
0.00470528
0.00443957
0.00429282
0.00417576
0.00410994
0.0040304
0.0040008
0.00396682
0.00396983
0.00398924
0.00403948
0.00411349
0.00419739
0.0042487
0.0043203
0.00436465
0.00440515
0.00442266
0.00443843
0.00444451
0.00445308
0.0056318
0.00503204
0.00467566
0.00441573
0.00425706
0.00413438
0.00409206
0.00402494
0.00399277
0.00396217
0.00396706
0.00398995
0.00404553
0.00411938
0.00420969
0.00426394
0.00432651
0.00436798
0.00440998
0.00442872
0.00444562
0.00445088
0.00445692
0.00559148
0.00493079
0.00460837
0.0043755
0.00423057
0.00410014
0.00404952
0.00400194
0.00397564
0.00395275
0.00396171
0.00399115
0.00405839
0.00413844
0.00421678
0.00427611
0.00434214
0.0043727
0.00441276
0.00443017
0.00444918
0.00445488
0.00446143
0.00552176
0.00487823
0.00453727
0.00432195
0.00419811
0.00408086
0.00403339
0.00398569
0.00396273
0.00394538
0.00395683
0.00399146
0.00406726
0.00416287
0.00424049
0.00428907
0.00435613
0.00438676
0.004423
0.00443614
0.00445168
0.00445734
0.00446543
0.00546075
0.00478305
0.0044727
0.00426735
0.00415719
0.00405028
0.0040033
0.00396188
0.00394574
0.00393733
0.00395256
0.00399536
0.00408311
0.00418254
0.00425611
0.00431145
0.00437194
0.00439573
0.00442803
0.00444176
0.00445852
0.00446211
0.00446807
0.00538449
0.00472428
0.00440711
0.00422019
0.00412329
0.00403178
0.00399085
0.0039487
0.00393265
0.00392988
0.00394908
0.00399832
0.00410011
0.00420899
0.00427472
0.00432461
0.0043857
0.00440948
0.00444039
0.00444783
0.00446107
0.00446811
0.00447571
0.00531877
0.00464306
0.00434965
0.00417044
0.00408577
0.00400474
0.00396837
0.00393143
0.00392056
0.00392402
0.00394607
0.00400378
0.0041178
0.00423216
0.00429694
0.00434747
0.00439979
0.00441817
0.00444529
0.0044581
0.00446816
0.0044726
0.00448027
0.00524389
0.00458978
0.00429641
0.00413189
0.00405572
0.0039879
0.00395755
0.00392047
0.00391033
0.00391746
0.00394533
0.00400875
0.00413919
0.00425473
0.00431016
0.00435999
0.00441
0.00442944
0.00445607
0.00446374
0.00447557
0.00448345
0.00449249
0.0051766
0.00452491
0.00425057
0.0040935
0.00402741
0.00396778
0.00394256
0.00390925
0.00390249
0.00391289
0.00394501
0.00401535
0.00415874
0.00427621
0.00432892
0.0043769
0.0044179
0.00443516
0.00445889
0.00447054
0.00448328
0.0044887
0.00449831
0.00509352
0.00446983
0.00420606
0.00406305
0.00400441
0.00395463
0.00393382
0.00390194
0.00389707
0.00390971
0.00394554
0.00402439
0.00418354
0.00429466
0.00434074
0.00438649
0.00442168
0.00443973
0.00446362
0.00447463
0.00448774
0.00449868
0.00450993
0.00501763
0.00441297
0.00416762
0.00403283
0.00398297
0.00393942
0.00392246
0.00389442
0.00389255
0.00390707
0.0039481
0.00402931
0.00420023
0.00431176
0.00435541
0.00439757
0.00442731
0.00444618
0.00446673
0.00448201
0.00449625
0.0045054
0.00451669
0.00493595
0.00436317
0.00413087
0.00400707
0.00396337
0.0039273
0.00391398
0.00388866
0.0038889
0.00390523
0.00395276
0.00404111
0.00422524
0.00432687
0.00436598
0.00440534
0.00443106
0.0044523
0.00447355
0.00449045
0.00450292
0.00451812
0.0045328
0.00486045
0.00431514
0.00409915
0.00398194
0.00394553
0.00391418
0.00390404
0.00388237
0.00388549
0.00390345
0.00395221
0.00404769
0.0042409
0.00434266
0.00437832
0.00441409
0.00443727
0.00446106
0.00448006
0.00450104
0.00451573
0.00453002
0.00454262
0.00478482
0.00427239
0.00406981
0.00396046
0.00392909
0.00390317
0.00389637
0.00387812
0.00388263
0.00390214
0.0039523
0.00406146
0.00426135
0.00435335
0.00438615
0.00442011
0.00444459
0.00447092
0.00449089
0.00451368
0.00452604
0.00454426
0.00456349
0.00472433
0.00423241
0.00404423
0.00393955
0.00391408
0.00389154
0.00388767
0.00387264
0.00387939
0.00390119
0.00395419
0.0040687
0.00427458
0.00436676
0.00439565
0.00442757
0.00445155
0.00448293
0.00450262
0.00452786
0.00454368
0.00456444
0.00458268
0.00466767
0.0041969
0.00402108
0.00392193
0.00390035
0.0038817
0.00388088
0.00386927
0.00387689
0.00389916
0.00395813
0.00408301
0.00428991
0.00437405
0.00440051
0.00443272
0.00446199
0.00449762
0.00451753
0.00454597
0.00456096
0.00458609
0.00461105
0.00461943
0.00416376
0.00400015
0.00390445
0.00388738
0.0038711
0.00387316
0.00386386
0.00387315
0.00389983
0.00396432
0.00409029
0.00430251
0.00438473
0.00440898
0.00444064
0.00447118
0.00451457
0.00453538
0.00456595
0.00458637
0.00462021
0.00464966
0.0045761
0.00413474
0.00398146
0.00389017
0.00387597
0.00386231
0.00386693
0.00386029
0.00387089
0.00389994
0.00397253
0.0041055
0.00431491
0.00439063
0.00441371
0.00444757
0.00448614
0.00453469
0.00455818
0.00459512
0.00462092
0.00466333
0.00470089
0.00453732
0.00410759
0.00396357
0.00387543
0.00386447
0.00385239
0.00385973
0.00385431
0.00386648
0.00389985
0.00398281
0.00411362
0.00432779
0.00440186
0.00442449
0.00445886
0.0045
0.0045559
0.00458603
0.00462973
0.00466345
0.00471637
0.00475373
0.00450317
0.00408355
0.0039477
0.00386397
0.00385496
0.00384449
0.00385352
0.00384994
0.00386425
0.00389948
0.00399511
0.00413105
0.00434053
0.00440892
0.0044318
0.0044714
0.0045208
0.00458085
0.00462076
0.00467511
0.00472119
0.0047835
0.00483221
0.00447246
0.0040614
0.00393176
0.00385128
0.00384444
0.0038351
0.00384652
0.00384349
0.00385954
0.00390006
0.00399795
0.00414082
0.00435412
0.00442221
0.00444748
0.00448893
0.00453938
0.00460713
0.00465787
0.00472488
0.00478169
0.00485337
0.00488207
0.00444478
0.0040407
0.0039174
0.00384195
0.00383634
0.00382792
0.00384002
0.00383829
0.00385718
0.0039018
0.00399509
0.00416218
0.0043695
0.00443443
0.00446152
0.00451084
0.0045669
0.00463737
0.00470343
0.00478335
0.00485235
0.00490863
0.00495282
0.00442074
0.00402259
0.00390296
0.00383063
0.00382644
0.00381904
0.00383316
0.00383206
0.00385269
0.00390191
0.00399418
0.00417453
0.00438441
0.00445161
0.00448743
0.00453631
0.00459116
0.00467493
0.00475487
0.00484259
0.00490882
0.00498074
0.00500957
0.00440162
0.004008
0.00389267
0.00382527
0.00382121
0.00381372
0.0038274
0.00382666
0.0038498
0.00390109
0.00400072
0.00420036
0.00440081
0.00447304
0.0045137
0.00457112
0.00462642
0.00471424
0.00480474
0.00490095
0.00498553
0.00505025
0.00511266
0.00438707
0.00399744
0.00388475
0.00382102
0.00381682
0.00380949
0.00382312
0.00382277
0.00384739
0.00390469
0.00400373
0.00421219
0.00441344
0.00449244
0.00454839
0.00461063
0.00466451
0.00476455
0.00487206
0.00499002
0.00507154
0.00519486
0.00537533
0.0043736
0.00398773
0.00387803
0.003818
0.0038138
0.00380652
0.00381942
0.00381967
0.00384606
0.00390516
0.00400989
0.00423213
0.00443566
0.00452264
0.0045838
0.00465841
0.00472901
0.00484148
0.00498329
0.00509226
0.00524322
0.00562882
0.00674765
0.00436041
0.00397806
0.00387069
0.00381393
0.00380975
0.00380274
0.00381556
0.00381675
0.00384444
0.00390684
0.00401353
0.00424312
0.0044526
0.00454771
0.00462537
0.0047144
0.00480702
0.00495933
0.00509521
0.00528435
0.00579882
0.00799151
0.0155283
0.00434818
0.00396898
0.00386436
0.00381096
0.00380692
0.00380018
0.00381234
0.00381462
0.00384334
0.00390716
0.00402141
0.00426348
0.0044838
0.00458749
0.00467156
0.00477756
0.00490732
0.00505154
0.00522606
0.00589338
0.00893009
0.0224766
0.0641711
0.00433616
0.00396013
0.00385774
0.00380701
0.00380331
0.00379681
0.00380897
0.00381267
0.0038421
0.00390873
0.00402661
0.0042749
0.00450718
0.00461793
0.00471448
0.0048435
0.00499768
0.00521046
0.00593297
0.00936197
0.0267322
0.0955756
0.272259
0.00432485
0.0039518
0.00385202
0.00380405
0.00380067
0.00379458
0.00380616
0.00381136
0.00384083
0.00390953
0.00403808
0.00429965
0.00454586
0.00466372
0.00476606
0.00491141
0.00509548
0.00551711
0.00779363
0.0258587
0.11545
0.403905
1.11848
0.00431377
0.00394373
0.00384604
0.00380032
0.0037975
0.00379152
0.00380317
0.00381018
0.00384077
0.00390855
0.00404583
0.00431453
0.00457834
0.00469786
0.00480508
0.00496877
0.00535795
0.00764624
0.0219098
0.0999941
0.451428
1.54628
3.56516
0.00430306
0.00393614
0.00384092
0.00379747
0.00379508
0.00378948
0.0038007
0.0038095
0.00384041
0.0039096
0.00406296
0.00434659
0.0046225
0.00474419
0.00485638
0.00505207
0.00565729
0.0111398
0.0584832
0.382391
1.60456
3.94017
6.3931
0.0042928
0.00392876
0.00383545
0.00379408
0.00379223
0.00378658
0.00379805
0.00380882
0.00384052
0.00391202
0.00407386
0.00436932
0.00466303
0.00478071
0.00489684
0.0052162
0.00794343
0.0295194
0.190591
0.986945
3.08773
6.1448
8.39277
0.00428257
0.00392181
0.00383076
0.00379147
0.00378998
0.00378463
0.00379589
0.00380842
0.00384152
0.00391917
0.00409758
0.00441042
0.00470666
0.00482297
0.00494238
0.00526549
0.00809445
0.0621717
0.404204
1.81214
4.65865
7.96413
9.40701
0.00427306
0.00391503
0.00382575
0.00378857
0.00378724
0.00378186
0.00379354
0.00380801
0.00384245
0.00392398
0.0041116
0.00444138
0.00475058
0.00486314
0.00501829
0.00601877
0.0254767
0.117727
0.742845
2.61262
5.83029
8.76472
9.30994
0.00426335
0.00390854
0.00382131
0.00378625
0.00378499
0.00378005
0.00379167
0.00380764
0.00384523
0.00393493
0.00414104
0.00448864
0.00478962
0.00489713
0.00510984
0.00844684
0.0361746
0.223556
1.02845
3.14631
6.48245
8.40469
8.53106
0.0042545
0.00390228
0.00381676
0.00378383
0.00378224
0.00377749
0.00378965
0.00380734
0.00384686
0.00394116
0.00415743
0.00452196
0.0048319
0.00494039
0.0051938
0.00877594
0.0515632
0.310067
1.2635
3.70423
6.98459
7.61612
7.82463
0.00424549
0.00389614
0.00381255
0.00378167
0.00377981
0.0037759
0.00378811
0.00380694
0.00385049
0.0039542
0.00418974
0.00457284
0.00486773
0.00496864
0.00529698
0.0106311
0.0770799
0.478591
2.10636
4.51863
6.42133
7.2307
7.4053
0.00423715
0.00389032
0.00380842
0.0037795
0.0037771
0.00377361
0.00378647
0.0038067
0.00385247
0.00396099
0.00420673
0.00460387
0.00490163
0.0050103
0.00543968
0.0127086
0.0988402
0.557737
2.22307
4.56775
6.25945
7.01746
7.11243
0.00422903
0.00388448
0.00380443
0.00377722
0.00377452
0.00377227
0.00378533
0.00380635
0.00385661
0.00397465
0.00423972
0.0046544
0.00493542
0.00503411
0.00553728
0.0131272
0.0967453
0.630734
2.01749
4.64586
6.20409
6.84081
6.93547
0.00422106
0.00387913
0.00380054
0.0037749
0.00377193
0.0037703
0.0037841
0.00380613
0.00385879
0.00398168
0.00425692
0.00468255
0.00496198
0.00506901
0.00570213
0.0180002
0.178085
0.787029
2.42023
4.48255
6.17797
6.68196
6.69526
0.00421392
0.00387365
0.00379661
0.00377228
0.00376937
0.00376921
0.00378333
0.00380579
0.00386325
0.00399585
0.00429041
0.00472894
0.00499017
0.00509124
0.00570177
0.0154179
0.139913
0.757851
2.28456
4.40135
5.9802
6.47402
6.44199
0.00420623
0.00386875
0.00379274
0.00376958
0.00376675
0.00376758
0.00378242
0.00380541
0.00386561
0.00400334
0.0043081
0.00475347
0.00501741
0.0051246
0.00595155
0.0209161
0.121981
0.742426
2.10044
4.15868
5.86401
6.25813
6.20946
0.00420003
0.0038637
0.00378875
0.00376658
0.00376418
0.00376659
0.00378188
0.00380508
0.00387044
0.00401869
0.00434244
0.0047942
0.0050433
0.00516336
0.00601595
0.017008
0.081631
0.537174
2.13515
4.16928
5.80321
6.04826
5.95785
0.00419255
0.00385914
0.00378468
0.0037635
0.00376148
0.00376527
0.0037812
0.00380417
0.00387313
0.00402698
0.00436092
0.00481521
0.00506858
0.00520163
0.00616129
0.0161191
0.118219
0.59064
1.65346
4.1228
5.68508
5.84804
5.6694
0.00418717
0.00385452
0.00378062
0.00376016
0.00375881
0.00376419
0.00378063
0.00380365
0.00387844
0.004044
0.00439577
0.00485517
0.00510125
0.00529723
0.00660798
0.0168826
0.0904435
0.529526
1.86757
3.92718
5.58476
5.73396
5.42709
0.00417988
0.00385016
0.00377619
0.0037568
0.00375611
0.00376311
0.00378009
0.00380255
0.00388144
0.0040534
0.00441507
0.00487571
0.00512538
0.00539414
0.00724473
0.0207425
0.0904895
0.45482
1.61608
3.98936
5.58553
5.76442
5.33011
0.00417506
0.00384586
0.00377224
0.00375334
0.00375324
0.00376197
0.0037794
0.00380194
0.00388693
0.00407108
0.00444959
0.00491687
0.00517703
0.00566603
0.00890181
0.0263158
0.112539
0.45627
1.60762
4.07883
5.49819
5.74139
5.33855
0.00416807
0.00384174
0.00376754
0.00374993
0.00375067
0.00376097
0.00377873
0.00380083
0.00389004
0.00408094
0.0044694
0.00493889
0.00522433
0.00595505
0.0110843
0.0406217
0.167976
0.500093
1.73742
4.25668
5.28625
5.53577
5.32373
0.00416408
0.00383817
0.00376434
0.00374686
0.00374815
0.00376031
0.00377826
0.00380015
0.00389449
0.00409543
0.00449571
0.00497756
0.00531434
0.00668122
0.0149082
0.060192
0.212626
0.589732
1.76363
4.0473
5.01167
5.29816
5.24366
0.0041591
0.00383528
0.00376043
0.0037443
0.00374616
0.00375979
0.0037777
0.00379984
0.00389728
0.00410326
0.00450987
0.00499778
0.00540696
0.00728098
0.0195626
0.0843518
0.290069
0.681567
1.67013
3.71051
4.62582
5.05104
5.20133
0.00415653
0.00383293
0.00375829
0.00374199
0.0037444
0.00375947
0.00377739
0.00379997
0.0039001
0.00411255
0.00452358
0.00503223
0.00555891
0.00879486
0.027657
0.116788
0.358138
0.716372
1.71558
3.26732
4.28431
4.99491
5.4076
0.00415314
0.00383093
0.0037555
0.00374025
0.00374291
0.00375929
0.00377702
0.00380113
0.00390275
0.00411866
0.00453218
0.00505268
0.00572001
0.00987
0.035114
0.141963
0.401395
0.752192
1.73079
3.10666
4.31228
5.21745
5.63882
0.00415143
0.00382924
0.00375398
0.00373881
0.00374173
0.00375901
0.00377678
0.00380336
0.00390507
0.00412459
0.00453923
0.00508645
0.00594597
0.0122708
0.0508746
0.170633
0.429345
0.891689
1.97148
3.20221
4.57892
5.47668
5.84825
0.00414901
0.00382776
0.0037524
0.00373762
0.00374072
0.00375888
0.0037766
0.00380565
0.00390664
0.00412876
0.00454711
0.00511195
0.00615132
0.0139908
0.0630488
0.221518
0.548971
1.36974
2.24675
3.54554
4.95821
5.76699
6.01441
0.00414779
0.00382647
0.00375137
0.003737
0.00374003
0.0037586
0.00377648
0.00380811
0.00390864
0.00413281
0.0045581
0.00515213
0.00639632
0.0168694
0.0850593
0.332949
0.873305
1.87631
2.55789
3.99655
5.35613
6.03813
6.14227
0.004146
0.00382532
0.00375063
0.00373643
0.00373953
0.00375827
0.00377628
0.00380961
0.00390929
0.00413835
0.00458207
0.00519712
0.00661995
0.0186126
0.102991
0.440946
1.22871
2.37552
2.91421
4.42081
5.74752
6.28071
6.23094
0.00414494
0.00382423
0.0037498
0.00373599
0.00373919
0.00375767
0.0037761
0.00381048
0.00391018
0.00414698
0.004609
0.00524932
0.00675809
0.0201491
0.121083
0.568722
1.62248
2.8826
3.30255
4.83078
6.1072
6.46482
6.28092
0.00414318
0.0038231
0.00374933
0.00373545
0.00373891
0.00375694
0.00377563
0.00381098
0.00391305
0.00416424
0.00465783
0.00532127
0.00697217
0.0214514
0.136919
0.675571
2.00398
3.39147
3.7219
5.23943
6.41661
6.59355
6.29262
0.004142
0.00382212
0.00374842
0.0037349
0.00373868
0.00375594
0.00377535
0.00381161
0.00391935
0.00418693
0.00470929
0.00540105
0.00714597
0.0225887
0.149451
0.763079
2.40199
3.89598
4.16631
5.63942
6.67392
6.68734
6.26686
0.00414023
0.00382098
0.0037478
0.00373441
0.00373849
0.00375478
0.00377479
0.00381319
0.00393015
0.00422031
0.00478396
0.00550278
0.00735859
0.0235507
0.15858
0.805395
2.68597
4.38594
4.62284
6.02459
6.88439
6.7554
6.1894
0.0041389
0.00382023
0.00374711
0.00373384
0.00373814
0.00375337
0.00377452
0.0038162
0.00394564
0.00425921
0.00485889
0.00561155
0.00758242
0.0242748
0.164334
0.827748
2.86755
4.8405
5.07278
6.38705
7.04388
6.79356
6.06676
0.0041371
0.00381912
0.00374657
0.00373334
0.00373775
0.00375191
0.0037739
0.0038213
0.00396631
0.00430868
0.00495565
0.00574142
0.0077448
0.0247138
0.167628
0.84533
2.99221
5.24435
5.50626
6.71504
7.1476
6.78812
5.88234
0.0041357
0.00381852
0.00374579
0.0037328
0.00373707
0.00375047
0.00377365
0.00382876
0.00399186
0.00436311
0.0050494
0.00588264
0.00803401
0.0249392
0.169064
0.846006
2.98211
5.57833
5.90587
6.98507
7.21036
6.70292
5.64421
0.00413367
0.00381735
0.00374538
0.0037321
0.00373624
0.00374907
0.00377354
0.00383918
0.00402266
0.00442687
0.00516342
0.00604783
0.00828381
0.0251413
0.16969
0.854216
2.97929
5.82189
6.25078
7.14464
7.21057
6.53696
5.37513
0.00413239
0.00381663
0.00374414
0.00373127
0.00373524
0.00374778
0.00377385
0.003853
0.00405876
0.00449611
0.00527289
0.0062389
0.00890533
0.0259634
0.17012
0.84997
2.98285
5.95518
6.53911
7.19113
7.13226
6.29485
5.07737
0.00412999
0.00381507
0.00374387
0.00372994
0.00373399
0.00374671
0.00377557
0.00387097
0.00410058
0.00457325
0.00540257
0.00646248
0.00969262
0.0288996
0.171151
0.831461
3.01189
5.97177
6.6322
7.14752
6.96474
5.99656
4.76932
0.00412861
0.003814
0.00374422
0.00372948
0.00373287
0.00374546
0.00377981
0.00389378
0.00414871
0.00465765
0.00552775
0.00672606
0.0110488
0.0355164
0.184875
0.812873
2.98629
5.96684
6.63501
6.95211
6.69357
5.65616
4.47345
0.00412605
0.00381148
0.00374418
0.00372842
0.00373145
0.00374514
0.00378785
0.00392216
0.00420325
0.00474847
0.00567346
0.00702388
0.0126838
0.0449804
0.207863
0.811518
2.90016
5.82844
6.46351
6.63878
6.32614
5.30011
4.20818
0.00412392
0.00380952
0.00374321
0.00372845
0.00373007
0.00374519
0.00380044
0.00395682
0.00426503
0.00484812
0.00581358
0.00735647
0.0148149
0.0583319
0.249153
0.832145
2.78871
5.56746
6.11884
6.16158
5.88515
4.9487
3.97421
0.00412126
0.00380578
0.0037425
0.00372749
0.00372974
0.00374882
0.00381868
0.0039982
0.00433338
0.0049525
0.00597305
0.00770898
0.0171185
0.0733905
0.296851
0.863791
2.66468
5.20373
5.63808
5.61121
5.3756
4.59012
3.7908
0.004118
0.00380296
0.00374023
0.0037259
0.00373026
0.00375637
0.00384335
0.00404663
0.00440912
0.00506536
0.00612428
0.00806529
0.0195994
0.0899192
0.349522
0.90281
2.65897
4.82035
5.05573
4.92899
4.79261
4.23654
3.65394
0.00411458
0.00379843
0.00373944
0.00372608
0.00373399
0.00377213
0.00387496
0.0041021
0.00449052
0.00518125
0.00629
0.00842026
0.0220299
0.106262
0.399228
0.949616
2.64968
4.42214
4.51983
4.29718
4.29784
3.91631
3.51005
0.00411033
0.00379561
0.00373873
0.00372597
0.00374353
0.00379346
0.00391406
0.00416438
0.00457843
0.00530276
0.00644466
0.00874063
0.0243256
0.120262
0.427997
0.951241
2.66822
4.0559
4.02981
3.75961
3.88112
3.56304
3.40246
0.0041055
0.00379126
0.00374004
0.00372948
0.00375892
0.00382406
0.00396056
0.004233
0.00466996
0.00542554
0.0066066
0.00905012
0.0263787
0.130409
0.447022
0.956175
2.6815
3.7611
3.69934
3.39178
3.66949
3.3711
3.25833
0.00410082
0.0037889
0.00374262
0.00373661
0.00378279
0.00386126
0.00401443
0.00430717
0.00476643
0.00554996
0.00675628
0.00930617
0.0282208
0.136413
0.447258
0.963374
2.68753
3.54801
3.469
3.14609
3.35139
3.20085
3.17607
0.00409414
0.00378623
0.00375135
0.00374916
0.00381256
0.00390726
0.00407495
0.00438602
0.00486363
0.0056731
0.00690754
0.00956277
0.0297193
0.139072
0.448811
0.979638
2.7121
3.39997
3.34755
3.09097
3.10859
3.11445
3.14864
0.00408982
0.00378318
0.00376259
0.00376775
0.00385193
0.00395946
0.00414198
0.0044686
0.00496406
0.0057953
0.00704738
0.00978252
0.0310966
0.139482
0.45011
0.972479
2.76284
3.309
3.26835
3.03825
2.99351
3.06913
3.12348
0.0040823
0.00378401
0.00378218
0.00379142
0.0038965
0.00401952
0.00421359
0.00455351
0.00506196
0.00591252
0.00718922
0.0100195
0.0321484
0.13938
0.45263
0.982218
2.76189
3.2632
3.19702
2.97281
2.91204
3.02235
3.10606
0.00407701
0.00378367
0.00380395
0.00382273
0.00395001
0.00408373
0.00429042
0.00464024
0.00516171
0.00602902
0.00732136
0.0102755
0.0330098
0.13538
0.445262
0.958757
2.75874
3.21992
3.19283
2.88658
2.8344
2.92843
3.09128
0.00407157
0.00379091
0.00383607
0.00385883
0.00400797
0.00415493
0.0043695
0.00472686
0.00525591
0.00613635
0.00746361
0.0105388
0.0337628
0.12856
0.420471
0.955794
2.76595
3.1845
3.16141
2.89593
2.85061
2.92692
3.1111
0.0040643
0.00379983
0.00386866
0.0039021
0.00407265
0.00422746
0.00445136
0.00481336
0.00535113
0.00624585
0.0076001
0.0109172
0.0343932
0.120394
0.38954
0.941913
2.77859
3.17196
3.13224
2.95612
2.91221
2.97358
3.13195
0.00406159
0.00381876
0.0039132
0.00395081
0.00414141
0.00430572
0.00453458
0.00489815
0.00543842
0.00634219
0.00775607
0.0112961
0.0349279
0.112466
0.359686
0.952779
2.78172
3.14819
3.13924
3.03651
3.00678
3.05503
3.17999
0.00405915
0.00384051
0.00395647
0.00400467
0.00421359
0.00438297
0.00461662
0.00498039
0.00552645
0.00644584
0.00791817
0.0118379
0.0352293
0.106065
0.33348
0.971235
2.68411
3.14987
3.17094
3.12342
3.10244
3.13969
3.21758
0.00406072
0.00387119
0.00401111
0.00406417
0.00428955
0.00446411
0.00470056
0.00506098
0.005605
0.00653201
0.00809909
0.0124322
0.0354791
0.101423
0.313998
0.981792
2.68405
3.11588
3.21649
3.21244
3.19978
3.20633
3.24228
0.0040651
0.00390772
0.00406498
0.00412756
0.00436618
0.00454245
0.0047793
0.0051359
0.00568446
0.0066331
0.00830735
0.01316
0.0357308
0.0981953
0.300211
1.01979
2.68263
3.13689
3.2777
3.28087
3.25395
3.23095
3.25079
0.00407514
0.00395041
0.00412584
0.00419471
0.00444413
0.00462309
0.00486067
0.00521054
0.0057536
0.00671051
0.0085194
0.0139934
0.0361868
0.0961086
0.288085
0.992042
2.68434
3.16396
3.3118
3.33549
3.3064
3.25423
3.22864
0.00408749
0.0040003
0.00418924
0.00426499
0.00452345
0.00469907
0.0049331
0.00527674
0.00582413
0.00681362
0.00879014
0.0149923
0.0373217
0.0949601
0.284345
1.01143
2.65813
3.11691
3.32308
3.35236
3.30493
3.22992
3.18276
0.00410989
0.00405528
0.00425278
0.00433822
0.004598
0.00477622
0.00501065
0.00534375
0.00588406
0.00688401
0.00902859
0.0159887
0.0383894
0.0942006
0.278965
1.08207
2.66178
3.13494
3.33363
3.34947
3.29018
3.20145
3.12924
0.00413071
0.00411473
0.0043223
0.00440986
0.00467697
0.00484786
0.00507328
0.00540137
0.00594623
0.00699312
0.00937671
0.0172933
0.0404678
0.094077
0.282591
1.11687
2.64323
3.17922
3.30935
3.34218
3.27402
3.16296
3.0662
0.00416425
0.00417982
0.0043869
0.00448758
0.00474604
0.00491792
0.00514629
0.00545938
0.00599746
0.00706033
0.00963689
0.0183944
0.0419907
0.0936034
0.285119
1.22537
2.66122
3.12042
3.3123
3.3258
3.24066
3.12026
2.98955
0.0041944
0.00424545
0.00445646
0.00455761
0.00481922
0.00498474
0.0051991
0.00550952
0.0060528
0.00717638
0.0100531
0.01983
0.0443238
0.0939168
0.30016
1.35257
2.74468
3.11653
3.30312
3.29866
3.19446
3.04133
2.86693
0.00423698
0.00431365
0.00452265
0.0046331
0.00488202
0.0050438
0.00526045
0.00555696
0.00609599
0.00724541
0.0103432
0.0209821
0.0461419
0.094089
0.305656
1.52478
2.68306
3.11425
3.26963
3.25018
3.13887
2.94695
2.73887
0.00427403
0.00438385
0.0045855
0.00470093
0.00494471
0.00510395
0.00531242
0.00560275
0.00614563
0.00736763
0.0107871
0.0222965
0.0480595
0.0965205
0.310671
1.56041
2.70672
3.13428
3.23886
3.19564
3.02651
2.78815
2.55155
0.00432009
0.00444711
0.0046489
0.00476859
0.00500376
0.00515575
0.00535385
0.00563644
0.00618321
0.00744665
0.0110927
0.0234745
0.0500901
0.0987508
0.347089
1.59446
2.69882
3.06466
3.17141
3.1303
2.90901
2.63965
2.38465
0.00436519
0.00451958
0.00470962
0.00483372
0.00505124
0.00520307
0.00541154
0.0056861
0.00623187
0.00755819
0.0115525
0.0245896
0.0524078
0.101128
0.350442
1.70333
2.70236
3.06149
3.14041
2.99392
2.72449
2.43372
2.17296
0.00441023
0.00457927
0.00475733
0.00488914
0.00511215
0.0052581
0.00544254
0.00569272
0.00623162
0.00757855
0.0115925
0.0243386
0.0507147
0.105846
0.358775
1.56289
2.69557
3.06939
3.05412
2.86523
2.57572
2.27659
2.00873
0.00445988
0.00464959
0.00482329
0.00495851
0.00514554
0.00528982
0.00546548
0.00570016
0.006233
0.00759899
0.0115929
0.024593
0.050303
0.110216
0.37034
1.51752
2.74167
2.98946
2.93169
2.71472
2.41735
2.11933
1.85368
0.00452425
0.00471781
0.0048694
0.0049998
0.00517053
0.0052921
0.00546542
0.0057155
0.00623602
0.00760331
0.0115449
0.0241819
0.0504653
0.113369
0.394438
1.3389
2.65579
2.85099
2.77796
2.55076
2.2541
1.96316
1.70462
0.00454905
0.0047293
0.00488839
0.00501728
0.00516514
0.00529614
0.00548174
0.00571374
0.00624405
0.00760048
0.0115682
0.0240467
0.0495884
0.120074
0.399731
1.31474
2.50235
2.6779
2.60594
2.38519
2.10055
1.82529
1.57615
0.00455771
0.00474102
0.00489901
0.00502657
0.00516325
0.0053004
0.00547286
0.00572155
0.00623069
0.00759838
0.0114204
0.0231645
0.0486704
0.117254
0.3944
1.34143
2.33723
2.48632
2.42269
2.22491
1.95615
1.68966
1.44631
0.00456124
0.0047564
0.00490105
0.00502342
0.00516347
0.00529776
0.00546936
0.00572311
0.00623658
0.00760783
0.0113966
0.0229279
0.047635
0.123871
0.388459
1.39203
2.16674
2.29914
2.24322
2.06511
1.81472
1.56349
1.33007
0.00457524
0.00478621
0.0048986
0.00504064
0.00516917
0.005298
0.0054663
0.00571535
0.00621309
0.00757625
0.011456
0.0230584
0.0455055
0.114284
0.390244
1.37575
2.01345
2.12328
2.0729
1.90999
1.67596
1.42602
1.19038
0.00458535
0.00477337
0.00490852
0.00502364
0.0051485
0.00529111
0.00546702
0.00570872
0.00620659
0.00756244
0.0114071
0.0226227
0.0438412
0.129211
0.441368
1.34635
1.87746
1.96865
1.91496
1.75134
1.52148
1.28234
1.057
0.00456971
0.00476955
0.00488631
0.00501604
0.00514391
0.00528639
0.0054393
0.00569581
0.00621274
0.00749334
0.0112755
0.0218688
0.0431151
0.142728
0.513906
1.31951
1.74935
1.81739
1.75816
1.58726
1.35669
1.11519
0.89664
0.00456375
0.00476594
0.00488146
0.00500958
0.00515233
0.00529541
0.00543005
0.0056702
0.00619737
0.00746931
0.0110924
0.0209286
0.041884
0.166934
0.569496
1.29658
1.63828
1.67602
1.59702
1.41025
1.17875
0.949652
0.739745
0.00456725
0.00476783
0.00488225
0.00500828
0.00513973
0.00528431
0.00542002
0.00562709
0.00616842
0.00746076
0.0108879
0.0202064
0.042864
0.199068
0.605342
1.26119
1.5288
1.53252
1.4235
1.22105
0.990389
0.772115
0.605479
0.0045469
0.00473168
0.00484418
0.00496893
0.00513316
0.00526801
0.00540158
0.00561112
0.00614674
0.00746277
0.0106708
0.0192505
0.0452441
0.255213
0.679855
1.21885
1.41104
1.38201
1.23941
1.03007
0.810781
0.620179
0.462287
0.00454604
0.00472311
0.00483543
0.0049571
0.0051018
0.00524583
0.00536881
0.00560772
0.00610865
0.00741565
0.0104353
0.0181921
0.053403
0.318483
0.644023
1.16566
1.28239
1.21453
1.04959
0.843883
0.650535
0.439849
0.276984
0.00451177
0.00471764
0.00484608
0.00495862
0.00505167
0.00521572
0.00533017
0.00557476
0.00607511
0.00735192
0.0102825
0.0179749
0.0641731
0.437099
0.655834
1.09851
1.14292
1.03392
0.844859
0.610925
0.375869
0.221047
0.155064
0.00448185
0.00472436
0.0048259
0.00493928
0.00498156
0.00517443
0.00531817
0.00552842
0.00602242
0.00728332
0.00997317
0.0185772
0.0901607
0.482432
0.685496
1.01427
0.989734
0.825626
0.578111
0.335276
0.185784
0.119755
0.0915295
0.0044434
0.00468929
0.00477402
0.00488112
0.00495709
0.00513331
0.00527833
0.00548929
0.00598108
0.0071846
0.00988049
0.022558
0.126116
0.511849
0.709682
0.912721
0.800534
0.573064
0.341119
0.175466
0.103838
0.0728283
0.0504556
0.00437365
0.0046284
0.00469951
0.00482359
0.00496555
0.00508574
0.00522804
0.00544578
0.00591515
0.0071151
0.00995606
0.0268527
0.177457
0.554102
0.739712
0.784016
0.589171
0.385422
0.199511
0.104051
0.064084
0.0448263
0.0274868
0.00437152
0.00454406
0.0046022
0.00476552
0.00492473
0.0050307
0.00516859
0.00539498
0.00585732
0.00700947
0.0104316
0.0409603
0.248365
0.541156
0.683217
0.629682
0.432179
0.263681
0.119825
0.0645839
0.042404
0.0263857
0.0180911
0.00427908
0.00444034
0.00456962
0.00471889
0.00487461
0.00497012
0.00509661
0.00532066
0.00577749
0.00691025
0.0115992
0.0564122
0.316937
0.554923
0.588446
0.517523
0.324329
0.16781
0.0723243
0.0415367
0.0289954
0.0179093
0.0143554
0.00423132
0.00440802
0.00457411
0.00468023
0.00479332
0.0048857
0.00501907
0.00524106
0.00569398
0.00692864
0.0136844
0.0814834
0.35586
0.514835
0.504538
0.446176
0.221021
0.100327
0.0458463
0.0298161
0.0206401
0.0136654
0.0117555
0.00411071
0.0044082
0.00451544
0.00461072
0.00471022
0.00480113
0.00492025
0.00514154
0.00560839
0.00710872
0.019365
0.109914
0.358676
0.460833
0.455549
0.355386
0.138786
0.0595399
0.0324504
0.0225662
0.0133972
0.0105741
0.00939304
0.00405965
0.0043601
0.00444006
0.00452214
0.0045945
0.00467927
0.00481497
0.00502627
0.00550063
0.00755114
0.0259516
0.140661
0.356835
0.409969
0.417225
0.248186
0.0846505
0.0403033
0.024386
0.0135167
0.00974817
0.00842297
0.00777993
0.004038
0.00426295
0.00432569
0.00440672
0.00447222
0.00457157
0.00469103
0.00490736
0.00542183
0.00868317
0.0393778
0.183329
0.337596
0.376377
0.360265
0.144107
0.0553008
0.0301896
0.0141248
0.0091572
0.00754736
0.00691828
0.00658299
0.00396715
0.00416377
0.00421426
0.00429041
0.0043303
0.00441727
0.00454694
0.00475893
0.00546891
0.011327
0.0609437
0.218679
0.315665
0.343666
0.261698
0.0902792
0.0404843
0.0172394
0.00905168
0.00694846
0.00625807
0.00596624
0.00578106
0.00384397
0.00401386
0.00405961
0.00413254
0.0041731
0.00428729
0.00440041
0.00463418
0.00565439
0.0157785
0.0791469
0.222039
0.288268
0.299045
0.178387
0.0583662
0.0242752
0.00994679
0.0065158
0.00568684
0.00539305
0.00525997
0.00515636
0.00372984
0.00388039
0.0039318
0.00399778
0.00402213
0.00410116
0.0042249
0.00448996
0.00647257
0.023717
0.103821
0.216068
0.258218
0.244288
0.120054
0.0360849
0.0132037
0.00657325
0.00533204
0.00501751
0.00489657
0.00483175
0.00477422
0.00356577
0.00368867
0.00374586
0.00379969
0.00383539
0.00395007
0.00404197
0.00448292
0.00765741
0.0318573
0.117094
0.206335
0.231188
0.191669
0.0773417
0.0193271
0.00748057
0.00502092
0.00460844
0.00449142
0.00444196
0.00440624
0.00437567
0.00343801
0.00354927
0.00361259
0.00365403
0.00367799
0.0037171
0.00388011
0.00462354
0.0108123
0.0464045
0.134562
0.195804
0.205523
0.146649
0.0389191
0.0101909
0.00515178
0.00438287
0.00424927
0.00420411
0.00418091
0.00415676
0.00414217
0.00324275
0.00333412
0.00338261
0.00341288
0.00345907
0.0035897
0.00370444
0.00541017
0.0151406
0.0576037
0.143542
0.180168
0.173877
0.0907303
0.0174316
0.00570999
0.00406234
0.00385269
0.00380987
0.00379207
0.00377564
0.00376237
0.00375252
0.00312457
0.00321595
0.00325118
0.00327901
0.00329518
0.00325314
0.00367034
0.00630078
0.0240413
0.0888704
0.140616
0.160852
0.134876
0.035135
0.00802857
0.00416905
0.00371101
0.00364284
0.00361857
0.00360574
0.0035919
0.00358221
0.00357329
0.0028703
0.00291468
0.00292662
0.00294588
0.00299135