/*--------------------------------*- C++ -*----------------------------------*\
  =========                 |
  \\      /  F ield         | OpenFOAM: The Open Source CFD Toolbox
   \\    /   O peration     | Website:  https://openfoam.org
    \\  /    A nd           | Version:  7
     \\/     M anipulation  |
\*---------------------------------------------------------------------------*/
FoamFile
{
    version     2.0;
    format      ascii;
    class       volScalarField;
    location    "129";
    object      nut;
}
// * * * * * * * * * * * * * * * * * * * * * * * * * * * * * * * * * * * * * //

dimensions      [0 2 -1 0 0 0 0];

internalField   nonuniform List<scalar> 
12842
(
0.00181981
0.00178168
0.00178311
0.00176268
0.00177162
0.00176465
0.00177138
0.00175857
0.00176601
0.00176381
0.00177248
0.00177874
0.00179276
0.00103053
0.000521915
0.000301372
0.000199319
0.000142785
0.000109325
8.70083e-05
7.19907e-05
6.14751e-05
5.41657e-05
0.00180863
0.00179466
0.00178942
0.00176776
0.0017631
0.00175272
0.00176896
0.00176053
0.00176402
0.00176282
0.00177246
0.00178015
0.00179558
0.00102129
0.000518475
0.000300795
0.000198611
0.000142324
0.00010897
8.67304e-05
7.17585e-05
6.15216e-05
5.39615e-05
0.00181302
0.00177785
0.00178629
0.00177525
0.00177348
0.00175106
0.0017593
0.00175767
0.00176217
0.00176248
0.00177213
0.00178173
0.00180064
0.000998675
0.000510489
0.000298033
0.000197404
0.000141048
0.000107948
8.59465e-05
7.11702e-05
6.13308e-05
5.35601e-05
0.001808
0.00178734
0.00177774
0.00176749
0.0017734
0.00175476
0.00176043
0.0017562
0.00175983
0.0017622
0.00177141
0.00178253
0.00180356
0.000971452
0.000501661
0.000294595
0.00019563
0.000139952
0.000106991
8.50845e-05
7.03843e-05
6.09821e-05
5.30223e-05
0.00180847
0.00177745
0.00178056
0.00176801
0.0017747
0.00175541
0.00175747
0.00175366
0.00175851
0.00176241
0.00177118
0.00178468
0.00180881
0.000949172
0.000494732
0.000292558
0.000194528
0.000138537
0.000105702
8.41252e-05
6.96036e-05
6.05597e-05
5.23539e-05
0.00180452
0.00178147
0.00177215
0.00176287
0.00177291
0.00175845
0.00175997
0.00175296
0.00175615
0.00176231
0.00177075
0.0017862
0.00181432
0.000934329
0.000491031
0.000291421
0.000193946
0.000138138
0.000105156
8.33065e-05
6.87312e-05
6.01108e-05
5.16903e-05
0.00180467
0.00177641
0.00177449
0.00176139
0.00177225
0.00175851
0.00175966
0.00175281
0.00175591
0.00176277
0.0017707
0.00178825
0.00181958
0.000938766
0.000497609
0.000295999
0.000195924
0.000138048
0.000104459
8.27374e-05
6.79676e-05
5.95121e-05
5.08735e-05
0.00180029
0.00177716
0.00176813
0.00175794
0.00176965
0.00176032
0.00176175
0.00175239
0.00175483
0.00176244
0.00177173
0.00179043
0.00182687
0.000937356
0.000502266
0.000300678
0.000198429
0.000139551
0.000104687
8.21052e-05
6.71104e-05
5.88366e-05
4.99509e-05
0.00180119
0.00177517
0.00176921
0.00175603
0.00176861
0.00176
0.00176269
0.00175297
0.00175512
0.00176254
0.00177253
0.00179226
0.00183159
0.000938968
0.000511696
0.00030965
0.000203708
0.000141998
0.000105437
8.2383e-05
6.67538e-05
5.83181e-05
4.92546e-05
0.00179544
0.00177383
0.00176504
0.00175368
0.00176627
0.00176071
0.00176379
0.00175289
0.00175526
0.00176282
0.00177347
0.00179546
0.00183915
0.000952338
0.000520901
0.000315475
0.000206077
0.000143602
0.000105911
8.23643e-05
6.64086e-05
5.81051e-05
4.87804e-05
0.00179691
0.00177325
0.00176532
0.00175203
0.00176538
0.00176028
0.00176436
0.00175367
0.00175587
0.00176317
0.00177519
0.00179665
0.00184316
0.000952725
0.000528186
0.000322089
0.000209528
0.000145014
0.000105989
8.23389e-05
6.59559e-05
5.76203e-05
4.80281e-05
0.00179086
0.00177098
0.00176277
0.00174994
0.00176331
0.00176054
0.00176493
0.00175395
0.00175634
0.0017638
0.00177781
0.00180097
0.00185113
0.000951856
0.000533241
0.00032735
0.000212324
0.000146773
0.000106232
8.20205e-05
6.51912e-05
5.69197e-05
4.72116e-05
0.0017922
0.00177104
0.00176294
0.0017486
0.00176256
0.00176006
0.00176516
0.00175468
0.00175704
0.00176436
0.00177805
0.0018027
0.00185485
0.000954098
0.000543269
0.000336382
0.000217458
0.000148741
0.00010638
8.17709e-05
6.44498e-05
5.61719e-05
4.61945e-05
0.00178668
0.0017686
0.00176168
0.00174663
0.00176086
0.00176002
0.00176544
0.0017552
0.00175756
0.00176504
0.00177811
0.00180744
0.00184362
0.000953249
0.000550577
0.000344609
0.000222869
0.000151939
0.000107199
8.17593e-05
6.3851e-05
5.53781e-05
4.5614e-05
0.00178758
0.00176878
0.00176198
0.00174572
0.00176032
0.00175946
0.00176541
0.00175576
0.00175814
0.00176591
0.00177895
0.00180874
0.00182191
0.000954505
0.000562768
0.000357498
0.000230966
0.000155599
0.000108528
8.19174e-05
6.37749e-05
5.46477e-05
4.50869e-05
0.00178346
0.00176666
0.00176157
0.00174408
0.00175897
0.00175922
0.00176542
0.00175628
0.00175877
0.00176605
0.0017807
0.00181251
0.00180005
0.000952201
0.000572921
0.000370655
0.00024092
0.000161181
0.000110501
8.23921e-05
6.37976e-05
5.36078e-05
4.45773e-05
0.00178351
0.00176666
0.00176185
0.00174372
0.00175861
0.00175845
0.00176518
0.00175646
0.00175911
0.00176773
0.00178377
0.0018139
0.00178499
0.000954016
0.00058991
0.000391135
0.000254224
0.000167447
0.000113232
8.29013e-05
6.4084e-05
5.30206e-05
4.45577e-05
0.00178067
0.0017651
0.0017618
0.00174274
0.00175757
0.00175797
0.00176484
0.00175669
0.00176004
0.00176867
0.0017872
0.00181674
0.00175711
0.000952359
0.000605228
0.000414438
0.000273385
0.000177072
0.000117031
8.44826e-05
6.46891e-05
5.27061e-05
4.43832e-05
0.00177993
0.00176491
0.0017618
0.0017429
0.00175732
0.00175692
0.00176435
0.0017564
0.00176018
0.00177015
0.00179149
0.00181616
0.00172949
0.000952919
0.000628504
0.000450591
0.000298971
0.000188616
0.000121938
8.60566e-05
6.53134e-05
5.28969e-05
4.48027e-05
0.00177811
0.00176368
0.00176177
0.00174282
0.00175653
0.00175618
0.00176356
0.0017563
0.00176134
0.0017708
0.00179662
0.00182117
0.00169968
0.000954711
0.000652161
0.000496441
0.000340084
0.000205753
0.000128225
8.91622e-05
6.71362e-05
5.44338e-05
4.59389e-05
0.00177704
0.00176332
0.0017614
0.00174327
0.00175625
0.00175494
0.0017629
0.00175575
0.00176142
0.0017726
0.00179713
0.00182163
0.00165717
0.00094781
0.000678521
0.00056628
0.000400155
0.000228455
0.000136191
9.25986e-05
6.90176e-05
5.59526e-05
4.65168e-05
0.00177595
0.00176219
0.00176116
0.00174406
0.00175563
0.00175402
0.0017617
0.00175544
0.00176255
0.00177424
0.00179499
0.00182512
0.00163753
0.000959915
0.000716979
0.000672835
0.000515349
0.000260317
0.000145732
9.70644e-05
7.27566e-05
6.00137e-05
5.02753e-05
0.00177484
0.00176171
0.00176051
0.00174451
0.00175523
0.00175282
0.00176104
0.001755
0.00176267
0.0017756
0.00179406
0.00182935
0.00155371
0.000921856
0.000723498
0.000813279
0.000753562
0.000303618
0.00015673
0.000103461
7.85889e-05
6.61673e-05
5.57863e-05
0.00177437
0.00176076
0.00176014
0.00174607
0.00175481
0.00175171
0.00175959
0.00175446
0.00176334
0.00177607
0.00179508
0.00184222
0.00148201
0.000891001
0.000718258
0.000947155
0.00132705
0.000345086
0.000164955
0.000109165
8.53306e-05
7.72839e-05
7.36674e-05
0.0017736
0.00176019
0.00175948
0.00174717
0.00175438
0.00175089
0.00175878
0.0017543
0.00176364
0.00177869
0.00179403
0.00184712
0.00146622
0.000883121
0.000725182
0.00102096
0.00129013
0.000353271
0.000176468
0.000124796
0.000107889
0.000113089
0.000100899
0.00177348
0.00175954
0.00175912
0.00174825
0.00175408
0.00175042
0.00175786
0.00175425
0.00176421
0.00177868
0.00179637
0.0018536
0.00142335
0.000856373
0.000694324
0.00088874
0.00102317
0.000340159
0.000191989
0.000151478
0.000148461
0.000151259
0.000155931
0.00177277
0.00175893
0.00175854
0.00174904
0.00175366
0.00174993
0.00175728
0.00175443
0.00176439
0.00177961
0.0017983
0.00185684
0.00137533
0.000819734
0.000655519
0.000736831
0.000639193
0.000322449
0.000216622
0.000191524
0.000187868
0.000233121
0.000340196
0.00177275
0.00175842
0.00175824
0.00174979
0.00175339
0.0017498
0.0017566
0.0017547
0.00176475
0.00177985
0.0018018
0.00186244
0.0013365
0.000792372
0.000613666
0.000596428
0.00048112
0.000305461
0.000229849
0.000221339
0.000278939
0.000562324
0.00138813
0.00177213
0.00175788
0.00175782
0.00175019
0.00175313
0.00174963
0.00175626
0.00175513
0.00176479
0.00178055
0.00180301
0.00186545
0.00128842
0.000752625
0.000565677
0.000505961
0.000403874
0.000300513
0.000286534
0.000338049
0.000665252
0.00177434
0.00222605
0.00177202
0.00175756
0.00175764
0.00175062
0.001753
0.00174978
0.00175578
0.00175558
0.0017648
0.00178094
0.00180634
0.00187202
0.00124698
0.000720469
0.000522321
0.000435032
0.000353798
0.000284074
0.000267759
0.000576888
0.00225333
0.00304311
0.0045604
0.00177154
0.00175713
0.0017573
0.00175074
0.00175295
0.0017498
0.0017556
0.00175613
0.00176533
0.00178072
0.00180623
0.00187589
0.0011999
0.000681898
0.000478718
0.000387787
0.000338519
0.000358939
0.000604205
0.00192659
0.00401594
0.00666795
0.0116132
0.0017712
0.00175699
0.0017572
0.00175098
0.00175301
0.00175007
0.00175527
0.00175663
0.00176549
0.00178044
0.00181331
0.001884
0.00115921
0.0006469
0.000441844
0.000355964
0.000310277
0.00034944
0.00099059
0.00500213
0.00869621
0.0133487
0.0193368
0.00177094
0.00175666
0.00175686
0.00175101
0.00175312
0.0017501
0.0017552
0.00175717
0.00176627
0.00178146
0.00181888
0.00189011
0.00112069
0.000617292
0.000416004
0.000339667
0.000392546
0.00067919
0.002349
0.00843744
0.0125684
0.0190316
0.0248523
0.0017703
0.00175665
0.00175676
0.00175122
0.00175334
0.00175037
0.00175496
0.00175761
0.0017672
0.00178506
0.00182903
0.00189989
0.0010803
0.000584069
0.000387812
0.000310942
0.00028654
0.000884738
0.00411328
0.0114678
0.0160293
0.0243013
0.0279374
0.00177034
0.00175635
0.00175642
0.00175135
0.00175346
0.00175032
0.00175497
0.00175809
0.00176816
0.00178706
0.00183394
0.00190835
0.00105185
0.000565315
0.000374814
0.000318921
0.000646107
0.00131848
0.00649463
0.0131589
0.0190295
0.0272966
0.0288771
0.00176945
0.00175636
0.00175628
0.00175165
0.00175369
0.00175055
0.00175478
0.00175838
0.00176974
0.00179111
0.0018431
0.00191831
0.0010182
0.000539273
0.000352024
0.000403388
0.000991596
0.00223939
0.00854149
0.0142086
0.0214453
0.0274254
0.0281936
0.00176973
0.00175607
0.00175596
0.00175193
0.00175373
0.00175037
0.00175484
0.00175882
0.00177099
0.00179321
0.00184777
0.00192663
0.000994425
0.000522824
0.000334665
0.000315909
0.000527576
0.00225942
0.0109366
0.0155059
0.0240443
0.0264489
0.0278096
0.00176873
0.00175601
0.00175584
0.0017523
0.00175381
0.00175058
0.00175472
0.00175901
0.00177279
0.0017974
0.00185632
0.00193577
0.000973401
0.000504278
0.000313497
0.000325231
0.000724194
0.00351714
0.0156912
0.0185411
0.0232657
0.0266725
0.0280503
0.00176908
0.00175574
0.00175559
0.00175264
0.00175373
0.00175031
0.00175486
0.00175945
0.00177381
0.00179951
0.00186059
0.00194213
0.000948779
0.000484211
0.000300678
0.00034743
0.000930547
0.00450482
0.018262
0.0187397
0.0238926
0.027343
0.0283461
0.00176817
0.00175558
0.00175551
0.00175295
0.00175366
0.00175054
0.00175486
0.00175964
0.00177564
0.00180369
0.00186842
0.00194935
0.000937263
0.000472935
0.000291881
0.000342944
0.00099935
0.00531708
0.0156529
0.0193226
0.0248607
0.027882
0.0289165
0.00176837
0.0017554
0.00175534
0.00175313
0.00175345
0.00175026
0.0017551
0.00176005
0.00177641
0.00180578
0.0018724
0.00195373
0.000915497
0.000454618
0.000286218
0.000492474
0.00218154
0.00650566
0.0177694
0.0191141
0.0258445
0.0283858
0.0289054
0.00176773
0.00175519
0.00175525
0.00175329
0.00175332
0.00175054
0.00175529
0.00176025
0.00177818
0.00180993
0.00187979
0.00195788
0.000907982
0.000450616
0.000287804
0.000456803
0.00221855
0.00745753
0.0160643
0.0193584
0.0261771
0.0287747
0.0291011
0.00176759
0.00175512
0.00175509
0.0017532
0.00175294
0.00175036
0.00175563
0.00176057
0.0017793
0.00181206
0.00188365
0.00196006
0.000891955
0.000441027
0.000299291
0.00072358
0.00282239
0.00712753
0.0138511
0.0187773
0.0267727
0.0289875
0.0291299
0.00176733
0.00175492
0.00175492
0.00175318
0.00175277
0.00175066
0.001756
0.00176078
0.00178127
0.00181634
0.00189074
0.00196058
0.000893343
0.000449372
0.000319486
0.000741956
0.00354271
0.00688976
0.0137004
0.0196671
0.0277723
0.0275906
0.028166
0.00176677
0.00175492
0.00175467
0.00175284
0.0017523
0.00175072
0.00175648
0.00176084
0.00178215
0.00181862
0.00189456
0.00196056
0.000886186
0.000451863
0.000334697
0.00079114
0.00653245
0.00998034
0.0102257
0.0203626
0.0284208
0.0243545
0.0244913
0.00176692
0.00175479
0.0017544
0.00175267
0.00175202
0.00175095
0.00175688
0.00176095
0.00178387
0.00182326
0.00190103
0.00195915
0.000900053
0.000475378
0.000385517
0.00105087
0.00408883
0.00792474
0.0112484
0.0200806
0.0288747
0.0218453
0.0219865
0.001766
0.00175478
0.00175393
0.00175224
0.00175168
0.00175133
0.00175748
0.00176094
0.00178472
0.00182581
0.00190475
0.00195793
0.000906824
0.000493862
0.000432141
0.00119058
0.00345909
0.00608309
0.00969047
0.0209658
0.0294255
0.020274
0.0206518
0.0017664
0.00175469
0.00175361
0.00175198
0.0017512
0.00175155
0.00175783
0.00176101
0.00178638
0.00183047
0.00191019
0.00195501
0.000934236
0.000541298
0.000531987
0.00166292
0.0034627
0.00545401
0.00920289
0.0221448
0.0294652
0.019549
0.0205238
0.00176541
0.00175462
0.00175285
0.00175166
0.0017511
0.00175212
0.00175831
0.00176096
0.00178732
0.00183313
0.00191374
0.001953
0.000944684
0.000578231
0.000637362
0.00211061
0.00430185
0.00548209
0.0105916
0.0242009
0.0284096
0.0184021
0.0201816
0.00176575
0.00175453
0.00175256
0.00175133
0.00175062
0.00175254
0.00175859
0.001761
0.00178868
0.00183677
0.00191642
0.00194906
0.000971336
0.000662253
0.000894012
0.00304563
0.0046228
0.00596015
0.0109276
0.0241055
0.0223488
0.0166118
0.0224812
0.00176514
0.00175441
0.00175165
0.00175123
0.00175055
0.00175316
0.00175875
0.00176108
0.00178962
0.001839
0.00191856
0.001947
0.000972359
0.000712211
0.00107908
0.00367598
0.00521632
0.00633289
0.0106482
0.0230689
0.0200343
0.018661
0.0251809
0.00176532
0.00175431
0.00175138
0.00175104
0.00175041
0.00175373
0.00175875
0.00176135
0.00179046
0.00184116
0.00191827
0.00194339
0.000988335
0.000825592
0.00160386
0.00396452
0.00548744
0.00613074
0.0112119
0.0207829
0.0221922
0.0217014
0.0278529
0.00176498
0.00175412
0.00175061
0.00175111
0.00175042
0.00175443
0.00175874
0.00176201
0.00179137
0.00184284
0.00191903
0.00186525
0.000968218
0.000894276
0.00200334
0.00405611
0.00512579
0.00584232
0.0112447
0.019739
0.0253287
0.0265576
0.0299539
0.00176513
0.00175397
0.00175035
0.00175118
0.00175055
0.001755
0.00175872
0.00176312
0.00179185
0.00184365
0.00191729
0.00177375
0.00096992
0.00104246
0.0030684
0.00389345
0.00465545
0.00633475
0.0124919
0.0199194
0.0263462
0.0295896
0.0302684
0.00176494
0.00175375
0.00174997
0.00175138
0.00175079
0.00175556
0.00175878
0.00176424
0.00179211
0.00184427
0.00191806
0.00164616
0.000929719
0.00113902
0.00354944
0.0042599
0.00501284
0.00891228
0.0138898
0.0212636
0.0276707
0.0303244
0.0303107
0.00176508
0.00175355
0.00174982
0.00175165
0.00175114
0.0017559
0.0017588
0.00176544
0.00179235
0.00184383
0.00191804
0.00156207
0.000928878
0.00130903
0.00405897
0.00539149
0.00695587
0.0114803
0.015527
0.0230849
0.0289517
0.0309173
0.0286239
0.00176502
0.00175335
0.00174978
0.00175185
0.00175152
0.00175607
0.00175881
0.00176624
0.00179219
0.00184468
0.00192569
0.00153455
0.000940727
0.00143226
0.0044578
0.00643713
0.00889826
0.013892
0.0171745
0.0247307
0.0264259
0.0265499
0.0257073
0.00176518
0.00175319
0.00174975
0.00175204
0.00175192
0.00175605
0.00175888
0.00176672
0.00179221
0.00184651
0.00193205
0.00157701
0.000998119
0.00159332
0.00482517
0.00764261
0.0108524
0.016219
0.018863
0.0262372
0.0258948
0.0264621
0.0252663
0.00176514
0.00175305
0.0017499
0.00175211
0.00175235
0.00175594
0.00175875
0.00176703
0.0017932
0.00185259
0.00194954
0.0016409
0.00107494
0.00187059
0.0050828
0.00853098
0.01258
0.0184383
0.0205992
0.0268115
0.0264069
0.0271294
0.0252378
0.0017653
0.001753
0.00174989
0.00175217
0.00175272
0.00175568
0.0017587
0.00176742
0.00179568
0.00186081
0.00196489
0.00170841
0.00116657
0.00211591
0.00524656
0.00921054
0.0142634
0.0205418
0.0223643
0.0269238
0.0268406
0.026909
0.0245708
0.00176526
0.00175294
0.00175002
0.00175222
0.00175308
0.00175532
0.00175848
0.00176821
0.00180038
0.0018745
0.00199271
0.00179336
0.00127664
0.00247117
0.0053383
0.00944136
0.0153997
0.0224784
0.0241029
0.0275456
0.0267882
0.0261198
0.0234638
0.00176539
0.00175306
0.00175014
0.00175224
0.00175332
0.00175485
0.0017585
0.00176966
0.00180732
0.00189045
0.00201661
0.00187252
0.00140237
0.00256556
0.0053837
0.00950976
0.0160453
0.0241945
0.0257347
0.0282732
0.0264181
0.0251414
0.0222077
0.00176532
0.00175309
0.00175033
0.00175232
0.00175344
0.00175434
0.00175816
0.00177224
0.00181679
0.00191181
0.00205261
0.00196416
0.00154722
0.00248709
0.0053938
0.00965242
0.0167141
0.0256433
0.0272612
0.0292611
0.0261296
0.0244186
0.0210355
0.00176546
0.00175335
0.00175034
0.00175231
0.00175345
0.00175386
0.00175832
0.00177574
0.00182847
0.00193491
0.00208231
0.00206228
0.00171813
0.00239754
0.00530417
0.0095539
0.016463
0.0268195
0.0286805
0.0304125
0.0260516
0.0238453
0.020022
0.00176526
0.00175339
0.0017506
0.00175232
0.00175338
0.0017534
0.00175829
0.0017805
0.00184251
0.00196249
0.00212286
0.0020948
0.00180703
0.00226695
0.0051442
0.00953385
0.0165691
0.0276517
0.0298292
0.031505
0.0261496
0.0233583
0.0191516
0.00176548
0.00175366
0.00175032
0.00175216
0.0017532
0.00175299
0.00175837
0.00178711
0.00185899
0.00199067
0.00215436
0.00212583
0.00184512
0.00213977
0.00477183
0.00928482
0.0165809
0.0281344
0.0307417
0.0326196
0.0264761
0.0229659
0.018421
0.00176507
0.00175351
0.00175068
0.00175198
0.00175298
0.00175266
0.00175948
0.00179557
0.00187807
0.00202156
0.00219568
0.00216021
0.00189155
0.00213621
0.00439532
0.00872931
0.0165074
0.0280948
0.03083
0.0327585
0.0270054
0.022609
0.0179068
0.0017653
0.00175366
0.00175113
0.0017522
0.00175272
0.00175226
0.00176149
0.00180606
0.00189947
0.002051
0.00222494
0.00219968
0.00201773
0.00231022
0.00414244
0.00818346
0.0164879
0.0278943
0.0306108
0.0317953
0.0275313
0.0223356
0.0176129
0.00176483
0.00175303
0.0017517
0.0017521
0.00175234
0.00175227
0.00176521
0.00181948
0.0019223
0.00208163
0.00226367
0.0022399
0.00215486
0.00256361
0.00413958
0.00772119
0.0159016
0.0273774
0.0297338
0.0304265
0.0279644
0.02246
0.0175726
0.0017648
0.00175284
0.00175162
0.00175252
0.00175201
0.00175249
0.00177101
0.00183538
0.00194586
0.00210939
0.00228614
0.00228307
0.00233838
0.00292832
0.00426653
0.00736677
0.0153152
0.0261388
0.0281506
0.0284627
0.0274174
0.0225832
0.0179348
0.00176434
0.00175166
0.00175213
0.00175233
0.00175216
0.0017545
0.00178002
0.00185384
0.00196942
0.00213656
0.00231889
0.00232359
0.00250961
0.00327238
0.00460642
0.00743691
0.0146619
0.0243885
0.0261624
0.026451
0.0257031
0.0227684
0.0185909
0.00176378
0.00175126
0.00175169
0.00175204
0.00175288
0.00175839
0.00179161
0.00187385
0.00199241
0.00215929
0.00233159
0.00236004
0.00268004
0.00361398
0.00471358
0.0076648
0.0148769
0.0228214
0.0239084
0.024018
0.0237317
0.021226
0.0189264
0.00176302
0.00174987
0.00175249
0.00175247
0.001755
0.00176645
0.00180638
0.00189479
0.00201393
0.00218032
0.0023555
0.00239474
0.00282095
0.00390716
0.00513724
0.00790583
0.0149599
0.0213101
0.0219534
0.0218595
0.0218804
0.0201627
0.0183135
0.00176178
0.00174981
0.00175309
0.00175331
0.00176027
0.00177665
0.00182364
0.00191561
0.00203354
0.00219544
0.00235752
0.00241746
0.00294385
0.00410653
0.00524578
0.00776107
0.0151486
0.0199644
0.0201791
0.0199768
0.0203751
0.018853
0.0179098
0.00176053
0.00174881
0.00175521
0.0017557
0.00176792
0.00179102
0.00184256
0.00193594
0.00205033
0.00220854
0.00237207
0.0024454
0.00303275
0.00419896
0.0053699
0.00769364
0.0153055
0.0189359
0.0191078
0.0187554
0.0198716
0.018316
0.0174313
0.00175904
0.0017493
0.00175757
0.00175976
0.0017795
0.00180774
0.00186181
0.00195447
0.00206422
0.00221516
0.00236392
0.00245468
0.00312631
0.00418517
0.00530737
0.00784042
0.0153643
0.0182341
0.0184346
0.0179888
0.0188894
0.0179277
0.0173826
0.00175735
0.00174957
0.00176336
0.00176677
0.001793
0.00182692
0.00188076
0.00197116
0.00207448
0.00221974
0.00237124
0.00247943
0.00317968
0.00411628
0.00529943
0.00787163
0.0154501
0.0178014
0.018237
0.0181457
0.0181692
0.0179421
0.0176358
0.0017563
0.00174995
0.00176966
0.00177595
0.0018099
0.00184647
0.001899
0.00198489
0.00208154
0.00221866
0.00235422
0.00247822
0.00326513
0.00400864
0.00521388
0.00794164
0.015698
0.017603
0.0181959
0.0182383
0.0180072
0.0181561
0.018016
0.00175506
0.00175235
0.00178051
0.00178725
0.00182638
0.00186681
0.00191486
0.00199583
0.00208487
0.00221569
0.00235737
0.00250029
0.00329429
0.00391497
0.00529076
0.00800549
0.01601
0.0176181
0.0181173
0.0181853
0.0179396
0.0183799
0.0183647
0.00175425
0.00175411
0.00179148
0.00180091
0.00184457
0.00188552
0.00192949
0.00200357
0.00208539
0.0022086
0.00233284
0.00248734
0.00333859
0.00373876
0.00517997
0.00780613
0.0160378
0.0176296
0.0184031
0.0179389
0.0178175
0.0182368
0.0186803
0.00175511
0.0017598
0.00180809
0.00181529
0.00186137
0.0019039
0.00194052
0.00200805
0.00208271
0.00220041
0.00233414
0.00249641
0.0033217
0.00349404
0.00495475
0.00781175
0.0160374
0.0176875
0.0185312
0.0182934
0.0182542
0.0186186
0.0192577
0.00175427
0.00176548
0.0018232
0.00183018
0.00187788
0.00191913
0.00194959
0.00200997
0.00207804
0.00218906
0.00230371
0.00246546
0.00329609
0.00323473
0.00470711
0.00769771
0.0163776
0.0179185
0.0186987
0.0189677
0.0189844
0.0192997
0.0198375
0.00175724
0.00177693
0.00184501
0.001845
0.00189291
0.00193289
0.00195572
0.00200867
0.00207099
0.00217838
0.00230321
0.00245281
0.00319187
0.00302625
0.00445477
0.00771926
0.0164997
0.0181417
0.0191404
0.0197712
0.0199175
0.0201848
0.0205742
0.00175914
0.00178813
0.00186286
0.00185893
0.0019057
0.00194335
0.00195856
0.00200589
0.00206297
0.00216447
0.00226946
0.00239568
0.00304074
0.00284499
0.00422296
0.00784059
0.0163569
0.0186289
0.019813
0.0206662
0.0208533
0.0210774
0.0212665
0.00176408
0.00180416
0.00188518
0.00187254
0.0019171
0.00195126
0.00196042
0.00200022
0.00205326
0.00215336
0.00226514
0.00236167
0.00285833
0.00271559
0.00408391
0.0080043
0.0163887
0.0189682
0.0206567
0.0216431
0.0218743
0.021924
0.0217837
0.00176949
0.00182155
0.00190176
0.00188406
0.00192597
0.00195632
0.00195811
0.00199431
0.00204368
0.0021385
0.00222956
0.00228749
0.00263065
0.00260231
0.00397756
0.00840277
0.0167879
0.0197609
0.0216747
0.0225271
0.0225791
0.022399
0.0221606
0.00177667
0.00184015
0.00192051
0.0018951
0.00193176
0.001959
0.00195636
0.00198584
0.00203274
0.00212782
0.00221994
0.00223559
0.00245101
0.00252638
0.00385574
0.00831471
0.0173965
0.0206884
0.022553
0.0234018
0.0233574
0.0228774
0.022285
0.00178631
0.00186118
0.00193432
0.00190318
0.00193793
0.00195854
0.00195053
0.00197832
0.00202296
0.00211352
0.00218297
0.00217299
0.00227545
0.00244521
0.00389162
0.00869594
0.0179273
0.0211749
0.0233065
0.0240182
0.0237339
0.0230378
0.0222636
0.00179779
0.00188012
0.00194705
0.00191132
0.00193745
0.0019574
0.00194674
0.00196847
0.00201203
0.00210312
0.00216814
0.00211037
0.00214197
0.0023754
0.00384005
0.00959023
0.0186718
0.0221025
0.0240428
0.0245509
0.0241259
0.0232238
0.0221998
0.00181018
0.00190024
0.00195604
0.00191501
0.00194064
0.00195232
0.00193787
0.00196037
0.0020026
0.00209064
0.00213201
0.00206875
0.00204496
0.00231793
0.00387446
0.0099802
0.019225
0.0231958
0.0245118
0.0249947
0.0244999
0.0233338
0.0220165
0.00182434
0.00191662
0.00196251
0.00192033
0.00193666
0.00194838
0.00193418
0.00195056
0.00199313
0.00208037
0.00211336
0.00201131
0.0019573
0.00224284
0.00388223
0.0109814
0.0199748
0.0234727
0.02514
0.0253997
0.0246942
0.0234007
0.0220726
0.00183595
0.00193287
0.0019649
0.00192004
0.00193451
0.00194035
0.00192317
0.00194226
0.00198347
0.00206948
0.00207952
0.00197867
0.00190674
0.0022032
0.00405002
0.0124776
0.0211808
0.0240901
0.0256251
0.0257569
0.0249625
0.0233198
0.021338
0.00185111
0.00194308
0.00196683
0.00192193
0.00193025
0.0019337
0.00191845
0.00193354
0.00197747
0.00206137
0.00205928
0.00192875
0.00186096
0.00215528
0.00402294
0.0141674
0.0212426
0.0246775
0.0258963
0.0258854
0.0251972
0.0228798
0.020681
0.00186062
0.00195429
0.00196168
0.0019179
0.00192222
0.00192472
0.00191084
0.00192622
0.00196645
0.00204767
0.00202645
0.00191013
0.0018396
0.00214551
0.00410593
0.0147005
0.0219542
0.0254336
0.0261927
0.0260208
0.0245424
0.0221782
0.0193988
0.00187056
0.00195545
0.00195918
0.00191716
0.00191946
0.00191756
0.00190137
0.00191678
0.001964
0.00204806
0.00199612
0.00185476
0.00182091
0.00217105
0.00456522
0.0151065
0.0224893
0.0255237
0.0262836
0.0263071
0.023655
0.0210446
0.0180072
0.00188043
0.00196197
0.00195138
0.00191123
0.0019081
0.00190696
0.00190062
0.00191475
0.00195574
0.00202038
0.0019906
0.00187384
0.00182617
0.00220311
0.00456278
0.0159284
0.0231346
0.026197
0.0266613
0.0255744
0.0223555
0.0192319
0.016543
0.00188334
0.00195645
0.00194158
0.00190747
0.00190731
0.00190559
0.00189225
0.00189849
0.00193988
0.00202108
0.00198287
0.00182235
0.00182461
0.00231061
0.00466322
0.014822
0.0238913
0.0270693
0.0266548
0.024942
0.0215257
0.0182729
0.0155983
0.00188863
0.00196055
0.00193944
0.00190756
0.00189959
0.00189433
0.00187879
0.00188904
0.00193841
0.00201127
0.00196692
0.00188291
0.00182465
0.00250733
0.00486596
0.014706
0.0252878
0.0273312
0.0264483
0.0240371
0.0206797
0.0174365
0.014781
0.00190232
0.00195752
0.00193054
0.00190016
0.00188237
0.0018715
0.00187506
0.00188914
0.00193717
0.00201674
0.00192986
0.00185906
0.00182291
0.00259996
0.00549261
0.0135873
0.0257086
0.0272672
0.0261276
0.0233718
0.0199503
0.0167368
0.0141096
0.00188777
0.00194009
0.00191214
0.00188024
0.00186405
0.00186848
0.00187744
0.00188564
0.00193778
0.00201274
0.00195245
0.00184151
0.00181028
0.00271129
0.00564174
0.0141136
0.0256675
0.0270129
0.0257382
0.0228754
0.0194402
0.0162589
0.0136353
0.00187385
0.0019069
0.00189076
0.00185939
0.00185436
0.0018657
0.00187069
0.00188825
0.00192736
0.00201289
0.00192883
0.00184055
0.00181338
0.00268269
0.00548051
0.0153356
0.0255428
0.0266319
0.0253408
0.0224626
0.0190572
0.0158689
0.0131986
0.00186625
0.00189526
0.00186181
0.0018562
0.00184959
0.00186214
0.00186869
0.00188945
0.00193387
0.00201133
0.00191444
0.00183441
0.00183569
0.00294446
0.00553121
0.0170345
0.0253657
0.0262988
0.0249116
0.022179
0.0187236
0.0155124
0.012814
0.00186224
0.00189667
0.00185807
0.00186043
0.00185318
0.00186094
0.0018628
0.00188434
0.00192568
0.00201579
0.00196251
0.00181369
0.00183729
0.00280307
0.00578317
0.0180818
0.0253479
0.0260161
0.0246198
0.021753
0.0183753
0.0150571
0.0122093
0.00186312
0.00188353
0.00185903
0.00184384
0.00184553
0.00185687
0.00186553
0.00188897
0.00192873
0.00201569
0.00195955
0.00179888
0.00185625
0.00332859
0.00690155
0.0190663
0.025509
0.0259568
0.0243155
0.0214286
0.0178264
0.0143234
0.011462
0.00185815
0.00187473
0.00184759
0.00184605
0.00184552
0.00185072
0.00185727
0.00188664
0.00193402
0.00200155
0.00191818
0.00179239
0.0019277
0.00391452
0.0085482
0.0201882
0.025715
0.0258358
0.024097
0.0206442
0.0170021
0.0134476
0.0103716
0.00185784
0.00188061
0.00183892
0.0018381
0.00184993
0.00186283
0.00185564
0.00187874
0.00194208
0.00199735
0.00189341
0.00177332
0.00197891
0.00482397
0.0101485
0.0215022
0.0261368
0.0257596
0.0235091
0.0199071
0.0157472
0.0121267
0.00917767
0.00186083
0.00187381
0.00184905
0.00184837
0.00184346
0.00186091
0.00185837
0.00187669
0.00193735
0.00201672
0.00189038
0.00179847
0.00209633
0.00597894
0.0116358
0.0227448
0.0265213
0.0255698
0.0226054
0.0184889
0.0144317
0.0105652
0.00786535
0.00185422
0.00187042
0.00183709
0.00183674
0.00184612
0.00185269
0.00185876
0.00187529
0.0019295
0.00202297
0.00189196
0.00178139
0.00238487
0.00809451
0.0141842
0.023996
0.0266701
0.0249932
0.0213975
0.0165304
0.0123944
0.00915224
0.0064515
0.00185522
0.00186937
0.00183712
0.00182963
0.00184108
0.00184914
0.00186469
0.0018726
0.00192766
0.00200444
0.00189573
0.0017734
0.00290154
0.0104193
0.014664
0.0251389
0.026465
0.0237964
0.0193122
0.0150281
0.0104656
0.00677271
0.0045636
0.00185747
0.00186914
0.00184412
0.00183532
0.00183228
0.00185138
0.00185662
0.00187164
0.00193545
0.00199632
0.00191935
0.00181082
0.00372146
0.0157249
0.0163877
0.0260023
0.0256844
0.0217847
0.0165419
0.0115834
0.00728715
0.00399877
0.00278537
0.00184585
0.00187242
0.00185327
0.00184911
0.00182212
0.00184927
0.00184877
0.00187486
0.00194624
0.00199636
0.00190226
0.00198228
0.00511958
0.0176551
0.018842
0.0263987
0.0242085
0.0188128
0.012623
0.00721568
0.00370705
0.00245425
0.0023147
0.00183962
0.00188155
0.00183095
0.00184092
0.00181449
0.00184657
0.00184199
0.00188991
0.0019428
0.00198854
0.00193426
0.00242273
0.00707348
0.0181797
0.0215008
0.0260959
0.0215032
0.0146067
0.00818571
0.00391788
0.00244621
0.00215075
0.00228887
0.00182884
0.00186306
0.00181519
0.00182936
0.00183313
0.00184188
0.00183866
0.00188587
0.00192107
0.00199555
0.00200036
0.00283211
0.00964316
0.0204793
0.0248635
0.0249565
0.0177803
0.0108011
0.00509475
0.00281479
0.00214018
0.00224672
0.00243776
0.00186194
0.00182432
0.00179685
0.00181907
0.00184104
0.0018493
0.00183741
0.0018677
0.00191388
0.00199059
0.00210221
0.00419921
0.0139929
0.0215841
0.0257358
0.0226068
0.0142538
0.00797042
0.00369717
0.00240372
0.00227162
0.00253886
0.00259258
0.00183418
0.00179576
0.00180033
0.00182963
0.00184894
0.00185228
0.00183635
0.00185964
0.00191076
0.00198878
0.00230336
0.00546467
0.0177088
0.0244097
0.0251842
0.020472
0.0117066
0.00598653
0.00296507
0.00231902
0.00282448
0.00274081
0.00275142
0.00181229
0.00180287
0.0018225
0.00184465
0.0018412
0.00185344
0.00183537
0.00185625
0.00190951
0.00202363
0.00263795
0.00736793
0.0205798
0.025611
0.0242125
0.0195738
0.00916423
0.00457693
0.0026432
0.00276891
0.00323836
0.00276758
0.00269019
0.00178165
0.00182783
0.00182803
0.00184657
0.00183209
0.00184176
0.00183249
0.00185431
0.00191437
0.00210062
0.00356901
0.00964533
0.021722
0.0264378
0.0241022
0.0174918
0.00709473
0.00360504
0.00280309
0.00352368
0.00285906
0.002609
0.00247971
0.00178338
0.00183792
0.00183394
0.00183427
0.00181223
0.00181566
0.0018273
0.00185027
0.00191585
0.00223247
0.00458828
0.0121386
0.0240211
0.0267025
0.0248527