/*--------------------------------*- C++ -*----------------------------------*\
  =========                 |
  \\      /  F ield         | OpenFOAM: The Open Source CFD Toolbox
   \\    /   O peration     | Website:  https://openfoam.org
    \\  /    A nd           | Version:  7
     \\/     M anipulation  |
\*---------------------------------------------------------------------------*/
FoamFile
{
    version     2.0;
    format      ascii;
    class       volScalarField;
    location    "129";
    object      omega;
}
// * * * * * * * * * * * * * * * * * * * * * * * * * * * * * * * * * * * * * //

dimensions      [0 0 -1 0 0 0 0];

internalField   nonuniform List<scalar> 
12842
(
3.13077
2.83737
2.63881
2.51864
2.4231
2.36635
2.32019
2.29186
2.26544
2.249
2.23971
2.24274
2.25322
2.2794
2.32326
2.41126
2.53815
2.67695
2.87572
3.02723
3.25435
3.39934
3.61195
3.11384
2.8039
2.61294
2.49792
2.41452
2.35884
2.31325
2.28621
2.26346
2.24763
2.23816
2.24136
2.25305
2.27974
2.32789
2.41287
2.54534
2.69359
2.9068
3.06864
3.29773
3.44073
3.64745
3.08406
2.77346
2.57986
2.46473
2.38546
2.34152
2.30178
2.27684
2.2561
2.24272
2.23557
2.24005
2.25386
2.28325
2.33574
2.42356
2.56566
2.70709
2.91851
3.07693
3.32146
3.46361
3.66885
3.05408
2.72933
2.55227
2.44525
2.36727
2.32559
2.29115
2.26949
2.25176
2.23889
2.23372
2.23921
2.25513
2.28798
2.34599
2.44012
2.58811
2.74538
2.97179
3.12748
3.35211
3.49652
3.7112
3.01954
2.69096
2.51196
2.41365
2.34247
2.30732
2.27788
2.25921
2.24379
2.23406
2.23159
2.2387
2.25734
2.29377
2.35735
2.46047
2.62266
2.77019
2.99215
3.16687
3.4274
3.5539
3.74221
2.98389
2.6519
2.48687
2.39394
2.32571
2.2928
2.26756
2.2526
2.23936
2.22997
2.23017
2.23846
2.25986
2.3004
2.36766
2.47405
2.64109
2.8125
3.05981
3.20847
3.45254
3.61871
3.83372
2.94722
2.61373
2.45121
2.3677
2.30541
2.27735
2.25519
2.24293
2.23277
2.22606
2.22854
2.23894
2.26306
2.30865
2.3855
2.50476
2.68776
2.84375
3.08362
3.28194
3.52644
3.66474
3.8749
2.91281
2.58265
2.42992
2.35041
2.29182
2.26544
2.24637
2.23722
2.22833
2.22275
2.22682
2.23899
2.26572
2.31346
2.39228
2.51554
2.70192
2.89231
3.15382
3.31844
3.5848
3.76481
3.99227
2.87399
2.549
2.40252
2.33111
2.27716
2.25441
2.23667
2.23007
2.22349
2.22003
2.22564
2.24038
2.27056
2.32418
2.41125
2.54597
2.73746
2.92434
3.17513
3.38954
3.65229
3.83409
4.04667
2.83692
2.51987
2.38299
2.31687
2.26715
2.24605
2.23032
2.22601
2.22022
2.21788
2.22475
2.24142
2.27471
2.33188
2.42172
2.56286
2.75069
2.96842
3.22151
3.42417
3.69249
3.90019
4.14734
2.79236
2.48863
2.36083
2.30181
2.25615
2.23795
2.22316
2.22073
2.21688
2.21594
2.22404
2.24268
2.27882
2.34193
2.443
2.59603
2.78588
3.00266
3.24398
3.49234
3.76239
3.99452
4.20865
2.75619
2.46371
2.34339
2.28983
2.24769
2.23074
2.21764
2.21709
2.21421
2.2141
2.22338
2.24385
2.28251
2.35019
2.4542
2.61232
2.80204
3.05218
3.29499
3.55472
3.8192
4.06528
4.33942
2.712
2.4365
2.32518
2.27722
2.23851
2.22389
2.21171
2.21257
2.21139
2.21239
2.22277
2.24535
2.28639
2.3621
2.47669
2.64488
2.84105
3.08944
3.33684
3.63232
3.92032
4.21052
4.45204
2.67805
2.41569
2.31018
2.26748
2.23135
2.21768
2.20702
2.20951
2.2091
2.2108
2.22275
2.24708
2.29119
2.37045
2.4873
2.65947
2.86576
3.14899
3.39913
3.72479
4.0086
4.30347
4.59973
2.64286
2.39284
2.29528
2.25669
2.2235
2.21178
2.20213
2.20568
2.20654
2.20916
2.22277
2.24947
2.29909
2.38366
2.51039
2.69239
2.90304
3.1877
3.46264
3.80933
4.13485
4.48977
4.8085
2.6172
2.37562
2.28267
2.24871
2.21741
2.20649
2.19827
2.20311
2.20432
2.20784
2.2228
2.25268
2.30585
2.39092
2.52121
2.70781
2.9398
3.25904
3.53869
3.93337
4.26198
4.61817
4.94753
2.59008
2.35686
2.27042
2.23915
2.21049
2.20142
2.1942
2.1998
2.20176
2.20611
2.22243
2.25496
2.31906
2.4035
2.54606
2.74393
2.97421
3.30534
3.62155
4.02315
4.40194
4.8301
5.27172
2.56988
2.3425
2.25988
2.23222
2.20529
2.19702
2.19109
2.19748
2.19932
2.20501
2.22277
2.25982
2.32693
2.41245
2.55893
2.76242
3.02584
3.3856
3.7203
4.18697
4.59592
5.06106
5.50061
2.54916
2.32736
2.24973
2.22356
2.19907
2.1927
2.18762
2.19444
2.19663
2.20311
2.22318
2.26501
2.3313
2.42331
2.58601
2.8052
3.0619
3.44438
3.82655
4.30459
4.76381
5.29915
5.86461
2.53256
2.31536
2.24076
2.21708
2.19465
2.18912
2.18509
2.19208
2.19393
2.2021
2.22368
2.26834
2.34249
2.43857
2.60557
2.8306
3.13322
3.52574
3.94065
4.49831
5.05915
5.72515
6.38696
2.5168
2.30327
2.23219
2.20923
2.18901
2.18532
2.18193
2.18908
2.19116
2.20019
2.22463
2.27314
2.34522
2.4476
2.63366
2.88258
3.17454
3.60602
4.07707
4.69577
5.3231
6.06048
6.76008
2.50276
2.293
2.22433
2.20288
2.18516
2.18237
2.17973
2.18651
2.18841
2.19914
2.22569
2.2805
2.34443
2.47087
2.66606
2.92477
3.27688
3.70241
4.21119
4.88973
5.67145
6.61748
7.48311
2.49078
2.28335
2.21694
2.19583
2.18002
2.17879
2.17664
2.18351
2.18571
2.19752
2.22633
2.28197
2.3455
2.48149
2.6991
2.9926
3.33503
3.82604
4.41966
5.27224
6.26045
7.30748
8.19813
2.48066
2.27628
2.21157
2.19079
2.17756
2.17714
2.17517
2.1811
2.18324
2.19648
2.22871
2.28005
2.35391
2.50997
2.74504
3.05873
3.48625
3.99606
4.68427
5.68708
6.79301
8.09135
9.70689
2.47353
2.27103
2.20789
2.18698
2.17559
2.17575
2.17373
2.17909
2.18151
2.19526
2.2317
2.28041
2.35941
2.52544
2.79501
3.16937
3.61552
4.2447
5.15093
6.35162
7.82893
9.96159
11.4119
2.4661
2.26635
2.20453
2.1839
2.17425
2.17464
2.17277
2.17738
2.18005
2.19554
2.23221
2.28319
2.37139
2.55837
2.85063
3.26018
3.84327
4.6341
5.7452
7.41621
9.75134
12.0334
14.8154
2.45966
2.26163
2.20108
2.18059
2.17245
2.17309
2.17129
2.17549
2.1789
2.19534
2.23185
2.28513
2.37834
2.57688
2.91371
3.42523
4.12593
5.16697
6.77054
9.10349
11.7872
15.9346
23.1307
2.45278
2.25713
2.19785
2.17794
2.17117
2.17178
2.17029
2.17395
2.17784
2.19522
2.23189
2.28919
2.39296
2.61514
2.98819
3.56245
4.46197
5.84523
7.91693
10.9381
15.555
25.6983
46.2284
2.44686
2.25279
2.19462
2.1752
2.16944
2.17007
2.16879
2.1723
2.17709
2.19524
2.23327
2.29161
2.40142
2.63858
3.06044
3.77024
4.89368
6.64064
9.43488
13.9664
24.9989
53.8653
122.306
2.44063
2.24846
2.19159
2.17297
2.1681
2.16861
2.16779
2.171
2.17636
2.19521
2.2355
2.2968
2.41783
2.6786
3.15039
3.96513
5.33101
7.6151
11.5009
21.2696
51.2351
132.728
245.259
2.43503
2.24441
2.18861
2.17069
2.16635
2.16683
2.1663
2.16965
2.17566
2.19492
2.23993
2.29999
2.43007
2.71368
3.2416
4.18361
5.81289
8.64046
15.4759
39.3368
112.409
231.897
306.991
2.42947
2.24027
2.18582
2.16877
2.16489
2.16533
2.16531
2.16864
2.17526
2.19586
2.24063
2.30711
2.44581
2.74864
3.32807
4.41356
6.40286
10.8245
25.7333
76.4455
184.512
295.173
330.618
2.42402
2.23649
2.18312
2.16679
2.16313
2.16363
2.16388
2.16759
2.17436
2.19596
2.23976
2.31167
2.46655
2.80086
3.44734
4.66785
7.1608
14.2132
40.6191
116.972
245.674
322.874
337.706
2.41911
2.23255
2.18058
2.16504
2.16158
2.16218
2.16295
2.16682
2.17379
2.19554
2.2403
2.3214
2.48071
2.83134
3.52452
4.91048
8.0521
18.5887
58.0503
158.02
290.633
327.725
336.718
2.4137
2.22907
2.17816
2.16323
2.15986
2.16068
2.1616
2.166
2.17314
2.19577
2.24194
2.32735
2.50754
2.89247
3.65792
5.22464
9.2728
24.6529
78.7638
198.544
306.381
321.092
322.399
2.40942
2.22537
2.1758
2.16154
2.1583
2.15935
2.16077
2.16542
2.17276
2.19692
2.24678
2.33989
2.52682
2.93131
3.73932
5.46218
10.2818
29.7552
93.4801
221.437
302.279
306.456
302.589
2.40404
2.22217
2.1736
2.15981
2.15669
2.15811
2.15954
2.16471
2.17215
2.19782
2.24997
2.34708
2.55119
2.98616
3.8689
5.77822
11.6143
34.3845
106.745
238.891
290.489
287.956
281.364
2.40031
2.21875
2.17136
2.15812
2.15519
2.15693
2.15881
2.16424
2.172
2.19995
2.25702
2.36229
2.58169
3.04424
3.96098
5.98389
12.5111
38.7363
115.889
243.709
276
271.092
264.001
2.39511
2.21577
2.16931
2.15646
2.15376
2.15597
2.15771
2.16358
2.17186
2.20115
2.26096
2.37052
2.60029
3.08595
4.06311
6.19064
12.871
39.7314
121.732
243.747
261.983
256.645
250.914
2.39175
2.21265
2.16713
2.15478
2.15237
2.15491
2.15706
2.16315
2.17196
2.20362
2.26915
2.38767
2.6381
3.16085
4.18021
6.38164
14.4623
46.6969
128.89
240.437
249.554
245.348
239.845
2.38698
2.20983
2.16514
2.15323
2.15114
2.15414
2.15607
2.16251
2.17224
2.20496
2.27351
2.39673
2.65752
3.20142
4.25955
6.50187
13.9345
44.2558
136.203
234.515
239.044
235.398
231.627
2.3838
2.20697
2.163
2.15154
2.14984
2.15317
2.15539
2.16208
2.17259
2.20774
2.28239
2.41534
2.69672
3.28108
4.39367
6.7054
14.6244
45.7228
142.214
227.361
228.452
224.99
221.366
2.37964
2.20427
2.161
2.15012
2.14882
2.15246
2.15445
2.16147
2.17255
2.20928
2.2871
2.42517
2.7178
3.32837
4.49284
6.94
14.8296
48.9842
151.644
221.474
219.03
215.891
213.164
2.37648
2.20163
2.15893
2.14842
2.14757
2.15152
2.15369
2.16102
2.17285
2.21251
2.29669
2.44529
2.76043
3.42388
4.70385
7.47806
16.2325
53.7576
155.847
211.993
208.956
207.601
204.8
2.37301
2.19904
2.15692
2.14709
2.1466
2.1507
2.15272
2.16043
2.1733
2.2143
2.30181
2.45604
2.78435
3.485
4.87073
8.02341
18.0973
59.1803
161.697
202.469
200.032
200.635
196.035
2.36976
2.19657
2.15494
2.14539
2.14542
2.14979
2.1519
2.16
2.17417
2.21801
2.3123
2.4782
2.83367
3.61576
5.26598
9.29242
22.1197
66.8194
166.031
195.571
193.414
195.734
188.392
2.36686
2.1941
2.15299
2.144
2.14429
2.14872
2.15086
2.15939
2.17482
2.22006
2.31792
2.49024
2.86264
3.7044
5.58196
10.5499
26.1599
74.768
166.77
190.279
189.819
196.014
186.038
2.3636
2.19176
2.15113
2.14234
2.14324
2.14779
2.15004
2.15896
2.17588
2.22406
2.32939
2.51501
2.92389
3.90549
6.34423
12.9003
32.5004
83.6577
174.686
184.189
186.599
196.539
186.308
2.36096
2.1895
2.14937
2.14079
2.1419
2.14653
2.14907
2.15838
2.17646
2.22621
2.33543
2.52888
2.96251
4.04961
6.93942
15.5672
39.0473
91.2231
164.037
175.889
182.179
192.755
185.352
2.35824
2.18757
2.1479
2.13943
2.14104
2.14563
2.14846
2.15796
2.17729
2.22969
2.34589
2.55383
3.03542
4.34712
8.19951
19.4337
45.9951
98.9458
161.393
167.9
178.551
186.961
183.296
2.35625
2.18608
2.14679
2.1381
2.13999
2.14457
2.14794
2.15768
2.17771
2.23125
2.35065
2.56691
3.07924
4.55009
9.08794
22.9467
55.6081
107.623
156.847
160.844
175.526
181.38
182.26
2.35455
2.18486
2.1459
2.13701
2.13915
2.1437
2.14777
2.15741
2.17827
2.23368
2.35815
2.5894
3.16107
4.95103
10.8827
29.4582
65.265
116.849
153.014
157.212
170.259
178.027
184.466
2.35308
2.18396
2.14525
2.13593
2.13829
2.14274
2.14757
2.15726
2.17864
2.23496
2.3617
2.60218
3.21367
5.24885
12.3984
34.9997
78.3088
128.749
153.92
157.387
170.253
180.756
188.25
2.35191
2.18319
2.1447
2.13503
2.13746
2.14188
2.14747
2.15718
2.17935
2.23718
2.36753
2.62383
3.31041
5.77769
15.2785
43.8256
92.2242
140.762
157.821
160.758
173.798
185.088
193.213
2.35079
2.18262
2.14427
2.13411
2.13659
2.14113
2.14729
2.1571
2.17992
2.23869
2.37068
2.63785
3.37781
6.2313
17.763
52.0008
109.513
153.692
161.756
166.742
179.186
190.177
198.426
2.34991
2.18213
2.14386
2.13343
2.13577
2.14056
2.14719
2.15703
2.18073
2.24143
2.37643
2.65912
3.48778
6.82597
20.9559
61.7546
125.549
163.438
164.738
173.124
185.002
195.299
202.76
2.34898
2.18172
2.14348
2.13285
2.13502
2.14016
2.14707
2.1569
2.1813
2.2434
2.37945
2.6763
3.56937
7.3094
23.1035
68.5003
138.084
170.998
169.683
178.758
190.75
200.242
206.014
2.34817
2.18129
2.14305
2.13236
2.13434
2.13984
2.14688
2.15681
2.18177
2.24584
2.38555
2.69077
3.6482
7.6644
25.094
74.4146
149.505
177.729
175.081
184.12
195.64
203.582
207.73
2.34722
2.18082
2.1426
2.13197
2.13365
2.13956
2.14677
2.15671
2.18216
2.24779
2.3892
2.71253
3.74045
8.18854
26.9378
79.1903
159.299
183.936
180.681
189.34
199.735
206.028
209.116
2.34634
2.18033
2.14208
2.13159
2.13308
2.1393
2.14666
2.1566
2.18266
2.25006
2.39672
2.73035
3.83669
8.57108
28.4856
82.8485
168.401
189.661
186.293
194.388
203.453
208.447
210.427
2.34539
2.17976
2.14157
2.13124
2.13252
2.13908
2.14662
2.15653
2.18295
2.25143
2.40073
2.75651
3.9516
9.10935
29.7061
85.305
174.418
195.118
191.796
199.274
207.098
210.681
211.54
2.34447
2.17918
2.14104
2.13089
2.13204
2.13885
2.14645
2.15646
2.18314
2.25301
2.40943
2.78114
4.075
9.46182
30.5243
87.0419
178.716
200.066
197.118
204.129
210.637
212.476
212.462
2.34354
2.17851
2.1405
2.13051
2.13166
2.13865
2.1465
2.1562
2.18314
2.25372
2.41432
2.81237
4.22003
9.93683
31.078
87.577
179.023
204.511
201.982
208.262
213.689
213.675
213.032
2.34257
2.17784
2.14003
2.13021
2.13127
2.13841
2.14617
2.15614
2.18317
2.25495
2.4249
2.84672
4.38414
10.402
31.8738
88.5508
181.14
207.995
205.92
211.488
216.086
214.598
212.887
2.34169
2.17712
2.13948
2.1298
2.13088
2.13817
2.14614
2.15624
2.18325
2.25574
2.43229
2.88707
4.58421
11.0904
32.9866
89.5982
179.81
210.544
209.552
214.276
217.996
215.605
211.842
2.34066
2.17637
2.13912
2.12953
2.13053
2.13793
2.14622
2.156
2.18331
2.25859
2.44754
2.9348
4.82643
12.1338
35.6509
91.5441
179.896
211.669
212.711
216.652
219.028
215.255
210.117
2.33984
2.17567
2.13852
2.12899
2.13008
2.13773
2.14585
2.15584
2.1834
2.26224
2.46054
2.9916
5.12416
13.5285
38.9393
95.2493
182.457
212.558
215.122
218.188
219.648
213.897
207.643
2.33876
2.17487
2.13818
2.12846
2.12975
2.1375
2.14581
2.15595
2.18413
2.27092
2.48445
3.05775
5.47584
15.3736
44.6295
99.3313
181.12
213.909
216.754
218.652
219.241
211.834
204.55
2.33793
2.17423
2.13746
2.12797
2.12941
2.13731
2.14584
2.15566
2.18657
2.28113
2.50631
3.1358
5.88615
17.5457
50.2134
105.103
182.382
212.892
217.379
218.191
217.666
209.176
201.324
2.33676
2.17334
2.13699
2.12748
2.12903
2.13706
2.14591
2.15586
2.19185
2.29835
2.54297
3.22219
6.33552
19.9199
58.3971
112.959
182.087
212.996
217.361
216.479
214.65
204.651
198.311
2.33586
2.17267
2.13597
2.12716
2.12866
2.13668
2.1453
2.15671
2.20034
2.31798
2.57582
3.3177
6.82117
22.4272
64.4427
116.149
181.742
213.368
215.504
212.136
209.142
201.601
195.432
2.33476
2.17155
2.13522
2.1266
2.12808
2.13626
2.14519
2.15952
2.21295
2.34585
2.62666
3.41743
7.3131
24.8809
74.1521
117.787
178.732
211.221
211.463
205.221
201.949
199.592
193.061
2.33382
2.17069
2.13379
2.12619
2.12763
2.13543
2.14515
2.16493
2.22973
2.37637
2.67035
3.51615
7.80937
27.1968
77.7125
120.116
177.118
207.514
205.883
196.582
196.424
194.235
191.664
2.33305
2.16916
2.13265
2.1251
2.12668
2.13518
2.14629
2.17391
2.25146
2.41535
2.73367
3.61563
8.26318
29.2856
81.5887
122.566
176.136
203.157
199.702
188.199
190.484
188.991
189.978
2.33197
2.1679
2.13082
2.12421
2.12618
2.13513
2.14949
2.18653
2.27766
2.45661
2.78516
3.70088
8.69793
31.0573
83.2459
124.281
175.199
198.623
193.604
180.843
184.66
184.052
186.924
2.33128
2.16595
2.12943
2.12336
2.12576
2.13596
2.1562
2.20376
2.30907
2.50545
2.85808
3.7912
9.02685
32.5944
84.271
122.873
174.92
194.581
188.178
174.891
177.422
178.542
182.715
2.32973
2.16409
2.12739
2.12204
2.12636
2.13872
2.16665
2.22509
2.34451
2.55576
2.91305
3.85684
9.34665
33.7858
84.6903
124.452
175.54
190.994
183.558
170.342
171.091
173.583
178.537
2.32865
2.16187
2.12616
2.12155
2.12825
2.14434
2.18114
2.2513
2.3848
2.61207
2.99351
3.9474
9.52382
34.7954
86.3292
122.453
175.999
187.98
179.62
166.586
166.24
169.042
173.373
2.32602
2.1594
2.12421
2.12137
2.13345
2.15315
2.20047
2.28151
2.42795
2.66848
3.04967
4.00732
9.75883
35.6018
85.551
122.693
172.511
185.218
176.463
163.474
162.325
164.438
169.132
2.32408
2.15702
2.12336
2.12267
2.14142
2.16584
2.22361
2.31599
2.47518
2.72979
3.13838
4.1311
9.88735
36.21
85.9585
122.821
172.015
182.643
173.494
160.912
159.08
160.578
165.484
2.31984
2.15417
2.12162
2.12574
2.15323
2.18233
2.25172
2.35395
2.52359
2.78873
3.19759
4.22157
10.1643
36.7941
84.8622
122.353
172.469
180.042
170.599
158.305
156.162
157.204
161.551
2.3168
2.15229
2.1219
2.13209
2.16875
2.2028
2.28323
2.39474
2.57509
2.8532
3.29907
4.42804
10.4345
37.2191
82.7557
122.363
169.658
177.021
167.511
155.85
153.401
154.073
157.881
2.31134
2.14907
2.12096
2.14136
2.18786
2.22761
2.31863
2.43851
2.626
2.91142
3.3675
4.60535
10.9428
37.1635
80.7418
123.429
168.592
173.534
164.012
153.583
150.962
151.353
154.562
2.30746
2.14778
2.12387
2.15428
2.21105
2.25537
2.35715
2.48288
2.67888
2.97802
3.48901
4.94134
11.5858
37.2812
78.9683
123.873
164.096
169.085
160.043
151.136
148.775
148.96
151.298
2.30189
2.1457
2.1277
2.17041
2.23752
2.28781
2.39773
2.53021
2.72981
3.0334
3.57554
5.26417
12.4125
37.3485
76.8866
122.658
163.774
164.269
155.712
148.428
146.28
146.247
148.84
2.29733
2.14527
2.13748
2.19078
2.267
2.32194
2.44077
2.57527
2.78149
3.10175
3.726
5.75306
13.5825
37.7339
75.4763
121.364
159.795
158.742
151.222
145.641
144.113
144.245
146.692
2.2937
2.14679
2.1483
2.21345
2.30056
2.35992
2.48455
2.62385
2.83046
3.1537
3.83767
6.25938
14.764
38.042
74.7158
119.312
154.303
152.934
146.845
142.531
141.557
142.246
144.88
2.28824
2.14934
2.16574
2.24098
2.33417
2.39927
2.52911
2.66729
2.87902
3.22382
4.02669
6.89942
16.4019
38.8352
73.066
116.311
148.272
147.198
142.582
139.576
139.249
140.201
142.958
2.28608
2.15692
2.18422
2.26975
2.37322
2.44008
2.57387
2.71468
2.92445
3.27324
4.16421
7.57629
17.9224
39.6568
72.6463
112.83
142.556
141.836
138.654
136.429
136.375
137.853
140.958
2.28193
2.16538
2.20972
2.30278
2.41001
2.48313
2.61797
2.75528
2.96925
3.34497
4.39806
8.35929
19.789
40.5866
72.937
111.908
137.489
137.06
135.01
133.716
133.634
135.553
139.268
2.28261
2.18083
2.23535
2.33688
2.45063
2.52411
2.66071
2.79888
3.00907
3.39378
4.55998
9.14545
21.4534
41.7344
73.442
111.586
133.229
132.939
131.754
130.938
131.232
133.341
135.442
2.2846
2.19645
2.26804
2.3737
2.49118
2.56898
2.7034
2.83665
3.05163
3.46772
4.83433
10.0219
23.2459
42.6273
74.1132
108.4
129.583
129.37
128.902
128.069
127.97
130.418
134.358
2.28889
2.22001
2.29947
2.41065
2.52922
2.60837
2.74204
2.87399
3.08272
3.51485
5.02272
10.8786
24.7946
43.6551
75.9782
107.626
126.305
126.198
126.259
125.56
124.572
128.801
132.434
2.2971
2.24319
2.33754
2.45108
2.57239
2.65179
2.78014
2.90868
3.12524
3.59805
5.32317
11.6728
26.1249
44.9873
75.6639
106.147
123.289
123.234
123.655
122.811
123.318
125.716
131.531
2.30952
2.27421
2.37288
2.48733
2.60686
2.6887
2.81579
2.94057
3.14828
3.63595
5.55715
12.6563
27.5083
45.4854
76.029
105.548
120.005
120.071
120.661
118.991
122.977
125.431
132.427
2.32138
2.30359
2.41348
2.52911
2.64726
2.72846
2.84725
2.96963
3.18644
3.74097
5.80353
13.1226
28.6982
45.9024
76.8044
106.937
116.81
116.864
117.789
117.067
121.871
126.546
131.352
2.3417
2.3406
2.45023
2.56316
2.68029
2.7593
2.87622
2.99855
3.21237
3.74975
5.84635
13.3557
27.7948
45.8087
76.9373
105.444
112.827
113.39
114.581
114.875
119.658
124.589
128.779
2.36144
2.37158
2.48695
2.59939
2.70877
2.79244
2.90905
3.0175
3.21552
3.77821
5.89396
13.0612
27.5685
43.9576
76.1083
103.19
108.419
109.379
110.846
112.939
116.895
121.546
125.41
2.37828
2.4101
2.5223
2.63124
2.74683
2.82774
2.9148
3.02545
3.21913
3.7701
5.98227
13.0076
27.6839
43.6042
71.8124
98.5407
103.304
104.557
106.322
109.138
112.986
117.296
120.812
2.40975
2.43767
2.5565
2.66842
2.77093
2.83446
2.91979
3.03013
3.22227
3.77618
5.92497
13.0582
27.3927
44.2866
70.8524
93.1539
97.491
99.1342
101.248
104.269
108.052
112.264
115.593
2.43227
2.48625
2.59103
2.70334
2.78439
2.84097
2.92559
3.03009
3.23277
3.77487
5.9209
12.5856
26.8395
43.7075
71.9642
87.4716
91.5025
93.3586
95.6043
99.0499
102.647
106.476
109.58
2.44406
2.50962
2.63241
2.70629
2.79169
2.84499
2.92684
3.02899
3.22492
3.78249
5.95296
12.4987
25.9493
42.0692
70.2303
81.7184
85.4202
87.4239
90.0472
93.1112
96.9216
100.789
103.798
2.45685
2.52348
2.6364
2.7094
2.78935
2.84695
2.93445
3.03307
3.22644
3.75845
5.8374
12.7135
24.7678
40.7711
67.4792
76.0848
79.4323
81.6142
84.1964
87.8037
91.2073
94.7077
97.4976
2.46112
2.53427
2.64036
2.72455
2.78972
2.84948
2.93055
3.02213
3.21796
3.7518
5.82129
12.576
23.6181
38.8185
63.952
70.6143
73.5999
75.8433
78.7548
81.7288
85.3499
89.5276
92.2179
2.45928
2.54413
2.64469
2.71718
2.78724
2.85639
2.92866
3.01903
3.21235
3.74376
5.8782
12.2009
22.3661
36.4611
60.1186
65.3606
68.0284
70.3437
72.9616
76.8866
79.7953
82.9281
86.4517
2.45648
2.53426
2.65452
2.72541
2.78516
2.84267
2.92623
3.01808
3.1911
3.73962
5.85842
11.8019
21.1651
34.605
56.1164
60.2998
62.6809
65.064
67.9319
70.8415
74.8547
78.3108
80.6026
2.45442
2.54445
2.64041
2.70956
2.78809
2.83964
2.91654
2.99841
3.18395
3.69945
5.75961
11.2354
20.4472
33.2949
52.0239
55.4498
57.6444
59.935
62.972
66.0422
68.6258
73.0812
76.9806
2.45219
2.52975
2.63687
2.7053
2.78051
2.84344
2.90601
2.99213
3.18567
3.68902
5.64011
10.8064
18.9713
31.5292
47.9304
50.7938
52.9072
55.2953
57.9231
62.314
65.4151
67.7625
71.6557
2.4504
2.52658
2.63206
2.70935
2.77109
2.8369
2.8792
2.99461
3.16894
3.69961
5.50464
10.2583
18.405
30.5667
43.9188
46.3688
48.456
51.0382
54.3484
56.1536
62.1594
64.9443
60.6941
2.42898
2.52396
2.62785
2.70178
2.75704
2.81721
2.8709
2.97855
3.13887
3.68273
5.3573
9.92635
17.2441
27.7966
40.02
42.2465
44.4987
47.4609
51.0738
52.7416
51.5796
55.2787
55.6709
2.42807
2.52313
2.60399
2.67117
2.73394
2.7981
2.8766
2.94871
3.09438
3.64829
5.24279
9.37164
17.611
27.3253
36.3812
38.421
40.8837
43.8864
45.7982
46.4649
50.1164
48.7949
39.5427
2.41539
2.49224
2.6074
2.65145
2.73194
2.77992
2.86556
2.90452
3.07859
3.61301
5.10816
9.31101
17.8294
28.1549
33.0072
34.9756
37.2286
39.2329
41.6725
44.7859
42.4485
33.8619
22.0439
2.39149
2.4843
2.589
2.63677
2.70879
2.76117
2.8434
2.88767
3.07909
3.56549
4.97712
9.48149
18.4024
27.0567
29.7509
31.4152
33.1362
35.6837
39.1601
36.9656
29.9433
19.9519
11.2754
2.34783
2.49083
2.56126
2.61976
2.67497
2.72033
2.81297
2.88857
3.06045
3.5213
4.96223
9.75429
17.7493
25.072
26.5474
27.8537
30.3203
33.0824
32.41
26.8683
18.6669
10.3927
6.97802
2.33297
2.47268
2.53821
2.57915
2.63644
2.68325
2.7754
2.86112
3.02366
3.47462
5.03577
10.3231
17.8971
22.7336
23.3657
25.2795
27.7048
28.0312
24.3921
17.9113
10.2658
6.53431
5.21744
2.33479
2.44501
2.5098
2.53719
2.60337
2.63601
2.73464
2.82346
2.98192
3.42387
5.1875
11.0592
17.2917
20.1021
20.8379
22.7946
24.1177
21.9202
17.345
10.7682
6.37363
4.93769
4.36976
2.30725
2.41171
2.47011
2.49691
2.57095
2.60681
2.68501
2.77276
2.92963
3.38411
5.42587
11.3956
16.5121
17.4309
18.9008
20.3173
19.5618
16.5157
11.5767
6.40415
4.68587
4.05293
3.78796
2.27638
2.3723
2.42105
2.46536
2.53528
2.57717
2.63502
2.7165
2.87111
3.38242
5.65606
11.5879
14.8551
15.3532
16.7879
17.2171
15.3905
11.9995
7.06788
4.524
3.80394
3.5299
3.40737
2.23005
2.3145
2.36393
2.42838
2.47718
2.52032
2.57015
2.65067
2.80988
3.40654
6.1123
11.3545
13.0659
13.8274
14.7091
14.0229
11.7646
8.0102
4.53301
3.58223
3.28684
3.16849
3.10646
2.18641
2.26148
2.32046
2.38091
2.42294
2.4654
2.50777
2.5776
2.74542
3.4941
6.63807
10.6644
11.4713
12.2733
12.5261
11.1989
8.76748
4.97188
3.48169
3.11449
2.99438
2.9418
2.90535
2.12448
2.19692
2.25624
2.30505
2.34159
2.38157
2.42412
2.49876
2.68735
3.63856
7.22219
9.63011
10.1414
10.7095
10.3363
8.77093
5.88309
3.46841
2.93981
2.80369
2.75416
2.72868
2.70721
2.07271
2.15115
2.2008
2.24097
2.27349
2.31088
2.34655
2.41028
2.63246
3.8403
7.06233
8.5133
9.02973
9.20801
8.4638
6.55266
3.71603
2.85793
2.67929
2.62861
2.60792
2.59403
2.58234
1.99635
2.07471
2.1096
2.14125
2.16821
2.20247
2.24276
2.32196
2.68289
4.21858
6.80554
7.50567
7.87872
7.77767
6.6821
4.3404
2.79258
2.51045
2.45165
2.43208
2.42249
2.41356
2.40702
1.94104
2.01659
2.04061
2.06932
2.09178
2.12313
2.15102
2.24165
2.74724
4.63009
6.28641
6.71439
6.89878
6.44214
4.97038
2.94056
2.43005
2.34607
2.32689
2.31933
2.31352
2.308
2.30455
1.84981
1.90662
1.92156
1.94342
1.95935
1.98775
2.03405
2.16765
2.87906
4.61497
5.51778
5.79786
5.78388
5.09931
3.0941
2.30466
2.1579
2.13563
2.12954
2.12585
2.12164
2.11866
2.11599
1.7922
1.84278
1.85256
1.87274
1.88612
1.91223
1.93037
2.16454
3.06047
4.54941
5.09259
5.33265
5.03355
3.59089
2.3533
2.09712
2.05261
2.04142
2.03782
2.03486
2.03152
2.02917
2.02662
1.66103
1.67907
1.68276
1.69335
1.70049
1.73047
1.84479
2.29373
3.22918
3.83548
4.06487
3.9213
3.10066
2.15269
1.84002
1.78909
1.78296
1.78352
1.78369
1.78161
1.77945
1.77794
1.77551
3.10172
2.79429
2.59948
2.4806
2.39327
2.34406
2.30274
2.27868
2.25664
2.24587
2.23776
2.24125
2.25357
2.28109
2.33268
2.41907
2.56006
2.69675
2.90336
3.04879
3.26942
3.39985
3.58715
3.11033
2.80142
2.60594
2.48967
2.40471
2.35353
2.30879
2.28338
2.25978
2.24729
2.23846
2.2419
2.2535
2.28097
2.33224
2.41795
2.55536
2.6921
2.89594
3.04038
3.25902
3.38886
3.57275
3.11995
2.82027
2.62356
2.50345
2.41341
2.35788
2.31352
2.28783
2.26301
2.25032
2.24002
2.24265
2.2534
2.27951
2.32745
2.41074
2.54233
2.67975
2.88637
3.03652
3.26089
3.38935
3.57551
3.13207
2.8297
2.62955
2.50944
2.42084
2.36857
2.32126
2.29209
2.26522
2.25199
2.24068
2.24293
2.253
2.27831
2.32267
2.40864
2.53676
2.67336
2.87042
3.01957
3.24093
3.38174
3.58101
3.13984
2.84256
2.64785
2.5289
2.43569
2.3763
2.32587
2.29578
2.26811
2.25442
2.24131
2.24321
2.25164
2.27753
2.31679
2.40746
2.52756
2.66418
2.86021
3.01062
3.22775
3.36419
3.56121
3.14721
2.85438
2.65865
2.53361
2.43798
2.37743
2.32666
2.29629
2.26837
2.25449
2.24109
2.24248
2.24916
2.27896
2.31738
2.40639
2.51926
2.65455
2.8468
2.99912
3.21871
3.36013
3.56156
3.15046
2.85896
2.66256
2.53785
2.4431
2.38303
2.33213
2.30144
2.27312
2.25918
2.24571
2.24755
2.25464
2.28341
2.32217
2.40911
2.52235
2.65517
2.84615
2.99301
3.21251
3.35084
3.55712
3.14792
2.85068
2.65399
2.52821
2.43393
2.37708
2.3254
2.2958
2.26728
2.25442
2.24408
2.24649
2.2542
2.28267
2.32257
2.41885
2.5318
2.6727
2.86951
3.0308
3.25607
3.40371
3.60747
2.9759
2.6402
2.46884
2.37907
2.31411
2.27964
2.24828
2.23624
2.22377
2.22029
2.22234
2.23197
2.25686
2.30695
2.39639
2.54817
2.74818
3.01513
3.35118
3.62076
4.05001
4.32146
4.72589
2.98593
2.64689
2.4732
2.38322
2.31757
2.28303
2.25097
2.2384
2.22559
2.22199
2.22351
2.23248
2.25694
2.30551
2.39182
2.53758
2.73231
2.97844
3.30907
3.55883
3.958
4.2146
4.6009
2.98665
2.652
2.47945
2.38848
2.32123
2.28562
2.25336
2.24067
2.2272
2.2233
2.22412
2.23273
2.25619
2.30244
2.38428
2.52085
2.7115
2.93457
3.25823
3.49897
3.87793
4.12217
4.49058
2.99723
2.66008
2.48435
2.39282
2.3251
2.2892
2.25629
2.24301
2.22909
2.22502
2.22517
2.23321
2.25606
2.30124
2.38022
2.51052
2.69827
2.90194
3.21602
3.44087
3.79329
4.02213
4.35658
2.99923
2.66598
2.49192
2.39913
2.32928
2.29214
2.25894
2.24544
2.23082
2.22635
2.22581
2.23362
2.2557
2.29889
2.37379
2.49515
2.67936
2.8663
3.1628
3.38068
3.72018
3.93774
4.24622
3.01079
2.67582
2.49758
2.40342
2.33332
2.29586
2.26222
2.24805
2.23284
2.22807
2.22693
2.23421
2.25529
2.29769
2.37042
2.48731
2.66722
2.84294
3.12324
3.32871
3.64635
3.84932
4.12596
3.01394
2.68253
2.50649
2.41114
2.33852
2.29951
2.26516
2.2507
2.23467
2.22926
2.22763
2.23465
2.25487
2.29571
2.36525
2.47563
2.64839
2.81493
3.07666
3.27225
3.57935
3.76837
4.03933
3.02678
2.69458
2.51315
2.41541
2.34251
2.30336
2.2689
2.25361
2.23687
2.23105
2.2289
2.2355
2.25488
2.2948
2.36282
2.47079
2.63892
2.79815
3.04653
3.23083
3.51942
3.69345
3.95761
3.03086
2.70193
2.52334
2.42459
2.34907
2.30802
2.27218
2.25644
2.23875
2.23211
2.22969
2.23608
2.25473
2.29295
2.35821
2.4615
2.62343
2.77595
3.01208
3.18698
3.46228
3.63088
3.88504
3.04508
2.71664
2.53121
2.42918
2.35304
2.31195
2.2764
2.25961
2.24118
2.23407
2.23109
2.23707
2.25466
2.29067
2.35462
2.45732
2.61741
2.76458
2.99038
3.1567
3.41639
3.57625
3.81221
3.04983
2.72414
2.54248
2.43971
2.36111
2.3178
2.28009
2.26251
2.24306
2.23512
2.2319
2.23767
2.25449
2.28961
2.35111
2.44977
2.60565
2.74852
2.96695
3.12684
3.37587
3.5315
3.75708
3.06489
2.7416
2.5519
2.44487
2.36512
2.32168
2.28463
2.26581
2.24582
2.2374
2.23345
2.23871
2.25445
2.28804
2.34819
2.44565
2.60042
2.74074
2.95248
3.10634
3.34419
3.4933
3.70551
3.07032
2.74903
2.56363
2.45658
2.37431
2.32874
2.28881
2.26876
2.2478
2.23863
2.23424
2.23931
2.25416
2.2865
2.34439
2.4389
2.59008
2.72788
2.93612
3.08623
3.31751
3.46082
3.66427
3.08486
2.76855
2.57489
2.46202
2.37858
2.33218
2.29331
2.27199
2.25085
2.24139
2.23574
2.24021
2.25438
2.28541
2.34204
2.43499
2.58346
2.72037
2.92575
3.07246
3.29678
3.4342
3.63058
3.09088
2.7758
2.58596
2.47446
2.38853
2.34019
2.29806
2.27522
2.25315
2.24274
2.23647
2.24074
2.25397
2.28389
2.33804
2.42697
2.56983
2.70743
2.9157
3.06207
3.28385
3.41702
3.60688
2.9089
2.57207
2.41386
2.33138
2.27448
2.24377
2.21863
2.20839
2.19886
2.19834
2.2066
2.23
2.28232
2.37245
2.52677
2.76643
3.11705
3.62269
4.05234
4.73299
5.16035
5.74535
6.08589
2.91201
2.57407
2.41518
2.33287
2.27569
2.24501
2.22006
2.20941
2.19988
2.19912
2.20744
2.2296
2.28121
2.37084
2.52353
2.76544
3.11219
3.62759
4.04456
4.70221
5.07937
5.71459
6.05116
2.91253
2.57604
2.41713
2.33424
2.27684
2.24617
2.22119
2.21005
2.20079
2.19998
2.20809
2.22972
2.28049
2.36954
2.52114
2.76062
3.102
3.61844
4.03428
4.67506
5.07228
5.69285
6.01872
2.91526
2.57811
2.41854
2.3357
2.2782
2.24748
2.22253
2.21108
2.20173
2.20078
2.20877
2.23077
2.27952
2.36821
2.51952
2.75912
3.09789
3.61147
4.02487
4.66221
5.052
5.66959
5.99014
2.91599
2.58018
2.42049
2.33708
2.27942
2.24862
2.22373
2.21165
2.20273
2.2017
2.20953
2.23077
2.27843
2.36656
2.5164
2.75421
3.0862
3.60297
4.01667
4.64643
5.03624
5.65309
5.97422
2.9189
2.58235
2.4222
2.33855
2.28094
2.24996
2.22501
2.21274
2.20362
2.20249
2.21019
2.23114
2.27747
2.36464
2.51381
2.75102
3.08195
3.5957
4.00354
4.62955
5.01526
5.62692
5.94744
2.91975
2.58451
2.424
2.33993
2.28227
2.25109
2.2262
2.21332
2.20469
2.20346
2.2109
2.23134
2.27639
2.36291
2.51063
2.74592
3.06935
3.58216
3.99319
4.61268
4.99924
5.61028
5.93184
2.92285
2.58681
2.42604
2.34147
2.28391
2.25237
2.2274
2.2144
2.20553
2.20424
2.21159
2.23197
2.27576
2.36057
2.5067
2.74066
3.06425
3.57041
3.97709
4.59061
4.97357
5.58048
5.90551
2.92385
2.58902
2.42769
2.34282
2.28535
2.25354
2.22859
2.21519
2.20667
2.20523
2.21223
2.23219
2.27487
2.3587
2.50324
2.73532
3.05292
3.55559
3.95956
4.56935
4.95431
5.5574
5.88303
2.92719
2.59146
2.43008
2.34451
2.28709
2.25473
2.22967
2.2162
2.20745
2.20598
2.2129
2.23235
2.27417
2.35591
2.49823
2.72822
3.04429
3.53815
3.94171
4.54337
4.92677
5.52758
5.85823
2.92835
2.5937
2.43161
2.34585
2.28864
2.25598
2.23082
2.21724
2.20862
2.20695
2.21351
2.23213
2.2733
2.35376
2.49417
2.72217
3.03314
3.52243
3.91799
4.51602
4.9014
5.49387
5.82812
2.93194
2.59626
2.4343
2.34771
2.2904
2.25714
2.23183
2.21824
2.20936
2.20769
2.21414
2.23234
2.2725
2.35081
2.48866
2.71411