/*--------------------------------*- C++ -*----------------------------------*\
  =========                 |
  \\      /  F ield         | OpenFOAM: The Open Source CFD Toolbox
   \\    /   O peration     | Website:  https://openfoam.org
    \\  /    A nd           | Version:  7
     \\/     M anipulation  |
\*---------------------------------------------------------------------------*/
FoamFile
{
    version     2.0;
    format      ascii;
    class       volScalarField;
    location    "129";
    object      p;
}
// * * * * * * * * * * * * * * * * * * * * * * * * * * * * * * * * * * * * * //

dimensions      [0 2 -2 0 0 0 0];

internalField   nonuniform List<scalar> 
12842
(
1.11221
1.18536
1.23897
1.33294
1.47077
1.6454
1.85634
2.11182
2.4314
2.8468
3.39799
4.12312
5.04654
6.16677
7.45121
8.8434
10.2773
11.6918
13.0398
14.291
15.4304
16.4487
17.3526
0.88871
0.963529
0.989828
1.03748
1.10365
1.17397
1.24052
1.30493
1.38525
1.51828
1.75554
2.15068
2.74409
3.54748
4.53744
5.66483
6.87222
8.10927
9.33938
10.5364
11.6825
12.7492
13.7377
0.710227
0.776302
0.779848
0.786045
0.787079
0.761418
0.692698
0.576074
0.429707
0.296863
0.242022
0.334313
0.628473
1.14492
1.8628
2.73367
3.70471
4.73621
5.80485
6.89207
7.98112
9.02645
10.0318
0.565164
0.622528
0.60419
0.571018
0.51246
0.397476
0.200197
-0.0905447
-0.454829
-0.841954
-1.17261
-1.36191
-1.3419
-1.08805
-0.625169
-0.00733345
0.714165
1.51117
2.37726
3.30446
4.28145
5.24563
6.2113
0.444813
0.499811
0.456815
0.386822
0.27507
0.0772034
-0.24199
-0.700076
-1.27403
-1.90551
-2.49843
-2.95233
-3.18701
-3.17815
-2.96021
-2.59837
-2.14443
-1.61342
-0.990987
-0.271617
0.542393
1.37336
2.2531
0.344583
0.404012
0.331912
0.230362
0.0732488
-0.200126
-0.63226
-1.24801
-2.0202
-2.88376
-3.72419
-4.42685
-4.89998
-5.12365
-5.14617
-5.04813
-4.88316
-4.65161
-4.31459
-3.8506
-3.24804
-2.59842
-1.84449
0.261694
0.329593
0.224772
0.099759
-0.0939829
-0.434264
-0.967274
-1.72738
-2.68238
-3.76212
-4.83251
-5.76713
-6.46327
-6.90897
-7.16905
-7.34362
-7.4894
-7.59157
-7.58311
-7.42426
-7.08334
-6.66458
-6.07526
0.194188
0.270856
0.131866
-0.00732432
-0.229699
-0.627531
-1.24664
-2.13446
-3.25337
-4.53092
-5.81376
-6.96706
-7.8765
-8.53965
-9.037
-9.49081
-9.96283
-10.4256
-10.782
-10.9743
-10.9412
-10.8065
-10.4173
0.134206
0.222873
0.0541816
-0.0863914
-0.326159
-0.765636
-1.44677
-2.43166
-3.67648
-5.10566
-6.54942
-7.8666
-8.93468
-9.76264
-10.447
-11.1346
-11.8941
-12.6896
-13.3925
-13.9324
-14.2022
-14.3731
-14.1803
0.0793913
0.179054
-0.0160956
-0.150348
-0.403727
-0.876038
-1.60622
-2.66864
-4.01442
-5.5604
-7.12558
-8.56101
-9.74116
-10.6862
-11.5094
-12.3819
-13.3804
-14.4638
-15.4777
-16.3391
-16.9017
-17.3549
-17.3889
0.0373291
0.14027
-0.0770389
-0.202723
-0.471857
-0.974577
-1.75165
-2.8873
-4.3304
-5.9866
-7.66917
-9.21902
-10.5112
-11.5744
-12.5381
-13.5965
-14.8363
-16.2153
-17.5572
-18.7687
-19.6632
-20.44
-20.7504
0.00640908
0.104948
-0.126878
-0.243375
-0.52997
-1.05914
-1.88065
-3.08455
-4.62107
-6.38218
-8.18117
-9.84684
-11.2574
-12.4454
-13.5546
-14.8002
-16.281
-17.9597
-19.6433
-21.2309
-22.4947
-23.6398
-24.267
-0.0168657
0.0714698
-0.165516
-0.274529
-0.579133
-1.13004
-1.99349
-3.2606
-4.88681
-6.74911
-8.66574
-10.4517
-11.9896
-13.3103
-14.5692
-16.0001
-17.7176
-19.6965
-21.7332
-23.7213
-25.3891
-26.9468
-27.9326
-0.035486
0.0397008
-0.193677
-0.298821
-0.620774
-1.18911
-2.09235
-3.41829
-5.13094
-7.09248
-9.12947
-11.0421
-12.7169
-14.1777
-15.5872
-17.1963
-19.1407
-21.414
-23.8109
-26.219
-28.327
-30.3355
-31.7352
-0.0523815
0.01075
-0.212462
-0.318486
-0.655857
-1.23825
-2.17932
-3.56043
-5.35674
-7.41691
-9.57755
-11.6237
-13.4443
-15.05
-16.6073
-18.3826
-20.5384
-23.0952
-25.8565
-28.7002
-31.2899
-33.782
-35.6669
-0.0691645
-0.0142147
-0.223689
-0.335097
-0.684878
-1.27889
-2.25557
-3.6887
-5.56606
-7.72497
-10.0124
-12.1985
-14.1719
-15.9252
-17.6237
-19.5481
-21.8947
-24.7188
-27.8437
-31.134
-34.2452
-37.2507
-39.6879
-0.0869568
-0.0342073
-0.229445
-0.349765
-0.708396
-1.31231
-2.32194
-3.80416
-5.75991
-8.01773
-10.4346
-12.7664
-14.8987
-16.8006
-18.6313
-20.6843
-23.1956
-26.2627
-29.7394
-33.4749
-37.1284
-40.6707
-43.7045
-0.106061
-0.048682
-0.231925
-0.362851
-0.726806
-1.33928
-2.3788
-3.90729
-5.93861
-8.29514
-10.8435
-13.3257
-15.6218
-17.6727
-19.6251
-21.7827
-24.4251
-27.699
-31.4967
-35.6547
-39.8398
-43.9269
-47.5741
-0.126248
-0.0574889
-0.232913
-0.374463
-0.740712
-1.36053
-2.42661
-3.99861
-6.10244
-8.55698
-11.2379
-13.8744
-16.3391
-18.5394
-20.6027
-22.8372
-25.5673
-28.9938
-33.054
-37.5779
-42.242
-46.8491
-51.092
-0.146836
-0.0611048
-0.233808
-0.384406
-0.750547
-1.37646
-2.46569
-4.07861
-6.25179
-8.80331
-11.6176
-14.4119
-17.0504
-19.4015
-21.565
-23.8442
-26.6054
-30.106
-34.3324
-39.1187
-44.1542
-49.2029
-53.9711
-0.166877
-0.0604502
-0.235403
-0.392802
-0.75719
-1.38793
-2.49686
-4.14796
-6.38698
-9.03397
-11.982
-14.9378
-17.7568
-20.2626
-22.5165
-24.8032
-27.5226
-30.9874
-35.2367
-40.1203
-45.3512
-50.683
-55.8247
-0.185851
-0.056563
-0.238063
-0.399272
-0.760441
-1.39469
-2.52033
-4.20766
-6.5097
-9.25112
-12.3334
-15.4547
-18.4617
-21.1273
-23.4617
-25.7126
-28.2992
-31.5854
-35.6641
-40.4151
-45.5894
-50.9532
-56.2122
-0.202007
-0.0509688
-0.241854
-0.404768
-0.762235
-1.39868
-2.53753
-4.2578
-6.61897
-9.45313
-12.6706
-15.9634
-19.17
-22.0065
-24.4164
-26.5851
-28.9302
-31.8594
-35.5213
-39.8409
-44.6358
-49.7061
-54.7228
-0.215015
-0.0436515
-0.245016
-0.404529
-0.756882
-1.39547
-2.54679
-4.2997
-6.71488
-9.63321
-12.9722
-16.4231
-19.821
-22.8279
-25.3106
-27.365
-29.3745
-31.7702
-34.7512
-38.3083
-42.3662
-46.756
-51.0748
-0.233733
-0.0408962
-0.250442
-0.403434
-0.750792
-1.39203
-2.5551
-4.33823
-6.79982
-9.79119
-13.2351
-16.829
-20.4074
-23.5843
-26.1401
-28.0536
-29.6334
-31.303
-33.3108
-35.7608
-38.7066
-42.0031
-45.2656
-0.246026
-0.0367985
-0.253757
-0.399669
-0.744059
-1.39155
-2.57068
-4.38953
-6.90134
-9.96872
-13.5175
-17.2549
-21.0149
-24.3662
-26.9921
-28.73
-29.7802
-30.5374
-31.3329
-32.4559
-34.0577
-36.0046
-38.0437
-0.250828
-0.0312023
-0.253971
-0.393161
-0.736895
-1.39356
-2.59115
-4.44736
-7.00871
-10.1497
-13.7994
-17.6781
-21.6223
-25.1585
-27.8656
-29.419
-29.8801
-29.6029
-29.0546
-28.7395
-28.8806
-29.424
-30.2295
-0.251551
-0.0257718
-0.252287
-0.385382
-0.730233
-1.39758
-2.61407
-4.50609
-7.11335
-10.3221
-14.0672
-18.0852
-22.219
-25.958
-28.773
-30.1639
-30.0293
-28.6834
-26.7472
-24.9118
-23.5915
-22.8903
-22.566
-0.250198
-0.021321
-0.249693
-0.378107
-0.725708
-1.4045
-2.63946
-4.56434
-7.21343
-10.4838
-14.3202
-18.4765
-22.809
-26.7754
-29.7412
-31.0256
-30.351
-27.9854
-24.6463
-21.2424
-18.6244
-16.9224
-15.5847
-0.247676
-0.0179723
-0.24685
-0.372414
-0.724262
-1.41479
-2.66754
-4.62206
-7.30955
-10.6363
-14.5616
-18.8572
-23.3992
-27.6231
-30.7981
-32.0689
-30.978
-27.7017
-22.9736
-18.1229
-14.5185
-11.9693
-9.66848
-0.244895
-0.0155852
-0.244135
-0.368853
-0.726
-1.428
-2.69747
-4.67835
-7.40128
-10.7802
-14.7928
-19.229
-23.9919
-28.507
-31.9638
-33.3537
-32.0339
-28.0029
-22.0219
-16.09
-11.8044
-8.42572
-5.22664
-0.242882
-0.014127
-0.241907
-0.367343
-0.730166
-1.44279
-2.72751
-4.73147
-7.48721
-10.9149
-15.0134
-19.5916
-24.5859
-29.429
-33.2541
-34.9358
-33.6298
-29.0701
-22.1867
-15.6714
-10.8744
-6.69236
-2.7292
-0.242271
-0.0133112
-0.240164
-0.367451
-0.735675
-1.45761
-2.75585
-4.77988
-7.56613
-11.0397
-15.2227
-19.9435
-25.1782
-30.3877
-34.6796
-36.8617
-35.8634
-31.1194
-23.8975
-17.2904
-12.1435
-7.36242
-2.7759
-0.243206
-0.012787
-0.238762
-0.368356
-0.741203
-1.47095
-2.78101
-4.82261
-7.63755
-11.155
-15.4206
-20.2838
-25.7658
-31.3809
-36.2482
-39.1686
-38.827
-34.4048
-27.5709
-21.3977
-16.2939
-11.2797
-6.27256
-0.245393
-0.0120513
-0.237338
-0.369294
-0.745718
-1.48182
-2.8022
-4.85949
-7.70176
-11.2613
-15.6072
-20.6114
-26.345
-32.4041
-37.9608
-41.8785
-42.6078
-39.1836
-33.5708
-28.4592
-23.9437
-19.1211
-14.1314
-0.248422
-0.010805
-0.235683
-0.369583
-0.748483
-1.48969
-2.81929
-4.89108
-7.75976
-11.3601
-15.7834
-20.926
-26.9122
-33.452
-39.8127
-44.9998
-47.2794
-45.6446
-42.0791
-38.6178
-35.1156
-30.8951
-26.3683
-0.251832
-0.00881593
-0.233618
-0.368924
-0.749349
-1.49479
-2.8329
-4.91861
-7.81305
-11.4528
-15.9499
-21.2268
-27.463
-34.5157
-41.7887
-48.5193
-52.8742
-53.82
-52.942
-51.4249
-49.0271
-45.5229
-41.5956
-0.255291
-0.00612871
-0.231205
-0.367209
-0.748463
-1.49765
-2.84403
-4.94356
-7.8633
-11.5411
-16.1076
-21.5133
-27.9926
-35.584
-43.8631
-52.3998
-59.3608
-63.5499
-65.6564
-65.9891
-64.5473
-61.6252
-58.1221
-0.258526
-0.00281355
-0.228489
-0.364604
-0.746306
-1.49911
-2.85382
-4.96735
-7.91193
-11.6261
-16.2568
-21.7842
-28.4944
-36.6406
-45.9961
-56.5714
-66.6211
-74.475
-79.4819
-81.3242
-80.6123
-78.1096
-74.8483
-0.261418
0.000895239
-0.225632
-0.361267
-0.743305
-1.49987
-2.86315
-4.99095
-7.95973
-11.7082
-16.397
-22.0374
-28.9612
-37.6658
-48.1357
-60.933
-74.4502
-86.1177
-93.6629
-96.5998
-96.3866
-94.2502
-91.2574
-0.263862
0.00486332
-0.222661
-0.357433
-0.73991
-1.50051
-2.87261
-5.0148
-8.00682
-11.7869
-16.5268
-22.27
-29.3837
-38.6346
-50.2178
-65.3518
-82.5714
-97.945
-107.542
-111.253
-111.383
-109.522
-106.734
-0.26585
0.00889866
-0.21964
-0.353204
-0.736338
-1.50126
-2.88234
-5.03879
-8.05271
-11.8613
-16.6446
-22.479
-29.7526
-39.5199
-52.1713
-69.6728
-90.6619
-109.433
-120.61
-124.927
-125.389
-123.716
-120.926
-0.267338
0.0129625
-0.216491
-0.348714
-0.732779
-1.50226
-2.89231
-5.06253
-8.09666
-11.9301
-16.7485
-22.6613
-30.0583
-40.2915
-53.9197
-73.7231
-98.3817
-120.121
-132.507
-137.328
-138.117
-136.609
-133.737
-0.26837
0.0169667
-0.213209
-0.343988
-0.729248
-1.50343
-2.90224
-5.08546
-8.13783
-11.9923
-16.837
-22.8143
-30.2921
-40.9197
-55.3855
-77.32
-105.397
-129.636
-142.942
-148.237
-149.347
-147.98
-145.007
-0.268958
0.0209468
-0.209711
-0.339126
-0.725809
-1.50472
-2.91191
-5.10713
-8.1756
-12.0471
-16.909
-22.9362
-30.4458
-41.3754
-56.4921
-80.2756
-111.393
-137.68
-151.667
-157.383
-158.774
-157.583
-154.642
-0.269207
0.0248641
-0.206026
-0.334151
-0.722414
-1.50599
-2.92106
-5.12713
-8.20954
-12.0942
-16.9641
-23.0258
-30.5132
-41.6319
-57.1672
-82.4135
-116.091
-144.021
-158.542
-164.53
-166.033
-164.935
-162.16
-0.269189
0.0287597
-0.202125
-0.329149
-0.719076
-1.50717
-2.92956
-5.14533
-8.23964
-12.1338
-17.0025
-23.0828
-30.4899
-41.6654
-57.3498
-83.5916
-119.253
-148.511
-163.567
-169.669
-171.103
-169.965
-167.431
-0.268963
0.0326815
-0.19802
-0.32407
-0.715674
-1.50812
-2.93725
-5.16168
-8.26609
-12.1666
-17.0252
-23.1083
-30.3747
-41.4582
-56.9932
-83.6874
-120.666
-151.127
-166.838
-172.807
-173.911
-172.592
-170.203
-0.26841
0.0365802
-0.193687
-0.318896
-0.712092
-1.50874
-2.94442
-5.17731
-8.29158
-12.198
-17.042
-23.1191
-30.2011
-41.0567
-56.1703
-82.7489
-120.385
-152.155
-168.527
-173.939
-174.42
-172.744
-170.28
-0.269901
0.0395653
-0.189918
-0.313729
-0.708117
-1.50894
-2.95192
-5.19532
-8.32341
-12.2427
-17.0816
-23.1664
-30.076
-40.6487
-55.2238
-81.2858
-119.079
-152.274
-168.951
-173.386
-172.941
-170.823
-168.184
-0.270881
0.0432526
-0.185338
-0.307441
-0.702838
-1.50831
-2.96056
-5.21866
-8.36789
-12.3121
-17.1642
-23.2843
-30.0797
-40.4014
-54.4989
-79.9471
-117.492
-151.799
-168.305
-171.695
-170.115
-167.478
-164.607
-0.271301
0.0477563
-0.179742
-0.299604
-0.695875
-1.50676
-2.97091
-5.24869
-8.42698
-12.4077
-17.2916
-23.4723
-30.2228
-40.364
-54.1271
-79.0738
-116.001
-150.839
-166.851
-169.165
-166.429
-163.165
-159.906
-0.271519
0.0528508
-0.17324
-0.290359
-0.687513
-1.50485
-2.98384
-5.28624
-8.50063
-12.5268
-17.4568
-23.7151
-30.4851
-40.5266
-54.1234
-78.7845
-114.814
-149.583
-164.887
-166.033
-162.2
-158.248
-154.482
-0.271592
0.0583771
-0.165932
-0.279824
-0.678086
-1.50323
-3.00025
-5.33204
-8.5885
-12.6662
-17.6517
-23.996
-30.8368
-40.853
-54.4364
-79.0043
-114.015
-148.211
-162.538
-162.459
-157.6
-152.969
-148.696
-0.271355
0.0643016
-0.157925
-0.268435
-0.668295
-1.50271
-3.02057
-5.38528
-8.68719
-12.8183
-17.8614
-24.2894
-31.2298
-41.2793
-54.9615
-79.5204
-113.556
-146.779
-159.844
-158.548
-152.772
-147.541
-142.874
-0.270738
0.0704926
-0.149352
-0.256417
-0.658549
-1.50389
-3.04546
-5.4464
-8.79631
-12.9812
-18.0805
-24.5864
-31.6414
-41.7799
-55.6638
-80.2099
-113.421
-145.236
-156.716
-154.18
-147.642
-141.974
-137.131
-0.269989
0.0768224
-0.140548
-0.244272
-0.649371
-1.50704
-3.07446
-5.51367
-8.91211
-13.1487
-18.2982
-24.8708
-32.0374
-42.2918
-56.3879
-80.6619
-112.829
-142.61
-152.275
-148.644
-141.689
-135.843
-131.036
-0.268233
0.0838852
-0.130592
-0.231091
-0.639686
-1.51052
-3.10432
-5.58075
-9.02298
-13.3012
-18.4812
-25.0909
-32.3311
-42.6837
-56.9582
-80.78
-111.782
-139.273
-147.238
-142.798
-135.732
-129.918
-125.236
-0.266465
0.0905736
-0.121123
-0.219018
-0.632049
-1.51704
-3.13749
-5.64944
-9.1296
-13.4386
-18.6286
-25.2449
-32.5105
-42.9058
-57.2635
-80.3896
-109.912
-135.041
-141.522
-136.577
-129.641
-124.006
-119.478
-0.264867
0.0966306
-0.11254
-0.208492
-0.626832
-1.52669
-3.17359
-5.71907
-9.23166
-13.5626
-18.7453
-25.3435
-32.5888
-42.9515
-57.2742
-79.5006
-107.241
-130.009
-135.109
-129.842
-123.144
-117.731
-113.371
-0.263238
0.102336
-0.104533
-0.199129
-0.623275
-1.53811
-3.2104
-5.78667
-9.3259
-13.6703
-18.8313
-25.3903
-32.5742
-42.8259
-56.9905
-78.2015
-103.983
-124.416
-128.2
-122.73
-116.288
-111.087
-106.897
-0.261603
0.107765
-0.0970034
-0.190588
-0.620682
-1.55008
-3.24609
-5.84995
-9.41028
-13.761
-18.8889
-25.3914
-32.4804
-42.5527
-56.4402
-76.5826
-100.344
-118.474
-121.016
-115.426
-109.211
-104.212
-100.175
-0.260013
0.112981
-0.0898937
-0.18272
-0.618649
-1.56187
-3.27969
-5.90807
-9.48494
-13.8367
-18.9246
-25.358
-32.328
-42.1691
-55.6719
-74.7036
-96.4558
-112.323
-113.716
-108.065
-102.027
-97.2015
-93.2938
-0.258568
0.117999
-0.0831502
-0.175255
-0.616723
-1.57285
-3.31062
-5.96091
-9.55114
-13.9008
-18.9464
-25.3033
-32.1399
-41.7176
-54.7493
-72.6145
-92.4077
-106.057
-106.403
-100.728
-94.8158
-90.1097
-86.3113
-0.257212
0.12296
-0.0765682
-0.167925
-0.614503
-1.58259
-3.33867
-6.00884
-9.61059
-13.9568
-18.9615
-25.2393
-31.9364
-41.2383
-53.7413
-70.3744
-88.2751
-99.7502
-99.1461
-93.4616
-87.6399
-83.0145
-79.3072
-0.255951
0.127918
-0.0700175
-0.160447
-0.611659
-1.59083
-3.36391
-6.05258
-9.66515
-14.0081
-18.9755
-25.1751
-31.7341
-40.7612
-52.7084
-68.0444
-84.1118
-93.4712
-92.012
-86.3068
-80.5468
-75.9874
-72.3804
-0.25471
0.132964
-0.0633602
-0.152712
-0.608107
-1.59763
-3.38681
-6.09317
-9.71671
-14.0572
-18.992
-25.1166
-31.5442
-40.3028
-51.6915
-65.6712
-79.9488
-87.2816
-85.0642
-79.3058
-73.5865
-69.0694
-65.5776
-0.253515
0.138072
-0.0565928
-0.144664
-0.603882
-1.60325
-3.408
-6.13169
-9.76683
-14.1059
-19.0124
-25.0661
-31.3713
-39.8648
-50.7068
-63.2785
-75.7993
-81.2279
-78.349
-72.5145
-66.8433
-62.3486
-58.9241
-0.252305
0.14327
-0.0496884
-0.136378
-0.599168
-1.60808
-3.42814
-6.16907
-9.81647
-14.155
-19.0366
-25.0226
-31.213
-39.4376
-49.747
-60.867
-71.6643
-75.3315
-71.887
-65.9921
-60.3974
-55.9433
-52.5479
-0.251116
0.148497
-0.042713
-0.127911
-0.594142
-1.61245
-3.44777
-6.20588
-9.86596
-14.2041
-19.0622
-24.9819
-31.06
-39.0033
-48.7878
-58.4242
-67.5481
-69.6089
-65.6778
-59.76
-54.2542
-49.884
-46.5551
-0.249883
0.153763
-0.035676
-0.119391
-0.589026
-1.61669
-3.46724
-6.24235
-9.91498
-14.252
-19.086
-24.9374
-30.8994
-38.5392
-47.7974
-55.9431
-63.4718
-64.0832
-59.7164
-53.8198
-48.3879
-44.0895
-40.8383
-0.24865
0.159005
-0.0286533
-0.110884
-0.583963
-1.621
-3.4867
-6.27835
-9.96274
-14.2967
-19.1038
-24.8814
-30.717
-38.022
-46.7442
-53.4335
-59.4564
-58.7757
-54.0112
-48.1798
-42.8589
-38.6669
-35.4918
-0.247351
0.164237
-0.0216484
-0.102497
-0.579092
-1.6255
-3.50613
-6.31354
-10.0082
-14.3363
-19.1113
-24.8064
-30.5
-37.4315
-45.6032
-50.9221
-55.5119
-53.6874
-48.5765
-42.8316
-37.6787
-33.6994
-30.7162
-0.246032
0.169403
-0.0147221
-0.0942642
-0.574463
-1.63019
-3.52533
-6.34737
-10.0501
-14.3686
-19.1049
-24.706
-30.238
-36.7536
-44.3571
-48.4322
-51.6302
-48.8006
-43.4185
-37.7695
-32.7942
-29.054
-26.3368
-0.244632
0.174526
-0.00786601
-0.0862561
-0.570124
-1.63502
-3.54407
-6.37928
-10.0874
-14.392
-19.0817
-24.5755
-29.924
-35.9824
-42.9958
-45.9522
-47.7915
-44.1164
-38.5582
-33.0257
-28.2272
-24.7156
-22.2524
-0.243214
0.179554
-0.0011324
-0.0784755
-0.566055
-1.6399
-3.56204
-6.4087
-10.1191
-14.4051
-19.04
-24.4123
-29.5552
-35.1175
-41.5111
-43.4456
-43.9954
-39.6552
-34.0376
-28.6565
-24.088
-20.8357
-18.5836
-0.241723
0.184515
0.0054919
-0.0709669
-0.562248
-1.64472
-3.57897
-6.4352
-10.1447
-14.4071
-18.9789
-24.2156
-29.1324
-34.1631
-39.9031
-40.8982
-40.2769
-35.4426
-29.8584
-24.6539
-20.394
-17.443
-15.3644
-0.240234
0.189363
0.0119637
-0.0637056
-0.558642
-1.64933
-3.59461
-6.45838
-10.1637
-14.3977
-18.8984
-23.986
-28.6593
-33.1265
-38.1861
-38.3366
-36.686
-31.5055
-25.9924
-20.9788
-17.0507
-14.3236
-12.3679
-0.238691
0.194133
0.0183084
-0.0567069
-0.555199
-1.65364
-3.60876
-6.478
-10.1758
-14.3769
-18.7991
-23.725
-28.1413
-32.0187
-36.3863
-35.8013
-33.2748
-27.8685
-22.437
-17.6663
-14.0643
-11.5066
-9.66257
-0.23717
0.198791
0.0245003
-0.0499196
-0.551839
-1.6575
-3.62124
-6.49388
-10.1809
-14.3446
-18.6816
-23.4344
-27.5851
-30.858
-34.5322
-33.318
-30.0752
-24.5478
-19.2462
-14.7823
-11.459
-9.08543
-7.39768
-0.235604
0.203382
0.0305804
-0.0433389
-0.548514
-1.66085
-3.63194
-6.50592
-10.179
-14.3009
-18.5466
-23.1162
-26.9972
-29.6711
-32.645
-30.8924
-27.0894
-21.5436
-16.4479
-12.2915
-9.18354
-6.96216
-5.4034
-0.234063
0.207878
0.0365357
-0.036906
-0.545158
-1.6636
-3.64078
-6.51404
-10.1701
-14.246
-18.3948
-22.7721
-26.3829
-28.4827
-30.7359
-28.5292
-24.302
-18.8187
-13.9745
-10.0528
-7.11996
-5.06307
-3.64821
-0.232464
0.212325
0.0424112
-0.0306204
-0.541748
-1.66571
-3.64773
-6.51821
-10.1541
-14.1798
-18.2265
-22.4033
-25.7444
-27.3052
-28.8221
-26.2562
-21.7186
-16.3294
-11.7509
-8.04668
-5.31036
-3.45036
-2.21528
-0.230879
0.216692
0.0481912
-0.02444
-0.538256
-1.66718
-3.65276
-6.51839
-10.131
-14.102
-18.0418
-22.0106
-25.0819
-26.1397
-26.9333
-24.1114
-19.3709
-14.098
-9.78676
-6.3228
-3.83487
-2.17455
-1.07139
-0.229215
0.221016
0.0539101
-0.018387
-0.534694
-1.66801
-3.65588
-6.51453
-10.1005
-14.0123
-17.8405
-21.5947
-24.3967
-24.9861
-25.1008
-22.1227
-17.2826
-12.1632
-8.10851
-4.8902
-2.62651
-1.12577
-0.121754
-0.227549
0.225258
0.0595407
-0.0124438
-0.531068
-1.66821
-3.65708
-6.50651
-10.0625
-13.9104
-17.6224
-21.1562
-23.6913
-23.8513
-23.3447
-20.3002
-15.4445
-10.5088
-6.67751
-3.69945
-1.63661
-0.273965
0.621897
-0.225784
0.229447
0.0651038
-0.00665267
-0.527412
-1.6678
-3.65632
-6.49418
-10.0165
-13.7954
-17.3869
-20.6959
-22.9692
-22.7488
-21.677
-18.6439
-13.8095
-9.08356
-5.47561
-2.72932
-0.861064
0.349175
1.13688
-0.224006
0.233537
0.0705627
-0.0010098
-0.523737
-1.66679
-3.65353
-6.47732
-9.96216
-13.6668
-17.1335
-20.2139
-22.2325
-21.6921
-20.1023
-17.1372
-12.3322
-7.86286
-4.48938
-1.9694
-0.282016
0.804342
1.52287
-0.222117
0.23755
0.0759312
0.00443833
-0.520073
-1.66516
-3.6486
-6.45565
-9.89894
-13.5237
-16.8615
-19.7105
-21.4825
-20.692
-18.6233
-15.754
-11.0031
-6.82991
-3.68456
-1.37285
0.146791
1.13291
1.8001
-0.220209
0.24144
0.0811719
0.0096986
-0.516415
-1.66286
-3.6414
-6.42885
-9.82629
-13.3655
-16.5703
-19.1857
-20.718
-19.7537
-17.2537
-14.4632
-9.8368
-5.94788
-3.02246
-0.923216
0.452569
1.34228
1.93826
-0.21818
0.24523
0.0863
0.0147331
-0.512767
-1.65983
-3.63175
-6.39656
-9.74369
-13.1916
-16.2598
-18.6401
-19.936
-18.8742
-16.0066
-13.2524
-8.81718
-5.19443
-2.49864
-0.603632
0.638844
1.44651
1.99481
-0.216131
0.248877
0.091284
0.0195625
-0.509098
-1.656
-3.61943
-6.35841
-9.65063
-13.0014
-15.9298
-18.0746
-19.1321
-18.0403
-14.8836
-12.1288
-7.90286
-4.56971
-2.10852
-0.384015
0.744198
1.48397
2.00676
-0.213953
0.252407
0.0961454
0.0241587
-0.505393
-1.65126
-3.60425
-6.31405
-9.54664
-12.7946
-15.5809
-17.4911
-18.3021
-17.23
-13.8869
-11.0917
-7.08755
-4.07234
-1.81165
-0.245022
0.789358
1.47858
1.96421
-0.211757
0.255777
0.10086
0.0285638
-0.5016
-1.64553
-3.58605
-6.26326
-9.43153
-12.5712
-15.2138
-16.8918
-17.4466
-16.4302
-13.0214
-10.14
-6.39974
-3.66568
-1.59396
-0.169672
0.782772
1.423
1.87565
-0.209413
0.259041
0.105455
0.0327383
-0.497711
-1.63869
-3.5645
-6.20545
-9.30457
-12.3308
-14.8291
-16.281
-16.5679
-15.609
-12.2443
-9.2679
-5.83041
-3.34015
-1.45999
-0.158746
0.729276
1.32213
1.75042
-0.207161
0.262098
0.109913
0.0367281
-0.493895
-1.63138
-3.54097
-6.14288
-9.16883
-12.0772
-14.4317
-15.6625
-15.6819
-14.823
-11.6086
-8.5171
-5.38427
-3.11124
-1.381
-0.177293
0.657029
1.22413
1.6381
-0.205009
0.265288
0.114323
0.0404438
-0.490408
-1.62353
-3.5137
-6.0699
-9.01307
-11.7927
-14.0026
-15.0396
-14.7677
-13.7913
-10.7141
-7.65006
-4.87602
-2.87638
-1.32402
-0.237097
0.526953
1.07358
1.47496
-0.199735
0.270616
0.12137
0.0463871
-0.483534
-1.60832
-3.47039
-5.96677
-8.81064
-11.445
-13.5101
-14.4284
-14.0017
-13.0005
-10.194
-7.29301
-4.7226
-2.863
-1.40697
-0.374572
0.366854
0.906566
1.30468
-0.195588
0.274682
0.127066
0.0505281
-0.477312
-1.58908
-3.41276
-5.83254
-8.5576
-11.0249
-12.9253
-13.756
-13.2268
-12.1795
-9.66723
-7.00866
-4.62911
-2.86895
-1.50931
-0.521271
0.206579
0.727992
1.11877
-0.193169
0.276612
0.130271
0.051424
-0.47367
-1.56835
-3.344
-5.67088
-8.25746
-10.5359
-12.2408
-12.9632
-12.313
-11.1586
-8.92551
-6.56713
-4.43447
-2.83475
-1.60184
-0.674699
0.00387732
0.495791
0.881851
-0.190909
0.27733
0.132049
0.0501429
-0.470961
-1.54339
-3.25975
-5.47545
-7.90147
-9.97142
-11.4553
-12.0399
-11.2693
-10.0129
-8.05387
-6.01737
-4.16169
-2.76325
-1.66291
-0.834932
-0.220223
0.235309
0.595472
-0.188218
0.277302
0.133095
0.0478403
-0.467075
-1.51047
-3.15398
-5.23781
-7.47864
-9.32216
-10.5693
-11.0014
-10.1514
-8.85627
-7.16193
-5.42232
-3.85068
-2.64199
-1.69166
-0.977402
-0.439128
-0.0517347
0.254599
-0.18496
0.276447
0.133462
0.0449101
-0.46074
-1.46696
-3.02255
-4.95293
-6.98381
-8.58437
-9.58471
-9.86161
-8.98347
-7.71952
-6.27092
-4.79621
-3.48739
-2.46543
-1.67098
-1.08005
-0.640563
-0.316998
-0.0573693
-0.18135
0.274584
0.133066
0.0417095
-0.450894
-1.41079
-2.86269
-4.61878
-6.41775
-7.76184
-8.5108
-8.63837
-7.77305
-6.58853
-5.36151
-4.12846
-3.05206
-2.21323
-1.56506
-1.08562
-0.734035
-0.478453
-0.279739
-0.177062
0.271807
0.132163
0.0388082
-0.436237
-1.33983
-2.67227
-4.23533
-5.78572
-6.86701
-7.371
-7.36453
-6.54144
-5.46242
-4.43161
-3.40386
-2.534
-1.84765
-1.32212
-0.940844
-0.660361
-0.454469
-0.299879
-0.172131
0.268157
0.131018
0.0370127
-0.415239
-1.25199
-2.44992
-3.80459
-5.09719
-5.92095
-6.20121
-6.08426
-5.3211
-4.35696
-3.48884
-2.63417
-1.9234
-1.36255
-0.932034
-0.611895
-0.381218
-0.215675
-0.0891178
-0.166357
0.263688
0.129921
0.0370122
-0.386539
-1.14586
-2.19616
-3.33232
-4.36739
-4.95232
-5.04302
-4.84145
-4.14442
-3.29105
-2.55345
-1.8355
-1.25444
-0.785227
-0.423498
-0.153219
0.0529266
0.20358
0.310545
-0.160048
0.258226
0.128939
0.039505
-0.349014
-1.02101
-1.91409
-2.82901
-3.61756
-3.99389
-3.93615
-3.6734
-3.04121
-2.29112
-1.65671
-1.05262
-0.570094
-0.180149
0.131036
0.36694
0.545133
0.682526
0.781346
-0.153098
0.251797
0.128315
0.0451022
-0.301976
-0.878488
-1.61008
-2.3103
-2.87414
-3.07924
-2.91546
-2.61392
-2.04458
-1.39078
-0.843303
-0.337266
0.0626367
0.38724
0.646088
0.849592
1.00351
1.12215
1.2118
-0.145812
0.244249
0.128171
0.0544917
-0.245238
-0.721068
-1.29379
-1.79596
-2.16592
-2.23986
-2.01111
-1.69436
-1.19014
-0.628926
-0.158878
0.261821
0.588491
0.853718
1.06386
1.23081
1.36163
1.46071
1.53248
-0.137965
0.235854
0.12893
0.0681262
-0.179595
-0.553665
-0.977914
-1.30796
-1.52072
-1.50282
-1.24643
-0.938187
-0.503583
-0.033927
0.364154
0.707194
0.968811
1.17974
1.3478
1.48029
1.58313
1.66123
1.7176
-0.12982
0.226553
0.130781
0.0862062
-0.10702
-0.383316
-0.676894
-0.867628
-0.961986
-0.887509
-0.634158
-0.354022
0.00798875
0.386431
0.71187
0.982109
1.18717
1.35254
1.48423
1.58697
1.66592
1.72644
1.77055
-0.121006
0.21684
0.134099
0.108173
-0.031058
-0.218894
-0.405204
-0.492354
-0.505568
-0.402979
-0.174072
0.0645857
0.354463
0.645438
0.898625
1.1031
1.26
1.38702
1.48732
1.56385
1.6218
1.66618
1.69841
-0.111891
0.206709
0.138684
0.132719
0.0434436
-0.0699066
-0.174895
-0.192858
-0.157166
-0.046645
0.146542
0.339005
0.561665
0.774203
0.961355
1.10989
1.22679
1.32107
1.39262
1.44494
1.48378
1.51344
1.53486
-0.102091
0.196656
0.144243
0.157454
0.110734
0.0550105
0.00613577
0.0280336
0.0874639
0.193225
0.348201
0.497311
0.660754
0.808124
0.941082
1.04633
1.1311
1.19679
1.24313
1.27529
1.29892
1.31747
1.33087
-0.0921287
0.186469
0.149616
0.179355
0.165283
0.149739
0.135285
0.174706
0.240127
0.334114
0.454008
0.565819
0.680149
0.778577
0.871097
0.943678
1.00052
1.04048
1.06562
1.08181
1.09395
1.10402
1.11069
-0.0818234
0.176258
0.153502
0.195171
0.202914
0.211874
0.215394
0.257564
0.318113
0.397419
0.48849
0.57
0.645661
0.710407
0.774603
0.823436
0.858821
0.880389
0.892038
0.899518
0.906389
0.91263
0.915959
-0.0717563
0.165434
0.154177
0.202385
0.221938
0.243138
0.25387
0.290883
0.341399
0.405678
0.474461
0.531608
0.577836
0.621346
0.66542
0.696548
0.716553
0.726586
0.731611
0.73616
0.74154
0.74608
0.747794
-0.0620901
0.153731
0.150489
0.199993
0.223516
0.248748
0.260813
0.289774
0.329071
0.379651
0.431518
0.469377
0.494991
0.524875
0.553203
0.570722
0.579602
0.583257
0.586292
0.590331
0.594877
0.598387
0.599491
-0.0532404
0.140687
0.142022
0.188707
0.211328
0.236003
0.247054
0.268181
0.297806
0.33762
0.376871
0.399662
0.412056
0.432631
0.448901
0.456669
0.459341
0.460726
0.463005
0.466303
0.470134
0.473308
0.47443
-0.0455287
0.126534
0.12922
0.170786
0.190097
0.212372
0.222058
0.237102
0.2596
0.291741
0.321504
0.333828
0.340144
0.353336
0.360654
0.363028
0.364028
0.364827
0.366277
0.369114
0.373008
0.376404
0.377885
-0.038727
0.111434
0.113265
0.148521
0.163898
0.183084
0.191527
0.202047
0.219408
0.245469
0.26691
0.272504
0.277338
0.284777
0.286377
0.286765
0.286499
0.285477
0.28569
0.287986
0.291376
0.294123
0.295101
-0.0331234
0.0961144
0.0951909
0.123669
0.134948
0.150547
0.15719
0.163814
0.17697
0.19765
0.212107
0.214663
0.219049
0.222801
0.223393
0.22363
0.222007
0.220358
0.220865
0.223423
0.226694
0.22926
0.230231
-0.0286347
0.0802437
0.0751141
0.0964243
0.103547
0.115204
0.119619
0.122987
0.132249
0.146503
0.153522
0.154344
0.158168
0.160436
0.161558
0.160371
0.157609
0.156309
0.157298
0.159785
0.162694
0.164905
0.165682
-0.0245956
0.0651954
0.0547564
0.0689114
0.0719557
0.0791497
0.0796512
0.0777116
0.0809059
0.0890299
0.0934197
0.0963928
0.101086
0.104786
0.106289
0.104664
0.103054
0.103271
0.10511
0.107946
0.110995
0.113313
0.114309
-0.0264735
0.0435723
0.0273043
0.0349691
0.0351705
0.0415139
0.0463834
0.0514037
0.0521408
0.0354096
0.00462458
-0.0160399
-0.0194779
-0.0160699
-0.0147589
-0.0153051
-0.0149744
-0.013455
-0.0108809
-0.007627
-0.00436506
-0.00188795
-0.000631086
-0.00703826
0.0459425
0.0269312
0.0267794
0.0206841
0.0158638
0.00538053
-0.00257253
0.00802502
0.0403804
0.075534
0.0907381
0.0838355
0.0703455
0.0616196
0.0568933
0.0537534
0.0519008
0.0515759
0.052194
0.0530575
0.0534236
0.0529728
1.9955
2.04697
2.25413
2.63418
3.13995
3.80385
4.66605
5.77882
7.19091
8.94304
11.06
13.5438
16.3765
19.5101
22.865
26.326
29.7572
33.0164
35.9809
38.564
40.7305
42.4797
43.8875
1.96467
2.04412
2.23616
2.59901
3.09003
3.73408
4.57129
5.64885
7.01306
8.70369
10.7451
13.1383
15.8605
18.8577
22.0439
25.3028
28.501
31.5049
34.2027
36.5203
38.4327
39.9522
41.1546
1.92502
2.02249
2.20052
2.53974
3.00805
3.62223
4.42005
5.44423
6.73772
8.33879
10.2718
12.5385
15.1141
17.942
20.9333
23.9722
26.9296
29.68
32.1218
34.1924
35.875
37.1913
38.2143
1.87471
1.97627
2.14123
2.45092
2.8874
3.46091
4.20442
5.15631
6.35571
7.83872
9.62977
11.7324
14.1231
16.7463
19.5144
22.3148
25.024
27.5253
29.7265
31.574
33.0575
34.2041
35.0825
1.80935
1.89989
2.05125
2.32658
2.72137
3.24238
3.9161
4.77611
5.85759
7.19417
8.8104
10.7125
12.8811
15.2648
17.7812
20.3244
22.7788
25.0363
27.0135
28.6639
29.981
30.9941
31.7665
1.71721
1.78783
1.92234
2.1592
2.50254
2.95818
3.54586
4.29358
5.23254
6.394
7.803
9.46934
11.3798
13.4912
15.7303
18.0011
20.1981
22.2226
23.9988
25.485
26.6755
27.598
28.3076
1.57736
1.63383
1.74644
1.94052
2.22364
2.60055
3.08455
3.69741
4.46604
5.41966
6.58449
7.97519
9.58763
11.3906
13.3239
15.3047
17.2404
19.0441
20.6484
22.0155
23.1384
24.0381
24.7552
1.36665
1.42831
1.51457
1.66162
1.87716
2.16181
2.52235
2.97395
3.53922
4.24685
5.12713
6.2035
7.48388
8.95105
10.5588
12.2384
13.9113
15.5036
16.9582
18.2414
19.3434
20.273
21.0558
2.01845
1.73226
2.25929
2.68752
3.22492
3.96198
4.82827
6.03197
7.53402
9.34268
11.5233
14.0047
16.8875
20.1596
23.8228
27.7496
31.7655
35.6654
39.271
42.4596
45.1678
47.4023
49.1875
2.02807
1.74557
2.26484
2.69596
3.23593
3.97305
4.84443
6.04941
7.55599
9.37828
11.5771
14.1024
17.0451
20.4037
24.1732
28.232
32.4079
36.4996
40.3278
43.7606
46.7225
49.2052
51.2181
2.03809
1.76001
2.27012
2.70396
3.24741
3.98471
4.86185
6.06726
7.57694
9.40982
11.6214
14.1803
17.1678
20.5914
24.4398
28.5969
32.8934
37.1326
41.1362
44.7665
47.9401
50.6335
52.8478
2.04824
1.77539
2.27433
2.71043
3.25777
3.99539
4.87913
6.08483
7.59703
9.43809
11.658
14.241
17.2593
20.7274
24.6291
28.8524
33.2312
37.5733
41.7028
45.4789
48.8132
51.6701
54.047
2.05843
1.79206
2.27708
2.71444
3.26513
4.00263
4.89309
6.09885
7.61309
9.4608
11.6862
14.2857
17.3232
20.8175
24.7486
29.008
33.4326
37.8345
42.0404
45.9084
49.3488
52.3158
54.8077
2.0682
1.81051
2.2785
2.71597
3.26905
4.00579
4.90303
6.10886
7.62509
9.47852
11.7078
14.3177
17.3641
20.868
24.8061
29.073
33.5088
37.9293
42.1643
46.0719
49.5629
52.5852
55.1406
2.077
1.83129
2.27916
2.71548
3.26944
4.00429
4.90749
6.11292
7.63073
9.48929
11.7221
14.3391
17.3879
20.8886
24.8152
29.0645
33.4799
37.8809
42.1004
45.9979
49.4865
52.5101
55.0771
2.08419
1.85433
2.27906
2.71335
3.26651
3.99779