/*--------------------------------*- C++ -*----------------------------------*\
  =========                 |
  \\      /  F ield         | OpenFOAM: The Open Source CFD Toolbox
   \\    /   O peration     | Website:  https://openfoam.org
    \\  /    A nd           | Version:  7
     \\/     M anipulation  |
\*---------------------------------------------------------------------------*/
FoamFile
{
    version     2.0;
    format      ascii;
    class       surfaceScalarField;
    location    "129";
    object      phi;
}
// * * * * * * * * * * * * * * * * * * * * * * * * * * * * * * * * * * * * * //

dimensions      [0 3 -1 0 0 0 0];

internalField   nonuniform List<scalar> 
25449
(
64.9029
60.8115
-37.8145
48.1944
45.4397
-28.7313
35.9463
34.0827
-21.8347
26.9051
25.6431
-16.6019
20.1936
19.3463
-12.6348
15.1891
14.6336
-9.62909
11.4441
11.0969
-7.35184
8.63377
8.43598
-5.62566
6.52053
6.42906
-4.31582
4.92929
4.91151
-3.32028
3.7303
3.76095
-2.56196
2.82684
2.88628
-1.98282
2.14643
2.21954
-1.53914
1.63453
1.70992
-1.19803
1.24992
1.3193
-0.934694
0.961384
1.01899
-0.730461
0.745287
0.787381
-0.571285
0.583711
0.608238
-0.446661
0.463081
0.469382
-0.348752
0.373124
0.361651
-0.271693
0.306082
0.278102
-0.21106
0.256111
0.213392
-0.16342
0.163418
-0.126179
0.218874
49.0652
77.8867
36.5711
57.9337
27.3613
43.2925
20.5327
32.4717
15.4456
24.4334
11.6416
18.4377
8.78828
13.9502
6.64299
10.5813
5.02724
8.04482
3.8091
6.12965
2.89052
4.67953
2.1982
3.5786
1.67702
2.74073
1.2853
2.10165
0.991412
1.61319
0.771361
1.23904
0.606926
0.951817
0.484302
0.730863
0.393035
0.560649
0.325213
0.429474
0.274862
0.328454
0.23748
0.250774
0.19116
0.209738
36.1788
90.1166
27.1257
66.9867
20.3919
50.0263
15.3635
37.5001
11.5965
28.2003
8.76703
21.2672
6.63698
16.0802
5.03064
12.1876
3.81779
9.25766
2.90165
7.0458
2.20993
5.37124
1.68836
4.10017
1.29586
3.13322
1.00119
2.39631
0.780492
1.83389
0.615558
1.40398
0.492572
1.0748
0.40107
0.822365
0.333138
0.628581
0.282795
0.479817
0.245528
0.36572
0.217942
0.278361
0.211575
0.197527
26.2962
98.573
19.9077
73.375
15.0808
54.8531
11.433
41.1479
8.67487
30.9585
6.58799
23.3541
5.00782
17.6604
3.81043
13.385
2.90278
10.1653
2.21503
7.73355
1.69467
5.89162
1.3019
4.49294
1.00637
3.42875
0.784735
2.61796
0.618987
1.99964
0.495327
1.52764
0.40326
1.16687
0.334858
0.890768
0.284146
0.679293
0.246619
0.517344
0.21888
0.393459
0.198379
0.298861
0.226729
0.183225
18.9765
104.169
14.5906
77.7608
11.1851
58.2586
8.55958
43.7734
6.54439
32.9736
5.00204
24.8964
3.82361
18.8388
2.9241
14.2845
2.23815
10.8513
1.71592
8.25577
1.31944
6.28809
1.01961
4.79278
0.793901
3.65446
0.624728
2.78713
0.498356
2.12601
0.404161
1.62183
0.334056
1.23697
0.281961
0.942863
0.243318
0.717935
0.214704
0.545958
0.19354
0.414623
0.177892
0.314509
0.238309
0.166311
13.68
107.63
10.7718
80.669
8.40364
60.6267
6.51746
45.6596
5.03557
34.4555
3.88171
26.0503
2.9885
19.732
2.29956
14.9735
1.76973
11.3811
1.36361
8.66189
1.05372
6.59799
0.81861
5.0279
0.641362
3.83171
0.508494
2.92
0.409273
2.22523
0.335295
1.69581
0.280155
1.29212
0.239069
0.98395
0.208485
0.748519
0.185753
0.56869
0.168874
0.431502
0.156351
0.327031
0.247614
0.147047
9.91761
109.51
8.08589
82.5006
6.46293
62.2496
5.1015
47.021
3.99418
35.5629
3.11093
26.9335
2.41508
20.4279
1.87103
15.5175
1.44806
11.8041
1.121
8.98895
0.869728
6.84926
0.678162
5.21946
0.53333
3.97654
0.424611
3.02872
0.343351
2.30649
0.282656
1.7565
0.237252
1.33752
0.203231
1.01797
0.177731
0.774018
0.158633
0.587787
0.144345
0.44579
0.13367
0.337707
0.2556
0.125683
7.28609
110.228
6.23191
83.5547
5.13777
63.3437
4.1429
48.0159
3.2936
36.4122
2.59466
27.6325
2.0319
20.9907
1.58467
15.9648
1.23247
12.1563
0.957337
9.26409
0.744237
7.06237
0.580817
5.38289
0.456804
4.10057
0.363511
3.12202
0.293653
2.37636
0.241295
1.80887
0.201887
1.37693
0.172091
1.04777
0.14952
0.79659
0.132417
0.60489
0.119488
0.45872
0.109714
0.347481
0.262979
0.102335
4.87009
111.801
3.69203
84.7327
2.80383
64.2319
2.13617
48.6836
1.63262
36.9157
1.25199
28.0131
0.963032
21.2796
0.742509
16.1853
0.573494
12.3253
0.443862
9.39372
0.344758
7.16147
0.269612
5.45803
0.213266
4.15691
0.171463
3.16382
0.140617
2.4072
0.117779
1.8317
0.100698
1.39401
0.0877652
1.0607
0.0778901
0.806464
0.0703175
0.612462
0.0645075
0.46453
0.0600794
0.35191
0.266385
0.0566738
3.03324
112.78
2.30292
85.4629
1.75289
64.782
1.34078
49.0957
1.03038
37.2261
0.795922
28.2476
0.617562
21.458
0.480752
16.3221
0.375068
12.431
0.293339
9.47546
0.230403
7.22442
0.182522
5.50592
0.146685
4.19276
0.120283
3.19023
0.100975
2.42651
0.0867377
1.84595
0.0760148
1.40473
0.0677285
1.06899
0.0612065
0.812988
0.0560245
0.617644
0.0519038
0.468651
0.048658
0.355155
0.268956
0.0460868
1.69692
113.327
1.29182
85.868
0.987461
65.0863
0.760828
49.3223
0.590578
37.3964
0.462177
28.376
0.364019
21.5561
0.287896
16.3982
0.228097
12.4908
0.181054
9.5225
0.144268
7.2612
0.116065
5.53412
0.0949884
4.21383
0.0796394
3.20558
0.0685839
2.43757
0.0604697
1.85406
0.0542361
1.41097
0.0491864
1.07404
0.0449533
0.81722
0.0413604
0.621237
0.0383231
0.471689
0.0358118
0.357667
0.271035
0.0337325
0.740204
113.565
0.567321
86.0408
0.438368
65.2153
0.343968
49.4167
0.273636
37.4667
0.220836
28.4288
0.17983
21.5971
0.146944
16.4311
0.119813
12.5179
0.0974267
9.54489
0.0791792
7.27945
0.0648674
5.54844
0.0541578
4.22455
0.046536
3.21321
0.0412263
2.44289
0.0373535
1.85794
0.0341982
1.41413
0.0313254
1.07691
0.0285809
0.819966
0.0259701
0.623848
0.023557
0.474102
0.0214271
0.359796
0.272893
0.0195699
0.069201
113.587
0.0583956
86.0516
0.0517555
65.2219
0.0493915
49.4191
0.0486118
37.4675
0.0484215
28.4289
0.0471828
21.5984
0.0443698
16.4339
0.0399416
12.5224
0.0346492
9.55018
0.0291979
7.2849
0.0244146
5.55322
0.0207635
4.2282
0.0183728
3.21559
0.0169417
2.44431
0.0159262
1.85895
0.0148286
1.41522
0.013381
1.07836
0.0115672
0.821779
0.0095217
0.625894
0.00741394
0.47621
0.00542615
0.361784
0.274708
0.00361017
-0.389072
113.463
-0.289962
85.9524
-0.213883
65.1458
-0.154154
49.3594
-0.107995
37.4213
-0.0726978
28.3936
-0.0471122
21.5728
-0.0296569
16.4165
-0.018816
12.5115
-0.012667
9.54403
-0.00962227
7.28186
-0.00815132
5.55176
-0.00722919
4.22729
-0.00626114
3.21463
-0.00520653
2.44327
-0.00438565
1.85814
-0.00416853
1.41501
-0.00472987
1.07892
-0.0060103
0.823061
-0.00778118
0.627666
-0.00979982
0.478229
-0.0117995
0.363784
0.276591
-0.0136822
-0.688399
113.245
-0.518438
85.7825
-0.389244
65.0166
-0.289783
49.2599
-0.213582
37.3451
-0.155594
28.3356
-0.112844
21.53
-0.0824295
16.3861
-0.0618501
12.4909
-0.0484633
9.53064
-0.0401229
7.27352
-0.0348445
5.54647
-0.0312166
4.22366
-0.0283041
3.21172
-0.0258151
2.44077
-0.0239197
1.85624
-0.022927
1.41402
-0.0229773
1.07897
-0.0239849
0.824069
-0.0256672
0.629348
-0.0277294
0.480291
-0.029856
0.36591
0.278628
-0.0318928
-0.873283
112.969
-0.660654
85.5698
-0.499699
64.8557
-0.376587
49.1368
-0.282507
37.251
-0.211029
28.2642
-0.158067
21.4771
-0.119964
16.348
-0.0936465
12.4646
-0.0760697
9.51307
-0.064758
7.26221
-0.0574469
5.53917
-0.0524604
4.21868
-0.0486097
3.20787
-0.0454129
2.43758
-0.0429433
1.85378
-0.0415001
1.41258
-0.0412402
1.07871
-0.0420903
0.82492
-0.0437537
0.631012
-0.0458952
0.482433
-0.0481869
0.368202
0.28084
-0.0503987
-0.975309
112.663
-0.740379
85.3349
-0.563087
64.6784
-0.42793
49.0016
-0.32475
37.1478
-0.246422
28.1858
-0.188259
21.4189
-0.146262
16.306
-0.117086
12.4355
-0.0975158
9.49349
-0.0849141
7.2496
-0.0768633
5.53111
-0.071508
4.21332
-0.0674611
3.20382
-0.0640835
2.4342
-0.0613821
1.85107
-0.0596827
1.41088
-0.0592018
1.07823
-0.0599127
0.825631
-0.0615398
0.632639
-0.0637272
0.48462
-0.0661524
0.370627
0.2832
-0.0685124
-1.01669
112.347
-0.774339
85.0925
-0.591959
64.496
-0.453212
48.8629
-0.347336
37.042
-0.266992
28.1055
-0.207271
21.3592
-0.164137
16.2628
-0.134192
12.4055
-0.114223
9.47353
-0.101555
7.23694
-0.0937097
5.52328
-0.0887145
4.20833
-0.0850165
3.20013
-0.0818315
2.43103
-0.079112
1.84836
-0.0772336
1.409
-0.0765073
1.07751
-0.0769856
0.826111
-0.0784489
0.634103
-0.0805484
0.48672
-0.0829741
0.373052
0.285596
-0.08537
-1.01679
112.033
-0.777129
84.8528
-0.597283
64.3161
-0.460673
48.7263
-0.356436
36.9377
-0.277338
28.0264
-0.218518
21.3004
-0.176107
16.2204
-0.146807
12.3762
-0.127524
9.45423
-0.115627
7.22503
-0.108645
5.51628
-0.104524
4.2042
-0.10156
3.19716
-0.0988164
2.42828
-0.0961845
1.84573
-0.0941006
1.40692
-0.093
1.07641
-0.0930468
0.826157
-0.094105
0.635162
-0.0958627
0.488477
-0.0980229
0.375213
0.2878
-0.100227
-0.988693
111.73
-0.758632
84.6227
-0.58651
64.144
-0.455936
48.5957
-0.356289
36.8381
-0.280655
27.9508
-0.2244
21.2441
-0.183968
16.18
-0.15627
12.3485
-0.138407
9.43637
-0.12786
7.21449
-0.122205
5.51064
-0.119337
4.20134
-0.117397
3.19523
-0.115271
2.42616
-0.112766
1.84323
-0.11038
1.40453
-0.108693
1.07472
-0.108006
0.825472
-0.108289
0.635445
-0.109301
0.48949
-0.110788
0.3767
0.289458
-0.112445
-0.94596
111.444
-0.72911
84.4059
-0.567395
63.9823
-0.444863
48.4732
-0.351314
36.7445
-0.280263
27.8797
-0.227415
21.1913
-0.189603
16.1422
-0.164001
12.3229
-0.147949
9.42031
-0.139066
7.2056
-0.135006
5.50657
-0.133618
4.19994
-0.13288
3.19448
-0.131463
2.42473
-0.129048
1.84081
-0.126179
1.40166
-0.123592
1.07213
-0.121745
0.823626
-0.120757
0.634456
-0.120505
0.489237
-0.120793
0.376988
0.290068
-0.121403
-0.889934
111.179
-0.689565
84.2055
-0.540705
63.8334
-0.428074
48.3605
-0.342033
36.6585
-0.276607
27.8143
-0.227926
21.1426
-0.193285
16.1075
-0.170186
12.2998
-0.156259
9.40639
-0.1493
7.19865
-0.147072
5.50434
-0.147395
4.20027
-0.14807
3.19516
-0.147499
2.42417
-0.14517
1.83848
-0.141634
1.39813
-0.137803
1.0683
-0.134353
0.820177
-0.131581
0.631685
-0.129479
0.487134
-0.127941
0.37545
0.288991
-0.126864
-0.824967
110.937
-0.643313
84.0239
-0.508912
63.699
-0.407348
48.259
-0.32967
36.5808
-0.270532
27.7551
-0.226569
21.0986
-0.195568
16.0765
-0.175359
12.2796
-0.163859
9.39488
-0.159062
7.19384
-0.158863
5.50413
-0.16108
4.20248
-0.163336
3.19741
-0.163722
2.42455
-0.161468
1.83622
-0.157105
1.39376
-0.151742
1.06294
-0.146283
0.814719
-0.141179
0.626579
-0.136601
0.482556
-0.132655
0.371505
0.285663
-0.129326
-0.806148
110.697
-0.629609
83.8473
-0.500084
63.5695
-0.40376
48.1626
-0.331504
36.5085
-0.277297
27.7009
-0.237015
21.0583
-0.208001
16.0475
-0.188286
12.2599
-0.176391
9.38299
-0.171038
7.18849
-0.170862
5.50396
-0.174131
4.20575
-0.178487
3.20177
-0.181422
2.42749
-0.181241
1.83605
-0.177742
1.39027
-0.171796
1.057
-0.164485
0.807408
-0.156734
0.618829
-0.149249
0.475071
-0.142473
0.364729
0.27971
-0.13652
-0.783276
110.47
-0.615784
83.6798
-0.492721
63.4465
-0.40107
48.071
-0.332209
36.4397
-0.280466
27.6492
-0.241954
21.0198
-0.214212
16.0198
-0.195423
12.2411
-0.18424
9.37179
-0.179499
7.18374
-0.179954
5.50441
-0.183938
4.20972
-0.189048
3.20687
-0.192523
2.43095
-0.192284
1.8358
-0.18778
1.38576
-0.179805
1.04902
-0.169812
0.797415
-0.159313
0.608327
-0.149271
0.46503
-0.14011
0.355568
0.271575
-0.131974
-0.760917
110.255
-0.601968
83.5209
-0.484988
63.3295
-0.397729
47.9837
-0.332055
36.374
-0.28262
27.5998
-0.245765
20.983
-0.219213
15.9932
-0.201287
12.2232
-0.190765
9.36127
-0.18659
7.17956
-0.187642
5.50546
-0.19234
4.21442
-0.198273
3.21281
-0.202464
2.43515
-0.202418
1.83576
-0.197173
1.38051
-0.187563
1.03941
-0.175484
0.785336
-0.162714
0.595558
-0.150337
0.452653
-0.139059
0.34429
0.261736
-0.129219
-0.739106
110.051
-0.58826
83.37
-0.477035
63.2182
-0.393928
47.9006
-0.331264
36.3113
-0.284003
27.5525
-0.248705
20.9477
-0.223263
15.9678
-0.206136
12.2061
-0.196217
9.35135
-0.19256
7.1759
-0.194175
5.50706
-0.199592
4.21983
-0.206446
3.21965
-0.211573
2.44027
-0.212057
1.83624
-0.206555
1.37501
-0.195828
1.02868
-0.181802
0.77131
-0.166565
0.580319
-0.151999
0.438087
-0.13925
0.33154
0.250895
-0.128408
-0.717866
109.858
-0.574725
83.2269
-0.468962
63.1125
-0.389797
47.8215
-0.329986
36.2515
-0.284781
27.5073
-0.250951
20.9138
-0.226547
15.9433
-0.210158
12.1897
-0.200788
9.34198
-0.1976
7.17271
-0.199743
5.50921
-0.205887
4.22598
-0.213763
3.22753
-0.22008
2.44659
-0.221562
1.83772
-0.216359
1.36981
-0.204713
1.01703
-0.18871
0.755305
-0.171635
0.563245
-0.156061
0.422513
-0.142594
0.318072
0.239197
-0.130897
-0.69721
109.676
-0.56141
83.0911
-0.460846
63.0119
-0.38543
47.746
-0.328332
36.1944
-0.285078
27.464
-0.252634
20.8814
-0.229202
15.9199
-0.213496
12.174
-0.204625
9.3331
-0.201858
7.16993
-0.204493
5.51183
-0.211366
4.23284
-0.220365
3.23652
-0.228173
2.45438
-0.231186
1.84073
-0.226758
1.36537
-0.214647
1.00492
-0.197899
0.738557
-0.180598
0.545942
-0.164452
0.406366
-0.149604
0.303223
0.226015
-0.136421
-0.67714
109.504
-0.548347
82.9623
-0.45274
62.9163
-0.380898
47.6742
-0.326383
36.1399
-0.284983
27.4226
-0.253854
20.8503
-0.231334
15.8974
-0.216261
12.1589
-0.207839
9.32468
-0.205446
7.16754
-0.208532
5.51492
-0.216127
4.24043
-0.226355
3.24674
-0.23599
2.46402
-0.241077
1.84582
-0.238148
1.36245
-0.226971
0.99374
-0.210946
0.72253
-0.193007
0.528004
-0.174543
0.387902
-0.15738
0.286058
0.211494
-0.14286
-0.657657
109.341
-0.535557
82.8402
-0.444684
62.8254
-0.376255
47.6058
-0.324205
36.0879
-0.284571
27.383
-0.254688
20.8204
-0.233026
15.8757
-0.218538
12.1444
-0.210521
9.31665
-0.208455
7.16546
-0.211948
5.5184
-0.220249
4.24872
-0.231811
3.25829
-0.243606
2.47581
-0.25136
1.85356
-0.25103
1.36211
-0.242024
0.984729
-0.226065
0.70657
-0.205169
0.507107
-0.183273
0.366006
-0.164266
0.267049
0.196227
-0.149
-0.638752
109.187
-0.523058
82.7245
-0.436712
62.7391
-0.371544
47.5406
-0.321848
36.0382
-0.2839
27.345
-0.255201
20.7917
-0.234346
15.8549
-0.220399
12.1305
-0.212742
9.30899
-0.210955
7.16368
-0.214806
5.52225
-0.22379
4.2577
-0.236776
3.27128
-0.251
2.49003
-0.261998
1.86456
-0.265225
1.36534
-0.258578
0.97808
-0.241753
0.689741
-0.218308
0.483664
-0.194462
0.342161
-0.174007
0.246594
0.17951
-0.157292
-0.620419
109.042
-0.510858
82.6149
-0.428845
62.6571
-0.366799
47.4785
-0.319355
35.9907
-0.283015
27.3087
-0.255443
20.7641
-0.235349
15.8348
-0.221901
12.117
-0.214564
9.30165
-0.213007
7.16211
-0.217162
5.5264
-0.226793
4.26733
-0.241238
3.28571
-0.258033
2.50681
-0.272766
1.87929
-0.280367
1.37293
-0.276877
0.974584
-0.261518
0.674381
-0.239345
0.461489
-0.215641
0.318456
-0.193555
0.224508
0.160255
-0.174302
-0.602649
108.905
-0.498965
82.5112
-0.421104
62.5792
-0.362048
47.4195
-0.31676
35.9454
-0.281959
27.2739
-0.255459
20.7376
-0.236084
15.8154
-0.223095
12.104
-0.216037
9.29459
-0.214662
7.16073
-0.219062
5.53079
-0.229279
4.27754
-0.245128
3.30156
-0.264534
2.52622
-0.283609
1.89836
-0.296988
1.38631
-0.299134
0.976727
-0.289027
0.664269
-0.270963
0.443427
-0.249009
0.296501
-0.226777
0.202275
0.139911
-0.206436
-0.585429
108.777
-0.487385
82.4132
-0.413506
62.5053
-0.357315
47.3633
-0.314094
35.9022
-0.280766
27.2406
-0.255289
20.7121
-0.23659
15.7967
-0.224025
12.0915
-0.217209
9.28776
-0.215965
7.15948
-0.220545
5.53536
-0.231253
4.28824
-0.248359
3.31866
-0.27044
2.54829
-0.294808
1.92272
-0.315769
1.40727
-0.325299
0.986252
-0.320663
0.659631
-0.305573
0.428336
-0.285857
0.276784
-0.265955
0.182371
0.121838
-0.247886
-0.56875
108.656
-0.476118
82.3206
-0.406061
62.4353
-0.35262
47.3099
-0.311381
35.861
-0.279464
27.2087
-0.254963
20.6876
-0.236905
15.7786
-0.224729
12.0793
-0.218117
9.28115
-0.216954
7.15831
-0.221641
5.54005
-0.232701
4.29929
-0.250869
3.33682
-0.275815
2.57323
-0.306529
1.95343
-0.335812
1.43655
-0.351032
1.00147
-0.347458
0.656052
-0.331391
0.41227
-0.311945
0.257337
-0.29339
0.163815
0.105701
-0.277257
-0.552599
108.542
-0.465169
82.2331
-0.398781
62.3689
-0.347981
47.259
-0.308646
35.8216
-0.278083
27.1781
-0.254515
20.6641
-0.237061
15.7612
-0.225242
12.0675
-0.218799
9.2747
-0.217667
7.15717
-0.222378
5.54475
-0.233614
4.31052
-0.252648
3.35584
-0.28072
2.60129
-0.318275
1.99098
-0.3544
1.47267
-0.370606
1.01767
-0.362761
0.648203
-0.342882
0.392391
-0.322113
0.236567
-0.303414
0.145115
0.0900958
-0.287813
-0.536966
108.436
-0.454536
82.1507
-0.391676
62.306
-0.343414
47.2108
-0.305909
35.7841
-0.276646
27.1488
-0.25397
20.6414
-0.237089
15.7443
-0.225596
12.056
-0.219288
9.26839
-0.218137
7.15602
-0.222777
5.54939
-0.23399
4.32173
-0.253713
3.37556
-0.285045
2.63262
-0.328827
2.03476
-0.368343
1.51218
-0.380185
1.0295
-0.364903
0.632916
-0.341068
0.368556
-0.319303
0.214801
-0.30072
0.12653
0.0750078
-0.285637
-0.521838
108.336
-0.44422
82.0731
-0.384755
62.2465
-0.338934
47.165
-0.303189
35.7484
-0.275176
27.1208
-0.253354
20.6196
-0.237015
15.728
-0.22582
12.0448
-0.219616
9.26218
-0.218395
7.15479
-0.222862
5.55385
-0.233844
4.3327
-0.25408
3.39579
-0.288445
2.66698
-0.336642
2.08295
-0.375356
1.55089
-0.37914
1.03328
-0.355929
0.6097
-0.329423
0.342051
-0.307678
0.193054
-0.289866
0.108716
0.0607983
-0.275662
-0.507205
108.243
-0.434221
82.0001
-0.378023
62.1903
-0.334553
47.1215
-0.300503
35.7143
-0.273693
27.094
-0.25269
20.5986
-0.236866
15.7121
-0.225942
12.0339
-0.21981
9.25604
-0.21847
7.15344
-0.222654
5.55802
-0.233202
4.34324
-0.253725
3.4163
-0.290394
2.70364
-0.340318
2.13287
-0.374338
1.58491
-0.36834
1.02728
-0.338674
0.580029
-0.311388
0.314764
-0.290477
0.172141
-0.273669
0.0919058
0.0476183
-0.260495
-0.493055
108.157
-0.424537
81.9316
-0.371488
62.1373
-0.330283
47.0803
-0.297868
35.6819
-0.272217
27.0684
-0.252001
20.5783
-0.236664
15.6968
-0.225987
12.0232
-0.219899
9.24995
-0.218391
7.15193
-0.222182
5.56181
-0.232099
4.35315
-0.252581
3.43678
-0.290324
2.74138
-0.338951
2.1815
-0.365587
1.61154
-0.350199
1.01189
-0.316491
0.546315
-0.289855
0.288129
-0.26986
0.152143
-0.25359
0.0756345
0.03493
-0.240908
-0.479379
108.076
-0.415168
81.8673
-0.365156
62.0873
-0.326137
47.0413
-0.295299
35.6511
-0.270766
27.0438
-0.251306
20.5589
-0.236433
15.6819
-0.22598
12.0127
-0.219909
9.24388
-0.218184
7.1502
-0.221477
5.56509
-0.230573
4.36224
-0.250556
3.45676
-0.287762
2.77857
-0.332192
2.22592
-0.350074
1.62942
-0.327044
0.98885
-0.291906
0.511173
-0.266881
0.2631
-0.247525
0.132785
-0.231065
0.0591731
0.021899
-0.21804
-0.466164
108.002
-0.406113
81.8073
-0.359032
62.0402
-0.322124
47.0044
-0.29281
35.6218
-0.269357
27.0204
-0.250625
20.5402
-0.236193
15.6675
-0.225943
12.0025
-0.219865
9.2378
-0.217878
7.14821
-0.220574
5.56779
-0.22866
4.37032
-0.247558
3.47565
-0.28242
2.81343
-0.320187
2.26369
-0.329181
1.63841
-0.301117
0.960781
-0.26629
0.476339
-0.2429
0.239711
-0.224086
0.113968
-0.207343
0.0424285
0.00740907
-0.192859
-0.453401
107.933
-0.39737
81.7513
-0.353122
61.9959
-0.318254
46.9695
-0.290415
35.5939
-0.268007
26.998
-0.249976
20.5221
-0.235965
15.6535
-0.225898
11.9924
-0.21979
9.23168
-0.2175
7.14591
-0.219509
5.56979
-0.2264
4.3772
-0.243527
3.49277
-0.274216
2.84411
-0.303448
2.29292
-0.304107
1.63907
-0.273309
0.929977
-0.239263
0.442289
-0.216584
0.217029
-0.198253
0.0956343
-0.182191
0.0263651
-0.00898153
-0.165807
-0.441081
107.87
-0.388937
81.6991
-0.34743
61.9544
-0.314538
46.9366
-0.288127
35.5675
-0.26673
26.9766
-0.249378
20.5048
-0.235768
15.6399
-0.225868
11.9825
-0.219709
9.22552
-0.217078
7.14327
-0.218324
5.57103
-0.223838
4.38271
-0.238456
3.50738
-0.263259
2.86891
-0.282585
2.31224
-0.275843
1.63233
-0.244237
0.898368
-0.21054
0.408585
-0.18685
0.193341
-0.168721
0.0775015
-0.154612
0.012255
-0.0261105
-0.137488
-0.429192
107.812
-0.380814
81.6507
-0.341962
61.9156
-0.310985
46.9056
-0.285958
35.5425
-0.265542
26.9561
-0.248846
20.4881
-0.235621
15.6266
-0.22587
11.9728
-0.219643
9.21929
-0.216642
7.14027
-0.217061
5.57144
-0.221024
4.38666
-0.232396
3.51874
-0.249798
2.8863
-0.258204
2.32064
-0.244933
1.61905
-0.214296
0.867725
-0.180819
0.375104
-0.154701
0.167218
-0.136113
0.0589101
-0.123649
-0.000210815
-0.0421968
-0.107567
-0.417727
107.759
-0.372998
81.606
-0.336721
61.8793
-0.307602
46.8765
-0.28392
35.5188
-0.264458
26.9367
-0.248398
20.472
-0.235542
15.6138
-0.225927
11.9632
-0.219614
9.21297
-0.216217
7.13687
-0.215759
5.57098
-0.218015
4.38892
-0.225469
3.5262
-0.234238
2.89507
-0.231001
2.3174
-0.21183
1.59988
-0.183804
0.839697
-0.151408
0.342703
-0.122808
0.13862
-0.104214
0.0403115
-0.0904533
-0.0139738
-0.055874
-0.07678
-0.406674
107.711
-0.365489
81.5648
-0.331711
61.8455
-0.304396
46.8492
-0.282021
35.4964
-0.263485
26.9182
-0.248042
20.4566
-0.235542
15.6013
-0.226053
11.9537
-0.219644
9.20656
-0.215838
7.13305
-0.214472
5.5696
-0.214898
4.38933
-0.217853
3.52914
-0.217061
2.89427
-0.201837
2.30217
-0.177645
1.57568
-0.15473
0.816774
-0.126199
0.314169
-0.095328
0.107736
-0.0769622
0.0219416
-0.0575084
-0.033432
-0.0677927
-0.0455942
-0.382541
107.651
-0.336569
81.5189
-0.302037
61.811
-0.275833
46.823
-0.255327
35.4759
-0.23884
26.9017
-0.225316
20.443
-0.214418
15.5904
-0.206109
11.9454
-0.200398
9.20084
-0.196778
7.12943
-0.194859
5.56768
-0.193678
4.38815
-0.192108
3.52757
-0.182521
2.88468
-0.157721
2.27737
-0.130496
1.54846
-0.114589
0.800865
-0.0949597
0.294533
-0.0653373
0.078118
-0.0468867
0.00347166
-0.0223861
-0.0579436
-0.0800406
-0.0101397
-0.304169
107.603
-0.267885
81.4826
-0.240628
61.7837
-0.219958
46.8023
-0.203776
35.4598
-0.190738
26.8886
-0.179993
20.4323
-0.171265
15.5816
-0.164512
11.9386
-0.159729
9.19605
-0.156492
7.12619
-0.154244
5.56543
-0.152028
4.38592
-0.147679
3.52321
-0.13406
2.87106
-0.106683
2.24999
-0.0789235
1.52069
-0.0661981
0.788131
-0.0571126
0.28544
-0.0368672
0.0578491
-0.0136187
-0.0197799
0.00627451
-0.0778475
-0.0899084
0.0161324
-0.241834
107.565
-0.213182
81.4539
-0.191657
61.7622
-0.175346
46.786
-0.162574
35.447
-0.152268
26.8783
-0.143738
20.4238
-0.136759
15.5747
-0.131289
11.9331
-0.127316
9.19208
-0.1245
7.12337
-0.122232
5.56316
-0.119644
4.38333
-0.114247
3.51782
-0.0998108
2.85662
-0.0733317
2.22351
-0.0465734
1.49393
-0.0339867
0.775544
-0.0286604
0.280114
-0.0159763
0.0451734
0.0064224
-0.0422006
0.0194111
-0.0908403
-0.097325
0.0268221
-0.192231
107.535
-0.169575
81.4312
-0.152554
61.7452
-0.139666
46.7731
-0.129575
35.4369
-0.121423
26.8702
-0.114652
20.417
-0.109076
15.5691
-0.104655
11.9287
-0.101374
9.18879
-0.0989644
7.12095
-0.0968378
5.56103
-0.0942353
4.38072
-0.0887349
3.51231
-0.0751339
2.84301
-0.0512749
2.19964
-0.0267275
1.46938
-0.014049
0.762856
-0.00975359
0.275809
-0.00143936
0.0368434
0.0152101
-0.0588402
0.0242286
-0.0998685
-0.103258
0.0301582
-0.152774
107.511
-0.134838
81.4133
-0.121364
61.7317
-0.111169
46.7629
-0.103189
35.4289
-0.0967367
26.8637
-0.0913616
20.4116
-0.0869092
15.5646
-0.0833423
11.9252
-0.0806451
9.1861
-0.0786065
7.11891
-0.0766937
5.55911
-0.0742577
4.37829
-0.069124
3.50717
-0.0570778
2.83097
-0.0364498
2.17902
-0.0147455
1.44768
-0.0025711
0.750683
0.00149724
0.271744
0.00739076
0.0309598
0.0188169
-0.0702791
0.0253808
-0.106428
-0.107778
0.0298977
-0.121347
107.492
-0.107094
81.3991
-0.0963871
61.721
-0.0882925
46.7548
-0.0819597
35.4226
-0.0768389
26.8586
-0.0725638
20.4074
-0.0690051
15.5611
-0.0661276
11.9223
-0.0639148
9.18388
-0.0622015
7.11719
-0.0605244
5.55743
-0.0583384
4.37609
-0.0537895
3.50262
-0.0435424
2.82071
-0.0262365
2.1617
-0.00759899
1.42903
0.00371459
0.73936
0.00784944
0.267601
0.0122565
0.0265419
0.0197371
-0.0777496
0.024331
-0.111028
-0.110903
0.0274555
-0.0966013
107.477
-0.085442
81.3879
-0.0770603
61.7126
-0.0707305
46.7485
-0.0657787
35.4176
-0.0617683
26.8546
-0.0584058
20.404
-0.0555868
15.5583
-0.0532832
11.92
-0.0514826
9.18208
-0.0500566
7.11576
-0.0486103
5.55598
-0.0466809
4.37416
-0.0426984
3.49864
-0.0340011
2.81202
-0.0194643
2.14717
-0.00349297
1.41307
0.00685239
0.729018
0.0110923
0.263366
0.0145771
0.0230656
0.0193409
-0.0825218
0.0223862
-0.114069
-0.112847
0.0243281
-0.0765123
107.465
-0.0674805
81.3789
-0.0606946
61.7058
-0.0555727
46.7434
-0.0515721
35.4136
-0.048339
26.8514
-0.0456321
20.4013
-0.0433597
15.556
-0.0414917
11.9181
-0.0400121
9.18059
-0.0388188
7.11456
-0.0375878
5.55475
-0.0359435
4.37251
-0.0326338
3.49532
-0.0256368
2.80501
-0.01405
2.13558
-0.00103108
1.40004
0.00786299
0.720116
0.0117583
0.259463
0.0142489
0.0205676
0.0169882
-0.0852526
0.0187449
-0.115831
-0.113851
0.0197496
-0.0661027
107.451
-0.0549101
81.3677
-0.0462779
61.6972
-0.0396107
46.7367
-0.0343202
35.4083
-0.0299869
26.847
-0.0262882
20.3976
-0.0230532
15.5527
-0.0201908
11.9153
-0.0176366
9.17804
-0.0152274
7.11216
-0.0125727
5.55209
-0.00909613
4.36904
-0.0034763
3.4897
0.00531371
2.79623
0.0157903
2.1251
0.0230673
1.39277
0.0232566
0.719931
0.0186759
0.264051
0.0139106
0.0253423
0.0111348
-0.0824838
0.00920637
-0.113897
-0.112308
0.00766092
-0.0693872
107.436
-0.057641
81.3559
-0.0485821
61.6881
-0.0415893
46.7297
-0.0360439
35.4028
-0.0315022
26.8425
-0.0276209
20.3937
-0.0242149
15.5493
-0.0211842
11.9122
-0.0184585
9.17531
-0.0158622
7.10955
-0.0129776
5.5492
-0.00918899
4.36524
-0.00307308
3.48358
0.00641639
2.78673
0.0177378
2.11377
0.0256706
1.38483
0.0261276
0.719467
0.0214802
0.268693
0.0160364
0.0307811
0.0124422
-0.0788799
0.0100846
-0.111544
-0.110645
0.0084232
-0.0728347
107.42
-0.0605073
81.3436
-0.0510004
61.6786
-0.0436661
46.7224
-0.0378534
35.397
-0.0330934
26.8377
-0.0290208
20.3896
-0.0254354
15.5458
-0.0222276
11.909
-0.0193207
9.1724
-0.0165254
7.10676
-0.0133966
5.54607
-0.00927765
4.36112
-0.0026458
3.47695
0.00755742
2.77653
0.0197167
2.10162
0.0282753
1.37627
0.0289684
0.718779
0.0242021
0.273466
0.0182045
0.0367885
0.0139051
-0.0745866
0.0110891
-0.108724
-0.108756
0.00919772
-0.0764534
107.403
-0.0635159
81.3306
-0.0535387
61.6686
-0.045846
46.7147
-0.0397529
35.3909
-0.0347643
26.8327
-0.0304912
20.3854
-0.0267176
15.542
-0.0233235
11.9056
-0.0202249
9.1693
-0.0172184
7.10374
-0.0138297
5.54268
-0.00936194
4.35664
-0.00219406
3.46977
0.00873668
2.76559
0.021719
2.08863
0.0308654
1.36712
0.0317662
0.717872
0.0268845
0.278344
0.0205063
0.0431633
0.0155509
-0.0696213
0.0122325
-0.10541
-0.106527
0.0100052
-0.0802515
107.385
-0.0666738
81.3171
-0.0562031
61.6582
-0.0481341
46.7066
-0.041747
35.3845
-0.0365187
26.8275
-0.0320357
20.3809
-0.0280647
15.538
-0.0244744
11.902
-0.021173
9.166
-0.017942
7.10051
-0.0142766
5.53902
-0.00944107
4.35181
-0.0017175
3.46205
0.00995239
2.75393
0.0237445
2.07484
0.0334353
1.35744
0.0345186
0.716794
0.0295442
0.283326
0.0229053
0.0498128
0.0172992
-0.06402
0.0134398
-0.101545
-0.103894
0.0108051
-0.0842386
107.367
-0.0699887
81.3028
-0.0589996
61.6472
-0.0505357
46.6981
-0.0438404
35.3778
-0.038361
26.822
-0.0336579
20.3762
-0.0294799
15.5338
-0.025683
11.8982
-0.0221668
9.16248
-0.0186972
7.09704
-0.0147374
5.53505
-0.00951371
4.34658
-0.0012153
3.45374
0.0112009
2.7415
0.025787
2.06025
0.0359756
1.34724
0.0372207
0.715544
0.0321686
0.288375
0.0253048
0.0566745
0.0190725
-0.0577777
0.0146628
-0.0971392
-0.100798
0.0115671
-0.0884234
107.347
-0.0734682
81.2879
-0.061935
61.6356
-0.0530567
46.6892
-0.046038
35.3708
-0.0402954
26.8163
-0.0353618
20.3712
-0.0309664
15.5294
-0.026952
11.8942
-0.0232083
9.15873
-0.019485
7.09332
-0.0152116
5.53078
-0.0095783
4.34095
-0.000685585
3.44486
0.0124791
2.72835
0.027836
2.0449
0.0384733
1.33661
0.0398627
0.71416
0.0347325
0.293512
0.0276603
0.0637571
0.0208223
-0.050943
0.0158753
-0.092187
-0.0971986
0.0122758
-0.0928164
107.327
-0.0771206
81.2722
-0.0650159
61.6235
-0.0557028
46.6799
-0.0483449
35.3634
-0.0423266
26.8103
-0.0371513
20.3661
-0.0325279
15.5248
-0.0282842
11.89
-0.0242991
9.15474
-0.0203059
7.08932
-0.0156989
5.52616
-0.00963284
4.33488
-0.000125479
3.43534
0.0137857
2.71443
0.0298838
2.02879
0.0409173
1.32557
0.0424326
0.712641
0.0372166
0.298726
0.0299476
0.0710247
0.0225378
-0.0435241
0.0170733
-0.0867257
-0.0930609
0.0129364
-0.0974275
107.305
-0.0809544
81.2557
-0.0682499
61.6108
-0.0584802
46.6702
-0.0507666
35.3557
-0.0444591
26.804
-0.0390307
20.3606
-0.0341677
15.5199
-0.0296824
11.8855
-0.0254413
9.1505
-0.0211607
7.08504
-0.0161981
5.5212
-0.00967512
4.32836
0.000467878
3.4252
0.01512
2.69978
0.0319219
2.012
0.0432972
1.3142
0.0449173
0.711026
0.0395823
0.304067
0.0321194
0.0784971
0.0242067
-0.0356136
0.0182623
-0.0807759
-0.0883591
0.0135603
-0.102268
107.283
-0.0849786
81.2384
-0.0716444
61.5975
-0.0613954
46.6599
-0.0533087
35.3476
-0.0466982
26.7973
-0.0410042
20.3549
-0.0358895
15.5148
-0.0311495
11.8808
-0.0266366
9.14598
-0.02205
7.08044
-0.0167086
5.51586
-0.00970321
4.32134
0.00109662
3.41439
0.0164803
2.68439
0.0339408
1.99453
0.0455966
1.30254
0.0472923
0.709327
0.0418023
0.309554
0.0341244
0.0861741
0.0258074
-0.0272882
0.0194115
-0.0743821
-0.0831013
0.0141546
-0.107348
107.259
-0.0892027
81.2203
-0.0752076
61.5835
-0.0644554
46.6492
-0.0559771
35.3392
-0.0490488
26.7904
-0.0430764
20.349
-0.0376973
15.5095
-0.0326885
11.8758
-0.0278873
9.14119
-0.0229748
7.07553
-0.0172297
5.51011
-0.00971606
4.31383
0.00176073
3.40292
0.0178612
2.6683
0.0359301
1.97647
0.0478092
1.29066
0.0495466
0.707595
0.0438937
0.315212
0.0359651
0.0941113
0.0273181
-0.0186426
0.020438
-0.0674967
-0.0773387
0.0146758
-0.112682
107.234
-0.0936368
81.2012
-0.0789473
61.5688
-0.0676672
46.6379
-0.0587781
35.3303
-0.0515164
26.7832
-0.0452519
20.3427
-0.0395948
15.5038
-0.0343025
11.8705
-0.0291954
9.13607
-0.0239363
7.07027
-0.0177614
5.50393
-0.00971375
4.30578
0.00245749
3.39074
0.0192539
2.65149
0.0378725
1.95784
0.0499309
1.2786
0.051678
0.705845
0.0458597
0.321028
0.0376391
0.102331
0.0287125
-0.00970869
0.0212286
-0.0600138
-0.0711455
0.0150364
-0.11828
107.208
-0.0982914
81.1812
-0.082873
61.5534
-0.0710383
46.626
-0.061718
35.321
-0.0541067
26.7755
-0.0475357
20.3361
-0.0415864
15.4978
-0.0359949
11.8649
-0.0305634
9.13064
-0.0249357
7.06464
-0.0183043
5.49731
-0.00969742
4.29718
0.00318188
3.37787
0.0206481
2.63403
0.0397513
1.93874
0.051946
1.26641
0.0536588
0.704138
0.0476721
0.327019
0.0391045
0.110907
0.029914
-0.000518754
0.0217479
-0.0518427
-0.0646308
0.015234
-0.124157
107.181
-0.103177
81.1602
-0.0869933
61.5372
-0.0745766
46.6136
-0.0648038
35.3112
-0.0568256
26.7676
-0.0499328
20.3292
-0.0436763
15.4916
-0.0377693
11.859
-0.0319941
9.12486
-0.025975
7.05862
-0.0188594
5.49018
-0.00966943
4.28798
0.00392674
3.36427
0.0220313
2.61592
0.0415403