/*--------------------------------*- C++ -*----------------------------------*\
  =========                 |
  \\      /  F ield         | OpenFOAM: The Open Source CFD Toolbox
   \\    /   O peration     | Website:  https://openfoam.org
    \\  /    A nd           | Version:  7
     \\/     M anipulation  |
\*---------------------------------------------------------------------------*/
FoamFile
{
    version     2.0;
    format      ascii;
    class       volVectorField;
    location    "129";
    object      U;
}
// * * * * * * * * * * * * * * * * * * * * * * * * * * * * * * * * * * * * * //

dimensions      [0 1 -1 0 0 0 0];

internalField   nonuniform List<vector> 
12842
(
(14.8537 4.83769 -3.8098e-18)
(14.8496 4.85898 -1.01027e-18)
(14.845 4.88141 -2.42361e-19)
(14.8359 4.9068 6.6211e-19)
(14.8218 4.93756 -2.16682e-18)
(14.8022 4.97647 0)
(14.7757 5.02632 0)
(14.7396 5.08975 -1.72106e-19)
(14.6909 5.16926 8.35788e-19)
(14.6262 5.26699 -1.82677e-20)
(14.5422 5.38466 2.487e-19)
(14.4363 5.52358 -7.75805e-20)
(14.307 5.68441 3.06081e-19)
(14.1542 5.86697 9.71663e-20)
(13.9791 6.06981 -1.2268e-19)
(13.7848 6.28953 -3.26055e-19)
(13.5753 6.5206 -2.84351e-19)
(13.3567 6.75574 0)
(13.1359 6.98687 2.3624e-20)
(12.9204 7.20641 1.71682e-19)
(12.7179 7.40839 2.49461e-20)
(12.5322 7.58828 -1.14514e-19)
(12.3743 7.7467 8.56957e-20)
(14.854 4.83944 3.00603e-18)
(14.8538 4.86252 0)
(14.8534 4.88658 -2.07818e-18)
(14.8491 4.91365 7.83669e-19)
(14.8409 4.94652 1.66773e-18)
(14.8288 4.98835 0)
(14.8114 5.04243 -5.59363e-19)
(14.7862 5.11198 0)
(14.7499 5.19987 -5.29455e-19)
(14.6987 5.30836 -3.94796e-20)
(14.6289 5.43898 -4.6969e-19)
(14.5377 5.5925 -1.70964e-19)
(14.4233 5.76893 -3.02441e-19)
(14.2857 5.96746 2.76268e-19)
(14.126 6.18611 0)
(13.9463 6.42101 3.58187e-19)
(13.7499 6.66599 4.1171e-19)
(13.5416 6.91303 -4.72338e-19)
(13.3276 7.15331 0)
(13.1152 7.37884 -2.27814e-19)
(12.9128 7.58339 -3.3315e-19)
(12.7247 7.76371 3.12121e-19)
(12.565 7.91705 -3.2157e-19)
(14.8545 4.84132 0)
(14.8584 4.86527 0)
(14.8614 4.89 6.12624e-19)
(14.8612 4.91774 -4.55881e-18)
(14.8584 4.95161 0)
(14.8533 4.99509 0)
(14.8447 5.05198 7.93247e-19)
(14.8303 5.12613 -5.13712e-19)
(14.8063 5.2209 8.62656e-20)
(14.7684 5.33873 -1.5223e-19)
(14.7124 5.48088 -5.13116e-19)
(14.6349 5.64757 1.70591e-19)
(14.5343 5.83806 4.57916e-20)
(14.4108 6.05092 -3.35083e-19)
(14.2655 6.28384 0)
(14.1004 6.53274 -1.03607e-19)
(13.9177 6.79117 1.33485e-19)
(13.721 7.05054 3.00842e-19)
(13.516 7.30128 3.04039e-19)
(13.3094 7.53486 -2.42272e-19)
(13.1105 7.74449 2.52321e-19)
(12.9234 7.92813 0)
(12.7654 8.07878 1.19672e-19)
(14.8554 4.84348 4.82932e-19)
(14.863 4.86738 -8.73804e-19)
(14.8687 4.89216 2.30213e-18)
(14.872 4.91988 4.69152e-18)
(14.8741 4.95385 -2.8759e-19)
(14.8756 4.99788 -3.73561e-19)
(14.8758 5.05632 6.58248e-19)
(14.872 5.1337 5.14397e-19)
(14.8604 5.23393 1.94317e-18)
(14.8357 5.3597 -1.2499e-18)
(14.7931 5.51203 1.54039e-18)
(14.7288 5.6905 -9.96175e-20)
(14.6413 5.89353 1.30074e-19)
(14.5311 6.11906 3.08547e-19)
(14.4001 6.36454 3.33529e-20)
(14.2498 6.62599 -4.31781e-20)
(14.082 6.89698 -4.28631e-20)
(13.8988 7.16863 -9.04314e-20)
(13.7049 7.43064 -1.36688e-19)
(13.5067 7.67395 2.31574e-20)
(13.314 7.89079 -8.50657e-20)
(13.1304 8.08041 -1.10224e-19)
(12.9765 8.23087 2.36678e-19)
(14.8568 4.84584 3.52342e-18)
(14.8673 4.86896 0)
(14.8754 4.89336 -1.5447e-19)
(14.8815 4.92056 -1.49329e-18)
(14.888 4.95388 -1.93281e-19)
(14.8958 4.99748 1.74052e-18)
(14.9043 5.05621 6.96602e-19)
(14.9112 5.13539 -3.55776e-18)
(14.9119 5.2396 -2.16796e-18)
(14.9005 5.37189 1.44046e-18)
(14.8712 5.53312 -2.36777e-18)
(14.8199 5.72216 -1.51346e-18)
(14.7451 5.93645 2.64735e-19)
(14.6481 6.17314 -9.86989e-19)
(14.5314 6.42947 -3.65988e-19)
(14.3969 6.70181 2.011e-19)
(14.2453 6.98418 0)
(14.0776 7.26769 6.71796e-20)
(13.8971 7.54149 0)
(13.7096 7.79589 1.12909e-19)
(13.5253 8.02192 7.43281e-21)
(13.3471 8.22005 7.45151e-20)
(13.1992 8.37274 -3.94527e-20)
(14.8585 4.84821 -3.15091e-18)
(14.8711 4.8701 0)
(14.8814 4.89382 0)
(14.8898 4.92012 -2.85084e-19)
(14.9001 4.9522 -7.34327e-19)
(14.9137 4.99448 -1.4497e-18)
(14.9302 5.0523 -4.31527e-18)
(14.9475 5.13183 3.98157e-18)
(14.9605 5.23845 0)
(14.9624 5.37574 2.80071e-18)
(14.9464 5.54445 2.43273e-18)
(14.9078 5.74277 7.60026e-19)
(14.8453 5.96695 0)
(14.7612 6.21322 6.75905e-19)
(14.659 6.47856 3.05118e-19)
(14.5412 6.75994 -1.23498e-19)
(14.4077 7.05221 -4.38025e-20)
(14.2577 7.34697 3.9258e-19)
(14.0932 7.6329 0)
(13.919 7.89976 1.54137e-20)
(13.7455 8.13692 9.63294e-20)
(13.5745 8.34623 -7.77409e-20)
(13.4339 8.50358 -3.51364e-20)
(14.8603 4.85044 2.25227e-19)
(14.8742 4.8709 0)
(14.8865 4.89372 0)
(14.8968 4.91887 2.85373e-19)
(14.9103 4.94925 9.34008e-19)
(14.9288 4.98943 -3.98863e-19)
(14.9526 5.04515 2.82066e-18)
(14.9797 5.1235 3.83415e-19)
(15.0046 5.23085 -5.02985e-19)
(15.02 5.37148 -3.13947e-18)
(15.0178 5.54628 -3.00323e-19)
(14.9926 5.7528 2.10805e-18)
(14.9428 5.98596 0)
(14.8716 6.24071 -1.31173e-18)
(14.784 6.51349 9.39523e-20)
(14.6832 6.80198 -1.22123e-19)
(14.5687 7.1023 4.18218e-19)
(14.4383 7.40707 -2.25761e-19)
(14.2922 7.70487 -4.4553e-19)
(14.1338 7.98499 -8.33947e-20)
(13.9737 8.23485 2.77237e-20)
(13.8121 8.45779 -6.47124e-20)
(13.6807 8.62194 -2.34976e-20)
(14.8624 4.85247 0)
(14.8768 4.87142 6.146e-20)
(14.8909 4.89318 -2.95835e-19)
(14.9026 4.91697 -1.02534e-19)
(14.919 4.94527 -1.97243e-18)
(14.9423 4.98272 4.93405e-19)
(14.9731 5.03547 -6.72125e-20)
(15.0098 5.11154 -3.57199e-18)
(15.0463 5.21831 0)
(15.0741 5.36081 -4.56899e-18)
(15.0843 5.54009 3.42751e-19)
(15.0708 5.753 2.76255e-19)
(15.0325 5.99308 0)
(14.9738 6.25392 1.29918e-18)
(14.9015 6.53152 -1.06375e-18)
(14.8198 6.8246 0)
(14.7273 7.13108 -4.17133e-19)
(14.6199 7.4451 0)
(14.4954 7.7552 3.70748e-19)
(14.3558 8.05031 0)
(14.2113 8.31504 -1.57557e-19)
(14.061 8.55522 1.13101e-19)
(13.9399 8.72883 1.46719e-19)
(14.8643 4.8542 0)
(14.879 4.87171 0)
(14.8944 4.89255 2.24929e-19)
(14.9064 4.91549 -7.07427e-20)
(14.9238 4.94223 2.07365e-18)
(14.9491 4.9773 3.32107e-18)
(14.9843 5.02675 0)
(15.0283 5.09931 3.36443e-18)
(15.0755 5.20339 0)
(15.1163 5.34529 9.51537e-18)
(15.1406 5.52694 3.23407e-18)
(15.1402 5.74532 -1.92098e-18)
(15.1126 5.99282 -1.71593e-19)
(15.0626 6.26109 0)
(14.9992 6.54427 1.11433e-18)
(14.9293 6.84073 9.31082e-19)
(14.8534 7.14964 -8.65829e-20)
(14.7664 7.46733 6.8784e-19)
(14.6641 7.78341 6.37359e-19)
(14.5457 8.08783 0)
(14.4201 8.36254 1.29691e-19)
(14.2844 8.61668 2.0622e-20)
(14.1754 8.79943 -7.87743e-20)
(14.8665 4.85596 2.95879e-20)
(14.8811 4.87214 -7.10719e-19)
(14.8976 4.89204 -2.22614e-20)
(14.9098 4.91419 0)
(14.9283 4.93946 6.49273e-20)
(14.9557 4.97246 3.88281e-19)
(14.9946 5.01937 -4.36155e-18)
(15.0445 5.08951 0)
(15.0995 5.1921 0)
(15.1494 5.33411 -4.92223e-18)
(15.1832 5.51795 -3.45594e-18)
(15.1914 5.74035 -7.18912e-20)
(15.1712 5.99275 1.73473e-18)
(15.1282 6.26537 -5.85332e-20)
(15.0727 6.55127 -1.72161e-19)
(15.014 6.84902 2.40639e-19)
(14.953 7.15914 -7.1006e-19)
(14.8842 7.47982 -6.52941e-19)
(14.8013 7.80124 -7.25033e-19)
(14.7017 8.11417 -5.84168e-19)
(14.5934 8.39769 1.69691e-19)
(14.4712 8.66402 -7.57104e-19)
(14.3751 8.8546 1.34533e-19)
(14.8687 4.85745 -2.20985e-18)
(14.8829 4.87256 8.18743e-19)
(14.9005 4.89154 -1.25634e-21)
(14.9128 4.91306 6.93682e-19)
(14.9323 4.93681 -6.11331e-20)
(14.9615 4.9677 -3.68901e-18)
(15.0038 5.01197 8.58813e-18)
(15.0591 5.0796 2.69826e-19)
(15.1214 5.18068 -2.04091e-19)
(15.18 5.32286 -5.74656e-18)
(15.2228 5.50899 1.21878e-19)
(15.2395 5.73549 -2.80854e-18)
(15.2268 5.99269 -1.55898e-18)
(15.1906 6.26921 0)
(15.1431 6.55681 1.51757e-18)
(15.0956 6.85434 -2.19835e-18)
(15.0502 7.16391 -2.2393e-19)
(15.0007 7.48599 7.68419e-19)
(14.9394 7.81157 -8.40655e-21)
(14.8613 8.13256 7.52164e-19)
(14.7738 8.42483 0)
(14.6684 8.70398 2.49044e-19)
(14.589 8.90253 0)
(14.8707 4.85861 3.68357e-18)
(14.8847 4.87291 3.09982e-19)
(14.903 4.89104 1.35175e-20)
(14.9153 4.91205 -1.35956e-18)
(14.9357 4.93434 1.61288e-18)
(14.9665 4.96311 -1.0105e-19)
(15.0119 5.00469 -4.51982e-18)
(15.0722 5.06968 8.3528e-20)
(15.1415 5.16909 -2.43198e-19)
(15.2083 5.31125 5.95737e-18)
(15.2601 5.49954 0)
(15.2853 5.7301 2.58074e-18)
(15.2802 5.9921 1.66381e-19)
(15.2509 6.27235 -7.248e-20)
(15.2114 6.56107 -1.58213e-18)
(15.1752 6.85715 -3.38162e-20)
(15.146 7.16442 6.86108e-19)
(15.1174 7.48603 -1.33065e-18)
(15.0802 7.81404 0)
(15.0269 8.14202 -6.10571e-19)
(14.9638 8.44228 8.20438e-19)
(14.8787 8.73449 0)
(14.8194 8.94087 -4.49198e-19)
(14.8727 4.85956 -1.26797e-18)
(14.8863 4.87318 -1.89873e-19)
(14.9053 4.89052 1.60103e-20)
(14.9175 4.91115 6.81246e-19)
(14.9387 4.93202 -3.2131e-18)
(14.9707 4.95872 4.9621e-21)
(15.019 4.99758 6.3975e-20)
(15.084 5.05979 5.01456e-18)
(15.16 5.15733 -1.16508e-19)
(15.2347 5.29922 0)
(15.2955 5.48944 4.55384e-18)
(15.3292 5.72391 9.22898e-20)
(15.3318 5.99069 5.98369e-20)
(15.3094 6.27459 4.50845e-21)
(15.2776 6.56394 -1.72003e-19)
(15.2528 6.85742 1.32643e-18)
(15.2404 7.16052 -8.75493e-19)
(15.2345 7.47943 -1.73519e-19)
(15.2241 7.80756 -3.17548e-19)
(15.1994 8.1409 8.92053e-19)
(15.165 8.44771 -5.93486e-19)
(15.1045 8.75349 1.31226e-18)
(15.0698 8.96673 -8.75079e-19)
(14.8745 4.86025 -9.58545e-19)
(14.8878 4.87341 -1.37364e-19)
(14.9073 4.89001 -3.68053e-21)
(14.9195 4.91035 7.5446e-19)
(14.9413 4.92986 3.35745e-18)
(14.9744 4.95451 -5.05483e-21)
(15.0253 4.9906 -6.68804e-20)
(15.0947 5.0499 2.26756e-19)
(15.1771 5.14537 -4.45453e-18)
(15.2598 5.28672 3.49756e-18)
(15.3294 5.47866 -4.78534e-18)
(15.3718 5.71691 -3.15578e-18)
(15.3822 5.98848 2.10689e-18)
(15.3665 6.276 0)
(15.3423 6.56553 1.01192e-18)
(15.3285 6.85512 0)
(15.3335 7.15184 1.1652e-18)
(15.3518 7.46522 7.77087e-19)
(15.3713 7.79041 -2.08065e-20)
(15.3789 8.1263 -1.05566e-18)
(15.3777 8.43715 -2.06984e-20)
(15.3465 8.75335 2.65671e-20)
(15.3397 8.97316 -3.65159e-19)
(14.8762 4.86072 1.90292e-19)
(14.8891 4.87357 1.6732e-21)
(14.909 4.8895 3.77241e-21)
(14.9213 4.90961 -7.53201e-19)
(14.9435 4.92785 -1.68792e-18)
(14.9775 4.95049 0)
(15.0309 4.98377 5.40398e-20)
(15.1044 5.04 -5.2164e-18)
(15.1931 5.13313 -1.93657e-19)
(15.2834 5.27361 -3.48929e-18)
(15.3621 5.46695 2.63962e-18)
(15.4134 5.70884 4.94877e-18)
(15.4319 5.98527 -2.02722e-18)
(15.423 6.27657 1.38704e-18)
(15.4058 6.56605 1.28738e-19)
(15.4026 6.8506 1.96354e-20)
(15.4248 7.13855 -5.85584e-20)
(15.4683 7.4428 -2.57482e-19)
(15.5201 7.7609 1.81586e-19)
(15.5638 8.09436 -3.6057e-19)
(15.6 8.40634 -3.97581e-20)
(15.6039 8.72634 2.92025e-19)
(15.6277 8.9554 0)
(14.8779 4.86098 2.0677e-19)
(14.8903 4.87367 0)
(14.9106 4.88897 0)
(14.9229 4.9089 -7.88174e-19)
(14.9454 4.92592 -1.80423e-18)
(14.9802 4.94657 2.44552e-18)
(15.0357 4.97701 3.58229e-20)
(15.1132 5.03004 -5.06455e-20)
(15.2079 5.1206 4.69854e-18)
(15.3061 5.25993 -6.03837e-20)
(15.3938 5.4544 2.01083e-19)
(15.4543 5.69981 -1.70448e-18)
(15.4812 5.98119 0)
(15.4791 6.27644 -1.46824e-18)
(15.4684 6.56558 -2.15381e-18)
(15.475 6.8437 -9.16539e-19)
(15.514 7.12008 -6.1704e-19)
(15.5833 7.41084 0)
(15.6693 7.71686 0)
(15.7529 8.04172 5.79605e-19)
(15.8305 8.35091 3.9999e-19)
(15.8758 8.66713 -8.54482e-19)
(15.9335 8.90632 0)
(14.8795 4.86109 5.7298e-19)
(14.8914 4.87371 4.06735e-22)
(14.912 4.88844 2.40802e-21)
(14.9243 4.90821 7.85374e-19)
(14.947 4.92407 3.59925e-18)
(14.9824 4.94274 -4.92149e-18)
(15.04 4.97027 -3.69024e-20)
(15.1212 5.01994 -5.2549e-20)
(15.2219 5.1077 6.88711e-20)
(15.3277 5.24557 0)
(15.4248 5.4409 -2.6768e-18)
(15.495 5.68972 1.87352e-18)
(15.5306 5.97623 0)
(15.5352 6.2757 0)
(15.5304 6.5643 1.01617e-18)
(15.5454 6.83449 7.2562e-20)
(15.6002 7.09598 6.86945e-19)
(15.6951 7.36798 5.84344e-19)
(15.8167 7.6555 -9.1831e-19)
(15.9431 7.96392 -3.53253e-19)
(16.0659 8.2636 1.38866e-18)
(16.1586 8.56784 -1.29953e-18)
(16.2541 8.81345 8.39899e-19)
(14.881 4.86107 -8.83885e-20)
(14.8924 4.87369 -5.10404e-20)
(14.9133 4.88789 2.95877e-21)
(14.9257 4.90753 -3.90455e-21)
(14.9484 4.92229 -1.83075e-18)
(14.9843 4.93899 2.52399e-18)
(15.0438 4.96355 -2.99303e-20)
(15.1285 5.0097 -1.51013e-20)
(15.2349 5.09437 7.12664e-20)
(15.3485 5.23043 3.28321e-20)
(15.4553 5.42632 -4.28568e-20)
(15.5355 5.67844 -1.87042e-18)
(15.5803 5.97029 1.29912e-18)
(15.5917 6.2744 -5.05553e-20)
(15.5918 6.56243 0)
(15.6136 6.82318 -8.13512e-20)
(15.6821 7.06608 8.24558e-20)
(15.8012 7.31308 -5.75827e-19)
(15.9583 7.57398 1.12435e-18)
(16.1291 7.85606 7.11249e-19)
(16.3002 8.13602 -4.81488e-19)
(16.4451 8.41895 -7.38316e-19)
(16.5827 8.66212 9.10457e-19)
(14.8824 4.86094 8.75212e-20)
(14.8932 4.87362 5.17306e-20)
(14.9144 4.88733 0)
(14.9269 4.90687 0)
(14.9496 4.92057 0)
(14.9859 4.9353 0)
(15.047 4.95681 3.0822e-20)
(15.1351 4.99925 -1.23551e-20)
(15.2472 5.08053 -3.67977e-20)
(15.3686 5.21442 3.41291e-20)
(15.4852 5.41053 -4.45093e-20)
(15.576 5.66582 0)
(15.6307 5.96328 -2.56185e-18)
(15.6488 6.2726 5.37077e-20)
(15.6528 6.56025 -1.09921e-19)
(15.6788 6.81017 9.97938e-19)
(15.7579 7.03048 -8.33196e-20)
(15.8984 7.24541 1.75117e-19)
(16.0888 7.46996 -1.95374e-19)
(16.3035 7.7139 3.88201e-19)
(16.5241 7.9604 -5.70441e-19)
(16.7237 8.20975 0)
(16.9069 8.43614 5.34319e-19)
(14.8837 4.86071 -7.48165e-20)
(14.8939 4.87349 9.29087e-20)
(14.9155 4.88674 2.0031e-22)
(14.928 4.90621 4.32092e-19)
(14.9506 4.9189 9.40166e-19)
(14.9872 4.93168 1.51039e-20)
(15.0496 4.95005 -3.16116e-18)
(15.1409 4.98858 3.16637e-18)
(15.2585 5.06615 2.71291e-18)
(15.3879 5.19744 0)
(15.5148 5.39336 4.89967e-20)
(15.6169 5.65166 -2.1707e-18)
(15.6822 5.95506 1.34216e-18)
(15.7072 6.27039 7.98855e-19)
(15.7136 6.55818 5.74671e-19)
(15.7407 6.79617 0)
(15.8256 6.98983 0)
(15.9822 7.16513 -6.23971e-19)
(16.2013 7.34237 -7.81689e-19)
(16.4561 7.53397 4.16805e-19)
(16.7237 7.729 3.14375e-19)
(16.9755 7.92795 4.26627e-19)
(17.205 8.11922 -5.82439e-19)
(14.8849 4.86044 7.44718e-20)
(14.8946 4.87333 -9.30661e-20)
(14.9166 4.88617 -1.57596e-21)
(14.929 4.90556 5.54178e-21)
(14.9513 4.91725 -9.42747e-19)
(14.9882 4.92801 -1.33799e-18)
(15.052 4.94313 1.52434e-18)
(15.1465 4.97753 -3.14407e-18)
(15.2696 5.05107 -2.70633e-18)
(15.4069 5.17938 -6.39107e-20)
(15.5444 5.37473 0)
(15.6584 5.63588 2.10424e-18)
(15.7348 5.9456 1.38681e-18)
(15.7667 6.26795 -8.4848e-19)
(15.7739 6.55688 -4.93256e-19)
(15.7978 6.78241 -2.27216e-19)
(15.8823 6.94583 -1.92314e-19)
(16.0476 7.07391 1.23309e-18)
(16.2867 7.19164 0)
(16.5725 7.31465 0)
(16.8783 7.43861 3.49622e-19)
(17.1741 7.56853 -8.25779e-19)
(17.4461 7.70494 -6.29492e-19)
(14.8859 4.86 -1.74863e-19)
(14.8952 4.87303 0)
(14.9175 4.88547 0)
(14.93 4.90491 -8.76873e-19)
(14.952 4.91578 9.38627e-19)
(14.9887 4.92468 1.3735e-18)
(15.0532 4.93653 -2.75441e-20)
(15.1503 4.96652 1.62112e-18)
(15.2787 5.03545 6.54249e-20)
(15.4244 5.16001 -2.34566e-18)
(15.5732 5.35404 5.27058e-20)
(15.7006 5.61764 -6.84382e-20)
(15.7898 5.93412 -1.3829e-18)
(15.8294 6.26503 8.69913e-19)
(15.8358 6.55715 5.14008e-19)
(15.8512 6.771 -4.12072e-19)
(15.9261 6.90148 4.29458e-19)
(16.088 6.9748 -6.09849e-19)
(16.3332 7.0212 0)
(16.6353 7.06116 0)
(16.9649 7.09624 -3.06978e-19)
(17.2888 7.13714 2.29336e-19)
(17.5899 7.19692 -6.69474e-19)
(14.887 4.85985 -2.61544e-20)
(14.8955 4.87295 1.8121e-19)
(14.9186 4.88497 0)
(14.9306 4.90403 2.21886e-19)
(14.9527 4.91349 -1.90793e-18)
(14.9903 4.9199 1.59769e-20)
(15.0567 4.92807 -5.24437e-20)
(15.1576 4.95378 -1.6861e-18)
(15.2915 5.01859 4.1182e-20)
(15.445 5.13994 2.35285e-18)
(15.6043 5.333 -5.10408e-20)
(15.7438 5.59918 -1.13782e-18)
(15.8447 5.92271 -8.91069e-20)
(15.8906 6.26314 -8.09244e-19)
(15.8935 6.56006 -5.83779e-19)
(15.8951 6.76326 7.59138e-20)
(15.9515 6.85941 0)
(16.097 6.87386 -8.68901e-20)
(16.3323 6.84237 1.10066e-19)
(16.6305 6.78824 0)
(16.9586 6.71754 3.09479e-19)
(17.2822 6.65235 -2.27507e-19)
(17.5853 6.61934 0)
(14.8876 4.85876 2.02046e-19)
(14.8961 4.8724 -1.81554e-19)
(14.9189 4.88451 0)
(14.9311 4.90469 2.18413e-19)
(14.9522 4.91504 1.91443e-18)
(14.9884 4.92128 1.41494e-18)
(15.0542 4.9271 3.36604e-18)
(15.1563 4.94769 0)
(15.2949 5.00564 3.06548e-18)
(15.4568 5.12002 -2.44614e-18)
(15.6289 5.30829 1.78015e-18)
(15.7848 5.57425 1.17878e-18)
(15.903 5.90459 -1.09655e-20)
(15.9601 6.25841 1.4212e-20)
(15.9597 6.56791 -5.01672e-19)
(15.9393 6.76886 3.63978e-19)
(15.9602 6.83507 0)
(16.0671 6.78781 2.37722e-19)
(16.2663 6.66534 0)
(16.5303 6.49641 0)
(16.8256 6.30342 -3.04551e-19)
(17.1221 6.1277 -6.97678e-19)
(17.4001 6.00122 5.90307e-19)
(14.8882 4.85806 0)
(14.8965 4.87202 7.55345e-25)
(14.9196 4.88407 1.23503e-23)
(14.9315 4.90459 -2.15677e-19)
(14.9524 4.915 -4.75592e-19)
(14.9886 4.92071 -1.41559e-18)
(15.0548 4.92484 -1.69741e-18)
(15.1586 4.94226 -2.06079e-21)
(15.3006 4.99586 -1.49791e-18)
(15.4687 5.10546 -5.8277e-20)
(15.6503 5.29001 4.96722e-20)
(15.8192 5.55541 0)
(15.9522 5.89102 1.10496e-20)
(16.0202 6.25673 -1.42983e-20)
(16.0173 6.57967 7.17922e-19)
(15.9735 6.78353 1.9126e-20)
(15.9506 6.82818 0)
(15.9993 6.7257 2.24784e-20)
(16.1317 6.51576 -8.68183e-20)
(16.3287 6.2431 0)
(16.564 5.95026 0)
(16.8043 5.6858 4.06148e-19)
(17.0219 5.47719 -3.18019e-19)
(14.8889 4.85737 1.93531e-19)
(14.8968 4.87164 -2.10845e-19)
(14.9201 4.88359 0)
(14.932 4.90438 2.16066e-19)
(14.9526 4.91473 -4.85327e-19)
(14.9888 4.91976 -1.47346e-18)
(15.0555 4.92208 1.77049e-18)
(15.1609 4.93635 -1.80916e-18)
(15.3063 4.98572 -1.57073e-18)
(15.4805 5.09066 3.79372e-18)
(15.6718 5.27153 -1.83098e-18)
(15.8544 5.53632 -1.27041e-18)
(16.0035 5.87739 -7.87509e-19)
(16.0838 6.2564 0)
(16.0786 6.59703 -2.32779e-19)
(16.0072 6.81173 2.15709e-19)
(15.9275 6.84398 1.38644e-20)
(15.8961 6.69597 -2.08464e-19)
(15.9395 6.41576 0)
(16.0536 6.06216 0)
(16.208 5.68393 0)
(16.3629 5.33811 -5.50631e-19)
(16.4971 5.05859 5.25033e-19)
(14.8895 4.85661 -1.93934e-19)
(14.8972 4.87124 -3.15625e-21)
(14.9206 4.88308 0)
(14.9325 4.90413 -2.19689e-19)
(14.9529 4.91441 -4.28024e-23)
(14.9889 4.91875 2.23176e-18)
(15.056 4.91921 -3.58678e-18)
(15.1629 4.93028 5.51796e-18)
(15.3116 4.97533 -1.8011e-21)
(15.4919 5.07546 -1.28182e-18)
(15.693 5.25235 -9.69235e-19)
(15.89 5.51613 1.27111e-18)
(16.0565 5.86266 7.76106e-19)
(16.1511 6.25663 -4.31664e-19)
(16.1448 6.62018 2.65536e-21)
(16.0426 6.85517 -2.17818e-19)
(15.8952 6.8884 0)
(15.7675 6.71405 0)
(15.704 6.37984 7.12461e-20)
(15.7074 5.94367 0)
(15.7493 5.47749 0)
(15.8083 5.06776 8.18191e-20)
(15.8651 4.7445 1.85709e-19)
(14.89 4.85581 0)
(14.8975 4.87081 2.14829e-19)
(14.9211 4.88254 3.42361e-24)
(14.9329 4.90386 -6.37862e-21)
(14.9531 4.91409 -5.44004e-23)
(14.989 4.91773 -1.53274e-18)
(15.0563 4.91633 1.81622e-18)
(15.1646 4.92415 -3.71064e-18)
(15.3165 4.96477 -1.68137e-18)
(15.5028 5.05982 0)
(15.7139 5.23231 9.64576e-19)
(15.9257 5.49453 2.51477e-21)
(16.1108 5.84634 -1.90491e-22)
(16.222 6.25685 4.27916e-19)
(16.2168 6.64874 0)
(16.083 6.91527 4.08175e-20)
(15.861 6.96878 -7.18074e-22)
(15.6211 6.78651 0)
(15.4192 6.39763 -7.14631e-20)
(15.2798 5.88237 0)
(15.2122 5.36821 0)
(15.1996 4.93697 0)
(15.1832 4.58745 -3.56402e-20)
(14.8904 4.85496 0)
(14.8978 4.87034 -1.04717e-19)
(14.9215 4.88198 -9.15005e-25)
(14.9333 4.90357 2.26853e-19)
(14.9533 4.91376 5.37557e-19)
(14.9891 4.91673 1.57448e-18)
(15.0566 4.91348 0)
(15.1662 4.918 -1.93263e-18)
(15.3211 4.95404 3.39828e-18)
(15.5133 5.04376 -2.63498e-23)
(15.7344 5.21135 1.01132e-18)
(15.9614 5.47136 -6.86546e-19)
(16.1666 5.82806 0)
(16.2972 6.25637 0)
(16.2967 6.68205 1.59305e-19)
(16.1334 6.99393 -3.99666e-20)
(15.8315 7.08857 0)
(15.4572 6.91167 1.22038e-19)
(15.0917 6.4872 8.71233e-20)
(14.819 5.95108 0)
(14.6641 5.43847 5.40215e-22)
(14.5579 4.97942 7.23326e-22)
(14.4255 4.57666 -5.4254e-20)
(14.8909 4.85406 -5.23538e-25)
(14.8981 4.86984 2.06221e-19)
(14.922 4.88139 5.00638e-26)
(14.9337 4.90327 0)
(14.9535 4.91344 1.82553e-20)
(14.9891 4.91576 -1.61674e-18)
(15.0568 4.91065 -3.81082e-22)
(15.1675 4.91184 1.93455e-18)
(15.3254 4.94317 -1.71631e-18)
(15.5235 5.02726 1.39893e-18)
(15.7545 5.18945 2.23747e-20)
(15.9973 5.44648 1.39107e-18)
(16.224 5.80743 -8.6335e-19)
(16.3774 6.25436 1.87971e-21)
(16.3869 6.71961 -3.01312e-19)
(16.199 7.09211 -3.31532e-20)
(15.8126 7.24852 5.0125e-21)
(15.2912 7.10531 -1.26036e-19)
(14.7682 6.70414 -8.63844e-20)
(14.3702 6.18403 0)
(14.0771 5.6262 -7.61293e-20)
(13.8088 5.08529 0)
(13.5485 4.62556 3.41999e-20)
(14.8914 4.85311 0)
(14.8984 4.86931 -1.01489e-19)
(14.9225 4.88078 5.14832e-20)
(14.9341 4.90295 1.08201e-23)
(14.9537 4.91313 -1.13361e-18)
(14.9891 4.91482 8.19753e-19)
(15.0569 4.90785 0)
(15.1687 4.90567 0)
(15.3295 4.93216 -9.77302e-22)
(15.5332 5.01034 -1.39857e-18)
(15.7743 5.16656 2.25779e-20)
(16.0334 5.41976 -7.0354e-19)
(16.2832 5.784 8.58025e-19)
(16.4633 6.24997 0)
(16.4901 6.76075 1.41636e-19)
(16.2854 7.2088 3.21514e-20)
(15.8171 7.45103 -1.45223e-19)
(15.1534 7.38729 -1.45516e-20)
(14.4656 7.04182 0)
(13.8667 6.47903 0)
(13.3495 5.80108 2.50834e-20)
(12.9309 5.17781 1.44295e-19)
(12.6005 4.69911 -3.52928e-20)
(14.8918 4.85211 0)
(14.8988 4.86875 -2.51827e-25)
(14.9229 4.88014 -5.1568e-20)
(14.9345 4.90262 1.40441e-19)
(14.9539 4.91282 5.76793e-19)
(14.9891 4.91391 1.59955e-22)
(15.0569 4.9051 1.0097e-18)
(15.1697 4.8995 1.01807e-18)
(15.3332 4.92103 -1.80775e-18)
(15.5425 4.99299 0)
(15.7937 5.14267 2.29667e-20)
(16.0694 5.39104 -7.43489e-19)
(16.344 5.75731 0)
(16.5554 6.24238 -4.74036e-21)
(16.6084 6.80378 1.25411e-19)
(16.3984 7.33954 0)
(15.8599 7.69311 -1.97407e-20)
(15.0557 7.74383 1.85826e-20)
(14.1475 7.43801 -4.87114e-19)
(13.2616 6.80344 0)
(12.521 6.05815 0)
(12.0079 5.39556 -7.85946e-20)
(11.6267 4.88709 2.84118e-19)
(14.8922 4.85107 8.46338e-25)
(14.8991 4.86815 -1.116e-24)
(14.9233 4.87948 0)
(14.935 4.90227 1.55712e-19)
(14.954 4.91252 -3.54225e-22)
(14.989 4.91303 3.27541e-22)
(15.0568 4.90239 -1.01036e-18)
(15.1705 4.89334 -1.02015e-18)
(15.3366 4.90976 1.80959e-18)
(15.5514 4.97522 -1.47269e-18)
(15.8125 5.11775 -1.08275e-18)
(16.1053 5.36018 7.48518e-19)
(16.4063 5.72694 4.65745e-19)
(16.6541 6.23054 2.33508e-19)
(16.7435 6.84489 -1.10727e-19)
(16.5434 7.47589 -2.05028e-21)
(15.9511 7.96482 2.4254e-19)
(14.9995 8.15755 2.35565e-19)
(13.828 7.92063 1.35371e-19)
(12.6526 7.33374 -1.90549e-19)
(11.6979 6.65146 2.33373e-19)
(11.047 5.97369 0)
(10.5604 5.38815 -1.65588e-19)
(14.8926 4.84999 0)
(14.8994 4.86753 -8.7991e-20)
(14.9238 4.8788 6.63843e-20)
(14.9354 4.90191 -1.41429e-19)
(14.9542 4.91223 3.14269e-19)
(14.9889 4.91218 0)
(15.0566 4.89972 1.32479e-21)
(15.171 4.88719 -1.73343e-21)
(15.3397 4.89839 9.32405e-19)
(15.5598 4.95702 2.2277e-18)
(15.8308 5.09177 -1.12198e-18)
(16.1409 5.32707 -5.85265e-21)
(16.4699 5.69248 1.8959e-20)
(16.7594 6.21282 -2.37012e-19)
(16.896 6.87827 0)
(16.7248 7.60951 -1.43378e-19)
(16.1026 8.26463 2.90318e-19)
(15.0135 8.65232 -2.80116e-19)
(13.5929 8.59115 -2.31241e-19)
(12.1465 8.19707 -3.8094e-20)
(10.916 7.65338 2.99999e-19)
(10.018 7.00662 -2.18598e-19)
(9.32662 6.37774 -2.27328e-19)
(14.893 4.84886 4.46337e-20)
(14.8997 4.86688 1.38539e-21)
(14.9242 4.87809 -6.64902e-20)
(14.9358 4.90153 -1.55355e-19)
(14.9544 4.91194 -6.36116e-19)
(14.9887 4.91137 -9.05812e-19)
(15.0563 4.8971 -1.34345e-21)
(15.1714 4.88106 1.75774e-21)
(15.3424 4.8869 -9.33332e-19)
(15.5677 4.93842 -7.51413e-19)
(15.8484 5.06472 2.27837e-18)
(16.1762 5.2916 -8.11511e-19)
(16.5347 5.65348 -4.89715e-19)
(16.8707 6.18694 2.63646e-19)
(17.0661 6.89793 2.59037e-21)
(16.9492 7.7375 1.16692e-19)
(16.3348 8.60229 -3.1291e-19)
(15.1381 9.24681 5.72491e-19)
(13.4845 9.42114 1.64277e-19)
(11.7261 9.21664 0)
(10.151 8.78476 -4.04982e-19)
(8.95046 8.2228 4.21215e-19)
(8.0035 7.66749 -5.44562e-19)
(14.8934 4.84769 -4.46908e-20)
(14.9 4.8662 1.30014e-19)
(14.9246 4.87736 -7.60975e-20)
(14.9362 4.90115 1.67324e-19)
(14.9545 4.91167 3.2169e-19)
(14.9885 4.91059 9.06579e-19)
(15.0559 4.89453 1.07346e-18)
(15.1716 4.87494 0)
(15.3448 4.87531 9.61201e-19)
(15.575 4.91943 -7.78029e-19)
(15.8652 5.0366 -1.15186e-18)
(16.2107 5.25371 8.10854e-19)
(16.6001 5.60941 0)
(16.9872 6.15029 -2.511e-19)
(17.2542 6.89964 6.19729e-20)
(17.2261 7.86161 7.27796e-20)
(16.6662 8.9759 -1.2396e-19)
(15.3755 9.88215 -2.15924e-19)
(13.4412 10.2111 8.4275e-19)
(11.309 10.0477 -5.69637e-19)
(9.41591 9.6273 0)
(7.98266 9.11255 1.11304e-18)
(6.85306 8.63439 -1.43002e-18)
(14.8937 4.84649 0)
(14.9003 4.8655 -4.32357e-20)
(14.925 4.87661 7.61439e-20)
(14.9366 4.90074 -1.67632e-19)
(14.9547 4.9114 -1.50461e-22)
(14.9883 4.90984 3.51668e-22)
(15.0554 4.89201 -5.30191e-19)
(15.1716 4.86886 0)
(15.3468 4.86364 -9.62132e-19)
(15.5818 4.90005 -1.36973e-20)
(15.8813 5.00742 0)
(16.2445 5.21335 -4.31905e-19)
(16.6654 5.55963 0)
(17.1076 6.10053 1.25038e-20)
(17.4619 6.8815 -1.87226e-19)
(17.5633 7.98122 -6.69677e-20)
(17.0932 9.35132 -1.28679e-19)
(15.6701 10.4343 5.86084e-19)
(13.359 10.75 -3.96531e-19)
(10.8237 10.4853 -7.23714e-19)
(8.689 10.0059 1.14378e-18)
(7.0975 9.49458 -9.30565e-19)
(5.86955 9.03903 2.97436e-18)
(14.8941 4.84525 -5.83263e-20)
(14.9006 4.86476 -4.36158e-20)
(14.9254 4.87584 -4.25868e-20)
(14.937 4.90033 -1.20809e-22)
(14.9548 4.91114 3.90218e-22)
(14.988 4.90913 -1.02139e-21)
(15.0548 4.88955 -5.44763e-19)
(15.1713 4.86281 4.44083e-21)
(15.3485 4.85189 -3.39867e-21)
(15.588 4.88031 -1.40939e-20)
(15.8964 4.97721 -6.16067e-19)
(16.2772 5.17049 4.17757e-19)
(16.73 5.50354 1.76139e-20)
(17.231 6.03601 -1.43086e-20)
(17.6906 6.84281 1.09659e-19)
(17.9607 8.08613 0)
(17.5845 9.66813 -1.50484e-19)
(15.9361 10.7847 -4.14561e-19)
(13.1506 10.9301 4.70883e-19)
(10.2442 10.5096 -1.37962e-18)
(7.93878 9.98433 6.97309e-19)
(6.23229 9.47527 -1.48917e-19)
(4.94 9.03416 -1.64354e-18)
(14.8944 4.84397 1.19756e-19)
(14.9009 4.864 4.36593e-20)
(14.9258 4.87505 -2.20779e-21)
(14.9374 4.8999 0)
(14.9549 4.91088 0)
(14.9877 4.90845 -4.79915e-19)
(15.0541 4.88715 -5.58814e-19)
(15.1709 4.8568 0)
(15.3498 4.84008 -4.48583e-21)
(15.5936 4.86023 8.13303e-19)
(15.9106 4.94598 6.26752e-19)
(16.3086 5.12508 -1.34148e-20)
(16.7931 5.44062 -1.77368e-20)
(17.3562 5.95592 3.88208e-20)
(17.9399 6.78223 -2.04962e-20)
(18.4072 8.15547 0)
(18.0922 9.86155 1.57391e-19)
(16.102 10.8685 -9.83555e-20)
(12.7812 10.7691 1.19274e-18)
(9.57811 10.2086 -6.41134e-19)
(7.18129 9.67907 -1.02659e-18)
(5.39945 9.18787 1.50911e-18)
(4.05099 8.7745 0)
(14.8947 4.84266 -1.25081e-19)
(14.9011 4.86322 -1.04078e-24)
(14.9262 4.87424 4.49088e-20)
(14.9378 4.89946 0)
(14.955 4.91063 0)
(14.9874 4.90781 -5.90128e-21)
(15.0533 4.8848 1.12522e-18)
(15.1703 4.85083 0)
(15.3507 4.82821 5.11599e-19)
(15.5985 4.83983 0)
(15.9237 4.9138 0)
(16.3384 5.07714 -1.50906e-20)
(16.8537 5.3706 1.91143e-20)
(17.4822 5.86017 1.76748e-19)
(18.2067 6.69641 2.3866e-20)
(18.8816 8.16216 2.52141e-20)
(18.5658 9.88225 -1.55055e-19)
(16.1229 10.6713 0)
(12.2619 10.3202 -4.01517e-19)
(8.87272 9.68824 0)
(6.45208 9.18878 -2.17714e-19)
(4.6199 8.72993 -2.94082e-19)
(3.23103 8.34718 0)
(14.895 4.84132 9.63546e-20)
(14.9014 4.86241 2.19878e-20)
(14.9266 4.87341 0)
(14.9382 4.899 9.51023e-20)
(14.9551 4.91039 -1.78323e-19)
(14.987 4.90721 4.87446e-19)
(15.0525 4.88252 -5.6729e-19)
(15.1695 4.84492 -5.79896e-19)
(15.3513 4.81631 -5.08511e-19)
(15.6028 4.81915 -7.35884e-21)
(15.9356 4.8807 9.45336e-21)
(16.3662 5.02668 4.91586e-19)
(16.9111 5.29346 2.05624e-20)
(17.6074 5.749 -2.43891e-19)
(18.4839 6.57993 2.78421e-20)
(19.357 8.08027 0)
(18.9643 9.70742 0)
(15.9903 10.2285 0)
(11.6351 9.67889 0)
(8.17141 9.05111 1.32127e-19)
(5.7582 8.5947 1.04295e-18)
(3.88271 8.16279 -9.09263e-19)
(2.47348 7.78738 0)
(14.8953 4.83995 -3.26718e-20)
(14.9017 4.86158 -4.38583e-20)
(14.927 4.87257 0)
(14.9386 4.89854 -9.52809e-20)
(14.9552 4.91016 3.6022e-19)
(14.9867 4.90664 0)
(15.0515 4.8803 0)
(15.1686 4.83907 5.77716e-19)
(15.3515 4.80438 0)
(15.6065 4.7982 -4.26081e-19)
(15.9464 4.84674 -3.45935e-19)
(16.3917 4.9738 -2.37709e-19)
(16.9644 5.20948 3.54538e-19)
(17.7299 5.62282 0)
(18.7614 6.42645 0)
(19.8052 7.89077 6.74784e-21)
(19.2622 9.33778 -8.42222e-21)
(15.719 9.59075 0)
(10.9528 8.92441 1.05395e-19)
(7.50603 8.37038 -1.45468e-19)
(5.09739 7.96166 -7.48374e-19)
(3.15698 7.53945 9.14092e-19)
(1.72032 7.13964 0)
(14.8955 4.83855 -6.47699e-25)
(14.9019 4.86072 4.34839e-20)
(14.9273 4.8717 -2.66213e-23)
(14.939 4.89805 -4.97618e-20)
(14.9554 4.90993 -1.81897e-19)
(14.9863 4.90611 2.54013e-19)
(15.0505 4.87815 9.36282e-22)
(15.1674 4.83329 -2.99494e-19)
(15.3513 4.79244 5.43789e-19)
(15.6094 4.77704 4.27703e-19)
(15.9558 4.81199 3.36451e-19)
(16.4147 4.91864 -2.53802e-19)
(17.013 5.11917 -3.5428e-19)
(17.8468 5.4821 -3.10167e-20)
(19.0272 6.23024 3.74258e-20)
(20.2009 7.5843 2.76292e-20)
(19.4487 8.79197 -3.4853e-20)
(15.3455 8.81306 0)
(10.2662 8.12666 -1.14912e-19)
(6.88662 7.67029 0)
(4.44849 7.30829 8.60957e-20)
(2.41487 6.89519 0)
(0.936644 6.44949 2.39192e-20)
(14.8958 4.83713 1.69432e-20)
(14.9022 4.85984 -2.16339e-20)
(14.9277 4.87082 2.7923e-20)
(14.9393 4.89756 -9.61606e-22)
(14.9555 4.90971 -2.65812e-22)
(14.9859 4.90562 4.36108e-21)
(15.0495 4.87607 -2.99086e-19)
(15.166 4.82758 -5.68178e-21)
(15.3508 4.7805 -5.35792e-19)
(15.6117 4.75568 -7.80565e-21)
(15.9637 4.77653 3.60171e-19)
(16.4348 4.8614 0)
(17.0562 5.02325 -2.5747e-20)
(17.9548 5.32741 3.18361e-20)
(19.2684 5.98769 9.70201e-20)
(20.5237 7.16108 0)
(19.5291 8.09769 0)
(14.9072 7.93544 -3.25697e-20)
(9.5879 7.29495 0)
(6.29726 6.91661 -2.27305e-19)
(3.80276 6.59082 2.72709e-19)
(1.6358 6.23034 -1.88478e-20)
(-0.0212164 5.72369 -7.13835e-19)
(14.896 4.83568 -3.40296e-20)
(14.9024 4.85894 1.04523e-20)
(14.928 4.86992 -4.24155e-20)
(14.9397 4.89705 5.13411e-20)
(14.9556 4.9095 9.55197e-20)
(14.9854 4.90517 -3.89991e-19)
(15.0483 4.87406 2.99909e-19)
(15.1645 4.82194 2.98011e-19)
(15.3498 4.76859 8.71899e-21)
(15.6132 4.73417 -6.40774e-21)
(15.9703 4.74044 -3.50359e-19)
(16.4519 4.80236 -1.39225e-19)
(17.093 4.92262 1.77299e-19)
(18.05 5.15964 1.86125e-19)
(19.4723 5.69809 -9.68124e-20)
(20.7585 6.62916 0)
(19.5112 7.2786 0)
(14.4434 6.99042 -1.12993e-19)
(8.92922 6.43377 1.34241e-19)
(5.70489 6.0913 0)
(3.15663 5.76441 2.5116e-20)