/*--------------------------------*- C++ -*----------------------------------*\
  =========                 |
  \\      /  F ield         | OpenFOAM: The Open Source CFD Toolbox
   \\    /   O peration     | Website:  https://openfoam.org
    \\  /    A nd           | Version:  7
     \\/     M anipulation  |
\*---------------------------------------------------------------------------*/
FoamFile
{
    version     2.0;
    format      ascii;
    class       volScalarField;
    location    "129";
    object      yPlus;
}
// * * * * * * * * * * * * * * * * * * * * * * * * * * * * * * * * * * * * * //

dimensions      [0 0 0 0 0 0 0];

internalField   uniform 0;

boundaryField
{
    inlet
    {
        type            calculated;
        value           uniform 0;
    }
    outlet
    {
        type            calculated;
        value           uniform 0;
    }
    suction_side
    {
        type            calculated;
        value           nonuniform List<scalar> 
56
(
12.3757
14.1999
14.7024
17.7945
19.5367
26.2474
30.1773
35.3844
32.6434
20.67
23.9275
26.6101
25.1393
27.1043
30.6255
35.4223
39.335
40.6336
42.414
44.2098
37.3719
46.0487
49.3849
47.1742
42.7489
38.5467
34.9906
32.3849
30.6537
29.591
29.3392
29.2206
27.888
28.2832
29.4556
30.7542
32.2422
33.8966
36.0479
37.3819
37.1386
37.2144
26.3668
19.3453
20.2151
22.4052
23.5153
24.2321
26.4613
31.0701
33.6723
34.4379
35.2662
36.3021
34.8814
35.0071
)
;
    }
    pressure_side
    {
        type            calculated;
        value           nonuniform List<scalar> 
56
(
57.1386
52.9356
51.4487
49.6514
48.2461
46.9084
45.34
43.8685
42.6497
41.7034
40.9518
40.3325
39.8148
39.3666
38.9817
38.6361
38.3249
38.0267
37.7287
37.413
37.0765
36.7204
36.3657
36.0375
35.7707
35.6053
35.5647
35.6211
35.7569
35.8776
35.9167
35.6536
34.9484
33.4669
31.3898
28.6673
25.2529
21.2079
16.7513
12.3465
8.53922
5.0647
4.27369
4.44022
5.275
6.02714
7.66911
8.12476
9.64517
9.94816
10.6612
10.3356
10.7997
11.2782
11.112
12.1416
)
;
    }
    trailing_edge
    {
        type            calculated;
        value           nonuniform List<scalar> 2(172.106 125.961);
    }
    defaultFaces
    {
        type            empty;
    }
}


// ************************************************************************* //
