0 	0 	0 	0
0.000502513 	0.365331 	-3.03043e-20 	0
0.00100503 	0.730662 	-6.06086e-20 	0
0.00150754 	0.914737 	-4.42859e-21 	0
0.00201005 	1.05753 	5.02345e-20 	0
0.00251256 	1.15628 	4.23234e-20 	0
0.00301508 	1.2287 	1.34691e-20 	0
0.00351759 	1.29025 	9.9069e-21 	0
0.0040201 	1.33686 	1.96166e-20 	0
0.00452261 	1.38062 	4.13908e-20 	0
0.00502513 	1.41477 	5.33029e-20 	0
0.00552764 	1.44786 	7.24527e-20 	0
0.00603015 	1.47518 	1.04622e-19 	0
0.00653266 	1.50157 	1.39993e-19 	0
0.00703518 	1.5242 	2.13858e-19 	0
0.00753769 	1.54571 	2.65892e-19 	0
0.0080402 	1.56521 	3.20183e-19 	0
0.00854271 	1.58321 	3.39647e-19 	0
0.00904523 	1.60016 	3.26709e-19 	0
0.00954774 	1.61564 	3.30337e-19 	0
0.0100503 	1.6304 	2.95823e-19 	0
0.0105528 	1.64405 	3.29228e-19 	0
0.0110553 	1.65704 	3.01939e-19 	0
0.0115578 	1.66918 	3.28938e-19 	0
0.0120603 	1.68072 	3.06813e-19 	0
0.0125628 	1.69159 	3.40591e-19 	0
0.0130653 	1.70192 	2.99002e-19 	0
0.0135678 	1.71165 	2.25433e-19 	0
0.0140704 	1.72094 	2.16945e-19 	0
0.0145729 	1.72971 	1.58478e-19 	0
0.0150754 	1.73815 	1.85993e-19 	0
0.0155779 	1.74611 	1.67713e-19 	0
0.0160804 	1.75381 	2.21493e-19 	0
0.0165829 	1.76105 	1.06329e-19 	0
0.0170854 	1.76809 	-6.0124e-20 	0
0.0175879 	1.7747 	-7.55575e-20 	0
0.0180905 	1.78111 	-2.51031e-19 	0
0.018593 	1.78723 	-2.32246e-19 	0
0.0190955 	1.79306 	-1.30199e-19 	0
0.019598 	1.79873 	-1.92343e-19 	0
0.0201005 	1.80405 	1.51499e-20 	0
0.020603 	1.80931 	-1.31313e-19 	0
0.0211055 	1.8142 	1.29695e-19 	0
0.021608 	1.81906 	-5.02707e-20 	0
0.0221106 	1.82358 	1.20923e-19 	0
0.0226131 	1.82805 	1.1547e-20 	0
0.0231156 	1.83227 	7.86025e-20 	0
0.0236181 	1.83638 	2.99085e-20 	0
0.0241206 	1.84033 	1.37613e-21 	0
0.0246231 	1.84412 	5.6453e-20 	0
0.0251256 	1.84783 	-6.74402e-20 	0
0.0256281 	1.85132 	8.84531e-20 	0
0.0261307 	1.8548 	-1.2158e-19 	0
0.0266332 	1.85803 	9.24919e-20 	0
0.0271357 	1.86126 	-8.76306e-20 	0
0.0276382 	1.8643 	4.32144e-20 	0
0.0281407 	1.86729 	-2.58637e-20 	0
0.0286432 	1.87015 	3.08296e-21 	0
0.0291457 	1.87293 	-1.36475e-20 	0
0.0296482 	1.87563 	-6.72868e-20 	0
0.0301508 	1.87821 	-3.61828e-20 	0
0.0306533 	1.88075 	-1.59116e-19 	0
0.0311558 	1.88316 	-3.76307e-20 	0
0.0316583 	1.88555 	-1.90103e-19 	0
0.0321608 	1.88781 	-4.24927e-20 	0
0.0326633 	1.89005 	-1.97256e-19 	0
0.0331658 	1.89218 	-7.77175e-20 	0
0.0336683 	1.89428 	-1.65594e-19 	0
0.0341709 	1.89629 	-1.18534e-19 	0
0.0346734 	1.89825 	-8.31612e-20 	0
0.0351759 	1.90016 	-1.24482e-19 	0
0.0356784 	1.902 	1.05191e-20 	0
0.0361809 	1.90379 	-7.2261e-20 	0
0.0366834 	1.90553 	1.0109e-19 	0
0.0371859 	1.90722 	-7.43831e-21 	0
0.0376884 	1.90887 	9.82565e-20 	0
0.038191 	1.91046 	6.51689e-20 	0
0.0386935 	1.91202 	9.89171e-20 	0
0.039196 	1.91353 	1.40933e-19 	0
0.0396985 	1.91499 	1.50715e-19 	0
0.040201 	1.91642 	2.15551e-19 	0
0.0407035 	1.9178 	1.66364e-19 	0
0.041206 	1.91916 	5.28713e-20 	0
0.0417085 	1.92046 	-1.99329e-20 	0
0.0422111 	1.92175 	-6.62287e-20 	0
0.0427136 	1.92299 	-3.71428e-20 	0
0.0432161 	1.92421 	-9.31817e-21 	0
0.0437186 	1.92538 	8.93334e-20 	0
0.0442211 	1.92653 	1.20551e-19 	0
0.0447236 	1.92765 	9.8255e-20 	0
0.0452261 	1.92873 	1.04382e-19 	0
0.0457286 	1.9298 	9.43174e-20 	0
0.0462312 	1.93083 	1.12383e-19 	0
0.0467337 	1.93184 	1.19128e-19 	0
0.0472362 	1.93281 	1.34213e-19 	0
0.0477387 	1.93378 	1.53062e-19 	0
0.0482412 	1.9347 	1.56418e-19 	0
0.0487437 	1.93562 	1.68233e-19 	0
0.0492462 	1.9365 	1.76289e-19 	0
0.0497487 	1.93736 	1.85414e-19 	0
0.0502513 	1.93821 	1.94242e-19 	0
0.0507538 	1.93903 	2.02772e-19 	0
0.0512563 	1.93983 	2.11078e-19 	0
0.0517588 	1.94061 	2.18697e-19 	0
0.0522613 	1.94138 	2.20758e-19 	0
0.0527638 	1.94211 	2.32925e-19 	0
0.0532663 	1.94284 	2.37631e-19 	0
0.0537688 	1.94354 	2.46827e-19 	0
0.0542714 	1.94424 	2.55291e-19 	0
0.0547739 	1.9449 	2.61108e-19 	0
0.0552764 	1.94556 	2.70001e-19 	0
0.0557789 	1.9462 	2.74372e-19 	0
0.0562814 	1.94682 	2.81033e-19 	0
0.0567839 	1.94743 	2.7247e-19 	0
0.0572864 	1.94802 	2.87336e-19 	0
0.0577889 	1.9486 	2.34288e-19 	0
0.0582915 	1.94916 	2.89252e-19 	0
0.058794 	1.94971 	2.54408e-19 	0
0.0592965 	1.95025 	2.87638e-19 	0
0.059799 	1.95077 	2.78014e-19 	0
0.0603015 	1.95128 	2.83937e-19 	0
0.060804 	1.95177 	2.78331e-19 	0
0.0613065 	1.95226 	2.57083e-19 	0
0.061809 	1.95273 	2.74601e-19 	0
0.0623116 	1.95319 	1.98441e-19 	0
0.0628141 	1.95363 	2.73029e-19 	0
0.0633166 	1.95407 	1.51324e-19 	0
0.0638191 	1.9545 	2.72653e-19 	0
0.0643216 	1.95491 	1.81372e-19 	0
0.0648241 	1.95531 	2.73276e-19 	0
0.0653266 	1.9557 	2.16106e-19 	0
0.0658291 	1.95609 	2.35701e-19 	0
0.0663317 	1.95646 	2.57779e-19 	0
0.0668342 	1.95682 	1.69373e-19 	0
0.0673367 	1.95717 	2.75946e-19 	0
0.0678392 	1.95751 	9.91259e-20 	0
0.0683417 	1.95785 	2.80892e-19 	0
0.0688442 	1.95817 	7.18226e-20 	0
0.0693467 	1.95849 	2.86949e-19 	0
0.0698492 	1.95879 	1.15205e-19 	0
0.0703518 	1.95909 	2.32718e-19 	0
0.0708543 	1.95938 	1.667e-19 	0
0.0713568 	1.95965 	1.57487e-19 	0
0.0718593 	1.95993 	2.24892e-19 	0
0.0723618 	1.96019 	8.07094e-20 	0
0.0728643 	1.96045 	2.86919e-19 	0
0.0733668 	1.96069 	5.20412e-21 	0
0.0738693 	1.96093 	3.21168e-19 	0
0.0743719 	1.96116 	2.57148e-20 	0
0.0748744 	1.96139 	2.5136e-19 	0
0.0753769 	1.9616 	9.06594e-20 	0
0.0758794 	1.96182 	1.79227e-19 	0
0.0763819 	1.96202 	1.54668e-19 	0
0.0768844 	1.96221 	1.09751e-19 	0
0.0773869 	1.9624 	2.15971e-19 	0
0.0778894 	1.96258 	4.39292e-20 	0
0.078392 	1.96276 	2.63458e-19 	0
0.0788945 	1.96293 	-1.76225e-20 	0
0.079397 	1.96309 	2.42691e-19 	0
0.0798995 	1.96324 	3.86812e-20 	0
0.080402 	1.96339 	2.03709e-19 	0
0.0809045 	1.96353 	9.69379e-20 	0
0.081407 	1.96367 	1.40173e-19 	0
0.0819095 	1.9638 	1.49995e-19 	0
0.0824121 	1.96392 	8.13237e-20 	0
0.0829146 	1.96404 	1.77631e-19 	0
0.0834171 	1.96415 	2.76397e-20 	0
0.0839196 	1.96426 	1.58684e-19 	0
0.0844221 	1.96436 	1.06941e-22 	0
0.0849246 	1.96445 	1.40364e-19 	0
0.0854271 	1.96454 	4.85425e-20 	0
0.0859296 	1.96463 	1.22771e-19 	0
0.0864322 	1.9647 	9.06679e-20 	0
0.0869347 	1.96478 	9.73203e-20 	0
0.0874372 	1.96484 	1.02252e-19 	0
0.0879397 	1.9649 	5.21513e-20 	0
0.0884422 	1.96496 	8.66716e-20 	0
0.0889447 	1.96501 	1.33502e-20 	0
0.0894472 	1.96505 	7.21356e-20 	0
0.0899497 	1.96509 	1.23786e-20 	0
0.0904523 	1.96513 	5.87191e-20 	0
0.0909548 	1.96516 	4.2661e-20 	0
0.0914573 	1.96518 	4.65161e-20 	0
0.0919598 	1.9652 	4.39061e-20 	0
0.0924623 	1.96521 	3.55983e-20 	0
0.0929648 	1.96522 	3.33171e-20 	0
0.0934673 	1.96522 	2.3887e-20 	0
0.0939698 	1.96522 	2.40989e-20 	0
0.0944724 	1.96522 	2.91314e-21 	0
0.0949749 	1.9652 	1.63079e-20 	0
0.0954774 	1.96519 	1.11997e-20 	0
0.0959799 	1.96516 	9.99443e-21 	0
0.0964824 	1.96514 	8.77499e-21 	0
0.0969849 	1.96511 	5.1916e-21 	0
0.0974874 	1.96507 	4.34268e-21 	0
0.0979899 	1.96503 	1.92049e-21 	0
0.0984925 	1.96498 	1.44856e-21 	0
0.098995 	1.96493 	1.86137e-22 	0
0.0994975 	1.96491 	9.30683e-23 	0
0.1 	1.96488 	0 	0
