/*--------------------------------*- C++ -*----------------------------------*\
  =========                 |
  \\      /  F ield         | OpenFOAM: The Open Source CFD Toolbox
   \\    /   O peration     | Website:  https://openfoam.org
    \\  /    A nd           | Version:  7
     \\/     M anipulation  |
\*---------------------------------------------------------------------------*/
FoamFile
{
    version     2.0;
    format      ascii;
    class       volScalarField;
    location    "50";
    object      k;
}
// * * * * * * * * * * * * * * * * * * * * * * * * * * * * * * * * * * * * * //

dimensions      [0 2 -2 0 0 0 0];

internalField   nonuniform List<scalar> 
12842
(
0.00567176
0.00507687
0.00467013
0.00445329
0.00428209
0.00417574
0.0040729
0.00402353
0.00399121
0.00394741
0.00395288
0.00398682
0.00404778
0.00414632
0.00430852
0.00439785
0.00449764
0.00462737
0.00473016
0.00479767
0.00491039
0.00500078
0.00510192
0.00561243
0.00502437
0.00465181
0.00442972
0.00426375
0.004168
0.00406292
0.00402014
0.00398581
0.00395321
0.00397014
0.00403632
0.00409969
0.00421892
0.00437475
0.0044591
0.00460744
0.00468993
0.00476678
0.00483453
0.00496311
0.0050353
0.00511355
0.00557574
0.00492597
0.00456326
0.00435598
0.00421179
0.00413415
0.00404218
0.00401077
0.00397409
0.00396865
0.00398575
0.00405416
0.00417309
0.00432475
0.00451069
0.00459495
0.00470789
0.00481086
0.00489901
0.00494459
0.00502181
0.00513207
0.00524059
0.00549466
0.00486169
0.00451736
0.00430926
0.00417565
0.00410135
0.004025
0.00399879
0.00396193
0.00398711
0.00404522
0.00413514
0.0042505
0.00441727
0.00455329
0.00471273
0.00479603
0.00487651
0.0049471
0.00505119
0.00513768
0.00521614
0.0053986
0.00544487
0.00475778
0.00444702
0.00424703
0.00413386
0.0040652
0.00400455
0.00398509
0.00394231
0.0039797
0.00405264
0.00418638
0.00434558
0.00452747
0.00466221
0.0047902
0.00491941
0.00499889
0.00505993
0.00520574
0.00531668
0.00540164
0.00550466
0.00535083
0.00468629
0.00438887
0.00420866
0.00410161
0.00403486
0.00399089
0.00397151
0.00395368
0.00401214
0.00411644
0.0042918
0.00447964
0.0046242
0.00474548
0.00488252
0.00497598
0.00506144
0.00515798
0.00524567
0.00542646
0.0056882
0.0058362
0.0052992
0.00460475
0.0043282
0.00415263
0.00406669
0.00400214
0.00397158
0.0039663
0.00394845
0.00404039
0.00417842
0.00437287
0.00457545
0.00474717
0.00487061
0.00501189
0.00507485
0.00520374
0.00526314
0.00542821
0.00558751
0.00585269
0.00613489
0.00519967
0.00454231
0.00428317
0.0041287
0.00404193
0.00398233
0.00395866
0.00395174
0.00397128
0.00407959
0.00424961
0.00448759
0.00468887
0.0048196
0.00494618
0.00510826
0.00520466
0.00529001
0.00549695
0.00560214
0.00582002
0.00609456
0.00641015
0.00514715
0.00447322
0.00422965
0.00408462
0.00401312
0.00395527
0.00394585
0.00395056
0.00399636
0.00413598
0.00435951
0.00463998
0.00484057
0.00496146
0.00507785
0.00521268
0.00534213
0.00548668
0.00560971
0.005828
0.00612958
0.00646626
0.00677722
0.00503817
0.00441759
0.00419678
0.00406699
0.00399861
0.00394421
0.00393854
0.0039495
0.00402823
0.0041923
0.00447801
0.00475985
0.00494808
0.00506657
0.00519517
0.00535993
0.00548533
0.00567352
0.00585498
0.00611373
0.00637003
0.00668068
0.00704375
0.00496738
0.00435446
0.00414561
0.00403295
0.00397182
0.00392603
0.00392977
0.00394013
0.00404407
0.0042468
0.00458041
0.00486005
0.00503866
0.00517504
0.00533436
0.00550282
0.00567481
0.00589092
0.00610632
0.00634739
0.00668408
0.0070687
0.00739483
0.00487091
0.00430904
0.00411946
0.00401762
0.00395956
0.00391733
0.00392521
0.00395098
0.00407886
0.00430681
0.00468614
0.00495367
0.00513777
0.00529185
0.00546296
0.00566441
0.00585851
0.00611708
0.00631921
0.00673368
0.00702093
0.00735363
0.00766475
0.00479006
0.0042573
0.00407584
0.00398827
0.00393628
0.00390291
0.00391773
0.00395464
0.00409775
0.00437706
0.00479485
0.00504855
0.00522293
0.00540122
0.00562986
0.00587517
0.00615159
0.00638447
0.00673012
0.00705241
0.00726869
0.00763812
0.00801863
0.00471631
0.00422019
0.00405335
0.00397462
0.0039249
0.00389641
0.00391443
0.00397144
0.0041424
0.00445389
0.00489486
0.00514662
0.00534454
0.00555867
0.00579572
0.00606262
0.0063602
0.0067185
0.0069734
0.00731882
0.00767232
0.00807008
0.0084448
0.00465416
0.00417678
0.00401799
0.00394932
0.00390348
0.00388482
0.00390921
0.00397639
0.00417114
0.00453986
0.00500721
0.00525302
0.00545133
0.00569565
0.00599973
0.00632571
0.00669667
0.00694645
0.00730916
0.00781903
0.00808999
0.00842263
0.00876675
0.00459574
0.00414663
0.00399994
0.00393578
0.00389324
0.00387944
0.00390605
0.00400027
0.00423258
0.00463717
0.0051156
0.00537251
0.00560787
0.00590158
0.00621372
0.00655452
0.00696098
0.00740773
0.00781511
0.0081193
0.008337
0.00869423
0.0091229
0.00455004
0.00411129
0.00397201
0.00391672
0.00387434
0.00386953
0.00390016
0.00401303
0.00427723
0.00473905
0.00523944
0.00550791
0.00576141
0.00609338
0.00647364
0.00690839
0.00733208
0.00776532
0.00807247
0.00847506
0.00882068
0.00931614
0.00984666
0.00450384
0.00408066
0.00395647
0.00389973
0.00386563
0.00386476
0.00390568
0.00405574
0.00435848
0.004855
0.00536701
0.0056623
0.00595141
0.00633768
0.0067216
0.00711998
0.00771272
0.00807981
0.00852583
0.00910672
0.00945037
0.00985285
0.0102906
0.00446891
0.00405466
0.00393723
0.00388662
0.00384896
0.00385556
0.003903
0.00408314
0.00442375
0.00497835
0.0055152
0.00584149
0.00615921
0.00657382
0.00700913
0.00757639
0.00799404
0.00874798
0.00927879
0.00966195
0.00975059
0.0102179
0.0108345
0.00443233
0.00402358
0.0039206
0.00387176
0.00384157
0.00385152
0.00392815
0.00416163
0.00452927
0.00511001
0.00566729
0.00603372
0.0063804
0.00685276
0.00731761
0.00785645
0.00869549
0.00943515
0.00959853
0.0101033
0.0105384
0.0113822
0.0124286
0.00440432
0.00400047
0.00390906
0.00385495
0.00382673
0.00384309
0.00394986
0.00421679
0.00461155
0.00525243
0.00584455
0.00624363
0.00662426
0.00711857
0.00762067
0.00834579
0.00923564
0.00988802
0.010487
0.011493
0.0119894
0.0128661
0.013741
0.00437517
0.00397179
0.00389342
0.00384667
0.00382312
0.00385508
0.00402287
0.00432981
0.00474351
0.00540815
0.00601333
0.0064837
0.00688403
0.007438
0.00805208
0.00902145
0.00966844
0.0111912
0.0121891
0.0129177
0.0132285
0.0139089
0.0151461
0.00434949
0.00394998
0.00387977
0.00383172
0.00381144
0.00388186
0.0040905
0.00440577
0.00483694
0.0055442
0.00620677
0.00668643
0.00711285
0.00766206
0.00831169
0.00940379
0.011424
0.013164
0.0134885
0.0140812
0.0144249
0.0157476
0.0184425
0.00433048
0.00392661
0.00387268
0.00381896
0.00381757
0.00394604
0.00421039
0.00454065
0.00500492
0.00575926
0.00643937
0.00697108
0.00741527
0.00809485
0.0091531
0.0111377
0.0138036
0.0147688
0.0155913
0.016893
0.0184355
0.0220193
0.0247823
0.00431024
0.00390908
0.0038651
0.00381908
0.00384824
0.00402928
0.0043096
0.00464795
0.00512713
0.00590593
0.00659839
0.00713512
0.00760088
0.0083076
0.00975422
0.0131351
0.015418
0.0174703
0.021389
0.0235586
0.027551
0.0296374
0.03237
0.00429482
0.00389311
0.00385339
0.003841
0.00391589
0.004124
0.00441593
0.0047577
0.00524616
0.00604366
0.00676376
0.00736702
0.00788264
0.00883893
0.0113555
0.0154153
0.021395
0.0261858
0.03021
0.0323836
0.0336532
0.0367097
0.0395929
0.00427471
0.00388027
0.00385841
0.00388094
0.00400706
0.00422879
0.00452167
0.00486749
0.00536111
0.0061694
0.00690081
0.00750259
0.00803299
0.00918825
0.0146233
0.0225202
0.031596
0.0360457
0.0394517
0.0376529
0.0383274
0.0407312
0.0427257
0.00425923
0.00386497
0.00387443
0.00394492
0.00410894
0.00434007
0.00463085
0.00497578
0.00547252
0.00629118
0.007048
0.00770614
0.0083671
0.0108004
0.0192829
0.0345262
0.0423351
0.0456542
0.0422127
0.0391303
0.0399573
0.041755
0.0435627
0.00423485
0.003854
0.00393903
0.00401388
0.00421349
0.0044518
0.00473796
0.00508082
0.00557654
0.00639761
0.00715814
0.00781618
0.00861202
0.0120087
0.0290269
0.0479552
0.0524755
0.0474215
0.0438028
0.0405306
0.0401673
0.0421437
0.0437905
0.00422347
0.00386202
0.00400256
0.00410152
0.00432495
0.00456894
0.00484427
0.00518143
0.0056749
0.00650108
0.00728381
0.00803329
0.0095638
0.0202167
0.0509979
0.0620387
0.0553038
0.0489045
0.0449452
0.0408014
0.0399098
0.0414428
0.0430247
0.00420203
0.00390084
0.0041004
0.0041943
0.00443701
0.00467951
0.00494657
0.00527616
0.00576374
0.00658639
0.00736694
0.00820178
0.0106601
0.0283354
0.0620283
0.06741
0.0554793
0.0497882
0.0452468
0.0393433
0.0380842
0.0386072
0.0401761
0.0041921
0.00395877
0.004188
0.00429394
0.00454472
0.00479233
0.00504491
0.00536424
0.0058459
0.00667157
0.00747963
0.00861884
0.0146144
0.0483498
0.0817648
0.0705147
0.055833
0.0478394
0.0427063
0.0364375
0.0353704
0.0356814
0.0359608
0.00417319
0.00403128
0.00429218
0.00439898
0.00465868
0.00489602
0.00513629
0.00544482
0.0059182
0.00673828
0.00758389
0.00916974
0.018641
0.0650287
0.0928462
0.0698119
0.0537861
0.0456378
0.0403683
0.0339073
0.0327626
0.0327207
0.0321971
0.00417234
0.00411386
0.0043877
0.00450075
0.00475885
0.00499487
0.00522285
0.00551753
0.00598313
0.00680784
0.00768917
0.00980061
0.0265209
0.0880562
0.111778
0.0694822
0.0525539
0.0445081
0.0389704
0.0324294
0.0312359
0.0308645
0.0294973
0.00419736
0.00420449
0.00449163
0.00460672
0.00486245
0.00508759
0.0053002
0.00558253
0.00604097
0.0068632
0.00785914
0.0117976
0.0401606
0.109046
0.12297
0.0700042
0.0522496
0.0436948
0.0383573
0.0317661
0.0305874
0.0296958
0.027814
0.00424235
0.00430268
0.00457948
0.00470469
0.00495389
0.00516675
0.00537258
0.00563969
0.00608994
0.00692186
0.00804388
0.0130428
0.0464982
0.120999
0.145761
0.0724121
0.0514224
0.0418738
0.0379177
0.031378
0.0301796
0.0291501
0.0269488
0.00430085
0.00440135
0.00467792
0.00480212
0.00504131
0.0052452
0.00543586
0.00569011
0.00613578
0.00697262
0.00827234
0.0157035
0.0641222
0.146323
0.150419
0.0738741
0.0519865
0.0388643
0.0364105
0.0312705
0.0299292
0.0287119
0.0265614
0.00436633
0.00450314
0.00475579
0.00489403
0.00511997
0.00530656
0.00549379
0.00573391
0.00617349
0.00702068
0.00859303
0.01862
0.0765717
0.158011
0.154295
0.076687
0.0516032
0.0368371
0.0349264
0.0311568
0.0296657
0.0278171
0.0262749
0.00443684
0.00460118
0.00484058
0.00497827
0.00519252
0.00536783
0.00554477
0.00577214
0.00620676
0.00706325
0.00886943
0.0216148
0.0946885
0.157885
0.14051
0.0784572
0.0519758
0.0339967
0.0330388
0.0308808
0.0291121
0.0272524
0.0260246
0.00451384
0.00469851
0.00491529
0.00505871
0.0052567
0.00541702
0.00558976
0.00580589
0.0062392
0.00712276
0.00957103
0.0270794
0.0999449
0.161344
0.128216
0.0787683
0.0519439
0.0319435
0.0315193
0.0292936
0.027354
0.0269185
0.0258432
0.0045902
0.00478897
0.00497837
0.00513088
0.00531493
0.00546302
0.00563032
0.0058351
0.00626416
0.00716978
0.0101631
0.0302118
0.0999998
0.14258
0.10957
0.0712241
0.0475883
0.0294035
0.0291668
0.0278678
0.0260432
0.0255042
0.0249003
0.00467016
0.00487737
0.00505421
0.00519849
0.00536912
0.00550274
0.00566541
0.00586167
0.00629094
0.00719467
0.0108627
0.0372962
0.11558
0.106426
0.0872691
0.0588007
0.0405067
0.0266733
0.0262425
0.0259575
0.0254753
0.0242802
0.0239907
0.00474937
0.00495746
0.00510483
0.00525646
0.0054126
0.00553792
0.00569642
0.00588495
0.00631465
0.00738381
0.0115195
0.0382084
0.114392
0.083531
0.0706943
0.0480275
0.0331064
0.0233502
0.0229762
0.0231841
0.024291
0.0232884
0.0233498
0.00482322
0.00503208
0.00516414
0.00531065
0.00545217
0.00557306
0.00572337
0.00590611
0.00633723
0.00745339
0.0127622
0.0348425
0.093472
0.0599664
0.0532046
0.0380049
0.0269575
0.0208539
0.0203475
0.0204966
0.021566
0.0213721
0.0218358
0.00489831
0.00510163
0.00521082
0.00535603
0.00548877
0.00559299
0.00574714
0.00592579
0.00636381
0.00748166
0.0126905
0.0302895
0.0629064
0.0429451
0.0399284
0.0304024
0.0221804
0.0184516
0.017836
0.0179303
0.0186149
0.0188602
0.0195681
0.00496352
0.0051609
0.00526021
0.00539658
0.00551476
0.00562666
0.00576597
0.00594278
0.00638703
0.00767212
0.0127748
0.0257586
0.0421121
0.0301427
0.0307354
0.024452
0.018823
0.0168982
0.0160319
0.0160059
0.0162804
0.0165197
0.0172327
0.00502555
0.00521811
0.00528766
0.00542816
0.00553395
0.00564096
0.00578299
0.00595934
0.00641494
0.00774774
0.0127517
0.0224402
0.0334463
0.0223275
0.024024
0.0201808
0.0165278
0.0155683
0.014568
0.0144942
0.0146663
0.0148279
0.015401
0.00508262
0.00526319
0.0053227
0.0054565
0.00555164
0.00565159
0.0057959
0.00597402
0.00643625
0.00778729
0.0128019
0.0191622
0.0195268
0.0166012
0.018413
0.0169703
0.0147845
0.0143496
0.0134071
0.0133122
0.0133077
0.0134313
0.0139861
0.00512768
0.00530827
0.00534305
0.00547848
0.00556684
0.00566321
0.00580726
0.00598593
0.00645003
0.00773246
0.0118205
0.017037
0.0136685
0.0139641
0.0144888
0.0143248
0.0134134
0.0130068
0.012386
0.0123102
0.0123882
0.0124679
0.0129605
0.00518026
0.00534752
0.00537662
0.00550372
0.00558795
0.00567744
0.00581568
0.00599868
0.00651359
0.00776084
0.011836
0.0153596
0.0112338
0.0125344
0.0120081
0.0122159
0.0120802
0.0119
0.0116205
0.0116251
0.0116885
0.0117429
0.0122058
0.00521912
0.0053848
0.00540335
0.00552331
0.00560582
0.00569097
0.00582274
0.00600785
0.00651883
0.00781305
0.0112341
0.0139098
0.0100162
0.0114205
0.0104788
0.0107629
0.0111723
0.0108945
0.0108506
0.0109136
0.0110442
0.0112182
0.0116095
0.00526207
0.00541917
0.00543567
0.00554695
0.00562816
0.00570564
0.0058285
0.00601347
0.00657061
0.00769615
0.0101457
0.012674
0.0106281
0.010562
0.00956644
0.00976691
0.0102412
0.0102587
0.0101256
0.0103176
0.0106588
0.0109611
0.0111842
0.00529781
0.00544876
0.00546375
0.00556694
0.00564758
0.00572041
0.00583407
0.00601923
0.00656628
0.00755689
0.00943847
0.0116752
0.012454
0.00998002
0.0089346
0.00914726
0.00967853
0.00951309
0.00968727
0.00986438
0.0101419
0.0104666
0.0107493
0.00533574
0.00548014
0.00549271
0.00558912
0.00566967
0.00573517
0.00584031
0.00602475
0.00656721
0.00744471
0.00903186
0.0109719
0.0103536
0.00943297
0.00851523
0.0086997
0.00917717
0.0093922
0.00925235
0.00950075
0.00979911
0.0101274
0.0103213
0.00537158
0.00550579
0.0055217
0.00560937
0.00568866
0.00575019
0.00584659
0.00602789
0.00656446
0.00733219
0.00871172
0.0101516
0.00942776
0.00894788
0.00824762
0.00836075
0.00874981
0.0091979
0.00896854
0.00910874
0.00947138
0.00981733
0.010015
0.00540701
0.0055341
0.00555007
0.0056302
0.00570917
0.00576541
0.00585466
0.00603208
0.00656073
0.00732432
0.00847088
0.00992214
0.00882019
0.008562
0.00799387
0.00817746
0.00846002
0.00891884
0.00875656
0.00895336
0.00931941
0.00956714
0.00968625
0.00544109
0.00555704
0.0055777
0.00564881
0.00572591
0.00577926
0.00586236
0.00603477
0.00655183
0.00728746
0.00831602
0.00988194
0.00891132
0.00820108
0.00785462
0.00806128
0.0082852
0.00865645
0.00861852
0.00876333
0.00918381
0.00939929
0.00951267
0.00547049
0.00557923
0.00560221
0.00566619
0.00574282
0.00579248
0.00587018
0.00603598
0.00654741
0.00723096
0.00819762
0.00980683
0.0089105
0.0080933
0.00775789
0.00797766
0.00815395
0.00850047
0.00851899
0.00868418
0.00908914
0.00931147
0.0093927
0.00550138
0.00560085
0.0056284
0.00568408
0.00575863
0.00580604
0.00587883
0.00603847
0.00654021
0.00719335
0.00810998
0.00980749
0.00873929
0.00807097
0.0077732
0.00792159
0.00814396
0.00834391
0.0084731
0.00865614
0.00903023
0.00928129
0.00935159
0.00552977
0.00562134
0.00565221
0.00570152
0.00577485
0.00581916
0.00588764
0.00603976
0.00653948
0.00713924
0.00802549
0.0100567
0.00892057
0.00806665
0.00773543
0.00789975
0.00812211
0.0083266
0.008465
0.00856289
0.00898686
0.00923763
0.00932617
0.00555722
0.00564143
0.0056767
0.00571959
0.00579004
0.00583248
0.00589672
0.00604115
0.00653273
0.0070949
0.00796044
0.0106174
0.00851155
0.00802835
0.00776222
0.00790945
0.00810448
0.00831362
0.0084123
0.0085715
0.00895942
0.00923827
0.00930586
0.0055848
0.00566281
0.00570057
0.00573737
0.00580545
0.00584506
0.00590586
0.00604446
0.00653013
0.00704802
0.00786667
0.0108615
0.008441
0.00801459
0.00775883
0.00789517
0.00812293
0.00830674
0.00842837
0.00856352
0.0089332
0.00924692
0.00929176
0.00561016
0.00568065
0.00572234
0.00575667
0.00582022
0.00585785
0.00591463
0.00604499
0.00652042
0.00699226
0.00777335
0.0102292
0.00829069
0.00801959
0.00776198
0.0079034
0.00812127
0.00825904
0.00843102
0.00855519
0.00891564
0.00925574
0.0093508
0.00563393
0.00570131
0.00574539
0.00577332
0.00583385
0.00586982
0.0059236
0.00604421
0.0065233
0.00693807
0.00767982
0.00974231
0.00841721
0.00801023
0.00774833
0.0078951
0.00812588
0.00827824
0.00843054
0.00852851
0.0089289
0.00925242
0.00935767
0.00565985
0.00572137
0.00576675
0.00579402
0.00584873
0.00588154
0.00593197
0.00604707
0.00651076
0.00688259
0.00757504
0.00949495
0.00826729
0.00795857
0.00774791
0.00790207
0.00812949
0.00826336
0.00841557
0.00853982
0.00893407
0.00925726
0.00937092
0.00568112
0.00573809
0.00578516
0.00580997
0.00586109
0.00589355
0.00594039
0.00604763
0.00650195
0.00688706
0.00750696
0.00915683
0.00850878
0.00795471
0.00777487
0.00792769
0.00814191
0.00827199
0.0084475
0.00859733
0.00897411
0.00926106
0.00935597
0.00570289
0.00575892
0.0058078
0.005829
0.00587465
0.00590396
0.00594862
0.00604771
0.00652338
0.0068538
0.00739841
0.00923483
0.00853637
0.00806335
0.00781854
0.00797548
0.00817904
0.00830747
0.00850855
0.00870281
0.00902976
0.00925874
0.00938088
0.00572765
0.00577788
0.00582317
0.00584532
0.00588684
0.00591524
0.00595663
0.00604638
0.00652025
0.00687224
0.00732691
0.00923508
0.0083525
0.00806428
0.00784918
0.00805707
0.008245
0.00835679
0.0086064
0.00884195
0.00912351
0.00935227
0.00960343
0.00574443
0.00579127
0.0058392
0.00586268
0.00590004
0.00592642
0.00596443
0.00604724
0.00650135
0.00686936
0.00734665
0.00922311
0.00863621
0.00804111
0.00792317
0.00810556
0.0082996
0.00846931
0.00870255
0.00893864
0.0092091
0.00951692
0.00970165
0.00576491
0.00581198
0.00585847
0.00587481
0.00590894
0.00593408
0.00597264
0.00605013
0.00652019
0.00686521
0.0073465
0.00923767
0.00841157
0.00813643
0.00798387
0.00819961
0.00843565
0.00860045
0.00884409
0.00912347
0.00933078
0.00966657
0.0102957
0.00578741
0.00582436
0.00586497
0.00589163
0.00592165
0.00594568
0.00597944
0.00605402
0.0065128
0.00684839
0.0073141
0.00890187
0.00861449
0.008156
0.00813596
0.00826223
0.008553
0.00872048
0.00899916
0.0092797
0.00965144
0.0103551
0.0106378
0.0057886
0.00583044
0.00586788
0.00590133
0.00593002
0.0059533
0.00598771
0.0060583
0.00653954
0.00684601
0.00731612
0.00891554
0.00873412
0.00810964
0.00832986
0.00841615
0.00868346
0.00892627
0.00916595
0.0094759
0.00988369
0.0107209
0.0119635
0.00579914
0.00583524
0.00587121
0.0059073
0.00593672
0.00595611
0.00599374
0.00606264
0.00652177
0.00684729
0.0072684
0.00878356
0.00888182
0.00818681
0.00853418
0.0086097
0.00882968
0.0090454
0.00939053
0.0097484
0.0104405
0.0119005
0.0142005
0.0057956
0.00583951
0.00587277
0.00590526
0.00593521
0.00595912
0.00599963
0.00606705
0.00650285
0.00685575
0.00729961
0.00887825
0.00887987
0.00835359
0.00891604
0.00879513
0.00902977
0.00932757
0.00973378
0.010223
0.0112086
0.0137466
0.0178242
0.00579574
0.00583584
0.00587161
0.00590721
0.00593838
0.00596364
0.00600744
0.00607128
0.00653172
0.00686193
0.00728871
0.0093783
0.00932324
0.00860893
0.00928681
0.00905817
0.00927304
0.00961298
0.0100704
0.0106063
0.0119531
0.0154834
0.0225977
0.00579527
0.00583796
0.00587074
0.0059083
0.00593547
0.00596568
0.00600677
0.00607524
0.00653146
0.00687761
0.0072777
0.00944925
0.00947215
0.00878595
0.00961762
0.00935024
0.00949929
0.00994168
0.0106937
0.0115839
0.0136466
0.0187276
0.0277404
0.00579841
0.00583991
0.00587223
0.00590812
0.00593535
0.00596487
0.00600774
0.0060793
0.00653055
0.00687432
0.00731922
0.00903986
0.0094969
0.00893929
0.00981515
0.00965898
0.00988688
0.0104982
0.0113826
0.0125307
0.0151788
0.021702
0.0339817
0.00579787
0.00583452
0.00587214
0.00590771
0.00593496
0.00596453
0.00600803
0.0060829
0.00656609
0.00691313
0.0072993
0.00918695
0.00955481
0.00920584
0.0100998
0.0100221
0.0103713
0.0111645
0.0122721
0.0139885
0.0176424
0.0256413
0.0410185
0.00580262
0.00583505
0.00587133
0.00590795
0.00593468
0.00596766
0.00600823
0.00608605
0.00657454
0.00691762
0.00735895
0.00916588
0.0101689
0.00955777
0.0104945
0.0106048
0.0111345
0.012161
0.0135862
0.0158679
0.0205553
0.0297791
0.0461479
0.00579564
0.00583383
0.00587096
0.00590313
0.00593443
0.00596537
0.0060101
0.00608983
0.00658362
0.00689672
0.00736142
0.00902951
0.0105597
0.0104067
0.0112735
0.0114145
0.0119695
0.0132523
0.0150709
0.0184418
0.0247669
0.0359293
0.0523445
0.00579575
0.00583422
0.00587418
0.00590285
0.00593477
0.00596614
0.00600876
0.00609272
0.00659092
0.00689402
0.00738434
0.00891079
0.0109715
0.011034
0.0124146
0.0125268
0.0133922
0.0148485
0.0172435
0.02148
0.02935
0.0420655
0.058171
0.00579417
0.00583826
0.00587485
0.00590408
0.00593528
0.00596628
0.00601021
0.00609637
0.00663666
0.0068999
0.00739512
0.00888909
0.0118316
0.0125176
0.0133994
0.0133483
0.0144977
0.0163541
0.0193599
0.0251861
0.0349196
0.0492042
0.0657475
0.00579414
0.00583128
0.00587603
0.00590176
0.00593085
0.00596369
0.00600866
0.00610143
0.0066068
0.00692037
0.00743336
0.00925317
0.013314
0.0143289
0.0156436
0.0154503
0.0164308
0.0183044
0.0218883
0.0287993
0.0401632
0.0558197
0.0725037
0.00579771
0.00583093
0.00586953
0.005902
0.00593212
0.00596268
0.00600885
0.00610547
0.00664368
0.00691977
0.00745554
0.00950026
0.014651
0.0161322
0.0174827
0.0172757
0.0182758
0.0207145
0.0251793
0.0337853
0.047396
0.0644501
0.0794878
0.00579697
0.00583238
0.00586833
0.00589999
0.00592702
0.0059583
0.00600852
0.00611644
0.00662821
0.00697694
0.00739859
0.00976977
0.0159577
0.018275
0.0197627
0.0194424
0.0203506
0.0237623
0.0289789
0.0396353
0.0544732
0.0718802
0.0878166
0.00579507
0.00583242
0.00586924
0.00589967
0.00592625
0.00596082
0.00600868
0.00612031
0.00667228
0.00698956
0.00747959
0.0113439
0.0203187
0.0202554
0.0217916
0.0220148
0.0232695
0.0261176
0.0332153
0.0451211
0.0616174
0.0791784
0.0964877
0.00579389
0.00582911
0.00586178
0.00589812
0.00592737
0.0059573
0.0060084
0.00612621
0.006634
0.006987
0.00749687
0.0143896
0.0277416
0.0238937
0.0250889
0.0253079
0.0255798
0.0296919
0.0373908
0.0511804
0.0688146
0.0882547
0.101288
0.00578222
0.00582662
0.00586052
0.00589352
0.00592136
0.00595847
0.00600845
0.00613055
0.00666484
0.00705713
0.00764
0.0178289
0.0343049
0.0282987
0.028257
0.0282402
0.0297155
0.0339623
0.0441479
0.0600674
0.0785968
0.0963
0.102599
0.0057804
0.00582012
0.00585707
0.00589171
0.00592034
0.00595377
0.00600952
0.00613433
0.00664764
0.00707265
0.00775311
0.0247486
0.0497081
0.0325336
0.0326121
0.0321851
0.0326594
0.038621
0.0502744
0.0680274
0.0888854
0.101351
0.103003
0.00577569
0.00581894
0.00585619
0.00589184
0.00592269
0.00595299
0.00600919
0.00613712
0.0066587
0.00711089
0.00794555
0.0364262
0.0672596
0.0402031
0.0377457
0.0361875
0.0358579
0.0449006
0.0591522
0.0787212
0.0965292
0.102881
0.102306
0.00577211
0.0058071
0.0058531
0.00588355
0.00591835
0.00595269
0.00600718
0.00613484
0.00667097
0.00706794
0.00823395
0.0580004
0.0943756
0.05029
0.044158
0.0416759
0.0428328
0.0522235
0.067473
0.088405
0.101078
0.102837
0.0963024
0.00578263
0.00580585
0.0058518
0.00588878
0.00591695
0.00595423
0.00600539
0.0061532
0.00668124
0.00713039
0.00854922
0.0908435
0.129424
0.0556855
0.0504606
0.0463147
0.0476837
0.0591519
0.0776362
0.096609
0.102732
0.10121
0.0865262
0.00577166
0.00580177
0.00585295
0.00588124
0.00590886
0.00595565
0.00600249
0.00615522
0.00668206
0.00711822
0.00943741
0.12979
0.145353
0.0751716
0.0576533
0.0511605
0.0565445
0.0698442
0.0869486
0.100171
0.102695
0.0955506
0.0766664
0.00577788
0.0058001
0.00585465
0.00588264
0.00590674
0.00595267
0.00600054
0.00616281
0.00670518
0.00710185
0.0106356
0.177964
0.151446
0.0896357
0.0675471
0.061815
0.0652339
0.0763704
0.0946933
0.103253
0.101428
0.0881101
0.0673473
0.00577302
0.00580113
0.00584685
0.00588302
0.00590914
0.00594814
0.00599748
0.00614973
0.00667792
0.00721949
0.0121124
0.240683
0.17434
0.11426
0.0739718
0.067149
0.0736025
0.0888713
0.102177
0.105699
0.0993254
0.0809981
0.0579533
0.00576702
0.00580576
0.00583356
0.00587713
0.00590809
0.00594375
0.00599611
0.0061427
0.00664789
0.00739425
0.0186914
0.344936
0.209588
0.122476
0.0865967
0.0794232
0.092458
0.0986033
0.106814
0.107237
0.0934833
0.0697853
0.0448724
0.00575818
0.00580403
0.00582972
0.00587317
0.00590397
0.00593862
0.00599189
0.00612868
0.00659017
0.00755939
0.0229618
0.46764
0.309218
0.144134
0.108231
0.103935
0.106181
0.113322
0.118579
0.105617
0.0892853
0.0640212
0.037126
0.0057426
0.00579838
0.00583004
0.00586912
0.00589978
0.00592728
0.00598552
0.00611233
0.00653604
0.00772643
0.0348721
0.609054
0.393586
0.181419
0.14156
0.126059
0.127807
0.129201
0.121219
0.104168
0.0859352
0.0569595
0.0282729
0.00572045
0.00578947
0.00581535
0.00585244
0.00588789
0.00592137
0.00597949
0.00610138
0.00649247
0.00796695
0.0556812
0.898775
0.408979
0.198176
0.161541
0.151543
0.146816
0.134871
0.124344
0.101479
0.0783103
0.0441807
0.0199271
0.00571257
0.00577732
0.00580565
0.00584696
0.00586964
0.00591095
0.00597164
0.00609193
0.00645849
0.00850025
0.155198
1.30625
0.398393
0.231528
0.203394
0.164825
0.146854
0.1341
0.121249
0.0984728
0.063255
0.0278409
0.0152949
0.00571292
0.0057618
0.00579337
0.00584886
0.00586342
0.00589681
0.00596397
0.00608523
0.00641108
0.00973873
0.303588
1.31523
0.385122
0.263199
0.2196
0.163675
0.148864
0.134364
0.117163
0.0800119
0.0436854
0.0190444
0.0133431
0.00569485
0.00574202
0.00578697
0.00584016
0.00586534
0.00589458
0.00595356
0.00607901
0.00657296
0.0123755
0.406026
0.974574
0.402205
0.299712
0.236662
0.168124
0.143572
0.126164
0.0997034
0.0623007
0.0304757
0.0157035
0.0124996
0.00567505
0.00571167
0.0057738
0.0058254
0.00585723
0.00588436
0.00594322
0.00607386
0.00654393
0.0169893
0.413885
0.789382
0.459792
0.338125
0.269798
0.160905
0.138981
0.115095
0.0841988
0.0469258
0.0234438
0.0148415
0.0122915
0.0056503
0.00567147
0.00575107
0.00580772
0.00584236
0.00586888
0.00592921
0.00607299
0.00704882
0.0244239
0.542034
0.751203
0.490612
0.385157
0.260531
0.159827
0.131392
0.106235
0.0715169
0.0366935
0.0218611
0.0139019
0.0119849
0.00561987
0.00565716
0.00572871
0.00578648
0.00582387
0.00585114
0.00591452
0.00606629
0.00726547
0.0317918
0.55255
0.646316
0.479209
0.372675
0.262469
0.144975
0.124029
0.0974804
0.0598233
0.0268679
0.0182916
0.0132362
0.012182
0.00560059
0.00565935
0.00570711
0.00576156
0.00579894
0.00582788
0.00589631
0.0060856
0.00772503
0.035893
0.380407
0.551655
0.491803
0.384436
0.248494
0.138439
0.114879
0.0831105
0.0371443
0.0265903
0.0161254
0.0135914
0.0116669
0.00557397
0.00563834
0.00568065
0.00573286
0.00577194
0.00580276
0.00587514
0.00606971
0.00817672
0.0400859
0.325209
0.468311
0.475793
0.365731
0.21813
0.138163
0.102142
0.0600441
0.037824
0.0235537
0.0155964
0.0134862
0.0117352
0.00553966
0.0056068
0.00564928
0.00569832
0.00573639
0.00577096
0.00585244
0.00610833
0.0087897
0.0406129
0.255978
0.418458
0.440066
0.339336
0.194329
0.117741
0.0905282
0.0624845
0.0351264
0.0182344
0.0152602
0.0139376
0.0120656
0.00549508
0.00556445
0.00561035
0.00565997
0.00570036
0.00573642
0.00582178
0.00608223
0.0093675
0.0446568
0.244266
0.359778
0.396449
0.337288
0.19626
0.137002
0.0951367
0.0611769
0.0271584
0.0180515
0.0168024
0.0131807
0.0122695
0.00544597
0.00551606
0.00556489
0.00561278
0.0056526
0.00569413
0.00579302
0.00608587
0.010125
0.0560042
0.225841
0.336803
0.368067
0.32777
0.213556
0.150403
0.0847716
0.0560502
0.0249641
0.0206423
0.0164472
0.0129811
0.012074
0.00538541
0.00545772
0.00551032
0.00556181
0.00560588
0.00564688
0.00574845
0.00604176
0.00886087
0.0555182
0.198959
0.296096
0.341097
0.305056
0.188672
0.147858
0.0805468
0.053088
0.0256891
0.0203998
0.015587
0.0124457
0.0115248
0.00532055
0.00539478
0.0054478
0.00549867
0.00554275
0.00559104
0.00570958
0.00603137
0.011648
0.059077
0.187785
0.256386
0.315248
0.281229
0.193854
0.150936
0.0873443
0.043156
0.0279623
0.0194406
0.0136199
0.0123057
0.0108852
0.00524115
0.00531962
0.00537424
0.00543188
0.00548194
0.00552738
0.00564652
0.006023
0.0125233
0.0460022
0.166278
0.238584
0.295299
0.27094
0.197515
0.160255
0.078414
0.0377432
0.0276938
0.0175548
0.0127235
0.0116219
0.0101032
0.00515883
0.00524075
0.00529329
0.00534954
0.0053988
0.00545355
0.00559113
0.00598353
0.0135295
0.0612566
0.144487
0.226161
0.254167
0.232452
0.201795
0.142942
0.0878941
0.0357464
0.0210711
0.013972
0.0112435
0.0100436
0.00863351
0.0050596
0.00514485
0.00519926
0.00526317
0.00531998
0.0053708
0.00550475
0.00590253
0.0124929
0.0591358
0.142398
0.221832
0.261711
0.256107
0.224651
0.139062
0.0634125
0.0384686
0.0153785
0.0114449
0.00923815
0.00828128
0.00745988
0.00496017
0.00504712
0.00509978
0.00515766
0.00521129
0.00527334
0.00542842
0.00588947
0.0134859
0.0623177
0.156943
0.225056
0.275534
0.274084
0.216654
0.12578
0.0618427
0.028927
0.0115678
0.00907215
0.00760586
0.00702932
0.00662355
0.00483914
0.00492607
0.00498264
0.00504727
0.00511132
0.00517044
0.00532901
0.006107
0.01662
0.0704763
0.160495
0.243566
0.262013
0.284947
0.211206
0.14024
0.057011
0.0161905
0.0088987
0.00730699
0.00663093
0.00635919
0.00619698
0.00472058
0.00480714
0.00486227
0.00491449
0.00497111
0.00504272
0.00522766
0.00671142
0.0194546
0.120891
0.162831
0.255311
0.265686
0.276392
0.199717
0.117818
0.035906
0.010407
0.00714929
0.00632696
0.00602672
0.0058947
0.00581769
0.00457266
0.00465768
0.00471669
0.00477713
0.00484859
0.00491802
0.00510039
0.00670025
0.0293159
0.116817
0.165032
0.268786
0.288789
0.260924
0.191088
0.100806
0.0171353
0.00753801
0.00613508
0.00577555
0.00563647
0.00557233
0.00553063
0.00443336
0.00451777
0.00457213
0.00461396
0.00467252
0.00476179
0.00498883
0.00725112
0.0269388
0.108968
0.180735
0.307724
0.323539
0.262959
0.171317
0.046786
0.00993324
0.00612599
0.00557984
0.00541496
0.00534748
0.00531138
0.00529364
0.00425453
0.00433744
0.00439344
0.00445067
0.00452753
0.0046081
0.00491002
0.00896079
0.0370005
0.134015
0.251211
0.38342
0.349975
0.236131
0.119124
0.0200856
0.00664498
0.00536014
0.00516031
0.00509939
0.00507385
0.00506592
0.0050622
0.00409887
0.00418041
0.00422502
0.00425509
0.00431664
0.00444244
0.00521074
0.0136361
0.0588194
0.187581
0.33711
0.437098
0.306752
0.200791
0.0479439
0.0095908
0.0053616
0.00497768
0.00489961