/*--------------------------------*- C++ -*----------------------------------*\
  =========                 |
  \\      /  F ield         | OpenFOAM: The Open Source CFD Toolbox
   \\    /   O peration     | Website:  https://openfoam.org
    \\  /    A nd           | Version:  7
     \\/     M anipulation  |
\*---------------------------------------------------------------------------*/
FoamFile
{
    version     2.0;
    format      ascii;
    class       volScalarField;
    location    "50";
    object      p;
}
// * * * * * * * * * * * * * * * * * * * * * * * * * * * * * * * * * * * * * //

dimensions      [0 2 -2 0 0 0 0];

internalField   nonuniform List<scalar> 
12842
(
1.47902
1.65
1.91871
2.43693
3.18696
4.13591
5.27831
6.60508
8.07685
9.61444
11.1
12.391
13.3534
13.9142
14.1081
14.0731
13.9974
14.0445
14.2969
14.7424
15.2935
15.8492
16.3076
1.3471
1.50848
1.75558
2.28261
3.04291
3.99859
5.14801
6.47816
7.93782
9.43022
10.8144
11.919
12.5821
12.726
12.4251
11.8907
11.3826
11.1054
11.1442
11.4643
11.949
12.4726
12.942
1.21668
1.34342
1.57929
2.11354
2.87151
3.82133
4.96799
6.29417
7.73777
9.18771
10.4841
11.4282
11.8228
11.5781
10.811
9.81054
8.90228
8.31737
8.13107
8.28332
8.64262
9.068
9.49376
1.07713
1.1665
1.39833
1.93573
2.6824
3.62162
4.76402
6.08585
7.51443
8.92707
10.1496
10.9572
11.1068
10.4867
9.26282
7.81063
6.51677
5.625
5.19225
5.13713
5.32498
5.61173
5.96286
0.927714
0.995118
1.22076
1.75519
2.4812
3.40542
4.53987
5.85173
7.25805
8.62807
9.78063
10.4709
10.3973
9.4114
7.73789
5.84641
4.17762
2.97592
2.27551
1.97841
1.96389
2.08681
2.3498
0.775245
0.84194
1.0518
1.5788
2.27459
3.17942
4.29916
5.58969
6.95881
8.27242
9.35358
9.95078
9.68817
8.3597
6.25644
3.94652
1.91405
0.392961
-0.597667
-1.16116
-1.40211
-1.46275
-1.30719
0.627693
0.712059
0.895133
1.41375
2.07174
2.95623
4.05585
5.31431
6.63129
7.8739
8.88347
9.42397
9.0253
7.39102
4.88695
2.17836
-0.216237
-2.0714
-3.37889
-4.24122
-4.74214
-5.01883
-5.00436
0.492874
0.605243
0.751294
1.26027
1.87243
2.73449
3.80507
5.01746
6.26476
7.42006
8.35876
8.89182
8.43438
6.55522
3.69417
0.613444
-2.13849
-4.34944
-6.01083
-7.21359
-8.02366
-8.55426
-8.7042
0.358468
0.516831
0.630713
1.14183
1.72377
2.58768
3.65254
4.84194
6.03941
7.11977
7.99811
8.56415
8.10495
6.02864
2.86052
-0.556194
-3.66481
-6.25872
-8.29928
-9.84315
-10.9417
-11.7434
-12.049
0.22627
0.438868
0.531435
1.05476
1.62766
2.51704
3.60168
4.79615
5.9722
7.00068
7.83049
8.43527
7.97796
5.71784
2.26366
-1.48134
-4.96118
-7.94755
-10.3581
-12.2152
-13.5624
-14.5858
-15.065
0.114799
0.375433
0.450391
0.981963
1.55291
2.47063
3.57677
4.77521
5.92343
6.88419
7.64012
8.26355
7.78912
5.31915
1.54268
-2.57371
-6.45786
-9.84707
-12.6169
-14.7716
-16.3565
-17.5925
-18.2747
0.0235453
0.322917
0.38407
0.917766
1.49179
2.43482
3.55938
4.75567
5.86588
6.74254
7.40304
8.03553
7.54144
4.85992
0.764061
-3.71247
-7.97247
-11.7278
-14.8264
-17.2737
-19.109
-20.5733
-21.5146
-0.0520318
0.277762
0.326868
0.857948
1.43816
2.40147
3.54063
4.72862
5.79301
6.57566
7.13213
7.79047
7.31618
4.47338
0.119589
-4.64902
-9.21837
-13.2937
-16.7117
-19.4833
-21.6125
-23.354
-24.6135
-0.115799
0.239061
0.274515
0.801262
1.38826
2.36617
3.51545
4.68857
5.70016
6.38328
6.83791
7.56117
7.17877
4.25568
-0.276871
-5.26906
-10.0982
-14.4776
-18.2396
-21.3818
-23.8601
-25.9431
-27.5472
-0.169458
0.20663
0.225313
0.748247
1.34027
2.32734
3.48236
4.63437
5.5873
6.16762
6.52657
7.36179
7.14965
4.21769
-0.444442
-5.63955
-10.7335
-15.4488
-19.5994
-23.1518
-26.0402
-28.519
-30.4728
-0.213606
0.179818
0.179412
0.699937
1.29424
2.28614
3.44324
4.56888
5.45827
5.93303
6.20049
7.19088
7.21611
4.31479
-0.477883
-5.91258
-11.3312
-16.4445
-21.0241
-25.0327
-28.3755
-31.2393
-33.5267
-0.249369
0.157499
0.137419
0.656436
1.24984
2.24312
3.39907
4.49362
5.31469
5.67914
5.85269
7.03223
7.34764
4.48787
-0.473636
-6.22049
-12.0469
-17.6117
-22.6587
-27.1696
-30.9192
-34.0525
-36.6808
-0.277807
0.138761
0.0999792
0.61752
1.20721
2.19919
3.35123
4.41063
5.15868
5.40613
5.47632
6.8713
7.52296
4.70435
-0.47264
-6.60606
-12.9048
-18.9385
-24.459
-29.4237
-33.5252
-36.9611
-40.0526
-0.300123
0.123007
0.0673662
0.582449
1.166
2.15434
3.29999
4.3206
4.99079
5.11212
5.06237
6.69458
7.732
4.96088
-0.461982
-7.02669
-13.805
-20.2737
-26.2259
-31.6208
-36.2569
-40.1772
-43.6885
-0.317313
0.109992
0.0394684
0.550589
1.12632
2.10899
3.2461
4.22501
4.81275
4.79748
4.60536
6.4969
7.98304
5.28317
-0.393574
-7.39548
-14.6012
-21.4337
-27.8267
-33.7764
-39.1781
-43.6778
-47.3476
-0.330322
0.0995559
0.0155154
0.520582
1.08677
2.06123
3.18736
4.12159
4.62184
4.45717
4.0932
6.26584
8.28109
5.69632
-0.220215
-7.60832
-15.1383
-22.3673
-29.4715
-36.1206
-41.8673
-46.4852
-50.0996
-0.340162
0.091964
-0.00425862
0.493667
1.05016
2.01548
3.1305
4.01923
4.42829
4.10073
3.52926
6.01231
8.65951
6.24191
0.114125
-7.58171
-15.4653
-23.3829
-31.1584
-38.1401
-43.5557
-47.8104
-51.5141
-0.346092
0.0867539
-0.0225802
0.465014
1.00881
1.96023
3.05991
3.89999
4.21373
3.71016
2.8886
5.7029
9.10028
6.92106
0.63939
-7.30995
-15.7421
-24.439
-32.1808
-38.9394
-44.4735
-48.9742
-52.8588
-0.347708
0.0896618
-0.022909
0.465898
1.01273
1.96923
3.07813
3.8989
4.14564
3.4849
2.39625
5.5469
9.74269
7.81553
1.39608
-6.85914
-16.0648
-25.0575
-32.6859
-39.4024
-45.2069
-50.0358
-54.1745
-0.36472
0.0907475
-0.0157531
0.486652
1.05106
2.03068
3.17057
4.00205
4.21547
3.43172
2.09567
5.55794
10.5345
8.86489
2.31646
-6.25351
-16.3196
-25.2627
-32.9403
-39.82
-45.8432
-50.7713
-55.0303
-0.369344
0.10236
0.00480802
0.524435
1.11108
2.11807
3.29116
4.13344
4.30699
3.38478
1.76538
5.50506
11.273
9.85056
3.1255
-5.74115
-16.5649
-25.62
-33.2732
-40.1415
-46.361
-51.4359
-55.757
-0.361214
0.123083
0.0353399
0.572494
1.18131
2.21341
3.41351
4.25706
4.37401
3.28668
1.33002
5.29755
11.8785
10.6985
3.75951
-5.49144
-17.0279
-26.2521
-33.7613
-40.5569
-47.0869
-52.611
-56.9372
-0.349793
0.146159
0.0682674
0.62235
1.2514
2.30377
3.52177
4.35362
4.39446
3.11322
0.763193
4.93196
12.3929
11.4943
4.39479
-5.52004
-17.7537
-26.8752
-34.2744
-41.2104
-47.8624
-53.588
-57.7571
-0.340381
0.167586
0.0990132
0.668832
1.31507
2.38206
3.6084
4.41571
4.36331
2.86365
0.0706649
4.43936
12.8833
12.3676
5.23441
-5.83366
-18.38
-27.1732
-34.8604
-42.0467
-48.244
-53.3134
-57.1423
-0.333203
0.186895
0.127085
0.711514
1.37228
2.44914
3.67615
4.44965
4.2931
2.55935
-0.716251
3.869
13.4181
13.4472
6.3667
-6.47001
-18.6861
-27.2811
-35.388
-42.4525
-48.0188
-51.9722
-55.1839
-0.327028
0.205047
0.153857
0.752147
1.42559
2.50942
3.73247
4.4676
4.20301
2.22776
-1.56386
3.25829
14.0363
14.8058
7.69365
-7.27539
-18.6913
-27.5673
-35.8526
-42.1715
-47.098
-50.3121
-53.1155
-0.320707
0.222967
0.180735
0.792631
1.47804
2.56763
3.78481
4.48119
4.11043
1.89239
-2.4477
2.62163
14.7442
16.4191
8.85198
-7.87388
-18.5534
-27.7954
-35.9736
-41.8565
-45.9503
-48.9818
-51.5674
-0.313768
0.241224
0.208569
0.834009
1.53117
2.62644
3.8376
4.49731
4.02543
1.56505
-3.36205
1.94245
15.5158
18.202
9.34914
-8.26489
-18.8143
-28.1353
-35.6693
-41.614
-45.3301
-48.3057
-50.6652
-0.306013
0.260039
0.237634
0.87664
1.58577
2.68708
3.89289
4.51913
3.95225
1.24948
-4.31264
1.18821
16.3332
20.1493
8.89518
-8.7772
-19.5438
-28.6423
-35.5418
-41.2944
-45.1009
-48.0725
-50.2295
-0.297594
0.279457
0.267864
0.920346
1.64156
2.7494
3.95075
4.54673
3.89061
0.942829
-5.31459
0.314575
17.1956
22.2424
7.62964
-9.54694
-20.3126
-29.3997
-35.9634
-41.1844
-45.2684
-48.1383
-50.0506
-0.288638
0.299402
0.299008
0.964838
1.69833
2.81314
4.0108
4.57943
3.839
0.641453
-6.38304
-0.710667
18.0831
23.9964
6.04376
-10.7032
-21.2549
-30.3291
-36.9947
-41.6582
-45.7135
-48.5078
-50.2094
-0.279385
0.319792
0.330803
1.00977
1.75555
2.87768
4.07229
4.61591
3.79522
0.341066
-7.53192
-1.90393
18.9912
24.7847
4.41318
-12.3292
-22.6699
-31.3442
-38.2249
-42.5585
-46.1726
-48.7255
-50.3021
-0.269919
0.340529
0.363022
1.05496
1.81314
2.94288
4.13491
4.65547
3.75799
0.0395576
-8.77328
-3.24672
20.1225
24.483
2.5216
-14.4095
-24.8246
-32.9388
-39.425
-43.7454
-46.891
-48.9346
-50.2899
-0.26036
0.36157
0.395535
1.1003
1.87086
3.00848
4.19833
4.69739
3.72627
-0.264919
-10.1135
-4.7176
21.3117
23.1529
-0.222486
-17.0982
-27.7781
-35.3473
-41.2038
-45.3429
-48.0101
-49.5698
-50.5919
-0.250671
0.382871
0.428281
1.14581
1.92888
3.07464
4.26262
4.74155
3.69998
-0.571543
-11.5427
-6.32212
22.0713
20.9037
-3.75897
-20.7534
-31.443
-38.8855
-44.261
-47.6162
-49.5909
-50.7189
-51.3964
-0.240866
0.40444
0.461273
1.19155
1.98714
3.14135
4.32776
4.78773
3.67921
-0.878988
-13.0441
-8.04152
22.0795
17.9293
-7.91662
-25.6179
-36.2994
-43.233
-47.9196
-50.4856
-51.586
-52.0035
-52.5011
-0.230851
0.426272
0.494549
1.23763
2.04591
3.20883
4.39392
4.83609
3.66462
-1.18381
-14.582
-9.83347
21.2198
14.5605
-12.7846
-31.2014
-41.9917
-47.6479
-50.9232
-52.3692
-52.957
-52.738
-52.5922
-0.220611
0.448393
0.528173
1.28414
2.10514
3.27709
4.46115
4.88656
3.65683
-1.48272
-16.1046
-11.5739
19.6826
10.8155
-18.0453
-36.8621
-47.3203
-51.0823
-52.4515
-53.1619
-53.1466
-52.086
-51.0341
-0.210063
0.470806
0.562199
1.33115
2.16504
3.34631
4.52959
4.93935
3.65662
-1.77106
-17.556
-13.0236
17.4553
6.41883
-23.7714
-42.5794
-52.0017
-53.4649
-53.0509
-52.8092
-51.6328
-49.9852
-48.5305
-0.199217
0.493532
0.596677
1.37871
2.22554
3.41645
4.59929
4.99445
3.66484
-2.03981
-18.9147
-14.2569
14.4382
1.25379
-30.5027
-48.6852
-56.243
-55.3876
-53.6502
-52.0322
-49.5581
-47.359
-45.5357
-0.188007
0.516576
0.631637
1.42686
2.28675
3.48761
4.67036
5.05204
3.68261
-2.27691
-20.1818
-15.5003
10.3838
-4.86955
-38.3038
-55.3859
-60.3028
-57.4589
-54.5032
-51.2694
-47.4796
-44.5731
-42.3753
-0.176509
0.539927
0.667134
1.47568
2.34876
3.56
4.74323
5.11274
3.71216
-2.46968
-21.3811
-16.7689
5.12203
-11.9989
-46.8429
-62.1516
-64.1465
-59.4984
-55.0415
-50.1822
-45.2132
-41.6079
-39.1495
-0.164388
0.563829
0.703399
1.52538
2.41189
3.63401
4.81846
5.17743
3.75578
-2.60442
-22.5511
-18.3157
-1.2305
-20.3949
-56.0613
-68.1033
-66.8919
-60.454
-54.3757
-48.0582
-42.193
-38.0487
-35.4513
-0.151744
0.587899
0.740481
1.57632
2.47703
3.71179
4.90047
5.25395
3.82674
-2.64733
-23.6565
-19.9673
-8.39623
-29.8301
-65.0068
-72.1815
-67.2554
-58.9215
-51.3489
-43.802
-37.4131
-32.9756
-30.3461
-0.143017
0.610671
0.777685
1.62971
2.54799
3.80113
5.00359
5.3669
3.9609
-2.53863
-24.5365
-21.0762
-15.8006
-38.6878
-71.7292
-73.2158
-63.8626
-53.1649
-44.0998
-35.4006
-28.7501
-24.3194
-21.6875
-0.131454
0.636094
0.819046
1.68937
2.62938
3.90848
5.13779
5.53141
4.17646
-2.26626
-25.1133
-21.3558
-22.9391
-46.0593
-75.54
-71.124
-57.1872
-43.7911
-33.0798
-23.3193
-16.557
-12.4857
-9.83784
-0.116682
0.664567
0.865312
1.75639
2.72278
4.03593
5.30555
5.74929
4.47048
-1.84961
-25.4414
-20.9434
-29.5968
-52.1269
-76.9861
-66.9395
-48.9354
-33.0406
-20.7585
-10.3748
-3.63925
-0.39
2.35872
-0.100325
0.695068
0.915443
1.82966
2.82668
4.18096
5.50221
6.01084
4.8227
-1.33279
-25.6256
-20.0849
-35.6043
-57.0973
-76.7472
-61.9147
-40.7678
-23.0196
-9.73122
0.589621
7.05357
9.10261
11.8821
-0.0832316
0.726924
0.968583
1.90807
2.93936
4.3405
5.72202
6.3047
5.21028
-0.761697
-25.7783
-19.0713
-40.968
-61.0839
-75.4532
-56.9238
-33.6834
-14.9003
-1.57025
8.12383
13.8199
14.5429
17.067
-0.0656889
0.75972
1.02371
1.98983
3.05763
4.50901
5.95537
6.61407
5.60452
-0.186629
-25.984
-18.0807
-46.0448
-64.5648
-73.8944
-52.7972
-28.5748
-9.53952
2.99563
11.6969
16.1524
15.7679
17.3608
-0.047668
0.793337
1.08069
2.07476
3.18124
4.6859
6.20084
6.9355
5.99856
0.3817
-26.3059
-17.338
-50.7892
-67.4578
-72.3209
-49.4464
-25.1273
-6.55934
4.67111
12.166
15.1194
13.5613
13.4153
-0.0295206
0.827659
1.13886
2.16185
3.30841
4.8682
6.45367
7.26255
6.38112
0.925071
-26.7409
-16.8721
-54.84
-69.5641
-70.7331
-46.5583
-22.624
-5.08718
4.62807
10.6687
12.0927
9.26607
6.66224
-0.00913592
0.86427
1.20078
2.25364
3.44184
5.05809
6.7153
7.59628
6.75604
1.44266
-27.5581
-16.9112
-58.503
-71.635
-69.4781
-44.6015
-21.5962
-5.67966
2.37445
6.66584
6.06252
1.51782
-3.42601
0.0106348
0.900231
1.26167
2.34387
3.57249
5.24263
6.96661
7.90788
7.08346
1.88986
-28.8304
-17.3668
-61.8684
-74.0742
-68.8396
-43.8547
-22.222
-8.18636
-1.82587
0.436964
-2.45802
-8.56647
-15.0049
0.0292987
0.934926
1.3205
2.43121
3.69856
5.41954
7.2046
8.1937
7.36198
2.27255
-30.5132
-18.0781
-64.8426
-76.578
-68.6545
-43.8043
-23.5855
-11.323
-6.54557
-6.21698
-10.8969
-18.1175
-25.1261
0.0475553
0.969102
1.37834
2.51699
3.82186
5.59133
7.43301
8.46037
7.60612
2.61482
-32.3766
-18.8975
-67.4207
-79.0502
-68.8892
-44.2507
-25.2498
-14.4864
-10.9962
-12.1625
-17.8006
-25.455
-32.2906
0.0657991
1.00318
1.43588
2.60212
3.9437
5.76006
7.65537
8.71487
7.83111
2.94209
-34.0663
-19.4627
-69.5676
-81.5054
-69.5153
-45.1009
-27.0568
-17.4692
-14.88
-16.9806
-22.8468
-30.1461
-36.2366
0.0840936
1.03723
1.49329
2.68688
4.0646
5.92669
7.87365
8.96197
8.04817
3.28273
-35.3304
-19.6395
-71.3215
-83.9301
-70.4905
-46.2741
-28.9191
-20.1612
-18.0968
-20.5805
-26.0776
-32.3562
-37.2231
0.102379
1.07121
1.55054
2.77124
4.18455
6.09141
8.08861
9.20414
8.26386
3.65799
-36.1267
-19.8135
-72.6593
-86.3027
-71.7697
-47.701
-30.7777
-22.5091
-20.6458
-22.9991
-27.5612
-32.3796
-35.7349
0.120629
1.10508
1.60756
2.85508
4.30347
6.2542
8.30045
9.44257
8.4816
4.07617
-36.4906
-20.124
-73.7985
-88.6244
-73.2995
-49.3249
-32.5971
-24.4994
-22.5608
-24.3209
-27.4996
-30.6203
-32.3652
0.138796
1.13878
1.66426
2.93829
4.42115
6.41486
8.50906
9.67753
8.70247
4.53831
-36.4473
-20.4294
-74.9657
-90.9114
-75.0262
-51.1056
-34.3759
-26.1806
-23.9058
-24.6485
-26.2126
-27.644
-27.8352
0.15688
1.17229
1.72059
3.02076
4.53755
6.57331
8.71436
9.90911
8.92647
5.04197
-36.0205
-20.6461
-75.9862
-93.1257
-76.896
-53.0016
-36.1264
-27.6407
-24.7817
-24.1838
-24.0902
-23.9926
-22.831
0.174836
1.20558
1.77648
3.10243
4.6525
6.72941
8.91611
10.1369
9.15259
5.58126
-35.2431
-20.7346
-76.7343
-95.225
-78.8544
-54.9748
-37.8744
-28.9764
-25.2959
-23.2298
-21.5626
-20.1417
-17.8316
0.192676
1.23865
1.8319
3.18327
4.76606
6.88315
9.11421
10.3607
9.37962
6.14922
-34.1541
-20.6598
-77.2686
-97.1851
-80.8303
-56.9845
-39.6341
-30.263
-25.5536
-22.0418
-19.0229
-16.4508
-13.1901
0.210358
1.27149
1.88684
3.26325
4.8781
7.03438
9.3084
10.5799
9.6059
6.73466
-32.8113
-20.4066
-77.6533
-98.9857
-82.7562
-59.004
-41.4175
-31.5512
-25.6887
-20.823
-16.6802
-13.1474
-9.17133
0.22791
1.30409
1.94128
3.34237
4.98869
7.18311
9.49852
10.7941
9.82985
7.32614
-31.2841
-20.1693
-77.9709
-100.591
-84.5826
-61.0176
-43.2359
-32.8532
-25.7985
-19.7332
-14.6683
-10.353
-5.90726
0.245295
1.33645
1.99522
3.42061
5.09769
7.32915
9.68423
11.0026
10.0498
7.91706
-29.6081
-20.1085
-78.2146
-101.97
-86.2803
-63.0186
-45.0914
-34.187
-25.9552
-18.893
-13.0712
-8.17119
-3.47769
0.26255
1.36856
2.04864
3.49795
5.20516
7.47246
9.86534
11.2051
10.2645
8.50058
-27.777
-20.1734
-78.3243
-103.096
-87.8275
-64.9819
-46.9666
-35.5692
-26.2283
-18.3457
-11.9298
-6.65144
-1.9251
0.279635
1.4004
2.10153
3.57436
5.31091
7.6128
10.0415
11.401
10.4727
9.06514
-25.8002
-20.3257
-78.3087
-103.94
-89.2073
-66.8569
-48.851
-37.0245
-26.7086
-18.1345
-11.2401
-5.75212
-1.16451
0.296597
1.43198
2.15388
3.6498
5.41498
7.75011
10.2125
11.5901
10.6737
9.60019
-23.7092
-20.6241
-78.2055
-104.514
-90.4173
-68.5035
-50.7396
-38.5781
-27.4629
-18.2843
-11.0074
-5.38075
-1.0104
0.313386
1.46327
2.20566
3.72422
5.51715
7.88413
10.3781
11.772
10.8668
10.0947
-21.5452
-21.0387
-78.0943
-104.836
-91.3922
-69.8487
-52.6356
-40.2551
-28.5006
-18.7744
-11.1581
-5.43146
-1.2733
0.330053
1.49427
2.25684
3.79758
5.61746
8.01482
10.538
11.9466
11.0516
10.5391
-19.2948
-21.5298
-78.1128
-104.913
-91.9923
-71.0441
-54.5404
-42.0253
-29.7612
-19.5078
-11.5562
-5.75809
-1.79435
0.346536
1.52494
2.30741
3.8698
5.71568
8.14188
10.692
12.1137
11.2274
10.9233
-16.9936
-22.0862
-78.2899
-104.802
-92.2242
-72.2164
-56.4697
-43.8332
-31.1239
-20.3541
-12.08
-6.28159
-2.49068
0.362888
1.55529
2.35732
3.94084
5.81184
8.26531
10.84
12.2733
11.394
11.2394
-14.6916
-22.7327
-78.5705
-104.512
-92.2065
-73.403
-58.4323
-45.6118
-32.4404
-21.2067
-12.722
-6.99603
-3.34885
0.379039
1.58529
2.40654
4.01064
5.90569
8.38481
10.9817
12.4251
11.5508
11.4792
-12.4353
-23.4782
-78.9342
-104.043
-92.0449
-74.623
-60.4269
-47.3097
-33.6419
-22.0479
-13.4946
-7.90844
-4.38153
0.395043
1.61492
2.45504
4.07913
5.99731
8.50039
11.1169
12.5692
11.6976
11.6372
-10.2639
-24.3285
-79.3501
-103.381
-91.8098
-75.8842
-62.3728
-48.8717
-34.7331
-22.9008
-14.4199
-9.00577
-5.57747
0.410822
1.64415
2.50278
4.14624
6.08641
8.61173
11.2454
12.7053
11.8335
11.7086
-8.2146
-25.2881
-79.7648
-102.516
-91.5482
-77.1581
-64.1627
-50.2442
-35.7314
-23.8124
-15.5039
-10.2652
-6.91455
0.426436
1.67298
2.54973
4.21192
6.17306
8.71882
11.367
12.8333
11.9585
11.692
-6.31877
-26.3542
-80.0974
-101.458
-91.2652
-78.381
-65.7337
-51.383
-36.6266
-24.7868
-16.7256
-11.6661
-8.37373
0.441801
1.70137
2.59584
4.2761
6.25697
8.82131
11.4813
12.9527
12.0718
11.5871
-4.60476
-27.5159
-80.2678
-100.239
-90.9579
-79.4868
-67.0405
-52.2497
-37.4214
-25.8057
-18.0142
-13.1228
-9.87182
0.456981
1.72931
2.64109
4.3387
6.33821
8.91919
11.5881
13.0636
12.1735
11.3975
-3.09263
-28.7436
-80.1927
-98.8532
-90.6042
-80.3906
-67.9918
-52.8207
-38.1166
-26.8163
-19.2946
-14.5505
-11.3334
0.471885
1.75677
2.68541
4.39965
6.41646
9.01205
11.687
13.1653
12.2632
11.1288
-1.80019
-29.9962
-79.7215
-97.2552
-90.154
-81.0309
-68.5233
-53.1138
-38.6832
-27.7655
-20.5189
-15.9078
-12.7172
0.486583
1.78374
2.72878
4.45887
6.49178
9.09985
11.7776
13.2579
12.3417
10.7905
-0.741864
-31.2032
-78.7147
-95.3685
-89.5569
-81.3696
-68.6323
-53.1677
-39.0959
-28.5852
-21.6189
-17.1359
-13.9724
0.500979
1.81017
2.77113
4.51626
6.56381
9.18215
11.8595
13.3407
12.4093
10.3942
0.0694671
-32.2593
-77.0838
-93.1825
-88.8011
-81.3559
-68.3259
-53.0074
-39.3493
-29.2507
-22.5545
-18.198
-15.0754
0.515146
1.83605
2.81243
4.57175
6.6326
9.25887
11.9323
13.4138
12.4678
9.95577
0.636499
-33.046
-74.7569
-90.8378
-87.8921
-80.8801
-67.6141
-52.6244
-39.4462
-29.7638
-23.3247
-19.1006
-16.0421
0.52898
1.86133
2.8526
4.62521
6.69779
9.32953
11.9955
13.4766
12.5189
9.49266
0.972067
-33.4724
-71.8409
-88.3484
-86.7252
-79.85
-66.5392
-51.9939
-39.3616
-30.1116
-23.9458
-19.8813
-16.9153
0.54256
1.886
2.89161
4.67656
6.75936
9.39403
12.0487
13.5295
12.5653
9.02607
1.09649
-33.49
-68.5075
-85.6022
-85.1831
-78.258
-65.138
-51.1115
-39.0779
-30.2941
-24.4391
-20.5695
-17.717
0.555774
1.91001
2.92938
4.72566
6.81697
9.45187
12.0913
13.5722
12.6106
8.57708
1.02788
-33.0945
-64.9315
-82.5772
-83.23
-76.1651
-63.4322
-50.0051
-38.6153
-30.3391
-24.8378
-21.2017
-18.4823
0.568713
1.93333
2.96584
4.7724
6.87056
9.50285
12.1228
13.6048
12.6584
8.16832
0.788682
-32.2996
-61.3504
-79.3536
-80.7857
-73.6185
-61.4206
-48.7128
-38.0206
-30.2936
-25.1878
-21.8174
-19.2592
0.581225
1.95591
3.00094
4.81671
6.91987
9.5467
12.143
13.6284
12.7149
7.81708
0.388513
-31.1337
-57.9507
-75.9487
-77.7536
-70.6731
-59.1295
-47.2478
-37.3296
-30.2015
-25.5394
-22.4495
-20.0695
0.593524
1.97779
3.03458
4.85827
6.96447
9.58256
12.1504
13.6409
12.7807
7.5551
-0.123731
-29.579
-54.6505
-72.2187
-74.1199
-67.4106
-56.6555
-45.673
-36.6074
-30.154
-25.9715
-23.1749
-20.9712
0.605059
1.99882
3.06704
4.89806
7.00624
9.61375
12.1505
13.654
12.8727
7.34613
-0.81255
-27.5814
-51.283
-67.9736
-69.9107
-63.7876
-53.9908
-43.9921
-35.8549
-30.145
-26.4623
-23.9603
-21.9256
0.617078
2.02012
3.0989
4.93587
7.04405
9.63723
12.1371
13.6336
12.9393
7.45379
-1.05406
-24.686
-47.403
-63.0716
-65.3842
-60.1453
-51.4721
-42.5762
-35.3843
-30.399
-27.1937
-24.9927
-23.1466
0.635213
2.04471
3.13394
4.97256
7.07581
9.64741
12.1072
13.5755
12.9027
7.50586
-1.21425
-21.9711
-43.38
-57.6934
-60.2821
-55.9623
-48.4958
-40.8594
-34.6775
-30.4059
-27.6651
-25.7469
-24.096
0.648941
2.06433
3.16074
4.99489
7.08316
9.61789
12.0206
13.425
12.7352
7.64379
-0.973423
-19.7209
-38.9125
-51.7918
-54.5499
-51.1239
-44.9166
-38.6068
-33.5552
-30.0749
-27.8307
-26.2115
-24.7713
0.656411
2.07667
3.17571
4.99815
7.05887
9.53716
11.8567
13.157
12.4462
7.95236
-0.153718
-17.5815
-34.1071
-45.4639
-48.2939
-45.7406
-40.8634
-35.8967
-32.0036
-29.3564
-27.6367
-26.3399
-25.1306
0.661531
2.08415
3.18106
4.98351
7.00288
9.40283
11.6088
12.7685
12.0616
8.43387
1.08208
-15.0423
-29.1243
-38.9101
-41.7594
-40.1037
-36.5838
-33.016
-30.2639
-28.4319
-27.2229
-26.2582
-25.301
0.666314
2.08818
3.17834
4.95211
6.91578
9.21478
11.2767
12.2687
11.6076
8.99828
2.39956
-11.8511
-24.0762
-32.4633
-35.2807
-34.5363
-32.3802
-30.1837
-28.5362
-27.4676
-26.7425
-26.1168
-25.433
0.670493
2.08825
3.16676
4.90253
6.79571
8.97079
10.8598
11.6682
11.0965
9.49043
3.52779
-8.59804
-19.3178
-26.5096
-29.2571
-29.41
-28.5552
-27.5739
-26.8955
-26.4887
-26.2088
-25.9148
-25.5091
0.672773
2.08286
3.14412
4.83153
6.63803
8.66538
10.3549
10.9726
10.5177
9.73252
4.29999
-5.77293
-15.0892
-21.3128
-24.1226
-25.0655
-25.2629
-25.2686
-25.3439
-25.4534
-25.5416
-25.5388
-25.3876
0.672399
2.07058
3.10803
4.7352
6.43739
8.2925
9.75865
10.1847
9.84155
9.58201
4.66175
-3.53495
-11.5207
-16.9971
-19.9493
-21.5252
-22.4694
-23.161
-23.7438
-24.2229
-24.5904
-24.8208
-24.881
0.668675
2.04998
3.05599
4.60958
6.18827
7.84673
9.06954
9.30416
9.02932
8.96683
4.58228
-2.03422
-8.78449
-13.6251
-16.6136
-18.5811
-19.9836
-21.0807
-21.9662
-22.6762
-23.2286
-23.6231
-23.8392
0.661279
2.01974
2.98556
4.45076
5.88607
7.32512
8.28952
8.33152
8.04952
7.89887
4.042
-1.30149
-6.89906
-11.1104
-14.0005
-16.1006
-17.686
-18.948
-19.9648
-20.7838
-21.4337
-21.9232
-22.2369
0.649588
1.97822
2.89401
4.25495
5.5271
6.72743
7.42453
7.27075
6.89397
6.46599
3.10209
-1.20034
-5.73536
-9.31639
-11.9406
-13.9428
-15.5041
-16.7627
-17.7856
-18.6181
-19.2894
-19.8093
-20.1653
0.633141
1.92375
2.77866
4.01882
5.10969
6.05775
6.48631
6.13524
5.59129
4.81714
1.91003
-1.52052
-5.10491
-8.04524
-10.2785
-12.0363
-13.4435
-14.5943
-15.5409
-16.3207
-16.957
-17.4583
-17.814
0.611102
1.85433
2.63672
3.73996
4.63479
5.32511
5.4936
4.9522
4.20867
3.12932
0.649896
-2.04153
-4.80119
-7.11754
-8.91855
-10.3729
-11.5634
-12.5506
-13.3721
-14.0568
-14.6217
-15.0715
-15.3983
0.582773
1.76811
2.46591
3.4176
4.10735
4.54486
4.47366
3.76434
2.83907
1.56604
-0.508068
-2.57215
-4.64614
-6.40785
-7.80232
-8.95623
-9.91816
-10.7261
-11.4065
-11.9797
-12.4569
-12.8398
-13.1228
0.547178
1.66309
2.26464
3.05353
3.53705
3.73874
3.46146
2.62489
1.57717
0.242761
-1.44652
-2.99164
-4.51772
-5.82677
-6.88105
-7.77188
-8.52581
-9.16774
-9.71511
-10.1803
-10.5701
-10.8849
-11.1213
0.503598
1.53794
2.03293
2.65298
2.93899
2.9342
2.49653
1.58738
0.496036
-0.784517
-2.12376
-3.25992
-4.36526
-5.32212
-6.10637
-6.7808
-7.36051
-7.85984
-8.28917
-8.65693
-8.96617
-9.21656
-9.40744
0.451287
1.39183
1.77292
2.22538
2.33317
2.16182
1.61706
0.694044
-0.365996
-1.51648
-2.55532
-3.3791
-4.17052
-4.86279
-5.44135
-5.94716
-6.38906
-6.77379
-7.10509
-7.38973
-7.63001
-7.82563
-7.97651
0.390019
1.22561
1.48982
1.78438
1.74293
1.45142
0.853613
-0.0312936
-1.00428
-1.98677
-2.7773
-3.36796
-3.93354
-4.435
-4.86268
-5.24311
-5.57911
-5.87384
-6.13042
-6.35091
-6.53689
-6.68998
-6.80924
0.320018
1.04183
1.19208
1.34721
1.19227
0.828042
0.224997
-0.582889
-1.43524
-2.24016
-2.83051
-3.25294
-3.65963
-4.02517
-4.342
-4.62599
-4.87729
-5.09765
-5.2889
-5.45293
-5.59227
-5.70715
-5.79645
0.242585
0.845832
0.891629
0.932823
0.702666
0.308796
-0.262085
-0.969363
-1.68703
-2.32398
-2.75875
-3.06362
-3.36042
-3.63009
-3.86783
-4.08264
-4.2715
-4.43709
-4.58093
-4.70522
-4.81103
-4.89817
-4.96631
0.160208
0.645482
0.602558
0.559561
0.29057
-0.0980973
-0.611333
-1.20779
-1.79125
-2.27954
-2.59788
-2.822
-3.04152
-3.24235
-3.42154
-3.58375
-3.72641
-3.85034
-3.95826
-4.05188
-4.13027
-4.19465
-4.24508
0.0769481
0.451168
0.339874
0.24285
-0.0343872
-0.392463
-0.83361
-1.31846
-1.77648
-2.13999
-2.37293
-2.53938
-2.70308
-2.85475
-2.99135
-3.11246
-3.21832
-3.31136
-3.39289
-3.46187
-3.51878
-3.56543
-3.60193
-0.00176198
0.274498
0.117313
-0.00694539
-0.269265
-0.581058
-0.94432
-1.32386
-1.67049
-1.93507
-2.10558
-2.22956
-2.35435
-2.47016
-2.57272
-2.66336
-2.74326
-2.81399
-2.87483
-2.92478
-2.96573
-2.99903
-3.02497
-0.0696317
0.126999
-0.0548542
-0.184994
-0.417792
-0.67593
-0.962659
-1.24815
-1.50137
-1.69195
-1.81754
-1.91246
-2.00972
-2.09696
-2.17309
-2.24232
-2.30459
-2.35884
-2.40379
-2.44029
-2.4699
-2.49371
-2.51218
-0.120385
0.0175418
-0.170881
-0.292731
-0.488589
-0.692535
-0.908801
-1.11448
-1.29327
-1.42994
-1.52217
-1.5957
-1.6685
-1.73044
-1.78658
-1.83862
-1.8844
-1.92268
-1.95349
-1.97805
-1.99722
-2.01215
-2.02336
-0.149066
-0.0485062
-0.230222
-0.336115
-0.494778
-0.649725
-0.806201
-0.948468
-1.07159
-1.17045
-1.2384
-1.29403
-1.34552
-1.39073
-1.43423
-1.4737
-1.50711
-1.5343
-1.556
-1.57277
-1.58539
-1.5949
-1.60197
-0.154989
-0.0727458
-0.238209
-0.323843
-0.44642
-0.557616
-0.66485
-0.761274
-0.850387
-0.927551
-0.978155
-1.01798
-1.05443
-1.09054
-1.12501
-1.15446
-1.1785
-1.19793
-1.21302
-1.22416
-1.2321
-1.23777
-1.24188
-0.135696
-0.0557311
-0.197822
-0.263094
-0.358146
-0.441542
-0.519792
-0.585427
-0.642884
-0.69181
-0.720678
-0.74357
-0.76872
-0.794446
-0.817082
-0.835323
-0.849879
-0.861146
-0.86909
-0.874164
-0.87696
-0.878214
-0.878679
-0.122168
-0.0372638
-0.147316
-0.173149
-0.205592
-0.215628
-0.24679
-0.335155
-0.4621
-0.558589
-0.603014
-0.628217
-0.650757
-0.670761
-0.687149
-0.700405
-0.711138
-0.719267
-0.724832
-0.728216
-0.729871
-0.730469
-0.730699
0.00173934
0.0942699
0.0103632
-0.0354689
-0.113801
-0.176773
-0.186653
-0.121116
-0.0400525
-0.00315937
-0.0169997
-0.0500155
-0.0723411
-0.0846398
-0.0936916
-0.100641
-0.105258
-0.10774
-0.108306
-0.107332
-0.105224
-0.102523
-0.099715
1.32028
1.18092
1.36382
1.73582
2.17933
2.70845
3.40876
4.3099
5.48595
7.01368
8.9217
11.225
13.8593
16.7518
19.7882
22.8643
25.867
28.6913
31.2412
33.4493
35.2712
36.7206
37.7898
1.38135
1.35591
1.53731
1.93523
2.42888
3.01856
3.77121
4.72058
5.92165
7.43191
9.27452
11.4535
13.9182
16.6042
19.4193
22.271
25.0575
27.6758
30.0279
32.0427
33.6737
34.9397
35.8319
1.44919
1.52319
1.72122
2.13974
2.68349
3.33713
4.14833
5.14926
6.37756
7.87023
9.63979
11.6792
13.9457
16.3849
18.9256
21.4957
24.0126
26.385
28.5191
30.3412
31.8008
32.915
33.6691
1.52311
1.66877
1.89796
2.33452
2.9232
3.63957
4.51246
5.56795
6.82846
8.31077
10.0124
11.9134
13.9717
16.1401
18.3657
20.6006
22.7899
24.8655
26.7491
28.3696
29.6713
30.6633
31.3196
1.59741
1.77641
2.03989
2.49336
3.11824
3.89011
4.82164
5.9303
7.22515
8.7043
10.3477
12.1199
13.9733
15.8639
17.7551
19.623
21.4421
23.1752
24.7687
26.1633
27.3028
28.187
28.7807
1.6541
1.82635
2.11146
2.57736
3.22658
4.04078
5.02312
6.18229
7.516
9.00527
10.6117
12.2812
13.9542
15.5828
17.1418
18.6266
20.0412
21.3847
22.6361
23.7591
24.7065
25.4689
26.0009
1.66513
1.81765
2.10882
2.58691
3.25936
4.11182
5.1433
6.35546
7.73499
9.24609
10.8292
12.4075
13.9023
15.2561
16.451
17.5068
18.4676
19.3781
20.2582
21.097
21.8533
22.4986
22.9656
1.60429
1.76265
2.05158
2.55267
3.26663
4.17307
5.26766
6.54615
7.98275
9.52097
11.0736
12.5333
13.7953
14.7922
15.5234
16.0557
16.4969
16.9512
17.478
18.078
18.6952
19.2669
19.6995
0.697179
-0.258577
0.284521
0.140174
0.383489
0.385136
0.634055
0.963967
1.67974
2.97182
4.78578
7.3539
10.3315
13.7151
17.1885
20.6573
23.9504
26.9679
29.6287
31.8944
33.7578
35.2591
36.4267
0.718204
-0.207022
0.344713
0.223479
0.489795
0.524813
0.814068
1.18822
1.95166
3.28219
5.1331
7.71832
10.7206
14.1296
17.659
21.2128
24.6332
27.8165
30.6779
33.166
35.2625
36.989
38.362
0.742
-0.152921
0.409095
0.315519
0.606647
0.681767
1.01493
1.43869
2.25324
3.62356
5.51285
8.11165
11.1333
14.5566
18.1242
21.7381
25.2532
28.5641
31.5842
34.2529
36.5434
38.4622
40.0197
0.768085
-0.0979434
0.473181
0.409419
0.723525
0.842845
1.22088
1.69831
2.56701
3.98011
5.91122
8.52473
11.5645
14.9961
18.5893
22.2445
25.8277
29.233
32.3726
35.1793
37.6214
39.6917
41.4011
0.797385
-0.0410811
0.536422
0.503779
0.838393
1.00338
1.4263
1.95849
2.88132
4.33704
6.30921
8.93661
11.9914
15.426
19.0339
22.7146
26.3437
29.8154
33.0407
35.9472
38.4989
40.6792
42.5023
0.830151
0.0181398
0.597713
0.597498
0.948091
1.15858
1.62449
2.21131
3.18696
4.68439
6.69607
9.33625
12.4023
15.8342
19.4454
23.1356
26.7887
30.2999
33.579
36.549
39.1714
41.421
43.3167
0.866769
0.0811257
0.655997
0.689668
1.05093
1.30438
1.80984
2.44895
3.4742
5.01059
7.05843
9.70946
12.7827
16.2068
19.8111
23.496
27.1524
30.6777
33.9808
36.9814
39.6379
41.9188
43.8464
0.907191
0.149594
0.710379
0.779321
1.14464
1.43635
1.97536
2.66226
3.73199
5.30363
7.38411
10.0453
13.124
16.5385
20.1295
23.7974
27.4387
30.9538
34.2516
37.2501
39.9045
42.1806
44.1049
0.951153
0.22684
0.762485
0.868838
1.23312
1.55773
2.12384
2.85224
3.95894
5.55906
7.6647
10.3318
13.4115
16.8134
20.3851
24.0267
27.6379
31.1225
34.3904
37.3597
39.9828
42.2231
44.1093
0.998252
0.31672
0.81558
0.962405
1.3229
1.67602
2.26318
3.02627
4.16106
5.78017
7.89995
10.5641
13.6356
17.0179
20.5624
24.1678
27.7346
31.1696
34.3849
37.3001
39.8658
42.0456
43.8643
1.04837
0.422448
0.872769
1.06275
1.42009
1.79785
2.40128
3.19206
4.34503
5.97196
8.09071
10.7393
13.7878
17.14
20.646
24.2043
27.7123
31.0797
34.22
37.057
39.5407
41.637
43.3667
1.10102
0.54606
0.937372
1.17176
1.52926
1.93005
2.5466
3.3592
4.52186
6.14394
8.24675
10.8622
13.8714
17.1773
20.6319
24.13
27.5663
30.8496
33.8949
36.6307
39.008
40.9997
42.6197
1.15473
0.687148
1.01241
1.28877
1.65283
2.07666
2.70582
3.53652
4.702
6.30871
8.37974
10.945
13.8949
17.1373
20.5249
23.9509
27.3045
30.4925
33.4289
36.0464
38.2992
40.1678
41.6621
1.20712
0.842231
1.10201
1.41469
1.79332
2.24289
2.88641
3.73369
4.89792
6.47927
8.50419
10.9989
13.8678
17.0234
20.325
23.6632
26.9236
30.0086
32.8298
35.3225
37.4425
39.1823
40.5455
1.26061
1.00749
1.21419
1.55663
1.95963
2.44096
3.10421
3.97036
5.13353
6.68389
8.65174
11.0574
13.8227
16.8649
20.0556
23.2846
26.4369
29.4103
32.1128
34.4795
36.4668