/*--------------------------------*- C++ -*----------------------------------*\
  =========                 |
  \\      /  F ield         | OpenFOAM: The Open Source CFD Toolbox
   \\    /   O peration     | Website:  https://openfoam.org
    \\  /    A nd           | Version:  7
     \\/     M anipulation  |
\*---------------------------------------------------------------------------*/
FoamFile
{
    version     2.0;
    format      ascii;
    class       volVectorField;
    location    "50";
    object      U;
}
// * * * * * * * * * * * * * * * * * * * * * * * * * * * * * * * * * * * * * //

dimensions      [0 1 -1 0 0 0 0];

internalField   nonuniform List<vector> 
12842
(
(14.6732 5.35129 -4.91715e-18)
(14.6615 5.33474 9.71535e-20)
(14.6437 5.33407 -9.57397e-20)
(14.6179 5.33381 1.67108e-19)
(14.584 5.33017 -1.09702e-18)
(14.5431 5.32312 0)
(14.496 5.31373 0)
(14.4436 5.30393 1.41908e-19)
(14.3863 5.29643 -1.24087e-18)
(14.3246 5.29429 -7.53083e-20)
(14.2586 5.30043 -1.34587e-18)
(14.1882 5.31799 1.60288e-19)
(14.113 5.35068 -1.45335e-18)
(14.0315 5.40221 -2.89861e-19)
(13.9412 5.47516 4.19244e-19)
(13.8394 5.56921 1.17957e-18)
(13.7246 5.68094 9.13923e-19)
(13.5978 5.80469 0)
(13.4623 5.93307 -4.60696e-20)
(13.3238 6.05852 -3.64864e-19)
(13.1877 6.17247 -2.61003e-20)
(13.0607 6.27491 1.70348e-19)
(12.9461 6.33979 -8.65343e-20)
(14.672 5.35427 3.80877e-18)
(14.655 5.34766 0)
(14.6343 5.35293 -1.33007e-18)
(14.6035 5.35769 1.34432e-18)
(14.5641 5.35875 9.74651e-19)
(14.5179 5.35569 0)
(14.4664 5.34923 -1.03673e-18)
(14.4115 5.34126 0)
(14.3552 5.33475 1.66129e-18)
(14.2991 5.3331 4.64173e-20)
(14.2441 5.33957 2.39549e-18)
(14.1909 5.3576 3.92e-18)
(14.1393 5.39188 1.4427e-18)
(14.0864 5.44749 -2.90339e-18)
(14.0267 5.52753 0)
(13.9539 5.63136 -1.31208e-18)
(13.8635 5.75431 -1.4003e-18)
(13.7551 5.88927 2.08355e-18)
(13.6316 6.02758 0)
(13.4993 6.16087 4.51931e-19)
(13.365 6.27994 8.34324e-19)
(13.2356 6.3858 -5.28688e-19)
(13.1192 6.44891 5.6726e-19)
(14.6712 5.35824 0)
(14.6526 5.36213 0)
(14.6298 5.37319 -9.80215e-19)
(14.5945 5.3832 -7.59975e-18)
(14.5497 5.38928 0)
(14.4976 5.39026 0)
(14.4406 5.38626 -6.24938e-19)
(14.3818 5.37895 1.47893e-19)
(14.3245 5.37141 -5.68601e-19)
(14.2717 5.36734 -1.33178e-18)
(14.2253 5.37027 -3.67143e-18)
(14.187 5.3839 -3.93668e-18)
(14.1573 5.41445 -1.10253e-18)
(14.1318 5.46941 4.34636e-18)
(14.1018 5.5531 0)
(14.0573 5.6648 8.97335e-19)
(13.9914 5.79859 -1.15496e-18)
(13.9022 5.9457 -1.42223e-18)
(13.7929 6.09581 -2.11146e-18)
(13.6699 6.23943 1.30996e-18)
(13.5414 6.36625 -6.69147e-19)
(13.4137 6.4783 0)
(13.2986 6.54219 -2.34305e-19)
(14.6714 5.36347 7.93496e-19)
(14.6541 5.37678 -7.71569e-19)
(14.6294 5.39346 2.79906e-18)
(14.59 5.40915 1.39464e-17)
(14.5402 5.42088 -1.24332e-18)
(14.482 5.42653 3.92103e-18)
(14.4186 5.42545 -1.25643e-19)
(14.3546 5.41891 -1.48822e-19)
(14.2949 5.40988 1.52032e-18)
(14.2437 5.40221 -2.65271e-18)
(14.204 5.39941 8.71227e-18)
(14.1785 5.40499 -1.49949e-18)
(14.1692 5.42712 1.96648e-18)
(14.1707 5.47687 7.77644e-18)
(14.17 5.5606 -1.47951e-18)
(14.1537 5.67759 1.91322e-18)
(14.1124 5.82077 6.87072e-19)
(14.0436 5.97961 1.8922e-18)
(13.9505 6.14194 4.1721e-19)
(13.8396 6.29699 8.95142e-19)
(13.7199 6.43313 4.23318e-19)
(13.5972 6.55333 5.43888e-19)
(13.4854 6.62035 -9.13788e-19)
(14.6729 5.36969 6.20718e-18)
(14.6583 5.39046 0)
(14.6322 5.41278 -6.61386e-19)
(14.5894 5.43458 -5.32401e-18)
(14.5353 5.45271 -6.70403e-19)
(14.4712 5.46396 -1.09321e-17)
(14.401 5.46673 -7.31223e-19)
(14.3311 5.46168 1.7561e-18)
(14.268 5.45144 -2.07914e-18)
(14.2169 5.43974 3.31849e-18)
(14.1818 5.42974 -8.83702e-18)
(14.1665 5.42397 -8.71779e-18)
(14.1756 5.43292 2.22213e-18)
(14.2032 5.47276 -1.6479e-17)
(14.2316 5.55282 -6.58831e-18)
(14.2434 5.67251 4.69616e-18)
(14.2276 5.82346 0)
(14.1808 5.99317 -1.87996e-18)
(14.106 6.1675 0)
(14.0096 6.33435 1.85733e-19)
(13.9012 6.48065 5.51204e-19)
(13.7861 6.61034 -5.89096e-19)
(13.6795 6.68249 -4.98111e-20)
(14.6756 5.3765 -5.32545e-18)
(14.6641 5.40255 0)
(14.6373 5.43042 0)
(14.592 5.4585 -1.04682e-17)
(14.5342 5.48355 7.72439e-18)
(14.4642 5.50114 6.83192e-18)
(14.3872 5.50865 7.28008e-18)
(14.311 5.5059 -2.14981e-18)
(14.2437 5.49501 0)
(14.192 5.4794 3.74021e-18)
(14.16 5.46159 7.85047e-18)
(14.1528 5.44196 4.5465e-18)
(14.1789 5.43345 0)
(14.2326 5.45901 8.68943e-18)
(14.2904 5.53189 5.67591e-18)
(14.3308 5.65175 -3.51474e-18)
(14.3413 5.80875 -8.46449e-19)
(14.3182 5.98831 5.6423e-18)
(14.2638 6.17412 0)
(14.1841 6.35282 -2.57261e-18)
(14.0888 6.50978 6.71933e-19)
(13.983 6.64992 2.69919e-18)
(13.883 6.72857 -4.80816e-19)
(14.6791 5.38332 3.96994e-19)
(14.6705 5.41282 0)
(14.6444 5.44614 0)
(14.5977 5.48067 1.04906e-17)
(14.5377 5.51331 -8.79432e-18)
(14.4629 5.53845 8.33201e-19)
(14.3797 5.55227 -4.98152e-18)
(14.297 5.55351 2.91382e-21)
(14.224 5.54335 -3.86665e-21)
(14.1683 5.52462 -4.62178e-18)
(14.1343 5.49886 -1.06468e-18)
(14.128 5.46273 8.22639e-18)
(14.1652 5.43138 0)
(14.2421 5.43676 -1.01771e-17)
(14.3294 5.49754 9.85689e-19)
(14.4003 5.61389 -1.2722e-18)
(14.4402 5.77414 3.71236e-18)
(14.4438 5.96147 -3.36395e-18)
(14.4127 6.15735 -3.94965e-18)
(14.3522 6.34726 -9.77445e-19)
(14.2728 6.51494 6.09832e-20)
(14.1788 6.66635 -1.48969e-18)
(14.0874 6.75308 -9.32756e-19)
(14.6836 5.39013 0)
(14.6772 5.42135 5.11187e-19)
(14.652 5.45937 -6.80985e-18)
(14.6037 5.49946 2.37657e-19)
(14.5412 5.53869 1.07996e-17)
(14.461 5.57012 -1.44324e-18)
(14.3717 5.58854 4.03049e-19)
(14.2841 5.59185 2.76992e-18)
(14.2094 5.58076 0)
(14.1561 5.5582 -5.15095e-18)
(14.127 5.52551 6.49619e-19)
(14.126 5.47362 3.66605e-19)
(14.1764 5.41894 0)
(14.2764 5.40358 1.01408e-17)
(14.3896 5.4519 -8.10607e-18)
(14.4873 5.5643 0)
(14.5548 5.72721 -3.70418e-18)
(14.5855 5.92177 0)
(14.5791 6.12755 3.20883e-18)
(14.5395 6.32902 0)
(14.4773 6.50788 -1.37432e-18)
(14.3966 6.67163 8.51255e-19)
(14.3141 6.7666 1.10774e-18)
(14.6882 5.39631 0)
(14.6839 5.4283 0)
(14.6618 5.4706 -5.67193e-19)
(14.6141 5.51664 5.19476e-19)
(14.5513 5.56412 -1.22964e-17)
(14.4667 5.60586 -1.00822e-17)
(14.3688 5.63587 0)
(14.2683 5.65092 -2.53134e-18)
(14.1771 5.64953 0)
(14.1062 5.63199 9.83247e-18)
(14.0609 5.59663 6.87817e-18)
(14.0478 5.5271 -6.91327e-18)
(14.1028 5.43949 -7.71664e-19)
(14.2293 5.389 0)
(14.3796 5.41111 8.56975e-18)
(14.514 5.50892 6.33953e-18)
(14.6131 5.66682 -5.47948e-19)
(14.6704 5.8629 4.01527e-18)
(14.6869 6.07393 3.44772e-18)
(14.6672 6.28293 0)
(14.6223 6.46975 8.201e-19)
(14.5552 6.64445 3.83961e-20)
(14.4832 6.74868 -6.38241e-19)
(14.6936 5.4028 -5.03119e-20)
(14.6902 5.43456 -6.66688e-18)
(14.6698 5.48022 7.02039e-18)
(14.6213 5.53063 0)
(14.5572 5.58343 -2.35411e-19)
(14.4683 5.63127 -1.14107e-18)
(14.3643 5.6672 8.12385e-18)
(14.2562 5.68752 0)
(14.1571 5.68988 0)
(14.0789 5.67384 -4.77261e-18)
(14.0269 5.63687 -7.30585e-18)
(14.0071 5.55561 -3.07287e-19)
(14.0658 5.44503 8.4067e-18)
(14.2105 5.37111 -2.76429e-19)
(14.3851 5.37665 -1.14608e-18)
(14.5449 5.46539 1.02033e-18)
(14.6689 5.62003 -3.99826e-18)
(14.7497 5.81701 -3.71375e-18)
(14.7879 6.03152 -3.95542e-18)
(14.7874 6.24584 -2.74303e-18)
(14.7597 6.43786 8.80943e-19)
(14.7061 6.62055 -3.93082e-18)
(14.6468 6.73109 7.11883e-19)
(14.6991 5.40871 -5.19159e-18)
(14.6961 5.44005 7.56684e-18)
(14.6777 5.48903 -2.17298e-19)
(14.6288 5.5439 -8.94906e-18)
(14.5639 5.60196 4.13789e-19)
(14.4716 5.65586 1.13758e-17)
(14.3626 5.6973 -1.62038e-17)
(14.2483 5.72206 -2.09417e-19)
(14.1425 5.72688 8.55634e-20)
(14.058 5.71091 -4.58682e-18)
(13.999 5.67144 3.28928e-19)
(13.9705 5.57757 -8.89794e-18)
(14.0308 5.44266 -7.57113e-18)
(14.1924 5.34475 0)
(14.3903 5.33447 9.44006e-18)
(14.5752 5.4149 -1.32446e-17)
(14.7245 5.56627 -7.64061e-19)
(14.8298 5.76338 3.62163e-18)
(14.891 5.98025 -2.00482e-20)
(14.9112 6.19888 3.47964e-18)
(14.9024 6.39484 0)
(14.8643 6.58427 1.1784e-18)
(14.8201 6.70001 0)
(14.7044 5.4139 8.96058e-18)
(14.7017 5.44476 8.34279e-18)
(14.6853 5.49693 -4.11811e-19)
(14.6364 5.55627 1.81026e-17)
(14.571 5.61947 -8.46448e-18)
(14.4759 5.67946 3.73693e-19)
(14.3626 5.72647 8.63184e-18)
(14.2428 5.75577 -3.92792e-20)
(14.1311 5.76301 -2.36617e-21)
(14.0407 5.74693 4.70365e-18)
(13.9748 5.70497 0)
(13.936 5.59794 8.23067e-18)
(13.9959 5.43724 7.34158e-19)
(14.1735 5.31398 -3.79788e-19)
(14.3947 5.2869 -9.88448e-18)
(14.6049 5.35825 2.79543e-19)
(14.7797 5.50536 3.60854e-18)
(14.9098 5.70122 -5.86189e-18)
(14.9945 5.91881 0)
(15.0366 6.14025 -2.30395e-18)
(15.0483 6.33863 3.023e-18)
(15.0272 6.53307 0)
(14.9999 6.65273 -1.71214e-18)
(14.7099 5.41766 -3.0362e-18)
(14.707 5.44883 4.77635e-19)
(14.6929 5.50391 -4.29114e-19)
(14.6442 5.56768 -8.87611e-18)
(14.5785 5.63597 1.68675e-17)
(14.4809 5.70223 -8.65793e-20)
(14.3637 5.75518 -1.4735e-19)
(14.2387 5.78965 -5.34523e-18)
(14.121 5.80016 5.9888e-20)
(14.0246 5.78488 0)
(13.9511 5.74084 8.04789e-18)
(13.9008 5.61928 2.35071e-19)
(13.96 5.42977 3.02603e-19)
(14.153 5.27941 7.8078e-20)
(14.3971 5.23447 -9.56808e-19)
(14.6329 5.29518 7.25952e-18)
(14.8333 5.43633 -3.87516e-18)
(14.9883 5.62929 -4.92932e-19)
(15.0972 5.84577 -1.18537e-18)
(15.1623 6.0683 3.15528e-18)
(15.1961 6.26741 -2.11923e-18)
(15.1934 6.46484 4.26545e-18)
(15.1846 6.5868 -2.77596e-18)
(14.7152 5.42039 -3.01254e-18)
(14.712 5.45242 -8.43059e-18)
(14.7001 5.51018 -2.57322e-20)
(14.6518 5.57828 -1.00029e-17)
(14.5858 5.65153 -1.76586e-17)
(14.4862 5.72404 9.01229e-20)
(14.3654 5.78302 1.55922e-19)
(14.2356 5.82284 -3.83745e-19)
(14.1124 5.83689 1.14507e-18)
(14.01 5.82304 2.3464e-18)
(13.9283 5.77826 -8.48093e-18)
(13.8638 5.64275 -9.02398e-18)
(13.9203 5.42146 8.6735e-18)
(14.1298 5.23994 0)
(14.3962 5.17567 5.42157e-18)
(14.657 5.22439 0)
(14.8833 5.35764 5.22392e-18)
(15.0639 5.54564 3.11186e-18)
(15.1979 5.7589 -3.25619e-20)
(15.2875 5.98057 -3.41023e-18)
(15.3445 6.1786 -4.4238e-20)
(15.3618 6.37676 1.23344e-20)
(15.3734 6.49927 -1.06817e-18)
(14.7203 5.42243 -3.76165e-20)
(14.7167 5.45561 -9.67442e-20)
(14.707 5.51584 2.60982e-20)
(14.6593 5.58814 1.00047e-17)
(14.5933 5.6663 8.9444e-18)
(14.492 5.74508 0)
(14.368 5.81024 -7.51105e-20)
(14.2337 5.85568 5.76967e-18)
(14.1051 5.87356 1.50515e-19)
(13.997 5.86167 -2.34757e-18)
(13.9063 5.81697 4.38448e-18)
(13.825 5.66736 1.39902e-17)
(13.8758 5.41269 -8.36836e-18)
(14.1011 5.19639 6.97716e-18)
(14.3914 5.10944 4.65763e-19)
(14.6773 5.14464 4.10067e-20)
(14.9295 5.2683 -3.07844e-19)
(15.1366 5.44923 -9.48881e-19)
(15.297 5.65688 6.34147e-19)
(15.4121 5.87542 -9.85735e-19)
(15.4929 6.07026 -5.02895e-20)
(15.5319 6.26647 8.45824e-19)
(15.5646 6.38785 0)
(14.725 5.42397 -2.916e-20)
(14.7212 5.45846 0)
(14.7137 5.52099 0)
(14.6667 5.59736 1.05099e-17)
(14.6009 5.68034 9.71419e-18)
(14.4982 5.76538 -8.07686e-18)
(14.3712 5.8368 -8.57402e-20)
(14.2329 5.88797 2.93546e-20)
(14.0993 5.90989 -1.3364e-18)
(13.9855 5.90038 -7.40904e-20)
(13.8851 5.85667 1.8107e-19)
(13.7843 5.69268 -4.72914e-18)
(13.8268 5.40216 0)
(14.0671 5.14869 -7.40682e-18)
(14.382 5.03598 -1.13062e-17)
(14.6952 5.05498 -4.37133e-18)
(14.9748 5.16748 -2.54159e-18)
(15.2093 5.33945 0)
(15.397 5.53915 0)
(15.5384 5.75232 1.8611e-18)
(15.6448 5.94148 1.28558e-18)
(15.7078 6.133 -2.6374e-18)
(15.7642 6.24975 0)
(14.7293 5.4251 3.19314e-18)
(14.7254 5.46101 -5.08496e-20)
(14.7201 5.52569 1.32827e-20)
(14.6739 5.60601 -1.04636e-17)
(14.6085 5.69375 -1.9595e-17)
(14.5048 5.78505 1.62985e-17)
(14.3752 5.86282 8.93273e-20)
(14.233 5.91988 3.14365e-20)
(14.0947 5.94601 -4.1923e-20)
(13.9754 5.93935 0)
(13.8646 5.89765 -4.38758e-18)
(13.7413 5.71898 4.87942e-18)
(13.773 5.38952 0)
(14.0282 5.09566 0)
(14.3684 4.95503 5.32541e-18)
(14.7099 4.95516 3.90028e-19)
(15.0186 5.05374 2.87132e-18)
(15.2819 5.21476 2.06637e-18)
(15.4973 5.40454 -2.87558e-18)
(15.6657 5.61019 -1.0091e-18)
(15.7972 5.79246 3.99907e-18)
(15.8806 5.97523 -3.64718e-18)
(15.9543 6.09099 2.40872e-18)
(14.7332 5.42589 -1.67339e-18)
(14.7294 5.46329 -4.767e-18)
(14.7263 5.52998 -5.51191e-20)
(14.6811 5.61412 7.27994e-20)
(14.6162 5.70657 1.00186e-17)
(14.5118 5.80413 -8.40343e-18)
(14.3799 5.88839 4.34554e-20)
(14.2342 5.95152 -2.42947e-20)
(14.0914 5.98209 -4.47305e-20)
(13.9668 5.97882 3.82044e-20)
(13.8449 5.94039 -5.11625e-20)
(13.6958 5.74685 -4.90257e-18)
(13.7136 5.37486 4.84352e-18)
(13.9838 5.03651 -2.2185e-19)
(14.3507 4.86527 0)
(14.7221 4.84431 -3.92704e-19)
(15.0613 4.9266 3.59695e-19)
(15.3541 5.07391 -2.04337e-18)
(15.598 5.25091 3.54447e-18)
(15.7942 5.44591 1.99215e-18)
(15.9489 5.62059 -1.32267e-18)
(16.0508 5.78995 -1.87036e-18)
(16.1415 5.90461 2.39387e-18)
(14.7368 5.42644 -5.42021e-20)
(14.7332 5.46533 4.81282e-18)
(14.7322 5.53391 0)
(14.6881 5.62175 0)
(14.6239 5.71883 0)
(14.5191 5.82266 0)
(14.3852 5.91351 -4.53408e-20)
(14.2362 5.98287 4.24868e-20)
(14.0891 6.01806 2.38157e-20)
(13.9593 6.01871 3.86751e-20)
(13.8258 5.98503 -5.18144e-20)
(13.647 5.77654 0)
(13.6475 5.35795 -9.47233e-18)
(13.933 4.97038 2.75234e-19)
(14.328 4.76533 -5.58176e-19)
(14.7308 4.72073 4.83837e-18)
(15.1017 4.78435 -3.67922e-19)
(15.4243 4.91509 5.53542e-19)
(15.6971 5.07603 -6.65741e-19)
(15.9196 5.25685 1.02253e-18)
(16.0961 5.422 -1.3905e-18)
(16.2185 5.57251 0)
(16.3277 5.68195 1.23516e-18)
(14.7401 5.42678 3.44995e-18)
(14.7368 5.46715 2.44397e-18)
(14.7379 5.53749 3.55667e-20)
(14.6952 5.62891 -5.79861e-18)
(14.632 5.73057 -5.39699e-18)
(14.5271 5.84068 -3.73838e-20)
(14.3916 5.93825 6.76857e-18)
(14.2395 6.014 -3.85302e-18)
(14.0883 6.05406 -1.02185e-18)
(13.9536 6.05927 0)
(13.8076 6.03214 9.86631e-20)
(13.5949 5.8088 -5.21707e-18)
(13.5734 5.33893 4.97964e-18)
(13.8739 4.89667 3.92271e-18)
(14.2982 4.65416 3.15137e-18)
(14.7338 4.58297 0)
(15.1372 4.62514 0)
(15.4891 4.73583 -2.19148e-18)
(15.7894 4.87716 -2.2448e-18)
(16.0374 5.03968 1.04308e-18)
(16.2392 5.19162 7.11518e-19)
(16.3859 5.3208 9.31151e-19)
(16.512 5.41813 -1.2287e-18)
(14.743 5.42704 -1.75551e-18)
(14.7401 5.46883 -2.46438e-18)
(14.7432 5.54086 2.93569e-20)
(14.7018 5.63577 -1.34719e-19)
(14.6396 5.74197 5.41416e-18)
(14.5345 5.85838 4.64339e-18)
(14.3973 5.96273 -3.21627e-18)
(14.2424 6.04497 3.84556e-18)
(14.0877 6.08988 1.05817e-18)
(13.9489 6.0999 -1.0418e-20)
(13.7903 6.08117 0)
(13.5386 5.84304 5.11502e-18)
(13.4909 5.31636 4.92731e-18)
(13.8073 4.81321 -4.18429e-18)
(14.262 4.52956 -2.73632e-18)
(14.7306 4.42888 -1.14688e-18)
(15.165 4.44679 -8.43911e-19)
(15.5439 4.53428 4.40413e-18)
(15.8723 4.6524 0)
(16.1493 4.79036 0)
(16.377 4.92251 7.28395e-19)
(16.5453 5.03207 -1.81317e-18)
(16.6836 5.1176 -1.22382e-18)
(14.7458 5.42702 1.80949e-18)
(14.7437 5.47016 0)
(14.7492 5.54369 0)
(14.7098 5.64192 1.19494e-17)
(14.6496 5.75261 -5.59362e-18)
(14.5457 5.87558 -4.76322e-18)
(14.4082 5.98756 9.96046e-20)
(14.2511 6.07733 -2.07687e-18)
(14.0919 6.12801 -2.57042e-20)
(13.9473 6.14429 -1.02254e-18)
(13.7737 6.13708 9.98905e-20)
(13.4756 5.8853 -1.35958e-19)
(13.3922 5.29563 -4.97452e-18)
(13.7228 4.72296 4.36181e-18)
(14.211 4.3923 3.09597e-18)
(14.7146 4.2581 -2.38777e-18)
(15.1803 4.2485 1.99855e-18)
(15.5883 4.30857 -2.21625e-18)
(15.9494 4.39815 0)
(16.2557 4.50718 0)
(16.4968 4.61372 -6.90848e-19)
(16.6759 4.70187 4.65959e-19)
(16.8266 4.77636 -1.22527e-18)
(14.748 5.42763 3.21966e-20)
(14.7457 5.47219 2.59696e-18)
(14.7521 5.54759 0)
(14.7126 5.64924 -2.96149e-18)
(14.6517 5.76428 1.14504e-17)
(14.5464 5.89281 -4.07904e-20)
(14.406 6.00911 1.76262e-19)
(14.2455 6.10039 2.1264e-18)
(14.0851 6.15039 -3.08494e-20)
(13.9418 6.16907 1.05909e-18)
(13.7606 6.17529 -5.2042e-20)
(13.4146 5.91102 -2.45723e-18)
(13.2974 5.25458 -3.26246e-19)
(13.646 4.61194 -4.15556e-18)
(14.164 4.2365 -3.55849e-18)
(14.6953 4.06822 2.34871e-19)
(15.1886 4.02849 0)
(15.6277 4.05661 -2.95915e-19)
(16.0122 4.11181 3.75467e-19)
(16.3356 4.19421 0)
(16.5838 4.27643 7.06871e-19)
(16.7718 4.33208 -4.61118e-19)
(16.9377 4.37811 0)
(14.7503 5.42541 -1.85371e-18)
(14.7496 5.47051 -2.60499e-18)
(14.7592 5.54584 0)
(14.7231 5.64971 -3.083e-18)
(14.6658 5.76931 -1.17375e-17)
(14.5627 5.9066 -5.0678e-18)
(14.4222 6.0367 -7.54882e-18)
(14.2589 6.14743 0)
(14.0919 6.2185 -1.57442e-18)
(13.9392 6.25784 -8.67379e-19)
(13.7361 6.28354 2.36988e-18)
(13.3319 6.0053 2.59752e-18)
(13.162 5.26497 -4.81395e-20)
(13.5267 4.51976 6.25894e-20)
(14.0876 4.07585 -3.48399e-18)
(14.6561 3.8632 2.40832e-18)
(15.1864 3.78712 0)
(15.6554 3.7822 1.15046e-18)
(16.0509 3.80074 0)
(16.3822 3.84307 0)
(16.6419 3.88496 -6.98302e-19)
(16.844 3.8996 -1.43429e-18)
(17.0247 3.91222 1.20001e-18)
(14.7518 5.42491 0)
(14.7512 5.47084 1.15054e-22)
(14.7616 5.54678 -3.98888e-22)
(14.7261 5.6524 3.21088e-18)
(14.6692 5.77475 2.89186e-18)
(14.5662 5.91677 5.07088e-18)
(14.4251 6.05432 3.82741e-18)
(14.2594 6.17541 1.67012e-21)
(14.089 6.25793 7.19426e-19)
(13.9325 6.31048 6.76312e-20)
(13.7164 6.35536 4.46247e-21)
(13.2606 6.06951 0)
(13.0428 5.25799 4.91843e-20)
(13.419 4.42342 -6.39594e-20)
(14.0136 3.91565 5.19137e-18)
(14.6134 3.65422 1.49247e-19)
(15.1783 3.53668 0)
(15.6604 3.49469 3.12027e-19)
(16.0636 3.47245 -3.81045e-19)
(16.3971 3.46696 0)
(16.6576 3.46115 0)
(16.8624 3.43068 9.59178e-19)
(17.0505 3.40512 -6.42455e-19)
(14.7534 5.42466 -1.99603e-18)
(14.7527 5.47154 -2.78154e-18)
(14.7639 5.54826 0)
(14.7289 5.65578 -3.21694e-18)
(14.6725 5.78106 3.04657e-18)
(14.5696 5.92795 5.34129e-18)
(14.4277 6.07259 -4.04527e-18)
(14.2601 6.2025 2.48037e-18)
(14.0877 6.29405 8.55546e-19)
(13.9292 6.35854 1.18254e-18)
(13.6988 6.42389 -2.3858e-18)
(13.1856 6.13002 -2.57103e-18)
(12.9129 5.24189 -2.6344e-18)
(13.3004 4.31447 0)
(13.9302 3.74303 -1.8168e-18)
(14.5629 3.43179 2.61743e-18)
(15.1604 3.27635 1.13389e-19)
(15.6466 3.19944 -1.31442e-18)
(16.052 3.13513 0)
(16.3781 3.08318 0)
(16.628 3.0338 0)
(16.8248 2.96194 -1.48131e-18)
(17.0105 2.89776 1.28958e-18)
(14.7547 5.42439 2.00063e-18)
(14.7542 5.47225 -7.02705e-20)
(14.7662 5.54978 0)
(14.7319 5.6592 3.37253e-18)
(14.6763 5.78743 3.37384e-22)
(14.5739 5.93915 -8.08076e-18)
(14.4319 6.09069 8.17933e-18)
(14.2635 6.22898 -7.55599e-18)
(14.0895 6.32925 6.33285e-23)
(13.9291 6.40638 -3.79936e-19)
(13.6835 6.49501 -1.24258e-18)
(13.1074 6.19406 2.59843e-18)
(12.7723 5.2228 2.64285e-18)
(13.1711 4.19562 -2.52226e-18)
(13.8387 3.55847 3.1865e-20)
(14.5072 3.1967 -2.68119e-18)
(15.1313 3.00657 0)
(15.6201 2.8994 0)
(16.0192 2.7959 8.01457e-19)
(16.3274 2.70066 0)
(16.5609 2.61324 0)
(16.7472 2.50724 2.44847e-19)
(16.9225 2.4095 6.4141e-19)
(14.7559 5.4241 0)
(14.7556 5.47293 2.86377e-18)
(14.7685 5.55126 -8.70507e-23)
(14.735 5.66255 6.73787e-20)
(14.6801 5.7937 2.30604e-22)
(14.5784 5.95023 5.51502e-18)
(14.4365 6.10865 -4.13349e-18)
(14.2672 6.25535 5.07851e-18)
(14.092 6.3645 9.42465e-19)
(13.9304 6.45521 0)
(13.6693 6.57028 1.2396e-18)
(13.0247 6.26353 5.46739e-21)
(12.6196 5.20193 2.14672e-21)
(13.0307 4.06676 2.5546e-18)
(13.7389 3.36064 0)
(14.4493 2.94898 1.41727e-18)
(15.095 2.72866 -2.77455e-20)
(15.5799 2.5964 0)
(15.9656 2.459 -8.10053e-19)
(16.2536 2.32419 0)
(16.4673 2.20125 0)
(16.6426 2.07273 0)
(16.7995 1.95693 -1.40403e-20)
(14.7571 5.42378 0)
(14.7571 5.47358 -1.49747e-18)
(14.7707 5.55268 1.69994e-23)
(14.738 5.66581 -3.45218e-18)
(14.6841 5.79985 -3.32414e-18)
(14.5832 5.96116 -5.60982e-18)
(14.4415 6.12646 0)
(14.2715 6.28158 2.5919e-18)
(14.0955 6.39975 -1.8899e-18)
(13.9336 6.50509 -1.60127e-22)
(13.6567 6.65012 1.31176e-18)
(12.9368 6.33914 -1.32028e-18)
(12.4523 5.17936 0)
(12.8763 3.92698 0)
(13.628 3.14747 2.09963e-18)
(14.3896 2.68768 -1.40958e-18)
(15.0502 2.44485 0)
(15.522 2.29385 -1.17894e-18)
(15.8941 2.12548 -8.01661e-19)
(16.1645 1.95652 0)
(16.3515 1.80279 1.15851e-20)
(16.5066 1.66334 4.14956e-22)
(16.6421 1.54723 -3.43702e-19)
(14.7583 5.42344 -1.38152e-23)
(14.7585 5.47419 3.0286e-18)
(14.7731 5.55404 4.2658e-23)
(14.7412 5.66897 0)
(14.6883 5.80584 -5.09332e-20)
(14.5882 5.9719 5.69226e-18)
(14.4469 6.14407 9.90321e-22)
(14.2764 6.30761 -2.59435e-18)
(14.1 6.43491 9.46747e-19)
(13.9385 6.556 4.02089e-19)
(13.6455 6.7349 3.25862e-20)
(12.8428 6.4215 2.65064e-18)
(12.2682 5.15496 -2.7348e-18)
(12.705 3.77556 9.19309e-21)
(13.5055 2.91769 -4.33504e-18)
(14.3306 2.41441 1.50188e-18)
(14.9916 2.15836 -5.72405e-20)
(15.4464 1.99169 1.23419e-18)
(15.8094 1.79403 8.06372e-19)
(16.0614 1.60394 0)
(16.218 1.43451 3.42246e-19)
(16.3413 1.28625 0)
(16.4541 1.17501 -1.39044e-19)
(14.7595 5.42307 0)
(14.76 5.47477 -1.53105e-18)
(14.7754 5.55533 -1.72862e-18)
(14.7444 5.67201 -1.86153e-22)
(14.6925 5.81168 6.81891e-18)
(14.5933 5.98245 -2.86808e-18)
(14.4526 6.16146 0)
(14.2817 6.33341 0)
(14.1054 6.46996 2.60597e-23)
(13.9452 6.60802 -4.02218e-19)
(13.6358 6.82501 2.83988e-20)
(12.742 6.51148 -1.32842e-18)
(12.0649 5.1287 2.78227e-18)
(12.5143 3.61047 0)
(13.3733 2.66916 2.22204e-18)
(14.2748 2.13232 -1.47338e-18)
(14.9195 1.87294 8.32975e-19)
(15.3652 1.69052 7.23196e-20)
(15.7166 1.46686 0)
(15.9391 1.26772 0)
(16.0717 1.10159 -1.78762e-19)
(16.1635 0.950491 -4.33535e-19)
(16.2543 0.838507 3.00367e-19)
(14.7607 5.42268 0)
(14.7614 5.4753 6.73396e-23)
(14.7777 5.55655 1.7314e-18)
(14.7476 5.67494 -1.85017e-18)
(14.6967 5.81736 -3.43771e-18)
(14.5986 5.9928 -6.4869e-22)
(14.4585 6.17862 -2.17e-18)
(14.2875 6.35897 -1.31437e-18)
(14.1116 6.5049 9.57413e-19)
(13.9537 6.66114 0)
(13.6275 6.92078 2.43556e-20)
(12.634 6.60962 -1.27943e-18)
(11.8406 5.10034 0)
(12.3026 3.42877 -5.3759e-20)
(13.2366 2.39761 2.44169e-18)
(14.2172 1.84196 0)
(14.8361 1.58843 -1.3564e-19)
(15.2839 1.39013 -2.21853e-21)
(15.6195 1.15395 9.07471e-19)
(15.8081 0.951297 0)
(15.9152 0.793744 0)
(15.9882 0.646258 2.1838e-19)
(16.0623 0.53026 -6.83961e-19)
(14.7618 5.42225 2.93736e-23)
(14.7629 5.47579 -3.87125e-23)
(14.7799 5.5577 0)
(14.7507 5.67777 -1.90757e-18)
(14.701 5.82288 1.74437e-21)
(14.604 6.00294 -1.31451e-21)
(14.4646 6.19555 2.1713e-18)
(14.2936 6.38428 1.31691e-18)
(14.1186 6.53966 -9.58015e-19)
(13.964 6.71529 -3.85539e-19)
(13.621 7.02243 -1.40515e-18)
(12.5186 6.71648 1.30458e-18)
(11.5923 5.06963 1.2725e-18)
(12.0681 3.22899 1.48458e-18)
(13.1024 2.10278 -2.42949e-18)
(14.1512 1.53997 9.2877e-20)
(14.7493 1.30379 -9.96395e-19)
(15.2012 1.09109 -3.9763e-19)
(15.5135 0.852646 -3.91137e-19)
(15.6839 0.659106 2.31212e-19)
(15.7608 0.507633 -3.00927e-19)
(15.824 0.360564 0)
(15.8837 0.246053 2.5739e-19)
(14.7629 5.4218 0)
(14.7642 5.47625 -1.6501e-18)
(14.7822 5.55879 -1.82607e-18)
(14.7539 5.68048 1.85605e-18)
(14.7053 5.82824 -1.79469e-18)
(14.6095 6.01287 0)
(14.471 6.21223 -2.02966e-21)
(14.3001 6.40931 2.69789e-21)
(14.1265 6.57415 -4.9048e-19)
(13.9764 6.77034 5.73839e-19)
(13.6165 7.13077 -1.43848e-18)
(12.3952 6.83455 -9.03385e-21)
(11.3178 5.03907 -8.82262e-20)
(11.8139 3.01382 -1.59343e-18)
(12.979 1.78825 0)
(14.0783 1.22521 1.46458e-18)
(14.6743 1.01416 -8.34526e-19)
(15.1214 0.798369 5.42128e-19)
(15.4038 0.562152 1.38778e-19)
(15.5632 0.382601 -1.10053e-21)
(15.6186 0.241389 -2.79379e-19)
(15.6735 0.0942301 1.71615e-19)
(15.7194 -0.0115733 2.39806e-19)
(14.764 5.42133 -6.34834e-19)
(14.7656 5.47666 -2.864e-20)
(14.7844 5.55981 1.82887e-18)
(14.7571 5.68308 1.91064e-18)
(14.7096 5.83344 3.61647e-18)
(14.6151 6.02258 3.04419e-18)
(14.4776 6.22866 2.04216e-21)
(14.3069 6.43405 -2.71408e-21)
(14.1352 6.60828 4.90687e-19)
(13.9911 6.82656 -1.85658e-19)
(13.6146 7.24819 2.91075e-18)
(12.2645 6.96754 -1.15431e-18)
(11.0149 5.00217 -1.28625e-18)
(11.5365 2.77818 1.68246e-18)
(12.868 1.45648 -7.92669e-20)
(14.0028 0.909838 -1.30167e-18)
(14.609 0.721632 8.36105e-19)
(15.0475 0.51225 -7.27536e-19)
(15.3046 0.285243 -1.66375e-19)
(15.4419 0.120574 0)
(15.4877 -0.00816886 2.51738e-19)
(15.5317 -0.153391 -3.52197e-19)
(15.5641 -0.244337 4.42813e-19)
(14.765 5.42083 6.35676e-19)
(14.767 5.47704 2.53959e-18)
(14.7865 5.56077 1.8902e-18)
(14.7602 5.68557 -1.96593e-18)
(14.714 5.83847 -1.82145e-18)
(14.6208 6.03207 -3.04707e-18)
(14.4844 6.24483 -2.23717e-18)
(14.3141 6.45845 0)
(14.1449 6.64211 -5.0585e-19)
(14.0086 6.88464 -1.62993e-19)
(13.6161 7.37575 -1.46569e-18)
(12.1254 7.11381 1.16851e-18)
(10.6783 4.93541 0)
(11.237 2.48057 -1.62488e-18)
(12.7644 1.12233 1.1885e-18)
(13.9279 0.601709 -7.03903e-19)
(14.5435 0.435818 1.8829e-19)
(14.9806 0.234291 2.44031e-19)
(15.2236 0.0223611 -5.3636e-19)
(15.3291 -0.128922 3.56272e-19)
(15.3701 -0.243347 0)
(15.402 -0.378115 -5.91042e-19)
(15.4213 -0.454081 8.39767e-19)
(14.766 5.42031 0)
(14.7683 5.47738 -8.57158e-19)
(14.7887 5.56166 -1.8921e-18)
(14.7633 5.68795 1.96859e-18)
(14.7184 5.84334 2.50392e-22)
(14.6267 6.04134 -1.38068e-21)
(14.4914 6.26073 1.11136e-18)
(14.3217 6.48252 0)
(14.1558 6.67578 5.05952e-19)
(14.029 6.94463 1.37506e-20)
(13.6214 7.50802 0)
(11.9756 7.2639 -5.13788e-19)
(10.302 4.85787 0)
(10.9327 2.12352 1.35928e-19)
(12.6628 0.761106 -2.7013e-18)
(13.8568 0.279418 5.27299e-19)
(14.4849 0.157818 1.73465e-19)
(14.9138 -0.0373746 -6.14041e-19)
(15.1568 -0.231394 2.66134e-19)
(15.236 -0.368872 2.87937e-19)
(15.265 -0.471335 -4.5866e-19)
(15.2853 -0.586622 3.2841e-19)
(15.294 -0.64403 -1.26117e-18)
(14.767 5.41976 6.75252e-19)
(14.7696 5.47768 -8.86949e-19)
(14.7908 5.56248 9.75602e-19)
(14.7665 5.69022 1.02519e-21)
(14.7228 5.84804 -1.86018e-21)
(14.6326 6.05039 3.00459e-21)
(14.4987 6.27636 1.12627e-18)
(14.3296 6.50627 -4.75423e-21)
(14.1677 6.70919 2.64978e-21)
(14.0524 7.00519 1.54346e-20)
(13.6303 7.64237 -7.6825e-19)
(11.8156 7.42113 5.03975e-19)
(9.88042 4.80586 2.86318e-20)
(10.6325 1.75687 -1.4037e-19)
(12.5607 0.320507 1.52227e-18)
(13.7974 -0.0638136 0)
(14.4395 -0.120997 3.18628e-19)
(14.8467 -0.307145 3.96744e-19)
(15.0908 -0.473642 -1.92691e-19)
(15.1587 -0.594267 4.76879e-19)
(15.1691 -0.691692 -2.13493e-19)
(15.1739 -0.789458 3.42894e-20)
(15.1738 -0.826345 4.98571e-19)
(14.7679 5.4192 -1.36447e-18)
(14.7709 5.47795 8.8811e-19)
(14.7929 5.56324 1.41411e-20)
(14.7696 5.69239 0)
(14.7273 5.85258 0)
(14.6386 6.0592 1.59099e-18)
(14.5061 6.29173 1.14125e-18)
(14.338 6.52969 0)
(14.1808 6.74191 4.48486e-22)
(14.079 7.06531 1.3256e-19)
(13.6433 7.7868 7.77253e-19)
(11.648 7.6005 -1.63257e-20)
(9.40723 4.75941 -6.49923e-20)
(10.3093 1.40547 2.28503e-19)
(12.4725 -0.153699 -1.49576e-19)
(13.7663 -0.448972 0)
(14.4174 -0.432676 -4.55587e-19)
(14.7947 -0.566101 -3.3662e-20)
(15.0216 -0.696056 -4.45425e-19)
(15.0852 -0.802175 1.84395e-19)
(15.0822 -0.88966 1.66952e-19)
(15.0773 -0.974562 -2.69089e-19)
(15.0775 -0.997591 0)
(14.7689 5.41861 1.39089e-18)
(14.7721 5.47818 -8.8195e-23)
(14.795 5.56394 -9.9237e-19)
(14.7727 5.69444 0)
(14.7318 5.85695 0)
(14.6448 6.06779 1.37312e-20)
(14.5138 6.30682 -2.28897e-18)
(14.3466 6.55274 0)
(14.195 6.7735 -2.67799e-19)
(14.1093 7.12586 0)
(13.6608 7.95188 0)
(11.4674 7.79144 -1.11783e-20)
(8.88764 4.63312 2.1619e-20)
(9.9556 1.13494 8.00255e-19)
(12.3685 -0.592274 1.42053e-19)
(13.7519 -0.890996 -1.13833e-19)
(14.4281 -0.771306 4.07391e-19)
(14.7798 -0.816857 0)
(14.974 -0.919595 1.27943e-19)
(15.023 -1.00217 0)
(15.0082 -1.06056 -4.48436e-22)
(14.9948 -1.12996 1.08674e-20)
(14.9935 -1.14611 0)
(14.7698 5.41801 -1.05981e-18)
(14.7734 5.47838 4.66829e-19)
(14.797 5.56458 0)
(14.7758 5.69639 -1.04898e-18)
(14.7363 5.86116 9.76969e-19)
(14.651 6.07615 -1.60878e-18)
(14.5216 6.32165 1.14982e-18)
(14.3556 6.57532 6.83857e-19)
(14.2104 6.8037 2.65018e-19)
(14.1438 7.18784 -5.5651e-21)
(13.6821 8.13991 7.54432e-21)
(11.2763 8.00668 3.49358e-19)
(8.37204 4.37822 5.86372e-20)
(9.65292 0.741143 -1.21287e-18)
(12.2416 -1.05222 1.27899e-19)
(13.7569 -1.2971 0)
(14.4733 -1.08904 0)
(14.7946 -1.08605 0)
(14.9561 -1.15277 0)
(14.9928 -1.1946 1.83655e-20)
(14.9615 -1.22339 6.61446e-20)
(14.9305 -1.27456 -1.04784e-19)
(14.9243 -1.27354 0)
(14.7707 5.41738 3.57801e-19)
(14.7746 5.47854 -9.41898e-19)
(14.799 5.56515 0)
(14.7788 5.69823 1.05053e-18)
(14.7408 5.86521 -1.96724e-18)
(14.6573 6.08428 0)
(14.5296 6.3362 0)
(14.3648 6.59732 -6.82016e-19)
(14.2271 6.83229 0)
(14.1838 7.25307 -1.88434e-20)
(13.7111 8.34907 -4.20933e-19)
(11.0581 8.26559 -2.05223e-19)
(7.75478 4.14648 -1.76177e-19)
(9.31136 -0.0268928 0)
(12.1647 -1.5728 0)
(13.8036 -1.60816 5.73032e-20)
(14.5377 -1.37977 -7.06696e-20)
(14.824 -1.36034 0)
(14.9625 -1.3771 5.27427e-20)
(14.9844 -1.38003 -1.81925e-20)
(14.9391 -1.38003 -2.50153e-19)
(14.889 -1.41823 3.02475e-19)
(14.8717 -1.41269 0)
(14.7715 5.41674 -7.04254e-23)
(14.7758 5.47867 9.57606e-19)
(14.801 5.56567 3.36937e-22)
(14.7819 5.69996 5.36635e-19)
(14.7453 5.86909 9.90247e-19)
(14.6638 6.09218 -8.27023e-19)
(14.5378 6.35048 -2.22063e-21)
(14.3743 6.61855 3.44818e-19)
(14.2453 6.85913 -2.8051e-19)
(14.2294 7.32789 2.53649e-20)
(13.7427 8.59615 4.12055e-19)
(10.8292 8.46033 -1.57632e-19)
(7.08538 3.80761 2.09273e-19)
(8.94211 -0.77789 -1.0567e-19)
(12.1595 -2.07501 8.43624e-20)
(13.8779 -1.93088 1.85008e-20)
(14.6044 -1.66181 -2.28892e-20)
(14.8611 -1.58133 0)
(14.9695 -1.55678 -5.23092e-20)
(14.9701 -1.54418 0)
(14.9199 -1.52218 3.69155e-20)
(14.8597 -1.53972 0)
(14.8259 -1.53448 2.58115e-20)
(14.7723 5.41608 -1.88988e-19)
(14.777 5.47876 -4.82698e-19)
(14.803 5.56612 -5.33439e-19)
(14.7849 5.70159 4.73489e-21)
(14.7499 5.8728 1.72366e-21)
(14.6702 6.09985 -9.58456e-21)
(14.5462 6.36446 5.91703e-19)
(14.384 6.63885 3.72907e-21)
(14.2653 6.8849 2.76737e-19)
(14.2822 7.41969 -5.71419e-21)
(13.7719 8.87997 4.50836e-19)
(10.5529 8.49076 0)
(6.36307 3.06845 -1.35478e-20)
(8.5496 -1.33358 1.1651e-20)
(12.1731 -2.5259 1.07693e-19)
(13.9698 -2.30146 0)
(14.6831 -1.91971 0)
(14.8998 -1.74975 9.74579e-20)
(14.9632 -1.71143 0)
(14.9541 -1.68962 -4.02208e-19)
(14.8957 -1.63717 4.50039e-19)
(14.8299 -1.61976 -5.19669e-20)
(14.7845 -1.62205 -9.67135e-19)
(14.7731 5.41539 3.81715e-19)
(14.7781 5.47881 2.49034e-19)
(14.8049 5.56652 8.0402e-19)
(14.788 5.70312 -5.45898e-19)
(14.7544 5.87636 -5.087e-19)
(14.6768 6.10729 1.26023e-18)
(14.5547 6.3781 -5.91799e-19)
(14.394 6.6581 -3.41635e-19)
(14.2878 6.91102 -3.78e-21)
(14.3419 7.53113 1.30441e-21)
(13.7884 9.16412 -4.43192e-19)
(10.2583 8.38832 -4.40124e-20)
(5.76457 2.25868 -1.01037e-18)
(8.2657 -1.88626 -1.78261e-20)
(12.2129 -2.94966 -1.05113e-19)
(14.0862 -2.64098 0)
(14.7816 -2.15706 0)