/*--------------------------------*- C++ -*----------------------------------*\
  =========                 |
  \\      /  F ield         | OpenFOAM: The Open Source CFD Toolbox
   \\    /   O peration     | Website:  https://openfoam.org
    \\  /    A nd           | Version:  7
     \\/     M anipulation  |
\*---------------------------------------------------------------------------*/
FoamFile
{
    version     2.0;
    format      ascii;
    class       volScalarField;
    location    "60";
    object      k;
}
// * * * * * * * * * * * * * * * * * * * * * * * * * * * * * * * * * * * * * //

dimensions      [0 2 -2 0 0 0 0];

internalField   nonuniform List<scalar> 
17475
(
0.00763365
0.0124983
0.0125514
0.0125508
0.0125505
0.0125505
0.0125505
0.0125505
0.0125504
0.0125502
0.0125503
0.0125506
0.0125503
0.0125503
0.0125505
0.0125503
0.0125503
0.0125505
0.0125503
0.0125502
0.0125509
0.012551
0.0125496
0.0125516
0.012547
0.0125588
0.0125589
0.0125591
0.0125592
0.0125589
0.0125588
0.0125588
0.0125587
0.0125587
0.0125586
0.0125586
0.0125585
0.0125582
0.0125587
0.012563
0.0125696
0.0125761
0.0125822
0.0125879
0.0125929
0.0125976
0.0126018
0.0126057
0.0126093
0.0126127
0.0126157
0.0126186
0.0126208
0.0126101
0.0120188
0.000246188
0.00440862
0.00528549
0.00530422
0.00529477
0.00529044
0.0052884
0.00528712
0.00528641
0.00528589
0.00528559
0.00528532
0.00528513
0.00528499
0.00528483
0.00528475
0.00528465
0.00528457
0.00528448
0.00528444
0.00528441
0.00528436
0.00528541
0.00528319
0.00528718
0.00529115
0.00529409
0.00529426
0.00529434
0.00529392
0.00529378
0.00529377
0.00529378
0.00529379
0.00529382
0.00529378
0.00529377
0.00529352
0.00529259
0.00529347
0.00529533
0.00529748
0.00529973
0.00530191
0.00530405
0.0053061
0.00530817
0.00531029
0.00531267
0.0053155
0.00531931
0.00532462
0.0053218
0.00502949
0.00162917
3.09415e-05
0.00184694
0.00307729
0.00319517
0.00318641
0.00317748
0.00317249
0.0031695
0.00316768
0.00316639
0.00316551
0.00316484
0.00316435
0.00316391
0.00316356
0.00316326
0.00316297
0.00316271
0.00316247
0.00316222
0.00316198
0.00316228
0.00316189
0.00316345
0.00316451
0.00316594
0.00316784
0.00316867
0.00316867
0.00316851
0.00316832
0.00316836
0.00316848
0.0031686
0.00316873
0.00316886
0.00316898
0.00316868
0.00316833
0.00316861
0.0031692
0.00316997
0.00317091
0.003172
0.00317323
0.00317463
0.00317632
0.00317851
0.00318152
0.003186
0.00319297
0.00320136
0.00315723
0.00249599
0.000283011
9.87158e-06
0.000848982
0.00201193
0.00223594
0.0022443
0.00223418
0.00222737
0.00222307
0.00222023
0.00221825
0.00221687
0.00221583
0.00221498
0.00221428
0.0022137
0.00221318
0.0022127
0.00221225
0.00221183
0.00221141
0.00221129
0.0022109
0.00221158
0.00221231
0.00221306
0.00221362
0.0022143
0.00221505
0.00221531
0.00221533
0.00221515
0.00221528
0.00221551
0.00221577
0.00221604
0.00221634
0.00221662
0.0022165
0.0022165
0.00221693
0.00221744
0.00221807
0.00221887
0.00221987
0.00222111
0.00222267
0.0022247
0.00222751
0.00223157
0.00223772
0.00224684
0.00224962
0.00213791
0.00133258
8.89104e-05
4.46951e-06
0.000439633
0.00138534
0.00168587
0.00171893
0.00171191
0.00170436
0.00169924
0.00169572
0.00169324
0.00169145
0.00169007
0.00168897
0.00168803
0.00168723
0.00168652
0.00168587
0.00168523
0.00168463
0.00168423
0.00168367
0.00168385
0.00168405
0.00168428
0.00168457
0.00168493
0.00168526
0.00168557
0.00168592
0.00168607
0.00168605
0.00168629
0.00168665
0.00168705
0.00168748
0.00168796
0.00168832
0.00168837
0.00168882
0.00168942
0.00169006
0.00169081
0.00169172
0.00169285
0.00169428
0.00169613
0.00169855
0.00170191
0.00170674
0.00171383
0.00172244
0.00171119
0.00153731
0.000771375
4.18329e-05
2.4452e-06
0.000256111
0.000986377
0.00132552
0.00138417
0.00138314
0.00137584
0.00137034
0.0013664
0.00136355
0.00136147
0.00135986
0.00135853
0.0013574
0.00135641
0.00135552
0.00135471
0.00135389
0.00135325
0.0013525
0.00135229
0.00135213
0.00135198
0.00135189
0.00135186
0.00135196
0.00135208
0.00135227
0.00135252
0.00135283
0.00135297
0.00135333
0.00135383
0.00135436
0.00135495
0.00135561
0.00135603
0.00135643
0.00135715
0.00135792
0.00135872
0.00135962
0.00136068
0.00136196
0.00136361
0.00136575
0.00136848
0.0013722
0.00137746
0.00138456
0.00139004
0.0013617
0.0011445
0.000485351
2.44046e-05
1.5157e-06
0.000164651
0.00072372
0.00106962
0.00115102
0.00115745
0.00115154
0.00114603
0.00114187
0.00113878
0.00113652
0.00113473
0.00113322
0.00113193
0.00113079
0.00112973
0.00112877
0.00112789
0.00112693
0.00112632
0.00112586
0.00112545
0.00112503
0.00112468
0.00112441
0.00112432
0.00112423
0.0011243
0.00112454
0.00112497
0.00112529
0.00112573
0.00112635
0.00112704
0.00112779
0.0011286
0.00112917
0.00112988
0.0011308
0.00113173
0.0011327
0.00113375
0.00113495
0.0011364
0.00113821
0.00114058
0.00114353
0.00114736
0.0011526
0.00115921
0.00116012
0.00111495
0.00087481
0.000329898
1.60347e-05
1.02809e-06
0.000114478
0.000546945
0.000878831
0.000978656
0.00099295
0.000989223
0.000983981
0.000979824
0.000976682
0.000974277
0.000972361
0.000970671
0.00096919
0.000967954
0.000966751
0.000965652
0.000964515
0.000963606
0.000962766
0.000962057
0.000961412
0.000960749
0.000960133
0.000959644
0.000959394
0.000959156
0.000959123
0.000959331
0.000959814
0.000960317
0.000960842
0.000961595
0.000962479
0.000963421
0.000964342
0.000965125
0.000966123
0.000967234
0.000968321
0.00096945
0.000970628
0.000971979
0.000973566
0.000975519
0.000977981
0.000980917
0.000984764
0.000989942
0.000995351
0.000990941
0.000931172
0.000684712
0.000237991
1.12505e-05
7.44603e-07
8.42312e-05
0.000425279
0.000732438
0.000846021
0.000867953
0.000866983
0.00086229
0.00085823
0.000855053
0.000852636
0.000850647
0.000848773
0.000847096
0.000845807
0.000844428
0.000843028
0.000841917
0.000840724
0.000839572
0.00083859
0.000837697
0.000836733
0.000835838
0.000835223
0.000834806
0.000834369
0.000834222
0.000834419
0.000835034
0.000835694
0.000836367
0.000837265
0.00083837
0.000839497
0.000840538
0.000841636
0.00084288
0.000844111
0.000845339
0.000846657
0.000847914
0.000849327
0.000851016
0.000852987
0.000855465
0.000858478
0.000862244
0.000867096
0.000870792
0.000860922
0.000788892
0.000547334
0.000180321
8.39831e-06
5.6617e-07
6.46824e-05
0.000339523
0.000618239
0.000741021
0.000769994
0.000772143
0.000768398
0.000764355
0.000761105
0.000758796
0.000756756
0.000754789
0.000752963
0.000751636
0.000750073
0.000748553
0.000747209
0.000745583
0.000744046
0.000742793
0.000741716
0.000740465
0.000739259
0.000738408
0.000737721
0.000737008
0.000736777
0.000737067
0.00073783
0.000738657
0.000739506
0.000740543
0.000741885
0.000743178
0.000744492
0.000745959
0.000747351
0.000748563
0.000749947
0.000751459
0.000752756
0.000754163
0.000755818
0.000757777
0.000760426
0.000763516
0.000766977
0.000771255
0.000773211
0.000758302
0.000677437
0.000448091
0.0001423
6.57388e-06
4.46452e-07
5.13578e-05
0.000277626
0.000528138
0.000655973
0.000691339
0.000696574
0.000693992
0.000690009
0.000686622
0.000684423
0.000682602
0.00068077
0.000678752
0.000677288
0.000675785
0.000674064
0.000672523
0.000670525
0.000668508
0.00066688
0.000665587
0.000664128
0.000662734
0.000661605
0.000660599
0.000659498
0.000659178
0.000659565
0.000660393
0.000661348
0.000662414
0.000663736
0.000665407
0.000666777
0.000668517
0.000670123
0.000671564
0.000672789
0.000674293
0.000675812
0.000677153
0.000678507
0.000680063
0.000682332
0.000685136
0.000688298
0.000691393
0.000694977
0.000694913
0.000675575
0.00058852
0.00037454
0.000115807
5.32695e-06
3.62573e-07
4.19169e-05
0.000231911
0.000456426
0.000585869
0.000627086
0.000635012
0.000633477
0.000629669
0.000626351
0.000624414
0.000623004
0.000621227
0.000618955
0.000617368
0.000615848
0.000613824
0.000612105
0.000609748
0.000607437
0.000605648
0.00060394
0.00060216
0.000600659
0.000599417
0.000598075
0.000596731
0.000596256
0.000596524
0.000597489
0.0005986
0.000599971
0.000601582
0.00060351
0.000605128
0.00060711
0.000608979
0.000610387
0.000611528
0.000613169
0.000614807
0.000616005
0.000617072
0.000618859
0.000621608
0.000624571
0.000627786
0.000630386
0.000632965
0.000631131
0.000607741
0.000516684
0.000318989
9.66603e-05
4.4414e-06
3.01853e-07
3.50397e-05
0.000197394
0.000398845
0.000527198
0.000573594
0.000583823
0.000583616
0.000579836
0.000576216
0.000574695
0.000574213
0.000572366
0.000569977
0.000568344
0.000566483
0.000564241
0.000562358
0.0005598
0.0005575
0.000555667
0.000553371
0.000551036
0.000549853
0.000548964
0.00054696
0.000545263
0.000544989
0.000545516
0.00054628
0.000547327
0.000549138
0.000550935
0.00055294
0.00055488
0.000556952
0.000559098
0.00056061
0.000561646
0.00056268
0.000564321
0.000565704
0.000566996
0.000568711
0.000571446
0.000575057
0.0005782
0.000580198
0.00058202
0.000578552
0.000551354
0.000457894
0.000276047
8.23507e-05
3.79262e-06
2.56169e-07
2.98347e-05
0.000170732
0.000352137
0.000478129
0.000527903
0.000540028
0.000540966
0.000537395
0.0005345
0.000533191
0.00053269
0.000530966
0.000528753
0.000527024
0.000524746
0.000522368
0.000519994
0.000517307
0.000514776
0.000512645
0.000510304
0.000508022
0.000506879
0.000506454
0.000504647
0.000502597
0.00050176
0.000502181
0.000503273
0.000504813
0.000506495
0.000508279
0.000510267
0.000512275
0.000514379
0.000516564
0.000518038
0.000519233
0.000520521
0.000522062
0.000523597
0.000524981
0.000526438
0.000529106
0.000533021
0.000535765
0.000537682
0.000538562
0.000533339
0.000503197
0.000409045
0.000241701
7.10706e-05
3.26412e-06
2.20851e-07
2.57884e-05
0.000149624
0.000313638
0.000433992
0.000486226
0.000500509
0.000502129
0.000499178
0.000496411
0.000495413
0.000494982
0.000493379
0.00049132
0.000489429
0.000487086
0.000484537
0.000481872
0.000479052
0.000476431
0.00047411
0.000471995
0.000470325
0.000469793
0.000470885
0.000470768
0.000469092
0.000468435
0.000468632
0.000469311
0.000470325
0.000469895
0.000470776
0.00047257
0.000474206
0.000476195
0.000478243
0.000479953
0.000481478
0.000482807
0.000484329
0.000485916
0.000487351
0.000488855
0.000491303
0.000494866
0.000497501
0.000499177
0.000499366
0.000492332
0.000459759
0.000367513
0.000214212
6.21863e-05
2.83944e-06
1.92945e-07
2.25947e-05
0.000132529
0.000281262
0.000395004
0.000448593
0.000464524
0.000466894
0.000464494
0.000462087
0.000461242
0.000460747
0.000459229
0.000457274
0.000455289
0.00045299
0.000450416
0.000447564
0.00044473
0.000442261
0.000440088
0.000438903
0.000439127
0.000440863
0.000447683
0.000460712
0.000468968
0.000473007
0.000471493
0.000464293
0.000452729
0.000441663
0.000440662
0.000440039
0.000440677
0.000442309
0.000444054
0.000445788
0.000447442
0.000448786
0.000450169
0.000451763
0.000453232
0.000454659
0.000456892
0.000460155
0.000462677
0.000464083
0.000463547
0.000455071
0.000420598
0.000331322
0.00019143
5.48979e-05
2.49337e-06
1.68611e-07
1.99179e-05
0.000118276
0.000253401
0.000360308
0.000414315
0.000431644
0.00043474
0.000432865
0.00043081
0.00043004
0.000429441
0.00042799
0.000426142
0.000424142
0.000421968
0.000419438
0.00041648
0.000413804
0.00041176
0.000410425
0.000411345
0.00041565
0.000433164
0.000469099
0.000478823
0.000437862
0.00039551
0.000396534
0.000469365
0.000481278
0.000446126
0.000420078
0.000413713
0.000411991
0.000412263
0.000413453
0.000414963
0.000416649
0.00041799
0.000419123
0.000420616
0.000422072
0.000423483
0.000425528
0.000428473
0.000430849
0.000432053
0.000430907
0.0004212
0.00038556
0.000300207
0.000172444
4.89099e-05
2.21038e-06
1.32227e-07
1.71673e-05
0.000104918
0.00022852
0.000328655
0.000382808
0.000401414
0.00040524
0.000403847
0.000402071
0.000401317
0.000400626
0.000399229
0.000397509
0.000395579
0.000393588
0.000391115
0.000388195
0.000385857
0.000384236
0.000384351
0.000389226
0.000407805
0.000440065
0.000376078
0.000128778
2.21966e-06
1.19466e-05
0.000315798
0.000430541
0.000426616
0.000395673
0.000387155
0.000385456
0.000385803
0.00038701
0.000388673
0.000389962
0.000390927
0.000392291
0.00039363
0.000394966
0.000396816
0.000399451
0.000401661
0.000402651
0.000400954
0.000390232
0.000353846
0.000273004
0.000156055
4.37358e-05
1.96726e-06
4.8892e-08
1.21124e-05
8.90584e-05
0.000203381
0.000297677
0.000353128
0.000373304
0.000377991
0.00037708
0.000375514
0.000374751
0.000373996
0.000372649
0.000371063
0.000369284
0.000367493
0.000364968
0.000362203
0.000360139
0.000359341
0.00036138
0.000372973
0.000396865
0.000330387
9.12929e-05
3.8221e-07
0.000185834
0.000395216
0.000384985
0.000365646
0.000360867
0.00036049
0.000361309
0.000362883
0.000364203
0.000364954
0.000366185
0.000367391
0.000368607
0.000370251
0.000372602
0.000374663
0.000375486
0.000373346
0.000361862
0.000324916
0.000249084
0.000141834
3.87442e-05
1.62557e-06
6.58002e-08
1.28763e-05
8.28359e-05
0.000186268
0.000273688
0.000325309
0.000345872
0.000351156
0.000350739
0.000349275
0.000348223
0.000347437
0.000346223
0.000344508
0.000342847
0.000340858
0.00033848
0.000335998
0.000333953
0.000333644
0.000337962
0.000354067
0.000342694
0.000152977
1.08728e-05
4.68014e-05
0.000278738
0.000361048
0.000344395
0.000335779
0.000334274
0.000335302
0.000336664
0.000337968
0.000338721
0.0003398
0.000341034
0.000342202
0.000343755
0.000345887
0.000347803
0.000348464
0.000345882
0.000333608
0.000298107
0.000226847
0.000129278
3.6729e-05
1.7926e-06
9.40697e-08
1.25799e-05
7.8278e-05
0.000172554
0.00025169
0.000299842
0.00031999
0.000325397
0.000325089
0.000323787
0.000322888
0.000321896
0.000320794
0.000319259
0.000317565
0.000315534
0.000313439
0.00031119
0.000309183
0.000309224
0.000315075
0.000322678
0.000263229
8.01772e-05
5.02156e-06
7.82919e-08
3.60097e-07
2.38927e-05
0.000175921
0.000310873
0.000320733
0.000311583
0.000309352
0.000310375
0.000311442
0.000312666
0.000313346
0.000314517
0.00031571
0.000316908
0.000318444
0.000320408
0.000322324
0.000322899
0.000320045
0.000307386
0.000272697
0.000206746
0.000117741
3.31888e-05
1.51402e-06
9.49399e-08
1.14611e-05
7.15334e-05
0.000157716
0.000230105
0.000275659
0.000295712
0.000301494
0.000301429
0.000300292
0.000299473
0.000298352
0.000297232
0.000295814
0.000294145
0.000292092
0.000290092
0.000288087
0.000286048
0.000286162
0.000291648
0.0002864
0.000200648
5.58976e-05
6.49283e-06
5.47874e-07
2.49807e-07
3.44914e-07
3.93814e-07
8.05454e-07
3.01633e-06
2.00838e-05
0.00011912
0.000256066
0.00029287
0.000288989
0.000286442
0.000287453
0.000288342
0.000289383
0.000290018
0.000291198
0.000292465
0.000293706
0.000295221
0.000297117
0.000298895
0.000299273
0.000296117
0.000283179
0.00024956
0.000188525
0.000107267
2.98603e-05
1.33502e-06
8.70216e-08
1.0359e-05
6.49097e-05
0.000143848
0.000210223
0.000253347
0.000273336
0.000279474
0.000279719
0.000278683
0.000277842
0.000276796
0.000275664
0.000274257
0.000272528
0.000270453
0.000268622
0.000266762
0.000264789
0.000264802
0.000267725
0.000250547
0.000159779
4.86151e-05
9.62057e-06
2.22558e-06
2.22291e-06
2.84764e-06
2.91392e-06
3.03756e-06
5.77741e-06
1.9968e-05
9.03442e-05
0.000210888
0.000264767
0.000267639
0.000265431
0.000266306
0.000267226
0.000268123
0.000268659
0.000269718
0.000271012
0.000272378
0.000273908
0.000275739
0.000277344
0.000277519
0.000274081
0.000260926
0.000228493
0.000172094
9.77185e-05
2.6844e-05
1.18888e-06
7.85327e-08
9.34426e-06
5.88845e-05
0.000131216
0.000192128
0.000232821
0.000252613
0.000259074
0.000259638
0.000258684
0.000257846
0.000256898
0.000255778
0.000254371
0.000252608
0.000250576
0.000248875
0.000247142
0.000245252
0.000245013
0.000244738
0.000218768
0.00013421
5.00464e-05
1.53073e-05
6.10729e-06
4.91907e-06
5.43638e-06
4.91488e-06
4.23389e-06
6.49166e-06
2.10292e-05
7.71617e-05
0.000177857
0.000238651
0.000247297
0.000246112
0.000246842
0.000247777
0.000248563
0.000249049
0.000250044
0.000251372
0.000252779
0.000254351
0.000256132
0.000257534
0.000257436
0.000253692
0.000240466
0.000209376
0.000157299
8.9075e-05
2.41696e-05
1.06373e-06
7.06299e-08
8.41643e-06
5.34251e-05
0.000119756
0.000175672
0.000213914
0.000233394
0.00024009
0.000240965
0.000240133
0.00023933
0.000238481
0.000237379
0.000235997
0.000234222
0.000232282
0.000230695
0.000229103
0.000227298
0.000226636
0.000223191
0.000192547
0.000118284
5.20021e-05
2.24434e-05
1.27276e-05
9.74919e-06
9.02988e-06
7.13911e-06
5.33234e-06
6.7064e-06
2.19101e-05
7.30889e-05
0.000156573
0.00021556
0.000228219
0.000228188
0.000228865
0.000229791
0.00023049
0.000230929
0.000231869
0.000233291
0.000234753
0.000236385
0.000238095
0.000239269
0.000238895
0.000234861
0.000221631
0.000191933
0.000143843
8.11339e-05
2.1731e-05
9.50879e-07
6.34039e-08
7.5698e-06
4.84289e-05
0.000109248
0.000160583
0.000196375
0.000215354
0.000222287
0.000223526
0.000222856
0.000222124
0.000221322
0.000220223
0.00021889
0.000217159
0.000215284
0.000213853
0.000212464
0.000210737
0.00020956
0.000203611
0.000171198
0.000108715
5.61061e-05
3.07712e-05
2.11649e-05
1.68336e-05
1.35331e-05
9.23172e-06
6.43207e-06
8.02923e-06
2.72989e-05
7.45782e-05
0.000142688
0.000196146
0.0002103
0.000211364
0.000212139
0.00021299
0.000213703
0.000214122
0.000215001
0.000216609
0.000218056
0.000219781
0.000221382
0.000222332
0.000221676
0.000217407
0.000204282
0.000176067
0.000131682
7.39245e-05
1.95387e-05
8.44288e-07
5.68651e-08
6.80214e-06
4.38737e-05
9.96408e-05
0.000146754
0.000180094
0.000198016
0.000205518
0.000207147
0.000206583
0.000205328
0.00020506
0.000204008
0.000202844
0.000201136
0.000199142
0.000198026
0.000196994
0.000195351
0.000193675
0.000185983
0.000154287
0.000104466
6.40402e-05
4.22249e-05
3.10721e-05
2.40273e-05
1.57665e-05
9.32028e-06
7.5351e-06
1.131e-05
3.65732e-05
7.93366e-05
0.000133513
0.000179095
0.000193514
0.000195476
0.000196441
0.000197208
0.000197964
0.000198428
0.00019932
0.000200684
0.000202256
0.000204291
0.000205785
0.000206573
0.00020548
0.000200981
0.00018813
0.00016149
0.000120517
6.72695e-05
1.75045e-05
7.44752e-07
5.09788e-08
6.11024e-06
3.97155e-05
9.08356e-05
0.00013402
0.00016465
0.000182376
0.000189886
0.000191548
0.000190941
0.000190018
0.000189693
0.000188769
0.000187591
0.000186169
0.000184203
0.000183199
0.000182486
0.000181001
0.000178941
0.000170137
0.000141218
0.000105281
8.06077e-05
6.21675e-05
4.46985e-05
2.96418e-05
1.54296e-05
1.00974e-05
9.83544e-06
1.982e-05
4.69822e-05
8.29273e-05
0.000126377
0.000163839
0.000177599
0.000180363
0.0001815
0.000182052
0.000182767
0.000183692
0.000184637
0.000186037
0.000187639
0.000189786
0.000191049
0.00019144
0.000190196
0.000185596
0.000173128
0.00014797
0.000110367
6.12039e-05
1.56945e-05
6.58844e-07
4.57103e-08
5.48833e-06
3.59622e-05
8.27281e-05
0.000122242
0.000151062
0.000168094
0.000175379
0.000177227
0.000176609
0.000176121
0.000175415
0.000174649
0.000173653
0.000172226
0.000170651
0.000169674
0.000169136
0.000167862
0.000165412
0.000156669
0.000131621
0.000110959
0.000108838
9.55081e-05
6.02318e-05
3.35447e-05
1.57238e-05
1.22898e-05
1.57647e-05
3.25189e-05
5.75814e-05
8.58261e-05
0.000119767
0.000149957
0.00016328
0.000166366
0.000167625
0.000168484
0.000169309
0.00017001
0.00017115
0.000172699
0.00017424
0.000176122
0.00017728
0.000177323
0.000175999
0.000171504
0.00015929
0.000135654
0.000101022
5.57574e-05
1.40968e-05
5.84819e-07
4.10335e-08
4.93546e-06
3.26141e-05
7.54421e-05
0.000111631
0.000138449
0.000154884
0.000162285
0.000164245
0.000164007
0.000163049
0.000162559
0.000161779
0.000160864
0.00015963
0.000158474
0.000157752
0.000157222
0.000155918
0.000153608
0.000145096
0.000124518
0.000125248
0.000149463
0.000125972
6.64134e-05
2.58792e-05
1.64512e-05
1.80788e-05
2.86583e-05
4.93766e-05
7.12379e-05
8.97254e-05
0.000113555
0.000138105
0.00015021
0.000153815
0.000155109
0.000156146
0.000156653
0.000157678
0.000158926
0.000160588
0.000162354
0.000163882
0.00016494
0.000164582
0.000163293
0.000158953
0.000146931
0.000124701
9.27119e-05
5.08664e-05
1.26937e-05
5.21218e-07
3.69055e-08
4.44604e-06
2.96427e-05
6.92276e-05
0.000102621
0.000127322
0.000143067
0.000150565
0.000152796
0.00015258
0.00015176
0.000151104
0.000150395
0.000149378
0.000148309
0.000147272
0.000146692
0.000146236
0.000145081
0.000142908
0.00013512
0.000119362
0.000143869
0.000214313
0.000132141
4.78605e-05
2.23539e-05
2.3044e-05
3.18629e-05
5.01116e-05
7.54443e-05
9.21723e-05
9.73684e-05
0.000107914
0.000127599
0.000138901
0.000142609
0.000143827
0.000144964
0.000145692
0.000146666
0.000147944
0.000149629
0.000151357
0.00015286
0.000153614
0.000153421
0.000152023
0.000147578
0.000136015
0.000115101
8.54966e-05
4.65234e-05
1.1466e-05
4.66419e-07
3.32696e-08
4.01504e-06
2.70267e-05
6.38432e-05
9.47634e-05
0.000117696
0.000132731
0.000140031
0.000142367
0.000142424
0.000141708
0.000140969
0.00014027
0.000139246
0.00013824
0.000137163
0.000136568
0.000136107
0.00013531
0.000133263
0.000126487
0.000114593
0.000156667
0.000232963
0.0001032
3.43927e-05
2.89528e-05
3.87322e-05
5.63336e-05
8.26777e-05
0.000113844
0.000122676
0.00010713
0.000103624
0.000118888
0.000128765
0.000132482
0.000133924
0.000134871
0.000135655
0.000136663
0.000138
0.000139648
0.000141281
0.000142677
0.000143379
0.000143236
0.000141816
0.000137214
0.000126004
0.000106462
7.91682e-05
4.27451e-05
1.0394e-05
4.19394e-07
3.01017e-08
3.63888e-06
2.47151e-05
5.89766e-05
8.76983e-05
0.000109009
0.000123321
0.000130528
0.00013298
0.000133208
0.000132597
0.000131751
0.000131003
0.000130028
0.000129047
0.000128033
0.000127411
0.00012714
0.000126507
0.000124677
0.000118841
0.000109188
0.000137316
0.000207203
8.38678e-05
3.9927e-05
4.50798e-05
6.39169e-05
9.00189e-05
0.000126412
0.000165468
0.000168835
0.000130382
0.000103329
0.000111668
0.000120156
0.000123639
0.000125026
0.000125843
0.000126654
0.000127689
0.000129027
0.000130588
0.000132089
0.000133361
0.000134037
0.000133881
0.000132447
0.000127841
0.00011697
9.87093e-05
7.34621e-05
3.93943e-05
9.4598e-06
3.78974e-07
2.73284e-08
3.30924e-06
2.26637e-05
5.46022e-05
8.13055e-05
0.000101103
0.00011474
0.000121892
0.000124482
0.00012488
0.000124367
0.000123441
0.000122614
0.000121695
0.000120761
0.000119821
0.000119232
0.00011906
0.000118665
0.000117034
0.000111987
0.000104098
0.000134972
0.00019758
9.93376e-05
5.44101e-05
6.57886e-05
9.35474e-05
0.000127656
0.000174483
0.000226091
0.000226476
0.000159753
0.00010576
0.00010567
0.000112662
0.00011591
0.000117098
0.000117832
0.000118692
0.000119732
0.000120997
0.000122388
0.00012372
0.000124855
0.000125493
0.00012535
0.00012392
0.000119309
0.000108788
9.17754e-05
6.83545e-05
3.63937e-05
8.64308e-06
3.4412e-07
2.48935e-08
3.01876e-06
2.08292e-05
5.06431e-05
7.55222e-05
9.39294e-05
0.000106934
0.000114028
0.000116762
0.000117341
0.000116924
0.000115941
0.000115024
0.000114156
0.000113282
0.000112445
0.000111973
0.000111887
0.000111602
0.00011011
0.000105707
9.96729e-05
0.000128533
0.000194035
0.000153559
7.54027e-05
8.28273e-05
0.000114122
0.000158527
0.000218213
0.000285556
0.000297665
0.000202593
0.000112823
0.00010081
0.000106156
0.000109107
0.00011011
0.00011078
0.000111626
0.000112636
0.000113796
0.000114995
0.000116119
0.000117111
0.000117711
0.000117586
0.000116151
0.00011153
0.000101378
8.55456e-05
6.3786e-05
3.37259e-05
7.92824e-06
3.1407e-07
2.27527e-08
2.76239e-06
1.9189e-05
4.70673e-05
7.02927e-05
8.74206e-05
9.98316e-05
0.000106857
0.00010972
0.000110472
0.00011017
0.00010916
0.000108155
0.00010732
0.00010652
0.000105783
0.000105435
0.000105454
0.000105255
0.000103812
9.99343e-05
9.47213e-05
0.000118624
0.000205575
0.000233408
0.000126451
0.000105236
0.000135265
0.000186933
0.000258828
0.000339163
0.000366967
0.000255221
0.000122931
9.67778e-05
0.000100479
0.000103088
0.000103893
0.000104486
0.000105285
0.000106249
0.000107306
0.000108302
0.000109215
0.000110079
0.000110648
0.000110533
0.000109073
0.000104435
9.46625e-05
7.99486e-05
5.97029e-05
3.13597e-05
7.30325e-06
2.88075e-07
2.08739e-08
2.53662e-06
1.77274e-05
4.38389e-05
6.55595e-05
8.15111e-05
9.33574e-05
0.000100297
0.000103258
0.000104168
0.000103998
0.000103014
0.000101938
0.000101109
0.000100391
9.97537e-05
9.95008e-05
9.96068e-05
9.94881e-05
9.80754e-05
9.46134e-05
9.01935e-05
0.000113703
0.000228074
0.000323981
0.000225946
0.000142306
0.000144674
0.000195073
0.000284836
0.000386049
0.000440391
0.000311916
0.00012893
9.36754e-05
9.54867e-05
9.7721e-05
9.83203e-05
9.88087e-05
9.95377e-05
0.000100451
0.00010141
0.000102207
0.000102932
0.000103694
0.000104247
0.000104127
0.000102621
9.79619e-05
8.85728e-05
7.49108e-05
5.60368e-05
2.92505e-05
6.75631e-06
2.65551e-07
1.92177e-08
2.33727e-06
1.64253e-05
4.09291e-05
6.12749e-05
7.61321e-05
8.743e-05
9.42638e-05
9.72866e-05
9.83291e-05
9.83053e-05
9.74176e-05
9.62989e-05
9.54427e-05
9.47874e-05
9.42547e-05
9.40749e-05
9.42312e-05
9.41763e-05
9.27799e-05
8.97158e-05
8.74011e-05
0.000121071
0.000262757
0.00041672
0.000354535
0.000220788
0.000167864
0.000188853
0.000291826
0.000421585
0.000507921
0.000345418
0.000141345
9.09744e-05
9.10311e-05
9.28815e-05
9.32799e-05
9.3626e-05
9.42679e-05
9.51294e-05
9.59779e-05
9.66075e-05
9.71861e-05
9.78787e-05
9.84228e-05
9.82896e-05
9.67221e-05
9.20456e-05
8.30414e-05
7.03646e-05
5.27369e-05
2.73636e-05
6.2735e-06
2.45794e-07
1.77617e-08
2.16194e-06
1.52645e-05
3.82995e-05
5.73939e-05
7.12197e-05
8.19581e-05
8.86569e-05
9.17116e-05
9.28641e-05
9.29993e-05
9.22773e-05
9.11482e-05
9.02321e-05
8.95935e-05
8.9163e-05
8.90507e-05
8.92489e-05
8.92532e-05
8.79229e-05
8.54341e-05
8.61964e-05
0.000139778
0.000302269
0.000514703
0.000484012
0.000329793
0.000220192
0.000204902
0.000289699
0.000446476
0.000596701
0.000420804
0.000152639
8.89547e-05
8.69957e-05
8.8455e-05
8.86489e-05
8.88358e-05
8.9383e-05
9.0188e-05
9.091e-05
9.14019e-05
9.18994e-05
9.25458e-05
9.30719e-05
9.29155e-05
9.12869e-05
8.6612e-05
7.79951e-05
6.6241e-05
4.97478e-05
2.56668e-05
5.84446e-06
2.28374e-07
1.64708e-08
2.00607e-06
1.42302e-05
3.59268e-05
5.38726e-05
6.67064e-05
7.68544e-05
8.33814e-05
8.64485e-05
8.76991e-05
8.80042e-05
8.74922e-05
8.63953e-05
8.53972e-05
8.47244e-05
8.43735e-05
8.4334e-05
8.45827e-05
8.46568e-05
8.35e-05
8.1813e-05
8.62192e-05
0.000164648
0.000311985
0.000622371
0.000604333
0.000443758
0.000301909
0.000248144
0.000308864
0.000495637
0.000701508
0.000489853
0.000156117
8.66854e-05
8.32755e-05
8.43442e-05
8.43197e-05
8.43527e-05
8.48179e-05
8.55503e-05
8.61352e-05
8.6523e-05
8.69844e-05
8.75983e-05
8.80896e-05
8.78967e-05
8.62059e-05
8.15756e-05
7.33757e-05
6.2493e-05
4.70408e-05
2.41534e-05
5.47616e-06
2.14235e-07
1.53313e-08
1.86831e-06
1.32987e-05
3.37834e-05
5.06616e-05
6.25248e-05
7.20391e-05
7.8379e-05
8.14661e-05
8.27957e-05
8.32607e-05
8.29628e-05
8.19577e-05
8.0871e-05
8.01332e-05
7.98304e-05
7.98556e-05
8.01714e-05
8.0326e-05
7.94354e-05
7.87795e-05
8.85433e-05
0.000172415
0.000325411
0.00059511
0.000695617
0.000541555
0.000391496
0.000320917
0.000366915
0.000557308
0.000752903
0.000524142
0.000164941
8.40889e-05
7.97303e-05
8.04504e-05
8.021e-05
8.01225e-05
8.05328e-05
8.1166e-05
8.16127e-05
8.19288e-05
8.23702e-05
8.29662e-05
8.33918e-05
8.31339e-05
8.13859e-05
7.68585e-05
6.91091e-05
5.90545e-05
4.45599e-05
2.27854e-05
5.14998e-06
2.02404e-07
1.43172e-08
1.7457e-06
1.24627e-05
3.18308e-05
4.77188e-05
5.86331e-05
6.74859e-05
7.36552e-05
7.67999e-05
7.8173e-05
7.87463e-05
7.8639e-05
7.77779e-05
7.66321e-05
7.58255e-05
7.55412e-05
7.56227e-05
7.60016e-05
7.62221e-05
7.56429e-05
7.60073e-05
8.62379e-05
0.000162486
0.000351897
0.000616499
0.000731554
0.000620939
0.000476589
0.000390801
0.000440766
0.000586704
0.000756009
0.000496595
0.000154067
8.08959e-05
7.63119e-05
7.66773e-05
7.62471e-05
7.61026e-05
7.64935e-05
7.70019e-05
7.73138e-05
7.75728e-05
7.79997e-05
7.85803e-05
7.8933e-05
7.85832e-05
7.67888e-05
7.24077e-05
6.51294e-05
5.5866e-05
4.22565e-05
2.15195e-05
4.85086e-06
1.91508e-07
1.34161e-08
1.6363e-06
1.17071e-05
3.00459e-05
4.50177e-05
5.50202e-05
6.32148e-05
6.92414e-05
7.2478e-05
7.38449e-05
7.44425e-05
7.44794e-05
7.38196e-05
7.26722e-05
7.18056e-05
7.15368e-05
7.16675e-05
7.2083e-05
7.234e-05
7.20601e-05
7.34156e-05
8.72244e-05
0.000169876
0.000385154
0.000659063
0.000747422
0.000679702
0.000552598
0.000495051
0.000489597
0.000617065
0.00073563
0.000443541
0.000141267
7.70926e-05
7.27493e-05
7.29612e-05
7.23895e-05
7.22523e-05
7.26653e-05
7.30329e-05
7.32068e-05
7.34072e-05
7.38277e-05
7.44121e-05
7.47088e-05
7.42547e-05
7.2422e-05
6.82029e-05
6.14033e-05
5.29068e-05
4.01189e-05
2.03485e-05
4.57553e-06
1.81361e-07
1.2602e-08
1.537e-06
1.10176e-05
2.8403e-05
4.25306e-05
5.1682e-05
5.92607e-05
6.5174e-05
6.84978e-05
6.98057e-05
7.03415e-05
7.04746e-05
7.00519e-05
6.89755e-05
6.80512e-05
6.7797e-05
6.79795e-05
6.84022e-05
6.86525e-05
6.8625e-05
7.08611e-05
8.83702e-05
0.000187677
0.000408544
0.000697569
0.000769283
0.00070917
0.000586472
0.000529287
0.000541153
0.00070416
0.000720359
0.000418509
0.000127042
7.31923e-05
6.94525e-05
6.93092e-05
6.86389e-05
6.85667e-05
6.90062e-05
6.92344e-05
6.92835e-05
6.94157e-05
6.98482e-05
7.04653e-05
7.07278e-05
7.01885e-05
6.83134e-05
6.42238e-05
5.79088e-05
5.01685e-05
3.81462e-05
1.92692e-05
4.31986e-06
1.71993e-07
1.18638e-08
1.44703e-06
1.03836e-05
2.6883e-05
4.02422e-05
4.86125e-05
5.56345e-05
6.14441e-05
6.48069e-05
6.60459e-05
6.64919e-05
6.6671e-05
6.64558e-05
6.55377e-05
6.45559e-05
6.42789e-05
6.45119e-05
6.49271e-05
6.51493e-05
6.52948e-05
6.82952e-05
9.01508e-05
0.00020077
0.00046878
0.000708972
0.000828846
0.000710264
0.000610273
0.00056061
0.000594251
0.000705277
0.000718637
0.000414085
0.000117108
6.98527e-05
6.65179e-05
6.57656e-05
6.50241e-05
6.50528e-05
6.54979e-05
6.56053e-05
6.55414e-05
6.56114e-05
6.60773e-05
6.67543e-05
6.69922e-05
6.63872e-05
6.44488e-05
6.0451e-05
5.46258e-05
4.76423e-05
3.63266e-05
1.82717e-05
4.08494e-06
1.6333e-07
1.11821e-08
1.36424e-06
9.79288e-06
2.54431e-05
3.80843e-05
4.57401e-05
5.22483e-05
5.79888e-05
6.14283e-05
6.25805e-05
6.29278e-05
6.31151e-05
6.30363e-05
6.23274e-05
6.12752e-05
6.09156e-05
6.11863e-05
6.1599e-05
6.1798e-05
6.2089e-05
6.56679e-05
9.57069e-05
0.000212894
0.000481244
0.000806663
0.000827626
0.000721364
0.000614038
0.000588319
0.0006516
0.000763367
0.000715353
0.000374433
0.000123394
6.73801e-05
6.35831e-05
6.23166e-05
6.16258e-05
6.17486e-05
6.21479e-05
6.21197e-05
6.19405e-05