/*--------------------------------*- C++ -*----------------------------------*\
  =========                 |
  \\      /  F ield         | OpenFOAM: The Open Source CFD Toolbox
   \\    /   O peration     | Website:  https://openfoam.org
    \\  /    A nd           | Version:  7
     \\/     M anipulation  |
\*---------------------------------------------------------------------------*/
FoamFile
{
    version     2.0;
    format      ascii;
    class       volScalarField;
    location    "60";
    object      nut;
}
// * * * * * * * * * * * * * * * * * * * * * * * * * * * * * * * * * * * * * //

dimensions      [0 2 -1 0 0 0 0];

internalField   nonuniform List<scalar> 
17475
(
3.12041e-05
0.00018885
0.000188081
0.000188027
0.000188026
0.000188025
0.000188025
0.000188025
0.000188025
0.000188025
0.000188025
0.000188026
0.000188025
0.000188025
0.000188026
0.000188026
0.000188026
0.000188026
0.000188026
0.000188026
0.000188026
0.000188026
0.000188026
0.000188026
0.000188024
0.000188028
0.000188028
0.000188028
0.000188028
0.000188028
0.000188028
0.000188028
0.000188028
0.000188028
0.000188028
0.000188028
0.000188028
0.000188028
0.000188028
0.00018803
0.000188031
0.000188033
0.000188034
0.000188036
0.000188037
0.000188038
0.000188039
0.00018804
0.000188041
0.000188042
0.000188043
0.000188044
0.000188054
0.000188285
0.000150676
9.21888e-07
0.000115396
0.00017209
0.000176589
0.000176751
0.000176755
0.000176753
0.000176751
0.000176749
0.000176748
0.000176747
0.000176747
0.000176746
0.000176746
0.000176746
0.000176746
0.000176746
0.000176747
0.000176747
0.000176747
0.000176747
0.000176748
0.000176752
0.000176746
0.000176757
0.000176761
0.000176767
0.000176767
0.000176769
0.000176769
0.000176769
0.000176769
0.00017677
0.000176771
0.000176771
0.000176771
0.000176771
0.000176771
0.000176768
0.000176768
0.000176768
0.000176767
0.000176767
0.000176768
0.000176769
0.00017677
0.000176771
0.000176772
0.000176774
0.000176777
0.000176775
0.000176713
0.000175372
0.000153949
1.68095e-05
1.20185e-07
5.92287e-05
0.000151144
0.000168233
0.000169911
0.000170019
0.000170023
0.000170018
0.000170012
0.000170005
0.000170001
0.000169998
0.000169996
0.000169994
0.000169993
0.000169991
0.000169989
0.000169988
0.000169988
0.000169985
0.000169984
0.000169986
0.000169987
0.000169992
0.000169995
0.000169996
0.000170002
0.000170006
0.000170006
0.000170005
0.000170004
0.000170004
0.000170005
0.000170007
0.000170007
0.000170006
0.000170007
0.000170004
0.000170002
0.00017
0.00017
0.000169995
0.000169992
0.000169993
0.000169995
0.000169997
0.000169998
0.000170003
0.000170008
0.000170013
0.000169975
0.00016934
0.000161164
0.000102838
3.04011e-06
3.86378e-08
3.04592e-05
0.000127838
0.000159102
0.000164776
0.000165353
0.000165413
0.000165412
0.000165397
0.000165383
0.000165377
0.000165371
0.000165365
0.000165357
0.000165355
0.000165351
0.000165346
0.000165342
0.00016534
0.000165333
0.000165331
0.000165331
0.000165338
0.00016534
0.000165343
0.000165345
0.000165347
0.000165352
0.000165353
0.000165348
0.000165345
0.000165346
0.00016535
0.000165354
0.000165355
0.000165354
0.000165357
0.000165352
0.00016535
0.00016535
0.000165351
0.000165343
0.000165339
0.000165345
0.000165355
0.000165361
0.000165365
0.000165372
0.000165378
0.000165368
0.000165142
0.000162498
0.000144052
6.41165e-05
1.0777e-06
1.75659e-08
1.70662e-05
0.000104926
0.000148987
0.000159913
0.000161714
0.000161939
0.000161961
0.000161943
0.000161926
0.000161921
0.000161913
0.000161903
0.000161887
0.000161884
0.000161879
0.000161871
0.000161861
0.000161857
0.000161851
0.000161844
0.000161847
0.000161848
0.000161846
0.000161859
0.000161864
0.000161859
0.000161859
0.000161854
0.000161845
0.000161845
0.00016185
0.000161863
0.000161871
0.000161872
0.000161878
0.000161879
0.00016187
0.000161871
0.000161876
0.000161878
0.000161873
0.000161876
0.000161887
0.000161903
0.000161918
0.000161925
0.000161932
0.000161926
0.000161845
0.000161048
0.000154831
0.000126107
4.19197e-05
5.49408e-07
9.62615e-09
1.05187e-05
8.50077e-05
0.000138699
0.000154734
0.000158553
0.000159143
0.00015923
0.00015921
0.000159186
0.000159191
0.000159189
0.00015918
0.000159157
0.000159151
0.00015914
0.000159137
0.000159111
0.000159105
0.000159104
0.000159099
0.000159091
0.000159077
0.000159073
0.000159105
0.00015911
0.000159089
0.000159061
0.000159042
0.000159043
0.000159062
0.00015908
0.000159104
0.000159111
0.000159116
0.000159142
0.000159139
0.000159123
0.000159131
0.000159141
0.000159142
0.000159144
0.00015915
0.000159161
0.000159183
0.000159218
0.000159223
0.000159224
0.000159187
0.00015892
0.00015699
0.000146681
0.000109068
2.9105e-05
3.32609e-07
5.97202e-09
7.04265e-06
6.89332e-05
0.000128458
0.000149302
0.000155579
0.000156847
0.000157075
0.000157032
0.000156975
0.000157004
0.000157018
0.000156998
0.000156982
0.000156983
0.000156952
0.000156966
0.000156937
0.000156903
0.00015687
0.000156862
0.000156864
0.000156819
0.000156828
0.000156853
0.000156845
0.000156798
0.000156731
0.000156708
0.000156752
0.000156798
0.000156838
0.000156868
0.000156875
0.000156872
0.000156945
0.000156966
0.000156927
0.00015693
0.000156939
0.000156944
0.000156933
0.000156912
0.000156921
0.000156948
0.000157052
0.000157067
0.000157015
0.000156912
0.000156298
0.000152702
0.00013857
9.40642e-05
2.13111e-05
2.22756e-07
4.05247e-09
5.04208e-06
5.64096e-05
0.000118608
0.000144173
0.000152955
0.000155232
0.000155709
0.000155661
0.000155616
0.000155681
0.000155711
0.000155607
0.000155533
0.000155577
0.000155515
0.00015554
0.000155478
0.00015536
0.000155227
0.000155195
0.000155241
0.000155148
0.000155125
0.000155083
0.000155064
0.000154972
0.000154854
0.000154866
0.000155021
0.000155074
0.000155084
0.000155128
0.000155163
0.000155159
0.000155274
0.000155314
0.000155257
0.00015526
0.000155268
0.000155285
0.000155249
0.000155211
0.000155197
0.000155249
0.000155455
0.000155477
0.000155345
0.000155119
0.000153932
0.000148456
0.000130839
8.14218e-05
1.62182e-05
1.57303e-07
2.93539e-09
3.79119e-06
4.67434e-05
0.000109422
0.00013979
0.000151089
0.000154739
0.000155555
0.000155566
0.000155521
0.000155649
0.0001558
0.000155584
0.00015539
0.000155555
0.000155415
0.000155309
0.000155039
0.000154708
0.00015442
0.000154332
0.000154435
0.000154338
0.000154219
0.000154167
0.000154096
0.00015378
0.000153529
0.000153592
0.000154026
0.000154186
0.000154048
0.000154112
0.000154243
0.000154306
0.000154447
0.000154429
0.00015433
0.000154317
0.000154378
0.000154394
0.000154194
0.000154118
0.000154125
0.000154336
0.000154618
0.000154574
0.000154364
0.00015392
0.000151898
0.000144684
0.000123688
7.08571e-05
1.2799e-05
1.18654e-07
2.23167e-09
2.96122e-06
3.92729e-05
0.000101037
0.00013614
0.00014981
0.000155365
0.000156836
0.000156479
0.000156203
0.000156668
0.000157002
0.000156754
0.000156344
0.000156548
0.000156262
0.000155878
0.000155742
0.000155085
0.000154518
0.000154366
0.00015438
0.0001542
0.000154189
0.000154298
0.000154024
0.000153479
0.000153128
0.000153233
0.000153845
0.000154111
0.000153994
0.000154022
0.000154161
0.00015417
0.000154417
0.000154539
0.000154332
0.00015402
0.000154155
0.000154513
0.000154076
0.000153715
0.000153638
0.000154026
0.000154834
0.000154965
0.000154141
0.000153234
0.000150497
0.00014173
0.000117433
6.24567e-05
1.04377e-05
9.38044e-08
1.75956e-09
2.38279e-06
3.34769e-05
9.34717e-05
0.000132906
0.000148599
0.000155837
0.000158007
0.000157706
0.000157274
0.000157738
0.000158469
0.000158616
0.000158005
0.000158045
0.00015805
0.000157602
0.000157394
0.000156425
0.00015558
0.000155239
0.000155202
0.000155062
0.000154743
0.000154972
0.000155221
0.000154472
0.000154015
0.000154075
0.000154537
0.000154903
0.000154751
0.000154717
0.000154998
0.000154829
0.000155132
0.000154876
0.000154807
0.000154414
0.000154584
0.00015475
0.000154423
0.00015412
0.000154168
0.000155159
0.000156072
0.000156141
0.000155049
0.000153412
0.000149439
0.000139694
0.000112069
5.56015e-05
8.72223e-06
7.67451e-08
1.42885e-09
1.96507e-06
2.8938e-05
8.6517e-05
0.000129677
0.000147877
0.000156213
0.000158599
0.000158476
0.000158099
0.000159159
0.000160437
0.000162113
0.000159604
0.00015956
0.000160382
0.000158069
0.000158839
0.00015752
0.000156757
0.000156884
0.000156285
0.000156323
0.000157357
0.000157678
0.000157073
0.000155262
0.000156638
0.000156984
0.000155153
0.000154942
0.000155958
0.00015501
0.000156484
0.000156625
0.000156704
0.000156985
0.00015691
0.000155614
0.000155469
0.000155715
0.000155683
0.000154884
0.000154876
0.000156321
0.000156879
0.000158253
0.000155788
0.000154148
0.00014888
0.000137156
0.000106914
4.98976e-05
7.4407e-06
6.45975e-08
1.18953e-09
1.65757e-06
2.5323e-05
8.01096e-05
0.000125474
0.000148677
0.000156754
0.00016093
0.00016016
0.000156637
0.000158296
0.000164032
0.000163806
0.000162894
0.00016263
0.000161419
0.000160137
0.00015998
0.000159483
0.000158722
0.000158533
0.000157959
0.000156788
0.00015728
0.000159483
0.00015848
0.000157495
0.0001578
0.000158302
0.000157709
0.000157085
0.000158303
0.000159254
0.000159096
0.000158874
0.000159015
0.000159739
0.000159187
0.000158074
0.000156974
0.000156891
0.000157218
0.000157644
0.000157521
0.000158122
0.000160837
0.000161512
0.000159253
0.000156216
0.000151391
0.000137494
0.000101412
4.49084e-05
6.45299e-06
5.5688e-08
1.0094e-09
1.42062e-06
2.23884e-05
7.40235e-05
0.000122077
0.000143089
0.000150999
0.000155324
0.00015484
0.000156287
0.000157904
0.000159091
0.00015885
0.000158496
0.000157878
0.000156145
0.000154963
0.000153172
0.000151773
0.000150569
0.000149815
0.000149173
0.000149078
0.000149569
0.000150937
0.000151162
0.000150456
0.000149538
0.000149555
0.000149703
0.000150094
0.000150581
0.000151277
0.000151095
0.000151229
0.00015139
0.000151768
0.000151912
0.000152615
0.000152698
0.000152721
0.000153389
0.000154012
0.000153678
0.000154048
0.000156336
0.000155417
0.000154049
0.000151143
0.000145
0.000131009
9.57143e-05
4.04931e-05
5.63631e-06
4.80528e-08
8.70191e-10
1.23394e-06
1.99844e-05
6.84913e-05
0.000111881
0.000133358
0.000142671
0.000146068
0.000146696
0.000146962
0.000148185
0.000148893
0.000148688
0.000148152
0.000147242
0.000146165
0.000144704
0.000142774
0.000141122
0.00013977
0.000138612
0.000137782
0.000137497
0.000137781
0.000138613
0.000139555
0.000139372
0.000139103
0.000139089
0.000138855
0.000138718
0.00013859
0.000138535
0.000139514
0.000140069
0.000140617
0.000140963
0.000141711
0.000143148
0.000143582
0.000143954
0.000144706
0.00014518
0.000145404
0.000145574
0.000146188
0.000145968
0.000144887
0.000142136
0.00013535
0.00012109
8.76641e-05
3.65442e-05
4.97814e-06
4.18463e-08
7.60132e-10
1.08652e-06
1.79019e-05
6.22708e-05
0.000103627
0.000124811
0.00013365
0.000137277
0.000137973
0.000138369
0.000139117
0.000139412
0.000139088
0.000138463
0.000137471
0.000136518
0.000135116
0.000132823
0.000130866
0.000129253
0.000127528
0.000126378
0.000125421
0.000124666
0.000125827
0.000128345
0.000110207
0.000104085
0.000106341
0.000118808
0.00012754
0.000125868
0.000126198
0.00012678
0.000128102
0.000129811
0.000130695
0.000131851
0.00013362
0.000134251
0.000134531
0.00013525
0.000135847
0.000136028
0.000136285
0.0001369
0.000136843
0.000135828
0.000132886
0.000126294
0.000112199
8.00936e-05
3.34029e-05
4.42328e-06
3.67549e-08
6.59894e-10
9.58723e-07
1.61534e-05
5.66505e-05
9.60307e-05
0.000116408
0.00012517
0.000128867
0.000129644
0.000129914
0.000130293
0.000130241
0.000129752
0.000129028
0.00012801
0.000127173
0.000125749
0.000123056
0.000121036
0.00011858
0.000115561
0.000114136
0.000111975
0.00011244
9.67408e-05
6.93903e-05
4.55514e-05
2.39677e-05
2.41469e-05
5.86079e-05
8.34303e-05
0.000118166
0.000112645
0.000113314
0.000115711
0.000118061
0.00011988
0.000122074
0.000124406
0.000125352
0.000125677
0.000126435
0.000126961
0.000127221
0.000127558
0.000128074
0.000128098
0.000127244
0.000124374
0.000117795
0.000103953
7.34659e-05
3.03215e-05
3.96251e-06
3.25897e-08
4.76662e-10
8.11106e-07
1.42241e-05
5.13375e-05
8.82877e-05
0.000108213
0.000116978
0.000120761
0.000121575
0.00012162
0.000121625
0.000121313
0.000120682
0.000119878
0.000118953
0.000118114
0.000116187
0.000113365
0.000110728
0.000107739
0.000104654
0.000102463
0.000102762
9.37926e-05
3.25105e-05
1.68114e-06
1.45567e-09
1.38725e-08
1.24909e-05
4.1398e-05
0.000102516
0.000101916
0.000103837
0.000106679
0.000109769
0.000112378
0.000114857
0.000116499
0.000116928
0.000117776
0.000118353
0.000118729
0.000119078
0.000119547
0.000119675
0.000118979
0.000116263
0.000109807
9.61531e-05
6.74727e-05
2.75536e-05
3.55522e-06
2.89993e-08
1.15449e-10
4.81285e-07
1.16285e-05
4.52615e-05
7.96882e-05
9.89218e-05
0.000107686
0.00011143
0.000112181
0.000111875
0.000111458
0.000110969
0.000110215
0.000109357
0.000108411
0.000107424
0.000105147
0.000102216
9.91765e-05
9.59411e-05
9.31664e-05
9.26943e-05
8.1387e-05
2.39541e-05
1.37378e-06
2.05099e-10
5.50704e-06
5.89114e-05
8.79614e-05
9.18807e-05
9.50747e-05
9.85672e-05
0.000101828
0.000104576
0.000106212
0.000106864
0.000107853
0.000108571
0.000109038
0.000109334
0.000109759
0.000110044
0.000109575
0.000107118
0.000100949
8.77642e-05
6.16964e-05
2.53184e-05
3.17057e-06
2.41128e-08
1.55669e-10
5.71066e-07
1.08329e-05
4.02539e-05
6.93516e-05
8.53958e-05
9.34303e-05
9.64604e-05
9.67393e-05
9.63113e-05
9.5475e-05
9.48183e-05
9.44335e-05
9.3133e-05
9.19386e-05
9.02547e-05
8.86549e-05
8.67844e-05
8.37124e-05
8.02271e-05
7.82911e-05
7.42305e-05
4.91517e-05
6.83953e-06
1.19131e-07
1.06815e-06
2.42296e-05
6.80185e-05
7.72222e-05
7.92316e-05
8.19854e-05
8.56502e-05
8.76441e-05
8.87832e-05
8.97975e-05
9.10203e-05
9.20326e-05
9.27607e-05
9.3497e-05
9.42281e-05
9.50054e-05
9.48659e-05
9.30907e-05
8.77615e-05
7.60669e-05
5.36367e-05
2.25933e-05
3.06399e-06
2.685e-08
3.36708e-10
5.78211e-07
1.05595e-05
3.74303e-05
6.30318e-05
7.78713e-05
8.52015e-05
8.8266e-05
8.84791e-05
8.77855e-05
8.74372e-05
8.67508e-05
8.59063e-05
8.48864e-05
8.34508e-05
8.16073e-05
8.05391e-05
7.88856e-05
7.55279e-05
7.27143e-05
7.05826e-05
6.21207e-05
3.0647e-05
3.89666e-06
1.48339e-07
3.83869e-10
4.54487e-09
8.28939e-07
1.34433e-05
4.91678e-05
6.84475e-05
7.16947e-05
7.39472e-05
7.72123e-05
7.86353e-05
8.03458e-05
8.09813e-05
8.19543e-05
8.3408e-05
8.46063e-05
8.55095e-05
8.63909e-05
8.6931e-05
8.67715e-05
8.51115e-05
8.00455e-05
6.91455e-05
4.85944e-05
2.04747e-05
2.74354e-06
2.2333e-08
3.71304e-10
5.45786e-07
9.72381e-06
3.42151e-05
5.73439e-05
7.11216e-05
7.81704e-05
8.10673e-05
8.13715e-05
8.09526e-05
8.05785e-05
7.97042e-05
7.87816e-05
7.7846e-05
7.65585e-05
7.49863e-05
7.36477e-05
7.22837e-05
6.93718e-05
6.64648e-05
6.40632e-05
5.35237e-05
2.28663e-05
3.38429e-06
3.92096e-07
3.65801e-08
1.05022e-08
1.2381e-08
1.42428e-08
5.00589e-08
2.12936e-07
1.09499e-06
9.51654e-06
3.86405e-05
6.06198e-05
6.57056e-05
6.81343e-05
7.10539e-05
7.25211e-05
7.34479e-05
7.39525e-05
7.51693e-05
7.66376e-05
7.77987e-05
7.88235e-05
7.98495e-05
8.03913e-05
8.00552e-05
7.83661e-05
7.34366e-05
6.30094e-05
4.39643e-05
1.86104e-05
2.44666e-06
1.96652e-08
3.42765e-10
4.99136e-07
8.81282e-06
3.10957e-05
5.2216e-05
6.52419e-05
7.22046e-05
7.50152e-05
7.54374e-05
7.49784e-05
7.4438e-05
7.3931e-05
7.30147e-05
7.18951e-05
7.05326e-05
6.88974e-05
6.77731e-05
6.6553e-05
6.41739e-05
6.14865e-05
5.84443e-05
4.61529e-05
1.90992e-05
3.7556e-06
8.8134e-07
3.60471e-07
5.10026e-07
7.38697e-07
7.43308e-07
6.52453e-07
7.44658e-07
1.52533e-06
8.23318e-06
3.17149e-05
5.42449e-05
6.06376e-05
6.29912e-05
6.54325e-05
6.69932e-05
6.7923e-05
6.85082e-05
6.94198e-05
7.06886e-05
7.20449e-05
7.31641e-05
7.41842e-05
7.46445e-05
7.4188e-05
7.24707e-05
6.761e-05
5.75882e-05
4.00403e-05
1.69077e-05
2.18907e-06
1.75151e-08
3.0937e-10
4.51137e-07
7.984e-06
2.82265e-05
4.75916e-05
5.9828e-05
6.65202e-05
6.93185e-05
6.98428e-05
6.94112e-05
6.89339e-05
6.85468e-05
6.76863e-05
6.65175e-05
6.51782e-05
6.36444e-05
6.25602e-05
6.14469e-05
5.95027e-05
5.7231e-05
5.37028e-05
4.04701e-05
1.77431e-05
4.79774e-06
1.75251e-06
1.18748e-06
1.28257e-06
1.62588e-06
1.44e-06
1.01149e-06
1.03353e-06
2.0574e-06
8.31467e-06
2.8005e-05
4.9264e-05
5.63885e-05
5.86779e-05
6.06055e-05
6.20519e-05
6.28999e-05
6.34603e-05
6.42668e-05
6.5498e-05
6.68336e-05
6.8027e-05
6.90286e-05
6.93504e-05
6.87332e-05
6.69329e-05
6.22662e-05
5.274e-05
3.64946e-05
1.53579e-05
1.96705e-06
1.56794e-08
2.78272e-10
4.06336e-07
7.22611e-06
2.56174e-05
4.33195e-05
5.47062e-05
6.09271e-05
6.36304e-05
6.44616e-05
6.41748e-05
6.37607e-05
6.34338e-05
6.25986e-05
6.14678e-05
6.02298e-05
5.88085e-05
5.78275e-05
5.68718e-05
5.52387e-05
5.3277e-05
4.97505e-05
3.84626e-05
1.75132e-05
5.96865e-06
2.87949e-06
2.39718e-06
2.28627e-06
2.56633e-06
1.97662e-06
1.17536e-06
1.10255e-06
2.51379e-06
9.3481e-06
2.6721e-05
4.55521e-05
5.24511e-05
5.45957e-05
5.62493e-05
5.74589e-05
5.83011e-05
5.87878e-05
5.94432e-05
6.07458e-05
6.20329e-05
6.32527e-05
6.41485e-05
6.43206e-05
6.36174e-05
6.17992e-05
5.73037e-05
4.82686e-05
3.32677e-05
1.39299e-05
1.76491e-06
1.40142e-08
2.49855e-10
3.65349e-07
6.52585e-06
2.31558e-05
3.92785e-05
4.97603e-05
5.53025e-05
5.82734e-05
5.9157e-05
5.88681e-05
5.82098e-05
5.8057e-05
5.74078e-05
5.64737e-05
5.52319e-05
5.34021e-05
5.29297e-05
5.25055e-05
5.10789e-05
4.93511e-05
4.59019e-05
3.5221e-05
1.79059e-05
7.50464e-06
4.21315e-06
3.84015e-06
3.72224e-06
3.71905e-06
2.43061e-06
1.33214e-06
1.27002e-06
3.54439e-06
1.11602e-05
2.65125e-05
4.24519e-05
4.8567e-05
5.06771e-05
5.21084e-05
5.29053e-05
5.3843e-05
5.42894e-05
5.47338e-05
5.59635e-05
5.68975e-05
5.84147e-05
5.93494e-05
5.94453e-05
5.85915e-05
5.67347e-05
5.25074e-05
4.40044e-05
3.02731e-05
1.26316e-05
1.58298e-06
1.23817e-08
2.24135e-10
3.2828e-07
5.88494e-06
2.08747e-05
3.54299e-05
4.50547e-05
5.00893e-05
5.30886e-05
5.39104e-05
5.36751e-05
5.26956e-05
5.27016e-05
5.18906e-05
5.12596e-05
5.05838e-05
4.84552e-05
4.83545e-05
4.82286e-05
4.70642e-05
4.52934e-05
4.20376e-05
3.19127e-05
1.87842e-05
9.79135e-06
6.22598e-06
5.31392e-06
4.96604e-06
4.18258e-06
2.31348e-06
1.43628e-06
1.73344e-06
5.38134e-06
1.35628e-05
2.72633e-05
3.9387e-05
4.47402e-05
4.63897e-05
4.75886e-05
4.83999e-05
4.94194e-05
4.96966e-05
5.02232e-05
5.12392e-05
5.18855e-05
5.37612e-05
5.44034e-05
5.44317e-05
5.33688e-05
5.15168e-05
4.78152e-05
3.99377e-05
2.7464e-05
1.14225e-05
1.41219e-06
1.0846e-08
2.00963e-10
2.95023e-07
5.29833e-06
1.88306e-05
3.17659e-05
3.85318e-05
4.44327e-05
4.82461e-05
4.90895e-05
4.86663e-05
4.69528e-05
4.80706e-05
4.79162e-05
4.7395e-05
4.65278e-05
4.54702e-05
4.34766e-05
4.44695e-05
4.36524e-05
4.18637e-05
3.7563e-05
2.97146e-05
2.03221e-05
1.38245e-05
9.92247e-06
7.4438e-06
5.8663e-06
4.02637e-06
2.38441e-06
1.75812e-06
3.17169e-06
7.8356e-06
1.58565e-05
2.65908e-05
3.5717e-05
3.98825e-05
4.26787e-05
4.36719e-05
4.26588e-05
4.29051e-05
4.56778e-05
4.67237e-05
4.76439e-05
4.83114e-05
4.9482e-05
4.84033e-05
4.95819e-05
4.85443e-05
4.68779e-05
4.29635e-05
3.60661e-05
2.48792e-05
1.02626e-05
1.26196e-06
9.53535e-09
1.80251e-10
2.65253e-07
4.80227e-06
1.68036e-05
2.8334e-05
3.64262e-05
4.13734e-05
4.40614e-05
4.61859e-05
4.43106e-05
4.44102e-05
4.3611e-05
4.33256e-05
4.46518e-05
4.27057e-05
4.32746e-05
4.254e-05
4.16935e-05
4.0898e-05
3.87611e-05
3.60078e-05
2.86601e-05
2.27226e-05
2.07105e-05
1.67695e-05
1.04358e-05
6.55734e-06
4.08467e-06
2.82734e-06
2.81287e-06
5.61327e-06
1.06893e-05
1.74509e-05
2.59107e-05
3.28602e-05
3.76807e-05
3.91767e-05
4.09092e-05
4.11018e-05
4.10669e-05
4.17927e-05
4.36339e-05
4.48532e-05
4.46128e-05
4.54624e-05
4.68331e-05
4.47751e-05
4.42303e-05
4.32022e-05
3.93099e-05
3.25549e-05
2.22958e-05
9.37466e-06
1.13078e-06
8.41756e-09
1.61856e-10
2.38886e-07
4.37319e-06
1.55879e-05
2.6286e-05
3.36577e-05
3.89259e-05
4.23702e-05
4.244e-05
4.29703e-05
4.18586e-05
4.18473e-05
4.14948e-05
4.10351e-05
4.11373e-05
4.08474e-05
4.0403e-05
3.98049e-05
3.89451e-05
3.82097e-05
3.5099e-05
2.88057e-05
2.77393e-05
3.12076e-05
2.4424e-05
1.2265e-05
5.1769e-06
4.32314e-06
4.11737e-06
5.37638e-06
9.37647e-06
1.46109e-05
1.94208e-05
2.5063e-05
3.2048e-05
3.54626e-05
3.81822e-05
3.8622e-05
3.97001e-05
4.0067e-05
4.06649e-05
4.11987e-05
4.24194e-05
4.4017e-05
4.44995e-05
4.43684e-05
4.29167e-05
4.24684e-05
4.19589e-05
3.70919e-05
3.12342e-05
2.09154e-05
8.54035e-06
1.01801e-06
7.46776e-09
1.45631e-10
2.15626e-07
4.00262e-06
1.4816e-05
2.54055e-05
3.29659e-05
3.79525e-05
4.04418e-05
4.16881e-05
4.17278e-05
4.16903e-05
4.11586e-05
4.09368e-05
4.03108e-05
3.97551e-05
3.83741e-05
3.796e-05
3.72518e-05
3.68276e-05
3.6108e-05
3.37717e-05
2.97576e-05
3.51903e-05
4.928e-05
2.80834e-05
9.50284e-06
4.68394e-06
6.1802e-06
7.36899e-06
1.00461e-05
1.56486e-05
2.06134e-05
2.26829e-05
2.55107e-05
3.04225e-05
3.43825e-05
3.61452e-05
3.6281e-05
3.77435e-05
3.83068e-05
3.87656e-05
3.93883e-05
4.03335e-05
4.13492e-05
4.2299e-05
4.22032e-05
4.25889e-05
4.16943e-05
3.96622e-05
3.61321e-05
2.94808e-05
1.99839e-05
7.88053e-06
9.20165e-07
6.65595e-09
1.3131e-10
1.95128e-07
3.66087e-06
1.388e-05
2.44592e-05
3.15926e-05
3.63952e-05
3.85641e-05
3.94211e-05
3.98995e-05
3.97329e-05
3.92765e-05
3.89914e-05
3.85217e-05
3.78936e-05
3.65964e-05
3.58371e-05
3.55624e-05
3.52064e-05
3.44281e-05
3.26025e-05
2.92269e-05
3.96004e-05
5.7396e-05
2.34715e-05
7.31488e-06
6.45517e-06
1.07748e-05
1.35659e-05
1.77993e-05
2.55315e-05
2.91631e-05
2.7001e-05
2.59389e-05
3.08213e-05
3.26484e-05
3.43482e-05
3.54528e-05
3.56584e-05
3.61176e-05
3.66879e-05
3.73501e-05
3.81335e-05
3.9018e-05
3.9764e-05
4.00731e-05
4.01583e-05
3.94152e-05
3.74475e-05
3.38326e-05
2.76984e-05
1.877e-05
7.31205e-06
8.35198e-07
5.96518e-09
1.18841e-10
1.77275e-07
3.36193e-06
1.28627e-05
2.28512e-05
2.97335e-05
3.42331e-05
3.66076e-05
3.74874e-05
3.77173e-05
3.75336e-05
3.7034e-05
3.66459e-05
3.62383e-05
3.57687e-05
3.49408e-05
3.41258e-05
3.40417e-05
3.37047e-05
3.3151e-05
3.13462e-05
2.84894e-05
3.55708e-05
5.13799e-05
2.00963e-05
9.0706e-06
1.07286e-05
1.86101e-05
2.2783e-05
2.90691e-05
3.95207e-05
4.29171e-05
3.37618e-05
2.74674e-05
2.98212e-05
3.21803e-05
3.28835e-05
3.3677e-05
3.39784e-05
3.43667e-05
3.48878e-05
3.5461e-05
3.6144e-05
3.68988e-05
3.7536e-05
3.787e-05
3.77405e-05
3.70425e-05
3.53793e-05
3.18205e-05
2.60701e-05
1.75617e-05
6.76562e-06
7.614e-07
5.37481e-09
1.07922e-10
1.6164e-07
3.09679e-06
1.19754e-05
2.13013e-05
2.78085e-05
3.21764e-05
3.46225e-05
3.55399e-05
3.57375e-05
3.55476e-05
3.50897e-05
3.46676e-05
3.42891e-05
3.39095e-05
3.33762e-05
3.28643e-05
3.26714e-05
3.23651e-05
3.17001e-05
3.01019e-05
2.77425e-05
3.55244e-05
5.09476e-05
2.52432e-05
1.30442e-05
1.66667e-05
2.85496e-05
3.39436e-05
4.23942e-05
5.6287e-05
5.8884e-05
4.24842e-05
2.85013e-05
2.87001e-05
3.08345e-05
3.18219e-05
3.22981e-05
3.25878e-05
3.29405e-05
3.33387e-05
3.37543e-05
3.42899e-05
3.49054e-05
3.54279e-05
3.57062e-05
3.55902e-05
3.49542e-05
3.33322e-05
2.98953e-05
2.4547e-05
1.6475e-05
6.27411e-06
6.9719e-07
4.86883e-09
9.83336e-11
1.47843e-07
2.85966e-06
1.11673e-05
1.9931e-05
2.60511e-05
3.02444e-05
3.26625e-05
3.36211e-05
3.38563e-05
3.3672e-05
3.32197e-05
3.27929e-05
3.24482e-05
3.21244e-05
3.17738e-05
3.14932e-05
3.13171e-05
3.09997e-05
3.02185e-05
2.87771e-05
2.703e-05
3.46939e-05
5.24433e-05
3.98484e-05
1.90946e-05
2.22013e-05
3.59028e-05
4.43556e-05
5.57288e-05
7.44121e-05
7.97463e-05
5.52845e-05
3.1183e-05
2.80473e-05
2.96116e-05
3.04978e-05
3.08739e-05
3.11349e-05
3.14479e-05
3.17966e-05
3.21506e-05
3.25573e-05
3.30097e-05
3.3425e-05
3.36671e-05
3.3578e-05
3.29926e-05
3.13915e-05
2.80991e-05
2.30889e-05
1.54875e-05
5.84116e-06
6.41158e-07
4.43465e-09
8.99067e-11
1.35652e-07
2.64735e-06
1.04332e-05
1.86674e-05
2.44109e-05
2.84128e-05
3.07783e-05
3.17738e-05
3.20558e-05
3.18912e-05
3.14361e-05
3.10234e-05
3.07314e-05
3.04675e-05
3.02091e-05
3.00217e-05
2.99201e-05
2.97091e-05
2.90696e-05
2.78198e-05
2.61994e-05
3.26348e-05
5.69289e-05
6.37578e-05
3.31744e-05
2.94862e-05
4.3694e-05
5.51115e-05
6.89065e-05
9.07634e-05
0.00010056
7.10552e-05
3.45282e-05
2.73037e-05
2.84031e-05
2.91822e-05
2.9474e-05
2.96973e-05
2.99981e-05
3.03259e-05
3.06373e-05
3.09328e-05
3.12245e-05
3.15402e-05
3.17637e-05
3.1714e-05
3.11683e-05
2.95798e-05
2.64202e-05
2.17398e-05
1.45846e-05
5.45725e-06
5.92308e-07
4.06028e-09
8.25148e-11
1.24917e-07
2.45849e-06
9.7699e-06
1.75128e-05
2.28978e-05
2.67091e-05
2.90129e-05
3.00253e-05
3.03504e-05
3.02253e-05
2.97951e-05
2.94028e-05
2.91486e-05
2.89441e-05
2.87541e-05
2.8626e-05
2.85671e-05
2.84147e-05
2.78734e-05
2.67821e-05
2.54224e-05
3.19928e-05
6.43176e-05
9.00413e-05
6.19626e-05
4.14863e-05
4.74726e-05
5.89693e-05
7.94404e-05
0.000107776
0.000123341
8.82164e-05
3.66727e-05
2.67159e-05
2.7265e-05
2.79554e-05
2.81679e-05
2.83451e-05
2.86136e-05
2.89147e-05
2.91881e-05
2.93884e-05
2.95675e-05
2.98027e-05
3.00186e-05
3.00089e-05
2.94897e-05
2.7902e-05
2.48626e-05
2.04937e-05
1.37616e-05
5.1155e-06
5.49653e-07
3.73739e-09
7.59964e-11
1.15413e-07
2.29046e-06
9.17403e-06
1.6465e-05
2.15136e-05
2.5142e-05
2.73843e-05
2.83972e-05
2.87556e-05
2.86919e-05
2.83221e-05
2.79419e-05
2.76913e-05
2.7526e-05
2.73912e-05
2.73037e-05
2.72758e-05
2.71627e-05
2.66637e-05
2.57249e-05
2.50509e-05
3.47762e-05
7.54771e-05
0.000118203
9.94409e-05
6.58597e-05
5.57238e-05
5.85213e-05
8.35351e-05
0.000120034
0.000145519
9.91107e-05
4.06235e-05
2.61762e-05
2.62269e-05
2.68126e-05
2.69515e-05
2.70783e-05
2.7307e-05
2.75766e-05
2.77974e-05
2.79219e-05
2.80303e-05
2.82233e-05
2.8438e-05
2.84547e-05
2.79449e-05
2.63529e-05
2.34256e-05
1.9347e-05
1.30151e-05
4.80947e-06
5.11899e-07
3.45439e-09
7.02607e-11
1.07038e-07
2.14067e-06
8.63523e-06
1.55123e-05
2.0244e-05
2.36976e-05
2.58867e-05
2.68926e-05
2.72728e-05
2.72783e-05
2.6993e-05
2.66212e-05
2.63407e-05
2.61798e-05
2.60863e-05
2.60277e-05
2.60231e-05
2.59514e-05
2.54984e-05
2.47479e-05
2.50224e-05
4.07255e-05
8.80558e-05
0.000148665
0.000139033
0.000100554
7.36154e-05
6.47003e-05
8.50384e-05
0.000129967
0.000174048
0.000122281
4.42882e-05
2.58113e-05
2.52517e-05
2.57103e-05
2.57924e-05
2.5873e-05
2.60694e-05
2.6312e-05
2.64718e-05
2.65336e-05
2.66128e-05
2.67872e-05
2.69975e-05
2.70204e-05
2.65043e-05
2.49164e-05
2.21013e-05
1.82938e-05
1.2335e-05
4.53514e-06
4.78319e-07
3.206e-09
6.51713e-11
9.95536e-08
2.0094e-06
8.1445e-06
1.46352e-05
1.90608e-05
2.23418e-05
2.44867e-05
2.54877e-05
2.58798e-05
2.59469e-05
2.57549e-05
2.54024e-05
2.50766e-05
2.48902e-05
2.48194e-05
2.47847e-05
2.4802e-05
2.4778e-05
2.44035e-05
2.39114e-05
2.52845e-05
4.84726e-05
9.19267e-05
0.000182388
0.000176844
0.000137381
0.000101289
7.93355e-05
9.23324e-05
0.000146612
0.000207186
0.000143831
4.56956e-05
2.53465e-05
2.43317e-05
2.46573e-05
2.46688e-05
2.47059e-05
2.48805e-05
2.51026e-05
2.52089e-05
2.52257e-05
2.52977e-05
2.54644e-05
2.56616e-05
2.56673e-05
2.51346e-05
2.35694e-05
2.08809e-05
1.73302e-05
1.17196e-05
4.29294e-06
4.50193e-07
3.01424e-09
6.06738e-11
9.2921e-08
1.8848e-06
7.69245e-06
1.38149e-05
1.79349e-05
2.10363e-05
2.31454e-05
2.41552e-05
2.45503e-05
2.46603e-05
2.4554e-05
2.42464e-05
2.38883e-05
2.36674e-05
2.36029e-05
2.35878e-05
2.36391e-05
2.3664e-05
2.33881e-05
2.32071e-05
2.61613e-05
5.11369e-05
9.67739e-05
0.000176506
0.000206791
0.000169662
0.000131408
0.000103352
0.000111225
0.000166848
0.000224522
0.000155244
4.86528e-05
2.47409e-05
2.34315e-05
2.36512e-05
2.35841e-05
2.35746e-05
2.37321e-05
2.39317e-05
2.4e-05
2.39936e-05
2.4068e-05
2.42347e-05
2.43977e-05
2.43699e-05
2.38134e-05
2.22922e-05
1.97481e-05
1.64458e-05
1.11558e-05
4.07453e-06
4.25532e-07
2.86045e-09
5.66634e-11
8.70068e-08
1.77483e-06
7.27341e-06
1.30416e-05
1.68546e-05
1.97696e-05
2.18514e-05
2.289e-05
2.32784e-05
2.34031e-05
2.33645e-05
2.31298e-05
2.27782e-05
2.2534e-05
2.24613e-05
2.24582e-05
2.25409e-05
2.26032e-05
2.24263e-05
2.25381e-05
2.56067e-05
4.84109e-05
0.000105421
0.000184801
0.00022038
0.000196226
0.000159721
0.000126412
0.000135014
0.000177247
0.000227126
0.000148118
4.57294e-05
2.3913e-05
2.25327e-05
2.26579e-05
2.25222e-05
2.24767e-05
2.26226e-05
2.27939e-05
2.28354e-05
2.28233e-05
2.29063e-05
2.30731e-05
2.31963e-05
2.31199e-05
2.25393e-05
2.10721e-05
1.86844e-05
1.56264e-05
1.06325e-05
3.87278e-06
4.02854e-07
2.71849e-09
5.31069e-11
8.17015e-08
1.67425e-06
6.88585e-06
1.23192e-05
1.58329e-05
1.85623e-05
2.06257e-05
2.17044e-05
2.20741e-05
2.21829e-05
2.21889e-05
2.20518e-05
2.17465e-05
2.14948e-05
2.14048e-05
2.1401e-05
2.14965e-05
2.15752e-05
2.14851e-05
2.18783e-05
2.59801e-05
5.07491e-05
0.000116034
0.000199344
0.00022765
0.000216044
0.000184611
0.000160431
0.000151151
0.000187584
0.00022208
0.000132944
4.21327e-05
2.28718e-05
2.15601e-05
2.1654e-05
2.14684e-05
2.1406e-05
2.15523e-05
2.16898e-05
2.17067e-05
2.16951e-05
2.17927e-05
2.19662e-05
2.20549e-05
2.19185e-05
2.1322e-05
1.99084e-05
1.76818e-05
1.48646e-05
1.01451e-05
3.68318e-06
3.81701e-07
2.58526e-09
4.99004e-11
7.68646e-08
1.58157e-06
6.52721e-06
1.16524e-05
1.48889e-05
1.74445e-05
1.94947e-05
2.06122e-05
2.09554e-05
2.1027e-05
2.10583e-05
2.1023e-05
2.07843e-05
2.0528e-05
2.04135e-05
2.03973e-05
2.04842e-05
2.05577e-05
2.05396e-05
2.11871e-05
2.63819e-05
5.61987e-05
0.000123624
0.0002125
0.000236388
0.000226296
0.000195142
0.000171605
0.000168016
0.000215082
0.000218283
0.000125928
3.80022e-05
2.17657e-05
2.06457e-05
2.06436e-05
2.04265e-05
2.03707e-05
2.0521e-05
2.06225e-05
2.06125e-05
2.05981e-05
2.07166e-05
2.09077e-05
2.0971e-05
2.07876e-05
2.01702e-05
1.87974e-05
1.67312e-05
1.41525e-05
9.6907e-06
3.50652e-06
3.61846e-07
2.46235e-09
4.69906e-11
7.24639e-08
1.49561e-06
6.19481e-06
1.1042e-05
1.40294e-05
1.64273e-05
1.8462e-05
1.96059e-05
1.99346e-05
1.99723e-05
2.00109e-05
2.00474e-05
1.98807e-05
1.96104e-05
1.9459e-05
1.94225e-05
1.94899e-05
1.9552e-05
1.95857e-05
2.04618e-05
2.6975e-05
6.02881e-05
0.00014235
0.000217146
0.000256407
0.0002272
0.000202178
0.00018162
0.000185187
0.000216078
0.000218312
0.000124944
3.51182e-05
2.08252e-05
1.98122e-05
1.9639e-05
1.94091e-05
1.93832e-05
1.95336e-05
1.95979e-05
1.95564e-05
1.95359e-05
1.96793e-05
1.9897e-05
1.99455e-05
1.97257e-05
1.90787e-05
1.77391e-05
1.58261e-05
1.34838e-05
9.26439e-06
3.34065e-06
3.43451e-07
2.34843e-09
4.43013e-11
6.83989e-08
1.41527e-06
5.87947e-06
1.04677e-05
1.32293e-05
1.54775e-05
1.75015e-05