/*--------------------------------*- C++ -*----------------------------------*\
  =========                 |
  \\      /  F ield         | OpenFOAM: The Open Source CFD Toolbox
   \\    /   O peration     | Website:  https://openfoam.org
    \\  /    A nd           | Version:  7
     \\/     M anipulation  |
\*---------------------------------------------------------------------------*/
FoamFile
{
    version     2.0;
    format      ascii;
    class       volScalarField;
    location    "60";
    object      p;
}
// * * * * * * * * * * * * * * * * * * * * * * * * * * * * * * * * * * * * * //

dimensions      [0 2 -2 0 0 0 0];

internalField   nonuniform List<scalar> 
17475
(
0.733966
0.419422
0.330104
0.291672
0.269266
0.25453
0.244188
0.236694
0.231204
0.227201
0.224347
0.222407
0.221207
0.220612
0.220515
0.220822
0.221455
0.222341
0.223411
0.224604
0.225859
0.227123
0.228342
0.229469
0.230463
0.231292
0.231927
0.23235
0.232552
0.232535
0.23231
0.231896
0.231324
0.23063
0.229857
0.229055
0.228278
0.227583
0.227034
0.226698
0.226648
0.226967
0.227747
0.229097
0.23115
0.234077
0.238106
0.243555
0.250888
0.260816
0.274472
0.293729
0.321417
0.364183
0.386072
0.295859
0.310423
0.29629
0.27773
0.262143
0.250283
0.241378
0.234697
0.229709
0.226039
0.223419
0.221651
0.220584
0.220098
0.220093
0.220482
0.221188
0.222142
0.223278
0.224532
0.225846
0.227163
0.228433
0.229605
0.23064
0.231498
0.232153
0.232586
0.232789
0.232761
0.232516
0.232074
0.231466
0.230729
0.229907
0.229052
0.228216
0.227459
0.226842
0.226434
0.226305
0.226533
0.227206
0.228426
0.230313
0.23302
0.236743
0.241749
0.248412
0.257272
0.269151
0.285376
0.307843
0.343576
0.353242
0.262903
0.26022
0.258191
0.252124
0.245466
0.239027
0.233419
0.228814
0.225194
0.222469
0.22053
0.219278
0.218617
0.218465
0.218745
0.219389
0.220329
0.221501
0.222844
0.224297
0.2258
0.227294
0.228726
0.230045
0.231202
0.232155
0.232875
0.233343
0.233548
0.233492
0.233186
0.232656
0.231934
0.231062
0.230086
0.229061
0.228042
0.227089
0.226261
0.225625
0.225246
0.225192
0.225536
0.226356
0.22774
0.229788
0.232611
0.236339
0.241107
0.247032
0.254135
0.262088
0.2698
0.274351
0.266038
0.216101
0.224502
0.229564
0.230049
0.228279
0.225718
0.223047
0.220616
0.218604
0.217082
0.216067
0.215544
0.21548
0.215834
0.216559
0.217607
0.218924
0.220456
0.222145
0.223932
0.225756
0.227555
0.229271
0.230839
0.232206
0.233328
0.234164
0.234692
0.234902
0.234794
0.234383
0.233698
0.232779
0.231672
0.230433
0.229119
0.227791
0.226508
0.225333
0.22433
0.223552
0.223057
0.222897
0.223123
0.223781
0.22491
0.226535
0.228651
0.231196
0.234
0.236692
0.23849
0.238019
0.232134
0.217009
0.194926
0.201341
0.207675
0.211047
0.212314
0.212446
0.212006
0.211391
0.210843
0.210505
0.21046
0.210747
0.211377
0.212344
0.213627
0.215198
0.217016
0.219036
0.221205
0.223464
0.225748
0.227993
0.230119
0.232056
0.233738
0.235107
0.236117
0.236736
0.236948
0.23676
0.236188
0.23527
0.234054
0.232601
0.230975
0.229244
0.227476
0.225732
0.224085
0.222589
0.221293
0.220238
0.219462
0.218988
0.218828
0.218974
0.219392
0.220002
0.220658
0.221108
0.220927
0.219446
0.215583
0.207848
0.197767
0.180854
0.185515
0.191466
0.195742
0.198414
0.200063
0.201102
0.201835
0.202475
0.203173
0.204032
0.205118
0.206469
0.208102
0.210017
0.212202
0.214628
0.217258
0.220042
0.222919
0.225825
0.228666
0.231355
0.233804
0.235926
0.237647
0.2389
0.239643
0.239857
0.239546
0.23874
0.237484
0.235849
0.23391
0.231752
0.229458
0.227103
0.224765
0.222523
0.220422
0.218509
0.216814
0.215359
0.214148
0.21317
0.212388
0.211739
0.211117
0.210364
0.209243
0.207426
0.204489
0.199828
0.192946
0.18651
0.170078
0.173366
0.178343
0.182823
0.186152
0.188651
0.190625
0.192293
0.193829
0.195365
0.197004
0.198821
0.200868
0.203178
0.205765
0.20863
0.211755
0.215112
0.21865
0.222315
0.226011
0.229635
0.233078
0.236222
0.238951
0.241159
0.24275
0.243664
0.243871
0.243379
0.242234
0.240501
0.23828
0.235678
0.232806
0.229771
0.226664
0.223593
0.220629
0.217823
0.215215
0.212829
0.210673
0.208738
0.206997
0.205403
0.203881
0.202324
0.200595
0.198516
0.195856
0.192339
0.187654
0.181926
0.177552
0.160692
0.163147
0.167273
0.171563
0.17509
0.178013
0.180539
0.182823
0.184999
0.187182
0.189464
0.191922
0.19461
0.197573
0.200842
0.204427
0.20833
0.212527
0.216978
0.221603
0.226301
0.230945
0.235391
0.23948
0.243047
0.245933
0.247998
0.249148
0.249337
0.248577
0.246937
0.244526
0.24149
0.237984
0.234163
0.230167
0.226116
0.222152
0.218339
0.214733
0.211369
0.208263
0.205412
0.202795
0.200377
0.198101
0.195892
0.193658
0.191286
0.188642
0.185569
0.181876
0.17739
0.172518
0.169284
0.151924
0.153817
0.157245
0.161226
0.164768
0.167877
0.1707
0.173361
0.175968
0.178618
0.181395
0.184376
0.187627
0.191201
0.195142
0.199476
0.20421
0.209363
0.214871
0.220656
0.226618
0.232591
0.238381
0.243768
0.24851
0.252365
0.25511
0.256594
0.256743
0.255579
0.253211
0.249818
0.245635
0.240888
0.235801
0.230554
0.22534
0.220303
0.215511
0.211019
0.206856
0.203023
0.199507
0.196273
0.193272
0.190447
0.187724
0.18502
0.182244
0.179286
0.176043
0.172371
0.168241
0.164251
0.161789
0.143402
0.144887
0.147735
0.151363
0.154814
0.15796
0.160908
0.163768
0.166634
0.16959
0.17272
0.176098
0.179799
0.183894
0.188447
0.193504
0.199138
0.205328
0.212044
0.219222
0.226753
0.234465
0.242076
0.249277
0.255709
0.260988
0.264744
0.266722
0.266793
0.264999
0.261531
0.256685
0.250851
0.244382
0.23759
0.230739
0.224103
0.217796
0.211899
0.206456
0.201476
0.196942
0.192816
0.189048
0.185577
0.182336
0.179247
0.176235
0.17322
0.170124
0.166853
0.163306
0.159477
0.156061
0.154131
0.134928
0.136108
0.138482
0.141735
0.144999
0.148059
0.150995
0.153903
0.156868
0.159972
0.163295
0.16692
0.170937
0.175433
0.180502
0.186228
0.192701
0.19996
0.208012
0.216823
0.226295
0.236257
0.246361
0.256146
0.265075
0.272525
0.277852
0.280597
0.280521
0.277705
0.272498
0.265447
0.25719
0.248297
0.239202
0.230342
0.221975
0.214212
0.207118
0.200703
0.194938
0.189771
0.185129
0.180934
0.177117
0.173599
0.170311
0.167167
0.164084
0.160982
0.157781
0.154406
0.150931
0.148045
0.146483
0.126385
0.127328
0.129295
0.132157
0.135153
0.138024
0.140823
0.143638
0.146548
0.149632
0.152971
0.15666
0.160802
0.165513
0.170905
0.177149
0.18434
0.192593
0.202019
0.212645
0.224435
0.237247
0.250762
0.264301
0.277036
0.287941
0.295857
0.299862
0.299502
0.294929
0.286852
0.276328
0.264451
0.252091
0.239969
0.22863
0.218243
0.208901
0.200602
0.19328
0.186834
0.181163
0.176153
0.171722
0.167759
0.164155
0.160822
0.157677
0.154643
0.151646
0.14861
0.145477
0.142371
0.139935
0.13868
0.117703
0.118461
0.120064
0.122505
0.125158
0.127748
0.130298
0.132883
0.135578
0.13846
0.141614
0.145143
0.149165
0.15382
0.159263
0.1657
0.173311
0.182315
0.192927
0.205379
0.219765
0.236063
0.254079
0.273098
0.291801
0.308482
0.320924
0.327169
0.326235
0.318457
0.305386
0.289179
0.27178
0.254566
0.238623
0.224337
0.21179
0.200919
0.191562
0.183527
0.176655
0.170778
0.165699
0.161267
0.157348
0.153833
0.150623
0.147632
0.144784
0.142004
0.139223
0.136398
0.133684
0.131661
0.130666
0.10886
0.109451
0.110716
0.11272
0.114972
0.117191
0.119378
0.121595
0.123912
0.1264
0.129146
0.13225
0.135843
0.140065
0.145154
0.151305
0.158791
0.167966
0.179234
0.193026
0.209854
0.230006
0.253606
0.280364
0.308603
0.335376
0.35636
0.366964
0.36478
0.350672
0.328361
0.302594
0.27678
0.253206
0.23276
0.215432
0.20095
0.188923
0.179001
0.170828
0.164032
0.158325
0.153491
0.149344
0.145723
0.142523
0.139631
0.136951
0.134426
0.13198
0.129549
0.127109
0.124823
0.123159
0.122332
0.0998965
0.100356
0.101304
0.102838
0.104604
0.106362
0.10808
0.109803
0.111586
0.113489
0.115589
0.117975
0.120765
0.124127
0.128286
0.133466
0.140001
0.148333
0.159055
0.172955
0.190939
0.214165
0.243736
0.280247
0.323249
0.368345
0.406882
0.426944
0.421799
0.393826
0.353406
0.311541
0.274005
0.243102
0.218349
0.198802
0.183507
0.171559
0.162116
0.154551
0.148459
0.143457
0.139328
0.135843
0.132841
0.130208
0.12784
0.125655
0.123591
0.121588
0.119596
0.11761
0.115793
0.114524
0.113897
0.0908321
0.0911755
0.091812
0.0928569
0.0940949
0.0953193
0.0964785
0.097592
0.098694
0.0998279
0.101048
0.102425
0.104048
0.106074
0.108652
0.112015
0.116483
0.122509
0.130751
0.142175
0.158223
0.180934
0.213298
0.258729
0.320855
0.398778
0.476108
0.519074
0.506441
0.445227
0.368255
0.301551
0.25151
0.215271
0.189404
0.170934
0.1575
0.147545
0.140037
0.134294
0.129803
0.126227
0.123313
0.120856
0.118784
0.116965
0.115317
0.113768
0.112283
0.110829
0.109362
0.107896
0.106584
0.10569
0.105232
0.0817326
0.0819592
0.0822764
0.0828247
0.0835133
0.0841716
0.0847181
0.0851421
0.0854558
0.0856786
0.0858352
0.0859551
0.0860752
0.0862871
0.0866598
0.0873438
0.0885195
0.0904589
0.0936818
0.0989112
0.107342
0.121328
0.144837
0.185028
0.255033
0.378114
0.542631
0.647289
0.614324
0.467817
0.323265
0.236695
0.18707
0.157936
0.140188
0.128997
0.121609
0.116466
0.112901
0.110306
0.108306
0.106813
0.105627
0.104627
0.103769
0.10298
0.102222
0.101463
0.100678
0.099845
0.0989532
0.0980351
0.0972287
0.096715
0.0964292
0.0723673
0.0724288
0.0724954
0.0727099
0.0729732
0.0731058
0.073021
0.0727074
0.0721633
0.0713834
0.0703533
0.0690545
0.0674671
0.0655792
0.0633422
0.0607158
0.0576419
0.0540406
0.0498178
0.0448176
0.0388203
0.0318175
0.0233484
0.0129279
0.000722248
0.0999179
0.379777
0.248632
0.0957013
0.0457371
0.0559719
0.0639139
0.0697544
0.0741188
0.0775267
0.0800776
0.08212
0.0837465
0.0850598
0.0861358
0.087006
0.0877003
0.088234
0.0886167
0.0888553
0.0889548
0.0889173
0.0887453
0.0884489
0.0880781
0.0877652
0.0876378
0.0875828
0.0615551
0.0617269
0.0622116
0.0626888
0.0627858
0.0624144
0.0616634
0.0605707
0.0591381
0.0573435
0.0551114
0.052371
0.0490409
0.0449919
0.040057
0.0340072
0.0265086
0.01706
0.00484962
-0.0114685
-0.0343183
-0.0683159
-0.123215
-0.222668
-0.35814
-0.412789
-0.243226
-0.110706
-0.0445953
-0.00709213
0.0161799
0.0316593
0.0425423
0.0505376
0.0566098
0.0613444
0.0651082
0.0681329
0.0705727
0.0725697
0.0741801
0.0754607
0.0764753
0.0772128
0.0777165
0.0780125
0.078127
0.0780864
0.0779385
0.0777879
0.0562238
0.0558964
0.0555875
0.0548228
0.0537697
0.0525446
0.0510753
0.049259
0.0470012
0.0442271
0.0408405
0.0367242
0.0317316
0.0256478
0.0182134
0.00907278
-0.00228862
-0.0166175
-0.0350201
-0.0592234
-0.0920016
-0.138104
-0.207196
-0.312131
-0.409657
-0.271636
-0.17635
-0.103947
-0.0584933
-0.0276039
-0.00562761
0.01052
0.0227289
0.0321862
0.0396616
0.0456649
0.050553
0.0545717
0.057866
0.0605825
0.0628166
0.0646244
0.0660969
0.0672563
0.0681149
0.0686626
0.0688506
0.0686605
0.0684021
0.0461628
0.0461775
0.0458006
0.0450989
0.0440362
0.0425276
0.0405574
0.038104
0.0351127
0.0315013
0.0271602
0.0219486
0.0156837
0.00809146
-0.00111791
-0.0123455
-0.02614
-0.0432489
-0.0646981
-0.0918757
-0.126613
-0.171224
-0.227625
-0.292465
-0.325164
-0.334984
-0.243415
-0.218257
-0.178295
-0.130752
-0.0916052
-0.060506
-0.0362427
-0.0172348
-0.00223896
0.00973658
0.0194108
0.0273026
0.033796
0.0391752
0.04365
0.0473837
0.0505028
0.0531022
0.0552656
0.0570595
0.0585504
0.0598019
0.0608427
0.0615659
0.0616924
0.0386447
0.0387501
0.0382964
0.0372064
0.0356076
0.0335947
0.0311547
0.0282207
0.0247059
0.0205122
0.0155198
0.00957732
0.00250749
-0.00596273
-0.0161008
-0.0282922
-0.0430099
-0.0608315
-0.08253
-0.108987
-0.141106
-0.180093
-0.227154
-0.275443
-0.297983
-0.298213
-0.284752
-0.257528
-0.23215
-0.215348
-0.203976
-0.195637
-0.173402
-0.139298
-0.107459
-0.0800388
-0.0569154
-0.0375784
-0.0216376
-0.00844288
0.00254555
0.0116634
0.0192843
0.0256834
0.031063
0.0356008
0.0394341
0.0426736
0.0454135
0.0477338
0.0496955
0.0513124
0.0525107
0.0531673
0.0532727
0.0316185
0.0316919
0.0311359
0.0298512
0.027976
0.025638
0.022856
0.0195752
0.0157093
0.0111567
0.00580141
-0.000500675
-0.00791933
-0.0167082
-0.0270982
-0.03938
-0.0539242
-0.0711656
-0.091616
-0.115867
-0.144602
-0.178689
-0.219061
-0.259323
-0.282817
-0.289647
-0.283257
-0.260699
-0.232624
-0.208194
-0.191439
-0.184157
-0.171424
-0.145238
-0.117887
-0.0931907
-0.0715099
-0.0527791
-0.03675
-0.023111
-0.0115096
-0.00167405
0.00668267
0.0138118
0.0198512
0.0249936
0.0293776
0.0331271
0.0363262
0.0390528
0.0413745
0.0432945
0.044714
0.0454804
0.0455543
0.0250129
0.0250857
0.0245089
0.023152
0.0211431
0.0186353
0.0156764
0.0122267
0.00820976
0.00353315
-0.00190873
-0.00823914
-0.015608
-0.0241758
-0.0341893
-0.0458291
-0.0593602
-0.0750744
-0.0933076
-0.114435
-0.138862
-0.167214
-0.200077
-0.233539
-0.257432
-0.269464
-0.270728
-0.255507
-0.230063
-0.204632
-0.187301
-0.180672
-0.171187
-0.149069
-0.124386
-0.101679
-0.0813788
-0.0634588
-0.0477938
-0.0341847
-0.0224524
-0.0123364
-0.00364637
0.00382657
0.0102515
0.015774
0.0205204
0.0246022
0.0281138
0.031136
0.0337233
0.0358572
0.0374128
0.0382309
0.0383106
0.0191084
0.0192096
0.0186609
0.0173114
0.0152702
0.0127134
0.0097109
0.00624137
0.0022439
-0.00235594
-0.00764451
-0.013719
-0.0206915
-0.0287076
-0.0379218
-0.0484393
-0.0604268
-0.0740551
-0.0894957
-0.106893
-0.126449
-0.148467
-0.173097
-0.197917
-0.218747
-0.234622
-0.243952
-0.238499
-0.221964
-0.203049
-0.189274
-0.182814
-0.173641
-0.152612
-0.128727
-0.106858
-0.0874844
-0.0703636
-0.0552887
-0.042076
-0.0305351
-0.0204791
-0.0117449
-0.00416364
0.00241722
0.00810545
0.013029
0.017297
0.0209884
0.0241826
0.0269207
0.0291668
0.0307749
0.0315977
0.0316588
0.013909
0.0140398
0.013535
0.0122386
0.0102532
0.00775107
0.0048198
0.00145886
-0.00237669
-0.00674456
-0.0117065
-0.0173357
-0.0237043
-0.0308916
-0.039019
-0.0481358
-0.0582972
-0.0695609
-0.0819414
-0.0954514
-0.109996
-0.125519
-0.141871
-0.157868
-0.174097
-0.192163
-0.209018
-0.214809
-0.210269
-0.200911
-0.192639
-0.187109
-0.176022
-0.154205
-0.130433
-0.109133
-0.0904533
-0.0740952
-0.0597158
-0.0470743
-0.0359757
-0.0262479
-0.0177337
-0.0102916
-0.00379387
0.00187406
0.00681353
0.0111165
0.0148602
0.0181131
0.0209027
0.0231753
0.0247761
0.0255614
0.0255827
0.00942611
0.00960593
0.00917642
0.007977
0.00610135
0.0037212
0.000948258
-0.00220427
-0.00576796
-0.00978494
-0.014297
-0.0193464
-0.0249734
-0.0312194
-0.0381303
-0.0457321
-0.0539862
-0.0628536
-0.0722641
-0.0820402
-0.0919118
-0.101556
-0.110527
-0.118992
-0.131324
-0.151106
-0.174193
-0.190278
-0.196766
-0.196193
-0.19279
-0.187229
-0.173983
-0.151623
-0.128281
-0.107841
-0.0901624
-0.0747497
-0.0612694
-0.0494178
-0.0389835
-0.029797
-0.0217132
-0.0146048
-0.00835993
-0.00288175
0.00191711
0.00611679
0.00978944
0.0129931
0.0157446
0.0179794
0.019537
0.0202838
0.0202665
0.0056325
0.0058435
0.00549405
0.00443734
0.00273501
0.000553401
-0.00198998
-0.00486336
-0.00808225
-0.011673
-0.0156614
-0.0200681
-0.0249083
-0.0301794
-0.0358755
-0.0419925
-0.048445
-0.0551226
-0.0618572
-0.0683971
-0.0743954
-0.0793172
-0.0827506
-0.0856294
-0.0955892
-0.117419
-0.145033
-0.167799
-0.181588
-0.187086
-0.186482
-0.179868
-0.164812
-0.143169
-0.12151
-0.102623
-0.0864285
-0.0723729
-0.060066
-0.0492498
-0.0397019
-0.0312603
-0.0237945
-0.0171943
-0.0113659
-0.00622646
-0.00170074
0.00227984
0.00577646
0.008835
0.0114596
0.0135748
0.0150207
0.0156798
0.0156242
0.00248251
0.00273176
0.00247794
0.00157568
7.4848e-05
-0.0018722
-0.00414611
-0.00670153
-0.00953975
-0.012673
-0.0161115
-0.0198585
-0.0239092
-0.0282406
-0.0328124
-0.0375859
-0.0424607
-0.0472689
-0.0518133
-0.0558305
-0.0589547
-0.0606602
-0.0604983
-0.059867
-0.0689931
-0.0920698
-0.121823
-0.14694
-0.16375
-0.171895
-0.171957
-0.163785
-0.148256
-0.128743
-0.109947
-0.0935714
-0.079446
-0.0671338
-0.0563485
-0.0468139
-0.0383635
-0.0308533
-0.0241734
-0.0182347
-0.0129602
-0.00828294
-0.00414208
-0.00048253
0.00274439
0.00557158
0.00799109
0.0099209
0.0112158
0.0117802
0.0116793
-7.29476e-05
0.000211528
4.88852e-05
-0.000693799
-0.00198064
-0.00367484
-0.00565895
-0.00787898
-0.0103245
-0.0129965
-0.0158936
-0.0190067
-0.0223173
-0.0257958
-0.0293892
-0.0330135
-0.0365594
-0.0398818
-0.042786
-0.0450204
-0.0462684
-0.0460587
-0.0439569
-0.0419142
-0.0514406
-0.074655
-0.102476
-0.126058
-0.142895
-0.150985
-0.149427
-0.139719
-0.125469
-0.109472
-0.0944177
-0.081204
-0.0696594
-0.0594882
-0.0504659
-0.0424492
-0.0352793
-0.0288517
-0.0230897
-0.0179291
-0.0133139
-0.00919532
-0.00552858
-0.0022725
0.000608681
0.00313534
0.00528951
0.00698911
0.00810508
0.0085595
0.00841546
-0.00209081
-0.00177704
-0.00185153
-0.00244184
-0.00351191
-0.00494788
-0.00663727
-0.00852152
-0.0105814
-0.0128109
-0.0152019
-0.0177384
-0.0203906
-0.0231173
-0.025859
-0.0285364
-0.031054
-0.0333006
-0.0350833
-0.036197
-0.0363883
-0.0352904
-0.0324926
-0.0301896
-0.0394571
-0.0604938
-0.0844567
-0.104888
-0.118716
-0.12395
-0.120353
-0.1105
-0.0988792
-0.0871283
-0.0762563
-0.0665545
-0.0578585
-0.0500372
-0.0429823
-0.0365937
-0.0308153
-0.0255674
-0.0208083
-0.0165028
-0.0126185
-0.00912544
-0.00599537
-0.00320195
-0.00072253
0.00145172
0.00329575
0.00473161
0.00564704
0.00598285
0.00579997
-0.00364017
-0.00330614
-0.00329938
-0.00373042
-0.004592
-0.00577726
-0.00718
-0.0087407
-0.010436
-0.0122534
-0.0141803
-0.0161948
-0.0182684
-0.0203623
-0.0224266
-0.0243931
-0.0261753
-0.027662
-0.0287412
-0.0292511
-0.0290064
-0.0277187
-0.0248963
-0.0225592
-0.0301556
-0.0471293
-0.066164
-0.0818329
-0.0915082
-0.0937434
-0.0887417
-0.0796345
-0.0712023
-0.0637802
-0.0570223
-0.0507968
-0.0449719
-0.0395159
-0.0344491
-0.029745
-0.0253794
-0.0213491
-0.0176292
-0.0142127
-0.0110928
-0.00825923
-0.00570005
-0.00340322
-0.00135906
0.000431097
0.00193725
0.00309074
0.00379533
0.00401307
0.00379324
-0.0047789
-0.004432
-0.00435808
-0.00465005
-0.00530904
-0.00624798
-0.00737465
-0.0086285
-0.00998301
-0.0114239
-0.0129374
-0.0145044
-0.0160982
-0.0176829
-0.0192138
-0.0206368
-0.0218921
-0.0229086
-0.0235997
-0.0238807
-0.0236194
-0.0225756
-0.0201848
-0.0178395
-0.0225754
-0.0343954
-0.0476412
-0.0585071
-0.0642428
-0.0637043
-0.0578481
-0.0501261
-0.0448545
-0.0412679
-0.038142
-0.0350549
-0.0318823
-0.0286664
-0.0254776
-0.0223868
-0.0194041
-0.0165576
-0.0138589
-0.0113226
-0.0089651
-0.00679373
-0.00481227
-0.00302203
-0.00142509
-3.18525e-05
0.00112621
0.00198808
0.00248484
0.00258885
0.00233801
-0.00556894
-0.0052102
-0.00507485
-0.00524412
-0.0057208
-0.00642631
-0.00729
-0.00825821
-0.00930233
-0.0104071
-0.0115592
-0.0127405
-0.0139284
-0.0150957
-0.0162109
-0.017239
-0.0181402
-0.0188729
-0.0193951
-0.0196622
-0.0196176
-0.0190431
-0.0173162
-0.0149457
-0.0167275
-0.0235457
-0.0315093
-0.0374681
-0.0394851
-0.037004
-0.0307861
-0.0243086
-0.0214623
-0.0208995
-0.0207082
-0.0202429
-0.0193503
-0.0181054
-0.0166128
-0.0149731
-0.0132644
-0.0115168
-0.00977901
-0.0080777
-0.00644873
-0.00491558
-0.00349527
-0.00220062
-0.00104389
-4.18098e-05
0.000774248
0.00135571
0.00165205
0.00165134
0.00137569
-0.00606417
-0.00570732
-0.00552179
-0.00557178
-0.00586623
-0.00635705
-0.00697905
-0.00768403
-0.00844571
-0.00924883
-0.0100817
-0.0109304
-0.0117791
-0.0126089
-0.0134003
-0.0141328
-0.0147878
-0.0153481
-0.0158056
-0.0161601
-0.0163997
-0.0163417
-0.0153668
-0.013259
-0.0128189
-0.0153963
-0.0186949
-0.020606
-0.0195908
-0.0151495
-0.00842209
-0.00284874
-0.00183367
-0.00347668
-0.00546331
-0.00702375
-0.00795902
-0.00833819
-0.0082779
-0.00789043
-0.00727721
-0.00651148
-0.00563529
-0.0046981
-0.00373671
-0.00279463
-0.00189856
-0.00107049
-0.000330103
0.00030103
0.000794922
0.0011137
0.00122803
0.00113583
0.000841915
-0.00631258
-0.00595245
-0.00572544
-0.00567618
-0.00581106
-0.0060981
-0.00649057
-0.00695004
-0.00745265
-0.00798465
-0.00853616
-0.00909707
-0.00965668
-0.0102039
-0.0107289
-0.0112241
-0.0116865
-0.0121195
-0.012537
-0.0129671
-0.0134303
-0.0138188
-0.0134961
-0.0118719
-0.0102444
-0.00992654
-0.00975719
-0.00823512
-0.0045666
0.00137006
0.00856025
0.0137416
0.0137255
0.010663
0.00719083
0.00418402
0.00189046
0.00026375
-0.000807612
-0.00143867
-0.00173309
-0.00178036
-0.00164333
-0.00136824
-0.000999158
-0.000581729
-0.000156462
0.000249164
0.000610526
0.000904617
0.00110663
0.00119385
0.00114787
0.000974251
0.00066808
-0.00634657
-0.00599148
-0.00573601
-0.00559622
-0.0055828
-0.00568081
-0.00586029
-0.00609138
-0.00635626
-0.0066425
-0.00694178
-0.00724689
-0.00755137
-0.00784994
-0.00814006
-0.00842276
-0.00870524
-0.00900252
-0.00934237
-0.00976706
-0.0103197
-0.0109293
-0.0112083
-0.0102073
-0.00827861
-0.0062629
-0.00375706
-1.32647e-06
0.00560009
0.0129886
0.020835
0.0259123
0.0253365
0.0214672
0.0171093
0.0131878
0.00998524
0.00748295
0.00558556
0.00418579
0.00318381
0.00249076
0.00203291
0.00176178
0.00163033
0.00159685
0.00161678
0.00165494
0.00168445
0.00168278
0.00163128
0.00151786
0.00134019
0.00110346
0.000790835
-0.00620304
-0.00585857
-0.00557638
-0.00535935
-0.00521689
-0.00513799
-0.00511657
-0.005136
-0.00518088
-0.0052413
-0.00531005
-0.00538186
-0.00545301
-0.00552162
-0.00558889
-0.00566036
-0.00574741
-0.00586992
-0.00605988
-0.00636455
-0.00683511
-0.00744164
-0.00785012
-0.00746388
-0.0059965
-0.00352268
7.84548e-05
0.00528843
0.0122027
0.0204539
0.0287609
0.0339489
0.0332909
0.0291235
0.0243656
0.0199833
0.0162717
0.0132359
0.0108007
0.00887236
0.00736291
0.00618962
0.0052809
0.00458328
0.00405031
0.00364755
0.00333084
0.00306213
0.00281334
0.00256359
0.00230071
0.00202251
0.00173597
0.00145206
0.00113466
-0.00590565
-0.00557308
-0.00527616
-0.00499084
-0.00472869
-0.00449247
-0.00428618
-0.00410739
-0.00394756
-0.00379837
-0.00365353
-0.0035082
-0.00335961
-0.00320692
-0.00305222
-0.00290154
-0.0027664
-0.00266586
-0.00262953
-0.00269914
-0.00292253
-0.00331641
-0.00376602
-0.0037716
-0.00292872
-0.00074917
0.00310401
0.00866177
0.0160778
0.0248783
0.0334633
0.0387156
0.0381075
0.0339628
0.0291776
0.0247
0.0208176
0.0175439
0.014824
0.0125859
0.0107539
0.00925595
0.00802996
0.00702254
0.00619113
0.00550105
0.00491857
0.00440558
0.0039342
0.00348483
0.00305331
0.00264315
0.00227288
0.00195175
0.00163543
-0.00547766
-0.00515851
-0.00484505
-0.00451165
-0.00414498
-0.0037642
-0.00338876
-0.00302676
-0.00267692
-0.00233294
-0.00198861
-0.00163894
-0.00128012
-0.00091058
-0.000531217
-0.000145999
0.000236824
0.000602953
0.000929723
0.00118237
0.0013093
0.00126313
0.00108031
0.00100308
0.00126705
0.0026031
0.00590038
0.0113007
0.0185989
0.0271811
0.0355935
0.0407606
0.0403213
0.0364085
0.0318663
0.0275757
0.0237821
0.0205102
0.0177188
0.0153545
0.0133601
0.0116765
0.010253
0.00904152
0.00800607
0.00711133
0.00633125
0.00563476
0.00499584
0.00440379
0.00385554
0.00336344
0.00294068
0.00259186
0.00227364
-0.00493318
-0.00463225
-0.00431532
-0.00393582
-0.00348029
-0.00297283
-0.00244367
-0.00191457
-0.00138974
-0.000865635
-0.000335485
0.000206961
0.000766872
0.00134809
0.0019525
0.00257981
0.00322696
0.0038859
0.0045409
0.00516359
0.00571651
0.00614423
0.00638017
0.00639838
0.00629196
0.00688972
0.00923831
0.013783
0.0204324
0.0284155
0.0361911
0.0409442
0.0405327
0.0369594
0.0328329
0.0289181
0.0254028
0.0223055
0.0196029
0.0172581
0.015231
0.0134795
0.0119611
0.0106371
0.0094766
0.00845094
0.00753948
0.00671449
0.00595411
0.00524849
0.00460513
0.00403918
0.00357907
0.00322219
0.00292361
-0.00428923
-0.00400503
-0.00368876
-0.00327513
-0.00275034
-0.00213289
-0.00146965
-0.000790911
-0.000107881
0.00058084
0.00128184
0.00200348
0.00275298
0.00353697
0.00436105
0.00522911
0.00614323
0.00710088
0.00809492
0.00911076
0.0101174
0.0110442
0.0117351
0.0120689
0.0119272
0.0119366
0.0132802
0.0166446
0.0221092
0.0290157
0.0359915
0.0397247
0.0393043
0.0361068
0.0324998
0.0290727
0.0259481
0.0231409
0.0206379
0.0184176
0.0164559
0.014725
0.0131935
0.0118315
0.0106152
0.00952631
0.00853796
0.00762894
0.00679484
0.00602608
0.00533074
0.00473484
0.00425143
0.00389082
0.00359672
-0.00356264
-0.00329618
-0.00298215
-0.00254686
-0.00196437
-0.00125937
-0.000482751
0.000326143
0.00114858
0.00198372
0.00283848
0.00372293
0.00464655
0.00561912
0.00664952
0.00774553
0.00891342
0.0101583
0.011481
0.012875
0.0143116
0.0157142
0.0169113
0.0176208
0.0175731
0.0172843
0.0178605
0.0200524
0.024058
0.0294676
0.0347818
0.0377387
0.0372559
0.0343044
0.0312742
0.0283784
0.0256975
0.0232397
0.0210012
0.0189726
0.0171422
0.0154949
0.0140108
0.0126679
0.0114482
0.0103357
0.00932044
0.00837568
0.00750349
0.00670064
0.00598098
0.00536518
0.0048812
0.00452334
0.00423779
-0.00276726
-0.00252027
-0.00221251
-0.00176249
-0.00113948
-0.000365576
0.000503122
0.00141937
0.00235983
0.00332078
0.00430909
0.00533604
0.00641362
0.00755378
0.00876811
0.0100681
0.011465
0.0129686
0.0145856
0.0163156
0.0181385
0.0199724
0.0216077
0.0227031
0.0228639
0.0224033
0.0223335
0.023477
0.026144
0.0299453
0.0337852
0.0357522
0.0344892
0.0320798
0.0296444
0.027139
0.024898
0.0228091
0.020864
0.0190629
0.0174037
0.0158811
0.0144844
0.0132005
0.0120158
0.01092
0.00990694
0.00896238
0.00807719
0.0072662
0.0065412
0.00592934
0.00545215
0.00510108
0.0048303
-0.00191726
-0.00169003
-0.00139226
-0.000935257
-0.000286181
0.000534924
0.0014724
0.00247212
0.00350686
0.00457023
0.0056688
0.00681442
0.00802073
0.00930116
0.0106702
0.012142
0.0137307
0.0154494
0.0173103
0.019318
0.0214535
0.0236286
0.0256129
0.0270021
0.0273036
0.0267216
0.0261965
0.0264787
0.0278408
0.0300985
0.0323786
0.0332709
0.0320282
0.0296454
0.0273793
0.0255556
0.023755
0.0220306
0.0203834
0.0188213
0.017351
0.0159742
0.0146887
0.0134879
0.0123628
0.0113091
0.0103215
0.00940064
0.00853182
0.00772293
0.00700676
0.00640886
0.00594365
0.00560744
0.00534974
-0.00103137
-0.000820872
-0.000533898
-7.9428e-05
0.000581613
0.00143073
0.00241057
0.00346897
0.004573
0.00571368
0.00689683
0.00813409
0.00943995
0.0108296
0.0123185
0.0139224
0.0156573
0.0175392
0.0195821
0.0217933
0.0241549
0.0265751
0.0288003
0.0303938
0.0307777
0.0300605
0.0290586
0.0285319
0.0288091
0.0297346
0.0306539
0.0305972
0.0291592
0.0272603
0.0255253
0.0239051
0.0223987
0.0210232
0.0196892
0.0183638
0.0170831
0.0158584
0.0146933
0.0135876
0.0125369
0.0115389
0.010593
0.0096986
0.00886545
0.00807367
0.00737503
0.00679377
0.00635185
0.00602863
0.00578443
-0.000127114
6.84224e-05
0.000343842
0.000790629
0.00144947
0.00230388
0.00330571
0.00439748
0.00554475
0.00673649
0.00797639
0.00927656
0.0106511
0.0121155
0.0136857
0.0153783
0.0172097
0.0191964
0.0213542
0.0236911
0.026188
0.0287468
0.0311033
0.0327801
0.033139
0.0321931
0.0307575
0.0295403
0.0288828
0.0287153
0.0286162
0.0278865
0.0263964
0.0248455
0.0235618
0.0224021
0.0212355
0.0200372
0.0188508
0.0177672
0.016684
0.0156078
0.0145614
0.013552
0.0125799
0.0116442
0.0107468
0.00989009
0.00908411
0.00833301
0.0076492
0.00709193
0.00666719
0.00636443
0.00613262
0.000775299
0.000956568
0.00122057
0.00165386
0.00229829
0.00314453
0.0041445
0.00524514
0.00641002
0.00762619
0.00889603
0.0102296
0.0116407
0.0131446
0.0147568
0.016493
0.0183696
0.0204031
0.0226081
0.0249921
0.027533
0.0301274
0.0325049
0.0341619
0.0344124
0.0332384
0.0313805
0.0295654
0.0281437
0.0271637
0.0263309
0.0252364
0.0238799
0.0227076
0.0217936
0.0209515
0.0200719
0.0191407
0.0181631
0.0171475
0.0161799
0.0152717
0.0143426
0.0134259
0.0125291
0.0116551
0.0108067
0.00998952
0.00920989
0.00849934
0.00784221
0.00730354
0.00690217
0.00661426
0.00639909
0.00164976
0.00181855
0.00207054
0.0024857
0.00310903
0.00393312
0.00491277
0.00600064
0.00716015
0.00837584
0.00964843
0.0109869
0.0124038
0.0139129
0.0155285
0.0172655
0.0191387
0.0211631
0.0233516
0.0257095
0.0282122
0.0307543
0.033066
0.0346304
0.0347307
0.0332949
0.031057
0.0287673
0.0268393
0.0253221
0.0240647
0.0228477
0.0217213
0.0209036
0.0203042
0.0197197
0.0190516
0.0182965
0.0174832
0.0166367
0.0157628
0.0148789
0.0140446
0.0132453
0.0124184
0.0115949
0.0107953
0.010016
0.00926762
0.00857364
0.00796135
0.00744145
0.00705815
0.00679219
0.00658909
0.00247812
0.00263421
0.00287347
0.00327114
0.00386522
0.00465219
0.00559957
0.00665498
0.00778748
0.00898018
0.0102316
0.011549
0.012943
0.0144257
0.01601
0.0177087
0.0195345
0.0214999
0.0236157
0.0258839
0.0282793
0.0306976
0.0328771
0.0342922
0.03422
0.0325707
0.0300774
0.027473
0.0251893
0.0233899
0.0220019
0.0208659
0.0200233
0.0194973
0.0191219
0.0187182
0.0182095
0.0175938
0.0168962
0.0161481
0.0153759
0.014592
0.0137923
0.0129949
0.0122082
0.0114575
0.0107257
0.00998767
0.00926421
0.00858989
0.00798662
0.00750583
0.00715394
0.00690175
0.00671225
0.00323827
0.00338685
0.00361356
0.0039884
0.00454937
0.00529419
0.00619161
0.00720085
0.00828854
0.00943869
0.0106478
0.011921
0.0132672
0.0146964
0.0162193
0.0178462
0.0195874
0.0214527
0.0234496
0.0255778
0.0278115
0.0300556
0.0320664
0.0333346
0.0331308
0.0313373
0.0286512
0.025874
0.0234824
0.0216384
0.0202934
0.019375
0.0188165
0.0185047
0.0182614
0.0179561
0.0175407
0.0170197
0.0164129
0.01574
0.0150261
0.0142945
0.0135589
0.0128226
0.012085
0.0113404
0.0106036
0.00987775
0.00908481
0.00856931
0.00798683
0.00752819
0.00719493
0.0069593
0.00678271
0.00392124
0.00405977
0.00427366
0.00462598
0.00514817
0.00584426
0.00668413
0.00763357
0.00866242
0.00975374
0.010903
0.0121133
0.0133912
0.0147445
0.0161815
0.0177099
0.0193372
0.0210702
0.0229133
0.0248638
0.0268992
0.0289371
0.0307645
0.031888
0.0315871
0.02973
0.0270237
0.0242458
0.0219015
0.0201751
0.0190512
0.0184113
0.0180835
0.0178985
0.0177064
0.0174289
0.0170459
0.0165694
0.0160138
0.015396
0.0147324
0.0140396
0.0133325
0.0126217
0.0119127
0.0112077
0.0105044
0.00981167
0.00917077
0.00853431
0.00770869
0.00750546
0.00723404
0.00697808
0.00680864
0.00450852
0.00463936
0.00484311
0.00516908
0.00565198
0.00629193
0.00706858
0.00795021
0.00890964
0.00993041
0.0110067
0.0121396
0.0133335
0.014594
0.0159267
0.0173369
0.0188292
0.0204074
0.0220731
0.0238226
0.0256375
0.0274537
0.0290981
0.0301119
0.0297936
0.0279993
0.0253897
0.0227489
0.0205761
0.019089
0.0182704
0.0179073
0.0177499
0.017617
0.0174105
0.017105
0.0167088
0.0162325
0.0156923
0.0151004
0.0144685
0.013808
0.0131297
0.0124421
0.0117494
0.0110546
0.010363
0.00967862
0.00901352
0.0084202
0.00797703
0.0076109
0.00723936
0.00688595
0.00679964
0.00498971
0.00511408
0.0053054
0.00560746
0.00604819
0.00663198
0.00734273
0.00815229
0.00903554
0.00997763
0.0109717