/*--------------------------------*- C++ -*----------------------------------*\
  =========                 |
  \\      /  F ield         | OpenFOAM: The Open Source CFD Toolbox
   \\    /   O peration     | Website:  https://openfoam.org
    \\  /    A nd           | Version:  7
     \\/     M anipulation  |
\*---------------------------------------------------------------------------*/
FoamFile
{
    version     2.0;
    format      ascii;
    class       surfaceScalarField;
    location    "60";
    object      phi;
}
// * * * * * * * * * * * * * * * * * * * * * * * * * * * * * * * * * * * * * //

dimensions      [0 3 -1 0 0 0 0];

internalField   nonuniform List<scalar> 
34768
(
8.19225e-05
0.000970028
-0.000149644
-4.45887e-05
2.59301e-05
0.000920964
-1.58451e-05
1.08748e-05
0.000907475
-8.28044e-06
6.72873e-06
0.000904255
-5.3561e-06
4.61983e-06
0.000903539
-4.29946e-06
3.91584e-06
0.000903186
-3.63398e-06
3.51842e-06
0.000903117
-3.46025e-06
3.43757e-06
0.000903123
-3.15157e-06
3.08535e-06
0.000903266
-3.24547e-06
3.01641e-06
0.000903328
-3.1078e-06
3.00454e-06
0.000903301
-3.01858e-06
3.23431e-06
0.000903281
-3.06543e-06
2.99568e-06
0.000903566
-3.2405e-06
3.18254e-06
0.000903553
-3.2386e-06
3.39048e-06
0.000903542
-3.3564e-06
3.31691e-06
0.000903833
-3.59146e-06
3.55971e-06
0.000903724
-3.54232e-06
3.71776e-06
0.000903815
-3.7077e-06
3.68981e-06
0.000903907
-3.8868e-06
3.77527e-06
0.000904099
-4.17867e-06
4.77302e-06
0.000904092
-5.58253e-06
6.3824e-06
0.000905185
-5.24734e-06
4.39214e-06
0.000904859
-3.64213e-06
4.10145e-06
0.000904593
-5.37525e-06
-3.4133e-07
0.000909267
-7.36364e-07
1.30203e-06
0.000908614
-1.21133e-06
8.58692e-07
0.000909421
-5.71295e-07
1.20586e-08
0.000909627
5.39957e-07
-8.34096e-07
0.000909359
1.18437e-06
-1.30773e-06
0.000909189
1.33017e-06
-1.38581e-06
0.00090913
1.38124e-06
-1.37002e-06
0.000909053
1.34955e-06
-1.34235e-06
0.000909057
1.27663e-06
-1.27406e-06
0.000909071
1.26393e-06
-1.26667e-06
0.000909077
1.26258e-06
-1.27106e-06
0.000909083
1.27365e-06
-1.28838e-06
0.000909089
1.29799e-06
-1.41935e-06
0.000909196
1.73649e-06
-1.1651e-06
0.000909904
6.90606e-07
-5.26963e-07
0.000910313
4.61057e-07
-4.05542e-07
0.000910322
4.48869e-07
-5.02491e-07
0.000910232
5.56447e-07
-6.20903e-07
0.000910243
6.87437e-07
-6.65211e-07
0.000910057
7.47462e-07
-8.42427e-07
0.000910076
9.45049e-07
-1.06304e-06
0.00091
1.19341e-06
-1.34375e-06
0.000909933
1.51353e-06
-1.71119e-06
0.000909981
1.93967e-06
-2.30972e-06
0.000910054
2.52971e-06
-2.91549e-06
0.000910071
3.38404e-06
-4.05996e-06
0.000910262
4.67026e-06
-5.54077e-06
0.000910457
6.56445e-06
-7.67636e-06
0.0009106
8.70539e-06
-6.60026e-06
0.000907385
-4.12399e-06
-2.6863e-05
0.00094048
-0.000827806
0.000143718
0.00070404
-1.99019e-05
-0.000972612
-0.000148558
0.000116719
0.00100451
-0.0009251
-8.99924e-05
7.05814e-05
0.000944571
-0.000911632
-5.64184e-05
4.59487e-05
0.00092216
-0.000907231
-3.79328e-05
3.18866e-05
0.000913334
-0.000905513
-2.71358e-05
2.33794e-05
0.000909325
-0.000904567
-1.98125e-05
1.76184e-05
0.000906815
-0.000904037
-1.5316e-05
1.34664e-05
0.000905939
-0.000903911
-1.1755e-05
1.04783e-05
0.000905238
-0.000903795
-9.35472e-06
8.29586e-06
0.000904902
-0.000903844
-7.24009e-06
6.60664e-06
0.000904523
-0.000903732
-5.74668e-06
5.08079e-06
0.000904441
-0.000903645
-4.57053e-06
3.93498e-06
0.00090432
-0.000903874
-3.34465e-06
3.01576e-06
0.000904239
-0.000903813
-2.62591e-06
2.18693e-06
0.000904284
-0.000903759
-2.08512e-06
1.72588e-06
0.000904146
-0.000903909
-1.40302e-06
1.21565e-06
0.000904118
-0.000903862
-1.16687e-06
9.46719e-07
0.000904097
-0.000903917
-8.67559e-07
7.10183e-07
0.000904081
-0.000903974
-7.9809e-07
8.0064e-07
0.000903968
-0.000904232
-5.52259e-07
6.10718e-07
0.00090416
-0.000903991
-9.23302e-07
2.34646e-07
0.000904657
-0.000907033
-3.85958e-07
3.25567e-06
0.000904129
-0.000903362
-2.13203e-06
-3.41358e-06
0.000908861
-0.000907867
2.19147e-06
-2.12285e-06
0.00090774
-0.000908322
2.13459e-06
-2.11878e-06
0.000908236
-0.000909595
2.04034e-06
-1.7278e-06
0.0009092
-0.000910077
1.51584e-06
-1.85535e-06
0.000910324
-0.000909497
2.12553e-06
-1.99311e-06
0.00090926
-0.000909295
1.68694e-06
-2.06621e-06
0.000909561
-0.000909071
2.1102e-06
-2.0695e-06
0.000908908
-0.000908933
1.85323e-06
-1.72053e-06
0.000908671
-0.000908941
1.51283e-06
-1.41611e-06
0.000908707
-0.000908984
1.1945e-06
-1.13998e-06
0.000908786
-0.000909011
1.11145e-06
-1.00525e-06
0.000908756
-0.000909042
9.25603e-07
-9.72249e-07
0.000908936
-0.000909076
9.4687e-07
-1.0511e-06
0.000909025
-0.000909514
1.18464e-06
-1.45025e-06
0.000909623
-0.000909756
2.04789e-06
-2.38075e-06
0.00090993
-0.000910102
2.24891e-06
-2.35425e-06
0.000910049
-0.000910353
2.29939e-06
-2.48472e-06
0.00091038
-0.000910411
2.71592e-06
-3.0916e-06
0.00091063
-0.000910379
3.42211e-06
-3.90389e-06
0.000910706
-0.000910364
4.35306e-06
-5.06419e-06
0.000910923
-0.000910372
5.66079e-06
-6.53637e-06
0.000911098
-0.000910415
7.32375e-06
-8.51715e-06
0.000911463
-0.000910615
9.56189e-06
-1.09561e-05
0.000911867
-0.000910804
1.23629e-05
-1.4291e-05
0.000912594
-0.000911244
1.62306e-05
-1.87127e-05
0.000913592
-0.000911844
2.14733e-05
-2.50926e-05
0.000915334
-0.000913014
2.92887e-05
-3.4547e-05
0.000918147
-0.000915043
4.10605e-05
-4.93581e-05
0.00092322
-0.000918814
6.03072e-05
-7.46228e-05
0.000933017
-0.00092457
9.42057e-05
-0.000124529
0.000954801
-0.000978403
0.000165577
-0.000143521
0.000956284
-0.000600057
8.48369e-05
0.000519475
-4.19772e-06
-0.00102213
-0.000134147
0.000131483
0.00102486
-0.000962952
-0.000111624
9.33549e-05
0.00098128
-0.000933398
-7.92384e-05
6.79073e-05
0.000944788
-0.000920625
-5.86203e-05
5.08717e-05
0.000928433
-0.000914362
-4.42021e-05
3.87511e-05
0.000919871
-0.000910788
-3.39776e-05
2.98968e-05
0.000914926
-0.00090827
-2.63389e-05
2.26604e-05
0.000912005
-0.000907249
-2.00438e-05
1.77747e-05
0.000909574
-0.000906382
-1.55525e-05
1.35878e-05
0.000908401
-0.000905891
-1.18019e-05
1.0213e-05
0.000907532
-0.000905372
-8.95898e-06
7.56015e-06
0.000906821
-0.000905265
-6.2654e-06
5.39967e-06
0.000906179
-0.00090493
-4.21865e-06
3.34624e-06
0.000905847
-0.000904743
-2.64796e-06
1.94281e-06
0.000905489
-0.000904687
-1.20548e-06
7.50559e-07
0.000905178
-0.00090435
-2.60451e-07
-1.56933e-07
0.000904798
-0.000904327
6.09118e-07
-8.96653e-07
0.000904639
-0.000904214
1.1175e-06
-1.18188e-06
0.000904294
-0.000904209
1.57656e-06
-1.62314e-06
0.000904262
-0.000903911
1.39702e-06
-2.03172e-06
0.000904543
-0.000904922
2.38758e-06
-1.31674e-06
0.000903838
-0.000906165
3.3969e-06
-5.04145e-06
0.000907784
-0.000907987
4.53563e-06
-4.19127e-06
0.000907606
-0.00090781
3.59595e-06
-3.57588e-06
0.000907741
-0.000908028
3.46476e-06
-3.46784e-06
0.000907971
-0.000908547
3.07202e-06
-2.62847e-06
0.000908031
-0.000910538
2.03342e-06
-2.16257e-06
0.000910585
-0.00090905
2.22637e-06
-1.97896e-06
0.000908709
-0.000909696
1.52599e-06
-1.29157e-06
0.000909358
-0.000908688
1.20505e-06
-1.04245e-06
0.000908413
-0.000908399
6.42468e-07
-3.38961e-07
0.000907975
-0.000908475
-1.76613e-08
2.46708e-07
0.000908118
-0.000908524
-5.75468e-07
6.17537e-07
0.000908348
-0.000908763
-9.05614e-07
9.49226e-07
0.000908581
-0.00090892
-1.03637e-06
9.72988e-07
0.00090884
-0.000909092
-9.50042e-07
6.71556e-07
0.000909224
-0.000910278
-3.13423e-08
-1.26774e-06
0.000911429
-0.000910084
1.1346e-06
-1.16519e-06
0.000909965
-0.000910208
1.46616e-06
-1.93527e-06
0.000910527
-0.000910655
2.28192e-06
-2.90278e-06
0.000911126
-0.000911036
3.41043e-06
-4.20034e-06
0.000911677
-0.000911366
4.99063e-06
-5.9754e-06
0.000912204
-0.000911768
6.97961e-06
-8.19695e-06
0.00091284
-0.000912277
9.5618e-06
-1.1068e-05
0.000913641
-0.000912847
1.26612e-05
-1.464e-05
0.000914687
-0.000913769
1.66645e-05
-1.91416e-05
0.00091611
-0.000914987
2.18534e-05
-2.49198e-05
0.000917922
-0.00091696
2.84585e-05
-3.25152e-05
0.00092089
-0.00091995
3.72573e-05
-4.28822e-05
0.000925452
-0.000925043
4.94328e-05
-5.72915e-05
0.000932784
-0.00093378
6.65161e-05
-7.78312e-05
0.000944983
-0.000949847
9.15285e-05
-0.000108623
0.000966837
-0.000985434
0.000130612
-0.00015511
0.00100985
-0.000906464
0.000157784
-9.17535e-05
0.000840369
-0.000458975
4.8935e-05
0.000412939
-2.83659e-06
-0.00101427
-0.000100558
0.00012014
0.000994746
-0.000997891
-0.000114203
0.000100677
0.00101148
-0.000955949
-8.78346e-05
7.72199e-05
0.000966622
-0.00093648
-6.80895e-05
6.03042e-05
0.000944325
-0.0009258
-5.34573e-05
4.74521e-05
0.000931866
-0.000919457
-4.21056e-05
3.73797e-05
0.000924243
-0.000915435
-3.31339e-05
2.93587e-05
0.000919271
-0.000912778
-2.60406e-05
2.29847e-05
0.000915894
-0.000910556
-2.00953e-05
1.70897e-05
0.000913621
-0.000909371
-1.49966e-05
1.28328e-05
0.000911593
-0.000908432
-1.07293e-05
9.12122e-06
0.000910097
-0.000907519
-7.44249e-06
5.92816e-06
0.000909089
-0.000906859
-4.52485e-06
3.26553e-06
0.000908171
-0.0009065
-2.00393e-06
1.07158e-06
0.000907482
-0.000905806
-2.31078e-07
-5.92755e-07
0.000906674
-0.000905456
1.42844e-06
-2.15644e-06
0.000906222
-0.000905033
2.59482e-06
-3.0339e-06
0.000905505
-0.000904732
3.4828e-06
-3.84022e-06
0.000905113
-0.000904248
3.80357e-06
-4.58358e-06
0.000905044
-0.000904881
4.96351e-06
-4.07199e-06
0.000903995
-0.000906052
6.29809e-06
-8.01475e-06
0.000907764
-0.000907321
7.56542e-06
-7.47336e-06
0.000907213
-0.000907134
6.93906e-06
-6.51423e-06
0.000906682
-0.000907214
6.10519e-06
-5.35781e-06
0.000906428
-0.000908308
4.66871e-06
-4.65622e-06
0.000908245
-0.000907228
3.94317e-06
-3.25656e-06
0.000906479
-0.000910373
2.63284e-06
-2.29185e-06
0.00090996
-0.000908218
2.07316e-06
-1.52503e-06
0.000907587
-0.000908368
6.93552e-07
9.70898e-08
0.000907485
-0.000908459
-1.55042e-07
4.49714e-07
0.000908062
-0.000907524
-1.03716e-06
1.54554e-06
0.000906905
-0.000907747
-2.0895e-06
2.48971e-06
0.00090723
-0.000908095
-2.82892e-06
3.18197e-06
0.000907619
-0.000908448
-3.44779e-06
3.5479e-06
0.000908219
-0.00090884
-3.65646e-06
3.69203e-06
0.000908672
-0.000909365
-3.53202e-06
3.09376e-06
0.000909668
-0.000912419
-2.25757e-06
1.83704e-06
0.000912702
-0.000910315
-1.41207e-06
7.99632e-07
0.000910788
-0.000911046
-2.80201e-07
-4.31171e-07
0.000911617
-0.000911728
1.15646e-06
-2.18016e-06
0.000912611
-0.000912582
3.12747e-06
-4.18178e-06
0.000913497
-0.000913338
5.37499e-06
-6.78894e-06
0.000914615
-0.000914347
8.36206e-06
-9.97498e-06
0.000915825
-0.000915479
1.18768e-05
-1.39486e-05
0.000917418
-0.000916843
1.61484e-05
-1.87632e-05
0.000919329
-0.000918713
2.14627e-05
-2.46398e-05
0.000921764
-0.000921462
2.79822e-05
-3.18927e-05
0.000925251
-0.000925447
3.60813e-05
-4.0967e-05
0.000930215
-0.000931446
4.63908e-05
-5.24896e-05
0.000937432
-0.000940738
5.94525e-05
-6.74487e-05
0.000948626
-0.000956045
7.65138e-05
-8.67862e-05
0.000966214
-0.000982555
9.8145e-05
-0.000112276
0.000996591
-0.00102466
0.000127003
-0.000131111
0.00102869
-0.000771189
0.000102489
-3.94598e-05
0.000708091
-0.000377231
2.96667e-05
0.000349315
-1.68012e-06
-0.000970034
-7.17255e-05
9.92418e-05
0.000942585
-0.00102194
-0.000104672
9.78259e-05
0.00102885
-0.000976564
-8.79237e-05
7.84248e-05
0.000986123
-0.000951826
-7.01835e-05
6.30038e-05
0.000959067
-0.000937955
-5.64991e-05
5.07192e-05
0.000943797
-0.000929103
-4.54199e-05
4.06066e-05
0.00093398
-0.000923263
-3.61696e-05
3.2232e-05
0.000927264
-0.000919102
-2.84907e-05
2.50782e-05
0.000922579
-0.000916186
-2.20077e-05
1.92133e-05
0.000919044
-0.000914021
-1.66133e-05
1.41477e-05
0.000916551
-0.00091226
-1.14395e-05
9.2406e-06
0.000914521
-0.000910838
-7.38297e-06
5.60643e-06
0.000912675
-0.000909846
-3.65057e-06
2.26351e-06
0.000911292
-0.000908503
-8.89725e-07
-5.32656e-07
0.00090998
-0.000907662
1.74421e-06
-2.91224e-06
0.00090888
-0.000906985
3.87022e-06
-4.49056e-06
0.000907649
-0.000906249
5.50078e-06
-5.97891e-06
0.000906764
-0.000905142
6.24105e-06
-7.48039e-06
0.00090641
-0.000905557
7.99249e-06
-7.18858e-06
0.000904774
-0.000906326
9.68811e-06
-1.17077e-05
0.000908356
-0.000907281
1.12495e-05
-1.12861e-05
0.000907318
-0.000906786
1.07916e-05
-1.02382e-05
0.000906222
-0.000906235
9.7424e-06
-9.01088e-06
0.000905482
-0.000905739
8.20107e-06
-7.46139e-06
0.000904966
-0.000907572
6.63117e-06
-5.95233e-06
0.000906848
-0.000905686
4.88956e-06
-3.86273e-06
0.000904602
-0.000909483
2.93149e-06
-2.32985e-06
0.000908813
-0.000906891
1.62264e-06
-8.82728e-07
0.000906071
-0.000906733
-1.76574e-07
1.04726e-06
0.000905773
-0.000907486
-1.68967e-06
2.38243e-06
0.000906694
-0.000906231
-3.25407e-06
4.01607e-06
0.000905363
-0.000906684
-4.78591e-06
5.37672e-06
0.000905979
-0.000907244
-5.99542e-06
6.39102e-06
0.000906729
-0.000907924
-6.76568e-06
6.94508e-06
0.00090762
-0.000908669
-7.0989e-06
7.051e-06
0.000908588
-0.000910864
-6.77412e-06
5.69028e-06
0.000911816
-0.000912113
-4.97531e-06
4.94462e-06
0.00091201
-0.000911215
-4.47876e-06
3.80095e-06
0.000911758
-0.000912371
-2.98505e-06
2.05514e-06
0.000913166
-0.000913502
-1.08187e-06
-2.10556e-07
0.000914659
-0.000914843
1.45209e-06
-2.91864e-06
0.000916176
-0.000916143
4.4469e-06
-6.3118e-06
0.000917876
-0.000917773
8.15459e-06
-1.02487e-05
0.000919737
-0.000919639
1.25462e-05
-1.50172e-05
0.000921984
-0.000922
1.76232e-05
-2.05347e-05
0.000924789
-0.00092499
2.36261e-05
-2.72729e-05
0.000928518
-0.000929282
3.09519e-05
-3.5039e-05
0.000933254
-0.00093504
3.9437e-05
-4.44224e-05
0.000939915
-0.000943517
4.98093e-05
-5.57829e-05
0.000949384
-0.000956207
6.17604e-05
-6.804e-05
0.000962385
-0.00097519
7.57852e-05
-8.44349e-05
0.000983743
-0.00100867
9.41416e-05
-0.000104072
0.00101851
-0.00102385
0.000109155
-9.80216e-05
0.00101264
-0.000654143
6.23508e-05
-1.76539e-05
0.000609375
-0.000327014
1.91726e-05
0.000308993
-1.07259e-06
-0.00091451
-5.12393e-05
7.87089e-05
0.000887114
-0.00103252
-9.08899e-05
9.01208e-05
0.00103335
-0.000994461
-8.35059e-05
7.59016e-05
0.00100213
-0.000966018
-6.88291e-05
6.24894e-05
0.000972421
-0.000949937
-5.66652e-05
5.16254e-05
0.000955042
-0.000938767
-4.61883e-05
4.11207e-05
0.0009439
-0.000931377
-3.62225e-05
3.21602e-05
0.000935507
-0.000926025
-2.83243e-05
2.47638e-05
0.000929654
-0.000922116
-2.14988e-05
1.84773e-05
0.000925205
-0.000919109
-1.56218e-05
1.29855e-05
0.000921814
-0.000916822
-1.05976e-05
8.30757e-06
0.000919179
-0.000914855
-6.35304e-06
4.17771e-06
0.000917096
-0.000912971
-2.02612e-06
1.52262e-07
0.000914908
-0.00091158
1.59999e-06
-3.18356e-06
0.000913222
-0.000910105
4.64381e-06
-5.8387e-06
0.000911354
-0.000908905
7.20913e-06
-8.21663e-06
0.00090996
-0.000907246
8.78789e-06
-1.04046e-05
0.000908904
-0.000907113
1.13689e-05
-1.07741e-05
0.000906552
-0.000907538
1.38772e-05
-1.60231e-05
0.000909708
-0.000907919
1.56767e-05
-1.59745e-05
0.000908231
-0.000906802
1.55024e-05
-1.51968e-05
0.000906501
-0.000905862
1.47324e-05
-1.39223e-05
0.000905044
-0.000904661
1.30431e-05
-1.21563e-05
0.000903755
-0.00090399
1.10589e-05
-1.00486e-05
0.000902948
-0.000905922
9.20712e-06
-7.80862e-06
0.00090448
-0.000903346
6.31823e-06
-4.85616e-06
0.000901827
-0.000908007
3.43746e-06
-2.30921e-06
0.000906811
-0.000904933
1.20551e-06
1.7114e-07
0.000903475
-0.000904681
-1.5668e-06
3.05727e-06
0.0009031
-0.000905832
-4.5719e-06
5.16057e-06
0.000905143
-0.000904404
-6.1982e-06
7.26193e-06
0.000903232
-0.000905208
-8.32227e-06
9.1788e-06
0.000904235
-0.000906293
-9.90797e-06
1.05846e-05
0.000905495
-0.000907331
-1.11044e-05
1.14904e-05
0.000906818
-0.00090866
-1.16156e-05
1.13022e-05
0.000908844
-0.000913349
-1.01283e-05
8.91469e-06
0.00091443
-0.000911926
-9.5217e-06
9.38765e-06
0.000911926
-0.000912648
-8.69187e-06
7.85704e-06
0.000913348
-0.000914231
-6.95903e-06
5.72393e-06
0.000915332
-0.000915905
-4.42453e-06
2.98951e-06
0.000917207
-0.000917713
-1.48812e-06
-2.49926e-07
0.00091932
-0.00091972
2.16177e-06
-4.21322e-06
0.000921642
-0.000921917
6.34803e-06
-8.83354e-06
0.000924277
-0.000924638
1.13169e-05
-1.40619e-05
0.000927261
-0.00092787
1.70281e-05
-2.01732e-05
0.000930896
-0.000931993
2.35684e-05
-2.71654e-05
0.000935475
-0.00093731
3.09415e-05
-3.51573e-05
0.000941416
-0.000944664
3.94876e-05
-4.35905e-05
0.000948662
-0.000954051
4.7752e-05
-5.31203e-05
0.000959318
-0.000969027
5.89145e-05
-6.51799e-05
0.000975197
-0.000991662
7.17478e-05
-7.90298e-05
0.000998854
-0.00102611
8.6447e-05
-9.1944e-05
0.00103152
-0.000997415
8.96119e-05
-7.20308e-05
0.000979759
-0.000572776
4.01169e-05
-1.00818e-05
0.000542668
-0.000294011
1.33246e-05
0.000281512
-7.41893e-07
-0.000860866
-3.75782e-05
6.21148e-05
0.000836408
-0.00103174
-7.69812e-05
8.04668e-05
0.00102832
-0.00100905
-7.70057e-05
7.10634e-05
0.00101506
-0.000978365
-6.48836e-05
5.90586e-05
0.000984256
-0.000960224
-5.38484e-05
4.89055e-05
0.000965235
-0.000948379
-4.4203e-05
3.98826e-05
0.000952768
-0.000940111
-3.57462e-05
3.18504e-05
0.000944077
-0.000934123
-2.81137e-05
2.4805e-05
0.000937502
-0.000928451
-2.06061e-05
1.66172e-05
0.000932512
-0.000924602
-1.23505e-05
9.51772e-06
0.000927506
-0.000921435
-6.80771e-06
4.28362e-06
0.000924031
-0.000918942
-1.97855e-06
-1.47428e-07
0.000921137
-0.000916963
1.95246e-06
-3.47908e-06
0.000918556
-0.000914877
4.78403e-06
-6.52144e-06
0.000916677
-0.000913111
8.63566e-06
-1.02658e-05
0.0009148
-0.000910802
1.14513e-05
-1.35626e-05
0.000912966
-0.000910121
1.50061e-05
-1.47489e-05
0.00090991
-0.00090999
1.8404e-05
-2.00266e-05
0.00091165
-0.000910055
2.04482e-05
-2.14559e-05
0.000911092
-0.000907907
2.1457e-05
-2.13722e-05
0.000907841
-0.00090604
2.10867e-05
-2.05074e-05
0.000905469
-0.000904151
1.95199e-05
-1.87147e-05
0.000903342
-0.000902643
1.75387e-05
-1.62266e-05
0.000901316
-0.000902209
1.47301e-05
-1.33748e-05
0.000900824
-0.000902171
1.22948e-05
-1.01579e-05
0.000899991
-0.000899997
8.00989e-06
-5.96686e-06
0.000897897
-0.000905399
3.96202e-06
-2.26059e-06
0.000903628
-0.000901846
4.80475e-07
1.48326e-06
0.0008998
-0.000900696
-3.54505e-06
5.6144e-06
0.000898534
-0.000905348
-7.90118e-06
8.71731e-06
0.000904428
-0.000902056
-1.00886e-05
1.15472e-05
0.000900485
-0.000903175
-1.29814e-05
1.41611e-05
0.000901876
-0.000904753
-1.52586e-05
1.60637e-05
0.000903822
-0.000906507
-1.67671e-05
1.71865e-05
0.000905958
-0.00090977
-1.74999e-05
1.70341e-05
0.000910103
-0.000914005
-1.59705e-05
1.61089e-05
0.000913732
-0.000912343
-1.58444e-05
1.52049e-05
0.000912847
-0.000914194
-1.43713e-05
1.32726e-05
0.000915158
-0.000916501
-1.21864e-05
1.07435e-05
0.00091781
-0.000918791
-9.31909e-06
7.54588e-06
0.000920432
-0.000921217
-5.79548e-06
3.70232e-06
0.000923181
-0.000923755
-1.63377e-06
-7.74703e-07
0.000926036
-0.000926717
3.16049e-06
-5.78312e-06
0.000929216
-0.000930047
8.492e-06
-1.15431e-05
0.000932979
-0.000934056
1.45885e-05
-1.79816e-05
0.000937335
-0.000939043
2.13811e-05
-2.51371e-05
0.000942689
-0.000945134
2.77936e-05
-3.12241e-05
0.00094846
-0.000952979
3.56107e-05
-4.00658e-05
0.000957334
-0.000964605
4.4788e-05
-4.95937e-05
0.000969315
-0.000980914
5.49144e-05
-6.03655e-05
0.000986275
-0.00100546
6.6198e-05
-7.21688e-05
0.00101135
-0.0010349
7.74888e-05
-7.92961e-05
0.00103662
-0.000961246
7.26546e-05
-5.40215e-05
0.000942539
-0.00051767
2.78339e-05
-6.82088e-06
0.000496585
-0.000270858
9.77975e-06
0.000261709
-5.41476e-07
-0.00081374
-2.83029e-05
4.93098e-05
0.000792818
-0.00102336
-6.44294e-05
7.04617e-05
0.00101739
-0.00102033
-6.93705e-05
6.50435e-05
0.00102473
-0.000989749
-5.97138e-05
5.43943e-05
0.000995137
-0.000970049
-4.94578e-05
4.48325e-05
0.000974745
-0.000957135
-4.03863e-05
3.61554e-05
0.000961437
-0.000947873
-3.21526e-05
2.8229e-05
0.000951869
-0.000940974
-2.46195e-05
2.09741e-05
0.000944693
-0.000935679
-1.77387e-05
1.44632e-05
0.000939029
-0.000931617
-1.14888e-05
8.67941e-06
0.000934501
-0.000928157
-5.96299e-06
3.30845e-06
0.000930885
-0.000923435
3.76659e-07
-4.09492e-06
0.000927225
-0.000920464
7.7031e-06
-1.12364e-05
0.000924068
-0.000917881
1.42407e-05
-1.61443e-05
0.000919851
-0.000915792
1.76116e-05
-1.82806e-05
0.000916525
-0.000915634
1.76855e-05
-1.53957e-05
0.000913402
-0.000913979
2.32643e-05
-2.5518e-05
0.000916285
-0.000912351
2.64818e-05
-2.74939e-05
0.000913408
-0.000911133
2.7371e-05
-2.73144e-05
0.000911112
-0.000907953
2.82025e-05
-2.84337e-05
0.00090821
-0.000904817
2.80082e-05
-2.73398e-05
0.000904163
-0.000902234
2.62955e-05
-2.49714e-05
0.000900911
-0.000899787
2.34033e-05
-2.16412e-05
0.000898014
-0.000899078
1.96527e-05
-1.75402e-05
0.000896939
-0.000897882
1.54379e-05
-1.29736e-05
0.000895377
-0.000895517
1.02502e-05
-7.48163e-06
0.000892692
-0.00090155
4.6983e-06
-2.20373e-06
0.000898984
-0.000897441
-3.5449e-07
3.11616e-06
0.000894594
-0.000896193
-5.98975e-06
8.68075e-06
0.000893406
-0.000902798
-1.11764e-05
1.30116e-05
0.000900854
-0.000898697
-1.5202e-05
1.7225e-05
0.000896557
-0.00090045
-1.91244e-05
2.07198e-05
0.00089873
-0.000902827
-2.21503e-05
2.33309e-05
0.000901516
-0.000905401
-2.41462e-05
2.45167e-05
0.000904897
-0.000911173
-2.364e-05
2.1637e-05
0.000913039
-0.000913161
-2.29383e-05
2.36995e-05
0.000912262
-0.000913484
-2.34292e-05
2.25506e-05
0.000914226
-0.000916282
-2.15447e-05
2.02453e-05
0.000917446
-0.000919198
-1.89389e-05
1.73567e-05
0.000920647
-0.000922061
-1.568e-05
1.35438e-05
0.000924067
-0.000925133
-1.16265e-05
9.26533e-06
0.000927367
-0.000928402
-6.82827e-06
4.26518e-06
0.000930841
-0.000931989
-1.52837e-06
-1.32437e-06
0.000934722
-0.000935956
4.34876e-06
-7.48217e-06
0.000938974
-0.000940727
1.04807e-05
-1.27605e-05
0.000942896
-0.000945275
1.60389e-05
-1.97247e-05
0.000948856
-0.0009524
2.34877e-05
-2.75603e-05
0.000956373
-0.000961729
3.16139e-05
-3.58701e-05
0.00096589
-0.000974096
4.03366e-05
-4.50156e-05
0.000978684
-0.000991516
4.98325e-05
-5.50152e-05
0.000996614
-0.00101686
6.07976e-05
-6.59772e-05
0.00102196
-0.00103703
6.94539e-05
-6.92067e-05
0.0010367
-0.00092427
6.12671e-05
-4.38399e-05
0.000906771
-0.00047839
2.21903e-05
-5.91731e-06
0.000462047
-0.000253801
7.38213e-06
0.000246924
-4.09919e-07
-0.000773736
-2.17687e-05
3.92345e-05
0.00075636
-0.00101026
-5.35011e-05
6.09766e-05
0.00100285
-0.00102835
-6.20355e-05
5.90393e-05
0.00103141
-0.00100017
-5.45224e-05
4.96347e-05
0.00100513
-0.000979732
-4.49708e-05
4.08795e-05
0.000983894
-0.00096564
-3.63807e-05
3.21661e-05
0.000969927
-0.000955707
-2.79232e-05
2.38244e-05
0.00095988
-0.000948299
-1.94691e-05
1.58851e-05
0.000951958
-0.000942306
-1.23578e-05
8.96357e-06
0.000945776
-0.000937449
-5.73184e-06
2.63561e-06
0.000940622
-0.000933499
2.93707e-07
-3.08214e-06
0.000936364
-0.000930315
5.59147e-06
-7.74585e-06
0.000932545
-0.000926479
1.0743e-05
-1.38864e-05
0.000929696
-0.00092299
1.57948e-05
-1.8141e-05
0.000925407
-0.000920856
2.16894e-05
-2.3192e-05
0.000922428
-0.00091523
2.33596e-05
-3.3177e-05
0.000925112
-0.000916912
3.36521e-05
-3.53394e-05
0.000918658
-0.000913929
3.59887e-05
-3.65801e-05
0.000914573
-0.000911236
3.69144e-05
-3.65516e-05
0.000910918
-0.000908546
3.56973e-05
-3.64839e-05
0.000909367
-0.00090322
3.6933e-05
-3.6357e-05
0.000902667
-0.000899477
3.50311e-05
-3.33459e-05
0.000897802
-0.000896016
3.134e-05
-2.89734e-05
0.000893645
-0.000894516
2.63186e-05
-2.3451e-05
0.000891628
-0.00089252
2.04924e-05
-1.71286e-05
0.000889119
-0.000889432
1.34332e-05
-9.61162e-06
0.000885556
-0.000895978
5.73518e-06
-2.16426e-06
0.000892335
-0.000891309
-1.49172e-06
5.32189e-06
0.000887391
-0.000890206
-9.25762e-06
1.2981e-05
0.000886382
-0.000898461
-1.64521e-05
1.9436e-05
0.000895363
-0.00089415
-2.21456e-05
2.48154e-05
0.000891357
-0.000896849
-2.73284e-05
2.94098e-05
0.000894637
-0.000900227
-3.12351e-05
3.26253e-05
0.000898701
-0.000904682
-3.34715e-05
3.25105e-05
0.000905503
-0.000913971
-3.08374e-05
3.24778e-05
0.00091219
-0.000911782
-3.38871e-05
3.36292e-05
0.0009119
-0.000915029
-3.29889e-05
3.17944e-05
0.000916086
-0.000918698
-3.06426e-05
2.90731e-05
0.000920132
-0.000922505
-2.74711e-05
2.55838e-05
0.00092426
-0.000926085
-2.34857e-05
2.11323e-05
0.00092831
-0.000929709
-1.87892e-05
1.61136e-05
0.000932261
-0.000933583
-1.34695e-05
1.05097e-05
0.000936423
-0.000937738
-7.59417e-06
5.00649e-06
0.000940211
-0.000941316
-2.78587e-06
-4.46323e-07
0.000944438
-0.000946415
3.92946e-06
-7.47876e-06
0.000949859
-0.000952619
1.11755e-05
-1.50333e-05
0.000956376
-0.000960375
1.91477e-05
-2.37467e-05
0.000964879
-0.00097025
2.80757e-05
-3.31109e-05
0.000975195
-0.000983322
3.86663e-05
-4.36317e-05
0.000988202
-0.00100216
4.80171e-05
-5.17847e-05
0.00100585
-0.001027
5.47796e-05
-5.80969e-05
0.00103024
-0.00103375
5.97974e-05
-5.68579e-05
0.00103074
-0.000889368
4.68464e-05
-3.12788e-05
0.000873732
-0.000448654
1.46915e-05
-3.26787e-06
0.000437163
-0.000240909
5.68404e-06
0.000235638
-3.16403e-07
-0.000740424
-1.69949e-05
3.13714e-05
0.00072614
-0.000994991
-4.43536e-05
5.23616e-05
0.000987052
-0.00103381
-5.45876e-05
5.29062e-05
0.00103556
-0.00100985
-4.91483e-05
4.47685e-05
0.0010143
-0.00098828
-4.05324e-05
3.61325e-05
0.000992751
-0.000974041
-3.18282e-05
2.75594e-05
0.000978383
-0.000963814
-2.33348e-05
1.8897e-05
0.000968326
-0.00095595
-1.51268e-05
1.14551e-05
0.000959698
-0.000949717
-7.80184e-06
4.35342e-06
0.000953243
-0.000944607
-9.263e-07
-2.2917e-06
0.000947903
-0.000939335
6.31612e-06
-1.02233e-05
0.000943321
-0.000935112
1.42932e-05
-1.86498e-05
0.000939547
-0.000931424
2.17986e-05
-2.42854e-05
0.000933988
-0.000929443
2.61766e-05
-2.63608e-05
0.000929703
-0.000922893
2.70809e-05
-3.7992e-05
0.000933879
-0.000924962
3.81578e-05
-4.09581e-05
0.000927834
-0.000921016
4.33287e-05
-4.49139e-05
0.000922669
-0.00091577
4.65758e-05
-4.80289e-05
0.000917285
-0.00091078
4.92705e-05
-4.99432e-05
0.000911509
-0.00090841
4.96521e-05
-4.8639e-05
0.000907444
-0.000902426
4.85452e-05
-4.83866e-05
0.000902304
-0.000896026
4.69697e-05
-4.47492e-05
0.000893828
-0.000891008
4.21365e-05
-3.90682e-05
0.000887947
-0.000888337
3.55614e-05
-3.16885e-05
0.000884452
-0.000885196
2.75595e-05
-2.3019e-05
0.000880624
-0.00088106
1.79477e-05
-1.26928e-05
0.000875753
-0.000888035
7.30691e-06
-2.18929e-06
0.000882845
-0.000882826
-3.00998e-06
8.38273e-06
0.000877361
-0.000882019
-1.3769e-05
1.88338e-05
0.000876848
-0.00089176
-2.35185e-05
2.77584e-05
0.0008874
-0.000888553
-3.18117e-05
3.53839e-05
0.00088485
-0.000892202
-3.83558e-05
4.10181e-05
0.000889401
-0.000897286
-4.32821e-05
4.46906e-05
0.000895735
-0.000906723
-4.4473e-05
4.32365e-05
0.000907814
-0.00091005
-4.51626e-05
4.64601e-05
0.000908609
-0.000912396
-4.6494e-05
4.57962e-05
0.000912952
-0.000917161
-4.47522e-05
4.34154e-05
0.000918361
-0.000921815
-4.17903e-05
3.98202e-05
0.000923652
-0.000926378
-3.77053e-05
3.53952e-05
0.00092856
-0.000930697
-3.28722e-05
3.02013e-05
0.000933244
-0.000935062
-2.73439e-05
2.43739e-05
0.000937914
-0.000939178
-2.20907e-05
1.95106e-05
0.000941644
-0.000942884
-1.61561e-05
1.26331e-05
0.000946298
-0.000948046
-8.87528e-06
4.5495e-06
0.000952267
-0.000953758
-4.08461e-07
-4.29508e-06
0.000958362
-0.000960458
9.66001e-06
-1.40966e-05
0.000964801
-0.000970434
1.71492e-05
-1.92272e-05
0.000972423
-0.000978431
2.23742e-05
-2.61684e-05
0.000982141
-0.000991696
2.97606e-05
-3.39154e-05
0.000995772
-0.0010102
3.8229e-05
-4.25164e-05
0.00101442
-0.00103368
4.66554e-05
-4.98628e-05
0.00103681
-0.00102743
5.052e-05
-4.6732e-05
0.00102357
-0.000859261
3.73519e-05
-2.41078e-05
0.000845951
-0.000427308
1.09515e-05
-2.35833e-06
0.000418652
-0.000230991
4.43614e-06
0.000226899
-2.48317e-07
-0.000712874
-1.34156e-05
2.53563e-05
0.000701024
-0.000979196
-3.67012e-05
4.45576e-05
0.000971408
-0.0010369
-4.76514e-05
4.68947e-05
0.00103772
-0.00101888
-4.38104e-05
4.00251e-05
0.00102273
-0.00099715
-3.56248e-05
3.14085e-05
0.00100144
-0.000982365
-2.70193e-05
2.27443e-05
0.000986713
-0.000971981
-1.81563e-05
1.42984e-05
0.000975915
-0.00096391
-1.04279e-05
6.72908e-06
0.000967686
-0.000957581
-2.90477e-06
-6.42291e-07
0.000961207
-0.000951403
4.31146e-06
-8.54385e-06
0.000955715
-0.000946502
1.28864e-05
-1.74618e-05
0.000951158
-0.00094218
2.23435e-05
-2.59705e-05
0.000945888
-0.000938531
2.90503e-05
-3.13937e-05
0.000940956
-0.000934932
3.21346e-05
-3.33952e-05
0.000936275
-0.000934963
4.62554e-05
-4.87042e-05
0.000937494
-0.000930243
5.17946e-05
-5.35351e-05
0.000932064
-0.00092531
5.5324e-05
-5.73992e-05
0.000927463
-0.000918818
5.99375e-05
-6.20473e-05
0.000921003
-0.000912421
6.35084e-05
-6.44347e-05
0.000913417
-0.000906508
6.49213e-05
-6.4305e-05
0.000905953
-0.000902839
6.26661e-05
-6.23027e-05
0.000902527
-0.000891803
6.21859e-05
-6.0406e-05
0.00089006
-0.000884426
5.73493e-05
-5.35229e-05
0.000880621
-0.000879713
4.87838e-05
-4.24538e-05
0.000873384
-0.000875874
3.46671e-05
-3.0127e-05
0.000871313
-0.000869566
2.43999e-05
-1.72775e-05
0.000862395
-0.000876695
9.72982e-06
-2.3465e-06
0.000869239
-0.000870987
-5.13019e-06
1.26701e-05
0.00086335
-0.000871158
-1.99269e-05
2.54586e-05
0.000865511
-0.000881632
-2.96856e-05
3.77804e-05
0.000873406
-0.000880622
-4.46147e-05
4.95706e-05
0.000875525
-0.00088652
-5.37234e-05
5.67607e-05
0.000883336
-0.000894899
-5.86231e-05
5.77822e-05
0.000895591
-0.000907126
-5.69277e-05
6.03222e-05
0.000903582
-0.000907758
-6.25595e-05
6.27488e-05
0.000907424
-0.000913788
-6.19917e-05
6.08156e-05
0.000914824
-0.000919971
-5.92504e-05
5.72625e-05
0.000921824
-0.000925716
-5.50545e-05
5.26028e-05
0.000928038
-0.00093107
-4.99937e-05
4.7001e-05
0.000933939
-0.000936213
-4.41148e-05
4.1545e-05
0.000938665
-0.000940208
-3.85847e-05
3.46992e-05
0.000943981
-0.000945321
-2.99608e-05
2.49496e-05
0.000950225
-0.000950372
-1.90922e-05
1.46363e-05
0.000954725
-0.000957963
-1.1843e-05
1.02052e-05
0.000959503
-0.000961143
-7.23863e-06
3.5538e-06
0.000964735
-0.000967758
-2.1512e-07
-3.62644e-06
0.000971512
-0.000975881
7.55058e-06
-1.16582e-05
0.000979906
-0.000986232
1.57448e-05
-1.99114e-05
0.00099032
-0.000999872
2.40724e-05
-2.83244e-05
0.00100405
-0.00101868
3.24565e-05
-3.6682e-05
0.00102283
-0.00103952
4.04469e-05
-4.30027e-05
0.00104201
-0.00101937
4.27569e-05
-3.85659e-05
0.00101512
-0.000833646
2.98073e-05
-1.85728e-05
0.00082235
-0.000411079
8.18624e-06
-1.63346e-06
0.000404468
-0.000223232
3.46215e-06
0.000220065
-1.98407e-07
-0.00069013
-1.06839e-05
2.06168e-05