/*--------------------------------*- C++ -*----------------------------------*\
  =========                 |
  \\      /  F ield         | OpenFOAM: The Open Source CFD Toolbox
   \\    /   O peration     | Website:  https://openfoam.org
    \\  /    A nd           | Version:  7
     \\/     M anipulation  |
\*---------------------------------------------------------------------------*/
FoamFile
{
    version     2.0;
    format      ascii;
    class       volVectorField;
    location    "60";
    object      U;
}
// * * * * * * * * * * * * * * * * * * * * * * * * * * * * * * * * * * * * * //

dimensions      [0 1 -1 0 0 0 0];

internalField   nonuniform List<vector> 
17475
(
(1.01827 0.205797 -1.63504e-20)
(0.995996 0.0223683 -2.59139e-20)
(0.999789 0.00973142 0)
(0.999944 0.00487399 0)
(0.99998 0.00303114 0)
(0.999992 0.00206975 0)
(0.999995 0.00148297 0)
(0.999997 0.00108718 0)
(0.999997 0.000801684 -5.35025e-20)
(0.999998 0.000585992 0)
(0.999998 0.000417317 0)
(0.999998 0.000282451 0)
(0.999998 0.000173031 0)
(0.999998 8.3745e-05 0)
(0.999998 1.09832e-05 0)
(0.999998 -4.74337e-05 0)
(0.999998 -9.32451e-05 0)
(0.999998 -0.000127408 0)
(0.999999 -0.000150885 0)
(0.999999 -0.000164181 0)
(0.999999 -0.000168073 -2.08014e-19)
(0.999999 -0.000163101 5.8286e-22)
(0.999999 -0.000150174 0)
(1 -0.000129919 -6.59512e-21)
(1 -0.000103578 0)
(1 -7.20122e-05 -1.32435e-20)
(1 -3.75986e-05 0)
(1 -1.22698e-06 0)
(1 3.53096e-05 -1.66499e-21)
(1 7.06367e-05 5.32593e-20)
(1 0.000103014 5.24036e-20)
(1 0.000131102 0)
(1 0.000153414 0)
(1 0.000168906 -5.28114e-20)
(1 0.000176449 -5.2726e-20)
(1 0.000175301 0)
(1 0.000164613 -4.08811e-22)
(1 0.000143808 0)
(1 0.000112114 5.19642e-20)
(1 6.86219e-05 2.59369e-20)
(1 1.2513e-05 -2.59032e-20)
(1 -5.73525e-05 0)
(1 -0.000143146 -2.59841e-20)
(1 -0.000247978 0)
(1 -0.000376739 -1.31285e-20)
(1 -0.00053673 0)
(1 -0.000739474 2.70801e-20)
(1 -0.0010033 0)
(0.999998 -0.00135854 0)
(0.999996 -0.00185675 0)
(0.999993 -0.0025877 0)
(0.999989 -0.00369225 -1.656e-20)
(0.999953 -0.00538085 3.6781e-20)
(0.998952 -0.00294812 4.05059e-20)
(1.02905 -0.0897343 -3.95077e-20)
(0.871308 0.0788234 1.90126e-20)
(1.10042 0.097075 0)
(1.03492 0.0582174 0)
(1.01516 0.0370154 0)
(1.00799 0.0249286 -1.33234e-19)
(1.00484 0.0175305 -1.2754e-19)
(1.00325 0.0126483 1.21137e-19)
(1.00234 0.00920984 0)
(1.00177 0.00665733 0)
(1.0014 0.00468532 0)
(1.00113 0.00311437 0)
(1.00094 0.00183569 0)
(1.00078 0.000779783 0)
(1.00066 -9.8029e-05 0)
(1.00055 -0.000827269 0)
(1.00045 -0.00142713 0)
(1.00036 -0.00191114 0)
(1.00028 -0.0022875 0)
(1.0002 -0.002563 0)
(1.00012 -0.00274212 0)
(1.00004 -0.00283013 0)
(0.999972 -0.00283162 0)
(0.999903 -0.00275168 2.55441e-19)
(0.999843 -0.00260088 -6.40005e-20)
(0.99979 -0.00238411 -1.29711e-19)
(0.999745 -0.00211358 3.68188e-22)
(0.999711 -0.00180513 -1.65554e-20)
(0.999687 -0.00147167 0)
(0.999675 -0.0011267 -8.43046e-21)
(0.999675 -0.000786369 8.49465e-21)
(0.999686 -0.000464717 -1.36667e-19)
(0.999707 -0.000176123 1.39653e-19)
(0.999738 6.68691e-05 0)
(0.999778 0.000253264 -2.77786e-19)
(0.999825 0.000373184 2.17886e-21)
(0.99988 0.00041823 2.79476e-19)
(0.99994 0.000380936 0)
(1.00001 0.000254642 1.40448e-19)
(1.00008 3.20772e-05 0)
(1.00016 -0.000296239 -1.40902e-19)
(1.00025 -0.000739058 1.4121e-19)
(1.00036 -0.00130983 0)
(1.00048 -0.00202831 0)
(1.00063 -0.00292343 0)
(1.00082 -0.00403833 7.476e-23)
(1.00107 -0.0054381 7.36066e-20)
(1.00142 -0.00722268 -7.49554e-20)
(1.00192 -0.00954974 -3.81165e-20)
(1.00269 -0.0126758 0)
(1.0039 -0.0170353 0)
(1.00592 -0.023403 0)
(1.00946 -0.0332471 -4.23372e-20)
(1.01603 -0.0498774 4.37042e-20)
(1.02813 -0.0730333 2.40467e-21)
(1.07039 -0.178237 2.8e-21)
(0.609999 0.0196599 9.73682e-21)
(1.13946 0.106376 -1.40848e-20)
(1.0787 0.0752396 -5.84973e-20)
(1.04129 0.0540087 0)
(1.02485 0.039783 0)
(1.01628 0.0296748 -1.16645e-19)
(1.01139 0.0222458 0)
(1.0084 0.0166347 0)
(1.00646 0.0122802 0)
(1.00513 0.00881704 2.25406e-19)
(1.00417 0.00600596 0)
(1.00345 0.00368964 0)
(1.00288 0.00176208 0)
(1.00241 0.000153322 0)
(1.00201 -0.0011844 0)
(1.00165 -0.00228283 -2.30021e-19)
(1.00132 -0.00316335 0)
(1.00101 -0.00384033 0)
(1.0007 -0.00432402 0)
(1.00042 -0.00462265 0)
(1.00014 -0.0047449 4.91108e-19)
(0.999875 -0.00469888 0)
(0.999632 -0.00449756 1.89875e-19)
(0.999412 -0.00415228 -1.2857e-19)
(0.999222 -0.00368535 0)
(0.999067 -0.0031184 -3.29791e-20)
(0.998953 -0.00247788 0)
(0.998882 -0.00179296 4.19246e-20)
(0.998855 -0.00109165 2.53763e-20)
(0.998873 -0.000407123 0)
(0.998933 0.000233426 -1.20254e-19)
(0.999034 0.000801107 4.33219e-21)
(0.999172 0.00127086 -2.1794e-21)
(0.999341 0.00162121 -1.39255e-19)
(0.999538 0.00183348 1.39604e-19)
(0.99976 0.00189245 0)
(1 0.00178514 2.71719e-19)
(1.00027 0.00150067 -2.80977e-19)
(1.00055 0.00102725 2.99063e-19)
(1.00087 0.000351071 0)
(1.00121 -0.000542827 3.53855e-20)
(1.0016 -0.00167721 -1.40724e-22)
(1.00206 -0.00308395 1.42363e-19)
(1.00262 -0.00481002 -2.74835e-22)
(1.00333 -0.00692501 -7.16565e-20)
(1.00425 -0.00953137 0)
(1.00552 -0.0127829 0)
(1.00732 -0.0169121 3.66779e-20)
(1.01 -0.0222778 -3.76338e-20)
(1.01417 -0.0294442 -5.26783e-22)
(1.02097 -0.0393082 1.15058e-19)
(1.03264 -0.0533494 -7.83945e-20)
(1.05371 -0.0738065 7.68436e-20)
(1.10012 -0.105586 0)
(0.962705 -0.117878 4.00516e-20)
(0.481398 0.00952269 0)
(1.11623 0.0897082 0)
(1.11525 0.0801498 2.50431e-20)
(1.06631 0.0607666 0)
(1.04296 0.0469885 1.07257e-19)
(1.02995 0.036453 0)
(1.02195 0.028165 0)
(1.01672 0.0215246 0)
(1.01314 0.0161212 0)
(1.0106 0.0116627 0)
(1.00871 0.00794162 0)
(1.00726 0.00480877 0)
(1.00609 0.00216029 2.20659e-19)
(1.00511 -7.70591e-05 0)
(1.00426 -0.00195344 0)
(1.00349 -0.00350188 0)
(1.00278 -0.00474487 0)
(1.0021 -0.00569613 0)
(1.00145 -0.00636619 0)
(1.00082 -0.00676284 -2.38695e-19)
(1.00021 -0.00689381 0)
(0.99964 -0.00677182 0)
(0.999107 -0.00640751 -1.26444e-19)
(0.998631 -0.00582658 0)
(0.998223 -0.00505757 -1.96052e-19)
(0.997896 -0.00413517 3.2968e-20)
(0.997659 -0.00309946 -1.33992e-19)
(0.997522 -0.00199683 2.64818e-22)
(0.997487 -0.000871208 6.85439e-20)
(0.997552 0.000222786 5.1492e-20)
(0.997715 0.00124364 1.38319e-19)
(0.997968 0.00214355 4.34257e-21)
(0.998302 0.0028852 0)
(0.998706 0.00343666 1.58534e-22)
(0.999168 0.00377105 0)
(0.99968 0.00386748 -1.31422e-19)
(1.00023 0.00370984 -1.40254e-19)
(1.00083 0.00328556 1.40115e-19)
(1.00147 0.00257965 2.81105e-19)
(1.00215 0.0015804 1.14275e-19)
(1.0029 0.000272888 -3.52389e-20)
(1.00374 -0.0013667 -7.03917e-20)
(1.00471 -0.0033738 0)
(1.00586 -0.00579848 0)
(1.0073 -0.00871405 -7.06139e-20)
(1.00915 -0.0122258 7.06707e-20)
(1.01163 -0.0164846 1.77312e-19)
(1.01506 -0.0217047 3.58535e-20)
(1.01999 -0.0281905 -1.97167e-22)
(1.02736 -0.0363716 -3.54386e-20)
(1.03877 -0.0468494 1.41755e-19)
(1.05715 -0.0604866 -1.05241e-19)
(1.08929 -0.078643 1.00029e-19)
(1.13258 -0.100814 6.39794e-20)
(0.812122 -0.0598515 -1.87212e-20)
(0.40142 0.00536507 0)
(1.06171 0.0686806 -2.24772e-20)
(1.13869 0.0764019 4.40606e-20)
(1.08899 0.0612476 4.69035e-20)
(1.06013 0.0489493 4.88732e-20)
(1.04372 0.0390749 9.97322e-20)
(1.03321 0.0308547 -1.01113e-19)
(1.02605 0.0239265 -1.02157e-19)
(1.02096 0.0180416 0)
(1.0172 0.0130094 -2.07615e-19)
(1.01434 0.00868308 -4.19255e-19)
(1.01207 0.00495236 -2.11538e-19)
(1.01021 0.00173676 -2.13977e-19)
(1.00861 -0.00102244 0)
(1.0072 -0.00336437 0)
(1.00591 -0.00531435 0)
(1.0047 -0.00688677 -4.57016e-19)
(1.00353 -0.00808928 -4.059e-21)
(1.00239 -0.00892604 -4.73189e-19)
(1.00129 -0.00939809 -2.3885e-19)
(1.00023 -0.00951325 -6.09364e-20)
(0.999208 -0.00927283 1.24093e-19)
(0.998265 -0.00870013 -1.26086e-19)
(0.99742 -0.007822 1.28766e-19)
(0.996697 -0.00667657 0)
(0.996121 -0.00531087 -6.71323e-20)
(0.995712 -0.00378247 1.35373e-19)
(0.995485 -0.00215904 0)
(0.995449 -0.000504404 -3.47757e-20)
(0.995598 0.00109897 -1.74405e-20)
(0.995924 0.00259339 -1.39338e-19)
(0.996416 0.00390815 1.31618e-20)
(0.997051 0.0049914 0)
(0.997808 0.00580026 1.49244e-19)
(0.998663 0.00630043 0)
(0.999597 0.0064675 0)
(1.0006 0.0062854 -2.79936e-19)
(1.00166 0.00574383 -6.97726e-20)
(1.00277 0.0048289 1.48562e-19)
(1.00395 0.00353852 1.31042e-19)
(1.00522 0.00186178 -1.57225e-19)
(1.00662 -0.000217261 -1.39621e-19)
(1.00821 -0.00272495 -1.74137e-19)
(1.01008 -0.00570262 1.0431e-19)
(1.01234 -0.0092088 1.38344e-19)
(1.01518 -0.0133266 -3.43138e-20)
(1.01888 -0.01817 0)
(1.02387 -0.0238909 -6.84874e-20)
(1.03078 -0.0306868 -6.80389e-20)
(1.0407 -0.0388104 -3.40496e-20)
(1.0554 -0.0485697 -3.26357e-20)
(1.07815 -0.0603586 -9.6773e-20)
(1.11609 -0.0749487 -6.06366e-20)
(1.12192 -0.0827673 0)
(0.692869 -0.0291603 1.00853e-19)
(0.352143 0.00331918 0)
(0.999823 0.051261 0)
(1.1473 0.0690193 -8.07885e-20)
(1.10822 0.0587783 -8.57989e-20)
(1.07558 0.0479018 0)
(1.05668 0.0388994 0)
(1.04433 0.0311062 9.40866e-20)
(1.03566 0.0242658 0)
(1.02932 0.0182382 0)
(1.0245 0.012913 0)
(1.02071 0.00820314 -2.01599e-19)
(1.01764 0.00404212 -2.04854e-19)
(1.01506 0.000379469 0)
(1.0128 -0.00281903 0)
(1.01076 -0.00557309 -3.62148e-21)
(1.00886 -0.00789159 0)
(1.00704 -0.00977599 8.92803e-19)
(1.00527 -0.0112202 9.14524e-19)
(1.00352 -0.0122139 -4.67895e-19)
(1.0018 -0.0127526 2.35584e-19)
(1.00012 -0.0128205 3.02366e-19)
(0.998513 -0.0124265 -6.23092e-20)
(0.997011 -0.0115863 3.8041e-19)
(0.995657 -0.0103302 -6.4643e-20)
(0.994497 -0.00870525 5.76852e-22)
(0.993574 -0.00677198 -1.34193e-19)
(0.992926 -0.00461071 1.71714e-19)
(0.992581 -0.00231626 1.38112e-19)
(0.992551 2.11144e-05 -5.05488e-22)
(0.99283 0.00228094 7.05534e-20)
(0.993401 0.00438324 7.09595e-20)
(0.994239 0.0062299 0)
(0.995305 0.00774982 -1.28248e-19)
(0.996557 0.00888944 0)
(0.997955 0.00960808 0)
(0.999463 0.00988109 1.75527e-19)
(1.00106 0.00969837 -1.40085e-19)
(1.00272 0.00905296 0)
(1.00443 0.0079429 8.68369e-21)
(1.00622 0.00637978 0)
(1.00811 0.00436497 0)
(1.01015 0.00189667 -1.55101e-19)
(1.01242 -0.00103424 1.72105e-20)
(1.01503 -0.00444964 1.55838e-22)
(1.01811 -0.0083852 -1.68161e-20)
(1.0219 -0.0128909 -1.68005e-19)
(1.02669 -0.018035 -1.65121e-20)
(1.03296 -0.0239034 1.48034e-19)
(1.04141 -0.0306007 -1.30066e-19)
(1.05314 -0.0382415 0)
(1.06999 -0.046973 6.16727e-20)
(1.09554 -0.0570382 8.21806e-22)
(1.13275 -0.068222 -5.73033e-20)
(1.08829 -0.0649143 -8.71208e-20)
(0.612156 -0.0166245 0)
(0.31902 0.00228258 8.10916e-21)
(0.94199 0.0384701 -2.08926e-20)
(1.14428 0.0603686 3.77957e-20)
(1.12388 0.0548225 0)
(1.08952 0.045275 0)
(1.06869 0.0370286 -8.50534e-20)
(1.05499 0.029704 0)
(1.04521 0.023073 -1.8066e-19)
(1.03788 0.0170441 -1.84618e-19)
(1.03219 0.011563 0)
(1.02761 0.00658817 -9.64857e-20)
(1.02381 0.00209405 1.97133e-19)
(1.02053 -0.00194515 -4.01338e-19)
(1.0176 -0.00553841 0)
(1.0149 -0.00868348 0)
(1.01232 -0.01137 0)
(1.00981 -0.013578 -3.38788e-21)
(1.00732 -0.0152799 0)
(1.00483 -0.0164539 0)
(1.00233 -0.0170572 2.33232e-19)
(0.999868 -0.0170731 8.48139e-22)
(0.997483 -0.0164919 0)
(0.995233 -0.0153204 0)
(0.993189 -0.0135869 3.92124e-19)
(0.991428 -0.0113453 2.67554e-19)
(0.990027 -0.00867114 3.42971e-20)
(0.989048 -0.00568525 0)
(0.988541 -0.00250657 2.82363e-19)
(0.988527 0.00073311 1.06611e-19)
(0.989 0.00385602 -4.66909e-22)
(0.989924 0.00675264 0)
(0.991255 0.00929242 0)
(0.992922 0.0113719 8.79324e-21)
(0.994853 0.0129298 0)
(0.99698 0.0139219 0)
(0.999241 0.0143291 1.40252e-22)
(1.0016 0.0141555 -2.77668e-19)
(1.004 0.0133968 -1.38993e-19)
(1.00645 0.0120815 1.37624e-19)
(1.00894 0.0102367 8.5128e-21)
(1.01153 0.00788475 -1.35546e-19)
(1.01426 0.00504419 3.79741e-22)
(1.01723 0.00172642 3.48586e-22)
(1.02055 -0.00206435 1.67632e-20)
(1.0244 -0.00633806 -1.15473e-19)
(1.02901 -0.0111132 0)
(1.03471 -0.0164175 -1.44967e-19)
(1.04198 -0.0222821 0)
(1.05153 -0.0287521 -6.21792e-20)
(1.06449 -0.0358792 0)
(1.08277 -0.0437441 5.93235e-20)
(1.11003 -0.0525346 -2.04651e-22)
(1.14037 -0.0605859 -2.69244e-20)
(1.04747 -0.0505485 -8.52887e-20)
(0.557093 -0.0111063 4.20986e-20)
(0.295438 0.00165576 0)
(0.891841 0.0293293 -2.02657e-20)
(1.13352 0.0518101 0)
(1.13586 0.0501444 0)
(1.10223 0.0418593 3.82531e-20)
(1.07988 0.0341765 7.79005e-22)
(1.06519 0.0272305 0)
(1.0546 0.0207939 -8.4071e-20)
(1.04654 0.0147933 -1.7415e-19)
(1.04016 0.00920134 0)
(1.03493 0.00400534 0)
(1.03048 -0.000799637 0)
(1.02657 -0.00520745 0)
(1.023 -0.00920257 -2.93525e-19)
(1.01962 -0.0127627 -9.96448e-20)
(1.01634 -0.0158545 0)
(1.01306 -0.0184358 1.31778e-20)
(1.00974 -0.0204641 3.23765e-19)
(1.00635 -0.0218648 -1.27926e-21)
(1.00291 -0.0225836 -1.16393e-19)
(0.999453 -0.022568 0)
(0.996057 -0.0217865 1.23561e-19)
(0.992811 -0.0202241 -6.67942e-22)
(0.989829 -0.0178988 1.33632e-19)
(0.987237 -0.0148677 0)
(0.985162 -0.0112235 -6.93e-20)
(0.983719 -0.00713535 -7.16141e-20)
(0.982987 -0.00276816 1.45865e-19)
(0.983005 0.00168653 7.35715e-20)
(0.983761 0.00596806 -1.46065e-19)
(0.985199 0.00991997 0)
(0.987229 0.0133606 -1.82966e-20)
(0.989732 0.0161525 -1.4466e-19)
(0.992589 0.0182252 1.79513e-20)
(0.995685 0.0195365 5.70856e-22)
(0.998925 0.0200854 2.77889e-19)
(1.00224 0.0198941 1.39138e-19)
(1.00555 0.0189781 1.37336e-19)
(1.00885 0.0174058 -1.35223e-19)
(1.01215 0.015229 0)
(1.01549 0.0124972 1.40974e-19)
(1.01894 0.00925513 0)
(1.02259 0.00553885 0)
(1.02659 0.00137569 -1.30311e-19)
(1.03112 -0.00321499 0)
(1.03642 -0.00822621 6.27207e-20)
(1.04283 -0.013651 1.24374e-19)
(1.05084 -0.0194983 3.10047e-20)
(1.06117 -0.0257778 -1.19411e-19)
(1.07497 -0.0325126 0)
(1.09426 -0.039768 5.70046e-20)
(1.12211 -0.0476077 0)
(1.14094 -0.0528688 -2.5541e-20)
(1.00682 -0.0394892 5.56574e-20)
(0.516724 -0.00801504 0)
(0.277953 0.00123972 0)
(0.84966 0.0227036 -1.95495e-20)
(1.11845 0.0439349 -3.33288e-20)
(1.14444 0.0451504 3.36909e-20)
(1.11393 0.0380784 -3.49398e-20)
(1.09051 0.0308036 -7.30693e-20)
(1.07503 0.0241059 0)
(1.06386 0.0177878 0)
(1.05528 0.0117734 0)
(1.04839 0.00604948 0)
(1.04265 0.00061586 1.71836e-19)
(1.03768 -0.00451616 0)
(1.03322 -0.00932314 -3.6215e-19)
(1.02905 -0.0137745 0)
(1.02501 -0.0178251 0)
(1.021 -0.0214213 3.71452e-19)
(1.01691 -0.0244961 3.03411e-19)
(1.01265 -0.0269546 -1.07868e-19)
(1.00822 -0.028706 -1.08956e-19)
(1.00363 -0.0296492 1.1355e-19)
(0.998925 -0.0296813 4.75925e-19)
(0.99421 -0.0287277 2.49109e-19)
(0.989627 -0.0267373 -1.28193e-19)
(0.98535 -0.0236979 0)
(0.981587 -0.0196599 1.57909e-21)
(0.978549 -0.0147324 7.10024e-20)
(0.976432 -0.00915236 -7.21599e-20)
(0.975375 -0.00315583 -1.87927e-19)
(0.975449 0.00297011 6.86327e-22)
(0.976631 0.00883379 0)
(0.97882 0.0142036 -7.46394e-20)
(0.981862 0.0188218 -1.48283e-19)
(0.985544 0.0225076 1.46239e-19)
(0.989673 0.0251877 -1.43954e-19)
(0.994064 0.0268367 -1.77868e-19)
(0.998577 0.0274941 -2.78615e-19)
(1.00307 0.0271926 6.87027e-20)
(1.00747 0.0260171 3.37583e-20)
(1.01176 0.024076 0)
(1.01595 0.0214591 0)
(1.02009 0.0182508 -8.14192e-21)
(1.02426 0.0145261 2.56446e-19)
(1.02856 0.0103469 1.27226e-19)
(1.03317 0.00576396 0)
(1.03827 0.000822208 1.2433e-19)
(1.04412 -0.00445037 3.01574e-20)
(1.05107 -0.0100386 -3.0431e-20)
(1.05961 -0.0159301 7.34641e-21)
(1.07048 -0.0221209 1.13154e-19)
(1.0849 -0.028628 4.43916e-19)
(1.10493 -0.0355079 2.15636e-19)
(1.1321 -0.0425843 -5.11884e-20)
(1.13648 -0.0455457 -5.08853e-20)
(0.969923 -0.031129 -8.37533e-20)
(0.486937 -0.0058908 1.6816e-19)
(0.264677 0.00094166 0)
(0.814659 0.0177916 -3.75852e-20)
(1.10152 0.0369606 3.1307e-20)
(1.15006 0.0400987 -3.07107e-20)
(1.12471 0.034157 6.4428e-20)
(1.10077 0.0271926 6.83366e-20)
(1.08469 0.0206257 -1.41333e-19)
(1.07311 0.0143351 8.49922e-22)
(1.06418 0.0082411 -7.54117e-20)
(1.05694 0.00232734 -1.57827e-19)
(1.05084 -0.0034008 -1.61032e-19)
(1.04547 -0.00892165 0)
(1.04056 -0.014205 1.69434e-19)
(1.03588 -0.0192049 0)
(1.03126 -0.0238622 -3.7541e-19)
(1.02653 -0.02811 -4.54414e-20)
(1.02156 -0.0318522 -1.94762e-19)
(1.01629 -0.0349526 3.06096e-19)
(1.01067 -0.0372699 -4.22656e-19)
(1.00471 -0.0386465 0)
(0.99844 -0.0389104 2.33381e-19)
(0.991995 -0.0378931 -3.67281e-19)
(0.985593 -0.0354947 1.28848e-19)
(0.979501 -0.0316334 0)
(0.974043 -0.0263252 -1.40594e-19)
(0.969577 -0.0196861 7.20988e-20)
(0.966449 -0.0120494 1.54141e-19)
(0.964904 -0.00376522 1.54476e-19)
(0.965073 0.00471769 -1.573e-19)
(0.966913 0.012788 0)
(0.970241 0.0200923 0)
(0.974779 0.0262489 1.89442e-19)
(0.98016 0.0310322 1.06993e-21)
(0.986059 0.0343816 -2.54773e-19)
(0.992197 0.0363282 -4.26484e-19)
(0.998346 0.036961 6.9286e-20)
(1.0043 0.0363661 -3.39289e-20)
(1.01 0.0347389 0)
(1.0154 0.0322349 0)
(1.02055 0.0289977 1.12456e-19)
(1.0255 0.0251539 1.41142e-19)
(1.03036 0.0208105 -1.4426e-20)
(1.03526 0.0160601 0)
(1.04038 0.0109734 -1.20646e-19)
(1.04594 0.00560043 8.82813e-20)
(1.0522 -1.77251e-05 2.33853e-19)
(1.05955 -0.00585176 0)
(1.06846 -0.0118772 0)
(1.07971 -0.0180828 6.8249e-21)
(1.09452 -0.0244965 -1.5914e-19)
(1.115 -0.0311729 1.54184e-19)
(1.14014 -0.0376049 -2.50671e-20)
(1.12916 -0.0388112 2.20234e-19)
(0.938281 -0.0246962 -2.20843e-19)
(0.465167 -0.00449828 3.54103e-19)
(0.254443 0.000723353 0)
(0.785757 0.0140716 -1.77269e-20)
(1.08435 0.0309191 4.37154e-20)
(1.15332 0.0351866 -2.83212e-20)
(1.13466 0.0302476 -5.99627e-20)
(1.11083 0.0235374 -1.24785e-19)
(1.09429 0.0170087 -6.54516e-20)
(1.08245 0.0106632 -6.80213e-20)
(1.07333 0.00441778 0)
(1.0659 -0.00175333 0)
(1.05959 -0.00784548 0)
(1.05397 -0.0138379 0)
(1.04875 -0.0197009 7.85285e-20)
(1.04368 -0.0253803 -1.62362e-19)
(1.03856 -0.0308097 0)
(1.03318 -0.0359339 1.33789e-19)
(1.02739 -0.0405935 -9.08218e-20)
(1.02106 -0.0446237 4.72584e-21)
(1.01412 -0.0478434 2.06914e-19)
(1.00653 -0.050012 3.16793e-21)
(0.998332 -0.05086 2.32763e-19)
(0.989633 -0.0500751 -2.43631e-19)
(0.980727 -0.0474143 0)
(0.972027 -0.042695 -1.39761e-19)
(0.964045 -0.0358255 -1.4738e-19)
(0.957378 -0.0269035 0)
(0.952659 -0.0163433 -1.60936e-19)
(0.950343 -0.0047469 2.08876e-19)
(0.950678 0.00716817 4.2211e-20)
(0.953585 0.0184068 -2.26592e-19)
(0.958718 0.0284014 -8.13967e-20)
(0.965534 0.0365515 -1.3621e-19)
(0.973419 0.0426195 1.51026e-19)
(0.981825 0.0466117 0)
(0.990334 0.0486834 2.83464e-19)
(0.998557 0.0489734 -3.43981e-20)
(1.0063 0.0477695 3.34395e-20)
(1.01349 0.0453625 0)
(1.02012 0.0419917 3.17994e-20)
(1.02625 0.0378665 1.55201e-19)
(1.03199 0.0331609 0)
(1.03747 0.0280196 -1.19192e-19)
(1.04288 0.0225433 -1.16108e-19)
(1.04841 0.0168138 0)
(1.0543 0.0108999 1.1266e-19)
(1.06083 0.0048512 -5.55398e-20)
(1.06838 -0.00130714 0)
(1.07748 -0.00755474 -5.32702e-20)
(1.08892 -0.0138851 -1.04799e-19)
(1.104 -0.020327 -1.0206e-19)
(1.1246 -0.0269033 4.96924e-20)
(1.14658 -0.0327741 1.42444e-19)
(1.12037 -0.0327672 9.52568e-20)
(0.911359 -0.0196811 -1.90114e-19)
(0.448547 -0.00345491 -1.22339e-19)
(0.246454 0.000562503 0)
(0.761927 0.0112113 0)
(1.0679 0.0257722 0)
(1.15482 0.0305687 0)
(1.14381 0.0264757 0)
(1.12077 0.0199893 0)
(1.10397 0.013438 0)
(1.092 0.00697549 0)
(1.08283 0.00051769 1.29025e-19)
(1.07538 -0.00597133 0)
(1.06902 -0.0124948 -1.35157e-19)
(1.06332 -0.0190464 0)
(1.05797 -0.0255962 0)
(1.0527 -0.0321038 3.03742e-19)
(1.04725 -0.0385269 0)
(1.04136 -0.0447678 0)
(1.03486 -0.0506792 0)
(1.02754 -0.0560734 1.83883e-19)
(1.01922 -0.0606926 -1.90266e-19)
(1.00981 -0.0642213 0)
(0.99927 -0.066258 -1.11646e-19)
(0.987684 -0.0663118 -2.52617e-19)
(0.975319 -0.0638273 0)
(0.962792 -0.0584036 -1.39649e-19)
(0.950913 -0.0497237 3.33273e-21)
(0.940698 -0.0377339 -4.88672e-19)
(0.933316 -0.0229348 -1.75369e-19)
(0.929703 -0.00633469 -1.39879e-21)
(0.930347 0.0107876 -8.93974e-20)
(0.935089 0.0267435 1.09596e-20)
(0.943214 0.0405274 1.67917e-19)
(0.953661 0.05122 2.00645e-20)
(0.965328 0.0586561 4.80325e-21)
(0.977346 0.0630586 -8.80329e-19)
(0.989005 0.0647433 2.09224e-19)
(0.999837 0.064127 3.37724e-20)
(1.00969 0.0617598 6.50526e-20)
(1.01853 0.0580606 3.12359e-20)
(1.02641 0.053382 2.98101e-20)
(1.03348 0.0480083 -3.53214e-19)
(1.03992 0.0421476 -3.40258e-19)
(1.0459 0.0359698 -4.59709e-19)
(1.05166 0.02959 -1.10841e-19)
(1.05742 0.0230845 0)
(1.06344 0.0165181 2.70696e-20)
(1.07005 0.00993813 0)
(1.07766 0.00336728 -5.17298e-20)
(1.08681 -0.00318139 -5.07198e-20)
(1.09832 -0.009716 -2.48576e-20)
(1.11353 -0.0162715 9.67907e-20)
(1.13389 -0.0228168 0)
(1.15175 -0.0282166 0)
(1.11117 -0.0274574 0)
(0.888806 -0.0157263 2.61311e-20)
(0.435882 -0.00266304 1.19973e-19)
(0.240193 0.000439931 0)
(0.742372 0.0090028 0)
(1.05278 0.0214705 1.24669e-20)
(1.1551 0.0263749 2.35748e-20)
(1.15226 0.0229605 0)
(1.13063 0.0166826 0)
(1.1138 0.0100817 5.30494e-20)
(1.10183 0.0034648 0)
(1.09276 -0.00324258 1.15985e-19)
(1.08544 -0.0100875 0)
(1.07922 -0.0170919 -2.43539e-19)
(1.07366 -0.024266 -6.21431e-20)
(1.06842 -0.031597 2.59526e-19)
(1.06318 -0.0390666 5.63945e-19)
(1.05766 -0.0466896 -1.43235e-19)
(1.05156 -0.0543417 3.82592e-20)
(1.04461 -0.0618986 7.74417e-20)
(1.0365 -0.0691814 0)
(1.02695 -0.0759072 0)
(1.01566 -0.0816564 0)
(1.00245 -0.085895 1.06354e-19)
(0.987263 -0.0878852 -1.25307e-19)
(0.970248 -0.0866586 -7.80813e-19)
(0.952042 -0.0811921 1.41378e-19)
(0.933944 -0.0707128 -3.20171e-19)
(0.917685 -0.0546608 -6.96816e-19)
(0.905541 -0.0335005 2.83338e-19)
(0.899575 -0.00890855 -1.9918e-19)
(0.900816 0.0164683 -1.96836e-19)
(0.908955 0.0398143 -2.52756e-20)
(0.922375 0.059003 -9.11383e-20)
(0.938847 0.07277 -1.71645e-19)
(0.956379 0.0813016 -3.1807e-19)
(0.973535 0.0852922 -5.96099e-19)
(0.989289 0.0855221 1.36923e-19)
(1.00328 0.0830202 -1.32526e-19)
(1.01546 0.0785922 9.50143e-20)
(1.02596 0.0728593 -3.58931e-19)
(1.03499 0.0662862 -1.16962e-19)
(1.04283 0.0592106 -1.10939e-19)
(1.04971 0.0518609 2.20194e-19)
(1.05593 0.0443893 0)
(1.06177 0.0369112 -7.87663e-20)
(1.06753 0.029494 0)
(1.0735 0.0221821 0)
(1.08003 0.0149981 5.06429e-20)
(1.08752 0.0079529 7.44623e-20)
(1.09657 0.00104347 4.78732e-20)
(1.10801 -0.00575128 4.66457e-20)
(1.12319 -0.0124715 4.52458e-20)
(1.14293 -0.019022 0)
(1.15599 -0.0240369 -2.22228e-20)
(1.10219 -0.0228872 -4.45499e-20)
(0.87001 -0.0126135 1.03485e-19)
(0.426269 -0.00208357 -3.4455e-19)
(0.235173 0.000355118 0)
(0.726222 0.00732616 -1.40031e-20)
(1.03918 0.017949 0)
(1.15463 0.022703 0)
(1.16006 0.0198158 4.32943e-20)
(1.14042 0.0137408 4.57273e-20)
(1.12377 0.00708807 -2.3815e-20)
(1.11195 0.000308111 0)
(1.10313 -0.0066494 2.54264e-20)
(1.09613 -0.0138502 -5.18014e-20)
(1.09027 -0.0213383 0)
(1.08508 -0.0291491 -5.42903e-20)
(1.08022 -0.0373121 -1.82981e-21)
(1.07535 -0.0458645 -4.41294e-20)
(1.07013 -0.0548205 2.86867e-20)
(1.06424 -0.0641314 -3.78159e-21)
(1.05732 -0.0737387 1.404e-19)
(1.04894 -0.0834992 0)
(1.03861 -0.0931758 3.14179e-19)
(1.02581 -0.102359 -2.79881e-22)
(1.00995 -0.11036 0)
(0.990629 -0.116213 -3.25806e-19)
(0.967633 -0.118446 -1.21863e-19)
(0.941185 -0.114967 5.62418e-19)
(0.912875 -0.103645 3.77631e-21)
(0.885748 -0.0826861 0)
(0.864341 -0.0516369 1.96666e-19)
(0.853615 -0.0134331 -1.18965e-19)
(0.856192 0.0263847 1.11874e-19)
(0.871215 0.0619279 -4.23271e-19)
(0.894685 0.0887394 1.87586e-19)
(0.921573 0.105524 3.52117e-19)
(0.948271 0.113768 6.26503e-19)
(0.972435 0.115235 -1.4127e-19)
(0.993233 0.112072 -1.47139e-19)
(1.01068 0.106006 1.22956e-19)
(1.02511 0.0982042 -4.6504e-19)
(1.03697 0.0894677 3.43799e-19)
(1.04672 0.0802969 1.09385e-19)
(1.05482 0.0710083 0)
(1.06172 0.0618163 1.50443e-19)
(1.06782 0.0528352 -4.72858e-20)
(1.07345 0.044121 0)
(1.07894 0.0356995 -9.5606e-20)
(1.08462 0.0275756 -9.62128e-20)
(1.09085 0.0197495 9.34701e-20)
(1.09805 0.0122027 -2.33392e-19)
(1.10684 0.00490989 -9.22449e-20)
(1.11808 -0.00216733 4.47263e-20)
(1.13307 -0.0090705 4.34089e-20)
(1.1518 -0.0156319 -2.10293e-20)
(1.15955 -0.0203261 -6.20677e-20)
(1.09363 -0.0190144 1.04984e-20)
(0.85389 -0.0101401 -1.23599e-20)
(0.418127 -0.00166772 0)
(0.231062 0.000297506 0)
(0.712796 0.0060876 0)
(1.02707 0.0151689 -2.00615e-20)
(1.15369 0.0196362 0)
(1.16729 0.0171564 -1.89823e-20)
(1.15012 0.0112908 1.96954e-20)
(1.13391 0.00461628 4.08731e-20)
(1.12237 -0.00229138 0)
(1.11393 -0.00946305 8.62322e-20)
(1.10741 -0.0169808 0)
(1.10211 -0.0249145 -1.82295e-19)
(1.09756 -0.0333305 -9.33525e-20)
(1.0934 -0.042305 -2.99149e-21)
(1.08929 -0.0518903 -1.01991e-19)
(1.08488 -0.0622305 1.01291e-19)
(1.07981 -0.0733298 1.08145e-19)
(1.07366 -0.0852528 -5.33441e-20)
(1.06589 -0.0979998 -1.81805e-19)
(1.05581 -0.111495 -5.97125e-20)
(1.04253 -0.125476 1.41704e-19)
(1.02502 -0.139427 0)
(1.00199 -0.15224 -1.35568e-20)
(0.972117 -0.161995 2.15791e-19)
(0.934592 -0.165481 0)
(0.889699 -0.157492 0)
(0.841811 -0.132222 4.08658e-19)
(0.800476 -0.0856082 -3.65588e-21)
(0.778924 -0.0219553 9.06394e-21)
(0.784786 0.0456995 -5.39857e-19)
(0.815509 0.10272 4.84731e-19)
(0.85962 0.139599 4.12795e-19)
(0.904995 0.156849 7.11424e-19)
(0.94527 0.160175 5.2074e-19)
(0.978232 0.154777 2.76183e-19)
(1.0044 0.144809 0)
(1.02479 0.132704 0)
(1.04055 0.119843 2.70049e-19)
(1.05275 0.10696 1.37149e-21)
(1.06234 0.0944802 -1.03889e-19)
(1.07003 0.0825804 -9.28968e-20)
(1.07637 0.0713261 -1.84534e-19)
(1.08186 0.0607153 1.37361e-19)
(1.08685 0.0507105 0)
(1.09172 0.0412759 4.50337e-20)
(1.09682 0.0323584 -4.38537e-20)
(1.10251 0.0239083 0)
(1.10922 0.0158816 0)
(1.11758 0.0082243 -1.4533e-21)
(1.12847 0.000881558 0)
(1.14309 -0.00619207 0)
(1.16045 -0.0127592 -2.7019e-22)
(1.16264 -0.0172007 0)
(1.08589 -0.0158911 -5.96726e-20)
(0.840389 -0.00825427 0)
(0.411133 -0.00131782 -8.73759e-20)
(0.227595 0.000267078 0)
(0.701545 0.00523782 2.76429e-21)
(1.01645 0.0130943 2.20365e-21)
(1.15255 0.017236 0)
(1.17402 0.0150756 2.03858e-21)
(1.15965 0.00943093 0)
(1.14411 0.00278413 0)
(1.13297 -0.00418987 0)
(1.12505 -0.011496 0)
(1.11918 -0.0192303 0)
(1.11464 -0.0274854 0)
(1.11098 -0.0363601 0)
(1.10785 -0.0459643 0)
(1.10492 -0.0564778 1.18754e-19)
(1.10188 -0.0680512 -4.16737e-20)
(1.09838 -0.0808303 -8.52755e-20)
(1.09397 -0.0950342 -8.56582e-20)
(1.08809 -0.110904 4.40176e-21)
(1.07994 -0.128694 -5.88255e-20)
(1.0684 -0.148605 -2.29506e-21)
(1.05184 -0.170673 2.56716e-19)
(1.02791 -0.19451 -1.72522e-19)
(0.993215 -0.218584 0)
(0.943504 -0.239271 2.14355e-19)
(0.874261 -0.247901 -1.26214e-18)
(0.785613 -0.227295 8.14664e-19)
(0.696471 -0.15774 5.42196e-19)
(0.646758 -0.0404065 2.2134e-18)
(0.661524 0.0893123 0)
(0.732905 0.18687 1.07101e-18)
(0.822623 0.231797 -1.55575e-18)
(0.899818 0.23755 -4.76416e-19)
(0.957474 0.224296 -1.36504e-19)
(0.99881 0.204014 -7.39262e-19)
(1.02804 0.182111 3.31546e-21)
(1.04876 0.160909 6.69906e-19)
(1.06362 0.141334 -5.11282e-20)
(1.07447 0.12352 2.72634e-19)
(1.08257 0.107403 8.84291e-20)
(1.08877 0.0927806 1.67915e-19)
(1.09375 0.0794696 0)
(1.09798 0.067298 4.23282e-20)
(1.10187 0.056103 7.64794e-20)
(1.10579 0.0457507 7.84009e-20)
(1.11002 0.0361364 -4.07557e-20)
(1.11494 0.0271597 1.39535e-19)
(1.12099 0.0187354 -3.76439e-20)
(1.12878 0.0107801 -1.60003e-19)
(1.1392 0.00322946 -1.89105e-20)
(1.15329 -0.00396812 -3.813e-20)
(1.16894 -0.010503 -3.65059e-20)
(1.1654 -0.0147169 1.88197e-20)
(1.07888 -0.0134834 1.93119e-20)
(0.828886 -0.00690667 6.91409e-22)
(0.405323 -0.00112455 4.24962e-20)
(0.224199 0.000298373 5.32528e-20)
(0.691617 0.00476338 -7.61712e-20)
(1.00689 0.0116972 1.09134e-22)
(1.15127 0.0155304 2.75925e-20)
(1.18027 0.0136306 -2.72699e-20)
(1.16898 0.00823526 -2.78238e-20)
(1.15428 0.00169581 0)
(1.14363 -0.00524417 2.01137e-23)
(1.13632 -0.0125626 -1.43359e-20)
(1.1312 -0.0203635 7.14231e-21)
(1.12758 -0.0287586 -7.09707e-21)
(1.12502 -0.0378683 -7.04681e-21)
(1.12321 -0.0478474 3.64463e-21)
(1.12186 -0.0589196 1.31617e-20)
(1.12074 -0.0713005 2.5039e-20)
(1.11956 -0.0852702 4.78219e-20)
(1.11797 -0.101233 1.66934e-19)
(1.11553 -0.119678 3.24944e-20)
(1.11152 -0.141281 0)
(1.10493 -0.166992 0)
(1.09416 -0.197936 -6.63721e-20)
(1.07627 -0.235626 3.55347e-20)
(1.04608 -0.281697 -2.75852e-19)
(0.994005 -0.336779 1.51607e-19)
(0.901208 -0.396622 -2.14046e-19)
(0.738694 -0.425885 0)
(0.519249 -0.336364 3.42752e-18)
(0.386076 -0.0878936 -1.17913e-18)
(0.42719 0.205448 -5.34543e-18)
(0.622457 0.383262 2.16652e-18)
(0.814705 0.404442 0)
(0.935908 0.356224 -1.00436e-18)
(1.00459 0.30305 3.74645e-19)
(1.04495 0.256296 3.34526e-19)
(1.06962 0.217531 1.62133e-19)
(1.08525 0.18559 1.5347e-19)
(1.09549 0.158966 2.26239e-19)
(1.10248 0.136408 0)
(1.1073 0.117024 -5.46361e-20)
(1.11082 0.100111 4.34314e-19)
(1.11361 0.0851523 0)
(1.11599 0.0717671 -1.16203e-21)
(1.11832 0.0596861 -1.73655e-20)
(1.1209 0.0486795 -5.42208e-20)
(1.124 0.0385737 -1.79443e-20)
(1.12796 0.0292391 3.49629e-20)
(1.13318 0.0205556 -1.78339e-20)
(1.14026 0.0124228 -1.81776e-20)
(1.15009 0.00475178 -7.26207e-22)
(1.16349 -0.00249385 1.34245e-20)
(1.17718 -0.00895104 1.24779e-20)
(1.16795 -0.0129554 -2.51315e-20)
(1.07275 -0.0118152 -3.57822e-20)
(0.819205 -0.00606374 -2.10366e-20)
(0.400439 -0.00105549 -3.91328e-20)
(0.216352 0.000367901 -7.05388e-19)
(0.679592 0.00461196 0)
(0.996594 0.010829 -1.9619e-19)
(1.14937 0.0144273 1.77872e-19)
(1.18603 0.0128139 1.74715e-19)
(1.17804 0.00774929 0)
(1.16431 0.00143172 1.76743e-19)
(1.15418 -0.00534294 0)
(1.14751 -0.012523 0)
(1.14321 -0.0202018 8.46639e-20)
(1.1406 -0.0284936 0)
(1.13926 -0.0375348 -7.55912e-20)
(1.13893 -0.0475049 -2.55597e-21)
(1.13941 -0.0586399 8.94746e-21)
(1.14055 -0.0711944 1.2875e-20)
(1.14222 -0.085521 1.18659e-20)
(1.14428 -0.102108 6.16033e-21)
(1.14655 -0.121631 -2.50912e-21)
(1.1488 -0.145049 -1.29679e-20)
(1.1507 -0.173863 4.21145e-21)
(1.15166 -0.210315 -1.46708e-20)
(1.1504 -0.258242 -1.33194e-20)
(1.14473 -0.324383 0)
(1.13026 -0.425112 0)
(1.07029 -0.580675 2.6872e-19)
(0.811732 -0.669867 0)
(0.213175 -0.362247 5.52688e-17)
(0.354371 0.447985 -1.76076e-19)
(0.895595 0.652684 -5.26166e-20)
(1.08571 0.487247 -1.53219e-19)
(1.11213 0.367386 1.5964e-19)
(1.12435 0.29123 3.82606e-19)
(1.13046 0.23821 3.11811e-19)
(1.13343 0.198713 -6.09208e-20)
(1.13473 0.167708 -6.96171e-22)
(1.13522 0.14248 1.67544e-20)
(1.13525 0.121335 -1.21342e-22)
(1.1351 0.103232 -5.8508e-20)
(1.13498 0.0874411 1.37041e-20)
(1.13507 0.0734727 -3.06051e-20)
(1.13553 0.0609753 -1.60986e-20)
(1.13655 0.0496797 -4.84996e-22)