/*--------------------------------*- C++ -*----------------------------------*\
  =========                 |
  \\      /  F ield         | OpenFOAM: The Open Source CFD Toolbox
   \\    /   O peration     | Website:  https://openfoam.org
    \\  /    A nd           | Version:  7
     \\/     M anipulation  |
\*---------------------------------------------------------------------------*/
FoamFile
{
    version     2.0;
    format      ascii;
    class       volScalarField;
    location    "100";
    object      k;
}
// * * * * * * * * * * * * * * * * * * * * * * * * * * * * * * * * * * * * * //

dimensions      [0 2 -2 0 0 0 0];

internalField   nonuniform List<scalar> 
17475
(
0.00763364
0.0124983
0.0125514
0.0125508
0.0125505
0.0125505
0.0125505
0.0125505
0.0125504
0.0125502
0.0125503
0.0125506
0.0125503
0.0125503
0.0125505
0.0125503
0.0125503
0.0125505
0.0125503
0.0125503
0.0125509
0.012551
0.0125496
0.0125516
0.012547
0.0125588
0.0125589
0.0125591
0.0125592
0.0125589
0.0125588
0.0125588
0.0125588
0.0125587
0.0125586
0.0125586
0.0125585
0.0125582
0.0125587
0.012563
0.0125696
0.0125761
0.0125822
0.0125879
0.0125929
0.0125976
0.0126018
0.0126058
0.0126093
0.0126127
0.0126157
0.0126186
0.0126208
0.0126101
0.0120188
0.00024617
0.00440847
0.00528545
0.00530419
0.00529475
0.00529042
0.00528838
0.0052871
0.00528639
0.00528587
0.00528557
0.00528529
0.0052851
0.00528497
0.00528481
0.00528473
0.00528463
0.00528454
0.00528446
0.00528442
0.00528439
0.00528435
0.0052854
0.00528319
0.00528719
0.00529115
0.0052941
0.00529428
0.00529436
0.00529394
0.00529381
0.00529379
0.00529381
0.00529382
0.00529384
0.0052938
0.00529379
0.00529354
0.0052926
0.00529348
0.00529533
0.00529747
0.00529973
0.00530189
0.00530403
0.00530607
0.00530814
0.00531025
0.00531262
0.00531544
0.00531924
0.00532455
0.00532172
0.00502942
0.00162919
3.09295e-05
0.00184648
0.00307709
0.00319507
0.00318631
0.00317739
0.00317239
0.00316941
0.00316759
0.00316629
0.0031654
0.00316474
0.00316425
0.00316381
0.00316346
0.00316316
0.00316288
0.00316262
0.00316239
0.00316215
0.00316192
0.00316223
0.00316185
0.00316343
0.00316449
0.00316594
0.00316785
0.00316869
0.00316871
0.00316856
0.00316838
0.00316843
0.00316855
0.00316868
0.00316881
0.00316894
0.00316907
0.00316876
0.0031684
0.00316868
0.00316926
0.00317002
0.00317095
0.00317202
0.00317324
0.00317463
0.00317631
0.00317849
0.00318148
0.00318595
0.00319291
0.00320128
0.00315716
0.00249609
0.00028303
9.86281e-06
0.000848397
0.00201145
0.00223569
0.00224409
0.00223398
0.00222715
0.00222286
0.00222001
0.00221803
0.00221666
0.00221561
0.00221477
0.00221408
0.00221351
0.002213
0.00221252
0.00221209
0.00221169
0.00221129
0.00221119
0.00221082
0.00221153
0.00221228
0.00221306
0.00221365
0.00221436
0.00221513
0.00221541
0.00221546
0.00221531
0.00221545
0.00221571
0.00221598
0.00221626
0.00221657
0.00221685
0.00221673
0.00221673
0.00221715
0.00221765
0.00221827
0.00221905
0.00222004
0.00222126
0.0022228
0.00222482
0.0022276
0.00223164
0.00223778
0.00224688
0.00224964
0.00213799
0.0013328
8.89293e-05
4.46257e-06
0.000439072
0.00138464
0.00168548
0.00171863
0.00171162
0.00170407
0.00169895
0.00169543
0.00169296
0.00169117
0.0016898
0.0016887
0.00168777
0.00168699
0.00168629
0.00168566
0.00168505
0.00168447
0.0016841
0.00168357
0.00168378
0.00168402
0.00168427
0.00168461
0.00168499
0.00168536
0.00168571
0.00168609
0.00168626
0.00168627
0.00168654
0.00168692
0.00168734
0.00168778
0.00168827
0.00168864
0.00168869
0.00168914
0.00168973
0.00169036
0.0016911
0.00169199
0.0016931
0.00169452
0.00169634
0.00169874
0.00170208
0.00170689
0.00171396
0.00172256
0.00171129
0.00153745
0.000771544
4.18452e-05
2.43965e-06
0.000255629
0.000985578
0.00132503
0.00138384
0.00138284
0.00137554
0.00137004
0.00136611
0.00136326
0.00136119
0.00135958
0.00135827
0.00135715
0.00135618
0.00135531
0.00135452
0.00135373
0.00135311
0.0013524
0.00135222
0.00135209
0.00135198
0.00135192
0.00135194
0.00135206
0.00135222
0.00135244
0.00135272
0.00135307
0.00135323
0.00135361
0.00135413
0.00135467
0.00135528
0.00135595
0.00135637
0.00135677
0.00135748
0.00135824
0.00135903
0.00135991
0.00136095
0.00136222
0.00136385
0.00136596
0.00136867
0.00137237
0.0013776
0.00138469
0.00139014
0.00136177
0.00114452
0.000485353
2.44068e-05
1.5113e-06
0.000164254
0.000722896
0.00106904
0.00115066
0.00115715
0.00115126
0.00114574
0.00114159
0.00113852
0.00113626
0.00113448
0.00113299
0.00113172
0.0011306
0.00112956
0.00112863
0.00112778
0.00112685
0.00112627
0.00112584
0.00112546
0.00112508
0.00112477
0.00112453
0.00112446
0.00112441
0.00112451
0.00112477
0.00112522
0.00112556
0.00112601
0.00112665
0.00112735
0.0011281
0.00112892
0.00112948
0.00113019
0.00113109
0.00113201
0.00113296
0.00113399
0.00113516
0.00113659
0.00113839
0.00114073
0.00114366
0.00114746
0.00115268
0.00115927
0.00116014
0.0011149
0.000874595
0.000329724
1.6027e-05
1.02452e-06
0.000114142
0.000546112
0.000878162
0.000978263
0.000992652
0.000988949
0.000983717
0.00097957
0.00097644
0.00097405
0.00097215
0.00097048
0.00096902
0.000967807
0.000966631
0.00096556
0.000964453
0.000963576
0.000962769
0.000962093
0.000961481
0.000960851
0.000960267
0.000959808
0.000959585
0.000959373
0.000959361
0.000959588
0.000960088
0.000960604
0.000961139
0.000961897
0.000962784
0.000963724
0.000964638
0.000965411
0.000966394
0.000967486
0.000968552
0.000969658
0.00097081
0.000972135
0.000973694
0.000975621
0.000978058
0.000980968
0.000984792
0.000989947
0.00099533
0.000990867
0.000930944
0.00068424
0.000237678
1.12351e-05
7.41524e-07
8.39301e-05
0.000424428
0.000731651
0.000845561
0.000867634
0.000866708
0.000862029
0.000857981
0.000854819
0.00085242
0.000850452
0.000848601
0.00084695
0.000845688
0.00084434
0.000842972
0.000841895
0.000840737
0.00083962
0.000838673
0.000837816
0.000836885
0.000836022
0.000835435
0.000835047
0.000834632
0.000834503
0.000834716
0.000835343
0.000836012
0.000836691
0.00083759
0.000838691
0.000839809
0.000840837
0.000841917
0.000843138
0.000844344
0.000845544
0.000846831
0.000848057
0.000849437
0.000851094
0.000853033
0.000855481
0.000858467
0.000862207
0.000867036
0.000870697
0.000860739
0.000788461
0.000546632
0.000179912
8.37748e-06
5.63378e-07
6.44e-05
0.00033864
0.000617316
0.000740463
0.00076963
0.000771843
0.000768122
0.000764096
0.000760865
0.000758577
0.000756563
0.000754624
0.000752827
0.000751532
0.000750007
0.000748524
0.000747219
0.000745632
0.000744134
0.000742919
0.000741881
0.000740667
0.000739494
0.000738672
0.000738013
0.000737323
0.000737108
0.000737412
0.000738186
0.00073902
0.000739873
0.000740907
0.000742241
0.00074352
0.000744815
0.000746257
0.000747619
0.000748798
0.000750145
0.000751618
0.000752877
0.000754245
0.000755861
0.000757784
0.000760398
0.000763457
0.00076689
0.000771142
0.000773047
0.000757998
0.000676791
0.000447199
0.000141823
6.54911e-06
4.43823e-07
5.10851e-05
0.000276704
0.000527071
0.000655291
0.000690914
0.000696238
0.000693693
0.000689732
0.000686367
0.000684193
0.000682402
0.000680605
0.000678621
0.000677196
0.000675735
0.000674057
0.000672561
0.000670607
0.000668632
0.000667045
0.000665795
0.000664375
0.000663018
0.000661921
0.000660943
0.000659866
0.00065956
0.000659959
0.0006608
0.000661762
0.000662831
0.000664148
0.000665809
0.000667161
0.000668876
0.000670449
0.000671852
0.000673035
0.000674493
0.000675965
0.000677259
0.000678567
0.000680077
0.000682304
0.000685068
0.000688194
0.000691258
0.000694811
0.000694673
0.00067513
0.000587646
0.000373488
0.000115278
5.29915e-06
3.60031e-07
4.16483e-05
0.000230946
0.000455213
0.000585043
0.000626584
0.000634635
0.00063315
0.00062937
0.000626076
0.000624169
0.000622795
0.00062106
0.000618827
0.000617285
0.000615812
0.000613836
0.000612168
0.000609861
0.000607594
0.000605849
0.000604188
0.00060245
0.000600986
0.000599778
0.000598467
0.000597144
0.000596685
0.000596961
0.000597944
0.000599066
0.000600442
0.000602047
0.000603963
0.000605559
0.00060751
0.000609336
0.000610698
0.000611787
0.000613372
0.000614952
0.000616094
0.000617106
0.000618841
0.000621542
0.000624462
0.000627635
0.000630199
0.000632736
0.0006308
0.000607129
0.000515574
0.000317798
9.60864e-05
4.41096e-06
2.99358e-07
3.4772e-05
0.000196383
0.00039749
0.000526206
0.000572999
0.000583395
0.000583255
0.000579512
0.000575918
0.00057443
0.000573993
0.000572193
0.000569851
0.000568266
0.000566461
0.000564272
0.000562444
0.00055994
0.000557684
0.000555902
0.000553656
0.000551359
0.000550208
0.000549355
0.000547394
0.000545713
0.000545447
0.000545983
0.000546773
0.000547836
0.000549665
0.000551461
0.00055345
0.000555366
0.000557398
0.000559489
0.000560943
0.000561912
0.000562884
0.000564454
0.000565768
0.000566997
0.000568655
0.000571338
0.000574899
0.000577992
0.000579951
0.000581717
0.00057811
0.000550548
0.000456546
0.000274728
8.17339e-05
3.75962e-06
2.53697e-07
2.95661e-05
0.000169672
0.000350641
0.000476953
0.000527195
0.000539538
0.000540563
0.000537041
0.000534175
0.000532905
0.000532449
0.000530784
0.000528622
0.00052695
0.000524733
0.000522413
0.0005201
0.000517467
0.000514982
0.000512902
0.000510602
0.000508357
0.000507235
0.000506829
0.000505101
0.000503069
0.00050223
0.000502655
0.000503778
0.000505383
0.000507102
0.000508874
0.000510848
0.000512824
0.000514882
0.000516997
0.000518395
0.000519509
0.00052072
0.00052218
0.000523633
0.000524945
0.00052634
0.000528955
0.000532811
0.000535501
0.00053737
0.000538177
0.000532771
0.000502173
0.000407464
0.000240266
7.04143e-05
3.22897e-06
2.18377e-07
2.5517e-05
0.000148514
0.000312004
0.000432616
0.000485381
0.000499942
0.000501676
0.000498782
0.000496049
0.00049509
0.000494713
0.000493175
0.000491178
0.000489349
0.000487075
0.000484591
0.00048199
0.000479226
0.000476655
0.000474371
0.000472299
0.000470653
0.000470113
0.000471163
0.000471181
0.000469531
0.000468884
0.000469104
0.00046985
0.000471023
0.000470641
0.000471467
0.000473265
0.000474848
0.000476768
0.000478733
0.000480344
0.000481769
0.000483005
0.000484433
0.000485926
0.000487278
0.000488714
0.000491109
0.000494609
0.00049718
0.000498798
0.000498897
0.000491626
0.00045851
0.000365715
0.00021267
6.14927e-05
2.8024e-06
1.90458e-07
2.23193e-05
0.000131367
0.000279496
0.000393424
0.000447595
0.000463867
0.000466382
0.000464051
0.00046168
0.000460874
0.000460441
0.000458997
0.000457112
0.000455201
0.00045298
0.000450481
0.000447697
0.000444924
0.000442504
0.000440359
0.000439202
0.00043939
0.000441158
0.000447795
0.000460932
0.000469241
0.000473375
0.000472085
0.000465019
0.000453758
0.00044256
0.000441593
0.000440942
0.000441454
0.000442973
0.000444612
0.00044622
0.00044775
0.000448983
0.000450259
0.000451747
0.000453122
0.000454473
0.000456651
0.000459847
0.000462295
0.000463632
0.000462985
0.000454212
0.000419115
0.000329327
0.00018979
5.4171e-05
2.45473e-06
1.66121e-07
1.9639e-05
0.000117064
0.000251516
0.000358528
0.000413154
0.000430892
0.00043417
0.000432376
0.000430357
0.000429627
0.000429096
0.000427729
0.000425961
0.000424045
0.000421958
0.000419513
0.000416634
0.000414023
0.000412018
0.000410714
0.000411615
0.000415802
0.000433052
0.000469393
0.000479716
0.000438973
0.000396443
0.000397707
0.000470362
0.000482512
0.000447643
0.000421668
0.000414942
0.000412965
0.000413089
0.000414096
0.00041545
0.000416983
0.000418182
0.000419192
0.000420567
0.000421917
0.000423242
0.00042523
0.000428105
0.000430398
0.000431523
0.000430237
0.000420175
0.000383842
0.000298034
0.000170712
4.81528e-05
2.1703e-06
1.30053e-07
1.68972e-05
0.000103666
0.000226524
0.000326684
0.000381465
0.000400556
0.000404605
0.000403307
0.00040157
0.000400859
0.000400246
0.000398942
0.000397308
0.00039547
0.000393575
0.000391198
0.000388366
0.00038608
0.000384537
0.000384654
0.000389437
0.00040765
0.00044039
0.000377881
0.0001299
2.23291e-06
1.21455e-05
0.000318841
0.000433003
0.000429406
0.000397563
0.000388517
0.00038653
0.00038663
0.000387596
0.000389042
0.000390147
0.000390967
0.000392197
0.000393418
0.000394659
0.000396448
0.00039901
0.00040113
0.000402032
0.000400162
0.000389029
0.000351895
0.000270668
0.000154241
4.29524e-05
1.92541e-06
4.80161e-08
1.19153e-05
8.78151e-05
0.000201296
0.000295509
0.0003516
0.000372338
0.00037729
0.000376492
0.000374967
0.000374253
0.000373575
0.000372317
0.000370819
0.000369139
0.00036745
0.000365032
0.000362346
0.00036039
0.000359666
0.000361763
0.0003735
0.000397101
0.000332572
9.23379e-05
3.95499e-07
0.000190685
0.000399178
0.000388068
0.00036752
0.00036224
0.000361493
0.000362019
0.000363323
0.000364404
0.000364977
0.000366056
0.000367125
0.000368234
0.000369809
0.000372084
0.000374047
0.000374769
0.000372417
0.000360468
0.000322745
0.000246618
0.000139949
3.79469e-05
1.58711e-06
6.42043e-08
1.26043e-05
8.1483e-05
0.000184065
0.000271309
0.000323515
0.000344715
0.000350328
0.000350051
0.000348644
0.000347652
0.00034695
0.00034585
0.000344258
0.000342736
0.000340904
0.000338701
0.000336396
0.000334571
0.000334492
0.00033913
0.000355825
0.000346525
0.000157378
1.1397e-05
4.92511e-05
0.000286756
0.000364221
0.000345959
0.000336923
0.000335156
0.000335847
0.000336971
0.000338038
0.000338615
0.000339553
0.000340655
0.000341726
0.000343214
0.000345275
0.000347096
0.000347648
0.000344826
0.000332021
0.000295743
0.000224271
0.000127341
3.59134e-05
1.74436e-06
9.16374e-08
1.22785e-05
7.6854e-05
0.00017026
0.000249162
0.000297912
0.000318726
0.000324497
0.00032434
0.000323097
0.000322257
0.000321343
0.000320339
0.00031892
0.000317372
0.000315505
0.000313585
0.00031151
0.00030972
0.000309921
0.000315996
0.000324898
0.000269652
8.68625e-05
5.89054e-06
9.57056e-08
3.69761e-07
2.49527e-05
0.000184412
0.000316284
0.000323089
0.000313153
0.000310543
0.000311118
0.000311854
0.000312753
0.00031325
0.000314229
0.00031527
0.000316372
0.000317828
0.000319729
0.000321539
0.000321992
0.000318861
0.000305626
0.000270169
0.000204097
0.000115762
3.23536e-05
1.46891e-06
9.23595e-08
1.11603e-05
7.00894e-05
0.000155382
0.000227472
0.000273601
0.000294359
0.000300548
0.000300654
0.000299576
0.000298808
0.000297769
0.000296747
0.00029544
0.000293915
0.000292034
0.000290212
0.000288384
0.000286556
0.000286817
0.000292591
0.000289032
0.000207947
6.32734e-05
9.14067e-06
1.15328e-06
5.56022e-07
6.67302e-07
4.88968e-07
5.52801e-07
2.44403e-06
2.09547e-05
0.000128111
0.000265204
0.000296202
0.000290674
0.00028774
0.000288275
0.000288741
0.000289421
0.000289817
0.000290805
0.000291907
0.000293048
0.000294486
0.000296324
0.000298003
0.000298248
0.00029479
0.000281235
0.000246875
0.000185807
0.000105251
2.90204e-05
1.29109e-06
8.44511e-08
1.00622e-05
6.34603e-05
0.000141496
0.000207513
0.000251168
0.000271898
0.000278494
0.000278939
0.000277966
0.000277161
0.000276183
0.00027515
0.000273876
0.000272311
0.000270422
0.000268781
0.00026712
0.000265366
0.00026553
0.000268895
0.000253444
0.000166381
5.66055e-05
1.45953e-05
5.50352e-06
5.09892e-06
5.50552e-06
4.71215e-06
3.42359e-06
3.80373e-06
2.00676e-05
0.00010132
0.000224582
0.000269788
0.000269358
0.000266593
0.000267012
0.000267481
0.000267998
0.00026829
0.000269163
0.000270292
0.000271556
0.000273018
0.000274803
0.00027633
0.000276374
0.000272609
0.000258802
0.000225665
0.000169318
9.56758e-05
2.60123e-05
1.14615e-06
7.59922e-08
9.05046e-06
5.74278e-05
0.00012885
0.00018936
0.000230536
0.000251109
0.000258089
0.000258897
0.000258015
0.0002572
0.000256301
0.000255274
0.000254012
0.000252429
0.000250593
0.000249096
0.0002476
0.000245961
0.000245967
0.000246366
0.000222025
0.000139628
5.628e-05
2.26017e-05
1.50752e-05
1.27285e-05
9.52611e-06
7.02954e-06
5.51824e-06
6.16118e-06
2.40924e-05
9.12352e-05
0.000195726
0.000245238
0.000248879
0.000246933
0.000247275
0.000247787
0.000248219
0.000248472
0.000249298
0.000250462
0.000251765
0.00025328
0.000255038
0.000256394
0.000256175
0.000252078
0.00023816
0.000206403
0.00015446
8.70075e-05
2.33532e-05
1.02246e-06
6.81099e-08
8.12429e-06
5.19545e-05
0.000117368
0.000172854
0.000211536
0.000231843
0.000239132
0.000240302
0.000239554
0.00023875
0.000237929
0.000236913
0.00023568
0.000234082
0.00023233
0.000230949
0.000229622
0.00022812
0.000227858
0.000225623
0.000196859
0.000124196
5.981e-05
3.54681e-05
2.75656e-05
1.7928e-05
1.03978e-05
8.13411e-06
7.7117e-06
1.15097e-05
3.36205e-05
8.84573e-05
0.000176547
0.000223022
0.000229473
0.000228558
0.000228944
0.00022952
0.000229908
0.000230141
0.000230922
0.000232179
0.000233531
0.000235115
0.000236823
0.00023799
0.000237517
0.000233096
0.000219119
0.000188784
0.000140909
7.90264e-05
2.09322e-05
9.11329e-07
6.08994e-08
7.27872e-06
4.69378e-05
0.00010682
0.000157705
0.000193903
0.000213757
0.000221366
0.000222956
0.000222382
0.000221624
0.000220825
0.000219801
0.00021861
0.000217037
0.000215319
0.000214067
0.000212953
0.00021157
0.000211032
0.000207076
0.000177675
0.000117944
7.25998e-05
5.60731e-05
3.64868e-05
1.77448e-05
1.12161e-05
1.07496e-05
1.21379e-05
2.17909e-05
4.4244e-05
9.3157e-05
0.000161912
0.000203366
0.00021118
0.000211346
0.000211879
0.000212457
0.000212915
0.000213155
0.000213877
0.000215303
0.00021662
0.000218284
0.000219903
0.0002209
0.00022017
0.000215464
0.000201517
0.000172684
0.000128589
7.17423e-05
1.87525e-05
8.0658e-07
5.43722e-08
6.51153e-06
4.23532e-05
9.7142e-05
0.000143786
0.000177501
0.000196349
0.000204611
0.000206647
0.000206195
0.000204894
0.000204608
0.00020362
0.000202586
0.000201
0.000199106
0.000198114
0.000197338
0.000196072
0.000195284
0.000190485
0.000163534
0.000119996
0.000100439
7.65797e-05
3.66199e-05
1.60196e-05
1.31688e-05
1.56191e-05
2.16517e-05
3.37393e-05
5.48839e-05
9.72767e-05
0.000149941
0.000185421
0.000194164
0.000195182
0.000195904
0.000196449
0.000196997
0.000197298
0.000198033
0.00019918
0.000200595
0.000202555
0.000204084
0.000204971
0.000203823
0.000198816
0.000185046
0.000157794
0.00011719
6.49712e-05
1.67246e-05
7.08779e-07
4.84913e-08
5.81926e-06
3.8156e-05
8.82291e-05
0.000130913
0.000161885
0.000180573
0.000188932
0.000191063
0.00019059
0.000189614
0.000189258
0.000188393
0.000187322
0.000185989
0.000184044
0.000183074
0.000182578
0.000181504
0.0001805
0.000175383
0.000152676
0.000131802
0.000137254
7.09247e-05
2.13393e-05
1.52069e-05
1.92863e-05
2.48142e-05
3.47647e-05
4.93493e-05
6.84498e-05
9.96065e-05
0.000139602
0.000169022
0.000178192
0.000179917
0.000180776
0.000181106
0.000181641
0.000182416
0.00018317
0.000184349
0.000185765
0.000187822
0.000189129
0.000189664
0.000188358
0.000183155
0.000169659
0.000143891
0.000106733
5.875e-05
1.49116e-05
6.24074e-07
4.3222e-08
5.19634e-06
3.43554e-05
7.998e-05
0.000118943
0.000148044
0.000166063
0.000174286
0.000176668
0.000176218
0.000175693
0.000174947
0.000174245
0.000173331
0.000171954
0.000170312
0.000169264
0.000168888
0.000168026
0.000166705
0.000162097
0.000143439
0.000135629
0.000168021
5.09687e-05
1.85225e-05
2.21382e-05
2.94546e-05
3.91258e-05
5.39398e-05
7.42837e-05
9.244e-05
0.000107823
0.000131608
0.000154354
0.000163878
0.000165877
0.000166778
0.000167396
0.000168064
0.000168598
0.000169516
0.00017083
0.000172169
0.000173944
0.00017517
0.000175362
0.000173942
0.000168729
0.000155382
0.000131141
9.70366e-05
5.3124e-05
1.3303e-05
5.5076e-07
3.85424e-08
4.64221e-06
3.0956e-05
7.25287e-05
0.000108094
0.000135117
0.000152537
0.000160953
0.000163522
0.000163491
0.000162522
0.000161998
0.000161289
0.00016044
0.000159208
0.000157907
0.000156995
0.000156549
0.00015562
0.0001544
0.000150028
0.000134699
0.00013231
0.000168175
4.53905e-05
2.34472e-05
3.21249e-05
4.48438e-05
6.08666e-05
8.44891e-05
0.000114329
0.000135248
0.000124105
0.000123807
0.000142098
0.000150862
0.000153311
0.000154182
0.000154948
0.000155291
0.000156112
0.000157107
0.000158529
0.000160108
0.000161533
0.000162656
0.000162431
0.000160976
0.00015579
0.000142548
0.000119738
8.83653e-05
4.80493e-05
1.18855e-05
4.87521e-07
3.44166e-08
4.15217e-06
2.79369e-05
6.61374e-05
9.88148e-05
0.000123627
0.000140329
0.000148905
0.000151814
0.000151841
0.000151042
0.000150378
0.00014975
0.000148785
0.000147675
0.000146425
0.00014555
0.000145056
0.000144192
0.000143011
0.000139
0.00012661
0.000124548
0.000158644
6.10586e-05
2.98509e-05
4.2371e-05
6.15325e-05
8.5636e-05
0.000125778
0.000170986
0.000184548
0.000147896
0.000120864
0.000131369
0.000139483
0.000142006
0.000142769
0.000143648
0.000144173
0.000144895
0.00014589
0.000147351
0.000148934
0.000150358
0.000151169
0.000151064
0.000149395
0.000143979
0.000131143
0.000109697
8.08032e-05
4.35379e-05
1.06437e-05
4.32921e-07
3.07982e-08
3.72227e-06
2.52841e-05
6.05845e-05
9.06937e-05
0.000113626
0.000129561
0.000137975
0.000141037
0.000141354
0.000140699
0.00013999
0.000139387
0.000138407
0.000137331
0.000135976
0.000134981
0.000134339
0.000133696
0.000132486
0.000128954
0.000118858
0.000115669
0.000159146
9.98515e-05
3.96637e-05
4.59854e-05
7.25735e-05
0.000109292
0.000158447
0.000206254
0.000230523
0.000172139
0.000117876
0.00012249
0.000129091
0.000131599
0.000132621
0.000133328
0.000133882
0.000134588
0.000135625
0.000137094
0.000138656
0.000140016
0.000140762
0.000140637
0.000138817
0.000133136
0.00012065
0.000100656
7.41613e-05
3.9614e-05
9.56112e-06
3.86062e-07
2.76663e-08
3.34938e-06
2.2952e-05
5.55781e-05
8.33967e-05
0.000104585
0.000119704
0.000128026
0.000131214
0.000131695
0.000131163
0.000130408
0.00012978
0.000128845
0.000127781
0.000126432
0.000125302
0.000124674
0.000124055
0.000122869
0.000119733
0.000111721
0.000105654
0.000132254
0.000139386
7.61537e-05
5.40221e-05
7.25545e-05
0.000110226
0.000164058
0.000231693
0.000268106
0.000187287
0.000118546
0.000114918
0.00012002
0.000122273
0.000123318
0.000123922
0.000124476
0.000125173
0.000126217
0.000127675
0.000129204
0.0001305
0.000131199
0.000130974
0.000129003
0.000123236
0.000111137
9.25378e-05
6.81843e-05
3.61448e-05
8.62044e-06
3.45845e-07
2.49512e-08
3.02561e-06
2.08997e-05
5.11021e-05
7.68154e-05
9.63571e-05
0.000110666
0.000118884
0.000122188
0.000122798
0.000122363
0.000121604
0.000120939
0.000120051
0.000119023
0.000117715
0.000116505
0.000115803
0.000115238
0.000114109
0.000111305
0.000105362
0.000100006
0.000122538
0.000157741
0.000128184
7.48805e-05
6.99807e-05
9.38395e-05
0.000148169
0.000220117
0.000278009
0.000225161
0.000120099
0.00010829
0.00011181
0.000113865
0.000114803
0.000115347
0.000115925
0.000116616
0.000117618
0.000119004
0.000120482
0.00012171
0.000122346
0.00012204
0.000119941
0.000114126
0.000102476
8.52613e-05
6.28349e-05
3.30491e-05
7.80043e-06
3.11229e-07
2.25976e-08
2.74379e-06
1.90849e-05
4.70834e-05
7.08876e-05
8.88864e-05
0.00010238
0.000110448
0.000113844
0.000114571
0.000114212
0.000113469
0.000112772
0.000111927
0.000110942
0.000109716
0.000108528
0.000107757
0.000107126
0.000106024
0.00010353
9.96699e-05
9.55452e-05
0.000116174
0.000162475
0.000158477
0.000109116
7.43185e-05
8.14266e-05
0.000122351
0.000193972
0.000276878
0.000230554
0.000121833
0.000102203
0.00010432
0.000106173
0.00010703
0.000107541
0.000108099
0.000108768
0.000109714
0.000111015
0.00011241
0.000113564
0.000114131
0.000113753
0.000111549
0.000105723
9.45782e-05
7.86973e-05
5.80376e-05
3.02986e-05
7.08348e-06
2.81342e-07
2.05583e-08
2.49855e-06
1.74821e-05
4.34836e-05
6.5548e-05
8.20957e-05
9.47669e-05
0.000102636
0.000106103
0.000106937
0.000106638
0.000105917
0.000105205
0.000104397
0.000103458
0.000102317
0.000101185
0.000100391
9.972e-05
9.85894e-05
9.64222e-05
9.44589e-05
9.27514e-05
0.000111083
0.000154942
0.000166033
0.000125708
8.94818e-05
6.95981e-05
9.34324e-05
0.000156353
0.000247968
0.000225888
0.000119817
9.64418e-05
9.7418e-05
9.90692e-05
9.98548e-05
0.000100341
0.000100874
0.000101522
0.000102417
0.000103624
0.00010492
0.000105996
0.000106493
0.000106052
0.000103763
9.79658e-05
8.7368e-05
7.2766e-05
5.37283e-05
2.78552e-05
6.4558e-06
2.55383e-07
1.87911e-08
2.28529e-06
1.60681e-05
4.02552e-05
6.07293e-05
7.59179e-05
8.77623e-05
9.53886e-05
9.89026e-05
9.98314e-05
9.95906e-05
9.88936e-05
9.81822e-05
9.74115e-05
9.65248e-05
9.54663e-05
9.43984e-05
9.36016e-05
9.29143e-05
9.18042e-05
8.99442e-05
8.97918e-05
8.99754e-05
0.000110311
0.000160536
0.000168098
0.000135447
9.70709e-05
6.77801e-05
7.33736e-05
0.00012952
0.000206505
0.000203757
0.000114339
9.08735e-05
9.1019e-05
9.24779e-05
9.32039e-05
9.36691e-05
9.41824e-05
9.48092e-05
9.56612e-05
9.67697e-05
9.79538e-05
9.89472e-05
9.93886e-05
9.88916e-05
9.6536e-05
9.08049e-05
8.07803e-05
6.73953e-05
4.98389e-05
2.56731e-05
5.90509e-06
2.32787e-07
1.72486e-08
2.09887e-06
1.48176e-05
3.73576e-05
5.63761e-05
7.02941e-05
8.13186e-05
8.86674e-05
9.2201e-05
9.3213e-05
9.30301e-05
9.23654e-05
9.16656e-05
9.09318e-05
9.0099e-05
8.91191e-05
8.81176e-05
8.73293e-05
8.66318e-05
8.55577e-05
8.40806e-05
8.5457e-05
8.79094e-05
0.000114374
0.000159431
0.000159118
0.000126339
9.58551e-05
7.1799e-05
6.65365e-05
0.00010172
0.00017016
0.000176361
0.000106605
8.54865e-05
8.50625e-05
8.63493e-05
8.70276e-05
8.7475e-05
8.79701e-05
8.85745e-05
8.93825e-05
9.04056e-05
9.14757e-05
9.23816e-05
9.27747e-05
9.22355e-05
8.98293e-05
8.41962e-05
7.47623e-05
6.25278e-05
4.63253e-05
2.37201e-05
5.41832e-06
2.12908e-07
1.59004e-08
1.93594e-06
1.37077e-05
3.47457e-05
5.24402e-05
6.51782e-05
7.53962e-05
8.24398e-05
8.59673e-05
8.70503e-05
8.69269e-05
8.63039e-05
8.56218e-05
8.49202e-05
8.41395e-05
8.32333e-05
8.22968e-05
8.15254e-05
8.08252e-05
7.97992e-05
7.87677e-05
8.1831e-05
8.8449e-05
0.000116259
0.000159319
0.000144236
0.000111631
8.6123e-05
6.97204e-05
6.39638e-05
8.80403e-05
0.000147932
0.000151511
9.78936e-05
8.0302e-05
7.95135e-05
8.06415e-05
8.12806e-05
8.17168e-05
8.21946e-05
8.27768e-05
8.35388e-05
8.44808e-05
8.54569e-05
8.62716e-05
8.66174e-05
8.60429e-05
8.36072e-05
7.81037e-05
6.92649e-05
5.81099e-05
4.31438e-05
2.19698e-05
4.98657e-06
1.95377e-07
1.47065e-08
1.79143e-06
1.27195e-05
3.23895e-05
4.8876e-05
6.05212e-05
6.99573e-05
7.66762e-05
8.01741e-05
8.13149e-05
8.12501e-05
8.06756e-05
8.0017e-05
7.93414e-05
7.86067e-05
7.77688e-05
7.68938e-05
7.61447e-05
7.54501e-05
7.44858e-05
7.39176e-05
7.87075e-05
9.64969e-05
0.000127216
0.000153809
0.000127456
9.59584e-05
7.60039e-05
6.48442e-05
6.26258e-05
8.48345e-05
0.000136475
0.000130789
8.86909e-05
7.53418e-05
7.43458e-05
7.53161e-05
7.59225e-05
7.63517e-05
7.68181e-05
7.73805e-05
7.80964e-05
7.89622e-05
7.98574e-05
8.05901e-05
8.08857e-05
8.02799e-05
7.78282e-05
7.24911e-05
6.42573e-05
5.41129e-05
4.02797e-05
2.042e-05
4.61628e-06
1.81021e-07
1.36501e-08
1.6635e-06
1.18282e-05
3.02566e-05
4.56352e-05
5.62749e-05
6.49586e-05
7.13419e-05
7.47902e-05
7.59753e-05
7.59642e-05
7.54419e-05
7.48126e-05
7.4161e-05
7.34664e-05
7.26903e-05
7.18738e-05
7.11527e-05
7.04732e-05
6.95882e-05
6.94314e-05
7.57972e-05
9.78721e-05
0.000136185
0.000141709
0.000110835
8.22995e-05
6.6931e-05
6.08658e-05
6.45624e-05
9.31376e-05
0.000129895
0.000116295
8.14189e-05
7.07241e-05
6.95335e-05
7.03496e-05
7.09255e-05
7.13495e-05
7.18075e-05
7.23536e-05
7.30258e-05
7.38216e-05
7.46457e-05
7.53151e-05
7.55549e-05
7.49111e-05
7.24608e-05
6.7324e-05
5.96936e-05
5.04916e-05
3.76918e-05
1.90406e-05
4.29199e-06
1.69008e-07
1.27048e-08
1.54914e-06
1.10257e-05
2.83102e-05
4.26785e-05
5.23953e-05
6.03613e-05
6.64022e-05
6.9785e-05
7.10017e-05
7.10375e-05
7.05669e-05
6.9974e-05
6.93513e-05
6.86943e-05
6.79735e-05
6.72129e-05
6.65258e-05
6.58699e-05
6.50757e-05
6.52939e-05
7.27586e-05
0.000100557
0.000133001
0.000126533
9.58721e-05
7.10638e-05
6.03167e-05
5.85015e-05
6.99148e-05
9.63413e-05
0.000128199
0.000103759
7.49122e-05
6.64627e-05
6.50605e-05
6.57208e-05
6.62679e-05
6.66851e-05
6.71354e-05
6.76662e-05
6.8301e-05
6.90365e-05
6.97979e-05
7.04117e-05
7.05969e-05
6.99123e-05
6.74816e-05
6.25679e-05
5.55283e-05
4.71982e-05
3.53387e-05
1.77942e-05
4.00135e-06
1.58206e-07
1.18576e-08
1.44634e-06
1.02972e-05
2.65262e-05
3.99712e-05
4.88438e-05
5.61302e-05
6.1826e-05
6.51285e-05
6.63652e-05
6.64394e-05
6.60178e-05
6.54685e-05
6.48844e-05
6.42666e-05
6.35948e-05
6.28858e-05
6.22345e-05
6.16071e-05
6.09116e-05
6.14843e-05
6.96526e-05
9.71347e-05
0.000123636
0.000112933
8.33658e-05
6.25838e-05
5.52633e-05
5.5276e-05
6.99739e-05
0.000103662
0.000125418
9.69299e-05
7.03462e-05
6.25503e-05
6.09039e-05
6.14071e-05
6.19257e-05
6.23336e-05
6.2777e-05
6.32951e-05
6.38972e-05
6.45833e-05
6.52902e-05
6.58533e-05
6.59922e-05
6.527e-05
6.28643e-05
5.81895e-05
5.17279e-05
4.42034e-05
3.31968e-05
1.66675e-05
3.74057e-06
1.48437e-07
1.1085e-08
1.35232e-06
9.63055e-06
2.48861e-05
3.74863e-05
4.55903e-05
5.22379e-05
5.75881e-05
6.07972e-05
6.20432e-05
6.21485e-05
6.17722e-05
6.12714e-05
6.07347e-05
6.01589e-05
5.9529e-05
5.88643e-05
5.82473e-05
5.76514e-05
5.70638e-05
5.79821e-05
6.66125e-05
9.20216e-05
0.000114007
0.000101296
7.41116e-05
5.58736e-05
5.13102e-05
5.63765e-05
7.47147e-05
0.000105484
0.000119328
9.44287e-05
6.66671e-05
5.89864e-05
5.70441e-05
5.73903e-05
5.78794e-05
5.82761e-05
5.87124e-05
5.9219e-05
5.97939e-05
6.04376e-05
6.10983e-05
6.16153e-05
6.17118e-05
6.09553e-05
5.85933e-05
5.41639e-05
4.82598e-05
4.14771e-05
3.12438e-05
1.56461e-05
3.5038e-06
1.39642e-07
1.03796e-08
1.26651e-06
9.01893e-06
2.33749e-05
3.52047e-05
4.2613e-05
4.86618e-05
5.36703e-05
5.67739e-05
5.80216e-05
5.81531e-05
5.78177e-05
5.73652e-05
5.68789e-05
5.63451e-05
5.57504e-05
5.51219e-05
5.45364e-05
5.39739e-05
5.34972e-05
5.47375e-05
6.35621e-05
8.69199e-05
0.000105836
9.26067e-05
6.66563e-05
5.0912e-05
4.7928e-05
5.4079e-05
7.24451e-05
9.97864e-05
0.000111306
8.77528e-05
6.54325e-05
5.56341e-05
5.34714e-05
5.36527e-05
5.41124e-05
5.44951e-05
5.49245e-05
5.54203e-05
5.59703e-05
5.65778e-05
5.71997e-05
5.76766e-05
5.77299e-05
5.69447e-05
5.4643e-05
5.04713e-05
4.50955e-05
3.89908e-05
2.94573e-05
1.47146e-05
3.2899e-06
1.31673e-07
9.72981e-09
1.18758e-06
8.45687e-06
2.19802e-05
3.31076e-05
3.98895e-05
4.53807e-05
5.0051e-05
5.3041e-05
5.42861e-05
5.44413e-05
5.41416e-05
5.37319e-05
5.32923e-05
5.27978e-05
5.22335e-05
5.1634e-05
5.1077e-05
5.05503e-05
5.01835e-05
5.17025e-05
6.06285e-05
8.27228e-05
9.93108e-05
8.61099e-05
6.19586e-05
4.71776e-05
4.50185e-05
5.09819e-05
6.81774e-05
9.26219e-05
0.000103042
8.44259e-05
6.32011e-05
5.25909e-05
5.01486e-05
5.02174e-05
5.06231e-05
5.09778e-05
5.13994e-05
5.18831e-05
5.24084e-05
5.29846e-05