/*--------------------------------*- C++ -*----------------------------------*\
  =========                 |
  \\      /  F ield         | OpenFOAM: The Open Source CFD Toolbox
   \\    /   O peration     | Website:  https://openfoam.org
    \\  /    A nd           | Version:  7
     \\/     M anipulation  |
\*---------------------------------------------------------------------------*/
FoamFile
{
    version     2.0;
    format      ascii;
    class       volScalarField;
    location    "100";
    object      nut;
}
// * * * * * * * * * * * * * * * * * * * * * * * * * * * * * * * * * * * * * //

dimensions      [0 2 -1 0 0 0 0];

internalField   nonuniform List<scalar> 
17475
(
3.12041e-05
0.00018885
0.000188081
0.000188027
0.000188026
0.000188025
0.000188025
0.000188025
0.000188025
0.000188025
0.000188025
0.000188026
0.000188025
0.000188026
0.000188026
0.000188026
0.000188026
0.000188026
0.000188026
0.000188026
0.000188026
0.000188026
0.000188026
0.000188026
0.000188025
0.000188028
0.000188028
0.000188028
0.000188029
0.000188029
0.000188029
0.000188029
0.000188029
0.000188029
0.000188029
0.000188029
0.000188029
0.000188028
0.000188029
0.00018803
0.000188031
0.000188033
0.000188034
0.000188036
0.000188037
0.000188038
0.000188039
0.00018804
0.000188041
0.000188042
0.000188043
0.000188044
0.000188054
0.000188286
0.000150676
9.21819e-07
0.000115392
0.000172089
0.000176588
0.00017675
0.000176755
0.000176752
0.00017675
0.000176749
0.000176747
0.000176746
0.000176746
0.000176746
0.000176745
0.000176745
0.000176746
0.000176746
0.000176746
0.000176746
0.000176746
0.000176747
0.000176748
0.000176752
0.000176746
0.000176757
0.000176761
0.000176767
0.000176768
0.000176769
0.000176769
0.00017677
0.00017677
0.000176771
0.000176771
0.000176772
0.000176772
0.000176772
0.000176771
0.000176769
0.000176768
0.000176768
0.000176767
0.000176767
0.000176767
0.000176768
0.000176769
0.000176769
0.000176771
0.000176773
0.000176775
0.000176773
0.00017671
0.00017537
0.000153947
1.68098e-05
1.20139e-07
5.92142e-05
0.000151134
0.000168227
0.000169906
0.000170014
0.000170018
0.000170013
0.000170007
0.000169999
0.000169995
0.000169993
0.000169991
0.000169988
0.000169987
0.000169986
0.000169984
0.000169984
0.000169983
0.000169981
0.00016998
0.000169984
0.000169985
0.000169991
0.000169994
0.000169996
0.000170003
0.000170007
0.000170008
0.000170008
0.000170007
0.000170008
0.000170009
0.000170011
0.000170011
0.000170011
0.000170012
0.000170009
0.000170006
0.000170004
0.000170003
0.000169998
0.000169994
0.000169994
0.000169996
0.000169997
0.000169998
0.000170001
0.000170006
0.000170011
0.000169971
0.000169336
0.00016116
0.000102842
3.04032e-06
3.86035e-08
3.04382e-05
0.000127808
0.000159084
0.000164761
0.000165338
0.000165397
0.000165396
0.000165381
0.000165367
0.000165361
0.000165355
0.000165349
0.000165342
0.00016534
0.000165337
0.000165333
0.00016533
0.000165329
0.000165324
0.000165324
0.000165326
0.000165334
0.000165339
0.000165343
0.000165347
0.000165351
0.000165358
0.000165361
0.000165358
0.000165357
0.000165359
0.000165364
0.00016537
0.000165371
0.000165371
0.000165374
0.000165369
0.000165366
0.000165366
0.000165367
0.000165358
0.000165353
0.000165358
0.000165366
0.000165371
0.000165374
0.000165379
0.000165384
0.000165372
0.000165145
0.0001625
0.000144058
6.41273e-05
1.07793e-06
1.75386e-08
1.70444e-05
0.000104873
0.000148953
0.000159886
0.000161687
0.000161912
0.000161933
0.000161915
0.000161899
0.000161894
0.000161887
0.000161878
0.000161863
0.000161861
0.000161857
0.000161851
0.000161843
0.000161841
0.000161838
0.000161834
0.00016184
0.000161845
0.000161845
0.000161862
0.00016187
0.000161869
0.000161872
0.00016187
0.000161864
0.000161867
0.000161874
0.00016189
0.000161899
0.000161902
0.000161908
0.00016191
0.000161901
0.000161902
0.000161905
0.000161907
0.000161901
0.000161902
0.000161911
0.000161925
0.000161939
0.000161943
0.000161949
0.000161941
0.000161857
0.000161058
0.00015484
0.000126118
4.19288e-05
5.4957e-07
9.60431e-09
1.0499e-05
8.49388e-05
0.000138648
0.000154696
0.000158518
0.000159108
0.000159195
0.000159175
0.000159152
0.000159158
0.000159157
0.000159149
0.000159129
0.000159124
0.000159116
0.000159115
0.000159092
0.00015909
0.000159092
0.00015909
0.000159087
0.000159078
0.000159077
0.000159113
0.000159123
0.000159105
0.000159082
0.000159066
0.00015907
0.000159092
0.000159113
0.000159139
0.000159148
0.000159154
0.000159182
0.000159179
0.000159163
0.00015917
0.000159178
0.000159178
0.000159179
0.000159182
0.00015919
0.00015921
0.000159243
0.000159245
0.000159244
0.000159204
0.000158935
0.000157002
0.000146689
0.00010907
2.91051e-05
3.32639e-07
5.95468e-09
7.02566e-06
6.88547e-05
0.000128389
0.000149255
0.000155539
0.000156808
0.000157036
0.000156995
0.000156938
0.000156969
0.000156985
0.000156967
0.000156953
0.000156957
0.000156929
0.000156946
0.000156922
0.000156892
0.000156863
0.00015686
0.000156866
0.000156826
0.00015684
0.000156869
0.000156866
0.000156823
0.000156759
0.00015674
0.000156787
0.000156836
0.000156878
0.00015691
0.000156918
0.000156915
0.000156989
0.000157009
0.00015697
0.00015697
0.000156977
0.00015698
0.000156966
0.000156942
0.000156948
0.000156972
0.000157072
0.000157084
0.00015703
0.000156923
0.000156306
0.000152705
0.000138563
9.40411e-05
2.12998e-05
2.22649e-07
4.0384e-09
5.02731e-06
5.63237e-05
0.000118518
0.000144115
0.000152909
0.000155189
0.000155667
0.00015562
0.000155578
0.000155644
0.000155677
0.000155577
0.000155506
0.000155553
0.000155496
0.000155525
0.000155468
0.000155356
0.000155228
0.000155201
0.000155252
0.000155165
0.000155147
0.000155109
0.000155095
0.000155007
0.000154892
0.000154907
0.000155065
0.000155121
0.000155132
0.000155177
0.000155212
0.000155208
0.000155322
0.00015536
0.000155301
0.000155301
0.000155305
0.000155318
0.000155278
0.000155235
0.000155218
0.000155265
0.000155468
0.000155485
0.00015535
0.00015512
0.000153929
0.000148445
0.000130807
8.13656e-05
1.61969e-05
1.57088e-07
2.92326e-09
3.77764e-06
4.66497e-05
0.000109305
0.000139714
0.000151034
0.00015469
0.000155508
0.00015552
0.000155478
0.00015561
0.000155764
0.000155552
0.000155363
0.000155533
0.000155399
0.000155299
0.000155035
0.00015471
0.000154429
0.000154347
0.000154457
0.000154367
0.000154253
0.000154207
0.000154141
0.000153829
0.000153581
0.000153646
0.000154083
0.000154244
0.000154108
0.000154172
0.000154302
0.000154364
0.000154502
0.000154481
0.000154378
0.00015436
0.000154415
0.000154425
0.00015422
0.000154138
0.000154139
0.000154344
0.000154621
0.000154572
0.000154358
0.000153909
0.000151882
0.000144654
0.000123621
7.07662e-05
1.277e-05
1.18359e-07
2.22067e-09
2.94829e-06
3.91708e-05
0.000100886
0.000136038
0.000149739
0.000155304
0.00015678
0.000156426
0.000156154
0.000156623
0.000156961
0.00015672
0.000156316
0.000156526
0.000156248
0.000155872
0.000155744
0.000155095
0.000154536
0.000154392
0.000154415
0.000154242
0.000154238
0.000154353
0.000154085
0.000153545
0.000153197
0.000153305
0.000153919
0.000154186
0.00015407
0.000154098
0.000154235
0.000154241
0.000154484
0.0001546
0.000154387
0.000154069
0.000154196
0.000154546
0.000154101
0.000153732
0.000153647
0.000154027
0.000154828
0.000154953
0.000154123
0.000153211
0.000150465
0.000141673
0.000117321
6.23323e-05
1.04028e-05
9.34509e-08
1.7492e-09
2.37014e-06
3.33658e-05
9.32829e-05
0.000132768
0.000148508
0.000155762
0.000157938
0.000157643
0.000157215
0.000157685
0.000158423
0.000158578
0.000157974
0.000158024
0.000158038
0.0001576
0.000157402
0.000156444
0.000155608
0.000155278
0.00015525
0.00015512
0.000154809
0.000155046
0.000155302
0.000154558
0.000154105
0.000154167
0.000154632
0.000155
0.000154848
0.000154813
0.000155091
0.000154918
0.000155215
0.000154951
0.000154873
0.00015447
0.00015463
0.000154785
0.000154448
0.000154133
0.000154172
0.000155152
0.000156057
0.000156117
0.000155019
0.000153375
0.000149387
0.000139602
0.000111902
5.54453e-05
8.68242e-06
7.63446e-08
1.41884e-09
1.95248e-06
2.88176e-05
8.62872e-05
0.000129494
0.000147758
0.000156121
0.000158517
0.000158401
0.00015803
0.000159097
0.000160383
0.00016207
0.000159571
0.000159539
0.000160373
0.000158073
0.000158855
0.000157549
0.000156797
0.000156936
0.000156349
0.000156399
0.000157443
0.000157773
0.000157176
0.00015537
0.000156751
0.000157099
0.000155272
0.000155063
0.000156081
0.00015513
0.000156602
0.000156737
0.000156808
0.000157077
0.00015699
0.00015568
0.00015552
0.000155752
0.000155706
0.000154893
0.000154872
0.000156304
0.000156851
0.000158215
0.000155742
0.000154092
0.000148801
0.000137017
0.000106685
4.97112e-05
7.39652e-06
6.41547e-08
1.1797e-09
1.64491e-06
2.51932e-05
7.98373e-05
0.000125238
0.000148523
0.000156639
0.00016083
0.000160071
0.000156556
0.000158224
0.000163969
0.000163756
0.000162858
0.000162608
0.000161412
0.000160145
0.000160005
0.000159523
0.000158774
0.0001586
0.00015804
0.00015688
0.000157382
0.000159597
0.000158605
0.000157625
0.000157932
0.000158438
0.000157851
0.000157231
0.000158455
0.000159406
0.000159243
0.000159013
0.000159142
0.000159851
0.000159281
0.000158149
0.000157031
0.000156928
0.000157236
0.000157644
0.000157506
0.000158093
0.000160792
0.000161454
0.000159186
0.000156135
0.000151275
0.000137293
0.000101113
4.46939e-05
6.40466e-06
5.52034e-08
9.9966e-10
1.40783e-06
2.22495e-05
7.37089e-05
0.000121776
0.000142897
0.000150862
0.000155208
0.000154738
0.000156192
0.000157819
0.000159019
0.000158795
0.000158457
0.000157856
0.000156142
0.000154977
0.000153203
0.00015182
0.000150629
0.00014989
0.000149261
0.000149177
0.000149674
0.000151049
0.000151298
0.000150598
0.000149678
0.000149696
0.000149853
0.000150264
0.000150761
0.000151454
0.000151267
0.000151392
0.000151538
0.000151895
0.000152017
0.000152696
0.000152757
0.000152755
0.0001534
0.000154002
0.000153649
0.000154004
0.000156275
0.000155341
0.000153959
0.000151035
0.000144845
0.000130742
9.53443e-05
4.02528e-05
5.58426e-06
4.75353e-08
8.60446e-10
1.22095e-06
1.98361e-05
6.81345e-05
0.000111526
0.000133127
0.000142509
0.000145937
0.000146579
0.000146855
0.000148088
0.000148812
0.000148627
0.000148109
0.000147218
0.000146162
0.00014472
0.000142809
0.000141173
0.000139835
0.000138688
0.000137871
0.000137593
0.000137875
0.000138695
0.000139677
0.000139503
0.000139236
0.000139229
0.000139014
0.000138924
0.00013881
0.000138738
0.000139719
0.000140258
0.000140786
0.000141107
0.000141827
0.000143235
0.000143641
0.000143984
0.000144709
0.000145159
0.000145362
0.000145517
0.000146112
0.000145874
0.000144777
0.000142002
0.000135156
0.000120761
8.72351e-05
3.62812e-05
4.92262e-06
4.13005e-08
7.50334e-10
1.07328e-06
1.77449e-05
6.18799e-05
0.000103212
0.000124533
0.000133461
0.000137126
0.000137842
0.000138247
0.000139006
0.00013932
0.000139017
0.000138414
0.000137445
0.000136515
0.000135136
0.000132863
0.000130923
0.000129324
0.000127607
0.000126464
0.000125496
0.00012475
0.000125858
0.000128253
0.000110224
0.000104144
0.000106264
0.000118737
0.00012783
0.000126123
0.000126465
0.00012704
0.000128328
0.000130005
0.000130859
0.000131978
0.000133712
0.00013431
0.000134558
0.000135245
0.000135814
0.000135972
0.000136213
0.000136808
0.00013673
0.000135697
0.000132725
0.000126055
0.000111804
7.96113e-05
3.31166e-05
4.3647e-06
3.61852e-08
6.50147e-10
9.45297e-07
1.5988e-05
5.62291e-05
9.55562e-05
0.000116082
0.000124952
0.000128697
0.000129497
0.000129778
0.000130168
0.000130136
0.000129672
0.000128973
0.00012798
0.00012717
0.000125772
0.000123101
0.000121099
0.000118654
0.000115642
0.00011421
0.000112015
0.000112411
9.61341e-05
6.89469e-05
4.56669e-05
2.40243e-05
2.42184e-05
5.85608e-05
8.33327e-05
0.000118451
0.000113072
0.000113651
0.000115985
0.000118297
0.000120067
0.000122217
0.000124505
0.000125409
0.000125698
0.00012642
0.000126915
0.000127148
0.000127468
0.000127964
0.000127964
0.000127088
0.000124181
0.000117508
0.00010349
7.2934e-05
3.00169e-05
3.90118e-06
3.19988e-08
4.68824e-10
7.98343e-07
1.40543e-05
5.08891e-05
8.77581e-05
0.000107834
0.000116728
0.000120572
0.000121412
0.000121468
0.000121486
0.000121198
0.000120595
0.000119817
0.00011892
0.00011811
0.000116212
0.000113415
0.000110792
0.000107823
0.000104736
0.000102519
0.000102723
9.38618e-05
3.26664e-05
1.6958e-06
1.46437e-09
1.41036e-08
1.26112e-05
4.16346e-05
0.000103187
0.000102403
0.000104202
0.000106976
0.000110005
0.000112548
0.000114966
0.000116554
0.000116941
0.000117748
0.000118289
0.000118637
0.000118967
0.000119415
0.000119517
0.000118796
0.000116033
0.000109468
9.56229e-05
6.68954e-05
2.72333e-05
3.49154e-06
2.83823e-08
1.1338e-10
4.73454e-07
1.14661e-05
4.47975e-05
7.91078e-05
9.84938e-05
0.000107407
0.000111224
0.000112006
0.000111712
0.000111309
0.000110844
0.000110117
0.000109285
0.000108369
0.000107412
0.000105165
0.000102256
9.92455e-05
9.60277e-05
9.32649e-05
9.28252e-05
8.14354e-05
2.41125e-05
1.3895e-06
2.1223e-10
5.65079e-06
5.9502e-05
8.8666e-05
9.23515e-05
9.54363e-05
9.88413e-05
0.000102028
0.000104703
0.00010627
0.000106871
0.000107815
0.000108492
0.000108927
0.000109203
0.000109607
0.000109863
0.000109366
0.000106851
0.00010056
8.71779e-05
6.10856e-05
2.49818e-05
3.10533e-06
2.35423e-08
1.51893e-10
5.59002e-07
1.0656e-05
3.97778e-05
6.87487e-05
8.49249e-05
9.3118e-05
9.62329e-05
9.65495e-05
9.61374e-05
9.53183e-05
9.46855e-05
9.43316e-05
9.30651e-05
9.19089e-05
9.0267e-05
8.87128e-05
8.68873e-05
8.38674e-05
8.04309e-05
7.85617e-05
7.45989e-05
4.97011e-05
7.03633e-06
1.24874e-07
1.12406e-06
2.49265e-05
6.86162e-05
7.75728e-05
7.95016e-05
8.22018e-05
8.57892e-05
8.77241e-05
8.88017e-05
8.97693e-05
9.09542e-05
9.19302e-05
9.26315e-05
9.33501e-05
9.40614e-05
9.48124e-05
9.46436e-05
9.28063e-05
8.73441e-05
7.54635e-05
5.30276e-05
2.22548e-05
2.99595e-06
2.61274e-08
3.28002e-10
5.6436e-07
1.03674e-05
3.69328e-05
6.23987e-05
7.73702e-05
8.4865e-05
8.80219e-05
8.82751e-05
8.75983e-05
8.72662e-05
8.6602e-05
8.57846e-05
8.47963e-05
8.34e-05
8.15996e-05
8.05767e-05
7.89667e-05
7.5659e-05
7.2878e-05
7.07889e-05
6.2548e-05
3.13949e-05
4.22157e-06
1.74009e-07
4.69249e-10
4.66685e-09
8.65712e-07
1.40921e-05
5.00237e-05
6.89505e-05
7.20559e-05
7.42317e-05
7.73972e-05
7.87395e-05
8.03681e-05
8.09566e-05
8.18791e-05
8.32918e-05
8.44634e-05
8.53441e-05
8.62078e-05
8.67194e-05
8.65278e-05
8.47966e-05
7.95871e-05
6.85046e-05
4.79718e-05
2.01306e-05
2.67449e-06
2.16674e-08
3.61213e-10
5.31465e-07
9.52751e-06
3.3709e-05
5.66878e-05
7.05908e-05
7.78127e-05
8.0813e-05
8.11623e-05
8.07597e-05
8.03997e-05
7.95486e-05
7.8653e-05
7.77475e-05
7.64986e-05
7.49713e-05
7.36782e-05
7.23583e-05
6.94951e-05
6.66169e-05
6.42703e-05
5.40157e-05
2.36981e-05
3.83085e-06
5.51997e-07
7.70016e-08
2.33759e-08
2.39535e-08
1.76842e-08
3.43565e-08
1.72535e-07
1.14248e-06
1.02348e-05
4.00195e-05
6.13096e-05
6.60887e-05
6.84431e-05
7.1257e-05
7.26213e-05
7.34576e-05
7.39013e-05
7.50676e-05
7.64913e-05
7.76244e-05
7.86271e-05
7.96364e-05
8.01513e-05
7.97813e-05
7.80149e-05
7.29327e-05
6.23315e-05
4.33305e-05
1.82605e-05
2.37783e-06
1.9018e-08
3.32641e-10
4.84836e-07
8.61603e-06
3.05873e-05
5.15429e-05
6.46808e-05
7.18249e-05
7.47521e-05
7.52271e-05
7.47855e-05
7.42558e-05
7.37674e-05
7.28785e-05
7.17954e-05
7.04763e-05
6.88895e-05
6.7813e-05
6.66425e-05
6.43137e-05
6.16557e-05
5.86997e-05
4.66867e-05
1.98884e-05
4.37288e-06
1.33707e-06
8.91391e-07
1.1699e-06
1.42817e-06
1.20202e-06
7.35371e-07
4.90267e-07
1.53294e-06
9.23343e-06
3.37742e-05
5.52736e-05
6.10271e-05
6.32669e-05
6.56061e-05
6.70571e-05
6.78914e-05
6.84141e-05
6.9277e-05
7.05006e-05
7.18274e-05
7.29264e-05
7.39325e-05
7.43715e-05
7.38817e-05
7.20815e-05
6.70596e-05
5.68755e-05
3.93945e-05
1.65543e-05
2.12125e-06
1.68855e-08
2.99362e-10
4.36953e-07
7.78649e-06
2.77175e-05
4.6906e-05
5.92407e-05
6.6124e-05
6.9055e-05
6.96436e-05
6.92317e-05
6.87612e-05
6.83875e-05
6.7553e-05
6.64239e-05
6.51319e-05
6.36487e-05
6.26158e-05
6.15607e-05
5.96746e-05
5.74541e-05
5.406e-05
4.10728e-05
1.84594e-05
5.39532e-06
2.58763e-06
2.93117e-06
3.31877e-06
2.84901e-06
2.05956e-06
1.31832e-06
9.80912e-07
2.35709e-06
9.83118e-06
3.08185e-05
5.06238e-05
5.67492e-05
5.88737e-05
6.0712e-05
6.20546e-05
6.28129e-05
6.33133e-05
6.40751e-05
6.5261e-05
6.65655e-05
6.77406e-05
6.87336e-05
6.90434e-05
6.83965e-05
6.65071e-05
6.1669e-05
5.19911e-05
3.5836e-05
1.50014e-05
1.90061e-06
1.50712e-08
2.68344e-10
3.92231e-07
7.0272e-06
2.51066e-05
4.26245e-05
5.40983e-05
6.0522e-05
6.33765e-05
6.42843e-05
6.40199e-05
6.36063e-05
6.32871e-05
6.24757e-05
6.13851e-05
6.01938e-05
5.88207e-05
5.78911e-05
5.70007e-05
5.54383e-05
5.35644e-05
5.02928e-05
3.93241e-05
1.83886e-05
6.86483e-06
4.55056e-06
5.19184e-06
4.20426e-06
2.9551e-06
2.2521e-06
1.69981e-06
1.89222e-06
3.85734e-06
1.13137e-05
3.01299e-05
4.71289e-05
5.27393e-05
5.46842e-05
5.62686e-05
5.73912e-05
5.81539e-05
5.85872e-05
5.92005e-05
6.04563e-05
6.17099e-05
6.29128e-05
6.38057e-05
6.39769e-05
6.32504e-05
6.13345e-05
5.6654e-05
4.74767e-05
3.25891e-05
1.35681e-05
1.70004e-06
1.34313e-08
2.39986e-10
3.513e-07
6.32493e-06
2.26411e-05
3.85745e-05
4.91339e-05
5.48926e-05
5.8032e-05
5.9006e-05
5.87431e-05
5.80787e-05
5.79265e-05
5.72978e-05
5.64014e-05
5.52008e-05
5.34106e-05
5.29826e-05
5.26264e-05
5.12808e-05
4.96978e-05
4.66831e-05
3.65535e-05
1.9426e-05
9.71082e-06
7.67745e-06
6.62014e-06
3.92374e-06
3.08232e-06
2.83024e-06
2.51388e-06
3.44678e-06
5.74447e-06
1.39405e-05
3.00845e-05
4.40143e-05
4.87703e-05
5.06728e-05
5.20447e-05
5.2773e-05
5.36445e-05
5.40442e-05
5.44477e-05
5.56259e-05
5.65228e-05
5.80168e-05
5.8953e-05
5.90623e-05
5.81934e-05
5.62275e-05
5.17966e-05
4.31587e-05
2.95621e-05
1.22587e-05
1.51929e-06
1.18287e-08
2.14309e-10
3.14255e-07
5.68099e-06
2.03512e-05
3.47133e-05
4.44059e-05
4.96678e-05
5.28544e-05
5.37803e-05
5.35743e-05
5.25843e-05
5.25853e-05
5.17919e-05
5.11942e-05
5.05498e-05
4.84465e-05
4.83761e-05
4.83128e-05
4.72381e-05
4.56696e-05
4.30551e-05
3.38253e-05
2.15767e-05
1.53565e-05
1.12915e-05
6.2627e-06
3.31098e-06
3.49347e-06
3.87697e-06
4.12707e-06
5.17113e-06
8.07556e-06
1.66297e-05
3.06178e-05
4.07782e-05
4.48906e-05
4.632e-05
4.74585e-05
4.82137e-05
4.91782e-05
4.94137e-05
4.9899e-05
5.0855e-05
5.14595e-05
5.33044e-05
5.39539e-05
5.40096e-05
5.29385e-05
5.09618e-05
4.70315e-05
3.90236e-05
2.67058e-05
1.10322e-05
1.34928e-06
1.03221e-08
1.91157e-10
2.80974e-07
5.09027e-06
1.82903e-05
3.10295e-05
3.78846e-05
4.39934e-05
4.80035e-05
4.89651e-05
4.85768e-05
4.68529e-05
4.79603e-05
4.78209e-05
4.7327e-05
4.64828e-05
4.54309e-05
4.34469e-05
4.44919e-05
4.37738e-05
4.22283e-05
3.87213e-05
3.21255e-05
2.54413e-05
2.35396e-05
1.13202e-05
3.5537e-06
3.00954e-06
5.03277e-06
5.85968e-06
6.2143e-06
7.89713e-06
1.14159e-05
1.90457e-05
2.93734e-05
3.68468e-05
4.00156e-05
4.25732e-05
4.34976e-05
4.2437e-05
4.26407e-05
4.53607e-05
4.63525e-05
4.72117e-05
4.78288e-05
4.897e-05
4.79169e-05
4.91219e-05
4.80753e-05
4.62614e-05
4.21025e-05
3.50717e-05
2.406e-05
9.85112e-06
1.19901e-06
9.03214e-09
1.70439e-10
2.51141e-07
4.58771e-06
1.62454e-05
2.75693e-05
3.56986e-05
4.08735e-05
4.37868e-05
4.60404e-05
4.42126e-05
4.43021e-05
4.34945e-05
4.32254e-05
4.4569e-05
4.26383e-05
4.31886e-05
4.24371e-05
4.16322e-05
4.0938e-05
3.90642e-05
3.72554e-05
3.12334e-05
2.77744e-05
3.19725e-05
8.94919e-06
3.20921e-06
4.3276e-06
7.65163e-06
9.0011e-06
9.62443e-06
1.28225e-05
1.71604e-05
2.19235e-05
2.84725e-05
3.38236e-05
3.78187e-05
3.90614e-05
4.07025e-05
4.08364e-05
4.07649e-05
4.14457e-05
4.32172e-05
4.43678e-05
4.40826e-05
4.49004e-05
4.62756e-05
4.42799e-05
4.37136e-05
4.25032e-05
3.83455e-05
3.14718e-05
2.14162e-05
8.93189e-06
1.06711e-06
7.92733e-09
1.5203e-10
2.24693e-07
4.15086e-06
1.49859e-05
2.5453e-05
3.28476e-05
3.83359e-05
4.20226e-05
4.2253e-05
4.28351e-05
4.17232e-05
4.17031e-05
4.13691e-05
4.0927e-05
4.10285e-05
4.07012e-05
4.02092e-05
3.96346e-05
3.88706e-05
3.84066e-05
3.62923e-05
3.11609e-05
2.93033e-05
3.51148e-05
8.80054e-06
4.33017e-06
6.42628e-06
1.17843e-05
1.38621e-05
1.58504e-05
2.17107e-05
2.77394e-05
2.68621e-05
2.73257e-05
3.29746e-05
3.56165e-05
3.80571e-05
3.83913e-05
3.93956e-05
3.97185e-05
4.02609e-05
4.07273e-05
4.18755e-05
4.3408e-05
4.38615e-05
4.37541e-05
4.23556e-05
4.18658e-05
4.11239e-05
3.59854e-05
2.99912e-05
1.99348e-05
8.06736e-06
9.53192e-07
6.98496e-09
1.35809e-10
2.01374e-07
3.77229e-06
1.41546e-05
2.44633e-05
3.20094e-05
3.72263e-05
3.99959e-05
4.142e-05
4.15256e-05
4.1493e-05
4.0961e-05
4.07611e-05
4.01507e-05
3.95852e-05
3.81535e-05
3.76646e-05
3.6951e-05
3.66019e-05
3.61342e-05
3.47414e-05
3.15646e-05
3.04645e-05
3.64792e-05
1.29765e-05
5.92699e-06
8.87825e-06
1.65025e-05
1.98052e-05
2.52152e-05
3.54658e-05
4.12723e-05
3.44538e-05
2.85722e-05
3.13214e-05
3.45266e-05
3.59922e-05
3.60142e-05
3.74006e-05
3.79075e-05
3.82976e-05
3.88414e-05
3.97193e-05
4.06872e-05
4.16066e-05
4.15316e-05
4.19347e-05
4.09736e-05
3.8695e-05
3.48379e-05
2.80968e-05
1.88868e-05
7.37483e-06
8.54175e-07
6.17792e-09
1.21556e-10
1.80899e-07
3.42482e-06
1.31715e-05
2.34088e-05
3.05e-05
3.55258e-05
3.7998e-05
3.90528e-05
3.95998e-05
3.94499e-05
3.90036e-05
3.87458e-05
3.82895e-05
3.76442e-05
3.62795e-05
3.54209e-05
3.51005e-05
3.47866e-05
3.42276e-05
3.32385e-05
3.03147e-05
2.92374e-05
3.92095e-05
2.271e-05
8.43594e-06
1.02527e-05
2.0189e-05
2.6319e-05
3.41113e-05
4.62559e-05
5.4801e-05
4.3386e-05
2.95063e-05
3.17551e-05
3.27312e-05
3.41193e-05
3.51079e-05
3.52506e-05
3.56456e-05
3.61309e-05
3.67073e-05
3.74362e-05
3.8293e-05
3.90225e-05
3.93416e-05
3.94297e-05
3.85815e-05
3.63347e-05
3.2395e-05
2.61879e-05
1.75829e-05
6.77644e-06
7.68273e-07
5.49108e-09
1.09226e-10
1.63172e-07
3.1221e-06
1.21215e-05
2.17304e-05
2.85268e-05
3.32292e-05
3.59058e-05
3.69897e-05
3.72889e-05
3.71277e-05
3.66565e-05
3.6304e-05
3.59086e-05
3.54176e-05
3.45039e-05
3.35609e-05
3.33813e-05
3.30513e-05
3.26702e-05
3.15815e-05
2.91503e-05
2.73688e-05
3.2795e-05
3.33995e-05
1.73006e-05
1.28568e-05
2.1125e-05
2.78973e-05
3.77261e-05
5.53381e-05
6.81513e-05
4.8497e-05
3.15127e-05
3.06892e-05
3.21439e-05
3.25201e-05
3.32169e-05
3.34597e-05
3.37756e-05
3.42005e-05
3.46888e-05
3.53378e-05
3.60929e-05
3.67308e-05
3.70683e-05
3.69213e-05
3.60791e-05
3.41048e-05
3.02338e-05
2.44402e-05
1.63e-05
6.20755e-06
6.93842e-07
4.90495e-09
9.85344e-11
1.47786e-07
2.85574e-06
1.12077e-05
2.01249e-05
2.65031e-05
3.1034e-05
3.37683e-05
3.48848e-05
3.51417e-05
3.49747e-05
3.45676e-05
3.4194e-05
3.3826e-05
3.34215e-05
3.27897e-05
3.21127e-05
3.17776e-05
3.14304e-05
3.09078e-05
2.99188e-05
2.80793e-05
2.63214e-05
3.15974e-05
4.00844e-05
3.07308e-05
1.897e-05
2.13573e-05
2.49519e-05
3.60008e-05
5.47998e-05
7.22829e-05
5.98785e-05
3.23654e-05
2.94116e-05
3.06014e-05
3.12606e-05
3.1665e-05
3.19005e-05
3.21727e-05
3.24712e-05
3.28118e-05
3.33416e-05
3.39916e-05
3.45357e-05
3.48109e-05
3.46502e-05
3.3832e-05
3.18842e-05
2.81607e-05
2.28047e-05
1.51447e-05
5.6975e-06
6.29218e-07
4.40347e-09
8.92645e-11
1.34377e-07
2.62019e-06
1.03823e-05
1.87078e-05
2.46524e-05
2.89564e-05
3.16369e-05
3.27808e-05
3.30573e-05
3.28909e-05
3.25114e-05
3.21511e-05
3.18148e-05
3.14609e-05
3.10027e-05
3.05242e-05
3.01609e-05
2.97564e-05
2.90973e-05
2.81844e-05
2.70292e-05
2.57897e-05
3.13993e-05
4.21621e-05
4.01319e-05
2.92478e-05
2.33807e-05
2.2783e-05
3.12469e-05
5.05466e-05
7.41775e-05
6.29147e-05
3.36733e-05
2.84348e-05
2.90994e-05
2.96775e-05
3.00103e-05
3.02245e-05
3.04544e-05
3.07048e-05
3.09973e-05
3.14307e-05
3.19554e-05
3.24128e-05
3.26433e-05
3.24833e-05
3.16853e-05
2.97571e-05
2.62145e-05
2.12405e-05
1.40918e-05
5.24756e-06
5.72842e-07
3.97253e-09
8.12355e-11
1.22696e-07
2.41186e-06
9.63882e-06
1.74074e-05
2.2924e-05
2.69713e-05
2.95624e-05
3.07262e-05
3.10298e-05
3.08688e-05
3.05022e-05
3.01773e-05
2.98943e-05
2.95917e-05
2.92195e-05
2.88117e-05
2.84836e-05
2.81467e-05
2.76071e-05
2.68421e-05
2.61268e-05
2.55169e-05
3.07617e-05
4.2324e-05
4.35587e-05
3.52224e-05
2.89048e-05
2.05189e-05
2.48741e-05
4.18417e-05
6.79503e-05
6.28886e-05
3.36536e-05
2.72089e-05
2.75378e-05
2.80445e-05
2.83284e-05
2.8519e-05
2.87414e-05
2.89766e-05
2.92412e-05
2.95966e-05
2.99964e-05
3.03702e-05
3.05711e-05
3.04284e-05
2.96508e-05
2.77475e-05
2.43844e-05
1.97867e-05
1.31251e-05
4.84739e-06
5.23579e-07
3.5995e-09
7.42814e-11
1.1254e-07
2.22838e-06
8.97123e-06
1.62225e-05
2.13266e-05
2.51084e-05
2.7593e-05
2.87589e-05
2.90868e-05
2.89444e-05
2.86033e-05
2.83194e-05
2.80826e-05
2.78294e-05
2.75183e-05
2.71581e-05
2.68448e-05
2.65371e-05
2.60911e-05
2.54604e-05
2.53092e-05
2.53165e-05
3.1108e-05
4.46164e-05
4.60985e-05
3.94866e-05
3.18525e-05
2.04894e-05
2.04638e-05
3.61588e-05
5.78361e-05
5.76267e-05
3.25226e-05
2.59168e-05
2.59893e-05
2.64555e-05
2.67021e-05
2.68707e-05
2.70741e-05
2.72906e-05
2.75335e-05
2.78251e-05
2.81376e-05
2.84385e-05
2.86196e-05
2.85002e-05
2.77411e-05
2.58635e-05
2.26753e-05
1.84376e-05
1.22395e-05
4.48986e-06
4.80403e-07
3.27626e-09
6.82097e-11
1.03641e-07
2.06627e-06
8.3735e-06
1.51487e-05
1.98639e-05
2.33846e-05
2.57585e-05
2.69128e-05
2.72595e-05
2.71523e-05
2.68533e-05
2.65975e-05
2.63825e-05
2.61645e-05
2.58987e-05
2.55747e-05
2.5278e-05
2.49867e-05
2.45881e-05
2.4109e-05
2.44937e-05
2.5251e-05
3.28541e-05
4.52226e-05
4.46297e-05
3.7686e-05
3.18199e-05
2.22489e-05
1.90461e-05
2.89618e-05
4.87507e-05
5.06033e-05
3.0639e-05
2.45971e-05
2.45073e-05
2.49269e-05
2.5145e-05
2.52994e-05
2.54827e-05
2.56764e-05
2.58872e-05
2.61293e-05
2.63833e-05
2.66382e-05
2.6806e-05
2.67021e-05
2.59535e-05
2.41056e-05
2.10901e-05
1.71923e-05
1.14328e-05
4.16909e-06
4.42119e-07
2.99221e-09
6.2898e-11
9.58489e-08
1.92234e-06
7.83397e-06
1.41734e-05
1.85267e-05
2.18003e-05
2.40713e-05
2.52082e-05
2.55653e-05
2.54971e-05
2.52456e-05
2.50071e-05
2.479e-05
2.45861e-05
2.43514e-05
2.40536e-05
2.37711e-05
2.35009e-05
2.31424e-05
2.28168e-05
2.37551e-05
2.57704e-05
3.38679e-05
4.60172e-05
4.1432e-05
3.40364e-05
2.8793e-05
2.2015e-05
1.8776e-05
2.5628e-05
4.31492e-05
4.40275e-05
2.84037e-05
2.33007e-05
2.30799e-05
2.34392e-05
2.36486e-05
2.37996e-05
2.39728e-05
2.41498e-05
2.43254e-05
2.45244e-05
2.47472e-05
2.49712e-05
2.51253e-05
2.50218e-05
2.42746e-05
2.24687e-05
1.96275e-05
1.60482e-05
1.06975e-05
3.8819e-06
4.08108e-07
2.74278e-09
5.81903e-11
8.89016e-08
1.79608e-06
7.3426e-06
1.32778e-05
1.72934e-05
2.03368e-05
2.25176e-05
2.36378e-05
2.39958e-05
2.39556e-05
2.37483e-05
2.3527e-05
2.32983e-05
2.3093e-05
2.28765e-05
2.25982e-05
2.23277e-05
2.20833e-05
2.1769e-05
2.16038e-05
2.30816e-05
2.84087e-05
3.74842e-05
4.50743e-05
3.72972e-05
2.97072e-05
2.5499e-05
2.07317e-05
1.87215e-05
2.50944e-05
4.03069e-05
3.84025e-05
2.596e-05
2.20296e-05
2.17226e-05
2.2018e-05
2.22121e-05
2.23625e-05
2.25338e-05
2.27054e-05
2.28562e-05
2.30213e-05
2.32249e-05
2.34272e-05
2.3563e-05
2.3443e-05
2.26919e-05
2.09447e-05
1.8286e-05
1.50063e-05
1.00352e-05
3.62937e-06
3.79503e-07
2.54693e-09
5.40203e-11
8.27346e-08
1.67639e-06
6.88941e-06
1.24442e-05
1.61421e-05
1.89687e-05
2.10673e-05
2.21757e-05
2.2528e-05
2.24993e-05
2.23281e-05
2.21326e-05
2.19063e-05
2.16983e-05
2.14918e-05
2.12301e-05
2.09799e-05
2.07614e-05
2.04888e-05
2.04533e-05
2.23953e-05
2.90281e-05
4.05e-05
4.20302e-05
3.29487e-05
2.57834e-05
2.24659e-05
1.96021e-05
1.95712e-05
2.78837e-05
3.87357e-05
3.44449e-05
2.40162e-05
2.08087e-05
2.04348e-05
2.06817e-05
2.08542e-05
2.09933e-05
2.11609e-05
2.13334e-05
2.14748e-05
2.16193e-05
2.1811e-05
2.19998e-05
2.21049e-05
2.19595e-05
2.12019e-05
1.95268e-05
1.70576e-05
1.40612e-05
9.43634e-06
3.40487e-06
3.54638e-07
2.38849e-09
5.0282e-11
7.72101e-08
1.57018e-06
6.46895e-06
1.16641e-05
1.50615e-05
1.76824e-05
1.96997e-05
2.07992e-05
2.1143e-05
2.11121e-05
2.09662e-05
2.08091e-05
2.0614e-05
2.04147e-05
2.02111e-05
1.99607e-05
1.97305e-05
1.95333e-05
1.92934e-05
1.93613e-05
2.16043e-05
2.996e-05
3.98442e-05
3.79295e-05
2.88814e-05
2.24573e-05
2.02141e-05
1.89234e-05
2.1416e-05
2.91053e-05
3.85145e-05
3.0948e-05
2.2235e-05
1.96465e-05
1.92105e-05
1.94203e-05
1.95745e-05
1.96953e-05
1.9855e-05
2.00304e-05
2.01734e-05
2.03118e-05
2.04976e-05
2.06746e-05
2.07465e-05
2.05689e-05
1.98074e-05
1.82085e-05
1.593e-05
1.32019e-05
8.89191e-06
3.20235e-06
3.32304e-07
2.24577e-09
4.69376e-11
7.22171e-08
1.47262e-06
6.07921e-06
1.09382e-05
1.40555e-05
1.6482e-05
1.84168e-05
1.95035e-05
1.98382e-05
1.97981e-05
1.9668e-05
1.95571e-05
1.9416e-05
1.9238e-05
1.90284e-05
1.87787e-05
1.85595e-05
1.83741e-05
1.81611e-05
1.83227e-05
2.07463e-05
2.90182e-05
3.72474e-05
3.41584e-05
2.53915e-05
1.98924e-05
1.84623e-05
1.79132e-05
2.16027e-05
3.15126e-05
3.78626e-05
2.90531e-05
2.09806e-05
1.85574e-05
1.80496e-05
1.82248e-05
1.83652e-05
1.84674e-05
1.86195e-05
1.87978e-05
1.89463e-05
1.90873e-05
1.92726e-05
1.94397e-05
1.94817e-05
1.92664e-05
1.85081e-05
1.69855e-05
1.48956e-05
1.24193e-05
8.39471e-06
3.0169e-06
3.12047e-07
2.11595e-09
4.38933e-11
6.76287e-08
1.38247e-06
5.71899e-06
1.02704e-05
1.3134e-05
1.53772e-05
1.72256e-05
1.82949e-05
1.86251e-05
1.85779e-05
1.8458e-05
1.83879e-05
1.83011e-05
1.81473e-05
1.79241e-05
1.76623e-05
1.74431e-05
1.72634e-05
1.70793e-05
1.73364e-05
1.98864e-05
2.75553e-05
3.44983e-05
3.08579e-05
2.27733e-05
1.78293e-05
1.70729e-05
1.82783e-05
2.31973e-05
3.22196e-05
3.61586e-05
2.84131e-05
1.99421e-05
1.75412e-05
1.69571e-05
1.70936e-05
1.72245e-05
1.73135e-05
1.74598e-05
1.76393e-05
1.77893e-05
1.7934e-05
1.81214e-05
1.82819e-05
1.82977e-05
1.8053e-05
1.73003e-05
1.5853e-05
1.39434e-05
1.17006e-05
7.93722e-06
2.84721e-06
2.9349e-07
1.99919e-09
4.1112e-11
6.34242e-08
1.29905e-06
5.38642e-06
9.65976e-06
1.22979e-05
1.43684e-05
1.61262e-05
1.71757e-05
1.75127e-05
1.74676e-05
1.73536e-05
1.73051e-05
1.72541e-05
1.71162e-05
1.68772e-05
1.65954e-05
1.63709e-05
1.61982e-05
1.60469e-05
1.63998e-05
1.90191e-05
2.61007e-05
3.21381e-05
2.83639e-05
2.06204e-05
1.62858e-05
1.58781e-05
1.75199e-05
2.25762e-05
3.05718e-05
3.38134e-05
2.64781e-05
1.96218e-05
1.65862e-05
1.59263e-05
1.60218e-05
1.61521e-05
1.62374e-05
1.63803e-05
1.65554e-05
1.67005e-05
1.68461e-05
1.70354e-05
1.71913e-05
1.71879e-05
1.692e-05
1.61759e-05
1.48106e-05
1.3065e-05
1.10353e-05
7.51251e-06
2.69029e-06
2.76606e-07
1.89326e-09
3.85475e-11
5.95421e-08
1.22219e-06
5.07924e-06
9.09986e-06
1.15372e-05
1.34431e-05