/*--------------------------------*- C++ -*----------------------------------*\
  =========                 |
  \\      /  F ield         | OpenFOAM: The Open Source CFD Toolbox
   \\    /   O peration     | Website:  https://openfoam.org
    \\  /    A nd           | Version:  7
     \\/     M anipulation  |
\*---------------------------------------------------------------------------*/
FoamFile
{
    version     2.0;
    format      ascii;
    class       volScalarField;
    location    "100";
    object      p;
}
// * * * * * * * * * * * * * * * * * * * * * * * * * * * * * * * * * * * * * //

dimensions      [0 2 -2 0 0 0 0];

internalField   nonuniform List<scalar> 
17475
(
0.735917
0.42134
0.331972
0.293471
0.270979
0.256136
0.245667
0.238028
0.232373
0.228185
0.225127
0.222964
0.221522
0.220668
0.220293
0.220308
0.220631
0.221193
0.221928
0.222773
0.223672
0.224572
0.225421
0.226176
0.226799
0.227258
0.227527
0.227592
0.227445
0.227091
0.226543
0.225823
0.224961
0.223996
0.222972
0.221939
0.220952
0.220069
0.219351
0.218867
0.218689
0.218898
0.219585
0.220858
0.222849
0.225727
0.229719
0.23514
0.242454
0.252368
0.266015
0.285266
0.312948
0.355708
0.377587
0.297931
0.312337
0.298201
0.27956
0.263888
0.251921
0.242889
0.236063
0.230909
0.227054
0.224229
0.222238
0.220929
0.220182
0.219898
0.219992
0.220387
0.221015
0.221812
0.222716
0.223669
0.224619
0.225515
0.226312
0.226969
0.227453
0.227738
0.227809
0.227658
0.22729
0.226719
0.225968
0.225067
0.224057
0.222983
0.221895
0.220849
0.219903
0.219118
0.218562
0.218305
0.218424
0.219006
0.22015
0.221977
0.224636
0.228324
0.233304
0.239948
0.248797
0.26067
0.276888
0.299363
0.335054
0.344749
0.264956
0.262315
0.26017
0.254066
0.247307
0.240762
0.235027
0.230276
0.22649
0.223579
0.221435
0.219957
0.219052
0.218637
0.218635
0.218979
0.219602
0.220442
0.221438
0.222531
0.223663
0.224778
0.225825
0.226754
0.227519
0.228085
0.228422
0.228515
0.228355
0.227947
0.227305
0.226455
0.225433
0.224281
0.223048
0.221787
0.220555
0.21941
0.218414
0.217633
0.217128
0.216968
0.217224
0.217974
0.219302
0.221307
0.224101
0.227808
0.232564
0.238484
0.245586
0.253544
0.261246
0.265834
0.257488
0.218396
0.226719
0.231735
0.232111
0.23025
0.227582
0.224782
0.222205
0.220026
0.218318
0.217097
0.216347
0.216036
0.216122
0.216561
0.217302
0.218295
0.219484
0.220815
0.222229
0.223668
0.225072
0.226385
0.227546
0.228505
0.229219
0.229655
0.229792
0.22962
0.229146
0.228385
0.227369
0.226139
0.224745
0.223241
0.221687
0.220145
0.218671
0.21733
0.216184
0.215286
0.214691
0.214451
0.214614
0.215225
0.216321
0.217924
0.220029
0.222572
0.225381
0.228078
0.2299
0.229424
0.223544
0.208445
0.197287
0.203711
0.209981
0.213258
0.214441
0.214453
0.213884
0.21312
0.212404
0.21188
0.211627
0.211684
0.212065
0.212761
0.213752
0.215009
0.216494
0.218162
0.21996
0.221832
0.223716
0.225547
0.227252
0.228762
0.230015
0.230959
0.231549
0.231758
0.231572
0.231001
0.230065
0.228803
0.227267
0.225518
0.223623
0.22165
0.219667
0.217735
0.215926
0.214294
0.212886
0.211742
0.210896
0.21037
0.210174
0.210298
0.210706
0.211316
0.211982
0.212447
0.212288
0.210827
0.207023
0.199308
0.189237
0.183382
0.188007
0.193877
0.198097
0.200673
0.20221
0.203122
0.203706
0.204178
0.204687
0.205337
0.206192
0.207291
0.208649
0.210268
0.212132
0.214217
0.216483
0.218885
0.221361
0.223848
0.226258
0.228507
0.230509
0.232184
0.233457
0.23427
0.234585
0.234383
0.233673
0.232488
0.230877
0.228912
0.226672
0.224241
0.221705
0.219139
0.216618
0.214222
0.211996
0.209983
0.208212
0.206701
0.205453
0.204453
0.203664
0.203019
0.202411
0.20168
0.200587
0.198809
0.195903
0.191283
0.18446
0.178052
0.172769
0.176064
0.180989
0.185363
0.18857
0.19095
0.192789
0.194305
0.195671
0.197017
0.198445
0.20003
0.201823
0.203854
0.20614
0.208679
0.211454
0.214438
0.217581
0.220829
0.224091
0.227266
0.230249
0.232926
0.235186
0.236925
0.238055
0.238519
0.238292
0.237385
0.235846
0.233746
0.231187
0.228279
0.225134
0.221861
0.218548
0.215304
0.2122
0.209284
0.206592
0.204147
0.201953
0.2
0.198256
0.196671
0.195169
0.193642
0.191949
0.189911
0.187301
0.183842
0.179209
0.173542
0.169202
0.163535
0.16598
0.170043
0.174236
0.177661
0.180464
0.182851
0.184979
0.186983
0.188974
0.191043
0.193267
0.195699
0.198382
0.201344
0.204598
0.208143
0.211958
0.216001
0.220194
0.224443
0.228619
0.232584
0.236184
0.239258
0.241652
0.243231
0.243909
0.243642
0.242448
0.240398
0.237607
0.234226
0.230409
0.226317
0.222089
0.217843
0.21372
0.209785
0.206089
0.202663
0.199519
0.196653
0.19404
0.19164
0.189393
0.187222
0.185035
0.182715
0.180127
0.177115
0.173494
0.169085
0.164277
0.161067
0.154941
0.156821
0.160177
0.16406
0.167497
0.170483
0.173166
0.17567
0.178103
0.180559
0.183122
0.185867
0.18886
0.19215
0.195781
0.199779
0.204149
0.20891
0.213998
0.219338
0.224833
0.230319
0.235605
0.240478
0.244699
0.248033
0.250264
0.251248
0.250915
0.249294
0.246496
0.242707
0.238168
0.233108
0.227753
0.222283
0.21689
0.211715
0.206824
0.202268
0.19807
0.194228
0.190722
0.187517
0.184559
0.181785
0.179122
0.176483
0.173774
0.170888
0.167716
0.16412
0.160074
0.156161
0.153725
0.146613
0.148092
0.150879
0.154406
0.157736
0.160747
0.16355
0.16625
0.168938
0.171699
0.174613
0.177754
0.181195
0.185004
0.189244
0.193961
0.199224
0.205013
0.2113
0.218019
0.225064
0.232267
0.239348
0.246005
0.251883
0.256605
0.259811
0.261254
0.260809
0.258526
0.2546
0.249337
0.243134
0.236348
0.229293
0.222232
0.215438
0.209021
0.203058
0.197585
0.192604
0.188093
0.184011
0.180301
0.176899
0.173736
0.170729
0.167802
0.164874
0.161865
0.158682
0.155223
0.151486
0.148149
0.146242
0.138351
0.139526
0.141841
0.14499
0.14813
0.151054
0.153841
0.156586
0.159371
0.162276
0.165382
0.168768
0.172522
0.176731
0.181485
0.186866
0.192963
0.199815
0.207428
0.215766
0.224734
0.234163
0.243707
0.252913
0.261248
0.268098
0.272829
0.274992
0.274354
0.271005
0.2653
0.2578
0.249155
0.239939
0.230588
0.221539
0.213044
0.205209
0.19809
0.191688
0.185965
0.180862
0.176301
0.172199
0.168482
0.16507
0.161889
0.158852
0.155876
0.152879
0.149784
0.146514
0.143141
0.140334
0.13879
0.130039
0.130975
0.132881
0.13564
0.138515
0.141253
0.143904
0.146555
0.149283
0.152168
0.155288
0.158736
0.162613
0.167034
0.172107
0.178002
0.184813
0.192653
0.201632
0.211775
0.223045
0.235298
0.248223
0.261144
0.273239
0.28349
0.290752
0.29411
0.293125
0.287953
0.279316
0.268297
0.256004
0.243313
0.23095
0.219452
0.208983
0.199622
0.191353
0.184099
0.177746
0.172189
0.167303
0.163003
0.159173
0.155706
0.152508
0.149495
0.146589
0.143716
0.140803
0.137792
0.1348
0.132445
0.131206
0.121616
0.122368
0.123912
0.126252
0.128788
0.131248
0.133651
0.136073
0.138587
0.14127
0.144204
0.147489
0.151242
0.155602
0.160722
0.166805
0.174031
0.182617
0.192775
0.204736
0.21859
0.234313
0.251711
0.270076
0.28809
0.304055
0.315768
0.321282
0.319629
0.311148
0.29742
0.280644
0.262789
0.245241
0.229085
0.214694
0.202133
0.191316
0.182062
0.174163
0.167448
0.161739
0.156833
0.152574
0.148828
0.145482
0.142437
0.139604
0.136907
0.134272
0.131631
0.128944
0.126357
0.124421
0.123441
0.113059
0.113647
0.114859
0.116769
0.118908
0.121
0.123043
0.1251
0.127239
0.129529
0.132054
0.134913
0.138232
0.142154
0.146912
0.1527
0.159794
0.168543
0.17935
0.192647
0.20894
0.228517
0.25149
0.27757
0.305082
0.331077
0.351243
0.360999
0.357948
0.342959
0.319826
0.293372
0.267051
0.243156
0.222562
0.205222
0.190829
0.17896
0.169235
0.161281
0.154713
0.149238
0.144633
0.140707
0.137299
0.134303
0.131606
0.129112
0.126763
0.124483
0.122212
0.119926
0.11778
0.116206
0.115393
0.104402
0.104861
0.105764
0.107215
0.108877
0.110513
0.112095
0.113666
0.115277
0.116987
0.118868
0.121008
0.123522
0.126576
0.130392
0.135195
0.14132
0.149211
0.159462
0.172862
0.190322
0.212993
0.241974
0.277834
0.320115
0.3644
0.402025
0.421069
0.414794
0.385594
0.344035
0.301297
0.263217
0.232073
0.207315
0.187921
0.172871
0.161217
0.152089
0.144845
0.139066
0.134367
0.130523
0.127309
0.124561
0.122168
0.120026
0.118054
0.116191
0.114376
0.112563
0.110746
0.109078
0.107899
0.107284
0.0956712
0.0960168
0.0966158
0.0975885
0.0987323
0.0998471
0.100882
0.101856
0.102799
0.10375
0.10476
0.105894
0.107241
0.108951
0.111173
0.114138
0.118168
0.123718
0.131458
0.142364
0.157894
0.180102
0.211982
0.256923
0.318471
0.395658
0.472015
0.513703
0.499385
0.436142
0.357374
0.289562
0.239089
0.20289
0.177328
0.159286
0.146326
0.136849
0.129802
0.12449
0.120402
0.117199
0.114629
0.112494
0.110717
0.109173
0.107782
0.106474
0.105212
0.103966
0.102694
0.10141
0.10025
0.0994443
0.0989927
0.086923
0.0871568
0.0874465
0.0879333
0.0885388
0.0891014
0.0895406
0.0898435
0.0900177
0.0900769
0.0900408
0.0899342
0.0897896
0.0896883
0.0896947
0.089956
0.0906516
0.0920575
0.0947028
0.0993385
0.107203
0.120711
0.143917
0.184042
0.254073
0.37686
0.54034
0.643217
0.607171
0.456272
0.30863
0.221196
0.171985
0.143699
0.126884
0.116569
0.109962
0.10551
0.102559
0.100512
0.0990039
0.0979541
0.0971691
0.096535
0.0960113
0.0955301
0.0950555
0.0945585
0.0940159
0.093406
0.0927211
0.0919912
0.0913357
0.0909017
0.090616
0.0779267
0.0780017
0.0780477
0.0782069
0.078397
0.0784504
0.0782809
0.0778726
0.0772193
0.0763093
0.0751232
0.0736342
0.0718095
0.0696263
0.0670299
0.0639685
0.0603731
0.0561567
0.051227
0.0454488
0.0386629
0.0309784
0.0221865
0.0122413
0.00131666
0.10153
0.381704
0.227805
0.0708293
0.0227989
0.0367455
0.0474203
0.0552645
0.061089
0.0656169
0.0690636
0.0718568
0.0741287
0.0760041
0.0775801
0.0788998
0.0800001
0.0809023
0.0816196
0.0821629
0.082541
0.0827589
0.0828196
0.082736
0.0825538
0.0823844
0.0823221
0.0822528
0.0675442
0.0677286
0.0681753
0.0685904
0.068624
0.0681944
0.0673883
0.0662368
0.064737
0.0628619
0.0605282
0.0576556
0.0541436
0.0498528
0.0446019
0.0381382
0.0301018
0.0199605
0.00687726
-0.0105177
-0.0346444
-0.0700307
-0.126224
-0.226383
-0.361998
-0.46131
-0.276891
-0.134509
-0.0629019
-0.0222209
0.00301561
0.0198609
0.0317696
0.0405978
0.0473774
0.052727
0.057034
0.0605441
0.0634211
0.0658103
0.0677725
0.069369
0.0706675
0.071664
0.0724021
0.0729099
0.0732075
0.0733
0.0732085
0.073034
0.062424
0.0621109
0.0617785
0.0610037
0.0599548
0.0587448
0.0572987
0.0555143
0.0532911
0.0505463
0.047179
0.0430688
0.038051
0.0318855
0.024283
0.014847
0.00300991
-0.0120475
-0.0315467
-0.0573618
-0.0924726
-0.141874
-0.215297
-0.326979
-0.429778
-0.297794
-0.194026
-0.118345
-0.0713918
-0.0395342
-0.0168045
3.20976e-05
0.0129034
0.0230007
0.0310865
0.0376643
0.0430871
0.0475965
0.0513364
0.0544534
0.0570461
0.0591762
0.0609355
0.0623497
0.0634351
0.0641794
0.0645231
0.0644394
0.0642202
0.0528322
0.0528751
0.0525342
0.0518826
0.0508771
0.0494358
0.0475434
0.0451804
0.0422923
0.0387894
0.034552
0.0294347
0.0232495
0.0156925
0.00643702
-0.00495229
-0.0190793
-0.0367784
-0.059205
-0.0879437
-0.125149
-0.173697
-0.236282
-0.31097
-0.356084
-0.36892
-0.252211
-0.229918
-0.189934
-0.142617
-0.103008
-0.0713173
-0.0463714
-0.0266757
-0.0110094
0.00160644
0.0118826
0.0203332
0.0273401
0.0331866
0.0380818
0.0421901
0.0456408
0.0485338
0.0509562
0.0529824
0.0546836
0.0561143
0.0572743
0.0580321
0.0581305
0.0456459
0.0457895
0.045395
0.044382
0.0428729
0.0409603
0.0386338
0.03583
0.0324644
0.0284341
0.0236171
0.0178625
0.0109912
0.00271195
-0.00726896
-0.019347
-0.0340188
-0.0519096
-0.0738611
-0.100864
-0.134055
-0.175037
-0.225685
-0.280679
-0.313043
-0.316888
-0.302792
-0.277078
-0.254575
-0.232455
-0.214067
-0.206433
-0.185423
-0.151188
-0.118749
-0.0903384
-0.0661733
-0.0459004
-0.0291409
-0.0152388
-0.00364037
0.00601367
0.0141042
0.0209145
0.0266535
0.0315034
0.0356079
0.0390824
0.0420271
0.0445289
0.0466522
0.0484068
0.0497037
0.0504045
0.0504942
0.0389028
0.0390104
0.0385201
0.0373264
0.035553
0.0333301
0.0306835
0.0275618
0.023883
0.019547
0.0144351
0.00840846
0.00130736
-0.00711408
-0.0170801
-0.0288665
-0.0428218
-0.0593498
-0.0789178
-0.102048
-0.129346
-0.161593
-0.19941
-0.237455
-0.262355
-0.276087
-0.281515
-0.273032
-0.259238
-0.239712
-0.221347
-0.212301
-0.193405
-0.161652
-0.130807
-0.103475
-0.0798291
-0.0596371
-0.042518
-0.0280549
-0.0158228
-0.00549327
0.0032553
0.0106952
0.0169885
0.0223378
0.0268906
0.0307776
0.0340946
0.0369242
0.0393358
0.0413287
0.0427924
0.0435685
0.0436228
0.0325248
0.0326284
0.0321104
0.0308453
0.0289433
0.0265543
0.0237345
0.020453
0.0166383
0.0122069
0.00705809
0.00107519
-0.00587146
-0.013911
-0.0232525
-0.0340356
-0.0464595
-0.0607096
-0.0769627
-0.0953541
-0.115935
-0.138794
-0.163714
-0.18714
-0.205452
-0.226409
-0.249106
-0.2618
-0.263002
-0.252719
-0.239746
-0.228803
-0.20472
-0.170099
-0.138355
-0.111203
-0.0879868
-0.0681328
-0.0511785
-0.0367076
-0.0243924
-0.0138845
-0.00492924
0.00271817
0.00925431
0.0148436
0.0196282
0.0237311
0.0272512
0.0302732
0.0328519
0.0349644
0.0364846
0.0372621
0.0373031
0.0267523
0.0268816
0.0263811
0.0251019
0.0231455
0.0206921
0.017821
0.0145176
0.010726
0.00637906
0.0014045
-0.00427819
-0.0107543
-0.0181301
-0.0265181
-0.035953
-0.0465064
-0.0582097
-0.0710269
-0.0847968
-0.0992448
-0.11399
-0.128191
-0.139598
-0.153384
-0.180661
-0.216581
-0.2454
-0.259644
-0.259487
-0.251258
-0.236926
-0.208379
-0.17235
-0.140095
-0.113258
-0.0907685
-0.0716973
-0.0554404
-0.0415373
-0.0296192
-0.0193871
-0.0106052
-0.00305819
0.0034383
0.00902032
0.013827
0.017971
0.0215373
0.0246094
0.0272298
0.029364
0.0308719
0.0316159
0.0316244
0.0216188
0.0217728
0.0213114
0.0200765
0.0181615
0.0157458
0.0129298
0.00972132
0.0060822
0.00196226
-0.0026913
-0.00793242
-0.013806
-0.0203494
-0.0276327
-0.0356464
-0.0443511
-0.0536763
-0.0634424
-0.0733696
-0.0829863
-0.0916533
-0.0984826
-0.102439
-0.115037
-0.147048
-0.190012
-0.225414
-0.246005
-0.251816
-0.245488
-0.228174
-0.197984
-0.16364
-0.133746
-0.10889
-0.0881478
-0.0706268
-0.0556559
-0.0428037
-0.0317322
-0.0221743
-0.013912
-0.00676273
-0.000573193
0.00478642
0.00942535
0.0134406
0.0169134
0.0199117
0.0224622
0.0245167
0.0259357
0.0265968
0.0265561
0.0171438
0.0173421
0.0169466
0.0157994
0.0139842
0.0116751
0.00899605
0.00597038
0.00257387
-0.00122776
-0.00546747
-0.0101787
-0.0153807
-0.0210798
-0.0272838
-0.0339741
-0.0410511
-0.0483851
-0.0557815
-0.0629119
-0.0692893
-0.0743502
-0.0771283
-0.0776898
-0.0915473
-0.12521
-0.166633
-0.199602
-0.220803
-0.22823
-0.220461
-0.200576
-0.17325
-0.144467
-0.119196
-0.098128
-0.0803469
-0.0652121
-0.0521899
-0.0409034
-0.0310921
-0.0225451
-0.0150911
-0.00858798
-0.00291582
0.00202847
0.00633472
0.0100817
0.0133377
0.0161554
0.0185487
0.0204612
0.0217591
0.0223412
0.022256
0.0133024
0.0135303
0.0132083
0.0121895
0.0105296
0.00839738
0.00592149
0.0031428
5.06464e-05
-0.00337724
-0.00716083
-0.0113152
-0.0158484
-0.0207464
-0.0259833
-0.0315414
-0.0373128
-0.0431615
-0.0489022
-0.054246
-0.0588475
-0.0622279
-0.0634168
-0.0629496
-0.0766477
-0.106757
-0.140852
-0.168137
-0.185526
-0.190099
-0.180016
-0.160439
-0.138667
-0.117524
-0.0986004
-0.0823604
-0.0684074
-0.0562883
-0.0456859
-0.0363556
-0.0281251
-0.0208621
-0.0144527
-0.00879915
-0.00381799
0.000563637
0.00440996
0.00777857
0.0107205
0.0132723
0.0154344
0.0171436
0.018274
0.018744
0.0186201
0.0100578
0.0103215
0.0100909
0.00921755
0.00774661
0.00583235
0.00360294
0.00111083
-0.00164392
-0.0046747
-0.00799296
-0.0116041
-0.015507
-0.0196848
-0.0241045
-0.0287327
-0.0335052
-0.0382906
-0.0429419
-0.0472755
-0.0510721
-0.0539788
-0.0548533
-0.0540293
-0.0646398
-0.0873463
-0.112136
-0.132133
-0.143401
-0.143791
-0.132886
-0.115867
-0.100415
-0.0869351
-0.0746239
-0.0636249
-0.0537892
-0.0449502
-0.0370126
-0.0298489
-0.0233862
-0.0175722
-0.012352
-0.00767671
-0.00350179
0.000212962
0.00350563
0.00641193
0.00896404
0.011182
0.0130542
0.0145145
0.0154546
0.0158144
0.0156478
0.00735977
0.00765554
0.00751465
0.00680085
0.00554423
0.0038786
0.00192596
-0.000255918
-0.00265776
-0.00528627
-0.00814777
-0.0112433
-0.014568
-0.0181097
-0.0218435
-0.0257281
-0.0297088
-0.0337124
-0.0376517
-0.0414288
-0.0449432
-0.0479062
-0.0490675
-0.0479885
-0.0537886
-0.0680587
-0.0840422
-0.0962619
-0.101566
-0.098375
-0.08716
-0.073035
-0.0633775
-0.0565831
-0.0501646
-0.0439947
-0.0380761
-0.0324543
-0.0271304
-0.0221489
-0.0174906
-0.0131663
-0.00918411
-0.00554075
-0.00222823
0.000763645
0.00344816
0.00584031
0.00795402
0.00979403
0.011339
0.012525
0.0132622
0.0135057
0.0133012
0.00515915
0.00548046
0.00542874
0.00487458
0.00384601
0.00244725
0.000788637
-0.00107098
-0.0031155
-0.00534682
-0.00776869
-0.0103812
-0.0131774
-0.0161466
-0.0192687
-0.0225155
-0.0258516
-0.0292614
-0.0326959
-0.036126
-0.0395422
-0.0427148
-0.044461
-0.0435674
-0.0452346
-0.0519465
-0.0597881
-0.0651444
-0.0652343
-0.058978
-0.0476911
-0.0362236
-0.0308728
-0.0291142
-0.0274
-0.0252652
-0.022718
-0.019924
-0.0169994
-0.0140078
-0.0110418
-0.00814057
-0.00535626
-0.00272646
-0.000273569
0.00198774
0.0040495
0.00590816
0.007562
0.00900307
0.0102037
0.0111057
0.0116357
0.0117635
0.0115271
0.00341
0.00374672
0.00377662
0.00339111
0.00258919
0.0014609
0.0001026
-0.00143023
-0.00311903
-0.00496063
-0.00695744
-0.00910739
-0.0114055
-0.0138444
-0.0164138
-0.0191006
-0.0218898
-0.0247714
-0.0277581
-0.0308684
-0.0341458
-0.0374424
-0.0397662
-0.0393975
-0.0386451
-0.0399471
-0.0416248
-0.0410335
-0.036758
-0.0283518
-0.0168172
-0.00685411
-0.00423365
-0.00595357
-0.00767147
-0.00862057
-0.00875357
-0.00825939
-0.00732237
-0.00606118
-0.00456544
-0.00293767
-0.00124467
0.00044827
0.00209417
0.00365919
0.00511883
0.0064552
0.00765394
0.00869809
0.00955656
0.010181
0.0105108
0.0105316
0.0102661
0.00206974
0.00241353
0.00251022
0.00227466
0.00169857
0.000846179
-0.000208466
-0.00141382
-0.00274986
-0.00421125
-0.00579695
-0.00750535
-0.00933288
-0.0112746
-0.0133246
-0.0154778
-0.0177357
-0.0201096
-0.0226231
-0.0253384
-0.0283224
-0.0315088
-0.0341722
-0.0346571
-0.0332305
-0.0312956
-0.0287029
-0.0242431
-0.0167818
-0.00614773
0.00597687
0.0151653
0.0162267
0.0123887
0.00841016
0.00530504
0.00321127
0.00195906
0.00135537
0.00124343
0.00152165
0.00208251
0.00283597
0.00370877
0.00463569
0.00557031
0.00647677
0.00732693
0.00809759
0.00876562
0.00930049
0.0096607
0.00980846
0.00973269
0.00944453
0.00108994
0.0014386
0.00159514
0.00149349
0.00112589
0.000543158
-0.000209508
-0.00109202
-0.00208263
-0.00317367
-0.00436223
-0.00564506
-0.00701869
-0.00847939
-0.0100248
-0.011656
-0.0133804
-0.0152186
-0.0172067
-0.0194062
-0.0219
-0.0246777
-0.0272823
-0.0284325
-0.0275198
-0.024526
-0.0198
-0.0127621
-0.00319391
0.00863214
0.0212216
0.0303243
0.0309014
0.0259913
0.020719
0.0162875
0.0129038
0.0104452
0.00873189
0.00760672
0.00694707
0.00666065
0.0066508
0.00684103
0.00715816
0.00754848
0.00796954
0.00838737
0.00877326
0.0091016
0.00934406
0.00946971
0.00945373
0.00929496
0.00899027
0.00042726
0.000767425
0.000971793
0.000999084
0.000839784
0.000511767
4.83061e-05
-0.000520614
-0.0011767
-0.00191
-0.00271576
-0.00358886
-0.00452463
-0.0055191
-0.00657063
-0.00768155
-0.00886184
-0.0101321
-0.0115276
-0.0131047
-0.0149383
-0.0170425
-0.0192039
-0.0206387
-0.020562
-0.017857
-0.0125279
-0.00477903
0.0055763
0.0181069
0.0309097
0.0399037
0.0404231
0.035248
0.0294656
0.0243978
0.0203069
0.0171205
0.0146921
0.0128774
0.0115591
0.010641
0.0100469
0.00969465
0.0095201
0.0094619
0.00947579
0.0095253
0.00957996
0.00961347
0.00960256
0.00952504
0.00937135
0.00914548
0.00883051
4.11969e-05
0.000377939
0.000621626
0.000757013
0.000781648
0.000696697
0.00051279
0.000245992
-8.86583e-05
-0.000479961
-0.00091986
-0.00140109
-0.00191689
-0.00246188
-0.00303285
-0.00363086
-0.0042632
-0.00494625
-0.00570662
-0.00658631
-0.00763791
-0.00891943
-0.0103012
-0.0115232
-0.0120422
-0.0104265
-0.00581225
0.00177797
0.0119254
0.0239908
0.0363114
0.0450045
0.0457123
0.0407689
0.0350539
0.029891
0.0255664
0.0220537
0.0192463
0.0170259
0.015288
0.013949
0.012935
0.0121813
0.0116275
0.0112178
0.0109054
0.0106547
0.0104358
0.0102249
0.0100031
0.00976097
0.00949501
0.00921316
0.00889328
-9.23774e-05
0.000233079
0.000502699
0.00073485
0.000927282
0.00106594
0.00114231
0.00116078
0.0011299
0.00106154
0.000966415
0.000854475
0.000735054
0.000616272
0.000503986
0.000400671
0.000303982
0.000205216
8.93394e-05
-6.80009e-05
-0.000299358
-0.000649542
-0.00121568
-0.00186699
-0.00247243
-0.00172065
0.0015432
0.0077612
0.0168394
0.0279406
0.0391576
0.0470169
0.0477316
0.0432799
0.0380068
0.0331376
0.0289355
0.0254117
0.0224975
0.0201053
0.018151
0.0165628
0.0152823
0.0142559
0.0134294
0.0127572
0.0121964
0.0117121
0.0112769
0.0108704
0.0104807
0.0101067
0.00975701
0.00943676
0.00911704
-8.36747e-06
0.000301475
0.000595051
0.000907661
0.00124227
0.00158414
0.00190082
0.00218172
0.00243201
0.00266235
0.00288577
0.00311491
0.00336192
0.00363778
0.00395208
0.00431155
0.00472022
0.00517851
0.00568341
0.00622746
0.0067942
0.00734801
0.00782018
0.00788978
0.00742341
0.00755757
0.00954536
0.0141055
0.0213387
0.030619
0.0402446
0.0469086
0.0474187
0.0435031
0.0388833
0.0345581
0.0307267
0.0274207
0.0246061
0.0222236
0.020214
0.0185209
0.017099
0.0159101
0.0149049
0.0140507
0.0133114
0.0126546
0.0120566
0.0115013
0.0109835
0.0105102
0.0100968
0.00975239
0.00943392
0.000267546
0.000561499
0.000867427
0.00124831
0.00170796
0.00222225
0.00275092
0.00326863
0.0037728
0.00427318
0.00478388
0.00532019
0.00589674
0.00652758
0.00722589
0.00800345
0.00887056
0.00983643
0.0109087
0.0120948
0.0133977
0.0147696
0.0160254
0.0168013
0.016723
0.0166454
0.0176974
0.0206742
0.0259106
0.032982
0.0403888
0.0454301
0.0455131
0.0421091
0.0382231
0.0345762
0.0312709
0.0283342
0.0257599
0.0235195
0.0215746
0.0198862
0.0184217
0.0171554
0.0160561
0.0150888
0.0142316
0.0134567
0.0127436
0.0120797
0.0114683
0.0109218
0.0104647
0.010104
0.00979191
0.000703111
0.00098094
0.00130064
0.00172649
0.00228819
0.00295008
0.00366036
0.00438409
0.00511081
0.00584807
0.00661049
0.00741473
0.0082782
0.00921762
0.0102494
0.0113897
0.0126549
0.0140616
0.0156269
0.0173675
0.0192821
0.0213128
0.0232711
0.0246641
0.0249265
0.0246692
0.0249919
0.0266709
0.0301246
0.0349949
0.0401091
0.0432831
0.0426916
0.0396997
0.0365357
0.0336066
0.0308928
0.0284078
0.0261603
0.0241457
0.0223468
0.020741
0.0193093
0.0180336
0.0169008
0.0158792
0.0149528
0.0141041
0.013317
0.0125885
0.0119234
0.011343
0.0108663
0.0104958
0.010187
0.0012704
0.00152916
0.00185088
0.0023172
0.00295788
0.00373723
0.00459794
0.00549368
0.00640835
0.00734577
0.00832061
0.00935074
0.0104549
0.0116521
0.0129616
0.0144032
0.0159981
0.0177685
0.0197365
0.0219181
0.0243168
0.0268689
0.0293311
0.0310657
0.0314706
0.0310698
0.0308247
0.0314574
0.0333137
0.0361594
0.039137
0.040581
0.0393584
0.0367301
0.034257
0.0320231
0.0299043
0.0278918
0.0260061
0.0242598
0.0226533
0.0211798
0.0198302
0.0185953
0.0174703
0.0164383
0.0154826
0.0145943
0.0137607
0.01298
0.012269
0.0116526
0.0111654
0.0108015
0.0105163
0.00194375
0.00218604
0.00250566
0.00299741
0.00369038
0.00455893
0.00553484
0.00656688
0.00763219
0.00873139
0.00987748
0.0110893
0.0123863
0.013789
0.0153188
0.016998
0.0188505
0.0209006
0.0231709
0.0256814
0.0284275
0.0313191
0.0340425
0.035959
0.0363714
0.0357009
0.0348483
0.0345072
0.0350424
0.0362757
0.03754
0.0373619
0.0357593
0.033568
0.0317562
0.0301544
0.0285821
0.0270177
0.0254876
0.0240168
0.0226198
0.021301
0.0200607
0.018897
0.0178109
0.0168031
0.0158483
0.0149393
0.0140847
0.0132837
0.0125544
0.0119343
0.0114433
0.0110878
0.0108117
0.00268994
0.00291573
0.00323113
0.00373379
0.00446189
0.00538745
0.00644467
0.00757711
0.00875546
0.00997704
0.0112533
0.0126026
0.0140448
0.0156013
0.017294
0.0191465
0.0211821
0.0234262
0.0259012
0.0286228
0.0315693
0.0346304
0.0374752
0.03936
0.0395881
0.0385464
0.0371476
0.0359857
0.0353523
0.035213
0.0349937
0.0339691
0.0323232
0.0305345
0.0293431
0.0282727
0.0271608
0.0259845
0.0247729
0.0235576
0.0223621
0.0212
0.0200777
0.0189991
0.0179686
0.0169902
0.0160605
0.0151557
0.0142953
0.0134855
0.0127515
0.0121274
0.0116486
0.0113053
0.011042
0.00347872
0.0036873
0.00399438
0.00449889
0.00524108
0.00619842
0.00730546
0.00850242
0.00975686
0.0110624
0.0124284
0.0138723
0.0154135
0.0170731
0.0188725
0.0208342
0.0229819
0.0253387
0.0279239
0.0307456
0.0337755
0.0368778
0.0396792
0.0414095
0.0413711
0.0399213
0.0379001
0.035971
0.0344954
0.0334448
0.0324363
0.031004
0.0290773
0.0279124
0.0273361
0.0265768
0.0258148
0.0249464
0.0239966
0.0229985
0.0219804
0.0209609
0.0199512
0.0189591
0.0179909
0.017053
0.0161494
0.0152652
0.0144051
0.0135969
0.012865
0.0122518
0.0117876
0.0114583
0.0112139
0.00427726
0.00446986
0.00476599
0.00526485
0.00600581
0.00696993
0.00809719
0.00932559
0.0106208
0.0119734
0.0133906
0.0148879
0.0164839
0.0181978
0.0200502
0.022062
0.0242545
0.0266471
0.029255
0.0320803
0.0350818
0.0381073
0.0407586
0.0422464
0.0418701
0.0399829
0.0374588
0.0349643
0.0328502
0.0311879
0.0297676
0.0282975
0.0269327
0.0259256
0.0253246
0.0251151
0.0246406
0.024009
0.0232577
0.0224293
0.0215539
0.0206536
0.0197417
0.0188276
0.0179189
0.0170231
0.0161458
0.0152889
0.014442
0.0136332
0.0129081
0.0123095
0.0118609
0.0115517
0.0113244
0.00506208
0.00524131
0.00552618
0.00601026
0.00673546
0.00768579
0.00880386
0.0100335
0.011337
0.0127025
0.014135
0.0156475
0.0172566
0.0189803
0.0208365
0.0228436
0.0250189
0.0273787
0.0299327
0.0326764
0.0355596
0.0384223
0.0408605
0.042079
0.0413961
0.0391642
0.0362535
0.0333587
0.0308712
0.0289277
0.02739
0.0261214
0.0251704
0.0246333
0.0243222
0.0239658
0.0235865
0.0231869
0.0226117
0.0219098
0.0211397
0.0203302
0.0194959
0.0186465
0.0177887
0.0169304
0.0160785
0.0152369
0.0144146
0.0136098
0.0128936
0.0123076
0.0118827
0.0115901
0.0113799
0.00581593
0.00598445
0.00625577
0.00671837
0.00741335
0.00832734
0.00941488
0.0106184
0.0119009
0.0132488
0.0146638
0.0161574
0.0177433
0.0194367
0.0212526
0.0232063
0.0253113
0.027579
0.0300142
0.032606
0.0353006
0.0379415
0.040142
0.0411142
0.0401972
0.0377367
0.0346039
0.0315267
0.0289447
0.0269723
0.0255683
0.0246508
0.0241094
0.0238146
0.0236187
0.0233704
0.0230024
0.0225261
0.0219912
0.0214407
0.0207679
0.0200267
0.0192487
0.0184469
0.0176287
0.0168008
0.0159701
0.0151423
0.01433
0.0135485
0.0128355
0.0122668
0.0118576
0.0115877
0.0113933
0.00651491
0.00667226
0.00692916
0.00736389
0.00801744
0.00888361
0.00991939
0.0110744
0.0123116
0.0136157
0.0149866
0.0164319
0.0179628
0.0195916
0.0213301
0.0231895
0.0251794
0.0273065
0.0295712
0.0319582
0.0344136
0.0367981
0.0387575
0.0395386
0.0385049
0.0359925
0.0328691
0.029835
0.0273074
0.0254879
0.024392
0.0238665
0.0236467
0.0235153
0.0233412
0.0230587
0.0226689
0.0221878
0.0216291
0.0210152
0.0204022
0.0197522
0.0190166
0.0182496
0.0174592
0.0166529
0.0158374
0.0150198
0.0142118
0.0134526
0.0127531
0.0121962
0.0118078
0.0115539
0.0113785
0.00712463
0.00727293
0.00751481
0.00791862
0.00852684
0.00933622
0.010308
0.0113988
0.0125727
0.013813
0.0151171
0.0164902
0.0179405
0.019477
0.0211078
0.0228404
0.0246801
0.0266297
0.0286855
0.0308296
0.0330142
0.0351281
0.0368716
0.0375473
0.036543
0.0341561
0.0311891
0.0283593
0.0261058
0.0246313
0.023907
0.0236986
0.0236723
0.0235897
0.0233764
0.0230278
0.0225709
0.0220341
0.0214376
0.0208011
0.0201344
0.0194451
0.0187666
0.0180672
0.0172959
0.0164956
0.0156917
0.0148821
0.0140812
0.0133237
0.0126564
0.0121121
0.011739
0.011507
0.0113456
0.00762506
0.00776448
0.00799193
0.00836833
0.008929
0.00967451
0.0105784
0.0115934
0.0126906
0.013852
0.0150729
0.0163562
0.0177067
0.01913
0.0206309
0.0222132
0.0238784
0.0256252
0.0274471
0.0293249
0.0312248
0.0330701
0.0346199
0.0352548
0.034391
0.0322741
0.029662
0.0272224
0.0253964
0.0243473
0.0239741
0.0239925
0.0240454
0.02393
0.0236273
0.0231789
0.022635
0.0220268
0.0213741
0.0206934
0.0199945
0.0192825
0.0185526
0.017808
0.0170503
0.0163023
0.0155344
0.0147366
0.0139409
0.0131902
0.0125245
0.0120137
0.0116693
0.0114505
0.0113038
0.00800675
0.0081408
0.0083541
0.00870028
0.00921471
0.00989817
0.0107257
0.0116614
0.0126741
0.0137474
0.0148746
0.016056
0.0172938
0.0185905
0.0199479
0.0213661
0.0228431
0.0243748
0.025952
0.0275581
0.0291724
0.030759
0.0321426
0.0327886
0.0321671
0.0304649
0.0283622
0.0264743
0.0251542
0.0245101
0.0244153
0.0245621
0.0246144
0.0244147
0.0239947
0.023432
0.0227893
0.0221013
0.0213856
0.0206516
0.0199093
0.0191642
0.0184179
0.0176661
0.0169022
0.016122
0.015336
0.0145443
0.0136773
0.0130659
0.012417
0.0119266
0.0115994
0.011396
0.0112626
0.00826546
0.00839097
0.00858931
0.00890751
0.00937478
0.00999843
0.0107528
0.011607
0.0125332
0.0135143
0.0145426
0.0156164
0.0167354
0.0178994
0.0191075
0.0203569
0.0216429
0.0229584
0.0242934
0.0256352
0.0269801
0.0283295
0.0295826
0.030296
0.029996
0.0288126
0.0272962
0.0259789
0.0251693
0.0249151
0.0250431
0.0252493
0.0252453
0.024933
0.0243861
0.023706
0.0229642
0.0221977
0.0214166
0.0206299
0.0198443
0.0190639
0.018289
0.0175173
0.0167446
0.0159681
0.0151858
0.0144064
0.0136764
0.0129652
0.0120857
0.0118402
0.011573
0.011348
0.0112214
0.00838928
0.00850841
0.00869537
0.00898461
0.00941033
0.0099751
0.0106608
0.0114374
0.012279
0.0131688
0.0140984
0.0150643
0.0160644
0.0170965
0.018157
0.0192412
0.020342
0.0214509
0.0225575
0.0236542
0.0247526
0.0258916
0.0270342
0.0278434
0.0278935
0.0272399
0.0263325
0.0255924
0.0252493
0.0253164
0.0256139
0.02586
0.0257984
0.0253794
0.0247145
0.0239263
0.0230973
0.0222546
0.0214147
0.020582
0.0197596
0.0189493
0.0181513
0.0173631
0.0165796
0.0157967
0.0150142
0.0142371
0.0134816
0.0128055
0.012305
0.0119175
0.0115522
0.011223
0.0111794
0.00838953
0.00850162
0.00867501
0.0089404
0.00932578
0.00983749
0.0104601
0.0111652
0.011927
0.0127299
0.0135648
0.0144271
0.0153132
0.0162191
0.01714
0.0180692
0.0189983
0.0199178
0.0208176
0.021695
0.0225741
0.0235232
0.0245647
0.0254545
0.025828
0.0256768
0.0253249
0.0251103
0.0251928
0.0255501
0.0260019
0.0262785
0.0261706
0.0256655
0.0249064
0.024036
0.0231281
0.0222238
0.0213361
0.0204676
0.0196185
0.0187882
0.0179755
0.0171778
0.0163902
0.0156085
0.0148319
0.0140666
0.0133316
0.0126545
0.0120723
0.0116429
0.0113856
0.011254
0.0111532
0.00828872
0.00839261
0.00855019
0.00879224
0.0091393
0.00960267
0.0101662
0.0108052
0.0114944
0.0122172
0.0129645