/*--------------------------------*- C++ -*----------------------------------*\
  =========                 |
  \\      /  F ield         | OpenFOAM: The Open Source CFD Toolbox
   \\    /   O peration     | Website:  https://openfoam.org
    \\  /    A nd           | Version:  7
     \\/     M anipulation  |
\*---------------------------------------------------------------------------*/
FoamFile
{
    version     2.0;
    format      ascii;
    class       surfaceScalarField;
    location    "100";
    object      phi;
}
// * * * * * * * * * * * * * * * * * * * * * * * * * * * * * * * * * * * * * //

dimensions      [0 3 -1 0 0 0 0];

internalField   nonuniform List<scalar> 
34768
(
8.1925e-05
0.000970031
-0.000149647
-4.45963e-05
2.59375e-05
0.000920967
-1.58522e-05
1.08839e-05
0.000907475
-8.29088e-06
6.74049e-06
0.000904256
-5.36899e-06
4.63419e-06
0.000903539
-4.31494e-06
3.93269e-06
0.000903185
-3.65193e-06
3.53768e-06
0.000903116
-3.48058e-06
3.45914e-06
0.000903122
-3.17416e-06
3.10911e-06
0.000903264
-3.27018e-06
3.04221e-06
0.000903326
-3.13449e-06
3.03225e-06
0.000903299
-3.04709e-06
3.26374e-06
0.000903279
-3.09557e-06
3.02665e-06
0.000903563
-3.27207e-06
3.21484e-06
0.00090355
-3.27138e-06
3.4239e-06
0.000903538
-3.39016e-06
3.35121e-06
0.000903828
-3.626e-06
3.59469e-06
0.000903719
-3.57738e-06
3.75316e-06
0.00090381
-3.74307e-06
3.72542e-06
0.000903901
-3.92224e-06
3.81083e-06
0.000904093
-4.21397e-06
4.80834e-06
0.000904085
-5.61748e-06
6.41727e-06
0.000905178
-5.28176e-06
4.42638e-06
0.000904851
-3.67582e-06
4.13474e-06
0.000904585
-5.408e-06
-3.09232e-07
0.000909259
-7.67543e-07
1.33266e-06
0.000908605
-1.24128e-06
8.87988e-07
0.000909412
-5.99893e-07
3.99131e-08
0.000909618
5.12762e-07
-8.0776e-07
0.000909349
1.15868e-06
-1.28301e-06
0.000909179
1.30606e-06
-1.36278e-06
0.00090912
1.35879e-06
-1.34876e-06
0.000909043
1.3288e-06
-1.32287e-06
0.000909046
1.2576e-06
-1.25638e-06
0.000909061
1.24663e-06
-1.25079e-06
0.000909066
1.24701e-06
-1.25695e-06
0.000909072
1.25978e-06
-1.276e-06
0.000909079
1.28578e-06
-1.40866e-06
0.000909187
1.72591e-06
-1.15607e-06
0.000909895
6.81646e-07
-5.19543e-07
0.000910304
4.53621e-07
-3.99585e-07
0.000910313
4.42813e-07
-4.97855e-07
0.000910223
5.51638e-07
-6.17447e-07
0.000910236
6.83737e-07
-6.62791e-07
0.00091005
7.44736e-07
-8.40906e-07
0.000910069
9.43163e-07
-1.06229e-06
0.000909994
1.19225e-06
-1.34364e-06
0.000909927
1.51297e-06
-1.71161e-06
0.000909976
1.9396e-06
-2.31056e-06
0.00091005
2.53004e-06
-2.91666e-06
0.000910067
3.38465e-06
-4.06129e-06
0.000910259
4.67106e-06
-5.54229e-06
0.000910455
6.56502e-06
-7.67708e-06
0.000910597
8.70676e-06
-6.6026e-06
0.000907383
-4.12484e-06
-2.68611e-05
0.000940477
-0.000827787
0.000143763
0.000704002
-1.99078e-05
-0.000972627
-0.000148645
0.000116838
0.00100452
-0.000925108
-9.01193e-05
7.07286e-05
0.000944586
-0.000911641
-5.6576e-05
4.61318e-05
0.000922171
-0.00090724
-3.8128e-05
3.2106e-05
0.000913346
-0.000905522
-2.73675e-05
2.36355e-05
0.000909336
-0.000904576
-2.00818e-05
1.79119e-05
0.000906826
-0.000904047
-1.56234e-05
1.37978e-05
0.000905949
-0.000903921
-1.21012e-05
1.08481e-05
0.000905247
-0.000903805
-9.74029e-06
8.70489e-06
0.000904911
-0.000903854
-7.66559e-06
7.05519e-06
0.000904531
-0.000903742
-6.21262e-06
5.56952e-06
0.000904448
-0.000903655
-5.07727e-06
4.46388e-06
0.000904327
-0.000903883
-3.89229e-06
3.58498e-06
0.000904246
-0.000903823
-3.21418e-06
2.79565e-06
0.00090429
-0.000903768
-2.71318e-06
2.37311e-06
0.000904151
-0.000903919
-2.06933e-06
1.89912e-06
0.000904123
-0.000903872
-1.86908e-06
1.6638e-06
0.000904102
-0.000903927
-1.60239e-06
1.45675e-06
0.000904086
-0.000903983
-1.56134e-06
1.57225e-06
0.000903975
-0.000904241
-1.33883e-06
1.40151e-06
0.000904167
-0.000904001
-1.72731e-06
1.03858e-06
0.000904665
-0.000907043
-1.20045e-06
4.06498e-06
0.000904138
-0.000903371
-2.95154e-06
-2.6052e-06
0.000908871
-0.000907878
1.37876e-06
-1.32619e-06
0.000907752
-0.000908333
1.33493e-06
-1.34031e-06
0.000908249
-0.000909604
1.26238e-06
-9.75225e-07
0.000909212
-0.000910086
7.64372e-07
-1.13355e-06
0.000910335
-0.000909505
1.40712e-06
-1.30856e-06
0.000909271
-0.000909302
1.00757e-06
-1.42409e-06
0.00090957
-0.000909077
1.47492e-06
-1.47477e-06
0.000908916
-0.000908938
1.2664e-06
-1.17659e-06
0.000908677
-0.000908945
9.77898e-07
-9.2615e-07
0.000908712
-0.000908986
7.14093e-07
-7.05733e-07
0.000908789
-0.000909011
6.8722e-07
-6.27984e-07
0.000908756
-0.00090904
5.58204e-07
-6.51668e-07
0.000908933
-0.000909072
6.35821e-07
-7.86295e-07
0.000909018
-0.000909508
9.28415e-07
-1.23853e-06
0.000909612
-0.000909749
1.84318e-06
-2.21865e-06
0.000909917
-0.000910093
2.09292e-06
-2.2387e-06
0.000910032
-0.000910343
2.1888e-06
-2.41211e-06
0.000910361
-0.000910399
2.64684e-06
-3.05751e-06
0.000910608
-0.000910367
3.39009e-06
-3.90373e-06
0.000910682
-0.00091035
4.35337e-06
-5.09295e-06
0.000910896
-0.000910357
5.68847e-06
-6.58907e-06
0.000911069
-0.0009104
7.37373e-06
-8.58852e-06
0.000911432
-0.000910599
9.62892e-06
-1.10408e-05
0.000911834
-0.000910788
1.24416e-05
-1.43834e-05
0.00091256
-0.000911227
1.63152e-05
-1.8807e-05
0.000913556
-0.000911826
2.15577e-05
-2.51828e-05
0.000915296
-0.000912995
2.93669e-05
-3.46267e-05
0.000918106
-0.000915023
4.11251e-05
-4.94196e-05
0.000923175
-0.000918788
6.0352e-05
-7.46604e-05
0.000932964
-0.000924544
9.42185e-05
-0.000124525
0.00095474
-0.000978375
0.000165549
-0.000143491
0.000956238
-0.000599974
8.48929e-05
0.000519372
-4.20928e-06
-0.00102211
-0.000134298
0.000131719
0.00102478
-0.000962949
-0.000111895
9.36698e-05
0.000981259
-0.000933387
-7.95862e-05
6.83028e-05
0.000944756
-0.000920616
-5.90511e-05
5.13532e-05
0.0009284
-0.000914352
-4.47214e-05
3.93219e-05
0.000919837
-0.000910777
-3.4587e-05
3.05581e-05
0.000914891
-0.00090826
-2.70397e-05
2.34133e-05
0.00091197
-0.000907239
-2.08372e-05
1.86201e-05
0.000909537
-0.000906371
-1.64392e-05
1.45266e-05
0.000908364
-0.000905879
-1.27825e-05
1.12453e-05
0.000907494
-0.00090536
-1.00336e-05
8.68604e-06
0.000906783
-0.000905253
-7.43375e-06
6.61824e-06
0.00090614
-0.000904918
-5.47968e-06
4.65626e-06
0.00090581
-0.000904732
-3.99986e-06
3.34161e-06
0.000905452
-0.000904677
-2.64538e-06
2.23493e-06
0.000905144
-0.000904342
-1.7844e-06
1.408e-06
0.000904767
-0.000904322
-9.93491e-07
7.42887e-07
0.000904612
-0.000904212
-5.56822e-07
5.24013e-07
0.000904272
-0.00090421
-1.60825e-07
1.40229e-07
0.000904247
-0.000903917
-3.93966e-07
-2.21791e-07
0.000904535
-0.000904933
5.55379e-07
5.27112e-07
0.00090384
-0.000906179
1.53132e-06
-3.17865e-06
0.000907798
-0.000908009
2.65869e-06
-2.31934e-06
0.000907627
-0.000907838
1.71764e-06
-1.70905e-06
0.00090777
-0.000908062
1.59545e-06
-1.61908e-06
0.000908011
-0.000908585
1.22761e-06
-8.13387e-07
0.00090808
-0.000910578
2.29448e-07
-3.94409e-07
0.000910638
-0.000909093
4.71929e-07
-2.67592e-07
0.000908767
-0.00090974
-1.66986e-07
3.52142e-07
0.000909421
-0.000908734
-4.15783e-07
5.22731e-07
0.00090848
-0.000908445
-8.95521e-07
1.13808e-06
0.000908046
-0.000908521
-1.4639e-06
1.62761e-06
0.000908191
-0.000908569
-1.92298e-06
1.89663e-06
0.000908421
-0.000908806
-2.14926e-06
2.1221e-06
0.000908651
-0.000908959
-2.1726e-06
2.03746e-06
0.000908907
-0.000909126
-1.97731e-06
1.62685e-06
0.000909286
-0.000910307
-9.49916e-07
-4.19382e-07
0.000911483
-0.000910107
3.22374e-07
-4.22451e-07
0.000910013
-0.000910226
7.58175e-07
-1.29383e-06
0.000910567
-0.000910667
1.67276e-06
-2.3563e-06
0.000911158
-0.000911043
2.89361e-06
-3.74224e-06
0.000911701
-0.000911367
4.55975e-06
-5.59901e-06
0.000912219
-0.000911763
6.62764e-06
-7.89474e-06
0.000912848
-0.000912266
9.28104e-06
-1.08321e-05
0.00091364
-0.000912831
1.24436e-05
-1.4462e-05
0.000914679
-0.000913748
1.65017e-05
-1.90131e-05
0.000916094
-0.000914961
2.17365e-05
-2.48318e-05
0.000917898
-0.000916929
2.83787e-05
-3.24586e-05
0.000920857
-0.000919913
3.72053e-05
-4.28476e-05
0.000925411
-0.000924999
4.9399e-05
-5.727e-05
0.000932733
-0.000933727
6.64921e-05
-7.78132e-05
0.000944918
-0.000949783
9.15016e-05
-0.000108596
0.000966758
-0.000985354
0.000130572
-0.000155071
0.00100975
-0.000906418
0.000157757
-9.17387e-05
0.000840321
-0.000458842
4.89983e-05
0.000412777
-2.84197e-06
-0.00101409
-0.00010074
0.000120455
0.000994468
-0.000997829
-0.0001146
0.000101144
0.00101137
-0.000955876
-8.83527e-05
7.78066e-05
0.000966508
-0.000936402
-6.8735e-05
6.10237e-05
0.000944201
-0.000925721
-5.42374e-05
4.83073e-05
0.00093174
-0.000919377
-4.30224e-05
3.83727e-05
0.000924116
-0.000915354
-3.41898e-05
3.04914e-05
0.000919143
-0.000912696
-2.72369e-05
2.42581e-05
0.000915765
-0.000910474
-2.14331e-05
1.85048e-05
0.000913492
-0.000909289
-1.64762e-05
1.43892e-05
0.000911465
-0.00090835
-1.23504e-05
1.08184e-05
0.00090997
-0.000907439
-9.20403e-06
7.7642e-06
0.000908963
-0.000906782
-6.42464e-06
5.23787e-06
0.000908049
-0.000906426
-4.03863e-06
3.17585e-06
0.000907365
-0.000905737
-2.39592e-06
1.638e-06
0.000906564
-0.000905393
-8.59972e-07
1.92637e-07
0.000906122
-0.000904979
1.9158e-07
-5.75788e-07
0.000905416
-0.000904688
9.74992e-07
-1.28469e-06
0.000905038
-0.000904216
1.20321e-06
-1.9433e-06
0.000904985
-0.000904863
2.28551e-06
-1.36347e-06
0.000903956
-0.000906044
3.55111e-06
-5.25627e-06
0.00090775
-0.000907336
4.78013e-06
-4.67753e-06
0.000907217
-0.000907165
4.1271e-06
-3.70281e-06
0.00090671
-0.000907259
3.28432e-06
-2.54996e-06
0.000906478
-0.000908371
1.86201e-06
-1.87195e-06
0.000908319
-0.000907307
1.16622e-06
-5.12769e-07
0.000906574
-0.000910466
-9.51583e-08
3.90715e-07
0.000910077
-0.00090832
-5.84179e-07
1.07891e-06
0.000907716
-0.000908481
-1.87934e-06
2.60733e-06
0.000907631
-0.000908581
-2.62759e-06
2.85133e-06
0.000908223
-0.000907654
-3.39431e-06
3.82429e-06
0.000907079
-0.000907883
-4.31811e-06
4.6336e-06
0.000907412
-0.000908232
-4.91822e-06
5.18198e-06
0.000907806
-0.000908585
-5.38962e-06
5.39688e-06
0.000908408
-0.000908974
-5.44495e-06
5.38592e-06
0.000908858
-0.000909494
-5.16405e-06
4.63081e-06
0.000909848
-0.000912538
-3.73339e-06
3.21905e-06
0.000912871
-0.000910427
-2.73258e-06
2.0278e-06
0.000910949
-0.000911146
-1.44875e-06
6.48603e-07
0.000911765
-0.000911815
1.33955e-07
-1.24255e-06
0.000912744
-0.000912657
2.2434e-06
-3.37648e-06
0.000913613
-0.000913401
4.61921e-06
-6.10643e-06
0.000914715
-0.000914397
7.72522e-06
-9.40534e-06
0.000915909
-0.000915516
1.13486e-05
-1.34814e-05
0.000917486
-0.000916868
1.57183e-05
-1.83875e-05
0.00091938
-0.000918725
2.11196e-05
-2.43444e-05
0.000921799
-0.000921461
2.77149e-05
-3.16663e-05
0.000925269
-0.000925433
3.58782e-05
-4.0798e-05
0.000930216
-0.000931419
4.62406e-05
-5.2367e-05
0.000937416
-0.000940696
5.93437e-05
-6.73609e-05
0.000948591
-0.000955985
7.64357e-05
-8.67239e-05
0.000966158
-0.000982473
9.80865e-05
-0.000112225
0.000996507
-0.00102457
0.000126959
-0.000131093
0.00102862
-0.000771142
0.000102494
-3.946e-05
0.000708028
-0.00037703
2.97394e-05
0.000349085
-1.68917e-06
-0.000969619
-7.19257e-05
9.96192e-05
0.000942029
-0.00102177
-0.000105181
9.84425e-05
0.00102859
-0.00097639
-8.86131e-05
7.92001e-05
0.000985892
-0.000951637
-7.1033e-05
6.39455e-05
0.000958816
-0.000937763
-5.75203e-05
5.18368e-05
0.000943539
-0.000928909
-4.66198e-05
4.1905e-05
0.000933719
-0.000923067
-3.75517e-05
3.37137e-05
0.000927002
-0.000918906
-3.0057e-05
2.67447e-05
0.000922316
-0.00091599
-2.37594e-05
2.10655e-05
0.000918783
-0.000913827
-1.85509e-05
1.61851e-05
0.000916291
-0.000912068
-1.35624e-05
1.14624e-05
0.000914265
-0.00091065
-9.68927e-06
8.00962e-06
0.000912424
-0.000909665
-6.13715e-06
4.84438e-06
0.000911049
-0.00090833
-3.55188e-06
2.21985e-06
0.000909747
-0.0009075
-1.08675e-06
3.87558e-09
0.000908662
-0.000906837
8.79843e-07
-1.42154e-06
0.000907449
-0.000906118
2.3615e-06
-2.76784e-06
0.000906585
-0.000905031
2.96525e-06
-4.14175e-06
0.000906256
-0.000905471
4.59727e-06
-3.74141e-06
0.000904651
-0.000906259
6.18256e-06
-8.17418e-06
0.000908272
-0.000907253
7.67188e-06
-7.68006e-06
0.000907267
-0.00090679
7.15524e-06
-6.58728e-06
0.000906212
-0.00090627
6.06926e-06
-5.33669e-06
0.000905511
-0.000905807
4.51674e-06
-3.78979e-06
0.000905036
-0.000907675
2.96e-06
-2.30844e-06
0.000906963
-0.000905818
1.25866e-06
-2.72517e-07
0.000904755
-0.000909647
-6.3664e-07
1.18493e-06
0.000909007
-0.000907077
-1.8598e-06
2.53043e-06
0.000906297
-0.000906943
-3.54781e-06
4.34111e-06
0.000906028
-0.000907717
-4.93223e-06
5.5367e-06
0.000906977
-0.000906482
-6.34807e-06
7.01254e-06
0.000905671
-0.000906948
-7.71478e-06
8.19975e-06
0.000906307
-0.000907517
-8.74473e-06
9.02874e-06
0.000907069
-0.000908202
-9.32473e-06
9.38779e-06
0.000907968
-0.000908945
-9.45961e-06
9.29338e-06
0.000908936
-0.000911134
-8.93305e-06
7.73068e-06
0.000912158
-0.000912372
-6.93213e-06
6.78288e-06
0.000912341
-0.000911463
-6.23289e-06
5.43981e-06
0.000912076
-0.000912602
-4.54217e-06
3.50167e-06
0.000913464
-0.000913713
-2.44974e-06
1.05189e-06
0.000914935
-0.000915032
2.64415e-07
-1.83003e-06
0.000916426
-0.000916309
3.42745e-06
-5.38332e-06
0.000918098
-0.000917918
7.29017e-06
-9.46767e-06
0.000919934
-0.000919762
1.18241e-05
-1.43708e-05
0.000922154
-0.0009221
1.70302e-05
-2.00094e-05
0.000924932
-0.000925068
2.31487e-05
-2.68553e-05
0.000928635
-0.000929338
3.05766e-05
-3.47155e-05
0.000933344
-0.000935073
3.91503e-05
-4.41798e-05
0.000939977
-0.000943527
4.9598e-05
-5.56082e-05
0.00094942
-0.000956192
6.16117e-05
-6.79205e-05
0.000962391
-0.000975149
7.56855e-05
-8.43578e-05
0.000983718
-0.00100859
9.40806e-05
-0.000104033
0.00101845
-0.00102381
0.000109142
-9.80444e-05
0.00101263
-0.000654058
6.23888e-05
-1.76663e-05
0.000609256
-0.000326741
1.92592e-05
0.000308681
-1.08158e-06
-0.000913789
-5.14635e-05
7.91316e-05
0.000886234
-0.00103215
-9.14773e-05
9.08548e-05
0.00103287
-0.000994153
-8.43417e-05
7.68439e-05
0.00100174
-0.000965685
-6.98619e-05
6.36328e-05
0.000972009
-0.000949593
-5.79061e-05
5.29826e-05
0.000954615
-0.000938419
-4.76466e-05
4.26982e-05
0.000943468
-0.000931028
-3.79029e-05
3.39614e-05
0.000935072
-0.000925676
-3.02291e-05
2.67901e-05
0.000929219
-0.000921767
-2.36293e-05
2.07296e-05
0.000924773
-0.000918764
-1.79784e-05
1.54633e-05
0.000921385
-0.000916482
-1.31794e-05
1.10094e-05
0.000918758
-0.000914523
-9.15785e-06
7.1004e-06
0.000916683
-0.00091265
-5.05051e-06
3.29137e-06
0.000914509
-0.000911273
-1.63796e-06
1.6379e-07
0.000912841
-0.000909818
1.20146e-06
-2.29249e-06
0.000910996
-0.000908641
3.57152e-06
-4.48234e-06
0.00090963
-0.00090701
4.96778e-06
-6.49653e-06
0.000908607
-0.000906912
7.38413e-06
-6.71399e-06
0.000906297
-0.000907367
9.7358e-06
-1.18333e-05
0.000909507
-0.000907803
1.14234e-05
-1.16712e-05
0.000908077
-0.000906736
1.11505e-05
-1.08105e-05
0.000906406
-0.000905845
1.03069e-05
-9.47909e-06
0.000905009
-0.000904697
8.57466e-06
-7.68544e-06
0.000903783
-0.00090408
6.57587e-06
-5.58094e-06
0.000903041
-0.00090607
4.74155e-06
-3.37523e-06
0.000904642
-0.000903544
1.89938e-06
-4.86704e-07
0.00090205
-0.000908256
-9.03859e-07
1.96493e-06
0.000907097
-0.000905226
-3.02707e-06
4.32352e-06
0.000903814
-0.000905013
-5.66355e-06
7.05912e-06
0.000903487
-0.000906201
-8.50892e-06
8.99024e-06
0.000905576
-0.000904807
-9.95288e-06
1.08973e-05
0.000903707
-0.000905637
-1.1873e-05
1.26008e-05
0.000904743
-0.00090674
-1.32376e-05
1.37782e-05
0.000906026
-0.000907789
-1.41995e-05
1.44443e-05
0.000907364
-0.00090912
-1.4467e-05
1.40103e-05
0.000909394
-0.000913801
-1.27325e-05
1.13763e-05
0.000914971
-0.000912369
-1.18766e-05
1.15998e-05
0.00091246
-0.000913073
-1.07994e-05
9.82652e-06
0.000913862
-0.000914633
-8.82642e-06
7.45914e-06
0.000915821
-0.000916279
-6.06142e-06
4.50108e-06
0.000917664
-0.000918054
-2.90623e-06
1.05094e-06
0.00091974
-0.000920027
9.4894e-07
-3.10799e-06
0.000922022
-0.000922191
5.32331e-06
-7.90662e-06
0.000924618
-0.000924878
1.04641e-05
-1.32975e-05
0.000927564
-0.000928076
1.63315e-05
-1.95556e-05
0.00093116
-0.000932165
2.3012e-05
-2.66787e-05
0.000935701
-0.00093745
3.05096e-05
-3.47862e-05
0.000941603
-0.00094477
3.91648e-05
-4.33192e-05
0.000948809
-0.000954123
4.75222e-05
-5.29343e-05
0.000959427
-0.000969064
5.87647e-05
-6.50669e-05
0.000975266
-0.000991661
7.16651e-05
-7.89772e-05
0.00099888
-0.00102608
8.64229e-05
-9.19532e-05
0.00103153
-0.000997439
8.96538e-05
-7.20949e-05
0.000979804
-0.00057262
4.01743e-05
-1.00988e-05
0.000542469
-0.000293646
1.34171e-05
0.000281102
-7.49005e-07
-0.000859802
-3.78163e-05
6.2569e-05
0.000835169
-0.00103111
-7.76317e-05
8.13015e-05
0.00102754
-0.00100857
-7.79727e-05
7.21591e-05
0.00101448
-0.000977854
-6.60858e-05
6.03873e-05
0.000983652
-0.000959694
-5.52895e-05
5.048e-05
0.000964606
-0.000947841
-4.58944e-05
4.17112e-05
0.00095213
-0.00093957
-3.76944e-05
3.39383e-05
0.000943435
-0.000933582
-3.03224e-05
2.71547e-05
0.00093686
-0.000927914
-2.30783e-05
1.92318e-05
0.000931873
-0.00092407
-1.50879e-05
1.23962e-05
0.000926874
-0.000920912
-9.8074e-06
7.42295e-06
0.00092341
-0.00091843
-5.23775e-06
3.24885e-06
0.00092053
-0.000916468
-1.56129e-06
1.67462e-07
0.00091797
-0.000914406
1.02292e-06
-2.63126e-06
0.000916116
-0.000912668
4.63272e-06
-6.14007e-06
0.000914271
-0.000910394
7.21876e-06
-9.21594e-06
0.000912477
-0.000909756
1.0561e-05
-1.02031e-05
0.000909475
-0.000909664
1.37532e-05
-1.53026e-05
0.000911277
-0.000909801
1.56381e-05
-1.65709e-05
0.000910784
-0.000907719
1.65038e-05
-1.63607e-05
0.000907609
-0.000905921
1.60158e-05
-1.53961e-05
0.000905317
-0.000904109
1.4365e-05
-1.3537e-05
0.000903277
-0.000902678
1.23321e-05
-1.10177e-05
0.000901341
-0.000902325
9.50763e-06
-8.17121e-06
0.000900944
-0.000902368
7.09505e-06
-4.99689e-06
0.000900204
-0.000900271
2.86705e-06
-8.83285e-07
0.0008982
-0.000905752
-1.08707e-06
2.70907e-06
0.000904025
-0.000902265
-4.43953e-06
6.30579e-06
0.000900273
-0.000901178
-8.30154e-06
1.02548e-05
0.000899083
-0.000905882
-1.24618e-05
1.31491e-05
0.000905038
-0.000902644
-1.44294e-05
1.57447e-05
0.000901159
-0.000903804
-1.70766e-05
1.81018e-05
0.000902598
-0.000905411
-1.90875e-05
1.97302e-05
0.000904581
-0.000907184
-2.0315e-05
2.05666e-05
0.00090674
-0.000910453
-2.07567e-05
2.01217e-05
0.000910893
-0.00091468
-1.8933e-05
1.89008e-05
0.000914516
-0.000913008
-1.8509e-05
1.7703e-05
0.000913621
-0.000914836
-1.67441e-05
1.54849e-05
0.000915906
-0.000917111
-1.4277e-05
1.26812e-05
0.000918524
-0.000919363
-1.11399e-05
9.22297e-06
0.000921104
-0.000921746
-7.36147e-06
5.13475e-06
0.000923804
-0.000924235
-2.96202e-06
4.30526e-07
0.000926606
-0.000927149
2.05187e-06
-4.78455e-06
0.00092973
-0.000930432
7.58097e-06
-1.07308e-05
0.00093344
-0.000934395
1.38561e-05
-1.7337e-05
0.000937744
-0.000939335
2.08088e-05
-2.46419e-05
0.000943046
-0.00094538
2.73621e-05
-3.08589e-05
0.000948763
-0.000953178
3.53031e-05
-3.98157e-05
0.000957586
-0.000964759
4.45885e-05
-4.94429e-05
0.000969516
-0.000981022
5.48073e-05
-6.02996e-05
0.000986424
-0.00100552
6.61706e-05
-7.21785e-05
0.00101145
-0.00103494
7.75369e-05
-7.93797e-05
0.0010367
-0.000961304
7.27642e-05
-5.41308e-05
0.000942602
-0.000517423
2.79126e-05
-6.84465e-06
0.000496285
-0.000270386
9.89017e-06
0.000261183
-5.51575e-07
-0.000812306
-2.85638e-05
4.97967e-05
0.000791203
-0.0010224
-6.51312e-05
7.13774e-05
0.00101625
-0.00101963
-7.0448e-05
6.62749e-05
0.00102391
-0.000989033
-6.10695e-05
5.58916e-05
0.000994314
-0.000969303
-5.10805e-05
4.66031e-05
0.000973887
-0.000956376
-4.22879e-05
3.82101e-05
0.000960563
-0.000947108
-3.43414e-05
3.05741e-05
0.000950988
-0.000940209
-2.71006e-05
2.36133e-05
0.000943812
-0.000934918
-2.05149e-05
1.73986e-05
0.000938152
-0.000930864
-1.45615e-05
1.1911e-05
0.000933633
-0.000927416
-9.33165e-06
6.83565e-06
0.000930032
-0.000922714
-3.28755e-06
-2.73664e-07
0.000926393
-0.000919768
3.74666e-06
-7.1257e-06
0.000923263
-0.000917214
9.99792e-06
-1.17541e-05
0.000919082
-0.000915164
1.30951e-05
-1.36252e-05
0.0009158
-0.000915054
1.29123e-05
-1.04912e-05
0.000912731
-0.000913447
1.82357e-05
-2.03895e-05
0.000915689
-0.000911903
2.12446e-05
-2.21524e-05
0.000912886
-0.00091077
2.19381e-05
-2.17933e-05
0.000910687
-0.000907677
2.26023e-05
-2.27672e-05
0.000907885
-0.000904639
2.22768e-05
-2.15593e-05
0.000903946
-0.000902158
2.04651e-05
-1.91155e-05
0.000900812
-0.000899819
1.7515e-05
-1.57504e-05
0.000898036
-0.000899223
1.37469e-05
-1.16576e-05
0.000897089
-0.000898139
9.55982e-06
-7.14249e-06
0.000895653
-0.00089588
4.44212e-06
-1.74438e-06
0.00089309
-0.000902023
-9.9778e-07
3.39759e-06
0.000899508
-0.000898008
-5.89524e-06
8.54162e-06
0.000895224
-0.000896852
-1.13377e-05
1.38925e-05
0.000894141
-0.000903528
-1.62928e-05
1.79707e-05
0.000901677
-0.000899504
-2.00523e-05
2.19048e-05
0.000897464
-0.000901315
-2.36822e-05
2.50944e-05
0.000899705
-0.000903735
-2.6392e-05
2.7381e-05
0.000902542
-0.000906336
-2.80552e-05
2.82282e-05
0.000905955
-0.000912116
-2.72064e-05
2.50065e-05
0.000914107
-0.000914101
-2.6159e-05
2.6722e-05
0.000913331
-0.00091441
-2.63033e-05
2.52339e-05
0.000915278
-0.000917177
-2.40826e-05
2.26003e-05
0.000918465
-0.000920051
-2.11535e-05
1.9399e-05
0.000921621
-0.000922865
-1.7588e-05
1.52911e-05
0.000924986
-0.000925879
-1.32468e-05
1.07377e-05
0.000928223
-0.000929085
-8.18168e-06
5.484e-06
0.000931628
-0.000932606
-2.63693e-06
-3.36872e-07
0.000935436
-0.00093651
3.46107e-06
-6.70075e-06
0.000939616
-0.000941219
9.78857e-06
-1.21602e-05
0.000943468
-0.000945705
1.55189e-05
-1.92862e-05
0.000949359
-0.00095277
2.31215e-05
-2.72646e-05
0.000956809
-0.00096204
3.13824e-05
-3.56988e-05
0.000966261
-0.000974348
4.02218e-05
-4.49521e-05
0.000978991
-0.00099171
4.98185e-05
-5.50452e-05
0.000996856
-0.001017
6.0873e-05
-6.60938e-05
0.00102214
-0.00103714
6.96119e-05
-6.93899e-05
0.00103685
-0.00092432
6.1455e-05
-4.39948e-05
0.000906798
-0.000478031
2.22884e-05
-5.94492e-06
0.000461626
-0.0002532
7.50722e-06
0.000246259
-4.21731e-07
-0.000771921
-2.20532e-05
3.9754e-05
0.000754358
-0.00100892
-5.42473e-05
6.19575e-05
0.00100131
-0.00102738
-6.32021e-05
6.03825e-05
0.0010303
-0.000999218
-5.60073e-05
5.12755e-05
0.00100405
-0.000978742
-4.67493e-05
4.28185e-05
0.00098278
-0.00096463
-3.84636e-05
3.44159e-05
0.000968788
-0.000954689
-3.03209e-05
2.63931e-05
0.000958731
-0.00094728
-2.21884e-05
1.87775e-05
0.000950808
-0.000941291
-1.54013e-05
1.21818e-05
0.000944631
-0.000936444
-9.10134e-06
6.18024e-06
0.000939489
-0.000932511
-3.40164e-06
7.87529e-07
0.00093525
-0.000929351
1.57237e-06
-3.55319e-06
0.000931457
-0.000925546
6.40044e-06
-9.37196e-06
0.000928642
-0.000922097
1.11358e-05
-1.3317e-05
0.0009244
-0.000920014
1.67238e-05
-1.80717e-05
0.000921482
-0.000914452
1.81022e-05
-2.77748e-05
0.000924237
-0.000916218
2.81172e-05
-2.96727e-05
0.000917878
-0.00091333
3.02112e-05
-3.06855e-05
0.000913896
-0.000910743
3.09173e-05
-3.04534e-05
0.000910358
-0.000908175
2.95081e-05
-3.02183e-05
0.000908945
-0.000902972
3.0597e-05
-2.9966e-05
0.000902381
-0.000899365
2.85847e-05
-2.687e-05
0.000897665
-0.000896047
2.48273e-05
-2.24584e-05
0.000893667
-0.000894696
1.97876e-05
-1.69471e-05
0.000891816
-0.000892847
1.39951e-05
-1.06868e-05
0.00088947
-0.0008899
7.01956e-06
-3.28178e-06
0.000886064
-0.000896593
-5.45053e-07
4.00491e-06
0.000893008
-0.000892049
-7.58894e-06
1.12816e-05
0.000888205
-0.000891069
-1.51254e-05
1.86889e-05
0.000887334
-0.000899429
-2.20475e-05
2.48479e-05
0.000896436
-0.000895214
-2.74242e-05
2.98917e-05
0.000892539
-0.000897991
-3.22597e-05
3.41247e-05
0.000895908
-0.000901427
-3.57926e-05
3.69574e-05
0.000900039
-0.000905917
-3.7638e-05
3.64473e-05
0.000906881
-0.000915216
-3.46056e-05
3.60155e-05
0.000913581
-0.000913028
-3.72507e-05
3.67673e-05
0.000913293
-0.000916252
-3.59565e-05
3.45457e-05
0.000917454
-0.000919881
-3.32281e-05
3.14544e-05
0.000921456
-0.000923634
-2.96933e-05
2.76159e-05
0.000925526
-0.00092715
-2.53667e-05
2.28383e-05
0.000929505
-0.0009307
-2.03536e-05
1.75189e-05
0.000933376
-0.000934495
-1.47436e-05
1.16407e-05
0.000937451
-0.000938566
-8.60447e-06
5.89046e-06
0.000941145
-0.000942057
-3.56164e-06
2.17979e-07
0.000945277
-0.000947076
3.36241e-06
-7.00729e-06
0.000950608
-0.000953201
1.07906e-05
-1.4731e-05
0.00095704
-0.000960882
1.89225e-05
-2.35925e-05
0.000965459
-0.000970682
2.79896e-05
-3.30854e-05
0.000975694
-0.000983682
3.8701e-05
-4.37171e-05
0.000988621
-0.00100245
4.81544e-05
-5.19655e-05
0.00100619
-0.00102724
5.50077e-05
-5.83631e-05
0.00103053
-0.00103392
6.00971e-05
-5.71601e-05
0.00103092
-0.000889349
4.71222e-05
-3.14849e-05
0.000873656
-0.000448161
1.48138e-05
-3.3033e-06
0.000436598
-0.000240159
5.81711e-06
0.000234814
-3.28404e-07
-0.000738214
-1.72958e-05
3.19137e-05
0.000723734
-0.000993228
-4.51331e-05
5.3392e-05
0.000985072
-0.00103254
-5.5825e-05
5.43405e-05
0.00103412
-0.00100864
-5.07413e-05
4.65304e-05
0.00101295
-0.000987022
-4.24429e-05
3.82143e-05
0.000991357
-0.000972753
-3.40645e-05
2.99738e-05
0.000976955
-0.000962513
-2.59085e-05
2.16542e-05
0.000966882
-0.000954646
-1.80457e-05
1.45598e-05
0.000958251
-0.000948418
-1.107e-05
7.80985e-06
0.000951801
-0.000943321
-4.54656e-06
1.5181e-06
0.000946476
-0.000938071
2.34051e-06
-6.05494e-06
0.000941915
-0.000933877
9.95895e-06
-1.4123e-05
0.000938172
-0.000930228
1.71096e-05
-1.94098e-05
0.000932662
-0.000928298
2.11453e-05
-2.11513e-05
0.000928438
-0.000921817
2.17179e-05
-3.24529e-05
0.000932686
-0.000923973
3.24748e-05
-3.51091e-05
0.000926737
-0.000920129
3.73458e-05
-3.87827e-05
0.00092169
-0.000915004
4.03195e-05
-4.16363e-05
0.000916435
-0.000910149
4.27643e-05
-4.33198e-05
0.000910807
-0.000907938
4.29289e-05
-4.18216e-05
0.000906913
-0.000902109
4.16513e-05
-4.14322e-05
0.000901952
-0.000895879
3.99586e-05
-3.77047e-05
0.000893659
-0.000891042
3.50531e-05
-3.19801e-05
0.000887974
-0.000888561
2.84569e-05
-2.46142e-05
0.000884688
-0.000885607
2.04938e-05
-1.6018e-05
0.000881066
-0.000881652
1.09803e-05
-5.82245e-06
0.000876393
-0.000888816
4.95265e-07
4.49107e-06
0.000883695
-0.000883768
-9.60511e-06
1.48168e-05
0.00087839
-0.00088312
-2.00948e-05
2.49695e-05
0.000878055
-0.000893001
-2.95216e-05
3.35434e-05
0.000888765
-0.000889923
-3.74416e-05
4.07733e-05
0.00088636
-0.000893668
-4.3569e-05
4.59755e-05
0.00089102
-0.000898826
-4.80535e-05
4.91975e-05
0.000897436
-0.000908305
-4.87859e-05
4.72825e-05
0.000909561
-0.000911649
-4.90079e-05
5.00381e-05
0.000910378
-0.00091399
-4.98719e-05
4.89193e-05
0.000914713
-0.000918722
-4.76803e-05
4.61018e-05
0.000920085
-0.000923322
-4.42895e-05
4.20941e-05
0.000925317
-0.000927814
-3.98016e-05
3.72851e-05
0.000930147
-0.00093205
-3.45956e-05
3.1738e-05
0.00093474
-0.000936322
-2.87264e-05
2.55894e-05
0.000939307
-0.000940336
-2.31668e-05
2.04403e-05
0.000942926
-0.000943936
-1.6957e-05
1.33044e-05
0.000947466
-0.000948991
-9.43053e-06
4.99235e-06
0.000953319
-0.000954599
-7.48456e-07
-4.05103e-06
0.000959299
-0.000961203
9.50698e-06
-1.40235e-05
0.000965629
-0.000971086
1.71527e-05
-1.9295e-05
0.000973147
-0.00097899
2.25077e-05
-2.63561e-05
0.000982764
-0.000992167
3.00058e-05
-3.42064e-05
0.000996301
-0.00101059
3.85713e-05
-4.28993e-05
0.00101486
-0.001034
4.70841e-05
-5.03203e-05
0.00103718
-0.0010276
5.09933e-05
-4.71759e-05
0.00102373
-0.000859104
3.77317e-05
-2.4377e-05
0.000845701
-0.000426654
1.11052e-05
-2.40343e-06
0.000417909
-0.000230072
4.57791e-06
0.000225896
-2.61294e-07
-0.000710253
-1.37319e-05
2.59179e-05
0.000698202
-0.000976978
-3.75076e-05
4.56263e-05
0.00096896
-0.00103527
-4.89435e-05
4.84004e-05
0.00103591
-0.00101737
-4.54905e-05
4.18854e-05
0.00102108
-0.000995601
-3.76446e-05
3.3608e-05
0.000999742
-0.000980777
-2.93826e-05
2.52945e-05
0.000984974
-0.000970374
-2.08762e-05
1.72105e-05
0.000974152
-0.000962296
-1.3512e-05
1.00097e-05
0.000965916
-0.000955972
-6.35994e-06
3.01286e-06
0.000959442
-0.00094981
4.79948e-07
-4.50699e-06
0.000953964
-0.000944931
8.67025e-06
-1.30376e-05
0.000949431
-0.000940644
1.77401e-05
-2.11614e-05
0.000944203
-0.000937045
2.40685e-05
-2.62109e-05
0.00093933
-0.000933515
2.67877e-05
-2.7849e-05
0.000934722
-0.000933639
4.05313e-05
-4.27841e-05
0.000936042
-0.000929019
4.57224e-05
-4.72847e-05
0.000930731
-0.000924217
4.89284e-05
-5.08394e-05
0.000926277
-0.000917872
5.32474e-05
-5.52052e-05
0.000919972
-0.00091164
5.65465e-05
-5.7341e-05
0.000912567
-0.000905915
5.77236e-05
-5.69979e-05
0.000905304
-0.000902458
5.52665e-05
-5.483e-05
0.000902115
-0.000891624
5.46534e-05
-5.28318e-05
0.000889865
-0.00088447
4.97326e-05
-4.58977e-05
0.000880663
-0.000879992
4.11406e-05
-3.48392e-05
0.000873677
-0.000876388
2.70591e-05
-2.25987e-05
0.000871871
-0.000870303
1.69122e-05
-9.90134e-06
0.000863189
-0.000877671
2.42076e-06
4.811e-06
0.000870295
-0.000872166
-1.21879e-05
1.95379e-05
0.000864632
-0.00087254
-2.66657e-05
3.19694e-05
0.000867022
-0.000883196
-3.60385e-05
4.38735e-05
0.000875119
-0.00088235
-5.05223e-05
5.51927e-05
0.00087742
-0.000888371
-5.91379e-05
6.1868e-05
0.000885371
-0.000896837
-6.3506e-05
6.23521e-05
0.000897718
-0.000909111
-6.12675e-05
6.43466e-05
0.000905763
-0.000909764
-6.63479e-05
6.62326e-05
0.000909625
-0.000915775
-6.52454e-05
6.37808e-05
0.000917002
-0.000921909
-6.19936e-05
5.97373e-05
0.000923947
-0.000927581
-5.73188e-05
5.46224e-05
0.000930079
-0.000932842
-5.18169e-05
4.86038e-05
0.000935878
-0.000937878
-4.55369e-05
4.2774e-05
0.000940483
-0.000941752
-3.96491e-05
3.55912e-05
0.00094567
-0.00094674
-3.07021e-05
2.5541e-05
0.000951778
-0.000951661
-1.95477e-05
1.49645e-05
0.000956134
-0.000959123
-1.20555e-05
1.03134e-05
0.000960767
-0.000962171
-7.24501e-06
3.47136e-06
0.000965857
-0.000968663
-4.61209e-08
-3.86636e-06
0.000972497
-0.00097667
7.86354e-06
-1.20284e-05
0.000980765
-0.000986911
1.61767e-05
-2.03893e-05
0.000991061
-0.00100045
2.46027e-05
-2.88924e-05
0.00100468
-0.00101916
3.30705e-05
-3.73284e-05
0.00102337
-0.00103991
4.11294e-05
-4.36944e-05
0.00104242
-0.00101949
4.34354e-05
-3.91735e-05
0.00101518
-0.000833273
3.03055e-05
-1.89147e-05
0.000821841
-0.000410226
8.37667e-06
-1.69022e-06
0.000403504
-0.000222124
3.61348e-06
0.000218867
-2.13398e-07
-0.000687088
-1.10149e-05
2.1196e-05
0.000677042