/*--------------------------------*- C++ -*----------------------------------*\
  =========                 |
  \\      /  F ield         | OpenFOAM: The Open Source CFD Toolbox
   \\    /   O peration     | Website:  https://openfoam.org
    \\  /    A nd           | Version:  7
     \\/     M anipulation  |
\*---------------------------------------------------------------------------*/
FoamFile
{
    version     2.0;
    format      ascii;
    class       volVectorField;
    location    "100";
    object      U;
}
// * * * * * * * * * * * * * * * * * * * * * * * * * * * * * * * * * * * * * //

dimensions      [0 1 -1 0 0 0 0];

internalField   nonuniform List<vector> 
17475
(
(1.01828 0.205797 -1.6381e-20)
(0.995996 0.0223738 -2.59937e-20)
(0.999788 0.00973749 0)
(0.999944 0.00488233 0)
(0.99998 0.00304136 0)
(0.999991 0.00208188 0)
(0.999995 0.00149693 0)
(0.999996 0.00110289 0)
(0.999997 0.000819071 -5.36739e-20)
(0.999998 0.00060494 0)
(0.999998 0.000437726 0)
(0.999998 0.000304181 0)
(0.999998 0.000195955 0)
(0.999998 0.000107693 0)
(0.999998 3.58146e-05 0)
(0.999998 -2.19088e-05 0)
(0.999999 -6.71769e-05 0)
(0.999999 -0.000100986 0)
(0.999999 -0.000124266 0)
(0.999999 -0.000137561 0)
(0.999999 -0.000141592 -2.05534e-19)
(0.999999 -0.000136911 4.16852e-22)
(1 -0.000124419 0)
(1 -0.000104789 -6.48892e-21)
(1 -7.93544e-05 0)
(1 -4.87801e-05 -1.29905e-20)
(1 -1.53162e-05 0)
(1 2.00018e-05 0)
(1 5.54514e-05 -1.62584e-21)
(1 8.95975e-05 5.19138e-20)
(1 0.000120742 5.10438e-20)
(1 0.00014754 0)
(1 0.000168546 0)
(1 0.000182711 -5.12037e-20)
(1 0.000188931 -5.10903e-20)
(1 0.000186464 0)
(1 0.000174492 -3.95149e-22)
(1 0.000152427 0)
(1 0.000119502 5.01324e-20)
(1 7.47997e-05 2.50089e-20)
(1 1.75798e-05 -2.49623e-20)
(1 -5.32986e-05 0)
(1 -0.000140002 -2.50246e-20)
(1 -0.000245645 0)
(1 -0.000375113 -1.26431e-20)
(1 -0.000535714 0)
(1 -0.000738976 2.61006e-20)
(1 -0.00100323 0)
(0.999999 -0.00135882 0)
(0.999997 -0.00185731 0)
(0.999994 -0.00258843 0)
(0.99999 -0.00369313 -1.60686e-20)
(0.999954 -0.00538141 3.57987e-20)
(0.998953 -0.00294934 3.95235e-20)
(1.02905 -0.0897338 -3.90186e-20)
(0.871282 0.0788246 1.65744e-20)
(1.10045 0.0971648 0)
(1.03494 0.0583175 0)
(1.01518 0.0371437 0)
(1.008 0.025084 -1.13421e-19)
(1.00486 0.0177135 -1.07537e-19)
(1.00326 0.0128594 1.0101e-19)
(1.00236 0.00944948 0)
(1.00179 0.00692592 0)
(1.00142 0.00498339 0)
(1.00115 0.00344224 0)
(1.00095 0.0021938 0)
(1.0008 0.0011683 0)
(1.00067 0.000320949 0)
(1.00056 -0.000378231 0)
(1.00047 -0.000948686 0)
(1.00038 -0.00140478 0)
(1.00029 -0.00175506 0)
(1.00021 -0.00200725 0)
(1.00013 -0.0021663 0)
(1.00006 -0.00223843 0)
(0.999983 -0.00222838 0)
(0.999915 -0.00214233 2.15392e-19)
(0.999855 -0.00199023 -5.40744e-20)
(0.9998 -0.00177942 -1.10029e-19)
(0.999755 -0.00152074 3.87241e-22)
(0.999721 -0.00122941 -1.41103e-20)
(0.999695 -0.000917287 0)
(0.999682 -0.000598938 -7.2229e-21)
(0.999679 -0.000289079 7.29306e-21)
(0.999688 -2.05025e-06 -1.17588e-19)
(0.999707 0.000249239 1.20376e-19)
(0.999736 0.000452395 0)
(0.999773 0.000597332 -2.40393e-19)
(0.999817 0.000674632 1.88993e-21)
(0.999868 0.00067698 2.42827e-19)
(0.999926 0.00059751 0)
(0.999989 0.000430551 1.22692e-19)
(1.00006 0.000169987 0)
(1.00014 -0.000194345 -1.23492e-19)
(1.00023 -0.000670463 1.23973e-19)
(1.00033 -0.00127133 0)
(1.00045 -0.00201647 0)
(1.0006 -0.00293459 0)
(1.00078 -0.00406874 6.17233e-23)
(1.00104 -0.00548388 6.55577e-20)
(1.00139 -0.00727987 -6.70374e-20)
(1.00189 -0.00961419 -3.4214e-20)
(1.00265 -0.0127432 0)
(1.00386 -0.0171012 0)
(1.00588 -0.0234624 0)
(1.00942 -0.0332954 -3.86625e-20)
(1.01598 -0.0499056 4.01162e-20)
(1.02808 -0.0730414 2.40922e-21)
(1.07034 -0.178218 2.79577e-21)
(0.609905 0.0196794 8.2509e-21)
(1.13941 0.106519 -1.19206e-20)
(1.07869 0.0754668 -4.9378e-20)
(1.04127 0.0542837 0)
(1.02483 0.0401262 0)
(1.01625 0.0300836 -9.68673e-20)
(1.01137 0.0227226 0)
(1.00838 0.0171802 0)
(1.00643 0.0128951 0)
(1.0051 0.00950202 1.84785e-19)
(1.00415 0.00676126 0)
(1.00343 0.00451538 0)
(1.00286 0.00265776 0)
(1.00239 0.00111808 0)
(1.00199 -0.000152198 0)
(1.00163 -0.00118551 -1.89144e-19)
(1.0013 -0.00200425 0)
(1.00099 -0.00262373 0)
(1.00069 -0.00305561 0)
(1.00041 -0.0033092 0)
(1.00014 -0.00339364 4.10299e-19)
(0.999882 -0.00331852 0)
(0.999646 -0.00309824 1.60249e-19)
(0.999433 -0.00274322 -1.08937e-19)
(0.99925 -0.00227674 0)
(0.999103 -0.00172122 -2.80974e-20)
(0.998996 -0.00110271 0)
(0.998931 -0.000448782 3.58063e-20)
(0.998909 0.000212439 2.17201e-20)
(0.99893 0.00084851 0)
(0.998993 0.0014322 -1.03283e-19)
(0.999096 0.00193549 3.73429e-21)
(0.999233 0.00233452 -1.88507e-21)
(0.999402 0.0026094 -1.20427e-19)
(0.999596 0.00274259 1.20992e-19)
(0.999814 0.00272033 0)
(1.00005 0.00253097 2.36635e-19)
(1.00031 0.00216526 -2.45464e-19)
(1.00059 0.00161209 2.61639e-19)
(1.00089 0.000858185 0)
(1.00123 -0.000108815 3.11001e-20)
(1.00162 -0.00131129 -5.77041e-23)
(1.00207 -0.00278115 1.2596e-19)
(1.00262 -0.00456481 -1.90077e-22)
(1.00332 -0.00673149 -6.36345e-20)
(1.00423 -0.00938336 0)
(1.00549 -0.012674 0)
(1.00729 -0.0168357 3.28788e-20)
(1.00996 -0.0222271 -3.3856e-20)
(1.01412 -0.0294121 -5.3447e-22)
(1.02091 -0.0392887 1.04191e-19)
(1.03257 -0.0533321 -7.13579e-20)
(1.05363 -0.0737898 7.00777e-20)
(1.10002 -0.105553 0)
(0.962656 -0.117872 3.65459e-20)
(0.481225 0.0095384 0)
(1.11599 0.0898998 0)
(1.11517 0.0804716 2.05315e-20)
(1.06621 0.0611831 0)
(1.04285 0.0475 8.78297e-20)
(1.02984 0.0370666 0)
(1.02183 0.0288818 0)
(1.0166 0.022346 0)
(1.01303 0.0170483 0)
(1.01048 0.012696 0)
(1.0086 0.00908123 0)
(1.00714 0.00605434 0)
(1.00598 0.0035107 1.79342e-19)
(1.005 0.0013764 0)
(1.00416 -0.000399851 0)
(1.0034 -0.0018519 0)
(1.00269 -0.00300421 0)
(1.00202 -0.00387147 0)
(1.00138 -0.00446588 0)
(1.00077 -0.00479588 -1.98376e-19)
(1.00018 -0.00487106 0)
(0.999626 -0.00470469 0)
(0.999113 -0.00430986 -1.06695e-19)
(0.998657 -0.00371251 0)
(0.998271 -0.00294176 -1.66754e-19)
(0.997965 -0.00203221 2.81046e-20)
(0.99775 -0.0010236 -1.14444e-19)
(0.997631 3.73612e-05 2.26662e-22)
(0.997614 0.00110886 5.87824e-20)
(0.997694 0.0021358 4.41821e-20)
(0.99787 0.00307791 1.19062e-19)
(0.998134 0.00388805 3.74672e-21)
(0.998475 0.00453056 0)
(0.998883 0.00497543 2.72676e-22)
(0.999346 0.00519746 0)
(0.999854 0.00517777 -1.14617e-19)
(1.0004 0.00490233 -1.22579e-19)
(1.00099 0.00436114 1.22546e-19)
(1.00161 0.00353846 2.46761e-19)
(1.00228 0.00242589 1.00424e-19)
(1.00302 0.00100954 -3.10619e-20)
(1.00384 -0.000732077 -6.22999e-20)
(1.00479 -0.00283376 0)
(1.00594 -0.00534569 0)
(1.00736 -0.00834073 -6.28935e-20)
(1.00919 -0.0119238 6.30423e-20)
(1.01165 -0.0162454 1.58652e-19)
(1.01507 -0.0215199 3.21461e-20)
(1.01999 -0.0280516 -2.22664e-22)
(1.02734 -0.0362695 -3.1957e-20)
(1.03873 -0.0467774 1.27992e-19)
(1.05708 -0.060432 -9.51964e-20)
(1.0892 -0.078606 9.04885e-20)
(1.13249 -0.100783 5.78473e-20)
(0.812067 -0.0598675 -1.67971e-20)
(0.401189 0.00538703 0)
(1.06117 0.068899 -1.76425e-20)
(1.13845 0.0768273 3.49146e-20)
(1.08877 0.0617999 3.73777e-20)
(1.05988 0.049619 3.90604e-20)
(1.04348 0.0398781 7.97156e-20)
(1.03296 0.0317923 -8.08001e-20)
(1.0258 0.0250016 -8.16171e-20)
(1.02071 0.0192554 0)
(1.01695 0.0143627 -1.65909e-19)
(1.01409 0.0101758 -3.35464e-19)
(1.01182 0.00658383 -1.69455e-19)
(1.00996 0.0035053 -1.7178e-19)
(1.00838 0.000880454 0)
(1.00698 -0.00133101 0)
(1.0057 -0.00315625 0)
(1.0045 -0.0046116 -3.74481e-19)
(1.00336 -0.00570491 -4.25761e-21)
(1.00225 -0.00644251 -3.9182e-19)
(1.00117 -0.00682769 -1.98285e-19)
(1.00014 -0.00686938 -5.09459e-20)
(0.999158 -0.00657197 1.04239e-19)
(0.998254 -0.00595943 -1.06217e-19)
(0.997448 -0.00505931 1.0914e-19)
(0.996766 -0.00391059 0)
(0.996231 -0.00256086 -5.74936e-20)
(0.995863 -0.00106598 1.15901e-19)
(0.995674 0.000505135 0)
(0.995672 0.00209024 -2.9947e-20)
(0.995853 0.00360783 -1.50476e-20)
(0.996208 0.0050012 -1.20287e-19)
(0.996724 0.00620072 1.14156e-20)
(0.997377 0.00715645 0)
(0.998145 0.00782794 1.29999e-19)
(0.999006 0.00818302 0)
(0.999941 0.00820012 0)
(1.00093 0.0078663 -2.45853e-19)
(1.00198 0.00717237 -6.17359e-20)
(1.00308 0.00610577 1.31035e-19)
(1.00424 0.00466851 1.15736e-19)
(1.00549 0.00285102 -1.39254e-19)
(1.00686 0.000638334 -1.23986e-19)
(1.00843 -0.00199291 -1.55134e-19)
(1.01026 -0.00508456 9.30954e-20)
(1.0125 -0.00869493 1.2361e-19)
(1.01532 -0.0129069 -3.07613e-20)
(1.01899 -0.0178343 0)
(1.02395 -0.0236289 -6.15409e-20)
(1.03083 -0.0304886 -6.12322e-20)
(1.04072 -0.0386663 -3.0676e-20)
(1.0554 -0.0484685 -2.94399e-20)
(1.07811 -0.0602963 -8.73146e-20)
(1.11601 -0.0749062 -5.46445e-20)
(1.1219 -0.0827705 0)
(0.692759 -0.0291933 9.03926e-20)
(0.351817 0.0033479 0)
(0.998941 0.0514976 0)
(1.14685 0.0695238 -6.19987e-20)
(1.10784 0.0594443 -6.64086e-20)
(1.07517 0.048719 0)
(1.05626 0.0398752 0)
(1.0439 0.0322459 7.33505e-20)
(1.03523 0.0255728 0)
(1.02888 0.0197142 0)
(1.02407 0.0145589 0)
(1.02029 0.0100189 -1.58605e-19)
(1.01722 0.0060269 -1.61682e-19)
(1.01465 0.00253127 0)
(1.0124 -0.000503543 0)
(1.01038 -0.00309909 -3.79269e-21)
(1.0085 -0.00526652 0)
(1.00671 -0.00700687 7.24658e-19)
(1.00497 -0.00831729 7.46906e-19)
(1.00326 -0.00919011 -3.85201e-19)
(1.00159 -0.0096224 1.9458e-19)
(0.999965 -0.00960188 2.51565e-19)
(0.998414 -0.00913865 -5.229e-20)
(0.996973 -0.00825003 3.20691e-19)
(0.995683 -0.00696718 -5.48916e-20)
(0.994589 -0.00533822 6.40672e-22)
(0.993731 -0.00342452 -1.14915e-19)
(0.993149 -0.00130535 1.47581e-19)
(0.992866 0.000924848 1.18585e-19)
(0.992893 0.00317653 -5.74612e-22)
(0.993226 0.00533056 6.11165e-20)
(0.993843 0.00730803 6.18126e-20)
(0.994722 0.00901261 0)
(0.99582 0.0103753 -1.12173e-19)
(0.997095 0.0113457 0)
(0.998507 0.0118858 0)
(1.00002 0.0119746 1.54669e-19)
(1.00161 0.0116069 -1.23722e-19)
(1.00326 0.0107727 0)
(1.00495 0.00947791 7.69247e-21)
(1.00671 0.00773587 0)
(1.00857 0.00554983 0)
(1.01057 0.00291963 -1.38391e-19)
(1.0128 -0.000162741 1.53928e-20)
(1.01536 -0.00371591 9.14888e-23)
(1.01841 -0.00777748 -1.51327e-20)
(1.02216 -0.0123972 -1.51138e-19)
(1.02691 -0.0176433 -1.48905e-20)
(1.03314 -0.0236022 1.33473e-19)
(1.04155 -0.0303778 -1.17346e-19)
(1.05324 -0.0380868 0)
(1.07005 -0.0468736 5.57104e-20)
(1.09556 -0.0569894 7.20347e-22)
(1.13274 -0.0682152 -5.1652e-20)
(1.08833 -0.0649543 -7.83551e-20)
(0.611964 -0.0166618 0)
(0.31859 0.00231351 5.90005e-21)
(0.940708 0.0387247 -1.52643e-20)
(1.1435 0.0609319 2.80366e-20)
(1.12329 0.0555978 0)
(1.0889 0.0462261 0)
(1.06804 0.0381604 -6.41372e-20)
(1.05434 0.0310263 0)
(1.04456 0.0245895 -1.37516e-19)
(1.03723 0.0187572 -1.41019e-19)
(1.03154 0.0134741 0)
(1.02696 0.008697 -7.42879e-20)
(1.02317 0.00439979 1.52504e-19)
(1.01991 0.000555164 -3.11706e-19)
(1.01701 -0.00284757 0)
(1.01433 -0.00580762 0)
(1.01178 -0.00831499 0)
(1.00931 -0.0103539 -2.70842e-21)
(1.00687 -0.0118988 0)
(1.00444 -0.0129308 0)
(1.00201 -0.0134096 1.91385e-19)
(0.999624 -0.0133222 1.04572e-21)
(0.997323 -0.0126599 0)
(0.995162 -0.0114317 0)
(0.993211 -0.00966722 3.32591e-19)
(0.991546 -0.00742189 2.28465e-19)
(0.99024 -0.00477205 2.95089e-20)
(0.989356 -0.00183799 0)
(0.988939 0.00126337 2.43639e-19)
(0.98901 0.00439909 9.22267e-20)
(0.989562 0.0073936 -5.71943e-22)
(0.990557 0.0101399 0)
(0.991949 0.0125084 0)
(0.993665 0.0143985 7.92517e-21)
(0.995632 0.015753 0)
(0.997782 0.0165313 0)
(1.00005 0.0167195 3.82196e-22)
(1.0024 0.0163244 -2.4731e-19)
(1.00479 0.0153414 -1.23827e-19)
(1.00721 0.0138084 1.23018e-19)
(1.00967 0.0117536 7.64538e-21)
(1.01221 0.00920174 -1.21746e-19)
(1.01489 0.00617291 2.57051e-22)
(1.0178 0.00267989 2.39647e-22)
(1.02107 -0.00127175 1.51146e-20)
(1.02487 -0.0056899 -1.04392e-19)
(1.02942 -0.0105954 0)
(1.03507 -0.0160163 -1.31199e-19)
(1.04228 -0.0219837 0)
(1.05178 -0.0285431 -5.63249e-20)
(1.06469 -0.0357485 0)
(1.08291 -0.0436801 5.37157e-20)
(1.11012 -0.052527 -1.95292e-22)
(1.14044 -0.0606362 -2.43367e-20)
(1.04754 -0.0506342 -7.69101e-20)
(0.556795 -0.0111496 3.78737e-20)
(0.294886 0.00169843 0)
(0.89015 0.0296002 -1.42236e-20)
(1.13236 0.0524216 0)
(1.13502 0.0510155 0)
(1.10138 0.0429302 2.77363e-20)
(1.07899 0.0354498 7.48178e-22)
(1.06428 0.0287162 0)
(1.05369 0.0224968 -6.18484e-20)
(1.04563 0.016717 -1.2913e-19)
(1.03925 0.0113478 0)
(1.03403 0.00637524 0)
(1.0296 0.00179337 0)
(1.02571 -0.00239406 0)
(1.02216 -0.00617299 -2.25509e-19)
(1.01882 -0.00952158 -7.71102e-20)
(1.01559 -0.0124097 0)
(1.01237 -0.0147976 1.03743e-20)
(1.00911 -0.0166471 2.57888e-19)
(1.0058 -0.0178852 -1.54629e-21)
(1.00246 -0.0184615 -9.55923e-20)
(0.999108 -0.0183278 0)
(0.995826 -0.0174534 1.03011e-19)
(0.992702 -0.0158259 -8.64177e-22)
(0.989846 -0.0134656 1.13621e-19)
(0.987385 -0.0104315 0)
(0.985441 -0.00681712 -5.96179e-20)
(0.984127 -0.00279184 -6.21901e-20)
(0.983518 0.00148305 1.26642e-19)
(0.983654 0.00581341 6.41678e-20)
(0.98452 0.0099418 -1.27653e-19)
(0.986055 0.013714 0)
(0.988171 0.0169502 -1.61891e-20)
(0.990743 0.0195167 -1.28117e-19)
(0.993652 0.0213481 1.60066e-20)
(0.996781 0.022407 3.20523e-22)
(1.00003 0.0226999 2.49311e-19)
(1.00334 0.0222466 1.2505e-19)
(1.00664 0.0210714 1.2355e-19)
(1.0099 0.0192488 -1.22048e-19)
(1.01316 0.0168321 0)
(1.01644 0.0138736 1.27713e-19)
(1.01982 0.0104195 0)
(1.0234 0.00650714 0)
(1.02732 0.0021645 -1.18416e-19)
(1.03178 -0.002587 0)
(1.037 -0.00774064 5.72124e-20)
(1.04334 -0.0132917 1.13262e-19)
(1.05128 -0.0192503 2.81484e-20)
(1.06154 -0.0256271 -1.08691e-19)
(1.07528 -0.0324458 0)
(1.0945 -0.0397749 5.17535e-20)
(1.12229 -0.047679 0)
(1.14108 -0.0529985 -2.31425e-20)
(1.00687 -0.0396217 5.03899e-20)
(0.516297 -0.00806134 0)
(0.277252 0.00128893 0)
(0.847541 0.0229955 -1.31101e-20)
(1.11686 0.0445861 -2.26864e-20)
(1.14329 0.0460971 2.31905e-20)
(1.11281 0.0392515 -2.41685e-20)
(1.08934 0.032199 -5.09881e-20)
(1.07384 0.0257327 0)
(1.06266 0.0196523 0)
(1.05408 0.0138798 0)
(1.0472 0.00840058 0)
(1.04147 0.00321273 1.24332e-19)
(1.03652 -0.00167369 0)
(1.03208 -0.00623647 -2.67879e-19)
(1.02795 -0.0104452 0)
(1.02396 -0.0142601 0)
(1.02001 -0.0176298 2.85837e-19)
(1.01599 -0.02049 2.35012e-19)
(1.01182 -0.0227468 -8.5759e-20)
(1.0075 -0.0243161 -8.6544e-20)
(1.00303 -0.0250989 9.14907e-20)
(0.998467 -0.0249964 3.89933e-19)
(0.993901 -0.0239385 2.07211e-19)
(0.989476 -0.0218747 -1.07661e-19)
(0.985366 -0.0187959 0)
(0.981773 -0.0147555 1.47076e-21)
(0.978906 -0.00986417 6.1286e-20)
(0.976958 -0.00435927 -6.26478e-20)
(0.976063 0.0015278 -1.6405e-19)
(0.976293 0.00750655 8.08036e-22)
(0.97762 0.013189 0)
(0.979939 0.0183451 -6.60328e-20)
(0.983095 0.0227205 -1.32113e-19)
(0.98687 0.0261395 1.30847e-19)
(0.991067 0.0285349 -1.29308e-19)
(0.9955 0.029889 -1.60035e-19)
(1.00003 0.0302486 -2.5119e-19)
(1.00452 0.0296408 6.22786e-20)
(1.0089 0.0281705 3.07612e-20)
(1.01314 0.0259461 0)
(1.01727 0.0230606 0)
(1.02133 0.019601 -7.4244e-21)
(1.02541 0.0156439 2.34675e-19)
(1.02963 0.011252 1.16511e-19)
(1.03414 0.00647654 0)
(1.03914 0.00136227 1.13965e-19)
(1.04489 -0.0040611 2.77535e-20)
(1.05175 -0.00978113 -2.77902e-20)
(1.0602 -0.0157875 6.72934e-21)
(1.07099 -0.0220781 1.03697e-19)
(1.08533 -0.0286704 4.0581e-19)
(1.10528 -0.0356252 1.96946e-19)
(1.13239 -0.0427703 -4.67167e-20)
(1.13667 -0.0457765 -4.62266e-20)
(0.969877 -0.0313153 -7.60182e-20)
(0.486357 -0.00594575 1.5265e-19)
(0.263804 0.000992523 0)
(0.812093 0.018099 -2.39367e-20)
(1.09944 0.0376421 2.02041e-20)
(1.14855 0.0411059 -1.99429e-20)
(1.12329 0.0354168 4.23549e-20)
(1.0993 0.0286914 4.5627e-20)
(1.08318 0.0223714 -9.50124e-20)
(1.07159 0.0163358 7.96015e-22)
(1.06265 0.0105021 -5.14732e-20)
(1.05542 0.00485221 -1.09202e-19)
(1.04933 -0.000609917 -1.12041e-19)
(1.04399 -0.0058636 0)
(1.03911 -0.0108796 1.20935e-19)
(1.03448 -0.0156155 0)
(1.02992 -0.0200146 -2.77027e-19)
(1.02528 -0.0240127 -3.3217e-20)
(1.02041 -0.0275174 -1.47676e-19)
(1.01525 -0.0303967 2.36283e-19)
(1.00977 -0.0325127 -3.30855e-19)
(1.00396 -0.0337109 0)
(0.997862 -0.0338225 1.88845e-19)
(0.991605 -0.0326881 -3.02502e-19)
(0.985403 -0.0302081 1.07975e-19)
(0.979519 -0.0263025 0)
(0.974277 -0.0209917 -1.20461e-19)
(0.970028 -0.0143949 6.23469e-20)
(0.967113 -0.00684583 1.35427e-19)
(0.965776 0.00130812 1.35461e-19)
(0.966146 0.00961836 -1.38898e-19)
(0.968172 0.0174749 0)
(0.971669 0.0245259 0)
(0.976355 0.0303931 1.70164e-19)
(0.981854 0.0348599 6.7034e-22)
(0.987838 0.0378737 -2.30764e-19)
(0.994028 0.0394777 -3.88416e-19)
(1.0002 0.0397565 6.2745e-20)
(1.00614 0.0388124 -3.11705e-20)
(1.0118 0.0368512 0)
(1.01715 0.0340304 0)
(1.02221 0.0304969 1.03717e-19)
(1.02707 0.0263799 1.30317e-19)
(1.03182 0.0217874 -1.33849e-20)
(1.03661 0.0168122 0)
(1.04161 0.0115249 -1.1154e-19)
(1.04704 0.0059749 8.18146e-20)
(1.05318 0.000203099 2.16138e-19)
(1.06042 -0.00576321 0)
(1.06922 -0.0119013 0)
(1.08036 -0.0182035 6.27789e-21)
(1.09507 -0.0246982 -1.46296e-19)
(1.11546 -0.0314453 1.41432e-19)
(1.14052 -0.0379405 -2.2928e-20)
(1.12935 -0.0391634 2.01355e-19)
(0.938063 -0.0249452 -2.01598e-19)
(0.464401 -0.00456512 3.23085e-19)
(0.253376 0.000777671 0)
(0.782731 0.0143917 -1.05538e-20)
(1.08176 0.0316239 2.63863e-20)
(1.15141 0.0362414 -1.72543e-20)
(1.1329 0.0315781 -3.73096e-20)
(1.10903 0.0251212 -7.835e-20)
(1.09245 0.0188526 -4.16687e-20)
(1.08058 0.0127763 -4.37603e-20)
(1.07145 0.00680672 0)
(1.06403 0.000916522 0)
(1.05773 -0.00489066 0)
(1.05214 -0.0105949 0)
(1.04696 -0.0161705 5.35354e-20)
(1.04196 -0.0215652 -1.12395e-19)
(1.03692 -0.0267144 0)
(1.03164 -0.0315677 9.74845e-20)
(1.02597 -0.0359686 -6.60992e-20)
(1.01979 -0.039755 5.59511e-21)
(1.01302 -0.0427543 1.59667e-19)
(1.00562 -0.044726 3.50267e-21)
(0.99763 -0.0454054 1.87533e-19)
(0.989161 -0.044485 -1.98742e-19)
(0.980501 -0.0417339 0)
(0.972058 -0.0369646 -1.19072e-19)
(0.964339 -0.0300912 -1.26671e-19)
(0.957939 -0.0212166 0)
(0.953486 -0.0107542 -1.42068e-19)
(0.95143 0.00068897 1.85325e-19)
(0.95202 0.0124043 3.77489e-20)
(0.955165 0.0233903 -2.03656e-19)
(0.960514 0.0330827 -7.35573e-20)
(0.967516 0.0408866 -1.23607e-19)
(0.975548 0.0465756 1.37804e-19)
(0.984057 0.0501713 0)
(0.992624 0.0518362 2.60041e-19)
(1.00087 0.0517088 -3.14795e-20)
(1.00859 0.0501077 3.09034e-20)
(1.01572 0.0473239 0)
(1.02226 0.0436015 2.95385e-20)
(1.02829 0.0391532 1.44891e-19)
(1.0339 0.0341552 0)
(1.03925 0.0287519 -1.11191e-19)
(1.04451 0.0230451 -1.08722e-19)
(1.0499 0.0171138 0)
(1.05563 0.0110243 1.05263e-19)
(1.06201 0.00482223 -5.18162e-20)
(1.06942 -0.00146204 0)
(1.07839 -0.00781264 -4.946e-20)
(1.0897 -0.0142279 -9.69727e-20)
(1.10467 -0.0207401 -9.41808e-20)
(1.12517 -0.0273769 4.57532e-20)
(1.14702 -0.0332945 1.30973e-19)
(1.12048 -0.0332594 8.75485e-20)
(0.910879 -0.0200011 -1.7441e-19)
(0.447551 -0.00353666 -1.12191e-19)
(0.245174 0.000623486 0)
(0.758429 0.0115436 0)
(1.06477 0.026496 0)
(1.15247 0.03166 0)
(1.1417 0.027861 0)
(1.11861 0.02164 0)
(1.10176 0.0153592 0)
(1.08976 0.0091776 0)
(1.08057 0.00300905 7.83285e-20)
(1.07312 -0.00318313 0)
(1.06677 -0.00940329 -8.39965e-20)
(1.06111 -0.0156483 0)
(1.05581 -0.0218907 0)
(1.05061 -0.0280919 2.0021e-19)
(1.04527 -0.0342139 0)
(1.0395 -0.0401605 0)
(1.03315 -0.0457891 0)
(1.02602 -0.0509178 1.34281e-19)
(1.01791 -0.0552924 -1.39828e-19)
(1.00873 -0.0586071 0)
(0.998445 -0.0604596 -8.82788e-20)
(0.987136 -0.060361 -2.07923e-19)
(0.975064 -0.0577704 0)
(0.962844 -0.0522903 -1.18384e-19)
(0.951281 -0.0436004 3.00442e-21)
(0.941388 -0.0316566 -4.28954e-19)
(0.934331 -0.0169629 -1.56369e-19)
(0.931038 -0.00053706 -1.2537e-21)
(0.932003 0.0163577 -8.00335e-20)
(0.93705 0.0320171 9.91045e-21)
(0.945452 0.0454369 1.53103e-19)
(0.956133 0.0557076 1.83315e-20)
(0.967978 0.0626846 4.41441e-21)
(0.980115 0.0666118 -8.17734e-19)
(0.991836 0.067797 1.95009e-19)
(1.00267 0.0666982 3.17445e-20)
(1.01248 0.0638751 6.11594e-20)
(1.02123 0.0597513 2.95672e-20)
(1.029 0.0546846 2.84874e-20)
(1.03593 0.048963 -3.34476e-19)
(1.0422 0.0427967 -3.2288e-19)
(1.04801 0.036348 -4.34105e-19)
(1.05359 0.0297324 -1.04629e-19)
(1.05917 0.0230258 0)
(1.065 0.0162924 2.54876e-20)
(1.07144 0.00957493 0)
(1.07887 0.00289338 -4.85544e-20)
(1.08786 -0.0037417 -4.73827e-20)
(1.09922 -0.010343 -2.31178e-20)
(1.11429 -0.0169507 8.98697e-20)
(1.13454 -0.0235384 0)
(1.15221 -0.0289553 0)
(1.11109 -0.0281077 0)
(0.887963 -0.0161262 2.42579e-20)
(0.434601 -0.00276337 1.10632e-19)
(0.238681 0.000500543 0)
(0.738393 0.00934377 0)
(1.04909 0.0222079 6.27457e-21)
(1.15229 0.027492 1.19722e-20)
(1.14976 0.0243852 0)
(1.12811 0.0183819 0)
(1.1112 0.0120589 2.83814e-20)
(1.09919 0.00573171 0)
(1.0901 -0.00067444 6.42871e-20)
(1.08277 -0.0072075 0)
(1.07656 -0.0138919 -1.38715e-19)
(1.07103 -0.0207407 -3.58276e-20)
(1.06585 -0.0277424 1.5314e-19)
(1.0607 -0.03488 3.42202e-19)
(1.05529 -0.0421769 -9.05883e-20)
(1.04935 -0.049508 2.48812e-20)
(1.04259 -0.0567543 5.1223e-20)
(1.03471 -0.0637463 0)
(1.02541 -0.0702047 0)
(1.01441 -0.0757149 0)
(1.00151 -0.0797581 8.1848e-20)
(0.98665 -0.0815874 -1.0171e-19)
(0.969978 -0.0802368 -6.4522e-19)
(0.952128 -0.0747053 1.19456e-19)
(0.934392 -0.0642073 -2.77947e-19)
(0.918511 -0.0481901 -6.16251e-19)
(0.906756 -0.02713 2.54825e-19)
(0.901187 -0.00272366 -1.79376e-19)
(0.902838 0.0224018 -1.77938e-19)
(0.911375 0.0454016 -2.28329e-20)
(0.925157 0.064144 -8.41432e-20)
(0.941924 0.0773858 -1.59421e-19)
(0.959667 0.0853519 -2.96491e-19)
(0.976951 0.0887447 -5.59568e-19)
(0.992758 0.0883751 1.29743e-19)
(1.00673 0.0853097 -1.26263e-19)
(1.01883 0.0803577 9.08598e-20)
(1.0292 0.0741491 -3.44216e-19)
(1.03808 0.0671559 -1.11867e-19)
(1.04571 0.0597052 -1.07066e-19)
(1.05239 0.0520258 2.11491e-19)
(1.05839 0.0442785 0)
(1.06401 0.0365719 -7.53366e-20)
(1.06953 0.0289684 0)
(1.07528 0.0215076 0)
(1.08158 0.0142082 4.78779e-20)
(1.08887 0.00707701 7.02133e-20)
(1.09772 0.000107598 4.50753e-20)
(1.10899 -0.00672716 4.37174e-20)
(1.12402 -0.0134726 4.2287e-20)
(1.14362 -0.0200372 0)
(1.1564 -0.0250253 -2.06067e-20)
(1.10182 -0.0237129 -4.12835e-20)
(0.868692 -0.0131022 9.59232e-20)
(0.42464 -0.00220493 -3.19665e-19)
(0.23341 0.000413687 0)
(0.721749 0.00767189 -5.98955e-21)
(1.03492 0.0186943 0)
(1.15132 0.0238358 0)
(1.15716 0.0212653 1.95427e-20)
(1.13751 0.01547 2.12351e-20)
(1.12078 0.00909914 -1.123e-20)
(1.1089 0.00261478 0)
(1.10004 -0.00403267 1.23537e-20)
(1.09301 -0.0109092 -2.54249e-20)
(1.08715 -0.0180609 0)
(1.082 -0.0255249 -2.73528e-20)
(1.07719 -0.0333325 -9.81756e-22)
(1.07242 -0.0415263 -2.32019e-20)
(1.06733 -0.0501217 1.46871e-20)
(1.06163 -0.0590743 -3.50191e-21)
(1.05494 -0.0683367 8.39705e-20)
(1.04684 -0.0777689 0)
(1.03682 -0.0871502 2.01636e-19)
(1.02438 -0.0960736 6.6678e-22)
(1.0089 -0.103859 0)
(0.989979 -0.109556 -2.47144e-19)
(0.96738 -0.111672 -9.66312e-20)
(0.941323 -0.108113 4.71463e-19)
(0.913408 -0.0967677 3.10867e-21)
(0.886687 -0.0758187 0)
(0.865733 -0.0448324 1.7629e-19)
(0.855507 -0.00679887 -1.09062e-19)
(0.858631 0.0327676 1.0266e-19)
(0.874204 0.067903 -3.90058e-19)
(0.898159 0.0941535 1.74072e-19)
(0.925418 0.110266 3.29934e-19)
(0.952354 0.117783 5.93911e-19)
(0.976643 0.118489 -1.35402e-19)
(0.997462 0.11461 -1.42465e-19)
(1.01485 0.107885 1.20269e-19)
(1.02914 0.0994882 -4.54542e-19)
(1.04081 0.0902139 3.35925e-19)
(1.05034 0.080566 1.06673e-19)
(1.05819 0.0708761 0)
(1.06482 0.0613522 1.4744e-19)
(1.07063 0.0521009 -4.66472e-20)
(1.07597 0.0431723 0)
(1.08117 0.034587 -9.21923e-20)
(1.08658 0.0263431 -9.22133e-20)
(1.09254 0.0184341 8.9402e-20)
(1.09949 0.0108373 -2.222e-19)
(1.10805 0.00352011 -8.73354e-20)
(1.1191 -0.00355939 4.21314e-20)
(1.13392 -0.0104503 4.0759e-20)
(1.15247 -0.0169849 -1.96897e-20)
(1.1598 -0.0215928 -5.79118e-20)
(1.09284 -0.0200309 9.78644e-21)
(0.851968 -0.0107249 -1.1521e-20)
(0.416077 -0.00181026 0)
(0.229038 0.000367636 0)
(0.707829 0.00643525 0)
(1.02224 0.0159165 -7.09119e-21)
(1.14988 0.0207753 0)
(1.16398 0.0186159 -6.99333e-21)
(1.14682 0.0130295 7.40997e-21)
(1.13052 0.00663503 1.56267e-20)
(1.11888 2.42278e-05 0)
(1.11039 -0.00683161 3.37919e-20)
(1.10382 -0.0140149 0)
(1.0985 -0.021596 -7.28883e-20)
(1.09397 -0.0296433 -3.77274e-20)
(1.08985 -0.0382353 -1.2276e-21)
(1.08584 -0.0474201 -4.57958e-20)
(1.08158 -0.0573539 4.34074e-20)
(1.07672 -0.0680435 4.90048e-20)
(1.07084 -0.0795663 -2.29692e-20)
(1.06341 -0.0919337 -9.27178e-20)
(1.05373 -0.105085 -2.90266e-20)
(1.04091 -0.118773 8.21929e-20)
(1.02389 -0.132506 0)
(1.00137 -0.145169 -1.74733e-20)
(0.971964 -0.15486 1.60875e-19)
(0.934853 -0.158314 0)
(0.89032 -0.150297 0)
(0.842799 -0.124983 3.66865e-19)
(0.801936 -0.0783251 -2.25069e-21)
(0.781028 -0.0147628 1.03171e-20)
(0.787684 0.0527225 -4.98613e-19)
(0.819234 0.109273 4.5344e-19)
(0.864026 0.145393 3.87675e-19)
(0.909851 0.16172 6.75558e-19)
(0.950366 0.164062 5.03359e-19)
(0.983416 0.157728 2.69542e-19)
(1.00954 0.146909 0)
(1.02979 0.134023 0)
(1.04535 0.120455 2.70951e-19)
(1.05729 0.106968 4.8304e-22)
(1.06656 0.0939824 -1.04189e-19)
(1.0739 0.0816652 -9.38408e-20)
(1.07988 0.0700751 -1.83919e-19)
(1.08501 0.0592013 1.36066e-19)
(1.08963 0.0490039 0)
(1.09415 0.0394377 4.39322e-20)
(1.09891 0.0304401 -4.27103e-20)
(1.10428 0.0219543 0)
(1.1107 0.0139278 0)
(1.11879 0.00629913 -1.26918e-21)
(1.12946 -0.000994039 0)
(1.1439 -0.00800539 0)
(1.16103 -0.0144908 -3.1202e-22)
(1.16262 -0.0187707 0)
(1.08452 -0.0171113 -5.59703e-20)
(0.83773 -0.00894107 0)
(0.408586 -0.00148287 -8.19825e-20)
(0.225312 0.000331141 0)
(0.696091 0.00558063 6.80252e-22)
(1.01105 0.0138367 5.56173e-22)
(1.14824 0.0183715 0)
(1.1703 0.01653 5.33484e-22)
(1.15599 0.0111574 0)
(1.14032 0.00478168 0)
(1.12906 -0.00190216 0)
(1.12105 -0.00889549 0)
(1.1151 -0.0162918 0)
(1.11051 -0.0241825 0)
(1.10683 -0.0326649 0)
(1.10372 -0.0418483 0)
(1.10087 -0.0519109 3.05656e-20)
(1.09797 -0.0630147 -1.24705e-20)
(1.09468 -0.0753088 -2.3848e-20)
(1.09058 -0.0890241 -2.25677e-20)
(1.0851 -0.10442 4.92906e-21)
(1.07746 -0.121779 -2.80087e-20)
(1.06653 -0.141334 -2.00415e-21)
(1.05066 -0.163153 1.28326e-19)
(1.02743 -0.186887 -1.14949e-19)
(0.993373 -0.211007 0)
(0.944127 -0.231863 1.60785e-19)
(0.875101 -0.240596 -1.08499e-18)
(0.78648 -0.219891 7.3284e-19)
(0.697599 -0.15006 5.03397e-19)
(0.648818 -0.0325317 2.09079e-18)
(0.664952 0.0973367 0)
(0.737748 0.194378 1.00717e-18)
(0.828414 0.238135 -1.48265e-18)
(0.90605 0.242486 -4.61077e-19)
(0.963856 0.227952 -1.34419e-19)
(1.00518 0.206521 -7.42563e-19)
(1.03428 0.183575 3.14628e-21)
(1.05477 0.161468 7.02582e-19)
(1.06931 0.141096 -5.18101e-20)
(1.07979 0.122612 2.85085e-19)
(1.08745 0.105931 9.13488e-20)
(1.09319 0.0908662 1.73677e-19)
(1.09769 0.0772221 0)
(1.10144 0.0648151 4.29216e-20)
(1.10487 0.0534715 7.72018e-20)
(1.10835 0.0430405 7.81485e-20)
(1.11216 0.0334061 -3.9997e-20)
(1.11671 0.0244578 1.36455e-19)
(1.12241 0.0161 -3.59849e-20)
(1.12991 0.00823971 -1.5351e-19)
(1.14008 0.000802458 -1.80741e-20)
(1.15396 -0.00626795 -3.61137e-20)
(1.16932 -0.0126498 -3.44892e-20)
(1.16495 -0.0166101 1.77071e-20)
(1.07677 -0.0149161 1.81606e-20)
(0.825344 -0.00769835 6.11798e-22)
(0.402196 -0.00131193 3.9999e-20)
(0.221643 0.000350313 6.08869e-21)
(0.685676 0.00509627 -8.87492e-21)
(1.00091 0.0124273 3.2602e-23)
(1.14645 0.0166529 3.29298e-21)
(1.17616 0.0150647 -3.26044e-21)
(1.16495 0.00992547 -3.2794e-21)
(1.15011 0.00363834 0)
(1.1393 -0.0030286 -1.00819e-22)
(1.13186 -0.0100469 -1.23388e-21)
(1.12662 -0.0175156 3.77403e-22)
(1.1229 -0.0255416 -1.7073e-22)
(1.12027 -0.0342374 -5.39352e-23)
(1.11843 -0.043758 4.05053e-23)
(1.1171 -0.0543256 -1.91059e-21)
(1.11607 -0.0661551 2.34875e-21)
(1.11508 -0.0795249 3.19334e-22)
(1.1138 -0.0948576 -3.42433e-20)
(1.11182 -0.112664 -1.33794e-21)
(1.10844 -0.133652 0)
(1.10264 -0.158853 0)
(1.09287 -0.189441 6.70083e-21)
(1.07608 -0.227022 4.37095e-20)
(1.04695 -0.273345 -6.86965e-20)
(0.995679 -0.329151 9.49574e-20)
(0.903206 -0.389919 -1.69003e-19)
(0.739806 -0.419065 0)
(0.518464 -0.32913 3.24917e-18)
(0.387286 -0.0793271 -1.13916e-18)
(0.431677 0.214874 -4.99855e-18)
(0.62892 0.392503 2.02717e-18)
(0.822685 0.411115 0)
(0.943982 0.360849 -9.93573e-19)
(1.01259 0.306305 3.99763e-19)
(1.05277 0.258199 3.69702e-19)
(1.0772 0.21821 1.81342e-19)
(1.09247 0.185193 1.73396e-19)
(1.10225 0.157656 2.5312e-19)
(1.10868 0.134334 0)
(1.1129 0.114337 -5.95325e-20)
(1.11578 0.0969715 4.64121e-19)
(1.11795 0.0816858 0)
(1.11972 0.0681015 -9.83053e-22)
(1.12146 0.0559283 -1.78413e-20)
(1.12349 0.0449141 -5.46091e-20)
(1.1261 0.0348716 -1.79135e-20)
(1.12961 0.0256541 3.45115e-20)
(1.13444 0.0171276 -1.7357e-20)
(1.14119 0.00917902 -1.75757e-20)
(1.15075 0.00170936 -6.67549e-22)
(1.16392 -0.00532697 1.27476e-20)
(1.17723 -0.0115422 1.18306e-20)
(1.16692 -0.0151849 -2.37652e-20)
(1.06974 -0.013463 -3.38072e-20)
(0.814631 -0.00695841 -1.99009e-20)
(0.396648 -0.00126263 -3.70275e-20)
(0.213592 0.000423588 4.59912e-20)
(0.673198 0.00492357 0)
(0.990036 0.0115353 1.32107e-20)
(1.14405 0.0155235 -1.26751e-20)
(1.18153 0.0142069 -1.4521e-20)
(1.17367 0.00937112 0)
(1.15978 0.00327446 -2.26329e-20)
(1.14946 -0.00325577 0)
(1.1426 -0.0101601 0)
(1.13813 -0.0175258 -2.14587e-20)
(1.13535 -0.025456 0)
(1.13386 -0.0340788 3.52418e-20)
(1.13341 -0.043569 1.07229e-21)
(1.13381 -0.05415 -6.19447e-21)
(1.13495 -0.0660644 -1.07671e-20)
(1.13672 -0.0796592 -1.29145e-20)
(1.13902 -0.0954256 -1.09706e-20)
(1.14173 -0.114055 -3.2063e-21)
(1.14469 -0.13654 2.49342e-20)
(1.14762 -0.164467 -3.74569e-20)
(1.14999 -0.200192 1.97815e-19)
(1.15052 -0.24775 -5.95911e-20)
(1.14685 -0.314122 0)
(1.13408 -0.415815 0)
(1.07564 -0.575459 4.36164e-19)
(0.811881 -0.665141 0)
(0.211685 -0.359486 5.12588e-17)
(0.362619 0.456475 -3.71046e-20)
(0.911116 0.664032 -4.75503e-20)
(1.09517 0.491249 -2.00362e-19)
(1.12183 0.370138 2.19605e-19)
(1.13396 0.292369 5.29238e-19)
(1.13966 0.237896 4.07708e-19)
(1.1421 0.197067 -8.09817e-20)
(1.14271 0.164977 6.01745e-22)
(1.14243 0.138859 1.90142e-20)
(1.14162 0.117045 2.006e-22)
(1.14062 0.0984924 -6.6129e-20)
(1.13966 0.0824351 1.52035e-20)
(1.13895 0.0683503 -3.26417e-20)
(1.13868 0.0558593 -1.67145e-20)
(1.13904 0.0446692 -5.32881e-22)