/*--------------------------------*- C++ -*----------------------------------*\
  =========                 |
  \\      /  F ield         | OpenFOAM: The Open Source CFD Toolbox
   \\    /   O peration     | Website:  https://openfoam.org
    \\  /    A nd           | Version:  7
     \\/     M anipulation  |
\*---------------------------------------------------------------------------*/
FoamFile
{
    version     2.0;
    format      ascii;
    class       volScalarField;
    location    "50";
    object      k;
}
// * * * * * * * * * * * * * * * * * * * * * * * * * * * * * * * * * * * * * //

dimensions      [0 2 -2 0 0 0 0];

internalField   nonuniform List<scalar> 
12842
(
0.00566314
0.00508039
0.00471726
0.00448581
0.00428831
0.00416948
0.00408415
0.00400812
0.00397485
0.00395465
0.00394079
0.00394837
0.00397562
0.00405312
0.00415464
0.00428589
0.00435362
0.00445729
0.00454614
0.00466705
0.00475504
0.00487889
0.00498603
0.00562222
0.00501377
0.00463173
0.00445342
0.00427452
0.00416488
0.00407613
0.00400576
0.00397556
0.00393775
0.00393719
0.00396948
0.00402315
0.00413229
0.00420693
0.00433596
0.00441699
0.00450889
0.0045994
0.00473015
0.00478978
0.00491202
0.00500622
0.00558193
0.00493602
0.00456501
0.00437075
0.0042162
0.00413489
0.0040494
0.00399959
0.00396859
0.00393126
0.00395493
0.00399609
0.00404523
0.00418587
0.00433964
0.00443679
0.00455349
0.00464324
0.00466421
0.00476994
0.00491467
0.00505135
0.00519736
0.00550994
0.00487903
0.00450346
0.00433341
0.00418798
0.00410941
0.00402422
0.00399144
0.00396073
0.00391604
0.00395774
0.00402594
0.00413517
0.00427334
0.00441281
0.00455034
0.00460578
0.00473145
0.00481731
0.0048329
0.00492495
0.00509248
0.00524396
0.00544528
0.00477591
0.00444039
0.00425945
0.00413536
0.00407099
0.00400024
0.00397755
0.00395288
0.00392698
0.0039832
0.00403945
0.00419058
0.00437413
0.00453258
0.00467948
0.00477091
0.00480517
0.00491027
0.00503459
0.00507608
0.00525241
0.00547022
0.005374
0.0047182
0.00438567
0.00422593
0.00411402
0.00404493
0.00398064
0.00396515
0.00393714
0.00394562
0.00401362
0.00410367
0.00428701
0.00445395
0.0046136
0.00474258
0.00485238
0.00493309
0.00500851
0.0051407
0.00525474
0.00539674
0.00565068
0.00529838
0.00461901
0.00432543
0.00416034
0.00407183
0.00401321
0.00396397
0.00395285
0.00391985
0.00397017
0.00408006
0.00419927
0.00441549
0.0045913
0.00474302
0.00487972
0.00496297
0.00506053
0.00511533
0.00528976
0.00548042
0.00574804
0.0059462
0.00523463
0.00457545
0.00428408
0.00413337
0.00405374
0.00399297
0.00395008
0.00394589
0.00393081
0.00398626
0.00411559
0.00428446
0.00449961
0.00468116
0.00484756
0.00498273
0.00510729
0.00519462
0.00536364
0.00541828
0.005603
0.00589352
0.00620705
0.0051488
0.00449463
0.00423439
0.00408415
0.0040212
0.00396744
0.00394052
0.00393773
0.00394525
0.00403067
0.00419353
0.00441557
0.00465002
0.00481603
0.00496518
0.005118
0.00523216
0.00538107
0.00551541
0.0057053
0.0058754
0.00623692
0.00654581
0.00508028
0.00444717
0.00420344
0.00406442
0.00400724
0.00395706
0.00393347
0.00393411
0.00397232
0.00407864
0.00428153
0.00455143
0.0047841
0.0049517
0.00511319
0.00523292
0.00536784
0.00554315
0.00575296
0.00596022
0.00613754
0.00646861
0.00681799
0.00498425
0.00438297
0.00415458
0.00402752
0.00398023
0.00393886
0.0039248
0.00393063
0.00398506
0.00413035
0.00438308
0.00467592
0.00490697
0.00507497
0.00524033
0.00540757
0.00555408
0.00575229
0.00595785
0.00617541
0.00643986
0.00679187
0.00712928
0.00491046
0.00433556
0.00413149
0.00401144
0.00396723
0.00393045
0.00392043
0.00391916
0.00401573
0.00418324
0.00448685
0.00480291
0.00503395
0.00522169
0.00541659
0.00556578
0.0057042
0.00598023
0.00617637
0.00647694
0.00676633
0.00710526
0.00738884
0.00482321
0.00428525
0.00408885
0.00398103
0.00394278
0.00391575
0.00391341
0.00391448
0.00403066
0.00424569
0.00460803
0.0049248
0.0051496
0.00534787
0.00556535
0.00578264
0.00600547
0.00622683
0.00650343
0.00675734
0.00704026
0.00737702
0.00764123
0.00475034
0.00424651
0.00406931
0.0039675
0.00393091
0.00390914
0.00390967
0.00392611
0.00407053
0.0043139
0.00472553
0.00504833
0.00528476
0.00552096
0.00577022
0.00597892
0.0061762
0.00653805
0.0067496
0.00700133
0.00734122
0.00770291
0.00795778
0.00468792
0.00420197
0.00403467
0.00394187
0.00390898
0.00389681
0.00390311
0.0039232
0.00410007
0.00439525
0.00486334
0.0051813
0.00541812
0.00566918
0.00594486
0.00620752
0.00648177
0.00674384
0.00703737
0.00738481
0.00773075
0.00807995
0.00828664
0.00462939
0.00417142
0.00401919
0.0039301
0.00389834
0.00389115
0.00390005
0.00394834
0.00416049
0.0044869
0.00499335
0.00531841
0.00557626
0.00587612
0.00618464
0.00646686
0.00677261
0.0071416
0.00741826
0.00771636
0.00801302
0.0083174
0.00848449
0.00458101
0.00413464
0.00399092
0.00390806
0.00387947
0.00388017
0.00389041
0.003962
0.00420696
0.00458978
0.00514487
0.00547399
0.00574531
0.00606253
0.00637563
0.0066656
0.00698115
0.00738634
0.00771365
0.00798182
0.00831972
0.00868692
0.0089556
0.00453648
0.00410351
0.00397766
0.00389739
0.00387059
0.00387414
0.00388931
0.00401401
0.00429079
0.00470702
0.00528627
0.00563717
0.00593202
0.00629887
0.00666075
0.00703294
0.00741973
0.00777593
0.00800203
0.00848645
0.00886451
0.00922306
0.00948708
0.00449645
0.00407624
0.00395593
0.00387786
0.00385408
0.00386399
0.00388779
0.00404868
0.00435733
0.00482609
0.00545331
0.00581566
0.00613846
0.0065318
0.00688637
0.00720945
0.00760933
0.00808047
0.00855808
0.00896306
0.00924505
0.00952465
0.00979228
0.0044657
0.00404506
0.00394048
0.00386866
0.0038466
0.0038605
0.00391097
0.00413867
0.00447024
0.00497091
0.00560592
0.00600778
0.00634806
0.00677326
0.00715093
0.00760595
0.00809545
0.00873553
0.0090195
0.00934825
0.00958468
0.0100169
0.0107078
0.00442722
0.00402028
0.00392729
0.00385191
0.00383391
0.00385091
0.00393233
0.00419771
0.0045528
0.0050946
0.00578139
0.00620264
0.00657857
0.00703798
0.00746976
0.00790536
0.00843702
0.0091132
0.00931846
0.0100144
0.0104818
0.0111929
0.0122273
0.00440782
0.00399119
0.00390833
0.00384022
0.00381985
0.00387246
0.0040056
0.00431303
0.00469279
0.00526554
0.00595896
0.0064203
0.00680059
0.0072566
0.0076515
0.00823584
0.00904463
0.00976598
0.0103508
0.0111593
0.0115335
0.0122462
0.0133291
0.00437326
0.00396882
0.00389558
0.00383194
0.00382725
0.00390939
0.00407196
0.00439067
0.00478597
0.00538666
0.0061116
0.00660342
0.00702929
0.00753724
0.00807714
0.00887301
0.00973933
0.0111487
0.0114686
0.0120124
0.0121741
0.0131067
0.0150571
0.004358
0.00394407
0.00388715
0.00381689
0.00384838
0.00399181
0.00419393
0.00452778
0.00495497
0.00558339
0.00633477
0.00686255
0.00725767
0.00774037
0.00832587
0.00922842
0.0109793
0.0120874
0.0121718
0.0128318
0.0136113
0.0158154
0.0190067
0.00433435
0.0039254
0.00387337
0.00381402
0.00389273
0.00408564
0.00430111
0.00463737
0.00508084
0.00573305
0.00650191
0.0070445
0.00745663
0.00800974
0.0087644
0.010348
0.012767
0.0139578
0.0138975
0.0154715
0.0178961
0.0214455
0.0251663
0.0043222
0.00391108
0.00387216
0.00382788
0.00396521
0.00418617
0.00441026
0.00474904
0.00520244
0.00587377
0.0066594
0.00722493
0.00764248
0.00831202
0.0095907
0.0122316
0.0158561
0.0165007
0.0176824
0.0198935
0.023258
0.0274214
0.0310088
0.00429759
0.00389592
0.00387846
0.0038776
0.00405909
0.00429555
0.00452359
0.00486021
0.00531739
0.00600105
0.00678786
0.00736058
0.00778325
0.00850016
0.0100786
0.013776
0.019599
0.0207977
0.0218656
0.0246893
0.0280479
0.0319169
0.034985
0.00428427
0.00388129
0.0039224
0.00395205
0.00416088
0.00440221
0.00463602
0.00496994
0.0054271
0.00612085
0.00691872
0.00751726
0.00800066
0.00921688
0.0127187
0.0195141
0.0251583
0.0253502
0.0258323
0.0283007
0.0309169
0.0341457
0.03681
0.00425979
0.00387933
0.00398806
0.00404095
0.00426765
0.00451922
0.00475028
0.00507547
0.00552819
0.00622716
0.00701658
0.00761886
0.00814873
0.00977239
0.0158267
0.0282088
0.0317422
0.027978
0.0280095
0.0298305
0.0319089
0.0349928
0.037384
0.00424394
0.00388836
0.00406775
0.00413659
0.00437958
0.00462565
0.00485959
0.00517642
0.00562247
0.00632579
0.00711827
0.00774055
0.00838821
0.0116251
0.0216021
0.0352783
0.036103
0.0285366
0.0288853
0.0301933
0.0321358
0.0345675
0.0372812
0.00423021
0.00393642
0.00415842
0.00424099
0.00448776
0.00474052
0.00496631
0.00527092
0.00570776
0.00641465
0.00720403
0.00787383
0.0089571
0.0157341
0.0333255
0.0495813
0.0382108
0.0289057
0.028946
0.030028
0.0313334
0.0328105
0.0353306
0.00420822
0.00399686
0.00425164
0.00434333
0.00459606
0.00484432
0.00506567
0.00535856
0.00578505
0.00649301
0.00727221
0.00796548
0.00940461
0.0207982
0.0465433
0.0541665
0.0372294
0.0292129
0.0289537
0.0291236
0.0297519
0.0304847
0.0324001
0.00420759
0.00407513
0.00434797
0.00445401
0.00470455
0.00494729
0.00515933
0.00543835
0.00585412
0.00656521
0.00735383
0.00822634
0.0119981
0.0321309
0.0593055
0.0596957
0.0368519
0.0292489
0.0286455
0.0281269
0.0282083
0.0285104
0.0294937
0.00421857
0.00416359
0.0044452
0.00455501
0.00479975
0.00504314
0.00524382
0.00551049
0.00591519
0.00662863
0.0074221
0.0085072
0.0141272
0.0450654
0.068149
0.0620923
0.0366859
0.029315
0.0283521
0.0273579
0.027124
0.0269495
0.0273699
0.00425293
0.00425311
0.00453819
0.00466148
0.00490142
0.00513018
0.00532182
0.00557436
0.00596944
0.0066853
0.00750236
0.00906321
0.0200663
0.058403
0.0761446
0.0603366
0.036292
0.0293461
0.0279873
0.0268957
0.0265608
0.0257883
0.0256061
0.00430056
0.00436036
0.00463015
0.00475932
0.00498688
0.00521174
0.00539028
0.0056312
0.00601618
0.00673541
0.00758439
0.00992248
0.0255591
0.0664654
0.0814919
0.0608299
0.0374465
0.0300573
0.0281569
0.0267036
0.0262587
0.0251476
0.0246076
0.0043577
0.00444955
0.00471396
0.00485266
0.00507027
0.00528349
0.00545222
0.00568039
0.00605847
0.0067843
0.00775796
0.0113704
0.0326794
0.0739429
0.0847386
0.0589223
0.0391886
0.0311712
0.0282143
0.0265482
0.0260912
0.0247594
0.0239753
0.00442399
0.00456154
0.00480127
0.00494514
0.00514946
0.00534767
0.00550641
0.00572399
0.00609372
0.00682657
0.00789386
0.0124772
0.0380974
0.0802798
0.0933163
0.0604577
0.0407312
0.0326093
0.0287944
0.0266209
0.0262263
0.0246392
0.0236785
0.00449234
0.00464757
0.00487109
0.00502433
0.00521254
0.00540414
0.00555415
0.00576123
0.00612666
0.00687185
0.00802856
0.014304
0.0440759
0.086713
0.0972663
0.0630915
0.0430177
0.033799
0.0292797
0.0266779
0.0263116
0.0245606
0.0237514
0.00457154
0.00474832
0.00495041
0.00510544
0.00528285
0.00545543
0.00559666
0.0057945
0.00615377
0.00690359
0.00828845
0.0155991
0.0466803
0.0918841
0.107088
0.0642865
0.0426324
0.0339231
0.0291156
0.0267538
0.0264115
0.0245649
0.0236906
0.00464141
0.00483212
0.0050152
0.00517217
0.00533197
0.00549583
0.00563331
0.00582282
0.00617867
0.00695735
0.00858842
0.0175689
0.0523077
0.098919
0.106839
0.0641418
0.0427443
0.0347006
0.0293064
0.0268396
0.0263093
0.0246024
0.0237393
0.00472213
0.00491294
0.0050788
0.00524188
0.00538725
0.00553439
0.00566678
0.00584851
0.00620168
0.00700907
0.00878687
0.0188738
0.0558655
0.101072
0.107802
0.0656645
0.0428531
0.0344776
0.0291048
0.0269039
0.0262858
0.0246286
0.0237213
0.00478992
0.00498873
0.00513865
0.00529182
0.00542552
0.00556619
0.00569483
0.00587056
0.00622071
0.00706582
0.0092396
0.0220164
0.0586017
0.0958027
0.101579
0.0655817
0.0428126
0.0339614
0.0288425
0.0266583
0.025772
0.0244154
0.0237399
0.00486292
0.00505315
0.00519342
0.00534838
0.00546738
0.00559101
0.00572063
0.00589071
0.0062418
0.00713027
0.00957111
0.0232728
0.0629378
0.0877149
0.0861007
0.06118
0.0399905
0.0312101
0.0270671
0.0255037
0.0253368
0.0241562
0.0237309
0.00492386
0.00511259
0.00524092
0.00538694
0.00549538
0.00561234
0.00574271
0.00590824
0.00625739
0.00716792
0.00992678
0.0251614
0.0616548
0.0678244
0.0696537
0.0516568
0.0350061
0.0278314
0.024317
0.0233207
0.0243075
0.0234071
0.0232455
0.00498241
0.00516065
0.00528574
0.00542449
0.00551872
0.00562986
0.00576115
0.00592398
0.00627454
0.00723706
0.0105121
0.0253745
0.060329
0.059737
0.0535719
0.04165
0.0296564
0.0241954
0.0214321
0.0209185
0.0217706
0.0213001
0.0213462
0.00503335
0.00520561
0.00532344
0.00545149
0.00554017
0.00564353
0.00577799
0.00593842
0.00629593
0.00728793
0.0107891
0.0292741
0.0604703
0.0560944
0.0411792
0.0326487
0.0243811
0.0210005
0.0186329
0.0182668
0.019145
0.0188947
0.0188836
0.00507839
0.00523989
0.0053571
0.00547297
0.00555476
0.00564309
0.00579103
0.00595003
0.00630887
0.00735606
0.0109843
0.0280897
0.0571269
0.0487252
0.0320054
0.0258165
0.0202948
0.0180322
0.0163644
0.0161291
0.0164007
0.0164605
0.0168063
0.0051204
0.00527211
0.00538379
0.00549474
0.00556832
0.00564449
0.00580327
0.00596166
0.00633153
0.00740766
0.0109983
0.0249635
0.0460703
0.0356112
0.0248832
0.0203184
0.0168341
0.0158047
0.0143537
0.0142135
0.0145441
0.014565
0.0147799
0.00516323
0.00529879
0.00541425
0.00551141
0.00558164
0.00565071
0.00581396
0.00597116
0.00635599
0.0076223
0.0114131
0.0212327
0.0345678
0.024582
0.0192157
0.0166568
0.0144453
0.0138086
0.0129763
0.0128023
0.0129228
0.0129471
0.0134086
0.00520333
0.00532472
0.00543676
0.0055279
0.00559372
0.00566076
0.00582252
0.00597999
0.00637809
0.00766715
0.0108991
0.0176296
0.0239752
0.0174425
0.0152047
0.0137577
0.0127601
0.0124323
0.011761
0.0118974
0.0119398
0.0120847
0.012449
0.00524618
0.00535268
0.0054646
0.00554439
0.00560786
0.00567456
0.00583026
0.00598555
0.00639198
0.0076829
0.0101635
0.0147133
0.0167378
0.0133035
0.0128221
0.011752
0.0112049
0.0112523
0.0109961
0.0108948
0.0112264
0.0113469
0.0116662
0.00528626
0.00538064
0.00548774
0.00556416
0.00562128
0.00568763
0.00583583
0.00599022
0.00640914
0.00758818
0.00950684
0.0126461
0.0128473
0.0109479
0.0113325
0.0105436
0.0103886
0.0102466
0.0101038
0.0104433
0.0106432
0.0108106
0.0111136
0.00532755
0.00541001
0.00551436
0.00558471
0.00563867
0.00570301
0.00584269
0.005993
0.00642342
0.00753856
0.00900859
0.0112376
0.0108703
0.00983631
0.0106026
0.0099953
0.00995254
0.010169
0.00981996
0.00983356
0.0101237
0.0104139
0.0106604
0.00536906
0.00543878
0.00553793
0.00560699
0.00565635
0.00571741
0.00584784
0.0059957
0.00644146
0.00746225
0.00863639
0.0102417
0.00978692
0.0089705
0.0101904
0.00957364
0.00992832
0.0100138
0.00967412
0.00946879
0.00976579
0.0099717
0.010175
0.00540738
0.00546775
0.00556374
0.00562871
0.00567642
0.00573404
0.00585433
0.00599866
0.0064447
0.00734272
0.00840552
0.00955754
0.00908399
0.00870793
0.00989163
0.00917161
0.00987422
0.0099194
0.00954942
0.00912465
0.00933362
0.00960107
0.00983587
0.00544512
0.00549575
0.00558575
0.00564905
0.00569535
0.00574872
0.00586023
0.00600065
0.00645903
0.00724335
0.00825369
0.00911647
0.00867054
0.0084872
0.00954144
0.00905152
0.00981461
0.00992162
0.00952379
0.00892491
0.00909559
0.00931489
0.00945999
0.00547556
0.00552216
0.00560853
0.00566846
0.00571408
0.00576439
0.00586633
0.00600149
0.0064508
0.00716018
0.00814244
0.0087917
0.00833562
0.00840086
0.00911314
0.00890364
0.00977676
0.00992457
0.00947357
0.00888269
0.00903245
0.00906664
0.00922605
0.00550926
0.00555015
0.00563014
0.00568762
0.0057332
0.00577952
0.00587315
0.00600213
0.00646327
0.00707412
0.0080373
0.00854904
0.0082909
0.00839876
0.00875462
0.00879654
0.00965663
0.00987195
0.00928967
0.00885411
0.00888563
0.00895756
0.00909757
0.00553613
0.00557761
0.00565338
0.00570758
0.00575267
0.00579615
0.0058807
0.00600338
0.00646544
0.00701726
0.0079477
0.0083509
0.00825069
0.00838414
0.00852831
0.00859708
0.00939775
0.00966308
0.00913462
0.00878585
0.00884844
0.00887541
0.0090073
0.00556711
0.00560604
0.00567559
0.00572691
0.00577139
0.00581154
0.00588897
0.0060052
0.00645217
0.00695014
0.00784273
0.00820353
0.00821886
0.00836978
0.00853069
0.00841955
0.00910763
0.00939329
0.00905436
0.00881818
0.00883062
0.00885917
0.00898595
0.00559227
0.00563399
0.00569875
0.00574666
0.00579062
0.00582829
0.00589781
0.00600767
0.00646536
0.00689093
0.00774753
0.00805498
0.00838081
0.0084128
0.00850987
0.00841556
0.00873804
0.00911844
0.00894605
0.00881922
0.00881139
0.00886354
0.00896332
0.00561912
0.00566077
0.00572152
0.00576673
0.00580907
0.00584372
0.00590718
0.00601059
0.00646707
0.00685312
0.00764862
0.00795279
0.00854461
0.00844759
0.00850508
0.00833197
0.00856991
0.0087764
0.0088332
0.00882651
0.00879167
0.00887441
0.00896172
0.00564422
0.00568854
0.00574268
0.00578523
0.00582622
0.00585889
0.0059166
0.00601401
0.00645153
0.00686048
0.00753843
0.00784633
0.00864403
0.00847857
0.00846458
0.00836599
0.00849533
0.00860255
0.00872523
0.00878072
0.00881499
0.00889253
0.00899325
0.00566885
0.00571298
0.00576577
0.00580561
0.00584427
0.00587469
0.00592639
0.0060177
0.00646623
0.00685685
0.00746304
0.00770834
0.00863175
0.00853695
0.00846537
0.00836502
0.0084141
0.00846574
0.00873904
0.00880449
0.00888493
0.00893077
0.0091094
0.00569054
0.00573772
0.00578483
0.00582275
0.00586003
0.00588781
0.00593614
0.00602168
0.0064672
0.00684628
0.00736087
0.00771479
0.00850826
0.00848178
0.00847096
0.008366
0.00837847
0.00849338
0.00869047
0.0088007
0.0089233
0.00899212
0.00918329
0.00571744
0.0057604
0.00580633
0.00584136
0.0058748
0.00590224
0.00594532
0.00602594
0.00644939
0.00684479
0.0072812
0.00769148
0.00838863
0.00851326
0.00845787
0.00835306
0.00835458
0.00849087
0.00866895
0.00873838
0.0089807
0.00908636
0.00932553
0.00573342
0.0057833
0.00582317
0.00585809
0.00589133
0.00591466
0.00595536
0.00603018
0.00646109
0.00684412
0.00722079
0.00768475
0.00828212
0.0084925
0.00846001
0.00835746
0.00833028
0.0084831
0.00869573
0.00880841
0.00902781
0.00915671
0.00941388
0.00575859
0.00579877
0.00584172
0.00587418
0.00590271
0.00592731
0.0059636
0.00603496
0.00645605
0.00683801
0.00723356
0.00766222
0.00822693
0.00845551
0.00845198
0.0083552
0.00837035
0.00843865
0.00869485
0.00882175
0.00913495
0.00933562
0.00968228
0.00577593
0.00582001
0.00585877
0.00588644
0.00591608
0.00593569
0.00597267
0.00603936
0.00645507
0.00684095
0.00720717
0.0076601
0.00815794
0.0085191
0.00842322
0.00835078
0.00835968
0.00844968
0.00872265
0.00887141
0.00922509
0.00945791
0.00983295
0.00578618
0.00583637
0.00587016
0.00590253
0.00592958
0.00594916
0.00598135
0.00604414
0.00645195
0.00683609
0.0072344
0.00765722
0.00819063
0.00852906
0.00844079
0.00833901
0.00840404
0.00854051
0.0088231
0.00906664
0.0094118
0.00982153
0.0104561
0.00578577
0.00583607
0.00587093
0.00591043
0.00593078
0.00595359
0.00598721
0.00604895
0.0064343
0.00683603
0.00722228
0.00767923
0.00814347
0.0085267
0.00845413
0.00839143
0.00850668
0.00862507
0.00889691
0.00924151
0.00965562
0.0101752
0.0110073
0.0057873
0.00583704
0.00587307
0.00591502
0.00593253
0.00595603
0.00599555
0.00605355
0.0064463
0.00679728
0.00722233
0.0076805
0.00824739
0.0085889
0.00853686
0.00855154
0.00870751
0.00887216
0.009123
0.0095471
0.00994363
0.0106178
0.0117613
0.00578992
0.0058397
0.00587644
0.00591725
0.00593658
0.00595731
0.00600161
0.00605809
0.0064482
0.00681722
0.00721372
0.00770003
0.00835302
0.00866786
0.0086213
0.00869161
0.00885263
0.00902746
0.009285
0.00991128
0.0106555
0.0121679
0.0144459
0.00579466
0.00583945
0.00588215
0.0059204
0.00593621
0.0059578
0.00600141
0.00606252
0.00644821
0.00682622
0.00721783
0.00769852
0.00838123
0.00880808
0.00883532
0.00893269
0.0092012
0.00945023
0.00978478
0.0106874
0.0119304
0.0142144
0.0176716
0.0057952
0.00583949
0.00588479
0.00591743
0.00593925
0.00595674
0.00600172
0.0060669
0.00645067
0.00682866
0.00722103
0.00772437
0.00842662
0.00891494
0.00910511
0.00907259
0.00931804
0.00961407
0.0102578
0.0113682
0.0130614
0.0167517
0.0227214
0.00580075
0.0058396
0.00588563
0.00591604
0.00594153
0.00595909
0.00600236
0.00607081
0.00646685
0.00681862
0.00720549
0.00779196
0.00872696
0.00909456
0.00932056
0.00957421
0.00975912
0.0103999
0.0112413
0.0131787
0.0163026
0.0224155
0.0305923
0.00580384
0.00583934
0.00588509
0.00591578
0.00593789
0.00595643
0.00600224
0.00607435
0.00647373
0.00685573
0.00718982
0.00786593
0.00888388
0.00933921
0.00970069
0.00992941
0.0101956
0.010985
0.012916
0.0155358
0.0199299
0.0280661
0.0402031
0.00579702
0.00583904
0.00588181
0.00591692
0.00593743
0.00595602
0.00600433
0.00607793
0.0065005
0.00685854
0.00723724
0.00792228
0.00906103
0.00970164
0.010077
0.0105975
0.0109185
0.0122825
0.0147021
0.0184382
0.0250383
0.0371252
0.0533492
0.0057956
0.0058434
0.00588111
0.00591463
0.00593694
0.00595748
0.00600356
0.00608231
0.00650547
0.00683873
0.00724027
0.00801312
0.00931931
0.0102207
0.0109513
0.0118668
0.0122379
0.0140872
0.0176622
0.0234094
0.0328617
0.049183
0.0669892
0.00579397
0.0058379
0.00588278
0.0059153
0.00594048
0.00595797
0.00600495
0.00608386
0.00650895
0.00683776
0.00722397
0.00814645
0.00980195
0.0107899
0.0116491
0.0125763
0.0142638
0.0168928
0.0216405
0.0290959
0.0418238
0.0612692
0.0829574
0.00579379
0.00583761
0.00588501
0.00591265
0.00593671
0.00595521
0.00600583
0.00608483
0.00651423
0.00688766
0.00728576
0.0083216
0.0107088
0.0126514
0.0130723
0.0145398
0.0159693
0.0193409
0.024745
0.0346513
0.0501978
0.0738581
0.0977315
0.00579213
0.00583976
0.00588195
0.00591005
0.00593891
0.00595764
0.0060033
0.00608583
0.00652241
0.00690038
0.00729438
0.0085289
0.0119697
0.0144084
0.0156283
0.0177178
0.0201552
0.0238063
0.0310417
0.0433079
0.0622122
0.0878971
0.111523
0.00579105
0.00583259
0.00588463
0.00590979
0.00593812
0.00596002
0.00600317
0.00608741
0.00653912
0.00692277
0.00728555
0.00872574
0.0130752
0.0170405
0.0173844
0.0202028
0.0224829
0.0270243
0.0353565
0.0500493
0.0723233
0.101523
0.125315
0.00579165
0.00583136
0.00587822
0.00591138
0.00593763
0.00595612
0.00600407
0.00608823
0.00655156
0.00692289
0.0072692
0.00942377
0.0159316
0.0221259
0.0216919
0.024333
0.0274286
0.0331358
0.0436139
0.0613938
0.0861877
0.11391
0.140659
0.00578702
0.00583246
0.00587714
0.00591001
0.00593793
0.00595563
0.00600344
0.00609128
0.00655535
0.00693507
0.00728571
0.00989505
0.0198498
0.0278055
0.0271016
0.0280723
0.0313924
0.0375478
0.0486228
0.0679982
0.0954415
0.124477
0.150862
0.00578861
0.00582422
0.00587732
0.00590994
0.00593169
0.00595478
0.00600268
0.00609301
0.0065957
0.00693944
0.00734014
0.0106863
0.0237449
0.0327076
0.0302997
0.0327241
0.0357427
0.0431423
0.0579125
0.0814877
0.109521
0.137421
0.159058
0.00577763
0.00582386
0.00587788
0.00590958
0.0059313
0.00595088
0.00600265
0.00609869
0.00660431
0.00694808
0.00738681
0.0121857
0.0581705
0.0439484
0.0391408
0.0379212
0.0431288
0.0517701
0.0672871
0.0916546
0.119633
0.146903
0.16017
0.0057765
0.00582884
0.00587747
0.00590116
0.00592932
0.00594983
0.00599931
0.00610034
0.00661206
0.00692635
0.00746865
0.0238585
0.0840939
0.0545614
0.0454271
0.0461063
0.0461573
0.0540931
0.073605
0.103388
0.132691
0.157151
0.161073
0.00577959
0.00582528
0.00587289
0.00589886
0.00592844
0.00594412
0.00599876
0.00610153
0.00661472
0.0069377
0.00767057
0.0414381
0.178702
0.0814027
0.0555898
0.0512084
0.054692
0.0661678
0.0928543
0.119676
0.147894
0.163124
0.164283
0.00576816
0.00582708
0.00586946
0.00589464
0.00592853
0.00594354
0.00600001
0.00610982
0.00666592
0.00697275
0.00784714
0.0796655
0.189434
0.102542
0.0694015
0.0639641
0.0670654
0.0802309
0.103162
0.135701
0.160915
0.168122
0.166073
0.0057683
0.00582517
0.00586766
0.00589323
0.00592993
0.00594467
0.00599973
0.00611196
0.00667306
0.00701977
0.00822837
0.120707
0.22178
0.119866
0.0846807
0.0712373
0.0762919
0.0906393
0.121936
0.154357
0.167504
0.172802
0.167809
0.00576868
0.00582109
0.00585707
0.0058899
0.00592766
0.00594611
0.00599703
0.00611258
0.00665313
0.00709102
0.00853202
0.175778
0.259248
0.155301
0.102679
0.0874035
0.0972262
0.11784
0.150708
0.172423
0.183288
0.176934
0.165384
0.00577588
0.00581562
0.00585596
0.00588858
0.00592455
0.00594446
0.00599506
0.00611924
0.00670284
0.00716496
0.0101785
0.320077
0.292497
0.185245
0.122491
0.105471
0.123367
0.147152
0.177777
0.191803
0.191617
0.176778
0.156642
0.00577016
0.0058012
0.0058608
0.00589235
0.00591935
0.00594149
0.00599092
0.00611425
0.00666803
0.00725152
0.0116533
0.359455
0.313038
0.21559
0.140794
0.127659
0.143926
0.17712
0.195407
0.199335
0.192922
0.175671
0.151832
0.00576278
0.00579751
0.00586033
0.00589087
0.00591467
0.00593515
0.00598956
0.00611347
0.00663231
0.00741554
0.0130369
0.361827
0.369378
0.23367
0.151986
0.152918
0.171996
0.191445
0.202481
0.204154
0.193438
0.16755
0.140208
0.00575488
0.00580077
0.00585238
0.00588556
0.00590934
0.00592529
0.00598592
0.00610501
0.00658179
0.00746016
0.0143952
0.416347
0.401233
0.252175
0.172172
0.175233
0.189328
0.200122
0.202743
0.203612
0.19481
0.161342
0.12919
0.00574822
0.0057974
0.00584558
0.00587775
0.00590331
0.00592143
0.00598025
0.00609348
0.00653106
0.00746119
0.0160285
0.476765
0.419554
0.276339
0.198272
0.195284
0.195969
0.199708
0.203861
0.2044
0.192106
0.154686
0.117768
0.00573108
0.00579103
0.0058355
0.00586746
0.00589521
0.00592103
0.0059739
0.0060836
0.00648566
0.00758409
0.0207416
0.672129
0.467966
0.302265
0.221773
0.209202
0.198462
0.200202
0.203602
0.203062
0.181532
0.139634
0.0954585
0.00572128
0.00577318
0.00581775
0.00585497
0.00588383
0.00591424
0.00596675
0.00607534
0.00644419
0.00770053
0.023899
0.791654
0.599057
0.3115
0.234671
0.211954
0.198999
0.198378
0.198366
0.186078
0.151102
0.10798
0.0639779
0.00571952
0.00574638
0.00579275
0.00583926
0.00586355
0.00590378
0.00595859
0.00606878
0.00640365
0.00783797
0.0336535
0.530587
0.672594
0.442963
0.2737
0.2146
0.191266
0.185216
0.175747
0.152134
0.113923
0.0738104
0.0377053
0.00570674
0.00573741
0.00578363
0.00581561
0.00585264
0.0058934
0.00594855
0.00606213
0.00641081
0.0084836
0.0592542
0.426435
0.663992
0.374714
0.256439
0.208206
0.173023
0.161668
0.144452
0.116375
0.0814137
0.0484203
0.0237745
0.00568634
0.00574014
0.00578443
0.00578424
0.00583179
0.00587689
0.00593732
0.00605704
0.00642301
0.00891319
0.0717887
0.677689
0.744207
0.328575
0.241424
0.19157
0.151461
0.139251
0.120976
0.0920752
0.0614017
0.0337355
0.0175969
0.00566271
0.00572779
0.00577325
0.00577254
0.00583051
0.00585743
0.0059229
0.00604968
0.00644772
0.0100847
0.149277
0.942456
0.597015
0.291879
0.221764
0.170646
0.136753
0.125319
0.10141
0.07418
0.0467444
0.026198
0.0150838
0.00563748
0.00570472
0.00575325
0.00577244
0.00581563
0.00584449
0.00590773
0.00604536
0.00655566
0.0116942
0.168714
0.821198
0.475096
0.260759
0.205723
0.151064
0.125631
0.113168
0.0905752
0.0613534
0.0406768
0.0226998
0.0140329
0.00561066
0.00567772
0.00572907
0.00575635
0.00579348
0.00582895
0.00588752
0.00603854
0.00649548
0.0123678
0.188171
0.602997
0.378436
0.233866
0.188119
0.139457
0.111292
0.094379
0.0709659
0.0528468
0.0347065
0.018594
0.0132013
0.00557809
0.00564461
0.00569756
0.00573013
0.00576599
0.00580754
0.00586766
0.00603486
0.00700343
0.0157057
0.263552
0.462414
0.30576
0.223709
0.159853
0.128879
0.10345
0.0934326
0.0661968
0.0466225
0.0292557
0.0162794
0.0123765
0.00553983
0.00560928
0.0056628
0.00569904
0.00573262
0.00577689
0.00584021
0.0060343
0.00736434
0.0193747
0.266073
0.374589
0.253702
0.208885
0.155426
0.121907
0.1034
0.0938301
0.0614761
0.0419928
0.022906
0.0144978
0.0124593
0.00549291
0.0055656
0.00561931
0.00565953
0.00569423
0.00574412
0.00581442
0.00602599
0.00770894
0.0219813
0.197578
0.273418
0.231096
0.195358
0.152542
0.117694
0.109854
0.0841357
0.0514351
0.0346823
0.0227402
0.0146214
0.0125672
0.00544518
0.00551871
0.0055726
0.00561599
0.00564865
0.00569949
0.00577805
0.00603646
0.0084251
0.0343088
0.175663
0.231213
0.210889
0.178892
0.146821
0.125563
0.10496
0.0822943
0.0540232
0.0338277
0.0210185
0.0153813
0.0125877
0.00538846
0.00546036
0.00551506
0.00556201
0.00559707
0.00565425
0.00574377
0.00600895
0.00891287
0.036246
0.154584
0.202785
0.192808
0.177218
0.154069
0.132052
0.0992622
0.0857784
0.0555451
0.0341096
0.0212489
0.0148114
0.0122001
0.00532916
0.00539897
0.00545438
0.00550382
0.00553697
0.00559413
0.00569541
0.00601666
0.00867695
0.0330247
0.132489
0.172466
0.186711
0.180703
0.160947
0.143291
0.108025
0.0814364
0.0552013
0.0328099
0.0199868
0.0129972
0.0118358
0.00525498
0.00532292
0.00537964
0.00543183
0.00546881
0.00553449
0.00564899
0.00602618
0.0118273
0.0437599
0.117768
0.152566
0.173719
0.168625
0.165467
0.150908
0.108089
0.0799305
0.0525312
0.0293502
0.0150951
0.0122808
0.0110995
0.00517661
0.00524495
0.00530258
0.00535603
0.00539128
0.00545643
0.00558057
0.0059852
0.0122773
0.0422819
0.106101
0.137249
0.168869
0.167758
0.174974
0.14851
0.106483
0.0764398
0.0470523
0.0228394
0.0127417
0.011121
0.00966863
0.00507881
0.00514788
0.00520744
0.00526194
0.00530307
0.00537983
0.0055173
0.0059655
0.0119884
0.0372137
0.0968665
0.132938
0.163888
0.166152
0.162676
0.153097
0.107895
0.0693037
0.0352916
0.0150946
0.0108241
0.00933752
0.00817766
0.00497847
0.00505112
0.00511197
0.00516549
0.00520546
0.0052791
0.00542284
0.00595254
0.0133538
0.0385957
0.0994358
0.130829
0.172681
0.179556
0.178363
0.159361
0.109449
0.0618257
0.0222651
0.011269
0.00880876
0.00771621
0.00711678
0.0048546
0.00492952
0.00499222
0.00504482
0.0050938
0.00518219
0.00534128
0.00589211
0.0133523
0.042771
0.0973106
0.134208
0.183531
0.190874
0.184487
0.150906
0.0926973
0.0463856
0.0137809
0.00875509
0.0072919
0.00669
0.00639695
0.00473251
0.00481227
0.00487572
0.00492548
0.00497268
0.00505228
0.00523344
0.00709217
0.0233163
0.045082
0.0952479
0.145047
0.191591
0.202437
0.201098
0.144793
0.0838306
0.0288752
0.00947686
0.00711011
0.00637716
0.00608284
0.00593977
0.00458118
0.0046629
0.00472575
0.00477371
0.00483301
0.00493218
0.00513323
0.00752548
0.0258547
0.0514965
0.0975699
0.156581
0.20765
0.219151
0.210472
0.143247
0.0655538
0.0146813
0.00725042
0.00615988
0.00581842
0.00568108
0.00561282
0.00443958
0.00452549
0.00458668
0.00463162
0.00468522
0.0047694
0.00497799
0.00731982
0.023548
0.0651467
0.108586
0.183006
0.236748
0.240205
0.186187
0.120456
0.0370493
0.00894255
0.00605918
0.00559021
0.00543443
0.00536913
0.00533512
0.00425957
0.00434488
0.00440141
0.0044448
0.0045139
0.00463053
0.00487659
0.00834216
0.0298361
0.0895605
0.137672
0.241336
0.270143
0.235602
0.188786
0.0870351
0.0163322
0.00642205
0.00539989
0.00521361
0.00514755
0.00511869
0.00509972
0.00410384
0.00419189
0.00424275
0.00428347
0.00433895
0.00444275
0.00515152
0.0109129
0.0437873
0.116158
0.203181
0.306946
0.308293
0.233782
0.151299
0.0364899
0.0086754