/*--------------------------------*- C++ -*----------------------------------*\
  =========                 |
  \\      /  F ield         | OpenFOAM: The Open Source CFD Toolbox
   \\    /   O peration     | Website:  https://openfoam.org
    \\  /    A nd           | Version:  7
     \\/     M anipulation  |
\*---------------------------------------------------------------------------*/
FoamFile
{
    version     2.0;
    format      ascii;
    class       volScalarField;
    location    "50";
    object      nut;
}
// * * * * * * * * * * * * * * * * * * * * * * * * * * * * * * * * * * * * * //

dimensions      [0 2 -1 0 0 0 0];

internalField   nonuniform List<scalar> 
12842
(
0.00180831
0.00179385
0.0017875
0.00179451
0.00177241
0.0017684
0.00176255
0.00175115
0.00175891
0.00175874
0.00175986
0.00177141
0.00178271
0.00147586
0.000682061
0.000376285
0.000240225
0.000172333
0.000132108
0.000107314
8.99859e-05
8.04083e-05
6.94946e-05
0.00180655
0.00179074
0.00176352
0.00178698
0.00177106
0.00177227
0.00176361
0.00175525
0.00176175
0.00175498
0.00176364
0.00178528
0.00180709
0.00156346
0.000709651
0.000387274
0.0002463
0.000175471
0.000133939
0.00010867
9.03308e-05
8.09787e-05
6.92682e-05
0.00181125
0.00178995
0.00177287
0.00177988
0.00176631
0.00177532
0.00176433
0.00176429
0.00176441
0.00175519
0.00177934
0.00179818
0.0018155
0.00158399
0.000722875
0.000395516
0.000253491
0.000180431
0.00013556
0.000109325
9.2353e-05
8.33659e-05
7.15721e-05
0.00180475
0.00178829
0.00176312
0.00177689
0.00176422
0.00177082
0.00175796
0.00176697
0.00176405
0.00175432
0.00178127
0.00181067
0.00185373
0.00157632
0.000722394
0.000397056
0.000253887
0.000181982
0.000138594
0.000109903
9.19141e-05
8.39279e-05
7.18456e-05
0.00180798
0.00178486
0.0017729
0.00177372
0.00176485
0.00176911
0.00175787
0.00176813
0.00176444
0.00176684
0.00179186
0.00181848
0.00187998
0.00153709
0.000708984
0.000396377
0.000256111
0.000181355
0.000139001
0.000112995
9.37328e-05
8.61097e-05
7.44415e-05
0.0018032
0.00177898
0.00176615
0.00177076
0.00176698
0.00176457
0.00175586
0.00176719
0.00176235
0.00177699
0.00180584
0.0018417
0.00191105
0.00155991
0.000716051
0.000395849
0.000257552
0.000183472
0.00014036
0.000114474
9.64587e-05
8.84252e-05
7.67897e-05
0.00180511
0.00177547
0.00177195
0.00176552
0.00176733
0.00176464
0.00175793
0.00176615
0.00175864
0.00179383
0.00183279
0.00188121
0.00196435
0.00147776
0.000694901
0.000394285
0.000255243
0.000183161
0.000139517
0.000115207
9.85703e-05
9.25643e-05
7.97083e-05
0.00180226
0.00177396
0.00176816
0.0017631
0.0017696
0.00176156
0.001759
0.00176687
0.00176752
0.00179782
0.00184689
0.00191
0.00198205
0.00161775
0.000724899
0.000398514
0.000261914
0.000187321
0.000146916
0.000118802
0.000101379
9.58938e-05
8.41779e-05
0.00179983
0.0017724
0.00177204
0.00175939
0.00176801
0.00176038
0.00176164
0.00176652
0.00177678
0.00181429
0.00187766
0.00195726
0.00203681
0.00174972
0.000758954
0.000415374
0.0002692
0.000194556
0.000150891
0.000125024
0.000106121
0.000101209
8.86563e-05
0.0018007
0.00176829
0.00177097
0.00175813
0.00176874
0.00175966
0.00176329
0.00176663
0.00179029
0.00182939
0.00190647
0.0019918
0.0020558
0.00168803
0.000766804
0.000419355
0.00027033
0.00019451
0.000152261
0.000125955
0.000106706
0.000101219
8.92735e-05
0.00179376
0.00176974
0.00177066
0.00175638
0.00176645
0.00175896
0.00176457
0.0017679
0.00179882
0.00184968
0.00194102
0.00202927
0.00208983
0.00160489
0.000753019
0.000428844
0.000277933
0.000200332
0.000155894
0.000128969
0.00011176
0.000106633
9.41707e-05
0.00179485
0.00176546
0.00177077
0.00175618
0.00176535
0.00175868
0.00176565
0.00176407
0.00181315
0.00186659
0.00197003
0.00205469
0.00209773
0.00160395
0.000779129
0.000440422
0.000281288
0.000208465
0.000162715
0.000136976
0.000119775
0.000112909
9.85971e-05
0.00178903
0.00176694
0.00176906
0.00175519
0.0017628
0.00175869
0.00176717
0.00176408
0.00182039
0.00189047
0.00200601
0.00208912
0.00212711
0.0015531
0.000773247
0.000459242
0.000306685
0.000221864
0.00017559
0.00014482
0.000127592
0.000120441
0.000107389
0.00178753
0.00176588
0.00176986
0.00175499
0.00176123
0.00175898
0.00176758
0.00177045
0.00183306
0.00191175
0.00203341
0.00210712
0.00212757
0.00157589
0.000817052
0.000485199
0.000314358
0.000239633
0.000185069
0.000153397
0.000141716
0.000132402
0.000117232
0.00178406
0.00176373
0.00176811
0.00175371
0.00175813
0.00175969
0.0017683
0.00177106
0.00184713
0.00193924
0.00206662
0.00213687
0.00214919
0.00154015
0.000817692
0.000505534
0.000344057
0.00025438
0.000202202
0.000173131
0.000158786
0.00014202
0.000126393
0.00178217
0.00176517
0.00177031
0.00175331
0.00175648
0.00176034
0.00176881
0.00178356
0.00186798
0.001962
0.0020875
0.00214438
0.0021345
0.00159254
0.000871606
0.000546437
0.000362347
0.000284201
0.000227609
0.000187545
0.000171021
0.000156977
0.000152505
0.00177864
0.00176224
0.00176916
0.00175153
0.00175401
0.00176182
0.00176831
0.00179321
0.00188639
0.00198724
0.00211225
0.00216385
0.00213771
0.00160457
0.000894418
0.000568373
0.000400688
0.000308348
0.000241686
0.000206988
0.000206565
0.000194754
0.000181928
0.0017777
0.00176093
0.00177132
0.0017511
0.00175307
0.00176234
0.00176938
0.00181636
0.00190821
0.00200485
0.00212207
0.00216157
0.00211575
0.00166496
0.000968932
0.000643678
0.000437983
0.000341252
0.000283183
0.000257527
0.000250869
0.000220273
0.000209773
0.00177381
0.00176038
0.0017717
0.00174904
0.00175178
0.00176445
0.00177331
0.00183183
0.00192463
0.00202107
0.00213639
0.00217035
0.00210484
0.00172829
0.00103497
0.00067276
0.000494274
0.000410561
0.000345963
0.000295707
0.000281182
0.000265246
0.000283326
0.00177467
0.0017559
0.00177183
0.0017489
0.00175162
0.00176556
0.00178418
0.00186363
0.00193863
0.00203072
0.00213453
0.00216005
0.00208005
0.00176421
0.00108916
0.000794209
0.000586574
0.000483071
0.000388525
0.000348681
0.00037168
0.000377152
0.000412783
0.00176895
0.0017548
0.00177368
0.00174825
0.00175263
0.00176709
0.00179434
0.00188437
0.00194872
0.00203623
0.0021405
0.00216508
0.00207574
0.0018501
0.00122536
0.000852431
0.000659684
0.000530135
0.000495614
0.000497538
0.000511181
0.000536864
0.000556905
0.00177206
0.00174973
0.00177321
0.00174729
0.00174892
0.00177648
0.00182072
0.00190768
0.00195736
0.0020406
0.00213563
0.00214934
0.00202862
0.001854
0.00125765
0.000981347
0.000768519
0.000683853
0.000664875
0.000670095
0.000684884
0.000553734
0.000435217
0.0017664
0.00174799
0.00177248
0.00175003
0.00175867
0.00179648
0.00184225
0.0019162
0.00196257
0.00203978
0.00213164
0.00214874
0.00204357
0.00186234
0.00142783
0.00109376
0.000902982
0.000913531
0.000870442
0.000750824
0.000552312
0.000408992
0.000341984
0.00176863
0.0017419
0.00177562
0.00174902
0.00176913
0.00182928
0.00186906
0.00192718
0.00196851
0.00203975
0.00212896
0.00213757
0.00198048
0.00175467
0.00148644
0.00123613
0.00115152
0.00104543
0.000826769
0.000595832
0.000418407
0.000339141
0.000317441
0.00176398
0.00174019
0.00177454
0.00175176
0.00178677
0.0018568
0.00188283
0.00192776
0.00196693
0.00203545
0.00212116
0.00212472
0.00197457
0.00174384
0.00148006
0.00134539
0.00126752
0.0010317
0.000661562
0.000465054
0.000375781
0.000337636
0.000336161
0.00176572
0.00173756
0.00177846
0.00175876
0.00181154
0.00187405
0.00189004
0.00192651
0.00196309
0.00203012
0.0021156
0.00211163
0.00191169
0.00167698
0.00150837
0.001489
0.00138337
0.00083668
0.000545827
0.00042402
0.000374501
0.000356456
0.000361541
0.00176253
0.00173628
0.00178616
0.00178078
0.00182731
0.00188683
0.00189367
0.00192126
0.00195759
0.00202358
0.00210629
0.00209657
0.00189362
0.00163895
0.00150687
0.00150122
0.00111776
0.000662161
0.000482408
0.00041641
0.000383758
0.000374564
0.000383022
0.00176417
0.00173432
0.00180642
0.0018036
0.00184096
0.00189187
0.00189268
0.00191568
0.00195123
0.00201741
0.00209851
0.00207483
0.00183889
0.00164915
0.00173091
0.00155034
0.000881894
0.000584172
0.000463381
0.000415818
0.00039034
0.000385435
0.000396737
0.00176186
0.00173575
0.00183695
0.00182303
0.00184741
0.00189603
0.00189086
0.00190828
0.00194419
0.00201155
0.00209342
0.00206959
0.00181808
0.00159405
0.00178841
0.0012561
0.000789805
0.000522406
0.000446544
0.000413896
0.000391736
0.0003909
0.000401263
0.00176429
0.00174595
0.00186254
0.00183592
0.00185299
0.00189422
0.0018868
0.00190153
0.00193714
0.00200574
0.00208156
0.00203264
0.00173296
0.00170386
0.00159845
0.00104258
0.000708476
0.000483791
0.000440406
0.00041113
0.000392093
0.00038825
0.000405531
0.0017663
0.0017693
0.00188556
0.00184709
0.0018552
0.00189303
0.00188272
0.00189425
0.00193015
0.00200131
0.00208113
0.00202713
0.0017466
0.00177893
0.0013593
0.0010899
0.000688881
0.00047322
0.000435994
0.000407841
0.000391065
0.000383863
0.000409341
0.00176553
0.00179783
0.00189931
0.00185281
0.00185455
0.00188852
0.00187825
0.00188796
0.00192349
0.00199676
0.00206638
0.0019727
0.00156142
0.00165092
0.00129448
0.00102992
0.000644795
0.000475874
0.000436142
0.000407517
0.000396227
0.000384336
0.000406104
0.00177215
0.00182791
0.0019104
0.00185957
0.0018572
0.00188482
0.00187357
0.00188154
0.00191727
0.00199268
0.00206359
0.00195658
0.00169233
0.00168286
0.00128942
0.00109921
0.000633434
0.000478496
0.000449193
0.00042598
0.000416024
0.000398826
0.000415494
0.00178571
0.00186049
0.00191375
0.00186062
0.00185235
0.00187945
0.00186905
0.00187627
0.00191153
0.00198999
0.00205079
0.00188936
0.00155198
0.00154193
0.00128226
0.00112003
0.000627682
0.000499702
0.000477911
0.000455544
0.000445512
0.000424442
0.00042903
0.0018031
0.00187768
0.00191685
0.00186498
0.0018546
0.0018743
0.00186523
0.00187109
0.00190654
0.00198581
0.00203876
0.00181203
0.00160155
0.0014978
0.00136269
0.0010724
0.000644431
0.000540948
0.000515055
0.0004916
0.000484953
0.000455667
0.000439275
0.00182797
0.00189716
0.00191351
0.00186279
0.00185061
0.00186897
0.00186109
0.00186696
0.00190184
0.00198379
0.00201859
0.00173227
0.00159043
0.00144546
0.00144674
0.00106581
0.000709627
0.000594814
0.000563252
0.000533834
0.000520843
0.000489065
0.000454673
0.00184817
0.00190089
0.00190984
0.0018652
0.00184963
0.0018639
0.00185829
0.00186307
0.00189843
0.00198053
0.00201278
0.00172174
0.00154002
0.00149413
0.00149239
0.00107239
0.000806572
0.000678087
0.000616828
0.000577577
0.000561221
0.000524897
0.000471185
0.00186586
0.0019086
0.00190576
0.00186228
0.00184873
0.00185772
0.00185542
0.00186017
0.00189476
0.00197772
0.0019777
0.00160268
0.00152026
0.00159177
0.00163833
0.0011959
0.000894339
0.000762078
0.000675106
0.000611518
0.000599649
0.000560532
0.000495443
0.00187604
0.0019045
0.00189707
0.00186078
0.00184517
0.00185361
0.00185327
0.00185741
0.00189277
0.00197594
0.00195465
0.00166104
0.00156845
0.00171627
0.00172384
0.0013569
0.00102839
0.000846252
0.000733958
0.000640165
0.000630102
0.000587044
0.000526418
0.00188365
0.00190403
0.00189158
0.00186084
0.00184532
0.00184851
0.00185145
0.00185553
0.00189029
0.00197083
0.00193646
0.00162067
0.00156819
0.00183416
0.00196949
0.00144952
0.00109237
0.000903815
0.00077739
0.000671499
0.000663309
0.000614111
0.000560194
0.00188338
0.00189842
0.00188357
0.00185378
0.00184217
0.00184322
0.00184957
0.00185367
0.00188893
0.00196918
0.00191813
0.00165303
0.00162697
0.00200049
0.00211819
0.00149893
0.00114959
0.000971187
0.000829415
0.000710425
0.000696418
0.00064365
0.000597882
0.00188212
0.00189172
0.00187471
0.0018571
0.00183988
0.00183901
0.00184857
0.00185246
0.00188797
0.00197124
0.0019002
0.00166156
0.00165097
0.00205941
0.0022201
0.00156678
0.00118516
0.000998087
0.000862373
0.000753581
0.000730268
0.000673368
0.000631076
0.00187713
0.00188645
0.00186805
0.00184764
0.001836
0.00183428
0.00184586
0.00185126
0.00188687
0.00196691
0.00187608
0.00175856
0.00176185
0.00199039
0.00224615
0.00159833
0.00120652
0.00100449
0.000878439
0.000780222
0.000743751
0.000692557
0.000658137
0.00187121
0.00187693
0.00185853
0.00184632
0.00183223
0.00182914
0.001845
0.0018504
0.00188719
0.00196962
0.0018201
0.00171272
0.00209451
0.00195419
0.00211688
0.00159395
0.00116855
0.000949707
0.000839025
0.00076276
0.000747559
0.000701214
0.000674791
0.00186478
0.00187021
0.00185134
0.00183975
0.00182988
0.00182722
0.00184295
0.00184968
0.00188629
0.00196039
0.00181914
0.00181911
0.00201721
0.00167607
0.00193259
0.00149785
0.00110906
0.000903063
0.000793806
0.000721848
0.000729051
0.000689475
0.000670002
0.0018575
0.00185867
0.0018429
0.00183437
0.0018257
0.00182557
0.00184178
0.00184895
0.00188663
0.00195923
0.00181771
0.00174098
0.00204971
0.00178972
0.00172317
0.00136462
0.00104344
0.000864427
0.000765322
0.00069523
0.000682236
0.000652772
0.000637807
0.0018513
0.00185303
0.00183662
0.00182975
0.0018258
0.00182623
0.00184058
0.00184882
0.00188796
0.00195544
0.00180933
0.00195084
0.00212006
0.00202497
0.0015479
0.00121894
0.000968116
0.000840227
0.000739618
0.000672055
0.000648476
0.000617108
0.000596713
0.00184508
0.00184495
0.00182988
0.00182686
0.0018236
0.00182178
0.00183837
0.00184809
0.00188769
0.00195456
0.00173846
0.0019044
0.0020826
0.00202111
0.00139168
0.00111465
0.000903948
0.000809211
0.000727101
0.00066064
0.000607892
0.000583739
0.000572468
0.00184075
0.00184111
0.00182403
0.00182469
0.00182406
0.00181964
0.00183836
0.00184811
0.00188921
0.00193472
0.00174941
0.00186536
0.00209267
0.00182025
0.00130842
0.0010087
0.00085545
0.00080092
0.000709233
0.000648727
0.00060088
0.00056417
0.000546643
0.00183734
0.00183702
0.00182073
0.00182322
0.00182231
0.00181809
0.00183879
0.00184741
0.00189194
0.00195374
0.00188816
0.00177936
0.00177314
0.00159583
0.00123178
0.000968575
0.000828148
0.000784916
0.000710745
0.000644127
0.000575287
0.000543435
0.000528261
0.00183652
0.00183376
0.00181793
0.00182246
0.00182305
0.00181814
0.00183939
0.00184726
0.0018961
0.0019639
0.00191807
0.00167481
0.00141623
0.0014268
0.00115052
0.000950397
0.000847653
0.000788289
0.000710958
0.000647371
0.000575912
0.000544295
0.000530046
0.00183747
0.00183311
0.00181893
0.00182366
0.00182277
0.00181865
0.00183931
0.00184627
0.00189705
0.00199011
0.00192072
0.00160099
0.00129687
0.000838615
0.000685931
0.000935854
0.000848728
0.000812835
0.000725206
0.000632256
0.000564414
0.000535245
0.000513482
0.0018402
0.00183137
0.00181906
0.00182543
0.00182279
0.00181915
0.00183943
0.00184571
0.00190068
0.00200653
0.00193706
0.00157219
0.00128025
0.000505509
0.000449359
0.000657189
0.000894278
0.00079144
0.000723914
0.000646978
0.000560297
0.000540489
0.000512782
0.00184366
0.00183144
0.00182093
0.00182713
0.00182309
0.00181991
0.00183925
0.00184446
0.00190428
0.00202734
0.00196489
0.00158638
0.000857887
0.000335022
0.000355317
0.000503145
0.000892912
0.000833212
0.000735254
0.000641097
0.000551762
0.000538206
0.000517775
0.00184782
0.00183057
0.00182128
0.0018285
0.00182397
0.00182079
0.00183896
0.00184382
0.0019106
0.00203382
0.00158868
0.00148031
0.000577364
0.000257186
0.000309215
0.000423982
0.000639731
0.000825815
0.000729016
0.000553764
0.000564976
0.000540666
0.000509834
0.00185096
0.00183045
0.00182207
0.00182876
0.00182524
0.00182174
0.00183833
0.00184318
0.00191247
0.00202046
0.00138697
0.00121963
0.000432688
0.000230822
0.000280705
0.000323532
0.000388045
0.000650111
0.000723421
0.000639098
0.000565899
0.000538728
0.000509706
0.00185361
0.00182971
0.00182163
0.00182881
0.00182639
0.00182267
0.00183759
0.00184273
0.0019169
0.00200577
0.00141288
0.00127315
0.000359034
0.000235685
0.000274678
0.0002967
0.000371692
0.000383243
0.000306398
0.000300744
0.000346754
0.000516839
0.000502959
0.00185426
0.00182951
0.00182175
0.00182826
0.00182756
0.00182331
0.00183664
0.0018422
0.00191391
0.00199369
0.00146031
0.00104097
0.000465868
0.000291777
0.000273606
0.000318529
0.000481612
0.000549689
0.000511211
0.000639112
0.000592311
0.000543398
0.00050708
0.00185525
0.00182903
0.00182139
0.00182801
0.00182851
0.001824
0.00183572
0.00184163
0.00191685
0.00197785
0.00153134
0.000941512
0.000591968
0.000362439
0.000279162
0.000330654
0.000493119
0.000571902
0.000535008
0.000640237
0.000593407
0.000551727
0.000514733
0.00185388
0.00182935
0.00182179
0.00182754
0.00182979
0.00182451
0.00183479
0.00184109
0.00191602
0.00197083
0.00163291
0.000860784
0.000570974
0.000370307
0.000289477
0.000330313
0.000487578
0.000595284
0.000560072
0.000636362
0.000595647
0.000553934
0.000521419
0.00185378
0.00182948
0.001822
0.00182749
0.00183044
0.00182476
0.00183393
0.00184051
0.00191162
0.00195931
0.00177313
0.00080713
0.000666746
0.000340571
0.000302285
0.000334059
0.000463694
0.000606586
0.000605105
0.000638966
0.000595947
0.00055747
0.000526956
0.00185128
0.00183008
0.00182277
0.00182705
0.00183161
0.00182508
0.00183325
0.00183988
0.00191331
0.00195172
0.00193137
0.000795838
0.00019574
0.00043282
0.000321264
0.000339575
0.000424499
0.000575525
0.000624078
0.000639157
0.000588334
0.000556672
0.000526823
0.00185027
0.00183076
0.00182363
0.00182762
0.00183221
0.00182515
0.00183252
0.00183919
0.00191353
0.00195164
0.00203033
0.0009508
0.000148837
0.000505406
0.000372718
0.00033607
0.000386713
0.000519869
0.000610446
0.000639875
0.000571566
0.000547867
0.000524024
0.00184796
0.00183121
0.00182446
0.00182686
0.00183272
0.001825
0.00183203
0.00183846
0.00190874
0.00195518
0.00203017
0.00112936
0.000429817
0.000447885
0.000439184
0.00034239
0.000367402
0.000472693
0.000576169
0.000625509
0.000569616
0.000537802
0.000520531
0.0018465
0.00183188
0.0018255
0.00182786
0.00183317
0.00182539
0.00183142
0.00183772
0.00191267
0.00195619
0.00201866
0.0010434
0.000325628
0.000434111
0.000509975
0.000358699
0.000361433
0.0004346
0.000543538
0.000566892
0.000571913
0.000528245
0.000518928
0.0018442
0.00183174
0.00182647
0.00182728
0.00183337
0.0018249
0.00183107
0.001837
0.00191295
0.0019577
0.0020029
0.000924365
0.000336859
0.000441679
0.000577136
0.000385574
0.000368999
0.000419286
0.00050387
0.000515491
0.000572846
0.000525817
0.000518329
0.00184354
0.00183192
0.00182733
0.00182764
0.00183284
0.00182527
0.00183037
0.00183633
0.00190922
0.0019605
0.00199207
0.000897825
0.000428769
0.00046436
0.000664514
0.00042472
0.000381168
0.000403338
0.000471772
0.000474943
0.000560722
0.000525332
0.000521056
0.00184063
0.00183197
0.00182768
0.00182763
0.00183333
0.00182513
0.00183027
0.00183567
0.00191112
0.00196216
0.0019826
0.000861266
0.00047825
0.000488108
0.000730092
0.00047307
0.000408537
0.000399414
0.000447398
0.000454969
0.000546704
0.00052739
0.000521084
0.00183965
0.00182971
0.00182831
0.0018276
0.00183198
0.00182515
0.0018293
0.00183516
0.00191157
0.00195965
0.00198627
0.000847264
0.000476107
0.000509913
0.000804565
0.000551197
0.000466914
0.000415691
0.000432751
0.000438223
0.000522039
0.000535622
0.00053511
0.00183763
0.0018297
0.00182867
0.00182582
0.00183155
0.00182434
0.00182919
0.00183463
0.00191006
0.00196083
0.00198001
0.000823142
0.000497062
0.0005537
0.000871899
0.000642986
0.000530077
0.00043805
0.000425987
0.000430516
0.000510773
0.000541349
0.000534456
0.00183207
0.00182698
0.00182687
0.00182582
0.00183085
0.00182447
0.00182839
0.00183414
0.00191003
0.00196138
0.00198737
0.000808877
0.000516569
0.000593254
0.000926135
0.000783661
0.00061547
0.000491027
0.000442761
0.00044643
0.00051638
0.000552253
0.000553546
0.00182322
0.00182106
0.00182135
0.00182574
0.00182667
0.00182242
0.00182722
0.00183384
0.00190308
0.0019626
0.00199026
0.000789757
0.000521307
0.000647219
0.000948389
0.000908792
0.000703689
0.000529456
0.00045856
0.000460592
0.000523799
0.000564225
0.000583137
0.001818
0.00181724
0.00182094
0.00182458
0.00182297
0.00182135
0.00182643
0.00183334
0.00190655
0.00194856
0.0019854
0.000791186
0.000547435
0.000684404
0.00100248
0.000983571
0.00081077
0.000618939
0.000521699
0.000526983
0.00056121
0.000591704
0.000601787
0.00181416
0.00181799
0.00182077
0.00182352
0.00182361
0.00182098
0.00182671
0.00183308
0.00190768
0.00195564
0.00198277
0.0008042
0.000603255
0.0007535
0.00107198
0.000983224
0.000812311
0.000721099
0.000583625
0.000587761
0.000590021
0.000622091
0.000723295
0.00181221
0.00181739
0.00182007
0.00182281
0.00182272
0.00182082
0.00182581
0.00183272
0.0019067
0.00195532
0.0019884
0.000807414
0.000673749
0.000849371
0.00109925
0.000943684
0.000812249
0.000728693
0.000680892
0.000651973
0.000670682
0.000716066
0.000829463
0.00181321
0.0018173
0.00181958
0.00182241
0.00182275
0.00181982
0.00182592
0.0018325
0.00190731
0.00195776
0.00198242
0.000822985
0.000737369
0.000965464
0.00108502
0.00091737
0.000812917
0.000707639
0.000669359
0.00066811
0.000709843
0.000823433
0.000979071
0.00181477
0.00181591
0.00181986
0.00182206
0.00182213
0.00182094
0.001826
0.00183235
0.00191
0.00195066
0.00197762
0.000837563
0.000819872
0.00110977
0.0010904
0.000920709
0.000826261
0.000743686
0.000704633
0.000729172
0.000842206
0.00101948
0.00109525
0.00181555
0.00181692
0.00181976
0.00182191
0.00182004
0.00182023
0.00182503
0.00183251
0.00191196
0.00196066
0.00197866
0.000862002
0.000931434
0.00121487
0.00106497
0.00089625
0.000817825
0.000744978
0.00074962
0.00082009
0.000925103
0.00109808
0.00129388
0.00181353
0.00181524
0.0018186
0.00182229
0.00182085
0.00181969
0.00182609
0.00183296
0.00192002
0.00196206
0.00197686
0.000926289
0.00105619
0.00125382
0.000991803
0.000882894
0.000790567
0.000772593
0.000804758
0.000863781
0.00105125
0.00123288
0.0013184
0.001813
0.00181788
0.00181697
0.00182156
0.00182077
0.00182052
0.00182601
0.00183439
0.00191974
0.00195124
0.00188433
0.000979654
0.00125879
0.00126573
0.000977448
0.000910827
0.000789828
0.000782852
0.000833524
0.000985737
0.00110744
0.00133049
0.00142388
0.00181308
0.00181596
0.00181876
0.00182221
0.00182196
0.00181999
0.0018265
0.0018348
0.00191954
0.00195071
0.00179944
0.00102012
0.0014681
0.00130062
0.000958439
0.000900495
0.000828146
0.000869871
0.000960804
0.00105767
0.00129834
0.00140826
0.00145873
0.00181125
0.00181594
0.00181949
0.00182149
0.00182086
0.00182011
0.00182642
0.00183494
0.00192049
0.00196807
0.00173263
0.00112629
0.00159142
0.00130698
0.00096511
0.00092194
0.000835934
0.00088393
0.000958564
0.00117216
0.00131722
0.00150329
0.00144611
0.00181219
0.00181463
0.00181857
0.00182118
0.00182165
0.00182092
0.00182571
0.00183477
0.00192082
0.00197219
0.00164393
0.00121748
0.00171338
0.00136568
0.00105095
0.00101351
0.000967831
0.0010294
0.0011459
0.00127979
0.00147955
0.00152194
0.00146718
0.00181241
0.00181383
0.00181877
0.00182118
0.00182145
0.00182156
0.00182556
0.00183544
0.00192355
0.00197699
0.00155768
0.00125085
0.0017132
0.00136312
0.00104954
0.0010574
0.000979785
0.00104974
0.00116235
0.00133566
0.00148146
0.00150379
0.00148075
0.00181299
0.00181274
0.00181858
0.00182116
0.0018217
0.00182067
0.00182649
0.00183566
0.00192612
0.00197605
0.0014954
0.00146699
0.00199836
0.00142089
0.00114414
0.00115051
0.00109381
0.00119281
0.00132904
0.00145926
0.00152048
0.0014703
0.00151528
0.00181054
0.00181532
0.00181858
0.00182238
0.00182202
0.00182031
0.00182643
0.00183624
0.00192342
0.00197279
0.00142338
0.00165899
0.00222176
0.00149152
0.00124602
0.00123042
0.00117233
0.00124594
0.0013202
0.00141135
0.00146179
0.00142446
0.00155717
0.00181112
0.00181321
0.00181802
0.00182263
0.00182054
0.00182121
0.00182667
0.00183689
0.00193425
0.00197155
0.00156197
0.00104554
0.00234786
0.00156942
0.00126527
0.00131111
0.00123121
0.00128219
0.0013732
0.0015278
0.00148277
0.00153951
0.001619
0.00180956
0.00181306
0.00181788
0.00182173
0.00182075
0.00182062
0.00182694
0.00183844
0.00193199
0.00196911
0.00172718
0.00195683
0.00335664
0.00189623
0.00148612
0.00138745
0.00140491
0.00142122
0.00144163
0.00153166
0.00155285
0.00160732
0.00160318
0.00181072
0.00181488
0.00182009
0.00181944
0.00182002
0.00182067
0.00182555
0.001839
0.0019374
0.0019607
0.00152006
0.00257408
0.00377365
0.00218412
0.00163195
0.00155483
0.00138793
0.00132581
0.00143312
0.00161224
0.00167952
0.00165926
0.00162559
0.0018128
0.00181669
0.00181931
0.00181907
0.00182168
0.00181843
0.001826
0.00183941
0.00193413
0.00195946
0.00140866
0.00306698
0.00502202
0.0027045
0.00190326
0.00162523
0.00158865
0.00156148
0.00169722
0.00167948
0.00180452
0.00174351
0.00164807
0.00181179
0.0018158
0.00181951
0.00181927
0.00182209
0.00181902
0.00182671
0.00184233
0.00194991
0.00196691
0.00142652
0.00433001
0.00463332
0.00295324
0.00219667
0.00190393
0.00185511
0.00174172
0.0017539
0.0018521
0.00192618
0.00177977
0.00166624
0.00181278
0.00181779
0.00181928
0.00182035
0.00182242
0.00182015
0.00182786
0.00184312
0.00194675
0.00198161
0.00155429
0.00505484
0.00495902
0.00311663
0.00241858
0.00198487
0.00190427
0.00180464
0.00194233
0.00206257
0.00197598
0.00183599
0.00175864
0.00181693
0.00181575
0.00181697
0.00181987
0.00182386
0.001821
0.00182728
0.00184345
0.00194068
0.00200133
0.00168039
0.00558832
0.00553002
0.00367922
0.00264011
0.00222963
0.00220682
0.00214959
0.00228594
0.0022685
0.00212012
0.00192113
0.00181769
0.00181968
0.00181515
0.00181702
0.00182057
0.00182147
0.00182233
0.00182827
0.0018455
0.00195352
0.00201519
0.0020066
0.00890133
0.00611579
0.00412674
0.00297716
0.00256546
0.00256633
0.00257647
0.00262002
0.00247464
0.00226096
0.00201906
0.00184633
0.00181719
0.00181182
0.00181787
0.00182229
0.00182174
0.00182159
0.00182609
0.00184418
0.00194652
0.00202836
0.00247977
0.00976394
0.00653533
0.00440185
0.00318931
0.00288786
0.00278139
0.00299569
0.00290867
0.00261706
0.00234964
0.00211579
0.00194003
0.00181397
0.00181289
0.0018174
0.00182172
0.00181925
0.00182185
0.00182684
0.00184413
0.00193724
0.00205781
0.00258488
0.0101667
0.00783113
0.00469922
0.00339406
0.00328298
0.00330168
0.00320676
0.00297523
0.00273188
0.00246663
0.00221797
0.00202414
0.00181366
0.00181644
0.00181611
0.00182135
0.00181879
0.00181935
0.0018255
0.00184232
0.00192567
0.00205507
0.00270819
0.0132236
0.00876565
0.00517806
0.00364823
0.00371
0.00357433
0.00338666
0.00305951
0.00285184
0.00264243
0.00233476
0.00206577
0.00181559
0.00181737
0.001816
0.00182099
0.00181955
0.00181767
0.00182464
0.00184012
0.00191448
0.00204389
0.00285659
0.0153629
0.00925232
0.00572419
0.00415618
0.00409225
0.00375994
0.00349474
0.0032404
0.00304771
0.00279343
0.00242789
0.0020969
0.00181643
0.00182074
0.00181617
0.00182124
0.00182093
0.00181883
0.0018259
0.00183853
0.00190536
0.00206574
0.00348147
0.020764
0.0103987
0.00630421
0.00473739
0.00439951
0.00397115
0.0036963
0.00343921
0.0032472
0.00285181
0.00248558
0.00198716
0.00181548
0.00181665
0.00181571
0.0018202
0.00182277
0.00182116
0.00182673
0.00183746
0.00189724
0.00208568
0.00381918
0.0205648
0.0125469
0.00642556
0.00512938
0.00463111
0.00426032
0.00397227
0.00368273
0.00325199
0.0027249
0.00234561
0.00166895
0.00181461
0.00180716
0.00181496
0.00181772
0.00181844
0.00182155
0.00182709
0.00183711
0.00188893
0.00210797
0.00484827
0.0177916
0.0142162
0.00955906
0.0061357
0.00493701
0.00429954
0.00401334
0.00360962
0.00310444
0.00250395
0.00207139
0.00127293
0.00181377
0.00180659
0.00181456
0.00181542
0.0018147
0.00182178
0.00182798
0.0018369
0.00189383
0.0022631
0.00744481
0.0164241
0.0142489
0.00846372
0.00607392
0.00507509
0.00412699
0.00379588
0.00327541
0.00290844
0.00231526
0.00172736
0.00103785
0.00181243
0.00181432
0.00181449
0.00181507
0.00181116
0.00182052
0.0018297
0.00183756
0.00189959
0.00234236
0.00805221
0.020971
0.0157388
0.00783325
0.00613988
0.00496337
0.00401431
0.00372351
0.0033115
0.00282871
0.00217777
0.00145743
0.000945689
0.00181169
0.00181692
0.00181342
0.00181563
0.00181507
0.00181657
0.00182543
0.00183789
0.00190635
0.00259882
0.0116519
0.0239707
0.0140717
0.00772946
0.00607402
0.00483773
0.00410485
0.00384286
0.00326906
0.00266445
0.00194559
0.00131498
0.000944701
0.00181138
0.0018214
0.001814
0.00182472
0.00181658
0.00181808
0.0018243
0.00183947
0.00192477
0.00288324
0.0106469
0.0216408
0.012749
0.00767739
0.00618135
0.00481562
0.00417425
0.0038648
0.00327861
0.00247712
0.0019122
0.00129172
0.000993008
0.00181253
0.00182337
0.00181456
0.00181913
0.00181642
0.00182092
0.00182286
0.00184083
0.00189512
0.0029368
0.0113076
0.01838
0.0118568
0.00778574
0.00623463
0.00487229
0.0040157
0.00350069
0.00280394
0.0023402
0.00180092
0.00117596
0.00103355
0.00181434
0.00182343
0.0018167
0.0018166
0.00181644
0.00182425
0.00182332
0.00184345
0.00201574
0.00342396
0.0155709
0.0171804
0.0108084
0.00825489
0.00580307
0.00489847
0.00400754
0.00372021
0.00281902
0.00222453
0.00165775
0.00112759
0.00107312
0.00181407
0.00181984
0.00181812
0.00181486
0.00181492
0.00182381
0.00182222
0.00184767
0.00208998
0.00401581
0.0170932
0.0160306
0.0102156
0.00849031
0.00615993
0.00491016
0.004201
0.00396585
0.00277465
0.00215258
0.00141408
0.0011126
0.00121745
0.00181231
0.00181274
0.00181763
0.00181413
0.00181425
0.00182358
0.00182349
0.00185024
0.0021542
0.00417592
0.0137247
0.0135206
0.0106698
0.0086317
0.00655281
0.00508947
0.0047545
0.00377834
0.00247001
0.0019171
0.00154342
0.0012603
0.00137632
0.00181031
0.00180868
0.00181527
0.0018133
0.00181175
0.00181949
0.00182233
0.00186021
0.00232039
0.00633994
0.0151293
0.0133454
0.010722
0.0085274
0.00671902
0.00571796
0.00481611
0.00389725
0.00275095
0.00203763
0.00158719
0.00150237
0.00157648
0.00180845
0.00180547
0.00181228
0.00181272
0.00181077
0.00181819
0.00182402
0.00186139
0.00249345
0.00690454
0.0151034
0.0129372
0.0107678
0.00909574
0.00750331
0.00636957
0.00482579
0.00430719
0.00307197
0.00226865
0.00182582
0.00174319
0.00186507
0.00180676
0.00180281
0.00180892
0.00181114
0.0018076
0.00181319
0.0018228
0.00187887
0.00246503
0.00537883
0.0127176
0.0119893
0.0113562
0.00985252
0.00835112
0.00736582
0.00558233
0.00437881
0.00333659
0.00248254
0.00208252
0.00197667
0.00230995
0.00180488
0.00180045
0.00180588
0.00180941
0.00180653
0.00181276
0.0018248
0.00189306
0.00308355
0.00713909
0.0116411
0.0116026
0.0112705
0.00972603
0.00906345
0.0081666
0.00593257
0.00459429
0.00353599
0.00270729
0.00215274
0.00241301
0.00246446
0.00180277
0.00179816
0.00180278
0.00180644
0.00180277
0.00180774
0.00182281
0.00190268
0.00315762
0.00713481
0.0113607
0.0113174
0.011659
0.0101522
0.0101225
0.00847183
0.00622271
0.00477488
0.00377089
0.00283365
0.00247672
0.00253483
0.00240439
0.00180012
0.00179536
0.00179992
0.00180358
0.00180183
0.0018088
0.00182525
0.0019097
0.00293521