/*--------------------------------*- C++ -*----------------------------------*\
  =========                 |
  \\      /  F ield         | OpenFOAM: The Open Source CFD Toolbox
   \\    /   O peration     | Website:  https://openfoam.org
    \\  /    A nd           | Version:  7
     \\/     M anipulation  |
\*---------------------------------------------------------------------------*/
FoamFile
{
    version     2.0;
    format      ascii;
    class       volScalarField;
    location    "50";
    object      omega;
}
// * * * * * * * * * * * * * * * * * * * * * * * * * * * * * * * * * * * * * //

dimensions      [0 0 -1 0 0 0 0];

internalField   nonuniform List<scalar> 
12842
(
3.13173
2.83212
2.63903
2.49975
2.41948
2.35776
2.31719
2.28885
2.25984
2.24857
2.23927
2.22895
2.2301
2.23975
2.26484
2.30806
2.38628
2.49203
2.63436
2.79376
2.93626
3.14089
3.33059
3.11213
2.79983
2.62642
2.49215
2.41354
2.35003
2.31124
2.28216
2.25659
2.24375
2.23241
2.22344
2.22632
2.23832
2.2663
2.31022
2.38753
2.50286
2.65635
2.79299
2.94924
3.16211
3.33712
3.08182
2.75763
2.57493
2.45564
2.38701
2.3291
2.29514
2.26698
2.24924
2.23979
2.2227
2.2223
2.22817
2.24056
2.26702
2.32071
2.39883
2.51072
2.66508
2.81543
2.98147
3.18092
3.35497
3.05302
2.72832
2.55425
2.43877
2.37384
2.32062
2.28915
2.25892
2.24524
2.23223
2.22186
2.22346
2.23073
2.24774
2.28249
2.33284
2.42477
2.54563
2.69868
2.83937
3.00088
3.18549
3.35406
3.0118
2.67579
2.50459
2.40143
2.34318
2.30116
2.27561
2.24958
2.2403
2.2226
2.22295
2.22133
2.22905
2.24868
2.28645
2.34981
2.44333
2.58705
2.73824
2.90906
3.13658
3.33354
3.42053
2.98026
2.6522
2.48318
2.3865
2.32828
2.2923
2.26706
2.24376
2.23403
2.22039
2.22258
2.2282
2.24327
2.27115
2.31344
2.36776
2.49065
2.61606
2.84448
2.97816
3.20954
3.38652
3.67752
2.93521
2.60157
2.44105
2.35644
2.30395
2.27423
2.2549
2.23812
2.22891
2.21323
2.22615
2.23222
2.24781
2.2798
2.32678
2.41503
2.52827
2.69539
2.88445
3.14061
3.42388
3.67224
3.88006
2.90448
2.57923
2.4229
2.34438
2.29077
2.26672
2.24564
2.23326
2.22391
2.21728
2.22839
2.24318
2.27018
2.31119
2.37264
2.44661
2.61523
2.74871
3.02016
3.30699
3.53695
3.92185
4.40588
2.86071
2.53591
2.38956
2.32134
2.27442
2.25375
2.23685
2.22909
2.22045
2.22162
2.23337
2.256
2.28299
2.32228
2.38882
2.49021
2.67631
2.85681
3.11284
3.46138
3.83064
4.2487
4.87062
2.82129
2.51495
2.37353
2.31179
2.26559
2.24876
2.23076
2.2269
2.21882
2.2295
2.24579
2.28509
2.32712
2.37618
2.45888
2.55678
2.73501
2.94709
3.29459
3.69988
4.05132
4.5935
5.28612
2.77866
2.47662
2.34634
2.29308
2.25324
2.23931
2.22423
2.22333
2.21538
2.23301
2.25814
2.30424
2.34802
2.40327
2.49489
2.6601
2.90641
3.15036
3.49269
3.83021
4.40913
5.15966
5.97698
2.73586
2.45577
2.33316
2.28418
2.24727
2.23488
2.22039
2.22166
2.21479
2.24111
2.27756
2.33753
2.39971
2.48337
2.62216
2.79317
2.98072
3.34795
3.74641
4.22379
5.0075
5.6748
6.29028
2.69599
2.42523
2.31131
2.26815
2.23666
2.22651
2.2145
2.21899
2.21417
2.24583
2.29712
2.35736
2.42094
2.51947
2.67937
2.93379
3.26815
3.62922
4.17281
4.64385
5.46254
6.18698
7.04993
2.65749
2.40476
2.29922
2.2607
2.23191
2.22239
2.21187
2.21757
2.22061
2.25652
2.32394
2.39585
2.48395
2.62292
2.84191
3.1342
3.409
3.97023
4.4784
4.97452
6.15548
6.99621
7.91802
2.62767
2.38243
2.28191
2.24772
2.22337
2.21449
2.20727
2.21516
2.2197
2.26648
2.35328
2.42472
2.521
2.68454
2.93214
3.28734
3.73247
4.27093
4.90805
5.72245
7.02472
7.63247
8.41993
2.59762
2.36318
2.27033
2.24153
2.21941
2.21045
2.2049
2.21374
2.22727
2.2869
2.39203
2.48017
2.61245
2.82041
3.13151
3.56817
3.9547
4.72958
5.57446
6.31791
7.49559
8.17212
9.63484
2.57557
2.34624
2.25583
2.23122
2.21177
2.20237
2.20008
2.20945
2.23016
2.30963
2.43573
2.52975
2.6876
2.93918
3.28605
3.74078
4.36615
5.18042
5.9365
6.81852
8.46444
9.67738
11.1495
2.55188
2.33031
2.2456
2.22568
2.2079
2.19829
2.19812
2.20992
2.24859
2.34782
2.4911
2.60791
2.80374
3.09875
3.52725
4.1595
4.74081
5.58631
6.57312
8.01887
9.85236
10.7413
12.1378
2.53491
2.31555
2.23284
2.21714
2.20009
2.18991
2.19239
2.21019
2.26398
2.38789
2.55258
2.6796
2.91635
3.28869
3.80189
4.3674
5.1729
6.33095
7.65993
9.00102
10.5899
11.7915
14.1758
2.51636
2.3037
2.22396
2.21205
2.19603
2.18656
2.19203
2.22076
2.30588
2.44786
2.6263
2.78131
3.05188
3.46
4.0141
4.90391
5.85599
7.18955
8.28982
9.78742
12.1317
14.3488
17.0293
2.50274
2.29102
2.2142
2.2033
2.18752
2.17924
2.19152
2.22765
2.3363
2.50198
2.70095
2.86485
3.16926
3.66116
4.42194
5.23827
6.38767
7.6949
9.38503
11.7892
14.4659
16.8852
21.9558
2.4874
2.28103
2.2041
2.19781
2.18412
2.17985
2.20001
2.26088
2.39752
2.58039
2.79026
2.9871
3.35232
3.91401
4.61974
5.79443
7.08614
8.75737
11.1568
13.7541
16.84
22.1156
30.6265
2.47581
2.2705
2.19781
2.18964
2.17622
2.17613
2.21031
2.29135
2.43862
2.6408
2.86709
3.07316
3.43971
4.04719
5.07631
6.27121
7.76667
10.3875
12.7797
15.999
22.042
32.0462
44.0288
2.46406
2.26424
2.18918
2.18231
2.17529
2.18218
2.24388
2.34943
2.51711
2.73728
2.97553
3.21044
3.6646
4.41129
5.37536
6.9181
9.04904
11.5621
14.7221
21.5359
32.5312
46.6338
59.8747
2.45714
2.25573
2.18274
2.17725
2.17864
2.20037
2.28439
2.40557
2.58314
2.8166
3.06526
3.3155
3.77634
4.59317
5.92164
7.49759
10.0724
13.529
21.0071
33.2681
47.6237
63.5167
74.8639
2.44784
2.25091
2.17726
2.17647
2.18886
2.23376
2.33343
2.4651
2.65013
2.89331
3.14776
3.4215
3.99775
4.95653
6.35834
8.21463
11.4619
19.7217
32.3957
46.9165
62.1039
76.9278
85.7686
2.43831
2.24384
2.1714
2.17747
2.22135
2.27659
2.3888
2.52969
2.7163
2.96556
3.22267
3.51077
4.11024
5.18636
6.68843
9.17657
17.5342
31.4089
45.326
59.2907
73.0876
85.2107
91.3395
2.42849
2.23793
2.17137
2.1912
2.26017
2.32691
2.44945
2.59435
2.78137
3.03402
3.29696
3.62308
4.35081
5.58887
7.34795
12.587
28.5276
43.395
55.7474
68.0603
79.205
88.59
92.7818
2.41778
2.23497
2.17102
2.21661
2.31007
2.38351
2.51223
2.65971
2.84344
3.09571
3.35173
3.68134
4.48204
6.13053
8.84958
22.4575
40.1899
53.556
62.7251
72.0725
81.4553
89.5186
93.1657
2.40547
2.22707
2.18398
2.25314
2.36352
2.44198
2.57558
2.72224
2.90245
3.15384
3.41968
3.80812
4.84039
6.82282
13.5144
33.8376
50.9587
58.9853
65.5879
73.4399
81.9598
89.0342
91.9319
2.39496
2.22485
2.20541
2.29603
2.41902
2.5042
2.63784
2.7826
2.95715
3.20523
3.4616
3.88422
5.1283
8.84471
24.5167
45.4914
55.4679
61.083
66.3909
73.6267
80.1231
85.4744
86.3109
2.38355
2.22315
2.23852
2.34419
2.47825
2.56515
2.69702
2.83828
3.00758
3.25177
3.5193
4.03785
6.0231
12.5979
35.9553
52.5931
57.7384
61.388
66.386
71.466
75.0881
79.3179
79.7829
2.37429
2.22939
2.27595
2.39518
2.53314
2.6248
2.75373
2.89036
3.05336
3.29466
3.56361
4.20445
7.08969
19.093
45.994
54.308
58.1779
61.1266
63.7711
66.0287
67.8046
71.4858
70.9848
2.36241
2.2379
2.32277
2.44812
2.59116
2.6833
2.80561
2.93694
3.09448
3.33099
3.61913
4.50269
9.10268
29.2266
53.1476
55.4382
58.4466
58.665
59.3252
60.0553
60.8828
63.4939
63.7949
2.35867
2.26509
2.36752
2.49948
2.64285
2.73712
2.85317
2.97921
3.13103
3.36653
3.67986
5.0017
12.5293
38.9925
55.8781
56.2629
56.3163
54.2495
54.3384
54.7105
54.7699
56.5946
58.2918
2.35264
2.29836
2.41972
2.55494
2.69472
2.78856
2.89631
3.01624
3.16336
3.39523
3.75726
5.72801
16.0705
45.9822
56.328
57.0741
52.7692
50.5323
49.9898
50.0224
50.4158
51.4198
54.1215
2.35785
2.34077
2.46824
2.60168
2.74123
2.83464
2.934
3.04894
3.19131
3.42549
3.85435
6.60404
21.2201
49.489
56.7803
54.9447
48.5866
45.9693
45.7409
45.9648
46.49
47.1701
50.8831
2.37102
2.39
2.51935
2.65542
2.78541
2.87862
2.96774
3.07713
3.21608
3.45173
3.99143
7.78523
25.0598
50.4342
56.9581
50.5539
45.5434
42.79
42.6516
43.5325
43.7361
43.9569
47.7925
2.39459
2.44031
2.56769
2.70011
2.82496
2.91547
2.99695
3.10176
3.23687
3.47776
4.10741
8.61149
28.1016
50.5241
56.4241
46.4967
41.83
39.9396
39.8928
41.6735
41.7577
41.8377
45.1188
2.42696
2.49382
2.61708
2.74363
2.86284
2.95126
3.02286
3.12283
3.25546
3.50288
4.2802
9.62509
29.767
50.0961
54.3736
44.3502
39.0275
37.5333
37.4529
39.842
39.8177
40.0008
42.29
2.46441
2.54533
2.6626
2.79007
2.8944
2.98164
3.04574
3.14123
3.27099
3.53311
4.4775
10.6283
32.1505
49.4473
50.439
42.7918
37.1823
35.7301
35.3338
37.7797
37.778
38.2232
39.7057
2.50894
2.59708
2.70912
2.82262
2.92804
3.00944
3.0655
3.15716
3.28484
3.55566
4.62418
11.3591
33.8381
49.0784
48.5574
41.9106
36.1579
34.5437
33.7497
35.7014
35.9947
36.5752
37.5887
2.55173
2.64451
2.75082
2.86409
2.95508
3.03454
3.08519
3.17111
3.29684
3.59235
4.92495
12.5195
33.2615
48.1326
45.2236
41.0315
35.4845
33.8097
32.8338
34.1676
34.6514
35.2541
36.0714
2.59881
2.69224
2.79437
2.89679
2.984
3.05663
3.10062
3.18348
3.30745
3.62012
5.25856
13.5882
30.0489
44.8855
40.6734
38.3827
34.2224
32.8629
32.2602
33.4361
33.8927
34.4491
35.1677
2.64045
2.7337
2.83089
2.92808
3.00313
3.07151
3.11603
3.19419
3.31731
3.65637
5.45687
13.8317
30.5645
40.4663
36.0416
34.4872
31.5638
30.8189
30.6334
32.3069
33.3413
33.9491
34.6947
2.68232
2.77653
2.86817
2.95714
3.0228
3.08389
3.12804
3.20398
3.32578
3.69383
5.78317
14.5749
29.4329
33.3779
31.0891
30.5213
28.4219
27.9901
28.004
30.0886
31.9107
32.6302
33.4682
2.71882
2.80924
2.8985
2.97936
3.03437
3.09026
3.13923
3.21201
3.33478
3.727
5.96302
15.0059
28.5229
27.7013
26.6032
26.7846
25.184
24.9939
25.1926
27.1805
29.5231
30.6181
31.6461
2.7524
2.84013
2.92757
2.99584
3.04604
3.09756
3.15009
3.21956
3.34212
3.76353
6.31844
14.7499
27.4306
24.1081
22.9977
23.161
22.4513
22.2837
22.5064
24.4143
26.9797
28.1984
29.3576
2.78169
2.86355
2.95159
3.01133
3.0527
3.10199
3.15677
3.22581
3.35142
3.8288
6.28684
13.3827
22.0151
19.5639
19.0178
20.1431
19.6786
19.7332
20.2384
21.9099
24.2047
25.8167
27.0377
2.81017
2.88444
2.97366
3.0229
3.06295
3.10804
3.16183
3.23217
3.35952
3.90138
6.04455
11.9327
19.4952
15.4039
15.6
17.1972
17.443
17.5925
18.2574
19.8754
22.4632
23.8246
25.3825
2.83325
2.90371
2.99064
3.0332
3.06834
3.11349
3.16547
3.23722
3.36379
3.90403
5.68236
10.5263
16.9289
12.2249
12.5814
14.4758
15.0534
15.7713
16.5425
18.3781
20.7319
22.2025
23.4866
2.85512
2.92001
3.0043
3.04026
3.07655
3.1202
3.16981
3.24197
3.36943
3.86055
5.29147
9.19009
12.9063
9.83958
10.4835
12.5575
13.2019
13.8432
15.1628
17.2316
19.8903
21.1995
22.7199
2.87265
2.93804
3.0168
3.04814
3.08389
3.12653
3.17264
3.24548
3.37202
3.78174
4.90788
8.04361
10.035
8.43169
9.08979
10.8139
11.6168
12.9468
13.9572
16.1417
18.9957
20.0015
21.6732
2.88966
2.95397
3.02832
3.05654
3.09292
3.13367
3.17667
3.24918
3.37315
3.71845
4.58479
7.08378
8.32397
7.3103
8.14
9.81587
10.8077
12.2045
13.3559
15.3386
18.348
19.3492
20.5889
2.90562
2.97109
3.04069
3.06644
3.10113
3.14007
3.17997
3.25178
3.37144
3.66907
4.33161
6.31095
7.19626
6.77142
7.90698
9.45454
10.7562
12.1259
13.2701
14.7176
17.2853
18.4434
19.7257
2.9214
2.98711
3.05353
3.07788
3.10996
3.14757
3.18459
3.25452
3.36983
3.63419
4.15636
5.71668
6.4413
6.45187
7.75739
9.44114
10.697
12.0858
13.2004
14.2774
16.4934
17.8217
19.2971
2.93757
3.00362
3.06634
3.08893
3.11837
3.15402
3.18908
3.25639
3.36952
3.61127
4.03796
5.29522
5.95427
6.29652
7.58775
9.33563
11.1618
12.3859
13.1641
14.0688
15.8776
17.2833
18.8087
2.95297
3.01838
3.07864
3.10046
3.12663
3.1615
3.19406
3.25779
3.37049
3.59143
3.94822
4.96914
5.71917
6.16796
7.46787
9.28128
11.7335
13.1647
13.0991
13.8985
15.2495
16.6851
18.1945
2.96955
3.03447
3.09112
3.11138
3.13546
3.16859
3.19937
3.25915
3.37182
3.57667
3.88218
4.7284
5.69522
6.13957
7.36384
9.26845
12.0141
13.5829
13.1692
13.8294
14.9739
16.2355
17.6743
2.98623
3.04896
3.10321
3.1231
3.1439
3.17683
3.20511
3.26077
3.37441
3.56057
3.83023
4.53711
5.67358
6.05944
7.26405
9.24896
12.0624
13.7035
13.3517
13.8064
14.8552
16.0225
17.2746
3.00311
3.06428
3.11504
3.13377
3.15301
3.18483
3.21112
3.26279
3.37523
3.54724
3.79213
4.40742
5.65248
6.03057
7.17771
9.24096
11.9892
13.77
13.4508
13.8007
14.8178
15.8917
17.0526
3.02075
3.07855
3.12643
3.14532
3.1615
3.19344
3.21714
3.26526
3.37915
3.5307
3.76015
4.27724
5.67803
6.02889
7.15092
9.14817
11.5335
13.5467
13.4762
13.7982
14.9769
15.9224
17.0139
3.03693
3.09203
3.13744
3.15532
3.17053
3.20178
3.22353
3.26806
3.37966
3.51147
3.73759
4.22866
5.78398
6.06735
7.13635
8.94856
10.9526
13.0032
13.4464
13.7941
15.3817
16.1981
17.1017
3.0543
3.10643
3.1476
3.16676
3.17899
3.21036
3.22953
3.27122
3.37999
3.50888
3.7132
4.20673
5.78304
6.10813
7.12414
8.69929
10.4733
12.4928
13.3574
13.7856
15.4753
16.535
17.2771
3.07006
3.11864
3.15846
3.17618
3.18806
3.21832
3.23595
3.27454
3.38074
3.50521
3.69703
4.17265
5.65913
6.14816
7.13938
8.48608
10.114
12.0223
13.2595
13.7674
15.5355
16.9065
17.5543
3.08564
3.13238
3.16722
3.18656
3.19631
3.22637
3.2419
3.278
3.38074
3.4971
3.6751
4.18313
5.62248
6.14035
7.20722
8.33526
9.91344
11.7127
13.1911
13.7657
15.5771
17.1012
17.7171
3.10133
3.14447
3.1775
3.19612
3.20529
3.23363
3.24815
3.28151
3.37803
3.49136
3.65509
4.18921
5.57752
6.10987
7.24462
8.23108
9.79006
11.4577
13.1574
13.7835
15.7606
17.2964
17.8974
3.11493
3.15688
3.1861
3.2053
3.21346
3.24068
3.25381
3.28499
3.38079
3.48805
3.64209
4.19407
5.53481
6.12391
7.27339
8.18781
9.72783
11.322
13.1064
13.8593
16.1194
17.3623
18.066
3.13026
3.16924
3.19514
3.21415
3.22203
3.24758
3.26005
3.28851
3.37736
3.4894
3.64177
4.18794
5.4809
6.12913
7.33269
8.20508
9.8096
11.34
13.0845
14.0397
16.1845
17.4295
18.094
3.14314
3.18085
3.20384
3.224
3.23009
3.25361
3.26519
3.29187
3.37952
3.48881
3.63997
4.19221
5.45582
6.23798
7.45918
8.20505
9.93268
11.3475
13.062
14.1079
16.2407
17.471
18.398
3.15827
3.19454
3.21323
3.23281
3.23871
3.26076
3.27137
3.29536
3.37793
3.48535
3.64018
4.20005
5.38974
6.35162
7.47512
8.41816
10.2273
11.7041
13.2033
14.4844
16.4974
17.6174
18.8892
3.17339
3.20477
3.22339
3.23728
3.24677
3.26687
3.27668
3.29851
3.381
3.48315
3.62881
4.2182
5.2837
6.4425
7.49026
8.44386
10.2692
11.7723
13.1964
14.5783
16.5267
17.6059
18.876
3.18333
3.21204
3.22531
3.24185
3.25431
3.27013
3.28266
3.30193
3.38113
3.48837
3.63771
4.23671
5.31271
6.4897
7.58061
8.69438
10.7398
12.1255
13.5651
15.1854
16.8945
17.9445
19.5439
3.19151
3.21217
3.22745
3.24496
3.25539
3.27149
3.28547
3.30487
3.38012
3.48593
3.6382
4.28312
5.28353
6.57475
7.72643
8.83991
10.8981
12.4489
13.8206
15.7755
17.1885
18.3373
19.8259
3.19757
3.21309
3.23182
3.24795
3.25679
3.27204
3.28699
3.30794
3.38187
3.49111
3.62997
4.32297
5.32924
6.73138
8.03755
9.46576
11.3281
12.9687
14.3705
16.3925
17.6343
18.9379
21.3049
3.1961
3.21328
3.23416
3.24705
3.25841
3.27326
3.28696
3.31072
3.38209
3.488
3.64254
4.37299
5.43707
6.95696
8.39163
9.88978
11.4625
13.5861
15.3248
17.0155
18.4004
20.3438
23.2071
3.19641
3.2158
3.23411
3.24689
3.26076
3.27254
3.28716
3.31313
3.38578
3.49555
3.64351
4.41887
5.53043
7.19499
8.54786
10.3987
11.8112
13.9843
15.9534
18.0735
19.3571
21.9873
27.9317
3.19673
3.21386
3.23398
3.24702
3.2625
3.27236
3.28885
3.31476
3.38591
3.49664
3.63368
4.45551
5.63192
7.68741
9.10892
11.0788
12.4667
14.7454
17.23
18.944
21.5435
25.5592
31.0717
3.19654
3.21669
3.23425
3.24698
3.2608
3.27309
3.28808
3.31591
3.38565
3.49558
3.65093
4.53835
5.70701
7.73764
10.1603
12.0032
13.811
15.8978
18.269
21.3459
23.8178
30.1126
40.4651
3.19669
3.2144
3.23677
3.247
3.26067
3.27241
3.2878
3.31571
3.38872
3.50482
3.65587
4.62899
5.92388
8.07495
11.204
13.0286
15.4943
17.9947
21.1898
23.7481
29.6735
36.9662
47.0468
3.19566
3.21477
3.23451
3.24623
3.26048
3.27363
3.28768
3.31582
3.39089
3.50527
3.65878
4.68301
6.28387
8.29593
12.1543
13.9659
17.2238
19.4199
22.5233
27.5093
32.2134
43.5069
56.8696
3.19877
3.21464
3.23442
3.24606
3.2604
3.2719
3.2883
3.31609
3.39196
3.49971
3.68387
4.8076
6.72907
9.67985
13.5449
15.7709
19.1036
21.8806
25.8147
29.562
38.109
49.1309
67.5824
3.1962
3.21815
3.23438
3.24518
3.26018
3.27178
3.2882
3.31694
3.39564
3.49885
3.68855
4.9115
6.98603
10.5504
14.8705
17.4816
20.8251
23.1265
27.0894
33.84
42.0481
57.7535
76.0113
3.19522
3.21562
3.2355
3.24503
3.26011
3.27193
3.28841
3.3166
3.39951
3.50167
3.68262
5.03491
7.63204
12.5011
16.5638
19.1062
22.9467
25.7439
30.418
37.4717
48.8191
67.5118
84.6292
3.19453
3.21688
3.23232
3.24594
3.25938
3.27139
3.28723
3.31665
3.40142
3.5034
3.68481
5.21572
7.97235
15.5718
18.9592
21.1498
25.0761
27.7796
32.8161
42.0718
56.6847
77.4737
92.8273
3.19629
3.21292
3.23171
3.24302
3.25898
3.27177
3.28697
3.31726
3.40818
3.51536
3.69476
5.41846
8.93426
18.6424
21.7505
22.8152
26.7777
30.1361
36.83
48.1795
65.2908
87.3852
96.8817
3.19614
3.2121
3.23281
3.24253
3.2582
3.26968
3.28614
3.31702
3.40994
3.51979
3.71121
5.65229
10.1135
20.8406
23.9472
24.9592
29.0306
33.6473
42.1733
53.3367
73.8621
89.2628
98.2445
3.19284
3.21217
3.23337
3.24394
3.25762
3.2686
3.28563
3.31731
3.41839
3.52854
3.73356
6.22725
17.33
23.1767
26.3376
27.3316
30.6986
36.4266
46.6744
59.84
77.0408
91.3965
99.9077
3.19018
3.2117
3.22921
3.2434
3.25783
3.26794
3.28629
3.3172
3.41285
3.53259
3.76755
9.26873
22.2845
24.981
27.8361
29.6535
33.2563
40.8002
51.3601
64.1273
79.0053
94.7115
99.0862
3.18821
3.20654
3.22808
3.24278
3.25439
3.26882
3.2852
3.31711
3.42
3.54061
3.82579
13.5111
35.5836
30.099
29.2077
31.5084
34.4267
42.375
54.7095
71.2579
81.9579
93.5609
99.6822
3.18369
3.20909
3.22584
3.24011
3.2537
3.26744
3.2846
3.31636
3.41858
3.54503
3.87408
18.3985
40.8852
34.7217
31.594
33.5958
36.1517
46.0642
58.8183
73.2687
83.5412
94.463
99.6695
3.18203
3.20453
3.22527
3.23741
3.25388
3.26603
3.28239
3.3161
3.4278
3.54247
4.01057
23.8796
44.7224
38.4602
35.0126
35.8901
40.0635
50.2257
62.778
74.8375
84.77
94.119
95.4196
3.17496
3.20589
3.22354
3.23643
3.25006
3.26531
3.28193
3.31585
3.42824
3.54315
4.12501
31.4545
46.8801
42.2102
38.8918
39.2009
44.0571
54.82
65.9281
76.0076
86.4515
92.099
90.9859
3.17412
3.20393
3.22284
3.23448
3.25262
3.26202
3.27909
3.31576
3.43115
3.55548
4.383
35.9583
47.8265
44.8888
41.1434
41.112
48.0713
57.1138
67.8534
77.5075
84.7502
87.5543
84.8395
3.17531
3.20186
3.224
3.23348
3.24928
3.2617
3.28074
3.31543
3.42562
3.57507
4.68801
36.8145
47.8994
48.9771
44.1454
44.2054
51.7461
59.125
67.1809
76.1675
82.107
83.0282
78.2628
3.17688
3.19794
3.22456
3.23369
3.25116
3.25776
3.27865
3.3151
3.42359
3.6036
5.04353
35.5893
47.1679
49.7253
44.7798
46.5791
52.0936
59.7006
68.0556
74.7302
78.4219
75.542
69.2681
3.17308
3.19348
3.22248
3.23144
3.24905
3.25682
3.27905
3.31377
3.41793
3.63013
5.31543
31.4853
45.7733
48.7007
47.1934
47.2326
52.9688
59.0912
66.2667
71.3968
73.7239
69.1042
62.5385
3.16603
3.18999
3.21894
3.22777
3.24438
3.2577
3.2775
3.31146
3.4114
3.65049
5.61108
31.0336
45.3458
48.2757
47.7054
47.7205
52.1201
57.1452
62.9123
67.0668
68.7708
63.7122
56.1627
3.15513
3.18059
3.21309
3.22168
3.23747
3.25541
3.27175
3.30894
3.40391
3.67136
5.95772
32.3699
45.0024
47.9466
46.8134
47.5513
49.976
54.1628
59.2002
62.5346
63.6549
56.1777
48.0376
3.15138
3.17793
3.20411
3.21666
3.22795
3.24752
3.26635
3.30638
3.39661
3.69209
6.25762
38.4956
47.7456
48.4783
45.7504
45.7674
46.7099
49.9406
53.864
57.2197
55.4523
46.035
38.3341
3.15193
3.17979
3.19166
3.21241
3.2245
3.24108
3.26124
3.30344
3.39009
3.71826
6.91451
29.8224
47.3119
46.3396
44.6078
43.4676
44.4851
46.15
48.6886
49.0052
45.4974
35.6332
29.6209
3.14635
3.17582
3.18735
3.20345
3.22513
3.23497
3.25417
3.30019
3.38511
3.74866
7.95913
25.9639
46.5997
44.273
42.2196
41.0251
41.9248
42.5903
44.1021
40.013
35.164
28.0313
22.9076
3.13742
3.16379
3.18791
3.18678
3.21992
3.22814
3.24496
3.29624
3.38126
3.80522
8.9154
32.3155
47.2848
41.9462
39.3207
38.5967
37.7302
37.3979
36.5322
32.5502
28.1947
23.1473
18.6075
3.12565
3.15248
3.18363
3.17935
3.21228
3.22444
3.24466
3.29164
3.38223
3.8805
12.8114
39.317
42.4267
37.7618
36.5102
35.274
33.315
32.6109
31.021
27.8406
24.0259
19.9228
15.9668
3.11226
3.13206
3.17158
3.16346
3.20142
3.21465
3.23836
3.28646
3.40594
4.05594
15.8464
37.9468
37.2654
33.9645
33.2813
31.3696
30.0967
29.2816
27.6261
24.7681
21.2723
17.5733
14.1317
3.09548
3.11387
3.15727
3.16435
3.1895
3.2011
3.22982
3.28033
3.42747
4.2113
16.6412
32.8072
31.9173
30.0377
30.1733
28.6225
27.7143
26.9601
25.3093
22.5821
19.2716
15.8118
12.7728
3.07444
3.0956
3.13621
3.15432
3.17434
3.18353
3.21812
3.27368
3.47437
4.587
16.9259
26.9151
28.2889
27.1001
27.5464
26.3101
25.8137
25.1149
23.4822
20.9584
17.6479
14.4374
11.5332
3.05381
3.0823
3.11464
3.14021
3.1586
3.16749
3.205
3.2659
3.52364
4.8246
15.566
23.3671
24.8348
24.6028
25.2317
24.8276
24.6132
23.6595
22.1563
19.5081
16.1985
13.0305
10.2339
3.03089
3.07026
3.09155
3.1197
3.13861
3.14992
3.18862
3.25687
3.57857
5.26382
14.3958
20.2224
21.6588
22.6327
23.2789
23.125
23.1052
22.2679
20.8239
18.091
14.7336
11.6016
9.13104
3.00787
3.05123
3.06984
3.0971
3.1178
3.13247
3.17069
3.24505
3.6309
5.41154
11.6108
17.3253
19.6689
20.9786
21.8516
21.9595
21.7935
21.116
19.638
16.6015
13.2426
10.238
7.98468
2.9796
3.02434
3.04316
3.06832
3.09099
3.10982
3.14896
3.22821
3.57452
5.24959
10.2351
15.6746
17.906
19.4836
20.5335
20.7317
20.5691
19.9152
18.0812
15.0352
11.638
8.49672
6.54134
2.94956
2.99476
3.01526
3.03888
3.06316
3.08525
3.12453
3.20227
3.52001
6.13974
10.4177
14.385
16.4414
18.3408
19.2725
19.4534
19.3513
18.5978
16.5442
13.2163
9.59743
6.57531
5.12382
2.91154
2.95643
2.97896
3.00199
3.02724
3.05308
3.09567
3.18329
3.83563
6.12962
10.1166
13.1492
15.4137
17.3374
18.2565
18.4787
18.2196
17.3978
14.8561
10.8412
7.01205
5.08941
4.50381
2.87147
2.91685
2.94134
2.96497
2.99056
3.01837
3.06151
3.14567
3.88813
5.92614
9.33933
12.1273
14.4839
16.5242
17.2856
17.5299
17.112
16.0088
12.4778
8.06006
5.14458
4.38728
4.02125
2.82137
2.86731
2.89315
2.9175
2.94317
2.97425
3.02276
3.12379
4.08433
5.81771
9.13499
11.4314
13.5672
15.5922
16.2442
16.2495
15.9921
13.8557
9.85231
5.67662
4.29298
3.89816
3.6552
2.77046
2.81813
2.84487
2.87055
2.89591
2.92765
2.97575
3.07895
4.1808
6.36422
8.89201
10.6776
12.747
14.7191
15.1454
15.2825
14.5513
11.6069
7.14016
4.33321
3.76028
3.52334
3.40291
2.70742
2.7563
2.78308
2.80911
2.83437
2.8693
2.92374
3.03373
4.12925
6.8176
8.62037
9.97049
12.3189
13.8347
14.05
13.8756
12.7739
9.30829
4.87433
3.70171
3.41231
3.29359
3.23625
2.64596
2.69673
2.72321
2.75032
2.77509
2.8097
2.86397
3.03557
5.0276
7.45833
8.16229
9.64975
11.8407
12.897
12.9633
12.6052
10.8084
6.58679
3.7878
3.32181
3.18308
3.12651
3.09847
2.56905
2.61994
2.64541
2.67189
2.69648
2.73483
2.79391
2.97107
5.11565
7.41445
7.82246
9.20275
11.2555
11.8137
11.7691
11.288
8.5235
4.40442
3.28133
3.08997
3.03142
3.0068
2.99381
2.49753
2.54942
2.57361
2.60082
2.6248
2.66249
2.72124
3.05691
5.33407
7.25726
7.30078
9.37833
10.6413
10.8623
10.809
9.42641
5.89279
3.41314
3.01334
2.93618
2.90913
2.89742
2.89195
2.40514
2.45493
2.47731
2.5029
2.52665
2.57038
2.64892
3.24678
5.99283
7.49068
7.21903
8.95686
9.83473
9.87536
9.53834
7.22109
3.87562
2.95766
2.82349
2.79524
2.78446
2.77913
2.77551
2.3253
2.37522
2.39537
2.4213
2.44434
2.48479
2.56278
3.29041
6.47042
6.98037
7.25154
8.7858
8.92075
8.82998
7.76998
4.88613
3.02676
2.73451
2.69355
2.68756
2.68725
2.69357
2.70005
2.21578
2.26127
2.27797
2.30154
2.32576
2.37785
2.46282
3.64145
7.11722
6.99434
7.30305
8.20052
8.28891
7.61703
5.67426
3.23312
2.63084
2.55494
2.54692
2.54878
2.54874
2.55829
2.56943
2.13376
2.17722
2.19111
2.21488
2.23731
2.28728
2.54346
4.34818
7.5998
6.3472
7.33071
7.65515
7.29376
6.05408
3.71052
2.64072
2.47501
2.45706
2.45516
2.45546
2.46755
2.47842
2.48458
2.00629
2.03855
2.0488
2.07047
2.10136
2.17319
2.5017
5.0685
6.88675
6.05288
6.88436
6.57881
5.87767
4.1505
2.63088
2.31816
2.28427
2.2861
2.30201
2.30762
2.30966
2.31213
2.32422
1.93252
1.96162
1.96941
1.9911
2.01385
2.12177
2.97121
5.84564
6.49784
5.83619
6.35618
5.8532
4.5608
2.80288
2.27622
2.20057
2.19525
2.21185
2.22508
2.22925
2.22855
2.23084
2.24522
1.76763
1.77658
1.78391
1.8117
1.89273
2.2656
3.97778
5.73749
4.73228
5.07121
4.76118
3.72439
2.52707
2.04358
1.94459
1.94307
1.96076
1.98095
1.9876
1.99668
1.99727
2.00113
2.0157
3.10624
2.79219
2.60421
2.48254
2.40462
2.34056
2.30791
2.27554
2.25681
2.24361
2.23613
2.23943
2.2517
2.27851
2.32546
2.39876
2.51704
2.63928
2.82605
2.96794
3.20198
3.34818
3.52089
3.11485
2.79958
2.61878
2.48763
2.40948
2.34765
2.31178
2.27903
2.25774
2.24832
2.23681
2.23888
2.25013
2.27643
2.32236
2.3943
2.50905
2.6298
2.81148
2.95422
3.15216
3.33025
3.46428
3.1238
2.81696
2.62745
2.50045
2.42159
2.3559
2.31495
2.2836
2.26071
2.25159
2.23826
2.23936
2.24893
2.27173
2.31289
2.37838
2.48212
2.59828
2.77391
2.91453
3.12714
3.28119
3.44613
3.13641
2.82294
2.64595
2.51233
2.42603
2.36151
2.31783
2.29127
2.2647
2.25351
2.23873
2.23895
2.24594
2.26417
2.30012
2.36086
2.45907
2.56914
2.73201
2.86445
3.05967
3.20276
3.41145
3.14049
2.84362
2.65546
2.51791
2.43347
2.37189
2.32614
2.29694
2.26733
2.2536
2.23932
2.23635
2.24163
2.25698
2.2878
2.34115
2.42595
2.53342
2.67997
2.83486
2.96663
3.19295
3.30803
3.15215
2.84913
2.66211
2.52839
2.44254
2.37838
2.32865
2.29789
2.26871
2.25131
2.24085
2.23394
2.23638
2.246
2.26884
2.31123
2.38013
2.4848
2.59552
2.74863
2.86326
3.05942
3.18889
3.154
2.85227
2.66714
2.53271
2.44641
2.37985
2.33002
2.29909
2.27065
2.25275
2.24316
2.23307
2.23456
2.2419
2.26121
2.30093
2.36624
2.47089
2.57307
2.73339
2.85036
3.02854
3.16946
3.14935
2.84559
2.65534
2.52317
2.44244
2.37765
2.32957
2.29853
2.26935
2.25292
2.24178
2.23036
2.23184
2.24108
2.26481
2.31015
2.38353
2.49137
2.60198
2.77204
2.90746
3.08553
3.2507
2.9829
2.64826
2.47201
2.37804
2.32302
2.27968
2.24993
2.24027
2.22498
2.22006
2.23563
2.2656
2.33262
2.45529
2.66242
2.91214
3.31305
3.72789
4.33684
4.99242
5.66978
6.19263
6.92614
2.99301
2.65544
2.47589
2.3837
2.32541
2.28327
2.25295
2.24236
2.22727
2.22039
2.22752
2.249
2.29753
2.39593
2.57841
2.8165
3.19417
3.59034
4.19474
4.80161
5.48626
5.96361
6.74134
2.99419
2.65891
2.4808
2.39004
2.3293
2.28722
2.25592
2.24437
2.22891
2.22212
2.22876
2.24919
2.2904
2.36909
2.51488
2.72849
3.07942
3.44911
4.01402
4.58904
5.2235
5.68297
6.45475
3.00454
2.66736
2.48613
2.39354
2.33126
2.29237
2.25944
2.24634
2.23219
2.22443
2.23014
2.24765
2.28468
2.3538
2.47763
2.6736
2.99025
3.33318
3.87434
4.37832
4.97225
5.44044
6.21219
3.00656
2.67247
2.49323
2.40045
2.33525
2.29552
2.26157
2.24739
2.23386
2.22601
2.23103
2.24629
2.27846
2.33778
2.43951
2.60314
2.88354
3.19313
3.68814
4.12274
4.71244
5.14585
5.87229
3.01769
2.68209
2.49886
2.40444
2.33841
2.30084
2.26561
2.24879
2.23616
2.22762
2.23273
2.24626
2.27661
2.33268
2.4278
2.57829
2.82032
3.09888
3.54294
3.93137
4.47391
4.86844
5.53946
3.02062
2.68929
2.5076
2.4109
2.34214
2.30343
2.26809
2.2496
2.2384
2.2293
2.23349
2.24592
2.27328
2.32343
2.40539
2.53434
2.74349
2.99613
3.37531
3.73492
4.19978
4.60242
5.2595
3.03281
2.70045
2.51489
2.4178
2.3475
2.30817
2.27295
2.25123
2.2401
2.23019
2.23415
2.24513
2.27156
2.31954
2.39749
2.51839
2.70292
2.93137
3.24222
3.59532
3.98068
4.38173
4.92992
3.03656
2.70853
2.52345
2.42373
2.35164
2.31045
2.27565
2.25234
2.24296
2.2317
2.23484
2.24452
2.26829
2.31185
2.38341
2.49349
2.65951
2.87787
3.1246
3.47257
3.77607
4.19702
4.61118
3.05001
2.72217
2.53431
2.43316
2.35915
2.31497
2.28089
2.25489
2.24455
2.23249
2.23506
2.24379
2.26657
2.30813
2.37505
2.47801
2.63291
2.84086
3.03995
3.38166
3.62086
4.04782
4.3402
3.05454
2.73039
2.54211
2.4383
2.36384
2.31713
2.28369
2.25667
2.24721
2.23417
2.23482
2.24309
2.26446
2.30406
2.36821
2.46591
2.60996
2.81146
2.99445
3.29427
3.53534
3.92814
4.14612
3.06928
2.74583
2.55718
2.44885
2.37354
2.32201
2.28909
2.26028
2.24943
2.2352
2.23467
2.24225
2.26242
2.29914
2.3589
2.45121
2.59206
2.78411
2.95623
3.24289
3.47267
3.81434
4.03189
3.07435
2.75456
2.56495
2.45397
2.37826
2.32437
2.29229
2.26276
2.25161
2.23736
2.23454
2.24088
2.2607
2.29655
2.35516
2.44394
2.57644
2.75451
2.92723
3.20188
3.42836
3.70558
3.95922
3.08909
2.76935
2.58139
2.46554
2.3889
2.33047
2.29807
2.267
2.25362
2.23901
2.23536
2.24085
2.25911
2.29215
2.34706
2.43119
2.55971
2.72573
2.89062
3.13995
3.36134
3.61157
3.88291
3.09508
2.77985
2.59233
2.47042
2.39414
2.33372
2.3018
2.27016
2.25554
2.2418
2.23482
2.24118
2.25666
2.28743
2.33875
2.41633
2.53617
2.67955
2.83926
3.03061
3.25359
3.42703
3.66514
2.9088
2.79732
2.85626
2.94087
3.01068
3.0627
3.10905
3.13155
3.15968
3.18545
3.22643
3.28718
3.38976
3.55667
3.80684
4.17594
4.66282
5.25632
5.78648
6.41266
6.97963
7.39844
7.76735
2.89455
2.76745
2.82542
2.9014
2.98202
3.04301
3.09243
3.12627
3.15235
3.18272
3.22414
3.28349
3.3861
3.55245
3.80103
4.16223
4.63783
5.22119
5.76615
6.39469
6.96559
7.39915
7.77997
2.89629
2.73182
2.78354
2.86379
2.9458
3.01282
3.06865
3.11841
3.14376
3.17843
3.22169
3.2801
3.38194
3.54708
3.79258
4.14248
4.60927
5.17554
5.74357
6.37361
6.95858
7.40724
7.79495
2.89297
2.70059
2.7454
2.82113
2.91083
2.98459
3.04818
3.09731
3.13214
3.16602
3.21537
3.2745
3.3769
3.54088
3.78299
4.12969
4.5819
5.14258
5.72252
6.3476
6.93584
7.40909
7.81056
2.89636
2.66413
2.70174
2.77313
2.87357
2.95395
3.01844
3.07741
3.12016
3.15371
3.20857
3.26954
3.37197
3.53447
3.77368
4.1103
4.56055
5.10355
5.69939
6.31316
6.91803
7.40533
7.83481
2.90136
2.64238
2.66094
2.72294
2.82802
2.91642
2.99147
3.05035
3.09235
3.13691
3.19839
3.26192
3.36536
3.52612
3.76148
4.09397
4.53374
5.08402
5.6708
6.26654
6.8892
7.40992
7.83798
2.90749
2.61108
2.616
2.6718
2.78478
2.87854
2.95769
3.02317
3.06564
3.11378
3.18388
3.25184
3.35738
3.51706
3.75008
4.07826
4.51766
5.04763
5.63886
6.21662
6.86133
7.39588
7.83661
2.91449
2.59557
2.57239
2.61413
2.72966
2.83517
2.91772
2.99182
3.03165
3.086
3.16626
3.23853
3.34696
3.50533
3.73527
4.05656
4.48457
5.03398
5.60085
6.16284
6.82212
7.36407
7.83967
2.92322
2.5812
2.53084
2.562
2.67738
2.78438
2.87632
2.95215
2.99187
3.05105
3.14343
3.21974
3.33296
3.4914
3.72046
4.03822
4.46367
5.00638
5.55636
6.11129
6.79177
7.32589
7.82294
2.92816
2.57621
2.49231
2.50702
2.61436
2.73437
2.82317
2.91119
2.95081
3.01427
3.11287
3.19427
3.31443
3.47357
3.70103
4.01532
4.43148
4.98395
5.51785
6.06824
6.74355
7.26671
7.79624
2.93438
2.58036
2.46116
2.45881
2.55637
2.67368
2.76922
2.85854
2.89606
2.96724
3.07976
3.16462
3.29049
3.45135
3.68025
3.98874
4.39882
4.95803
5.47544
6.0312
6.71216
7.22041
7.76121
2.93687
2.58379
2.4376
2.41584
2.49446
2.61544
2.7043
2.803
2.8433
2.91418
3.03627
3.12626
3.25999
3.4243