/*--------------------------------*- C++ -*----------------------------------*\
  =========                 |
  \\      /  F ield         | OpenFOAM: The Open Source CFD Toolbox
   \\    /   O peration     | Website:  https://openfoam.org
    \\  /    A nd           | Version:  7
     \\/     M anipulation  |
\*---------------------------------------------------------------------------*/
FoamFile
{
    version     2.0;
    format      ascii;
    class       volScalarField;
    location    "50";
    object      p;
}
// * * * * * * * * * * * * * * * * * * * * * * * * * * * * * * * * * * * * * //

dimensions      [0 2 -2 0 0 0 0];

internalField   nonuniform List<scalar> 
12842
(
1.15747
1.28177
1.49672
1.89654
2.44676
3.10228
3.8395
4.63405
5.44388
6.20916
6.85966
7.32682
7.56262
7.56458
7.3956
7.17183
7.02497
7.0559
7.30013
7.72435
8.24326
8.76428
9.20155
1.08432
1.21247
1.42
1.83711
2.40029
3.05379
3.76914
4.50867
5.21231
5.80338
6.1986
6.32153
6.12526
5.62646
4.93212
4.21769
3.6669
3.40672
3.46857
3.79388
4.26681
4.76626
5.21401
1.00282
1.12273
1.3354
1.77197
2.34232
2.98967
3.68208
4.3674
4.96778
5.39261
5.54996
5.3582
4.76955
3.81518
2.64398
1.48612
0.565412
0.0192973
-0.134868
0.0201202
0.356079
0.738844
1.12199
0.907256
1.02169
1.24773
1.70282
2.27719
2.92035
3.59527
4.23223
4.73485
5.00106
4.93461
4.45123
3.4987
2.11723
0.497473
-1.07808
-2.35585
-3.20027
-3.61241
-3.69057
-3.55833
-3.34624
-3.06418
0.799024
0.923997
1.16198
1.63295
2.20804
2.84969
3.51157
4.10276
4.50727
4.61477
4.33061
3.57212
2.27871
0.491394
-1.55648
-3.5325
-5.16373
-6.325
-7.03331
-7.39241
-7.50367
-7.49096
-7.32404
0.684934
0.840196
1.08074
1.56652
2.13881
2.78186
3.43352
3.97866
4.28106
4.22665
3.73052
2.71851
1.11625
-1.04744
-3.4971
-5.85533
-7.83938
-9.33904
-10.3791
-11.053
-11.4327
-11.6372
-11.6052
0.572264
0.773594
1.00541
1.50828
2.07581
2.72646
3.37307
3.87466
4.07369
3.85727
3.15995
1.92522
0.0580173
-2.44545
-5.26796
-7.99329
-10.3396
-12.2055
-13.6082
-14.6279
-15.3053
-15.756
-15.8925
0.468185
0.723027
0.934677
1.456
2.01473
2.67705
3.32078
3.78081
3.87732
3.50413
2.62537
1.21295
-0.857123
-3.64881
-6.80801
-9.8867
-12.6025
-14.8553
-16.6495
-18.0469
-19.0649
-19.7995
-20.132
0.363046
0.683374
0.87623
1.42693
1.99061
2.68789
3.35435
3.80311
3.8271
3.32744
2.3032
0.761894
-1.45262
-4.48275
-7.93303
-11.3284
-14.3985
-17.0444
-19.2426
-21.0151
-22.3559
-23.394
-23.9162
0.259963
0.648879
0.829718
1.41731
2.00063
2.74901
3.45587
3.916
3.89319
3.29522
2.15413
0.508594
-1.8295
-5.07303
-8.78713
-12.4798
-15.9012
-18.9414
-21.5295
-23.6477
-25.274
-26.5699
-27.306
0.174889
0.622305
0.793235
1.4126
2.01876
2.81754
3.56313
4.03315
3.95836
3.25327
1.98565
0.226568
-2.24432
-5.71347
-9.71229
-13.7373
-17.5454
-20.9948
-23.965
-26.4175
-28.3244
-29.8779
-30.8636
0.108001
0.600303
0.764247
1.40782
2.03797
2.88087
3.65888
4.13303
3.99864
3.1786
1.78185
-0.086693
-2.68206
-6.36884
-10.6452
-14.9928
-19.1655
-22.9886
-26.3095
-29.0902
-31.2901
-33.1231
-34.4102
0.0549842
0.57948
0.739261
1.40002
2.05457
2.93436
3.73912
4.21314
4.0148
3.07825
1.56251
-0.392309
-3.07821
-6.93972
-11.4406
-16.0466
-20.5163
-24.6604
-28.3167
-31.4514
-33.9832
-36.1475
-37.7875
0.0132555
0.559487
0.715553
1.38941
2.06741
2.9773
3.80417
4.27526
4.0107
2.95891
1.34062
-0.664985
-3.39041
-7.36502
-12.0224
-16.8171
-21.5242
-25.9619
-29.9665
-33.4959
-36.4103
-38.9597
-40.98
-0.0196651
0.541475
0.692541
1.37773
2.07662
3.01083
3.85576
4.32176
3.98974
2.82358
1.1189
-0.901061
-3.61572
-7.65227
-12.4244
-17.3798
-22.3142
-27.0623
-31.4421
-35.409
-38.764
-41.712
-44.1093
-0.0449239
0.52579
0.670603
1.36697
2.08343
3.03764
3.89755
4.35734
3.95756
2.67675
0.897969
-1.10711
-3.77516
-7.85098
-12.7401
-17.882
-23.0883
-28.1954
-32.9738
-37.4222
-41.245
-44.5525
-47.335
-0.0642899
0.512335
0.650824
1.35774
2.08824
3.05944
3.93202
4.38528
3.91787
2.51952
0.672921
-1.29796
-3.89983
-8.01912
-13.0606
-18.4499
-23.9975
-29.5081
-34.6958
-39.6568
-43.9687
-47.612
-50.7568
-0.0787931
0.500728
0.633946
1.35043
2.09194
3.07815
3.96185
4.40924
3.87499
2.35438
0.441321
-1.4828
-4.00746
-8.18519
-13.4229
-19.1232
-25.0587
-30.9889
-36.5888
-42.038
-46.8632
-50.8625
-54.4869
-0.0897695
0.491022
0.620595
1.34454
2.09456
3.0944
3.98818
4.43101
3.83132
2.18177
0.199715
-1.66799
-4.10348
-8.34846
-13.8104
-19.8533
-26.1532
-32.4704
-38.4863
-44.3887
-49.7857
-54.2644
-58.0438
-0.0979031
0.483232
0.610693
1.33994
2.09683
3.10944
4.01283
4.45341
3.79062
2.00459
-0.0508128
-1.85069
-4.17648
-8.48202
-14.1705
-20.5361
-27.1093
-33.8095
-40.3648
-46.5728
-52.3422
-57.1136
-60.7877
-0.103993
0.477587
0.603605
1.33518
2.09728
3.12135
4.03368
4.47445
3.75155
1.82005
-0.315153
-2.03305
-4.21651
-8.55825
-14.4462
-21.0622
-27.8157
-34.9738
-42.1223
-48.2703
-53.8032
-58.5926
-62.5384
-0.108563
0.474561
0.599916
1.33252
2.10012
3.13631
4.0592
4.50489
3.72559
1.63756
-0.584101
-2.19933
-4.19662
-8.54107
-14.58
-21.3669
-28.3334
-36.045
-43.2163
-49.3216
-54.8204
-59.6022
-63.7247
-0.110921
0.47356
0.596208
1.32596
2.09617
3.14129
4.07317
4.52703
3.69839
1.44577
-0.871376
-2.36249
-4.11909
-8.42105
-14.5438
-21.4559
-28.7195
-36.8586
-43.6793
-49.8774
-55.6013
-60.6301
-65.0305
-0.110561
0.480471
0.608844
1.34603
2.13214
3.20168
4.15965
4.6442
3.7912
1.37594
-1.03704
-2.39123
-3.89404
-8.14153
-14.306
-21.3623
-28.9922
-37.1723
-43.9754
-50.4501
-56.4228
-61.6314
-66.0884
-0.123507
0.4877
0.62875
1.38331
2.19492
3.29913
4.29441
4.8221
3.96574
1.40812
-1.09315
-2.31241
-3.57362
-7.76533
-13.9338
-21.1023
-29.1603
-37.2186
-44.2403
-50.9613
-56.952
-61.9068
-66.0757
-0.124723
0.505354
0.661099
1.43601
2.27546
3.41466
4.44338
5.00511
4.13475
1.41336
-1.20551
-2.30629
-3.3331
-7.487
-13.6413
-20.8168
-29.3364
-37.3376
-44.4139
-51.0302
-56.8019
-61.5272
-65.4654
-0.114183
0.531283
0.70122
1.49541
2.35999
3.52814
4.57954
5.15935
4.25993
1.34999
-1.42284
-2.42388
-3.21368
-7.34472
-13.4716
-20.5452
-29.4995
-37.4286
-44.403
-50.7561
-56.4031
-61.1878
-64.9804
-0.100765
0.558842
0.741928
1.55399
2.43984
3.62977
4.6926
5.27492
4.3325
1.21267
-1.74286
-2.64158
-3.16231
-7.26246
-13.3502
-20.3061
-29.5244
-37.1929
-44.038
-50.3444
-55.9086
-60.3904
-63.8541
-0.0892613
0.584476
0.779433
1.60748
2.51048
3.71552
4.78017
5.35237
4.35774
1.01386
-2.14293
-2.91671
-3.11381
-7.14319
-13.1702
-20.0931
-29.3533
-36.6395
-43.4784
-49.7413
-54.6997
-58.4245
-61.3401
-0.0798389
0.607666
0.813442
1.65619
2.57309
3.7883
4.84821
5.40257
4.35317
0.779943
-2.58689
-3.19862
-3.00686
-6.89162
-12.819
-19.8887
-29.0162
-35.8895
-42.8442
-48.8311
-52.7327
-55.7161
-58.0788
-0.0711829
0.629557
0.84568
1.70209
2.6308
3.85349
4.90564
5.43946
4.33901
0.537851
-3.04238
-3.44945
-2.80767
-6.45517
-12.2471
-19.6994
-28.6298
-35.1664
-41.9867
-47.2537
-50.8056
-53.1414
-55.419
-0.0622752
0.650931
0.877519
1.74738
2.68707
3.91638
4.96053
5.47505
4.33172
0.308289
-3.48767
-3.64929
-2.51025
-5.82747
-11.4603
-19.5031
-28.2576
-34.6586
-40.7736
-45.2493
-48.8876
-51.2239
-53.509
-0.052597
0.672525
0.910045
1.79311
2.74354
3.97972
5.01725
5.51565
4.33934
0.0993552
-3.91912
-3.80354
-2.14407
-5.04591
-10.4684
-19.3413
-28.0286
-34.3019
-39.4657
-43.5414
-46.9222
-49.5631
-51.811
-0.0420985
0.69443
0.943449
1.83981
2.80115
4.04483
5.07764
5.56367
4.36411
-0.088471
-4.3427
-3.92932
-1.74926
-4.13303
-9.32873
-19.506
-27.8955
-33.7768
-38.2537
-42.0985
-45.33
-47.9868
-50.0097
-0.0308679
0.716869
0.977861
1.88723
2.85957
4.1114
5.14133
5.6182
4.40371
-0.260985
-4.77204
-4.05291
-1.36862
-3.09155
-8.2258
-20.05
-27.5279
-32.8367
-37.1088
-40.6397
-43.819
-46.2979
-48.0353
-0.0191716
0.739643
1.01292
1.93523
2.9187
4.17913
5.20766
5.67784
4.45511
-0.423957
-5.21932
-4.19626
-1.01991
-1.9379
-7.61072
-20.6653
-26.9994
-31.8494
-36.0292
-39.3337
-42.449
-44.6772
-46.1383
-0.00716468
0.762844
1.04854
1.98337
2.97792
4.24724
5.27551
5.74057
4.51476
-0.583592
-5.69628
-4.37598
-0.706184
-0.794383
-8.03138
-20.9899
-26.3709
-30.9493
-35.0456
-38.1275
-41.019
-43.0337
-44.2825
0.00494302
0.786251
1.08436
2.03159
3.03724
4.31559
5.3444
5.80529
4.5805
-0.743075
-6.20929
-4.59909
-0.390532
0.375948
-9.4175
-21.0354
-25.5218
-29.9587
-34.1396
-37.0184
-39.4224
-41.108
-42.218
0.0171366
0.80998
1.12041
2.07968
3.09634
4.38379
5.41378
5.87093
4.65058
-0.904897
-6.76411
-4.87214
-0.0120366
1.47501
-11.1982
-21.0991
-24.9235
-29.3807
-33.3049
-36.1082
-38.0224
-39.1726
-40.045
0.0293363
0.83386
1.15649
2.12779
3.15549
4.45209
5.48372
5.93731
4.72453
-1.06888
-7.36242
-5.18242
0.486391
1.84517
-13.04
-21.3336
-25.1659
-29.4659
-32.9143
-35.4594
-37.0074
-37.731
-38.2439
0.0416456
0.85805
1.19277
2.17589
3.21458
4.52037
5.55411
6.0041
4.80206
-1.23488
-8.00551
-5.50197
1.17635
1.16118
-14.9174
-22.0749
-26.1878
-30.2122
-33.352
-35.4371
-36.3375
-36.5379
-36.7344
0.0540494
0.882409
1.22914
2.22422
3.27396
4.589
5.62524
6.07161
4.88358
-1.40139
-8.69278
-5.78568
2.14671
-0.248719
-16.7433
-23.6543
-28.6001
-31.8082
-34.0225
-35.0695
-35.698
-35.6868
-35.4929
0.0666871
0.90711
1.26581
2.27275
3.33356
4.65793
5.69712
6.13977
4.96938
-1.5678
-9.42094
-6.03518
3.13779
-1.97958
-18.6351
-25.7436
-31.2004
-33.7
-34.0182
-33.8466
-34.1305
-33.5059
-32.9895
0.0795348
0.932017
1.30272
2.32172
3.39368
4.72747
5.77003
6.209
5.06004
-1.73197
-10.1806
-6.30969
3.68452
-3.91122
-20.4755
-27.7269
-32.1296
-33.977
-32.6865
-31.7097
-31.1401
-29.9812
-29.4562
0.0927076
0.95729
1.34005
2.37106
3.45421
4.79754
5.84402
6.27934
5.15602
-1.89252
-10.9661
-6.64136
3.61569
-5.92253
-22.3212
-29.2752
-31.9277
-32.7547
-30.5324
-28.919
-27.461
-25.9398
-25.0304
0.106163
0.982801
1.3777
2.42094
3.51537
4.86836
5.91929
6.35112
5.25782
-2.04676
-11.7629
-7.01494
2.79911
-8.16353
-24.4387
-30.5975
-31.592
-31.0647
-28.2889
-26.0108
-23.7119
-21.7769
-20.3996
0.119941
1.00867
1.41589
2.47136
3.57717
4.94008
5.99626
6.42491
5.36664
-2.19226
-12.5488
-7.27089
1.3082
-10.5977
-27.043
-31.8631
-31.628
-29.4058
-26.0259
-22.9579
-19.8771
-17.5707
-15.9634
0.134258
1.035
1.4547
2.52265
3.64004
5.01318
6.07553
6.50154
5.48337
-2.32657
-13.2824
-7.07708
-0.767271
-13.4157
-29.9981
-32.7929
-31.2073
-27.1433
-23.1225
-19.3565
-15.6924
-13.1419
-11.5116
0.148922
1.06142
1.49417
2.57486
3.70455
5.08925
6.16034
6.58636
5.61592
-2.42517
-13.9082
-6.17591
-3.54158
-16.5666
-32.7526
-32.4807
-28.7901
-23.2503
-18.8002
-14.5829
-10.629
-7.99324
-6.44825
0.160292
1.08699
1.53408
2.62982
3.77476
5.17555
6.26271
6.69848
5.79031
-2.43189
-14.3556
-4.62758
-6.60371
-19.1668
-33.9839
-29.9351
-23.4637
-16.5386
-11.6443
-7.11248
-3.0756
-0.629268
0.733974
0.174448
1.11531
1.57825
2.69101
3.85497
5.2779
6.39061
6.84856
6.01658
-2.32548
-14.631
-2.76336
-9.40678
-20.4503
-33.0561
-25.453
-15.9515
-7.54168
-1.97593
2.91578
6.93249
8.8198
9.92025
0.191666
1.14669
1.62731
2.75956
3.94662
5.39778
6.54472
7.03491
6.28659
-2.12059
-14.8074
-0.751951
-11.7428
-20.8808
-30.3752
-19.7255
-7.86833
1.96772
8.26884
13.4613
17.3069
18.2091
19.1107
0.210497
1.18025
1.68028
2.8341
4.04773
5.53187
6.71891
7.24586
6.57858
-1.85422
-14.9756
1.13489
-13.4859
-21.0494
-26.8193
-13.5547
-0.0666029
10.4504
17.1969
22.3582
25.6719
25.2662
26.0157
0.229988
1.21515
1.73616
2.91352
4.15651
5.67697
6.90713
7.47015
6.87153
-1.56587
-15.2104
2.60461
-14.7634
-20.9086
-23.0237
-7.57296
6.07754
16.4825
23.8582
28.3562
30.6102
28.7681
29.2735
0.249982
1.25107
1.79401
2.99589
4.26971
5.82773
7.1006
7.69377
7.14377
-1.29028
-15.551
3.47643
-15.9584
-20.6645
-19.2746
-2.47979
10.4494
20.5971
27.7599
30.8735
31.6525
28.479
28.4797
0.27035
1.28772
1.85349
3.08104
4.38702
5.98353
7.29795
7.91378
7.39006
-1.03811
-16.0133
3.61204
-16.9505
-20.2274
-15.598
1.46765
14.1052
23.8196
29.0221
30.3906
29.5359
25.1948
24.3437
0.291083
1.32533
1.9145
3.1685
4.50763
6.14315
7.49766
8.12967
7.61043
-0.823525
-16.5541
3.17095
-17.46
-19.455
-12.1808
4.8414
17.007
25.9047
28.4852
28.1029
25.6695
20.1132
18.3377
0.31376
1.3649
1.97869
3.25978
4.63274
6.30691
7.69917
8.34126
7.81104
-0.643347
-17.2653
1.98273
-17.9741
-18.9034
-9.50535
7.38901
18.2194
25.0784
25.431
23.5689
19.5742
12.7667
9.84938
0.335903
1.40382
2.04173
3.34901
4.75408
6.46342
7.88657
8.52635
7.96255
-0.52803
-18.1604
0.268123
-18.6326
-18.955
-7.81932
8.10219
17.3201
21.6227
20.2985
17.3288
11.6617
4.1244
0.133096
0.356861
1.44129
2.10249
3.43506
4.87028
6.61129
8.05885
8.68494
8.06804
-0.468388
-19.1976
-1.70115
-19.356
-19.3937
-6.81383
7.59337
15.2014
17.4261
14.8208
11.0084
3.91555
-3.19216
-7.89199
0.377456
1.47819
2.16217
3.51924
4.98326
6.75348
8.22097
8.82584
8.14493
-0.434816
-20.3099
-3.73856
-20.2169
-20.0423
-6.32616
6.6237
12.6806
13.5088
10.0148
5.62956
-1.90071
-7.96741
-12.6613
0.397958
1.51484
2.22138
3.60264
5.09461
6.8925
8.37727
8.95724
8.20968
-0.399137
-21.4298
-5.72379
-21.2003
-20.964
-6.27385
5.39732
10.1846
10.2081
6.27337
1.77018
-5.02674
-10.2515
-14.2389
0.418562
1.55147
2.28043
3.68548
5.2048
7.02938
8.53006
9.08417
8.2731
-0.342809
-22.5028
-7.59363
-22.4253
-22.1702
-6.63498
3.99683
7.93169
7.62583
3.69928
-0.456857
-5.96501
-10.3251
-13.1969
0.439079
1.5879
2.3392
3.76787
5.31402
7.16455
8.68038
9.20916
8.34075
-0.256901
-23.4947
-9.33307
-24.026
-23.4044
-7.41072
2.51155
6.03037
5.77836
2.25355
-1.25865
-5.39536
-8.56527
-10.1153
0.459614
1.62423
2.39774
3.84962
5.4221
7.29794
8.82844
9.33311
8.41454
-0.139354
-24.3908
-10.9122
-25.8786
-24.6151
-8.53549
1.02859
4.51704
4.63298
1.79172
-0.895631
-3.672
-5.41404
-5.61944
0.479988
1.6603
2.45586
3.93072
5.52899
7.42947
8.97425
9.45613
8.49433
0.00754429
-25.1893
-12.3144
-27.7791
-25.9274
-9.89104
-0.394541
3.37217
4.1023
2.09416
0.349517
-1.03655
-1.33829
-0.308649
0.500336
1.69621
2.51363
4.01098
5.63453
7.55899
9.11763
9.57794
8.57886
0.179474
-25.8956
-13.5549
-29.705
-27.385
-11.3948
-1.72964
2.54563
4.05515
2.94806
2.23015
2.1958
3.16291
5.2326
0.520474
1.73181
2.57086
4.09044
5.73868
7.68645
9.25847
9.69812
8.66646
0.371008
-26.5213
-14.6638
-31.6617
-28.9803
-13.0411
-2.97179
1.96726
4.32331
4.15501
4.5289
5.71009
7.65066
10.5074
0.540553
1.76724
2.62766
4.16898
5.84138
7.81174
9.39656
9.81621
8.75535
0.576949
-27.0793
-15.671
-33.6224
-30.687
-14.786
-4.12753
1.5481
4.74735
5.55154
7.0252
9.19026
11.8264
15.2193
0.560389
1.80235
2.68387
4.24667
5.94264
7.93485
9.53182
9.93174
8.84391
0.792316
-27.5833
-16.605
-35.568
-32.4752
-16.5578
-5.22091
1.1773
5.17832
6.99149
9.49873
12.3722
15.4592
19.1746
0.580157
1.83726
2.73961
4.3234
6.0424
8.05568
9.66401
10.0443
8.93074
1.0133
-28.0446
-17.4865
-37.4776
-34.3028
-18.3097
-6.28453
0.758915
5.5092
8.33212
11.7572
15.0859
18.4102
22.2223
0.599666
1.87183
2.79474
4.39926
6.14065
8.17419
9.793
10.1534
9.0148
1.23675
-28.472
-18.3312
-39.3366
-36.1208
-20.0151
-7.37188
0.225408
5.67957
9.46084
13.6082
17.2509
20.6614
24.3576
0.619108
1.90619
2.84937
4.47412
6.23734
8.29023
9.91856
10.2589
9.09538
1.46106
-28.8686
-19.1468
-41.1337
-37.8801
-21.6383
-8.52275
-0.444249
5.66526
10.3271
14.9471
18.8019
22.2272
25.6501
0.638286
1.94019
2.90336
4.54807
6.33242
8.40372
10.0405
10.3603
9.17216
1.6853
-29.2333
-19.9367
-42.8598
-39.5287
-23.1536
-9.74259
-1.24509
5.4338
10.8764
15.7665
19.7385
23.0965
26.1538
0.657411
1.97395
2.95682
4.62095
6.4258
8.51451
10.1587
10.4577
9.24517
1.90997
-29.5585
-20.6958
-44.4966
-41.0161
-24.5538
-11.0042
-2.16653
4.96387
11.0472
16.1086
20.1278
23.3625
26.0006
0.676261
2.00732
3.0096
4.69282
6.5174
8.62247
10.2728
10.5508
9.31471
2.13592
-29.8315
-21.4139
-46.0124
-42.3014
-25.8314
-12.3018
-3.21823
4.24844
10.7993
16.0161
20.088
23.2065
25.4731
0.695058
2.04042
3.0618
4.76353
6.60712
8.72745
10.3828
10.6397
9.38134
2.36517
-30.0331
-22.0739
-47.3507
-43.3328
-26.9608
-13.6381
-4.42428
3.28959
10.1816
15.6019
19.8003
22.8681
24.8509
0.713563
2.07309
3.11325
4.83311
6.69488
8.82932
10.4886
10.7243
9.44572
2.59948
-30.1401
-22.6583
-48.4665
-44.0781
-27.9368
-15.0158
-5.80376
2.10515
9.32035
15.0677
19.4935
22.5269
24.2987
0.732012
2.10545
3.16406
4.90141
6.78057
8.92793
10.5898
10.8048
9.50868
2.84133
-30.1241
-23.1507
-49.344
-44.5515
-28.7885
-16.4372
-7.32384
0.773278
8.38954
14.5902
19.2564
22.2414
23.8671
0.750141
2.13733
3.21405
4.96847
6.86409
9.02315
10.6864
10.8811
9.57097
3.0923
-29.9546
-23.5404
-49.9754
-44.7938
-29.5507
-17.9096
-8.94338
-0.605951
7.50541
14.1913
19.0411
21.9554
23.4887
0.768198
2.16887
3.26331
5.0341
6.94535
9.11484
10.7783
10.9534
9.63342
3.35407
-29.5985
-23.8172
-50.345
-44.8502
-30.2505
-19.4335
-10.6497
-1.95144
6.69904
13.7965
18.7109
21.5413
23.0228
0.7859
2.19988
3.31169
5.09835
7.02422
9.20284
10.8651
11.0215
9.69671
3.62672
-29.0235
-23.9831
-50.4253
-44.7945
-30.9247
-21.0191
-12.4394
-3.25027
5.92738
13.3014
18.1797
20.9221
22.3821
0.803515
2.2305
3.35925
5.16105
7.10061
9.287
10.9468
11.0856
9.76153
3.90937
-28.2002
-24.0407
-50.1709
-44.7173
-31.6156
-22.6789
-14.2494
-4.51943
5.11537
12.6214
17.4166
20.0815
21.5467
0.820735
2.26055
3.40584
5.22221
7.17439
9.36713
11.0231
11.1454
9.82831
4.19911
-27.1074
-24.0425
-49.5721
-44.7053
-32.3862
-24.4162
-15.9934
-5.76461
4.19095
11.7025
16.4122
19.0271
20.5245
0.837844
2.29014
3.45152
5.28166
7.24545
9.44307
11.0936
11.2009
9.89753
4.48993
-25.7668
-24.0732
-48.6868
-44.7501
-33.2652
-26.1983
-17.6094
-6.96221
3.13939
10.5815
15.1913
17.7859
19.3452
0.854518
2.31911
3.49613
5.33941
7.31363
9.51458
11.1582
11.252
9.96919
4.76674
-24.2459
-24.1691
-47.623
-44.7927
-34.2533
-27.9876
-19.0723
-8.10661
1.99222
9.309
13.8253
16.4336
18.0862
0.871061
2.34757
3.53974
5.39528
7.37881
9.58148
11.2164
11.2985
10.043
5.01606
-22.6597
-24.4993
-46.3976
-44.7924
-35.3463
-29.7283
-20.3957
-9.2261
0.771486
7.93266
12.3844
15.0413
16.8025
0.887123
2.37534
3.58217
5.44926
7.44083
9.6435
11.268
11.3401
10.1187
5.22989
-21.2224
-25.2038
-45.093
-44.7124
-36.5175
-31.3081
-21.5906
-10.3413
-0.510506
6.4835
10.8918
13.6142
15.4812
0.903027
2.40254
3.62347
5.50116
7.49953
9.70043
11.3125
11.3769
10.1959
5.39335
-19.9196
-26.1689
-43.8817
-44.5024
-37.7227
-32.6245
-22.6396
-11.445
-1.81779
5.01326
9.39545
12.1843
14.1461
0.918402
2.42898
3.66348
5.55097
7.55473
9.75198
11.3496
11.4085
10.2734
5.48664
-18.6623
-27.1115
-42.8552
-44.31
-38.952
-33.6837
-23.5623
-12.5275
-3.12696
3.55821
7.92072
10.7746
12.8141
0.933595
2.45477
3.70223
5.59846
7.60627
9.79791
11.3788
11.4347
10.3501
5.49998
-17.4285
-27.913
-42.0379
-44.1366
-40.0757
-34.5398
-24.4037
-13.5739
-4.42458
2.12427
6.4668
9.36643
11.4573
0.948203
2.47972
3.73953
5.64363
7.65393
9.8379
11.3998
11.4554
10.4254
5.42532
-16.2281
-28.5289
-41.4721
-44.0044
-40.9187
-35.2164
-25.1715
-14.5606
-5.68045
0.711526
5.01412
7.92294
10.0415
0.9626
2.50394
3.77544
5.6862
7.69751
9.87165
11.4119
11.4705
10.4984
5.26071
-15.0679
-28.8844
-41.2089
-44.0814
-41.5013
-35.7482
-25.8358
-15.4804
-6.88823
-0.665803
3.57738
6.45638
8.5733
0.976329
2.52723
3.80976
5.72625
7.73692
9.89904
11.4151
11.4803
10.5702
5.00615
-13.9743
-28.9602
-41.1304
-44.3366
-41.9265
-36.1152
-26.3512
-16.3394
-8.06222
-2.0191
2.14908
4.97415
7.0607
0.989944
2.54976
3.84251
5.7633
7.77154
9.9191
11.4079
11.4825
10.6369
4.68072
-12.9531
-28.7327
-41.0345
-44.5487
-42.2183
-36.3164
-26.7257
-17.1387
-9.20736
-3.36695
0.675555
3.42134
5.46443
1.00258
2.57131
3.87386
5.7984
7.80307
9.93424
11.3931
11.4842
10.7063
4.24308
-12.1841
-28.2364
-40.717
-44.4013
-42.2444
-36.2644
-26.8528
-17.7044
-10.1707
-4.60068
-0.74546
1.89064
3.8764
1.01652
2.59355
3.90489
5.83121
7.82957
9.9397
11.3638
11.4531
10.6985
3.91584
-11.1199
-26.9915
-39.5737
-43.6933
-42.1021
-36.1989
-27.0995
-18.3395
-11.1713
-5.86343
-2.19293
0.311627
2.21748
1.03439
2.61685
3.93581
5.85848
7.84412
9.92498
11.3122
11.384
10.5646
3.47777
-10.152
-25.7515
-37.9888
-42.3881
-41.1937
-35.4003
-26.8192
-18.5316
-11.7638
-6.75241
-3.30973
-0.960614
0.843907
1.04803
2.63469
3.95717
5.86885
7.83068
9.86715
11.2041
11.2295
10.2837
3.04435
-8.93775
-24.3216
-35.9555
-40.4015
-39.4214
-33.831
-25.8873
-18.2328
-11.9465
-7.28928
-4.12184
-1.95826
-0.278224
1.05525
2.6448
3.96568
5.85861
7.78371
9.75732
11.0222
10.9663
9.85754
2.6767
-7.42738
-22.4979
-33.2545
-37.653
-36.7303
-31.443
-24.2127
-17.3016
-11.6373
-7.45083
-4.62114
-2.67663
-1.14381
1.06005
2.6494
3.96346
5.82883
7.70372
9.59508
10.7635
10.5958
9.31748
2.41349
-5.77141
-20.2023
-29.9
-34.1708
-33.1808
-28.3013
-21.9209
-15.8431
-10.9307
-7.34995
-4.94158
-3.26875
-1.92015
1.06383
2.64958
3.95165
5.78061
7.59167
9.38166
10.4306
10.1313
8.7037
2.27245
-4.16782
-17.5167
-26.1564
-30.0787
-29.0291
-24.6647
-19.2364
-14.1511
-10.1185
-7.24898
-5.33242
-3.98162
-2.86039
1.06668
2.64477
3.92939
5.71225
7.44581
9.11594
10.0254
9.58762
8.051
2.25544
-2.77457
-14.5354
-22.0906
-25.5296
-24.603
-20.9742
-16.5763
-12.5973
-9.54194
-7.43654
-6.04342
-5.0418
-4.17848
1.06674
2.63318
3.89415
5.62059
7.2621
8.79399
9.54742
8.97693
7.38387
2.36568
-1.67976
-11.3751
-17.8408
-20.8059
-20.1748
-17.4913
-14.2986
-11.5054
-9.45246
-8.08562
-7.19387
-6.53674
-5.94049
1.06366
2.61338
3.84353
5.50163
7.03569
8.41142
8.99657
8.30972
6.71793
2.57347
-0.868803
-8.30208
-13.7519
-16.3667
-16.158
-14.4917
-12.5555
-10.9421
-9.82172
-9.11391
-8.66948
-8.33118
-7.99207
1.05609
2.58358
3.77468
5.35164
6.76208
7.96487
8.37486
7.59516
6.05863
2.79379
-0.277045
-5.64274
-10.1644
-12.5726
-12.935
-12.2751
-11.4416
-10.8066
-10.4267
-10.2415
-10.1595
-10.0922
-9.97686
1.04413
2.54244
3.68522
5.16681
6.43761
7.45336
7.68746
6.84155
5.39964
2.90697
0.14441
-3.64046
-7.38423
-9.68237
-10.5797
-10.7628
-10.7689
-10.8255
-10.9579
-11.136
-11.3149
-11.4517
-11.5099
1.02642
2.48786
3.57209
4.94392
6.06
6.87868
6.94254
6.05527
4.72192
2.8097
0.378578
-2.39493
-5.54004
-7.73309
-8.97599
-9.70554
-10.2398
-10.7129
-11.1486
-11.5425
-11.8818
-12.1493
-12.3214
1.00293
2.4183
3.43289
4.68007
5.62881
6.24609
6.15121
5.24161
4.00194
2.45541
0.363558
-1.84527
-4.52547
-6.55496
-7.9123
-8.88334
-9.65843
-10.3209
-10.8925
-11.3828
-11.7956
-12.1253
-12.3548
0.971977
2.3312
3.2646
4.37377
5.14622
5.56455
5.32719
4.40649
3.22622
1.86905
0.0765969
-1.80862
-4.08235
-5.87465
-7.16476
-8.15589
-8.97045
-9.66297
-10.2529
-10.7548
-11.1771
-11.5174
-11.7627
0.933437
2.22518
3.06558
4.02487
4.61755
4.84695
4.48692
3.56058
2.40552
1.13274
-0.416357
-2.05783
-3.93926
-5.44117
-6.56231
-7.45506
-8.20059
-8.83678
-9.38042
-9.84424
-10.236
-10.5545
-10.7903
0.885386
2.0975
2.83419
3.63596
4.05197
4.1098
3.64968
2.7224
1.57684
0.354122
-0.989169
-2.39174
-3.89863
-5.09812
-6.01406
-6.764
-7.39785
-7.94265
-8.41094
-8.81223
-9.15273
-9.43174
-9.64194
0.827991
1.94767
2.57134
3.21225
3.46221
3.37242
2.83735
1.91867
0.792346
-0.365633
-1.51779
-2.67429
-3.84246
-4.76763
-5.48778
-6.08994
-6.60472
-7.05002
-7.43407
-7.76459
-8.04651
-8.27829
-8.45511
0.759252
1.77426
2.27898
2.76273
2.86436
2.65577
2.07312
1.17989
0.101772
-0.958356
-1.92382
-2.84205
-3.72383
-4.42153
-4.97502
-5.44587
-5.85264
-6.20741
-6.51542
-6.78108
-7.00788
-7.19491
-7.33954
0.680135
1.57922
1.96291
2.29922
2.27632
1.98058
1.37898
0.532972
-0.462737
-1.39564
-2.18103
-2.88736
-3.54024
-4.06073
-4.48235
-4.84715
-5.16531
-5.44399
-5.68756
-5.8991
-6.07921
-6.22809
-6.34508
0.589658
1.36458
1.63067
1.83641
1.71651
1.36566
0.772672
-0.00406042
-0.889427
-1.67859
-2.2982
-2.82805
-3.30584
-3.692
-4.01159
-4.29094
-4.53553
-4.75058
-4.93834
-5.10027
-5.23791
-5.35291
-5.44407
0.490357
1.13658
1.29365
1.39001
1.20188
0.8261
0.266027
-0.42414
-1.18263
-1.82694
-2.3032
-2.6938
-3.04247
-3.33021
-3.57342
-3.78848
-3.97757
-4.14379
-4.289
-4.4139
-4.52056
-4.61085
-4.68274
0.384011
0.902363
0.964273
0.975687
0.747013
0.372482
-0.135645
-0.729166
-1.35672
-1.86582
-2.22432
-2.51025
-2.76575
-2.98097
-3.16566
-3.33017
-3.47547
-3.60285
-3.71276
-3.80746
-3.88932
-3.95836
-4.01328
0.275411
0.672623
0.656609
0.607733
0.362835
0.0108601
-0.432862
-0.926554
-1.42837
-1.81756
-2.08254
-2.2909
-2.47898
-2.6397
-2.78013
-2.90642
-3.01676
-3.11229
-3.19513
-3.26717
-3.32899
-3.38052
-3.42175
0.169992
0.458378
0.384069
0.297441
0.0567628
-0.257513
-0.630338
-1.02717
-1.41441
-1.70244
-1.89534
-2.04692
-2.18589
-2.30725
-2.4148
-2.51048
-2.59398
-2.6664
-2.72969
-2.7843
-2.82999
-2.86793
-2.89838
0.0741418
0.271989
0.157724
0.0532992
-0.168715
-0.436059
-0.737567
-1.04527
-1.33346
-1.54071
-1.68019
-1.79082
-1.8944
-1.98711
-2.06919
-2.14094
-2.20432
-2.26048
-2.30929
-2.34996
-2.38341
-2.41107
-2.43312
-0.00442774
0.122886
-0.0137359
-0.121532
-0.315389
-0.533096
-0.767243
-0.99667
-1.20264
-1.34876
-1.44802
-1.52829
-1.60566
-1.67508
-1.73459
-1.78744
-1.83486
-1.87674
-1.91195
-1.94048
-1.96354
-1.98227
-1.9969
-0.0609154
0.0191601
-0.125903
-0.227035
-0.389439
-0.56016
-0.736002
-0.901133
-1.04361
-1.14516
-1.2149
-1.27454
-1.33288
-1.38261
-1.42587
-1.46604
-1.50211
-1.53324
-1.55855
-1.57878
-1.59469
-1.60724
-1.61696
-0.0923658
-0.0383139
-0.179962
-0.268085
-0.398649
-0.52685
-0.653137
-0.767067
-0.86448
-0.938228
-0.990069
-1.03624
-1.07885
-1.11394
-1.14748
-1.17908
-1.20648
-1.2292
-1.24734
-1.26148
-1.27206
-1.28008
-1.28616
-0.0941757
-0.0465297
-0.174162
-0.244516
-0.345434
-0.440123
-0.532699
-0.614148
-0.678779
-0.725251
-0.756933
-0.787009
-0.812896
-0.836442
-0.859923
-0.881055
-0.89847
-0.912429
-0.923017
-0.930504
-0.935281
-0.93824
-0.940042
-0.0964097
-0.0412539
-0.145491
-0.188663
-0.248106
-0.288328
-0.319794
-0.363362
-0.4431
-0.537312
-0.607799
-0.651615
-0.677505
-0.698327
-0.717264
-0.733321
-0.746185
-0.756494
-0.763997
-0.769006
-0.771861
-0.77342
-0.774301
0.0211702
0.0951601
0.0296606
-0.0017889
-0.0606788
-0.122879
-0.174922
-0.18
-0.135094
-0.0800342
-0.0538282
-0.06355
-0.0873995
-0.106721
-0.11881
-0.127949
-0.134863
-0.139705
-0.142146
-0.142764
-0.141749
-0.139915
-0.137676
0.825102
0.690139
0.836543
1.11491
1.44646
1.86499
2.4572
3.26999
4.38092
5.87773
7.78153
10.107
12.7757
15.7086
18.7787
21.8748
24.8748
27.6723
30.1725
32.3173
34.0662
35.4447
36.4394
0.886704
0.846707
0.983433
1.28192
1.64816
2.1006
2.71004
3.5233
4.60252
6.01718
7.79184
9.93429
12.3876
15.0811
17.9085
20.7644
23.533
26.1034
28.3761
30.2879
31.8006
32.9512
33.7346
0.956251
1.00141
1.14587
1.45862
1.86004
2.3495
2.97958
3.79233
4.83466
6.15746
7.78274
9.71369
11.91
14.3142
16.8421
19.4026
21.8934
24.2078
26.2447
27.935
29.2393
30.1995
30.8195
1.03329
1.14218
1.30968
1.63415
2.06691
2.59369
3.24771
4.06206
5.06892
6.30057
7.77101
9.47784
11.3915
13.4687
15.6475
17.8567
20.0157
22.0328
23.8139
25.2879
26.4129
27.2259
27.7348
1.11366
1.25466
1.45093
1.78675
2.24391
2.80351
3.48079
4.29718
5.27043
6.41518
7.73312
9.2145
10.8341
12.5617
14.3564
16.1718
17.9528
19.6297
21.1246
22.3722
23.3301
24.0237
24.4598
1.18441
1.3217
1.5379
1.88266
2.35495
2.93678
3.63051
4.44615
5.38927
6.45748
7.63881
8.91228
10.2514
11.6304
13.0251
14.4145
15.7711
17.0543
18.2127
19.1981
19.9739
20.5543
20.9362
1.22501
1.3425
1.56636
1.92236
2.41021
3.01127
3.7187
4.53295
5.44711
6.44239
7.48993
8.55463
9.6019
10.6058
11.5582
12.4672
13.3425
14.1854
14.9813
15.7045
16.3218
16.8261
17.1855
1.21608
1.33127
1.55681
1.93581
2.45617
3.08933
3.81983
4.63678
5.51734
6.42301
7.3041
8.1077
8.78975
9.33009
9.74853
10.0983
10.4457
10.8448
11.3158
11.8415
12.3721
12.8604
13.238
0.294428
-0.492998
-0.0695724
-0.209051
-0.00933966
0.0970722
0.388415
0.971827
1.97549
3.70305
5.99081
9.08711
12.5701
16.4398
20.3692
24.2836
28.0122
31.457
34.5268
37.1714
39.3747
41.167
42.5786
0.309401
-0.448869
-0.018926
-0.145263
0.0741033
0.197004
0.520106
1.12223
2.14914
3.88105
6.1693
9.24446
12.717
16.5814
20.5416
24.5205
28.3616
31.9633
35.2326
38.107
40.5585
42.5965
44.239
0.326526
-0.40163
0.0380358
-0.0716446
0.169459
0.314728
0.672479
1.29649
2.34775
4.08125
6.36737
9.41217
12.8635
16.7052
20.6727
24.685
28.5996
32.3131
35.7321
38.7859
41.4379
43.681
45.5266
0.345426
-0.353442
0.0975052
0.00727284
0.269659
0.442699
0.837247
1.48808
2.56738
4.30522
6.59215
9.6058
13.0319
16.8416
20.7993
24.8209
28.7754
32.5587
36.077
39.254
42.0489
44.4407
46.4421
0.366805
-0.304178
0.158396
0.0899866
0.372838
0.57748
1.01088
1.69226
2.80176
4.54599
6.83471
9.81733
13.2149
16.9861
20.9208
24.9324
28.8994
32.7172
36.2909
39.5401
42.4204
44.9028
47.0038
0.391051
-0.254175
0.218567
0.174441
0.474335
0.712685
1.18497
1.89957
3.04038
4.79292
7.08443
10.037
13.4034
17.1304
21.0296
25.0135
28.9682
32.789
36.3795
39.6553
42.5703
45.089
47.2335
0.418668
-0.202887
0.275834
0.258633
0.570782
0.842371
1.35168
2.10016
3.27165
5.03315
7.32731
10.2508
13.584
17.2628
21.1163
25.0566
28.9767
32.7727
36.3467
39.6113
42.5177
45.0269
47.1656
0.44998
-0.149698
0.326881
0.338823
0.655926
0.956856
1.49779
2.27821
3.47814
5.24941
7.5478
10.4472
13.7502
17.3822
21.1846
25.0697
28.9354
32.6805
36.2065
39.4249
42.2847
44.7469
46.8408
0.484982
-0.0915593
0.371824
0.415107
0.730232
1.05484
1.62006
2.42767
3.65057
5.42915
7.72989
10.608
13.8831
17.4714
21.2213
25.0441
28.8408
32.5138
35.9657
39.1093
41.8919
44.276
46.2934
0.523735
-0.0238144
0.414252
0.492067
0.800316
1.14329
1.72478
2.55238
3.78906
5.56692
7.86175
10.7143
13.9581
17.5018
21.1964
24.9515
28.6683
32.253
35.61
38.656
41.3373
43.6208
45.5334
0.566434
0.0572947
0.457285
0.572385
0.871463
1.2271
1.81651
2.65515
3.89302
5.65821
7.93186
10.7486
13.95
17.4436
21.0768
24.7589
28.3865
31.8697
35.1147
38.0439
40.6041
42.7674
44.555
0.613022
0.154792
0.504816
0.659211
0.950278
1.31475
1.90538
2.74577
3.97262
5.70883
7.94397
10.7059
13.8489
17.2776
20.8397
24.4388
27.9683
31.3381
34.457
37.253
39.6743
41.702
43.3478
0.662469
0.269227
0.560293
0.753068
1.04126
1.4134
2.00168
2.83748
4.04253
5.73564
7.91253
10.5998
13.6621
17.0078
20.4827
23.9871
27.4077
30.6538
33.6345
36.2838
38.5525
40.43
41.9221
0.712975
0.398295
0.627772
0.85431
1.14686
1.52803
2.11307
2.93983
4.1155
5.75145
7.85242
10.4415
13.4001
16.6387
20.0079
23.4021
26.7034
29.8169
32.6518
35.147
37.2556
38.9789
40.3147
0.766414
0.539148
0.714998
0.968444
1.27382
1.66779
2.25139
3.06741
4.20938
5.77764
7.78778
10.2571
13.0886
16.1947
19.4366
22.7028
25.8731
28.8466
31.532
33.8708
35.819
37.3907
38.5785
0.0773727
-0.92338
-0.751167
-1.16431
-1.36927