/*--------------------------------*- C++ -*----------------------------------*\
  =========                 |
  \\      /  F ield         | OpenFOAM: The Open Source CFD Toolbox
   \\    /   O peration     | Website:  https://openfoam.org
    \\  /    A nd           | Version:  7
     \\/     M anipulation  |
\*---------------------------------------------------------------------------*/
FoamFile
{
    version     2.0;
    format      ascii;
    class       surfaceScalarField;
    location    "50";
    object      phi;
}
// * * * * * * * * * * * * * * * * * * * * * * * * * * * * * * * * * * * * * //

dimensions      [0 3 -1 0 0 0 0];

internalField   nonuniform List<scalar> 
25449
(
64.3692
62.4204
-39.6353
47.7903
46.4728
-29.894
35.6366
34.7486
-22.5949
26.6683
26.0504
-17.0821
20.0152
19.5647
-12.9116
15.0589
14.7163
-9.75985
11.3544
11.0859
-7.38148
8.57839
8.36546
-5.58937
6.49334
6.32577
-4.24071
4.92438
4.79517
-3.22621
3.74214
3.64478
-2.46254
2.85047
2.77828
-1.88661
2.17757
2.12396
-1.45106
1.66959
1.6284
-1.12042
1.28611
1.25179
-0.868308
0.996742
0.964318
-0.674945
0.778573
0.743867
-0.525698
0.614292
0.574059
-0.409779
0.490765
0.442776
-0.31925
0.398005
0.34105
-0.248292
0.328425
0.262117
-0.192538
0.27625
0.20104
-0.148867
0.153526
-0.114431
0.237154
48.4215
79.2686
36.0743
58.8197
26.9748
43.8481
20.2347
32.7905
15.2207
24.5788
11.4782
18.4589
8.67727
13.8869
6.57604
10.4667
4.99611
7.90571
3.80573
5.98557
2.9074
4.54311
2.22873
3.45695
1.7156
2.6371
1.32743
2.01657
1.03381
1.54541
0.811887
1.18624
0.644412
0.91134
0.518296
0.700174
0.423547
0.537523
0.352521
0.412076
0.299366
0.315271
0.259616
0.240789
0.18323
0.229912
35.5083
91.2817
26.6008
67.727
19.9787
50.4701
15.042
37.7272
11.3521
28.2687
8.58885
21.2222
6.51609
15.9597
4.95841
12.0244
3.78517
9.07896
2.8995
6.87124
2.22978
5.21283
1.72274
3.96398
1.33851
3.02132
1.04713
2.30794
0.826197
1.76634
0.658876
1.35356
0.532443
1.03777
0.437182
0.795435
0.365627
0.609076
0.312031
0.465672
0.271967
0.355334
0.242047
0.270708
0.205566
0.21971
25.6465
99.5447
19.3914
73.9818
14.6694
55.192
11.1093
41.2874
8.42603
30.952
6.40503
23.2432
4.88307
17.4817
3.7359
13.1716
2.86942
9.94546
2.2134
7.52727
1.71589
5.71034
1.33819
4.34169
1.05111
3.3084
0.832669
2.52638
0.666476
1.93254
0.540249
1.47978
0.444658
1.13336
0.372524
0.867567
0.318293
0.663306
0.277652
0.506313
0.24726
0.385725
0.22456
0.293408
0.222526
0.2076
18.3717
104.977
14.1024
78.2508
10.7905
58.5038
8.24469
43.8331
6.29888
32.8978
4.81921
24.7229
3.69759
18.6034
2.84808
14.0212
2.20362
10.5899
1.71357
8.01732
1.34046
6.08346
1.05618
4.62597
0.839281
3.5253
0.673469
2.69219
0.546712
2.05929
0.450024
1.57647
0.376531
1.20685
0.320901
0.923197
0.278966
0.705241
0.247466
0.537813
0.223856
0.409335
0.206187
0.311077
0.235758
0.192955
13.1302
108.304
10.3207
81.0601
8.03295
60.7915
6.2168
45.6493
4.79698
34.3177
3.70105
25.8189
2.8619
19.4426
2.22178
14.6613
1.73315
11.0786
1.35936
8.39113
1.07331
6.36953
0.854412
4.84488
0.68659
3.69314
0.557485
2.82131
0.45813
2.15865
0.381876
1.65273
0.323588
1.26514
0.279235
0.967549
0.245636
0.73884
0.220277
0.563171
0.201183
0.428429
0.18684
0.32542
0.24654
0.176058
9.42504
110.08
7.67501
82.8099
6.11904
62.3475
4.81738
46.951
3.76412
35.371
2.93317
26.6498
2.28767
20.0881
1.79045
15.1586
1.40781
11.4612
1.11291
8.68603
0.885941
6.5965
0.71152
5.0193
0.577152
3.82751
0.473023
2.92544
0.392225
2.23945
0.329702
1.71525
0.281523
1.31332
0.244571
1.0045
0.216363
0.767047
0.194919
0.584616
0.178661
0.444686
0.166377
0.337704
0.255822
0.157095
6.84899
110.718
5.86076
83.7979
4.82072
63.3875
3.87552
47.8962
3.0725
36.1741
2.42047
27.3019
1.90472
20.6039
1.50277
15.5606
1.19034
11.7737
0.947201
8.92919
0.758647
6.78507
0.61296
5.16501
0.500086
3.9404
0.411877
3.01366
0.342839
2.30849
0.288978
1.76911
0.247125
1.35517
0.214736
1.03689
0.189778
0.792005
0.170624
0.60377
0.155983
0.459327
0.144823
0.348865
0.264295
0.13635
4.45261
112.156
3.36894
84.8814
2.54645
64.21
1.92999
48.5127
1.4683
36.6357
1.12564
27.6446
0.87195
20.8576
0.68387
15.7486
0.542769
11.9148
0.435553
9.0364
0.353961
6.86666
0.291829
5.22714
0.243882
3.98835
0.206003
3.05154
0.175827
2.33867
0.151862
1.79308
0.132957
1.37408
0.118153
1.05169
0.106631
0.803527
0.0977124
0.612689
0.0908277
0.466213
0.0855411
0.354151
0.268388
0.0814487
2.65626
113.017
2.01004
85.5275
1.51817
64.7018
1.15156
48.8794
0.878733
36.9086
0.678725
27.8446
0.532711
21.0036
0.426
15.8554
0.346439
11.9944
0.285805
9.09706
0.239653
6.91284
0.204583
5.26223
0.177246
4.01572
0.15497
3.07383
0.13657
2.35708
0.121462
1.80819
0.109182
1.38636
0.0992997
1.06158
0.0914077
0.81142
0.085143
0.618954
0.0801873
0.471169
0.0762941
0.358045
0.271473
0.0732095
1.35777
113.462
1.02688
85.8583
0.77356
64.9552
0.587101
49.0658
0.450545
37.0452
0.353439
27.9417
0.285086
21.072
0.237022
15.9035
0.201764
12.0297
0.174597
9.12421
0.153908
6.93353
0.138321
5.27782
0.125829
4.02821
0.114787
3.08487
0.104868
2.367
0.0961348
1.81693
0.0886076
1.39389
0.0822327
1.06795
0.0769046
0.816749
0.0724947
0.623365
0.0688705
0.474794
0.065935
0.360981
0.273874
0.0635346
0.435929
113.612
0.32789
85.9662
0.243324
65.0397
0.184172
49.1251
0.143935
37.0854
0.119508
27.9661
0.105993
21.0855
0.0993304
15.9102
0.0953544
12.0337
0.0918056
9.12778
0.089129
6.93623
0.0873985
5.27957
0.0854895
4.03015
0.0824339
3.08795
0.078517
2.37093
0.0742696
1.82119
0.0700603
1.39811
0.0661104
1.07191
0.0625365
0.820326
0.059379
0.626525
0.0566429
0.477531
0.0543408
0.363284
0.275827
0.052388
-0.203195
113.559
-0.157999
85.921
-0.126387
65.0082
-0.0980194
49.0967
-0.0720527
37.0595
-0.0465847
27.9407
-0.0224543
21.0614
-0.000677206
15.8884
0.0168821
12.0161
0.0295853
9.11506
0.039336
6.92647
0.0472403
5.27166
0.0527217
4.02466
0.055231
3.08544
0.0554649
2.3707
0.0542875
1.82237
0.0523266
1.40007
0.0500057
1.07423
0.0476037
0.82273
0.0452751
0.628855
0.0431244
0.479684
0.0412358
0.365173
0.277491
0.0395732
-0.632941
113.372
-0.486176
85.7741
-0.377385
64.8994
-0.290973
49.0103
-0.221133
36.9897
-0.162635
27.8822
-0.11358
21.0124
-0.0729514
15.8478
-0.0410626
11.9843
-0.0175103
9.09153
0.000612481
6.90838
0.0150916
5.25721
0.0256218
4.01416
0.0319034
3.07918
0.0349245
2.36769
0.0357786
1.82152
0.0352816
1.40058
0.0340043
1.07551
0.0323475
0.82439
0.0305389
0.630667
0.02875
0.481474
0.0271131
0.366811
0.278984
0.0256217
-0.906037
113.101
-0.696191
85.5643
-0.539398
64.7426
-0.417005
48.8879
-0.320042
36.8927
-0.241179
27.8033
-0.176764
20.9479
-0.124494
15.7955
-0.0836989
11.9435
-0.0533998
9.06121
-0.0299849
6.88495
-0.0111971
5.23841
0.00268791
4.00027
0.011434
3.07043
0.0162403
2.36289
0.0183747
1.81939
0.0187832
1.40017
0.0181322
1.07617
0.016919
0.825606
0.0154142
0.632174
0.0138271
0.483062
0.0123302
0.368309
0.280385
0.0109308
-1.06828
112.782
-0.822672
85.3187
-0.638628
64.5586
-0.495917
48.7453
-0.383698
36.7805
-0.2934
27.7131
-0.220335
20.8749
-0.161451
15.7367
-0.115517
11.8976
-0.0813311
9.02704
-0.0547821
6.85842
-0.0332783
5.21693
-0.0172076
3.98422
-0.00687577
3.06012
-0.000965249
2.35699
0.00193233
1.81651
0.0028685
1.39924
0.00256875
1.07647
0.00161218
0.826567
0.000292615
0.633497
-0.00117551
0.484532
-0.00256994
0.369704
0.281702
-0.00388573
-1.15036
112.442
-0.88865
85.057
-0.692311
64.3623
-0.540591
48.5935
-0.421688
36.6616
-0.326414
27.6178
-0.249551
20.798
-0.187685
15.6748
-0.139327
11.8492
-0.103315
8.99101
-0.0751754
6.83026
-0.0520703
5.19381
-0.0346316
3.96678
-0.0233206
3.0488
-0.0167547
2.35042
-0.0134381
1.81319
-0.0122325
1.39804
-0.012372
1.07661
-0.0132199
0.827418
-0.0144599
0.63474
-0.0158764
0.485949
-0.0172073
0.371036
0.28294
-0.0184435
-1.17407
112.099
-0.91053
84.7934
-0.712744
64.1645
-0.560227
48.4411
-0.440865
36.5423
-0.345307
27.5222
-0.268168
20.7209
-0.205948
15.6126
-0.157124
11.8004
-0.120775
8.95468
-0.0921535
6.80167
-0.0682159
5.1699
-0.0499583
3.94854
-0.0380801
3.03695
-0.0311594
2.34352
-0.0276458
1.80969
-0.0263241
1.39672
-0.0263998
1.0767
-0.0272176
0.828242
-0.0283958
0.635921
-0.0297327
0.487288
-0.0309753
0.37228
0.284069
-0.0321029
-1.15879
111.765
-0.902926
84.5377
-0.710943
63.9726
-0.563116
48.2932
-0.447448
36.4266
-0.354723
27.4295
-0.279633
20.6458
-0.218778
15.5517
-0.170752
11.7524
-0.135044
8.91895
-0.106658
6.77326
-0.0823424
5.14556
-0.0635696
3.92976
-0.0513543
3.02472
-0.0442476
2.33641
-0.0406583
1.8061
-0.0392826
1.39535
-0.0393125
1.07673
-0.0401252
0.829057
-0.0412187
0.637018
-0.0423793
0.48845
-0.0434753
0.373377
0.285068
-0.0444719
-1.1173
111.449
-0.875492
84.2958
-0.694192
63.7912
-0.554747
48.1538
-0.445569
36.3174
-0.357776
27.3417
-0.286294
20.5744
-0.227945
15.4934
-0.181545
11.706
-0.147127
8.88455
-0.119446
6.7456
-0.0949955
5.12113
-0.0758409
3.91063
-0.0633887
3.01229
-0.0561686
2.32921
-0.0525399
1.80249
-0.0511054
1.39392
-0.0510571
1.07668
-0.0518257
0.829832
-0.0527943
0.63799
-0.0537242
0.489381
-0.0546114
0.374265
0.285862
-0.0554036
-1.06335
111.156
-0.838691
84.0712
-0.670456
63.6231
-0.541183
48.0246
-0.439834
36.2161
-0.357945
27.2598
-0.290755
20.5072
-0.235375
15.438
-0.190903
11.6616
-0.158051
8.85167
-0.131268
6.71879
-0.106697
5.09654
-0.0871241
3.89104
-0.0744231
2.99958
-0.0670779
2.32186
-0.0633497
1.79875
-0.0617913
1.39236
-0.0616329
1.07653
-0.0622019
0.830404
-0.0629657
0.638754
-0.0636781
0.490096
-0.0642929
0.37488
0.286334
-0.0647614
-0.997378
110.889
-0.792748
83.8666
-0.639803
63.4701
-0.522415
47.9072
-0.430235
36.1239
-0.355299
27.1849
-0.293206
20.4451
-0.241364
15.3862
-0.199165
11.6194
-0.168163
8.82068
-0.142473
6.69312
-0.117756
5.07185
-0.0976544
3.87096
-0.0846107
2.98656
-0.0770569
2.31432
-0.0730966
1.7948
-0.0713253
1.39059
-0.0710709
1.07628
-0.0713387
0.830676
-0.0717661
0.639186
-0.0720619
0.490388
-0.0722369
0.375061
0.286461
-0.0723652
-0.923742
110.65
-0.741204
83.6841
-0.605085
63.3341
-0.500639
47.8028
-0.418281
36.0415
-0.35059
27.1172
-0.293593
20.3881
-0.245201
15.3378
-0.205414
11.5796
-0.176722
8.79197
-0.152543
6.66891
-0.127829
5.04711
-0.107316
3.85042
-0.0940233
2.97325
-0.0862275
2.30651
-0.0818959
1.79047
-0.0799152
1.38861
-0.0794251
1.07579
-0.0792401
0.830494
-0.0792215
0.639167
-0.0790312
0.4902
-0.078751
0.374783
0.286212
-0.078497
-0.858439
110.4
-0.675544
83.5012
-0.542473
63.201
-0.443966
47.7043
-0.370042
35.9676
-0.313289
27.0605
-0.268631
20.3434
-0.232999
15.3022
-0.204658
11.5513
-0.183293
8.77061
-0.164518
6.65015
-0.144081
5.02669
-0.125553
3.83191
-0.112555
2.96027
-0.104223
2.2982
-0.0987879
1.78504
-0.0958192
1.38565
-0.0939904
1.07397
-0.092432
0.82894
-0.0910947
0.637832
-0.0897489
0.488856
-0.0885487
0.373585
0.28524
-0.0875713
-0.834015
110.163
-0.660588
83.3279
-0.534297
63.0747
-0.440765
47.6107
-0.370559
35.8974
-0.316625
27.0065
-0.274131
20.3009
-0.240139
15.2681
-0.212881
11.524
-0.192258
8.74996
-0.173746
6.63161
-0.152633
5.00555
-0.133102
3.81236
-0.119219
2.94637
-0.110072
2.28904
-0.103758
1.77872
-0.10012
1.382
-0.0972027
1.07105
-0.0946573
0.826398
-0.0923202
0.635493
-0.0901491
0.486688
-0.08834
0.371779
0.283758
-0.086852
-0.810186
109.939
-0.645712
83.1634
-0.525817
62.9548
-0.43697
47.5219
-0.370255
35.8307
-0.318957
26.9552
-0.278447
20.2604
-0.245913
15.2356
-0.219639
11.4978
-0.199766
8.7301
-0.181546
6.6134
-0.15972
4.98373
-0.139159
3.79181
-0.124333
2.93156
-0.114299
2.27902
-0.107139
1.77157
-0.102698
1.37757
-0.0987235
1.06708
-0.0952771
0.822955
-0.0920755
0.632295
-0.0891741
0.483789
-0.0867916
0.369399
0.281787
-0.0848156
-0.786963
109.727
-0.630985
83.0075
-0.51715
62.841
-0.432742
47.4375
-0.369337
35.7673
-0.320536
26.9064
-0.281898
20.2218
-0.25074
15.2044
-0.225414
11.4725
-0.206288
8.71094
-0.188342
6.59542
-0.1657
4.96106
-0.144017
3.7701
-0.128158
2.91568
-0.117156
2.268
-0.109222
1.76363
-0.103923
1.37226
-0.0989943
1.06215
-0.0947049
0.818668
-0.0907497
0.628337
-0.087176
0.480218
-0.0841959
0.366421
0.279333
-0.081736
-0.764361
109.526
-0.616464
82.8596
-0.508389
62.7329
-0.428198
47.3574
-0.367942
35.707
-0.321521
26.86
-0.28467
20.185
-0.254826
15.1746
-0.23042
11.4481
-0.212036
8.69257
-0.194353
6.57775
-0.17079
4.93751
-0.147894
3.74722
-0.130915
2.89871
-0.118853
2.25595
-0.110227
1.75501
-0.104069
1.36611
-0.0982661
1.05636
-0.0931624
0.813568
-0.0884937
0.623672
-0.0843496
0.476076
-0.080879
0.362952
0.276477
-0.0780187
-0.74239
109.337
-0.602194
82.7195
-0.499603
62.6304
-0.42343
47.2812
-0.366177
35.6498
-0.322033
26.8158
-0.286893
20.1498
-0.258311
15.146
-0.2348
11.4246
-0.217159
8.6749
-0.199736
6.56029
-0.17514
4.91288
-0.150934
3.72298
-0.132753
2.88051
-0.119557
2.24274
-0.110344
1.74579
-0.103334
1.3591
-0.0966931
1.04971
-0.0908068
0.807684
-0.0855418
0.618404
-0.0809486
0.471485
-0.0771391
0.359144
0.273315
-0.0739728
-0.72105
109.158
-0.588205
82.5866
-0.490846
62.533
-0.418505
47.2089
-0.364122
35.5954
-0.322159
26.7739
-0.28866
20.1163
-0.261291
15.1187
-0.238656
11.402
-0.221767
8.65801
-0.204605
6.54314
-0.178852
4.88714
-0.153231
3.69737
-0.133759
2.86105
-0.119407
2.2284
-0.109705
1.73609
-0.101849
1.35125
-0.0944949
1.04236
-0.0879752
0.801166
-0.0821882
0.612622
-0.0772432
0.466542
-0.0731437
0.355046
0.269922
-0.0697467
-0.700338
108.988
-0.574518
82.4609
-0.482155
62.4407
-0.413477
47.1402
-0.361839
35.5437
-0.321969
26.734
-0.290047
20.0844
-0.263845
15.0924
-0.242071
11.3802
-0.225947
8.64186
-0.209051
6.52621
-0.182008
4.86006
-0.154857
3.67018
-0.133994
2.84015
-0.118529
2.21291
-0.108428
1.72598
-0.099737
1.34255
-0.0918688
1.03449
-0.0849388
0.794237
-0.0786385
0.606318
-0.0734129
0.461319
-0.0690566
0.350691
0.266341
-0.0654725
-0.680244
108.829
-0.561147
82.3417
-0.473562
62.3531
-0.408387
47.075
-0.359378
35.4948
-0.321518
26.6962
-0.291115
20.054
-0.266037
15.0674
-0.245111
11.3593
-0.229771
8.62652
-0.213148
6.50959
-0.18468
4.8316
-0.155877
3.64138
-0.133508
2.81779
-0.117045
2.19646
-0.106632
1.71557
-0.0971743
1.3331
-0.0889644
1.02629
-0.0816355
0.786909
-0.0749631
0.59965
-0.0694477
0.455804
-0.0648748
0.346119
0.26264
-0.0611718
-0.660761
108.678
-0.548102
82.2292
-0.46509
62.2702
-0.403269
47.0132
-0.356782
35.4482
-0.320854
26.6602
-0.291913
20.025
-0.267921
15.0434
-0.247832
11.3392
-0.233299
8.61196
-0.216969
6.49323
-0.186946
4.80154
-0.156355
3.61076
-0.132339
2.79374
-0.115073
2.17917
-0.104438
1.70492
-0.0943465
1.323
-0.0858415
1.01778
-0.0780269
0.779094
-0.0711332
0.592753
-0.0653726
0.450045
-0.0607314
0.341477
0.25889
-0.0569797
-0.641877
108.536
-0.535389
82.1227
-0.456759
62.1915
-0.398152
46.9546
-0.354084
35.4042
-0.320015
26.6262
-0.292484
19.9975
-0.269541
15.0204
-0.250283
11.32
-0.236591
8.59827
-0.220584
6.47722
-0.188869
4.76982
-0.156316
3.5782
-0.130492
2.76792
-0.112725
2.1614
-0.101936
1.69414
-0.0913253
1.31239
-0.0824276
1.00888
-0.0743117
0.770977
-0.0672581
0.585703
-0.061359
0.444146
-0.0567019
0.336819
0.25515
-0.0529627
-0.623581
108.403
-0.523013
82.0222
-0.448583
62.1171
-0.393059
46.8991
-0.351315
35.3624
-0.319038
26.5939
-0.292868
19.9713
-0.270939
14.9985
-0.252509
11.3015
-0.239697
8.58543
-0.224045
6.46154
-0.19048
4.73623
-0.155756
3.54344
-0.127947
2.74008
-0.110122
2.14355
-0.0991391
1.68314
-0.0881259
1.30137
-0.0788048
0.99955
-0.0705771
0.762747
-0.0634308
0.578553
-0.0575674
0.438284
-0.0529321
0.332182
0.251462
-0.0492451
-0.605861
108.277
-0.510974
81.9272
-0.440576
62.0467
-0.388011
46.8466
-0.348501
35.3229
-0.317951
26.5633
-0.293096
19.9465
-0.272148
14.9775
-0.254547
11.284
-0.242653
8.57354
-0.227387
6.44627
-0.19182
4.70065
-0.154722
3.50634
-0.12477
2.71012
-0.107449
2.12623
-0.096004
1.67169
-0.0847008
1.29007
-0.0751387
0.989987
-0.066895
0.7545
-0.0597516
0.571414
-0.0539803
0.432512
-0.0493937
0.327593
0.247842
-0.0457764
-0.588705
108.16
-0.499275
81.8379
-0.432747
61.9802
-0.383025
46.7968
-0.345664
35.2856
-0.316781
26.5344
-0.293199
19.9229
-0.273202
14.9575
-0.256428
11.2672
-0.245497
8.56258
-0.230669
6.43141
-0.192932
4.66288
-0.153204
3.46658
-0.121229
2.67812
-0.104812
2.10979
-0.0924818
1.65934
-0.0810556
1.27863
-0.0714779
0.980399
-0.0632477
0.746266
-0.0562561
0.564419
-0.0506161
0.426871
-0.0461149
0.323089
0.244297
-0.0425744
-0.5721
108.05
-0.487914
81.7537
-0.425107
61.9174
-0.378117
46.7499
-0.342825
35.2503
-0.315552
26.5072
-0.293202
19.9006
-0.274126
14.9384
-0.258182
11.2513
-0.248268
8.55266
-0.233962
6.4171
-0.19388
4.62279
-0.151143
3.42382
-0.117682
2.64464
-0.102033
2.09413
-0.0886225
1.64593
-0.0773507
1.26736
-0.0678999
0.970944
-0.0597133
0.738074
-0.0529648
0.557674
-0.0475215
0.421426
-0.0431498
0.318714
0.240849
-0.0397075
-0.556033
107.947
-0.476893
81.6746
-0.417663
61.8582
-0.373302
46.7055
-0.340003
35.217
-0.314287
26.4814
-0.29313
19.8794
-0.274945
14.9202
-0.259838
11.2361
-0.251016
8.54382
-0.237342
6.4034
-0.194751
4.58017
-0.148653
3.37769
-0.114125
2.61008
-0.0988013
2.07878
-0.0847334
1.63185
-0.0737093
1.25632
-0.0644674
0.961689
-0.0564521
0.730053
-0.0499361
0.551155
-0.04467
0.416159
-0.0404607
0.3145
0.237543
-0.0371621
-0.540491
107.851
-0.466208
81.6003
-0.410421
61.8024
-0.368591
46.6637
-0.337215
35.1856
-0.313005
26.4572
-0.293005
19.8594
-0.275684
14.9029
-0.26143
11.2219
-0.253811
8.53619
-0.240887
6.39046
-0.195244
4.53451
-0.14534
3.32776
-0.110412
2.57513
-0.0953978
2.06376
-0.0812635
1.61771
-0.0703515
1.24541
-0.0613447
0.952676
-0.0535833
0.722284
-0.0472334
0.544809
-0.0421085
0.411032
-0.0380084
0.310396
0.234345
-0.0348187
-0.525463
107.762
-0.455859
81.5308
-0.403389
61.75
-0.363998
46.6243
-0.334477
35.1561
-0.311725
26.4345
-0.292848
19.8405
-0.276367
14.8864
-0.262989
11.2085
-0.256666
8.52985
-0.244527
6.3783
-0.194985
4.48494
-0.140911
3.27365
-0.106987
2.54118
-0.0920867
2.04883
-0.0780897
1.60369
-0.0675633
1.23487
-0.0587521
0.943851
-0.0511009
0.714626
-0.0447654
0.538471
-0.0398101
0.406075
-0.0359271
0.306508
0.231257
-0.0328482
-0.510937
107.679
-0.445843
81.4656
-0.396572
61.7007
-0.359533
46.5873
-0.331803
35.1283
-0.310464
26.4131
-0.292678
19.8228
-0.277016
14.8708
-0.264538
11.1961
-0.259529
8.52483
-0.248152
6.36691
-0.194192
4.43096
-0.135964
3.2154
-0.103615
2.5088
-0.0882713
2.03347
-0.0746894
1.59011
-0.0648826
1.22506
-0.0563013
0.93526
-0.0488955
0.707211
-0.0427678
0.532347
-0.0379937
0.401297
-0.0341576
0.302667
0.228195
-0.0311069
-0.496901
107.602
-0.436161
81.405
-0.389974
61.6546
-0.355206
46.5525
-0.329209
35.1023
-0.309241
26.3932
-0.292516
19.806
-0.27765
14.8559
-0.266079
11.1845
-0.262386
8.52112
-0.251806
6.3563
-0.193276
4.3724
-0.131476
3.15356
-0.0993383
2.47664
-0.0835076
2.01762
-0.0711622
1.57774
-0.0618177
1.2157
-0.0537101
0.927137
-0.0466539
0.700146
-0.0407868
0.526478
-0.0362148
0.396722
-0.0325507
0.298997
0.225302
-0.0296699
-0.483344
107.532
-0.426807
81.3484
-0.383602
61.6113
-0.351027
46.5199
-0.326706
35.078
-0.30807
26.3745
-0.292378
19.7903
-0.278281
14.8418
-0.267615
11.1738
-0.265326
8.51882
-0.255719
6.34668
-0.192446
4.30911
-0.129073
3.09016
-0.0953788
2.44291
-0.078628
2.00084
-0.0678432
1.56695
-0.0586557
1.20651
-0.0510941
0.919563
-0.0442722
0.693314
-0.0387354
0.520944
-0.0344114
0.392394
-0.0309585
0.295539
0.222559
-0.028229
-0.470254
107.467
-0.417782
81.296
-0.377459
61.571
-0.347006
46.4895
-0.324309
35.0553
-0.306967
26.3572
-0.292281
19.7756
-0.278919
14.8284
-0.26918
11.1641
-0.268569
8.51819
-0.260081
6.33817
-0.190696
4.2397
-0.127653
3.02708
-0.0927154
2.40795
-0.0746515
1.98276
-0.0647975
1.55708
-0.0559834
1.19768
-0.0485061
0.912069
-0.0418482
0.686646
-0.0366633
0.515758
-0.0324572
0.388184
-0.0292102
0.292285
0.220042
-0.0267062
-0.45762
107.408
-0.409083
81.2474
-0.371549
61.5335
-0.343151
46.4611
-0.322029
35.0342
-0.305946
26.3411
-0.292239
19.7619
-0.279578
14.8157
-0.270818
11.1553
-0.272195
8.51956
-0.264654
6.33061
-0.185993
4.16101
-0.121605
2.96265
-0.0877756
2.37408
-0.0711667
1.96613
-0.0620036
1.54791
-0.0539302
1.1896
-0.0461766
0.904301
-0.0396846
0.680143
-0.0347152
0.510791
-0.0306357
0.384099
-0.0275989
0.289243
0.217724
-0.0252958
-0.445433
107.354
-0.400708
81.2028
-0.365877
61.4987
-0.339471
46.4347
-0.319877
35.0146
-0.305022
26.3262
-0.292273
19.7492
-0.28029
14.8037
-0.272532
11.1476
-0.275857
8.52286
-0.269589
6.32432
-0.181749
4.07315
-0.113478
2.89435
-0.079703
2.34028
-0.0670178
1.95342
-0.0592108
1.54009
-0.0520315
1.18241
-0.0441304
0.896383
-0.0378509
0.673854
-0.0330077
0.505946
-0.0291014
0.380189
-0.0261874
0.286323
0.215493
-0.0239695
-0.433685
107.305
-0.392658
81.1617
-0.360449
61.4665
-0.335975
46.4102
-0.317864
34.9965
-0.304202
26.3126
-0.292375
19.7374
-0.28099
14.7924
-0.27424
11.1409
-0.279642
8.52825
-0.274908
6.31957
-0.180586
3.9788
-0.11195
2.82567
-0.075392
2.30369
-0.0637369
1.94175
-0.0569023
1.53325
-0.0501689
1.17567
-0.0422222
0.888421
-0.0359623
0.667583
-0.0309751
0.500957
-0.0271423
0.376355
-0.0242892
0.283462
0.21326
-0.0220658
-0.407992
107.243
-0.361586
81.1154
-0.328162
61.4331
-0.304383
46.3864
-0.287743
34.9798
-0.275836
26.3007
-0.265821
19.7273
-0.256033
14.7826
-0.251322
11.1362
-0.259349
8.53626
-0.25451
6.31472
-0.157471
3.88174
-0.0961519
2.76432
-0.0644809
2.272
-0.054281
1.93153
-0.049604
1.52856
-0.0441117
1.17017
-0.0372377
0.88153
-0.0313639
0.661697
-0.0263936
0.495988
-0.0228496
0.372798
-0.0204432
0.281069
0.211383
-0.0185857
-0.324441
107.194
-0.287817
81.0787
-0.261462
61.4067
-0.242761
46.3678
-0.229742
34.9668
-0.220515
26.2914
-0.212734
19.7196
-0.204906
14.7747
-0.202121
11.1334
-0.210787
8.54491
-0.204588
6.3085
-0.122998
3.80013
-0.0681475
2.70942
-0.0403355
2.24415
-0.0344952
1.92567
-0.0349527
1.52901
-0.0330711
1.16828
-0.029238
0.877682
-0.0252057
0.657653
-0.0215177
0.492293
-0.0189337
0.37022
-0.0175672
0.279693
0.210317
-0.0164952
-0.257976
107.155
-0.229056
81.0499
-0.208262
61.386
-0.193543
46.353
-0.18335
34.9566
-0.1762
26.2843
-0.170181
19.7135
-0.164032
14.7686
-0.162673
11.132
-0.171183
8.5534
-0.163853
6.30116
-0.0987465
3.735
-0.0495938
2.66025
-0.0232203
2.21776
-0.0196614
1.9221
-0.0234358
1.53277
-0.0243349
1.16918
-0.0228554
0.876186
-0.0203744
0.655163
-0.0178064
0.489719
-0.0158356
0.368245
-0.0151421
0.279003
0.209806
-0.0146352
-0.205081
107.124
-0.182212
81.027
-0.165779
61.3695
-0.154172
46.3414
-0.146174
34.9486
-0.140624
26.2787
-0.135978
19.7089
-0.131201
14.7638
-0.130805
11.1316
-0.138773
8.56136
-0.130577
6.29295
-0.0748521
3.67926
-0.0322506
2.6176
-0.0111986
2.19667
-0.00961447
1.92049
-0.0149309
1.53808
-0.0174351
1.17168
-0.0176465
0.876383
-0.016444
0.653949
-0.0147882
0.488056
-0.0132004
0.366656
-0.0128022
0.278602
0.209599
-0.0125969
-0.163002
107.099
-0.144895
81.0089
-0.131891
61.3565
-0.122723
46.3322
-0.116435
34.9423
-0.112119
26.2744
-0.10854
19.7053
-0.104863
14.7601
-0.10508
11.1319
-0.11225
8.56851
-0.103803
6.28449
-0.0561004
3.63154
-0.0190587
2.58054
-0.0026862
2.18029
-0.00296475
1.92076
-0.00916154
1.54427
-0.0125298
1.17506
-0.0136563
0.877495
-0.0133504
0.653637
-0.012409
0.487109
-0.0111621
0.365405
-0.0107755
0.278216
0.20944
-0.0106176
-0.129484
107.08
-0.115091
80.9945
-0.104755
61.3462
-0.0974765
46.325
-0.0925024
34.9373
-0.0891228
26.271
-0.086356
19.7026
-0.0835403
14.7573
-0.0841037
11.1325
-0.0903515
8.57475
-0.0821783
6.2763
-0.0426587
3.592
-0.0105128
2.54835
0.00267573
2.16707
0.00111205
1.92231
-0.00547893
1.55084
-0.00930533
1.17888
-0.0107258
0.8789
-0.0109673
0.653868
-0.0105805
0.486714
-0.00971283
0.364536
-0.00922145
0.277722
0.209194
-0.00897623
-0.103086
107.065
-0.0918221
80.9833
-0.0837457
61.3381
-0.0780804
46.3193
-0.0742399
34.9335
-0.0716739
26.2685
-0.0696043
19.7005
-0.0675081
14.7552
-0.0683192
11.1333
-0.0738113
8.58022
-0.0662362
6.26871
-0.0330634
3.55882
-0.00512002
2.52039
0.00551565
2.15643
0.0032258
1.92459
-0.00304156
1.55711
-0.00693602
1.18278
-0.00854886
0.880501
-0.00914858
0.654463
-0.00907813
0.486639
-0.00852227
0.363976
-0.00794922
0.277149
0.208821
-0.00757793
-0.0816606
107.053
-0.0725322
80.9741
-0.0659736
61.3315
-0.0613624
46.3147
-0.0582298
34.9303
-0.0561426
26.2664
-0.0544908
19.6988
-0.0528728
14.7536
-0.0536887
11.1341
-0.058209
8.58473
-0.0514395
6.26193
-0.0242487
3.5316
-0.00102081
2.49711
0.0069526
2.14843
0.00427781
1.92725
-0.00119647
1.56257
-0.004833
1.18642
-0.00664128
0.882294
-0.00754453
0.655358
-0.00770497
0.486792
-0.007398
0.363667
-0.00675826
0.276507
0.208257
-0.00619415
-0.0708929
107.038
-0.0597133
80.963
-0.0514223
61.3233
-0.0454139
46.3087
-0.0412163
34.9261
-0.0383947
26.2635
-0.0363074
19.6968
-0.0344005
14.7516
-0.0348112
11.1345
-0.0398394
8.58974
-0.036322
6.2584
-0.00813893
3.50341
0.0196143
2.46935
0.0305192
2.13752
0.0290277
1.92874
0.0227515
1.56884
0.0174781
1.1917
0.0142025
0.88556
0.0123567
0.657202
0.0118349
0.487311
0.0122642
0.363233
0.0132882
0.275482
0.20738
0.0141632
-0.0744253
107.023
-0.0626915
80.9512
-0.0539898
61.3146
-0.0476893
46.3024
-0.0432994
34.9217
-0.0403726
26.2606
-0.0382466
19.6946
-0.0363547
14.7497
-0.0369934
11.1352
-0.0424548
8.59519
-0.0383188
6.25426
-0.0082106
3.47328
0.021836
2.43926
0.0337945
2.12553
0.032366
1.93015
0.0256541
1.57554
0.0199512
1.1974
0.0162987
0.889199
0.0141437
0.65935
0.0134568
0.487991
0.0137169
0.362972
0.0148242
0.274372
0.206526
0.0156772
-0.0781339
107.007
-0.0658181
80.939
-0.0566849
61.3055
-0.0500775
46.2958
-0.0454857
34.9171
-0.0424486
26.2576
-0.0402826
19.6925
-0.0384068
14.7479
-0.0392885
11.1361
-0.0451939
8.60108
-0.0403703
6.24942
-0.00835816
3.44126
0.0239115
2.40698
0.0372334
2.11221
0.0360002
1.93138
0.0287937
1.58274
0.0226869
1.20351
0.018697
0.893182
0.0162719
0.661775
0.0153436
0.488916
0.0152938
0.363017
0.016373
0.273292
0.205733
0.0171647
-0.0820276
106.989
-0.0691004
80.926
-0.059514
61.2959
-0.0525844
46.2889
-0.0477803
34.9123
-0.0446276
26.2544
-0.0424199
19.6903
-0.0405618
14.746
-0.0417051
11.1372
-0.0480578
8.60742
-0.0424654
6.24382
-0.00854298
3.40732
0.0257607
2.37263
0.0406553
2.09728
0.0399397
1.93208
0.032339
1.59033
0.0257365
1.21011
0.0213278
0.897579
0.0186251
0.664473
0.017413
0.490122
0.0169705
0.363458
0.0178232
0.272436
0.205104
0.0184513
-0.0861152
106.972
-0.0725465
80.9125
-0.0624843
61.2859
-0.0552159
46.2816
-0.050189
34.9073
-0.0469149
26.2512
-0.0446638
19.688
-0.0428258
14.7442
-0.0442509
11.1387
-0.0510457
8.61419
-0.0446084
6.23737
-0.00875802
3.37146
0.0280015
2.33586
0.0445563
2.08073
0.0442615
1.93237
0.0363397
1.59825
0.029116
1.21734
0.0241766
0.902514
0.0211385
0.667512
0.019549
0.491709
0.0187111
0.364291
0.0191495
0.271997
0.20471
0.019541
-0.0904073
106.953
-0.0761646
80.8982
-0.0656024
61.2753
-0.0579783
46.274
-0.0527175
34.902
-0.049316
26.2478
-0.0470197
19.6857
-0.0452047
14.7423
-0.046933
11.1404
-0.054154
8.6214
-0.0468136
6.23002
-0.0107011
3.33532
0.0292042
2.2959
0.0488317
2.06107
0.0489196
1.93226
0.0407016
1.60645
0.0327966
1.22524
0.0272281
0.908071
0.0237739
0.670963
0.0216661
0.49381
0.0204265
0.36553
0.020337
0.272083
0.204586
0.0204598
-0.0949131
106.933
-0.0799631
80.8834
-0.068876
61.2642
-0.0608784
46.266
-0.0553717
34.8965
-0.0518368
26.2442
-0.0494934
19.6834
-0.0477045
14.7405
-0.0497593
11.1425
-0.0573904
8.62902
-0.0491451
6.22176
-0.0189301
3.3051
0.0248417
2.25213
0.0525646
2.03335
0.0538213
1.93101
0.0453945
1.61488
0.0367802
1.23385
0.0304848
0.914365
0.0265116
0.674939
0.0238016
0.496518
0.0220993
0.367227
0.0214265
0.272755
0.20477
0.0212407
-0.0996442
106.913
-0.0839512
80.8676
-0.0723126
61.2526
-0.0639228
46.2576
-0.0581581
34.8908
-0.0544831
26.2406
-0.0520904
19.681
-0.0503313
14.7388
-0.0527374
11.1449
-0.060809
8.63708
-0.051548
6.21249
-0.0256107
3.27914
0.0209263
2.20554
0.0558778
1.99837
0.0588307
1.92804
0.0504081
1.62329
0.0410885
1.24317
0.0339749
0.921469
0.0293605
0.67955
0.0260424
0.499828
0.0238117
0.369457
0.022537
0.274026
0.205325
0.0219799
-0.104611
106.891
-0.0881384
80.8512
-0.0759207
61.2404
-0.0671189
46.2488
-0.0610831
34.8847
-0.0572612
26.2367
-0.054817
19.6785
-0.0530914
14.737
-0.0558751
11.1477
-0.0644167
8.6456
-0.0539407
6.202
-0.0240308
3.24922
0.023324
2.15818
0.0594677
1.96223
0.063939
1.92357
0.0557117
1.63152
0.0457351
1.25315
0.0377369
0.929467
0.0323607
0.684929
0.0284323
0.503755
0.0256482
0.372235
0.0238019
0.275871
0.2063
0.0228255
-0.109826
106.868
-0.0925345
80.8339
-0.0797088
61.2275
-0.0704742
46.2396
-0.0641538
34.8784
-0.0601777
26.2328
-0.0576793
19.676
-0.0559913
14.7354
-0.0591805
11.1509
-0.0682012
8.65461
-0.0563425
6.19013
-0.021479
3.21433
0.0266255
2.11002
0.0632533
1.92557
0.0691533
1.91765
0.0612755
1.63939
0.0507262
1.26369
0.0418097
0.938375
0.0355687
0.691167
0.0309883
0.508328
0.0276616
0.375561
0.0253124
0.278216
0.207695
0.0239157
-0.115302
106.845
-0.09715
80.8158
-0.0836859
61.2141
-0.0739968
46.2299
-0.0673775
34.8717
-0.0632393
26.2286
-0.0606841
19.6735
-0.0590378
14.7337
-0.062662
11.1546
-0.0721615
8.66409
-0.0587544
6.17672
-0.0202951
3.17586
0.028817
2.0609
0.0669789
1.88741
0.0744309
1.9102
0.0670638
1.64676
0.0560595
1.27469
0.0462329
0.948203
0.0390506
0.698351
0.0337603
0.513616
0.0299076
0.379408
0.027135
0.280988
0.209469
0.0253584
-0.121051
106.819
-0.101996
80.7967
-0.0878612
61.2
-0.0776951
46.2198
-0.0707618
34.8648
-0.0664534
26.2243
-0.0638381
19.6709
-0.062238
14.7321
-0.0663279
11.1587
-0.0762979
8.67405
-0.0611585
6.16157
-0.0192687
3.13394
0.030741
2.01083
0.0705888
1.84754
0.0797257
1.90105
0.0730341
1.65344
0.0617204
1.286
0.0510407
0.958875
0.0428806
0.706508
0.0368344
0.519656
0.0324631
0.383779
0.0293253
0.284122
0.211568
0.0272253
-0.127087
106.793
-0.107084
80.7768
-0.0922452
61.1852
-0.0815778
46.2091
-0.0743149
34.8575
-0.0698277
26.2198
-0.0671487
19.6682
-0.0655997
14.7305
-0.0701873
11.1633
-0.0806106
8.68446
-0.0635324
6.14448
-0.0181748
3.08857
0.0325693
1.96008
0.0740553
1.80606
0.0849903
1.89012
0.0791381
1.65929
0.0676885
1.29745
0.0562547
0.970311
0.0471296
0.715635
0.0403092
0.526475
0.0354099
0.388672
0.0319368
0.287595
0.213943
0.02956
-0.133424
106.765
-0.112427
80.7557
-0.0968479
61.1696
-0.0856542
46.1979
-0.0780451
34.85
-0.07337
26.2152
-0.0706235
19.6655
-0.0691306
14.7291
-0.0742496
11.1684
-0.0850992
8.69529
-0.0658482
6.12521
-0.016853