/*--------------------------------*- C++ -*----------------------------------*\
  =========                 |
  \\      /  F ield         | OpenFOAM: The Open Source CFD Toolbox
   \\    /   O peration     | Website:  https://openfoam.org
    \\  /    A nd           | Version:  7
     \\/     M anipulation  |
\*---------------------------------------------------------------------------*/
FoamFile
{
    version     2.0;
    format      ascii;
    class       volVectorField;
    location    "50";
    object      U;
}
// * * * * * * * * * * * * * * * * * * * * * * * * * * * * * * * * * * * * * //

dimensions      [0 1 -1 0 0 0 0];

internalField   nonuniform List<vector> 
12842
(
(14.7653 5.09131 -4.13067e-18)
(14.7554 5.07522 -8.71424e-19)
(14.7428 5.06894 -3.06182e-19)
(14.7258 5.06415 7.34331e-19)
(14.7053 5.05829 -2.8582e-18)
(14.6825 5.05273 0)
(14.6584 5.05007 0)
(14.6328 5.05399 5.27375e-20)
(14.6053 5.06896 -7.38647e-19)
(14.574 5.09927 -7.42989e-20)
(14.5366 5.14835 -1.08477e-18)
(14.4909 5.21888 1.04847e-19)
(14.4346 5.31297 -1.08428e-18)
(14.3657 5.43193 -1.90283e-19)
(14.2823 5.57604 2.8e-19)
(14.183 5.74299 7.63436e-19)
(14.0681 5.92795 5.67767e-19)
(13.9399 6.1237 0)
(13.8025 6.32124 -2.52538e-20)
(13.6619 6.5115 -2.04413e-19)
(13.5243 6.6846 -1.00578e-20)
(13.3956 6.83925 8.88174e-20)
(13.2802 6.95269 -3.88951e-20)
(14.7641 5.09377 3.32517e-18)
(14.7487 5.08507 0)
(14.7334 5.08209 -3.88285e-18)
(14.7125 5.07954 2.39527e-18)
(14.6886 5.07516 2.35417e-18)
(14.6641 5.07012 0)
(14.6409 5.06702 -1.74394e-18)
(14.6201 5.07007 0)
(14.6022 5.08457 1.16417e-18)
(14.5857 5.11561 2.10568e-20)
(14.5681 5.16701 1.91484e-18)
(14.5468 5.24161 3.26323e-18)
(14.5185 5.34173 1.07209e-18)
(14.4794 5.46893 -2.20639e-18)
(14.4256 5.62339 0)
(14.3532 5.80221 -8.5223e-19)
(14.2604 5.9996 -8.76994e-19)
(14.1484 6.20723 1.34537e-18)
(14.0214 6.41504 0)
(13.8856 6.61335 2.47423e-19)
(13.7487 6.79173 5.05788e-19)
(13.6166 6.94992 -2.94248e-19)
(13.498 7.0619 3.33183e-19)
(14.7631 5.0971 0)
(14.7451 5.09619 0)
(14.7273 5.09653 -9.25807e-19)
(14.7023 5.09631 -1.40383e-17)
(14.6746 5.09332 0)
(14.6474 5.08821 0)
(14.6234 5.08344 -4.35122e-19)
(14.6056 5.08359 2.98947e-19)
(14.5952 5.09497 -4.08691e-19)
(14.5914 5.12359 -1.20314e-18)
(14.5914 5.17373 -3.34897e-18)
(14.5919 5.24849 -3.26465e-18)
(14.5893 5.35074 -8.68133e-19)
(14.5783 5.48283 3.32902e-18)
(14.5528 5.64517 0)
(14.5067 5.83451 6.26118e-19)
(14.4366 6.04408 -8.03261e-19)
(14.343 6.26429 -9.23676e-19)
(14.2297 6.48381 -1.42091e-18)
(14.1032 6.69208 8.74355e-19)
(13.9721 6.87776 -4.10335e-19)
(13.8417 7.04174 0)
(13.7238 7.15434 -1.43013e-19)
(14.7628 5.10154 8.38326e-19)
(14.7445 5.10762 -1.83727e-18)
(14.724 5.11141 6.17467e-18)
(14.695 5.11392 2.29568e-17)
(14.6633 5.11273 -1.89078e-18)
(14.6324 5.10775 4.9351e-18)
(14.6065 5.10106 1.87176e-19)
(14.5901 5.09754 -3.00304e-19)
(14.5859 5.10448 1.72649e-18)
(14.5933 5.12892 -2.71111e-18)
(14.609 5.17542 8.01347e-18)
(14.6296 5.24726 -1.26712e-18)
(14.651 5.34809 1.6525e-18)
(14.6667 5.48156 6.14905e-18)
(14.6686 5.64877 -1.09376e-18)
(14.6485 5.84631 1.40905e-18)
(14.6019 6.06658 4.81377e-19)
(14.5285 6.29876 1.32527e-18)
(14.4319 6.53009 2.52918e-19)
(14.3182 6.74908 6.58809e-19)
(14.1965 6.94328 2.91177e-19)
(14.0717 7.11478 3.86975e-19)
(13.9577 7.23018 -6.33619e-19)
(14.7634 5.10693 6.97663e-18)
(14.746 5.1185 0)
(14.7231 5.12603 -1.06965e-18)
(14.6903 5.13176 -8.55824e-18)
(14.6546 5.13302 -1.06825e-18)
(14.6195 5.12871 -1.33913e-17)
(14.5908 5.12038 -5.8334e-19)
(14.5747 5.11292 1.40742e-18)
(14.5756 5.11466 -2.27614e-18)
(14.5928 5.13365 3.33787e-18)
(14.6226 5.17459 -8.33194e-18)
(14.6612 5.24071 -7.69656e-18)
(14.7046 5.33664 1.88595e-18)
(14.7459 5.46803 -1.30206e-17)
(14.7745 5.63712 -5.0133e-18)
(14.7805 5.84046 3.46418e-18)
(14.7586 6.06962 0)
(14.7073 6.31253 -1.32167e-18)
(14.6299 6.55501 0)
(14.5319 6.78473 1.70297e-19)
(14.4225 6.98809 4.06282e-19)
(14.3063 7.16828 -4.26987e-19)
(14.1988 7.28834 -4.4126e-20)
(14.765 5.11297 -6.40955e-18)
(14.7488 5.12834 0)
(14.724 5.13981 0)
(14.6877 5.14913 -1.47538e-17)
(14.648 5.15336 9.8375e-18)
(14.6083 5.15027 8.14863e-18)
(14.5759 5.14061 7.52764e-18)
(14.5592 5.12907 -1.77172e-18)
(14.5643 5.12504 0)
(14.5908 5.13768 4.04235e-18)
(14.6335 5.17152 7.43625e-18)
(14.6885 5.2295 3.99372e-18)
(14.7528 5.31736 0)
(14.8189 5.44345 6.85825e-18)
(14.8738 5.61157 4.31347e-18)
(14.9063 5.81833 -2.57338e-18)
(14.91 6.05445 -6.13657e-19)
(14.8827 6.3067 4.10388e-18)
(14.8268 6.55951 0)
(14.7468 6.79983 -1.87039e-18)
(14.6523 7.01276 5.13248e-19)
(14.547 7.2026 2.01738e-18)
(14.4481 7.32855 -3.74376e-19)
(14.7672 5.11921 5.37536e-19)
(14.7521 5.13695 0)
(14.7266 5.15254 0)
(14.6875 5.16588 1.47788e-17)
(14.6446 5.17394 -1.11309e-17)
(14.6003 5.17315 8.81427e-19)
(14.5636 5.16323 -5.11039e-18)
(14.5448 5.1482 6.53901e-20)
(14.5518 5.13831 -8.62693e-20)
(14.5842 5.14392 -4.89864e-18)
(14.6357 5.16929 -9.71856e-19)
(14.703 5.2166 7.30806e-18)
(14.785 5.29264 0)
(14.8746 5.40942 -7.97042e-18)
(14.9565 5.5729 7.34502e-19)
(15.017 5.77982 -9.46062e-19)
(15.0485 6.02008 2.71577e-18)
(15.0477 6.27935 -2.43424e-18)
(15.0155 6.54082 -2.92088e-18)
(14.9559 6.79088 -7.26061e-19)
(14.8786 7.01324 6.2483e-20)
(14.7868 7.21329 -1.12517e-18)
(14.6986 7.34624 -7.23038e-19)
(14.7702 5.1255 0)
(14.7559 5.14436 8.26379e-19)
(14.7299 5.16371 -1.0431e-17)
(14.6877 5.18066 2.04743e-19)
(14.6411 5.19199 1.29414e-17)
(14.5917 5.19264 -1.60307e-18)
(14.5509 5.18108 4.52249e-19)
(14.5312 5.16065 2.22839e-18)
(14.5435 5.14322 0)
(14.5863 5.1412 -5.57955e-18)
(14.6498 5.15813 6.38986e-19)
(14.7304 5.19478 2.89626e-19)
(14.8287 5.25844 0)
(14.9388 5.36493 7.91015e-18)
(15.0437 5.52248 -6.05281e-18)
(15.1298 5.72802 0)
(15.1893 5.97078 -2.70412e-18)
(15.2169 6.23575 0)
(15.2116 6.50507 2.37979e-18)
(15.1755 6.76486 0)
(15.1182 6.997 -1.06574e-18)
(15.0425 7.20837 6.52697e-19)
(14.9662 7.34859 8.7808e-19)
(14.7732 5.13166 0)
(14.7599 5.15076 0)
(14.7355 5.1735 -5.41884e-19)
(14.6918 5.19491 6.44814e-19)
(14.6428 5.21175 -1.48941e-17)
(14.5874 5.21819 -1.08484e-17)
(14.5385 5.21145 0)
(14.5097 5.1936 -2.01209e-18)
(14.5145 5.17587 0)
(14.5535 5.17007 1.08083e-17)
(14.6177 5.17838 6.50324e-18)
(14.7049 5.19993 -6.08175e-18)
(14.8192 5.24293 -6.42511e-19)
(14.9552 5.32963 0)
(15.0896 5.4733 6.38357e-18)
(15.2035 5.67171 4.61713e-18)
(15.2875 5.91279 -4.02783e-19)
(15.3372 6.17989 2.96559e-18)
(15.3524 6.45362 2.59476e-18)
(15.3357 6.71956 0)
(15.2965 6.95809 6.42203e-19)
(15.2358 7.17885 3.86467e-20)
(15.1717 7.32642 -5.06297e-19)
(14.7767 5.13799 -7.39103e-20)
(14.7635 5.15652 -1.10588e-17)
(14.7397 5.18201 1.02976e-17)
(14.6938 5.20665 0)
(14.6422 5.22676 -2.60819e-19)
(14.5818 5.23603 -9.82607e-19)
(14.5273 5.23066 7.71536e-18)
(14.4931 5.21194 0)
(14.4954 5.19147 0)
(14.5354 5.18195 -5.29295e-18)
(14.6022 5.18458 -6.90769e-18)
(14.6944 5.19655 -2.55428e-19)
(14.8191 5.226 6.74597e-18)
(14.972 5.29955 -2.27261e-19)
(15.1264 5.43364 -8.4337e-19)
(15.2615 5.62626 7.16373e-19)
(15.3673 5.86477 -2.90007e-18)
(15.4388 6.13198 -2.73639e-18)
(15.4755 6.40773 -2.97026e-18)
(15.4788 6.67745 -2.10877e-18)
(15.4581 6.91985 6.94567e-19)
(15.4127 7.14744 -3.11765e-18)
(15.3633 7.30009 5.69546e-19)
(14.7803 5.14386 -8.90711e-18)
(14.767 5.16169 1.24861e-17)
(14.7441 5.18988 -3.2177e-19)
(14.6965 5.21795 -1.12592e-17)
(14.6427 5.24129 4.95134e-19)
(14.5781 5.25333 1.20227e-17)
(14.5189 5.24898 -1.52213e-17)
(14.4805 5.22876 -1.59831e-19)
(14.4812 5.20474 4.50075e-20)
(14.5224 5.19089 -5.25223e-18)
(14.5912 5.18768 2.92547e-19)
(14.687 5.19007 -7.61848e-18)
(14.8204 5.20596 -6.05847e-18)
(14.9888 5.26665 0)
(15.1622 5.39148 6.83052e-18)
(15.3181 5.57792 -9.51875e-18)
(15.4463 5.81259 -5.47816e-19)
(15.5407 6.07809 2.66009e-18)
(15.6003 6.35381 -2.37641e-20)
(15.6254 6.62549 2.6692e-18)
(15.6254 6.86988 0)
(15.5977 7.10249 9.37996e-19)
(15.5657 7.25869 0)
(14.7839 5.14906 1.53838e-17)
(14.7703 5.16626 1.31283e-17)
(14.7486 5.19707 -5.68726e-19)
(14.6994 5.22872 2.26726e-17)
(14.6438 5.25533 -9.57952e-18)
(14.5755 5.27034 4.00698e-19)
(14.5121 5.26713 8.05041e-18)
(14.4697 5.24547 -2.24145e-20)
(14.4689 5.21779 -4.55953e-20)
(14.5112 5.19955 5.39701e-18)
(14.5812 5.1905 0)
(14.6793 5.18294 7.03043e-18)
(14.8205 5.18432 5.78637e-19)
(15.0039 5.23117 -2.87552e-19)
(15.1959 5.34607 -7.12888e-18)
(15.3728 5.52545 2.28086e-19)
(15.5235 5.75486 2.60211e-18)
(15.6414 6.01675 -4.31444e-18)
(15.7246 6.29019 0)
(15.7727 6.56171 -1.78419e-18)
(15.7951 6.80591 2.37544e-18)
(15.7867 7.04133 0)
(15.7741 7.1992 -1.40361e-18)
(14.7875 5.15321 -5.5195e-18)
(14.7735 5.17029 4.51386e-19)
(14.753 5.20358 -5.8641e-19)
(14.7027 5.23891 -1.10957e-17)
(14.6454 5.26886 1.91194e-17)
(14.5736 5.28707 -1.0368e-19)
(14.5062 5.28527 -1.41919e-19)
(14.46 5.2624 -4.29739e-18)
(14.4576 5.23108 3.59015e-20)
(14.5012 5.20839 0)
(14.5721 5.19356 7.47514e-18)
(14.6712 5.17588 2.03575e-19)
(14.8191 5.1619 2.27821e-19)
(15.0171 5.19367 4.43519e-20)
(15.2276 5.29731 -6.85158e-19)
(15.4252 5.46818 5.15082e-18)
(15.5984 5.69059 -2.77004e-18)
(15.7399 5.94685 -3.48322e-19)
(15.8471 6.21561 -8.94158e-19)
(15.9195 6.48462 2.42063e-18)
(15.9658 6.72624 -1.68695e-18)
(15.9784 6.96184 3.43685e-18)
(15.987 7.11923 -2.26258e-18)
(14.7913 5.15595 -5.59216e-18)
(14.7767 5.17389 -1.3084e-17)
(14.7573 5.20953 -5.01426e-20)
(14.7061 5.24857 -1.22687e-17)
(14.6472 5.28193 -1.97892e-17)
(14.5721 5.30354 1.0692e-19)
(14.5009 5.30344 1.48362e-19)
(14.4508 5.27978 -3.12759e-19)
(14.4468 5.2452 2.89208e-19)
(14.4915 5.21824 2.74237e-18)
(14.5626 5.19725 -7.89685e-18)
(14.6621 5.16844 -7.62422e-18)
(14.8158 5.13779 6.76063e-18)
(15.0274 5.15336 0)
(15.2558 5.24439 3.81713e-18)
(15.4738 5.40494 0)
(15.6693 5.61826 3.73505e-18)
(15.8345 5.86661 2.27333e-18)
(15.9665 6.12804 -3.67172e-20)
(16.0645 6.39189 -2.65113e-18)
(16.1358 6.62827 -5.42288e-20)
(16.1712 6.86101 2.28444e-21)
(16.2029 7.01552 -8.92363e-19)
(14.7951 5.15799 -7.74416e-20)
(14.7798 5.17712 -1.34631e-19)
(14.7615 5.21501 5.01041e-20)
(14.7097 5.25778 1.22615e-17)
(14.6493 5.29464 9.97463e-18)
(14.5712 5.31982 0)
(14.4963 5.32171 -6.39246e-20)
(14.4423 5.29755 4.65052e-18)
(14.4365 5.2599 1.65732e-19)
(14.4819 5.229 -2.73954e-18)
(14.5525 5.20229 4.00521e-18)
(14.6509 5.16177 1.17902e-17)
(14.8096 5.11229 -6.55248e-18)
(15.0348 5.10964 5.06511e-18)
(15.2806 5.18675 3.14255e-19)
(15.5185 5.33522 3.09829e-20)
(15.7364 5.53717 -2.12959e-19)
(15.9258 5.77517 -6.96322e-19)
(16.0832 6.02628 4.71983e-19)
(16.2075 6.282 -7.7636e-19)
(16.3046 6.51023 -5.07797e-20)
(16.3641 6.73629 6.8698e-19)
(16.4192 6.88554 0)
(14.7986 5.15953 -3.16019e-20)
(14.7828 5.18004 0)
(14.7657 5.22011 0)
(14.7133 5.26657 1.26943e-17)
(14.6516 5.307 1.06628e-17)
(14.5707 5.33589 -8.05355e-18)
(14.4922 5.33995 -8.01844e-20)
(14.4344 5.31548 1.98926e-20)
(14.4266 5.27479 -4.81347e-19)
(14.4728 5.24005 -7.15639e-20)
(14.5421 5.20788 1.25866e-19)
(14.6379 5.15533 -3.96129e-18)
(14.8004 5.08574 0)
(15.0389 5.06253 -5.37927e-18)
(15.3025 5.12376 -7.9477e-18)
(15.5608 5.25856 -3.06201e-18)
(15.8014 5.44704 -1.81006e-18)
(16.0157 5.67223 0)
(16.1988 5.90975 0)
(16.3497 6.15383 1.44202e-18)
(16.4741 6.37033 1.03392e-18)
(16.5582 6.58586 -2.13137e-18)
(16.6374 6.72583 0)
(14.8019 5.16067 5.88208e-18)
(14.7856 5.1827 -6.95348e-20)
(14.7697 5.22488 2.5048e-20)
(14.7171 5.27501 -1.26296e-17)
(14.6542 5.31908 -2.14508e-17)
(14.5706 5.35181 1.61959e-17)
(14.4886 5.35824 8.30827e-20)
(14.4271 5.33363 2.22907e-20)
(14.4172 5.28986 -2.95399e-20)
(14.464 5.25136 0)
(14.5313 5.21394 -3.94722e-18)
(14.6231 5.14883 4.04543e-18)
(14.7883 5.05763 0)
(15.0398 5.01206 0)
(15.3215 5.05521 3.72814e-18)
(15.6007 5.17408 2.73171e-19)
(15.8645 5.34684 2.04277e-18)
(16.1041 5.55706 1.51165e-18)
(16.3118 5.77839 -2.16286e-18)
(16.4888 6.00771 -7.90896e-19)
(16.6385 6.21176 3.16539e-18)
(16.7438 6.41221 -2.94645e-18)
(16.8424 6.5431 1.96042e-18)
(14.8049 5.16146 -3.02304e-18)
(14.7884 5.1851 -6.84811e-18)
(14.7737 5.22934 -6.81262e-20)
(14.7209 5.28311 9.01132e-20)
(14.657 5.3309 1.09309e-17)
(14.571 5.36761 -8.32956e-18)
(14.4856 5.37664 3.71634e-20)
(14.4202 5.35209 -2.43801e-20)
(14.408 5.30521 -3.30719e-20)
(14.4554 5.26303 3.58677e-20)
(14.5202 5.22064 -4.73936e-20)
(14.6064 5.14233 -4.05327e-18)
(14.7732 5.0277 3.73175e-18)
(15.0377 4.95775 -1.63001e-19)
(15.3377 4.98085 0)
(15.6383 5.08145 -2.74341e-19)
(15.9258 5.23583 2.5396e-19)
(16.1907 5.42854 -1.49274e-18)
(16.4227 5.63067 2.65394e-18)
(16.625 5.84082 1.54045e-18)
(16.7988 6.0302 -1.03452e-18)
(16.9239 6.21104 -1.52409e-18)
(17.0424 6.32933 1.94872e-18)
(14.8077 5.16197 -5.03219e-20)
(14.7911 5.18727 6.91367e-18)
(14.7776 5.23353 0)
(14.7248 5.29091 0)
(14.66 5.34249 0)
(14.5718 5.38332 0)
(14.483 5.39516 -3.90199e-20)
(14.4137 5.37082 3.78343e-20)
(14.3989 5.32074 1.85092e-20)
(14.4471 5.27493 3.56947e-20)
(14.5086 5.22791 -4.71583e-20)
(14.5875 5.13575 0)
(14.7547 4.99563 -7.28692e-18)
(15.0319 4.89902 1.92858e-19)
(15.3504 4.89992 -3.89907e-19)
(15.6728 4.97988 3.36409e-18)
(15.9838 5.11298 -2.58963e-19)
(16.2731 5.28506 4.10012e-19)
(16.5289 5.46493 -4.97128e-19)
(16.7546 5.65107 7.81741e-19)
(16.9506 5.82306 -1.08648e-18)
(17.0964 5.97778 0)
(17.2345 6.07862 1.01459e-18)
(14.8103 5.16225 6.09825e-18)
(14.7937 5.18923 3.45772e-18)
(14.7814 5.23745 4.79864e-20)
(14.7289 5.29841 -6.88248e-18)
(14.6636 5.35385 -5.82432e-18)
(14.5732 5.39896 -3.45554e-20)
(14.4812 5.41384 5.99977e-18)
(14.4078 5.38992 -3.30342e-18)
(14.3902 5.33656 -8.33684e-19)
(14.439 5.28721 0)
(14.4965 5.23608 8.31239e-20)
(14.566 5.12943 -4.26201e-18)
(14.7319 4.96146 3.81289e-18)
(15.0213 4.83554 2.78956e-18)
(15.3581 4.81176 2.16756e-18)
(15.7023 4.86852 0)
(16.0355 4.97725 0)
(16.3478 5.12523 -1.58342e-18)
(16.6269 5.27969 -1.682e-18)
(16.8748 5.43716 7.93897e-19)
(17.0908 5.5863 5.64016e-19)
(17.2559 5.71206 7.34527e-19)
(17.4033 5.79494 -1.00008e-18)
(14.8127 5.16242 -3.07643e-18)
(14.796 5.19108 -3.48263e-18)
(14.785 5.24124 3.5947e-20)
(14.7326 5.30574 -1.43951e-19)
(14.6667 5.3651 5.84161e-18)
(14.5742 5.41455 4.57514e-18)
(14.4788 5.43259 -2.84323e-18)
(14.4013 5.40906 3.29781e-18)
(14.381 5.35201 8.66482e-19)
(14.4315 5.29899 -1.25796e-20)
(14.4844 5.24415 0)
(14.5422 5.12225 4.16547e-18)
(14.7056 4.9239 3.80217e-18)
(15.0067 4.76607 -2.96383e-18)
(15.3609 4.71528 -1.87481e-18)
(15.7255 4.74636 -7.90103e-19)
(16.0782 4.82748 -5.88697e-19)
(16.4122 4.94744 3.16188e-18)
(16.7169 5.07384 0)
(16.9809 5.19765 0)
(17.207 5.31752 5.5888e-19)
(17.3826 5.41657 -1.41613e-18)
(17.5358 5.4836 -9.86769e-19)
(14.8149 5.16224 3.07482e-18)
(14.7987 5.19254 0)
(14.7893 5.2445 0)
(14.7378 5.31252 1.41278e-17)
(14.6719 5.37595 -6.01494e-18)
(14.578 5.43027 -4.6926e-18)
(14.4796 5.45243 9.7732e-20)
(14.3975 5.43048 -1.83934e-18)
(14.3723 5.37013 -2.24206e-20)
(14.4213 5.31328 -1.00265e-18)
(14.4681 5.25548 8.31464e-20)
(14.511 5.11799 -1.10034e-19)
(14.6688 4.88606 -3.81616e-18)
(14.9813 4.69226 3.0792e-18)
(15.3539 4.61095 2.09272e-18)
(15.7382 4.61329 -1.61549e-18)
(16.1094 4.66304 1.38576e-18)
(16.4667 4.74964 -1.57978e-18)
(16.7917 4.84694 0)
(17.0649 4.93917 0)
(17.2928 5.02386 -5.24963e-19)
(17.4721 5.08791 3.57187e-19)
(17.6314 5.13216 -9.74212e-19)
(14.817 5.16273 -1.15121e-21)
(14.8001 5.19475 3.61526e-18)
(14.7909 5.24879 0)
(14.7389 5.32009 -3.5087e-18)
(14.6714 5.38691 1.22884e-17)
(14.5746 5.4442 -3.787e-20)
(14.4729 5.46694 1.68497e-19)
(14.3856 5.44056 1.88544e-18)
(14.3565 5.37059 -2.90356e-20)
(14.4139 5.31007 1.03271e-18)
(14.4595 5.25368 -4.32771e-20)
(14.4874 5.10235 -1.99521e-18)
(14.641 4.8378 -2.44822e-19)
(14.9615 4.60996 -2.9083e-18)
(15.3461 4.49822 -2.39102e-18)
(15.7437 4.46946 1.72147e-19)
(16.1311 4.48366 0)
(16.5107 4.53474 -2.08844e-19)
(16.8411 4.59994 2.65512e-19)
(17.1221 4.65882 0)
(17.3519 4.70819 5.22228e-19)
(17.5317 4.73815 -3.52614e-19)
(17.6942 4.75471 0)
(14.8189 5.16024 -3.09246e-18)
(14.8033 5.19334 -3.62436e-18)
(14.7966 5.24818 0)
(14.7463 5.3231 -3.62674e-18)
(14.6801 5.39551 -1.25436e-17)
(14.5828 5.46153 -4.98148e-18)
(14.4784 5.49349 -6.7251e-18)
(14.3888 5.47631 0)
(14.3576 5.41697 -1.74772e-18)
(14.4079 5.36104 -7.58519e-19)
(14.4406 5.30041 1.85853e-18)
(14.4444 5.12679 2.09459e-18)
(14.5851 4.81158 -3.5095e-20)
(14.9196 4.52971 4.53108e-20)
(15.3235 4.37853 -2.30307e-18)
(15.7367 4.31529 1.60141e-18)
(16.1438 4.28997 0)
(16.5387 4.30646 7.81291e-19)
(16.8676 4.3355 0)
(17.1536 4.35124 0)
(17.3812 4.36021 -5.13784e-19)
(17.5602 4.35452 -1.04859e-18)
(17.7232 4.34323 8.80281e-19)
(14.8202 5.15952 0)
(14.8045 5.19371 1.52402e-22)
(14.7983 5.24956 -4.99942e-22)
(14.7481 5.32674 3.74006e-18)
(14.6815 5.40239 3.10465e-18)
(14.5829 5.47318 4.98473e-18)
(14.476 5.51111 3.40809e-18)
(14.382 5.50039 1.67526e-21)
(14.3444 5.4448 7.70225e-19)
(14.3933 5.38946 9.84068e-20)
(14.4206 5.32752 -2.29664e-20)
(14.4061 5.13759 0)
(14.5374 4.78195 3.5885e-20)
(14.8802 4.45384 -4.6313e-20)
(15.2971 4.26318 3.40761e-18)
(15.7214 4.16013 9.79573e-20)
(16.1464 4.09123 0)
(16.5444 4.07041 1.99363e-19)
(16.8744 4.0593 -2.60299e-19)
(17.1599 4.0296 0)
(17.3789 3.99903 0)
(17.5524 3.95895 6.72389e-19)
(17.7111 3.92207 -4.47407e-19)
(14.8215 5.15899 -3.17926e-18)
(14.8056 5.19436 -3.79872e-18)
(14.7998 5.25133 0)
(14.7497 5.33078 -3.74682e-18)
(14.6828 5.40964 3.22936e-18)
(14.5831 5.48492 5.18896e-18)
(14.4741 5.52815 -3.55816e-18)
(14.3773 5.52234 2.24081e-18)
(14.3372 5.46817 9.79439e-19)
(14.3865 5.41298 9.55307e-19)
(14.4064 5.3518 -1.8453e-18)
(14.369 5.14612 -2.09553e-18)
(14.4868 4.74912 -2.10263e-18)
(14.8364 4.37473 0)
(15.2645 4.14425 -1.18055e-18)
(15.6977 3.99871 1.66537e-18)
(16.1394 3.88788 7.39723e-20)
(16.5325 3.83004 -8.71969e-19)
(16.8604 3.77723 0)
(17.1362 3.70573 0)
(17.34 3.64235 0)
(17.5036 3.57318 -9.87636e-19)
(17.6541 3.51103 8.47689e-19)
(14.8226 5.15847 3.18622e-18)
(14.8067 5.19506 -6.33537e-20)
(14.8014 5.25319 0)
(14.7516 5.33493 3.86936e-18)
(14.6845 5.41702 3.65406e-22)
(14.5841 5.49679 -7.82945e-18)
(14.4733 5.54522 7.16349e-18)
(14.3741 5.54402 -6.80611e-18)
(14.3312 5.49096 2.17425e-22)
(14.3796 5.43646 -2.92737e-19)
(14.3911 5.37744 -9.31499e-19)
(14.3281 5.15555 2.11251e-18)
(14.4307 4.71442 2.09358e-18)
(14.7865 4.29178 -1.74029e-18)
(15.2249 4.02067 2.00016e-20)
(15.6654 3.8307 -1.69757e-18)
(16.1217 3.68048 0)
(16.506 3.5881 0)
(16.8256 3.49469 5.14482e-19)
(17.0833 3.38549 0)
(17.2694 3.29304 0)
(17.426 3.19833 1.62985e-19)
(17.5665 3.1117 3.95657e-19)
(14.8235 5.15793 0)
(14.8078 5.19574 3.87756e-18)
(14.8031 5.25503 -1.05166e-22)
(14.7535 5.33905 4.59247e-20)
(14.6865 5.42436 2.27674e-22)
(14.5854 5.50863 5.29258e-18)
(14.4731 5.56228 -3.60478e-18)
(14.3715 5.56571 4.56852e-18)
(14.3258 5.51383 1.18424e-18)
(14.3736 5.4606 0)
(14.3763 5.40508 9.29489e-19)
(14.2848 5.1667 4.46282e-21)
(14.3701 4.6786 1.26675e-21)
(14.7309 4.20544 1.74493e-18)
(15.1778 3.89283 0)
(15.6251 3.6568 8.68891e-19)
(16.0917 3.46956 -1.73271e-20)
(16.462 3.3458 0)
(16.7693 3.21451 -5.18315e-19)
(17.0077 3.07153 0)
(17.1771 2.94898 0)
(17.3243 2.83177 0)
(17.4506 2.73308 -1.55865e-20)
(14.8245 5.15737 0)
(14.8089 5.1964 -1.99521e-18)
(14.8048 5.25683 1.99194e-23)
(14.7556 5.3431 -3.92869e-18)
(14.6886 5.43163 -3.40824e-18)
(14.5869 5.52042 -5.33727e-18)
(14.4731 5.57935 0)
(14.3692 5.5875 2.30867e-18)
(14.3207 5.53688 -2.42257e-18)
(14.3683 5.48548 -1.36697e-22)
(14.3615 5.43494 9.39325e-19)
(14.2377 5.17986 -1.08048e-18)
(14.3034 4.64182 0)
(14.6679 4.11576 0)
(15.1218 3.76066 1.29148e-18)
(15.5773 3.47767 -8.60973e-19)
(16.0479 3.25714 0)
(16.399 3.1047 -7.09639e-19)
(16.6919 2.93559 -4.78305e-19)
(16.9114 2.76198 0)
(17.0619 2.61515 6.80959e-21)
(17.1897 2.48083 1.82295e-22)
(17.2967 2.37879 -1.98462e-19)
(14.8256 5.15679 -1.8953e-23)
(14.81 5.19704 4.01953e-18)
(14.8065 5.25859 5.43613e-23)
(14.7577 5.34709 0)
(14.6909 5.43882 -2.24068e-20)
(14.5887 5.53214 5.36876e-18)
(14.4734 5.59642 8.79242e-22)
(14.3673 5.60936 -2.31154e-18)
(14.3161 5.56009 1.23772e-18)
(14.3634 5.51116 1.81609e-19)
(14.3464 5.46729 -5.39145e-21)
(14.1863 5.19534 2.16639e-18)
(14.2299 4.60408 -2.31952e-18)
(14.5967 4.02268 6.62938e-21)
(15.056 3.6235 -2.62573e-18)
(15.5226 3.29375 8.91527e-19)
(15.9901 3.04481 -3.42275e-20)
(16.3199 2.86576 7.40716e-19)
(16.598 2.66001 4.79649e-19)
(16.7956 2.46205 0)
(16.9166 2.30044 1.90786e-19)
(17.0234 2.15323 0)
(17.1086 2.04495 -7.4635e-20)
(14.8266 5.15619 0)
(14.8112 5.19766 -2.02418e-18)
(14.8082 5.26031 -2.13677e-18)
(14.7599 5.35101 -2.15015e-22)
(14.6933 5.44593 6.90144e-18)
(14.5907 5.54378 -2.69345e-18)
(14.474 5.61346 0)
(14.3658 5.63129 0)
(14.3117 5.58346 2.04133e-22)
(14.359 5.5377 -1.82095e-19)
(14.331 5.5024 -1.29815e-20)
(14.13 5.21327 -1.08394e-18)
(14.1489 4.56525 2.3312e-18)
(14.5164 3.92617 0)
(14.9803 3.48065 1.32494e-18)
(15.462 3.10586 -8.71121e-19)
(15.9195 2.83398 4.85285e-19)
(16.2278 2.62919 4.21441e-20)
(16.4907 2.38917 0)
(16.6598 2.1813 0)
(16.7527 2.00941 -1.00846e-19)
(16.8387 1.84828 -2.32652e-19)
(16.9067 1.73299 1.62685e-19)
(14.8276 5.15558 0)
(14.8123 5.19824 8.43385e-23)
(14.81 5.26198 2.14003e-18)
(14.7621 5.35485 -2.04053e-18)
(14.6957 5.45294 -3.46457e-18)
(14.5928 5.55535 -6.19756e-22)
(14.4748 5.63049 -1.8092e-18)
(14.3644 5.65328 -1.1597e-18)
(14.3076 5.607 1.41253e-18)
(14.3549 5.56517 0)
(14.3152 5.54045 -1.97949e-20)
(14.0685 5.2338 -1.0516e-18)
(14.06 4.52539 0)
(14.4265 3.82626 -3.18366e-20)
(14.8956 3.3319 1.38982e-18)
(15.3966 2.91502 0)
(15.8374 2.62566 -8.96191e-20)
(16.1272 2.39605 1.7396e-21)
(16.3684 2.12808 4.80901e-19)
(16.5012 1.91484 0)
(16.5821 1.73876 0)
(16.6478 1.56328 1.16156e-19)
(16.7038 1.43483 -3.55186e-19)
(14.8285 5.15495 3.92941e-23)
(14.8134 5.19881 -5.1848e-23)
(14.8117 5.26361 0)
(14.7643 5.35862 -2.07251e-18)
(14.6982 5.45985 1.71355e-21)
(14.595 5.56682 -1.24555e-21)
(14.4757 5.64748 1.8106e-18)
(14.3632 5.67533 1.16235e-18)
(14.3036 5.63072 -1.41442e-18)
(14.3513 5.59358 -2.88864e-20)
(14.299 5.5817 -9.09403e-19)
(14.0013 5.2573 1.06969e-18)
(13.9627 4.48496 1.20516e-18)
(14.3266 3.72291 9.62492e-19)
(14.8034 3.17687 -1.36446e-18)
(15.3257 2.72263 5.3449e-20)
(15.7454 2.42012 -5.59385e-19)
(16.0213 2.16864 -2.02802e-19)
(16.2308 1.88198 -2.14683e-19)
(16.3313 1.65878 1.16271e-19)
(16.3984 1.4773 -1.49965e-19)
(16.4531 1.29514 0)
(16.4958 1.15502 1.2717e-19)
(14.8295 5.1543 0)
(14.8145 5.19935 -2.11612e-18)
(14.8134 5.26519 -2.2033e-18)
(14.7666 5.36231 2.04686e-18)
(14.7008 5.46667 -1.76466e-18)
(14.5974 5.5782 0)
(14.4769 5.66443 -1.7354e-21)
(14.3622 5.69743 2.30484e-21)
(14.2999 5.6546 -7.75827e-19)
(14.3483 5.62299 1.39932e-20)
(14.2827 5.62652 -8.50982e-19)
(13.9282 5.28431 -6.54641e-21)
(13.8568 4.44387 1.02064e-20)
(14.2166 3.61496 -1.00752e-18)
(14.7053 3.01461 0)
(15.2515 2.52915 8.09341e-19)
(15.647 2.21824 -4.29252e-19)
(15.9089 1.94886 2.81332e-19)
(16.0833 1.64858 5.48791e-20)
(16.1607 1.41805 -1.27814e-21)
(16.2062 1.22788 -1.30842e-19)
(16.2526 1.04047 7.6279e-20)
(16.2798 0.898007 1.10938e-19)
(14.8304 5.15364 -9.03582e-19)
(14.8157 5.19987 -2.06375e-20)
(14.8152 5.26673 2.2065e-18)
(14.7688 5.36592 2.07562e-18)
(14.7035 5.47339 3.54169e-18)
(14.5999 5.58949 2.74138e-18)
(14.4782 5.68134 1.73728e-21)
(14.3614 5.71958 -2.30746e-21)
(14.2965 5.67864 7.76779e-19)
(14.346 5.65348 1.65003e-20)
(14.2664 5.67524 1.68439e-18)
(13.8492 5.31472 -9.67025e-19)
(13.7417 4.40115 -1.26081e-18)
(14.0956 3.50049 1.05552e-18)
(14.6027 2.84329 -4.15867e-20)
(15.1782 2.33397 -7.19826e-19)
(15.5398 2.02158 4.24946e-19)
(15.7833 1.73813 -3.28568e-19)
(15.9304 1.42613 -7.90797e-20)
(15.9848 1.19015 0)
(16.0123 0.993503 1.07309e-19)
(16.0468 0.805027 -1.57368e-19)
(16.058 0.666952 1.87856e-19)
(14.8312 5.15297 9.04713e-19)
(14.8168 5.20036 3.22399e-18)
(14.8169 5.26822 2.2455e-18)
(14.7711 5.36946 -2.10488e-18)
(14.7062 5.48001 -1.77677e-18)
(14.6025 5.60068 -2.7443e-18)
(14.4797 5.6982 -1.80756e-18)
(14.3608 5.74176 0)
(14.2935 5.70283 -8.4751e-19)
(14.3446 5.68507 8.4828e-20)
(14.2505 5.72791 -8.28496e-19)
(13.7638 5.34821 9.74505e-19)
(13.6167 4.357 0)
(13.962 3.38021 -1.00208e-18)
(14.4987 2.66067 6.35139e-19)
(15.1039 2.13946 -3.56961e-19)
(15.4228 1.83047 8.15583e-20)
(15.646 1.53377 1.09329e-19)
(15.7738 1.21553 -2.01673e-19)
(15.8037 0.975462 1.37627e-19)
(15.8178 0.773396 0)
(15.8384 0.589288 -2.1817e-19)
(15.836 0.458461 2.92017e-19)
(14.8321 5.15229 0)
(14.8178 5.20083 -1.08275e-18)
(14.8186 5.26967 -2.24768e-18)
(14.7735 5.37291 2.10753e-18)
(14.709 5.48652 1.62671e-22)
(14.6053 5.61176 -1.26676e-21)
(14.4814 5.715 9.056e-19)
(14.3605 5.76397 0)
(14.2909 5.72714 8.48442e-19)
(14.3442 5.71767 3.56617e-20)
(14.235 5.78472 0)
(13.6718 5.38558 -4.3931e-19)
(13.4812 4.31137 0)
(13.8171 3.25386 7.17991e-20)
(14.4015 2.47182 -1.47231e-18)
(15.02 1.94707 2.6217e-19)
(15.3016 1.6442 6.5871e-20)
(15.5091 1.33399 -2.12844e-19)
(15.6156 1.01506 9.72859e-20)
(15.6231 0.772706 8.23123e-20)
(15.626 0.568901 -1.23459e-19)
(15.6332 0.394176 6.98712e-20)
(15.6187 0.271031 -2.84624e-19)
(14.8329 5.1516 9.35716e-19)
(14.8189 5.20128 -1.10428e-18)
(14.8203 5.27107 1.14184e-18)
(14.7758 5.37629 1.05911e-21)
(14.7119 5.49292 -1.7569e-21)
(14.6082 5.62273 2.60771e-21)
(14.4834 5.73175 9.02833e-19)
(14.3605 5.78621 -4.80331e-21)
(14.2887 5.75151 3.3066e-21)
(14.3449 5.75126 3.64851e-20)
(14.2202 5.84619 -3.68034e-19)
(13.5726 5.42822 4.20033e-19)
(13.3338 4.26574 3.21652e-20)
(13.6652 3.11886 -7.33146e-20)
(14.318 2.28494 8.28328e-19)
(14.9188 1.75192 0)
(15.1763 1.46374 9.86825e-20)
(15.3705 1.13948 1.29426e-19)
(15.4567 0.82375 -3.82485e-20)
(15.4438 0.582932 8.09023e-20)
(15.433 0.380779 -2.36899e-20)
(15.4284 0.218641 -3.98878e-21)
(15.4039 0.104122 1.59199e-20)
(14.8338 5.15091 -1.88271e-18)
(14.82 5.20171 1.10565e-18)
(14.822 5.27243 8.22575e-21)
(14.7782 5.37959 0)
(14.7148 5.49921 0)
(14.6113 5.63358 1.38601e-18)
(14.4855 5.74843 8.99362e-19)
(14.3607 5.80843 0)
(14.2871 5.7759 2.15316e-21)
(14.3469 5.78594 -1.59951e-19)
(14.2063 5.91339 3.75849e-19)
(13.4657 5.47748 -1.04803e-20)
(13.1727 4.2233 -5.20799e-20)
(13.5026 2.97836 1.41552e-19)
(14.2395 2.08336 -9.12693e-20)
(14.8039 1.56227 0)
(15.0471 1.29043 -1.30824e-19)
(15.2288 0.947015 -2.21091e-20)
(15.2968 0.640462 -5.78753e-21)
(15.2701 0.409057 -2.9076e-21)
(15.2409 0.209596 -5.70115e-20)
(15.2209 0.0575187 9.5681e-20)
(15.1882 -0.0473498 0)
(14.8346 5.15021 1.90322e-18)
(14.8211 5.20212 -1.11866e-22)
(14.8237 5.27374 -1.15298e-18)
(14.7805 5.38281 0)
(14.7178 5.50539 0)
(14.6145 5.64432 2.49352e-22)
(14.4878 5.76503 -1.79602e-18)
(14.3611 5.83064 0)
(14.2859 5.8003 -4.90303e-19)
(14.3503 5.82202 0)
(14.1936 5.98824 0)
(13.3508 5.53435 -2.25884e-20)
(12.9976 4.16876 3.21019e-20)
(13.3319 2.81898 5.64055e-19)
(14.1572 1.86168 8.90958e-20)
(14.6847 1.40073 -2.94918e-20)
(14.9225 1.12373 9.87518e-20)
(15.0925 0.762646 0)
(15.1375 0.468635 -1.24343e-20)
(15.0979 0.246723 0)
(15.0541 0.0568129 -4.44166e-20)
(15.0197 -0.0881849 -5.00001e-20)
(14.9781 -0.188692 0)
(14.8353 5.1495 -1.44032e-18)
(14.8221 5.2025 5.69203e-19)
(14.8254 5.27501 0)
(14.7829 5.38594 -1.08503e-18)
(14.7208 5.51146 9.10679e-19)
(14.6179 5.65493 -1.38991e-18)
(14.4903 5.78155 8.98383e-19)
(14.3617 5.85281 5.78942e-19)
(14.2853 5.82477 4.8719e-19)
(14.3554 5.85984 -1.34704e-21)
(14.1825 6.07009 1.79847e-21)
(13.2253 5.595 2.81462e-19)
(12.8083 4.08919 5.54558e-20)
(13.1715 2.62639 -7.92674e-19)
(14.0751 1.6602 8.45609e-20)
(14.5651 1.24697 0)
(14.7981 0.960971 0)
(14.96 0.599539 0)
(14.9845 0.312889 0)
(14.9293 0.0949139 4.71039e-20)
(14.8722 -0.0831135 2.48774e-19)
(14.8258 -0.219748 -2.78512e-19)
(14.7757 -0.312512 0)
(14.8361 5.14879 4.8365e-19)
(14.8232 5.20287 -1.14454e-18)
(14.8271 5.27623 0)
(14.7853 5.389 1.08656e-18)
(14.724 5.51741 -1.82719e-18)
(14.6213 5.66541 0)
(14.493 5.79798 0)
(14.3626 5.87495 -5.76734e-19)
(14.2852 5.84938 0)
(14.3622 5.89921 1.5793e-19)
(14.173 6.15559 -1.51365e-19)
(13.0858 5.65532 -1.72955e-19)
(12.6001 4.00285 7.48451e-19)
(13.0263 2.40585 0)
(13.9882 1.47698 0)
(14.45 1.06439 -1.1672e-20)
(14.6855 0.794809 1.49523e-20)
(14.8284 0.443766 0)
(14.8378 0.164845 8.99594e-20)
(14.7678 -0.0371963 -4.76622e-20)
(14.7009 -0.195469 -3.5904e-19)
(14.6439 -0.328289 4.50907e-19)
(14.582 -0.423043 0)
(14.8368 5.14807 -8.7346e-23)
(14.8242 5.20321 1.15589e-18)
(14.8288 5.27741 3.56381e-22)
(14.7877 5.39197 5.4785e-19)
(14.7271 5.52324 9.16473e-19)
(14.6249 5.67576 -6.96675e-19)
(14.4959 5.81432 -1.77162e-21)
(14.3637 5.89707 2.86881e-19)
(14.2859 5.87404 -5.39905e-19)
(14.3708 5.93939 -1.52975e-19)
(14.1651 6.24372 1.49942e-19)
(12.9316 5.71662 -1.13318e-19)
(12.3711 3.93121 -7.71076e-19)
(12.8882 2.18001 -5.65151e-20)
(13.8992 1.25594 6.67171e-20)
(14.3497 0.86651 -4.03475e-20)
(14.6013 0.624012 5.1603e-20)
(14.7117 0.285201 0)
(14.6936 0.0274236 -9.09019e-20)
(14.6029 -0.155253 0)
(14.5329 -0.300186 4.96857e-20)
(14.4647 -0.423359 0)
(14.3911 -0.51252 2.79833e-20)
(14.8375 5.14735 -2.49536e-19)
(14.8252 5.20353 -5.80723e-19)
(14.8304 5.27854 -5.98722e-19)
(14.7902 5.39485 1.38631e-21)
(14.7303 5.52894 1.63938e-21)
(14.6286 5.68598 -1.97707e-21)
(14.499 5.83056 4.45141e-19)
(14.365 5.91916 -3.30221e-22)
(14.2871 5.89848 5.3369e-19)
(14.3813 5.97968 -5.68624e-22)
(14.159 6.3385 1.3376e-19)
(12.7627 5.7859 0)
(12.1309 3.87842 -5.55331e-20)
(12.7436 2.02663 7.05511e-20)
(13.8098 1.01087 2.76835e-20)
(14.263 0.682823 0)
(14.5081 0.452324 0)
(14.5991 0.136845 1.14886e-19)
(14.5433 -0.0911981 0)
(14.433 -0.271226 -4.3511e-19)
(14.3556 -0.401178 4.91282e-19)
(14.2741 -0.50266 -5.24717e-20)
(14.1961 -0.592499 -1.02066e-18)
(14.8382 5.14663 5.02071e-19)
(14.8262 5.20383 2.95752e-19)
(14.8321 5.27962 9.0038e-19)
(14.7926 5.39766 -5.536e-19)
(14.7336 5.53453 -4.60875e-19)
(14.6325 5.69605 1.0496e-18)
(14.5022 5.84672 -4.45316e-19)
(14.3665 5.94118 -2.79109e-19)
(14.2891 5.92234 -7.00926e-21)
(14.3938 6.02084 4.29439e-21)
(14.1551 6.44962 -1.32917e-19)
(12.5799 5.86412 4.53606e-22)
(11.8951 3.7871 3.62795e-19)
(12.5802 1.93108 3.12948e-19)
(13.7016 0.805118 -2.80563e-20)
(14.1793 0.511997 0)
(14.3901 0.293614 0)