/*--------------------------------*- C++ -*----------------------------------*\
  =========                 |
  \\      /  F ield         | OpenFOAM: The Open Source CFD Toolbox
   \\    /   O peration     | Website:  https://openfoam.org
    \\  /    A nd           | Version:  7
     \\/     M anipulation  |
\*---------------------------------------------------------------------------*/
FoamFile
{
    version     2.0;
    format      ascii;
    class       volScalarField;
    location    "50";
    object      yPlus;
}
// * * * * * * * * * * * * * * * * * * * * * * * * * * * * * * * * * * * * * //

dimensions      [0 0 0 0 0 0 0];

internalField   uniform 0;

boundaryField
{
    inlet
    {
        type            calculated;
        value           uniform 0;
    }
    outlet
    {
        type            calculated;
        value           uniform 0;
    }
    suction_side
    {
        type            calculated;
        value           nonuniform List<scalar> 
56
(
44.0802
42.2467
42.6876
41.5211
47.0286
48.2798
46.4249
46.3295
46.9891
48.6744
50.0252
49.9009
46.4514
32.6484
26.1039
29.7882
36.2551
41.1701
39.6033
38.2384
36.8461
34.5556
31.7421
28.5165
26.4119
25.0992
24.2166
23.5161
22.9487
22.5424
21.9093
21.0267
19.8901
18.6512
17.6857
17.0097
16.4594
15.9032
15.4405
15.1689
14.9755
15.0982
15.8615
16.6109
16.7813
17.3393
18.2047
18.8826
19.7066
22.7331
24.9428
22.0128
18.6143
15.3181
14.9553
14.5696
)
;
    }
    pressure_side
    {
        type            calculated;
        value           nonuniform List<scalar> 
56
(
33.4131
33.4449
33.297
35.0008
36.1847
37.2313
37.8422
38.1122
38.1553
38.1434
38.1776
38.1992
38.274
38.3524
38.432
38.4008
38.236
38.1197
37.8816
37.6984
37.4911
37.2434
36.8945
36.504
36.16
36.0124
36.2006
36.6904
37.3696
37.8806
38.0739
37.9951
37.7108
36.6042
35.1467
33.3071
31.2767
29.2815
27.5791
26.3471
25.9959
26.7863
28.2839
29.8445
30.9716
32.5429
34.1256
36.3482
38.1668
40.8377
41.5846
41.4268
43.3097
43.7112
43.8315
43.4142
)
;
    }
    trailing_edge
    {
        type            calculated;
        value           nonuniform List<scalar> 2(115.753 72.4877);
    }
    defaultFaces
    {
        type            empty;
    }
}


// ************************************************************************* //
