/*--------------------------------*- C++ -*----------------------------------*\
  =========                 |
  \\      /  F ield         | OpenFOAM: The Open Source CFD Toolbox
   \\    /   O peration     | Website:  https://openfoam.org
    \\  /    A nd           | Version:  7
     \\/     M anipulation  |
\*---------------------------------------------------------------------------*/
FoamFile
{
    version     2.0;
    format      ascii;
    class       volScalarField;
    location    "50";
    object      k;
}
// * * * * * * * * * * * * * * * * * * * * * * * * * * * * * * * * * * * * * //

dimensions      [0 2 -2 0 0 0 0];

internalField   nonuniform List<scalar> 
12842
(
0.00569343
0.00511618
0.00472438
0.00448347
0.00430776
0.00418089
0.00410313
0.00404456
0.00400558
0.00396815
0.00394627
0.00392827
0.0039316
0.00394647
0.00396996
0.00399507
0.00402335
0.00405449
0.00408447
0.00412416
0.0041518
0.0041844
0.00421667
0.00564306
0.00508291
0.00471688
0.00446854
0.00428955
0.00416586
0.00408847
0.00402842
0.00399405
0.00396322
0.00394461
0.00392821
0.0039328
0.00394956
0.00397364
0.00399843
0.00402568
0.00405664
0.00408661
0.00412976
0.00415419
0.00418982
0.00422267
0.00563435
0.00498122
0.00464776
0.00444897
0.00426695
0.00414232
0.0040585
0.00400969
0.00397667
0.00394983
0.00393657
0.00392557
0.00393191
0.00395297
0.00398387
0.00401592
0.00404558
0.00408243
0.00411418
0.00415824
0.00419693
0.0042491
0.00427635
0.00557691
0.00495623
0.00457014
0.00439266
0.0042475
0.00413137
0.00404755
0.00400031
0.00397063
0.00393928
0.00393067
0.00392333
0.00393126
0.00395593
0.0039873
0.00403102
0.00405958
0.00410719
0.0041474
0.00419216
0.00423247
0.00431502
0.00438082
0.00553421
0.00486632
0.00452081
0.00433215
0.00419718
0.00410099
0.00402086
0.00398197
0.0039576
0.00393264
0.00392124
0.00391909
0.00392999
0.00396144
0.00400207
0.00406577
0.00411365
0.0041667
0.00422603
0.00427569
0.00432655
0.00441925
0.00450785
0.00548254
0.00483104
0.00446902
0.00429893
0.00417397
0.00408151
0.0040067
0.00397025
0.00394615
0.00392407
0.00391658
0.00391683
0.00392897
0.00396583
0.00401177
0.00408324
0.0041546
0.00422096
0.00429777
0.00437005
0.00442765
0.00452724
0.00464646
0.00542227
0.00474991
0.00441507
0.00423837
0.00413277
0.00405404
0.00398099
0.00395505
0.00393345
0.00391626
0.00390848
0.00391262
0.0039291
0.00397445
0.00403495
0.0041341
0.00423707
0.0043429
0.00442306
0.00452642
0.00458777
0.00469068
0.00483273
0.00538184
0.00471549
0.00438208
0.00421495
0.00410738
0.00403329
0.00397082
0.00394472
0.00392342
0.00390883
0.0039047
0.00391007
0.00393151
0.00398787
0.00406475
0.00419943
0.00431546
0.00444393
0.00454852
0.00468088
0.00476152
0.00487221
0.00502464
0.00531369
0.00464515
0.00433276
0.00417022
0.00408016
0.00400831
0.00395279
0.00393102
0.00391508
0.00390183
0.00389865
0.00390637
0.00393606
0.00401886
0.0041269
0.00430156
0.00444618
0.00459993
0.00470735
0.00487151
0.004978
0.00511079
0.00526972
0.00527421
0.00461424
0.004299
0.00415153
0.00406417
0.00399291
0.00394582
0.00392096
0.00390862
0.00389601
0.00389596
0.00390563
0.00394533
0.00405498
0.00419371
0.00441687
0.00457652
0.00474524
0.00486562
0.00504531
0.00516581
0.00531555
0.00547891
0.00520149
0.00454738
0.00426126
0.0041148
0.00403696
0.00397394
0.00393219
0.00391242
0.00389906
0.00389213
0.00389103
0.00391581
0.00397501
0.00412114
0.00428928
0.00453803
0.00472011
0.00489905
0.00502353
0.00522135
0.0053562
0.00551978
0.00568638
0.00515126
0.00451613
0.00423137
0.00409833
0.00402473
0.00396263
0.00392615
0.00390298
0.00389217
0.00388771
0.00389383
0.00394686
0.00404461
0.00421002
0.00441295
0.0046884
0.00488178
0.00506963
0.00520264
0.00540804
0.00554664
0.00571501
0.00587917
0.00509285
0.0044609
0.00419625
0.00406644
0.00400142
0.00394497
0.00391454
0.00389233
0.00388584
0.00387976
0.00390291
0.00400011
0.00412551
0.00432827
0.00455591
0.00483946
0.00504433
0.00523322
0.00537398
0.00558863
0.00573503
0.005908
0.00606433
0.00503965
0.00442489
0.00417413
0.00405194
0.00399022
0.00393713
0.00390909
0.00388802
0.00388098
0.00387952
0.00393631
0.00406816
0.00423129
0.00446323
0.00471867
0.00500973
0.00522194
0.00541393
0.00555605
0.00577429
0.00591175
0.00608198
0.0062314
0.00498648
0.00438323
0.00414281
0.00402401
0.00396936
0.00392245
0.00389825
0.0038763
0.00387113
0.00388617
0.0039812
0.00415343
0.00434426
0.00461744
0.00489207
0.00518171
0.00538761
0.00557445
0.00572636
0.00594345
0.00608524
0.00624914
0.00638505
0.00494451
0.00434641
0.00412205
0.00401099
0.00395986
0.00391569
0.0038932
0.00387353
0.00388041
0.00392952
0.00405636
0.00425582
0.00447844
0.00478193
0.00507048
0.00535248
0.00556408
0.00574764
0.00589448
0.00611074
0.00623975
0.00639745
0.00652213
0.00489155
0.0043117
0.00409557
0.00398585
0.00394168
0.00390258
0.00388353
0.00386992
0.00388698
0.00398284
0.00413537
0.00437002
0.00461333
0.00495252
0.00525454
0.00553012
0.00572081
0.00589695
0.00605378
0.00625625
0.00638764
0.00653552
0.00664758
0.00486056
0.00427929
0.00407721
0.0039741
0.00393323
0.00389665
0.00387764
0.00389436
0.00394425
0.00407258
0.00424507
0.0044981
0.00476748
0.00512905
0.00543105
0.00568749
0.0058837
0.00604932
0.00619836
0.00639562
0.00651982
0.00665563
0.00675575
0.00481436
0.00424899
0.00405281
0.0039515
0.00391682
0.00388506
0.00386959
0.0039176
0.00399816
0.00415355
0.00435243
0.00463085
0.00491067
0.0052978
0.00560684
0.00585271
0.00602126
0.0061806
0.00633492
0.00651192
0.00663527
0.00676787
0.00685672
0.00478902
0.00421928
0.00403184
0.003941
0.00390957
0.00387899
0.00388488
0.00399943
0.0041039
0.00427208
0.00448578
0.00477041
0.00507261
0.00547097
0.00576883
0.00599102
0.00616389
0.00630633
0.00645505
0.00662618
0.00674192
0.0068661
0.00695029
0.00475776
0.00419421
0.00401546
0.00392101
0.0038925
0.00386885
0.00389817
0.00405834
0.00417781
0.00437354
0.00460805
0.00490527
0.00521101
0.00562773
0.00592606
0.00613148
0.00627714
0.00641794
0.00656452
0.00671672
0.00683576
0.00695441
0.00703597
0.00473355
0.00416838
0.00399132
0.00391236
0.00389415
0.00388392
0.00396888
0.00417029
0.00430476
0.00451187
0.00475194
0.00504552
0.00536911
0.00578268
0.00606535
0.0062519
0.0063998
0.00651961
0.00666689
0.00681564
0.00691869
0.00703851
0.00711372
0.00471049
0.00414381
0.00397434
0.00389623
0.00389101
0.00391475
0.00404336
0.00425174
0.00439569
0.0046241
0.00487481
0.00517083
0.00549762
0.00592692
0.00620312
0.00636471
0.00648974
0.00661504
0.00675395
0.00688248
0.00700355
0.00710534
0.00717601
0.00469164
0.00412467
0.00395826
0.00388412
0.00390686
0.00399031
0.00416298
0.0043884
0.0045492
0.00478449
0.00503072
0.00531538
0.00565273
0.00606537
0.00632357
0.00647083
0.00659333
0.00669294
0.0068314
0.00696626
0.00706068
0.00717362
0.00723843
0.00467845
0.00411069
0.00394743
0.00388922
0.00395451
0.00408378
0.00427781
0.00449912
0.00467061
0.00491168
0.00515539
0.00543582
0.00577963
0.00620107
0.00644016
0.00656026
0.00666384
0.00677495
0.00691413
0.00702339
0.00713666
0.00723173
0.00728445
0.00466312
0.00409282
0.00393445
0.00392812
0.00403558
0.00419169
0.00438818
0.00461583
0.00479007
0.00503352
0.00527166
0.00554563
0.0059012
0.00630627
0.00653584
0.00664549
0.00675112
0.00684311
0.00696452
0.00708246
0.00719162
0.00728702
0.0073235
0.00464542
0.00408104
0.00393326
0.00400262
0.00413459
0.00429978
0.00450376
0.00472884
0.00490956
0.00514877
0.00538037
0.00565129
0.00601525
0.00642106
0.00662601
0.00671714
0.00680356
0.00689483
0.00703536
0.00714373
0.00724379
0.00731956
0.00736166
0.0046299
0.00407101
0.00394672
0.00409148
0.00423389
0.00441495
0.00461935
0.00484304
0.00502139
0.00525549
0.00547892
0.00574568
0.00611938
0.0065116
0.00670941
0.00678269
0.00687339
0.00697351
0.00708896
0.00718915
0.00730699
0.00737452
0.00741165
0.00461403
0.00405652
0.00398402
0.00419003
0.00433954
0.00452805
0.00472855
0.00494945
0.00513036
0.00535326
0.00556954
0.0058359
0.00622008
0.0066016
0.00677634
0.0068501
0.00693482
0.00701255
0.00714084
0.0072498
0.00735411
0.00743671
0.00748632
0.00459517
0.00404428
0.00404213
0.00428616
0.00444099
0.00464067
0.00484015
0.00505139
0.00522876
0.00544113
0.00565085
0.00591869
0.00631117
0.00668763
0.00685704
0.00690306
0.00697244
0.00707163
0.00720233
0.00731313
0.00745954
0.0075141
0.00763282
0.00457621
0.00405694
0.00410823
0.00439168
0.00454498
0.00475013
0.00494055
0.00514426
0.00532086
0.00551948
0.00572348
0.00599379
0.00639767
0.00675808
0.00690609
0.00697049
0.00706696
0.0071469
0.00727853
0.00742062
0.00759391
0.00776338
0.00797927
0.00456284
0.00409339
0.00418364
0.00448882
0.00464658
0.00485554
0.00503661
0.00523097
0.00540252
0.00558826
0.00578924
0.00606694
0.00648039
0.00684198
0.00699651
0.00704184
0.0071087
0.00721574
0.00739313
0.00760246
0.0078232
0.00805633
0.00877
0.00454949
0.00415225
0.00427107
0.00459013
0.00474145
0.00495171
0.00512488
0.00530746
0.00547541
0.00564837
0.00584612
0.00613009
0.00655383
0.0069071
0.00704204
0.0071024
0.00721963
0.00734306
0.0075333
0.00777353
0.00810811
0.00861003
0.00988091
0.00452763
0.00422574
0.00435343
0.00468821
0.00483999
0.00504577
0.00520325
0.00537502
0.00553965
0.0057002
0.0058984
0.00619365
0.00662908
0.00698504
0.00714159
0.00721999
0.00731127
0.00749612
0.00773986
0.00806455
0.00856518
0.00951537
0.0117525
0.00452559
0.00430577
0.0044516
0.00477995
0.00492761
0.0051249
0.00527652
0.00543908
0.00559463
0.00574513
0.00594307
0.00624966
0.00669543
0.00706077
0.00720191
0.0072901
0.00747386
0.0076264
0.0079632
0.0085004
0.00923365
0.0105978
0.0141492
0.00453559
0.00439643
0.00453672
0.00487143
0.00501175
0.00520351
0.00533856
0.00548805
0.00564289
0.00578328
0.00598397
0.00630408
0.00676135
0.00712948
0.00731365
0.00743992
0.00759189
0.00786103
0.00833254
0.0090253
0.0100851
0.0124004
0.0183997
0.0045672
0.00448647
0.00463872
0.00495465
0.00509341
0.00526918
0.0053974
0.00553761
0.0056833
0.00581676
0.00602018
0.0063573
0.00682729
0.0072248
0.0074037
0.00753536
0.00781013
0.0081689
0.00884609
0.00980587
0.011568
0.0161638
0.0278767
0.00460405
0.00458536
0.00471927
0.0050339
0.00516498
0.00533026
0.00545026
0.00557814
0.00571852
0.00584489
0.00605196
0.00640463
0.00688469
0.00728842
0.00751011
0.00773962
0.00805245
0.00851248
0.00942457
0.0111039
0.0148588
0.0255346
0.0414761
0.0046498
0.00467452
0.00482162
0.00510741
0.00523137
0.00538324
0.00549167
0.00561248
0.00574809
0.00587032
0.00608231
0.00645743
0.00695236
0.00739532
0.00764495
0.00784778
0.00822331
0.00892918
0.0105638
0.013907
0.0232931
0.0422823
0.0604837
0.00470285
0.00476767
0.00489618
0.00517297
0.00529383
0.00543601
0.00553404
0.00564261
0.00577367
0.00589185
0.00610819
0.00650199
0.00700545
0.0074722
0.00773729
0.00808798
0.00868667
0.00989071
0.012847
0.0199247
0.0384136
0.0550015
0.0753535
0.00475596
0.00485496
0.00498302
0.00523302
0.00534439
0.00547138
0.00557093
0.00567402
0.00579526
0.00591204
0.00613377
0.00655429
0.00707315
0.00756745
0.00790628
0.00827034
0.00910548
0.0112671
0.0162592
0.0317573
0.0507618
0.0632409
0.0932272
0.00481744
0.0049347
0.0050629
0.00529251
0.00539684
0.00551172
0.00559467
0.0056889
0.00581436
0.00592932
0.00615689
0.00660029
0.00712557
0.0076728
0.00800877
0.00855532
0.00991522
0.0131884
0.0241647
0.0446096
0.0592353
0.0773452
0.139698
0.00487287
0.00500233
0.00512306
0.00532819
0.00543187
0.00554728
0.00561523
0.00569299
0.00583002
0.00594646
0.0061792
0.00665323
0.00719337
0.00775318
0.00819018
0.00893796
0.0109009
0.0175357
0.0337863
0.0545652
0.0657002
0.0939491
0.130498
0.00493444
0.00507106
0.0051908
0.00537875
0.00546712
0.00556194
0.00563278
0.00570677
0.00584483
0.00596088
0.00620079
0.00670006
0.00724193
0.00786674
0.00835277
0.00934481
0.0129737
0.0234306
0.0436538
0.0590758
0.0674458
0.0936275
0.137169
0.00498723
0.00512161
0.00524433
0.00541001
0.00549918
0.00557582
0.00564641
0.00572248
0.00585619
0.00597593
0.00622211
0.0067571
0.00731531
0.00796875
0.00852285
0.0101915
0.0158997
0.0302788
0.0511436
0.0614169
0.0697408
0.0948525
0.144345
0.00504263
0.00516435
0.00528767
0.00543047
0.00551503
0.00558804
0.00564578
0.00572764
0.0058678
0.00598876
0.00624263
0.00680214
0.00735634
0.00806135
0.00885315
0.0113231
0.0195101
0.0363726
0.0555545
0.0625374
0.0685172
0.0868124
0.129795
0.00509057
0.00519444
0.00531574
0.00544584
0.00552461
0.00560006
0.00564755
0.0057351
0.00587593
0.00600164
0.00626436
0.00686308
0.00743256
0.00820415
0.00916806
0.012785
0.0233324
0.0417933
0.0584144
0.0618361
0.0655768
0.0804783
0.137689
0.00513489
0.0052247
0.00534616
0.00546827
0.00553956
0.00561091
0.00565827
0.00574639
0.00588547
0.00601357
0.00628369
0.0069084
0.0074771
0.00832903
0.00961533
0.0145433
0.0266897
0.0463054
0.0592872
0.0609092
0.0623385
0.0856305
0.134531
0.00518137
0.00525444
0.00537016
0.00548219
0.00554979
0.00562628
0.00567209
0.00575777
0.00589199
0.00602501
0.00630802
0.00696569
0.00754499
0.00846684
0.0102344
0.0163482
0.0297623
0.0494038
0.0599776
0.0596664
0.05965
0.0855029
0.118374
0.00521837
0.00528887
0.00540131
0.00550299
0.00556436
0.00564442
0.00568925
0.00576616
0.00590049
0.00603663
0.00632477
0.00701991
0.00760046
0.00866723
0.0108532
0.0180238
0.0323093
0.0515502
0.0606475
0.0586908
0.056364
0.080469
0.0964714
0.00526659
0.00532467
0.00542912
0.00552093
0.00558168
0.00566181
0.0057019
0.00577514
0.00590741
0.00604614
0.00634715
0.00705883
0.00765138
0.00883797
0.0113857
0.0193249
0.0339616
0.0525044
0.0608487
0.0581597
0.0541402
0.0766921
0.0806406
0.00530177
0.00536161
0.00545814
0.00554439
0.00560338
0.00568107
0.00571571
0.00578563
0.00591485
0.00605616
0.00636209
0.0071088
0.00770018
0.00898072
0.01188
0.0203708
0.0352059
0.0528676
0.060977
0.0574277
0.0542995
0.0665945
0.0712788
0.00534379
0.00539599
0.0054818
0.00556876
0.00562665
0.00569879
0.0057288
0.00579743
0.00592116
0.00606273
0.00637554
0.00713756
0.00774209
0.00912052
0.0123617
0.021255
0.036096
0.0533866
0.0602709
0.0568183
0.0538064
0.0575975
0.0615548
0.00538008
0.00543119
0.00550896
0.00559234
0.00564991
0.00571696
0.00574343
0.00581115
0.00592834
0.00607151
0.0063908
0.00717237
0.00777555
0.0092628
0.0126975
0.0218236
0.0371081
0.0542388
0.0589734
0.0568364
0.0523094
0.0518559
0.049839
0.00541785
0.00546306
0.00553303
0.00561715
0.00567319
0.00573389
0.00575846
0.00582382
0.00593407
0.00607678
0.00640078
0.00719887
0.00780587
0.00937133
0.0127883
0.021439
0.0379072
0.053893
0.0584383
0.0568526
0.0516534
0.0473584
0.0406554
0.00545375
0.00549389
0.00556084
0.00563978
0.00569604
0.00575017
0.00577402
0.00583791
0.00594072
0.00608322
0.00641308
0.00722357
0.00784474
0.00937615
0.0126083
0.0203219
0.0375475
0.0512599
0.0556015
0.0555248
0.0495702
0.0413354
0.0326363
0.00548686
0.00552204
0.00558744
0.0056616
0.00571604
0.00576447
0.00578869
0.00584942
0.00594589
0.00608769
0.00642099
0.00724084
0.0078593
0.00924139
0.0119978
0.0187891
0.035587
0.0453551
0.0490985
0.0508525
0.0448364
0.0362348
0.0274384
0.00551771
0.00554793
0.00561303
0.00568148
0.00573521
0.00577808
0.00580272
0.00586085
0.00595095
0.00609143
0.00642901
0.00725636
0.00784744
0.00902319
0.0113107
0.0171547
0.0328668
0.0387331
0.0415206
0.0441566
0.0387938
0.0307
0.0228637
0.00554681
0.00557387
0.0056411
0.00570258
0.00575335
0.00579238
0.00581745
0.00587196
0.0059556
0.00609491
0.00643661
0.00726606
0.00781314
0.00876679
0.0106131
0.0155905
0.0300624
0.0325522
0.0343403
0.0371337
0.0325409
0.025475
0.0191304
0.00557588
0.00560148
0.00566669
0.00572293
0.00577096
0.00580585
0.0058318
0.00588267
0.00596054
0.00609757
0.00644405
0.00727176
0.00775677
0.00852572
0.00998662
0.014119
0.0270967
0.0269119
0.0278554
0.030558
0.0269058
0.0208985
0.0161386
0.00560421
0.00562662
0.00569519
0.00574425
0.00578868
0.0058213
0.00584671
0.00589319
0.00596481
0.00609983
0.00645134
0.00727107
0.00770963
0.00829539
0.0094292
0.0127279
0.0239498
0.0221897
0.0226676
0.0248961
0.0220432
0.0171723
0.0137676
0.00562996
0.00565585
0.00571986
0.00576514
0.00580517
0.0058349
0.00586084
0.00590403
0.00596982
0.00610137
0.00645755
0.00724775
0.00762587
0.00808488
0.00896855
0.0115325
0.0209211
0.0182856
0.0184914
0.0202688
0.0181686
0.0145651
0.0119114
0.00565714
0.00568101
0.00574715
0.00578522
0.0058218
0.00585068
0.00587531
0.00591352
0.0059742
0.00610271
0.0064617
0.00720971
0.00757172
0.00791865
0.00859833
0.0105584
0.0180192
0.0155451
0.0154489
0.0167548
0.0152348
0.0124138
0.0114112
0.00568246
0.0057091
0.00577026
0.00580656
0.00583927
0.00586476
0.00588974
0.00592451
0.00597925
0.00610361
0.00646231
0.00715783
0.00748339
0.00775331
0.00827726
0.00971626
0.0155708
0.0134182
0.013282
0.0142638
0.0132773
0.0115725
0.011068
0.00570433
0.00573434
0.00579418
0.00582528
0.00585424
0.0058796
0.0059021
0.00593382
0.0059844
0.00610448
0.0064621
0.00710691
0.00741113
0.00762543
0.00805026
0.00911324
0.0135089
0.0120143
0.0116601
0.012434
0.0118448
0.0112235
0.0107129
0.00573073
0.0057585
0.00581592
0.00584379
0.00587058
0.00589379
0.00591662
0.0059439
0.00598918
0.00610513
0.00645742
0.00704362
0.00734094
0.00751052
0.00784963
0.00868658
0.012008
0.0110911
0.0110872
0.0112941
0.0111959
0.0109101
0.0105318
0.00575089
0.00578412
0.0058365
0.00586363
0.00588741
0.00590752
0.0059279
0.00595265
0.0059953
0.00610573
0.00644938
0.00699004
0.0072602
0.00741808
0.00765907
0.00832918
0.0109526
0.0110062
0.0108425
0.0107242
0.0108863
0.0105843
0.0103712
0.00576885
0.0058019
0.00585241
0.00587708
0.00589899
0.00591979
0.00593949
0.00596321
0.00599986
0.0061064
0.00644302
0.00694423
0.00720467
0.00730039
0.00757766
0.00820302
0.0101239
0.0108797
0.0105567
0.0104686
0.0107468
0.010685
0.0102975
0.00579352
0.00582347
0.00587014
0.00589402
0.00591408
0.00593121
0.00594915
0.00596927
0.00600643
0.00610726
0.00643672
0.00690829
0.00714208
0.00729714
0.00755537
0.00816436
0.00981978
0.0106714
0.0105555
0.01029
0.0107618
0.0106964
0.0101925
0.00580235
0.00583984
0.0058836
0.00590736
0.00592818
0.00594238
0.00596132
0.00597849
0.0060104
0.0061065
0.00643138
0.00687674
0.00711982
0.00728327
0.00748114
0.00810198
0.00970554
0.0104499
0.0105069
0.0103891
0.0106418
0.0106918
0.0101956
0.00580659
0.00585052
0.00588976
0.00591571
0.00592871
0.00594867
0.00596059
0.00598584
0.00601746
0.00610747
0.00642605
0.00684918
0.00710826
0.00727749
0.0074619
0.00804045
0.00958284
0.0105038
0.0104593
0.0104115
0.0106898
0.0106108
0.0101495
0.00581193
0.00585617
0.00589239
0.00592234
0.00593006
0.00595194
0.00596217
0.00598848
0.00601995
0.00610629
0.00642131
0.00684835
0.00710347
0.00724465
0.00744097
0.0080392
0.00949084
0.0104037
0.0104181
0.0103977
0.010577
0.0106027
0.0100285
0.00581086
0.00585851
0.00589185
0.00592108
0.00593213
0.0059542
0.00596271
0.00599196
0.00602129
0.00610702
0.00641805
0.00684551
0.00710022
0.00724044
0.00742808
0.00805119
0.00954023
0.010331
0.0104188
0.0103212
0.0106807
0.0105686
0.0100408
0.00581155
0.00585671
0.00589322
0.00592083
0.00593275
0.0059519
0.00596316
0.00599075
0.00602266
0.0061067
0.00641443
0.00683625
0.00709859
0.00722838
0.00742165
0.00805718
0.00954239
0.0104475
0.0104101
0.0104225
0.010632
0.0104397
0.0100824
0.00581201
0.00585678
0.00589589
0.00592131
0.0059337
0.0059508
0.00596327
0.00599211
0.00602368
0.00610643
0.00641181
0.00682457
0.00709716
0.00724022
0.00740846
0.00805963
0.00948025
0.0104395
0.0103333
0.0104363
0.0105313
0.0104242
0.0101704
0.00582091
0.00585979
0.00589868
0.00592053
0.00593422
0.00595243
0.00596432
0.0059919
0.00602311
0.0061067
0.00641
0.00682195
0.00709376
0.00724297
0.00739457
0.00806642
0.00949127
0.0104507
0.0103297
0.0104054
0.0106226
0.0104842
0.010268
0.00581781
0.00585502
0.00589476
0.0059202
0.00593532
0.00595186
0.00596689
0.005992
0.00602489
0.00610655
0.00640922
0.0068171
0.00710277
0.00724484
0.0074294
0.00806794
0.00950062
0.0104035
0.0104637
0.0104943
0.0105915
0.0106013
0.0103599
0.00582179
0.00585538
0.00589542
0.00591963
0.00593499
0.00595164
0.00596855
0.00598896
0.00602272
0.00610663
0.00640901
0.00681508
0.00710532
0.00725406
0.00738995
0.00806301
0.00949486
0.0105237
0.0106422
0.0106499
0.010675
0.0107553
0.010467
0.00581563
0.00585724
0.00589052
0.00591958
0.00593609
0.00595194
0.0059653
0.00598877
0.00602295
0.00610622
0.00640806
0.00680775
0.00711135
0.00725729
0.00742183
0.00814
0.00953734
0.0105417
0.0108714
0.010893
0.01084
0.0110001
0.010604
0.00582202
0.00585961
0.00588972
0.00592122
0.00593569
0.0059538
0.00596469
0.00598969
0.00602446
0.00610634
0.00640546
0.00679938
0.00711173
0.00725467
0.00741275
0.00830995
0.00976836
0.0105311
0.0110787
0.0110747
0.010997
0.0111329
0.0107123
0.00581611
0.00585981
0.00588968
0.00591661
0.0059376
0.00594996
0.00596592
0.00599052
0.00602189
0.006106
0.0064021
0.00679993
0.00711595
0.00727922
0.00741316
0.00881467
0.010092
0.0107641
0.0113827
0.0113709
0.0111675
0.0111876
0.010816
0.0058165
0.00585265
0.00588936
0.00591584
0.00593324
0.00595362
0.00596604
0.00598706
0.00602167
0.00610596
0.00640079
0.00679609
0.00711828
0.00725617
0.00745139
0.0093783
0.0106298
0.0110398
0.0115425
0.0115362
0.0113659
0.0113068
0.0109602
0.00581827
0.00585159
0.00588903
0.00591804
0.00593242
0.00595029
0.00596559
0.00598511
0.00602192
0.00610653
0.00640008
0.00679502
0.00711419
0.00727538
0.00746303
0.0101284
0.0112633
0.0115132
0.0118402
0.0118432
0.0115805
0.0113599
0.0111301
0.00580931
0.0058529
0.00589226
0.00591812
0.00593251
0.00595056
0.00596444
0.00598396
0.00602141
0.00610708
0.00640008
0.00679947
0.00711806
0.00726484
0.00751078
0.0113739
0.0118762
0.0119448
0.0120466
0.0120126
0.0117628
0.0115432
0.0114849
0.00580747
0.00584537
0.00589305
0.00591753
0.00593055
0.00594999
0.00596335
0.00598482
0.00602018
0.00610569
0.00640007
0.00679637
0.00713376
0.00726922
0.00751711
0.0123109
0.0126366
0.0124241
0.0124301
0.0122794
0.0120632
0.0117275
0.0117202
0.00580987
0.00584401
0.00589067
0.00591432
0.00592938
0.00594784
0.00596188
0.00598231
0.006019
0.00610498
0.00640008
0.00679946
0.00715078
0.00728105
0.0075186
0.0134816
0.0134314
0.0128597
0.012664
0.0124727
0.0123572
0.0121244
0.0122417
0.00580723
0.0058403
0.0058867
0.00591119
0.00593174
0.0059455
0.00596086
0.00598107
0.00601769
0.00610236
0.00640015
0.00679875
0.00715487
0.00729928
0.00754001
0.01462
0.0142015
0.0132883
0.0129968
0.0127463
0.012659
0.012422
0.0125826
0.00580485
0.00583892
0.00588355
0.00591139
0.00592998
0.00594579
0.00595678
0.00597565
0.00601791
0.00610136
0.00640016
0.00680381
0.00715341
0.00732418
0.00762904
0.0150454
0.0148546
0.0137957
0.013326
0.0129449
0.0129494
0.0128805
0.0132626
0.00579944
0.00583551
0.00587845
0.00590394
0.00592807
0.0059397
0.0059531
0.00597477
0.00601369
0.00610103
0.00640018
0.00680448
0.00716674
0.00733799
0.00768206
0.0152231
0.0154103
0.014171
0.0135242
0.0132387
0.0132564
0.0134231
0.0138596
0.00579608
0.00583364
0.00587278
0.00590856
0.00592453
0.00594426
0.00595146
0.00597552
0.00601315
0.00609997
0.00640036
0.00680413
0.0071733
0.00736944
0.00780532
0.0151984
0.0158267
0.0146109
0.0139455
0.0134976
0.0134941
0.0138256
0.0146792
0.00579488
0.00583262
0.00586562
0.00590207
0.00591836
0.00593895
0.00594869
0.00597014
0.00601528
0.0060977
0.00640105
0.00681307
0.00717231
0.00739106
0.00786365
0.0151984
0.016097
0.0149395
0.0142071
0.0138278
0.013872
0.0143779
0.0155905
0.00578173
0.00583525
0.00586192
0.00590488
0.00591607
0.00594235
0.00594745
0.0059741
0.00601459
0.00609627
0.00640067
0.00682567
0.00718516
0.00740141
0.00800035
0.0152044
0.0163055
0.0152801
0.014508
0.0140234
0.0142003
0.0150216
0.0166719
0.00578901
0.00583264
0.00585764
0.00590265
0.00591227
0.00594146
0.00594998
0.00596951
0.0060135
0.00609332
0.00640081
0.00683619
0.0071874
0.00742394
0.00806004
0.0152385
0.0163109
0.0154661
0.0148247
0.0143069
0.0145336
0.0154456
0.0169445
0.00577712
0.00582755
0.00585546
0.00589923
0.00590975
0.00593417
0.00594892
0.00597101
0.00600948
0.0060916
0.00640088
0.00686149
0.00719066
0.00744457
0.00821048
0.0151274
0.0163184
0.0156589
0.0150306
0.0145225
0.0148141
0.0157321
0.0170529
0.00578085
0.0058194
0.00585638
0.00589326
0.00591095
0.0059295
0.00594643
0.00597069
0.00600641
0.00608787
0.00640051
0.00687317
0.0071934
0.00744684
0.00828978
0.0144846
0.0161546
0.0157527
0.0151683
0.0147673
0.0150861
0.0158804
0.0172081
0.00577566
0.00580465
0.0058568
0.0058834
0.00590874
0.00592486
0.00594206
0.00596757
0.00600349
0.00608797
0.00640525
0.00689204
0.00720573
0.00745494
0.00835433
0.0141731
0.0159686
0.0157792
0.0153636
0.014983
0.0152467
0.015971
0.0173319
0.00576976
0.00579826
0.00585027
0.00587004
0.00590099
0.00592236
0.00593335
0.0059637
0.0059947
0.00608256
0.00639136
0.00689386
0.0072114
0.00747283
0.0084611
0.0131268
0.015061
0.0156907
0.0154864
0.0151809
0.0152918
0.0158716
0.0170801
0.00576122
0.00578979
0.00583724
0.0058651
0.00589605
0.0059111
0.00592075
0.00595437
0.00599166
0.0060773
0.00636971
0.00689402
0.00723784
0.00750471
0.00852381
0.0122349
0.0140677
0.0151459
0.0152907
0.0151317
0.0152333
0.0156229
0.0164514
0.00574397
0.00578451
0.00581845
0.0058647
0.00588475
0.00591263
0.00591619
0.00594045
0.00599334
0.00607072
0.00634429
0.00688475
0.00725977
0.00756865
0.00859774
0.0116758
0.0132835
0.0143879
0.0146842
0.014774
0.0150536
0.0154164
0.0160025
0.00571933
0.00578056
0.00581184
0.00585672
0.005873
0.00590743
0.00591551
0.00593526
0.00598948
0.0060632
0.00631678
0.00687487
0.00725364
0.00762409
0.00864211
0.0111883
0.012809
0.0138144
0.0141865
0.0144101
0.0147964
0.0153602
0.0157217
0.00571032
0.00576112
0.00581399
0.00583811
0.0058678
0.00589629
0.00591274
0.00593585
0.00598161
0.00605285
0.00628608
0.00687404
0.00724979
0.00768767
0.00874592
0.0108517
0.0124053
0.0134446
0.01384
0.0141661
0.0146118
0.0152564
0.0156915
0.00570912
0.00573125
0.00580731
0.0058113
0.00585313
0.00588553
0.00590356
0.00592955
0.00597192
0.00604116
0.00625452
0.00684339
0.00724689
0.00777521
0.00882336
0.010774
0.012303
0.0132195
0.0136577
0.0139735
0.0145321
0.0151647
0.0156807
0.00569647
0.00572134
0.00579164
0.00580173
0.0058285
0.0058723
0.00589094
0.00591634
0.00595811
0.00602642
0.0062214
0.00679219
0.00725103
0.00775134
0.00894789
0.0106563
0.0124069
0.0130982
0.0134877
0.0139088
0.0143765
0.0151371
0.0157013
0.00565908
0.00572535
0.00577271
0.0058042
0.00579459
0.00585752
0.00587681
0.0058995
0.00594255
0.00601063
0.00618894
0.00672733
0.0071984
0.00774058
0.00909062
0.0108512
0.0124503
0.0131249
0.0134809
0.0139522
0.0144461
0.015256
0.015827
0.00564048
0.00571181
0.00574935
0.00579094
0.00578137
0.00583864
0.00585821
0.00588107
0.00592327
0.0059907
0.00615495
0.00664914
0.00719976
0.00774706
0.00923716
0.0113164
0.0126822
0.0134657
0.0139143
0.0143516
0.0145878
0.0152147
0.0158634
0.00560466
0.0056909
0.00572505
0.00577091
0.00578181
0.00581758
0.00583768
0.00586237
0.00590306
0.00596934
0.00612163
0.00657075
0.00713611
0.0076908
0.0094091
0.0115523
0.0131952
0.0137215
0.0140537
0.0147368
0.01524
0.0157105
0.0164173
0.00555061
0.00566157
0.00569351
0.00574238
0.005762
0.00579009
0.00581113
0.00583728
0.00587666
0.00594244
0.00608525
0.00649061
0.0070018
0.00769475
0.00963314
0.012366
0.014173
0.0144856
0.0147936
0.0150828
0.0156318
0.0165244
0.0172071
0.00554999
0.00562797
0.00565999
0.0057106
0.00573484
0.00575992
0.00578236
0.00580968
0.00584841
0.00591369
0.00604861
0.00641201
0.00694389
0.00777973
0.00939014
0.01277
0.0147301
0.015409
0.0154675
0.0158661
0.0162958
0.0169578
0.0177938
0.0055188
0.00558528
0.00561957
0.00567039
0.00569705
0.00572143
0.00574524
0.0057729
0.00581153
0.00587679
0.00600545
0.00632764
0.0069462
0.00777809
0.00922396
0.0127258
0.0160363
0.0165745
0.0165552
0.0168283
0.0173882
0.0179816
0.0188997
0.00547651
0.00553834
0.00557643
0.00562757
0.00565538
0.00568043
0.00570551
0.00573379
0.00577251
0.00583735
0.00596058
0.00624815
0.00685755
0.00774586
0.00915561
0.0132837
0.0170733
0.0177039
0.0175458
0.0177916
0.0184034
0.0190927
0.0197588
0.00542062
0.00548024
0.00552186
0.00557361
0.00560192
0.00562831
0.00565436
0.00568308
0.00572193
0.00578594
0.00590378
0.00616188
0.00674146
0.00750724
0.00896886
0.0119597
0.0185683
0.019115
0.0189514
0.019271
0.0194143
0.0198111
0.0208542
0.0053596
0.00541925
0.00546373
0.00551694
0.00554541
0.00557371
0.00560072
0.00563038
0.0056691
0.00573165
0.00584394
0.00607549
0.00659835
0.00746556
0.00917528
0.0122651
0.0203533
0.021232
0.0209562
0.0210994
0.0214502
0.0211592
0.0216006
0.0052853
0.00534492
0.00539058
0.00544541
0.00547381
0.00550388
0.00553157
0.00556227
0.00560032
0.00566012
0.00576523
0.00597075
0.0064362
0.00727322
0.00946239
0.0134651
0.0221771
0.0246324
0.0241883
0.0241904
0.0240354
0.023213
0.0251015
0.00520737
0.00526914
0.00531445
0.00537134
0.00540008
0.00543204
0.00546061
0.00549241
0.00553008
0.0055863
0.00568339
0.00586415
0.00627984
0.00686577
0.00886359
0.0121474
0.0226861
0.0261953
0.0271708
0.027604
0.0272261
0.026832
0.0292466
0.00511335
0.00517576
0.00521965
0.00527759
0.00530675
0.00533962
0.00536861
0.00540133
0.00543794
0.00548857
0.00557591
0.00573089
0.00607401
0.00669057
0.00872637
0.0132611
0.0241003
0.0305162
0.0308714
0.0311831
0.0309038
0.0294466
0.0329157
0.00501688
0.00508192
0.00512507
0.00518295
0.00521318
0.00524686
0.00527647
0.00530991
0.0053465
0.00539176
0.00546903
0.00560439
0.00586799
0.00660163
0.00841888
0.0122675
0.0236239
0.0327775
0.0359305
0.0376413
0.036517
0.0344025
0.0357332
0.00489909
0.00496447
0.00500745
0.00506261
0.00509364
0.00512684
0.00515597
0.0051892
0.00522454
0.00526318
0.00532847
0.00544763
0.00565006
0.00623472
0.00775145
0.0129349
0.0223632
0.0337822
0.0390069
0.042102
0.0445749
0.0427381
0.0478045
0.00478173
0.0048492
0.00489455
0.00494522
0.00497749
0.00501003
0.00503928
0.00507266
0.00510816
0.00514152
0.00519561
0.00529996
0.00545372
0.00584685
0.00728637
0.0120392
0.0226168
0.0315935
0.0392074
0.0456068
0.0503812
0.054017
0.0615754
0.00463605
0.0047029
0.00475027
0.00479403
0.00482626
0.00485737
0.00488408
0.0049157
0.0049493
0.00497863
0.00502009
0.0051047
0.00522332
0.00547579
0.00645315
0.0103963
0.0202571
0.0298917
0.038389
0.045492
0.0524694
0.0585545
0.0665971
0.00449756
0.00456562
0.00461719
0.0046536
0.00468598
0.00471552
0.0047418
0.00477281
0.00480532
0.00483357
0.00486498
0.00493079
0.00502174