/*--------------------------------*- C++ -*----------------------------------*\
  =========                 |
  \\      /  F ield         | OpenFOAM: The Open Source CFD Toolbox
   \\    /   O peration     | Website:  https://openfoam.org
    \\  /    A nd           | Version:  7
     \\/     M anipulation  |
\*---------------------------------------------------------------------------*/
FoamFile
{
    version     2.0;
    format      ascii;
    class       volScalarField;
    location    "50";
    object      nut;
}
// * * * * * * * * * * * * * * * * * * * * * * * * * * * * * * * * * * * * * //

dimensions      [0 2 -1 0 0 0 0];

internalField   nonuniform List<scalar> 
12842
(
0.00181118
0.00179701
0.00177985
0.00177347
0.00176328
0.00175869
0.00176031
0.00176221
0.00176479
0.00176299
0.00176343
0.00176315
0.00176848
0.00177342
0.000937291
0.000512487
0.0003241
0.000227628
0.000170605
0.000134105
0.000109174
9.21765e-05
8.02246e-05
0.00180286
0.00180194
0.00178952
0.00178353
0.001763
0.00175592
0.00175502
0.00175586
0.00176074
0.00176181
0.00176399
0.00176372
0.00176907
0.00177451
0.000924283
0.000507122
0.000321362
0.000226261
0.000169931
0.000133993
0.000109195
9.2727e-05
8.05273e-05
0.00180985
0.00178054
0.00178292
0.00179804
0.00177812
0.00176209
0.00175168
0.001753
0.00175603
0.00175831
0.00176243
0.00176431
0.00176916
0.00177606
0.000907301
0.000501165
0.000319176
0.000225647
0.000169869
0.000134241
0.000109931
9.41799e-05
8.14037e-05
0.00180918
0.00178754
0.00176364
0.00178232
0.00177966
0.00176998
0.00175306
0.00175364
0.00175627
0.0017557
0.00176088
0.00176408
0.00176919
0.00177736
0.000883792
0.000491867
0.000314752
0.000223803
0.00016919
0.000134046
0.000109992
9.53841e-05
8.29347e-05
0.00180855
0.00178515
0.00176729
0.00177637
0.00177491
0.0017701
0.00175511
0.00175352
0.00175385
0.00175602
0.0017595
0.00176422
0.00176926
0.00177983
0.000863337
0.000484999
0.000313141
0.000223762
0.00017027
0.000135329
0.00011144
9.72732e-05
8.47759e-05
0.00180755
0.00178788
0.00176912
0.00177223
0.0017743
0.00177056
0.00175479
0.00175653
0.00175389
0.0017549
0.00175906
0.00176418
0.0017692
0.00173919
0.000847882
0.000479187
0.000312101
0.000224266
0.000171584
0.000137241
0.00011319
9.92579e-05
8.68607e-05
0.00180442
0.00178124
0.00176589
0.00176749
0.00177177
0.00177103
0.00175541
0.0017571
0.00175394
0.00175571
0.00175824
0.00176405
0.00177003
0.0017378
0.00085013
0.000482971
0.000317295
0.000230228
0.000176249
0.000141856
0.000116907
0.000102694
8.99817e-05
0.00180586
0.00178362
0.00177088
0.00176671
0.00176908
0.00176702
0.00175594
0.00175937
0.00175428
0.00175561
0.00175834
0.00176392
0.00177181
0.00171374
0.000850182
0.000489681
0.000323956
0.000236244
0.000181404
0.000146479
0.000120815
0.000106251
9.32172e-05
0.00180093
0.00177629
0.00176445
0.00176483
0.00177032
0.00176567
0.00175559
0.00175749
0.001755
0.00175648
0.00175769
0.00176331
0.0017744
0.00170007
0.000855568
0.000500643
0.000335147
0.000246171
0.000188838
0.000153122
0.000126493
0.0001116
9.75613e-05
0.0018036
0.00178174
0.00176592
0.00176413
0.00176902
0.00176266
0.00175668
0.00175671
0.001755
0.00175609
0.00175751
0.00176371
0.00177911
0.00172024
0.000866036
0.000511021
0.000343991
0.000253727
0.000195113
0.000158575
0.0001311
0.000115972
0.000101121
0.00179909
0.00177429
0.00176339
0.00176267
0.00176733
0.00176153
0.00175507
0.0017551
0.00175384
0.00175635
0.00175646
0.00176921
0.00179305
0.00170242
0.000866513
0.000518814
0.000352639
0.000261169
0.000200947
0.000163781
0.000135557
0.0001201
0.00010458
0.00179805
0.00177856
0.00176288
0.00176192
0.00176662
0.00175967
0.0017558
0.0017533
0.00175211
0.00175559
0.00175894
0.00178421
0.00182498
0.00169073
0.000873082
0.000531232
0.000364872
0.000270819
0.000208333
0.000169695
0.000140284
0.000124195
0.000107984
0.00179755
0.00177295
0.00176163
0.00176024
0.00176481
0.00175789
0.0017547
0.00175049
0.00175138
0.00175396
0.00176504
0.00180953
0.00186189
0.00168993
0.000890542
0.000550492
0.000379062
0.000280838
0.000215855
0.00017576
0.000145195
0.000128355
0.000111369
0.00179496
0.00177286
0.00176174
0.00175931
0.00176357
0.00175714
0.00175418
0.00174971
0.00175044
0.00175496
0.00178206
0.00184151
0.00190989
0.00169609
0.000916809
0.00057396
0.00039655
0.000293126
0.000224419
0.000182303
0.000150043
0.00013222
0.000114568
0.00179404
0.00177012
0.0017614
0.00175745
0.0017614
0.00175586
0.00175316
0.00174673
0.00174877
0.00176046
0.00180498
0.00188139
0.00196093
0.001726
0.000958379
0.00060383
0.000414291
0.000304653
0.000232968
0.000188721
0.00015516
0.000136148
0.000117791
0.00179479
0.00176705
0.0017603
0.00175642
0.00176039
0.0017554
0.00175293
0.00174704
0.00175476
0.00178143
0.0018399
0.00192807
0.00202023
0.00177182
0.00100297
0.000635418
0.000436187
0.000319001
0.000242346
0.000195738
0.000160321
0.000140057
0.000121117
0.0017909
0.0017638
0.00176044
0.00175437
0.00175844
0.00175455
0.00175281
0.00174904
0.00176198
0.00180838
0.00187718
0.00198001
0.00207258
0.0018507
0.00106704
0.000675091
0.000457968
0.000332906
0.000252574
0.000202846
0.000166064
0.000144303
0.000124746
0.00179431
0.00176123
0.00175906
0.00175349
0.00175763
0.00175466
0.00175271
0.00176252
0.00178961
0.00184935
0.00192477
0.00203087
0.002116
0.00194178
0.00113056
0.000717874
0.000487225
0.000350741
0.000263722
0.00021111
0.000172492
0.000149062
0.000128838
0.00179095
0.00175648
0.00175724
0.00175139
0.00175607
0.00175536
0.00175509
0.00177808
0.00181708
0.00188631
0.00197053
0.00207471
0.00214004
0.00206623
0.00121982
0.000771315
0.000515833
0.000369407
0.000277085
0.000220063
0.000179996
0.000154773
0.000133947
0.00179236
0.00175332
0.00175399
0.00175155
0.00175595
0.00175591
0.00176503
0.00181655
0.00186239
0.00193123
0.00200984
0.00210126
0.00215541
0.00219177
0.00130599
0.000831037
0.000556718
0.000392969
0.000292283
0.00023112
0.000189376
0.000161557
0.0001403
0.0017929
0.00174933
0.00175226
0.00174934
0.00175504
0.00175811
0.00177628
0.00184662
0.00189753
0.00196919
0.00204182
0.00211873
0.00215189
0.00217882
0.00141856
0.000903203
0.000597886
0.00042057
0.000311257
0.000243667
0.000200314
0.000169652
0.000147857
0.00179176
0.00174586
0.00174724
0.00175253
0.00175952
0.00176745
0.00180986
0.00189457
0.00194259
0.0019983
0.00206058
0.00212035
0.0021468
0.00216902
0.00154929
0.000999086
0.000661518
0.000454784
0.000334175
0.000259685
0.000213014
0.000180019
0.00015748
0.00179318
0.00174137
0.00174268
0.00175182
0.00176655
0.00178703
0.00184546
0.00193058
0.00196848
0.0020215
0.00207466
0.00211585
0.00212964
0.00215194
0.00166461
0.0010966
0.000726957
0.000499023
0.000361223
0.000277469
0.00022801
0.000191751
0.00016868
0.00179258
0.00173908
0.00173974
0.00175471
0.00177681
0.00182181
0.0018971
0.001976
0.00200087
0.00203902
0.00207561
0.00209913
0.00211211
0.00213103
0.00176879
0.00122671
0.000826568
0.000550289
0.000394851
0.000300908
0.000244311
0.00020677
0.000183673
0.00179321
0.00173585
0.00173688
0.00176285
0.0018018
0.00186045
0.00193745
0.00199534
0.00200896
0.00203974
0.00206621
0.00207758
0.00209045
0.00211404
0.001965
0.0013843
0.000938762
0.00062278
0.000436785
0.0003276
0.000265314
0.00022494
0.000200321
0.0017934
0.00173332
0.00173593
0.0017854
0.00183932
0.00189923
0.00195825
0.00200497
0.00200877
0.00203412
0.00205106
0.00205446
0.00207176
0.00209103
0.00204493
0.00160683
0.0011171
0.000706966
0.00048188
0.000356395
0.000285599
0.000244317
0.00021779
0.00179171
0.00173255
0.00173908
0.00182329
0.0018845
0.00192088
0.00197145
0.00200496
0.0020042
0.00202349
0.00203285
0.00203216
0.00205486
0.00207796
0.00201897
0.00186619
0.00135864
0.000828428
0.000537722
0.000387511
0.000308224
0.000264526
0.000237473
0.00179182
0.00173409
0.00174961
0.00186678
0.00192183
0.00194049
0.00197411
0.00199913
0.00199469
0.00200902
0.00201279
0.00201084
0.00203941
0.00205786
0.0019988
0.00187879
0.00175129
0.000972095
0.000594994
0.000418034
0.000334369
0.000296701
0.000265707
0.00179166
0.00173578
0.00177039
0.0019101
0.00194827
0.00194698
0.00196913
0.00198634
0.001983
0.00199251
0.00199312
0.00199286
0.00202838
0.00204708
0.00197578
0.00186553
0.00173091
0.00116058
0.000652178
0.000455042
0.000374162
0.000333777
0.000303804
0.00179109
0.00173612
0.00180012
0.00194715
0.00196191
0.00195037
0.00196149
0.00197196
0.00196969
0.00197455
0.00197428
0.00197746
0.00201827
0.00203416
0.00196118
0.00182071
0.0016661
0.00133451
0.000710347
0.000498241
0.000415812
0.000390591
0.000384555
0.001789
0.00174958
0.0018292
0.00197437
0.00196432
0.00194777
0.00194779
0.00195506
0.00195489
0.00195686
0.00195696
0.00196449
0.0020107
0.00202256
0.00193354
0.0018021
0.00165046
0.00144157
0.000747723
0.000529785
0.00046142
0.000476506
0.000520852
0.00179277
0.00176967
0.00185614
0.00198974
0.00196224
0.00194218
0.00193577
0.00193991
0.00194104
0.00193948
0.001942
0.00195552
0.00200674
0.00201854
0.00193215
0.00177157
0.00157629
0.00138809
0.000742403
0.000552797
0.000541579
0.000637977
0.000549107
0.00179212
0.00179975
0.00188121
0.00199685
0.00195164
0.00193353
0.00192146
0.00192548
0.00192641
0.00192362
0.00192847
0.00194716
0.00200039
0.00200485
0.00189429
0.00172604
0.00155123
0.0011963
0.000727528
0.000613193
0.000672397
0.000573252
0.000497409
0.00179274
0.00183562
0.00189452
0.00199823
0.001944
0.00192599
0.00191008
0.00191294
0.00191424
0.00190908
0.0019178
0.00194323
0.0020015
0.00200685
0.00189716
0.00171547
0.00147856
0.00106675
0.000736846
0.000702697
0.000640168
0.000527316
0.000475181
0.00179727
0.00186918
0.00190829
0.00199212
0.00193235
0.00191474
0.00189942
0.00190368
0.00190178
0.00189639
0.00190827
0.00193905
0.00199639
0.00199323
0.00186143
0.00165071
0.00144112
0.000951913
0.000767455
0.000742735
0.000591047
0.000496976
0.000449687
0.00180965
0.00190325
0.00191271
0.0019858
0.00192228
0.00190783
0.0018912
0.00189405
0.00189253
0.00188533
0.0019012
0.00193832
0.00199973
0.00199525
0.00185914
0.00162822
0.00130797
0.000875593
0.000764404
0.000693587
0.000570329
0.000488938
0.000465303
0.00182611
0.00192644
0.00191922
0.00197622
0.00191425
0.00189878
0.00188412
0.00188793
0.00188311
0.00187603
0.00189534
0.00193804
0.00199705
0.00198386
0.00181854
0.0015803
0.00114516
0.000833694
0.000772957
0.000675889
0.00055879
0.000493585
0.000496085
0.00184741
0.00194634
0.00191932
0.00196551
0.00190623
0.00189204
0.0018811
0.00188144
0.00187647
0.00186823
0.00189098
0.00193902
0.00199974
0.00198124
0.0018078
0.00151971
0.00105944
0.000816531
0.000768847
0.000672102
0.000551065
0.000505059
0.000531977
0.00186781
0.00195343
0.00192396
0.00195627
0.00189929
0.00188533
0.00187447
0.00187679
0.00187029
0.00186192
0.00188799
0.00194217
0.00199983
0.00196822
0.00176654
0.00138329
0.000989068
0.000818571
0.000766473
0.000674077
0.000555824
0.000570293
0.000625765
0.00188711
0.00195857
0.00192249
0.00194412
0.00189343
0.00188035
0.00187324
0.00187033
0.00186462
0.00185693
0.00188586
0.00194441
0.0020002
0.00196525
0.00174206
0.00138376
0.00101467
0.000826348
0.000864377
0.00067404
0.000599017
0.000589408
0.000676709
0.00190088
0.00195663
0.00192349
0.00193384
0.00188788
0.00187196
0.00186955
0.00186765
0.00186005
0.00185315
0.00188463
0.00194995
0.00200213
0.00194077
0.00169919
0.0013283
0.00100472
0.000877413
0.000868634
0.000714249
0.000604302
0.000606591
0.000766442
0.00190991
0.00195063
0.00192303
0.0019214
0.00187917
0.00186572
0.0018626
0.00185843
0.00185476
0.00185028
0.00188448
0.00195349
0.00199915
0.00194067
0.00166343
0.00134231
0.00105605
0.000996501
0.000908119
0.000720126
0.000613256
0.000700544
0.00106978
0.00190976
0.00193871
0.00191478
0.0019068
0.00187414
0.0018617
0.00185575
0.00184794
0.00185038
0.00184857
0.0018843
0.00196087
0.00200219
0.00190636
0.00163157
0.0013286
0.00111694
0.00109506
0.00087708
0.000716491
0.000639999
0.000815364
0.000919439
0.00190948
0.00192796
0.00190784
0.0018956
0.00186209
0.00185033
0.00184717
0.00184104
0.00184721
0.00184701
0.00188545
0.00196475
0.00199466
0.00190193
0.00158394
0.00132181
0.00121039
0.00104328
0.000851663
0.000682612
0.000637946
0.000729689
0.000850925
0.00190191
0.00191173
0.00189827
0.00188514
0.00185855
0.00184294
0.00184084
0.00183671
0.00184577
0.00184666
0.00188621
0.00197418
0.00199793
0.00186879
0.00156091
0.001295
0.00120353
0.000995673
0.000818959
0.00066105
0.000623687
0.000739012
0.00093992
0.00189805
0.00189404
0.00188462
0.00187038
0.00184631
0.00183474
0.00183083
0.00183008
0.00184507
0.00184597
0.00188792
0.00197724
0.00198713
0.00184862
0.00151306
0.00126844
0.00114233
0.000937625
0.000779634
0.000658119
0.0006227
0.000671248
0.000880054
0.00188793
0.00187641
0.00187094
0.00185908
0.00183766
0.0018294
0.00182346
0.00182728
0.00184486
0.00184635
0.0018895
0.00198768
0.00198633
0.00182352
0.00146404
0.00119918
0.00107507
0.000911246
0.000771487
0.000628028
0.000611604
0.000650676
0.000964669
0.00188138
0.00186007
0.00185838
0.00185181
0.0018343
0.00182324
0.00182077
0.00182653
0.00184465
0.00184639
0.00189113
0.00199065
0.00197595
0.00179053
0.00141158
0.00115722
0.0010068
0.000889805
0.000736898
0.00062121
0.000591276
0.000714184
0.00097172
0.00187581
0.0018503
0.00184785
0.00184398
0.00183145
0.00182273
0.00182055
0.0018271
0.00184452
0.00184717
0.00189387
0.00199871
0.00196777
0.00176144
0.00137322
0.00111143
0.000953436
0.000869993
0.000715728
0.000620615
0.000585315
0.000755312
0.00090783
0.00186989
0.00184198
0.00183959
0.00183985
0.00182991
0.00182356
0.00182159
0.00182681
0.00184415
0.00184774
0.00189449
0.0020048
0.00195715
0.00173432
0.001328
0.00106594
0.000918932
0.000864525
0.000737525
0.000625239
0.000572434
0.000761296
0.000818165
0.00187239
0.00184089
0.00183467
0.00183813
0.00183003
0.00182652
0.00182247
0.00182785
0.00184433
0.00184842
0.00189749
0.00200739
0.00194803
0.00170069
0.00129122
0.00100834
0.000890651
0.000855067
0.000766256
0.00064782
0.000577817
0.00078958
0.000761705
0.00187139
0.00184123
0.00183266
0.00183817
0.00183081
0.00182922
0.00182362
0.00182858
0.00184423
0.00184909
0.0018981
0.00201385
0.00193612
0.00166726
0.00122911
0.000947513
0.000866947
0.000849236
0.000797139
0.000672781
0.000612281
0.000734679
0.000740065
0.00187548
0.00184371
0.00183201
0.00183829
0.00183249
0.00183163
0.00182477
0.00183002
0.00184419
0.00184928
0.00189929
0.0020169
0.00193196
0.00162802
0.00115599
0.000896728
0.000840728
0.000851339
0.00081492
0.00070324
0.00063939
0.000678519
0.000693625
0.0018755
0.00184594
0.00183427
0.00183797
0.00183372
0.00183357
0.00182602
0.00183149
0.00184398
0.00184972
0.00190039
0.00202057
0.0019176
0.00157408
0.0010798
0.000857713
0.000829207
0.000863789
0.000824017
0.000741348
0.000663883
0.000649329
0.000605105
0.00187668
0.00184807
0.00183631
0.00183892
0.00183599
0.0018354
0.00182733
0.00183292
0.0018435
0.00184958
0.00190102
0.00202463
0.00190552
0.00152441
0.00101066
0.000807035
0.000825918
0.000850753
0.000824347
0.000763734
0.000674179
0.00060437
0.000521768
0.0018764
0.00184903
0.0018404
0.00184038
0.00183839
0.00183715
0.00182909
0.00183448
0.00184308
0.00184934
0.00190171
0.00202542
0.00188464
0.00145825
0.000952829
0.00074795
0.00080547
0.000808145
0.000787403
0.000753006
0.00065437
0.00054091
0.000446747
0.00187639
0.00185034
0.00184381
0.00184293
0.00184075
0.00183875
0.00183091
0.00183562
0.00184271
0.00184891
0.00190205
0.00202523
0.00187371
0.00141155
0.000902547
0.000690506
0.000764978
0.00072113
0.000705149
0.000701222
0.00060201
0.00049685
0.000402652
0.00187728
0.00185081
0.00184748
0.00184528
0.00184278
0.00184031
0.00183276
0.00183657
0.00184247
0.00184836
0.0019026
0.00202463
0.0018619
0.00137297
0.000847745
0.000640212
0.000713064
0.000637999
0.000624517
0.000636164
0.000543893
0.000454072
0.000365956
0.00187786
0.00185191
0.00185092
0.00184799
0.0018446
0.00184184
0.00183481
0.0018374
0.00184231
0.00184782
0.00190286
0.0020243
0.00184921
0.0013306
0.000803373
0.000606036
0.000664444
0.000574307
0.000560041
0.000574514
0.000491766
0.000418477
0.000340411
0.00187954
0.00185284
0.00185364
0.00185017
0.0018455
0.00184298
0.00183643
0.00183784
0.00184219
0.0018473
0.00190367
0.00202397
0.00183431
0.00129647
0.000785486
0.000586166
0.000615375
0.000522245
0.000507066
0.000521652
0.000452003
0.000390855
0.000323086
0.00188071
0.00185325
0.00185635
0.00185184
0.00184671
0.0018441
0.00183824
0.00183804
0.00184203
0.00184682
0.00190403
0.00202306
0.0018245
0.00128231
0.000786636
0.000577162
0.000568862
0.000483263
0.000470325
0.000480187
0.000424164
0.000372545
0.000318489
0.00188132
0.00185415
0.00185758
0.00185312
0.00184647
0.00184429
0.00183924
0.00183818
0.00184177
0.00184648
0.00190498
0.00201626
0.00181072
0.00128334
0.000807072
0.00058189
0.000529773
0.0004529
0.000443309
0.000450352
0.000407486
0.000369322
0.00032405
0.00188167
0.00185347
0.00185927
0.00185301
0.00184686
0.00184457
0.00184024
0.00183757
0.00184143
0.00184614
0.00190578
0.0020061
0.00181083
0.00130191
0.000842767
0.000601078
0.000497878
0.000441372
0.000430951
0.000431963
0.000400207
0.000366134
0.000290078
0.00188118
0.00185359
0.00185915
0.00185344
0.00184665
0.0018438
0.001841
0.00183745
0.00184094
0.00184602
0.00190577
0.00199321
0.00180731
0.00132602
0.00088913
0.000628184
0.000476957
0.000438892
0.000430966
0.000432308
0.000403909
0.000390782
0.000237709
0.00187904
0.00185197
0.00185966
0.00185202
0.00184626
0.00184327
0.00184065
0.00183661
0.00184045
0.00184575
0.00190551
0.00198146
0.00180956
0.00136158
0.000950706
0.000669346
0.000464089
0.000451347
0.00043743
0.000438607
0.000411794
0.000342449
0.000214904
0.00187756
0.00185079
0.00185892
0.00185119
0.0018458
0.00184188
0.00184124
0.00183601
0.00183976
0.00184564
0.00190427
0.00196802
0.00181558
0.00140215
0.00101627
0.00071943
0.000465424
0.000473952
0.000475922
0.000456078
0.000435824
0.00031154
0.000200607
0.0018747
0.0018497
0.00185849
0.00184989
0.0018461
0.00184104
0.0018403
0.0018353
0.00183924
0.00184532
0.0019018
0.00195883
0.0018211
0.00144713
0.00108027
0.000766402
0.000476455
0.000527034
0.000522165
0.000484638
0.000463094
0.000296436
0.000197368
0.00187022
0.00184645
0.00185665
0.00184776
0.00184442
0.00183926
0.00183976
0.0018348
0.00183845
0.00184498
0.00190022
0.00195222
0.00183211
0.0014866
0.0011534
0.000825335
0.000490327
0.000569874
0.00055863
0.000518842
0.000440023
0.000297292
0.000200169
0.0018679
0.00184557
0.00185509
0.00184589
0.0018443
0.00183799
0.00183844
0.00183371
0.00183805
0.00184476
0.00189878
0.00194934
0.00184397
0.0015429
0.00122447
0.000878971
0.000519395
0.000600873
0.000601228
0.000542874
0.000432646
0.000308784
0.000217584
0.00186161
0.00184214
0.00185329
0.00184361
0.00184346
0.00183628
0.00183766
0.00183301
0.00183678
0.00184359
0.00189774
0.00194677
0.00186194
0.00159086
0.00127509
0.000919173
0.000551221
0.000619443
0.000631375
0.000535127
0.000435132
0.0003301
0.000230016
0.00185127
0.00183738
0.00184775
0.00183907
0.00183858
0.0018337
0.00183304
0.00183184
0.00183677
0.00184334
0.00189661
0.00194404
0.00187941
0.00163048
0.00132036
0.000944912
0.000573619
0.00064766
0.000651879
0.000539401
0.000456411
0.000360845
0.000253909
0.0018437
0.00183241
0.00184159
0.00183473
0.00183332
0.00182902
0.00182823
0.00182986
0.00183426
0.00184197
0.00189561
0.00194836
0.00189403
0.00165843
0.00135243
0.000970868
0.000593058
0.000661078
0.000665243
0.000566241
0.000470925
0.000388482
0.000276421
0.00183324
0.0018258
0.00183496
0.0018284
0.00182898
0.00182613
0.00182515
0.00182743
0.00183201
0.00184116
0.00189497
0.00195072
0.00190734
0.00168553
0.00137439
0.000987208
0.000618784
0.000672428
0.000674656
0.000597107
0.000512051
0.000429779
0.000311966
0.00182666
0.001824
0.00182821
0.00182583
0.00182422
0.00182341
0.00182334
0.00182577
0.00183082
0.00184006
0.00189425
0.00195073
0.0019167
0.00170185
0.00139025
0.00100181
0.000640879
0.000694378
0.000678756
0.000638824
0.000554796
0.000470732
0.000352795
0.00182109
0.00182262
0.0018263
0.00182491
0.0018227
0.00182163
0.00182322
0.00182514
0.00182971
0.00184029
0.00189377
0.00194905
0.00192248
0.00171789
0.00139994
0.00101049
0.000657647
0.000710301
0.000674782
0.000641159
0.000572344
0.000520114
0.000403118
0.00182367
0.00182215
0.00182573
0.0018229
0.00182193
0.00182138
0.00182315
0.0018253
0.0018297
0.0018403
0.0018935
0.00195047
0.00192471
0.00172616
0.00140574
0.00101873
0.000679412
0.000722297
0.000675921
0.000636443
0.000580252
0.000527433
0.000461197
0.00182194
0.00182005
0.00182322
0.0018212
0.00182139
0.00182032
0.00182279
0.00182519
0.00183003
0.00183994
0.00189349
0.00195065
0.0019276
0.00173009
0.00141822
0.00102803
0.00069953
0.000729677
0.000683459
0.000634552
0.00057669
0.000536971
0.000504224
0.00182166
0.00181826
0.00182275
0.00182188
0.00182085
0.00182096
0.00182271
0.00182409
0.00182917
0.00183995
0.00189361
0.00195146
0.0019289
0.00173492
0.00141505
0.00102854
0.000714626
0.000745484
0.000691181
0.00063483
0.000578619
0.000546848
0.000513034
0.00181819
0.00181832
0.00182088
0.00182191
0.00182094
0.00182124
0.0018213
0.00182291
0.00182917
0.00183964
0.00189351
0.00194966
0.00193117
0.00173989
0.00142357
0.00103713
0.000729606
0.000747108
0.000694886
0.000637408
0.000584637
0.000559876
0.000520936
0.00181957
0.0018177
0.00182007
0.00182171
0.00182074
0.00182174
0.00182065
0.00182353
0.00182864
0.00184032
0.00189294
0.00194796
0.00193171
0.00173934
0.00142443
0.00105999
0.000753241
0.000747303
0.000698328
0.000636506
0.000588618
0.000566322
0.000527172
0.00181775
0.00181903
0.00182075
0.00182082
0.00182168
0.00182033
0.0018218
0.0018238
0.00182844
0.00184031
0.00189213
0.00194848
0.00193325
0.00174606
0.00142596
0.00111994
0.000784557
0.000762938
0.000693706
0.000640295
0.000591404
0.000567045
0.00053171
0.00181847
0.0018167
0.00182069
0.00181965
0.0018192
0.00182107
0.00182201
0.00182188
0.00182863
0.00184038
0.00189225
0.00194767
0.00193464
0.00174104
0.00143473
0.00118222
0.000831838
0.000775101
0.000687454
0.00063533
0.000595433
0.000568061
0.000536545
0.00181978
0.00181607
0.00182076
0.00182163
0.0018198
0.00182121
0.001822
0.00182203
0.00182861
0.00184063
0.00189202
0.00194748
0.00193371
0.00174701
0.00143665
0.00123627
0.000879699
0.000794281
0.000694849
0.000641172
0.000601611
0.000568289
0.00054306
0.00181697
0.0018185
0.0018217
0.00182183
0.00181921
0.00182119
0.00182116
0.00182205
0.00182776
0.00184087
0.00189264
0.00194902
0.0019338
0.00174462
0.00143721
0.0012823
0.000917156
0.00080958
0.000705532
0.000644399
0.000606475
0.000572661
0.000556276
0.00181704
0.00181659
0.00182123
0.00182097
0.00181997
0.00182129
0.00182048
0.0018225
0.00182821
0.00184043
0.00189344
0.00194828
0.00193769
0.00174606
0.00142638
0.00123949
0.000949049
0.000826859
0.000726599
0.000657368
0.000618146
0.000581224
0.000567112
0.00181787
0.00181653
0.00182234
0.00182035
0.00181979
0.00182073
0.00182133
0.00182164
0.00182763
0.00183951
0.00189481
0.00194927
0.00194168
0.00174854
0.00140113
0.00121507
0.000974457
0.000842079
0.000738698
0.000667488
0.00063409
0.000599486
0.000591453
0.00181527
0.00181522
0.00181962
0.00182048
0.00182116
0.00181992
0.00182112
0.00182136
0.00182834
0.00183908
0.00189605
0.00194913
0.00194258
0.00175309
0.00138458
0.00116731
0.000986734
0.000851738
0.000755686
0.00068301
0.000652213
0.000617058
0.000609285
0.0018165
0.00181484
0.00182025
0.00182103
0.0018208
0.00182035
0.001819
0.00182114
0.00182843
0.0018387
0.00189746
0.00195058
0.00194199
0.00175401
0.0013693
0.00113549
0.000996964
0.000875438
0.000774017
0.000696825
0.000671294
0.000643517
0.000645258
0.00181368
0.00181386
0.00181866
0.00181971
0.00182082
0.00181901
0.00181926
0.00182121
0.00182651
0.00183889
0.00189865
0.00195048
0.00194552
0.00175416
0.00135326
0.00110947
0.00101085
0.000897499
0.000788914
0.000721376
0.000694709
0.000676148
0.000677211
0.00181276
0.00181224
0.00181698
0.00182146
0.00181997
0.00182094
0.00181908
0.0018215
0.00182627
0.00183905
0.00189978
0.00194894
0.00194744
0.00175073
0.00134323
0.0011103
0.00103691
0.000921478
0.00081898
0.000748366
0.000714405
0.000703911
0.000720681
0.00181306
0.00181243
0.00181681
0.00182027
0.00181787
0.00181937
0.00181815
0.00182151
0.0018272
0.00183892
0.00190105
0.00195056
0.0019475
0.00175295
0.00133056
0.00110801
0.00105287
0.000941284
0.000846855
0.000784627
0.000745211
0.000739378
0.000768994
0.0018102
0.00181501
0.00181657
0.00182151
0.00181684
0.00182238
0.00181956
0.00182304
0.00182783
0.00183941
0.00190161
0.00195244
0.00195017
0.00174324
0.00132299
0.00110468
0.00106413
0.000965186
0.000881204
0.000813818
0.000770623
0.000779701
0.000827028
0.00181498
0.00181534
0.00181535
0.00182008
0.00181631
0.00182242
0.0018193
0.00182126
0.00182814
0.0018394
0.00190259
0.00195492
0.00194942
0.00174387
0.00130817
0.00110281
0.00108098
0.00100316
0.000935024
0.000863568
0.000810328
0.000809569
0.000845591
0.00181386
0.00181588
0.00181745
0.00181897
0.00181672
0.00181978
0.00182059
0.00182191
0.00182869
0.00183918
0.00190295
0.00196056
0.00194567
0.00172962
0.00132537
0.00111205
0.00110478
0.00104442
0.000979957
0.000901847
0.000838883
0.000829673
0.000854593
0.00181728
0.00181545
0.00181808
0.00181853
0.00181923
0.00181815
0.00181915
0.00182259
0.00182858
0.00183774
0.00190403
0.00196174
0.00194573
0.00172196
0.00133031
0.00113053
0.00115394
0.00110652
0.00104001
0.000956392
0.000887298
0.000851272
0.000871723
0.00181816
0.00181267
0.00181733
0.00181774
0.00182144
0.00181748
0.00181795
0.00182284
0.00182843
0.00183834
0.00190512
0.00196512
0.00194107
0.00171355
0.00129814
0.00115634
0.00118928
0.00115294
0.00108453
0.000984683
0.000913363
0.000863894
0.0008855
0.00182107
0.00181489
0.00181625
0.00181671
0.00181993
0.00181854
0.00181637
0.00182431
0.00182635
0.00183661
0.0019022
0.00196626
0.00194476
0.0017142
0.00132783
0.0011831
0.00119672
0.00120889
0.00113828
0.00103253
0.000967006
0.000908047
0.000921311
0.00181951
0.00181082
0.00181397
0.00181938
0.00181827
0.00181804
0.00181366
0.00182226
0.00182705
0.00183587
0.00189695
0.00196933
0.00195398
0.00174481
0.0013571
0.00121635
0.00120125
0.00123737
0.00117337
0.00107842
0.0010244
0.000968645
0.000963143
0.00181397
0.00181337
0.00181096
0.00182068
0.00181723
0.00182284
0.00181393
0.00181764
0.00182864
0.00183535
0.00189091
0.00196756
0.00196423
0.00175848
0.00139706
0.00128843
0.00122435
0.0012548
0.00119272
0.00112256
0.00109288
0.00105125
0.00103333
0.00180663
0.00181141
0.00181087
0.00181805
0.00181616
0.00182287
0.00181593
0.00181734
0.00182974
0.00183504
0.0018846
0.00196789
0.00196762
0.00179064
0.00145189
0.00136031
0.00129031
0.00129464
0.00123439
0.00118105
0.00117089
0.00115985
0.00113034
0.00180829
0.00180788
0.00181305
0.00181438
0.00181685
0.00182004
0.00181792
0.00181997
0.00182906
0.00183457
0.00187838
0.00197361
0.00197445
0.00183791
0.00153589
0.0014463
0.00136032
0.00137152
0.00130789
0.00126705
0.00126496
0.00127859
0.00125947
0.0018148
0.00180196
0.00181464
0.00180913
0.001815
0.0018203
0.00181827
0.00182086
0.00182793
0.00183414
0.00187259
0.00197301
0.00198426
0.00189475
0.00163523
0.00154678
0.00146865
0.00145824
0.00139888
0.00136814
0.00138211
0.00140553
0.00140378
0.00182009
0.00180357
0.00181552
0.00180999
0.00180965
0.00182057
0.00181861
0.00182061
0.00182705
0.00183375
0.0018676
0.0019687
0.00200088
0.00192795
0.00175842
0.00162268
0.00159356
0.00157213
0.0015096
0.00148308
0.00149216
0.00153938
0.00154513
0.00182033
0.00180964
0.00181561
0.00181566
0.00180197
0.00182224
0.00181894
0.00182009
0.0018263
0.00183343
0.00186333
0.00196111
0.00200076
0.00195882
0.00188634
0.00173926
0.00169313
0.00168419
0.0016415
0.00162478
0.00163554
0.00168535
0.00168911
0.0018189
0.00181287
0.00181454
0.00181836
0.00180356
0.00182163
0.00181903
0.00182066
0.00182598
0.00183315
0.00185994
0.0019508
0.002018
0.00199266
0.00199844
0.00189626
0.00180146
0.00179735
0.00179209
0.00179075
0.00177671
0.00180286
0.00180032
0.00180691
0.00181547
0.00181338
0.00181933
0.00181071
0.0018198
0.00181876
0.00182144
0.00182592
0.0018329
0.00185703
0.00193977
0.00201769
0.00201004
0.00210933
0.00200976
0.001964
0.00188498
0.00188141
0.0019341
0.00196187
0.00196865
0.00195909
0.00179543
0.00181691
0.00181276
0.00181917
0.00181428
0.0018187
0.00181835
0.00182173
0.00182573
0.00183278
0.00185493
0.00192956
0.00199822
0.00203984
0.00222206
0.00224507
0.00218825
0.00202228
0.00202315
0.00204062
0.0020836
0.00214743
0.00212814
0.0018039
0.00181692
0.00181305
0.00181844
0.00181714
0.00181801
0.00181773
0.00182138
0.00182532
0.00183255
0.00185292
0.00191858
0.00200146
0.00209532
0.00221764
0.00236834
0.00240243
0.00224223
0.00214506
0.00218099
0.00221941
0.00226976
0.00228465
0.00180651
0.00181572
0.00181358
0.0018176
0.00181901
0.00181761
0.00181693
0.00182045
0.00182465
0.0018323
0.00185141
0.00190834
0.00202078
0.00212275
0.0022289
0.0024503
0.00268989
0.00242037
0.00234719
0.00234016
0.00239903
0.00244941
0.00248173
0.0018076
0.0018136
0.00181335
0.00181672
0.00181921
0.0018169
0.00181588
0.00181916
0.00182375
0.00183168
0.00184952
0.001898
0.00201984
0.00215586
0.00230582
0.00265087
0.00292301
0.00264488
0.00249907
0.00248661
0.00257343
0.00265133
0.00266832
0.00180818
0.00181088
0.00181198
0.00181556
0.0018178
0.00181586
0.00181459
0.00181767
0.00182264
0.00183081
0.00184762
0.00188976
0.00200594
0.00211429
0.00231341
0.00250164
0.00328991
0.00288397
0.00271828
0.00272568
0.00272143
0.00276067
0.00286675
0.00180803
0.001808
0.00180969
0.00181415
0.00181528
0.00181441
0.00181309
0.001816
0.00182119
0.00182937
0.00184513
0.0018802
0.0019918
0.00214571
0.00239427
0.0027529
0.00364501
0.00323059
0.00299167
0.00295273
0.00299211
0.00294132
0.00294297
0.00180739
0.0018051
0.00180662
0.00181221
0.00181214
0.0018125
0.00181137
0.00181429
0.00181951
0.00182741
0.00184201
0.00187183
0.0019634
0.00213929
0.00258199
0.00303668
0.0042455
0.0037513
0.00345357
0.00342172
0.00338135
0.00322959
0.00338169
0.00180581
0.00180262
0.00180314
0.00181006
0.001809
0.00181045
0.00180972
0.00181236
0.00181758
0.00182486
0.00183794
0.00186364
0.00193408
0.00203148
0.00241986
0.00283765
0.00415593
0.00405456
0.00384044
0.00389026
0.00376327
0.00366379
0.0039478
0.00180379
0.00180032
0.00179936
0.00180732
0.00180576
0.00180789
0.0018079