/*--------------------------------*- C++ -*----------------------------------*\
  =========                 |
  \\      /  F ield         | OpenFOAM: The Open Source CFD Toolbox
   \\    /   O peration     | Website:  https://openfoam.org
    \\  /    A nd           | Version:  7
     \\/     M anipulation  |
\*---------------------------------------------------------------------------*/
FoamFile
{
    version     2.0;
    format      ascii;
    class       volScalarField;
    location    "50";
    object      omega;
}
// * * * * * * * * * * * * * * * * * * * * * * * * * * * * * * * * * * * * * //

dimensions      [0 0 -1 0 0 0 0];

internalField   nonuniform List<scalar> 
12842
(
3.14349
2.84705
2.65437
2.52808
2.44304
2.37727
2.33092
2.29516
2.26971
2.25081
2.23783
2.22799
2.22315
2.22534
2.23248
2.25063
2.27919
2.33455
2.40538
2.51604
2.59384
2.71039
2.77807
3.13006
2.82081
2.63583
2.50544
2.4331
2.37247
2.32958
2.29427
2.26839
2.24951
2.23618
2.22723
2.22309
2.22572
2.2339
2.25199
2.28292
2.3367
2.40985
2.52039
2.59471
2.70791
2.77308
3.11315
2.79759
2.60683
2.47435
2.3997
2.3508
2.31692
2.28733
2.26458
2.24638
2.2336
2.22498
2.22248
2.22569
2.23529
2.25526
2.29021
2.3464
2.42533
2.54003
2.61743
2.72559
2.78638
3.08257
2.77265
2.59131
2.46457
2.38669
2.33414
2.30885
2.28115
2.26084
2.24371
2.23222
2.22402
2.22206
2.22573
2.23605
2.25716
2.29404
2.35439
2.43266
2.55002
2.62329
2.73172
2.78817
3.06002
2.726
2.55804
2.43877
2.36473
2.31681
2.29095
2.27084
2.25652
2.23952
2.22862
2.22143
2.22126
2.22575
2.23775
2.26135
2.30201
2.36738
2.4495
2.56806
2.64492
2.75807
2.81296
3.03314
2.7021
2.52612
2.42571
2.35246
2.30521
2.28328
2.26029
2.24994
2.23607
2.22652
2.2202
2.22076
2.22569
2.23864
2.2637
2.30615
2.37479
2.45615
2.57525
2.65156
2.76948
2.82561
3.00499
2.66664
2.50019
2.39796
2.33257
2.28908
2.26784
2.25089
2.24263
2.23058
2.22295
2.21797
2.21979
2.22593
2.24047
2.26801
2.31352
2.3855
2.46983
2.59556
2.67998
2.81028
2.88403
2.98021
2.64377
2.47452
2.38576
2.32176
2.28254
2.26137
2.24212
2.23649
2.22648
2.22067
2.21669
2.21892
2.22589
2.24111
2.269
2.31562
2.38849
2.48106
2.61165
2.69839
2.83561
2.93603
2.95053
2.61508
2.45559
2.36296
2.30476
2.27014
2.25155
2.23673
2.23082
2.2214
2.21805
2.21536
2.21824
2.2262
2.2424
2.27152
2.31767
2.39062
2.48994
2.64435
2.75444
2.9192
3.0528
2.92427
2.58973
2.43443
2.35331
2.29741
2.26528
2.24618
2.23199
2.22713
2.21857
2.21674
2.21444
2.21758
2.22656
2.24264
2.2725
2.32033
2.40094
2.52865
2.68936
2.79667
3.00082
3.18102
2.89118
2.56294
2.41652
2.33441
2.28422
2.25596
2.24047
2.22917
2.22316
2.21603
2.21527
2.2133
2.2169
2.22668
2.24316
2.27651
2.32587
2.4109
2.55876
2.76527
2.92479
3.13617
3.34061
2.86492
2.5392
2.40026
2.32606
2.27821
2.25191
2.2361
2.22608
2.22142
2.21448
2.21375
2.2121
2.21625
2.22646
2.24421
2.27957
2.34521
2.46387
2.65695
2.85941
3.02867
3.27227
3.50689
2.83321
2.51609
2.38203
2.31016
2.26734
2.24415
2.23089
2.22357
2.21874
2.212
2.21122
2.21058
2.21577
2.2269
2.24908
2.29892
2.37618
2.50256
2.72212
2.97146
3.20063
3.42853
3.70001
2.80767
2.4959
2.36932
2.30314
2.26258
2.24064
2.22845
2.2221
2.21714
2.21061
2.20886
2.20914
2.21547
2.2273
2.25913
2.32835
2.43999
2.61217
2.84108
3.1045
3.35241
3.61219
3.89428
2.77947
2.47624
2.35199
2.28969
2.25353
2.23392
2.22355
2.21918
2.21362
2.20747
2.20568
2.20764
2.21541
2.23679
2.29788
2.39047
2.50121
2.67934
2.94494
3.23035
3.53086
3.79237
4.11342
2.75492
2.4597
2.34167
2.28362
2.24943
2.23066
2.22097
2.21719
2.21136
2.20582
2.20466
2.2073
2.21679
2.25562
2.33761
2.45344
2.60516
2.81719
3.06737
3.38917
3.71487
3.99697
4.3395
2.73133
2.44455
2.32645
2.27196
2.24158
2.22427
2.21561
2.2126
2.20604
2.20243
2.20297
2.20707
2.22589
2.30021
2.41202
2.53951
2.68106
2.90434
3.20505
3.51834
3.8959
4.20936
4.58209
2.70888
2.42972
2.31783
2.26639
2.2378
2.22075
2.21236
2.20954
2.20397
2.20216
2.20549
2.21486
2.25307
2.3508
2.47453
2.62423
2.8132
3.04693
3.32317
3.68506
4.08907
4.42557
4.83035
2.68817
2.41904
2.30635
2.25621
2.23045
2.21326
2.20477
2.20327
2.20032
2.20194
2.20876
2.23205
2.29466
2.42377
2.57078
2.72194
2.89122
3.14971
3.47491
3.82775
4.26442
4.65489
5.10621
2.67191
2.40645
2.29866
2.25001
2.22647
2.2091
2.20103
2.20167
2.20357
2.2121
2.23191
2.27026
2.35343
2.49614
2.64559
2.8179
3.03361
3.27907
3.59752
3.99242
4.44584
4.88585
5.38596
2.65367
2.39761
2.29159
2.24142
2.2179
2.20058
2.19458
2.1977
2.20172
2.22099
2.25683
2.31519
2.4216
2.58292
2.75004
2.91635
3.11282
3.40475
3.74418
4.14828
4.63254
5.08211
5.62398
2.64184
2.38759
2.28435
2.23241
2.21319
2.19747
2.19292
2.20117
2.21599
2.25786
2.30612
2.37957
2.50099
2.66604
2.83009
3.02294
3.2561
3.50898
3.8842
4.31626
4.78392
5.32126
5.89797
2.62689
2.37962
2.28059
2.22411
2.2026
2.19065
2.19098
2.20232
2.23304
2.28746
2.34969
2.44385
2.58147
2.75423
2.93274
3.10764
3.33278
3.66338
4.02268
4.46337
4.99125
5.49964
6.04606
2.61725
2.37176
2.27519
2.21354
2.19881
2.19029
2.1944
2.22085
2.27361
2.34647
2.42373
2.53217
2.67634
2.84622
3.01816
3.23143
3.47648
3.74156
4.15774
4.63821
5.12396
5.70126
6.28666
2.60899
2.36811
2.27271
2.20621
2.19475
2.19505
2.20796
2.25481
2.32488
2.40799
2.4951
2.61642
2.76477
2.93328
3.11671
3.30156
3.55479
3.91565
4.3275
4.79646
5.32877
5.90176
6.43844
2.60016
2.36126
2.26649
2.20013
2.19406
2.20705
2.24087
2.30219
2.38458
2.47454
2.57022
2.69932
2.84839
3.01586
3.19611
3.42915
3.69695
4.00224
4.44693
4.95036
5.51561
6.17803
6.66216
2.59273
2.3555
2.26169
2.19527
2.194
2.23844
2.28449
2.35857
2.44963
2.5445
2.64672
2.78093
2.92732
3.09008
3.28188
3.4905
3.77233
4.17334
4.61623
5.16435
5.77039
6.35805
6.85495
2.5839
2.34764
2.25577
2.19173
2.20305
2.27518
2.33997
2.42258
2.51738
2.61595
2.72205
2.85734
3.00057
3.16425
3.35672
3.61014
3.92475
4.26978
4.8071
5.37717
5.9994
6.78535
7.31145
2.57528
2.33699
2.25036
2.19362
2.22738
2.32568
2.40134
2.49175
2.58717
2.6867
2.79438
2.92841
3.06652
3.22489
3.4297
3.67194
4.00646
4.46703
5.00467
5.65544
6.49066
7.34036
8.05985
2.56557
2.32949
2.24547
2.20125
2.26361
2.37938
2.46759
2.56161
2.65461
2.75563
2.86224
2.99308
3.12702
3.28766
3.49638
3.79141
4.18489
4.63488
5.28046
6.13054
7.22288
8.48828
9.84386
2.55798
2.31881
2.24592
2.22434
2.31377
2.43875
2.53649
2.63125
2.72182
2.82057
2.92468
3.05106
3.18181
3.34134
3.57173
3.86799
4.2818
4.83944
5.68898
6.79797
8.1818
9.99736
12.1067
2.54513
2.31307
2.25395
2.25598
2.368
2.50005
2.60187
2.6965
2.78332
2.88131
2.98108
3.10247
3.22931
3.38958
3.62111
3.97492
4.50978
5.18253
6.16346
7.55697
9.54043
12.2627
15.9714
2.53861
2.30712
2.27039
2.29869
2.42947
2.56097
2.66718
2.75644
2.84229
2.93632
3.03148
3.14822
3.27628
3.4452
3.71751
4.11485
4.65412
5.45037
6.75893
8.61746
11.2677
15.0196
19.8648
2.52554
2.30208
2.29791
2.34618
2.48971
2.61984
2.7241
2.80983
2.89391
2.98584
3.07561
3.18729
3.31206
3.4806
3.76435
4.20876
4.94485
5.89445
7.48282
9.9551
13.3796
18.0449
24.7327
2.51804
2.30356
2.33277
2.39942
2.55006
2.67655
2.77796
2.85714
2.94178
3.0295
3.11438
3.22306
3.35377
3.54238
3.86902
4.41633
5.18613
6.38377
8.48054
11.4447
15.6225
21.3245
31.4646
2.50633
2.30996
2.37188
2.45313
2.60719
2.72744
2.82284
2.89753
2.98167
3.06751
3.14746
3.25234
3.38113
3.57323
3.93388
4.56935
5.52265
6.9645
9.45641
13.0125
17.6829
25.3619
39.5434
2.50105
2.32889
2.41698
2.50714
2.66079
2.77503
2.86468
2.93317
3.01804
3.10056
3.17631
3.28027
3.41869
3.64179
4.07123
4.76832
5.88424
7.65194
10.5136
14.5081
20.7019
32.7478
56.1935
2.49217
2.35589
2.45883
2.56112
2.70952
2.8172
2.89739
2.96482
3.04749
3.12857
3.20044
3.30303
3.44279
3.67871
4.15428
5.07198
6.35462
8.35921
11.5624
16.5211
26.9638
50.5577
77.9659
2.48944
2.39298
2.5061
2.61079
2.75438
2.85533
2.92973
2.99046
3.07337
3.15283
3.22158
3.32485
3.47647
3.75736
4.32765
5.25354
6.71956
9.11756
12.6487
20.6312
41.9073
74.1413
96.6557
2.49209
2.43426
2.54679
2.66083
2.7959
2.89095
2.95426
3.01691
3.09643
3.1729
3.23894
3.34394
3.50237
3.80217
4.44145
5.66863
7.36679
9.8912
14.8627
29.56
64.1276
93.3165
111.353
2.50197
2.48128
2.59061
2.70602
2.8309
2.9228
2.97982
3.03806
3.11565
3.19026
3.25463
3.36127
3.53281
3.8992
4.65298
5.95486
7.81517
10.8895
18.7181
44.4626
84.0007
104.256
121.636
2.52234
2.5298
2.63277
2.75451
2.87193
2.95421
3.00369
3.06113
3.13483
3.20455
3.26716
3.37871
3.56431
3.95369
4.81461
6.30512
8.49896
12.5669
26.6096
61.9469
96.5916
110.407
130.586
2.55156
2.58024
2.67553
2.79432
2.89832
2.97969
3.02586
3.08073
3.15071
3.2168
3.27931
3.393
3.59275
4.067
5.01982
6.72738
9.21616
16.0135
38.5213
76.1561
102.657
115.224
141.933
2.58418
2.63027
2.72077
2.83749
2.93601
3.00592
3.0494
3.09975
3.16414
3.2273
3.28875
3.41014
3.63067
4.13618
5.27341
7.0697
10.7187
22.4586
51.2572
86.5438
105.723
128.311
161.2
2.62222
2.67905
2.76268
2.86982
2.95886
3.02551
3.0673
3.11562
3.17276
3.23607
3.29875
3.42274
3.66144
4.26412
5.46017
7.86993
13.2108
30.4104
62.4495
92.9082
111.82
128.35
153.572
2.65675
2.72663
2.80569
2.9034
2.98705
3.04568
3.08373
3.12972
3.18025
3.24423
3.30662
3.44021
3.702
4.36075
5.85114
8.92673
17.0792
38.7923
71.2571
95.0244
110.032
129.33
147.485
2.69638
2.76829
2.84122
2.92932
3.00633
3.06115
3.09716
3.13861
3.18503
3.25054
3.31535
3.45281
3.74186
4.49907
6.26218
10.6614
21.7032
45.8639
75.7166
98.4608
107.221
123.684
142.732
2.72932
2.80887
2.87679
2.95292
3.01998
3.07744
3.10762
3.14607
3.19056
3.25693
3.32272
3.47041
3.78405
4.6517
6.81176
12.5674
26.5094
52.0399
80.4551
98.0494
105.431
119.9
138.446
2.76221
2.83978
2.90617
2.97302
3.03027
3.08672
3.11559
3.15132
3.19432
3.26175
3.33076
3.48508
3.83428
4.80676
7.4528
14.7092
31.2158
56.7863
83.7994
96.1408
101.911
113.202
130.392
2.79073
2.87129
2.93616
2.99099
3.04079
3.09528
3.12323
3.1564
3.19956
3.26703
3.3385
3.50155
3.88343
4.99749
8.17264
16.9088
35.1596
59.6283
82.2311
93.8694
98.4638
105.7
117.912
2.81276
2.89244
2.95918
3.00356
3.05004
3.09978
3.12867
3.15952
3.20301
3.27098
3.34501
3.51643
3.92776
5.1967
8.81777
19.165
38.1312
61.4039
79.4104
89.7776
93.6978
97.1303
105.869
2.83307
2.91198
2.97825
3.01625
3.06059
3.10573
3.13426
3.16401
3.20722
3.27521
3.35182
3.52996
3.97712
5.38652
9.6655
21.4993
40.6091
62.2532
76.4948
85.3588
88.6838
90.6443
96.3142
2.8493
2.92671
2.99223
3.02932
3.07049
3.11132
3.13947
3.16795
3.2107
3.27842
3.3568
3.53888
4.00738
5.60222
10.6935
23.7028
42.9343
62.709
73.9593
80.795
84.1527
84.887
88.7437
2.86861
2.94224
3.00336
3.04268
3.08112
3.11794
3.14532
3.17291
3.21496
3.2824
3.36288
3.54969
4.05483
5.88459
11.7591
25.4439
44.7512
62.7918
71.5682
76.6663
78.793
79.8608
82.3641
2.88693
2.95609
3.01313
3.05459
3.08999
3.12405
3.15131
3.17734
3.21891
3.2855
3.36702
3.55564
4.09646
6.14752
12.6534
26.5652
45.897
63.3474
70.8904
74.4404
76.6167
78.3599
77.9185
2.9065
2.97122
3.02154
3.06446
3.09838
3.12995
3.15678
3.18232
3.22326
3.2894
3.37227
3.56646
4.16247
6.42971
13.2325
27.1701
46.6157
63.4291
70.6138
73.7376
75.7525
76.4183
73.0532
2.92415
2.98434
3.03037
3.07206
3.10528
3.135
3.16164
3.18662
3.2267
3.29258
3.37583
3.57532
4.1945
6.54697
13.2933
27.2107
46.5203
62.8945
69.6286
72.5198
74.4777
72.929
68.1442
2.9392
2.99757
3.03821
3.07892
3.11227
3.13973
3.16611
3.1912
3.22986
3.29559
3.37906
3.58405
4.21475
6.57203
13.3421
26.7954
46.0924
60.7103
66.4843
69.4107
71.3261
67.6104
62.4767
2.95379
3.00979
3.04773
3.08582
3.11903
3.14488
3.1706
3.1958
3.23268
3.29843
3.3826
3.58942
4.22511
6.58862
13.2106
25.7253
45.2444
56.6809
61.3174
64.6351
66.1715
60.8754
56.198
2.96663
3.02319
3.05705
3.09319
3.12705
3.15024
3.17562
3.20086
3.23557
3.3008
3.38506
3.59282
4.22872
6.57612
12.7139
24.087
44.0328
51.5312
54.9343
58.5793
59.5257
53.4687
49.9513
2.97983
3.03608
3.06795
3.10192
3.13458
3.15671
3.18061
3.20624
3.23818
3.30289
3.38826
3.5941
4.22562
6.46909
11.9867
22.0526
42.1013
45.9165
48.1956
51.8468
51.9686
46.0947
43.228
2.99256
3.05038
3.0792
3.11105
3.14393
3.16377
3.18656
3.21189
3.24135
3.30432
3.38983
3.59465
4.21152
6.29986
11.1125
19.819
39.4907
40.3745
41.7122
45.0065
44.5871
39.4375
36.758
3.00645
3.06507
3.09108
3.12207
3.15228
3.17185
3.19268
3.21812
3.24433
3.30565
3.39058
3.59389
4.18135
6.08231
10.2025
17.5657
36.192
35.2199
35.8483
38.7876
38.0673
33.9051
31.4114
3.02068
3.08003
3.10371
3.13285
3.16209
3.18081
3.19921
3.22431
3.24794
3.30637
3.39091
3.5911
4.14062
5.84707
9.3094
15.4672
32.6462
30.573
30.819
32.9945
32.8721
29.6138
27.6112
3.03577
3.09634
3.11571
3.14537
3.17086
3.18977
3.20654
3.23085
3.2516
3.30731
3.39128
3.5867
4.09553
5.60044
8.46766
13.6152
29.1084
26.6188
26.6559
28.3488
28.7638
26.3678
24.9367
3.05222
3.11136
3.12866
3.15677
3.18052
3.19987
3.21339
3.2374
3.25541
3.30786
3.39102
3.57904
4.0433
5.35644
7.724
12.0743
25.8002
23.4012
23.2963
24.7636
25.6891
24.0427
23.3934
3.06763
3.12707
3.14046
3.16972
3.18911
3.20879
3.22115
3.24342
3.25966
3.30876
3.3912
3.56848
3.98671
5.12607
7.08997
10.8679
22.9876
20.8833
20.7646
22.1282
23.5079
22.5283
22.3246
3.08459
3.1422
3.15214
3.18065
3.19828
3.21858
3.2284
3.25006
3.26353
3.30974
3.39067
3.55709
3.93245
4.91078
6.56983
9.93902
20.6472
19.0914
18.8976
20.1768
21.9639
21.5798
21.4381
3.10161
3.15537
3.16434
3.19306
3.20668
3.22701
3.23598
3.2553
3.26783
3.31061
3.38992
3.54392
3.87321
4.72951
6.17033
9.28855
18.9062
17.7599
17.5566
18.7577
20.8376
20.921
21.3118
3.11684
3.17014
3.17468
3.20424
3.21579
3.2361
3.24398
3.26158
3.27225
3.31229
3.38897
3.53238
3.82387
4.57819
5.86713
8.81442
17.6074
16.8699
16.6413
17.7266
20.0285
20.6454
21.1775
3.13655
3.18417
3.18752
3.21669
3.22462
3.24408
3.25175
3.26766
3.27611
3.31326
3.38818
3.52317
3.78218
4.4634
5.65141
8.5092
16.7059
16.2181
16.0449
17.0403
19.4582
20.4888
21.0659
3.15232
3.19588
3.19962
3.22791
3.23461
3.25416
3.26118
3.27264
3.28195
3.31509
3.38747
3.51493
3.75045
4.36839
5.50194
8.28043
16.0032
15.7375
15.6606
16.5785
18.9896
20.3641
20.9745
3.16972
3.20873
3.21089
3.23839
3.24341
3.26056
3.26696
3.27889
3.28672
3.31693
3.38689
3.50922
3.72257
4.29565
5.40463
8.15552
15.4177
15.3637
15.4431
16.3975
18.7381
20.2541
20.8608
3.18151
3.21091
3.22349
3.24282
3.25222
3.26416
3.27046
3.28121
3.2896
3.31874
3.38627
3.50446
3.70354
4.24737
5.33835
8.04259
14.8895
15.0458
15.3371
16.3152
18.5046
20.1416
20.9084
3.19149
3.21338
3.22832
3.24472
3.25543
3.26674
3.27073
3.2831
3.29214
3.31819
3.38573
3.50148
3.69167
4.2146
5.29197
7.97594
14.4154
14.6973
15.3135
16.2773
18.4004
20.0421
20.8516
3.19186
3.21586
3.23086
3.24786
3.2571
3.2681
3.27144
3.28269
3.29186
3.31831
3.38527
3.49759
3.68563
4.19601
5.26026
7.91814
13.9698
14.4687
15.2824
16.3493
18.3069
19.8777
20.7523
3.1932
3.21696
3.23316
3.25071
3.25868
3.26968
3.27349
3.28294
3.29223
3.31889
3.38487
3.49478
3.68477
4.18756
5.23855
7.84797
13.5814
14.2577
15.31
16.5381
18.3661
19.7429
20.5462
3.19588
3.22033
3.23435
3.24918
3.25945
3.2684
3.27454
3.28326
3.2926
3.3189
3.38454
3.49229
3.6836
4.1812
5.22238
7.83925
13.2865
14.1166
15.3971
16.7759
18.4492
19.6678
20.4021
3.19858
3.22123
3.23498
3.2491
3.25991
3.26806
3.2753
3.28529
3.29273
3.31925
3.38422
3.49176
3.6824
4.17113
5.21352
7.84855
13.0719
14.11
15.6449
17.0895
18.5415
19.6473
20.3557
3.19967
3.22363
3.23599
3.25037
3.26003
3.2682
3.27614
3.28466
3.2945
3.31808
3.38387
3.49052
3.68158
4.17092
5.204
7.83965
12.9684
14.0921
15.8645
17.3992
18.6827
19.6582
20.3203
3.19961
3.2214
3.23475
3.24943
3.25942
3.26861
3.27474
3.28463
3.29346
3.31792
3.38353
3.48987
3.68082
4.16893
5.19871
7.87065
12.8633
14.1088
16.4085
17.7589
18.8831
19.7296
20.342
3.19857
3.22158
3.23469
3.25108
3.26146
3.26931
3.27442
3.2862
3.293
3.31776
3.38263
3.48934
3.67938
4.16773
5.19357
7.93278
12.7787
14.243
16.7903
18.1578
19.0884
19.9042
20.4274
3.19723
3.22212
3.23438
3.24876
3.25993
3.26721
3.27419
3.28486
3.29317
3.31762
3.38268
3.48913
3.67904
4.16448
5.19475
8.19269
12.8036
14.4951
17.04
18.4712
19.2492
19.9896
20.4952
3.19725
3.21854
3.23448
3.24845
3.26104
3.2674
3.27508
3.28419
3.29443
3.31749
3.38156
3.48866
3.68086
4.16414
5.22594
8.86994
12.9489
14.7544
17.0745
18.6416
19.3953
20.1571
20.646
3.19611
3.21778
3.23575
3.24966
3.25859
3.26692
3.2757
3.28384
3.29294
3.31754
3.38013
3.48839
3.68157
4.16321
5.27006
9.93224
13.3151
15.0257
17.1073
18.6796
19.5152
20.1773
20.6665
3.19597
3.21712
3.23248
3.249
3.25828
3.26673
3.27337
3.28403
3.29334
3.3188
3.37769
3.48821
3.68277
4.16406
5.36611
11.0953
13.7835
15.2713
17.1437
18.686
19.4881
20.2247
20.6977
3.1991
3.2174
3.23512
3.24705
3.25712
3.2669
3.27318
3.28384
3.29135
3.31816
3.37552
3.48809
3.68317
4.16366
5.44572
12.5245
14.3924
15.6013
17.1987
18.6619
19.4093
20.131
20.6514
3.19563
3.21733
3.23227
3.24619
3.2568
3.26629
3.27475
3.28127
3.29129
3.31829
3.37301
3.48809
3.68355
4.17567
5.57149
13.2501
14.8999
15.7586
17.2167
18.577
19.2902
20.0158
20.554
3.19762
3.21718
3.23229
3.24444
3.25571
3.26535
3.27227
3.28065
3.29245
3.31778
3.37091
3.48861
3.68371
4.1832
5.67669
13.721
15.2449
15.7894
17.1428
18.352
19.082
19.8524
20.4657
3.19738
3.21902
3.23217
3.24386
3.2553
3.26439
3.27169
3.28054
3.29258
3.31692
3.36899
3.4912
3.68345
4.20934
5.81084
13.6885
15.2633
15.856
17.0279
18.0361
18.8885
19.6411
20.3685
3.19619
3.21812
3.22852
3.24241
3.25566
3.26428
3.27183
3.27758
3.29208
3.31592
3.36712
3.49288
3.68283
4.21636
5.91002
13.7168
15.2886
15.8715
16.7763
17.6234
18.6148
19.4459
20.2739
3.19397
3.215
3.22691
3.24175
3.25625
3.26076
3.26861
3.277
3.29057
3.31425
3.36591
3.49597
3.68439
4.24578
6.04717
13.7636
15.3229
15.8312
16.4639
17.2317
18.4271
19.2659
20.1588
3.18957
3.21298
3.22673
3.24307
3.25509
3.26019
3.27049
3.27768
3.28941
3.31268
3.36426
3.49692
3.68694
4.25716
6.16133
13.8179
15.089
15.4173
15.8549
16.5672
17.9355
19.0787
20.0387
3.18499
3.20922
3.2218
3.24318
3.25298
3.26094
3.26758
3.27734
3.28623
3.31213
3.36366
3.49977
3.69573
4.30415
6.19484
13.6032
14.7707
14.9929
15.338
16.1031
17.6593
18.9618
19.9544
3.18104
3.20549
3.22119
3.24067
3.24916
3.26127
3.2688
3.27593
3.28474
3.3127
3.36156
3.5036
3.69702
4.32462
6.23145
12.8122
13.9995
14.2362
14.5847
15.4406
17.0024
18.6549
19.7404
3.17665
3.20227
3.22275
3.23666
3.24399
3.25993
3.26855
3.27378
3.28342
3.31168
3.36213
3.50718
3.71225
4.35059
6.43561
12.2569
13.4271
13.686
14.1662
15.216
16.693
18.4872
19.573
3.16834
3.19483
3.22107
3.23114
3.24242
3.25666
3.26659
3.26901
3.28235
3.31184
3.35998
3.50607
3.70812
4.35938
6.37215
11.0952
12.5852
12.9794
13.6051
14.7025
15.8136
17.4789
18.5389
3.16636
3.19733
3.21793
3.22369
3.24266
3.25136
3.26454
3.26757
3.27942
3.31031
3.35786
3.50069
3.70416
4.30115
6.28091
10.0587
11.7108
12.2404
13.0314
14.0313
14.8705
16.1286
17.081
3.16651
3.18993
3.2129
3.22116
3.23831
3.24364
3.26153
3.26823
3.27749
3.30766
3.35515
3.49913
3.69599
4.3041
6.15415
9.06207
10.8495
11.4663
12.3115
13.1609
13.7743
14.6649
15.4864
3.16575
3.19119
3.20942
3.22144
3.23375
3.24074
3.25757
3.26591
3.27341
3.30412
3.35179
3.49352
3.6865
4.25775
5.95233
8.22476
9.92701
10.6705
11.4927
12.2011
12.6369
13.2432
13.9089
3.15785
3.18668
3.20675
3.21768
3.22965
3.23965
3.25247
3.26151
3.27032
3.29933
3.34655
3.48299
3.67181
4.18284
5.69437
7.50308
9.1194
9.80269
10.5819
11.1804
11.5512
11.9321
12.4587
3.14586
3.18056
3.20026
3.21221
3.22487
3.23327
3.24679
3.25646
3.26704
3.29372
3.34004
3.4685
3.6522
4.10357
5.39579
6.96548
8.37706
9.06541
9.76336
10.2135
10.5144
10.7893
11.1703
3.12977
3.17224
3.19007
3.2054
3.22078
3.22552
3.23926
3.24964
3.26105
3.28639
3.33122
3.45009
3.62393
4.0205
5.08859
6.56709
7.78566
8.33153
8.93464
9.37835
9.63467
9.83324
10.1618
3.10882
3.16381
3.1795
3.19675
3.21569
3.21447
3.2309
3.24133
3.25387
3.27835
3.32144
3.43037
3.59783
3.95166
4.8192
6.23897
7.35341
7.79304
8.21254
8.58714
8.83256
9.05214
9.37
3.10105
3.15069
3.16848
3.18471
3.20553
3.20518
3.22052
3.23019
3.24389
3.26798
3.30922
3.40842
3.56777
3.88779
4.62217
5.96779
7.03996
7.49196
7.7643
8.01427
8.21053
8.43917
8.81145
3.10179
3.13466
3.15712
3.17199
3.19311
3.19682
3.2097
3.21854
3.23292
3.25677
3.29646
3.38739
3.53677
3.82619
4.4607
5.74808
6.71853
7.27939
7.46979
7.61949
7.76807
7.98036
8.38005
3.09152
3.11604
3.14079
3.15659
3.17591
3.18365
3.19582
3.20425
3.2188
3.24231
3.28058
3.36378
3.50402
3.77223
4.33523
5.50808
6.47685
7.16299
7.3122
7.39132
7.5023
7.69495
8.0855
3.07667
3.09753
3.12181
3.14038
3.15597
3.16826
3.18109
3.1897
3.20405
3.22704
3.26436
3.34207
3.46942
3.71291
4.2343
5.39196
6.13135
6.87216
7.21073
7.27474
7.34238
7.47118
7.78839
3.05494
3.07606
3.09861
3.11972
3.13196
3.14778
3.16205
3.17113
3.18501
3.20732
3.24373
3.31579
3.43738
3.66415
4.13834
5.19356
5.9617
6.84791
7.05323
7.19108
7.24803
7.34119
7.61556
3.02971
3.05379
3.07521
3.09766
3.1087
3.12645
3.142
3.15188
3.16519
3.18689
3.22277
3.29196
3.39509
3.59293
3.97065
5.01106
5.84101
6.69364
7.02094
7.15498
7.15133
7.20117
7.40498
2.99784
3.02629
3.04741
3.06991
3.0817
3.09953
3.11606
3.12658
3.13936
3.16031
3.19534
3.26067
3.36075
3.55071
3.87689
4.78074
5.64402
6.62803
6.97183
7.07016
7.13383
7.17619
7.2745
2.96433
2.99737
3.01916
3.04106
3.05485
3.07191
3.08904
3.10043
3.11285
3.13312
3.16723
3.2313
3.31276
3.4793
3.83219
4.45534
5.58389
6.57218
7.00485
7.14574
7.16892
7.1938
7.33973
2.92427
2.961
2.9838
3.00484
3.02064
3.03661
3.05379
3.06581
3.07793
3.09735
3.12985
3.18979
3.27809
3.39983
3.66477
4.43414
5.22366
6.56638
7.00384
7.06965
7.10822
7.18759
7.42276
2.88368
2.92304
2.94732
2.9675
2.98511
3.00037
3.01737
3.03053
3.04256
3.06122
3.09226
3.14661
3.24694
3.37969
3.66286
4.2808
5.45873
6.46071
7.07491
7.09567
7.2347
7.32357
7.40832
2.83478
2.87491
2.90084
2.92011
2.9388
2.95352
2.96953
2.98353
2.99562
3.01294
3.04187
3.09085
3.17761
3.36388
3.65682
4.20312
5.26739
6.48308
7.0527
7.18956
7.29247
7.30619
7.61588
2.78565
2.82584
2.85367
2.8722
2.89169
2.90617
2.92143
2.93663
2.94923
2.96538
2.99222
3.03874
3.10978
3.28953
3.48445
4.10648
5.27751
6.68383
7.13459
7.28808
7.40013
7.4268
7.6278
2.7252
2.76379
2.79327
2.81111
2.8306
2.84468
2.85845
2.87396
2.88684
2.90135
2.92514
2.96843
3.02553
3.17526
3.40183
4.29341
4.93161
6.36115
6.97634
7.11557
7.30107
7.416
7.60651
2.66559
2.7032
2.73387
2.75165
2.77094
2.78494
2.79816
2.81403
2.82738
2.84143
2.86195
2.90147
2.94828
3.05545
3.37455
4.00949
5.22178
6.42329
7.02676
7.18764
7.32505
7.52888
7.68512
2.59105
2.62625
2.65702
2.67474
2.69284
2.70605
2.71821
2.73322
2.74587
2.75923
2.7755
2.80809
2.84663
2.92166
3.16194
3.94056
4.99711
6.36667
6.79401
7.17959
7.24166
7.53867
7.76891
2.52055
2.55513
2.58516
2.60379
2.6207
2.63376
2.64606
2.66076
2.67302
2.68653
2.69974
2.7265
2.75801
2.81274
2.97144
3.55395
4.99952
6.11064
6.70481
6.885
7.09301
7.2652
7.74055
2.43015
2.46201
2.48975
2.50839
2.52298
2.53453
2.54602
2.55902
2.56938
2.58205
2.59167
2.61038
2.6401
2.67786
2.76969
3.13566
4.5311
6.1439
6.449
6.62661
6.90053
7.05524
7.0707
2.35056
2.38203
2.40736
2.42718
2.44016
2.45144
2.4632
2.47575
2.48528
2.49721
2.50637
2.5197
2.54596
2.57472
2.62751
2.82217
3.73792
5.45301
6.32687
6.64603
6.65364
6.75817
6.8888
2.24268
2.27035
2.29129
2.30947
2.3195
2.32853
2.33858
2.34878
2.35627
2.36511
2.37321
2.38133
2.39899
2.42457
2.45553
2.54519
3.00516
4.86392
6.61162
6.86921
6.42904
6.33535
6.82328
2.15867
2.1858
2.2037
2.22216
2.23102
2.23981
2.24979
2.25926
2.26636
2.27365
2.28179
2.28811
2.29945
2.324
2.34729
2.38793
2.58674
3.63857
5.67529
6.39698
6.46797
6.00348
6.2629
2.02977
2.05076
2.0619
2.07596
2.0815
2.08726
2.09462
2.1013
2.10597
2.1101
2.11521
2.11916
2.12462
2.13825
2.16026
2.17942
2.25098
2.69372
4.69112
6.1708
6.64411
5.82114
5.89151
1.95619
1.97716
1.98512
1.99498
1.99904
2.00405
2.01082
2.01717
2.02167
2.02544
2.02992
2.03387
2.0377
2.04715
2.06708
2.08574
2.11948
2.29388
3.26618
5.90085
6.66675
6.2289
5.36125
1.77766
1.78372
1.78302
1.79033
1.79017
1.78948
1.79087
1.7926
1.7946
1.79491
1.79589
1.79708
1.79777
1.7993
1.80781
1.8261
1.83544
1.8793
2.13876
3.53018
5.75549
6.44321
5.71986
3.08071
2.7598
2.56957
2.45277
2.37894
2.3275
2.29855
2.26699
2.25218
2.23583
2.22857
2.22142
2.2231
2.22909
2.24256
2.26789
2.31026
2.37538
2.48036
2.56286
2.68961
2.76518
2.87948
3.0923
2.77221
2.58511
2.46946
2.39552
2.33934
2.30331
2.27278
2.25596
2.23898
2.23077
2.22296
2.22401
2.22896
2.24204
2.26709
2.30862
2.37212
2.47367
2.55386
2.67122
2.75053
2.85656
3.10652
2.7896
2.60044
2.47908
2.40371
2.34475
2.30928
2.2763
2.25796
2.24084
2.23202
2.22443
2.22511
2.22935
2.24121
2.26435
2.3034
2.36379
2.45997
2.53797
2.65853
2.7325
2.83808
3.11957
2.80707
2.62237
2.50058
2.42078
2.35649
2.31567
2.28236
2.26288
2.24556
2.23587
2.22753
2.22608
2.22953
2.24028
2.26198
2.29886
2.35742
2.44809
2.52847
2.64838
2.7199
2.82327
3.13121
2.83
2.64089
2.51195
2.42652
2.36022
2.3184
2.2857
2.26556
2.2484
2.23777
2.22902
2.22617
2.22945
2.23921
2.25966
2.29361
2.35067
2.4297
2.52799
2.62788
2.70968
2.80737
3.14638
2.84201
2.6534
2.52212
2.43604
2.37023
2.32922
2.29588
2.27282
2.25295
2.24023
2.23033
2.22674
2.22948
2.23763
2.25759
2.28784
2.34629
2.41719
2.52981
2.60357
2.71507
2.79338
3.15224
2.85234
2.66606
2.53321
2.44642
2.38017
2.33459
2.29855
2.2739
2.25399
2.24119
2.23129
2.22689
2.22978
2.23632
2.25975
2.28752
2.35031
2.41719
2.52548
2.60415
2.71907
2.79586
3.15379
2.85272
2.665
2.53294
2.44367
2.37713
2.33052
2.29532
2.26992
2.25052
2.2373
2.22741
2.22285
2.22504
2.23164
2.25424
2.28336
2.34271
2.4106
2.51958
2.59644
2.71333
2.78196
2.9116
2.57282
2.42462
2.33828
2.28793
2.25364
2.23044
2.20425
2.19339
2.19692
2.20859
2.22425
2.26433
2.33935
2.4659
2.6161
2.80334
3.03175
3.35135
3.63541
4.06561
4.46228
4.80623
2.92351
2.57993
2.42792
2.3431
2.29244
2.25711
2.23619
2.2115
2.19852
2.19827
2.20313
2.21096
2.23189
2.28708
2.39248
2.5294
2.7112
2.92687
3.24603
3.52218
3.94646
4.31667
4.65193
2.92593
2.5869
2.43441
2.34876
2.29704
2.26161
2.24171
2.21779
2.20311
2.20237
2.204
2.20934
2.22074
2.25778
2.33865
2.45776
2.62927
2.82856
3.13658
3.404
3.80962
4.14186
4.47599
2.93876
2.59649
2.43949
2.35286
2.2998
2.26405
2.24631
2.22364
2.20842
2.20636
2.20425
2.20632
2.21416
2.23768
2.29681
2.39637
2.55328
2.7379
3.03075
3.28499
3.66273
3.95555
4.30841
2.94223
2.60429
2.44741
2.36024
2.30513
2.269
2.24987
2.22954
2.2153
2.21108
2.20724
2.20852
2.21452
2.2312
2.27142
2.35047
2.48665
2.65534
2.92465
3.15981
3.49398
3.79136
4.13446
2.95669
2.61588
2.45499
2.36506
2.30869
2.27264
2.25244
2.23358
2.21979
2.21486
2.20924
2.20957
2.21518
2.22905
2.25824
2.31963
2.43373
2.58736
2.82909
3.04159
3.34974
3.61799
3.96519
2.96134
2.6253
2.46423
2.37191
2.31277
2.27651
2.25596
2.23704
2.22454
2.21808
2.21196
2.21157
2.21607
2.22865
2.25387
2.30169
2.39224
2.52832
2.73642
2.93446
3.18829
3.49022
3.78421
2.97785
2.638
2.47463
2.37931
2.31838
2.28257
2.2591
2.24073
2.22808
2.2206
2.21533
2.21414
2.21801
2.22919
2.25236
2.29478
2.36904
2.48934
2.66122
2.84637
3.08076
3.34033
3.6004
2.98366
2.64944
2.48332
2.38575
2.32289
2.28645
2.26192
2.24285
2.23133
2.22189
2.21729
2.21571
2.21939
2.22952
2.25036
2.28796
2.35051
2.45373
2.58828
2.77601
2.95324
3.22844
3.42288
3.00231
2.66446
2.49695
2.39456
2.32914
2.2927
2.26657
2.24689
2.23486
2.22363
2.22007
2.2178
2.22102
2.22985
2.24971
2.28522
2.34309
2.43487
2.54861
2.72537
2.88351
3.09933
3.24039
3.00898
2.67632
2.50462
2.40248
2.3362
2.2983
2.26971
2.24885
2.23708
2.2254
2.22176
2.21861
2.22157
2.22979
2.24834
2.28075
2.33308
2.41539
2.52104
2.68616
2.79857
2.99224
3.10619
3.02951
2.69538
2.52004
2.41127
2.34253
2.30297
2.27555
2.25185
2.24123
2.22712
2.2232
2.21935
2.22165
2.22971
2.24766
2.27925
2.32983
2.40562
2.5125
2.65654
2.76022
2.90636
3.01159
3.03633
2.70635
2.52875
2.42226
2.35265
2.31042
2.28005
2.25545
2.24316
2.22957
2.2251
2.22003
2.22153
2.22899
2.2463
2.27596
2.32408
2.39694
2.50679
2.62643
2.72221
2.84727
2.95219
3.05678
2.72823
2.5439
2.43059
2.35901
2.31423
2.28625
2.25805
2.24721
2.23169
2.22609
2.22042
2.22169
2.22892
2.24572
2.2745
2.32139
2.39172
2.50434
2.60158
2.70845
2.81931
2.92742
3.0653
2.74014
2.55597
2.44482
2.372
2.3229
2.29161
2.26327
2.24974
2.23428
2.22769
2.22102
2.22259
2.22943
2.24427
2.27129
2.31582
2.38406
2.49539
2.57552
2.70114
2.78979
2.90496
2.83554
2.78664
2.85389
2.93643
3.02029
3.06157
3.11614
3.13513
3.15497
3.17783
3.19856
3.22412
3.26835
3.32498
3.40949
3.5356
3.71961
3.9791
4.26905
4.6052
5.04591
5.36655
5.675
2.81816
2.74586
2.81229
2.90018
2.98492
3.03373
3.09939
3.12779
3.15348
3.17284
3.19406
3.22211
3.2637
3.32545
3.40733
3.52797
3.7131
3.98185
4.2714
4.60987
5.0352
5.31968
5.64192
2.80205
2.70474
2.76053
2.85402
2.95033
3.00194
3.08084
3.10659
3.15313
3.17022
3.18773
3.21918
3.26046
3.32028
3.40274
3.52495
3.70765
3.97098
4.26485
4.61649
5.06764
5.35671
5.69761
2.79857
2.66006
2.71302
2.81679
2.90799
2.97106
3.05819
3.08617
3.14464
3.16566
3.18572
3.2157
3.2552
3.31803
3.39967
3.51818
3.69852
3.96635
4.23907
4.61697
5.05737
5.35211
5.7271
2.79537
2.62042
2.66216
2.76164
2.86343
2.93164
3.03219
3.06306
3.13262
3.15044
3.18002
3.20633
3.24931
3.31243
3.39418
3.51295
3.69072
3.95956
4.23548
4.58631
5.05387
5.37184
5.7678
2.8005
2.5848
2.61215
2.7165
2.81367
2.89129
3.00209
3.03398
3.11164
3.13491
3.16742
3.19848
3.24127
3.30746
3.38985
3.50688
3.68139
3.94989
4.22455
4.57783
5.02516
5.39654
5.77879
2.80673
2.54876
2.56208
2.65853
2.75929
2.84298
2.97018
3.00168
3.09129
3.11434
3.15304
3.18623
3.23132
3.29959
3.38228
3.50009
3.67166
3.93826
4.21186
4.56219
5.01928
5.40222
5.7937
2.81276
2.52449
2.51855
2.60395
2.70096
2.79254
2.93107
2.96584
3.06229
3.09077
3.13234
3.17168
3.21859
3.29064
3.37465
3.49245
3.66229
3.92327
4.1997
4.54733
4.99375
5.39307
5.7851
2.82404
2.49952
2.47434
2.55117
2.63946
2.73447
2.88717
2.92365
3.02855
3.06122
3.10731
3.1518
3.20227
3.27842
3.36415
3.48285
3.65074
3.90813
4.18651
4.52896
4.98214
5.36516
5.76117
2.83147
2.49049
2.44097
2.49347
2.57582
2.67538
2.83541
2.87411
2.98606
3.02732
3.08079
3.12838
3.1824
3.26352
3.35148
3.47167
3.63921
3.89181
4.17292
4.51297
4.96051
5.34834
5.75412
2.84098
2.48482
2.41064
2.44976
2.51329
2.60931
2.77644
2.82155
2.94019
2.98709
3.04656
3.10015
3.15899
3.24484
3.33626
3.45775
3.62407
3.87467
4.15763
4.49492
4.93836
5.33018
5.72869
2.84655
2.48886
2.39098
2.40354
2.45349
2.5478
2.71201
2.76004
2.88253
2.9445