/*--------------------------------*- C++ -*----------------------------------*\
  =========                 |
  \\      /  F ield         | OpenFOAM: The Open Source CFD Toolbox
   \\    /   O peration     | Website:  https://openfoam.org
    \\  /    A nd           | Version:  7
     \\/     M anipulation  |
\*---------------------------------------------------------------------------*/
FoamFile
{
    version     2.0;
    format      ascii;
    class       volScalarField;
    location    "50";
    object      p;
}
// * * * * * * * * * * * * * * * * * * * * * * * * * * * * * * * * * * * * * //

dimensions      [0 2 -2 0 0 0 0];

internalField   nonuniform List<scalar> 
12842
(
0.650613
0.699063
0.761865
0.851641
0.954572
1.05553
1.15285
1.25703
1.38768
1.57238
1.84549
2.24303
2.79582
3.52296
4.42684
5.48947
6.6751
7.93496
9.21338
10.4552
11.6132
12.6532
13.5578
0.648232
0.70361
0.755221
0.834493
0.912851
0.965182
0.985878
0.982806
0.975012
0.99311
1.07754
1.27236
1.61664
2.13677
2.84128
3.71793
4.7372
5.85688
7.02681
8.19421
9.31162
10.3374
11.2515
0.653951
0.703766
0.744497
0.815069
0.868538
0.871961
0.817253
0.71044
0.571076
0.434103
0.347259
0.362568
0.525369
0.865452
1.39233
2.09443
2.94493
3.90689
4.93707
5.9883
7.01746
7.97937
8.85669
0.665129
0.696386
0.728512
0.793516
0.822708
0.778501
0.65106
0.444758
0.180539
-0.100974
-0.343718
-0.488102
-0.484874
-0.304898
0.0574975
0.587367
1.25862
2.04021
2.89876
3.79649
4.69905
5.5596
6.36721
0.676165
0.682371
0.708271
0.771543
0.777303
0.687684
0.490903
0.189397
-0.193782
-0.611192
-0.997725
-1.28713
-1.42877
-1.39806
-1.19701
-0.846413
-0.371638
0.204473
0.862319
1.57699
2.32542
3.05945
3.77598
0.683798
0.66378
0.685558
0.751938
0.735314
0.604249
0.343403
-0.0470552
-0.5414
-1.08464
-1.60249
-2.02357
-2.29858
-2.4109
-2.37299
-2.21254
-1.95287
-1.60572
-1.17329
-0.665657
-0.093189
0.493065
1.09931
0.686909
0.642062
0.66235
0.737352
0.699572
0.533289
0.215813
-0.254888
-0.849973
-1.50658
-2.14161
-2.68061
-3.07827
-3.32886
-3.45694
-3.49722
-3.46915
-3.37106
-3.18537
-2.90702
-2.53296
-2.11808
-1.6437
0.686404
0.618181
0.640269
0.728162
0.670259
0.476773
0.111709
-0.42834
-1.11168
-1.86825
-2.60726
-3.25329
-3.76666
-4.15361
-4.45048
-4.69829
-4.91127
-5.0742
-5.14933
-5.11855
-4.96339
-4.74496
-4.42416
0.680245
0.592483
0.622942
0.727147
0.65291
0.443516
0.0439027
-0.548129
-1.29763
-2.12774
-2.94135
-3.66439
-4.26434
-4.7597
-5.1973
-5.62347
-6.04676
-6.44088
-6.75031
-6.94911
-6.99986
-6.97863
-6.8021
0.675837
0.565552
0.612947
0.73148
0.642455
0.422094
-0.00630019
-0.641019
-1.44333
-2.32977
-3.19802
-3.97628
-4.63954
-5.21752
-5.76605
-6.3359
-6.93115
-7.51751
-8.0265
-8.42687
-8.66648
-8.82629
-8.8048
0.668984
0.538996
0.609746
0.736569
0.632547
0.401448
-0.0566431
-0.734184
-1.5888
-2.53061
-3.45301
-4.28674
-5.01426
-5.67512
-6.33282
-7.04212
-7.80393
-8.57912
-9.2895
-9.90096
-10.3474
-10.7106
-10.8744
0.658926
0.513758
0.612696
0.74099
0.62344
0.381499
-0.106735
-0.826715
-1.73283
-2.72917
-3.70592
-4.59621
-5.38957
-6.13359
-6.89803
-7.74172
-8.6641
-9.62489
-10.5392
-11.3718
-12.0425
-12.6301
-13.002
0.645811
0.49076
0.620135
0.744308
0.616414
0.363904
-0.153587
-0.914386
-1.87011
-2.91919
-3.94961
-4.89636
-5.75564
-6.5813
-7.44873
-8.42143
-9.49969
-10.6455
-11.7691
-12.8349
-13.7471
-14.5784
-15.1796
0.630123
0.471298
0.630212
0.746533
0.612207
0.349595
-0.195232
-0.994379
-1.99718
-3.09673
-4.17996
-5.18282
-6.10773
-7.01292
-7.97914
-9.07556
-10.3058
-11.6369
-12.9757
-14.2857
-15.4538
-16.5441
-17.392
0.612804
0.456543
0.641291
0.748175
0.611137
0.338922
-0.230768
-1.06551
-2.1128
-3.26085
-4.39675
-5.45629
-6.44768
-7.43144
-8.49343
-9.70922
-11.088
-12.6042
-14.1617
-15.7226
-17.1548
-18.5124
-19.6176
0.594601
0.447027
0.652061
0.74978
0.612975
0.331678
-0.260245
-1.12792
-2.21749
-3.41265
-4.60208
-5.72006
-6.78023
-7.84298
-8.99897
-10.3305
-11.8539
-13.552
-15.3264
-17.1369
-18.8325
-20.455
-21.8184
0.576212
0.442465
0.661493
0.751728
0.617109
0.327323
-0.284298
-1.18254
-2.3126
-3.55405
-4.79854
-5.97731
-7.10921
-8.25181
-9.50019
-10.9429
-12.6047
-14.4773
-16.4599
-18.5097
-20.4575
-22.3311
-23.9421
0.558212
0.442069
0.669045
0.754178
0.622795
0.325256
-0.303726
-1.23037
-2.39943
-3.68647
-4.98745
-6.22878
-7.43446
-8.65638
-9.99393
-11.5411
-13.332
-15.3669
-17.5427
-19.8123
-21.9908
-24.0888
-25.9219
0.541236
0.444734
0.6745
0.757119
0.629365
0.324976
-0.31925
-1.27228
-2.47894
-3.81062
-5.16887
-6.47322
-7.75306
-9.05175
-10.4733
-12.1159
-14.0231
-16.2015
-18.545
-21.0009
-23.3732
-25.6532
-27.6713
0.52573
0.449407
0.678005
0.76047
0.636384
0.326195
-0.331407
-1.30897
-2.55194
-3.92704
-5.34267
-6.7092
-8.06215
-9.43334
-10.9314
-12.6563
-14.6597
-16.9516
-19.4235
-22.0154
-24.5276
-26.9302
-29.0772
0.512363
0.454988
0.679643
0.763862
0.643298
0.328465
-0.340771
-1.34095
-2.61894
-4.03611
-5.50889
-6.93599
-8.36012
-9.79781
-11.3614
-13.1489
-15.2187
-17.5826
-20.1303
-22.7941
-25.3781
-27.8295
-30.0297
0.501158
0.460848
0.680011
0.767695
0.650667
0.332284
-0.347379
-1.36891
-2.68135
-4.13941
-5.66901
-7.15425
-8.64654
-10.1423
-11.7567
-13.5814
-15.6813
-18.0691
-20.6325
-23.2955
-25.8717
-28.2886
-30.4532
0.492724
0.465945
0.678762
0.770757
0.657212
0.336671
-0.351669
-1.3926
-2.73861
-4.23678
-5.82373
-7.3658
-8.9242
-10.4699
-12.1196
-13.9538
-16.0421
-18.3985
-20.9091
-23.4894
-25.97
-28.2671
-30.3066
0.484557
0.470673
0.678748
0.776975
0.666518
0.343399
-0.35474
-1.41471
-2.79243
-4.32481
-5.96162
-7.54979
-9.16461
-10.7484
-12.4194
-14.2407
-16.2816
-18.5567
-20.9502
-23.3684
-25.6669
-27.7653
-29.5937
0.482595
0.476625
0.681355
0.784707
0.675034
0.347278
-0.362459
-1.44135
-2.84835
-4.41004
-6.08964
-7.71562
-9.3788
-10.9913
-12.6707
-14.4554
-16.4073
-18.5404
-20.7408
-22.9107
-24.9354
-26.7561
-28.3175
0.485518
0.483552
0.685158
0.791491
0.679411
0.342966
-0.383609
-1.48652
-2.92755
-4.52188
-6.24602
-7.90936
-9.61864
-11.2527
-12.9252
-14.6439
-16.4568
-18.3802
-20.3119
-22.1647
-23.8508
-25.3351
-26.5948
0.49146
0.489749
0.68779
0.794293
0.676534
0.328047
-0.418726
-1.54789
-3.02417
-4.65121
-6.41882
-8.11756
-9.87047
-11.5207
-13.1747
-14.805
-16.4395
-18.1008
-19.7092
-21.2019
-22.5192
-23.6461
-24.5827
0.49662
0.49368
0.687661
0.792281
0.666785
0.30465
-0.463099
-1.61769
-3.12703
-4.78362
-6.59097
-8.32138
-10.1152
-11.7777
-13.4055
-14.932
-16.3604
-17.7246
-18.9739
-20.0741
-21.018
-21.8133
-22.4368
0.499203
0.494977
0.684648
0.786304
0.652244
0.276435
-0.511112
-1.68837
-3.22685
-4.90864
-6.75154
-8.51022
-10.3437
-12.0168
-13.6142
-15.0277
-16.2315
-17.2768
-18.1423
-18.8259
-19.4084
-19.9152
-20.2605
0.499542
0.494383
0.679783
0.778051
0.635447
0.246951
-0.558198
-1.75469
-3.31807
-5.02111
-6.89635
-8.68146
-10.5552
-12.2403
-13.8063
-15.1038
-16.0742
-16.7882
-17.2561
-17.5219
-17.7555
-17.9843
-18.0676
0.498603
0.492827
0.674273
0.769235
0.618635
0.218925
-0.601359
-1.8138
-3.39845
-5.11984
-7.02562
-8.83683
-10.753
-12.4536
-13.9906
-15.1759
-15.9153
-16.2956
-16.368
-16.2333
-16.1123
-16.0413
-15.8668
0.497145
0.491021
0.669018
0.760943
0.603097
0.193686
-0.639534
-1.86535
-3.4687
-5.20684
-7.14262
-8.98061
-10.942
-12.6632
-14.1771
-15.2614
-15.7848
-15.8421
-15.5379
-15.0214
-14.5379
-14.1668
-13.7482
0.495569
0.489303
0.664419
0.753639
0.589261
0.171389
-0.673165
-1.91076
-3.5314
-5.28587
-7.25193
-9.11767
-11.1269
-12.8742
-14.3738
-15.3756
-15.7116
-15.4735
-14.8226
-13.9375
-13.0981
-12.4313
-11.7455
0.494048
0.487841
0.660583
0.74729
0.576904
0.151396
-0.703569
-1.95228
-3.58982
-5.3611
-7.35808
-9.25229
-11.3109
-13.0902
-14.5871
-15.5321
-15.7227
-15.2344
-14.2704
-13.0357
-11.8697
-10.9212
-9.96796
0.492601
0.486634
0.657389
0.741678
0.565608
0.132887
-0.732141
-1.99201
-3.64676
-5.43576
-7.46419
-9.38697
-11.4953
-13.3125
-14.8209
-15.7411
-15.8407
-15.1643
-13.9324
-12.4018
-10.9761
-9.76858
-8.5526
0.491209
0.485678
0.654683
0.736497
0.554889
0.115084
-0.760037
-2.03154
-3.70411
-5.51181
-7.57185
-9.52266
-11.68
-13.5411
-15.0779
-16.0111
-16.0847
-15.2982
-13.867
-12.126
-10.5002
-9.01939
-7.49169
0.489824
0.484905
0.652269
0.731524
0.544423
0.0974916
-0.787935
-2.07167
-3.76267
-5.58984
-7.68113
-9.65889
-11.8639
-13.7752
-15.3592
-16.3483
-16.4674
-15.6649
-14.1343
-12.2843
-10.5129
-8.78264
-6.9532
0.488432
0.484295
0.650022
0.726576
0.533973
0.0798075
-0.816158
-2.11266
-3.8225
-5.66958
-7.79123
-9.79455
-12.0453
-14.0135
-15.6654
-16.7565
-16.997
-16.2922
-14.8009
-12.9648
-11.1403
-9.26494
-7.22257
0.487025
0.483793
0.647822
0.721587
0.523473
0.0619724
-0.8447
-2.15435
-3.88311
-5.75012
-7.90074
-9.92806
-12.2226
-14.254
-15.9948
-17.2361
-17.6762
-17.2074
-15.9323
-14.2686
-12.5714
-10.7715
-8.70018
0.485643
0.483397
0.645635
0.716516
0.51289
0.0439963
-0.873439
-2.19638
-3.94385
-5.83046
-8.00831
-10.058
-12.394
-14.4945
-16.3448
-17.7844
-18.5046
-18.4292
-17.5817
-16.3088
-15.0127
-13.5936
-11.748
0.484313
0.483066
0.643417
0.711394
0.502282
0.025989
-0.902156
-2.23836
-4.00402
-5.90962
-8.11263
-10.183
-12.5581
-14.7322
-16.7103
-18.3937
-19.4755
-19.9538
-19.7745
-19.1682
-18.5585
-17.8462
-16.5669
0.483095
0.482813
0.641188
0.706233
0.491669
0.00801619
-0.930693
-2.27997
-4.06309
-5.98686
-8.21278
-10.3022
-12.7135
-14.9638
-17.0851
-19.0512
-20.5732
-21.7416
-22.4742
-22.8754
-23.2703
-23.5171
-23.1233
0.482014
0.482601
0.638938
0.70108
0.481112
-0.00983369
-0.958901
-2.32094
-4.12066
-6.06165
-8.30812
-10.4147
-12.8591
-15.1851
-17.461
-19.7366
-21.7676
-23.7264
-25.6143
-27.4102
-29.1527
-30.471
-30.9203
0.481119
0.482444
0.636701
0.695938
0.470604
-0.0275517
-0.986735
-2.36119
-4.17654
-6.13378
-8.39837
-10.5202
-12.9944
-15.3914
-17.83
-20.4211
-23.0132
-25.8316
-29.0647
-32.4717
-35.6283
-37.9416
-39.0903
0.480409
0.482304
0.634467
0.690834
0.46017
-0.0451157
-1.01416
-2.40064
-4.23064
-6.20317
-8.48348
-10.6181
-13.1186
-15.5768
-18.1836
-21.0669
-24.2578
-27.9428
-32.5124
-37.522
-42.1318
-45.4976
-47.4011
0.479919
0.482201
0.632269
0.685749
0.449769
-0.0625709
-1.04123
-2.43936
-4.28302
-6.2699
-8.56363
-10.7082
-13.2321
-15.7343
-18.5155
-21.634
-25.4194
-29.8146
-35.5073
-42.1748
-48.6293
-53.2668
-55.9923
0.479568
0.482075
0.630074
0.680681
0.439387
-0.0799593
-1.06802
-2.47747
-4.3339
-6.33434
-8.63936
-10.7904
-13.3358
-15.8558
-18.8245
-22.0733
-26.3811
-31.3841
-38.4476
-47.1038
-55.3173
-61.287
-64.5368
0.479423
0.481969
0.62792
0.675599
0.42896
-0.097383
-1.09469
-2.51525
-4.38369
-6.39706
-8.71162
-10.865
-13.4324
-15.9324
-19.1139
-22.3336
-27.0865
-32.7815
-41.2031
-51.1052
-60.3388
-67.1187
-70.985
0.478568
0.48152
0.625671
0.670539
0.418629
-0.114715
-1.12129
-2.55312
-4.43336
-6.45979
-8.78331
-10.9352
-13.5301
-15.9645
-19.4007
-22.3905
-27.4989
-33.9246
-42.6389
-52.4475
-62.1831
-69.8273
-74.3752
0.478683
0.481476
0.623997
0.666055
0.408776
-0.131908
-1.14845
-2.593
-4.48672
-6.52905
-8.86472
-11.016
-13.6556
-15.9872
-19.7255
-22.326
-27.931
-35.0273
-43.3324
-52.9153
-62.9633
-71.3866
-76.4457
0.480002
0.481972
0.623367
0.662576
0.399739
-0.149117
-1.17739
-2.6378
-4.54895
-6.61268
-8.96708
-11.123
-13.8313
-16.0434
-20.114
-22.3789
-28.5727
-35.7024
-43.6806
-53.8838
-64.3201
-72.7394
-77.6983
0.482498
0.482911
0.623713
0.659811
0.390905
-0.167549
-1.21021
-2.69078
-4.6247
-6.71622
-9.09747
-11.2637
-14.0676
-16.1605
-20.5771
-22.7716
-29.2253
-35.5691
-43.3098
-54.6406
-65.592
-73.6513
-78.0484
0.485629
0.483832
0.624448
0.657031
0.381266
-0.188606
-1.24874
-2.75401
-4.71598
-6.84064
-9.25603
-11.4361
-14.3587
-16.3516
-21.1011
-23.4982
-29.5556
-34.8549
-42.6263
-54.9376
-66.2263
-74.0772
-77.9425
0.489068
0.484482
0.625128
0.653593
0.369957
-0.213379
-1.29417
-2.82847
-4.8231
-6.98428
-9.43875
-11.6321
-14.6879
-16.6131
-21.6505
-24.4296
-29.5538
-34.1713
-42.2491
-55.088
-66.5251
-74.3916
-77.9959
0.492771
0.484848
0.625581
0.649335
0.356882
-0.24164
-1.34551
-2.91159
-4.94109
-7.13837
-9.63198
-11.8321
-15.0191
-16.9118
-22.1495
-25.3739
-29.4577
-33.9755
-42.5112
-55.4079
-66.8238
-74.8105
-78.4416
0.496599
0.484893
0.625658
0.644057
0.341855
-0.273459
-1.40249
-3.00238
-5.06765
-7.29807
-9.82699
-12.0219
-15.3229
-17.2138
-22.5494
-26.2632
-29.5508
-34.3839
-43.4618
-56.104
-67.3407
-75.4105
-79.2868
0.500989
0.485065
0.625839
0.638449
0.325778
-0.307495
-1.46305
-3.0976
-5.19804
-7.45694
-10.0143
-12.1895
-15.5787
-17.4895
-22.7992
-26.97
-29.8028
-35.076
-44.6148
-56.8044
-67.5444
-75.4207
-79.4445
0.505289
0.484952
0.625686
0.632003
0.308468
-0.343247
-1.52521
-3.19278
-5.32421
-7.60193
-10.1742
-12.3068
-15.7426
-17.6794
-22.8717
-27.5211
-30.2674
-35.9483
-45.6653
-57.3638
-67.5358
-75.135
-79.1955
0.509273
0.484376
0.624677
0.624285
0.289432
-0.380975
-1.58876
-3.28689
-5.44427
-7.73077
-10.3046
-12.3751
-15.8123
-17.7653
-22.7285
-27.8006
-30.8059
-36.7831
-46.3696
-57.376
-66.9312
-74.0945
-77.9378
0.512833
0.483351
0.62278
0.615398
0.269011
-0.419938
-1.65254
-3.37854
-5.55719
-7.84409
-10.4087
-12.4036
-15.8003
-17.7472
-22.3709
-27.7519
-31.2398
-37.3499
-46.5992
-56.6155
-65.3758
-71.7815
-75.0507
0.516188
0.482205
0.620558
0.606205
0.24845
-0.458401
-1.71428
-3.46506
-5.6604
-7.94062
-10.4873
-12.3976
-15.7166
-17.6321
-21.8305
-27.3873
-31.4597
-37.5489
-46.3043
-55.2039
-62.8766
-68.2042
-70.6269
0.519536
0.481212
0.618469
0.597302
0.228578
-0.495276
-1.77269
-3.54526
-5.75338
-8.02175
-10.5444
-12.3669
-15.5794
-17.4453
-21.1686
-26.7716
-31.4209
-37.3571
-45.5301
-53.4288
-59.666
-63.7774
-65.1994
0.522863
0.480384
0.616598
0.588867
0.209611
-0.530374
-1.82782
-3.61979
-5.8381
-8.09215
-10.5889
-12.3269
-15.4175
-17.2289
-20.4658
-26.0017
-31.1272
-36.795
-44.2938
-51.2896
-56.0304
-58.9911
-59.4373
0.52616
0.479699
0.614926
0.580809
0.19139
-0.56403
-1.88038
-3.69022
-5.91767
-8.15774
-10.6308
-12.2945
-15.262
-17.0299
-19.8062
-25.1856
-30.6288
-35.9173
-42.6198
-48.6344
-52.163
-54.1505
-53.854
0.52937
0.479077
0.613356
0.573024
0.173709
-0.596647
-1.93118
-3.7581
-5.99486
-8.22344
-10.6781
-12.2828
-15.1382
-16.8869
-19.2594
-24.4145
-29.9667
-34.7847
-40.6258
-45.524
-48.1699
-49.3703
-48.6004
0.532512
0.478506
0.611846
0.565376
0.156349
-0.628603
-1.98088
-3.82461
-6.07161
-8.29238
-10.7355
-12.2988
-15.0606
-16.823
-18.8664
-23.7588
-29.2123
-33.5107
-38.4416
-42.2529
-44.2057
-44.6307
-43.6108
0.535548
0.477933
0.610322
0.557799
0.139182
-0.660122
-2.02988
-3.89041
-6.14884
-8.36574
-10.8041
-12.343
-15.0326
-16.8437
-18.6378
-23.2386
-28.447
-32.2498
-36.2048
-39.0767
-40.3512
-40.1246
-39.0467
0.538508
0.47737
0.608774
0.550215
0.122107
-0.691358
-2.07838
-3.95577
-6.22673
-8.44327
-10.8827
-12.4116
-15.0487
-16.9391
-18.559
-22.8257
-27.6143
-31.031
-34.0058
-36.0119
-36.6204
-36.0751
-35.0336
0.541358
0.47678
0.607157
0.542617
0.105097
-0.722347
-2.12644
-4.02068
-6.30495
-8.52377
-10.9681
-12.4974
-15.0968
-17.0884
-18.5947
-22.4874
-26.654
-29.7905
-31.8809
-33.0527
-33.1691
-32.495
-31.4437
0.544129
0.476186
0.605484
0.534969
0.0881233
-0.753111
-2.17402
-4.08499
-6.38291
-8.60567
-11.0567
-12.5924
-15.1622
-17.2648
-18.6976
-22.2012
-25.6059
-28.4869
-29.8242
-30.2899
-30.0713
-29.2596
-28.1086
0.546787
0.475557
0.603724
0.52729
0.0712043
-0.783616
-2.22104
-4.14847
-6.45997
-8.68728
-11.1449
-12.6883
-15.2296
-17.4403
-18.8179
-21.9463
-24.5341
-27.0992
-27.8451
-27.8101
-27.2936
-26.2717
-24.9502
0.549368
0.474921
0.601899
0.519555
0.0543295
-0.813855
-2.26744
-4.21091
-6.53552
-8.7671
-11.2295
-12.7784
-15.2852
-17.5895
-18.9104
-21.6971
-23.4757
-25.6352
-25.9831
-25.5547
-24.7488
-23.4991
-21.9941
0.551836
0.474245
0.59998
0.511787
0.0375174
-0.843796
-2.31314
-4.2721
-6.609
-8.84384
-11.3078
-12.8567
-15.3177
-17.6916
-18.9382
-21.4244
-22.4468
-24.1186
-24.1814
-23.4213
-22.3409
-20.882
-19.2198
0.554229
0.473557
0.597988
0.503956
0.0207515
-0.873443
-2.3581
-4.33188
-6.67999
-8.9165
-11.3779
-12.9194
-15.3188
-17.7317
-18.8758
-21.1021
-21.4596
-22.587
-22.3892
-21.357
-20.0046
-18.3274
-16.5245
0.556507
0.472826
0.595892
0.49608
0.00404127
-0.902775
-2.40225
-4.39009
-6.74811
-8.98427
-11.4384
-12.9637
-15.2833
-17.7013
-18.7098
-20.7103
-20.5145
-21.0919
-20.6224
-19.3312
-17.6722
-15.7845
-13.8543
0.558709
0.472078
0.593712
0.488126
-0.0126366
-0.931805
-2.44557
-4.4466
-6.81306
-9.04657
-11.4884
-12.9885
-15.209
-17.5974
-18.4339
-20.2354
-19.5975
-19.6451
-18.9181
-17.3517
-15.3896
-13.3319
-11.3124
0.56079
0.471282
0.591413
0.480108
-0.0292761
-0.960514
-2.48799
-4.50127
-6.87456
-9.10294
-11.5275
-12.9933
-15.0958
-17.4221
-18.049
-19.6647
-18.6911
-18.2322
-17.2589
-15.4598
-13.2751
-11.104
-9.03835
0.562789
0.470463
0.589014
0.471991
-0.0459004
-0.98891
-2.52947
-4.55397
-6.93236
-9.15306
-11.5554
-12.9788
-14.946
-17.1823
-17.5721
-19.0043
-17.7912
-16.9116
-15.6584
-13.6824
-11.3437
-9.10203
-7.02047
0.564655
0.469589
0.586479
0.463788
-0.0625007
-1.01696
-2.56995
-4.60455
-6.98624
-9.19666
-11.5721
-12.946
-14.7629
-16.8889
-17.0396
-18.2478
-16.9017
-15.7418
-14.1955
-12.0289
-9.56437
-7.29348
-5.23486
0.566429
0.468687
0.583826
0.455465
-0.0790955
-1.04467
-2.60936
-4.65287
-7.03599
-9.23358
-11.5779
-12.8966
-14.551
-16.5521
-16.4953
-17.4376
-16.0214
-14.6736
-12.8561
-10.4885
-7.94926
-5.71155
-3.73795
0.568054
0.467723
0.58102
0.44704
-0.0956704
-1.072
-2.64762
-4.69878
-7.0814
-9.26368
-11.5731
-12.8323
-14.3152
-16.1791
-15.9096
-16.6563
-15.1692
-13.6413
-11.597
-9.08642
-6.55497
-4.39639
-2.56184
0.569576
0.466723
0.578079
0.43848
-0.112239
-1.09893
-2.68468
-4.74214
-7.12231
-9.2869
-11.558
-12.755
-14.0609
-15.7837
-15.269
-15.856
-14.3288
-12.6449
-10.4119
-7.84368
-5.39797
-3.32796
-1.63741
0.57093
0.465654
0.574968
0.429804
-0.128781
-1.12542
-2.72042
-4.7828
-7.15854
-9.30317
-11.5329
-12.6664
-13.7929
-15.3818
-14.6206
-14.9286
-13.4506
-11.6813
-9.31432
-6.74869
-4.43797
-2.46587
-0.894827
0.572168
0.464542
0.571706
0.420981
-0.145307
-1.15146
-2.7548
-4.82064
-7.18995
-9.31247
-11.4983
-12.5683
-13.5156
-14.9814
-14.0164
-13.9535
-12.5199
-10.7288
-8.31635
-5.81401
-3.65318
-1.80479
-0.344435
0.573221
0.463352
0.568257
0.412032
-0.161795
-1.17699
-2.78771
-4.85552
-7.21637
-9.31476
-11.4543
-12.4622
-13.2328
-14.5842
-13.4703
-13.0682
-11.5897
-9.79121
-7.41739
-5.05162
-3.04758
-1.35101
0.00252033
0.574144
0.462111
0.564641
0.402926
-0.178253
-1.20199
-2.81909
-4.88731
-7.23766
-9.31003
-11.4014
-12.3493
-12.9478
-14.1899
-12.9828
-12.3035
-10.7197
-8.92072
-6.64848
-4.43881
-2.5727
-1.03878
0.209133
0.574863
0.460784
0.560823
0.393685
-0.194658
-1.22642
-2.84884
-4.91587
-7.25368
-9.29823
-11.3397
-12.2304
-12.6632
-13.798
-12.5488
-11.6265
-9.94035
-8.17482
-6.0349
-3.95959
-2.20191
-0.81862
0.318219
0.575438
0.459396
0.556822
0.384277
-0.211017
-1.25025
-2.87691
-4.94109
-7.26426
-9.27932
-11.2693
-12.1059
-12.381
-13.408
-12.1527
-11.0226
-9.27468
-7.55098
-5.52273
-3.57911
-1.94208
-0.681698
0.344587
0.575792
0.457912
0.5526
0.374725
-0.227308
-1.27344
-2.90318
-4.96282
-7.26924
-9.25321
-11.1901
-11.9761
-12.1029
-13.0184
-11.781
-10.4868
-8.7099
-7.02046
-5.07048
-3.26303
-1.7822
-0.63978
0.282915
0.575985
0.456359
0.548179
0.364996
-0.243535
-1.29596
-2.9276
-4.98094
-7.26844
-9.21982
-11.1023
-11.8407
-11.8296
-12.6274
-11.4257
-10.0053
-8.21959
-6.56985
-4.69452
-3.02191
-1.69972
-0.665887
0.162071
0.575937
0.454698
0.543518
0.355114
-0.259674
-1.31775
-2.95006
-4.99528
-7.26165
-9.17901
-11.0057
-11.6994
-11.5621
-12.2343
-11.0828
-9.57521
-7.80032
-6.19538
-4.40422
-2.87089
-1.68122
-0.737684
0.0166258
0.57571
0.452957
0.538638
0.345044
-0.275732
-1.33879
-2.97047
-5.00571
-7.2487
-9.1307
-10.9002
-11.5515
-11.3009
-11.8424
-10.7492
-9.19108
-7.44512
-5.88138
-4.18966
-2.79306
-1.70988
-0.844215
-0.154945
0.575228
0.4511
0.5335
0.334814
-0.291675
-1.35901
-2.98871
-5.01203
-7.22931
-9.07469
-10.7858
-11.3963
-11.0467
-11.4568
-10.4159
-8.84634
-7.14303
-5.62634
-4.04844
-2.76443
-1.77005
-0.98226
-0.358568
0.574537
0.449144
0.528118
0.324375
-0.307536
-1.37843
-3.00479
-5.01425
-7.20346
-9.0111
-10.6625
-11.2325
-10.8001
-11.0915
-10.0787
-8.53721
-6.89401
-5.43199
-3.96178
-2.77192
-1.85818
-1.14009
-0.572221
0.573664
0.447105
0.522486
0.313781
-0.323235
-1.39688
-3.01836
-5.01179
-7.17036
-8.93909
-10.53
-11.0609
-10.5587
-10.7374
-9.72558
-8.24773
-6.68418
-5.28457
-3.91184
-2.80702
-1.96398
-1.30453
-0.784155
0.572585
0.444969
0.516537
0.302735
-0.33937
-1.41543
-3.03104
-5.00671
-7.13203
-8.86056
-10.3886
-10.8744
-10.3235
-10.4459
-9.40717
-7.9842
-6.50669
-5.1608
-3.87413
-2.84914
-2.06345
-1.45283
-0.972332
0.573248
0.443635
0.510741
0.290941
-0.356865
-1.43501
-3.04243
-4.99548
-7.0805
-8.76223
-10.2253
-10.6864
-10.069
-9.99621
-8.93642
-7.6317
-6.29798
-5.05208
-3.88039
-2.94031
-2.20862
-1.6408
-1.18903
0.571528
0.440157
0.502415
0.27639
-0.375816
-1.45269
-3.04528
-4.96573
-6.99917
-8.62297
-10.016
-10.4884
-9.88822
-9.74719
-8.78106
-7.552
-6.26588
-5.09429
-4.01263
-3.1249
-2.42966
-1.88738
-1.45634
0.568214
0.434884
0.491195
0.258875
-0.396529
-1.46812
-3.03809
-4.91477
-6.88501
-8.44083
-9.75806
-10.2513
-9.6818
-9.47725
-8.62554
-7.47777
-6.25574
-5.15903
-4.15744
-3.31903
-2.66101
-2.1412
-1.72865
0.563526
0.427952
0.477179
0.238556
-0.418817
-1.48126
-3.02128
-4.84375
-6.73989
-8.21939
-9.45175
-9.94668
-9.37452
-9.0505
-8.2707
-7.24614
-6.15085
-5.15542
-4.24525
-3.47366
-2.85891
-2.37324
-1.98282
0.558272
0.420168
0.46156
0.217114
-0.440109
-1.48834
-2.98955
-4.74584
-6.55537
-7.94924
-9.08492
-9.55782
-8.96832
-8.51754
-7.77776
-6.90168
-5.9572
-5.07947
-4.27388
-3.5817
-3.01898
-2.58077
-2.22331
0.552968
0.412062
0.445188
0.195726
-0.458276
-1.48579
-2.93733
-4.61295
-6.3204
-7.61614
-8.64173
-9.07832
-8.49196
-7.96211
-7.2497
-6.50979
-5.70724
-4.9498
-4.25072
-3.6431
-3.1514
-2.76409
-2.44281
0.547023
0.403334
0.427825
0.174479
-0.472668
-1.47205
-2.86182
-4.44081
-6.02871
-7.21143
-8.11388
-8.50894
-7.95944
-7.40747
-6.72067
-6.08167
-5.41015
-4.76364
-4.16751
-3.65457
-3.23888
-2.90275
-2.62169
0.539856
0.393449
0.408871
0.152799
-0.483538
-1.44696
-2.76256
-4.22896
-5.6799
-6.73499
-7.50396
-7.85542
-7.36792
-6.83355
-6.18031
-5.61138
-5.05551
-4.51163
-4.0212
-3.60264
-3.25447
-2.97453
-2.73946
0.530862
0.381898
0.387744
0.130292
-0.491037
-1.41049
-2.63987
-3.9791
-5.27808
-6.19452
-6.82498
-7.13018
-6.71526
-6.22249
-5.61371
-5.10551
-4.6476
-4.20261
-3.81029
-3.47047
-3.18815
-2.96138
-2.76869
0.519931
0.368435
0.364239
0.106887
-0.494829
-1.36214
-2.49406
-3.6941
-4.83065
-5.60378
-6.09767
-6.35379
-6.0121
-5.57884
-5.02519
-4.58076
-4.20474
-3.84646
-3.53089
-3.26004
-3.0374
-2.85335
-2.69484
0.506796
0.352833
0.338298
0.0830029
-0.494008
-1.30098
-2.32562
-3.37823
-4.34812
-4.98099
-5.34766
-5.55357
-5.28078
-4.91952
-4.43224
-4.04679
-3.73889
-3.45028
-3.19846
-2.98535
-2.80695
-2.65777
-2.53018
0.491497
0.335058
0.310194
0.059321
-0.487353
-1.22607
-2.13583
-3.03765
-3.8437
-4.34679
-4.60187
-4.75891
-4.54687
-4.26003
-3.84769
-3.51484
-3.26549
-3.03351
-2.83293
-2.66249
-2.51888
-2.39915
-2.29851
0.473785
0.31498
0.280251
0.0368516
-0.473534
-1.13701
-1.92744
-2.68082
-3.33278
-3.7221
-3.88504
-3.99663
-3.83416
-3.61535
-3.28095
-2.99966
-2.7991
-2.61102
-2.45025
-2.31322
-2.1982
-2.10246
-2.02224
0.453727
0.292731
0.249131
0.0166823
-0.45148
-1.03441
-1.70512
-2.31824
-2.83149
-3.12594
-3.2177
-3.2888
-3.16474
-3.00423
-2.7463
-2.50815
-2.34778
-2.19675
-2.06714
-1.95602
-1.86321
-1.78492
-1.71981
0.43109
0.268297
0.217499
-7.2822e-06
-0.42065
-0.920324
-1.47547
-1.96164
-2.35512
-2.574
-2.61475
-2.65181
-2.55575
-2.44016
-2.2529
-2.05383
-1.92482
-1.80364
-1.69849
-1.60761
-1.53087
-1.4653
-1.41156
0.406047
0.242101
0.186329
-0.0122946
-0.381429
-0.798386
-1.24646
-1.62261
-1.91662
-2.07749
-2.08516
-2.09554
-2.01954
-1.93556
-1.80983
-1.64833
-1.54075
-1.44317
-1.35724
-1.28193
-1.21757
-1.16209
-1.11603
0.378456
0.21436
0.156459
-0.0195671
-0.335255
-0.673553
-1.02652
-1.31117
-1.52537
-1.64284
-1.63206
-1.62336
-1.56216
-1.49819
-1.42144
-1.30098
-1.2095
-1.12897
-1.05862
-0.996721
-0.942799
-0.89558
-0.855948
0.348779
0.185799
0.128867
-0.0219074
-0.28468
-0.55152
-0.8233
-1.03471
-1.18678
-1.27212
-1.25376
-1.233
-1.18343
-1.13117
-1.0869
-1.00879
-0.936177
-0.871214
-0.812312
-0.761028
-0.716123
-0.676292
-0.642582
0.317083
0.156869
0.104081
-0.0200322
-0.232994
-0.437813
-0.642782
-0.797431
-0.902603
-0.964115
-0.945554
-0.918938
-0.879338
-0.835178
-0.807537
-0.764575
-0.713741
-0.666119
-0.619359
-0.577312
-0.540858
-0.508211
-0.48018
0.284135
0.128459
0.0824683
-0.015386
-0.183746
-0.337011
-0.488625
-0.600612
-0.671602
-0.715474
-0.70119
-0.674167
-0.64359
-0.607753
-0.58662
-0.566374
-0.536514
-0.505591
-0.472549
-0.439639
-0.4103
-0.384162
-0.361641
0.250281
0.101057
0.0637645
-0.00977159
-0.140053
-0.25212
-0.362219
-0.442906
-0.490112
-0.520883
-0.512736
-0.489347
-0.466588
-0.440003
-0.421773
-0.412069
-0.398654
-0.381305
-0.361301
-0.338696
-0.316621
-0.29658
-0.279119
0.216392
0.0753699
0.0474884
-0.00502924
-0.104202
-0.184421
-0.262928
-0.320999
-0.352436
-0.373472
-0.371043
-0.353682
-0.337343
-0.319805
-0.305174
-0.298515
-0.29477
-0.287445
-0.277428
-0.264631
-0.249944
-0.235186
-0.222375
0.18301
0.0516361
0.032819
-0.0026883
-0.0773258
-0.133794
-0.188649
-0.230512
-0.25195
-0.265981
-0.267549
-0.256992
-0.245997
-0.235913
-0.226348
-0.22067
-0.22011
-0.21902
-0.215411
-0.209643
-0.2018
-0.192553
-0.184048
0.150765
0.0301263
0.018961
-0.00359954
-0.0596719
-0.0990357
-0.136678
-0.166895
-0.182407
-0.191837
-0.195626
-0.191296
-0.185163
-0.180555
-0.176396
-0.172915
-0.17265
-0.174195
-0.174279
-0.172834
-0.170099
-0.165763
-0.160854
0.120187
0.0107391
0.00553559
-0.0081153
-0.0505568
-0.078326
-0.103925
-0.125894
-0.138067
-0.144984
-0.149607
-0.149903
-0.147967
-0.147002
-0.146898
-0.146441
-0.146546
-0.148181
-0.149706
-0.1502
-0.149881
-0.148438
-0.146199
0.0913742
-0.00627845
-0.00755605
-0.0155444
-0.0485682
-0.0689344
-0.0867094
-0.102988
-0.113493
-0.119627
-0.124753
-0.128191
-0.12998
-0.131918
-0.134753
-0.137402
-0.139351
-0.141251
-0.143241
-0.144513
-0.145259
-0.145444
-0.144933
0.065037
-0.0206881
-0.0194992
-0.0243345
-0.0509418
-0.0669645
-0.0798419
-0.0922653
-0.101694
-0.107874
-0.113253
-0.118292
-0.122526
-0.126464
-0.130876
-0.135371
-0.139146
-0.141965
-0.144134
-0.145648
-0.146712
-0.147487
-0.147772
0.0411503
-0.0315869
-0.0285493
-0.0314106
-0.0532698
-0.0666165
-0.0763768
-0.0860667
-0.0945767
-0.101016
-0.106704
-0.112481
-0.118135
-0.123473
-0.128862
-0.1343
-0.139327
-0.143393
-0.146285
-0.148179
-0.149428
-0.150394
-0.151127
0.0216144
-0.0372389
-0.0318122
-0.0327458
-0.0504386
-0.061822
-0.0693677
-0.0768256
-0.0841082
-0.0901981
-0.0955788
-0.100918
-0.106375
-0.111611
-0.11666
-0.121552
-0.126203
-0.130254
-0.133342
-0.13522
-0.136231
-0.136801
-0.137197
0.00296796
-0.0373098
-0.0267478
-0.0231886
-0.0349709
-0.0433443
-0.0488526
-0.0553606
-0.0635672
-0.0724119
-0.0817257
-0.0916085
-0.102193
-0.113045
-0.123845
-0.134263
-0.14429
-0.153888
-0.162824
-0.170171
-0.175262
-0.178113
-0.179317
0.006913
-0.0219683
-0.0103374
-0.00536461
-0.0100154
-0.0117237
-0.00912758
-0.00522786
-0.00178206
0.00179162
0.00553674
0.00949573
0.0132024
0.0168402
0.0204284
0.0240332
0.0272798
0.03036
0.0338794
0.0385147
0.0437915
0.0485532
0.0519633
0.537485
0.4358
0.515378
0.654797
0.84884
1.12967
1.52301
2.05639
2.75483
3.63076
4.69795
5.96591
7.45869
9.19384
11.1806
13.39
15.7597
18.1942
20.586
22.8302
24.8511
26.5909
28.0663
0.546379
0.484123
0.545526
0.686218
0.878926
1.15151
1.53275
2.04962
2.728
3.58548
4.63782
5.89604
7.37687
9.08979
11.0324
13.1703
15.4387
17.7456
19.9895
22.0753
23.9348
25.5235
26.8567
0.556546
0.534537
0.58397
0.719116
0.907631
1.16772
1.52855
2.01726
2.66034
3.47966
4.4939
5.71626
7.15882
8.82451
10.7016
12.7505
14.9047
17.0755
19.1676
21.0951
22.7973
24.2414
25.441
0.569151
0.583371
0.629894
0.755139
0.935734
1.1798
1.51344
1.96359
2.55704
3.31861
4.27003
5.42721
6.80045
8.38872
10.1743
12.1143
14.1413
16.1705
18.1121
19.888
21.444
22.7564
23.8374
0.586341
0.627
0.67914
0.793809
0.96261
1.18706
1.48763
1.88967
2.41988
3.10473
3.96883
5.03101
6.30238
7.78076
9.44637
11.2553
13.142
15.0255
16.8217
18.4586
19.8862
21.0863
22.0684
0.609223
0.661703
0.723103
0.829027
0.982551
1.18301
1.44438
1.78905
2.24267
2.83265
3.58549
4.52332
5.65952
6.99393
8.5081
10.1611
11.8913
13.6239
15.2811
16.7958
18.1207
19.2381
20.1534
0.633727
0.683105
0.750609
0.850088
0.986585
1.15858
1.37456
1.65291
2.01743
2.49511
3.11388
3.89882
4.86707
6.02264
7.352
8.8202
10.3733
11.9447
13.4646
14.871
16.1186
17.1876
18.0779
0.650473
0.694124
0.763051
0.859501
0.981445
1.12323
1.28846
1.49143
1.75349
2.10103
2.56394
3.17127
3.94549
4.89683
6.01881
7.28447
8.64891
10.0549
11.4405
12.7483
13.9333
14.9703
15.8517
0.430763
0.101379
0.334189
0.386013
0.580529
0.871332
1.24184
1.8083
2.51523
3.31169
4.21839
5.13425
6.16806
7.32864
8.69103
10.2225
11.8602
13.4944
15.0243
16.3734
17.4992
18.4112
19.1082
0.432586
0.107298
0.333563
0.388817
0.582123
0.872436
1.24479
1.8139
2.52756
3.34201
4.27885
5.25314
6.36697
7.63894
9.13776
10.8356
12.6694
14.5297
16.311
17.9241
19.3154
20.4776
21.3996
0.435392
0.116385
0.334929
0.392397
0.584356
0.87189
1.24326
1.81046
2.52555
3.35202
4.31157
5.33631
6.52071
7.8925
9.51383
11.3609
13.3707
15.4352
17.446
19.3043
20.9472
22.3493
23.495
0.439025
0.12909
0.340678
0.399501
0.591192
0.875241
1.24457
1.80681
2.51928
3.35196
4.32643
5.3917
6.63531
8.09309
9.82143
11.799
13.9628
16.2058
18.4186
20.4948
22.3644
23.9853
25.3405
0.443617
0.144877
0.352063
0.412597
0.60627
0.888108
1.25619
1.81244
2.52003
3.35451
4.33712
5.43275
6.7233
8.25172
10.0699
12.1579
14.4519
16.8458
19.2292
21.49
23.5535
25.3628
26.9024
0.449224
0.163089
0.369255
0.432727
0.631034
0.913178
1.28233
1.83324
2.5355
3.36895
4.35431
5.47069
6.79582
8.37886
10.2688
12.446
14.846
17.3622
19.8829
22.2923
24.5118
26.473
28.1635
0.455983
0.182151
0.389379
0.456797
0.660955
0.945443
1.31806
1.86536
2.56375
3.39628
4.38274
5.51408
6.86459
8.4884
10.4327
12.6782
15.1591
17.7684
20.3925
22.9123
25.2475
27.3205
29.1235