/*--------------------------------*- C++ -*----------------------------------*\
  =========                 |
  \\      /  F ield         | OpenFOAM: The Open Source CFD Toolbox
   \\    /   O peration     | Website:  https://openfoam.org
    \\  /    A nd           | Version:  7
     \\/     M anipulation  |
\*---------------------------------------------------------------------------*/
FoamFile
{
    version     2.0;
    format      ascii;
    class       surfaceScalarField;
    location    "50";
    object      phi;
}
// * * * * * * * * * * * * * * * * * * * * * * * * * * * * * * * * * * * * * //

dimensions      [0 3 -1 0 0 0 0];

internalField   nonuniform List<scalar> 
25449
(
68.4436
46.9324
-22.4994
50.7592
34.7153
-17.0309
37.8329
25.8191
-12.8928
28.3117
19.2849
-9.76364
21.2555
14.4548
-7.39863
16.0004
10.8676
-5.61244
12.0714
8.19294
-4.2639
9.12484
6.19227
-3.24574
6.90994
4.69151
-2.47662
5.24213
3.56284
-1.89502
3.98476
2.71194
-1.45457
3.03614
2.06898
-1.12036
2.3202
1.58205
-0.866115
1.77988
1.21238
-0.672062
1.37222
0.930989
-0.523324
1.0648
0.716135
-0.408718
0.833144
0.551523
-0.319869
0.658727
0.424966
-0.250549
0.527516
0.327372
-0.196159
0.428876
0.251955
-0.153314
0.354759
0.193621
-0.119504
0.299071
0.148528
-0.0928385
0.113693
-0.0718686
0.257248
53.5995
65.6377
39.9407
48.3742
29.8865
35.8733
22.4401
26.7313
16.8972
19.9977
12.7544
15.0104
9.648
11.2993
7.31273
8.52754
5.55374
6.45051
4.22699
4.88959
3.22542
3.71351
2.46905
2.82535
1.89786
2.15324
1.46666
1.64359
1.14132
1.25633
0.896038
0.961414
0.711297
0.736265
0.572297
0.563967
0.467823
0.431846
0.38937
0.330409
0.330494
0.252498
0.286313
0.192709
0.14683
0.253176
41.0059
79.4849
30.7616
58.6186
23.1436
43.4913
17.4568
32.4181
13.1971
24.2574
9.99748
18.21
7.58862
13.7082
5.77175
10.3444
4.3995
7.82276
3.36218
5.92691
2.57777
4.49792
1.98468
3.41844
1.53646
2.60146
1.19795
1.9821
0.942521
1.51176
0.749975
1.15396
0.604989
0.881251
0.495946
0.67301
0.414031
0.513762
0.352552
0.391888
0.306442
0.298608
0.27186
0.227292
0.172757
0.245934
31.0138
89.4333
23.4975
66.135
17.8186
49.1702
13.5277
36.7091
10.283
27.5021
7.82784
20.6652
5.9686
15.5674
4.55963
11.7534
3.49138
8.89102
2.68139
6.7369
2.06746
5.11185
1.60251
3.8834
1.25074
2.95324
0.984901
2.24793
0.784237
1.71242
0.63294
1.30526
0.519
0.995193
0.433296
0.758715
0.368905
0.578154
0.320572
0.440222
0.284312
0.334867
0.25711
0.254495
0.193162
0.236706
23.3761
96.3435
17.9697
71.5415
13.7809
53.359
10.5565
39.9335
8.08372
29.9748
6.19251
22.5564
4.7484
17.0115
3.64678
12.855
2.80713
9.73066
2.16784
7.3762
1.68176
5.59793
1.31278
4.25238
1.03319
3.23283
0.821681
2.45945
0.661898
1.87221
0.541341
1.42582
0.450485
1.08605
0.382086
0.827114
0.330647
0.629594
0.291992
0.478877
0.262957
0.363902
0.241148
0.276304
0.209546
0.224765
17.6693
100.924
13.8651
75.3457
10.7977
56.4264
8.36965
42.3616
6.46945
31.875
4.99441
24.0314
3.85532
18.1506
2.97874
13.7316
2.306
10.4034
1.79102
7.89119
1.39784
5.99111
1.0985
4.55173
0.871181
3.46015
0.698947
2.63168
0.56867
2.00249
0.470249
1.52424
0.395964
1.16034
0.339941
0.883138
0.297721
0.671815
0.265921
0.510678
0.241976
0.387847
0.223949
0.294332
0.223123
0.210372
13.4725
103.732
10.8713
77.947
8.63609
58.6616
6.79287
44.2048
5.30952
33.3584
4.13543
25.2055
3.21569
19.0704
2.50021
14.4471
1.9465
10.9571
1.51987
8.31781
1.19253
6.31845
0.942369
4.80189
0.75187
3.65065
0.607225
2.77633
0.497616
2.1121
0.414649
1.6072
0.351889
1.2231
0.304427
0.9306
0.268545
0.707698
0.241424
0.5378
0.220927
0.408344
0.205442
0.309818
0.234828
0.193739
10.4189
105.199
8.71578
79.6502
7.09309
60.2843
5.67463
45.6233
4.49066
34.5423
3.5307
26.1654
2.76576
19.8353
2.16319
15.0496
1.69242
11.4279
1.32706
8.68317
1.04518
6.60033
0.828894
5.01819
0.663695
3.81586
0.537965
2.90207
0.442481
2.20758
0.370026
1.67966
0.315048
1.27808
0.273315
0.972335
0.241628
0.739386
0.217564
0.561865
0.199294
0.426614
0.185425
0.323688
0.24535
0.174903
7.854
107.932
5.86112
81.6432
4.40363
61.7418
3.32904
46.6979
2.53103
35.3403
1.93535
26.7611
1.48793
20.2828
1.15015
15.3874
0.894166
11.6839
0.699814
8.87752
0.552253
6.74789
0.440392
5.13005
0.355768
3.90048
0.291864
2.96597
0.243639
2.25581
0.207218
1.71608
0.179663
1.30563
0.158767
0.993232
0.142888
0.755266
0.130802
0.573952
0.121593
0.435824
0.114581
0.330701
0.250701
0.109231
5.71411
109.929
4.263
83.0943
3.20662
62.7982
2.42995
47.4745
1.8544
35.9159
1.42537
27.1902
1.10308
20.605
0.859481
15.631
0.674498
11.8689
0.533738
9.01829
0.426646
6.85499
0.345351
5.21135
0.283802
3.96204
0.237304
3.01247
0.202192
2.29093
0.175629
1.74265
0.155464
1.3258
0.140086
1.00861
0.128312
0.767041
0.119267
0.582998
0.112304
0.442788
0.106946
0.33606
0.254831
0.102816
4.09514
111.362
3.05664
84.1329
2.30426
63.5506
1.75254
48.0262
1.34457
36.3239
1.04077
27.4939
0.812386
20.8334
0.63938
15.804
0.50757
12.0007
0.406923
9.11893
0.330108
6.9318
0.271665
5.26979
0.227352
4.00635
0.193841
3.04598
0.168495
2.31627
0.149257
1.76189
0.134565
1.34049
0.123258
1.01992
0.114498
0.775803
0.107675
0.589822
0.102343
0.448122
0.0981799
0.340223
0.258086
0.0949263
2.8796
112.368
2.15337
84.8591
1.62958
64.0744
1.24628
48.4095
0.963381
36.6067
0.752809
27.7045
0.594191
20.992
0.473568
15.9247
0.381168
12.0931
0.310223
9.18988
0.255798
6.98624
0.214233
5.31137
0.182627
4.03796
0.158671
3.06995
0.140496
2.33445
0.12662
1.77577
0.115919
1.3512
0.107568
1.02827
0.100982
0.78239
0.0957504
0.595055
0.0915763
0.452297
0.0882553
0.343545
0.260729
0.0856121
1.97471
113.049
1.48306
85.3508
1.12952
64.4279
0.870992
48.6681
0.680368
36.7974
0.538337
27.8466
0.430901
21.0995
0.348636
16.0069
0.28505
12.1567
0.235788
9.23914
0.197678
7.02434
0.168387
5.34065
0.146001
4.06035
0.128963
3.08698
0.115968
2.34745
0.105957
1.78578
0.0981251
1.35903
0.0918902
1.03451
0.0868552
0.787427
0.0827527
0.599159
0.079396
0.455655
0.0766638
0.346277
0.262949
0.0744452
1.31071
113.488
0.993237
85.6683
0.7647
64.6565
0.597152
48.8356
0.473428
36.9211
0.380858
27.9391
0.310239
21.1701
0.255492
16.0617
0.212524
12.1996
0.178739
9.27293
0.152238
7.05085
0.131653
5.36125
0.115782
4.07623
0.103618
3.09915
0.0942617
2.35681
0.0869583
1.79309
0.0811304
1.36486
0.0763677
1.03927
0.0724063
0.79139
0.0690806
0.602487
0.0662823
0.458454
0.0639495
0.348611
0.264883
0.0620165
0.823553
113.743
0.635655
85.8562
0.498802
64.7933
0.397409
48.937
0.321949
36.9966
0.264857
27.9962
0.220543
21.2144
0.185395
16.0968
0.157065
12.228
0.134231
9.29576
0.115906
7.06917
0.101424
5.37573
0.0900936
4.08755
0.0813104
3.10794
0.074469
2.36365
0.0690332
1.79852
0.0645846
1.36931
0.0608333
1.04303
0.0576081
0.794617
0.0548142
0.605282
0.0523978
0.460871
0.0503393
0.35067
0.266621
0.0486019
0.476941
113.863
0.383049
85.9501
0.311439
64.865
0.256509
48.9919
0.214545
37.0385
0.181858
28.0289
0.155519
21.2407
0.133684
16.1187
0.115237
12.2464
0.099749
9.31125
0.0868651
7.08206
0.07641
5.38619
0.0680507
4.09592
0.0614668
3.11453
0.0562586
2.36886
0.0520388
1.80275
0.0484936
1.37286
0.0454111
1.04611
0.0426793
0.797351
0.0402488
0.607715
0.0381011
0.46302
0.0362416
0.35253
0.268211
0.0346528
0.23273
113.882
0.206831
85.976
0.181219
64.8906
0.15844
49.0147
0.139261
37.0577
0.122964
28.0452
0.108578
21.2551
0.0955197
16.1317
0.083526
12.2584
0.0727847
9.32199
0.063367
7.09148
0.0554411
5.39411
0.0489171
4.10244
0.0436794
3.11976
0.0394707
2.37307
0.0360046
1.80621
0.0330318
1.37583
0.0303872
1.04876
0.027993
0.799747
0.0258258
0.609883
0.023886
0.46496
0.0221942
0.354222
0.269667
0.0207394
0.0657701
113.828
0.0881744
85.9536
0.0940672
64.8847
0.0926705
49.0161
0.0882305
37.0621
0.0823131
28.0511
0.0753716
21.2621
0.0676964
16.1394
0.0595915
12.2665
0.051654
9.32993
0.044226
7.09891
0.0377089
5.40064
0.0321719
4.10799
0.0276459
3.1243
0.0239715
2.37675
0.0209282
1.80926
0.0183013
1.37846
0.0159477
1.05111
0.0138038
0.801894
0.0118577
0.611831
0.0101147
0.466704
0.00860073
0.355737
0.270969
0.00729969
-0.0434738
113.719
0.0125091
85.8976
0.0391206
64.8581
0.0510989
49.0041
0.055432
37.0578
0.0554466
28.0511
0.0526135
21.2649
0.0478111
16.1442
0.0416954
12.2726
0.0351201
9.3365
0.0285839
7.10544
0.0226416
5.40657
0.0174597
4.11316
0.0131761
3.12858
0.00969743
2.38023
0.00684587
1.81211
0.00441843
1.38089
0.00227547
1.05326
0.00034826
0.803823
-0.0013766
0.613558
-0.0029043
0.468232
-0.00421034
0.357044
0.272085
-0.00532489
-0.11027
113.57
-0.0315823
85.819
0.00783435
64.8186
0.027318
48.9846
0.0360653
37.049
0.0387696
28.0484
0.0376185
21.2661
0.0338658
16.1479
0.0283597
12.2782
0.0220987
9.34277
0.015653
7.11189
0.00967504
5.41256
0.00438341
4.11847
-1.04164e-06
3.13297
-0.00352509
2.38376
-0.00634039
1.81493
-0.00865627
1.38321
-0.0106257
1.05523
-0.0123381
0.805538
-0.0138196
0.615042
-0.0150919
0.469505
-0.0161469
0.358099
0.272967
-0.017028
-0.147129
113.393
-0.0534578
85.7253
-0.00680687
64.772
0.016065
48.9618
0.0261845
37.0389
0.0293193
28.0453
0.028156
21.2672
0.0241735
16.1519
0.0183019
12.284
0.0116115
9.34945
0.00468575
7.11881
-0.0017609
5.419
-0.00748882
4.12419
-0.0122106
3.13769
-0.0159404
2.38749
-0.0188114
1.8178
-0.0210499
1.38544
-0.0228373
1.05702
-0.0242956
0.806999
-0.0254789
0.616225
-0.0264309
0.470459
-0.0271757
0.358844
0.273557
-0.0277638
-0.161299
113.195
-0.0585257
85.6225
-0.00890009
64.7224
0.0142068
48.9387
0.0233756
37.0298
0.0252323
28.0434
0.0227994
21.2696
0.0176593
16.1571
0.0107241
12.291
0.00307127
9.35711
-0.00475
7.12664
-0.0119875
5.42624
-0.0184051
4.13061
-0.0236527
3.14294
-0.0277128
2.39155
-0.0307034
1.8208
-0.032875
1.38762
-0.034453
1.0586
-0.0356065
0.808155
-0.0364294
0.61705
-0.037
0.471027
-0.0373776
0.359224
0.273809
-0.0376296
-0.158571
112.982
-0.0510127
85.5149
-0.00149638
64.6728
0.0195704
48.9176
0.0260932
37.0232
0.0253736
28.0441
0.0206525
21.2744
0.0135555
16.1642
0.00494413
12.2996
-0.0041218
9.36617
-0.013168
7.13568
-0.0214349
5.4345
-0.0287201
4.13789
-0.0346183
3.14883
-0.0390845
2.39602
-0.0422247
1.82393
-0.0443191
1.38971
-0.0456519
1.05993
-0.0464507
0.808955
-0.046863
0.617462
-0.0470004
0.471165
-0.0469775
0.359203
0.273691
-0.0468573
-0.451764
112.842
-0.347472
85.4107
-0.270421
64.5958
-0.21229
48.8595
-0.168454
36.9794
-0.135343
28.011
-0.110634
21.2497
-0.0926728
16.1462
-0.0802272
12.2871
-0.0721343
9.35808
-0.0674972
7.13104
-0.0652909
5.4323
-0.0647706
4.13738
-0.0650212
3.14909
-0.0653897
2.39639
-0.0654425
1.82399
-0.0650622
1.38933
-0.0643082
1.05918
-0.0633012
0.80795
-0.0621474
0.616309
-0.0609369
0.469956
-0.059788
0.358056
0.272639
-0.0587331
-0.440239
112.711
-0.341901
85.3123
-0.269164
64.5231
-0.214167
48.8045
-0.172611
36.9378
-0.14115
27.9795
-0.117626
21.2261
-0.100517
16.1291
-0.0886987
12.2753
-0.0810827
9.35045
-0.076828
7.12678
-0.0749296
5.4304
-0.074659
4.1371
-0.0750661
3.14949
-0.0754446
2.39677
-0.0753111
1.82386
-0.0745365
1.38856
-0.0732276
1.05787
-0.0715811
0.806306
-0.0697845
0.614511
-0.0679805
0.468154
-0.0663118
0.356388
0.271138
-0.0648075
-0.428827
112.587
-0.336047
85.2195
-0.267325
64.4543
-0.215243
48.7524
-0.175807
36.8984
-0.145876
27.9496
-0.123452
21.2037
-0.107133
16.1128
-0.0958927
12.2641
-0.0887129
9.34328
-0.0848037
7.12288
-0.0831824
5.42878
-0.0831385
4.13706
-0.0836935
3.15005
-0.0840888
2.39717
-0.0837927
1.82357
-0.0826636
1.38743
-0.0808592
1.05607
-0.0786503
0.804099
-0.076294
0.612157
-0.0739877
0.465848
-0.071888
0.35429
0.269281
-0.0700288
-0.417588
112.47
-0.330024
85.132
-0.265066
64.3894
-0.215713
48.703
-0.178258
36.861
-0.149754
27.9211
-0.128352
21.1823
-0.112763
16.0972
-0.102053
12.2534
-0.0952707
9.33649
-0.0916737
7.11927
-0.0903043
5.4274
-0.0904725
4.13722
-0.09118
3.15075
-0.0916179
2.3976
-0.0912057
1.82315
-0.0897848
1.38601
-0.0875592
1.05385
-0.0848634
0.801405
-0.0820253
0.609317
-0.0793098
0.463134
-0.0768945
0.351876
0.267187
-0.0747971
-0.406558
112.361
-0.323911
85.0493
-0.262494
64.328
-0.21571
48.6562
-0.180115
36.8254
-0.152949
27.8939
-0.1325
21.1619
-0.117587
16.0823
-0.107363
12.2432
-0.100942
9.33007
-0.0976272
7.11596
-0.096488
5.42627
-0.0968581
4.13759
-0.0977303
3.15163
-0.0982501
2.39813
-0.097786
1.82269
-0.0961508
1.38438
-0.0935819
1.05128
-0.0904836
0.798309
-0.0872697
0.606105
-0.084279
0.460144
-0.0816694
0.349268
0.264942
-0.0794219
-0.39576
112.258
-0.317761
84.9713
-0.259689
64.2699
-0.21533
48.6119
-0.181489
36.7915
-0.155582
27.868
-0.136025
21.1423
-0.121741
16.068
-0.111963
12.2334
-0.105871
9.32397
-0.10281
7.11289
-0.101881
5.42533
-0.102446
4.13815
-0.1035
3.15268
-0.104152
2.39877
-0.103715
1.82225
-0.101958
1.38262
-0.0991392
1.04846
-0.0957503
0.794922
-0.0922979
0.60265
-0.0891322
0.45698
-0.0863679
0.346505
0.262567
-0.0839893
-0.385206
112.161
-0.311614
84.8977
-0.256711
64.215
-0.214647
48.5698
-0.182465
36.7593
-0.157745
27.8433
-0.139025
21.1236
-0.125326
16.0543
-0.115959
12.224
-0.110167
9.31818
-0.107334
7.11006
-0.106598
5.4246
-0.107353
4.13891
-0.10861
3.15394
-0.109451
2.39962
-0.109134
1.82194
-0.107371
1.38086
-0.10443
1.04552
-0.100874
0.791367
-0.0972432
0.599022
-0.0938781
0.453615
-0.0909187
0.343546
0.260063
-0.0884129
-0.374907
112.071
-0.305501
84.8283
-0.253606
64.1631
-0.213719
48.5299
-0.18311
36.7287
-0.159513
27.8197
-0.141581
21.1057
-0.128428
16.0411
-0.119438
12.215
-0.113918
9.31265
-0.111292
7.10742
-0.110731
5.42403
-0.111671
4.13984
-0.113156
3.15541
-0.11425
2.4007
-0.114162
1.82184
-0.112542
1.37924
-0.109624
1.0426
-0.105957
0.787702
-0.102095
0.595157
-0.0984511
0.449973
-0.0952941
0.34039
0.257462
-0.0926897
-0.364866
111.986
-0.299445
84.7629
-0.25041
64.1141
-0.212594
48.4921
-0.183478
36.6996
-0.160945
27.7972
-0.143756
21.0885
-0.131114
16.0285
-0.122472
12.2064
-0.1172
9.30738
-0.114757
7.10498
-0.114356
5.42363
-0.115478
4.14096
-0.117212
3.15715
-0.118632
2.40213
-0.1189
1.82211
-0.11759
1.37793
-0.114814
1.03983
-0.111041
0.783929
-0.106919
0.591038
-0.103065
0.44612
-0.0998021
0.337128
0.254788
-0.0971265
-0.355088
111.906
-0.293464
84.7013
-0.247153
64.0677
-0.21131
48.4563
-0.183615
36.6719
-0.162092
27.7757
-0.145605
21.072
-0.133442
16.0163
-0.125121
12.1981
-0.120072
9.30232
-0.117792
7.10269
-0.117536
5.42336
-0.118833
4.14225
-0.120841
3.15915
-0.12266
2.40394
-0.123424
1.82287
-0.122589
1.37709
-0.120067
1.03731
-0.116295
0.780159
-0.112145
0.586885
-0.108329
0.442305
-0.105051
0.333849
0.251998
-0.102259
-0.345573
111.832
-0.287574
84.6433
-0.243862
64.024
-0.209899
48.4223
-0.183558
36.6456
-0.162997
27.7551
-0.147175
21.0562
-0.13546
16.0046
-0.127434
12.19
-0.122589
9.29748
-0.120451
7.10055
-0.120323
5.42323
-0.121791
4.14372
-0.124091
3.16145
-0.126384
2.40623
-0.12778
1.82427
-0.127587
1.3769
-0.125542
1.03527
-0.122155
0.776771
-0.118413
0.583146
-0.11483
0.438723
-0.111448
0.330468
0.248903
-0.108352
-0.336321
111.762
-0.281787
84.5887
-0.240557
63.9828
-0.20839
48.3902
-0.183342
36.6205
-0.163698
27.7355
-0.148506
21.041
-0.137213
15.9933
-0.129459
12.1823
-0.124796
9.29281
-0.122782
7.09853
-0.122765
5.42321
-0.124394
4.14533
-0.127
3.16405
-0.129832
2.40905
-0.131992
1.82642
-0.132664
1.37757
-0.131509
1.03411
-0.129039
0.774301
-0.125962
0.580067
-0.12245
0.435211
-0.118711
0.326728
0.245321
-0.115129
-0.327331
111.697
-0.276113
84.5375
-0.237256
63.944
-0.206808
48.3597
-0.182996
36.5967
-0.164226
27.7167
-0.149633
21.0264
-0.138736
15.9824
-0.131234
12.1748
-0.126734
9.28831
-0.124825
7.09662
-0.124901
5.42328
-0.126679
4.14711
-0.129595
3.16697
-0.133018
2.41248
-0.136079
1.82949
-0.137918
1.37941
-0.138148
1.03434
-0.136923
0.773073
-0.13432
0.577467
-0.130556
0.431447
-0.126442
0.322613
0.241461
-0.122582
-0.318602
111.637
-0.27056
84.4895
-0.233977
63.9074
-0.205175
48.3309
-0.182545
36.5741
-0.164613
27.6988
-0.150588
21.0123
-0.140065
15.9719
-0.132795
12.1675
-0.128441
9.28395
-0.126619
7.09479
-0.126769
5.42342
-0.128678
4.14901
-0.131897
3.17017
-0.135946
2.41651
-0.14005
1.83358
-0.143381
1.38274
-0.145348
1.0363
-0.145366
0.773091
-0.143106
0.575204
-0.139446
0.427787
-0.135742
0.318909
0.238127
-0.132409
-0.310131
111.581
-0.265137
84.4445
-0.230734
63.873
-0.20351
48.3037
-0.182015
36.5526
-0.164883
27.6816
-0.151402
20.9989
-0.141231
15.9617
-0.134173
12.1605
-0.129948
9.27972
-0.128195
7.09303
-0.128399
5.42362
-0.13042
4.15103
-0.133921
3.17367
-0.138613
2.42121
-0.143884
1.83885
-0.148935
1.38779
-0.152765
1.04013
-0.154179
0.774501
-0.153194
0.574223
-0.15145
0.426042
-0.149948
0.317406
0.236635
-0.148458
-0.301917
111.529
-0.25985
84.4024
-0.22754
63.8406
-0.201831
48.278
-0.181426
36.5322
-0.165063
27.6653
-0.1521
20.9859
-0.142262
15.9519
-0.1354
12.1536
-0.131287
9.2756
-0.129588
7.09133
-0.129823
5.42385
-0.13193
4.15312
-0.135677
3.17741
-0.141007
2.42653
-0.147503
1.84534
-0.154338
1.39462
-0.160145
1.04593
-0.163883
0.778237
-0.166546
0.576883
-0.169464
0.42896
-0.172044
0.319985
0.238022
-0.173433
-0.293956
111.481
-0.254704
84.3632
-0.224407
63.8104
-0.200157
48.2537
-0.180799
36.5128
-0.165174
27.6496
-0.152707
20.9734
-0.143184
15.9423
-0.136503
12.1469
-0.132488
9.27158
-0.130826
7.08966
-0.131069
5.42409
-0.133232
4.15528
-0.137175
3.18135
-0.1431
2.43245
-0.150775
1.85301
-0.159335
1.40318
-0.167458
1.05405
-0.175165
0.785939
-0.18395
0.585672
-0.193047
0.438057
-0.199881
0.326818
0.241878
-0.203741
-0.286246
111.437
-0.249706
84.3266
-0.221347
63.782
-0.198501
48.2309
-0.180154
36.4945
-0.165239
27.6347
-0.153248
20.9614
-0.144023
15.9331
-0.137509
12.1404
-0.133576
9.26765
-0.131936
7.08802
-0.132162
5.42431
-0.134349
4.15746
-0.13842
3.18541
-0.144854
2.43887
-0.153553
1.8617
-0.163732
1.41336
-0.174699
1.06501
-0.187743
0.79898
-0.203266
0.601195
-0.217229
0.45202
-0.226087
0.335675
0.246095
-0.230307
-0.278785
111.397
-0.244861
84.2927
-0.218371
63.7555
-0.19688
48.2094
-0.179507
36.4771
-0.165279
27.6205
-0.153744
20.9499
-0.144802
15.9242
-0.138441
12.134
-0.134579
9.26378
-0.132947
7.08638
-0.13313
5.42449
-0.135304
4.15962
-0.139417
3.18951
-0.146227
2.44567
-0.155704
1.87118
-0.16737
1.42502
-0.181558
1.07919
-0.200049
0.817466
-0.220445
0.621594
-0.235908
0.467484
-0.243587
0.343352
0.248187
-0.245683
-0.27157
111.36
-0.240173
84.2613
-0.215488
63.7308
-0.195308
48.1892
-0.178877
36.4607
-0.165312
27.6069
-0.154217
20.9388
-0.145545
15.9155
-0.139326
12.1278
-0.135521
9.25997
-0.133884
7.08474
-0.133997
5.42459
-0.13612
4.16174
-0.140171
3.19355
-0.147182
2.45267
-0.157125
1.88112
-0.170072
1.43796
-0.187338
1.09645
-0.209926
0.84005
-0.231983
0.643651
-0.245563
0.481063
-0.249776
0.347564
0.246815
-0.248409
-0.264598
111.327
-0.235646
84.2324
-0.212709
63.7079
-0.193797
48.1703
-0.17828
36.4452
-0.165357
27.594
-0.154686
20.9281
-0.146273
15.9071
-0.140184
12.1217
-0.136425
9.25621
-0.134771
7.08308
-0.134787
5.4246
-0.136819
4.16376
-0.14069
3.19742
-0.147698
2.45967
-0.157748
1.89116
-0.171605
1.45182
-0.191136
1.11597
-0.215529
0.864438
-0.236137
0.664261
-0.245727
0.490653
-0.245693
0.34753
0.241949
-0.240833
-0.257866
111.297
-0.231285
84.2058
-0.210042
63.6866
-0.192362
48.1526
-0.177731
36.4306
-0.165432
27.5817
-0.155173
20.9179
-0.147006
15.8989
-0.141039
12.1158
-0.137315
9.25248
-0.135634
7.08139
-0.135525
5.42449
-0.137429
4.16566
-0.140988
3.20097
-0.147772
2.46645
-0.157534
1.90092
-0.171705
1.46598
-0.192134
1.13639
-0.215848
0.888148
-0.232824
0.681238
-0.237708
0.495536
-0.233723
0.343543
0.234238
-0.226017
-0.251372
111.27
-0.227094
84.1815
-0.207497
63.667
-0.191014
48.1361
-0.177246
36.4168
-0.165554
27.57
-0.155694
20.908
-0.147765
15.891
-0.141911
12.1099
-0.138213
9.24878
-0.136496
7.07967
-0.136234
5.42422
-0.137975
4.16739
-0.141089
3.20407
-0.147422
2.47277
-0.156478
1.90997
-0.170154
1.47966
-0.189811
1.15604
-0.210739
0.909071
-0.223039
0.69354
-0.22359
0.496086
-0.216666
0.336617
0.224658
-0.207092
-0.245114
111.246
-0.223077
84.1595
-0.205082
63.649
-0.189766
48.1208
-0.17684
36.4039
-0.16574
27.5589
-0.15627
20.8986
-0.148569
15.8833
-0.142821
12.1042
-0.139139
9.2451
-0.137379
7.0779
-0.136936
5.42377
-0.13848
4.16893
-0.141016
3.2066
-0.146668
2.47842
-0.154599
1.91789
-0.166859
1.49191
-0.184026
1.1732
-0.200541
0.925581
-0.208037
0.701039
-0.205355
0.493403
-0.196876
0.328137
0.214324
-0.186548
-0.23909
111.226
-0.219237
84.1396
-0.202804
63.6326
-0.188625
48.1066
-0.176522
36.3918
-0.166001
27.5484
-0.156911
20.8895
-0.149434
15.8758
-0.143789
12.0985
-0.140119
9.24142
-0.138314
7.07609
-0.137668
5.42312
-0.138991
4.17024
-0.140844
3.20844
-0.14561
2.48317
-0.152069
1.92435
-0.161962
1.5018
-0.174992
1.18622
-0.185855
0.936441
-0.188864
0.704045
-0.184393
0.488934
-0.175961
0.319701
0.204513
-0.166153
-0.225252
111.198
-0.202544
84.1169
-0.18556
63.6156
-0.171975
48.0931
-0.160931
36.3807
-0.151601
27.5391
-0.143632
20.8815
-0.137089
15.8693
-0.132131
12.0936
-0.12889
9.23818
-0.127273
7.07447
-0.126578
5.42242
-0.127583
4.17124
-0.128683
3.20953
-0.132001
2.48649
-0.13628
1.92862
-0.142316
1.50784
-0.14916
1.19306
-0.153069
0.940344
-0.152123
0.703103
-0.147553
0.484356
-0.141278
0.313434
0.197476
-0.13425
-0.179326
111.176
-0.161505
84.0991
-0.148196
63.6023
-0.137545
48.0824
-0.128873
36.3721
-0.121519
27.5317
-0.115196
20.8752
-0.109958
15.864
-0.105939
12.0896
-0.10326
9.23549
-0.101835
7.07304
-0.101111
5.42169
-0.10159
4.17171
-0.102016
3.20995
-0.103606
2.48807
-0.105601
1.93061
-0.107791
1.51002
-0.10893
1.19419
-0.107086
0.938494
-0.103361
0.699371
-0.0993216
0.480321
-0.0956264
0.309733
0.193835
-0.0919837
-0.142732
111.159
-0.128728
84.0851
-0.118287
63.5919
-0.109928
48.0741
-0.103113
36.3652
-0.0973158
27.5259
-0.0922998
20.8702
-0.0881101
15.8598
-0.0848561
12.0863
-0.0826483
9.23329
-0.08141
7.0718
-0.0807193
5.421
-0.0808551
4.17184
-0.0809386
3.21003
-0.081445
2.48857
-0.0821064
1.93127
-0.0821081
1.51002
-0.0801558
1.19223
-0.0754153
0.93375
-0.0702348
0.69419
-0.0664058
0.476488
-0.0640494
0.307379
0.1921
-0.0623171
-0.113564
111.145
-0.102534
84.0741
-0.0943217
63.5837
-0.087748
48.0675
-0.0823841
36.3599
-0.077809
27.5214
-0.0738287
20.8662
-0.0704782
15.8565
-0.0678467
12.0837
-0.0660318
9.23147
-0.064967
7.07073
-0.0643408
5.42037
-0.0642625
4.17175
-0.0641889
3.20995
-0.0640716
2.48845
-0.0639903
1.93118
-0.0628175
1.50885
-0.0594863
1.18889
-0.053758
0.928015
-0.0480516
0.688477
-0.0442339
0.472671
-0.0423693
0.305511
0.191153
-0.0414248
-0.0903277
111.135
-0.0816223
84.0653
-0.0751503
63.5772
-0.0699712
48.0623
-0.0657433
36.3557
-0.0621293
27.5178
-0.0589701
20.863
-0.0562915
15.8538
-0.0541654
12.0816
-0.0526768
9.22998
-0.0517683
7.06982
-0.0512176
5.41981
-0.0510162
4.17155
-0.0508737
3.2098
-0.0504468
2.48802
-0.0499617
1.93069
-0.0482379
1.50713
-0.0445376
1.18519
-0.0388578
0.922334
-0.0332103
0.682829
-0.0294211
0.468878
-0.0276205
0.303712
0.190375
-0.0268445
-0.0717913
111.126
-0.0648813
84.0584
-0.0597506
63.5721
-0.0556487
48.0582
-0.0523009
36.3523
-0.0494366
27.5149
-0.0469242
20.8605
-0.0447806
15.8517
-0.0430625
12.0798
-0.0418421
9.22875
-0.0410699
7.06904
-0.0405919
5.41933
-0.040327
4.17128
-0.040154
3.20962
-0.0396111
2.48747
-0.0389089
1.92998
-0.0370396
1.50525
-0.0335283
1.18167
-0.0283952
0.917194
-0.0231627
0.67759
-0.0195372
0.465253
-0.0177151
0.301886
0.189563
-0.0169037
-0.0572096
111.12
-0.0518402
84.0531
-0.0478602
63.5681
-0.0446768
48.055
-0.0420738
36.3497
-0.0398368
27.5127
-0.0378599
20.8585
-0.0361571
15.85
-0.0347766
12.0785
-0.0337827
9.22776
-0.0331348
7.0684
-0.0327287
5.41892
-0.0324477
4.17099
-0.0322621
3.20943
-0.031709
2.48691
-0.0309133
1.92919
-0.0290918
1.50344
-0.0259149
1.17849
-0.0213804
0.91266
-0.0166613
0.672871
-0.0133238
0.461912
-0.0115601
0.300124
0.188706
-0.010705
-0.0453097
111.114
-0.0409298
84.0487
-0.0376851
63.5649
-0.0350976
48.0524
-0.032989
36.3476
-0.0311842
27.5109
-0.029593
20.857
-0.0282201
15.8486
-0.0270995
12.0773
-0.0262813
9.22693
-0.0257298
7.06784
-0.0253768
5.41857
-0.0250925
4.1707
-0.0248989
3.20923
-0.0243959
2.4864
-0.0235918
1.92837
-0.0220043
1.50184
-0.0193638
1.17584
-0.0156117
0.908902
-0.0116088
0.668862
-0.00869301
0.458997
-0.00703521
0.298463
0.187807
-0.00613615
-0.0371101
111.105
-0.0296976
84.0413
-0.0239558
63.5591
-0.019333
48.0478
-0.0155613
36.3438
-0.0123789
27.5077
-0.00960948
20.8542
-0.00718659
15.8462
-0.00509722
12.0753
-0.00336903
9.22521
-0.00196773
7.06644
-0.000766084
5.41736
0.000328281
4.1696
0.00141973
3.20814
0.00295751
2.48486
0.00471717
1.92661
0.00746873
1.4991
0.0113526
1.17195
0.0154588
0.904797
0.018024
0.666297
0.0178965
0.45912
0.0158594
0.300502
0.190758
0.012907
-0.038968
111.096
-0.0311879
84.0335
-0.0251646
63.5531
-0.0203186
48.043
-0.016366
36.3399
-0.0130303
27.5043
-0.0101228
20.8513
-0.0075705
15.8436
-0.00535869
12.073
-0.00351715
9.22336
-0.00201449
7.06493
-0.000714127
5.41606
0.000498194
4.16838
0.00169331
3.20694
0.00342724
2.48312
0.00543332
1.9246
0.00849326
1.49603
0.0127642
1.16768
0.0172835
0.900273
0.0202534
0.663322
0.0204517
0.458923
0.0186296
0.30232
0.193675
0.0157122
-0.0409183
111.086
-0.0327527
84.0253
-0.026434
63.5468
-0.0213539
48.0379
-0.0172121
36.3358
-0.0137162
27.5009
-0.0106643
20.8482
-0.00797634
15.8409
-0.00563591
12.0707
-0.00367482
9.2214
-0.00206429
7.06332
-0.000660324
5.41465
0.000678431
4.16704
0.00198229
3.20563
0.00391543
2.48119
0.00620189
1.92231
0.00957269
1.49267
0.0142219
1.16303
0.0191485
0.895349
0.0225221
0.659949
0.0230568
0.458384
0.0214591
0.303919
0.196491
0.0186406
-0.0429656
111.075
-0.0343953
84.0168
-0.0277669
63.5401
-0.0224416
48.0326
-0.0181017
36.3314
-0.0144381
27.4972
-0.0112352
20.845
-0.00840523
15.8381
-0.00592967
12.0682
-0.00384262
9.21931
-0.00211738
7.06159
-0.000604613
5.41314
0.000868897
4.16556
0.00228774
3.20421
0.00442351
2.47905
0.00701856
1.91971
0.0107025
1.48898
0.0157192
1.158
0.0210362
0.890028
0.0247886
0.656192
0.0256494
0.457525
0.0242702
0.305295
0.199169
0.0215921
-0.0451146
111.064
-0.03612
84.0078
-0.0291667
63.5332
-0.0235843
48.027
-0.0190369
36.3269
-0.0151979
27.4934
-0.0118371
20.8417
-0.00885841
15.8351
-0.00624091
12.0656
-0.00402103
9.21709
-0.00217368
7.05974
-0.00054628
5.41151
0.00107037
4.16395
0.00261253
3.20267
0.00495525
2.4767
0.00787767
1.91679
0.0118779
1.48498
0.0172481
1.15263
0.0229405
0.884339
0.0270334
0.652101
0.0282034
0.456351
0.0270444
0.306455
0.201674
0.0245379
-0.0473708
111.053
-0.0379307
83.9983
-0.0306364
63.5259
-0.0247848
48.0211
-0.0200201
36.3221
-0.0159976
27.4893
-0.0124716
20.8381
-0.0093372
15.832
-0.00657049
12.0629
-0.00421046
9.21472
-0.00223288
7.05776
-0.000484122
5.40975
0.0012846
4.16217
0.00296108
3.20098
0.00551655
2.47414
0.00877518
1.91352
0.0130949
1.48065
0.0187987
1.14692
0.0248496
0.878285
0.0292443
0.647701
0.0307145
0.454883
0.02979
0.307376
0.203977
0.0274862
-0.0497388
111.04
-0.0398316
83.9884
-0.0321799
63.5182
-0.0260458
48.015
-0.0210536
36.3171
-0.0168392
27.4851
-0.0131406
20.8344
-0.00984292
15.8287
-0.00691931
12.0599
-0.00441117
9.21221
-0.00229439
7.05564
-0.000416361
5.40788
0.00151434
4.16024
0.00333911
3.19916
0.00611512
2.47137
0.00970956
1.90993
0.0143523
1.47601
0.0203654
1.14091
0.0267412
0.871913
0.031415
0.643029
0.0331787
0.453114
0.0325181
0.308038
0.206043
0.0304513
-0.0522249
111.028
-0.0418274
83.978
-0.0338004
63.5102
-0.0273705
48.0086
-0.0221401
36.3119
-0.0177249
27.4807
-0.0138455
20.8306
-0.0103769
15.8252
-0.00728812
12.0568
-0.00462333
9.20954
-0.00235756
7.05337
-0.000340977
5.40586
0.00176289
4.15813
0.0037529
3.19716
0.00675891
2.46835
0.0106807
1.906
0.0156493
1.47104
0.0219464
1.13461
0.0285974
0.865259
0.0335399
0.638081
0.0355876
0.451069
0.0352224
0.308399
0.207847
0.0334178
-0.0548344
111.014
-0.0439226
83.9671
-0.0355021
63.5018
-0.028762
48.0018
-0.0232821
36.3064
-0.0186567
27.4761
-0.0145884
20.8265
-0.0109404
15.8216
-0.0076778
12.0536
-0.00484719
9.20671
-0.00242172
7.05095
-0.000255984
5.40369
0.00203352
4.15584
0.00420805
3.19499
0.00745499
2.46511
0.0116908
1.90177
0.0169869
1.46575
0.0235394
1.12806
0.0304178
0.858384
0.0356171
0.632884
0.0379295
0.448751
0.0378784
0.308452
0.209375
0.0363486
-0.0575737
111
-0.0461222
83.9557
-0.0372889
63.493
-0.0302237
47.9948
-0.0244824
36.3007
-0.0196371
27.4712
-0.015371
20.8222
-0.0115351
15.8177
-0.0080893
12.0501
-0.00508307
9.2037
-0.00248652
7.04835
-0.000159859
5.40136
0.00232889
4.15334
0.0047087
3.1926
0.00820793
2.4616
0.0127435
1.89723
0.018369
1.46012
0.025143
1.12128
0.0322126
0.851311
0.0376393
0.627452
0.0402027
0.44619
0.0404547
0.308196
0.210625
0.0392046
-0.0604489
110.986
-0.0484313
83.9436
-0.0391652
63.4837
-0.031759
47.9874
-0.0257439
36.2947
-0.0206685
27.4662
-0.0161953
20.8178
-0.0121624
15.8137
-0.00852374
12.0465
-0.00533163
9.20051
-0.00255188
7.04557
-5.16167e-05
5.39886
0.0026508
4.15064
0.00525714
3.18999
0.00901891
2.45784
0.0138369
1.89241
0.019794
1.45416
0.0267578
1.11431
0.0339871
0.844085
0.039591
0.621851
0.0423953
0.443381
0.0429254
0.307668
0.211603
0.041946
-0.0634674
110.97
-0.0508555
83.931
-0.0411349
63.474
-0.0333715
47.9796
-0.0270697
36.2884
-0.0217534
27.4609
-0.0170635
20.8131
-0.012824
15.8094
-0.00898235
12.0427
-0.00559357
9.19712
-0.00261806
7.04259
6.92426e-05
5.39617
0.00300012
4.1477
0.0058536
3.18713
0.00988714
2.4538
0.0149662
1.88732
0.0212504
1.44787
0.0283827
1.10718
0.0357338
0.83673
0.0414589
0.61612
0.0444888
0.440354
0.0452492
0.306904
0.212344
0.0445078
-0.0666356
110.954
-0.0534006
83.9178
-0.0432033
63.4638
-0.0350652
47.9715
-0.0284629
36.2818
-0.0228944
27.4553
-0.0179777
20.8082
-0.0135217
15.805
-0.00946644
12.0386
-0.00586981
9.19352
-0.00268552
7.03941
0.000202653
5.39328
0.00337677
4.14453
0.00649586
3.18401
0.0108099
2.44949
0.0161317
1.88201
0.0227252
1.44128
0.0300116
1.09989
0.0374378
0.829307
0.0432439
0.610316
0.0464547
0.437138
0.0473846
0.305976
0.2129
0.0468275
-0.0699612
110.937
-0.0560722
83.9039
-0.0453749
63.4531
-0.036844
47.9629
-0.0299269
36.2748
-0.0240944
27.4495
-0.0189404
20.803
-0.0142574
15.8003
-0.00997747
12.0343
-0.00616136
9.1897
-0.00275494
7.03599
0.000348236
5.39017
0.00377996
4.14109
0.00718001
3.18061
0.0117825
2.44488
0.0173381
1.87644
0.0242076
1.43441
0.0316347
1.09246
0.0390906
0.821847
0.0449335
0.604468
0.0482558