/*--------------------------------*- C++ -*----------------------------------*\
  =========                 |
  \\      /  F ield         | OpenFOAM: The Open Source CFD Toolbox
   \\    /   O peration     | Website:  https://openfoam.org
    \\  /    A nd           | Version:  7
     \\/     M anipulation  |
\*---------------------------------------------------------------------------*/
FoamFile
{
    version     2.0;
    format      ascii;
    class       volVectorField;
    location    "50";
    object      U;
}
// * * * * * * * * * * * * * * * * * * * * * * * * * * * * * * * * * * * * * //

dimensions      [0 1 -1 0 0 0 0];

internalField   nonuniform List<vector> 
12842
(
(15.3814 2.71259 -2.57895e-18)
(15.382 2.71266 6.57995e-19)
(15.3815 2.71358 1.91034e-19)
(15.3802 2.71573 -5.02888e-19)
(15.3773 2.71997 2.05608e-18)
(15.3726 2.72766 0)
(15.3654 2.74035 0)
(15.3544 2.75965 1.94612e-19)
(15.3379 2.78719 -1.53453e-18)
(15.3141 2.82458 -1.5404e-20)
(15.2813 2.87339 -4.48532e-19)
(15.2376 2.93516 1.83758e-20)
(15.1817 3.0113 -1.60913e-19)
(15.1127 3.10274 5.10217e-21)
(15.0304 3.20963 -5.29165e-21)
(14.9353 3.33085 -5.04222e-20)
(14.829 3.46368 -6.95971e-20)
(14.7143 3.60384 0)
(14.5949 3.74602 9.78527e-21)
(14.4752 3.88466 6.72001e-20)
(14.3599 4.01472 1.16495e-20)
(14.2525 4.13258 -4.87789e-20)
(14.1569 4.2355 3.91878e-20)
(15.3804 2.71301 1.8442e-18)
(15.3813 2.71264 0)
(15.3812 2.71413 2.01753e-18)
(15.3808 2.71663 -1.26145e-18)
(15.3799 2.72125 -1.63936e-18)
(15.3786 2.72967 0)
(15.3762 2.74376 2.70227e-18)
(15.3713 2.76546 0)
(15.3621 2.79667 2.48047e-18)
(15.3465 2.83908 2.36795e-19)
(15.3223 2.89425 8.65677e-19)
(15.2879 2.96357 9.26452e-19)
(15.2417 3.04825 1.54964e-19)
(15.183 3.14898 -2.60993e-19)
(15.1113 3.26559 0)
(15.0269 3.39662 4.88132e-20)
(14.9309 3.53887 9.62176e-20)
(14.8254 3.68757 -9.28998e-20)
(14.7135 3.83689 0)
(14.5993 3.98094 -8.81992e-20)
(14.4874 4.11441 -1.13854e-19)
(14.3818 4.23431 1.23241e-19)
(14.2868 4.33587 -1.20873e-19)
(15.3791 2.71338 0)
(15.3803 2.71289 0)
(15.3808 2.71465 1.97693e-19)
(15.381 2.71696 7.13223e-18)
(15.382 2.72129 0)
(15.3839 2.72961 0)
(15.3861 2.74417 5.11617e-19)
(15.3872 2.76732 -2.54812e-18)
(15.3851 2.80123 -1.1246e-18)
(15.3773 2.8477 -9.2034e-19)
(15.3616 2.90821 -1.43827e-18)
(15.336 2.98397 -9.07653e-19)
(15.2991 3.07594 -1.33571e-19)
(15.2503 3.18462 4.28911e-19)
(15.1889 3.30965 0)
(15.1152 3.44938 1.71394e-20)
(15.0298 3.60029 -2.19628e-20)
(14.934 3.75721 5.35581e-20)
(14.8307 3.91383 1.55195e-20)
(14.7235 4.06395 -3.36497e-20)
(14.617 4.20185 8.11106e-20)
(14.5151 4.32512 0)
(14.4229 4.42682 4.14776e-20)
(15.3776 2.71395 3.80467e-19)
(15.3795 2.71348 7.94132e-19)
(15.3803 2.71529 -2.90377e-18)
(15.3809 2.71706 -1.09596e-17)
(15.3835 2.72059 1.0117e-18)
(15.3884 2.72815 -3.65786e-18)
(15.3951 2.74241 -2.82663e-19)
(15.402 2.76615 2.5174e-18)
(15.4068 2.80185 3.91891e-18)
(15.4067 2.85143 -2.10477e-18)
(15.3991 2.91628 3.48176e-18)
(15.3819 2.99738 -2.98058e-19)
(15.354 3.09544 3.88732e-19)
(15.3147 3.21075 9.45835e-19)
(15.2638 3.34288 -1.00665e-19)
(15.2012 3.49006 1.2974e-19)
(15.127 3.64866 2.32987e-20)
(15.0421 3.81318 7.3127e-20)
(14.9486 3.97697 -4.1247e-20)
(14.8499 4.13348 7.25734e-20)
(14.7503 4.27657 -1.04189e-20)
(14.6539 4.40434 -9.43882e-21)
(14.5662 4.50766 4.12091e-20)
(15.3761 2.71486 3.41846e-18)
(15.3788 2.71445 0)
(15.3795 2.71616 4.68046e-19)
(15.3803 2.71716 3.83898e-18)
(15.3843 2.71951 3.57131e-19)
(15.392 2.72573 9.86768e-18)
(15.4029 2.73896 4.42233e-19)
(15.4155 2.76247 -6.53578e-18)
(15.4271 2.79911 -4.40761e-18)
(15.4345 2.85094 2.7261e-18)
(15.4348 2.91927 -3.67849e-18)
(15.4259 3.00478 -2.23172e-18)
(15.4068 3.10791 4.48747e-19)
(15.3771 3.2287 -2.0396e-18)
(15.3369 3.36665 -6.61101e-19)
(15.2858 3.52004 4.00336e-19)
(15.2237 3.68517 0)
(15.1507 3.85648 -8.35889e-20)
(15.0684 4.02701 0)
(14.9795 4.19 6.83854e-20)
(14.8884 4.33879 4.24386e-20)
(14.7987 4.47193 -1.0825e-20)
(14.7169 4.5781 -2.17839e-20)
(15.3748 2.71614 -2.43187e-18)
(15.3784 2.71574 0)
(15.3787 2.7173 0)
(15.3793 2.71738 5.96618e-18)
(15.3846 2.71826 -4.74094e-18)
(15.3948 2.72266 -5.71049e-18)
(15.4097 2.73422 -8.93964e-18)
(15.4278 2.75672 7.23693e-18)
(15.446 2.79344 0)
(15.4608 2.84664 3.40172e-18)
(15.4687 2.91754 3.28109e-18)
(15.4678 3.00651 1.10169e-18)
(15.4572 3.11364 0)
(15.4371 3.2387 1.09121e-18)
(15.4076 3.38113 5.63829e-19)
(15.3686 3.5393 -2.81742e-19)
(15.3193 3.70969 -7.12328e-20)
(15.2594 3.88679 5.19461e-19)
(15.1894 4.06351 0)
(15.1118 4.23292 -1.67905e-19)
(15.0306 4.3878 8.93881e-20)
(14.9492 4.52712 1.70724e-19)
(14.8747 4.63718 -5.33239e-20)
(15.3736 2.71772 1.98294e-19)
(15.378 2.71726 0)
(15.3776 2.71872 0)
(15.3778 2.71782 -5.93492e-18)
(15.384 2.71703 5.51033e-18)
(15.396 2.71921 -7.67644e-19)
(15.4144 2.72847 5.3234e-18)
(15.4375 2.74915 4.99828e-19)
(15.4622 2.78505 -6.56368e-19)
(15.4842 2.83872 -3.80954e-18)
(15.5 2.91135 -3.26583e-19)
(15.5073 3.00299 2.17462e-18)
(15.5055 3.11326 0)
(15.4949 3.24157 -1.35648e-18)
(15.4762 3.38723 1.0369e-19)
(15.4493 3.54884 -1.33912e-19)
(15.4132 3.72315 4.02842e-19)
(15.3669 3.90495 -3.00044e-19)
(15.3105 4.08712 -4.43004e-19)
(15.2455 4.26269 -1.00988e-19)
(15.1759 4.42375 2.05566e-20)
(15.1042 4.56974 -1.35655e-19)
(15.0383 4.6844 -8.44221e-20)
(15.3726 2.71962 0)
(15.3778 2.71905 -3.06429e-19)
(15.3765 2.72032 3.66865e-18)
(15.3765 2.71832 -1.43171e-19)
(15.3836 2.71572 -5.8391e-18)
(15.3975 2.71542 1.00193e-18)
(15.4193 2.72199 -1.93065e-19)
(15.4472 2.74035 -4.40655e-18)
(15.4775 2.7748 0)
(15.5057 2.82813 -4.54916e-18)
(15.528 2.9015 3.44642e-19)
(15.5422 2.99457 1.01106e-19)
(15.5481 3.1065 0)
(15.5467 3.23632 1.33364e-18)
(15.5391 3.38332 -9.61993e-19)
(15.525 3.54643 0)
(15.5032 3.72288 -3.98157e-19)
(15.4718 3.90798 0)
(15.4304 4.09471 3.64152e-19)
(15.3797 4.27617 0)
(15.3233 4.44362 -1.69765e-19)
(15.2632 4.59701 1.05296e-19)
(15.2074 4.71719 1.4477e-19)
(15.3719 2.72163 0)
(15.3776 2.72074 0)
(15.3748 2.72236 -2.34051e-20)
(15.3735 2.71984 -2.58905e-19)
(15.3801 2.71591 6.55522e-18)
(15.3943 2.71337 5.93222e-18)
(15.4183 2.71701 0)
(15.4505 2.73224 4.12555e-18)
(15.487 2.76402 0)
(15.5228 2.81579 9.27668e-18)
(15.5531 2.88906 2.9093e-18)
(15.5748 2.98338 -1.78847e-18)
(15.5876 3.09741 -1.54889e-19)
(15.5926 3.22954 0)
(15.592 3.37858 1.01937e-18)
(15.5863 3.54336 7.68241e-19)
(15.5749 3.72142 -7.02484e-20)
(15.5557 3.90855 5.36277e-19)
(15.5275 4.09798 4.89947e-19)
(15.4902 4.28317 0)
(15.4466 4.45459 1.17047e-19)
(15.3977 4.61329 1.2494e-20)
(15.3516 4.73747 -8.37918e-20)
(15.3712 2.72413 6.50094e-20)
(15.3776 2.72262 4.25384e-18)
(15.3735 2.72428 -3.37241e-18)
(15.3715 2.72096 0)
(15.3782 2.71567 1.25962e-19)
(15.3929 2.71125 2.41007e-19)
(15.4188 2.71267 -5.73238e-18)
(15.4541 2.72574 0)
(15.4949 2.75584 0)
(15.5355 2.80669 -4.6655e-18)
(15.5708 2.87989 -3.10488e-18)
(15.5974 2.9748 -6.146e-20)
(15.6151 3.08972 1.4502e-18)
(15.6255 3.22265 -5.02168e-20)
(15.6311 3.37213 -1.42472e-19)
(15.6331 3.53708 1.5145e-19)
(15.6309 3.71531 -5.2436e-19)
(15.6225 3.90308 -4.96867e-19)
(15.606 4.09378 -5.54967e-19)
(15.5807 4.28126 -4.20841e-19)
(15.5489 4.45531 1.35002e-19)
(15.5107 4.61788 -5.98668e-19)
(15.4743 4.74522 1.07319e-19)
(15.3708 2.72685 -8.89507e-19)
(15.3778 2.72455 -4.69879e-18)
(15.3723 2.72627 1.03949e-19)
(15.3697 2.72209 3.45873e-18)
(15.3764 2.71536 -1.78747e-19)
(15.3916 2.70903 -6.14631e-18)
(15.4192 2.70821 1.0976e-17)
(15.4573 2.71917 2.87604e-19)
(15.5021 2.7477 -2.05757e-19)
(15.5472 2.79779 -5.01806e-18)
(15.5873 2.87107 1.0064e-19)
(15.6187 2.9666 -2.25125e-18)
(15.6413 3.08228 -1.29437e-18)
(15.657 3.21563 0)
(15.6688 3.36494 1.17986e-18)
(15.6787 3.52925 -1.65923e-18)
(15.6862 3.70668 -1.28369e-19)
(15.689 3.89404 5.20513e-19)
(15.6851 4.08491 -7.05533e-21)
(15.673 4.27364 5.31586e-19)
(15.6546 4.44932 0)
(15.6286 4.61489 1.84954e-19)
(15.6038 4.74472 0)
(15.3707 2.72972 6.1388e-19)
(15.3779 2.72648 -4.86052e-18)
(15.371 2.72832 1.71325e-19)
(15.368 2.72329 -6.78237e-18)
(15.3746 2.71513 3.55076e-18)
(15.3901 2.70693 -1.75459e-19)
(15.4193 2.70384 -5.64195e-18)
(15.4602 2.71266 8.11448e-20)
(15.5086 2.73959 -2.24792e-19)
(15.5581 2.78889 5.18611e-18)
(15.6029 2.86223 0)
(15.639 2.95835 2.05866e-18)
(15.6664 3.07467 1.29821e-19)
(15.6873 3.20821 -5.62346e-20)
(15.7055 3.35691 -1.22387e-18)
(15.7233 3.51989 1.08203e-20)
(15.7406 3.6956 4.81174e-19)
(15.7553 3.88145 -8.67814e-19)
(15.7648 4.07122 0)
(15.767 4.25991 -3.86558e-19)
(15.7634 4.43594 5.16682e-19)
(15.7511 4.60331 0)
(15.7393 4.73469 -2.98449e-19)
(15.3708 2.73266 2.31552e-20)
(15.378 2.72838 -8.63831e-20)
(15.3698 2.73041 1.69643e-19)
(15.3664 2.72456 3.27776e-18)
(15.3728 2.71503 -6.96138e-18)
(15.3886 2.70499 2.74034e-20)
(15.4192 2.69963 8.1956e-20)
(15.4626 2.70626 5.03637e-18)
(15.5146 2.7315 -1.10053e-19)
(15.5682 2.77991 0)
(15.6176 2.85321 3.48985e-18)
(15.6583 2.9498 7.04893e-20)
(15.6905 3.06662 4.48479e-20)
(15.7166 3.20012 2.73763e-21)
(15.7409 3.34782 -1.24465e-19)
(15.7667 3.50883 9.34129e-19)
(15.7941 3.6819 -5.5467e-19)
(15.8211 3.86507 -8.72523e-20)
(15.8448 4.05233 -1.93539e-19)
(15.8624 4.23947 5.32349e-19)
(15.8748 4.41427 -3.72782e-19)
(15.8778 4.58192 7.77707e-19)
(15.8803 4.71359 -5.06003e-19)
(15.3711 2.73563 2.55841e-19)
(15.3781 2.73023 4.82542e-18)
(15.3687 2.73251 1.57633e-20)
(15.3649 2.72587 3.47363e-18)
(15.371 2.715 7.04939e-18)
(15.387 2.70318 -2.75094e-20)
(15.419 2.69554 -8.38397e-20)
(15.4647 2.69994 1.153e-19)
(15.5201 2.72343 -3.88805e-18)
(15.5777 2.77085 2.78225e-18)
(15.6314 2.84398 -3.66369e-18)
(15.6766 2.94091 -2.25785e-18)
(15.7135 3.05808 1.49608e-18)
(15.7447 3.19131 0)
(15.7752 3.33758 7.02112e-19)
(15.8089 3.49595 0)
(15.8466 3.66538 7.42414e-19)
(15.8863 3.84457 4.75155e-19)
(15.9249 4.02772 -1.21994e-20)
(15.9588 4.21153 -6.12084e-19)
(15.9883 4.38317 -1.74009e-20)
(16.0078 4.54918 4.50202e-21)
(16.0259 4.67953 -2.14499e-19)
(15.3715 2.73863 3.78919e-20)
(15.3781 2.73202 3.68582e-20)
(15.3677 2.73463 -1.48466e-20)
(15.3634 2.72723 -3.48023e-18)
(15.3692 2.7151 -3.51243e-18)
(15.3854 2.70153 0)
(15.4184 2.69159 5.57553e-20)
(15.4664 2.69369 -5.16337e-18)
(15.525 2.71532 -8.42538e-20)
(15.5865 2.76161 -2.78931e-18)
(15.6446 2.83446 1.92346e-18)
(15.6942 2.9316 3.53324e-18)
(15.7358 3.04899 -1.45261e-18)
(15.7721 3.18173 9.65919e-19)
(15.8086 3.32618 7.03831e-20)
(15.8502 3.4812 9.34888e-21)
(15.8982 3.6459 -3.97065e-20)
(15.9509 3.81963 -1.52979e-19)
(16.0048 3.99681 1.06064e-19)
(16.0557 4.17518 -1.95146e-19)
(16.103 4.34134 -1.79977e-20)
(16.1399 4.50334 1.68397e-19)
(16.1745 4.63028 0)
(15.372 2.74158 3.2278e-20)
(15.3781 2.73375 0)
(15.3668 2.73672 0)
(15.3621 2.7286 -3.48333e-18)
(15.3673 2.71527 -3.59357e-18)
(15.3836 2.69999 3.47522e-18)
(15.4177 2.68774 4.34855e-20)
(15.4677 2.6875 -4.50566e-20)
(15.5294 2.70716 4.04705e-18)
(15.5947 2.7522 -4.47512e-20)
(15.6571 2.82464 9.88275e-20)
(15.7112 2.92188 -1.19961e-18)
(15.7575 3.03934 0)
(15.7987 3.1714 -1.0328e-18)
(15.8413 3.31361 -1.4816e-18)
(15.8906 3.46452 -5.96643e-19)
(15.9489 3.62327 -3.77314e-19)
(16.0146 3.78989 0)
(16.084 3.95897 0)
(16.1521 4.12948 3.43421e-19)
(16.2177 4.2874 2.52456e-19)
(16.2725 4.44253 -5.21604e-19)
(16.3241 4.56352 0)
(15.3726 2.74449 -8.11203e-19)
(15.378 2.73541 1.7766e-20)
(15.366 2.73878 -6.53137e-21)
(15.3608 2.73 3.46598e-18)
(15.3655 2.71552 7.14175e-18)
(15.3818 2.69856 -6.93764e-18)
(15.4168 2.68399 -4.41601e-20)
(15.4687 2.68132 -4.59653e-20)
(15.5334 2.69891 6.04091e-20)
(15.6024 2.74257 0)
(15.6692 2.81446 -1.91356e-18)
(15.7278 2.91167 1.25571e-18)
(15.7789 3.02911 0)
(15.825 3.16029 0)
(15.8733 3.29983 7.02348e-19)
(15.9302 3.44582 5.50147e-20)
(15.9985 3.59729 4.30356e-19)
(16.0769 3.75494 3.42191e-19)
(16.1616 3.91351 -5.2237e-19)
(16.2466 4.0734 -2.04742e-19)
(16.3303 4.21998 8.32865e-19)
(16.4029 4.36495 -8.03617e-19)
(16.4715 4.47708 5.43429e-19)
(15.3731 2.7473 4.80989e-19)
(15.3778 2.73701 2.17922e-18)
(15.3653 2.74082 1.7038e-20)
(15.3595 2.73141 -2.25471e-20)
(15.3637 2.71585 -3.60073e-18)
(15.3799 2.69724 3.5326e-18)
(15.4157 2.68031 -2.94584e-20)
(15.4693 2.67514 -8.0636e-21)
(15.537 2.69054 6.15633e-20)
(15.6097 2.73265 2.33499e-20)
(15.6809 2.80386 -3.06269e-20)
(15.744 2.90092 -1.25804e-18)
(15.7999 3.01822 8.54862e-19)
(15.851 3.14834 -3.40383e-20)
(15.9049 3.2848 0)
(15.9689 3.42501 -4.87424e-20)
(16.0466 3.56776 5.28265e-20)
(16.1371 3.71446 -3.46019e-19)
(16.2363 3.85992 6.57359e-19)
(16.3376 4.00615 4.12426e-19)
(16.4384 4.13792 -2.87471e-19)
(16.5277 4.26907 -4.60549e-19)
(16.6123 4.3688 6.03124e-19)
(15.3737 2.75009 1.19134e-20)
(15.3776 2.73857 -2.19317e-18)
(15.3647 2.74283 0)
(15.3583 2.73285 0)
(15.3619 2.71626 0)
(15.378 2.69601 0)
(15.4144 2.6767 2.99388e-20)
(15.4697 2.66894 -1.55573e-20)
(15.5403 2.682 -3.13499e-20)
(15.6165 2.72241 2.38301e-20)
(15.6922 2.79278 -3.12624e-20)
(15.76 2.88956 0)
(15.8208 3.00662 -1.67527e-18)
(15.8766 3.13551 3.63528e-20)
(15.9358 3.26846 -7.45927e-20)
(16.0062 3.40203 6.66776e-19)
(16.0924 3.53453 -5.39871e-20)
(16.194 3.6681 1.0055e-19)
(16.3064 3.79761 -1.25011e-19)
(16.4223 3.92703 2.18255e-19)
(16.5387 4.04059 -3.24315e-19)
(16.6426 4.15443 0)
(16.7415 4.23894 3.43037e-19)
(15.3742 2.75277 -9.59895e-19)
(15.3774 2.74011 -1.02735e-18)
(15.3642 2.74479 -1.14149e-20)
(15.3571 2.73431 1.77707e-18)
(15.3601 2.71676 1.818e-18)
(15.3759 2.6949 1.74404e-20)
(15.4128 2.67318 -3.38898e-18)
(15.4697 2.66272 2.86476e-18)
(15.543 2.67329 2.16706e-18)
(15.6229 2.71179 0)
(15.7032 2.78115 3.18005e-20)
(15.7756 2.8775 -1.3774e-18)
(15.8415 2.99422 8.7281e-19)
(15.902 3.12177 5.29637e-19)
(15.9659 3.25082 3.95897e-19)
(16.042 3.37687 0)
(16.1356 3.49769 0)
(16.2466 3.61613 -3.65486e-19)
(16.3703 3.7273 -4.3689e-19)
(16.4985 3.837 2.22578e-19)
(16.6275 3.92974 1.7306e-19)
(16.7432 4.02253 2.3255e-19)
(16.8535 4.08977 -3.39065e-19)
(15.3746 2.7553 4.81048e-19)
(15.3772 2.74161 1.03091e-18)
(15.3638 2.7467 -8.63157e-21)
(15.3559 2.73575 1.71837e-20)
(15.3584 2.71724 -1.8189e-18)
(15.3739 2.69376 -1.81201e-18)
(15.4113 2.66958 1.63701e-18)
(15.4696 2.65633 -2.84138e-18)
(15.5457 2.6643 -2.16346e-18)
(15.6291 2.70075 -4.7539e-20)
(15.714 2.76895 0)
(15.7911 2.86474 1.3368e-18)
(15.862 2.98102 8.69624e-19)
(15.9269 3.10704 -5.62903e-19)
(15.9951 3.23185 -3.40313e-19)
(16.0757 3.34966 -1.50638e-19)
(16.175 3.45746 -1.19945e-19)
(16.2932 3.55877 7.18724e-19)
(16.4254 3.64928 0)
(16.5625 3.73631 0)
(16.7003 3.80593 1.6902e-19)
(16.824 3.87447 -4.4173e-19)
(16.9419 3.92231 -3.30896e-19)
(15.3751 2.7577 -4.42115e-19)
(15.377 2.74315 0)
(15.3633 2.74867 0)
(15.3547 2.73743 -3.57386e-18)
(15.3563 2.71813 1.81949e-18)
(15.3713 2.69313 1.85467e-18)
(15.4087 2.66645 -2.31757e-20)
(15.4683 2.65017 1.4423e-18)
(15.547 2.65514 5.15643e-20)
(15.6342 2.68911 -1.63974e-18)
(15.7242 2.75581 3.30644e-20)
(15.8065 2.8508 -4.33328e-20)
(15.8829 2.96655 -8.6622e-19)
(15.9522 3.09113 5.61592e-19)
(16.024 3.21162 3.56121e-19)
(16.1074 3.32066 -2.86429e-19)
(16.21 3.41432 2.75434e-19)
(16.3323 3.49672 -3.53626e-19)
(16.4693 3.56461 0)
(16.6112 3.62658 0)
(16.7531 3.67135 -1.53763e-19)
(16.8804 3.71369 1.08508e-19)
(17.0011 3.74067 -3.18146e-19)
(15.3754 2.75985 2.76498e-20)
(15.3768 2.7443 -1.00323e-18)
(15.3633 2.75007 0)
(15.3541 2.73812 8.90212e-19)
(15.3557 2.7177 -3.69195e-18)
(15.3708 2.69092 1.8082e-20)
(15.4091 2.66188 -5.43155e-20)
(15.4701 2.64302 -1.49225e-18)
(15.5513 2.64574 3.36788e-20)
(15.6412 2.6778 1.63989e-18)
(15.7351 2.74323 -3.38915e-20)
(15.8214 2.8373 -6.8254e-19)
(15.9024 2.95224 -5.49254e-20)
(15.9752 3.07503 -5.2329e-19)
(16.0495 3.19074 -4.04463e-19)
(16.1345 3.29034 4.25698e-20)
(16.2384 3.3689 0)
(16.3619 3.43114 -4.71111e-20)
(16.5001 3.47528 6.08995e-20)
(16.6423 3.51099 0)
(16.7831 3.53018 1.43674e-19)
(16.9093 3.54616 -1.05775e-19)
(17.0279 3.55223 0)
(15.3759 2.76228 4.15193e-19)
(15.3764 2.74662 1.00066e-18)
(15.3623 2.75321 0)
(15.3522 2.74201 8.95591e-19)
(15.3525 2.72165 3.70919e-18)
(15.3663 2.69403 1.88557e-18)
(15.4041 2.66214 3.52549e-18)
(15.4661 2.63895 0)
(15.5502 2.63657 2.36356e-18)
(15.6447 2.6642 -1.6681e-18)
(15.7445 2.72678 1.11584e-18)
(15.8369 2.81948 7.0218e-19)
(15.9243 2.93426 -6.69609e-21)
(16.0015 3.05673 8.74543e-21)
(16.0777 3.16958 -3.56343e-19)
(16.1616 3.26114 2.64652e-19)
(16.2623 3.32475 0)
(16.3819 3.36549 1.52141e-19)
(16.5154 3.38392 0)
(16.6521 3.39113 0)
(16.786 3.38318 -1.39773e-19)
(16.9059 3.37271 -2.96141e-19)
(17.0171 3.35817 2.55603e-19)
(15.3759 2.76396 0)
(15.3762 2.7479 -3.46424e-23)
(15.3621 2.75477 1.15362e-22)
(15.3516 2.74375 -9.1429e-19)
(15.3515 2.72329 -9.16341e-19)
(15.3651 2.69508 -1.8849e-18)
(15.4029 2.6617 -1.77671e-18)
(15.4656 2.63614 -1.65513e-21)
(15.5513 2.63079 -1.15561e-18)
(15.6483 2.65536 -3.23404e-20)
(15.7518 2.71544 2.31539e-20)
(15.8487 2.80622 0)
(15.9411 2.91978 6.67498e-21)
(16.0222 3.04083 -8.70975e-21)
(16.1002 3.1501 5.14733e-19)
(16.1824 3.23348 1.48164e-20)
(16.2784 3.28251 0)
(16.3908 3.3024 2.88036e-20)
(16.5153 3.29619 -5.25517e-20)
(16.6414 3.27646 0)
(16.7632 3.24331 0)
(16.8723 3.20922 1.76039e-19)
(16.9714 3.176 -1.2542e-19)
(15.3761 2.76561 3.01486e-19)
(15.376 2.74911 1.01861e-18)
(15.3619 2.7562 0)
(15.3509 2.74531 9.15113e-19)
(15.3506 2.72469 -9.49249e-19)
(15.3639 2.69584 -1.96633e-18)
(15.4017 2.661 1.85742e-18)
(15.4651 2.63319 -1.57759e-18)
(15.5524 2.62506 -1.20754e-18)
(15.6519 2.64673 2.57019e-18)
(15.7594 2.70437 -1.13917e-18)
(15.8607 2.79322 -7.29612e-19)
(15.9584 2.90552 -4.51354e-19)
(16.0433 3.02532 0)
(16.1223 3.13149 -1.7081e-19)
(16.2008 3.20766 2.19085e-19)
(16.2886 3.24357 1.17734e-20)
(16.3894 3.2446 -1.53265e-19)
(16.4998 3.21657 0)
(16.6104 3.17342 0)
(16.7159 3.11849 0)
(16.8102 3.06479 -2.40317e-19)
(16.8936 3.01635 2.1551e-19)
(15.3764 2.76723 -3.0184e-19)
(15.3758 2.75029 1.8117e-20)
(15.3617 2.75759 0)
(15.3503 2.74681 -9.55373e-19)
(15.3496 2.72604 -1.01689e-22)
(15.3626 2.69655 2.97618e-18)
(15.4005 2.66025 -3.76156e-18)
(15.4644 2.63019 4.80662e-18)
(15.5533 2.61928 -1.27169e-21)
(15.6555 2.63802 -8.661e-19)
(15.7669 2.69317 -5.9497e-19)
(15.8729 2.77999 7.30178e-19)
(15.976 2.89104 4.45214e-19)
(16.0648 3.00989 -2.65018e-19)
(16.144 3.11384 2.51525e-21)
(16.2172 3.18439 -2.21317e-19)
(16.2938 3.20939 0)
(16.3788 3.19434 0)
(16.4708 3.14764 8.15234e-20)
(16.5618 3.08435 0)
(16.6477 3.01116 0)
(16.7247 2.94243 3.75372e-20)
(16.7913 2.88317 8.79051e-20)
(15.3766 2.7688 0)
(15.3756 2.75144 -1.03893e-18)
(15.3615 2.75895 2.47227e-23)
(15.3498 2.74831 -2.45994e-20)
(15.3487 2.7274 -8.07229e-23)
(15.3614 2.69728 -2.04134e-18)
(15.3992 2.65954 1.90405e-18)
(15.4637 2.6272 -3.22965e-18)
(15.5541 2.61348 -1.28364e-18)
(15.6589 2.6292 0)
(15.7743 2.68173 5.9198e-19)
(15.885 2.76637 1.43994e-21)
(15.9936 2.87616 -8.04817e-23)
(16.086 2.99446 2.63331e-19)
(16.1651 3.0973 0)
(16.2317 3.16426 9.05211e-20)
(16.2944 3.18115 -1.96981e-21)
(16.3604 3.15325 0)
(16.4302 3.0911 -8.11669e-20)
(16.4982 3.01123 0)
(16.5636 2.9247 0)
(16.6236 2.84666 0)
(16.6734 2.78063 -7.51702e-21)
(15.3769 2.77034 0)
(15.3754 2.75259 5.45105e-19)
(15.3614 2.7603 -4.78517e-24)
(15.3493 2.74981 9.81698e-19)
(15.3479 2.72878 1.04954e-18)
(15.3602 2.69806 2.08957e-18)
(15.3979 2.65888 0)
(15.4628 2.62425 -1.6741e-18)
(15.5547 2.60765 2.58722e-18)
(15.662 2.62025 -4.49603e-24)
(15.7813 2.67003 6.08928e-19)
(15.8967 2.75234 -3.77818e-19)
(16.0109 2.86085 0)
(16.1072 2.97901 0)
(16.1859 3.082 1.40455e-19)
(16.2447 3.14779 -8.87037e-20)
(16.2915 3.15986 0)
(16.3354 3.12272 -6.29803e-20)
(16.3798 3.04897 -4.7994e-20)
(16.4234 2.95738 0)
(16.469 2.86254 1.0633e-21)
(16.5124 2.77864 1.49045e-22)
(16.5443 2.70717 -3.66035e-20)
(15.3772 2.77183 4.14891e-24)
(15.3753 2.75371 -1.1048e-18)
(15.3613 2.76163 -1.2904e-23)
(15.3488 2.75131 0)
(15.347 2.73019 2.38845e-20)
(15.3589 2.69888 -2.13373e-18)
(15.3965 2.65828 -4.27747e-22)
(15.4619 2.62134 1.67476e-18)
(15.5552 2.60181 -1.30309e-18)
(15.6649 2.61118 9.23168e-19)
(15.7881 2.65807 6.35662e-21)
(15.9082 2.73786 7.5894e-19)
(16.028 2.84506 -4.58066e-19)
(16.1284 2.96353 1.0665e-21)
(16.2067 3.06806 -2.72617e-19)
(16.2572 3.13538 6.71883e-20)
(16.2864 3.14638 -2.57498e-21)
(16.3055 3.10442 6.47186e-20)
(16.3225 3.02424 4.74307e-20)
(16.3411 2.92529 0)
(16.3661 2.82298 1.67059e-20)
(16.3904 2.73249 0)
(16.4037 2.65566 -6.19423e-21)
(15.3775 2.77328 0)
(15.3752 2.75481 5.59681e-19)
(15.3612 2.76293 4.81552e-19)
(15.3483 2.75281 5.31863e-23)
(15.3462 2.73161 -2.17198e-18)
(15.3577 2.69974 1.07802e-18)
(15.395 2.65775 0)
(15.4608 2.61848 0)
(15.5554 2.59596 -6.73872e-22)
(15.6675 2.60199 -9.22549e-19)
(15.7946 2.64583 6.0822e-21)
(15.9194 2.72292 -3.80625e-19)
(16.0451 2.82875 4.55781e-19)
(16.1498 2.94797 0)
(16.2282 3.0555 1.31254e-19)
(16.2704 3.12732 -6.47535e-20)
(16.2809 3.1417 1.72745e-20)
(16.2734 3.1005 1.84021e-21)
(16.261 3.01885 0)
(16.2519 2.91324 0)
(16.252 2.80043 -1.01388e-20)
(16.2547 2.70271 -1.33083e-20)
(16.2521 2.62246 1.78584e-20)
(15.3778 2.77469 0)
(15.375 2.75589 -2.0512e-23)
(15.3611 2.76421 -4.81931e-19)
(15.3478 2.7543 5.3812e-19)
(15.3454 2.73306 1.09741e-18)
(15.3564 2.70066 2.31544e-22)
(15.3935 2.65727 1.03789e-18)
(15.4595 2.61567 8.69762e-19)
(15.5554 2.5901 -1.34743e-18)
(15.6699 2.59268 0)
(15.8008 2.63331 6.41774e-21)
(15.9304 2.70751 -3.88073e-19)
(16.0622 2.81188 0)
(16.1718 2.93223 -3.30261e-21)
(16.2508 3.04424 1.18566e-19)
(16.2853 3.12381 0)
(16.2771 3.14678 -1.54656e-20)
(16.2417 3.11233 1.27634e-21)
(16.1962 3.03211 -1.75866e-20)
(16.1535 2.91854 0)
(16.1247 2.79593 0)
(16.1079 2.69544 5.10353e-21)
(16.0922 2.61489 -9.48128e-21)
(15.3781 2.77605 -8.86927e-24)
(15.3749 2.75696 1.17113e-23)
(15.361 2.76548 0)
(15.3473 2.7558 5.57681e-19)
(15.3445 2.73454 -5.89979e-22)
(15.3551 2.70163 4.70344e-22)
(15.3919 2.65687 -1.03803e-18)
(15.4582 2.61291 -8.71099e-19)
(15.5552 2.58424 1.34813e-18)
(15.672 2.58325 -9.50127e-19)
(15.8067 2.62052 -6.29783e-19)
(15.9412 2.69159 3.90797e-19)
(16.0793 2.79438 2.29155e-19)
(16.1945 2.91619 1.20834e-19)
(16.2753 3.03412 -1.12259e-19)
(16.3034 3.12489 3.06565e-21)
(16.2773 3.16206 -1.84158e-21)
(16.2122 3.13989 2.05844e-20)
(16.1284 3.06377 -4.49722e-21)
(16.0476 2.94686 -1.05044e-20)
(15.9912 2.82463 1.32823e-20)
(15.9567 2.72814 0)
(15.9252 2.64846 -7.09255e-21)
(15.3784 2.77737 0)
(15.3748 2.758 6.07518e-19)
(15.3609 2.76672 5.11199e-19)
(15.3469 2.75729 -5.39441e-19)
(15.3437 2.73603 5.77686e-19)
(15.3538 2.70264 0)
(15.3903 2.65653 1.19528e-21)
(15.4567 2.61021 -1.57052e-21)
(15.5549 2.57838 6.87765e-19)
(15.6739 2.57371 1.43384e-18)
(15.8124 2.60746 -6.40159e-19)
(15.9517 2.67517 -3.15416e-21)
(16.0964 2.77617 2.97067e-21)
(16.2179 2.89965 -1.23809e-19)
(16.3022 3.02484 0)
(16.326 3.13022 1.30043e-20)
(16.2836 3.18709 2.76327e-20)
(16.1874 3.18317 -2.29366e-20)
(16.0625 3.11934 -2.95409e-20)
(15.9456 3.01409 -2.05518e-21)
(15.8639 2.90553 2.73286e-20)
(15.8049 2.81413 -2.28584e-20)
(15.7464 2.73085 -1.5813e-20)
(15.3787 2.77865 7.18273e-20)
(15.3747 2.75902 9.55774e-21)
(15.3608 2.76793 -5.11617e-19)
(15.3464 2.75878 -5.57495e-19)
(15.3428 2.73755 -1.16475e-18)
(15.3525 2.70371 -1.15879e-18)
(15.3886 2.65626 -1.2088e-21)
(15.4552 2.60756 1.58823e-21)
(15.5544 2.57253 -6.88123e-19)
(15.6756 2.56407 -4.81688e-19)
(15.8178 2.59411 1.29416e-18)
(15.962 2.6582 -4.04115e-19)
(16.1135 2.75717 -2.35447e-19)
(16.2423 2.88239 1.24435e-19)
(16.3319 3.01593 -1.47489e-21)
(16.3545 3.13899 -1.28299e-20)
(16.2984 3.22102 -3.2333e-20)
(16.1724 3.24444 7.93548e-20)
(16.0101 3.20886 1.65271e-20)
(15.8617 3.13198 0)
(15.7471 3.03932 -4.54632e-20)
(15.6448 2.94426 4.36732e-20)
(15.543 2.84989 -5.71404e-20)
(15.379 2.77988 -7.18629e-20)
(15.3746 2.76001 -9.31341e-19)
(15.3607 2.76913 -5.28658e-19)
(15.346 2.76027 5.75723e-19)
(15.342 2.73909 5.86921e-19)
(15.3511 2.70483 1.1593e-18)
(15.3869 2.65607 1.08918e-18)
(15.4535 2.60499 0)
(15.5537 2.56669 7.03627e-19)
(15.677 2.55432 -4.94068e-19)
(15.8229 2.58049 -6.51593e-19)
(15.972 2.64068 4.03986e-19)
(16.1307 2.73729 0)
(16.2677 2.86413 -1.18385e-19)
(16.365 3.00673 3.70722e-20)
(16.3901 3.15 4.97433e-21)
(16.3249 3.26322 -1.96096e-20)
(16.1755 3.32693 -3.00388e-20)
(15.983 3.33664 1.32838e-19)
(15.7981 3.29234 -8.39663e-20)
(15.6279 3.20515 0)
(15.4621 3.10027 1.53665e-19)
(15.307 2.99695 -2.28254e-19)
(15.3793 2.78106 0)
(15.3745 2.76099 3.13617e-19)
(15.3607 2.7703 5.28843e-19)
(15.3456 2.76175 -5.76206e-19)
(15.3412 2.74065 -1.28134e-22)
(15.3498 2.706 4.96914e-22)
(15.3851 2.65594 -5.38341e-19)
(15.4518 2.60248 0)
(15.5528 2.56087 -7.03988e-19)
(15.6783 2.54448 -6.62554e-21)
(15.8277 2.56659 0)
(15.9818 2.62258 -2.08893e-19)
(16.1478 2.71644 0)
(16.2941 2.84453 5.80272e-21)
(16.4017 2.9964 -9.39783e-20)
(16.4341 3.16185 -6.92223e-21)
(16.3674 3.31292 -2.49285e-20)
(16.2049 3.43023 1.21015e-19)
(15.9848 3.49372 -6.61309e-20)
(15.7443 3.47656 -1.30565e-19)
(15.496 3.39706 2.13918e-19)
(15.2671 3.30276 -1.85566e-19)
(15.067 3.21483 6.18449e-19)
(15.3796 2.7822 -7.72224e-20)
(15.3744 2.76194 3.22257e-19)
(15.3606 2.77145 -2.72892e-19)
(15.3452 2.76323 -3.1135e-22)
(15.3405 2.74223 6.33887e-22)
(15.3485 2.70722 -1.22507e-21)
(15.3833 2.6559 -5.51193e-19)
(15.4499 2.60004 3.64239e-21)
(15.5518 2.55507 -2.61679e-21)
(15.6793 2.53455 -6.77551e-21)
(15.8322 2.55243 -3.40861e-19)
(15.9911 2.6039 2.0258e-19)
(16.1649 2.69452 8.11056e-21)
(16.3215 2.82324 -5.8317e-21)
(16.4422 2.98399 5.08907e-20)
(16.4878 3.17291 0)
(16.4295 3.36776 -4.22481e-20)
(16.2643 3.54689 -8.80984e-20)
(16.0135 3.66537 1.06739e-19)
(15.7045 3.68622 -2.99939e-19)
(15.3898 3.66196 1.56426e-19)
(15.1317 3.63867 -4.21359e-20)
(14.9077 3.61248 -4.23474e-19)
(15.38 2.78329 1.56184e-19)
(15.3743 2.76286 -3.22468e-19)
(15.3606 2.77257 -4.33928e-21)
(15.3448 2.76471 0)
(15.3397 2.74383 0)
(15.3472 2.70849 -6.09909e-19)
(15.3815 2.65593 -5.63678e-19)
(15.448 2.59767 0)
(15.5506 2.5493 -2.96285e-21)
(15.68 2.52454 5.11886e-19)
(15.8363 2.53801 3.46152e-19)
(16.0001 2.58462 -6.81548e-21)
(16.1818 2.67142 -7.05356e-21)
(16.3496 2.79986 1.50688e-20)
(16.4867 2.96845 -7.67916e-21)
(16.5521 3.1811 0)
(16.5131 3.42257 5.42447e-20)
(16.3543 3.66492 -2.78549e-20)
(16.0772 3.84542 3.31631e-19)
(15.7277 3.954 -1.58506e-19)
(15.4102 4.0749 -2.83904e-19)
(15.1705 4.19829 4.28034e-19)
(14.9304 4.27641 0)
(15.3803 2.78433 -1.59482e-19)
(15.3742 2.76376 2.61156e-23)
(15.3605 2.77367 2.77653e-19)
(15.3445 2.76618 0)
(15.3389 2.74545 0)
(15.3458 2.70981 -6.62884e-21)
(15.3796 2.65604 1.13328e-18)
(15.4459 2.59539 0)
(15.5493 2.54357 3.69201e-19)
(15.6804 2.51447 0)
(15.8401 2.52334 0)
(16.0086 2.56473 -6.51825e-21)
(16.1983 2.64708 8.43397e-21)
(16.3783 2.77402 6.29961e-20)
(16.5348 2.94871 7.97572e-21)
(16.627 3.18366 1.22702e-20)
(16.6177 3.46989 -6.18694e-20)
(16.4771 3.77297 0)
(16.2048 4.03761 -1.11701e-19)
(15.8928 4.30604 0)
(15.6524 4.64321 -8.05495e-20)
(15.4404 4.94042 -1.0367e-19)
(15.1506 5.11811 0)
(15.3806 2.78533 1.21497e-19)
(15.3741 2.76464 -1.67503e-19)
(15.3605 2.77474 0)
(15.3441 2.76764 3.11061e-19)
(15.3382 2.74709 -3.19296e-19)
(15.3445 2.71118 6.17913e-19)
(15.3777 2.65623 -5.70569e-19)
(15.4438 2.59319 -4.84704e-19)
(15.5477 2.53788 -3.6667e-19)
(15.6806 2.50432 -4.18664e-21)
(15.8434 2.50843 5.44896e-21)
(16.0166 2.54422 2.23816e-19)
(16.2146 2.6214 7.47788e-21)
(16.4073 2.74536 -8.53087e-20)
(16.5861 2.92361 8.43449e-21)
(16.7115 3.17729 0)
(16.7417 3.50174 0)
(16.6397 3.86269 0)
(16.4321 4.24029 0)
(16.2493 4.71296 5.54024e-20)
(16.1145 5.2557 4.00124e-19)
(15.8714 5.67144 -3.78547e-19)
(15.4594 5.88564 0)
(15.3809 2.78628 -4.09774e-20)
(15.3741 2.76548 3.37187e-19)
(15.3605 2.7758 0)
(15.3438 2.7691 -3.114e-19)
(15.3375 2.74875 6.43722e-19)
(15.3432 2.71261 0)
(15.3758 2.6565 0)
(15.4416 2.59108 4.8289e-19)
(15.546 2.53224 0)
(15.6805 2.49413 -2.63325e-19)
(15.8464 2.49329 -1.86314e-19)
(16.0241 2.5231 -1.09986e-19)
(16.2302 2.59435 1.3919e-19)
(16.4361 2.71358 0)
(16.6399 2.89207 0)
(16.8035 3.15852 -1.1429e-20)
(16.8835 3.51104 1.45106e-20)
(16.8502 3.92633 0)
(16.7775 4.43266 6.32e-20)
(16.7759 5.0917 -5.34814e-20)
(16.6938 5.75127 -3.83173e-19)
(16.3121 6.18294 4.56624e-19)
(15.6961 6.35404 0)
(15.3812 2.78717 2.05297e-23)
(15.374 2.76631 -3.41443e-19)
(15.3605 2.77682 -9.84531e-23)
(15.3435 2.77055 -1.60115e-19)
(15.3368 2.75043 -3.24427e-19)
(15.3419 2.71409 3.19638e-19)
(15.3738 2.65686 1.00791e-21)
(15.4392 2.58906 -2.49013e-19)
(15.544 2.52665 3.87889e-19)
(15.6801 2.48389 2.63603e-19)
(15.8489 2.47793 1.80826e-19)
(16.0308 2.50138 -1.13797e-19)
(16.2453 2.56591 -1.39125e-19)
(16.4643 2.67841 -7.71847e-21)
(16.6949 2.85307 9.896e-21)
(16.9004 3.12428 -9.44346e-21)
(17.0409 3.49224 1.19464e-20)
(17.1109 3.95455 0)
(17.2269 4.57668 -6.17253e-20)
(17.3939 5.35125 0)
(17.2564 6.01875 4.17432e-20)
(16.6238 6.38064 0)
(15.7371 6.46061 2.06617e-20)
(15.3815 2.78802 2.12945e-20)
(15.374 2.76711 1.7175e-19)
(15.3605 2.77782 1.5067e-19)
(15.3432 2.77199 -1.96433e-21)
(15.3361 2.75213 -5.49736e-22)
(15.3406 2.71562 4.53135e-21)
(15.3718 2.6573 -2.97927e-19)
(15.4368 2.58713 -4.40445e-21)
(15.5419 2.52112 -3.82177e-19)
(15.6794 2.47362 -4.35968e-21)
(15.851 2.46238 1.91614e-19)
(16.0369 2.47906 0)
(16.2595 2.53609 -8.41103e-21)
(16.4912 2.6397 1.08303e-20)
(16.7499 2.80587 2.02499e-20)
(16.9989 3.07237 0)
(17.2103 3.4414 0)
(17.4144 3.93533 2.27856e-20)
(17.7389 4.63086 0)
(18.0084 5.4304 -2.25311e-19)
(17.6975 6.02385 2.40054e-19)
(16.7337 6.27816 -2.63578e-20)
(15.5426 6.25898 -7.14758e-19)
(15.3818 2.78883 -4.28156e-20)
(15.3739 2.76788 -8.80089e-20)
(15.3605 2.7788 -2.272e-19)
(15.3429 2.77343 1.63375e-19)
(15.3354 2.75385 1.68217e-19)
(15.3392 2.71721 -4.88549e-19)
(15.3697 2.65783 2.98384e-19)
(15.4343 2.58531 2.47611e-19)
(15.5396 2.51566 6.02165e-21)
(15.6784 2.46332 -4.15881e-21)
(15.8526 2.44664 -1.85983e-19)
(16.0422 2.45618 -5.97449e-20)
(16.2728 2.50494 6.78029e-20)
(16.5162 2.59737 5.55918e-20)
(16.8032 2.75006 -2.02144e-20)
(17.0955 3.00161 0)
(17.3858 3.35589 0)
(17.7421 3.85579 5.19406e-20)
(18.2591 4.56477 -7.08812e-20)
(18.542 5.30893 0)
(17.9653 5.78573 3.54382e-20)