/*--------------------------------*- C++ -*----------------------------------*\
  =========                 |
  \\      /  F ield         | OpenFOAM: The Open Source CFD Toolbox
   \\    /   O peration     | Website:  https://openfoam.org
    \\  /    A nd           | Version:  7
     \\/     M anipulation  |
\*---------------------------------------------------------------------------*/
FoamFile
{
    version     2.0;
    format      ascii;
    class       volScalarField;
    location    "50";
    object      yPlus;
}
// * * * * * * * * * * * * * * * * * * * * * * * * * * * * * * * * * * * * * //

dimensions      [0 0 0 0 0 0 0];

internalField   uniform 0;

boundaryField
{
    inlet
    {
        type            calculated;
        value           uniform 0;
    }
    outlet
    {
        type            calculated;
        value           uniform 0;
    }
    suction_side
    {
        type            calculated;
        value           nonuniform List<scalar> 
56
(
6.96102
7.23246
7.38738
7.54002
8.25849
8.30994
9.47111
9.57768
11.3191
11.7657
15.0425
17.9551
27.2231
36.6477
39.7858
36.2535
27.6096
19.5507
33.7612
39.9092
41.8752
43.2238
43.756
42.6655
40.907
38.799
36.1255
33.07
29.614
25.8145
21.5002
16.553
14.5582
16.7715
18.0978
18.843
18.7449
19.2111
19.5741
21.146
24.0014
29.1319
32.1892
32.8392
34.0919
20.7766
15.567
17.8558
18.3796
17.2785
17.4188
18.8913
21.5513
22.6318
23.1968
26.5646
)
;
    }
    pressure_side
    {
        type            calculated;
        value           nonuniform List<scalar> 
56
(
47.8109
45.2417
45.0145
43.4573
42.9073
42.0142
41.1927
40.3671
39.7407
39.3658
39.094
38.9019
38.7658
38.6667
38.5916
38.537
38.4779
38.4589
38.4597
38.4711
38.4961
38.5189
38.5197
38.4246
38.2415
38.0183
37.8216
37.7743
37.9782
38.5427
39.4434
40.528
41.5774
42.1062
41.9342
40.9299
39.3453
37.0184
33.8087
29.5809
24.5245
19.0182
13.359
8.67639
7.25774
5.53543
5.0921
4.95658
5.1399
5.39416
5.86509
6.16034
6.46366
6.66278
6.71082
6.91769
)
;
    }
    trailing_edge
    {
        type            calculated;
        value           nonuniform List<scalar> 2(146.53 93.2485);
    }
    defaultFaces
    {
        type            empty;
    }
}


// ************************************************************************* //
