# Force coefficients
# liftDir     : (9.781476e-01 -2.079119e-01 0.000000e+00)
# dragDir     : (2.079119e-01 9.781476e-01 0.000000e+00)
# pitchAxis   : (0.000000e+00 0.000000e+00 -1.000000e+00)
# magUInf     : 1.562000e+01
# lRef        : 1.000000e+00
# Aref        : 1.000000e+00
# CofR        : (2.500000e-01 0.000000e+00 0.000000e+00)
# Time        	Cm            	Cd            	Cl            	Cl(f)         	Cl(r)         
1             	-2.321577e-01	1.259506e+00	-5.474832e-02	-2.595318e-01	2.047835e-01
2             	-2.082213e-01	8.883241e-01	2.815572e-02	-1.941435e-01	2.222992e-01
3             	-2.169802e-01	9.531702e-01	-3.900057e-02	-2.364804e-01	1.974799e-01
4             	-1.792918e-01	1.058240e+00	-1.105244e-01	-2.345540e-01	1.240296e-01
5             	-1.487189e-01	1.086942e+00	-1.415827e-01	-2.195102e-01	7.792758e-02
6             	-1.715586e-01	1.194665e+00	-1.637731e-01	-2.534452e-01	8.967205e-02
7             	-1.780629e-01	1.346789e+00	-2.046608e-01	-2.803932e-01	7.573248e-02
8             	-1.465085e-01	1.383929e+00	-2.387860e-01	-2.659015e-01	2.711549e-02
9             	-1.090018e-01	1.329287e+00	-2.447261e-01	-2.313649e-01	-1.336121e-02
10            	-9.108043e-02	1.315008e+00	-2.489074e-01	-2.155341e-01	-3.337328e-02
11            	-7.677356e-02	1.276799e+00	-2.427054e-01	-1.981263e-01	-4.457916e-02
12            	-8.296044e-02	1.273734e+00	-2.364052e-01	-2.011631e-01	-3.524218e-02
13            	-9.663987e-02	1.278838e+00	-2.313702e-01	-2.123250e-01	-1.904525e-02
14            	-1.161502e-01	1.293122e+00	-2.269334e-01	-2.296169e-01	2.683542e-03
15            	-1.370210e-01	1.297921e+00	-2.216803e-01	-2.478611e-01	2.618083e-02
16            	-1.592575e-01	1.289009e+00	-2.140835e-01	-2.662993e-01	5.221572e-02
17            	-1.846959e-01	1.273175e+00	-2.046102e-01	-2.870010e-01	8.239074e-02
18            	-2.154765e-01	1.255640e+00	-1.934190e-01	-3.121860e-01	1.187671e-01
19            	-2.494541e-01	1.234119e+00	-1.797948e-01	-3.393515e-01	1.595567e-01
20            	-2.826879e-01	1.206933e+00	-1.639765e-01	-3.646762e-01	2.006996e-01
21            	-3.090531e-01	1.164491e+00	-1.454299e-01	-3.817681e-01	2.363382e-01
22            	-3.231757e-01	1.098401e+00	-1.234652e-01	-3.849083e-01	2.614431e-01
23            	-3.181612e-01	1.000933e+00	-9.821453e-02	-3.672685e-01	2.690539e-01
24            	-2.887400e-01	8.625097e-01	-6.860914e-02	-3.230446e-01	2.544355e-01
25            	-2.369399e-01	6.947129e-01	-3.720860e-02	-2.555442e-01	2.183356e-01
26            	-1.695699e-01	5.155598e-01	-6.535411e-03	-1.728376e-01	1.663022e-01
27            	-8.963510e-02	3.277454e-01	2.271070e-02	-7.827974e-02	1.009904e-01
28            	-4.397652e-03	1.400212e-01	5.008020e-02	2.064245e-02	2.943775e-02
29            	7.056009e-02	-1.268792e-02	7.038376e-02	1.057520e-01	-3.536821e-02
30            	1.278041e-01	-1.201660e-01	8.100617e-02	1.683072e-01	-8.730102e-02
31            	1.582635e-01	-1.760878e-01	8.282615e-02	1.996766e-01	-1.168504e-01
32            	1.555320e-01	-1.657326e-01	7.502697e-02	1.930455e-01	-1.180185e-01
33            	1.287633e-01	-1.016360e-01	5.904387e-02	1.582852e-01	-9.924135e-02
34            	9.206574e-02	-5.482688e-03	3.698246e-02	1.105570e-01	-7.357451e-02
35            	4.769636e-02	1.308632e-01	6.415900e-03	5.090431e-02	-4.448841e-02
36            	1.305443e-02	2.555639e-01	-2.361569e-02	1.246586e-03	-2.486228e-02
37            	-1.086550e-02	3.587336e-01	-5.097827e-02	-3.635463e-02	-1.462364e-02
38            	-2.700001e-02	4.424788e-01	-7.518083e-02	-6.459042e-02	-1.059041e-02
39            	-3.723610e-02	5.066006e-01	-9.565969e-02	-8.506594e-02	-1.059375e-02
40            	-3.948746e-02	5.378019e-01	-1.086075e-01	-9.379121e-02	-1.481630e-02
41            	-4.355417e-02	5.639141e-01	-1.184688e-01	-1.027886e-01	-1.568022e-02
42            	-5.327596e-02	5.943258e-01	-1.267251e-01	-1.166385e-01	-1.008659e-02
43            	-6.863261e-02	6.291352e-01	-1.345342e-01	-1.358997e-01	1.365493e-03
44            	-8.561001e-02	6.619769e-01	-1.410639e-01	-1.561419e-01	1.507807e-02
45            	-9.982877e-02	6.878236e-01	-1.460262e-01	-1.728419e-01	2.681565e-02
46            	-1.109641e-01	7.059424e-01	-1.495061e-01	-1.857171e-01	3.621098e-02
47            	-1.157301e-01	7.105341e-01	-1.508193e-01	-1.911397e-01	4.032043e-02
48            	-1.130589e-01	7.016178e-01	-1.499557e-01	-1.880367e-01	3.808103e-02
49            	-1.016062e-01	6.772248e-01	-1.466616e-01	-1.749370e-01	2.827541e-02
50            	-8.053333e-02	6.355264e-01	-1.407046e-01	-1.508856e-01	1.018103e-02
51            	-5.165172e-02	5.812237e-01	-1.329269e-01	-1.181152e-01	-1.481171e-02
52            	-1.607109e-02	5.169443e-01	-1.237731e-01	-7.795762e-02	-4.581545e-02
53            	2.149806e-02	4.511686e-01	-1.145727e-01	-3.578831e-02	-7.878442e-02
54            	5.904630e-02	3.876863e-01	-1.060738e-01	6.009386e-03	-1.120832e-01
55            	9.308188e-02	3.332341e-01	-9.953334e-02	4.331521e-02	-1.428485e-01
56            	1.186723e-01	2.977338e-01	-9.672076e-02	7.031196e-02	-1.670327e-01
57            	1.286887e-01	2.959420e-01	-9.988625e-02	7.874556e-02	-1.786318e-01
58            	1.202682e-01	3.326163e-01	-1.096381e-01	6.544912e-02	-1.750872e-01
59            	9.293294e-02	4.092083e-01	-1.261404e-01	2.986276e-02	-1.560031e-01
60            	6.000797e-02	5.009412e-01	-1.456046e-01	-1.279434e-02	-1.328103e-01
61            	2.898317e-02	5.915198e-01	-1.649690e-01	-5.350136e-02	-1.114677e-01
62            	6.557053e-03	6.626525e-01	-1.808249e-01	-8.385538e-02	-9.696949e-02
63            	-1.108463e-02	7.224241e-01	-1.939007e-01	-1.080350e-01	-8.586570e-02
64            	-2.432067e-02	7.708235e-01	-2.039589e-01	-1.263001e-01	-7.765879e-02
65            	-3.600367e-02	8.133046e-01	-2.121204e-01	-1.420639e-01	-7.005655e-02
66            	-4.731798e-02	8.523509e-01	-2.192352e-01	-1.569356e-01	-6.229961e-02
67            	-5.883746e-02	8.890955e-01	-2.255530e-01	-1.716140e-01	-5.393903e-02
68            	-7.018380e-02	9.230718e-01	-2.310427e-01	-1.857051e-01	-4.533753e-02
69            	-8.151828e-02	9.542811e-01	-2.355994e-01	-1.993180e-01	-3.628141e-02
70            	-9.286779e-02	9.831517e-01	-2.393387e-01	-2.125371e-01	-2.680154e-02
71            	-1.037573e-01	1.008242e+00	-2.420601e-01	-2.247874e-01	-1.727270e-02
72            	-1.139710e-01	1.029120e+00	-2.436565e-01	-2.357992e-01	-7.857258e-03
73            	-1.229328e-01	1.044642e+00	-2.438487e-01	-2.448571e-01	1.008421e-03
74            	-1.298775e-01	1.054161e+00	-2.424691e-01	-2.511120e-01	8.642962e-03
75            	-1.335543e-01	1.055384e+00	-2.391368e-01	-2.531227e-01	1.398592e-02
76            	-1.328770e-01	1.046316e+00	-2.335792e-01	-2.496665e-01	1.608738e-02
77            	-1.282345e-01	1.028375e+00	-2.259351e-01	-2.412021e-01	1.526696e-02
78            	-1.192742e-01	1.001719e+00	-2.164847e-01	-2.275166e-01	1.103186e-02
79            	-1.072916e-01	9.662619e-01	-2.049424e-01	-2.097628e-01	4.820391e-03
80            	-9.322681e-02	9.242541e-01	-1.918765e-01	-1.891651e-01	-2.711445e-03
