/*--------------------------------*- C++ -*----------------------------------*\
  =========                 |
  \\      /  F ield         | OpenFOAM: The Open Source CFD Toolbox
   \\    /   O peration     | Website:  https://openfoam.org
    \\  /    A nd           | Version:  7
     \\/     M anipulation  |
\*---------------------------------------------------------------------------*/
FoamFile
{
    version     2.0;
    format      ascii;
    class       volScalarField;
    location    "0.48";
    object      p;
}
// * * * * * * * * * * * * * * * * * * * * * * * * * * * * * * * * * * * * * //

dimensions      [0 2 -2 0 0 0 0];

internalField   nonuniform List<scalar> 
1600
(
8.58284e-06
-0.00117628
-0.0039067
-0.00758127
-0.0115268
-0.0152478
-0.0183863
-0.0206899
-0.0219911
-0.0221901
-0.0212414
-0.0191428
-0.0159279
-0.0116597
-0.00642544
-0.000332876
0.00649302
0.0139129
0.0217752
0.0299192
0.0381767
0.0463748
0.0543394
0.0618973
0.068881
0.075132
0.0805055
0.0848756
0.0881407
0.0902293
0.0911065
0.090781
0.0893131
0.0868239
0.0835069
0.079641
0.0756065
0.0719123
0.0692261
0.0681107
0.00120275
1.28216e-05
-0.00220389
-0.00505538
-0.00809829
-0.0109674
-0.0133781
-0.0151172
-0.0160346
-0.0160344
-0.0150664
-0.0131192
-0.0102135
-0.00639753
-0.00174243
0.00366112
0.00970594
0.016271
0.023224
0.0304235
0.0377216
0.0449661
0.0520041
0.0586841
0.0648603
0.0703959
0.0751674
0.0790694
0.0820187
0.0839604
0.0848724
0.0847718
0.0837204
0.0818314
0.0792753
0.0762862
0.073166
0.0702907
0.0681072
0.0669973
0.0039485
0.0022209
-2.63186e-05
-0.00258604
-0.00521517
-0.00764387
-0.0096485
-0.0110574
-0.0117449
-0.0116272
-0.0106584
-0.00882525
-0.00614305
-0.00265158
0.00158828
0.00649753
0.0119817
0.0179333
0.0242341
0.0307573
0.0373699
0.0439352
0.0503154
0.0563747
0.0619824
0.0670164
0.0713674
0.0749425
0.07767
0.0795032
0.0804256
0.080455
0.0796476
0.0781024
0.0759637
0.0734223
0.0707183
0.0681334
0.0659261
0.0643087
0.00771283
0.00510108
0.00245969
-0.000169693
-0.00272521
-0.00500696
-0.00684071
-0.00809469
-0.00867048
-0.00850131
-0.0075505
-0.00580865
-0.00329062
-3.26062e-05
0.00391042
0.00846709
0.0135518
0.019067
0.0249046
0.0309489
0.0370779
0.043166
0.0490867
0.0547148
0.0599299
0.0646195
0.0686827
0.072034
0.0746067
0.0763574
0.0772691
0.0773551
0.0766618
0.0752709
0.0732995
0.0708996
0.0682634
0.065606
0.0630147
0.0605458
0.0119021
0.00826141
0.00505245
0.00217142
-0.000486713
-0.00277802
-0.00456992
-0.00576779
-0.00630045
-0.00611954
-0.00520009
-0.00353914
-0.00115381
0.00192064
0.00563267
0.00991622
0.0146924
0.0198712
0.0253532
0.031031
0.0367918
0.0425187
0.0480937
0.0533997
0.0583238
0.0627601
0.0666128
0.0698003
0.0722579
0.0739418
0.0748316
0.0749334
0.0742815
0.0729395
0.0709984
0.068575
0.065823
0.0629055
0.059752
0.0562813
0.0160902
0.0113776
0.00750841
0.00425793
0.00137491
-0.00103958
-0.00288656
-0.00410411
-0.00464643
-0.00448346
-0.00360285
-0.0020096
0.000275065
0.00321484
0.00675958
0.0108465
0.0154015
0.0203402
0.0255696
0.0309889
0.0364921
0.0419689
0.0473074
0.0523964
0.0571275
0.0613985
0.0651165
0.0682004
0.0705848
0.0722228
0.0730881
0.073178
0.0725137
0.0711412
0.0691277
0.0665601
0.0635622
0.0602594
0.0564438
0.051921
0.0199678
0.0141884
0.00961242
0.0059165
0.00272389
0.000104282
-0.00186933
-0.00316277
-0.00375297
-0.00362708
-0.00278548
-0.00124188
0.000977157
0.00383281
0.00727469
0.0112416
0.0156623
0.0204563
0.025535
0.0308026
0.0361577
0.0414945
0.0467051
0.0516814
0.0563175
0.0605126
0.0641734
0.0672175
0.0695759
0.0711962
0.0720448
0.0721084
0.0713954
0.0699348
0.0677733
0.0649732
0.0616368
0.0578641
0.0533308
0.0477516
0.0233018
0.0164799
0.0111793
0.00699444
0.00343965
0.00056219
-0.00158461
-0.0029898
-0.00365018
-0.00356874
-0.00275806
-0.00124082
0.000950371
0.00377314
0.00717564
0.0110968
0.0154668
0.0202075
0.0252332
0.0304511
0.0357627
0.0410651
0.0462522
0.0512172
0.0558544
0.0600619
0.0637442
0.0668149
0.0691998
0.0708391
0.0716899
0.071728
0.0709484
0.0693651
0.0670066
0.0639157
0.0601803
0.0558845
0.0506048
0.0439815
0.0259101
0.0180729
0.0120446
0.00734838
0.00340174
0.000235968
-0.00211036
-0.00364572
-0.00438428
-0.00434331
-0.00354695
-0.00202679
0.000178122
0.0030212
0.00644817
0.0103971
0.0147983
0.0195747
0.024642
0.0299092
0.0352791
0.0406499
0.0459159
0.0509696
0.0557037
0.0600134
0.0637987
0.0669676
0.0694385
0.0711426
0.0720268
0.0720547
0.0712083
0.0694872
0.0669047
0.063488
0.0593159
0.0544642
0.0484219
0.0407662
0.0276422
0.0188116
0.0120586
0.00684124
0.00248859
-0.0009796
-0.00353595
-0.00520549
-0.00601764
-0.00600269
-0.00519564
-0.00363681
-0.00137189
0.0015478
0.0050649
0.00911571
0.0136299
0.0185303
0.0237329
0.029147
0.034676
0.0402175
0.0456648
0.0509082
0.0558372
0.0603422
0.0643172
0.0676625
0.0702875
0.0721129
0.0730738
0.0731212
0.0722237
0.0703675
0.0675518
0.0637916
0.0591608
0.053732
0.0469146
0.0382286
0.0283652
0.0185545
0.0110805
0.00533988
0.000577718
-0.00319477
-0.00595898
-0.00775445
-0.00862443
-0.00861123
-0.00776019
-0.00612022
-0.00374377
-0.000687275
0.0029883
0.00721687
0.0119266
0.0170396
0.0224712
0.0281304
0.0339195
0.0397347
0.0454672
0.0510039
0.0562295
0.0610281
0.065286
0.0688943
0.0717514
0.0737661
0.0748604
0.0749714
0.0740539
0.0720805
0.0690379
0.0649303
0.0598297
0.0538094
0.0462023
0.0364749
0.0279534
0.0171664
0.00897352
0.0027117
-0.00245601
-0.00652524
-0.00948468
-0.0113872
-0.0122891
-0.012244
-0.0113076
-0.00953702
-0.00699183
-0.00373382
0.000171997
0.00465667
0.00964643
0.0150619
0.0208173
0.0268205
0.032972
0.0391661
0.0452905
0.0512278
0.0568566
0.0620537
0.066696
0.0706635
0.0738421
0.0761269
0.077425
0.0776585
0.0767671
0.0747096
0.07146
0.0670127
0.0614395
0.0548165
0.0464011
0.0356062
0.0262814
0.0145122
0.00559983
-0.0011788
-0.00674257
-0.0110933
-0.0142263
-0.0162074
-0.0171056
-0.0169861
-0.0159144
-0.0139566
-0.0111793
-0.00765002
-0.00343814
0.00138418
0.0067408
0.0125506
0.0187264
0.0251743
0.031793
0.0384737
0.0451004
0.0515504
0.0576955
0.0634037
0.0685412
0.0729753
0.0765776
0.0792273
0.0808149
0.0812454
0.080442
0.0783482
0.0749247
0.0701559
0.0641141
0.0568794
0.0476311
0.0357274
0.0232183
0.010452
0.000816246
-0.0064733
-0.0124191
-0.0170293
-0.0203058
-0.0223277
-0.0231771
-0.022931
-0.0216657
-0.0194562
-0.0163768
-0.0125009
-0.00790249
-0.00265728
0.00315609
0.00945462
0.0161495
0.0231452
0.0303383
0.0376169
0.0448607
0.0519414
0.0587229
0.0650636
0.0708177
0.0758382
0.0799805
0.0831058
0.0850853
0.0858045
0.0851678
0.0831013
0.0795507
0.0744892
0.0679893
0.0601354
0.050024
0.0369555
0.0186239
0.00483701
-0.0055295
-0.0133228
-0.0196324
-0.024473
-0.0278544
-0.0298697
-0.0306152
-0.0301807
-0.0286538
-0.0261198
-0.0226606
-0.0183563
-0.0132858
-0.00752827
-0.00116485
0.00571962
0.013035
0.0206841
0.0285617
0.036553
0.0445335
0.0523688
0.0599148
0.0670192
0.0735231
0.0792637
0.0840781
0.0878068
0.0902991
0.091418
0.0910455
0.0890874
0.0854716
0.0801578
0.0732176
0.0647387
0.0537285
0.0394253
0.0123447
-0.00249475
-0.0136024
-0.021891
-0.0285412
-0.0335759
-0.0370139
-0.0389644
-0.0395395
-0.0388434
-0.0369767
-0.0340353
-0.0301105
-0.025289
-0.0196549
-0.0132909
-0.00628043
0.00129018
0.00932986
0.0177406
0.0264157
0.0352381
0.0440796
0.0527997
0.0612463
0.0692559
0.0766556
0.0832651
0.0889009
0.0933804
0.0965275
0.0981784
0.0981892
0.0964408
0.0928393
0.0873272
0.0799732
0.070867
0.0589175
0.043296
0.0042109
-0.0117217
-0.0235841
-0.0323574
-0.039319
-0.0445025
-0.0479376
-0.0497523
-0.0500771
-0.0490332
-0.0467357
-0.0432933
-0.0388069
-0.0333712
-0.0270754
-0.0200057
-0.0122474
-0.00388748
0.00498276
0.0142654
0.0238534
0.0336284
0.0434593
0.0532006
0.062692
0.071759
0.0802136
0.0878569
0.0944827
0.099882
0.103849
0.10619
0.106728
0.105314
0.101827
0.0961879
0.088458
0.0787266
0.0657937
0.048757
-0.00596713
-0.0230432
-0.0356768
-0.044921
-0.0521576
-0.0574329
-0.0607912
-0.0623832
-0.0623617
-0.0608676
-0.0580336
-0.0539828
-0.0488277
-0.0426712
-0.0356081
-0.0277278
-0.0191168
-0.00986183
-5.29353e-05
0.0102134
0.0208313
0.0316827
0.0426348
0.0535385
0.0642265
0.0745134
0.0841959
0.0930552
0.10086
0.107372
0.112352
0.115568
0.116806
0.115881
0.112635
0.10696
0.0989071
0.0885602
0.0745971
0.0560352
-0.0184028
-0.0366841
-0.0501087
-0.0598055
-0.0672697
-0.0725648
-0.0757542
-0.0770166
-0.0765318
-0.0744653
-0.0709707
-0.0661882
-0.0602434
-0.0532484
-0.045304
-0.0365021
-0.0269296
-0.0166714
-0.00581472
0.00554742
0.0173124
0.0293646
0.041572
0.0537833
0.065826
0.0775048
0.0886015
0.0988767
0.108072
0.115916
0.122131
0.126442
0.128589
0.128339
0.125492
0.119901
0.111596
0.100654
0.0856131
0.065402
-0.0333384
-0.0529015
-0.0671402
-0.0772643
-0.0848944
-0.0901169
-0.0930209
-0.0938203
-0.0927292
-0.089943
-0.0856408
-0.0799833
-0.0731114
-0.0651475
-0.056198
-0.046357
-0.0357102
-0.0243391
-0.0123256
0.000243294
0.0132711
0.0266474
0.0402437
0.0539096
0.0674696
0.0807206
0.0934305
0.105339
0.11616
0.125584
0.133291
0.138955
0.142259
0.142914
0.140663
0.135308
0.126851
0.115349
0.0991825
0.077183
-0.0510523
-0.0719928
-0.0870724
-0.0975881
-0.105302
-0.110332
-0.112801
-0.11297
-0.111095
-0.10741
-0.102125
-0.0954254
-0.0874694
-0.0783907
-0.0683017
-0.0572972
-0.04546
-0.0328655
-0.0195878
-0.00570438
0.00869787
0.0235176
0.0386335
0.0539
0.0691419
0.0841512
0.0986843
0.112461
0.125165
0.13645
0.145944
0.153262
0.158023
0.159863
0.158455
0.153532
0.145055
0.133049
0.115713
0.0917691
-0.0718681
-0.0943073
-0.110258
-0.121115
-0.128801
-0.13348
-0.135322
-0.134647
-0.131767
-0.126964
-0.120485
-0.112546
-0.103326
-0.0929693
-0.0815943
-0.0692949
-0.0561484
-0.0422212
-0.0275755
-0.0122755
0.00360582
0.0199809
0.0367407
0.0537487
0.0708353
0.0877917
0.104366
0.120261
0.135132
0.14859
0.160208
0.169535
0.176108
0.179478
0.179221
0.174985
0.166666
0.154242
0.135697
0.109631
-0.0961692
-0.120263
-0.13712
-0.148242
-0.155749
-0.159864
-0.160827
-0.159034
-0.154871
-0.148679
-0.140753
-0.131342
-0.12065
-0.108833
-0.0960127
-0.0822805
-0.0677045
-0.052338
-0.036227
-0.0194176
-0.00196319
0.0160677
0.0345842
0.0534654
0.0725528
0.0916432
0.110482
0.128758
0.146101
0.162079
0.176207
0.187956
0.196769
0.202087
0.203371
0.200149
0.192228
0.179513
0.15973
0.13134
-0.124418
-0.150368
-0.168167
-0.179445
-0.186559
-0.189824
-0.189574
-0.186311
-0.180514
-0.172597
-0.162917
-0.151762
-0.139358
-0.125877
-0.11144
-0.0961315
-0.0800066
-0.0631003
-0.0454369
-0.0270382
-0.00793218
0.0118385
0.032208
0.0530784
0.0743104
0.0957139
0.117039
0.137968
0.158108
0.176989
0.194063
0.208715
0.220278
0.228062
0.231376
0.229595
0.222396
0.209574
0.188541
0.157589
-0.157187
-0.185257
-0.204032
-0.215298
-0.221719
-0.223742
-0.221837
-0.216646
-0.208768
-0.198715
-0.18691
-0.173688
-0.159301
-0.143929
-0.127692
-0.110662
-0.0928735
-0.074337
-0.0550485
-0.0349989
-0.0141836
0.00738826
0.0296841
0.0526376
0.0761382
0.100019
0.124045
0.147901
0.171182
0.193381
0.213891
0.232004
0.246928
0.257813
0.26378
0.263998
0.25796
0.245298
0.223027
0.189235
-0.195201
-0.225738
-0.24551
-0.256508
-0.261806
-0.262046
-0.257892
-0.250177
-0.239657
-0.226958
-0.212585
-0.196921
-0.180243
-0.162736
-0.144509
-0.125613
-0.106055
-0.0858141
-0.0648487
-0.0431111
-0.0205561
0.00284918
0.0271143
0.0522148
0.0780797
0.104578
0.131502
0.158554
0.185328
0.211293
0.235786
0.258005
0.277019
0.291789
0.301201
0.304152
0.29988
0.287769
0.264314
0.227345
-0.239404
-0.272865
-0.293622
-0.303954
-0.307502
-0.305208
-0.298011
-0.286999
-0.273125
-0.257159
-0.239692
-0.221158
-0.20185
-0.181948
-0.161538
-0.140642
-0.119228
-0.0972314
-0.0745654
-0.0511346
-0.0268441
-0.00161037
0.0246284
0.0519007
0.0801878
0.109409
0.139401
0.169902
0.200521
0.230725
0.259805
0.286871
0.310843
0.330467
0.344337
0.351
0.349331
0.338343
0.313832
0.273272
-0.291066
-0.328049
-0.349701
-0.358738
-0.359619
-0.35374
-0.34243
-0.327118
-0.309005
-0.28902
-0.26785
-0.245966
-0.223664
-0.201103
-0.178331
-0.155322
-0.131993
-0.108223
-0.0838703
-0.0587816
-0.0328033
-0.00579153
0.0223779
0.0517978
0.0825162
0.114519
0.147708
0.181878
0.216684
0.251611
0.285934
0.31869
0.348652
0.374326
0.393959
0.405643
0.407752
0.398746
0.373435
0.328769
-0.351942
-0.393224
-0.415519
-0.422251
-0.419107
-0.408165
-0.391309
-0.370408
-0.346961
-0.322072
-0.296506
-0.270754
-0.245089
-0.21962
-0.194334
-0.169138
-0.143878
-0.118365
-0.0923884
-0.0657278
-0.0381619
-0.00947713
0.0205228
0.0520072
0.0851046
0.119886
0.156342
0.194354
0.233656
0.273788
0.314051
0.353441
0.390607
0.423808
0.450886
0.469363
0.476922
0.4712
0.445573
0.39617
-0.424556
-0.471106
-0.493458
-0.49625
-0.487049
-0.468969
-0.444655
-0.416529
-0.386426
-0.35561
-0.324897
-0.29475
-0.265375
-0.236793
-0.208897
-0.181499
-0.154355
-0.12719
-0.0997153
-0.0716309
-0.0426398
-0.0124513
0.0192123
0.0526074
0.0879578
0.125439
0.165155
0.207108
0.251153
0.296943
0.343857
0.390918
0.4367
0.479237
0.515933
0.54361
0.559027
0.558605
0.533577
0.478684
-0.512673
-0.565611
-0.586754
-0.582922
-0.564619
-0.536494
-0.502197
-0.464809
-0.426497
-0.388634
-0.352004
-0.316973
-0.28361
-0.251794
-0.221282
-0.191756
-0.16286
-0.134217
-0.105445
-0.0761579
-0.0459767
-0.0145268
0.0185573
0.0536279
0.0910168
0.131023
0.17389
0.21978
0.268721
0.320545
0.374799
0.430628
0.486629
0.540691
0.589792
0.629953
0.656732
0.664788
0.642082
0.580907
-0.622161
-0.68251
-0.699811
-0.68492
-0.652946
-0.610735
-0.56319
-0.514082
-0.465823
-0.419759
-0.37651
-0.336219
-0.298726
-0.263695
-0.230692
-0.199235
-0.16883
-0.138982
-0.109204
-0.079021
-0.0479661
-0.0155788
0.0185975
0.0550163
0.0941268
0.136367
0.182147
0.231827
0.285669
0.343769
0.405956
0.471638
0.53961
0.607781
0.672823
0.72993
0.773199
0.794818
0.777722
0.709753
-0.762636
-0.830478
-0.838566
-0.805275
-0.752821
-0.691008
-0.626114
-0.56246
-0.502452
-0.447144
-0.396765
-0.351064
-0.309524
-0.271503
-0.236317
-0.203285
-0.17175
-0.141086
-0.110698
-0.0800186
-0.0484943
-0.0155809
0.0192673
0.0566054
0.0970036
0.141049
0.189342
0.242477
0.301011
0.365403
0.435903
0.512391
0.594116
0.679323
0.764681
0.844732
0.91199
0.955369
0.950213
0.876209
-0.950786
-1.02278
-1.01075
-0.946961
-0.864056
-0.775342
-0.688214
-0.607032
-0.53366
-0.468408
-0.410781
-0.359895
-0.314722
-0.27422
-0.237396
-0.203336
-0.171207
-0.140247
-0.109756
-0.0790765
-0.0475777
-0.0146395
0.0203649
0.0580849
0.099208
0.144473
0.194678
0.250685
0.313402
0.383749
0.462567
0.550459
0.647509
0.752808
0.86364
0.974489
1.07658
1.15496
1.17409
1.09889
-1.21712
-1.27971
-1.22549
-1.11153
-0.984069
-0.859369
-0.744752
-0.643426
-0.555737
-0.480566
-0.416235
-0.360955
-0.313023
-0.270909
-0.233274
-0.198954
-0.16694
-0.136343
-0.106367
-0.0762803
-0.0453906
-0.0130171
0.0215319
0.0589842
0.10013
0.145846
0.197128
0.255112
0.321096
0.396545
0.483052
0.58224
0.695512
0.823562
0.965374
1.11672
1.26884
1.40346
1.47114
1.41116
-1.61765
-1.63094
-1.49151
-1.29671
-1.10589
-0.935005
-0.788312
-0.665545
-0.563982
-0.480138
-0.410638
-0.352513
-0.303264
-0.260829
-0.223515
-0.189928
-0.158905
-0.129454
-0.100711
-0.0718942
-0.0422727
-0.0111297
0.0222666
0.0586963
0.0990237
0.144238
0.1955
0.254201
0.322027
0.401023
0.493661
0.602853
0.731867
0.883985
1.06156
1.26423
1.4865
1.71007
1.87238
1.87266
-2.25441
-2.11586
-1.81359
-1.49443
-1.21742
-0.990513
-0.809415
-0.666452
-0.553623
-0.46401
-0.392064
-0.333468
-0.284899
-0.243801
-0.208185
-0.176482
-0.147426
-0.119972
-0.0932221
-0.0663825
-0.0387135
-0.00949394
0.0220159
0.0566131
0.0951955
0.138815
0.188745
0.246568
0.314292
0.394505
0.49057
0.606862
0.748996
0.923952
1.13978
1.40422
1.72096
2.0794
2.41784
2.58903
-3.35614
-2.78296
-2.17273
-1.67591
-1.2926
-1.00574
-0.794154
-0.637277
-0.51933
-0.429173
-0.358972
-0.303181
-0.257836
-0.220057
-0.187701
-0.159135
-0.133078
-0.108493
-0.084506
-0.0603495
-0.035315
-0.00871305
0.020166
0.0520923
0.0879442
0.128768
0.175861
0.230878
0.296002
0.374176
0.469462
0.587558
0.736543
0.92791
1.17799
1.50837
1.94106
2.49113
3.15773
3.79467
-5.52259
-3.65931
-2.43085
-1.71435
-1.24188
-0.921867
-0.704908
-0.553998
-0.445512
-0.365223
-0.304196
-0.256577
-0.218407
-0.186923
-0.160131
-0.136537
-0.114989
-0.0945599
-0.0744741
-0.0540537
-0.0326739
-0.00972668
0.015414
0.0434299
0.0751021
0.111368
0.153401
0.202722
0.261377
0.332207
0.419293
0.528701
0.669716
0.857122
1.11547
1.484
2.01615
2.8053
4.12187
6.09344
-9.21004
-4.51834
-2.30603
-1.42124
-0.958914
-0.682863
-0.512219
-0.400557
-0.322895
-0.266399
-0.223878
-0.190902
-0.164562
-0.142848
-0.124305
-0.107835
-0.0925774
-0.0778352
-0.0630176
-0.0476033
-0.0311096
-0.0130654
0.00701433
0.0296552
0.0554559
0.0851293
0.119559
0.159884
0.207624
0.26489
0.334741
0.421843
0.533741
0.683721
0.897414
1.22408
1.75395
2.73304
5.0602
9.87241
)
;

boundaryField
{
    movingWall
    {
        type            zeroGradient;
    }
    fixedWalls
    {
        type            zeroGradient;
    }
    frontAndBack
    {
        type            empty;
    }
}


// ************************************************************************* //
