/*--------------------------------*- C++ -*----------------------------------*\
  =========                 |
  \\      /  F ield         | OpenFOAM: The Open Source CFD Toolbox
   \\    /   O peration     | Website:  https://openfoam.org
    \\  /    A nd           | Version:  7
     \\/     M anipulation  |
\*---------------------------------------------------------------------------*/
FoamFile
{
    version     2.0;
    format      ascii;
    class       surfaceScalarField;
    location    "0.48";
    object      phi;
}
// * * * * * * * * * * * * * * * * * * * * * * * * * * * * * * * * * * * * * //

dimensions      [0 3 -1 0 0 0 0];

internalField   nonuniform List<scalar> 
3120
(
2.53341e-09
-2.552e-09
4.09682e-09
-1.56342e-09
2.25372e-09
1.8431e-09
-3.55407e-09
5.80779e-09
-1.31375e-08
9.58344e-09
-2.59879e-08
1.28504e-08
-4.14654e-08
1.54776e-08
-5.88937e-08
1.74282e-08
-7.76047e-08
1.8711e-08
-9.69617e-08
1.9357e-08
-1.1637e-07
1.94085e-08
-1.35284e-07
1.89139e-08
-1.53209e-07
1.79244e-08
-1.69701e-07
1.64928e-08
-1.84373e-07
1.46722e-08
-1.9689e-07
1.25165e-08
-2.0697e-07
1.00799e-08
-2.14387e-07
7.41753e-09
-2.18973e-07
4.58561e-09
-2.20615e-07
1.64199e-09
-2.19261e-07
-1.3535e-09
-2.14923e-07
-4.33875e-09
-2.07673e-07
-7.24931e-09
-1.97655e-07
-1.00185e-08
-1.85077e-07
-1.2578e-08
-1.70219e-07
-1.48582e-08
-1.53429e-07
-1.67896e-08
-1.35125e-07
-1.83038e-08
-1.1579e-07
-1.93351e-08
-9.59677e-08
-1.98226e-08
-7.62558e-08
-1.97119e-08
-5.72976e-08
-1.89584e-08
-3.97674e-08
-1.75301e-08
-2.43533e-08
-1.54141e-08
-1.17274e-08
-1.26259e-08
-2.49571e-09
-9.23162e-09
2.89803e-09
-5.39378e-09
4.35967e-09
-1.46172e-09
2.5621e-09
1.7975e-09
2.56207e-09
1.61453e-09
-4.16653e-09
-1.17463e-09
1.22574e-09
-1.17196e-08
1.23881e-08
-3.10812e-08
2.51694e-08
-5.90578e-08
3.75601e-08
-9.47058e-08
4.84983e-08
-1.36676e-07
5.74474e-08
-1.83427e-07
6.41801e-08
-2.33361e-07
6.86448e-08
-2.84895e-07
7.08912e-08
-3.36516e-07
7.10288e-08
-3.86805e-07
6.92029e-08
-4.34461e-07
6.55807e-08
-4.7831e-07
6.03424e-08
-5.17315e-07
5.36768e-08
-5.50577e-07
4.57781e-08
-5.77342e-07
3.68458e-08
-5.97009e-07
2.70838e-08
-6.09125e-07
1.67018e-08
-6.13399e-07
5.91559e-09
-6.097e-07
-5.05199e-09
-5.98068e-07
-1.59706e-08
-5.78715e-07
-2.66026e-08
-5.5203e-07
-3.67037e-08
-5.18583e-07
-4.60252e-08
-4.79125e-07
-5.43164e-08
-4.34585e-07
-6.13291e-08
-3.86067e-07
-6.6822e-08
-3.34834e-07
-7.05678e-08
-2.82296e-07
-7.23604e-08
-2.29984e-07
-7.20245e-08
-1.79515e-07
-6.94271e-08
-1.32551e-07
-6.44942e-08
-9.07319e-08
-5.72334e-08
-5.55849e-08
-4.77729e-08
-2.83872e-08
-3.64292e-08
-9.94995e-09
-2.3831e-08
-2.92318e-10
-1.11193e-08
1.85499e-09
-3.49797e-10
4.417e-09
-1.66927e-09
-2.49727e-09
-1.2121e-08
1.16775e-08
-3.40989e-08
3.43659e-08
-6.84657e-08
5.95362e-08
-1.14808e-07
8.39026e-08
-1.7184e-07
1.0553e-07
-2.37729e-07
1.23336e-07
-3.10336e-07
1.36787e-07
-3.87392e-07
1.45701e-07
-4.66613e-07
1.50112e-07
-5.45777e-07
1.50194e-07
-6.22784e-07
1.4621e-07
-6.95686e-07
1.38482e-07
-7.62715e-07
1.27372e-07
-8.22301e-07
1.13263e-07
-8.73083e-07
9.65601e-08
-9.13918e-07
7.7681e-08
-9.43891e-07
5.70568e-08
-9.62321e-07
3.51315e-08
-9.68768e-07
1.23633e-08
-9.63045e-07
-1.07755e-08
-9.45218e-07
-3.37974e-08
-9.15619e-07
-5.62014e-08
-8.74848e-07
-7.7475e-08
-8.23775e-07
-9.70983e-08
-7.6354e-07
-1.14551e-07
-6.9555e-07
-1.2932e-07
-6.2146e-07
-1.40912e-07
-5.43159e-07
-1.48869e-07
-4.62739e-07
-1.5278e-07
-3.82456e-07
-1.52308e-07
-3.04667e-07
-1.47215e-07
-2.31767e-07
-1.37395e-07
-1.6608e-07
-1.22921e-07
-1.0973e-07
-1.04123e-07
-6.44602e-08
-8.16987e-08
-3.13886e-08
-5.69026e-08
-1.06927e-08
-3.18151e-08
-1.23903e-09
-9.8034e-09
3.17791e-09
-5.57058e-09
3.07331e-09
-2.49849e-08
3.10918e-08
-5.97007e-08
6.90818e-08
-1.09894e-07
1.0973e-07
-1.74675e-07
1.48683e-07
-2.52335e-07
1.83191e-07
-3.40602e-07
2.11603e-07
-4.36859e-07
2.33044e-07
-5.38314e-07
2.47157e-07
-6.42139e-07
2.53937e-07
-7.45563e-07
2.53617e-07
-8.45943e-07
2.4659e-07
-9.4082e-07
2.33359e-07
-1.02795e-06
2.14502e-07
-1.10533e-06
1.90646e-07
-1.17123e-06
1.62458e-07
-1.22418e-06
1.30634e-07
-1.26302e-06
9.5896e-08
-1.28688e-06
5.89882e-08
-1.2952e-06
2.068e-08
-1.28774e-06
-1.82352e-08
-1.26459e-06
-5.69409e-08
-1.2262e-06
-9.4599e-08
-1.17332e-06
-1.30355e-07
-1.10707e-06
-1.63346e-07
-1.02891e-06
-1.9271e-07
-9.40627e-07
-2.17603e-07
-8.44321e-07
-2.37219e-07
-7.42378e-07
-2.50812e-07
-6.3743e-07
-2.57728e-07
-5.32299e-07
-2.57439e-07
-4.29925e-07
-2.49589e-07
-3.3327e-07
-2.3405e-07
-2.45197e-07
-2.10994e-07
-1.68321e-07
-1.80999e-07
-1.04819e-07
-1.45201e-07
-5.62087e-08
-1.05513e-07
-2.3105e-08
-6.49188e-08
-4.98724e-09
-2.79211e-08
-1.80934e-09
-9.47128e-09
1.25446e-08
-3.81848e-08
5.98053e-08
-8.60992e-08
1.16996e-07
-1.52428e-07
1.76059e-07
-2.35603e-07
2.31857e-07
-3.33384e-07
2.80972e-07
-4.43034e-07
3.21252e-07
-5.61484e-07
3.51494e-07
-6.85497e-07
3.7117e-07
-8.11794e-07
3.80235e-07
-9.3716e-07
3.78983e-07
-1.05852e-06
3.6795e-07
-1.173e-06
3.4784e-07
-1.27798e-06
3.19479e-07
-1.37111e-06
2.83774e-07
-1.45034e-06
2.41697e-07
-1.51398e-06
1.94269e-07
-1.56063e-06
1.42552e-07
-1.58929e-06
8.76445e-08
-1.59929e-06
3.06829e-08
-1.59037e-06
-2.71624e-08
-1.56262e-06
-8.46874e-08
-1.51656e-06
-1.40659e-07
-1.45309e-06
-1.93821e-07
-1.37353e-06
-2.42909e-07
-1.27958e-06
-2.86664e-07
-1.17332e-06
-3.23857e-07
-1.05722e-06
-3.53319e-07
-9.34061e-07
-3.73973e-07
-8.06904e-07
-3.84884e-07
-6.79034e-07
-3.85309e-07
-5.53864e-07
-3.74759e-07
-4.34835e-07
-3.53079e-07
-3.25283e-07
-3.20546e-07
-2.28289e-07
-2.77994e-07
-1.46503e-07
-2.26987e-07
-8.19621e-08
-1.70053e-07
-3.59233e-08
-1.10958e-07
-8.75771e-09
-5.50867e-08
-1.0567e-08
-1.31664e-08
2.5711e-08
-5.10418e-08
9.76807e-08
-1.12124e-07
1.78078e-07
-1.94552e-07
2.58487e-07
-2.95953e-07
3.33258e-07
-4.13459e-07
3.98479e-07
-5.43812e-07
4.51605e-07
-6.83486e-07
4.91168e-07
-8.28821e-07
5.16505e-07
-9.7614e-07
5.27553e-07
-1.12185e-06
5.24688e-07
-1.2625e-06
5.08607e-07
-1.3949e-06
4.80242e-07
-1.51612e-06
4.40691e-07
-1.62352e-06
3.91173e-07
-1.71482e-06
3.33002e-07
-1.78811e-06
2.6756e-07
-1.84185e-06
1.9629e-07
-1.87489e-06
1.20685e-07
-1.8865e-06
4.22921e-08
-1.87637e-06
-3.72976e-08
-1.84461e-06
-1.16447e-07
-1.79178e-06
-1.93483e-07
-1.7189e-06
-2.66701e-07
-1.62742e-06
-3.34388e-07
-1.51925e-06
-3.94842e-07
-1.3967e-06
-4.46404e-07
-1.26252e-06
-4.87496e-07
-1.11982e-06
-5.16675e-07
-9.72016e-07
-5.32688e-07
-8.22783e-07
-5.34542e-07
-6.75949e-07
-5.21593e-07
-5.3539e-07
-4.93638e-07
-4.04901e-07
-4.51034e-07
-2.8805e-07
-3.94844e-07
-1.88024e-07
-3.27013e-07
-1.07485e-07
-2.50592e-07
-4.84643e-08
-1.69979e-07
-1.23392e-08
-9.12118e-08
-2.29062e-08
-1.66156e-08
4.23266e-08
-6.33293e-08
1.44394e-07
-1.3731e-07
2.52059e-07
-2.35614e-07
3.56791e-07
-3.54996e-07
4.5264e-07
-4.91892e-07
5.35374e-07
-6.42468e-07
6.02181e-07
-8.02714e-07
6.51414e-07
-9.68547e-07
6.82338e-07
-1.13591e-06
6.94916e-07
-1.30086e-06
6.89641e-07
-1.45966e-06
6.67405e-07
-1.60881e-06
6.29393e-07
-1.74513e-06
5.77008e-07
-1.86577e-06
5.11811e-07
-1.96825e-06
4.35484e-07
-2.05049e-06
3.49804e-07
-2.11083e-06
2.56623e-07
-2.14801e-06
1.57865e-07
-2.16123e-06
5.55144e-08
-2.15014e-06
-4.83805e-08
-2.11487e-06
-1.51717e-07
-2.05601e-06
-2.52346e-07
-1.97463e-06
-3.48079e-07
-1.8723e-06
-4.36718e-07
-1.75107e-06
-5.16078e-07
-1.61344e-06
-5.8403e-07
-1.46239e-06
-6.38549e-07
-1.30128e-06
-6.77782e-07
-1.13385e-06
-7.00117e-07
-9.64115e-07
-7.04277e-07
-7.9629e-07
-6.89418e-07
-6.34678e-07
-6.5525e-07
-4.83547e-07
-6.02165e-07
-3.46994e-07
-5.31398e-07
-2.28806e-07
-4.452e-07
-1.32355e-07
-3.47044e-07
-6.0516e-08
-2.41818e-07
-1.5693e-08
-1.36035e-07
-3.85991e-08
-1.98479e-08
6.21745e-08
-7.50513e-08
1.99598e-07
-1.61595e-07
3.38603e-07
-2.75484e-07
4.70679e-07
-4.12581e-07
5.89738e-07
-5.6858e-07
6.91373e-07
-7.3903e-07
7.72631e-07
-9.19404e-07
8.31789e-07
-1.10518e-06
8.68116e-07
-1.29193e-06
8.81665e-07
-1.47539e-06
8.731e-07
-1.65153e-06
8.43547e-07
-1.81662e-06
7.94484e-07
-1.96726e-06
7.27648e-07
-2.10042e-06
6.44972e-07
-2.21347e-06
5.48535e-07
-2.3042e-06
4.40532e-07
-2.37083e-06
3.23252e-07
-2.41203e-06
1.99067e-07
-2.42695e-06
7.04283e-08
-2.41519e-06
-6.01403e-08
-2.37686e-06
-1.90046e-07
-2.31257e-06
-3.16637e-07
-2.22343e-06
-4.37216e-07
-2.11108e-06
-5.49067e-07
-1.97767e-06
-6.4949e-07
-1.82586e-06
-7.35848e-07
-1.65878e-06
-8.0563e-07
-1.48003e-06
-8.56527e-07
-1.29362e-06
-8.86523e-07
-1.1039e-06
-8.94003e-07
-9.15444e-07
-8.77873e-07
-7.33002e-07
-8.37692e-07
-5.61341e-07
-7.73826e-07
-4.05133e-07
-6.87606e-07
-2.68832e-07
-5.815e-07
-1.56573e-07
-4.59304e-07
-7.21126e-08
-3.26277e-07
-1.88556e-08
-1.89292e-07
-5.74547e-08
-2.29156e-08
8.509e-08
-8.63131e-08
2.62995e-07
-1.85113e-07
4.37403e-07
-3.14313e-07
5.9988e-07
-4.68886e-07
7.44311e-07
-6.43756e-07
8.66242e-07
-8.33822e-07
9.62697e-07
-1.03401e-06
1.03198e-06
-1.23936e-06
1.07346e-06
-1.44504e-06
1.08735e-06
-1.64649e-06
1.07455e-06
-1.83942e-06
1.03648e-06
-2.01988e-06
9.74942e-07
-2.18429e-06
8.92056e-07
-2.32947e-06
7.90154e-07
-2.45267e-06
6.71738e-07
-2.55158e-06
5.39442e-07
-2.62434e-06
3.96008e-07
-2.66954e-06
2.44275e-07
-2.68629e-06
8.71712e-08
-2.67414e-06
-7.22869e-08
-2.63318e-06
-2.31003e-07
-2.56402e-06
-3.85806e-07
-2.46776e-06
-5.3347e-07
-2.34609e-06
-6.70737e-07
-2.20122e-06
-7.94362e-07
-2.0359e-06
-9.01167e-07
-1.85342e-06
-9.88108e-07
-1.65757e-06
-1.05238e-06
-1.4526e-06
-1.09149e-06
-1.24317e-06
-1.10344e-06
-1.03423e-06
-1.08681e-06
-8.31002e-07
-1.04093e-06
-6.38775e-07
-9.66054e-07
-4.62849e-07
-8.63531e-07
-3.08396e-07
-7.35953e-07
-1.80361e-07
-5.87339e-07
-8.34026e-08
-4.23236e-07
-2.18916e-08
-2.50803e-07
-7.93463e-08
-2.58744e-08
1.10964e-07
-9.7256e-08
3.34377e-07
-2.08082e-07
5.48229e-07
-3.52386e-07
7.44184e-07
-5.24253e-07
9.16177e-07
-7.1782e-07
1.05981e-06
-9.27315e-07
1.17219e-06
-1.1471e-06
1.25176e-06
-1.37173e-06
1.29809e-06
-1.59601e-06
1.31163e-06
-1.81506e-06
1.2936e-06
-2.02436e-06
1.24577e-06
-2.21975e-06
1.17033e-06
-2.3975e-06
1.06981e-06
-2.55433e-06
9.46981e-07
-2.68738e-06
8.0479e-07
-2.79427e-06
6.46328e-07
-2.87306e-06
4.74805e-07
-2.92232e-06
2.93533e-07
-2.94108e-06
1.05926e-07
-2.92886e-06
-8.45043e-08
-2.88571e-06
-2.74152e-07
-2.8122e-06
-4.59319e-07
-2.70943e-06
-6.36237e-07
-2.57908e-06
-8.0109e-07
-2.42338e-06
-9.5006e-07
-2.24515e-06
-1.07939e-06
-2.0478e-06
-1.18547e-06
-1.83525e-06
-1.26492e-06
-1.61201e-06
-1.31474e-06
-1.38301e-06
-1.33244e-06
-1.15361e-06
-1.3162e-06
-9.29501e-07
-1.26504e-06
-7.16545e-07
-1.17901e-06
-5.20716e-07
-1.05936e-06
-3.47951e-07
-9.08719e-07
-2.04046e-07
-7.31244e-07
-9.45798e-08
-5.32702e-07
-2.48719e-08
-3.20511e-07
-1.04218e-07
-2.87766e-08
1.39741e-07
-1.08027e-07
4.13627e-07
-2.30751e-07
6.70953e-07
-3.90038e-07
9.03472e-07
-5.79088e-07
1.10523e-06
-7.9124e-07
1.27196e-06
-1.02003e-06
1.40098e-06
-1.25922e-06
1.49096e-06
-1.5029e-06
1.54177e-06
-1.74549e-06
1.55422e-06
-1.98181e-06
1.52992e-06
-2.20709e-06
1.47105e-06
-2.41702e-06
1.38026e-06
-2.60774e-06
1.26054e-06
-2.77588e-06
1.11512e-06
-2.91851e-06
9.47427e-07
-3.03321e-06
7.61025e-07
-3.118e-06
5.59595e-07
-3.17139e-06
3.46925e-07
-3.19238e-06
1.26911e-07
-3.18044e-06
-9.64457e-08
-3.13556e-06
-3.1903e-07
-3.05826e-06
-5.36619e-07
-2.9496e-06
-7.44896e-07
-2.81122e-06
-9.39473e-07
-2.64534e-06
-1.11594e-06
-2.4548e-06
-1.26993e-06
-2.24306e-06
-1.3972e-06
-2.01422e-06
-1.49377e-06
-1.77293e-06
-1.55602e-06
-1.52446e-06
-1.58091e-06
-1.27456e-06
-1.5661e-06
-1.02939e-06
-1.51021e-06
-7.95436e-07
-1.41296e-06
-5.79395e-07
-1.2754e-06
-3.88014e-07
-1.1001e-06
-2.27991e-07
-8.91267e-07
-1.0585e-07
-6.54842e-07
-2.78661e-08
-3.98495e-07
-1.32084e-07
-3.16682e-08
1.71409e-07
-1.18763e-07
5.00722e-07
-2.5336e-07
8.05549e-07
-4.27605e-07
1.07772e-06
-6.33802e-07
1.31142e-06
-8.64476e-07
1.50264e-06
-1.11245e-06
1.64895e-06
-1.37088e-06
1.7494e-06
-1.63338e-06
1.80426e-06
-1.89396e-06
1.81481e-06
-2.14717e-06
1.78312e-06
-2.38802e-06
1.7119e-06
-2.61206e-06
1.6043e-06
-2.81534e-06
1.46382e-06
-2.99443e-06
1.2942e-06
-3.14636e-06
1.09936e-06
-3.26869e-06
8.83352e-07
-3.35942e-06
6.50324e-07
-3.41703e-06
4.04539e-07
-3.44048e-06
1.5036e-07
-3.4292e-06
-1.07731e-07
-3.3831e-06
-3.65126e-07
-3.30263e-06
-6.17087e-07
-3.18877e-06
-8.58752e-07
-3.04309e-06
-1.08516e-06
-2.86775e-06
-1.29128e-06
-2.66557e-06
-1.47211e-06
-2.44004e-06
-1.62273e-06
-2.19532e-06
-1.73848e-06
-1.93629e-06
-1.81505e-06
-1.66846e-06
-1.84874e-06
-1.39798e-06
-1.83659e-06
-1.13153e-06
-1.77666e-06
-8.76239e-07
-1.66825e-06
-6.39562e-07
-1.51208e-06
-4.29121e-07
-1.31054e-06
-2.52565e-07
-1.06782e-06
-1.17417e-07
-7.89991e-07
-3.09391e-08
-4.84973e-07
-1.63023e-07
-3.45896e-08
2.05999e-07
-1.29592e-07
5.95724e-07
-2.76135e-07
9.52092e-07
-4.65403e-07
1.26699e-06
-6.8878e-07
1.5348e-06
-9.3795e-07
1.75181e-06
-1.205e-06
1.91599e-06
-1.48248e-06
2.02688e-06
-1.76349e-06
2.08527e-06
-2.04168e-06
2.093e-06
-2.31131e-06
2.05275e-06
-2.56721e-06
1.96781e-06
-2.80483e-06
1.84191e-06
-3.02014e-06
1.67914e-06
-3.2097e-06
1.48376e-06
-3.37056e-06
1.26022e-06
-3.50027e-06
1.01306e-06
-3.59683e-06
7.4689e-07
-3.65873e-06
4.66437e-07
-3.68488e-06
1.76512e-07
-3.67466e-06
-1.17949e-07
-3.62792e-06
-4.11869e-07
-3.54499e-06
-7.00017e-07
-3.42674e-06
-9.76999e-07
-3.27462e-06
-1.23728e-06
-3.09069e-06
-1.47521e-06
-2.8777e-06
-1.6851e-06
-2.6391e-06
-1.86133e-06
-2.37911e-06
-1.99847e-06
-2.10274e-06
-2.09143e-06
-1.81575e-06
-2.13573e-06
-1.52467e-06
-2.12766e-06
-1.23672e-06
-2.06461e-06
-9.59703e-07
-1.94527e-06
-7.01872e-07
-1.76991e-06
-4.71789e-07
-1.54062e-06
-2.78126e-07
-1.26149e-06
-1.29473e-07
-9.38644e-07
-3.41515e-08
-5.80294e-07
-1.97175e-07
-3.7576e-08
2.43575e-07
-1.40625e-07
6.98773e-07
-2.9928e-07
1.11075e-06
-5.03718e-07
1.47142e-06
-7.4436e-07
1.77544e-06
-1.01202e-06
2.01946e-06
-1.29801e-06
2.20199e-06
-1.59427e-06
2.32314e-06
-1.89338e-06
2.38438e-06
-2.18865e-06
2.38827e-06
-2.47406e-06
2.33817e-06
-2.74432e-06
2.23806e-06
-2.99477e-06
2.09237e-06
-3.22142e-06
1.90578e-06
-3.42081e-06
1.68316e-06
-3.59006e-06
1.42947e-06
-3.72676e-06
1.14975e-06
-3.82896e-06
8.49091e-07
-3.89515e-06
5.32626e-07
-3.92423e-06
2.05592e-07
-3.91552e-06
-1.26658e-07
-3.86877e-06
-4.58616e-07
-3.7842e-06
-7.84587e-07
-3.66253e-06
-1.09867e-06
-3.50503e-06
-1.39478e-06
-3.3136e-06
-1.66663e-06
-3.09086e-06
-1.90785e-06
-2.84016e-06
-2.11203e-06
-2.56572e-06
-2.27291e-06
-2.27261e-06
-2.38454e-06
-1.96683e-06
-2.44151e-06
-1.65526e-06
-2.43923e-06
-1.34565e-06
-2.37422e-06
-1.0465e-06
-2.24442e-06
-7.66932e-07
-2.04948e-06
-5.16508e-07
-1.79105e-06
-3.05013e-07
-1.47298e-06
-1.42202e-07
-1.10145e-06
-3.75596e-08
-6.84937e-07
-2.34734e-07
-4.06594e-08
2.84234e-07
-1.51966e-07
8.1008e-07
-3.22982e-07
1.28176e-06
-5.42807e-07
1.69125e-06
-8.00837e-07
2.03347e-06
-1.08696e-06
2.30558e-06
-1.3917e-06
2.50673e-06
-1.70635e-06
2.63778e-06
-2.02299e-06
2.70103e-06
-2.33459e-06
2.69986e-06
-2.63491e-06
2.63849e-06
-2.91856e-06
2.52171e-06
-3.18086e-06
2.35467e-06
-3.41786e-06
2.14277e-06
-3.62619e-06
1.89149e-06
-3.80308e-06
1.60636e-06
-3.9462e-06
1.29288e-06
-4.0537e-06
9.56584e-07
-4.12409e-06
6.03017e-07
-4.15628e-06
2.37781e-07
-4.14953e-06
-1.33401e-07
-4.10351e-06
-5.04642e-07
-4.01826e-06
-8.69836e-07
-3.89431e-06
-1.22262e-06
-3.73273e-06
-1.55637e-06
-3.53518e-06
-1.86418e-06
-3.30406e-06
-2.13897e-06
-3.04256e-06
-2.37353e-06
-2.75479e-06
-2.56067e-06
-2.44586e-06
-2.69347e-06
-2.12191e-06
-2.76546e-06
-1.79014e-06
-2.77099e-06
-1.45884e-06
-2.70553e-06
-1.1372e-06
-2.56605e-06
-8.35285e-07
-2.3514e-06
-5.63731e-07
-2.0626e-06
-3.33544e-07
-1.70317e-06
-1.55778e-07
-1.27922e-06
-4.1217e-08
-7.99498e-07
-2.75951e-07
-4.38704e-08
3.28104e-07
-1.63714e-07
9.29923e-07
-3.47417e-07
1.46546e-06
-5.82905e-07
1.92674e-06
-8.58464e-07
2.30903e-06
-1.16299e-06
2.61011e-06
-1.48619e-06
2.82992e-06
-1.81866e-06
2.97026e-06
-2.15203e-06
3.0344e-06
-2.47893e-06
3.02676e-06
-2.79296e-06
2.95253e-06
-3.08868e-06
2.81742e-06
-3.36147e-06
2.62747e-06
-3.6075e-06
2.3888e-06
-3.82356e-06
2.10755e-06
-4.00703e-06
1.78982e-06
-4.15575e-06
1.44161e-06
-4.268e-06
1.06883e-06
-4.34237e-06
6.77386e-07
-4.37778e-06
2.73198e-07
-4.37347e-06
-1.37712e-07
-4.32897e-06
-5.49144e-07
-4.24416e-06
-9.54647e-07
-4.11933e-06
-1.34745e-06
-3.95525e-06
-1.72044e-06
-3.7533e-06
-2.06613e-06
-3.51557e-06
-2.37671e-06
-3.24498e-06
-2.64412e-06
-2.94544e-06
-2.86021e-06
-2.62199e-06
-3.01693e-06
-2.28083e-06
-3.10662e-06
-1.92946e-06
-3.12237e-06
-1.57662e-06
-3.05837e-06
-1.23226e-06
-2.91041e-06
-9.07405e-07
-2.67626e-06
-6.13873e-07
-2.35613e-06
-3.64023e-07
-1.95302e-06
-1.70368e-07
-1.47288e-06
-4.51758e-08
-9.2469e-07
-3.21127e-07
-4.72407e-08
3.75345e-07
-1.75971e-07
1.05865e-06
-3.72765e-07
1.66226e-06
-6.24242e-07
2.17821e-06
-9.1747e-07
2.60226e-06
-1.24027e-06
2.93292e-06
-1.58146e-06
3.17111e-06
-1.93097e-06
3.31977e-06
-2.27994e-06
3.38338e-06
-2.62074e-06
3.36755e-06
-2.94687e-06
3.27865e-06
-3.25291e-06
3.12346e-06
-3.53439e-06
2.90895e-06
-3.78768e-06
2.64208e-06
-4.00982e-06
2.3297e-06
-4.19845e-06
1.97845e-06
-4.35164e-06
1.5948e-06
-4.46783e-06
1.18503e-06
-4.54577e-06
7.55327e-07
-4.58444e-06
3.11859e-07
-4.58301e-06
-1.39138e-07
-4.54091e-06
-5.91239e-07
-4.45783e-06
-1.03773e-06
-4.33376e-06
-1.47152e-06
-4.16913e-06
-1.88507e-06
-3.96492e-06
-2.27034e-06
-3.72281e-06
-2.61882e-06
-3.44534e-06
-2.92158e-06
-3.13611e-06
-3.16943e-06
-2.79995e-06
-3.35309e-06
-2.44302e-06
-3.46354e-06
-2.07302e-06
-3.49238e-06
-1.69911e-06
-3.43227e-06
-1.33199e-06
-3.27752e-06
-9.83688e-07
-3.02456e-06
-6.67315e-07
-2.6725e-06
-3.96741e-07
-2.22359e-06
-1.86138e-07
-1.68348e-06
-4.94887e-08
-1.06134e-06
-3.70616e-07
-5.08059e-08
4.26151e-07
-1.88849e-07
1.1967e-06
-3.99219e-07
1.87263e-06
-6.67057e-07
2.44605e-06
-9.7807e-07
2.91327e-06
-1.3189e-06
3.27375e-06
-1.67741e-06
3.52962e-06
-2.04285e-06
3.6852e-06
-2.40592e-06
3.74644e-06
-2.75875e-06
3.72038e-06
-3.09483e-06
3.61474e-06
-3.40888e-06
3.43752e-06
-3.69669e-06
3.19676e-06
-3.95494e-06
2.90033e-06
-4.18102e-06
2.55578e-06
-4.37293e-06
2.17035e-06
-4.52904e-06
1.75091e-06
-4.64808e-06
1.30406e-06
-4.72895e-06
8.36204e-07
-4.77074e-06
3.53643e-07
-4.77261e-06
-1.37263e-07
-4.73388e-06
-6.29975e-07
-4.65398e-06
-1.11763e-06
-4.5326e-06
-1.59291e-06
-4.36974e-06
-2.04793e-06
-4.16588e-06
-2.47419e-06
-3.92219e-06
-2.86251e-06
-3.64069e-06
-3.20309e-06
-3.32449e-06
-3.48563e-06
-2.97807e-06
-3.69952e-06
-2.60742e-06
-3.83419e-06
-2.22027e-06
-3.87952e-06
-1.82619e-06
-3.82635e-06
-1.43656e-06
-3.66716e-06
-1.06445e-06
-3.39667e-06
-7.24407e-07
-3.01255e-06
-4.31984e-07
-2.51601e-06
-2.03259e-07
-1.9122e-06
-5.42113e-08
-1.21039e-06
-4.24827e-07
-5.46097e-08
4.80761e-07
-2.02487e-07
1.34457e-06
-4.27009e-07
2.09715e-06
-7.11625e-07
2.73067e-06
-1.04049e-06
3.24214e-06
-1.39895e-06
3.63221e-06
-1.77384e-06
3.90451e-06
-2.1537e-06
4.06507e-06
-2.52883e-06
4.12157e-06
-2.89124e-06
4.08279e-06
-3.2345e-06
3.958e-06
-3.5536e-06
3.75662e-06
-3.84471e-06
3.48787e-06
-4.10496e-06
3.16058e-06
-4.33225e-06
2.78307e-06
-4.525e-06
2.3631e-06
-4.68203e-06
1.90795e-06
-4.80241e-06
1.42444e-06
-4.8853e-06
9.19091e-07
-4.9299e-06
3.98248e-07
-4.93542e-06
-1.31741e-07
-4.90105e-06
-6.64349e-07
-4.82598e-06
-1.1927e-06
-4.70952e-06
-1.70937e-06
-4.55118e-06
-2.20628e-06
-4.35085e-06
-2.67452e-06
-4.10902e-06
-3.10434e-06
-3.82703e-06
-3.48508e-06
-3.50736e-06
-3.8053e-06
-3.15391e-06
-4.05297e-06
-2.77233e-06
-4.21578e-06
-2.37024e-06
-4.28161e-06
-1.95743e-06
-4.23916e-06
-1.54593e-06
-4.07865e-06
-1.14993e-06
-3.79267e-06
-7.85476e-07
-3.37701e-06
-4.70045e-07
-2.83145e-06
-2.21912e-07
-2.16034e-06
-5.94042e-08
-1.3729e-06
-4.84231e-07
-5.87084e-08
5.39469e-07
-2.17057e-07
1.50292e-06
-4.56424e-07
2.33652e-06
-7.58282e-07
3.03253e-06
-1.10501e-06
3.58887e-06
-1.48048e-06
4.00767e-06
-1.87043e-06
4.29446e-06
-2.26269e-06
4.45733e-06
-2.64724e-06
4.50611e-06
-3.01604e-06
4.45159e-06
-3.36292e-06
4.30488e-06
-3.6833e-06
4.077e-06
-3.97389e-06
3.77846e-06
-4.23245e-06
3.41914e-06
-4.45748e-06
3.0081e-06
-4.64802e-06
2.55365e-06
-4.80344e-06
2.06336e-06
-4.92321e-06
1.54421e-06
-5.00684e-06
1.00272e-06
-5.05374e-06
4.45144e-07
-5.06315e-06
-1.22326e-07
-5.03417e-06
-6.93331e-07
-4.96574e-06
-1.26113e-06
-4.85674e-06
-1.81837e-06
-4.70612e-06
-2.3569e-06
-4.51306e-06
-2.86757e-06
-4.27726e-06
-3.34014e-06
-3.99919e-06
-3.76315e-06
-3.68045e-06
-4.12404e-06
-3.32417e-06
-4.40925e-06
-2.93538e-06
-4.60457e-06
-2.52138e-06
-4.69561e-06
-2.09202e-06
-4.66851e-06
-1.6599e-06
-4.51078e-06
-1.24026e-06
-4.2123e-06
-8.5083e-07
-3.76644e-06
-5.11232e-07
-3.17104e-06
-2.423e-07
-2.42927e-06
-6.51374e-08
-1.55006e-06
-5.49369e-07
-6.31775e-08
6.02647e-07
-2.32793e-07
1.67254e-06
-4.87843e-07
2.59157e-06
-8.07461e-07
3.35215e-06
-1.17195e-06
3.95336e-06
-1.56352e-06
4.39924e-06
-1.96674e-06
4.69767e-06
-2.36874e-06
4.85934e-06
-2.75925e-06
4.89663e-06
-3.13039e-06
4.82273e-06
-3.47642e-06
4.65091e-06
-3.79336e-06
4.39394e-06
-4.0787e-06
4.0638e-06
-4.33098e-06
3.67142e-06
-4.54951e-06
3.22663e-06
-4.73409e-06
2.73822e-06
-4.88471e-06
2.21399e-06
-5.00143e-06
1.66093e-06
-5.08415e-06
1.08544e-06
-5.13253e-06
4.93529e-07
-5.14594e-06
-1.08921e-07
-5.12337e-06
-7.15895e-07
-5.06353e-06
-1.32097e-06
-4.96483e-06
-1.91707e-06
-4.8256e-06
-2.49613e-06
-4.64421e-06
-3.04896e-06
-4.41941e-06
-3.56494e-06
-4.15058e-06
-4.03197e-06
-3.83824e-06
-4.43638e-06
-3.48444e-06
-4.76305e-06
-3.0933e-06
-4.9957e-06
-2.67152e-06
-5.1174e-06
-2.22876e-06
-5.11127e-06
-1.77798e-06
-4.96156e-06
-1.33549e-06
-4.65479e-06
-9.2077e-07
-4.18116e-06
-5.55888e-07
-3.53593e-06
-2.64658e-07
-2.7205e-06
-7.14949e-08
-1.74322e-06
-6.20864e-07
-6.81204e-08
6.70767e-07
-2.50005e-07
1.85442e-06
-5.2177e-07
2.86333e-06
-8.59728e-07
3.6901e-06
-1.24174e-06
4.33537e-06
-1.64812e-06
4.80562e-06
-2.06218e-06
5.11174e-06
-2.47043e-06
5.26759e-06
-2.8625e-06
5.28869e-06
-3.23085e-06
5.19109e-06
-3.57042e-06
4.99047e-06
-3.87812e-06
4.70164e-06
-4.15241e-06
4.33809e-06
-4.39287e-06
3.91187e-06
-4.59978e-06
3.43355e-06
-4.77384e-06
2.91228e-06
-4.91585e-06
2.356e-06
-5.0265e-06
1.77158e-06
-5.1062e-06
1.16514e-06
-5.15495e-06
5.42283e-07
-5.17226e-06
-9.16122e-08
-5.15709e-06
-7.31065e-07
-5.10788e-06
-1.37018e-06
-5.02261e-06
-2.00234e-06
-4.89889e-06
-2.61985e-06
-4.73422e-06
-3.21363e-06
-4.52621e-06
-3.77295e-06
-4.27301e-06
-4.28518e-06
-3.97373e-06
-4.73566e-06
-3.62904e-06
-5.10774e-06
-3.24179e-06
-5.38295e-06
-2.81768e-06
-5.54151e-06
-2.36585e-06
-5.56311e-06
-1.89938e-06
-5.42803e-06
-1.43553e-06
-5.11864e-06
-9.95599e-07
-4.62109e-06
-6.04413e-07
-3.92711e-06
-2.89276e-07
-3.03563e-06
-7.8582e-08
-1.95391e-06
-6.99446e-07
-7.36805e-08
7.44448e-07
-2.69123e-07
2.04987e-06
-5.58884e-07
3.15309e-06
-9.15827e-07
4.04705e-06
-1.31491e-06
4.73445e-06
-1.73429e-06
5.225e-06
-2.15596e-06
5.53341e-06
-2.56592e-06
5.67754e-06
-2.95391e-06
5.67669e-06
-3.31306e-06
5.55024e-06
-3.63928e-06
5.31669e-06
-3.93067e-06
4.99303e-06
-4.18695e-06
4.59438e-06
-4.40896e-06
4.13388e-06
-4.59818e-06
3.62276e-06
-4.75635e-06
3.07046e-06
-4.88521e-06
2.48485e-06
-4.9862e-06
1.87257e-06
-5.06032e-06
1.23926e-06
-5.10797e-06
5.89933e-07
-5.12886e-06
-7.07207e-08
-5.12197e-06
-7.37962e-07
-5.0855e-06
-1.40665e-06
-5.01697e-06
-2.07087e-06
-4.91332e-06
-2.72351e-06
-4.77103e-06
-3.35592e-06
-4.5865e-06
-3.95748e-06
-4.35639e-06
-4.51529e-06
-4.07816e-06
-5.01389e-06
-3.75072e-06
-5.43518e-06
-3.37522e-06
-5.75845e-06
-2.95587e-06
-5.96086e-06
-2.50083e-06
-6.01814e-06
-2.02293e-06
-5.90593e-06
-1.54013e-06
-5.60144e-06
-1.07563e-06
-5.08559e-06
-6.57285e-07
-4.34546e-06
-3.16517e-07
-3.3764e-06
-8.65348e-08
-2.1839e-06
-7.8598e-07
-8.00578e-08
8.24506e-07
-2.90732e-07
2.26054e-06
-6.00093e-07
3.46245e-06
-9.76727e-07
4.42368e-06
-1.39209e-06
5.14982e-06
-1.82193e-06
5.65484e-06
-2.24691e-06
5.95839e-06
-2.65269e-06
6.08332e-06
-3.02949e-06
6.05349e-06
-3.37148e-06
5.89222e-06
-3.67594e-06
5.62115e-06
-3.94253e-06
5.25962e-06
-4.17257e-06
4.82441e-06
-4.36839e-06
4.32971e-06
-4.53286e-06
3.78724e-06
-4.66895e-06
3.20655e-06
-4.77943e-06
2.59533e-06
-4.86659e-06
1.95973e-06
-4.93209e-06
1.30476e-06
-4.97679e-06
6.34636e-07
-5.00068e-06
-4.6834e-08
-5.00278e-06
-7.35866e-07
-4.98113e-06
-1.4283e-06
-4.93284e-06
-2.11916e-06
-4.85411e-06
-2.80224e-06
-4.74045e-06
-3.46958e-06
-4.5869e-06
-4.11102e-06
-4.38849e-06
-4.7137e-06
-4.14071e-06
-5.26167e-06
-3.84033e-06
-5.73555e-06
-3.4863e-06
-6.11249e-06
-3.08076e-06
-6.36639e-06
-2.63029e-06
-6.46862e-06
-2.14688e-06
-6.38934e-06
-1.64886e-06
-6.09946e-06
-1.16119e-06
-5.57326e-06
-7.15108e-07
-4.79154e-06
-3.4686e-07
-3.74465e-06
-9.55358e-08
-2.43522e-06
-8.81516e-07
-8.75339e-08
9.1204e-07
-3.15638e-07
2.48864e-06
-6.46612e-07
3.79343e-06
-1.04366e-06
4.82073e-06
-1.47403e-06
5.58019e-06
-1.91076e-06
6.09157e-06
-2.33329e-06
6.38092e-06
-2.72728e-06
6.47731e-06
-3.08393e-06
6.41014e-06
-3.39895e-06
6.20725e-06
-3.67153e-06
5.89372e-06
-3.9033e-06
5.49139e-06
-4.0975e-06
5.01861e-06
-4.25825e-06
4.49046e-06
-4.38999e-06
3.91898e-06
-4.49704e-06
3.3136e-06
-4.58328e-06
2.68157e-06
-4.65191e-06
2.02837e-06
-4.70532e-06
1.35817e-06
-4.74487e-06
6.74188e-07
-4.77087e-06
-2.08342e-08
-4.78247e-06
-7.24271e-07
-4.7776e-06
-1.43316e-06
-4.75302e-06
-2.14374e-06
-4.70429e-06
-2.85097e-06
-4.62592e-06
-3.54795e-06
-4.5116e-06
-4.22534e-06
-4.35454e-06
-4.87076e-06
-4.14806e-06
-5.46815e-06
-3.88639e-06
-5.99723e-06
-3.56569e-06
-6.4332e-06
-3.18536e-06
-6.74671e-06
-2.74957e-06
-6.90441e-06
-2.26874e-06
-6.87017e-06
-1.76092e-06
-6.60728e-06
-1.25261e-06
-6.08158e-06
-7.78647e-07
-5.2655e-06
-3.80944e-07
-4.14235e-06
-1.05836e-07
-2.71033e-06
-9.87352e-07
-9.65083e-08
1.00855e-06
-3.4495e-07
2.73709e-06
-7.00046e-07
4.14852e-06
-1.11814e-06
5.23882e-06
-1.56143e-06
6.02349e-06
-2.00002e-06
6.53016e-06
-2.41238e-06
6.79327e-06
-2.78477e-06
6.8497e-06
-3.11004e-06
6.73541e-06
-3.38616e-06
6.48337e-06
-3.6148e-06
6.12237e-06
-3.80009e-06
5.67667e-06
-3.94754e-06
5.16606e-06
-4.06329e-06
4.60621e-06
-4.15349e-06
4.00918e-06
-4.22389e-06
3.384e-06
-4.27954e-06
2.73722e-06
-4.32458e-06
2.0734e-06
-4.36207e-06
1.39566e-06
-4.39395e-06
7.0607e-07
-4.42089e-06
6.09852e-09
-4.44221e-06
-7.02951e-07
-4.45585e-06
-1.41951e-06
-4.45832e-06
-2.14127e-06
-4.44464e-06
-2.86465e-06
-4.40844e-06
-3.58415e-06
-4.34208e-06
-4.29171e-06
-4.23695e-06
-4.9759e-06
-4.084e-06
-5.62109e-06
-3.87454e-06
-6.20668e-06
-3.60139e-06
-6.70635e-06
-3.26039e-06
-7.08771e-06
-2.8523e-06
-7.3125e-06
-2.38491e-06
-7.33756e-06
-1.87506e-06
-7.11713e-06
-1.3502e-06
-6.60643e-06
-8.48892e-07
-5.76681e-06
-4.19646e-07
-4.5716e-06
-1.1779e-07
-3.01219e-06
-1.10514e-06
-1.07555e-07
1.1161e-06
-3.80202e-07
3.00973e-06
-7.62495e-07
4.53082e-06
-1.20196e-06
5.67829e-06
-1.65478e-06
6.4763e-06
-2.08805e-06
6.96343e-06
-2.47988e-06
7.1851e-06
-2.818e-06
7.18783e-06
-3.09791e-06
7.01533e-06
-3.32074e-06
6.70619e-06
-3.49135e-06
6.29299e-06
-3.61688e-06
5.8022e-06
-3.70545e-06
5.25464e-06
-3.76542e-06
4.66617e-06
-3.80472e-06
4.04848e-06
-3.83052e-06
3.40981e-06
-3.849e-06
2.75569e-06
-3.86516e-06
2.08956e-06
-3.88275e-06
1.41326e-06
-3.90423e-06
7.27549e-07
-3.93064e-06
3.25105e-08
-3.96158e-06
-6.72015e-07
-3.99508e-06
-1.38601e-06
-4.02756e-06
-2.1088e-06
-4.0537e-06
-2.83851e-06
-4.06643e-06
-3.57142e-06
-4.05695e-06
-4.30119e-06
-4.01491e-06
-5.01793e-06
-3.92886e-06
-5.70715e-06
-3.78692e-06
-6.34862e-06
-3.57801e-06
-6.91526e-06
-3.29353e-06
-7.37218e-06
-2.92968e-06
-7.67635e-06
-2.49014e-06
-7.77709e-06
-1.98917e-06
-7.61811e-06
-1.45414e-06
-7.14146e-06
-9.27117e-07
-6.29383e-06
-4.64187e-07
-5.03453e-06
-1.3191e-07
-3.34446e-06
-1.23705e-06
-1.21516e-07
1.23762e-06
-4.23523e-07
3.31174e-06
-8.36656e-07
4.94395e-06
-1.29705e-06
6.13868e-06
-1.75387e-06
6.93313e-06
-2.17156e-06
7.38112e-06
-2.52888e-06
7.54242e-06
-2.81647e-06
7.47542e-06
-3.03378e-06
7.23264e-06
-3.1862e-06
6.8586e-06
-3.28263e-06
6.38941e-06
-3.33367e-06
5.85324e-06
-3.35035e-06
5.27133e-06
-3.3433e-06
4.65912e-06
-3.32218e-06
4.02736e-06
-3.29549e-06
3.38311e-06
-3.27036e-06
2.73056e-06
-3.25252e-06
2.07172e-06
-3.2463e-06
1.40704e-06
-3.25459e-06
7.3584e-07
-3.27882e-06
5.67413e-08
-3.3189e-06
-6.31943e-07
-3.37309e-06
-1.33182e-06
-3.43791e-06
-2.04397e-06
-3.50797e-06
-2.76844e-06
-3.57581e-06
-3.50359e-06
-3.63178e-06
-4.24522e-06
-3.66408e-06
-4.98563e-06
-3.65897e-06
-5.71226e-06
-3.60133e-06
-6.40626e-06
-3.47578e-06
-7.04081e-06
-3.2684e-06
-7.57956e-06
-2.96943e-06
-7.97533e-06
-2.57668e-06
-8.16984e-06
-2.09976e-06
-8.09502e-06
-1.56426e-06
-7.67696e-06
-1.01493e-06
-6.84317e-06
-5.16281e-07
-5.53318e-06
-1.48959e-07
-3.71178e-06
-1.38601e-06
-1.39651e-07
1.37727e-06
-4.77882e-07
3.64997e-06
-9.25896e-07
5.39196e-06
-1.40514e-06
6.61793e-06
-1.85702e-06
7.38501e-06
-2.24428e-06
7.76838e-06
-2.54828e-06
7.84641e-06
-2.76456e-06
7.6917e-06
-2.89829e-06
7.36637e-06
-2.96041e-06
6.92072e-06
-2.96463e-06
6.39364e-06
-2.92548e-06
5.81409e-06
-2.85696e-06
5.2028e-06
-2.77183e-06
4.57399e-06
-2.68131e-06
3.93684e-06
-2.59488e-06
3.29669e-06
-2.52039e-06
2.65607e-06
-2.46404e-06
2.01537e-06
-2.43051e-06
1.37352e-06
-2.42302e-06
7.28349e-07
-2.44332e-06
7.70392e-08
-2.49166e-06
-5.83605e-07
-2.56668e-06
-1.2568e-06
-2.66525e-06
-1.9454e-06
-2.78222e-06
-2.65147e-06
-2.91016e-06
-3.37564e-06
-3.0391e-06
-4.11629e-06
-3.15626e-06
-4.86847e-06
-3.24606e-06
-5.62246e-06
-3.29037e-06
-6.36195e-06
-3.26932e-06
-7.06185e-06
-3.16302e-06
-7.68586e-06
-2.95429e-06
-8.18406e-06
-2.63288e-06
-8.49126e-06
-2.20097e-06
-8.52693e-06
-1.67955e-06
-8.19837e-06
-1.11425e-06
-7.40847e-06
-5.78366e-07
-6.06906e-06
-1.70104e-07
-4.12005e-06
-1.55611e-06
-1.639e-07
1.54117e-06
-5.47427e-07
4.0335e-06
-1.0342e-06
5.87874e-06
-1.527e-06
7.11073e-06
-1.95943e-06
7.81743e-06
-2.29486e-06
8.10381e-06
-2.52031e-06
8.07186e-06
-2.63908e-06
7.81047e-06
-2.66424e-06
7.39153e-06
-2.61362e-06
6.8701e-06
-2.50644e-06
6.28646e-06
-2.36125e-06
5.6689e-06
-2.19484e-06
5.03639e-06
-2.02176e-06
4.40091e-06
-1.85426e-06
3.76933e-06
-1.70237e-06