/*--------------------------------*- C++ -*----------------------------------*\
  =========                 |
  \\      /  F ield         | OpenFOAM: The Open Source CFD Toolbox
   \\    /   O peration     | Website:  https://openfoam.org
    \\  /    A nd           | Version:  7
     \\/     M anipulation  |
\*---------------------------------------------------------------------------*/
FoamFile
{
    version     2.0;
    format      ascii;
    class       volVectorField;
    location    "0.48";
    object      U;
}
// * * * * * * * * * * * * * * * * * * * * * * * * * * * * * * * * * * * * * //

dimensions      [0 1 -1 0 0 0 0];

internalField   nonuniform List<vector> 
1600
(
(6.04253e-05 -6.05929e-05 0)
(0.000155838 -5.71722e-05 0)
(0.000156915 -7.06373e-06 0)
(6.64976e-06 5.24114e-05 0)
(-0.000303331 0.000107928 0)
(-0.000756613 0.000154777 0)
(-0.00132873 0.000191595 0)
(-0.0019927 0.000218426 0)
(-0.00272129 0.000235846 0)
(-0.00348822 0.000244602 0)
(-0.00426876 0.000245486 0)
(-0.00504002 0.000239282 0)
(-0.00578114 0.000226751 0)
(-0.00647336 0.000208626 0)
(-0.00710005 0.000185617 0)
(-0.0076467 0.000158414 0)
(-0.008101 0.000127699 0)
(-0.0084528 9.41519e-05 0)
(-0.00869417 5.84629e-05 0)
(-0.00881947 2.1339e-05 0)
(-0.00882541 -1.64861e-05 0)
(-0.00871114 -5.42459e-05 0)
(-0.00847834 -9.11374e-05 0)
(-0.00813133 -0.000126322 0)
(-0.0076771 -0.000158926 0)
(-0.00712544 -0.000188054 0)
(-0.00648891 -0.000212793 0)
(-0.00578288 -0.000232229 0)
(-0.00502536 -0.000245463 0)
(-0.00423698 -0.000251629 0)
(-0.00344065 -0.000249913 0)
(-0.00266132 -0.000239576 0)
(-0.00192551 -0.000219981 0)
(-0.00126072 -0.000190648 0)
(-0.000694522 -0.000151378 0)
(-0.000253167 -0.00010259 0)
(4.08432e-05 -4.61703e-05 0)
(0.000174375 1.26497e-05 0)
(0.000160367 6.01829e-05 0)
(6.02549e-05 6.00184e-05 0)
(5.86079e-05 -0.000157113 0)
(7.24398e-05 -6.95661e-05 0)
(-0.000178539 0.000182296 0)
(-0.000772868 0.000476941 0)
(-0.00172504 0.000761046 0)
(-0.00300848 0.00100946 0)
(-0.00457464 0.00121087 0)
(-0.0063641 0.00136137 0)
(-0.00831309 0.00146087 0)
(-0.0103574 0.00151127 0)
(-0.0124346 0.00151555 0)
(-0.014486 0.00147726 0)
(-0.0164569 0.00140028 0)
(-0.0182978 0.00128866 0)
(-0.0199642 0.00114654 0)
(-0.0214176 0.000978111 0)
(-0.0226247 0.00078764 0)
(-0.0235585 0.000579461 0)
(-0.0241978 0.000358006 0)
(-0.0245276 0.000127839 0)
(-0.0245395 -0.000106327 0)
(-0.0242317 -0.000339605 0)
(-0.023609 -0.000566934 0)
(-0.0226836 -0.000783095 0)
(-0.0214745 -0.000982737 0)
(-0.0200082 -0.00116044 0)
(-0.0183184 -0.00131081 0)
(-0.0164458 -0.00142853 0)
(-0.0144378 -0.00150857 0)
(-0.0123482 -0.00154626 0)
(-0.010236 -0.0015375 0)
(-0.00816462 -0.00147903 0)
(-0.00620012 -0.00136868 0)
(-0.0044093 -0.00120588 0)
(-0.00285656 -0.000992546 0)
(-0.00159966 -0.000734724 0)
(-0.00068306 -0.000445975 0)
(-0.000126881 -0.000153463 0)
(9.20054e-05 8.83813e-05 0)
(6.17338e-05 0.000160752 0)
(1.14344e-05 -0.000162917 0)
(-0.000171978 0.000178373 0)
(-0.000804174 0.000813945 0)
(-0.00193133 0.0015365 0)
(-0.00355436 0.00223901 0)
(-0.00563729 0.00286197 0)
(-0.0081153 0.00337378 0)
(-0.0109069 0.00376005 0)
(-0.0139226 0.00401661 0)
(-0.0170702 0.00414543 0)
(-0.0202592 0.00415217 0)
(-0.0234025 0.00404484 0)
(-0.026419 0.00383287 0)
(-0.029234 0.00352657 0)
(-0.0317807 0.00313687 0)
(-0.0340004 0.00267506 0)
(-0.0358429 0.00215279 0)
(-0.0372669 0.00158202 0)
(-0.0382404 0.000975043 0)
(-0.0387411 0.000344524 0)
(-0.0387561 -0.000296463 0)
(-0.0382832 -0.000934421 0)
(-0.0373301 -0.00155544 0)
(-0.0359154 -0.00214525 0)
(-0.0340686 -0.00268936 0)
(-0.0318299 -0.00317318 0)
(-0.0292504 -0.00358231 0)
(-0.0263913 -0.00390282 0)
(-0.023324 -0.00412161 0)
(-0.0201282 -0.00422694 0)
(-0.0168915 -0.00420892 0)
(-0.0137067 -0.00406029 0)
(-0.0106698 -0.00377734 0)
(-0.00787611 -0.00336135 0)
(-0.00541624 -0.00282077 0)
(-0.00336964 -0.00217493 0)
(-0.00179598 -0.00146049 0)
(-0.00072318 -0.00074125 0)
(-0.000138872 -0.000126456 0)
(1.767e-05 0.000180117 0)
(-4.54045e-05 -2.20913e-05 0)
(-0.000464443 0.000768061 0)
(-0.00153565 0.00194163 0)
(-0.00324234 0.00322709 0)
(-0.00555544 0.00446877 0)
(-0.00842397 0.00557177 0)
(-0.0117669 0.00648105 0)
(-0.0154843 0.00716851 0)
(-0.0194665 0.00762351 0)
(-0.0235998 0.00784675 0)
(-0.0277716 0.00784636 0)
(-0.0318729 0.00763536 0)
(-0.0358014 0.00723002 0)
(-0.0394625 0.00664874 0)
(-0.0427713 0.0059114 0)
(-0.0456527 0.00503893 0)
(-0.0480427 0.00405306 0)
(-0.0498886 0.00297629 0)
(-0.0511496 0.0018318 0)
(-0.051797 0.000643511 0)
(-0.0518148 -0.000563896 0)
(-0.0512002 -0.001765 0)
(-0.0499634 -0.00293367 0)
(-0.0481285 -0.00404323 0)
(-0.0457332 -0.00506667 0)
(-0.0428291 -0.00597698 0)
(-0.039481 -0.00674764 0)
(-0.035767 -0.0073532 0)
(-0.0317772 -0.00777004 0)
(-0.0276124 -0.00797728 0)
(-0.0233824 -0.00795789 0)
(-0.019203 -0.0077001 0)
(-0.0151935 -0.00719917 0)
(-0.0114717 -0.00645991 0)
(-0.0081488 -0.00550019 0)
(-0.00532288 -0.0043565 0)
(-0.00306935 -0.0030924 0)
(-0.00143008 -0.00181012 0)
(-0.000420088 -0.000669644 0)
(-3.66797e-05 5.98453e-05 0)
(-0.000100471 0.00027858 0)
(-0.000761301 0.00172941 0)
(-0.00229024 0.00359252 0)
(-0.00459442 0.00555688 0)
(-0.00760436 0.00742978 0)
(-0.011248 0.00908607 0)
(-0.0154257 0.0104488 0)
(-0.0200192 0.0114758 0)
(-0.024901 0.0121494 0)
(-0.0299395 0.0124682 0)
(-0.0350041 0.0124429 0)
(-0.0399682 0.0120916 0)
(-0.0447123 0.0114385 0)
(-0.0491261 0.0105112 0)
(-0.05311 0.0093401 0)
(-0.056576 0.00795765 0)
(-0.0594488 0.00639774 0)
(-0.0616664 0.00469557 0)
(-0.063181 0.00288758 0)
(-0.0639588 0.00101136 0)
(-0.0639811 -0.00089431 0)
(-0.0632446 -0.00278952 0)
(-0.0617614 -0.00463335 0)
(-0.0595599 -0.00638415 0)
(-0.0566844 -0.00799984 0)
(-0.0531952 -0.00943855 0)
(-0.0491684 -0.0106593 0)
(-0.0446953 -0.011623 0)
(-0.0398811 -0.0122937 0)
(-0.0348432 -0.0126399 0)
(-0.0297094 -0.0126364 0)
(-0.0246144 -0.0122667 0)
(-0.0196967 -0.011525 0)
(-0.015093 -0.0104206 0)
(-0.0109333 -0.00898186 0)
(-0.00733457 -0.00726304 0)
(-0.00439076 -0.00535377 0)
(-0.002164 -0.00339049 0)
(-0.000707324 -0.0015736 0)
(-8.96038e-05 -0.000214692 0)
(-0.000150706 0.000732716 0)
(-0.00104607 0.00306318 0)
(-0.00303026 0.0057739 0)
(-0.00593177 0.00853324 0)
(-0.00963556 0.0111231 0)
(-0.0140438 0.013395 0)
(-0.0190349 0.0152539 0)
(-0.0244715 0.0166455 0)
(-0.0302083 0.0175456 0)
(-0.0360977 0.0179516 0)
(-0.0419933 0.0178766 0)
(-0.0477537 0.017345 0)
(-0.0532454 0.0163893 0)
(-0.0583454 0.0150477 0)
(-0.062942 0.0133623 0)
(-0.066937 0.0113786 0)
(-0.0702461 0.0091443 0)
(-0.0728 0.00670911 0)
(-0.0745449 0.00412457 0)
(-0.0754431 0.0014439 0)
(-0.0754735 -0.00127802 0)
(-0.0746322 -0.00398479 0)
(-0.0729327 -0.00661863 0)
(-0.0704064 -0.00912081 0)
(-0.0671026 -0.0114322 0)
(-0.0630884 -0.0134939 0)
(-0.0584487 -0.0152487 0)
(-0.0532852 -0.016642 0)
(-0.0477151 -0.0176238 0)
(-0.0418697 -0.0181507 0)
(-0.0358916 -0.0181885 0)
(-0.0299318 -0.0177147 0)
(-0.0241456 -0.0167224 0)
(-0.0186877 -0.0152249 0)
(-0.0137071 -0.0132603 0)
(-0.0093408 -0.0108996 0)
(-0.00570507 -0.00825537 0)
(-0.00288727 -0.00549225 0)
(-0.000983803 -0.00284085 0)
(-0.000137878 -0.000637831 0)
(-0.00019601 0.00132999 0)
(-0.00131437 0.00475796 0)
(-0.00374187 0.00847812 0)
(-0.00723119 0.0121505 0)
(-0.0116201 0.0155414 0)
(-0.0167819 0.0184862 0)
(-0.0225705 0.0208766 0)
(-0.0288276 0.0226494 0)
(-0.0353899 0.0237758 0)
(-0.0420938 0.0242532 0)
(-0.0487785 0.0240988 0)
(-0.0552897 0.0233437 0)
(-0.0614819 0.0220301 0)
(-0.0672214 0.0202076 0)
(-0.072387 0.0179316 0)
(-0.0768721 0.0152617 0)
(-0.0805853 0.0122608 0)
(-0.0834513 0.00899442 0)
(-0.0854118 0.00553076 0)
(-0.0864255 0.00194013 0)
(-0.0864694 -0.00170498 0)
(-0.0855388 -0.00533006 0)
(-0.0836478 -0.0088589 0)
(-0.0808298 -0.0122141 0)
(-0.0771377 -0.0153176 0)
(-0.0726436 -0.0180922 0)
(-0.0674391 -0.0204624 0)
(-0.0616339 -0.0223566 0)
(-0.0553553 -0.0237093 0)
(-0.048746 -0.0244635 0)
(-0.0419616 -0.0245745 0)
(-0.0351679 -0.0240129 0)
(-0.0285363 -0.0227693 0)
(-0.0222395 -0.0208593 0)
(-0.0164463 -0.0183295 0)
(-0.0113164 -0.0152646 0)
(-0.00699125 -0.0117962 0)
(-0.00358701 -0.0081112 0)
(-0.00124536 -0.00446208 0)
(-0.000181376 -0.00119987 0)
(-0.000237311 0.00206069 0)
(-0.00156743 0.00679919 0)
(-0.004424 0.0116917 0)
(-0.00848846 0.0163972 0)
(-0.0135517 0.0206736 0)
(-0.0194564 0.0243468 0)
(-0.0260303 0.0273003 0)
(-0.0330922 0.0294657 0)
(-0.04046 0.0308127 0)
(-0.0479541 0.0313411 0)
(-0.0553997 0.0310733 0)
(-0.0626305 0.0300493 0)
(-0.0694908 0.0283219 0)
(-0.0758374 0.0259535 0)
(-0.0815417 0.0230137 0)
(-0.08649 0.0195775 0)
(-0.0905855 0.0157241 0)
(-0.0937481 0.011536 0)
(-0.0959156 0.00709909 0)
(-0.0970441 0.00250181 0)
(-0.0971086 -0.00216458 0)
(-0.0961032 -0.00680638 0)
(-0.0940422 -0.0113277 0)
(-0.09096 -0.0156312 0)
(-0.0869114 -0.0196188 0)
(-0.0819723 -0.023193 0)
(-0.0762388 -0.0262591 0)
(-0.0698273 -0.0287266 0)
(-0.0628729 -0.0305127 0)
(-0.0555282 -0.0315456 0)
(-0.047961 -0.0317677 0)
(-0.0403507 -0.0311411 0)
(-0.0328852 -0.0296518 0)
(-0.0257558 -0.0273156 0)
(-0.0191528 -0.0241848 0)
(-0.0132606 -0.0203545 0)
(-0.00824861 -0.0159712 0)
(-0.00426395 -0.0112387 0)
(-0.00149382 -0.00642558 0)
(-0.000221114 -0.00189194 0)
(-0.000275747 0.00291703 0)
(-0.00180857 0.00917349 0)
(-0.00508157 0.0154012 0)
(-0.00970925 0.0212614 0)
(-0.0154368 0.0265092 0)
(-0.0220753 0.0309663 0)
(-0.0294249 0.0345129 0)
(-0.0372804 0.0370797 0)
(-0.0454401 0.0386385 0)
(-0.0537076 0.0391937 0)
(-0.0618946 0.038776 0)
(-0.0698234 0.0374356 0)
(-0.0773288 0.0352378 0)
(-0.0842598 0.0322593 0)
(-0.0904812 0.0285849 0)
(-0.0958742 0.0243062 0)
(-0.100337 0.0195194 0)
(-0.103787 0.014325 0)
(-0.106157 0.00882717 0)
(-0.107403 0.00313339 0)
(-0.107497 -0.00264568 0)
(-0.106431 -0.00839633 0)
(-0.10422 -0.0140022 0)
(-0.100898 -0.0193451 0)
(-0.0965199 -0.0243057 0)
(-0.0911643 -0.0287653 0)
(-0.0849303 -0.0326081 0)
(-0.0779391 -0.0357234 0)
(-0.0703324 -0.0380092 0)
(-0.0622717 -0.0393765 0)
(-0.0539355 -0.0397531 0)
(-0.0455173 -0.0390897 0)
(-0.0372215 -0.0373651 0)
(-0.0292591 -0.0345925 0)
(-0.0218437 -0.0308263 0)
(-0.0151867 -0.0261687 0)
(-0.00948739 -0.0207768 0)
(-0.00492553 -0.0148675 0)
(-0.00173346 -0.00872191 0)
(-0.000258386 -0.0027075 0)
(-0.000312372 0.0038935 0)
(-0.00204167 0.0118705 0)
(-0.00572187 0.0195954 0)
(-0.0109037 0.0267331 0)
(-0.0172878 0.0330395 0)
(-0.0246533 0.0383365 0)
(-0.0327716 0.0425058 0)
(-0.0414127 0.0454813 0)
(-0.0503542 0.0472405 0)
(-0.0593829 0.0477963 0)
(-0.0682967 0.0471898 0)
(-0.076907 0.0454841 0)
(-0.08504 0.0427589 0)
(-0.092538 0.0391065 0)
(-0.0992602 0.0346286 0)
(-0.105084 0.029434 0)
(-0.109904 0.0236371 0)
(-0.113635 0.0173567 0)
(-0.116208 0.0107159 0)
(-0.117575 0.00384139 0)
(-0.117708 -0.00313621 0)
(-0.116598 -0.0100829 0)
(-0.114256 -0.0168613 0)
(-0.110716 -0.0233316 0)
(-0.106035 -0.0293525 0)
(-0.100288 -0.034783 0)
(-0.0935789 -0.0394848 0)
(-0.0860306 -0.0433251 0)
(-0.0777906 -0.0461809 0)
(-0.0690277 -0.0479433 0)
(-0.0599313 -0.048523 0)
(-0.0507083 -0.0478561 0)
(-0.0415804 -0.0459107 0)
(-0.0327796 -0.0426941 0)
(-0.0245445 -0.038259 0)
(-0.0171152 -0.0327108 0)
(-0.0107232 -0.0262139 0)
(-0.00558206 -0.0189951 0)
(-0.00196934 -0.0113461 0)
(-0.000294455 -0.00364285 0)
(-0.000348087 0.0049868 0)
(-0.00227053 0.0148838 0)
(-0.00635276 0.0242672 0)
(-0.0120837 0.0328057 0)
(-0.0191197 0.0402586 0)
(-0.0272079 0.0464519 0)
(-0.0360901 0.0512728 0)
(-0.0455107 0.0546627 0)
(-0.0552258 0.0566091 0)
(-0.0650051 0.0571367 0)
(-0.0746329 0.0563007 0)
(-0.0839102 0.0541794 0)
(-0.0926551 0.0508693 0)
(-0.100704 0.04648 0)
(-0.107913 0.0411313 0)
(-0.114155 0.0349505 0)
(-0.119324 0.0280705 0)
(-0.123331 0.0206289 0)
(-0.126107 0.012768 0)
(-0.127602 0.00463394 0)
(-0.127785 -0.00362296 0)
(-0.126646 -0.0118482 0)
(-0.124195 -0.0198833 0)
(-0.120462 -0.0275665 0)
(-0.115502 -0.034734 0)
(-0.109392 -0.0412213 0)
(-0.102232 -0.0468662 0)
(-0.0941489 -0.0515123 0)
(-0.0852935 -0.0550128 0)
(-0.0758413 -0.0572365 0)
(-0.0659914 -0.0580733 0)
(-0.0559643 -0.0574414 0)
(-0.0459994 -0.0552945 0)
(-0.036351 -0.0516292 0)
(-0.027284 -0.0464928 0)
(-0.0190698 -0.0399901 0)
(-0.0119737 -0.0322892 0)
(-0.00624478 -0.0236248 0)
(-0.00220657 -0.0142984 0)
(-0.000330462 -0.00469713 0)
(-0.000383643 0.00619562 0)
(-0.00249856 0.0182105 0)
(-0.0069818 0.0294134 0)
(-0.0132608 0.0394762 0)
(-0.0209477 0.0481636 0)
(-0.0297568 0.0553089 0)
(-0.0393996 0.060809 0)
(-0.0495942 0.0646173 0)
(-0.0600748 0.0667353 0)
(-0.0705937 0.0672038 0)
(-0.0809217 0.0660953 0)
(-0.09085 0.0635066 0)
(-0.10019 0.0595534 0)
(-0.108773 0.0543647 0)
(-0.116452 0.0480798 0)
(-0.1231 0.0408452 0)
(-0.128607 0.0328131 0)
(-0.132886 0.0241401 0)
(-0.135865 0.0149874 0)
(-0.137494 0.00552025 0)
(-0.137741 -0.00409141 0)
(-0.136591 -0.013673 0)
(-0.134053 -0.0230451 0)
(-0.130154 -0.0320242 0)
(-0.124944 -0.0404232 0)
(-0.118499 -0.0480535 0)
(-0.110917 -0.0547279 0)
(-0.102325 -0.060264 0)
(-0.0928749 -0.0644891 0)
(-0.0827482 -0.0672462 0)
(-0.0721527 -0.0684008 0)
(-0.0613224 -0.0678488 0)
(-0.0505146 -0.0655248 0)
(-0.0400068 -0.0614104 0)
(-0.0300921 -0.0555426 0)
(-0.021075 -0.0480215 0)
(-0.013257 -0.039016 0)
(-0.00692498 -0.0287665 0)
(-0.00245004 -0.0175849 0)
(-0.000367423 -0.00587224 0)
(-0.000419664 0.00752039 0)
(-0.00272881 0.0218516 0)
(-0.00761595 0.035035 0)
(-0.0144461 0.0467456 0)
(-0.0227861 0.0567546 0)
(-0.0323164 0.064906 0)
(-0.0427175 0.0711106 0)
(-0.0536801 0.0753381 0)
(-0.0649162 0.0776088 0)
(-0.0761607 0.077984 0)
(-0.0871716 0.0765574 0)
(-0.0977309 0.0734478 0)
(-0.107644 0.0687927 0)
(-0.11674 0.0627428 0)
(-0.124869 0.0554581 0)
(-0.131905 0.0471056 0)
(-0.137738 0.0378568 0)
(-0.142281 0.0278875 0)
(-0.145463 0.0173772 0)
(-0.147232 0.00650997 0)
(-0.147555 -0.0045257 0)
(-0.146415 -0.0155358 0)
(-0.143815 -0.0263207 0)
(-0.13978 -0.036675 0)
(-0.134355 -0.0463887 0)
(-0.12761 -0.0552485 0)
(-0.119641 -0.0630407 0)
(-0.110571 -0.069555 0)
(-0.100553 -0.07459 0)
(-0.0897724 -0.0779593 0)
(-0.0784438 -0.0794999 0)
(-0.0668139 -0.0790804 0)
(-0.0551583 -0.076611 0)
(-0.0437784 -0.0720527 0)
(-0.0329973 -0.0654274 0)
(-0.0231547 -0.0568257 0)
(-0.014591 -0.0464141 0)
(-0.00763347 -0.034437 0)
(-0.00270433 -0.021217 0)
(-0.000406248 -0.00717255 0)
(-0.000456683 0.00896302 0)
(-0.00296398 0.025811 0)
(-0.00826152 0.0411371 0)
(-0.0156495 0.054618 0)
(-0.0246477 0.066034 0)
(-0.0349011 0.0752428 0)
(-0.0460577 0.0821731 0)
(-0.0577804 0.0868162 0)
(-0.0697585 0.0892162 0)
(-0.0817096 0.0894595 0)
(-0.0933797 0.0876657 0)
(-0.104543 0.0839793 0)
(-0.115 0.0785626 0)
(-0.124579 0.0715902 0)
(-0.133132 0.0632448 0)
(-0.140531 0.053714 0)
(-0.146671 0.0431895 0)
(-0.151467 0.0318654 0)
(-0.154847 0.0199393 0)
(-0.156762 0.00761255 0)
(-0.157173 -0.00490874 0)
(-0.156064 -0.0174124 0)
(-0.153433 -0.0296795 0)
(-0.149299 -0.041484 0)
(-0.143699 -0.0525928 0)
(-0.136698 -0.0627677 0)
(-0.128385 -0.0717675 0)
(-0.118879 -0.079352 0)
(-0.10833 -0.0852881 0)
(-0.0969237 -0.0893564 0)
(-0.0848817 -0.0913601 0)
(-0.0724617 -0.0911352 0)
(-0.059957 -0.0885612 0)
(-0.0476935 -0.0835725 0)
(-0.0360257 -0.0761696 0)
(-0.0253311 -0.0664286 0)
(-0.0159922 -0.0545096 0)
(-0.00838055 -0.0406593 0)
(-0.00297377 -0.0252112 0)
(-0.000447773 -0.00860481 0)
(-0.000495175 0.0105268 0)
(-0.00320652 0.0300959 0)
(-0.00892429 0.0477278 0)
(-0.0168802 0.063101 0)
(-0.0265439 0.0760063 0)
(-0.0375228 0.0863188 0)
(-0.049431 0.0939903 0)
(-0.0619021 0.099039 0)
(-0.0746028 0.101538 0)
(-0.087234 0.101605 0)
(-0.0995304 0.0993907 0)
(-0.11126 0.0950685 0)
(-0.122222 0.0888294 0)
(-0.132244 0.0808743 0)
(-0.141182 0.0714098 0)
(-0.148911 0.0606456 0)
(-0.155332 0.0487927 0)
(-0.160361 0.0360636 0)
(-0.163932 0.0226724 0)
(-0.165992 0.00883636 0)
(-0.166506 -0.00522244 0)
(-0.165452 -0.0192755 0)
(-0.162824 -0.0330862 0)
(-0.158632 -0.046409 0)
(-0.152908 -0.0589889 0)
(-0.145705 -0.0705625 0)
(-0.137104 -0.0808603 0)
(-0.127215 -0.0896107 0)
(-0.116184 -0.0965455 0)
(-0.104194 -0.101408 0)
(-0.0914702 -0.103963 0)
(-0.0782787 -0.104006 0)
(-0.06493 -0.10138 0)
(-0.0517747 -0.0959853 0)
(-0.0392003 -0.0877935 0)
(-0.0276247 -0.0768602 0)
(-0.0174765 -0.0633344 0)
(-0.00917598 -0.0474626 0)
(-0.00326245 -0.0295891 0)
(-0.000492789 -0.0101779 0)
(-0.000535592 0.0122162 0)
(-0.0034588 0.0347161 0)
(-0.0096098 0.0548188 0)
(-0.0181467 0.0722045 0)
(-0.028485 0.0866769 0)
(-0.0401916 0.0981329 0)
(-0.0528444 0.106553 0)
(-0.0660469 0.111988 0)
(-0.0794426 0.114548 0)
(-0.0927167 0.114387 0)
(-0.105594 0.111692 0)
(-0.11784 0.106671 0)
(-0.129252 0.099547 0)
(-0.139663 0.0905499 0)
(-0.148934 0.0799118 0)
(-0.156948 0.0678648 0)
(-0.163611 0.0546393 0)
(-0.168846 0.0404648 0)
(-0.172591 0.0255706 0)
(-0.174795 0.0101877 0)
(-0.175424 -0.00544818 0)
(-0.17445 -0.0210945 0)
(-0.171863 -0.0364994 0)
(-0.167665 -0.0513996 0)
(-0.161876 -0.0655196 0)
(-0.154539 -0.0785716 0)
(-0.14572 -0.0902573 0)
(-0.13552 -0.100272 0)
(-0.124073 -0.108309 0)
(-0.111557 -0.114071 0)
(-0.0981967 -0.117277 0)
(-0.0842652 -0.117677 0)
(-0.0700876 -0.115066 0)
(-0.0560388 -0.109304 0)
(-0.0425405 -0.100324 0)
(-0.030054 -0.0881537 0)
(-0.0190586 -0.0729254 0)
(-0.0100291 -0.0548815 0)
(-0.00357438 -0.034377 0)
(-0.000542079 -0.0119029 0)
(-0.000578404 0.0140369 0)
(-0.00372327 0.039684 0)
(-0.0103237 0.0624247 0)
(-0.0194575 0.0819407 0)
(-0.0304807 0.0980516 0)
(-0.0429159 0.110682 0)
(-0.0563019 0.119846 0)
(-0.0702107 0.125637 0)
(-0.0842629 0.128208 0)
(-0.098129 0.127757 0)
(-0.111527 0.124513 0)
(-0.124219 0.118726 0)
(-0.13601 0.110653 0)
(-0.146738 0.100556 0)
(-0.156273 0.0886944 0)
(-0.16451 0.0753228 0)
(-0.171363 0.0606907 0)
(-0.176765 0.045043 0)
(-0.180659 0.0286218 0)
(-0.183 0.0116696 0)
(-0.183751 -0.0055674 0)
(-0.182885 -0.0228357 0)
(-0.180383 -0.0398711 0)
(-0.176238 -0.0563955 0)
(-0.170457 -0.0721149 0)
(-0.163067 -0.0867184 0)
(-0.15412 -0.0998792 0)
(-0.143698 -0.111258 0)
(-0.131923 -0.120508 0)
(-0.11896 -0.127285 0)
(-0.10503 -0.131256 0)
(-0.090407 -0.132116 0)
(-0.0754296 -0.129608 0)
(-0.0604956 -0.123534 0)
(-0.0460615 -0.113783 0)
(-0.0326355 -0.100344 0)
(-0.0207525 -0.0833234 0)
(-0.0109493 -0.0629561 0)
(-0.0039136 -0.0396057 0)
(-0.000596447 -0.0137929 0)
(-0.00062415 0.015996 0)
(-0.00400269 0.0450153 0)
(-0.0110723 0.0705632 0)
(-0.020822 0.0923234 0)
(-0.0325411 0.110136 0)
(-0.0457031 0.123958 0)
(-0.0598044 0.133848 0)
(-0.074384 0.139949 0)
(-0.0890398 0.142466 0)
(-0.103429 0.141651 0)
(-0.117266 0.137782 0)
(-0.130316 0.131154 0)
(-0.142391 0.122065 0)
(-0.153341 0.110813 0)
(-0.163051 0.097683 0)
(-0.171428 0.0829545 0)
(-0.178403 0.0668941 0)
(-0.183918 0.0497604 0)
(-0.187926 0.0318056 0)
(-0.190387 0.0132803 0)
(-0.191268 -0.00556246 0)
(-0.190537 -0.0244623 0)
(-0.188169 -0.0431464 0)
(-0.184145 -0.0613255 0)
(-0.178457 -0.07869 0)
(-0.171115 -0.0949084 0)
(-0.162149 -0.109626 0)
(-0.15162 -0.122469 0)
(-0.139628 -0.133047 0)
(-0.126324 -0.140965 0)
(-0.111914 -0.145831 0)
(-0.0966724 -0.147278 0)
(-0.0809436 -0.144979 0)
(-0.0651469 -0.138674 0)
(-0.0497743 -0.128189 0)
(-0.0353835 -0.113465 0)
(-0.0225717 -0.0945726 0)
(-0.0119457 -0.0717311 0)
(-0.00428432 -0.0453104 0)
(-0.000656763 -0.0158631 0)
(-0.000673498 0.0181021 0)
(-0.00430043 0.0507285 0)
(-0.0118632 0.0792553 0)
(-0.0222508 0.103369 0)
(-0.0346773 0.122933 0)
(-0.0485603 0.137949 0)
(-0.0633503 0.148527 0)
(-0.0785514 0.154873 0)
(-0.0937397 0.157253 0)
(-0.108562 0.155983 0)
(-0.122732 0.1514 0)
(-0.136024 0.14385 0)
(-0.148261 0.133677 0)
(-0.159313 0.121215 0)
(-0.169081 0.106781 0)
(-0.177495 0.0906744 0)
(-0.184502 0.0731795 0)
(-0.190058 0.0545654 0)
(-0.194132 0.0350914 0)
(-0.196689 0.0150119 0)
(-0.197699 -0.00541779 0)
(-0.19713 -0.0259349 0)
(-0.194949 -0.0462631 0)
(-0.191124 -0.0661063 0)
(-0.185631 -0.0851439 0)
(-0.178456 -0.103027 0)
(-0.169604 -0.119375 0)
(-0.159109 -0.133779 0)
(-0.147045 -0.145804 0)
(-0.133535 -0.154999 0)
(-0.118769 -0.160908 0)
(-0.103009 -0.163088 0)
(-0.0866024 -0.161135 0)
(-0.0699854 -0.154706 0)
(-0.0536846 -0.143552 0)
(-0.0383108 -0.127549 0)
(-0.0245296 -0.106719 0)
(-0.0130283 -0.0812558 0)
(-0.00469118 -0.0515312 0)
(-0.000724009 -0.0181312 0)
(-0.000727318 0.0203657 0)
(-0.00462083 0.0568467 0)
(-0.0127059 0.0885262 0)
(-0.0237573 0.115094 0)
(-0.0369025 0.136446 0)
(-0.0514956 0.152635 0)
(-0.0669359 0.16384 0)
(-0.0826915 0.170338 0)
(-0.0983178 0.172477 0)
(-0.113455 0.170643 0)
(-0.127823 0.165242 0)
(-0.141207 0.156681 0)
(-0.153453 0.145354 0)
(-0.164455 0.131632 0)
(-0.174138 0.115865 0)
(-0.182457 0.0983738 0)
(-0.189382 0.0794565 0)
(-0.19489 0.0593899 0)
(-0.198964 0.0384359 0)
(-0.201581 0.0168481 0)
(-0.202715 -0.00512118 0)
(-0.202333 -0.0272126 0)
(-0.200396 -0.0491521 0)
(-0.196858 -0.0706426 0)
(-0.191675 -0.0913577 0)
(-0.184807 -0.110935 0)
(-0.17623 -0.128973 0)
(-0.165942 -0.145028 0)
(-0.153983 -0.158621 0)
(-0.140443 -0.169241 0)
(-0.125481 -0.176358 0)
(-0.10934 -0.179446 0)
(-0.0923612 -0.178004 0)
(-0.0749927 -0.171594 0)
(-0.057793 -0.159871 0)
(-0.0414282 -0.142623 0)
(-0.0266399 -0.119809 0)
(-0.014208 -0.0915837 0)
(-0.00513946 -0.0583132 0)
(-0.00079935 -0.0206171 0)
(-0.0007868 0.0227999 0)
(-0.0049697 0.063398 0)
(-0.0136132 0.0984062 0)
(-0.0253592 0.127519 0)
(-0.039234 0.150673 0)
(-0.0545183 0.167987 0)
(-0.0705553 0.179724 0)
(-0.0867755 0.186254 0)
(-0.102716 0.188017 0)
(-0.118017 0.185487 0)
(-0.132409 0.17915 0)
(-0.1457 0.16948 0)
(-0.157765 0.156924 0)
(-0.168527 0.141899 0)
(-0.177948 0.124782 0)
(-0.186011 0.105917 0)
(-0.192714 0.0856115 0)
(-0.198061 0.0641463 0)
(-0.202051 0.0417811 0)
(-0.204678 0.0187628 0)
(-0.205922 -0.00466534 0)
(-0.20575 -0.028254 0)
(-0.204116 -0.0517381 0)
(-0.200961 -0.0748267 0)
(-0.196219 -0.097194 0)
(-0.189821 -0.118471 0)
(-0.181707 -0.138238 0)
(-0.171836 -0.156024 0)
(-0.1602 -0.171303 0)
(-0.146847 -0.183502 0)
(-0.131896 -0.192011 0)
(-0.115557 -0.196209 0)
(-0.0981536 -0.195484 0)
(-0.0801367 -0.189277 0)
(-0.0620931 -0.177125 0)
(-0.0447449 -0.158705 0)
(-0.0289175 -0.133889 0)
(-0.0154972 -0.102773 0)
(-0.00563549 -0.0657068 0)
(-0.000884217 -0.0233442 0)
(-0.000853589 0.0254214 0)
(-0.00535497 0.070418 0)
(-0.0146019 0.108932 0)
(-0.0270795 0.140665 0)
(-0.0416937 0.165607 0)
(-0.0576401 0.183962 0)
(-0.0741997 0.196097 0)
(-0.0907653 0.202499 0)
(-0.106861 0.203717 0)
(-0.122132 0.200334 0)
(-0.13633 0.192923 0)
(-0.149298 0.182036 0)
(-0.160947 0.168179 0)
(-0.171242 0.151813 0)
(-0.180184 0.133346 0)
(-0.187796 0.113139 0)
(-0.194109 0.0915053 0)
(-0.199157 0.0687259 0)
(-0.202961 0.0450522 0)
(-0.205533 0.0207179 0)
(-0.206861 -0.00404962 0)
(-0.206917 -0.0290185 0)
(-0.205647 -0.0539405 0)
(-0.202979 -0.0785389 0)
(-0.198823 -0.102497 0)
(-0.19308 -0.125446 0)
(-0.185648 -0.146957 0)
(-0.176438 -0.166534 0)
(-0.16539 -0.183609 0)
(-0.152495 -0.197545 0)
(-0.137814 -0.207649 0)
(-0.121515 -0.213189 0)
(-0.103886 -0.213426 0)
(-0.085369 -0.207658 0)
(-0.0665706 -0.195271 0)
(-0.0482684 -0.175803 0)
(-0.0313789 -0.149002 0)
(-0.0169111 -0.114885 0)
(-0.00618718 -0.0737695 0)
(-0.000980446 -0.0263392 0)
(-0.000930007 0.0282516 0)
(-0.00578758 0.0779517 0)
(-0.0156954 0.12015 0)
(-0.0289491 0.154558 0)
(-0.0443101 0.181236 0)
(-0.0608748 0.200499 0)
(-0.0778556 0.212849 0)
(-0.0946094 0.218914 0)
(-0.110653 0.219381 0)
(-0.12565 0.214954 0)
(-0.139387 0.206314 0)
(-0.151749 0.194094 0)
(-0.162699 0.178866 0)
(-0.172253 0.161133 0)
(-0.180461 0.141334 0)
(-0.187391 0.11984 0)
(-0.193116 0.0969706 0)
(-0.1977 0.0729968 0)
(-0.201195 0.0481559 0)
(-0.203629 0.0226619 0)
(-0.205006 -0.00328176 0)
(-0.2053 -0.0294685 0)
(-0.204454 -0.0556756 0)
(-0.202381 -0.0816495 0)
(-0.19897 -0.107092 0)
(-0.194087 -0.131645 0)
(-0.187586 -0.154879 0)
(-0.179323 -0.176281 0)
(-0.169175 -0.195246 0)
(-0.157063 -0.211077 0)
(-0.142978 -0.222991 0)
(-0.127021 -0.230138 0)
(-0.109431 -0.231631 0)
(-0.090619 -0.226596 0)
(-0.0712006 -0.214235 0)
(-0.0520041 -0.193902 0)
(-0.0340433 -0.165187 0)
(-0.0184685 -0.127988 0)
(-0.00680474 -0.0825664 0)
(-0.00109046 -0.0296338 0)
(-0.00101936 0.0313186 0)
(-0.00628275 0.0860573 0)
(-0.0169249 0.132117 0)
(-0.0310088 0.169224 0)
(-0.0471196 0.197536 0)
(-0.0642375 0.217513 0)
(-0.0815014 0.229832 0)
(-0.0982366 0.235295 0)
(-0.113965 0.234756 0)
(-0.128383 0.229064 0)
(-0.141326 0.219019 0)
(-0.152742 0.205345 0)
(-0.162655 0.18868 0)
(-0.171146 0.169572 0)
(-0.178322 0.148482 0)
(-0.184305 0.125791 0)
(-0.189211 0.101812 0)
(-0.193143 0.0768035 0)
(-0.196183 0.0509801 0)
(-0.198383 0.0245285 0)
(-0.199759 -0.00237956 0)
(-0.200293 -0.0295714 0)
(-0.199926 -0.0568588 0)
(-0.19856 -0.0840213 0)
(-0.196061 -0.11079 0)
(-0.19226 -0.136829 0)
(-0.186966 -0.161719 0)
(-0.179974 -0.184943 0)
(-0.17109 -0.205867 0)
(-0.16015 -0.22374 0)
(-0.147058 -0.237689 0)
(-0.131825 -0.246737 0)
(-0.114615 -0.24983 0)
(-0.0957869 -0.245892 0)
(-0.0759439 -0.233897 0)
(-0.0559546 -0.212966 0)
(-0.0369341 -0.182474 0)
(-0.0201937 -0.142152 0)
(-0.00750177 -0.0921734 0)
(-0.00121757 -0.033266 0)
(-0.00112639 0.03466 0)
(-0.00686178 0.0948111 0)
(-0.0183335 0.144904 0)
(-0.0333122 0.184693 0)
(-0.0501666 0.214468 0)
(-0.0677413 0.234887 0)
(-0.0850995 0.246848 0)
(-0.101545 0.251375 0)
(-0.116622 0.249524 0)
(-0.13008 0.242311 0)
(-0.141826 0.230668 0)
(-0.151888 0.215419 0)
(-0.16037 0.197266 0)
(-0.167426 0.176797 0)
(-0.173232 0.154489 0)
(-0.177966 0.130725 0)
(-0.181796 0.105807 0)
(-0.184866 0.0799677 0)
(-0.187288 0.053394 0)
(-0.189138 0.0262365 0)
(-0.190451 -0.00137221 0)
(-0.191217 -0.029302 0)
(-0.191378 -0.0574081 0)
(-0.190827 -0.0855137 0)
(-0.18941 -0.11339 0)
(-0.186926 -0.140738 0)
(-0.183138 -0.167162 0)
(-0.177777 -0.192154 0)
(-0.17057 -0.215067 0)
(-0.161256 -0.235106 0)
(-0.149633 -0.251313 0)
(-0.135597 -0.26258 0)
(-0.119205 -0.267669 0)
(-0.100733 -0.26527 0)
(-0.0807403 -0.254079 0)
(-0.0601178 -0.23292 0)
(-0.0400795 -0.200879 0)
(-0.0221189 -0.157454 0)
(-0.00829691 -0.102679 0)
(-0.00136642 -0.037282 0)
(-0.00125806 0.0383268 0)
(-0.00755469 0.104313 0)
(-0.0199791 0.158602 0)
(-0.0359285 0.200993 0)
(-0.0535026 0.231969 0)
(-0.0713912 0.252453 0)
(-0.0885843 0.263634 0)
(-0.104382 0.266813 0)
(-0.11838 0.263286 0)
(-0.130408 0.254263 0)
(-0.140473 0.240822 0)
(-0.148703 0.223883 0)
(-0.155299 0.204213 0)
(-0.160501 0.182429 0)
(-0.16456 0.159018 0)
(-0.167719 0.134352 0)
(-0.170194 0.108709 0)
(-0.172171 0.0822925 0)
(-0.173796 0.0552507 0)
(-0.175171 0.027691 0)
(-0.176347 -0.000300944 0)
(-0.177325 -0.0286449 0)
(-0.178051 -0.0572486 0)
(-0.178415 -0.0859884 0)
(-0.178247 -0.114689 0)
(-0.177318 -0.143098 0)
(-0.175348 -0.170865 0)
(-0.172006 -0.197507 0)
(-0.166933 -0.222384 0)
(-0.159766 -0.244672 0)
(-0.150172 -0.263344 0)
(-0.137909 -0.277162 0)
(-0.122889 -0.284693 0)
(-0.10526 -0.284359 0)
(-0.0854983 -0.274525 0)
(-0.0644826 -0.253636 0)
(-0.0435143 -0.220398 0)
(-0.0242876 -0.173977 0)
(-0.00921632 -0.114192 0)
(-0.00154373 -0.04174 0)
(-0.00142472 0.0423888 0)
(-0.0084042 0.114698 0)
(-0.0219408 0.173322 0)
(-0.038945 0.218147 0)
(-0.0571824 0.249935 0)
(-0.0751704 0.269975 0)
(-0.0918399 0.279836 0)
(-0.10652 0.281164 0)
(-0.118896 0.275542 0)
(-0.128919 0.264397 0)
(-0.136727 0.248956 0)
(-0.142573 0.230238 0)
(-0.146772 0.209058 0)
(-0.149661 0.186053 0)
(-0.151571 0.161702 0)
(-0.152807 0.136355 0)
(-0.153637 0.110256 0)
(-0.154286 0.0835682 0)
(-0.15493 0.0563921 0)
(-0.155694 0.0287856 0)
(-0.156648 0.000781195 0)
(-0.157806 -0.0275974 0)
(-0.159122 -0.0563171 0)
(-0.160485 -0.0853168 0)
(-0.161718 -0.114485 0)
(-0.162573 -0.143634 0)
(-0.162733 -0.17247 0)
(-0.161811 -0.200563 0)
(-0.159365 -0.227301 0)
(-0.154921 -0.25186 0)
(-0.148004 -0.273163 0)
(-0.138202 -0.289858 0)
(-0.125241 -0.300315 0)
(-0.109089 -0.302661 0)
(-0.0900771 -0.29487 0)
(-0.0690211 -0.274913 0)
(-0.0472794 -0.240992 0)
(-0.0267585 -0.191805 0)
(-0.0102975 -0.126841 0)
(-0.00175954 -0.0467152 0)
(-0.00164224 0.0469434 0)
(-0.00947199 0.126141 0)
(-0.0243251 0.189199 0)
(-0.042468 0.236159 0)
(-0.0612524 0.268199 0)
(-0.079016 0.287116 0)
(-0.0946641 0.294977 0)
(-0.107609 0.293859 0)
(-0.11768 0.285674 0)
(-0.125001 0.272083 0)
(-0.12988 0.254466 0)
(-0.132721 0.23392 0)
(-0.133968 0.211295 0)
(-0.134059 0.187223 0)
(-0.133405 0.162159 0)
(-0.132372 0.136413 0)
(-0.131271 0.110184 0)
(-0.130362 0.0835833 0)
(-0.129845 0.0566571 0)
(-0.129864 0.0294081 0)
(-0.130508 0.00181116 0)
(-0.131802 -0.0261706 0)
(-0.133712 -0.0545685 0)
(-0.136136 -0.08339 0)
(-0.138897 -0.112597 0)
(-0.141738 -0.142079 0)
(-0.14432 -0.171622 0)
(-0.146211 -0.200868 0)
(-0.146899 -0.229266 0)
(-0.145796 -0.256024 0)
(-0.14228 -0.280053 0)
(-0.135744 -0.299916 0)
(-0.125682 -0.313799 0)
(-0.111817 -0.31952 0)
(-0.0942573 -0.314604 0)
(-0.0736725 -0.296443 0)
(-0.0514201 -0.26257 0)
(-0.0296119 -0.211027 0)
(-0.0115954 -0.140792 0)
(-0.00202933 -0.0523073 0)
(-0.0019357 0.0521292 0)
(-0.0108486 0.138883 0)
(-0.0272751 0.206391 0)
(-0.046619 0.25499 0)
(-0.0657276 0.286486 0)
(-0.0827754 0.303389 0)
(-0.096709 0.308416 0)
(-0.107107 0.304164 0)
(-0.114023 0.29292 0)
(-0.117816 0.276583 0)
(-0.119001 0.256663 0)
(-0.118161 0.234315 0)
(-0.115874 0.210388 0)
(-0.112682 0.185485 0)
(-0.109067 0.16001 0)
(-0.105442 0.134217 0)
(-0.102154 0.108244 0)
(-0.0994835 0.0821399 0)
(-0.0976466 0.0558937 0)
(-0.0968013 0.0294484 0)
(-0.0970471 0.0027194 0)
(-0.0984247 -0.0243915 0)
(-0.100913 -0.0519816 0)
(-0.104425 -0.0801301 0)
(-0.108797 -0.108879 0)
(-0.11378 -0.138205 0)
(-0.119029 -0.167991 0)
(-0.12409 -0.197976 0)
(-0.128396 -0.227706 0)
(-0.131267 -0.256467 0)
(-0.131931 -0.283202 0)
(-0.129573 -0.306442 0)
(-0.123415 -0.324228 0)
(-0.112861 -0.334077 0)
(-0.0976916 -0.333023 0)
(-0.0783135 -0.317759 0)
(-0.055977 -0.284952 0)
(-0.032956 -0.231718 0)
(-0.0131922 -0.156254 0)
(-0.00237795 -0.0586538 0)
(-0.00234621 0.0581466 0)
(-0.0126693 0.153237 0)
(-0.03098 0.225067 0)
(-0.0515195 0.274513 0)
(-0.0705433 0.304352 0)
(-0.0861284 0.318092 0)
(-0.097385 0.319288 0)
(-0.104183 0.31115 0)