/*--------------------------------*- C++ -*----------------------------------*\
  =========                 |
  \\      /  F ield         | OpenFOAM: The Open Source CFD Toolbox
   \\    /   O peration     | Website:  https://openfoam.org
    \\  /    A nd           | Version:  7
     \\/     M anipulation  |
\*---------------------------------------------------------------------------*/
FoamFile
{
    version     2.0;
    format      ascii;
    class       volScalarField;
    location    "0.08";
    object      p;
}
// * * * * * * * * * * * * * * * * * * * * * * * * * * * * * * * * * * * * * //

dimensions      [0 2 -2 0 0 0 0];

internalField   nonuniform List<scalar> 
1600
(
7.63793e-09
-0.00115462
-0.00379361
-0.00733112
-0.0111194
-0.0146822
-0.0176737
-0.0198492
-0.0210465
-0.0211695
-0.0201744
-0.0180597
-0.0148584
-0.0106322
-0.00546629
0.000534376
0.00724827
0.0145398
0.022262
0.0302581
0.0383645
0.0464134
0.0542352
0.0616624
0.0685322
0.0746904
0.079996
0.084326
0.0875805
0.0896892
0.0906174
0.090372
0.0890099
0.0866471
0.0834702
0.0797494
0.0758532
0.0722757
0.0696667
0.0685779
0.00115261
5.92689e-06
-0.0021299
-0.00487018
-0.00778744
-0.0105292
-0.0128198
-0.0144525
-0.0152813
-0.0152135
-0.0142011
-0.0122335
-0.00933176
-0.00554296
-0.000936735
0.00439846
0.0103583
0.0168248
0.0236691
0.0307535
0.0379334
0.0450607
0.0519868
0.0585646
0.0646525
0.0701171
0.0748381
0.078712
0.0816574
0.0836202
0.0845781
0.0845465
0.0835839
0.0817991
0.079357
0.0764844
0.0734745
0.0706927
0.0685739
0.0674908
0.00381203
0.00214808
-1.56779e-05
-0.00247466
-0.00499391
-0.00731224
-0.00921263
-0.0105283
-0.0111369
-0.010957
-0.00994459
-0.00808768
-0.00540185
-0.00192617
0.00227972
0.0071385
0.0125581
0.0184337
0.0246498
0.0310824
0.0376013
0.0440732
0.0503643
0.0563426
0.0618809
0.0668601
0.0711733
0.0747296
0.0774584
0.079314
0.0802795
0.0803708
0.0796416
0.0781872
0.0761472
0.0737068
0.0710993
0.0685987
0.066456
0.0648781
0.00745914
0.00493826
0.00239151
-0.000137973
-0.00258947
-0.00476889
-0.00650666
-0.00767445
-0.00817664
-0.0079481
-0.00695377
-0.00518512
-0.00265714
0.000594332
0.00451525
0.00903567
0.014072
0.0195288
0.0253003
0.0312727
0.0373267
0.0433398
0.0491889
0.0547521
0.0599121
0.064559
0.0685942
0.0719338
0.0745124
0.076287
0.0772405
0.0773846
0.0767636
0.0754561
0.0735757
0.0712702
0.0687265
0.0661536
0.0636362
0.0612298
0.0115159
0.00799588
0.00489631
0.00211939
-0.000435682
-0.00262836
-0.00432885
-0.00544463
-0.00590648
-0.00566759
-0.00470389
-0.00301291
-0.000611777
0.00246452
0.00616509
0.0104251
0.0151673
0.0203032
0.025735
0.0313573
0.0370592
0.0427269
0.0482453
0.0535003
0.0583815
0.0627853
0.0666184
0.0698005
0.072268
0.0739776
0.0749086
0.0750661
0.0744828
0.0732201
0.0713663
0.0690352
0.066376
0.0635477
0.0604821
0.0571014
0.0155686
0.0110063
0.00726258
0.00412295
0.0013455
-0.000970709
-0.00272807
-0.00386561
-0.00433839
-0.00411754
-0.00319121
-0.00156446
0.000741543
0.00369084
0.00723377
0.0113085
0.0158422
0.0207515
0.0259444
0.0313221
0.0367804
0.0422115
0.0475064
0.0525559
0.0572543
0.0615017
0.0652069
0.0682906
0.0706883
0.0723535
0.0732601
0.0734045
0.0728069
0.0715118
0.0695845
0.0671098
0.064208
0.0610017
0.0572896
0.0528847
0.0193198
0.0137178
0.00928287
0.00570544
0.00262251
0.000102909
-0.00178094
-0.00299479
-0.0035158
-0.00333138
-0.00244196
-0.000861201
0.00138446
0.00425663
0.00770543
0.0116703
0.0160806
0.0208566
0.0259107
0.0311486
0.0364706
0.0417731
0.0469507
0.0518973
0.0565091
0.0606875
0.0643411
0.0673889
0.069763
0.0714118
0.0723019
0.0724196
0.0717724
0.0703888
0.068314
0.065609
0.0623736
0.0587057
0.0542915
0.0488559
0.0225457
0.0159242
0.0107785
0.00671928
0.00327844
0.000503515
-0.00155257
-0.00287783
-0.00346856
-0.00332733
-0.00246651
-0.000908486
0.00131446
0.00416035
0.00757765
0.0115056
0.0158747
0.0206072
0.0256184
0.0308167
0.0361054
0.0413831
0.0465459
0.051489
0.0561085
0.0603047
0.0639839
0.0670612
0.0694633
0.0711317
0.0720241
0.072116
0.0714021
0.0698959
0.0676252
0.0646323
0.0610029
0.0568202
0.0516736
0.045216
0.0250713
0.0174525
0.0115903
0.00702561
0.00319639
0.000135079
-0.00211949
-0.00357434
-0.00424238
-0.00414015
-0.00329128
-0.00172677
0.000514817
0.00338717
0.00683604
0.0107995
0.0152079
0.0199846
0.025046
0.0303024
0.0356578
0.041012
0.0462608
0.0512987
0.0560203
0.0603226
0.0641076
0.0672848
0.0697737
0.0715068
0.072432
0.0725131
0.0717322
0.0700885
0.0675949
0.0642785
0.0602169
0.0554853
0.0495877
0.0421152
0.0267519
0.0181519
0.0115724
0.00649057
0.00225748
-0.00110541
-0.0035696
-0.00515817
-0.005899
-0.00582143
-0.00495959
-0.00335296
-0.00104675
0.00190779
0.00545305
0.00952504
0.0140534
0.0189613
0.0241656
0.0295765
0.0350981
0.0406294
0.0460652
0.0512976
0.0562177
0.0607181
0.0646944
0.0680486
0.0706913
0.0725449
0.0735457
0.0736451
0.0728121
0.0710327
0.0683064
0.0646482
0.060131
0.0548274
0.048163
0.0396729
0.0274589
0.0178847
0.0105872
0.00498332
0.000340803
-0.00332676
-0.00599923
-0.00771386
-0.00851222
-0.00843534
-0.00752739
-0.00583637
-0.00341447
-0.000318265
0.00339083
0.00764637
0.0123765
0.0175034
0.0229432
0.0286053
0.0343929
0.0402031
0.0459285
0.0514577
0.0566769
0.0614724
0.0657321
0.0693487
0.0722223
0.0742635
0.0753955
0.0755564
0.0747013
0.0728031
0.0698491
0.0658437
0.0608582
0.0549657
0.0475166
0.0379925
0.0270689
0.0165175
0.0084997
0.0023726
-0.00267757
-0.00664376
-0.00951306
-0.0113358
-0.0121664
-0.0120569
-0.0110616
-0.00923719
-0.00664304
-0.00334124
0.000602735
0.00511953
0.0101351
0.0155702
0.0213393
0.0273504
0.0335051
0.0396981
0.0458187
0.0517509
0.0573749
0.0625691
0.0672123
0.0711864
0.0743793
0.0766878
0.0780206
0.0783006
0.0774683
0.075483
0.0723196
0.067973
0.0625142
0.0560193
0.0477629
0.0371734
0.0254567
0.0139159
0.00517255
-0.00147646
-0.0069271
-0.0111785
-0.0142244
-0.0161278
-0.0169555
-0.0167712
-0.0156392
-0.0136254
-0.0107963
-0.00721977
-0.00296564
0.00189341
0.00728077
0.013115
0.0193089
0.0257689
0.0323941
0.0390768
0.0457019
0.0521482
0.0582888
0.0639933
0.0691299
0.0735679
0.0771811
0.0798507
0.0814687
0.0819411
0.0811922
0.0791662
0.0758248
0.0711531
0.0652225
0.0581132
0.0490215
0.0373205
0.0224908
0.00993935
0.000462289
-0.00670569
-0.0125453
-0.0170618
-0.0202555
-0.0222027
-0.0229831
-0.0226725
-0.0213463
-0.0190793
-0.0159457
-0.0120195
-0.00737524
-0.0020892
0.00375914
0.0100861
0.0168028
0.0238137
0.031016
0.0382985
0.0455422
0.0526194
0.0593958
0.065731
0.0714814
0.0765023
0.0806511
0.0837913
0.0857956
0.086551
0.0859627
0.083958
0.0804836
0.0755132
0.0691189
0.0613849
0.0514239
0.0385506
0.0180294
0.00443777
-0.00578458
-0.0134674
-0.01968
-0.0244345
-0.0277387
-0.029683
-0.0303619
-0.0298641
-0.0282765
-0.025684
-0.0221689
-0.0178116
-0.0126919
-0.00688996
-0.000488071
0.00642816
0.0137682
0.0214351
0.0293239
0.0373205
0.0453012
0.0531325
0.0606716
0.0677679
0.0742646
0.0800012
0.0848168
0.0885544
0.0910649
0.0922127
0.0918812
0.0899772
0.0864295
0.0811987
0.0743559
0.0659887
0.0551192
0.0409989
0.0119162
-0.00275326
-0.0137353
-0.0219273
-0.0284919
-0.0334496
-0.0368172
-0.0387016
-0.0392136
-0.0384563
-0.0365297
-0.0335294
-0.0295471
-0.0246703
-0.0189841
-0.0125728
-0.00552091
0.00208424
0.0101511
0.0185816
0.0272693
0.0360977
0.044939
0.0536537
0.062091
0.0700892
0.0774773
0.0840775
0.0897086
0.0941899
0.0973473
0.0990188
0.0990616
0.0973578
0.0938145
0.0883752
0.0811081
0.0721023
0.0602806
0.0448255
0.00397709
-0.0118159
-0.0235748
-0.0322677
-0.0391572
-0.0442741
-0.0476469
-0.0494017
-0.0496679
-0.0485656
-0.0462095
-0.0427081
-0.0381632
-0.0326703
-0.0263202
-0.0192006
-0.0113983
-0.00300137
0.00589825
0.0152024
0.024804
0.034585
0.0444147
0.0541485
0.0636276
0.0726791
0.0811173
0.0887455
0.0953596
0.100753
0.104722
0.107073
0.107633
0.106253
0.102812
0.0972338
0.0895778
0.0799333
0.0671117
0.0502213
-0.00598273
-0.0229539
-0.0355092
-0.0446913
-0.0518705
-0.0570914
-0.0603969
-0.0619363
-0.0618614
-0.0603123
-0.0574213
-0.0533121
-0.048098
-0.0418831
-0.0347639
-0.0268315
-0.0181741
-0.00887976
0.000960478
0.0112497
0.0218818
0.0327388
0.0436884
0.0545822
0.0652544
0.0755213
0.0851819
0.0940197
0.101806
0.108303
0.113275
0.116491
0.11774
0.116836
0.113623
0.107995
0.100001
0.0897251
0.0758542
0.0574147
-0.0181827
-0.0363974
-0.0497711
-0.0594259
-0.0668492
-0.0721032
-0.0752504
-0.0764683
-0.0759359
-0.0738183
-0.0702691
-0.0654294
-0.0594257
-0.0523717
-0.0443697
-0.0355137
-0.0258924
-0.0155927
-0.00470285
0.00668332
0.0184629
0.0305201
0.0427233
0.0549222
0.0669453
0.0785995
0.0896686
0.0999154
0.109084
0.116905
0.123102
0.127402
0.129547
0.129305
0.126477
0.120917
0.112655
0.101765
0.0867949
0.0666795
-0.032872
-0.0524095
-0.0666265
-0.0767299
-0.0843367
-0.0895324
-0.0924055
-0.0931691
-0.0920367
-0.089204
-0.0848506
-0.0791379
-0.0722079
-0.0641845
-0.0551762
-0.0452792
-0.0345815
-0.0231668
-0.0111184
0.0014756
0.0145182
0.0278988
0.0414893
0.0551401
0.0686769
0.0818985
0.094575
0.106448
0.117234
0.126626
0.134305
0.139946
0.143236
0.143886
0.141639
0.136298
0.127865
0.116395
0.100276
0.0783435
-0.0503365
-0.071294
-0.0863823
-0.0968993
-0.104608
-0.109626
-0.112076
-0.112218
-0.11031
-0.106584
-0.101251
-0.0944988
-0.0864859
-0.0773477
-0.0671988
-0.0561365
-0.0442464
-0.0316063
-0.0182921
-0.00438249
0.0100348
0.0248583
0.039967
0.0552157
0.0704308
0.0854059
0.0998997
0.113634
0.126296
0.137539
0.146995
0.15428
0.159013
0.160835
0.159415
0.154489
0.146016
0.134022
0.116708
0.0928002
-0.0709083
-0.0934072
-0.109398
-0.120277
-0.127977
-0.132658
-0.134494
-0.133802
-0.130896
-0.126058
-0.119537
-0.111548
-0.102272
-0.0918563
-0.0804204
-0.0680617
-0.0548603
-0.0408855
-0.0262016
-0.0108743
0.00502271
0.0214012
0.0381523
0.0551402
0.0721964
0.089114
0.105644
0.12149
0.13631
0.149718
0.161289
0.170572
0.177107
0.180443
0.180159
0.175901
0.167567
0.155133
0.136585
0.110523
-0.0949789
-0.119174
-0.1361
-0.147267
-0.154805
-0.158938
-0.159906
-0.158108
-0.153928
-0.147708
-0.139744
-0.130287
-0.11954
-0.107664
-0.0947817
-0.0809885
-0.0663557
-0.0509395
-0.0347883
-0.01795
-0.000479169
0.017555
0.0360617
0.0549204
0.073974
0.0930211
0.111809
0.13003
0.147315
0.163236
0.177308
0.189003
0.197767
0.203039
0.20428
0.20102
0.193063
0.180316
0.160505
0.132085
-0.123019
-0.14911
-0.167006
-0.178349
-0.185512
-0.18881
-0.188579
-0.185322
-0.179516
-0.171579
-0.161866
-0.150667
-0.13821
-0.124669
-0.110169
-0.094798
-0.078614
-0.0616554
-0.0439494
-0.0255198
-0.00639625
0.0133778
0.0337364
0.0545821
0.0757769
0.0971328
0.118402
0.13927
0.159347
0.178163
0.195173
0.209763
0.221266
0.228992
0.23225
0.230414
0.22316
0.210285
0.189197
0.158184
-0.15561
-0.183857
-0.202754
-0.214104
-0.220591
-0.222662
-0.220789
-0.215615
-0.207739
-0.197672
-0.185839
-0.172575
-0.158136
-0.142705
-0.126403
-0.109307
-0.0914565
-0.0728645
-0.0535304
-0.0334475
-0.0126131
0.00896253
0.0312465
0.0541733
0.0776334
0.101462
0.125428
0.149218
0.172429
0.194557
0.214997
0.233041
0.247896
0.258713
0.264612
0.264759
0.25865
0.245915
0.223563
0.189678
-0.193483
-0.224228
-0.244145
-0.255245
-0.260624
-0.260927
-0.256819
-0.249132
-0.238622
-0.225916
-0.21152
-0.195817
-0.179088
-0.161519
-0.143225
-0.12426
-0.104636
-0.0843347
-0.0633199
-0.041546
-0.01897
0.00443964
0.0286923
0.0537641
0.0795856
0.106028
0.132887
0.159868
0.186567
0.212457
0.236874
0.259017
0.277956
0.29265
0.301982
0.304851
0.300492
0.28829
0.264731
0.227638
-0.237591
-0.271284
-0.292205
-0.302653
-0.306298
-0.304081
-0.296942
-0.285969
-0.272115
-0.256148
-0.238662
-0.220091
-0.200732
-0.180765
-0.160285
-0.139315
-0.117829
-0.095767
-0.073047
-0.0495763
-0.0252625
-2.329e-05
0.0262028
0.0534449
0.0816861
0.110848
0.140771
0.171196
0.201736
0.231859
0.260858
0.287844
0.311736
0.331278
0.345061
0.351632
0.349863
0.33877
0.314134
0.273421
-0.289207
-0.326441
-0.34827
-0.357435
-0.358426
-0.352637
-0.341398
-0.326135
-0.308051
-0.288072
-0.266886
-0.244966
-0.222611
-0.199981
-0.177133
-0.154044
-0.130637
-0.106796
-0.0823839
-0.0572509
-0.0312461
-0.00422703
0.0239301
0.0533191
0.0839894
0.115929
0.149046
0.183135
0.217858
0.2527
0.286938
0.31961
0.349488
0.375077
0.39462
0.406205
0.408206
0.399081
0.373626
0.328783
-0.350091
-0.391632
-0.414113
-0.420985
-0.41796
-0.407121
-0.390347
-0.369506
-0.346096
-0.321218
-0.295639
-0.26985
-0.244129
-0.218586
-0.193218
-0.167934
-0.142588
-0.116997
-0.0909545
-0.0642442
-0.0366476
-0.00795277
0.0220362
0.0534894
0.0865374
0.121254
0.157634
0.195561
0.234774
0.274818
0.314992
0.354295
0.391376
0.424491
0.451478
0.469853
0.477298
0.471448
0.445664
0.396062
-0.422768
-0.469578
-0.492119
-0.495056
-0.485985
-0.468019
-0.443797
-0.415741
-0.385682
-0.354882
-0.324156
-0.29397
-0.264533
-0.235871
-0.207884
-0.18039
-0.153152
-0.125901
-0.0983524
-0.0702118
-0.0411846
-0.010982
0.0206732
0.0540381
0.0893384
0.126753
0.16639
0.208254
0.252206
0.297903
0.344726
0.391698
0.437394
0.479845
0.516451
0.544027
0.559329
0.558774
0.533578
0.478469
-0.511001
-0.564191
-0.58552
-0.581837
-0.563671
-0.535669
-0.501476
-0.464166
-0.425903
-0.388057
-0.351414
-0.316339
-0.282908
-0.251004
-0.220392
-0.19076
-0.161761
-0.133023
-0.104168
-0.0748174
-0.0445933
-0.0131239
0.0199557
0.0549984
0.0923382
0.132277
0.175063
0.220861
0.269705
0.321431
0.375591
0.431329
0.487244
0.54122
0.590235
0.630298
0.656964
0.664888
0.642009
0.580608
-0.620655
-0.681237
-0.698718
-0.683977
-0.652146
-0.610066
-0.562633
-0.513609
-0.465402
-0.419355
-0.376088
-0.335748
-0.298179
-0.263052
-0.229939
-0.198368
-0.167849
-0.137895
-0.108025
-0.0777692
-0.0466633
-0.0142495
0.0199279
0.0563232
0.0953873
0.137561
0.183259
0.232845
0.286587
0.344586
0.406673
0.472262
0.540146
0.608234
0.673193
0.730208
0.77337
0.79486
0.777592
0.709394
-0.761339
-0.829387
-0.837642
-0.804501
-0.752195
-0.690518
-0.625741
-0.562174
-0.502218
-0.446925
-0.396524
-0.350767
-0.309143
-0.271017
-0.235712
-0.202555
-0.170895
-0.140114
-0.109625
-0.0788614
-0.0472764
-0.0143277
0.0205296
0.057851
0.0982081
0.142191
0.190403
0.243443
0.301875
0.366162
0.43656
0.512949
0.594585
0.679707
0.764984
0.84495
0.91211
0.95537
0.950047
0.875817
-0.949728
-1.0219
-1.01002
-0.946376
-0.863619
-0.775046
-0.688037
-0.606943
-0.533621
-0.46838
-0.410724
-0.359776
-0.314511
-0.273894
-0.236942
-0.202747
-0.170482
-0.139395
-0.10879
-0.0780151
-0.0464442
-0.0134594
0.0215647
0.0592776
0.100368
0.145576
0.195705
0.251619
0.314235
0.384475
0.463185
0.550974
0.647929
0.753141
0.863892
0.97466
1.07666
1.15494
1.17391
1.0985
-1.21632
-1.27904
-1.22496
-1.11114
-0.983828
-0.85927
-0.744771
-0.643532
-0.555891
-0.480725
-0.416361
-0.361012
-0.312981
-0.270745
-0.232972
-0.198507
-0.166346
-0.135609
-0.105507
-0.0753118
-0.0443362
-0.0119023
0.0226798
0.0601377
0.101262
0.146932
0.198145
0.256043
0.321927
0.397268
0.483664
0.582743
0.695913
0.82387
0.965597
1.11686
1.2689
1.40343
1.47097
1.4108
-1.61709
-1.63049
-1.49117
-1.29651
-1.10584
-0.935094
-0.788519
-0.665836
-0.564318
-0.480478
-0.410941
-0.352742
-0.303388
-0.260824
-0.223364
-0.189622
-0.15844
-0.128836
-0.0999522
-0.0710119
-0.0412882
-0.0100682
0.0233779
0.0598295
0.100151
0.145332
0.196538
0.255162
0.322893
0.401783
0.494309
0.603386
0.732291
0.884305
1.06179
1.26437
1.48657
1.71004
1.87224
1.87236
-2.25408
-2.11559
-1.81342
-1.4944
-1.21753
-0.990767
-0.809788
-0.66691
-0.554127
-0.464518
-0.392535
-0.333863
-0.285186
-0.243953
-0.208183
-0.176313
-0.147087
-0.119465
-0.092558
-0.0655764
-0.0377862
-0.00846992
0.0231097
0.0577482
0.0963432
0.139947
0.189835
0.247593
0.315231
0.395343
0.491297
0.607471
0.749487
0.924329
1.14006
1.40439
1.72105
2.07942
2.41775
2.58882
-3.35598
-2.78284
-2.17269
-1.67601
-1.29284
-1.00613
-0.794671
-0.637886
-0.519992
-0.429843
-0.359608
-0.303742
-0.258286
-0.220366
-0.187847
-0.159102
-0.132861
-0.108091
-0.0839266
-0.059607
-0.0344291
-0.00770739
0.0212644
0.0532545
0.0891402
0.129969
0.177036
0.232002
0.297052
0.375132
0.470308
0.588286
0.737145
0.928388
1.17835
1.50862
1.94122
2.49119
3.15771
3.79456
-5.52253
-3.65927
-2.4309
-1.71454
-1.24223
-0.922384
-0.705569
-0.554769
-0.446351
-0.366082
-0.305028
-0.257336
-0.219051
-0.187418
-0.160448
-0.136658
-0.114903
-0.0942636
-0.0739735
-0.0533612
-0.0318086
-0.00871201
0.0165502
0.0446573
0.0763885
0.112681
0.154709
0.203995
0.262587
0.333331
0.420311
0.529598
0.670481
0.857751
1.11597
1.48437
2.01639
2.80544
4.12193
6.09343
-9.20999
-4.51831
-2.3061
-1.42149
-0.95936
-0.683513
-0.513052
-0.401534
-0.323967
-0.26751
-0.224972
-0.191922
-0.165459
-0.14358
-0.124837
-0.108142
-0.0926439
-0.0776551
-0.0625941
-0.046948
-0.0302409
-0.012009
0.00822882
0.0309947
0.0568848
0.086611
0.121057
0.161364
0.209053
0.266238
0.335985
0.422961
0.534719
0.684548
0.898085
1.2246
1.75431
2.73327
5.06032
9.87246
)
;

boundaryField
{
    movingWall
    {
        type            zeroGradient;
    }
    fixedWalls
    {
        type            zeroGradient;
    }
    frontAndBack
    {
        type            empty;
    }
}


// ************************************************************************* //
