/*--------------------------------*- C++ -*----------------------------------*\
  =========                 |
  \\      /  F ield         | OpenFOAM: The Open Source CFD Toolbox
   \\    /   O peration     | Website:  https://openfoam.org
    \\  /    A nd           | Version:  7
     \\/     M anipulation  |
\*---------------------------------------------------------------------------*/
FoamFile
{
    version     2.0;
    format      ascii;
    class       volVectorField;
    location    "0.08";
    object      U;
}
// * * * * * * * * * * * * * * * * * * * * * * * * * * * * * * * * * * * * * //

dimensions      [0 1 -1 0 0 0 0];

internalField   nonuniform List<vector> 
1600
(
(5.88262e-05 -5.84775e-05 0)
(0.000150798 -5.44769e-05 0)
(0.000149966 -5.51488e-06 0)
(2.19115e-06 5.20001e-05 0)
(-0.000299893 0.000105501 0)
(-0.000740218 0.000150645 0)
(-0.00129509 0.000186112 0)
(-0.00193848 0.000211941 0)
(-0.00264411 0.000228693 0)
(-0.00338656 0.000237087 0)
(-0.00414198 0.000237889 0)
(-0.00488826 0.000231834 0)
(-0.00560529 0.000219659 0)
(-0.00627496 0.000202084 0)
(-0.00688125 0.000179799 0)
(-0.00741019 0.000153474 0)
(-0.00784991 0.000123757 0)
(-0.00819063 9.1307e-05 0)
(-0.0084247 5.67916e-05 0)
(-0.00854668 2.0884e-05 0)
(-0.00855338 -1.57079e-05 0)
(-0.00844394 -5.22445e-05 0)
(-0.00821993 -8.79608e-05 0)
(-0.00788544 -0.000122049 0)
(-0.00744716 -0.000153667 0)
(-0.00691445 -0.000181956 0)
(-0.00629936 -0.000206034 0)
(-0.00561663 -0.000225006 0)
(-0.00488362 -0.00023799 0)
(-0.0041202 -0.000244142 0)
(-0.00334852 -0.000242668 0)
(-0.00259271 -0.000232838 0)
(-0.00187848 -0.00021402 0)
(-0.00123252 -0.000185733 0)
(-0.000681673 -0.000147766 0)
(-0.000251529 -0.000100501 0)
(3.58684e-05 -4.57291e-05 0)
(0.000167462 1.15294e-05 0)
(0.000155284 5.80491e-05 0)
(5.85781e-05 5.83352e-05 0)
(5.72014e-05 -0.000151757 0)
(6.99733e-05 -6.52517e-05 0)
(-0.000175245 0.000180146 0)
(-0.000753706 0.000465426 0)
(-0.00167836 0.000739772 0)
(-0.00292286 0.000979416 0)
(-0.00444016 0.0011736 0)
(-0.00617268 0.00131857 0)
(-0.00805879 0.0014143 0)
(-0.0100365 0.00146262 0)
(-0.0120456 0.00146642 0)
(-0.0140292 0.00142914 0)
(-0.0159349 0.00135454 0)
(-0.0177148 0.00124655 0)
(-0.0193262 0.00110917 0)
(-0.0207317 0.000946449 0)
(-0.0218996 0.000762497 0)
(-0.0228036 0.000561474 0)
(-0.0234235 0.000347642 0)
(-0.0237447 0.000125378 0)
(-0.0237592 -0.000100798 0)
(-0.0234648 -0.000326197 0)
(-0.0228664 -0.000545967 0)
(-0.0219753 -0.000755099 0)
(-0.0208098 -0.000948449 0)
(-0.0193951 -0.00112079 0)
(-0.0177635 -0.0012669 0)
(-0.0159543 -0.00138163 0)
(-0.0140129 -0.00146003 0)
(-0.0119912 -0.00149756 0)
(-0.00994627 -0.0014902 0)
(-0.00793929 -0.00143469 0)
(-0.00603437 -0.00132887 0)
(-0.00429629 -0.00117208 0)
(-0.00278772 -0.00096606 0)
(-0.00156499 -0.00071655 0)
(-0.000671715 -0.000436545 0)
(-0.000128074 -0.000152204 0)
(8.7488e-05 8.38112e-05 0)
(5.96389e-05 0.000155691 0)
(1.15464e-05 -0.000157694 0)
(-0.000166295 0.000175895 0)
(-0.000779854 0.000794173 0)
(-0.00187339 0.00149391 0)
(-0.00344675 0.00217277 0)
(-0.00546452 0.00277405 0)
(-0.00786366 0.00326763 0)
(-0.0105652 0.00363982 0)
(-0.0134825 0.00388665 0)
(-0.0165267 0.00401013 0)
(-0.0196102 0.00401579 0)
(-0.0226491 0.00391141 0)
(-0.025565 0.00370615 0)
(-0.0282862 0.00341001 0)
(-0.0307483 0.00303354 0)
(-0.0328947 0.00258764 0)
(-0.0346771 0.00208352 0)
(-0.0360557 0.00153268 0)
(-0.0369998 0.000946897 0)
(-0.0374877 0.000338325 0)
(-0.037507 -0.000280504 0)
(-0.0370552 -0.000896649 0)
(-0.0361397 -0.00149677 0)
(-0.0347782 -0.00206719 0)
(-0.0329986 -0.00259393 0)
(-0.0308395 -0.00306294 0)
(-0.0283498 -0.00346029 0)
(-0.0255885 -0.00377243 0)
(-0.0226239 -0.00398661 0)
(-0.0195332 -0.00409131 0)
(-0.0164007 -0.00407683 0)
(-0.0133162 -0.00393591 0)
(-0.0103728 -0.00366474 0)
(-0.00766291 -0.0032643 0)
(-0.00527469 -0.0027425 0)
(-0.00328566 -0.00211778 0)
(-0.00175434 -0.00142535 0)
(-0.000708603 -0.000726738 0)
(-0.000137532 -0.000127675 0)
(1.65967e-05 0.000173292 0)
(-4.36233e-05 -2.1639e-05 0)
(-0.000449406 0.000747385 0)
(-0.00148732 0.00188745 0)
(-0.00314097 0.00313235 0)
(-0.00538152 0.00433261 0)
(-0.00815902 0.00539763 0)
(-0.0113947 0.0062748 0)
(-0.0149918 0.00693734 0)
(-0.0188439 0.00737518 0)
(-0.0228415 0.00758917 0)
(-0.0268754 0.00758733 0)
(-0.0308408 0.00738235 0)
(-0.0346387 0.00699003 0)
(-0.0381783 0.00642821 0)
(-0.0413775 0.00571611 0)
(-0.0441642 0.0048739 0)
(-0.0464768 0.00392251 0)
(-0.0482644 0.00288354 0)
(-0.0494877 0.00177924 0)
(-0.050119 0.000632524 0)
(-0.0501427 -0.000532958 0)
(-0.0495558 -0.00169283 0)
(-0.048368 -0.00282205 0)
(-0.046602 -0.00389498 0)
(-0.0442939 -0.00488563 0)
(-0.0414928 -0.00576795 0)
(-0.0382612 -0.00651626 0)
(-0.0346739 -0.00710586 0)
(-0.0308177 -0.00751372 0)
(-0.0267896 -0.00771938 0)
(-0.0226956 -0.00770605 0)
(-0.018648 -0.00746195 0)
(-0.0147622 -0.00698209 0)
(-0.0111525 -0.00627064 0)
(-0.00792725 -0.00534445 0)
(-0.00518206 -0.00423839 0)
(-0.00299086 -0.00301355 0)
(-0.00139516 -0.00176859 0)
(-0.000410696 -0.000658364 0)
(-3.62119e-05 5.50078e-05 0)
(-9.70757e-05 0.000269217 0)
(-0.000736911 0.00167825 0)
(-0.00221766 0.00348649 0)
(-0.00444943 0.00538875 0)
(-0.00736447 0.0071997 0)
(-0.0108925 0.00879953 0)
(-0.0149367 0.0101146 0)
(-0.0193826 0.0111047 0)
(-0.0241063 0.0117531 0)
(-0.028981 0.0120587 0)
(-0.03388 0.0120321 0)
(-0.0386814 0.0116912 0)
(-0.0432698 0.0110592 0)
(-0.047539 0.010163 0)
(-0.0513927 0.00903214 0)
(-0.0547464 0.00769771 0)
(-0.0575274 0.0061924 0)
(-0.0596762 0.00455002 0)
(-0.0611464 0.00280551 0)
(-0.0619055 0.000994899 0)
(-0.0619352 -0.000844649 0)
(-0.0612319 -0.00267489 0)
(-0.0598071 -0.00445659 0)
(-0.0576876 -0.0061497 0)
(-0.0549157 -0.00771373 0)
(-0.0515492 -0.00910826 0)
(-0.0476609 -0.0102936 0)
(-0.0433387 -0.0112319 0)
(-0.0386836 -0.0118879 0)
(-0.0338092 -0.0122308 0)
(-0.0288388 -0.0122359 0)
(-0.0239028 -0.0118863 0)
(-0.0191353 -0.0111761 0)
(-0.0146693 -0.0101134 0)
(-0.0106314 -0.00872488 0)
(-0.00713557 -0.00706261 0)
(-0.00427389 -0.00521274 0)
(-0.00210763 -0.00330693 0)
(-0.000689436 -0.00153923 0)
(-8.75411e-05 -0.000212972 0)
(-0.000145822 0.00070876 0)
(-0.00101291 0.00296979 0)
(-0.0029349 0.00559917 0)
(-0.0057458 0.0082714 0)
(-0.00933394 0.0107764 0)
(-0.0136041 0.0129717 0)
(-0.0184383 0.0147664 0)
(-0.0237031 0.0161086 0)
(-0.0292578 0.0169753 0)
(-0.0349594 0.0173645 0)
(-0.0406662 0.0172893 0)
(-0.0462417 0.0167736 0)
(-0.0515571 0.0158489 0)
(-0.0564935 0.0145522 0)
(-0.0609433 0.0129245 0)
(-0.0648118 0.0110095 0)
(-0.0680179 0.00885314 0)
(-0.0704945 0.00650313 0)
(-0.0721898 0.00400892 0)
(-0.0730673 0.00142153 0)
(-0.0731063 -0.00120647 0)
(-0.0723028 -0.00382099 0)
(-0.0706692 -0.00636662 0)
(-0.0682355 -0.0087869 0)
(-0.0650485 -0.0110248 0)
(-0.0611727 -0.0130237 0)
(-0.0566895 -0.0147279 0)
(-0.0516964 -0.0160845 0)
(-0.0463067 -0.0170447 0)
(-0.0406469 -0.017566 0)
(-0.034855 -0.0176143 0)
(-0.0290773 -0.0171673 0)
(-0.0234644 -0.0162173 0)
(-0.0181668 -0.0147761 0)
(-0.0133296 -0.0128799 0)
(-0.00908664 -0.0105965 0)
(-0.00555163 -0.0080341 0)
(-0.00281046 -0.0053518 0)
(-0.000957923 -0.00277288 0)
(-0.000134367 -0.000625126 0)
(-0.000189819 0.00128715 0)
(-0.00127349 0.00461156 0)
(-0.00362633 0.00821931 0)
(-0.00700889 0.0117765 0)
(-0.0112639 0.0150576 0)
(-0.016268 0.0179047 0)
(-0.0218796 0.0202137 0)
(-0.0279445 0.0219244 0)
(-0.0343046 0.0230095 0)
(-0.040801 0.0234672 0)
(-0.0472782 0.0233145 0)
(-0.0535868 0.022582 0)
(-0.0595863 0.0213109 0)
(-0.0651475 0.0195491 0)
(-0.0701533 0.0173504 0)
(-0.0745011 0.0147723 0)
(-0.0781025 0.0118751 0)
(-0.0808848 0.00872203 0)
(-0.0827917 0.00537837 0)
(-0.0837832 0.00191154 0)
(-0.0838367 -0.00160897 0)
(-0.0829473 -0.00511175 0)
(-0.0811281 -0.00852364 0)
(-0.0784108 -0.0117702 0)
(-0.0748457 -0.0147763 0)
(-0.0705022 -0.0174672 0)
(-0.065468 -0.0197698 0)
(-0.0598487 -0.0216146 0)
(-0.0537672 -0.0229375 0)
(-0.0473612 -0.0236827 0)
(-0.0407816 -0.0238058 0)
(-0.0341889 -0.0232772 0)
(-0.0277499 -0.0220868 0)
(-0.0216326 -0.0202483 0)
(-0.0160017 -0.0178058 0)
(-0.011013 -0.0148402 0)
(-0.00680517 -0.0114781 0)
(-0.00349204 -0.00790014 0)
(-0.00121248 -0.00435084 0)
(-0.000176644 -0.00117223 0)
(-0.000230033 0.00199527 0)
(-0.00152012 0.00659051 0)
(-0.00429164 0.0113356 0)
(-0.00823591 0.0158952 0)
(-0.0131501 0.0200354 0)
(-0.0188812 0.0235888 0)
(-0.0252616 0.0264436 0)
(-0.0321151 0.0285344 0)
(-0.0392649 0.0298327 0)
(-0.0465363 0.0303391 0)
(-0.0537602 0.030076 0)
(-0.0607752 0.0290826 0)
(-0.0674307 0.0274103 0)
(-0.0735882 0.02512 0)
(-0.0791233 0.0222788 0)
(-0.0839265 0.0189592 0)
(-0.0879039 0.0152374 0)
(-0.0909782 0.0111928 0)
(-0.0930894 0.00690765 0)
(-0.0941946 0.00246681 0)
(-0.0942693 -0.00204224 0)
(-0.0933076 -0.00652961 0)
(-0.0913224 -0.0109033 0)
(-0.0883465 -0.0150695 0)
(-0.0844323 -0.0189338 0)
(-0.0796524 -0.022402 0)
(-0.0740993 -0.0253821 0)
(-0.0678849 -0.0277861 0)
(-0.0611399 -0.0295332 0)
(-0.054012 -0.0305527 0)
(-0.0466636 -0.0307877 0)
(-0.0392693 -0.0302 0)
(-0.0320117 -0.0287745 0)
(-0.0250773 -0.0265252 0)
(-0.0186519 -0.0235009 0)
(-0.0129159 -0.0197929 0)
(-0.00803512 -0.0155419 0)
(-0.00415381 -0.0109451 0)
(-0.00145516 -0.00626274 0)
(-0.000215404 -0.00184604 0)
(-0.000267637 0.00282607 0)
(-0.0017563 0.00889511 0)
(-0.00493626 0.0149371 0)
(-0.00943347 0.0206187 0)
(-0.0150004 0.0257028 0)
(-0.0214533 0.0300176 0)
(-0.0285974 0.0334482 0)
(-0.0362328 0.0359283 0)
(-0.0441633 0.0374315 0)
(-0.0521977 0.0379634 0)
(-0.0601534 0.0375542 0)
(-0.0678576 0.0362533 0)
(-0.0751503 0.0341247 0)
(-0.0818853 0.0312426 0)
(-0.0879317 0.0276894 0)
(-0.0931746 0.0235534 0)
(-0.0975157 0.0189274 0)
(-0.100874 0.013908 0)
(-0.103187 0.00859509 0)
(-0.104408 0.00309177 0)
(-0.104513 -0.00249581 0)
(-0.103492 -0.00805857 0)
(-0.101359 -0.0134848 0)
(-0.0981464 -0.0186605 0)
(-0.0939072 -0.0234708 0)
(-0.088716 -0.0278008 0)
(-0.0826686 -0.031538 0)
(-0.0758817 -0.0345747 0)
(-0.0684925 -0.0368113 0)
(-0.0606573 -0.03816 0)
(-0.0525497 -0.0385495 0)
(-0.0443578 -0.0379302 0)
(-0.0362809 -0.0362797 0)
(-0.0285251 -0.0336089 0)
(-0.021299 -0.0299687 0)
(-0.0148097 -0.0254569 0)
(-0.00925244 -0.0202246 0)
(-0.00480354 -0.0144816 0)
(-0.00169033 -0.0085007 0)
(-0.000251937 -0.0026407 0)
(-0.000303696 0.00377484 0)
(-0.00198603 0.0115171 0)
(-0.0055678 0.0190157 0)
(-0.0106124 0.0259407 0)
(-0.0168284 0.0320551 0)
(-0.0240007 0.0371874 0)
(-0.0319061 0.0412235 0)
(-0.0403203 0.0441007 0)
(-0.0490263 0.0457982 0)
(-0.0578163 0.0463298 0)
(-0.0664939 0.0457365 0)
(-0.0748754 0.0440801 0)
(-0.0827921 0.0414387 0)
(-0.090091 0.037902 0)
(-0.0966358 0.0335687 0)
(-0.102307 0.0285438 0)
(-0.107004 0.0229375 0)
(-0.110642 0.0168643 0)
(-0.113157 0.0104422 0)
(-0.114499 0.00379292 0)
(-0.114643 -0.00295838 0)
(-0.113578 -0.00968299 0)
(-0.111315 -0.0162489 0)
(-0.107886 -0.0225215 0)
(-0.103344 -0.0283644 0)
(-0.097764 -0.033641 0)
(-0.0912435 -0.0382169 0)
(-0.0839025 -0.0419629 0)
(-0.0758835 -0.0447584 0)
(-0.0673506 -0.0464963 0)
(-0.0584878 -0.047088 0)
(-0.0494971 -0.0464697 0)
(-0.0405947 -0.044608 0)
(-0.0320076 -0.0415078 0)
(-0.0239694 -0.0372181 0)
(-0.0167155 -0.0318394 0)
(-0.0104731 -0.0255301 0)
(-0.0054517 -0.0185097 0)
(-0.00192306 -0.0110615 0)
(-0.00028749 -0.00355319 0)
(-0.00033912 0.00483913 0)
(-0.00221316 0.0144519 0)
(-0.0061943 0.0235673 0)
(-0.0117848 0.0318584 0)
(-0.0186496 0.039091 0)
(-0.0265416 0.0450971 0)
(-0.0352085 0.0497682 0)
(-0.0444003 0.0530488 0)
(-0.0538787 0.0549281 0)
(-0.0634189 0.0554315 0)
(-0.0728104 0.0546138 0)
(-0.0818592 0.0525521 0)
(-0.0903885 0.0493408 0)
(-0.0982395 0.0450868 0)
(-0.105272 0.0399062 0)
(-0.111362 0.0339222 0)
(-0.116408 0.0272628 0)
(-0.120323 0.0200608 0)
(-0.123041 0.0124525 0)
(-0.124511 0.0045783 0)
(-0.124704 -0.00341751 0)
(-0.12361 -0.0113865 0)
(-0.121236 -0.0191764 0)
(-0.117612 -0.0266312 0)
(-0.112791 -0.0335927 0)
(-0.106845 -0.0399015 0)
(-0.0998726 -0.0453999 0)
(-0.0919956 -0.0499353 0)
(-0.0833605 -0.0533639 0)
(-0.074138 -0.0555564 0)
(-0.0645222 -0.0564038 0)
(-0.0547285 -0.0558242 0)
(-0.0449912 -0.0537699 0)
(-0.0355591 -0.0502349 0)
(-0.0266925 -0.0452629 0)
(-0.0186575 -0.0389533 0)
(-0.011715 -0.0314683 0)
(-0.00610958 -0.0230351 0)
(-0.00215845 -0.0139472 0)
(-0.000323195 -0.00458334 0)
(-0.000374651 0.00601846 0)
(-0.00244113 0.0176992 0)
(-0.00682343 0.0285921 0)
(-0.0129626 0.0383728 0)
(-0.0204794 0.0468119 0)
(-0.0290942 0.0537483 0)
(-0.0385244 0.0590826 0)
(-0.0484936 0.0627713 0)
(-0.0587416 0.0648172 0)
(-0.0690257 0.0652619 0)
(-0.0791223 0.0641772 0)
(-0.0888271 0.0616587 0)
(-0.0979562 0.0578194 0)
(-0.106346 0.0527855 0)
(-0.113853 0.046692 0)
(-0.120352 0.0396808 0)
(-0.12574 0.0318989 0)
(-0.129928 0.0234971 0)
(-0.13285 0.0146302 0)
(-0.134455 0.00545697 0)
(-0.13471 -0.00385947 0)
(-0.133603 -0.0131513 0)
(-0.131139 -0.022246 0)
(-0.127345 -0.0309665 0)
(-0.12227 -0.0391318 0)
(-0.115984 -0.0465593 0)
(-0.108584 -0.0530665 0)
(-0.100193 -0.0584754 0)
(-0.0909579 -0.0626165 0)
(-0.081056 -0.0653353 0)
(-0.0706903 -0.0664983 0)
(-0.0600898 -0.0660016 0)
(-0.0495068 -0.0637782 0)
(-0.0392135 -0.0598073 0)
(-0.0294982 -0.0541221 0)
(-0.0206602 -0.0468173 0)
(-0.0129962 -0.0380557 0)
(-0.00678839 -0.0280705 0)
(-0.00240135 -0.0171655 0)
(-0.000360059 -0.00573372 0)
(-0.000410908 0.00731411 0)
(-0.00267295 0.021262 0)
(-0.00746212 0.0340943 0)
(-0.0141567 0.045489 0)
(-0.0223323 0.0552227 0)
(-0.0316751 0.0631443 0)
(-0.0418712 0.069168 0)
(-0.052617 0.0732662 0)
(-0.0636297 0.0754605 0)
(-0.0746491 0.0758126 0)
(-0.0854382 0.0744154 0)
(-0.0957834 0.0713863 0)
(-0.105495 0.06686 0)
(-0.114406 0.0609836 0)
(-0.12237 0.0539129 0)
(-0.129264 0.0458095 0)
(-0.134982 0.0368393 0)
(-0.139438 0.0271716 0)
(-0.142564 0.0169791 0)
(-0.144309 0.00643843 0)
(-0.144639 -0.00426921 0)
(-0.143538 -0.0149574 0)
(-0.141008 -0.0254337 0)
(-0.137073 -0.0355003 0)
(-0.131774 -0.0449536 0)
(-0.125181 -0.0535868 0)
(-0.117385 -0.0611915 0)
(-0.108506 -0.0675622 0)
(-0.0986939 -0.0725011 0)
(-0.0881283 -0.0758246 0)
(-0.0770204 -0.0773708 0)
(-0.0656119 -0.0770087 0)
(-0.0541736 -0.074647 0)
(-0.0430018 -0.0702445 0)
(-0.0324148 -0.0638189 0)
(-0.0227471 -0.0554559 0)
(-0.0143343 -0.0453155 0)
(-0.00749885 -0.0336351 0)
(-0.00265629 -0.0207295 0)
(-0.000398975 -0.00700933 0)
(-0.000448416 0.00872884 0)
(-0.00291129 0.0251465 0)
(-0.00811655 0.0400822 0)
(-0.015377 0.0532152 0)
(-0.0242206 0.0643304 0)
(-0.034298 0.0732897 0)
(-0.0452626 0.080025 0)
(-0.0567821 0.0845299 0)
(-0.068551 0.0868496 0)
(-0.0802916 0.0870706 0)
(-0.0917542 0.0853118 0)
(-0.102717 0.0817157 0)
(-0.112986 0.0764418 0)
(-0.122392 0.0696607 0)
(-0.13079 0.0615504 0)
(-0.138056 0.0522931 0)
(-0.144089 0.0420738 0)
(-0.148802 0.0310799 0)
(-0.152129 0.0195015 0)
(-0.154019 0.00753198 0)
(-0.154437 -0.00463044 0)
(-0.153362 -0.0167818 0)
(-0.150795 -0.0287112 0)
(-0.146751 -0.0402002 0)
(-0.141268 -0.0510233 0)
(-0.134407 -0.0609489 0)
(-0.126255 -0.0697417 0)
(-0.116926 -0.0771667 0)
(-0.106569 -0.0829948 0)
(-0.0953637 -0.0870094 0)
(-0.0835288 -0.0890155 0)
(-0.0713172 -0.0888493 0)
(-0.0590176 -0.0863892 0)
(-0.0469513 -0.0815673 0)
(-0.035468 -0.07438 0)
(-0.0249401 -0.0648986 0)
(-0.0157456 -0.0532769 0)
(-0.00825106 -0.0397545 0)
(-0.00292751 -0.0246574 0)
(-0.000440757 -0.00841751 0)
(-0.000487639 0.0102667 0)
(-0.00315854 0.0293619 0)
(-0.00879234 0.0465672 0)
(-0.0166323 0.061563 0)
(-0.0261554 0.0741439 0)
(-0.0369744 0.084189 0)
(-0.0487081 0.0916526 0)
(-0.0609947 0.0965548 0)
(-0.0735054 0.0989703 0)
(-0.0859452 0.099016 0)
(-0.0980531 0.0968412 0)
(-0.109601 0.0926184 0)
(-0.120391 0.0865349 0)
(-0.130255 0.0787874 0)
(-0.139052 0.0695774 0)
(-0.14666 0.0591086 0)
(-0.152981 0.0475854 0)
(-0.157935 0.0352126 0)
(-0.161455 0.0221965 0)
(-0.163492 0.00874585 0)
(-0.164009 -0.00492583 0)
(-0.162985 -0.0185987 0)
(-0.160412 -0.0320448 0)
(-0.156301 -0.0450267 0)
(-0.15068 -0.0572972 0)
(-0.143603 -0.0686003 0)
(-0.135146 -0.0786729 0)
(-0.125418 -0.0872486 0)
(-0.11456 -0.0940638 0)
(-0.102753 -0.0988649 0)
(-0.0902179 -0.101418 0)
(-0.0772172 -0.101521 0)
(-0.064057 -0.099014 0)
(-0.0510836 -0.0937955 0)
(-0.03868 -0.0858337 0)
(-0.0272594 -0.0751792 0)
(-0.0172457 -0.0619749 0)
(-0.0090546 -0.0464603 0)
(-0.00321903 -0.0289724 0)
(-0.00048619 -0.00996772 0)
(-0.000529022 0.011933 0)
(-0.00341696 0.0339201 0)
(-0.00949474 0.0535639 0)
(-0.0179305 0.0705458 0)
(-0.0281462 0.0846729 0)
(-0.0397132 0.0958454 0)
(-0.0522135 0.104046 0)
(-0.0652546 0.109327 0)
(-0.078484 0.1118 0)
(-0.0915904 0.111618 0)
(-0.104303 0.108967 0)
(-0.116388 0.104054 0)
(-0.127649 0.0970966 0)
(-0.137921 0.0883214 0)
(-0.147067 0.077955 0)
(-0.154973 0.0662229 0)
(-0.161547 0.0533487 0)
(-0.166714 0.0395537 0)
(-0.170413 0.0250588 0)
(-0.172594 0.0100862 0)
(-0.173223 -0.0051374 0)
(-0.172273 -0.0203788 0)
(-0.169732 -0.0353949 0)
(-0.165602 -0.0499314 0)
(-0.159902 -0.0637209 0)
(-0.152672 -0.0764831 0)
(-0.143978 -0.0879268 0)
(-0.133917 -0.0977526 0)
(-0.122622 -0.105659 0)
(-0.110267 -0.111352 0)
(-0.0970733 -0.114552 0)
(-0.0833107 -0.115011 0)
(-0.0693008 -0.112524 0)
(-0.0554145 -0.106946 0)
(-0.0420695 -0.0982084 0)
(-0.0297226 -0.0863342 0)
(-0.0188488 -0.0714492 0)
(-0.00991863 -0.0537893 0)
(-0.00353479 -0.0337022 0)
(-0.000536049 -0.0116715 0)
(-0.00057301 0.0137341 0)
(-0.00368887 0.0388354 0)
(-0.0102291 0.0610897 0)
(-0.0192795 0.0801794 0)
(-0.0302015 0.0959271 0)
(-0.0425212 0.10826 0)
(-0.0557808 0.117195 0)
(-0.0695555 0.122825 0)
(-0.0834692 0.125306 0)
(-0.0971951 0.124834 0)
(-0.110454 0.121639 0)
(-0.123012 0.115965 0)
(-0.134676 0.108068 0)
(-0.145286 0.0982049 0)
(-0.154715 0.0866293 0)
(-0.162859 0.0735892 0)
(-0.169636 0.0593265 0)
(-0.174978 0.0440779 0)
(-0.178831 0.0280767 0)
(-0.181149 0.0115561 0)
(-0.181898 -0.0052472 0)
(-0.181049 -0.0220893 0)
(-0.178582 -0.0387153 0)
(-0.174491 -0.0548562 0)
(-0.168782 -0.0702266 0)
(-0.16148 -0.0845235 0)
(-0.152635 -0.0974274 0)
(-0.142328 -0.108605 0)
(-0.130679 -0.117714 0)
(-0.117851 -0.124414 0)
(-0.104061 -0.128376 0)
(-0.0895814 -0.129295 0)
(-0.0747471 -0.126911 0)
(-0.0599524 -0.121029 0)
(-0.0456505 -0.11153 0)
(-0.0323455 -0.0984015 0)
(-0.0205685 -0.0817434 0)
(-0.0108521 -0.0617836 0)
(-0.00387871 -0.0388787 0)
(-0.000591119 -0.0135425 0)
(-0.000620115 0.0156777 0)
(-0.00397686 0.044125 0)
(-0.0110011 0.0691646 0)
(-0.0206877 0.0904806 0)
(-0.0323301 0.107915 0)
(-0.045404 0.121428 0)
(-0.0594085 0.131081 0)
(-0.0738848 0.137016 0)
(-0.0884333 0.13944 0)
(-0.102714 0.138603 0)
(-0.116442 0.134784 0)
(-0.129386 0.128275 0)
(-0.14136 0.11937 0)
(-0.152217 0.10836 0)
(-0.161841 0.0955278 0)
(-0.170143 0.0811438 0)
(-0.177055 0.0654674 0)
(-0.18252 0.0487485 0)
(-0.186492 0.0312303 0)
(-0.188933 0.0131537 0)
(-0.189807 -0.00523804 0)
(-0.189085 -0.0236943 0)
(-0.186741 -0.0419522 0)
(-0.182756 -0.0597315 0)
(-0.177121 -0.0767318 0)
(-0.169844 -0.0926296 0)
(-0.160956 -0.107078 0)
(-0.150515 -0.119708 0)
(-0.138621 -0.130137 0)
(-0.125422 -0.137971 0)
(-0.111123 -0.142823 0)
(-0.0959953 -0.144326 0)
(-0.0803814 -0.142154 0)
(-0.0646976 -0.136044 0)
(-0.0494328 -0.125821 0)
(-0.0351416 -0.111418 0)
(-0.0224176 -0.0929039 0)
(-0.0118641 -0.0704897 0)
(-0.0042549 -0.0445386 0)
(-0.00065224 -0.0155963 0)
(-0.000670975 0.0177729 0)
(-0.0042841 0.049809 0)
(-0.0118179 0.0778118 0)
(-0.0221649 0.101468 0)
(-0.0345414 0.120644 0)
(-0.0483665 0.135342 0)
(-0.063092 0.145676 0)
(-0.0782235 0.15185 0)
(-0.0933386 0.154135 0)
(-0.108086 0.152843 0)
(-0.12218 0.148311 0)
(-0.135397 0.140882 0)
(-0.147562 0.130897 0)
(-0.158546 0.118685 0)
(-0.168252 0.104556 0)
(-0.17661 0.0888031 0)
(-0.183569 0.0717026 0)
(-0.189086 0.0535147 0)
(-0.19313 0.0344894 0)
(-0.195668 0.0148712 0)
(-0.196669 -0.00509461 0)
(-0.196101 -0.0251553 0)
(-0.193931 -0.0450445 0)
(-0.190129 -0.0644758 0)
(-0.184668 -0.0831374 0)
(-0.177535 -0.100688 0)
(-0.168733 -0.116757 0)
(-0.158298 -0.130939 0)
(-0.1463 -0.142807 0)
(-0.132863 -0.151913 0)
(-0.118175 -0.157803 0)
(-0.102497 -0.160037 0)
(-0.0861743 -0.158211 0)
(-0.0696408 -0.15198 0)
(-0.053421 -0.141092 0)
(-0.0381228 -0.125419 0)
(-0.0244091 -0.104979 0)
(-0.0129641 -0.0799586 0)
(-0.00466787 -0.0507229 0)
(-0.000720386 -0.0178508 0)
(-0.000726424 0.0200307 0)
(-0.0046147 0.0559113 0)
(-0.0126884 0.0870581 0)
(-0.0237232 0.113161 0)
(-0.036847 0.134118 0)
(-0.0514141 0.149983 0)
(-0.0668243 0.160938 0)
(-0.0825461 0.167262 0)
(-0.0981354 0.169302 0)
(-0.113234 0.167445 0)
(-0.12756 0.162095 0)
(-0.140902 0.153656 0)
(-0.153108 0.142518 0)
(-0.164068 0.129049 0)
(-0.173714 0.113591 0)
(-0.181998 0.0964595 0)
(-0.18889 0.0779428 0)
(-0.194371 0.0583092 0)
(-0.198422 0.0378113 0)
(-0.201021 0.0166926 0)
(-0.202143 -0.00480479 0)
(-0.201755 -0.0264317 0)
(-0.199816 -0.047924 0)
(-0.196283 -0.0689945 0)
(-0.191111 -0.0893256 0)
(-0.18426 -0.108564 0)
(-0.175705 -0.126314 0)
(-0.165446 -0.142142 0)
(-0.15352 -0.155571 0)
(-0.140019 -0.166096 0)
(-0.1251 -0.17319 0)
(-0.109007 -0.176329 0)
(-0.0920784 -0.175012 0)
(-0.0747617 -0.1688 0)
(-0.0576138 -0.157346 0)
(-0.0412988 -0.140433 0)
(-0.0265559 -0.118017 0)
(-0.0141627 -0.0902451 0)
(-0.00512281 -0.0574774 0)
(-0.000796708 -0.0203265 0)
(-0.000787611 0.0224645 0)
(-0.0049742 0.062461 0)
(-0.0136245 0.0969347 0)
(-0.0253787 0.12558 0)
(-0.0392617 0.148336 0)
(-0.0545533 0.165324 0)
(-0.0705957 0.176808 0)
(-0.0868191 0.183161 0)
(-0.10276 0.184822 0)
(-0.118059 0.182266 0)
(-0.132445 0.175978 0)
(-0.145729 0.166429 0)
(-0.157785 0.154062 0)
(-0.168536 0.13929 0)
(-0.177943 0.122484 0)
(-0.185992 0.103979 0)
(-0.192681 0.0840753 0)
(-0.198012 0.0630453 0)
(-0.201987 0.0411386 0)
(-0.204599 0.0185921 0)
(-0.205827 -0.00436114 0)
(-0.205641 -0.027482 0)
(-0.203993 -0.0505155 0)
(-0.200826 -0.0731804 0)
(-0.196073 -0.09516 0)
(-0.189667 -0.116094 0)
(-0.181546 -0.13557 0)
(-0.17167 -0.153123 0)
(-0.160034 -0.168234 0)
(-0.146685 -0.180333 0)
(-0.13174 -0.188816 0)
(-0.115413 -0.19306 0)
(-0.0980245 -0.192457 0)
(-0.0800262 -0.186447 0)
(-0.0620035 -0.174563 0)
(-0.0446776 -0.15648 0)
(-0.0288723 -0.132065 0)
(-0.0154721 -0.101408 0)
(-0.00562591 -0.0648534 0)
(-0.000882614 -0.0230468 0)
(-0.000856138 0.0250911 0)
(-0.00537023 0.0694938 0)
(-0.0146424 0.107479 0)
(-0.0271533 0.138748 0)
(-0.0418054 0.163294 0)
(-0.0577925 0.181323 0)
(-0.0743934 0.193205 0)
(-0.0909994 0.199426 0)
(-0.107133 0.200541 0)
(-0.122439 0.197128 0)
(-0.136669 0.189763 0)
(-0.149665 0.178993 0)
(-0.161336 0.165322 0)
(-0.171649 0.149206 0)
(-0.180604 0.131046 0)
(-0.188224 0.111195 0)
(-0.19454 0.0899616 0)
(-0.199585 0.0676147 0)
(-0.203383 0.0443969 0)
(-0.205942 0.0205321 0)
(-0.207253 -0.00376265 0)
(-0.207287 -0.0282656 0)
(-0.205991 -0.0527385 0)
(-0.203293 -0.0769141 0)
(-0.199105 -0.100485 0)
(-0.193327 -0.12309 0)
(-0.18586 -0.144309 0)
(-0.176614 -0.163652 0)
(-0.165531 -0.180556 0)
(-0.152602 -0.194389 0)
(-0.137892 -0.204462 0)
(-0.121566 -0.210045 0)
(-0.103916 -0.2104 0)
(-0.0853834 -0.204825 0)
(-0.0665741 -0.192703 0)
(-0.0482657 -0.173569 0)
(-0.031374 -0.147168 0)
(-0.0169069 -0.113511 0)
(-0.00618496 -0.0729088 0)
(-0.000979917 -0.0260387 0)
(-0.000934263 0.0279318 0)
(-0.0058134 0.0770548 0)
(-0.0157645 0.118737 0)
(-0.0290759 0.15269 0)
(-0.0445042 0.178978 0)
(-0.0611422 0.197918 0)
(-0.0781996 0.210016 0)
(-0.0950304 0.2159 0)
(-0.11115 0.21626 0)
(-0.126219 0.211801 0)
(-0.140023 0.203201 0)
(-0.152447 0.191093 0)
(-0.163452 0.176044 0)
(-0.173053 0.158555 0)
(-0.1813 0.139056 0)
(-0.188261 0.117913 0)
(-0.194006 0.0954349 0)
(-0.198601 0.0718862 0)
(-0.202097 0.0474937 0)
(-0.204523 0.0224617 0)
(-0.205882 -0.00301644 0)
(-0.206147 -0.0287442 0)
(-0.205263 -0.0545085 0)
(-0.203145 -0.0800654 0)
(-0.199681 -0.105125 0)
(-0.194738 -0.129338 0)
(-0.188172 -0.152282 0)
(-0.179841 -0.173451 0)
(-0.169624 -0.192245 0)
(-0.157442 -0.207971 0)
(-0.143291 -0.219851 0)
(-0.127271 -0.227036 0)
(-0.109623 -0.228642 0)
(-0.0907603 -0.223793 0)
(-0.0712988 -0.21169 0)
(-0.0520673 -0.191686 0)
(-0.0340796 -0.163365 0)
(-0.0184856 -0.12662 0)
(-0.00681005 -0.081709 0)
(-0.00109104 -0.029334 0)
(-0.00102523 0.0310147 0)
(-0.00631859 0.0852018 0)
(-0.0170211 0.130765 0)
(-0.0311859 0.167432 0)
(-0.0473917 0.195363 0)
(-0.064614 0.215024 0)
(-0.0819879 0.227093 0)
(-0.0988352 0.232375 0)
(-0.114675 0.231727 0)
(-0.129201 0.225998 0)
(-0.142246 0.215988 0)
(-0.153757 0.202418 0)
(-0.163757 0.185925 0)
(-0.172324 0.167051 0)
(-0.179565 0.14625 0)
(-0.185599 0.123898 0)
(-0.190544 0.1003 0)
(-0.194501 0.0757046 0)
(-0.197552 0.0503174 0)
(-0.199747 0.0243153 0)
(-0.201104 -0.00213948 0)
(-0.201604 -0.0288842 0)
(-0.201189 -0.0557401 0)
(-0.199762 -0.0824959 0)
(-0.19719 -0.108891 0)
(-0.193306 -0.134598 0)
(-0.187919 -0.159204 0)
(-0.180829 -0.182198 0)
(-0.171842 -0.202953 0)
(-0.160798 -0.22072 0)
(-0.147603 -0.234633 0)
(-0.132271 -0.243714 0)
(-0.114967 -0.246912 0)
(-0.0960546 -0.243152 0)
(-0.0761365 -0.231407 0)
(-0.0560836 -0.210794 0)
(-0.0370115 -0.180686 0)
(-0.0202322 -0.140808 0)
(-0.00751464 -0.09133 0)
(-0.00121927 -0.0329707 0)
(-0.00113375 0.0343771 0)
(-0.00690675 0.0940098 0)
(-0.0184544 0.143633 0)
(-0.0335352 0.183 0)
(-0.0505098 0.212409 0)
(-0.0682175 0.232521 0)
(-0.0857165 0.244236 0)
(-0.102306 0.248584 0)
(-0.117528 0.246622 0)
(-0.131126 0.239368 0)
(-0.143008 0.227753 0)
(-0.153197 0.212599 0)
(-0.161795 0.194607 0)
(-0.168955 0.174359 0)
(-0.17485 0.152328 0)
(-0.179658 0.128889 0)
(-0.183545 0.104335 0)
(-0.186653 0.0788923 0)
(-0.189095 0.0527378 0)
(-0.190946 0.0260127 0)
(-0.19224 -0.00115993 0)
(-0.192968 -0.0286593 0)
(-0.193072 -0.0563499 0)
(-0.192446 -0.0840637 0)
(-0.190938 -0.11158 0)
(-0.18835 -0.138607 0)
(-0.184444 -0.164756 0)
(-0.178956 -0.189525 0)
(-0.171615 -0.212273 0)
(-0.162164 -0.232207 0)
(-0.150404 -0.248376 0)
(-0.136234 -0.259671 0)
(-0.119714 -0.264858 0)
(-0.101124 -0.262627 0)
(-0.0810252 -0.251673 0)
(-0.0603111 -0.230818 0)
(-0.0401973 -0.199147 0)
(-0.0221786 -0.156151 0)
(-0.00831724 -0.101861 0)
(-0.00136923 -0.036995 0)
(-0.0012667 0.0380691 0)
(-0.00760754 0.103578 0)
(-0.0201213 0.157428 0)
(-0.0361911 0.199423 0)
(-0.0539075 0.23005 0)
(-0.0719541 0.250238 0)
(-0.0893152 0.26118 0)
(-0.105286 0.264181 0)
(-0.119458 0.260542 0)
(-0.131657 0.251474 0)
(-0.141887 0.238052 0)
(-0.150273 0.2212 0)
(-0.157013 0.201678 0)
(-0.162345 0.180101 0)
(-0.166517 0.15695 0)
(-0.169769 0.13259 0)
(-0.172319 0.107292 0)
(-0.174348 0.0812522 0)
(-0.176003 0.0546084 0)
(-0.177384 0.0274595 0)
(-0.178542 -0.00011787 0)
(-0.179479 -0.0280527 0)
(-0.180142 -0.0562612 0)
(-0.18042 -0.0846282 0)
(-0.180145 -0.112986 0)
(-0.179093 -0.14109 0)
(-0.176982 -0.168594 0)
(-0.173487 -0.195023 0)
(-0.168253 -0.21974 0)
(-0.160918 -0.241927 0)
(-0.151156 -0.260559 0)
(-0.138726 -0.2744 0)
(-0.123546 -0.282021 0)
(-0.105768 -0.281843 0)
(-0.085871 -0.272232 0)
(-0.0647374 -0.251631 0)
(-0.0436708 -0.218743 0)
(-0.0243675 -0.172731 0)
(-0.00924385 -0.113408 0)
(-0.00154762 -0.0414651 0)
(-0.00143438 0.0421601 0)
(-0.00846334 0.114038 0)
(-0.0221001 0.17226 0)
(-0.0392395 0.216717 0)
(-0.0576371 0.248177 0)
(-0.0758037 0.267935 0)
(-0.092664 0.277565 0)
(-0.107542 0.27872 0)
(-0.120117 0.272985 0)
(-0.130338 0.261789 0)
(-0.138337 0.246361 0)
(-0.144364 0.227718 0)
(-0.148733 0.206673 0)
(-0.151775 0.183858 0)
(-0.15382 0.159748 0)
(-0.155169 0.134687 0)
(-0.156089 0.108911 0)
(-0.156804 0.0825748 0)
(-0.157487 0.0557716 0)
(-0.158263 0.0285505 0)
(-0.159202 0.000934928 0)
(-0.160318 -0.0270598 0)
(-0.161565 -0.0554088 0)
(-0.162833 -0.0840588 0)
(-0.163947 -0.112905 0)
(-0.164662 -0.141767 0)
(-0.164662 -0.170357 0)
(-0.163565 -0.198249 0)
(-0.160933 -0.224837 0)
(-0.156295 -0.249298 0)
(-0.149181 -0.270561 0)
(-0.139184 -0.287275 0)
(-0.126034 -0.297813 0)
(-0.109705 -0.300302 0)
(-0.0905312 -0.292717 0)
(-0.069333 -0.273028 0)
(-0.047472 -0.239435 0)
(-0.0268574 -0.190632 0)
(-0.0103318 -0.126102 0)
(-0.00176447 -0.0464559 0)
(-0.00165261 0.0467466 0)
(-0.00953551 0.125564 0)
(-0.0244963 0.18826 0)
(-0.0427852 0.234884 0)
(-0.061743 0.266618 0)
(-0.0797008 0.28527 0)
(-0.0955572 0.292911 0)
(-0.108719 0.291625 0)
(-0.11901 0.283327 0)
(-0.12655 0.269683 0)
(-0.131642 0.25207 0)
(-0.134687 0.231587 0)
(-0.136124 0.209081 0)
(-0.13639 0.185182 0)
(-0.13589 0.160339 0)
(-0.134987 0.134856 0)
(-0.133992 0.108924 0)
(-0.133161 0.0826481 0)
(-0.132693 0.0560667 0)
(-0.132732 0.029174 0)
(-0.133364 0.00193667 0)
(-0.134616 -0.0256901 0)
(-0.136453 -0.0537454 0)
(-0.138776 -0.0822437 0)
(-0.141408 -0.111154 0)
(-0.144096 -0.140371 0)
(-0.146503 -0.169686 0)
(-0.148201 -0.198745 0)
(-0.148681 -0.227003 0)
(-0.147363 -0.253671 0)
(-0.143626 -0.27766 0)
(-0.13687 -0.297538 0)
(-0.126595 -0.311493 0)
(-0.112529 -0.317344 0)
(-0.0947839 -0.312616 0)
(-0.0740356 -0.2947 0)
(-0.0516451 -0.261128 0)
(-0.0297279 -0.209939 0)
(-0.0116359 -0.140108 0)
(-0.00203522 -0.052067 0)
(-0.00194639 0.0519658 0)
(-0.0109143 0.138393 0)
(-0.0274525 0.205583 0)
(-0.0469484 0.253878 0)
(-0.0662384 0.285094 0)
(-0.0834901 0.301751 0)
(-0.0976438 0.306571 0)
(-0.108272 0.302158 0)
(-0.115424 0.290802 0)
(-0.119452 0.274408 0)
(-0.120868 0.254486 0)
(-0.120249 0.232189 0)
(-0.118171 0.208367 0)
(-0.11517 0.183617 0)
(-0.111725 0.158341 0)
(-0.108247 0.132786 0)
(-0.105078 0.107082 0)
(-0.102497 0.0812739 0)
(-0.100719 0.0553414 0)
(-0.0998991 0.0292206 0)
(-0.100137 0.00281899 0)
(-0.101474 -0.0239689 0)
(-0.103889 -0.0512474 0)
(-0.107295 -0.0791022 0)
(-0.111532 -0.107581 0)
(-0.116353 -0.136667 0)
(-0.121415 -0.166246 0)
(-0.12627 -0.196062 0)
(-0.130354 -0.225665 0)
(-0.132991 -0.254341 0)
(-0.133417 -0.28104 0)
(-0.130819 -0.304292 0)
(-0.124428 -0.322141 0)
(-0.113653 -0.332105 0)
(-0.0982794 -0.331219 0)
(-0.07872 -0.316175 0)
(-0.0562298 -0.283641 0)
(-0.0330868 -0.230729 0)
(-0.0132381 -0.155631 0)
(-0.00238471 -0.0584354 0)
(-0.00235682 0.0580172 0)
(-0.0127347 0.152837 0)
(-0.0311574 0.224392 0)
(-0.0518497 0.273569 0)
(-0.0710572 0.303156 0)
(-0.0868501 0.31667 0)