0.00189574 6.25146e-07
0.00575991 5.48852e-06
0.00977224 1.52517e-05
 0.0139384 2.9954e-05
 0.0182644 4.93648e-05
 0.0227562 7.28205e-05
 0.0274202 9.92004e-05
 0.0322631 0.000127058
 0.0372917 0.000154846
  0.042513 0.000181154
 0.0479346 0.000204866
 0.0535641 0.000225234
 0.0594095 0.000241865
 0.0654789 0.000254668
 0.0717811 0.000263779
  0.078325 0.000269496
 0.0851197 0.000272212
  0.092175 0.000272371
 0.0995009 0.000270424
  0.107108 0.000266804
  0.115006 0.00026191
  0.123207 0.000256102
  0.131723 0.000249688
  0.140565 0.000242914
  0.149747 0.000235953
   0.15928 0.000228919
  0.169179 0.000221897
  0.179457 0.000214966
   0.19013 0.000208192
  0.201212 0.000201609
  0.212718 0.000195231
  0.224666 0.000189076
  0.237072 0.000183162
  0.249954 0.000177479
   0.26333 0.000171978
  0.277218 0.000166603
   0.29164 0.000161311
  0.306614 0.000156095
  0.322162 0.000150971
  0.338306 0.000145955
   0.35507 0.000141033
  0.372476 0.000136171
   0.39055 0.000131372
  0.409316 0.000126655
  0.428803 0.000121989
  0.449036 0.000117333
  0.470045 0.000112685
   0.49186 0.000108069
  0.514512 0.000103486
  0.538031 9.88723e-05
  0.562453 9.41728e-05
  0.587811 8.94134e-05
  0.614142 8.46553e-05
  0.641482 7.9954e-05
   0.66987 7.53912e-05
  0.699347 7.10716e-05
  0.729954 6.69766e-05
  0.761735 6.3017e-05
  0.794735 5.92021e-05
  0.828999 5.5693e-05
  0.864578 5.26765e-05
  0.901521 5.02602e-05
   0.93988 4.85179e-05
   0.97971 4.75791e-05
