0.00189574 1.35345e-08
0.00575991 1.35066e-08
0.00977224 1.35025e-08
 0.0139384 1.35366e-08
 0.0182644  1.361e-08
 0.0227562 1.37217e-08
 0.0274202 1.38713e-08
 0.0322631 1.40573e-08
 0.0372917 1.42777e-08
  0.042513 1.45297e-08
 0.0479346 1.48099e-08
 0.0535641 1.51143e-08
 0.0594095 1.54381e-08
 0.0654789 1.57762e-08
 0.0717811 1.61229e-08
  0.078325 1.64722e-08
 0.0851197 1.68179e-08
  0.092175 1.71535e-08
 0.0995009 1.74725e-08
  0.107108 1.77684e-08
  0.115006 1.80348e-08
  0.123207 1.82664e-08
  0.131723 1.84584e-08
  0.140565 1.86069e-08
  0.149747 1.87092e-08
   0.15928 1.87632e-08
  0.169179 1.87675e-08
  0.179457 1.87209e-08
   0.19013 1.86234e-08
  0.201212 1.84756e-08
  0.212718 1.82779e-08
  0.224666 1.80294e-08
  0.237072 1.77293e-08
  0.249954 1.73794e-08
   0.26333 1.69855e-08
  0.277218 1.65573e-08
   0.29164 1.61053e-08
  0.306614 1.56372e-08
  0.322162 1.51574e-08
  0.338306 1.46656e-08
   0.35507 1.41612e-08
  0.372476 1.36454e-08
   0.39055 1.31224e-08
  0.409316 1.25973e-08
  0.428803 1.20746e-08
  0.449036 1.15573e-08
  0.470045 1.1045e-08
   0.49186 1.05348e-08
  0.514512 1.00251e-08
  0.538031 9.51578e-09
  0.562453 9.00824e-09
  0.587811 8.50319e-09
  0.614142 8.00533e-09
  0.641482 7.52302e-09
   0.66987 7.06147e-09
  0.699347 6.61874e-09
  0.729954 6.19311e-09
  0.761735 5.79228e-09
  0.794735 5.42885e-09
  0.828999 5.11161e-09
  0.864578 4.84519e-09
  0.901521 4.63284e-09
   0.93988 4.48066e-09
   0.97971 4.39947e-09
