0.00189574 0.000982946
0.00575991 0.00297371
0.00977224 0.00502764
 0.0139384  0.0071261
 0.0182644  0.0092309
 0.0227562  0.0112893
 0.0274202  0.0132432
 0.0322631  0.0150391
 0.0372917  0.0166357
  0.042513  0.0180074
 0.0479346  0.0191441
 0.0535641  0.0200484
 0.0594095  0.0207324
 0.0654789   0.021214
 0.0717811  0.0215145
  0.078325  0.0216566
 0.0851197  0.0216628
  0.092175   0.021555
 0.0995009  0.0213532
  0.107108  0.0210756
  0.115006  0.0207384
  0.123207  0.0203561
  0.131723  0.0199412
  0.140565  0.0195042
  0.149747  0.0190532
   0.15928  0.0185942
  0.169179  0.0181327
  0.179457  0.0176736
   0.19013  0.0172218
  0.201212  0.0167804
  0.212718  0.0163508
  0.224666  0.0159345
  0.237072  0.0155326
  0.249954  0.0151457
   0.26333  0.0147733
  0.277218  0.0144138
   0.29164  0.0140657
  0.306614  0.0137288
  0.322162  0.0134027
  0.338306  0.0130861
   0.35507  0.0127772
  0.372476  0.0124753
   0.39055  0.0121821
  0.409316  0.0118979
  0.428803  0.0116195
  0.449036  0.0113434
  0.470045  0.0110681
   0.49186  0.0107936
  0.514512  0.0105172
  0.538031  0.0102321
  0.562453 0.00993758
  0.587811  0.0096396
  0.614142 0.00934039
  0.641482 0.00903781
   0.66987 0.00873557
  0.699347 0.00843945
  0.729954 0.00814901
  0.761735 0.00785945
  0.794735  0.0075641
  0.828999 0.00727331
  0.864578 0.00701051
  0.901521 0.00679704
   0.93988 0.00664676
   0.97971  0.0065662
