0.00189574 0.00284398
0.00575991 0.00861772
0.00977224  0.0145788
 0.0139384  0.0207114
 0.0182644  0.0269841
 0.0227562  0.0333499
 0.0274202  0.0397478
 0.0322631  0.0461083
 0.0372917  0.0523594
  0.042513  0.0584331
 0.0479346  0.0642706
 0.0535641  0.0698256
 0.0594095  0.0750653
 0.0654789  0.0799707
 0.0717811  0.0845346
  0.078325  0.0887597
 0.0851197  0.0926561
  0.092175  0.0962396
 0.0995009  0.0995297
  0.107108   0.102548
  0.115006   0.105316
  0.123207   0.107857
  0.131723   0.110194
  0.140565   0.112349
  0.149747   0.114343
   0.15928   0.116194
  0.169179   0.117921
  0.179457    0.11954
   0.19013   0.121067
  0.201212   0.122514
  0.212718   0.123895
  0.224666   0.125222
  0.237072   0.126502
  0.249954   0.127742
   0.26333   0.128949
  0.277218   0.130128
   0.29164   0.131282
  0.306614   0.132417
  0.322162   0.133531
  0.338306   0.134628
   0.35507   0.135709
  0.372476   0.136778
   0.39055   0.137837
  0.409316   0.138885
  0.428803   0.139924
  0.449036   0.140955
  0.470045   0.141982
   0.49186   0.143004
  0.514512   0.144024
  0.538031   0.145046
  0.562453    0.14607
  0.587811   0.147088
  0.614142   0.148094
  0.641482   0.149084
   0.66987   0.150048
  0.699347   0.150974
  0.729954   0.151853
  0.761735   0.152677
  0.794735   0.153446
  0.828999   0.154152
  0.864578   0.154776
  0.901521    0.15529
   0.93988   0.155659
   0.97971   0.155853
