0.00189574 -1.13016e-09
0.00575991 -5.08827e-08
0.00977224 -2.62587e-07
 0.0139384 -7.7772e-07
 0.0182644 -1.73196e-06
 0.0227562 -3.22897e-06
 0.0274202 -5.3169e-06
 0.0322631 -7.97649e-06
 0.0372917 -1.11256e-05
  0.042513 -1.46372e-05
 0.0479346 -1.83624e-05
 0.0535641 -2.2153e-05
 0.0594095 -2.58771e-05
 0.0654789 -2.94291e-05
 0.0717811 -3.27324e-05
  0.078325 -3.57383e-05
 0.0851197 -3.84219e-05
  0.092175 -4.07769e-05
 0.0995009 -4.28104e-05
  0.107108 -4.45374e-05
  0.115006 -4.59771e-05
  0.123207 -4.71499e-05
  0.131723 -4.80763e-05
  0.140565 -4.87775e-05
  0.149747 -4.92754e-05
   0.15928 -4.95915e-05
  0.169179 -4.97459e-05
  0.179457 -4.97556e-05
   0.19013 -4.96334e-05
  0.201212 -4.93902e-05
  0.212718 -4.90392e-05
  0.224666 -4.85956e-05
  0.237072 -4.8072e-05
  0.249954 -4.74751e-05
   0.26333 -4.68056e-05
  0.277218 -4.60639e-05
   0.29164 -4.52545e-05
  0.306614 -4.43852e-05
  0.322162 -4.3461e-05
  0.338306 -4.24829e-05
   0.35507 -4.14475e-05
  0.372476 -4.03565e-05
   0.39055 -3.92153e-05
  0.409316 -3.80216e-05
  0.428803 -3.67666e-05
  0.449036 -3.54467e-05
  0.470045 -3.40665e-05
   0.49186 -3.26254e-05
  0.514512 -3.11145e-05
  0.538031 -2.95359e-05
  0.562453 -2.79117e-05
  0.587811 -2.62481e-05
  0.614142 -2.45252e-05
  0.641482 -2.27402e-05
   0.66987 -2.08961e-05
  0.699347 -1.89889e-05
  0.729954 -1.70103e-05
  0.761735 -1.49543e-05
  0.794735 -1.28249e-05
  0.828999 -1.06323e-05
  0.864578 -8.38428e-06
  0.901521 -6.08176e-06
   0.93988 -3.7187e-06
   0.97971 -1.25986e-06
