0.00189574 6.61653e-06
0.00575991 6.41332e-05
0.00977224 0.000167306
 0.0139384 0.000311319
 0.0182644 0.000488005
 0.0227562 0.000690974
 0.0274202 0.00091525
 0.0322631  0.0011567
 0.0372917 0.00141188
  0.042513 0.00167788
 0.0479346  0.0019523
 0.0535641 0.00223302
 0.0594095 0.00251812
 0.0654789 0.00280576
 0.0717811 0.00309413
  0.078325 0.00338144
 0.0851197 0.00366589
  0.092175 0.00394571
 0.0995009 0.00421919
  0.107108  0.0044847
  0.115006 0.00474072
  0.123207  0.0049858
  0.131723 0.00521867
  0.140565 0.00543816
  0.149747 0.00564333
   0.15928 0.00583341
  0.169179 0.00600781
  0.179457 0.00616607
   0.19013  0.0063079
  0.201212  0.0064333
  0.212718 0.00654259
  0.224666 0.00663615
  0.237072 0.00671438
  0.249954 0.00677779
   0.26333  0.0068272
  0.277218 0.00686364
   0.29164 0.00688789
  0.306614 0.00690032
  0.322162 0.00690114
  0.338306  0.0068903
   0.35507 0.00686781
  0.372476 0.00683442
   0.39055 0.00679159
  0.409316 0.00674117
  0.428803 0.00668434
  0.449036 0.00662151
  0.470045 0.00655244
   0.49186 0.00647609
  0.514512 0.00639202
  0.538031 0.00630061
  0.562453 0.00620285
  0.587811 0.00609991
  0.614142 0.00599355
  0.641482 0.00588549
   0.66987 0.00577647
  0.699347 0.00566691
  0.729954 0.00555791
  0.761735 0.00545328
  0.794735 0.00535746
  0.828999 0.00527132
  0.864578  0.0051954
  0.901521 0.00513202
   0.93988 0.00508598
   0.97971  0.0050609
