0.00189574 0.000532977
0.00575991 0.00145944
0.00977224 0.00227997
 0.0139384 0.00300496
 0.0182644 0.00364444
 0.0227562 0.00420896
 0.0274202 0.00470969
 0.0322631  0.0051578
 0.0372917 0.00556349
  0.042513 0.00593516
 0.0479346 0.00627896
 0.0535641 0.00659869
 0.0594095 0.00689609
 0.0654789  0.0071713
 0.0717811 0.00742355
  0.078325 0.00765183
 0.0851197 0.00785552
  0.092175 0.00803477
 0.0995009 0.00819072
  0.107108 0.00832546
  0.115006 0.00844175
  0.123207 0.00854261
  0.131723 0.00863087
  0.140565 0.00870867
  0.149747 0.00877693
   0.15928 0.00883532
  0.169179 0.00888298
  0.179457 0.00891935
   0.19013 0.00894436
  0.201212 0.00895818
  0.212718  0.0089614
  0.224666 0.00895572
  0.237072 0.00894311
  0.249954 0.00892332
   0.26333 0.00889357
  0.277218 0.00885092
   0.29164 0.00879404
  0.306614 0.00872334
  0.322162 0.00864198
  0.338306 0.00855497
   0.35507 0.00846412
  0.372476 0.00836655
   0.39055  0.0082593
  0.409316 0.00814293
  0.428803 0.00801784
  0.449036  0.0078834
  0.470045 0.00774167
   0.49186 0.00759577
  0.514512 0.00745009
  0.538031 0.00730415
  0.562453 0.00714947
  0.587811 0.00697825
  0.614142 0.00679302
  0.641482 0.00660204
   0.66987 0.00641129
  0.699347 0.00622936
  0.729954 0.00605446
  0.761735 0.00587578
  0.794735 0.00569966
  0.828999 0.00554059
  0.864578 0.00540495
  0.901521 0.00528989
   0.93988 0.00519511
   0.97971 0.00514106
