/*--------------------------------*- C++ -*----------------------------------*\
  =========                 |
  \\      /  F ield         | OpenFOAM: The Open Source CFD Toolbox
   \\    /   O peration     | Website:  https://openfoam.org
    \\  /    A nd           | Version:  7
     \\/     M anipulation  |
\*---------------------------------------------------------------------------*/
FoamFile
{
    version     2.0;
    format      ascii;
    class       volScalarField;
    location    "50";
    object      k;
}
// * * * * * * * * * * * * * * * * * * * * * * * * * * * * * * * * * * * * * //

dimensions      [0 2 -2 0 0 0 0];

internalField   nonuniform List<scalar> 
12842
(
0.00565905
0.0050943
0.00469851
0.00447589
0.004307
0.00417724
0.00409275
0.00401807
0.00397792
0.0039637
0.00393759
0.00394127
0.00397549
0.00404579
0.00413873
0.00423264
0.00431461
0.00439184
0.00449348
0.00459052
0.00469048
0.00481482
0.00490681
0.00563403
0.00501721
0.0046659
0.00444348
0.00428177
0.0041675
0.00408116
0.00400587
0.00397498
0.0039443
0.00392412
0.00393915
0.00398596
0.00407632
0.00417691
0.00428272
0.00435008
0.00441471
0.00452945
0.00462933
0.00472389
0.00482294
0.00493235
0.00557659
0.00494944
0.00456117
0.00437971
0.00422872
0.00413858
0.00405856
0.00399513
0.00397082
0.00393476
0.00393524
0.00396162
0.00402329
0.00414064
0.00429075
0.00436636
0.00446139
0.00451395
0.00460197
0.00472903
0.00486445
0.00493914
0.0050465
0.00552284
0.00489385
0.00452426
0.00433094
0.00419746
0.00411753
0.00403849
0.00399031
0.00396072
0.00392282
0.00394363
0.00398907
0.00407389
0.00417739
0.00434121
0.00448339
0.00452867
0.00460423
0.004714
0.00478
0.00493716
0.00507444
0.00519249
0.00544691
0.00478748
0.00444541
0.004266
0.0041394
0.0040796
0.00401114
0.00398083
0.00395103
0.00390866
0.00395742
0.00403218
0.0041524
0.0042759
0.00442378
0.00460047
0.00468765
0.00472942
0.00484261
0.00496856
0.0050267
0.00519722
0.00536842
0.00538921
0.00473868
0.004396
0.00423331
0.00411488
0.00405268
0.00399009
0.0039695
0.00394395
0.00392243
0.00397641
0.00406477
0.00419982
0.0043413
0.00450854
0.00465129
0.00476915
0.00485876
0.00493307
0.00508133
0.00524202
0.0053692
0.00553429
0.00530829
0.00464047
0.00433823
0.00417171
0.00407077
0.00401974
0.00397105
0.00395664
0.00392578
0.00394202
0.00401554
0.00413681
0.00431943
0.00447387
0.00463762
0.0047628
0.00491332
0.00498147
0.00507409
0.00522996
0.00537489
0.00558824
0.00581255
0.00524865
0.00459768
0.00429472
0.00414661
0.00405045
0.00399841
0.00395671
0.00394848
0.003922
0.0039573
0.00405349
0.00419105
0.00439784
0.00457881
0.00475825
0.00487717
0.00499533
0.00514138
0.00522462
0.00539681
0.00565617
0.00585938
0.00605306
0.00516734
0.00451785
0.00424637
0.00410057
0.00402017
0.0039684
0.00394596
0.00394204
0.00392214
0.00398212
0.00410885
0.00427318
0.0045112
0.00470009
0.00488618
0.00502529
0.00515822
0.00530077
0.00544282
0.00562525
0.00583421
0.00610751
0.00637689
0.00509679
0.00447126
0.00421298
0.00408072
0.00400649
0.00395589
0.00394021
0.00393803
0.00394498
0.00402196
0.00417982
0.0043909
0.00463753
0.00483309
0.00503658
0.00515715
0.00528568
0.00544299
0.0055977
0.00585624
0.00611246
0.00637908
0.00666143
0.00501012
0.00440775
0.00416693
0.00404503
0.00398113
0.00393347
0.00392966
0.00393502
0.00395064
0.00405497
0.00424706
0.00450311
0.00476688
0.00495516
0.0051574
0.00529452
0.00546763
0.00563883
0.00583336
0.00608958
0.00634315
0.0066075
0.00691308
0.00493619
0.00436053
0.00413841
0.00402843
0.00396972
0.00392287
0.00392439
0.00392859
0.00397589
0.00410694
0.00434125
0.00464084
0.00490509
0.00510292
0.00533244
0.00546688
0.00563463
0.00581628
0.00601724
0.00631176
0.00661493
0.00689073
0.00719497
0.00485327
0.00431084
0.00409945
0.00399891
0.00394783
0.00390485
0.00391446
0.00392368
0.00398813
0.00415071
0.00443348
0.00476623
0.00503538
0.00524308
0.00547671
0.00564005
0.00585419
0.00604638
0.00625999
0.00659696
0.00688804
0.00716411
0.00745859
0.00478119
0.00427188
0.00407562
0.00398499
0.00393761
0.0038966
0.00390958
0.00391526
0.00402597
0.00421818
0.00455295
0.00491217
0.00517872
0.00540376
0.00566523
0.00582346
0.00603788
0.00625899
0.00653065
0.0068401
0.00713637
0.00741782
0.00770496
0.00471768
0.00422797
0.00404276
0.00396114
0.00391748
0.00388187
0.00389996
0.00391259
0.00405055
0.00427928
0.0046727
0.00504952
0.00532122
0.00556978
0.00584006
0.00604616
0.00631368
0.0065048
0.00673576
0.0070829
0.00739457
0.00767991
0.00797142
0.00466065
0.00419638
0.00402551
0.00394809
0.00390806
0.00387512
0.00389429
0.00393185
0.00410587
0.00436664
0.00481219
0.00520715
0.00547857
0.00575007
0.00603665
0.0062209
0.00647692
0.00672701
0.00702669
0.00738866
0.00768535
0.00796991
0.00826885
0.00461291
0.00416026
0.00399881
0.00393108
0.00388991
0.00386271
0.00388833
0.0039407
0.00414689
0.00445211
0.00496062
0.00536392
0.00564517
0.00594483
0.00624253
0.00648432
0.00677021
0.00696185
0.00729731
0.00762819
0.00789887
0.00816197
0.00844163
0.00456779
0.00412742
0.00398432
0.0039158
0.00388151
0.00385635
0.00388064
0.00399056
0.0042273
0.00456461
0.00511148
0.00553668
0.00582498
0.0061494
0.00644541
0.00666259
0.00698543
0.00726948
0.00754381
0.00788763
0.00818471
0.00849612
0.00884082
0.00453138
0.00409995
0.00396466
0.00390418
0.00386506
0.00384512
0.0038723
0.00402281
0.00428723
0.00466976
0.00527889
0.00571497
0.00601369
0.0063654
0.00667918
0.00695244
0.0072355
0.00745317
0.00784332
0.00824011
0.00855767
0.00888329
0.00929915
0.00449596
0.00406834
0.00394972
0.0038917
0.00385719
0.00384114
0.00389038
0.00410563
0.00439544
0.00481189
0.00544545
0.00590093
0.0062116
0.00658808
0.00691184
0.007186
0.00753531
0.00782372
0.00826258
0.00864567
0.0088912
0.00921891
0.00967405
0.00446605
0.00404241
0.00393735
0.00387638
0.00384153
0.00383044
0.00390367
0.00415973
0.00447195
0.00492288
0.00560452
0.00608494
0.00640754
0.00680275
0.00710882
0.00741607
0.00786005
0.00827379
0.00864944
0.00891479
0.00916813
0.00964179
0.0104257
0.00443959
0.00401323
0.00392044
0.00386906
0.00383868
0.00385084
0.00396547
0.00426863
0.00460712
0.00509402
0.00580234
0.00629435
0.00661951
0.00704231
0.00743595
0.00781896
0.00819336
0.00860287
0.00899605
0.00945881
0.00993216
0.0107552
0.0118341
0.00441351
0.00399068
0.00390853
0.00385528
0.00383635
0.00388729
0.00402912
0.00434398
0.00469597
0.00520406
0.00594189
0.00646036
0.0068055
0.00724079
0.00760654
0.00807524
0.00878851
0.0091829
0.00986425
0.0103298
0.0106775
0.0115287
0.0127509
0.00439384
0.00396562
0.00390208
0.00384298
0.00384865
0.00396619
0.00415225
0.00447737
0.00485582
0.00539326
0.00615259
0.00668162
0.00702107
0.00748892
0.0079445
0.00841522
0.00928827
0.0104012
0.0107385
0.0108786
0.0112373
0.0127607
0.0155799
0.00437791
0.00394703
0.00389123
0.00384469
0.00388862
0.00406051
0.00425813
0.00458516
0.0049791
0.00553524
0.00631664
0.00685867
0.00720615
0.00770003
0.00827046
0.0091262
0.0103261
0.0113088
0.0115873
0.0117861
0.0137505
0.0180365
0.0231239
0.00436133
0.00393292
0.00388121
0.0038521
0.00396821
0.00415961
0.00437146
0.00469641
0.00509961
0.00567712
0.00647703
0.00702919
0.00737085
0.00785943
0.00849823
0.00964305
0.0122187
0.0129
0.0127875
0.0147186
0.0190216
0.0263456
0.0336325
0.00434289
0.00391821
0.00389689
0.00388691
0.00407129
0.00427172
0.00448429
0.00480959
0.00521494
0.00580245
0.00661151
0.00717023
0.00754198
0.00814067
0.00920058
0.0106225
0.0134389
0.0155634
0.0169144
0.0207678
0.0277444
0.035668
0.0432295
0.00432838
0.00390486
0.00393224
0.00393974
0.00417528
0.00437864
0.00460311
0.00492139
0.0053245
0.00592111
0.00673326
0.00729305
0.00765943
0.00830212
0.00973269
0.013502
0.0185104
0.0204176
0.0221786
0.026783
0.0342844
0.0443223
0.0570948
0.00431021
0.00389388
0.00399803
0.00401895
0.00429016
0.0044954
0.00471675
0.00502969
0.00542727
0.00602701
0.00684193
0.00741084
0.00782002
0.00863612
0.0111131
0.015162
0.0224767
0.0257264
0.0272146
0.0326902
0.0414042
0.0541833
0.0659891
0.00429044
0.00390535
0.00407175
0.00410694
0.00440379
0.00460424
0.0048313
0.00513289
0.00552345
0.00612562
0.00693172
0.00749538
0.00796384
0.00927522
0.0140886
0.0212417
0.0301879
0.0298323
0.0308412
0.0359007
0.0447797
0.0582874
0.0655223
0.0042802
0.00394508
0.00415775
0.00420351
0.00451416
0.00471664
0.0049387
0.00522923
0.00561082
0.00621173
0.00701739
0.00760095
0.00814577
0.00983643
0.0177059
0.0317914
0.0375596
0.033067
0.0333078
0.0383932
0.0474526
0.0573015
0.0609516
0.00426582
0.00400696
0.0042544
0.0043137
0.00462965
0.00482185
0.00504128
0.00531814
0.00569203
0.00629271
0.00708564
0.00765934
0.00836701
0.0124862
0.0249123
0.0393551
0.0415004
0.0351682
0.0350903
0.039785
0.0484638
0.0563853
0.0566212
0.00424597
0.00408357
0.00434722
0.00441229
0.00473157
0.00492314
0.00513581
0.00539884
0.00576283
0.00636219
0.00715127
0.00778172
0.00903212
0.0157723
0.0365713
0.0518659
0.0428796
0.0364162
0.0361753
0.0408788
0.0507773
0.0537706
0.0531118
0.00424454
0.00417046
0.00445018
0.00452608
0.00483745
0.00501682
0.00522321
0.0054712
0.00582857
0.00642586
0.00720162
0.00785191
0.00966394
0.0224034
0.0487885
0.056645
0.0442784
0.0374147
0.0374175
0.0422303
0.0491156
0.0507685
0.0489491
0.0042614
0.00426119
0.00453833
0.00462473
0.00492829
0.00510463
0.00530123
0.00553543
0.00588362
0.00648424
0.00726785
0.00806846
0.0117732
0.0316592
0.0575865
0.0592947
0.0438506
0.0380726
0.0379538
0.0442813
0.049063
0.0476441
0.0460482
0.00429485
0.00436296
0.00463647
0.00472401
0.00501935
0.00518127
0.00537182
0.00559194
0.005935
0.00653581
0.00730828
0.0083193
0.0144859
0.0433367
0.0635936
0.0613961
0.045409
0.0385736
0.0392046
0.0444531
0.0487765
0.0457664
0.0429308
0.00434731
0.00445871
0.00472054
0.00482265
0.00509588
0.00525422
0.00543471
0.0056414
0.00597704
0.00658381
0.0073776
0.00883455
0.0190585
0.0518386
0.0685709
0.0618056
0.0474568
0.0392523
0.0396645
0.0449135
0.0466362
0.0461228
0.0399298
0.00440417
0.00456127
0.00479982
0.00490884
0.00517114
0.00531599
0.00548881
0.00568469
0.00601563
0.00663316
0.00746068
0.00957137
0.0230938
0.0581164
0.07112
0.0641518
0.0491403
0.0399672
0.0404707
0.0446984
0.0440115
0.0445077
0.038192
0.0044661
0.00465455
0.00488387
0.00499289
0.00523668
0.00537092
0.00553881
0.00572273
0.00604928
0.00667791
0.00755716
0.0106071
0.0289314
0.0618697
0.0725319
0.0643531
0.0520334
0.0406567
0.0402764
0.0421405
0.0410744
0.0416357
0.0364554
0.00454555
0.00475064
0.00494733
0.00507432
0.00529025
0.0054265
0.0055805
0.00575606
0.00607693
0.00672735
0.00767801
0.0116229
0.0317728
0.0645067
0.0765332
0.0658046
0.0522853
0.0414232
0.0397995
0.0391226
0.0382724
0.0385766
0.0343453
0.0046152
0.00483409
0.00501791
0.00514368
0.00535774
0.0054602
0.00561848
0.00578617
0.00610568
0.00677669
0.00783406
0.0128107
0.0353726
0.0673508
0.0786483
0.0700545
0.0526816
0.0418448
0.0376756
0.0367168
0.03505
0.0349914
0.0315012
0.00469641
0.00492139
0.00508099
0.0052122
0.00538296
0.00551398
0.0056525
0.00581267
0.0061265
0.00683082
0.00794774
0.0138044
0.0368497
0.0700874
0.0825771
0.0723177
0.0531333
0.0421567
0.035052
0.0339666
0.0319177
0.0315958
0.0291886
0.00476626
0.00499022
0.00513647
0.00526902
0.00544257
0.0055364
0.00567995
0.00583706
0.0061496
0.00687481
0.00811237
0.0147587
0.0382075
0.0739143
0.0863284
0.0752155
0.0538669
0.0417533
0.0326651
0.0311294
0.0292188
0.0284196
0.0270449
0.00484205
0.00506386
0.00518317
0.00532713
0.00546898
0.00557191
0.00570792
0.00585899
0.00616902
0.00694281
0.00830394
0.0154606
0.0391324
0.0761258
0.0936259
0.0746694
0.0539362
0.04096
0.0304131
0.0286605
0.0269743
0.0261747
0.0252975
0.00490328
0.00512045
0.00523864
0.00536926
0.00548452
0.00559781
0.00572719
0.00587885
0.00618642
0.00698618
0.00845105
0.0160497
0.0404253
0.0807484
0.0944807
0.0747487
0.0537341
0.0402517
0.0279802
0.0262226
0.0250018
0.0242604
0.0240395
0.00496054
0.00517585
0.00527283
0.00540745
0.00551095
0.00561961
0.00574893
0.00589693
0.00620461
0.0070545
0.00866162
0.0171421
0.0426175
0.082527
0.0944242
0.0706776
0.0512213
0.0382033
0.0256481
0.0236018
0.0227485
0.0224675
0.0223359
0.00500868
0.00521956
0.00530291
0.0054433
0.00553119
0.00563511
0.00576256
0.00591319
0.00622204
0.0071185
0.0088151
0.0177318
0.0443646
0.0831004
0.083501
0.0618036
0.0451293
0.034205
0.0230757
0.0211165
0.0205189
0.0205158
0.020372
0.00505028
0.00525639
0.00533307
0.00546411
0.00553306
0.00564817
0.00577673
0.00592689
0.00623589
0.00719827
0.00927865
0.0193545
0.042913
0.0821618
0.0678612
0.051494
0.0380921
0.0294259
0.0204152
0.0184829
0.0181698
0.0180461
0.0180952
0.0050891
0.00529106
0.00536008
0.00548601
0.00554403
0.00565919
0.00578726
0.00594062
0.00625692
0.0072691
0.00942416
0.019779
0.0381878
0.0654228
0.0489993
0.0404941
0.0306847
0.0243082
0.0179133
0.0163438
0.0161459
0.0162423
0.0161455
0.005129
0.00532082
0.00538069
0.00550047
0.00556201
0.0056714
0.00579845
0.00595178
0.0062724
0.00737968
0.00974404
0.0190415
0.0317764
0.0487019
0.0342106
0.030053
0.0236437
0.0196539
0.0154214
0.014339
0.0142342
0.014284
0.0143282
0.00516678
0.00534461
0.00540439
0.00551213
0.00558027
0.00568112
0.00580495
0.0059623
0.00629245
0.0074314
0.0096034
0.0170519
0.0251455
0.0327235
0.0263246
0.0220756
0.0183439
0.0161168
0.0135538
0.0129532
0.0129464
0.0129641
0.0130329
0.00520851
0.00537067
0.00543038
0.00552688
0.00559804
0.00569179
0.00581243
0.00596958
0.00630327
0.00748699
0.00925485
0.0149602
0.0222547
0.0256866
0.0218884
0.0170973
0.0146197
0.0134191
0.0120696
0.0118026
0.0118532
0.0119815
0.0121172
0.00524857
0.00539379
0.00546002
0.00554459
0.00561561
0.0057025
0.00581803
0.00597533
0.00631909
0.00755511
0.00885213
0.0131455
0.0199806
0.021633
0.018765
0.013682
0.0119941
0.0115485
0.0108476
0.0108104
0.0109249
0.01111
0.0112976
0.00529099
0.0054212
0.00549047
0.00556732
0.00563453
0.00571599
0.00582628
0.00597981
0.00633082
0.00757253
0.00858079
0.0117244
0.0178935
0.0174538
0.0164095
0.0118574
0.0106039
0.0102346
0.0100269
0.0101427
0.0103893
0.0106007
0.0108079
0.00533455
0.00544604
0.00552192
0.00559028
0.0056531
0.0057295
0.00583318
0.00598329
0.00634257
0.00753933
0.00838332
0.0106427
0.0171449
0.013486
0.0153559
0.0113075
0.00950658
0.00945598
0.00934544
0.00952972
0.0097948
0.0100469
0.010224
0.0053756
0.00547463
0.00555323
0.00561529
0.00567337
0.00574553
0.00584159
0.0059873
0.00635045
0.00745201
0.00825206
0.00989465
0.0160272
0.0113911
0.0148209
0.0106773
0.00885181
0.00882682
0.00892591
0.00918537
0.00944955
0.0096833
0.00987859
0.00541643
0.00549963
0.00558249
0.00563787
0.00569199
0.0057602
0.00584886
0.00598967
0.0063572
0.00734794
0.0081507
0.00934821
0.0146958
0.0104532
0.014339
0.0102923
0.00850984
0.0084929
0.00859472
0.00886553
0.0091083
0.00929304
0.00947925
0.00545002
0.00552648
0.00560945
0.00565985
0.0057106
0.00577528
0.00585652
0.00599093
0.00636307
0.00725619
0.00807634
0.00893179
0.0129023
0.00982269
0.0135971
0.00981057
0.00847467
0.00831475
0.00838079
0.00861321
0.00886835
0.00899403
0.00917394
0.0054871
0.00555247
0.00563643
0.00568135
0.00573019
0.00579089
0.00586415
0.00599198
0.00637427
0.00715126
0.00799657
0.0086128
0.0114007
0.00925052
0.0127267
0.00938095
0.0084276
0.00820374
0.00829652
0.00853059
0.00872025
0.00884429
0.00894871
0.00551731
0.00557923
0.00566248
0.00570312
0.00574907
0.00580623
0.00587298
0.00599342
0.00637865
0.00705586
0.00792436
0.0083732
0.0105102
0.00887357
0.01164
0.0091089
0.00834012
0.00811746
0.00825974
0.00849104
0.00865593
0.00878482
0.00881251
0.00555166
0.00560779
0.00568722
0.00572393
0.00576926
0.00582214
0.00588179
0.00599552
0.00639552
0.00698551
0.00784219
0.008188
0.0101553
0.00871679
0.0107911
0.00883129
0.00829662
0.00814652
0.00824012
0.00845987
0.00863353
0.00872394
0.00885071
0.0055799
0.00563353
0.00571249
0.00574477
0.00578812
0.00583725
0.00589182
0.00599819
0.00639535
0.00688859
0.00774807
0.0080388
0.00991856
0.00864928
0.00996875
0.00867266
0.00826848
0.00811667
0.00820864
0.00843701
0.00861442
0.00874059
0.00881038
0.0056096
0.0056616
0.00573512
0.0057657
0.00580749
0.00585242
0.00590156
0.00600154
0.00639666
0.00683561
0.00766455
0.0079082
0.00956256
0.00856783
0.00938122
0.00860257
0.00823871
0.00811572
0.00819485
0.00842035
0.00861474
0.00873408
0.00880228
0.00563727
0.00568761
0.00575781
0.0057841
0.00582508
0.00586617
0.00591201
0.0060053
0.00639381
0.00680543
0.00755998
0.00779939
0.00932437
0.00857053
0.00897959
0.00849026
0.00816843
0.0081156
0.00820239
0.00841508
0.00863303
0.00878429
0.00885554
0.00566379
0.00571246
0.0057807
0.00580508
0.00584386
0.00588077
0.00592236
0.00600953
0.00639325
0.00678036
0.00746787
0.00767571
0.00904068
0.00853305
0.00894411
0.00854227
0.00821266
0.00816261
0.00820944
0.00842882
0.00866588
0.00885121
0.00892041
0.00568755
0.0057374
0.00579839
0.00582243
0.00585855
0.00589289
0.00593212
0.00601399
0.00638269
0.00679294
0.00738616
0.00759899
0.00890358
0.00851343
0.00890029
0.0085558
0.00821973
0.00819197
0.00828309
0.00851623
0.00869251
0.00894655
0.00907295
0.00571533
0.00575924
0.00582172
0.00583974
0.00587644
0.00590517
0.00594304
0.00601858
0.00638543
0.00679379
0.00727036
0.00749999
0.00880322
0.00849676
0.00878809
0.00856221
0.00822269
0.00828389
0.0084125
0.0086018
0.00871171
0.00899786
0.00916419
0.00573265
0.00578247
0.00583588
0.0058589
0.00588934
0.00591823
0.00595143
0.00602341
0.00637372
0.0067731
0.00724663
0.0073963
0.00877164
0.00842932
0.00877977
0.00856798
0.0083536
0.00842459
0.00857945
0.00873186
0.00879257
0.00909449
0.00934414
0.00575843
0.00579929
0.00585437
0.0058708
0.00590308
0.00592663
0.00596178
0.00602797
0.00637487
0.00677633
0.00723402
0.0074128
0.00876306
0.00847745
0.00870304
0.00865483
0.00859025
0.00858289
0.00870472
0.00880332
0.00886068
0.00915767
0.00945176
0.00577621
0.00581867
0.00586958
0.00588998
0.00591542
0.00593789
0.00597046
0.00603282
0.00637322
0.00676068
0.00722715
0.00741425
0.00870293
0.0085043
0.00874471
0.00878843
0.00882112
0.00875441
0.00887053
0.00894276
0.00901854
0.00933178
0.00974534
0.0057859
0.00583669
0.00588076
0.00589798
0.00592774
0.00594674
0.00597699
0.00603737
0.00637113
0.00677957
0.00719051
0.00741484
0.00874919
0.00864054
0.00871283
0.00888842
0.00903891
0.0089339
0.00897263
0.0090262
0.00911768
0.0094311
0.0098966
0.00578585
0.0058376
0.00588027
0.00590222
0.005927
0.00595346
0.00598659
0.0060418
0.00637032
0.00677799
0.00716649
0.00741801
0.00874234
0.00876695
0.00872567
0.00893743
0.00923169
0.00916006
0.00914494
0.00919951
0.00939021
0.00986911
0.0106237
0.00578722
0.00583945
0.00588095
0.00590832
0.00592987
0.00595221
0.00599124
0.00604626
0.00636945
0.00676319
0.00716803
0.00742137
0.00884144
0.00893895
0.00876784
0.00899107
0.00935652
0.0092867
0.00926062
0.0093832
0.00959084
0.0101188
0.0110054
0.00578844
0.00584072
0.00588203
0.00590764
0.00593279
0.00595207
0.0059937
0.00605028
0.00636752
0.00679256
0.00714859
0.00738038
0.00894217
0.00913107
0.00881813
0.00904825
0.00950157
0.00951644
0.00946541
0.00958566
0.0101625
0.0112502
0.013076
0.0057891
0.00585014
0.00588314
0.00591297
0.00593309
0.00595561
0.00599462
0.0060542
0.00637312
0.00679781
0.00715886
0.00742611
0.00910165
0.00943389
0.00893977
0.00913922
0.00964185
0.00970835
0.00980352
0.0102333
0.0110596
0.0125931
0.0153759
0.00579178
0.00584838
0.00588823
0.00591007
0.00593153
0.00595348
0.00599426
0.00605771
0.0063742
0.00679434
0.00715638
0.00736809
0.00926595
0.00966137
0.00909748
0.00925144
0.00986711
0.00995013
0.0100913
0.0108397
0.0126277
0.0157881
0.0210235
0.00579287
0.00584801
0.00588468
0.00591543
0.00593326
0.00595329
0.00599618
0.00606093
0.00637421
0.00683214
0.00716744
0.00740884
0.00935201
0.00995025
0.00932111
0.00973462
0.0102788
0.0106896
0.0110763
0.0123282
0.0151118
0.0201658
0.0269224
0.00579603
0.00584778
0.00588621
0.00591603
0.00593482
0.00595654
0.00599542
0.00606396
0.00637854
0.00684134
0.00715761
0.00738908
0.009499
0.0103995
0.00968599
0.0101418
0.0109584
0.0111672
0.0120092
0.0144064
0.0192353
0.0277465
0.0426189
0.0057966
0.0058481
0.00589166
0.0059198
0.00593092
0.00595924
0.00599786
0.00606616
0.00638269
0.00686116
0.00719851
0.00737791
0.0095864
0.0108984
0.0104193
0.0111754
0.0120093
0.0128148
0.0144618
0.0180442
0.0253573
0.038467
0.0542633
0.00580488
0.00584818
0.00588728
0.00591881
0.00593049
0.00595614
0.00599581
0.00606849
0.00638948
0.00686515
0.00716638
0.00739297
0.00970883
0.0115742
0.0113157
0.0122695
0.0136849
0.0148094
0.0172578
0.0229697
0.0335192
0.0509672
0.0722361
0.00579929
0.00584596
0.00588755
0.00591842
0.00592989
0.00595513
0.00599618
0.00607112
0.00639443
0.00687991
0.00720121
0.00743289
0.00976213
0.0122385
0.0124131
0.01401
0.0154378
0.0170416
0.0208739
0.0286761
0.042687
0.0651714
0.0909921
0.00580265
0.00584625
0.00588674
0.00592029
0.00592993
0.00595452
0.00599573
0.00607133
0.00640975
0.00688317
0.00720158
0.00747344
0.0101563
0.0128411
0.014792
0.01654
0.0190069
0.0213185
0.0268084
0.0376563
0.0557106
0.0840074
0.11304
0.00580254
0.00584004
0.00588625
0.00592126
0.0059285
0.00595508
0.00599556
0.00607159
0.00641654
0.00686032
0.00721037
0.00752946
0.0108527
0.0148239
0.0164874
0.0191236
0.0226439
0.0265109
0.0338658
0.0474129
0.0698326
0.104435
0.132211
0.005802
0.0058376
0.00588688
0.0059153
0.00592862
0.00595075
0.00599598
0.00607183
0.00642779
0.00686773
0.00722768
0.00763299
0.0114522
0.0165399
0.020723
0.0237466
0.0277648
0.032376
0.0411631
0.0593228
0.0867346
0.123954
0.161854
0.00579841
0.0058377
0.00588426
0.00591442
0.00593109
0.00595022
0.00599554
0.00607217
0.00643678
0.00688007
0.00729623
0.0077783
0.0142219
0.0215747
0.0262615
0.0274152
0.0328362
0.0390326
0.0510521
0.0700529
0.101378
0.141022
0.17917
0.00579582
0.00583558
0.00588478
0.00591698
0.00592609
0.00594961
0.00599539
0.00607191
0.00645504
0.00689704
0.00731431
0.00781957
0.0155516
0.0254918
0.031908
0.0349684
0.0399984
0.0465843
0.058765
0.0831223
0.11908
0.160287
0.189936
0.0057845
0.00584138
0.00587962
0.00591677
0.00592533
0.00594915
0.00599164
0.00607209
0.00646087
0.00696477
0.00729331
0.00782266
0.0228256
0.038865
0.0435296
0.0424919
0.0473383
0.0535239
0.0702353
0.100489
0.133807
0.179155
0.195675
0.00578243
0.00583377
0.00587647
0.00591459
0.0059274
0.00594898
0.00599089
0.00607227
0.00647125
0.00698281
0.00733654
0.00794824
0.0288939
0.0479536
0.0511722
0.0514796
0.0578749
0.0677019
0.0873395
0.115248
0.1506
0.191086
0.198639
0.00577762
0.00583234
0.00587615
0.00590964
0.00592778
0.00594805
0.00598923
0.00607214
0.00647677
0.00700568
0.00738791
0.00827689
0.043598
0.0663189
0.0671726
0.0617927
0.0659358
0.0726002
0.092304
0.131898
0.169252
0.19984
0.202746
0.00577479
0.00582982
0.00587354
0.00590633
0.00592331
0.00594545
0.00598889
0.00607259
0.00649013
0.00696337
0.00742774
0.00927512
0.0880015
0.100024
0.0883495
0.0755657
0.0789961
0.0891896
0.116691
0.15832
0.192479
0.210778
0.209819
0.00577156
0.00582454
0.00587225
0.00590239
0.00591861
0.00594346
0.00598758
0.00607308
0.0064967
0.00699207
0.0074095
0.0101688
0.107037
0.135232
0.112529
0.097641
0.101756
0.113841
0.149564
0.19474
0.215491
0.219584
0.214161
0.00578284
0.00582103
0.00587381
0.00589507
0.00591663
0.00594199
0.00598699
0.00607449
0.0065027
0.00696848
0.00760444
0.0138862
0.186083
0.161538
0.129961
0.113595
0.11953
0.143571
0.190232
0.216647
0.224323
0.225649
0.214717
0.00577197
0.00582024
0.0058743
0.00589221
0.00591345
0.00594211
0.00598853
0.00607574
0.00652173
0.00697293
0.00730643
0.0216329
0.355666
0.264822
0.152389
0.131868
0.142362
0.176267
0.215852
0.231341
0.227577
0.227053
0.211239
0.005776
0.00580773
0.00586969
0.00588756
0.00591194
0.00593523
0.0059881
0.00607865
0.00654109
0.00704526
0.00749747
0.0396856
0.398828
0.326665
0.181473
0.152171
0.167338
0.201968
0.227139
0.231888
0.231252
0.22753
0.203956
0.00577013
0.00580534
0.00586403
0.00588486
0.00591258
0.00593422
0.00598307
0.00607715
0.00652391
0.00713995
0.00839618
0.177861
0.424009
0.364873
0.211283
0.178951
0.190594
0.212392
0.230216
0.232948
0.231223
0.225711
0.204533
0.00576268
0.00580946
0.00585979
0.00588721
0.00591295
0.00593725
0.00598094
0.00607658
0.00650256
0.00731984
0.0110012
0.27287
0.454077
0.387056
0.22252
0.189098
0.201155
0.216369
0.226838
0.229708
0.225134
0.211403
0.185795
0.00575648
0.00580643
0.00584866
0.00588343
0.00590876
0.0059367
0.00597661
0.00607105
0.00647591
0.00728213
0.0116713
0.573344
0.58002
0.458148
0.269434
0.215937
0.214233
0.208344
0.208889
0.209234
0.202877
0.192257
0.164969
0.00574213
0.00580047
0.00583241
0.00587611
0.00590226
0.00593161
0.00597159
0.00606314
0.00644515
0.00731467
0.01134
0.725918
0.647415
0.457328
0.273156
0.222315
0.208712
0.197975
0.195147
0.194189
0.187808
0.172651
0.143619
0.00572028
0.00578274
0.00582665
0.00586542
0.00589276
0.00592473
0.00596707
0.00605484
0.00641205
0.0072962
0.0119137
0.827595
0.726093
0.428227
0.273423
0.221221
0.197544
0.182727
0.176726
0.174114
0.169458
0.15011
0.118359
0.00571302
0.00577271
0.00582809
0.00584812
0.00587698
0.00591734
0.00596092
0.00604751
0.00637588
0.00738866
0.0168299
0.86141
0.752766
0.439491
0.259722
0.251751
0.187587
0.168973
0.161515
0.158254
0.147151
0.123349
0.0946175
0.00571579
0.00575514
0.00582068
0.00582448
0.00585518
0.00590781
0.00595263
0.00604071
0.00640096
0.00748718
0.0205799
0.898869
0.771324
0.433634
0.298735
0.235518
0.171535
0.152908
0.144584
0.137282
0.120613
0.0970402
0.073514
0.00570923
0.00575081
0.00580866
0.0058161
0.00584712
0.00589675
0.00594251
0.00603341
0.00637791
0.00756608
0.0222223
0.77772
0.703778
0.395675
0.285285
0.2217
0.157663
0.13695
0.125886
0.114562
0.0966974
0.0761517
0.0545989
0.00569512
0.00573283
0.00578995
0.0058173
0.00584656
0.00588249
0.00593009
0.00602632
0.00641114
0.00763558
0.022799
0.662156
0.601778
0.367286
0.279895
0.197852
0.139406
0.118514
0.106141
0.0920617
0.073947
0.0537665
0.0339841
0.00567477
0.0057073
0.00576903
0.00580678
0.00583468
0.00586704
0.00591529
0.00601711
0.00641391
0.00794339
0.0289031
0.654261
0.512335
0.382082
0.251029
0.165445
0.119372
0.102197
0.0902876
0.0772859
0.0602068
0.0401862
0.0220635
0.00565009
0.00566772
0.00574632
0.00578773
0.00581561
0.0058477
0.00589822
0.00600872
0.00639814
0.00840093
0.0320824
0.498392
0.502377
0.33315
0.20516
0.136679
0.103996
0.0926521
0.0813697
0.0650934
0.0448232
0.0254641
0.0158368
0.00562207
0.00561541
0.00572141
0.00576509
0.00579381
0.00582579
0.00587779
0.00599613
0.00639457
0.00882304
0.0421278
0.361767
0.52048
0.26369
0.171327
0.113396
0.0898567
0.081651
0.0670588
0.0495386
0.0334375
0.0207865
0.0150931
0.0055865
0.0055962
0.0056915
0.00573544
0.00576532
0.00579859
0.00585505
0.0059873
0.00643882
0.00965531
0.051409
0.323483
0.423281
0.209048
0.136932
0.0984568
0.0861159
0.0792083
0.0644579
0.0503495
0.0356842
0.0212744
0.0145025
0.00554767
0.00559791
0.00565852
0.00570333
0.0057345
0.00576853
0.00582746
0.00597127
0.0064789
0.0109255
0.0805841
0.310153
0.311859
0.164067
0.117137
0.0942556
0.084557
0.0754597
0.0621883
0.0524985
0.0328069
0.0202237
0.0137162
0.00550142
0.0055692
0.00561628
0.00566279
0.00569476
0.00573141
0.00579709
0.00596285
0.00661364
0.0144448
0.0894219
0.24788
0.232569
0.13835
0.102881
0.0883006
0.0839346
0.0783253
0.0663335
0.0508836
0.0316681
0.0194369
0.0138097
0.00545316
0.00552905
0.00557067
0.00561954
0.00565241
0.00569094
0.00576038
0.00594251
0.0065467
0.0157208
0.101186
0.202473
0.180063
0.126444
0.099479
0.0924479
0.0905097
0.0832552
0.0691142
0.0520242
0.0307173
0.0179303
0.0138317
0.00539486
0.00547361
0.00551399
0.00556506
0.00559829
0.00564077
0.00571966
0.00593355
0.00710327
0.0173493
0.097646
0.162704
0.143405
0.112934
0.0969582
0.0954746
0.090313
0.0840614
0.0731844
0.0509499
0.0271918
0.0200464
0.0139436
0.00533347
0.00541308
0.00545388
0.00550762
0.00554187
0.00558718
0.00567123
0.00589856
0.00734727
0.0186935
0.0772213
0.134439
0.11524
0.106993
0.104904
0.101331
0.100175
0.0946476
0.0767104
0.0439522
0.0305125
0.0194016
0.0140031
0.0052579
0.00533675
0.00537922
0.00543528
0.00547
0.00552001
0.00561643
0.00587167
0.00740498
0.0172075
0.0619954
0.108757
0.106721
0.111996
0.110725
0.113469
0.109754
0.102923
0.0713155
0.0449394
0.0312957
0.0181016
0.0129907
0.00517894
0.00525782
0.00530252
0.00536048
0.00539666
0.00545006
0.00555211
0.00582422
0.0079724
0.0260028
0.063213
0.104539
0.104863
0.122722
0.128169
0.125783
0.126128
0.106632
0.0753802
0.0449774
0.0276911
0.0148884
0.0114126
0.00508172
0.00515955
0.00520791
0.005266
0.00530312
0.00536164
0.00547794
0.00579439
0.00851358
0.0283559
0.0562946
0.0931012
0.106676
0.133098
0.138509
0.14414
0.136424
0.110477
0.0710153
0.0424268
0.0188525
0.0116452
0.00973268
0.00498244
0.00506138
0.00511376
0.00517072
0.00521023
0.00527221
0.00539056
0.00572952
0.00993595
0.0269807
0.0564218
0.0904096
0.108752
0.143069
0.150272
0.148564
0.141813
0.105693
0.0645899
0.0284835
0.0125287
0.00937792
0.00805627
0.00486023
0.00493872
0.00499527
0.0050493
0.00509072
0.00515801
0.00529251
0.00571008
0.0103475
0.0289529
0.0575825
0.0879268
0.11507
0.154004
0.161324
0.163391
0.142765
0.098359
0.0481706
0.0164772
0.00933746
0.00764486
0.00691152
0.00473957
0.00482029
0.00488025
0.00493122
0.00497595
0.00504579
0.00517806
0.00568566
0.0120599
0.0332773
0.0643938
0.0868935
0.125556
0.165174
0.174863
0.175656
0.130558
0.0835695
0.0287711
0.0105855
0.00743651
0.0065788
0.006215
0.00458972
0.0046701
0.00473135
0.00477799
0.00482492
0.00490045
0.00505357
0.00574455
0.0138832
0.0407824
0.0708078
0.0903765
0.138518
0.184235
0.194252
0.183469
0.131031
0.0637028
0.0155546
0.00772511
0.00631744
0.00592274
0.00575369
0.00444884
0.004532
0.00459302
0.00463711
0.00468697
0.00476364
0.00491655
0.00567572
0.0173901
0.0472466
0.0732868
0.0978884
0.164937
0.210183
0.193386
0.166121
0.110016
0.0374351
0.0094198
0.00624879
0.00567499
0.00549241
0.00541314
0.00426957
0.00435049
0.00440832
0.00444766
0.00449863
0.00458344
0.00478356
0.00710311
0.0210139
0.0605178
0.083146
0.136801
0.22097
0.234943
0.200349
0.167895
0.0776866
0.0165077
0.00663838
0.00546951
0.00524414
0.00516468
0.0051288
0.0041134
0.0041975
0.00424985
0.00428811
0.00434013
0.00442366
0.00464977
0.00730083
0.0316194
0.0773274
0.101209
0.205241
0.263682
0.248453
0.196111
0.143127
0.0371653
0.00907934