/*--------------------------------*- C++ -*----------------------------------*\
  =========                 |
  \\      /  F ield         | OpenFOAM: The Open Source CFD Toolbox
   \\    /   O peration     | Website:  https://openfoam.org
    \\  /    A nd           | Version:  7
     \\/     M anipulation  |
\*---------------------------------------------------------------------------*/
FoamFile
{
    version     2.0;
    format      ascii;
    class       volScalarField;
    location    "50";
    object      nut;
}
// * * * * * * * * * * * * * * * * * * * * * * * * * * * * * * * * * * * * * //

dimensions      [0 2 -1 0 0 0 0];

internalField   nonuniform List<scalar> 
12842
(
0.00180524
0.00179884
0.00177285
0.001781
0.00177852
0.00176889
0.00176566
0.00175538
0.00175956
0.00176383
0.00175849
0.0017667
0.00178029
0.00137408
0.000657076
0.000370553
0.000242373
0.000175366
0.000136079
0.000110626
9.33213e-05
8.2813e-05
7.25115e-05
0.00180932
0.00179384
0.00178158
0.00177814
0.00177112
0.00177362
0.00176742
0.00175724
0.00176322
0.00175939
0.00175782
0.00177007
0.00178885
0.00142105
0.000674478
0.000379728
0.00024684
0.000177684
0.000137822
0.000111878
9.40662e-05
8.32825e-05
7.275e-05
0.00180445
0.00179186
0.00176845
0.00178083
0.00176605
0.00177123
0.00176404
0.00175981
0.00176697
0.00175911
0.00176655
0.00178225
0.00180642
0.00144064
0.000688892
0.000388457
0.000254582
0.000182873
0.000140828
0.000114834
9.72042e-05
8.58917e-05
7.45401e-05
0.00180753
0.00179071
0.00177101
0.00177438
0.00176699
0.00177294
0.00176283
0.00176367
0.00176633
0.00175596
0.00177598
0.00179736
0.00183008
0.00142218
0.000686067
0.000392827
0.000256866
0.000185965
0.000144028
0.000116115
9.87638e-05
8.87775e-05
7.68187e-05
0.00180348
0.00178439
0.00177141
0.00177587
0.00176191
0.00176913
0.00175764
0.00176767
0.0017649
0.001756
0.00178723
0.0018173
0.00186007
0.00139894
0.000680206
0.000396036
0.000262553
0.000189508
0.000147324
0.000120436
0.000100504
9.13474e-05
7.95746e-05
0.00180487
0.00178328
0.00176552
0.00177293
0.00176745
0.00176868
0.00175551
0.00176747
0.00176546
0.00176518
0.00179629
0.00183266
0.00188282
0.00138121
0.000680169
0.000395216
0.000263769
0.000193283
0.000149451
0.000123214
0.000105059
9.50888e-05
8.24921e-05
0.00180194
0.00177941
0.00177163
0.00176873
0.00176278
0.00176615
0.00175615
0.00176743
0.00176083
0.00178023
0.00181404
0.00186037
0.00192879
0.00137499
0.000684409
0.000401598
0.000271026
0.000197287
0.000153242
0.000126431
0.000107457
9.90736e-05
8.66914e-05
0.00180137
0.00177772
0.00176749
0.00176705
0.00176715
0.00176504
0.00175713
0.00176768
0.00176203
0.00178768
0.00182741
0.00188146
0.00195608
0.00140245
0.000695173
0.000408233
0.000275215
0.000206055
0.000160715
0.000133598
0.000115732
0.000106613
9.25137e-05
0.00179836
0.00177567
0.00177189
0.00176434
0.001765
0.00176009
0.00176029
0.00176895
0.00176409
0.00179857
0.00184931
0.00191357
0.00199932
0.00145294
0.000704296
0.000413736
0.000282405
0.000212577
0.000168603
0.000140759
0.000120618
0.000112797
9.85691e-05
0.00179743
0.00177075
0.00177079
0.00176314
0.00176631
0.00175915
0.00176291
0.00176873
0.00177923
0.00181015
0.00187323
0.00195267
0.00203365
0.001494
0.000734843
0.000430327
0.000288293
0.000215575
0.000170074
0.000143592
0.00012361
0.000115254
0.000100738
0.00179351
0.00177185
0.00177101
0.00176179
0.00176467
0.00175512
0.0017644
0.00177028
0.00178306
0.00182645
0.00189868
0.00198989
0.00207412
0.00148632
0.000737033
0.000435103
0.000296959
0.000223922
0.00017759
0.000150043
0.000128871
0.000120313
0.000105901
0.00179337
0.00176677
0.00176937
0.00176099
0.00176458
0.00175372
0.00176557
0.00176873
0.00179858
0.00184384
0.0019311
0.00203051
0.00210303
0.00151198
0.000763417
0.000454007
0.000309632
0.000231954
0.000184591
0.00015734
0.000136835
0.000128465
0.000113342
0.00178789
0.00176842
0.00176904
0.00176049
0.00176353
0.00175134
0.00176569
0.0017692
0.00180497
0.00186186
0.00196517
0.0020706
0.00213998
0.00151385
0.000775244
0.000467219
0.000323327
0.000246934
0.000196543
0.000169566
0.000147164
0.000138058
0.000121213
0.00178841
0.00176709
0.00176636
0.00175999
0.00176288
0.00175041
0.00176562
0.00176672
0.0018209
0.00188593
0.00200591
0.00211065
0.00216183
0.00157207
0.000819674
0.000497409
0.00034954
0.000263527
0.000212674
0.000182003
0.000157484
0.000149653
0.000132078
0.00178325
0.00176579
0.00176568
0.00176017
0.0017608
0.00174911
0.00176441
0.00176834
0.00183469
0.0019125
0.00204597
0.00214904
0.00219214
0.0015862
0.000843998
0.000524596
0.000371204
0.000284481
0.000226501
0.000196798
0.000173929
0.000168298
0.000147043
0.00178297
0.0017671
0.00176482
0.00175928
0.00175974
0.00174878
0.00176359
0.00177861
0.00185835
0.00194513
0.0020852
0.00218174
0.00219991
0.00166648
0.000894355
0.000553903
0.000399203
0.000304648
0.00025061
0.000222269
0.000195881
0.000184631
0.00016224
0.0017796
0.00176518
0.0017637
0.0017611
0.00175759
0.00174851
0.00176438
0.00178588
0.00187598
0.00197775
0.00212209
0.00220745
0.00221214
0.00170992
0.000939068
0.000601777
0.000430477
0.000336105
0.000282185
0.00024518
0.000215849
0.000209213
0.000192736
0.00177816
0.00176333
0.00176467
0.00175873
0.00175678
0.00174831
0.00176306
0.00180981
0.00190439
0.00200805
0.00214683
0.00222554
0.00220305
0.00182267
0.00100168
0.00063086
0.000477139
0.000376926
0.000315667
0.000282233
0.000271442
0.000262333
0.000229171
0.00177609
0.00176315
0.00176401
0.00176175
0.00175525
0.00174862
0.00176391
0.00182756
0.00192876
0.00203365
0.00217027
0.00223241
0.00219568
0.00189087
0.00107255
0.000718379
0.000523597
0.000425425
0.000384062
0.000368118
0.000347182
0.000315196
0.000299578
0.00177453
0.00175833
0.00176549
0.00176107
0.00175485
0.00174963
0.00177459
0.00186087
0.00195616
0.00205317
0.00217877
0.00223678
0.00217664
0.00203917
0.00118334
0.000774909
0.000615299
0.000522551
0.000506912
0.000461435
0.00044431
0.000462479
0.000502808
0.00177245
0.00175669
0.00176668
0.00176063
0.00175443
0.00175059
0.0017834
0.00188596
0.00197445
0.00206354
0.00218219
0.00222402
0.00215085
0.00204026
0.00122948
0.000863427
0.000697232
0.000647221
0.00060239
0.000603292
0.000737088
0.000659032
0.000598015
0.00177208
0.00175154
0.00176652
0.00176475
0.00175672
0.0017622
0.00181009
0.00192263
0.00199
0.00207397
0.00218526
0.00222777
0.00214004
0.00198637
0.00141331
0.00101508
0.000845972
0.000741779
0.000803163
0.000821518
0.000680134
0.000590769
0.000474577
0.00176967
0.00174845
0.001769
0.00176277
0.00176165
0.00178381
0.00183814
0.0019414
0.00199819
0.00207207
0.00217458
0.00219858
0.00208987
0.00192621
0.00146018
0.00108693
0.000929995
0.000911939
0.000905955
0.000740665
0.000600156
0.000443061
0.000327993
0.00176894
0.00174362
0.00177111
0.00176446
0.00177133
0.00181971
0.00188294
0.00196329
0.00200844
0.00207128
0.00216846
0.00219692
0.00208817
0.00191114
0.00158999
0.00123625
0.00107434
0.00104361
0.000829163
0.000646253
0.000440725
0.000298646
0.000259974
0.0017686
0.00174009
0.00177162
0.00176768
0.00178984
0.00186074
0.00190647
0.0019676
0.00200514
0.00206185
0.0021536
0.00216718
0.00203064
0.00182488
0.00160497
0.00136592
0.00120736
0.000975352
0.000753221
0.000488305
0.000324153
0.000275795
0.000280773
0.00176747
0.00173929
0.00177187
0.00177467
0.00181905
0.00189391
0.00192324
0.00196791
0.00199882
0.00205276
0.00214314
0.00215752
0.00201068
0.00177384
0.00152835
0.00133133
0.00124824
0.000954211
0.000595818
0.000377354
0.000301634
0.000304847
0.000335849
0.00176733
0.00173941
0.00178289
0.00179079
0.00185575
0.00192136
0.00193067
0.00196424
0.00199028
0.00204118
0.00212846
0.00213363
0.00196893
0.00174411
0.00151674
0.00136154
0.00120909
0.000847825
0.000494354
0.000368683
0.000341756
0.000351833
0.000370642
0.0017671
0.00173965
0.00180357
0.00181399
0.00187166
0.00193594
0.00193499
0.00195713
0.00197996
0.00202898
0.00211506
0.00211409
0.00192792
0.00165211
0.00147512
0.00154142
0.0012523
0.000680658
0.000454028
0.000375251
0.000364864
0.000386149
0.000432891
0.00176885
0.00174143
0.00183763
0.00183831
0.00189487
0.0019455
0.00193254
0.00194826
0.00196916
0.00201832
0.00210382
0.00209806
0.00189348
0.00165871
0.00158891
0.00144835
0.000925597
0.000593535
0.000441192
0.000398098
0.000394887
0.000436632
0.000479927
0.00176755
0.0017518
0.00187203
0.00185578
0.00189985
0.00194621
0.00192796
0.00193817
0.00195813
0.00200716
0.0020914
0.00207968
0.00187114
0.00163244
0.0017798
0.00131267
0.000813239
0.00053918
0.00043582
0.000400541
0.00040516
0.000471852
0.000488629
0.00177277
0.00177616
0.00190783
0.00186964
0.00190786
0.0019439
0.00192048
0.00192783
0.00194735
0.00199811
0.00208166
0.00205534
0.00180004
0.00156746
0.00174283
0.00114557
0.000769501
0.000522327
0.000438449
0.000408723
0.00043511
0.000480975
0.000479784
0.0017769
0.00180687
0.00193904
0.00188133
0.00190892
0.00193655
0.00191159
0.00191787
0.00193749
0.00198964
0.00207279
0.00204637
0.00179487
0.00175474
0.00159612
0.00100545
0.000715774
0.000520322
0.000443053
0.000427443
0.000465863
0.000503579
0.000478398
0.00177703
0.00184358
0.00195527
0.00188536
0.00190611
0.00192892
0.00190199
0.00190817
0.0019278
0.00198291
0.00206479
0.00201406
0.00172979
0.0016621
0.00142118
0.00101694
0.000681766
0.000526445
0.000457329
0.000460595
0.000524809
0.000520079
0.0004899
0.00178501
0.00188038
0.00197016
0.00189142
0.00190534
0.00191735
0.00189319
0.00189933
0.00191965
0.0019765
0.00205414
0.00198885
0.00169615
0.00179415
0.00131769
0.00101259
0.000692055
0.000540013
0.000492708
0.000514379
0.000554552
0.000538537
0.000497983
0.00179908
0.00191116
0.00196675
0.00189149
0.00189807
0.00190866
0.00188371
0.00189113
0.00191154
0.00197277
0.00205242
0.00194819
0.00168202
0.00176022
0.0012377
0.0009943
0.000681415
0.0005604
0.000534299
0.000588584
0.000608532
0.000560465
0.000522065
0.00181898
0.00193582
0.00196758
0.00188951
0.0018951
0.00189676
0.00187641
0.00188366
0.00190523
0.00196857
0.002036
0.00192577
0.0017455
0.00167895
0.0012005
0.00101919
0.000722186
0.000601797
0.000588895
0.000642025
0.00066856
0.000598528
0.000542572
0.00184084
0.0019479
0.00195627
0.00188989
0.00188786
0.00188867
0.00186972
0.00187718
0.00189902
0.00196667
0.00203579
0.00188243
0.00169675
0.00152867
0.00122812
0.00102544
0.000788256
0.00065031
0.000634692
0.000705846
0.000702981
0.000669819
0.000563378
0.00185875
0.00195532
0.00194574
0.00188457
0.00188377
0.00187941
0.00186339
0.00187138
0.00189427
0.00196567
0.00201831
0.00183806
0.00168659
0.00147808
0.0012638
0.00106488
0.000853254
0.000707885
0.00068512
0.000752674
0.000726258
0.000717744
0.000602233
0.0018724
0.00195397
0.0019351
0.00188146
0.00187848
0.00187207
0.00185996
0.00186666
0.00189042
0.00196557
0.00201658
0.00187005
0.00179681
0.00148142
0.0012969
0.00110268
0.000948986
0.000779003
0.000737669
0.000759433
0.000739933
0.000741035
0.000639903
0.0018848
0.00194992
0.00191984
0.00187823
0.00187109
0.00186668
0.00185547
0.00186249
0.00188679
0.00196727
0.00200484
0.00184063
0.00169587
0.00148474
0.00138962
0.00120008
0.00100431
0.000854653
0.000784463
0.000751452
0.0007534
0.000757176
0.00067001
0.00188899
0.00194144
0.00190885
0.00187298
0.00187293
0.0018581
0.00185321
0.00185947
0.00188523
0.00196955
0.00200134
0.00185637
0.00172874
0.00154781
0.00146096
0.00133676
0.00104443
0.000922479
0.000809674
0.000761753
0.000757092
0.00075976
0.000684454
0.00189132
0.00193373
0.00189531
0.00186966
0.00185922
0.00185725
0.00185095
0.00185668
0.00188279
0.00197352
0.00197709
0.0018339
0.00167673
0.00162021
0.0015624
0.00142169
0.00107633
0.000977394
0.000823254
0.000772929
0.000755314
0.000758574
0.000702674
0.00188815
0.00192137
0.0018826
0.00186351
0.00186236
0.00184723
0.00184885
0.00185485
0.00188224
0.00197423
0.00195659
0.00179232
0.00163805
0.00174958
0.00170743
0.00154576
0.00114301
0.0010238
0.00083044
0.000777005
0.000752633
0.000741384
0.000708328
0.00188287
0.00191243
0.00186874
0.00186078
0.00185328
0.001844
0.00184669
0.00185309
0.00188146
0.00197965
0.00193111
0.00176768
0.00157461
0.0018107
0.00198153
0.00158104
0.00122218
0.00105933
0.000823542
0.000771343
0.000742561
0.000727158
0.000703669
0.00187553
0.00189914
0.00186258
0.0018533
0.00184429
0.00183803
0.00184415
0.00185197
0.001881
0.00198244
0.00191995
0.00171303
0.00154138
0.00194047
0.00207641
0.00169592
0.001314
0.00108685
0.000794506
0.000743133
0.000714395
0.000696162
0.000695513
0.00186401
0.00188907
0.00185236
0.00184751
0.00183899
0.00183343
0.00184201
0.00185069
0.0018812
0.00198645
0.00188417
0.00173046
0.00164628
0.00205354
0.00221232
0.00172375
0.00136628
0.00109202
0.000764468
0.000706054
0.000679597
0.000661066
0.000657558
0.00185603
0.00187624
0.00184402
0.00184224
0.00183232
0.00182783
0.00183999
0.00184999
0.00188173
0.00199412
0.00184246
0.00175774
0.00181482
0.00226203
0.00214804
0.00162934
0.00131415
0.00105288
0.000732123
0.000670683
0.000650611
0.000640126
0.000624861
0.0018441
0.00186562
0.00183776
0.00183439
0.00182273
0.00182482
0.00183827
0.00184864
0.00188159
0.00200227
0.00187917
0.00179364
0.0018903
0.00235081
0.00200454
0.00150292
0.00118401
0.000977986
0.000699164
0.000637393
0.000624624
0.000605008
0.000586753
0.00183857
0.00185602
0.00183239
0.0018288
0.00181855
0.00182226
0.00183719
0.0018482
0.0018834
0.00200545
0.0018409
0.00181105
0.00185429
0.00224182
0.00173183
0.00138742
0.00104459
0.000889234
0.000670507
0.000616144
0.000611815
0.000604416
0.00057481
0.00183165
0.00184698
0.00182481
0.0018216
0.00181939
0.00182219
0.00183773
0.00184684
0.00188416
0.00202286
0.0018403
0.00180778
0.00173384
0.00201226
0.00155333
0.00122938
0.000914907
0.000804623
0.000644998
0.0006048
0.000594603
0.000574898
0.000546513
0.00182875
0.00183892
0.00182116
0.00181639
0.00182125
0.00182239
0.00183756
0.0018464
0.00188614
0.00202296
0.00182154
0.0016935
0.00152586
0.00172595
0.00144791
0.00110352
0.000842718
0.000759176
0.000643958
0.000613689
0.000597676
0.000566158
0.00053296
0.00182876
0.0018336
0.00181891
0.00181277
0.00182353
0.00182343
0.00183769
0.00184552
0.00188693
0.00202116
0.00180331
0.00158853
0.00150111
0.00155611
0.00131782
0.0010111
0.000800218
0.000731621
0.000651538
0.000618286
0.00058675
0.000555212
0.000522235
0.00183006
0.00182926
0.0018197
0.00181195
0.00182546
0.00182401
0.00183729
0.00184514
0.0018891
0.00203947
0.00181624
0.00151979
0.00147661
0.00143908
0.00125178
0.000931284
0.000777652
0.000735663
0.000669067
0.000588283
0.000539216
0.000484654
0.000452189
0.00183336
0.00182809
0.00182107
0.00181259
0.00182674
0.00182512
0.00183718
0.00184452
0.00189073
0.0020545
0.00185903
0.00148912
0.00139411
0.00132917
0.00114846
0.00091945
0.000790244
0.000745751
0.000690128
0.000623708
0.000558172
0.000498267
0.000441371
0.00183787
0.00182649
0.00182308
0.00181386
0.00182761
0.00182556
0.00183642
0.0018441
0.00189189
0.00206265
0.0019185
0.00150239
0.00137312
0.00118814
0.00112486
0.000814371
0.000786666
0.000767567
0.000523534
0.000403598
0.000355516
0.00035199
0.000337299
0.00184156
0.00182738
0.00182498
0.00181521
0.00182814
0.00182646
0.00183583
0.0018439
0.00189386
0.00205142
0.00197541
0.00153665
0.001295
0.00115445
0.00110675
0.000663961
0.000776338
0.000769537
0.00071075
0.000629326
0.000483873
0.000387685
0.000294434
0.00184609
0.00182732
0.00182691
0.00181623
0.00182854
0.0018268
0.00183491
0.00184365
0.00189544
0.00203462
0.00201974
0.00158722
0.00118991
0.000916645
0.00108738
0.000568637
0.000454137
0.000457768
0.000452484
0.000417136
0.000531905
0.000514214
0.000307255
0.00184853
0.00182879
0.0018284
0.00181681
0.00182874
0.00182741
0.00183424
0.00184319
0.00189864
0.00201814
0.00202979
0.00164583
0.00107767
0.000936596
0.0010394
0.000524762
0.000448275
0.000606598
0.000708752
0.000638648
0.000572085
0.000492582
0.00028802
0.0018519
0.00182965
0.00183044
0.00181758
0.00182931
0.00182786
0.0018335
0.00184268
0.00190094
0.00199775
0.00198617
0.00157948
0.00103557
0.000958294
0.00100169
0.000499704
0.000415208
0.000555185
0.00071541
0.000641814
0.000576605
0.000466019
0.000289768
0.00185321
0.00183083
0.00183201
0.00181804
0.00182949
0.00182831
0.00183311
0.0018421
0.00190202
0.00198038
0.00197363
0.00150527
0.0010891
0.000890656
0.000972825
0.000472331
0.000380635
0.000511938
0.000724634
0.000642507
0.000581806
0.000554988
0.000310383
0.00185498
0.00183253
0.00183384
0.00181874
0.00183028
0.00182878
0.00183294
0.00184157
0.00190806
0.0019674
0.00199125
0.0014756
0.00120652
0.000744244
0.000966639
0.000460489
0.000380543
0.000509662
0.000733019
0.000638159
0.0005848
0.0005563
0.000331925
0.00185499
0.00183283
0.00183573
0.00181942
0.00183069
0.00182904
0.00183309
0.00184102
0.00190767
0.00195093
0.00202651
0.00147179
0.00128659
0.000730398
0.000959652
0.000460228
0.000378142
0.000492289
0.000738008
0.000639598
0.000588126
0.000559212
0.000373929
0.00185506
0.00183438
0.00183694
0.00182047
0.0018315
0.00182935
0.00183343
0.00184051
0.00190811
0.00194332
0.00206722
0.00144584
0.00133077
0.000670763
0.000829778
0.0004703
0.000388473
0.000484988
0.000739912
0.00063335
0.000589709
0.000547385
0.00046324
0.00185392
0.00183433
0.00183853
0.00182113
0.00183205
0.00182921
0.00183392
0.00184001
0.00190713
0.00193913
0.00204687
0.0015014
0.0013822
0.000624012
0.000768592
0.000480047
0.000397969
0.000479812
0.000744947
0.000639569
0.000596506
0.000542789
0.000526693
0.00185309
0.0018348
0.00183969
0.00182251
0.00183306
0.00182956
0.00183442
0.00183947
0.00190689
0.00193527
0.00203048
0.00152595
0.00136008
0.000606603
0.000742822
0.000505197
0.000409339
0.000482869
0.000656694
0.000637236
0.000597498
0.000544206
0.000513277
0.00185062
0.00183476
0.00183977
0.00182359
0.00183299
0.00182905
0.00183474
0.00183903
0.00190355
0.00194442
0.00201436
0.00153439
0.00122436
0.000599634
0.000661122
0.000558831
0.000426385
0.000477297
0.000606781
0.000632765
0.000593503
0.000549632
0.000501821
0.00185025
0.00183408
0.00184119
0.00182407
0.00183445
0.00182911
0.0018351
0.00183839
0.00190425
0.00194406
0.00199249
0.00152678
0.0011757
0.000610136
0.000612117
0.000617931
0.000475492
0.000501079
0.000601449
0.000623426
0.000586187
0.000552493
0.000500718
0.00184639
0.00183451
0.00184015
0.00182596
0.00183357
0.00182911
0.00183495
0.00183799
0.00190092
0.0019385
0.00198832
0.00146258
0.00115888
0.000605208
0.000637822
0.000677887
0.000578165
0.000557168
0.000621105
0.000614726
0.000580665
0.000554262
0.000509043
0.0018461
0.00183276
0.00184016
0.00182541
0.00183429
0.00182822
0.00183482
0.00183723
0.00190061
0.00194061
0.00198821
0.00144733
0.00114523
0.000629409
0.000652132
0.000719931
0.000733289
0.000656396
0.000650528
0.000605509
0.000573244
0.000555622
0.000514763
0.00184243
0.00183213
0.00183967
0.00182661
0.0018334
0.00182827
0.00183457
0.00183679
0.00190007
0.00193626
0.00199249
0.0013942
0.00113281
0.000645379
0.000651367
0.000795316
0.000860425
0.000731614
0.000673388
0.000603955
0.000577727
0.000558186
0.000530135
0.00183773
0.00183217
0.00183746
0.00182505
0.00183293
0.00182685
0.00183325
0.00183611
0.00189934
0.00194524
0.00199061
0.00131788
0.00114222
0.000677361
0.000645332
0.000865915
0.000821848
0.000751222
0.000658409
0.000608727
0.000565743
0.000565548
0.000538781
0.00182841
0.0018249
0.00183141
0.0018215
0.00182876
0.00182588
0.00183309
0.00183541
0.00189908
0.00194298
0.00198237
0.00127573
0.00119338
0.000734916
0.000650725
0.000927262
0.000814733
0.000750429
0.000659397
0.000612203
0.00058184
0.000579169
0.000570439
0.00182172
0.00182066
0.00182623
0.00182258
0.00182489
0.00182276
0.00183099
0.00183496
0.00189899
0.00194055
0.00198834
0.00121482
0.001284
0.000822163
0.00067796
0.000921611
0.000783016
0.000717881
0.000654194
0.000622655
0.000602738
0.000592765
0.00058931
0.00181721
0.00181829
0.00182154
0.00182018
0.0018238
0.00182049
0.00182815
0.001834
0.00189814
0.00194561
0.00197862
0.00115629
0.00137412
0.000922217
0.000708539
0.000927757
0.00079444
0.000718017
0.000655872
0.000625275
0.000629424
0.000644448
0.000680782
0.00181537
0.00182091
0.00182147
0.0018221
0.00182298
0.00182056
0.00182782
0.00183354
0.00189958
0.00194673
0.00198129
0.00113793
0.00137095
0.000990364
0.000797175
0.000957289
0.000784693
0.000722379
0.000678802
0.000665459
0.000683358
0.00071407
0.000743877
0.0018162
0.00181974
0.0018224
0.00182046
0.00182107
0.00181989
0.00182706
0.00183261
0.00189967
0.00194649
0.00198486
0.00112086
0.00138339
0.00102984
0.000916157
0.000939982
0.000804396
0.000716002
0.000674313
0.000672903
0.000741096
0.000847247
0.000955842
0.0018135
0.0018182
0.0018201
0.00182133
0.00182029
0.00181968
0.00182653
0.00183242
0.00189901
0.00195306
0.00198248
0.00107181
0.00130378
0.00120194
0.00100738
0.000961574
0.000813837
0.000749178
0.000730294
0.000755613
0.000869578
0.00104999
0.00119435
0.00181487
0.00181585
0.0018206
0.00182253
0.00182028
0.0018202
0.00182557
0.00183286
0.00190008
0.00195498
0.00197951
0.00101288
0.00136673
0.00143377
0.0011281
0.00095328
0.000854864
0.000758313
0.000750222
0.000812835
0.000978187
0.00120104
0.00146477
0.00181484
0.00181687
0.00182221
0.00182335
0.00181919
0.00182024
0.00182529
0.00183318
0.00190086
0.00196025
0.00199071
0.00102288
0.00136227
0.0014627
0.00115325
0.00101486
0.000865078
0.000802301
0.00086995
0.000984875
0.00119786
0.00146162
0.00155161
0.00181722
0.0018169
0.00182
0.00182213
0.00181841
0.00181964
0.00182518
0.00183416
0.00190265
0.00196026
0.00198151
0.00107447
0.00138416
0.00151928
0.0011957
0.00104564
0.000943374
0.000854349
0.000955722
0.00112193
0.00130236
0.00152939
0.00166712
0.00181548
0.00181604
0.0018201
0.00182305
0.00181817
0.00181872
0.00182547
0.00183496
0.00190404
0.00196315
0.00198604
0.00107255
0.00139146
0.00151042
0.0012375
0.00110089
0.000967754
0.000924003
0.00104565
0.0012162
0.00148305
0.00164033
0.00170936
0.00181654
0.00181565
0.00181845
0.00182328
0.00181829
0.00181953
0.00182532
0.00183442
0.00190822
0.00196275
0.00198217
0.00105095
0.00145305
0.00143761
0.00134225
0.00113237
0.00108099
0.00102714
0.00121355
0.00143968
0.00161333
0.0018851
0.00190429
0.00181609
0.00181388
0.00181977
0.00182506
0.00181793
0.00181975
0.00182488
0.0018351
0.00190897
0.00195605
0.00198222
0.0010512
0.00156677
0.00155556
0.00131607
0.00112951
0.00115991
0.00117757
0.00130736
0.00154222
0.00175167
0.00192329
0.00190191
0.00181709
0.00181262
0.00181988
0.00182326
0.00181849
0.00181812
0.00182597
0.00183452
0.00191124
0.00195109
0.00198453
0.00106498
0.00164951
0.0015996
0.00147584
0.00121713
0.00126074
0.00125861
0.00140335
0.00166061
0.00190565
0.00196031
0.00199623
0.00181551
0.0018147
0.00181914
0.0018235
0.00181954
0.00181919
0.00182493
0.00183518
0.00191146
0.00195281
0.00199974
0.00110067
0.00200951
0.00204701
0.00159363
0.00124824
0.0013018
0.00133598
0.00149884
0.00165328
0.00186603
0.00195676
0.00207535
0.00181726
0.00181428
0.00181799
0.0018242
0.00181802
0.00181786
0.00182572
0.00183492
0.00191357
0.00195415
0.0020005
0.00117745
0.00193482
0.0020176
0.001754
0.00142296
0.0014164
0.00142501
0.00150876
0.00176858
0.00187641
0.00203813
0.00211519
0.00181396
0.00181506
0.00181621
0.00182455
0.00181949
0.00181887
0.0018245
0.00183471
0.00191348
0.00197174
0.00199207
0.00122082
0.00268261
0.0024621
0.0020017
0.00158989
0.0015385
0.00148235
0.00163696
0.00187481
0.00193275
0.00210407
0.00213144
0.00181411
0.00181289
0.00181526
0.001824
0.00182049
0.0018182
0.0018242
0.00183556
0.00191456
0.00197432
0.00199848
0.00129344
0.00292685
0.00245144
0.00209956
0.00176791
0.00173264
0.00176202
0.00182728
0.00202371
0.00198076
0.00216535
0.00211763
0.00181308
0.00181308
0.00181582
0.00182181
0.00181975
0.00181807
0.00182498
0.00183545
0.001914
0.00198574
0.00200937
0.00135638
0.00376259
0.00267709
0.00239264
0.0019627
0.00188164
0.00180911
0.00189817
0.00203695
0.00214914
0.00220478
0.00213859
0.00181096
0.00181332
0.00181597
0.00182061
0.00182004
0.00181775
0.0018249
0.00183568
0.00191651
0.00196924
0.0020138
0.00169812
0.00516313
0.00332349
0.00278035
0.00220622
0.00212612
0.00210637
0.00221313
0.00232405
0.00239715
0.00233977
0.00219084
0.00181038
0.00181264
0.00181702
0.00182023
0.00181668
0.00181767
0.00182601
0.00183498
0.00191576
0.00198059
0.0020006
0.0019512
0.00505411
0.00394593
0.00321669
0.00268311
0.00257187
0.00248188
0.0024989
0.00267031
0.00260752
0.0024061
0.0022027
0.00181528
0.00181391
0.00181881
0.00181966
0.00181768
0.00181773
0.00182607
0.00183605
0.00191497
0.00197421
0.0020249
0.00253957
0.00628701
0.00435536
0.00343364
0.00293995
0.00288291
0.00287161
0.00291323
0.00291426
0.00272876
0.00247561
0.00222529
0.00181345
0.00181537
0.00182056
0.00182025
0.00181583
0.00181817
0.00182645
0.00183609
0.00191912
0.00197358
0.00191274
0.00339293
0.00916804
0.00625814
0.00371225
0.00316556
0.00309453
0.00312427
0.00326447
0.00302998
0.00273144
0.00250575
0.00222247
0.00181839
0.00181237
0.0018217
0.00181964
0.00181569
0.00181648
0.00182594
0.0018369
0.00192031
0.00199198
0.00190403
0.004548
0.00902125
0.00716312
0.00418119
0.0033293
0.00328167
0.00339584
0.00340584
0.0030914
0.0027594
0.00256393
0.00229773
0.00181766
0.00181545
0.00182077
0.00182174
0.00181694
0.0018169
0.00182505
0.0018372
0.00191404
0.0020101
0.00202657
0.00996299
0.00924459
0.00779992
0.0044882
0.00359929
0.00350417
0.00354421
0.00340773
0.00308435
0.00284826
0.0026548
0.00243837
0.00181728
0.00181759
0.00182288
0.00182303
0.00181876
0.00181875
0.00182502
0.00183677
0.00190848
0.00205007
0.00245326
0.00960866
0.00942129
0.0081473
0.00465618
0.00361484
0.00364798
0.00357074
0.00340586
0.0031354
0.00296599
0.00267923
0.00242842
0.00181604
0.0018157
0.00181743
0.00182117
0.00182021
0.00181991
0.00182484
0.00183573
0.00190188
0.00203445
0.00251468
0.0149764
0.0117278
0.00964484
0.00552286
0.00404833
0.00383675
0.00350646
0.00333161
0.00315477
0.00299184
0.00274029
0.00238652
0.00181015
0.00181542
0.0018157
0.0018195
0.0018222
0.0018219
0.00182441
0.00183459
0.00189509
0.00203888
0.00239519
0.017608
0.0130673
0.00968024
0.00559961
0.00413851
0.00377162
0.00349061
0.00337119
0.00319666
0.00302292
0.0026556
0.00231139
0.0018043
0.00181278
0.00181279
0.00181873
0.00182074
0.00182135
0.00182537
0.0018339
0.00188851
0.00202399
0.00243615
0.0192362
0.0150202
0.009233
0.00570629
0.00421237
0.00364915
0.00336835
0.00319547
0.00312414
0.00298851
0.00261121
0.00221619
0.00180492
0.00181349
0.00181523
0.00181733
0.001816
0.00182273
0.00182619
0.00183358
0.00188076
0.00204052
0.00343765
0.0194749
0.0160295
0.00989323
0.00546937
0.00501607
0.00367582
0.00336138
0.00318706
0.0032053
0.00298367
0.00252895
0.00208589
0.00180981
0.00181116
0.00181729
0.00181558
0.00181184
0.00182028
0.00182684
0.0018338
0.00189092
0.00205757
0.00402771
0.0203022
0.01674
0.00988144
0.00656788
0.00489772
0.00355191
0.00335993
0.00323267
0.003144
0.00282367
0.00234546
0.00193627
0.00181274
0.00181385
0.00181942
0.00182062
0.00181381
0.00181913
0.00182624
0.0018339
0.00188677
0.00204926
0.00429456
0.0196839
0.016042
0.00961867
0.00644147
0.00493605
0.0036328
0.00337529
0.00321479
0.00305319
0.00266538
0.00223125
0.00181095
0.00181389
0.0018128
0.00182376
0.0018238
0.00181836
0.00182033
0.00182528
0.00183464
0.00189921
0.00205062
0.00432446
0.0184672
0.0150155
0.00945503
0.00691848
0.00489642
0.0037208
0.00339916
0.00315901
0.00284185
0.00238903
0.00191886
0.001391
0.00181379
0.00181078
0.00182199
0.00182025
0.00181864
0.00182183
0.0018241
0.00183475
0.00190307
0.00212339
0.00522983
0.0208683
0.0146375
0.0101515
0.00682906
0.0047217
0.00370593
0.00337892
0.00306963
0.00272031
0.00221635
0.00168017
0.00105566
0.00181413
0.00180745
0.00182352
0.00181936
0.00181788
0.0018228
0.00182379
0.00183599
0.00190119
0.0021878
0.00554608
0.0191675
0.0148096
0.00960142
0.00644265
0.0044142
0.00363523
0.00334137
0.00303285
0.00248042
0.00184066
0.00118267
0.00085795
0.00181419
0.0017986
0.00181624
0.00182025
0.00181686
0.00182159
0.00182292
0.00183596
0.00190222
0.00227295
0.00618338
0.0157316
0.0165077
0.00864949
0.00597263
0.00415782
0.00345132
0.0031666
0.00265334
0.00201028
0.00149092
0.00105066
0.000908772
0.00181348
0.00180097
0.00181452
0.00182104
0.00181587
0.00181887
0.00182325
0.00183834
0.00191901
0.00248185
0.00694954
0.0149473
0.0149115
0.00784158
0.00547025
0.00398597
0.00356944
0.00328296
0.00266342
0.00219139
0.00170122
0.00116681
0.00096156
0.00181196
0.00181078
0.00181395
0.00182074
0.00181485
0.00181644
0.00182235
0.00183838
0.00193027
0.00271181
0.0088131
0.0147479
0.012617
0.00717248
0.00515615
0.00422912
0.0037361
0.00325742
0.00270861
0.00243188
0.00167147
0.00120828
0.00100387
0.00181015
0.00181365
0.00181334
0.0018195
0.00181371
0.00181512
0.00182296
0.00184248
0.00196954
0.00343055
0.00915687
0.0129455
0.0112309
0.0069104
0.0049609
0.00423209
0.00386022
0.00353849
0.00307256
0.00248873
0.00173897
0.00126863
0.00112131
0.00180829
0.00181368
0.00181217
0.00181755
0.00181236
0.00181365
0.00182168
0.00184285
0.00193847
0.00366428
0.0104853
0.012121
0.0103947
0.00694588
0.00512633
0.00463822
0.0043367
0.00396705
0.00337092
0.00269527
0.00181929
0.00129261
0.0012604
0.00180642
0.00181238
0.00181067
0.00181533
0.00181082
0.00181292
0.00182237
0.00184967
0.00209629
0.00361126
0.0106252
0.0110861
0.0095489
0.00662341
0.00524727
0.00498603
0.0045189
0.00422866
0.00377276
0.00281681
0.00176462
0.00162165
0.00148305
0.00180457
0.00181038
0.00180853
0.00181278
0.00180908
0.00181146
0.00182068
0.00184973
0.00214364
0.0037637
0.00899796
0.010644
0.00852857
0.00661311
0.00598398
0.0054756
0.00530541
0.00503726
0.00421922
0.00262327
0.0022077
0.00184451
0.00185701
0.00180259
0.00180795
0.00180605
0.00181028
0.00180715
0.00181039
0.00182158
0.00185797
0.00218597
0.00352694
0.00767448
0.00959229
0.00839926
0.0072777
0.00659205
0.00639725
0.006105
0.00579258
0.00414038
0.00296294
0.00264883
0.00218737
0.00233587
0.00180054
0.00180528
0.00180322
0.00180761
0.00180496
0.00180829
0.00181949
0.0018589
0.00220001
0.00541058
0.00823427
0.0101383
0.00867271
0.00829681
0.00795416
0.0074313
0.00743749
0.00635404
0.00476761
0.00341604
0.00296165
0.0025313
0.00251042
0.00179826
0.00180191
0.00180035
0.00180515
0.0018025
0.00180669
0.00182074
0.00187309
0.00232695
0.00505114
0.00789641
0.00965
0.00922396
0.0094442
0.00904566