/*--------------------------------*- C++ -*----------------------------------*\
  =========                 |
  \\      /  F ield         | OpenFOAM: The Open Source CFD Toolbox
   \\    /   O peration     | Website:  https://openfoam.org
    \\  /    A nd           | Version:  7
     \\/     M anipulation  |
\*---------------------------------------------------------------------------*/
FoamFile
{
    version     2.0;
    format      ascii;
    class       volScalarField;
    location    "50";
    object      omega;
}
// * * * * * * * * * * * * * * * * * * * * * * * * * * * * * * * * * * * * * //

dimensions      [0 0 -1 0 0 0 0];

internalField   nonuniform List<scalar> 
12842
(
3.13479
2.83199
2.65027
2.51313
2.42168
2.36151
2.31796
2.289
2.26075
2.24722
2.23918
2.23087
2.23305
2.24204
2.26412
2.31064
2.38381
2.49831
2.64329
2.77739
2.98746
3.15045
3.40121
3.11389
2.79692
2.61897
2.49895
2.41755
2.34971
2.30911
2.27964
2.25439
2.24186
2.23238
2.22542
2.22822
2.23928
2.26347
2.30985
2.38576
2.50235
2.64535
2.77904
2.98463
3.17274
3.42503
3.09046
2.76218
2.57918
2.45937
2.39445
2.33655
2.30072
2.27021
2.24725
2.23679
2.22765
2.22281
2.22722
2.24198
2.26953
2.32037
2.40411
2.52879
2.68073
2.82443
3.0573
3.19593
3.42673
3.05547
2.73291
2.55463
2.44082
2.37549
2.32243
2.29091
2.26251
2.24234
2.234
2.22054
2.21941
2.22608
2.24223
2.27343
2.32644
2.41119
2.54446
2.69762
2.84262
3.07336
3.33944
3.50022
3.02021
2.68298
2.50953
2.4022
2.34938
2.30599
2.28212
2.25202
2.23867
2.2259
2.21427
2.21878
2.23239
2.25061
2.28116
2.34052
2.4375
2.56905
2.76655
2.89176
3.07868
3.36377
3.68943
2.98593
2.65729
2.48992
2.38774
2.32814
2.29136
2.2729
2.24586
2.23396
2.22211
2.21368
2.21797
2.23061
2.25539
2.30067
2.36429
2.45417
2.61422
2.78867
2.99515
3.20469
3.42211
3.68024
2.94588
2.60786
2.44873
2.35859
2.30929
2.276
2.26122
2.23863
2.2295
2.21434
2.2136
2.22365
2.23945
2.26244
2.30711
2.37716
2.49344
2.64178
2.86324
3.0412
3.27732
3.63801
3.89533
2.91371
2.58629
2.42984
2.34663
2.29208
2.26533
2.25181
2.23371
2.22585
2.21365
2.21817
2.22756
2.24829
2.28393
2.34061
2.4281
2.52055
2.69536
2.8958
3.13969
3.43281
3.83086
4.03123
2.87336
2.5443
2.39652
2.32413
2.27772
2.25465
2.24165
2.22846
2.22332
2.21404
2.22182
2.23309
2.25637
2.28996
2.35118
2.44242
2.5689
2.77815
3.01387
3.23689
3.49467
4.06562
4.3419
2.83561
2.52507
2.37915
2.31447
2.26828
2.24875
2.23506
2.22647
2.21724
2.22189
2.23135
2.24866
2.2804
2.32074
2.39141
2.49824
2.61741
2.81865
3.07124
3.35679
3.71536
4.28671
4.71003
2.79348
2.48765
2.35286
2.29598
2.25601
2.24114
2.22719
2.22283
2.21565
2.22013
2.23685
2.26299
2.29827
2.33697
2.4103
2.52326
2.65983
2.95118
3.22533
3.5911
3.93747
4.5045
5.12714
2.75246
2.46809
2.33892
2.28759
2.24966
2.23688
2.22273
2.22113
2.21057
2.22738
2.24807
2.28556
2.33239
2.39245
2.48703
2.62602
2.82887
3.06596
3.36968
3.72814
4.30034
5.00119
5.7417
2.71452
2.43768
2.31733
2.27148
2.2386
2.22963
2.21696
2.21777
2.20952
2.22933
2.25603
2.30185
2.35301
2.41926
2.53236
2.69261
2.89946
3.25408
3.54847
4.06784
4.78664
5.47057
6.13986
2.67343
2.41747
2.30735
2.26422
2.23362
2.22611
2.21428
2.21611
2.21097
2.23666
2.26977
2.32732
2.39552
2.49628
2.64339
2.8307
3.12769
3.44447
3.87661
4.42659
5.09131
5.92093
6.76109
2.64556
2.39438
2.28963
2.25043
2.22482
2.21935
2.21035
2.21258
2.20776
2.23753
2.28386
2.34967
2.4274
2.54037
2.72346
2.97504
3.2905
3.71267
4.11207
4.71871
5.59242
6.73046
7.56592
2.61398
2.37473
2.28098
2.24415
2.22082
2.2159
2.20816
2.21063
2.20942
2.2449
2.30779
2.38669
2.49036
2.64891
2.86472
3.11898
3.54957
3.94326
4.49778
5.33029
6.28248
7.25131
7.94488
2.59211
2.35685
2.26728
2.23218
2.2132
2.20915
2.20379
2.20659
2.21052
2.2511
2.33761
2.42992
2.5519
2.73006
3.0043
3.37837
3.78777
4.31187
5.04012
5.85199
6.65936
7.85312
8.92205
2.56883
2.34069
2.25783
2.2265
2.20945
2.20575
2.20108
2.20496
2.21977
2.27315
2.38094
2.4878
2.64405
2.88707
3.19157
3.53576
4.1595
4.74559
5.49037
6.37242
7.63908
9.26001
10.0389
2.55132
2.32536
2.24752
2.21608
2.202
2.19894
2.1953
2.2012
2.22279
2.29624
2.43236
2.56
2.73887
2.99783
3.36763
3.89557
4.45495
5.15347
6.12001
7.533
8.88195
10.0739
11.071
2.53361
2.31375
2.23718
2.20985
2.19802
2.1954
2.19227
2.20629
2.24697
2.34364
2.49932
2.63814
2.85375
3.20249
3.66642
4.18708
4.9938
5.81385
7.26079
8.53814
9.69247
11.602
13.8103
2.51971
2.30116
2.22867
2.2017
2.18961
2.18808
2.1889
2.20564
2.26491
2.38565
2.5683
2.73601
2.97907
3.33426
3.81822
4.49634
5.3969
6.65072
7.96418
9.33657
11.683
14.6302
17.4338
2.50531
2.29126
2.2193
2.19241
2.18515
2.18525
2.19077
2.22021
2.31514
2.45617
2.65522
2.82541
3.09317
3.54532
4.20629
5.04192
6.13338
7.28735
8.9946
11.5138
14.6032
18.2055
24.936
2.49397
2.28241
2.20946
2.18706
2.17771
2.17921
2.19195
2.23755
2.35011
2.51153
2.73243
2.93843
3.25643
3.75909
4.43118
5.38191
6.65684
8.14275
10.8882
13.9466
17.7912
26.0206
38.8756
2.48388
2.27436
2.20318
2.17799
2.17274
2.17957
2.20519
2.28055
2.4177
2.60383
2.83731
3.04136
3.36231
3.91856
4.79994
5.93991
7.38646
9.96663
12.9511
16.8333
25.4974
42.7287
59.9287
2.47535
2.26829
2.19643
2.17499
2.1726
2.18221
2.23351
2.33034
2.48317
2.68459
2.93306
3.16479
3.54871
4.21947
5.15303
6.68134
8.55264
11.5946
15.3836
24.1368
42.4197
65.3984
82.358
2.46756
2.26122
2.19045
2.1706
2.18147
2.19631
2.27296
2.3865
2.55131
2.7656
3.02221
3.258
3.66584
4.43075
5.56041
7.24316
9.78872
13.5191
21.462
39.0047
63.0618
86.4225
100.142
2.45731
2.25261
2.18571
2.1705
2.19388
2.22328
2.32266
2.44857
2.6202
2.84269
3.10624
3.36057
3.8305
4.66753
6.06601
7.80186
11.1149
18.3568
34.2151
56.3299
81.182
101.378
116.634
2.44942
2.24462
2.18026
2.17187
2.23079
2.26177
2.37889
2.51459
2.6892
2.91827
3.18348
3.44974
3.97289
5.02515
6.59789
8.75944
14.7812
29.9969
48.8486
71.3735
93.965
114.78
131.892
2.43673
2.23603
2.17565
2.18622
2.26409
2.31067
2.44069
2.58164
2.75614
2.98615
3.25215
3.53224
4.12998
5.20652
6.99418
10.4685
24.2835
43.3444
61.6842
82.116
104.851
124.094
137.498
2.42734
2.22934
2.17505
2.21305
2.31797
2.36575
2.50591
2.64832
2.82077
3.05189
3.31439
3.6041
4.25615
5.68182
7.91582
16.1821
37.1205
55.329
70.766
89.6306
110.524
123.529
134.094
2.41441
2.22113
2.17931
2.2483
2.36609
2.42638
2.5716
2.7125
2.88126
3.1088
3.37105
3.69814
4.52534
6.27539
10.1593
27.7516
48.8102
63.3071
75.9672
93.9345
109.059
119.136
127.039
2.40071
2.21763
2.19408
2.2929
2.42527
2.48992
2.63722
2.77294
2.93784
3.16274
3.4184
3.74289
4.66163
7.1157
15.6081
39.1416
57.9798
67.5894
79.201
93.0767
104.03
111.969
118.356
2.38937
2.21502
2.22333
2.34029
2.48231
2.55228
2.70022
2.82933
2.98932
3.20851
3.46345
3.8637
5.22151
9.48938
25.7331
51.002
62.8949
69.1737
79.1013
88.7521
96.7539
103.389
108.414
2.37788
2.21788
2.25879
2.39295
2.53889
2.61654
2.75895
2.8806
3.03626
3.25113
3.50591
3.94796
5.69759
12.4869
37.0257
55.9405
63.981
69.2849
75.9426
82.0996
88.568
94.2711
98.2947
2.36866
2.22964
2.30753
2.44502
2.59648
2.67446
2.81425
2.92705
3.07795
3.28688
3.54111
4.14151
6.99944
17.986
46.527
59.6346
64.3523
67.9382
71.0348
75.2335
80.6252
85.0081
88.204
2.36113
2.2538
2.35643
2.50013
2.64859
2.73164
2.86282
2.96865
3.11512
3.32008
3.58952
4.31999
8.29903
25.8117
52.9727
60.2404
62.8772
64.0974
66.5732
69.2389
72.9575
76.4648
79.1246
2.36159
2.28898
2.41303
2.55182
2.69928
2.78197
2.9067
3.00525
3.14744
3.3477
3.62395
4.69317
11.2323
33.911
55.8342
60.2721
60.2047
60.3595
62.4941
63.6307
66.3407
68.8586
70.8758
2.36943
2.33275
2.46683
2.60475
2.7451
2.82854
2.94561
3.03769
3.17569
3.3745
3.6965
5.20733
13.6926
39.3188
56.2748
60.243
57.5916
56.46
59.0709
59.3862
60.6003
62.0105
63.4173
2.38523
2.38209
2.52384
2.65373
2.78772
2.86897
2.97792
3.06576
3.19998
3.39743
3.74752
5.67211
16.1016
41.7637
55.9271
58.3605
54.8305
52.1906
54.5995
55.4894
55.5109
56.186
56.9701
2.41168
2.43633
2.57695
2.70165
2.82736
2.90703
3.00759
3.09052
3.22078
3.41964
3.82973
6.31463
18.7354
43.4465
55.0747
54.8335
52.0609
48.4678
50.7347
52.0626
50.7996
50.9479
51.2609
2.44321
2.48995
2.62876
2.74626
2.86062
2.93859
3.03175
3.11173
3.23869
3.44074
3.91441
6.9009
20.4614
43.5135
53.8332
52.4063
50.4406
45.3613
46.5318
48.2004
46.2956
46.0559
46.0238
2.48313
2.54502
2.68082
2.78778
2.89527
2.96889
3.05383
3.13067
3.25394
3.46124
4.01991
7.52731
21.9771
43.2582
52.8526
50.8673
49.3651
43.1317
42.5774
43.9453
42.2575
41.6516
41.5393
2.5243
2.59721
2.72839
2.82748
2.9224
2.99714
3.07215
3.14692
3.26717
3.48228
4.14617
8.23438
23.325
42.2468
50.5605
48.6594
47.1274
40.7825
39.3347
40.0633
38.8221
38.3332
38.1814
2.57163
2.64786
2.77362
2.86285
2.95096
3.02164
3.0909
3.16173
3.27884
3.5071
4.30008
8.74627
24.8521
42.0423
47.2493
47.2279
44.1312
38.6661
36.9297
37.1567
36.326
35.9959
35.9509
2.61435
2.69619
2.81257
2.89714
2.97378
3.04555
3.10561
3.17437
3.2889
3.52403
4.40171
9.36923
26.2267
41.6128
45.5019
44.0757
40.8936
37.0351
35.2171
35.2866
34.9971
34.8487
34.5637
2.66122
2.7399
2.84655
2.92689
2.99672
3.06508
3.12101
3.18634
3.29821
3.55132
4.59704
9.9061
25.8872
40.1877
42.6811
41.0023
37.4895
34.9842
33.5503
33.4278
33.4734
33.9868
33.968
2.6986
2.78192
2.87573
2.95473
3.01869
3.08296
3.13185
3.19633
3.30656
3.56974
4.78441
10.0879
24.4457
36.7372
38.8731
37.9315
34.3412
32.4871
31.5189
31.4851
31.5379
32.0496
32.6024
2.73862
2.81751
2.90194
2.97871
3.03559
3.0952
3.14249
3.20608
3.31416
3.59506
4.93763
10.7906
22.7017
34.9503
33.8538
34.2626
32.172
30.0883
29.1995
28.9976
29.0891
29.8278
30.8395
2.76796
2.85075
2.92519
2.99979
3.04861
3.10558
3.15006
3.21427
3.32215
3.62467
5.11933
10.9213
20.5943
29.1829
28.2933
29.1867
29.3747
27.3361
26.716
26.5259
26.3901
26.8727
28.0884
2.80022
2.88082
2.94863
3.01959
3.05707
3.1124
3.15522
3.22268
3.32902
3.64815
5.29481
10.5331
18.3272
24.2026
22.024
24.4456
25.8427
24.4263
23.9092
23.7086
23.9389
24.8461
26.2175
2.82531
2.90639
2.96755
3.03466
3.06398
3.11741
3.15905
3.22916
3.33616
3.67353
5.27213
10.069
16.4796
18.9597
18.1811
20.0046
21.7675
21.2293
21.0477
21.1071
21.6613
22.8984
24.4539
2.84812
2.92903
2.98551
3.04886
3.06989
3.12147
3.1629
3.23462
3.34049
3.70431
5.13214
9.41768
14.8255
16.5069
16.6095
16.9095
18.2697
18.3416
18.5247
19.0893
20.2014
21.58
23.2025
2.86797
2.94862
3.0005
3.06002
3.07626
3.12636
3.16664
3.23841
3.34503
3.70445
4.87388
8.64958
13.5313
15.0325
14.9907
14.6916
15.4235
15.6981
16.213
17.3034
18.9864
20.5514
21.8949
2.88596
2.9655
3.01497
3.07147
3.08447
3.13185
3.17131
3.24193
3.34835
3.68582
4.61573
7.87337
12.835
13.1314
14.2882
12.8962
13.4185
13.7239
14.529
16.0988
18.0592
19.6902
21.3166
2.90257
2.98169
3.02889
3.08197
3.09317
3.13849
3.17638
3.24456
3.3525
3.65516
4.36973
7.08389
12.4861
11.3505
13.6513
11.9899
12.0846
12.3194
13.2151
15.0433
17.0757
18.9789
20.2721
2.91904
2.99589
3.04289
3.09347
3.10335
3.14571
3.18199
3.24708
3.35318
3.63261
4.17738
6.43911
12.3762
9.86707
13.3913
11.3653
11.122
11.4703
12.5584
14.3315
16.4552
18.0502
19.437
2.93399
3.00967
3.05569
3.10416
3.11287
3.15317
3.18755
3.24881
3.35394
3.61146
4.03552
5.88968
12.3503
8.98801
13.1867
10.991
10.5507
10.9439
12.1379
13.8356
15.9689
17.1756
18.5047
2.9483
3.02194
3.06795
3.11526
3.12269
3.16036
3.19289
3.2503
3.35139
3.59548
3.92885
5.42692
11.9724
8.55568
13.0817
10.5398
10.073
10.5501
11.8247
13.4866
15.5018
16.589
17.6859
2.96296
3.03472
3.07928
3.12577
3.13243
3.16812
3.19835
3.25178
3.35322
3.57966
3.85086
5.05126
11.0091
8.02126
12.7053
10.204
9.80729
10.2902
11.5969
13.2914
15.1234
16.0927
17.0165
2.97716
3.04738
3.09086
3.13696
3.14244
3.17573
3.20383
3.25357
3.35362
3.56289
3.79485
4.75241
9.65031
7.72255
11.9652
9.82098
9.47977
10.0534
11.3985
13.2155
14.8777
15.8288
16.5873
2.99285
3.06013
3.10127
3.1472
3.15212
3.18361
3.20893
3.25567
3.35184
3.55063
3.75621
4.51015
8.41701
7.16817
11.1635
9.46786
9.34839
9.96051
11.2413
13.2567
14.7632
15.6821
16.4048
3.00804
3.07368
3.11184
3.15747
3.16172
3.19144
3.21414
3.25809
3.35244
3.53093
3.72846
4.35913
7.70917
6.95399
10.3879
9.18202
9.271
9.93153
11.1227
13.1911
14.6472
15.6302
16.3178
3.02394
3.08638
3.1221
3.16715
3.1709
3.19918
3.21886
3.26081
3.35236
3.51748
3.70767
4.18412
7.18575
6.68887
9.52995
8.92112
9.20954
9.94694
11.0754
13.2949
14.6085
15.956
16.3552
3.04073
3.10065
3.13175
3.17611
3.17953
3.20693
3.2237
3.26374
3.35258
3.50954
3.69344
4.15902
6.74603
6.48481
8.80325
8.69724
9.15922
9.95389
11.0056
13.1574
14.4727
16.1836
16.8135
3.0564
3.1134
3.14221
3.18521
3.18804
3.21431
3.22846
3.26698
3.35271
3.50356
3.67789
4.11361
6.57523
6.36376
8.30105
8.52949
9.11663
9.99578
10.995
13.2271
14.5036
16.2645
17.3793
3.07333
3.12706
3.15169
3.19284
3.19616
3.22183
3.23321
3.2702
3.35304
3.49356
3.66675
4.07735
6.40188
6.34971
7.97887
8.44067
9.11572
10.0809
11.1003
13.4588
14.6461
16.2773
18.0801
3.08894
3.14013
3.16193
3.20149
3.20337
3.22844
3.23854
3.27384
3.35326
3.49463
3.64888
4.07092
6.27818
6.32539
7.77232
8.42574
9.10539
10.3465
11.5485
13.7976
14.8617
16.2859
18.3021
3.10478
3.15205
3.17142
3.20866
3.21196
3.23558
3.24337
3.27717
3.35296
3.494
3.6446
4.06229
6.19081
6.29356
7.66027
8.53369
9.15725
10.5464
12.193
14.2045
15.1423
16.4083
18.3563
3.11924
3.16424
3.18144
3.21616
3.21818
3.24175
3.24924
3.28102
3.35412
3.49186
3.63845
4.02715
6.18054
6.24421
7.58184
8.70652
9.63584
10.9743
12.781
14.5387
15.4571
16.4818
18.3614
3.1351
3.17591
3.19056
3.22454
3.22647
3.24781
3.25441
3.28443
3.3542
3.49162
3.6272
4.05114
6.16895
6.22997
7.54606
8.89191
10.2521
11.3204
13.173
14.807
15.5269
16.718
18.3828
3.14839
3.18567
3.20048
3.23168
3.23403
3.25519
3.26032
3.28812
3.35439
3.48522
3.61222
4.04409
6.1586
6.24901
7.51331
9.00628
10.9983
11.8925
13.6278
14.828
15.575
16.676
18.3685
3.16442
3.19886
3.21078
3.2403
3.241
3.2606
3.26585
3.2918
3.35443
3.48845
3.6151
4.0482
6.16845
6.32091
7.48939
9.29532
11.3309
12.2064
13.8686
15.0269
15.7635
17.0401
18.6237
3.17679
3.20732
3.22026
3.24173
3.24944
3.2655
3.27213
3.29505
3.35413
3.4852
3.60503
4.05098
6.34437
6.47847
7.52022
9.40805
11.9493
12.9363
14.1558
15.0697
15.7664
17.0705
18.6751
3.18534
3.21221
3.22915
3.24563
3.25298
3.26949
3.27856
3.29896
3.35461
3.49123
3.61291
4.04077
6.50755
6.66016
7.54067
9.3921
11.9601
13.2538
14.4318
15.3303
16.1458
17.4572
19.2073
3.18893
3.21275
3.22988
3.24514
3.25462
3.27131
3.27966
3.30192
3.35502
3.49191
3.61323
4.03342
6.63893
6.7532
7.73154
9.54698
12.2874
13.4394
14.4424
15.3779
16.1842
17.6357
19.2521
3.18895
3.21385
3.23103
3.24647
3.25716
3.27134
3.28082
3.30551
3.35542
3.49056
3.60548
4.0518
6.698
6.90064
8.15024
9.84214
12.2665
13.8968
14.9653
16.1088
17.0393
18.6346
20.7193
3.19431
3.21638
3.23317
3.24787
3.25952
3.27161
3.28283
3.30761
3.3566
3.49817
3.61539
4.07682
6.82469
6.98668
8.21651
10.1236
12.6301
14.2684
15.1669
16.3155
17.3784
19.2057
22.5416
3.19364
3.22041
3.23312
3.24606
3.26039
3.27247
3.28413
3.30847
3.35699
3.49945
3.61585
4.1031
6.95016
7.25326
8.58612
10.6389
12.8189
14.7263
16.0075
17.7237
19.6642
23.1021
29.096
3.194
3.21877
3.23326
3.24666
3.2602
3.27388
3.28598
3.3091
3.3578
3.50015
3.61605
4.13497
7.03707
7.45085
9.03472
11.0118
13.8824
15.9726
16.6237
18.3213
21.1689
26.3181
34.9722
3.19437
3.21876
3.23477
3.24828
3.26136
3.27325
3.28505
3.3086
3.35821
3.50216
3.61663
4.19984
7.01424
7.61821
9.46365
11.7339
14.5064
17.3342
18.0573
20.4733
25.7373
33.3251
43.3299
3.19436
3.21906
3.23473
3.24644
3.26146
3.27435
3.28474
3.30859
3.35835
3.50452
3.62591
4.22284
7.01576
8.10274
10.0308
12.7261
15.9522
18.4433
19.9627
23.5783
28.7833
39.7306
53.2317
3.19435
3.21992
3.23722
3.24706
3.26127
3.27257
3.28476
3.30967
3.35902
3.5069
3.63318
4.26249
6.98967
8.93224
11.0203
14.6065
17.5828
20.7552
22.0909
26.1559
34.5314
44.5639
59.3607
3.19508
3.21964
3.23461
3.24443
3.26113
3.27246
3.28545
3.30858
3.36125
3.50724
3.63753
4.27051
6.92684
9.52961
12.5277
16.9308
19.522
22.5132
25.904
30.7432
39.8662
54.3003
69.5147
3.19302
3.22054
3.23476
3.24436
3.26019
3.27302
3.28372
3.30976
3.36315
3.51995
3.64201
4.31412
6.9428
10.34
14.0415
19.5104
22.0226
25.7235
29.3321
35.7235
45.5144
63.2317
81.0801
3.19381
3.2169
3.23463
3.24345
3.25967
3.27081
3.28535
3.30876
3.36746
3.52316
3.64859
4.34965
7.07728
10.5396
16.479
21.9631
25.2238
29.2166
34.0611
42.3719
54.3278
72.0688
86.3324
3.18931
3.21647
3.23697
3.2436
3.25964
3.27287
3.28385
3.30909
3.37329
3.52943
3.65625
4.44239
8.03774
12.6347
18.1916
24.5745
28.2395
32.6906
38.9493
46.9994
63.4617
78.6442
89.796
3.18887
3.21828
3.23731
3.24286
3.25658
3.27079
3.28398
3.30956
3.3765
3.5323
3.66116
4.5255
8.50874
15.7853
21.7463
26.7263
30.7691
36.1076
42.9059
53.5998
69.2314
85.1469
91.8041
3.18748
3.21794
3.23727
3.24265
3.25593
3.27191
3.28411
3.30813
3.38003
3.53681
3.67106
4.61565
9.87201
19.5614
24.3728
29.1189
33.4028
38.4229
47.7975
56.9491
76.0314
88.247
93.8026
3.18663
3.21682
3.23608
3.24383
3.25747
3.27162
3.28181
3.30826
3.38389
3.52799
3.67672
4.69078
11.5872
24.7728
28.0747
31.4836
35.0417
40.1304
48.6278
64.7528
78.7535
90.6398
94.8037
3.18879
3.215
3.23437
3.24415
3.25449
3.27078
3.28177
3.30808
3.38643
3.53607
3.68842
4.89905
17.0442
30.096
31.7764
34.2511
37.1551
42.3427
52.7269
68.1223
80.2949
90.0851
95.7711
3.18804
3.21328
3.23181
3.24266
3.25792
3.26982
3.27905
3.30962
3.3912
3.53029
3.70364
5.09468
21.1782
34.2714
34.9827
36.3911
39.5649
45.8689
59.8519
72.9278
82.6419
91.2614
97.2269
3.18565
3.2091
3.22947
3.23966
3.25504
3.26891
3.27861
3.30846
3.39571
3.52976
3.75547
5.46793
29.598
37.0895
37.8494
38.6383
41.4615
49.9966
65.2993
74.3403
82.2071
91.1487
96.4894
3.18287
3.2061
3.22664
3.23704
3.25661
3.26818
3.27878
3.30906
3.39829
3.53313
3.81987
6.37586
38.7942
42.3164
41.0503
41.6569
46.0045
56.4188
66.1217
76.3509
83.3174
90.6131
95.0467
3.17644
3.20449
3.2221
3.23557
3.25602
3.26743
3.27945
3.30919
3.40627
3.53681
3.93768
8.72593
44.2098
45.6037
43.4023
45.7066
50.9919
59.4752
66.6912
75.0107
83.8051
88.7424
88.7642
3.17448
3.19775
3.22064
3.23035
3.25414
3.26613
3.2783
3.30784
3.40844
3.55204
4.14306
17.8521
45.8657
46.779
47.0752
49.7184
54.3906
59.9266
67.5569
75.5257
81.1805
85.0201
83.8812
3.17105
3.19625
3.21458
3.22935
3.25108
3.26447
3.27718
3.3083
3.40719
3.57053
4.48431
28.3984
48.1969
47.5072
47.7902
52.3117
55.1415
60.595
66.6024
73.2628
75.905
78.9043
76.5087
3.16979
3.19789
3.21809
3.23058
3.24619
3.26208
3.27514
3.30716
3.405
3.57941
4.64126
38.2831
49.4569
47.5019
48.7852
53.3397
55.8371
59.4173
62.6989
66.3231
67.8103
70.1596
69.1251
3.17218
3.19511
3.21221
3.22952
3.23908
3.25572
3.27316
3.30491
3.40097
3.58759
4.73447
41.2266
49.5449
47.2434
48.7813
53.7186
55.3376
56.7166
57.8867
60.7473
62.1283
65.014
62.1351
3.17035
3.18999
3.21419
3.22502
3.23646
3.25294
3.26896
3.30161
3.3953
3.60486
4.89039
43.0229
48.341
46.3801
47.9161
52.5171
54.1342
54.2482
55.305
55.7318
56.7033
57.4867
53.4067
3.16525
3.1832
3.21066
3.21798
3.23621
3.24641
3.26413
3.29821
3.39006
3.62096
4.89576
44.2318
46.9611
44.4234
47.4867
50.189
51.0326
50.2689
50.6783
49.3728
49.3188
48.7746
45.3606
3.15822
3.1776
3.20294
3.20805
3.23162
3.24555
3.25844
3.29408
3.38511
3.63885
5.10957
44.2744
46.0767
43.8836
45.4842
48.0873
48.2938
45.5092
44.7257
43.6646
42.7149
41.3737
37.9669
3.14951
3.17049
3.19259
3.19458
3.22367
3.24153
3.25396
3.28993
3.38033
3.69211
5.17452
39.5105
43.871
41.1361
44.2888
44.9145
43.3997
40.5743
39.1583
37.5221
36.279
34.1296
30.1493
3.13972
3.16242
3.17473
3.18966
3.21529
3.23156
3.24888
3.28473
3.37568
3.72355
5.27211
35.8557
40.0771
38.8456
40.4561
40.4075
37.4668
34.8656
33.5994
32.395
30.9528
28.0201
24.4313
3.12869
3.15184
3.16633
3.19011
3.20828
3.22041
3.24285
3.27952
3.3703
3.7409
5.52659
31.3519
35.0014
37.638
36.7589
35.0393
32.2112
30.2455
29.4132
28.4106
27.1648
23.9179
20.9002
3.11449
3.13575
3.15122
3.18119
3.19912
3.20808
3.23405
3.27273
3.36534
3.8399
5.78469
26.0019
33.9225
34.698
31.844
30.9634
28.6078
27.7288
26.8295
26.2429
24.3517
21.531
18.4589
3.09894
3.1221
3.15014
3.16719
3.1889
3.19819
3.22438
3.26594
3.36163
3.88176
6.81306
22.9962
31.5296
30.4862
28.6854
27.273
26.0355
25.785
25.2734
24.6427
22.4274
19.7842
16.6083
3.08054
3.10732
3.13664
3.14954
3.17495
3.18801
3.21133
3.25691
3.35528
3.89036
7.39746
21.6415
28.3863
26.6589
25.0322
24.7009
24.1259
24.1271
24.2011
22.9761
20.9756
18.2329
15.0823
3.0617
3.09144
3.11944
3.13242
3.15976
3.17573
3.19778
3.24812
3.35647
4.02886
9.14367
21.0303
24.7174
22.8746
22.7178
22.2873
22.6324
23.1655
22.9595
21.5876
19.6275
16.7377
13.6634
3.03921
3.07072
3.0972
3.11227
3.13983
3.1576
3.18005
3.23632
3.35796
4.21064
9.76556
19.148
20.708
20.0205
20.7383
20.8646
21.7435
22.1352
21.589
20.4456
18.2108
15.3211
12.3157
3.01565
3.04852
3.07404
3.09183
3.11881
3.13784
3.16213
3.22464
3.37725
4.29027
9.65023
16.7042
17.3226
18.2042
19.4055
19.9318
20.8706
20.9867
20.503
19.3021
16.8842
13.8713
10.9741
2.98649
3.02013
3.04528
3.06559
3.09157
3.11143
3.13859
3.2079
3.3885
4.80422
9.19005
14.6764
15.018
17.0507
18.4778
19.1484
19.9856
19.879
19.3981
18.0878
15.4095
12.3618
9.40199
2.95554
2.99003
3.01565
3.03822
3.06336
3.08435
3.1149
3.18888
3.42748
4.96679
8.58209
12.6305
13.5123
16.179
17.5308
18.5059
18.8817
18.7895
18.1812
16.7548
13.821
10.5186
7.54068
2.91686
2.95182
2.97844
3.00246
3.02687
3.04907
3.08328
3.16025
3.3875
4.87888
8.07812
11.338
12.706
15.389
16.7967
17.7372
17.9777
17.7681
17.2244
15.1672
11.8149
8.27554
5.56138
2.87633
2.91247
2.94059
2.9655
2.98991
3.01392
3.05146
3.13315
3.6238
4.80592
7.67682
10.3113
12.0912
14.7914
16.1135
16.926
16.9584
16.7818
15.8109
13.1666
9.3499
5.88172
4.54608
2.82591
2.86337
2.89272
2.91721
2.94209
2.96766
3.00863
3.09349
3.65869
5.61376
7.12914
9.64779
11.5651
14.0931
15.3122
15.8452
15.8214
15.7152
14.0878
10.7287
6.65356
4.53666
3.99204
2.77462
2.81465
2.84485
2.86885
2.89513
2.92253
2.96624
3.05466
3.83848
5.75373
7.02831
9.23643
11.1514
13.5389
14.6511
14.9838
15.0724
14.3753
12.0613
8.01103
4.71852
3.88727
3.60059
2.71116
2.75355
2.78357
2.80607
2.83367
2.86201
2.90896
3.00154
3.92822
5.80422
7.0125
8.76469
10.7659
12.7997
13.7734
13.9117
13.7656
12.586
9.70636
5.59465
3.83251
3.48011
3.33224
2.64925
2.69479
2.72401
2.74629
2.77551
2.80492
2.85402
2.95157
4.05762
6.47898
6.79159
8.40323
10.2821
12.211
12.719
12.74
12.4572
10.6944
7.25367
4.00891
3.38566
3.22023
3.15156
2.57197
2.61901
2.64654
2.66785
2.69747
2.7269
2.78045
2.89028
4.09961
6.58431
6.8415
7.98315
9.99346
11.365
11.7708
11.5903
10.9414
8.65461
4.9748
3.35913
3.12394
3.04991
3.01853
2.50024
2.54944
2.57497
2.5974
2.62734
2.65733
2.71353
2.86808
5.08067
6.45296
6.37447
7.8044
9.34955
10.6756
10.7482
10.5062
9.42789
6.35931
3.57503
3.04015
2.94638
2.91265
2.89802
2.40785
2.45597
2.47905
2.50099
2.52937
2.55955
2.62129
2.85449
5.34669
6.69126
6.22826
7.68869
9.21027
9.69125
9.70317
9.43535
7.48469
4.24712
3.00706
2.83336
2.79934
2.78783
2.78317
2.32816
2.37706
2.3975
2.42107
2.4484
2.47935
2.53486
2.72395
5.24311
7.18175
6.30732
7.60027
8.56436
8.95507
8.71681
7.82979
5.26872
3.13669
2.75114
2.69813
2.68619
2.68141
2.67937
2.21895
2.26392
2.28065
2.30286
2.32745
2.36166
2.44158
3.06692
5.85544
7.38599
6.19136
7.20465
8.00903
8.03006
7.64395
6.03316
3.45603
2.67311
2.56127
2.54767
2.54638
2.553
2.55606
2.137
2.18041
2.19427
2.21759
2.24078
2.27404
2.35444
3.083
6.53488
6.43404
6.10488
6.88309
7.27382
7.21146
6.16685
4.1462
2.70231
2.46828
2.44134
2.44012
2.45115
2.45498
2.45883
2.0099
2.04236
2.05244
2.07258
2.09392
2.13932
2.23378
3.56786
6.97518
6.21576
6.11376
6.58672
6.41268
5.87007
4.52788
2.77022
2.32593
2.27415
2.27346
2.29242
2.299
2.30755
2.31275
1.93603
1.96552
1.97293
1.99337
2.01436
2.05325
2.34102
4.04955
7.01448
5.4854
5.93556
6.09559
5.79718
4.93684
3.01641
2.32139
2.19862
2.18705
2.20083
2.21225
2.21873
2.22575
2.2302
1.77088
1.77913
1.78388
1.80206
1.83515
1.97756
2.69421
5.67404
5.93504
4.6996
5.06774
4.55838
3.85527
2.76776
2.08561
1.9468
1.93397
1.956
1.95861
1.96296
1.97496
1.98443
1.99085
3.10395
2.78893
2.60606
2.4793
2.39917
2.33726
2.30185
2.27626
2.25544
2.24556
2.23602
2.23824
2.24839
2.2727
2.31674
2.38727
2.49226
2.65308
2.79673
2.93811
3.17154
3.3109
3.49542
3.1134
2.79635
2.61337
2.48436
2.40513
2.34685
2.31011
2.283
2.25858
2.2492
2.23684
2.23842
2.24791
2.27123
2.31412
2.3833
2.48658
2.63299
2.76788
2.92985
3.14243
3.26212
3.43203
3.12183
2.8144
2.6303
2.49659
2.41516
2.35646
2.315
2.2863
2.26033
2.25074
2.23763
2.23844
2.24633
2.26659
2.30487
2.36807
2.46774
2.5929
2.73417
2.89908
3.09608
3.22565
3.36269
3.13486
2.82654
2.63568
2.50383
2.42446
2.36642
2.32004
2.29229
2.26499
2.25236
2.23829
2.23789
2.24388
2.26044
2.2941
2.35147
2.44028
2.56476
2.71858
2.86081
3.05834
3.2047
3.34427
3.1429
2.83757
2.64973
2.52415
2.43751
2.37518
2.32531
2.29605
2.26716
2.2523
2.23967
2.23584
2.24053
2.25469
2.28421
2.33503
2.41846
2.53781
2.67565
2.80959
2.99772
3.13686
3.28975
3.15059
2.84867
2.6625
2.5307
2.44
2.377
2.32599
2.29624
2.26822
2.25096
2.24004
2.23446
2.23738
2.24685
2.27091
2.30801
2.38291
2.47399
2.62106
2.73485
2.91473
3.04222
3.22021
3.15354
2.85364
2.66535
2.53507
2.44483
2.38271
2.33143
2.30049
2.27272
2.25356
2.24305
2.23489
2.23726
2.24533
2.26587
2.30245
2.36932
2.46099
2.6013
2.71333
2.88883
3.01404
3.22204
3.15014
2.84622
2.65544
2.51826
2.43584
2.37565
2.32891
2.29824
2.27038
2.25234
2.24154
2.23268
2.23484
2.24418
2.26665
2.31078
2.38375
2.48449
2.62357
2.75403
2.94572
3.09667
3.32557
2.97781
2.63762
2.47103
2.37624
2.31949
2.27516
2.24282
2.23153
2.21766
2.21813
2.22873
2.25978
2.32937
2.45794
2.64853
2.89275
3.26653
3.6565
4.19505
4.91497
5.40328
6.03056
6.74865
2.98838
2.64379
2.47325
2.38253
2.32297
2.27947
2.24596
2.23533
2.21872
2.21535
2.22225
2.24351
2.29156
2.39357
2.56379
2.79471
3.14469
3.50988
4.04733
4.73709
5.20387
5.79122
6.49143
2.99021
2.64703
2.47708
2.38959
2.32726
2.28276
2.25092
2.23828
2.22249
2.21812
2.22403
2.24392
2.28476
2.36115
2.50306
2.71274
3.03001
3.38098
3.89554
4.54568
4.97125
5.5262
6.21742
3.00049
2.65635
2.48093
2.3934
2.32954
2.2874
2.2543
2.24072
2.22605
2.22049
2.22577
2.24303
2.27717
2.34144
2.45901
2.64989
2.93623
3.25876
3.74875
4.35341
4.75585
5.29624
5.92929
3.00265
2.66205
2.4872
2.39999
2.33427
2.2903
2.25717
2.24199
2.22947
2.22262
2.22765
2.24228
2.27195
2.32654
2.42261
2.58382
2.83468
3.13142
3.57922
4.13104
4.51098
5.01781
5.63067
3.01359
2.6721
2.49249
2.40461
2.3376
2.29502
2.26146
2.24368
2.23347
2.2259
2.23014
2.24253
2.27047
2.32218
2.4111
2.55357
2.77241
3.04255
3.43562
3.94647
4.31262
4.81002
5.36901
3.01654
2.68016
2.5015
2.40974
2.34136
2.29762
2.26408
2.24463
2.236
2.2275
2.23135
2.24246
2.26756
2.3138
2.39098
2.51502
2.70567
2.94932
3.28454
3.73361
4.10087
4.57801
5.09035
3.0286
2.69183
2.50945
2.41628
2.34668
2.30214
2.26932
2.2467
2.23948
2.22918
2.23216
2.24208
2.26583
2.31012
2.38336
2.49526
2.66404
2.8879
3.15647
3.56711
3.95131
4.36507
4.83401
3.03234
2.70064
2.51913
2.42167
2.35138
2.30444
2.27232
2.24846
2.24096
2.23031
2.23224
2.24105
2.26275
2.30307
2.3697
2.47284
2.63159
2.82896
3.06755
3.39775
3.78138
4.16216
4.56529
3.04591
2.71484
2.53072
2.42889
2.35729
2.30891
2.27841
2.25173
2.2434
2.23155
2.23201
2.24005
2.26092
2.29929
2.36164
2.45728
2.60501
2.78592
2.99625
3.27377
3.67121
3.98245
4.3273
3.05054
2.72331
2.53991
2.43593
2.36449
2.31258
2.28131
2.25419
2.24536
2.23326
2.23292
2.23966
2.25904
2.29501
2.35378
2.4437
2.5868
2.74512
2.96818
3.19018
3.5423
3.79666
4.13819
3.06571
2.73921
2.55571
2.44306
2.37022
2.31633
2.28701
2.25867
2.24737
2.23478
2.23238
2.23939
2.25731
2.29108
2.34612
2.43123
2.56532
2.71394
2.93969
3.13596
3.43518
3.64593
3.96358
3.07115
2.74828
2.56349
2.45123
2.37951
2.32258
2.29047
2.26137
2.24961
2.23774
2.23317
2.23823
2.25565
2.28905
2.34297
2.42519
2.55266
2.69712
2.92691
3.0824
3.31304
3.52156
3.83977
3.08616
2.7637
2.5819
2.45965
2.38465
2.32593
2.29413
2.26641
2.25131
2.23985
2.23355
2.23804
2.25432
2.28504
2.33563
2.41497
2.53455
2.68199
2.88453
3.02796
3.25152
3.42516
3.70982
3.09261
2.77502
2.58932
2.46748
2.39471
2.33348
2.29907
2.27056
2.25385
2.2436
2.23549
2.23851
2.25208
2.27976
2.3273
2.40208
2.51207
2.66217
2.84139
2.96893
3.18673
3.33659
3.55448
2.90693
2.81427
2.87374
2.9389
3.01362
3.05996
3.09935
3.12883
3.15781
3.18713
3.22565
3.28251
3.3787
3.53349
3.771
4.12643
4.63785
5.20909
5.72945
6.27653
6.77739
7.2204
7.50858
2.89809
2.77857
2.83077
2.90023
2.98296
3.03466
3.08351
3.11996
3.15054
3.18716
3.22135
3.27918
3.37544
3.52851
3.76386
4.1123
4.6129
5.1949
5.72567
6.28959
6.81113
7.26374
7.54857
2.89088
2.74408
2.79377
2.86521
2.94848
3.00576
3.0661
3.10479
3.14268
3.18198
3.21716
3.27575
3.37128
3.52328
3.75316
4.094
4.59769
5.15976
5.72267
6.3037
6.85102
7.32043
7.61126
2.88607
2.71163
2.75734
2.81451
2.90585
2.97118
3.04616
3.07959
3.12785
3.17352
3.20981
3.27101
3.36634
3.5177
3.74634
4.07769
4.57274
5.13349
5.72108
6.32054
6.89619
7.38526
7.69504
2.88946
2.67845
2.71027
2.77836
2.86282
2.92754
3.01688
3.06102
3.11439
3.15737
3.20342
3.26614
3.36119
3.51044
3.73448
4.06136
4.54839
5.0972
5.71683
6.32199
6.93609
7.45965
7.80758
2.89319
2.6501
2.67073
2.71936
2.81468
2.88557
2.98673
3.03006
3.09229
3.13922
3.19318
3.25741
3.35373
3.50318
3.72606
4.04321
4.52089
5.05848
5.71074
6.32055
6.94469
7.52057
7.91598
2.89667
2.62579
2.62201
2.67289
2.75671
2.83574
2.95223
3.00193
3.06359
3.11484
3.17882
3.24604
3.34526
3.49329
3.7128
4.03148
4.49406
5.02787
5.70344
6.32392
6.95056
7.56055
8.01373
2.90361
2.60208
2.57785
2.61507
2.70177
2.78245
2.91012
2.96218
3.03391
3.08833
3.15922
3.23012
3.33374
3.48244
3.69966
4.01133
4.46175
4.99184
5.68528
6.3125
6.9312
7.59553
8.08302
2.90886
2.58927
2.53374
2.56048
2.63787
2.7259
2.86128
2.92078
3.0003
3.05498
3.1335
3.20927
3.31919
3.46786
3.68335
3.99675
4.43447
4.96729
5.66143
6.29695
6.92735
7.60807
8.13871
2.91398
2.57839
2.49438
2.50715
2.57635
2.66828
2.8089
2.87235
2.96006
3.01976
3.10293
3.18312
3.30015
3.45059
3.66503
3.97523
4.39327
4.93619
5.62609
6.25481
6.90053
7.61226
8.16029
2.91755
2.58058
2.4631
2.45748
2.51517
2.60726
2.74577
2.81693
2.91879
2.97756
3.06539
3.15071
3.27598
3.42837
3.64192
3.95179
4.36665
4.90915
5.57871
6.22062
6.8416
7.59689
8.16029
2.91989
2.58111
2.43901
2.41348
2.45841
2.5492
2.6813