/*--------------------------------*- C++ -*----------------------------------*\
  =========                 |
  \\      /  F ield         | OpenFOAM: The Open Source CFD Toolbox
   \\    /   O peration     | Website:  https://openfoam.org
    \\  /    A nd           | Version:  7
     \\/     M anipulation  |
\*---------------------------------------------------------------------------*/
FoamFile
{
    version     2.0;
    format      ascii;
    class       volScalarField;
    location    "50";
    object      p;
}
// * * * * * * * * * * * * * * * * * * * * * * * * * * * * * * * * * * * * * //

dimensions      [0 2 -2 0 0 0 0];

internalField   nonuniform List<scalar> 
12842
(
1.37508
1.50284
1.71481
2.09234
2.59919
3.19083
3.84385
4.53881
5.2486
5.94089
6.58613
7.16636
7.68296
8.16278
8.65895
9.23766
9.95456
10.8293
11.8302
12.8838
13.8944
14.7841
15.4962
1.30241
1.4526
1.66675
2.06577
2.58607
3.17039
3.78772
4.40402
4.97432
5.45251
5.80394
6.01647
6.10865
6.13591
6.19147
6.38514
6.80463
7.47931
8.36553
9.36562
10.3611
11.2546
12.0015
1.22005
1.38378
1.61241
2.03631
2.56696
3.14262
3.72565
4.26573
4.69976
4.97009
5.04068
4.90901
4.61272
4.23296
3.89836
3.75434
3.90842
4.38684
5.12777
6.01287
6.91734
7.7354
8.45151
1.12599
1.30441
1.55511
2.00417
2.54385
3.11435
3.66966
4.1402
4.44358
4.51223
4.312
3.85391
3.19587
2.44155
1.75056
1.29766
1.20003
1.47133
2.03016
2.74611
3.50221
4.19685
4.84589
1.02204
1.22748
1.49862
1.97142
2.51861
3.08819
3.6218
4.02731
4.2015
4.06887
3.60071
2.82592
1.82569
0.72008
-0.304352
-1.04892
-1.39549
-1.3488
-1.00599
-0.499157
0.0762449
0.621613
1.18657
0.914162
1.16199
1.44442
1.94096
2.49385
3.06723
3.58444
3.92833
3.97372
3.64007
2.90804
1.82955
0.511422
-0.918646
-2.25347
-3.27656
-3.87585
-4.07523
-3.97934
-3.7139
-3.34462
-2.96764
-2.50358
0.808468
1.11055
1.393
1.91648
2.47451
3.05976
3.56875
3.85848
3.78024
3.25151
2.26561
0.90179
-0.702067
-2.4265
-4.05048
-5.34505
-6.20882
-6.68353
-6.8673
-6.8704
-6.72989
-6.54693
-6.21001
0.710839
1.07147
1.34252
1.89482
2.45488
3.05808
3.56463
3.80835
3.61567
2.90596
1.68723
0.0684025
-1.77761
-3.75939
-5.65119
-7.21675
-8.36471
-9.14163
-9.62713
-9.91867
-10.0329
-10.0738
-9.88972
0.612213
1.03985
1.29919
1.88979
2.46304
3.10562
3.6342
3.86366
3.59258
2.74411
1.33854
-0.490659
-2.52583
-4.71963
-6.8447
-8.65754
-10.0746
-11.1464
-11.9311
-12.5117
-12.8752
-13.1642
-13.1255
0.518339
1.01208
1.26477
1.89891
2.49602
3.19061
3.75514
3.99023
3.66703
2.71374
1.15999
-0.844745
-3.03889
-5.4172
-7.74912
-9.78819
-11.4607
-12.8203
-13.9018
-14.7587
-15.3549
-15.8566
-15.9897
0.442545
0.990188
1.23781
1.90962
2.5316
3.2764
3.8739
4.11277
3.73522
2.6764
0.974389
-1.21208
-3.57028
-6.14126
-8.69309
-10.9832
-12.9468
-14.6258
-16.0193
-17.1534
-17.9822
-18.7001
-19.0318
0.384008
0.971113
1.21658
1.91751
2.56388
3.35226
3.97594
4.21291
3.77618
2.61135
0.766541
-1.59653
-4.10963
-6.8651
-9.63497
-12.179
-14.4332
-16.4213
-18.1101
-19.5135
-20.5809
-21.5326
-22.0998
0.33867
0.951494
1.19833
1.92031
2.59071
3.4155
4.05977
4.29089
3.79348
2.52785
0.555665
-1.96507
-4.60593
-7.51807
-10.4768
-13.2403
-15.7419
-17.9972
-19.961
-21.6479
-22.9791
-24.1946
-25.0439
0.303813
0.931264
1.18124
1.91865
2.61216
3.46696
4.12784
4.35082
3.79355
2.43502
0.354469
-2.30026
-5.03651
-8.06866
-11.1771
-14.1165
-16.819
-19.3056
-21.5432
-23.5444
-25.1688
-26.6747
-27.8294
0.277117
0.912143
1.16483
1.91518
2.6298
3.50964
4.18446
4.39792
3.78185
2.33731
0.165437
-2.60432
-5.40874
-8.5344
-11.7716
-14.8723
-17.7641
-20.4799
-23.0092
-25.3487
-27.2962
-29.1123
-30.5608
0.256533
0.895191
1.14943
1.91198
2.64495
3.54642
4.23364
4.43705
3.7633
2.23761
-0.0131123
-2.88769
-5.74724
-8.9612
-12.3398
-15.6298
-18.7472
-21.7274
-24.5706
-27.263
-29.5662
-31.6883
-33.4413
0.240515
0.880559
1.13576
1.90996
2.65827
3.57916
4.27815
4.47177
3.74144
2.13732
-0.184475
-3.16344
-6.07741
-9.3946
-12.9535
-16.4906
-19.9009
-23.1902
-26.3498
-29.4042
-32.087
-34.5044
-36.6007
0.227749
0.868128
1.1246
1.90944
2.67042
3.60953
4.32038
4.50531
3.71977
2.0386
-0.349652
-3.4387
-6.41358
-9.85544
-13.6392
-17.4849
-21.25
-24.8597
-28.3235
-31.7634
-34.8198
-37.4504
-39.848
0.217378
0.857798
1.11635
1.91007
2.68153
3.63817
4.36152
4.53956
3.70057
1.94305
-0.5081
-3.71588
-6.75612
-10.3373
-14.3768
-18.5701
-22.7079
-26.6036
-30.3419
-34.1061
-37.4845
-40.3269
-42.8708
0.208699
0.849679
1.11108
1.91159
2.69214
3.66604
4.40305
4.5769
3.68679
1.85348
-0.656805
-3.99176
-7.09576
-10.8156
-15.1204
-19.6649
-24.141
-28.2712
-32.2951
-36.351
-39.9125
-42.7398
-45.1269
0.201385
0.843741
1.10796
1.91265
2.70088
3.69127
4.44297
4.61559
3.67691
1.76834
-0.795498
-4.26475
-7.4212
-11.2626
-15.8221
-20.6822
-25.4339
-29.8126
-34.2062
-38.3929
-41.8959
-44.5364
-46.6867
0.194928
0.840555
1.10776
1.91534
2.71168
3.71959
4.48905
4.66519
3.68123
1.69799
-0.912651
-4.52426
-7.71606
-11.6507
-16.4426
-21.5596
-26.5646
-31.3061
-35.962
-39.7918
-43.1436
-45.905
-48.154
0.190238
0.839221
1.10689
1.91395
2.71588
3.73866
4.52606
4.70951
3.68442
1.62761
-1.01949
-4.77704
-7.97885
-11.9685
-16.9633
-22.282
-27.5955
-32.7968
-37.4305
-40.9416
-44.3195
-47.2132
-49.4737
0.187087
0.845054
1.12016
1.93557
2.7539
3.80304
4.62183
4.82697
3.77177
1.64955
-1.01139
-4.91944
-8.13331
-12.1591
-17.3437
-22.843
-28.5253
-34.2374
-38.7132
-42.3676
-45.8777
-48.6685
-50.7329
0.173761
0.852564
1.14061
1.97284
2.81471
3.89618
4.75247
4.98659
3.91368
1.73806
-0.923878
-4.97802
-8.21689
-12.2707
-17.6352
-23.3204
-29.3863
-35.5415
-40.0295
-44.039
-47.5778
-50.1437
-51.908
0.17175
0.869966
1.17238
2.02359
2.89007
4.00192
4.88983
5.14177
4.03501
1.78443
-0.894503
-5.11414
-8.38947
-12.4662
-18.0173
-23.9123
-30.334
-36.7113
-41.5353
-45.9014
-49.323
-51.5036
-52.9546
0.180809
0.894567
1.21027
2.07901
2.9665
4.1012
5.00921
5.26326
4.1036
1.75537
-0.954368
-5.35474
-8.66762
-12.7559
-18.502
-24.6073
-31.3803
-37.944
-43.2207
-47.992
-51.6272
-53.7228
-55.0329
0.19256
0.920331
1.24791
2.13227
3.03655
4.18641
5.10384
5.34676
4.11916
1.65702
-1.08721
-5.67083
-9.00131
-13.0713
-19.0009
-25.2731
-32.4472
-39.4098
-45.0287
-50.0822
-54.3297
-56.9525
-58.3534
0.202519
0.943887
1.28192
2.18009
3.09717
4.25577
5.17439
5.39725
4.09259
1.50747
-1.2649
-6.02236
-9.33411
-13.3357
-19.4011
-25.7757
-33.3857
-40.8613
-46.8276
-52.0611
-56.6833
-59.971
-61.9556
0.210575
0.965035
1.31245
2.223
3.14996
4.3129
5.22775
5.4267
4.0423
1.33215
-1.45372
-6.36793
-9.61876
-13.4834
-19.6192
-26.0838
-34.111
-42.0302
-48.5913
-54.3634
-58.9261
-62.7289
-65.6589
0.217955
0.984758
1.34111
2.26323
3.19834
4.36351
5.27288
5.44878
3.98761
1.15528
-1.62476
-6.67722
-9.82914
-13.4787
-19.6312
-26.2468
-34.6202
-42.9565
-50.2956
-56.8986
-61.5272
-65.8942
-69.6592
0.225654
1.00402
1.36945
2.30279
3.24553
4.41253
5.31708
5.47407
3.94274
0.993299
-1.76081
-6.93634
-9.96411
-13.3203
-19.4492
-26.2901
-34.9508
-43.7411
-51.7626
-58.8621
-64.4854
-69.2536
-73.81
0.234092
1.02337
1.39836
2.34284
3.29323
4.46259
5.36419
5.50787
3.91426
0.851702
-1.85918
-7.14976
-10.0464
-13.0383
-19.0948
-26.2061
-35.2955
-44.6355
-52.9582
-60.0561
-66.9254
-72.3406
-77.4353
0.243344
1.04308
1.42818
2.38372
3.34208
4.51461
5.41532
5.55135
3.90296
0.728574
-1.92611
-7.33098
-10.108
-12.67
-18.5716
-25.9754
-35.8422
-45.6169
-53.8863
-61.0014
-68.2485
-74.3846
-79.7809
0.253242
1.06321
1.45888
2.42531
3.39189
4.56831
5.46987
5.60315
3.90622
0.617635
-1.97253
-7.49704
-10.1835
-12.2408
-17.8665
-25.7252
-36.6429
-46.1462
-54.2701
-61.6276
-68.8918
-75.3642
-80.7726
0.263589
1.08374
1.49025
2.46734
3.44234
4.62313
5.52677
5.66126
3.9207
0.512453
-2.00822
-7.66091
-10.2988
-11.7377
-17.0075
-25.8259
-37.4343
-45.8498
-53.7969
-61.5957
-68.8144
-75.2467
-80.468
0.274156
1.10461
1.52206
2.50951
3.49299
4.67844
5.58493
5.72365
3.94337
0.407366
-2.04105
-7.83108
-10.4674
-11.128
-16.1481
-26.6164
-37.6011
-44.9679
-52.9744
-60.7726
-67.8961
-73.9973
-78.9306
0.284828
1.12577
1.55411
2.55165
3.54366
4.73392
5.64367
5.78899
3.97235
0.299074
-2.07496
-8.01018
-10.6882
-10.3479
-15.3591
-27.687
-36.9082
-43.5723
-51.9017
-59.4993
-66.3968
-71.9521
-76.442
0.29551
1.14716
1.58627
2.5937
3.59423
4.78938
5.70259
5.85637
4.00661
0.185642
-2.11185
-8.19626
-10.9567
-9.43767
-14.9572
-28.2996
-35.7475
-41.99
-50.4511
-57.7772
-64.3525
-69.3594
-73.3224
0.30623
1.16879
1.61851
2.63568
3.6448
4.84493
5.76165
5.92546
4.04612
0.0669947
-2.15086
-8.38442
-11.26
-8.35925
-15.2
-28.2826
-34.477
-40.6834
-49.0327
-55.9004
-61.9051
-66.4199
-69.871
0.316999
1.19063
1.65083
2.67771
3.69545
4.90065
5.82088
5.99612
4.09121
-0.056448
-2.19129
-8.5725
-11.5523
-7.10761
-16.1181
-28.0605
-33.8407
-40.3145
-47.9271
-54.2526
-59.3395
-63.1093
-66.2831
0.327912
1.21272
1.68331
2.7199
3.74636
4.95676
5.88047
6.06842
4.14263
-0.183401
-2.23213
-8.74829
-11.7732
-6.08635
-17.2691
-27.8729
-33.9804
-40.5434
-47.0925
-53.0178
-57.5158
-60.0316
-62.1949
0.339007
1.23505
1.71599
2.76238
3.79761
5.01337
5.94055
6.14241
4.20113
-0.312943
-2.27279
-8.89145
-11.9427
-5.72537
-18.0944
-27.239
-34.0681
-40.4491
-45.8954
-51.1432
-54.3523
-56.2375
-57.9234
0.350372
1.25765
1.74896
2.80522
3.84934
5.07065
6.00127
6.21818
4.2675
-0.443782
-2.31117
-8.98388
-12.0514
-5.9692
-18.4518
-26.0905
-33.4102
-39.4615
-43.8816
-47.7179
-49.7361
-51.5658
-52.8623
0.362009
1.2805
1.78226
2.84851
3.90159
5.12864
6.06272
6.29574
4.34243
-0.575225
-2.34838
-9.00579
-11.9454
-6.50401
-18.6956
-25.1077
-31.9572
-37.6704
-40.7406
-42.9994
-44.1745
-45.3788
-46.2162
0.373991
1.30366
1.81596
2.89226
3.95441
5.18741
6.12498
6.37507
4.42648
-0.706438
-2.3823
-8.95564
-11.8153
-7.41469
-19.0036
-24.7675
-30.0606
-35.1154
-37.0772
-38.0805
-38.5419
-38.9121
-39.2208
0.386228
1.32705
1.85008
2.9366
4.00792
5.24715
6.18839
6.45651
4.52066
-0.836475
-2.40783
-8.86138
-11.8876
-8.73885
-19.3503
-24.8005
-28.0496
-32.2007
-33.3589
-33.3578
-33.1272
-32.7914
-32.6266
0.399033
1.35095
1.88486
2.98168
4.06232
5.30815
6.25332
6.54037
4.62584
-0.963212
-2.41844
-8.75511
-12.3328
-10.4366
-19.4846
-24.371
-26.0263
-28.8946
-29.2588
-28.4515
-27.5848
-26.7614
-26.3111
0.411891
1.37472
1.9201
3.02762
4.11823
5.37184
6.32238
6.63023
4.74797
-1.07302
-2.39207
-8.58138
-12.8747
-12.3253
-19.3484
-22.9936
-23.4398
-24.523
-24.1063
-22.7674
-21.4211
-20.341
-19.821
0.422193
1.39808
1.95609
3.0762
4.17926
5.44439
6.40522
6.73983
4.90533
-1.13155
-2.27333
-8.18355
-12.9753
-13.8998
-18.3381
-19.9187
-18.9729
-18.0433
-16.7657
-15.0353
-13.4765
-12.4104
-12.038
0.435063
1.42395
1.99604
3.13064
4.24934
5.5309
6.50829
6.87594
5.10144
-1.12648
-2.06005
-7.53627
-12.512
-14.9707
-16.1499
-15.1012
-12.5016
-9.78687
-7.56858
-5.36946
-3.8892
-3.04476
-3.04681
0.450883
1.45278
2.04065
3.19178
4.32946
5.63214
6.6313
7.03501
5.32473
-1.07439
-1.80075
-6.77485
-11.6941
-15.4407
-12.9286
-9.4829
-5.32076
-1.23422
1.81239
4.51196
5.65538
6.12754
5.60283
0.468164
1.48354
2.08882
3.25833
4.41769
5.74483
6.76827
7.20565
5.55365
-1.00846
-1.57154
-6.08313
-10.7056
-15.4627
-9.2002
-4.09268
1.20213
6.17939
9.74582
12.7467
13.3361
13.2571
12.0307
0.486134
1.51559
2.13967
3.32907
4.51212
5.86571
6.91347
7.37765
5.76903
-0.960431
-1.43734
-5.66636
-9.80076
-15.255
-5.67659
0.536623
6.40606
11.7501
15.4193
18.3039
18.1706
17.2485
15.091
0.504532
1.54846
2.1922
3.40234
4.60996
5.99029
7.05992
7.5404
5.9547
-0.951712
-1.43952
-5.61203
-9.19652
-15.1081
-2.98561
3.8724
9.89312
15.1398
18.4863
20.7455
19.8225
17.7501
14.5298
0.523339
1.58199
2.24616
3.47775
4.71067
6.1177
7.20623
7.69164
6.10641
-0.988086
-1.58037
-5.91529
-9.14678
-14.8944
-1.18731
6.07163
12.021
16.7897
19.4493
20.6977
18.8344
15.4018
11.1267
0.542577
1.61644
2.30157
3.55536
4.81415
6.24777
7.3526
7.83381
6.22969
-1.0671
-1.83028
-6.41831
-9.49167
-14.5171
-0.0780454
7.57595
13.3323
17.3666
19.0937
19.0499
16.171
11.3534
6.00837
0.563562
1.65256
2.35967
3.63586
4.92071
6.37995
7.49786
7.96658
6.32926
-1.18211
-2.21472
-7.28807
-10.3018
-14.6359
0.106391
8.20493
13.4844
16.5147
16.9848
15.2017
11.4621
5.28462
-1.24122
0.583978
1.68792
2.41648
3.71424
5.0233
6.5047
7.62926
8.07329
6.38432
-1.35441
-2.75112
-8.38624
-11.4686
-15.2919
-0.461271
7.82811
12.3826
14.2258
13.2926
9.55259
5.29177
-2.04106
-9.31124
0.60335
1.72192
2.47108
3.78936
5.12072
6.62103
7.74666
8.1558
6.40031
-1.57076
-3.39555
-9.5576
-12.9082
-16.1332
-1.45624
6.86859
10.6639
11.3767
9.16729
3.76088
-0.783449
-8.82504
-15.8388
0.622306
1.75525
2.52452
3.86268
5.21505
6.73213
7.85534
8.22359
6.39453
-1.8016
-4.08713
-10.6848
-14.5484
-17.0416
-2.82582
5.53768
8.68405
8.49371
5.32251
-1.10895
-5.71647
-13.6255
-19.1862
0.641266
1.78841
2.57755
3.93518
5.30778
6.84041
7.95962
8.28473
6.38221
-2.0213
-4.77464
-11.6724
-16.2483
-17.9961
-4.48517
3.9646
6.63549
5.82092
2.08937
-4.64525
-9.00851
-15.7174
-19.4615
0.66025
1.82146
2.63035
4.00721
5.39955
6.94702
8.06175
8.34394
6.3727
-2.215
-5.42502
-12.4532
-17.8405
-19.0171
-6.33031
2.26525
4.6411
3.44228
-0.41148
-6.82271
-10.5085
-15.3131
-17.4642
0.679239
1.85439
2.68294
4.07876
5.4904
7.05223
8.16256
8.40332
6.37025
-2.3774
-6.02245
-13.0107
-19.2991
-20.1122
-8.2632
0.543762
2.79717
1.3094
-2.1459
-7.75728
-10.3681
-13.1544
-13.9186
0.698162
1.88715
2.73524
4.14977
5.58031
7.15606
8.26221
8.46347
6.3758
-2.50969
-6.56629
-13.3654
-20.6817
-21.2634
-10.2048
-1.07926
1.15939
-0.667697
-3.16679
-7.53169
-8.92838
-9.90287
-9.36474
0.717017
1.91973
2.7872
4.2201
5.6691
7.25833
8.36056
8.52427
6.38859
-2.61652
-7.06604
-13.5689
-22.0272
-22.4448
-12.1255
-2.51112
-0.279362
-2.32099
-3.74881
-6.33879
-6.60825
-6.021
-4.27532
0.735751
1.95208
2.83874
4.28972
5.75673
7.35898
8.45743
8.58537
6.40712
-2.70394
-7.53713
-13.6916
-23.3153
-23.6069
-14.1
-4.00647
-1.61452
-3.41266
-3.80224
-4.61554
-3.79188
-1.90351
0.847484
0.754374
1.98423
2.88985
4.35853
5.84308
7.45786
8.55263
8.64633
6.42977
-2.77816
-7.99769
-13.7853
-24.4999
-24.7188
-16.0864
-5.82873
-2.94027
-3.94211
-3.33825
-2.73077
-0.823029
2.1022
5.59928
0.772841
2.01611
2.94045
4.42653
5.92818
7.55499
8.64605
8.70676
6.45494
-2.84473
-8.4658
-13.8832
-25.5719
-25.7564
-17.8152
-7.54759
-4.29676
-4.1745
-2.58326
-0.889094
2.00583
5.71249
9.70375
0.791171
2.04778
2.99057
4.49369
6.01196
7.65029
8.73755
8.76629
6.48133
-2.90827
-8.95783
-14.0121
-26.5413
-26.7032
-19.1966
-8.86121
-5.45615
-4.3403
-1.82773
0.792497
4.5255
8.75055
13.0116
0.809327
2.07917
3.04016
4.56002
6.09449
7.74378
8.82703
8.82461
6.50784
-2.97211
-9.48756
-14.1922
-27.4137
-27.5573
-20.3129
-9.86835
-6.37719
-4.55227
-1.26317
2.2374
6.64874
11.181
15.5204
0.827338
2.11033
3.08925
4.62549
6.17566
7.83535
8.91432
8.8814
6.53374
-3.03842
-10.0655
-14.4401
-28.1805
-28.3312
-21.2079
-10.6441
-7.17048
-4.87074
-0.923881
3.40498
8.34038
13.0084
17.2663
0.845173
2.14119
3.13779
4.69012
6.25553
7.925
8.9993
8.93646
6.5585
-3.10803
-10.6989
-14.7731
-28.8265
-29.0468
-21.8984
-11.2242
-7.92072
-5.31763
-0.778289
4.29931
9.59705
14.2471
18.2742
0.862865
2.17179
3.18581
4.75384
6.33396
8.01256
9.08177
8.98953
6.58195
-3.18072
-11.3912
-15.2216
-29.4106
-29.7324
-22.3983
-11.6475
-8.64913
-5.86772
-0.805098
4.90613
10.4217
14.9454
18.6078
0.880382
2.20208
3.23324
4.81666
6.41098
8.09799
9.1616
9.0405
6.6041
-3.25512
-12.1388
-15.8108
-30.052
-30.4052
-22.7092
-11.9537
-9.3526
-6.48948
-0.997101
5.19191
10.7847
15.1453
18.3885
0.897755
2.23207
3.28011
4.87849
6.48641
8.1811
9.23859
9.08921
6.62517
-3.32901
-12.9315
-16.5062
-30.7483
-31.0136
-22.8227
-12.1742
-10.0667
-7.1856
-1.34484
5.14581
10.7212
14.9148
17.7895
0.914947
2.26172
3.32635
4.93933
6.56027
8.26185
9.31264
9.13562
6.64553
-3.39925
-13.7576
-17.2206
-31.4343
-31.5342
-22.7284
-12.3597
-10.8439
-7.98949
-1.85497
4.82775
10.3811
14.4386
17.0238
0.931986
2.29104
3.37197
4.99908
6.63238
8.34001
9.38354
9.17962
6.66567
-3.46219
-14.6045
-17.917
-32.169
-31.966
-22.4353
-12.5997
-11.7101
-8.90797
-2.50752
4.36504
9.95903
13.9094
16.2791
0.948827
2.31997
3.4169
5.05772
6.70273
8.41555
9.4512
9.22122
6.6861
-3.51357
-15.4614
-18.5742
-33.0254
-32.3608
-22.121
-13.0039
-12.672
-9.86985
-3.20321
3.90798
9.57985
13.4305
15.6533
0.965497
2.34855
3.46114
5.11514
6.77113
8.48825
9.51542
9.26029
6.70738
-3.5497
-16.3229
-19.1847
-33.8911
-32.7991
-21.9748
-13.6453
-13.7325
-10.793
-3.81171
3.56174
9.26997
12.9914
15.1245
0.981943
2.37669
3.50461
5.17133
6.83759
8.55808
9.5761
9.29681
6.73004
-3.56699
-17.1822
-19.7334
-34.5825
-33.1943
-22.0712
-14.5411
-14.8903
-11.6352
-4.25547
3.33088
8.97575
12.5459
14.6225
0.998193
2.40442
3.54732
5.22617
6.90189
8.62478
9.63301
9.33061
6.7546
-3.56224
-18.0272
-20.2164
-35.0568
-33.4394
-22.393
-15.6729
-16.1425
-12.3861
-4.58864
3.08857
8.59414
12.0228
14.0689
1.01419
2.43168
3.58918
5.27965
6.96406
8.68833
9.68603
9.36162
6.78161
-3.53206
-18.8423
-20.6402
-35.3311
-33.5468
-22.8765
-16.9962
-17.424
-13.0645
-4.93145
2.70789
8.03741
11.3449
13.3842
1.02995
2.45849
3.63019
5.33164
7.02385
8.74845
9.73488
9.3896
6.8116
-3.47354
-19.6109
-21.015
-35.3986
-33.5905
-23.4783
-18.4486
-18.6393
-13.7133
-5.35822
2.1408
7.28411
10.4815
12.5232
1.04543
2.48476
3.67026
5.38211
7.08128
8.80509
9.77943
9.41446
6.84519
-3.38373
-20.3148
-21.348
-35.2514
-33.6257
-24.2265
-19.9705
-19.7513
-14.3454
-5.90393
1.39504
6.34875
9.46087
11.5256
1.06066
2.51053
3.70939
5.43094
7.1361
8.85797
9.81936
9.43594
6.88304
-3.26041
-20.9355
-21.6484
-34.9052
-33.6395
-25.1101
-21.5274
-20.79
-14.9522
-6.57954
0.477623
5.26018
8.3258
10.4292
1.07555
2.53571
3.74748
5.4781
7.18831
8.90701
9.85451
9.45393
6.92596
-3.10156
-21.4534
-21.9269
-34.3942
-33.6507
-26.1062
-23.0588
-21.7718
-15.5545
-7.37463
-0.594842
4.03139
7.07198
9.22948
1.09015
2.56032
3.78452
5.52343
7.23763
8.95189
9.88454
9.46821
6.9748
-2.90622
-21.8495
-22.1993
-33.7711
-33.7245
-27.2369
-24.5173
-22.6733
-16.1965
-8.27007
-1.772
2.71291
5.73929
7.94912
1.10439
2.58428
3.82041
5.5669
7.28406
8.99253
9.90927
9.47868
7.03062
-2.67393
-22.1041
-22.4809
-33.0796
-33.8951
-28.4726
-25.8563
-23.4536
-16.8942
-9.241
-3.00828
1.36256
4.38287
6.63473
1.1183
2.6076
3.85514
5.60835
7.32731
9.0286
9.92836
9.48516
7.0945
-2.40541
-22.1988
-22.7758
-32.3215
-34.1323
-29.6681
-27.03
-24.1298
-17.6437
-10.2767
-4.28366
-0.00633336
3.02244
5.3061
1.1318
2.6302
3.88859
5.64773
7.36734
9.05999
9.94162
9.48758
7.16769
-2.10162
-22.1135
-23.0699
-31.5204
-34.3631
-30.6683
-28.0377
-24.7685
-18.4145
-11.3457
-5.57137
-1.38581
1.64125
3.93757
1.14493
2.65208
3.92074
5.68488
7.40388
9.08637
9.94871
9.48583
7.25156
-1.7648
-21.8324
-23.328
-30.7642
-34.5691
-31.4275
-28.8996
-25.3927
-19.1576
-12.3815
-6.82533
-2.74034
0.256919
2.54719
1.15761
2.67315
3.95145
5.71971
7.43683
9.10757
9.94935
9.47973
7.34717
-1.39752
-21.339
-23.5184
-30.1339
-34.7138
-32.0185
-29.621
-25.964
-19.8448
-13.3486
-8.01742
-4.04279
-1.10319
1.16471
1.16984
2.69342
3.98074
5.7521
7.46602
9.12343
9.94341
9.46949
7.45706
-1.00409
-20.6056
-23.635
-29.7213
-34.6789
-32.5012
-30.191
-26.413
-20.4726
-14.2552
-9.13418
-5.27704
-2.42323
-0.198468
1.18171
2.71287
4.00845
5.78182
7.49101
9.13324
9.92995
9.45354
7.57729
-0.587062
-19.482
-23.5991
-29.5736
-34.4052
-32.8609
-30.6103
-26.7136
-21.0338
-15.1129
-10.1947
-6.47602
-3.72036
-1.54809
1.19289
2.73148
4.03489
5.80953
7.51293
9.13844
9.91019
9.43415
7.71409
-0.197569
-18.1367
-23.4189
-29.5698
-33.9578
-32.9873
-30.7416
-26.7246
-21.2873
-15.7089
-11.057
-7.52142
-4.88072
-2.77094
1.20557
2.75094
4.06109
5.83506
7.52971
9.13374
9.87675
9.39083
7.77941
0.202442
-16.2481
-22.6018
-29.0193
-33.1298
-32.9188
-30.8467
-26.8478
-21.613
-16.3334
-11.921
-8.5517
-6.0259
-3.98747
1.22093
2.7703
4.08572
5.85344
7.53325
9.10831
9.82207
9.32816
7.76134
0.467663
-14.5924
-21.7188
-28.2419
-32.0754
-32.3149
-30.3135
-26.4272
-21.4076
-16.4206
-12.2424
-9.05828
-6.67126
-4.73504
1.23192
2.78412
4.10069
5.85533
7.51019
9.04323
9.7187
9.20699
7.63317
0.644592
-12.9834
-20.5672
-27.0455
-30.7048
-31.1463
-29.1794
-25.4663
-20.7265
-16.0437
-12.1147
-9.12831
-6.89106
-5.07119
1.2372
2.7906
4.10336
5.83751
7.45593
8.93141
9.55274
9.00262
7.38183
0.743983
-11.3304
-19.1006
-25.3677
-28.925
-29.4384
-27.5029
-23.9191
-19.5051
-15.1769
-11.5419
-8.78537
-6.71735
-5.02419
1.23981
2.79157
4.09555
5.80146
7.37187
8.77426
9.32463
8.71649
7.02976
0.79491
-9.7154
-17.4121
-23.247
-26.7048
-27.2269
-25.3556
-21.9451
-17.8331
-13.8856
-10.6019
-8.12703
-6.27072
-4.73347
1.24164
2.78823
4.07857
5.74814
7.25926
8.57424
9.03914
8.36105
6.61089
0.830441
-8.12627
-15.5957
-20.8506
-24.1242
-24.5534
-22.7541
-19.5986
-15.8586
-12.3488
-9.48503
-7.35202
-5.75251
-4.40873
1.24205
2.77976
4.05135
5.67628
7.11707
8.33148
8.69958
7.94933
6.15623
0.871209
-6.49953
-13.6591
-18.2409
-21.2805
-21.6106
-19.8807
-16.9964
-13.7216
-10.7441
-8.38893
-6.66434
-5.36687
-4.25728
1.23991
2.76464
4.01172
5.5828
6.94182
8.04333
8.30664
7.49156
5.68981
0.928676
-4.91942
-11.5505
-15.4915
-18.1884
-18.4839
-16.9513
-14.45
-11.7385
-9.38097
-7.58702
-6.30216
-5.33226
-4.4877
1.23411
2.74121
3.95715
5.46432
6.72968
7.70686
7.86099
6.99677
5.22919
1.01818
-3.49603
-9.33163
-12.702
-14.9877
-15.2416
-14.0394
-12.136
-10.1586
-8.50903
-7.30239
-6.46109
-5.82382
-5.25616
1.22409
2.70802
3.88528
5.31739
6.47696
7.31994
7.3646
6.47295
4.78302
1.14652
-2.26368
-7.1927
-9.96538
-11.8699
-12.1974
-11.4468
-10.2482
-9.06774
-8.13935
-7.50089
-7.0757
-6.75285
-6.4476
1.20908
2.66343
3.79358
5.139
6.18116
6.88262
6.82199
5.92718
4.34947
1.28823
-1.29962
-5.24714
-7.49993
-9.14889
-9.6794
-9.45709
-8.95244
-8.47799
-8.15066
-7.9702
-7.88113
-7.81896
-7.73287
1.18858
2.60586
3.67972
4.92633
5.84077
6.39688
6.23927
5.36345
3.91532
1.39051
-0.671305
-3.61341
-5.52885
-7.07039
-7.84623
-8.10047
-8.15696
-8.2026
-8.29194
-8.42065
-8.5611
-8.68059
-8.7485
1.16166
2.53338
3.54118
4.67741
5.45611
5.86729
5.62401
4.78255
3.46007
1.3839
-0.365276
-2.46611
-4.18305
-5.68004
-6.6397
-7.21925
-7.63022
-7.98246
-8.30703
-8.60747
-8.87671
-9.09983
-9.25696
1.12761
2.44421
3.3759
4.39103
5.02919
5.3004
4.98394
4.18249
2.96314
1.21952
-0.316809
-1.85887
-3.43238
-4.85574
-5.87524
-6.59947
-7.16988
-7.65562
-8.07842
-8.44887
-8.77064
-9.0372
-9.23435
1.0853
2.33629
3.18201
4.06762
4.56456
4.70494
4.32727
3.56232
2.41512
0.898278
-0.455178
-1.68472
-3.11019
-4.3964
-5.35998
-6.0888
-6.68149
-7.18577
-7.61995
-7.99678
-8.32218
-8.59272
-8.79803
1.03393
2.20816
2.95882
3.70924
4.06892
4.09108
3.66307
2.92652
1.82675
0.46911
-0.711431
-1.76486
-3.01607
-4.11465
-4.95145
-5.60505
-6.14597
-6.60786
-7.00573
-7.35031
-7.64717
-7.89518
-8.08662
0.972327
2.05839
2.70662
3.32041
3.55142
3.4706
3.00282
2.2884
1.22874
0.00361413
-1.01472
-1.93768
-2.99329
-3.88612
-4.57096
-5.11831
-5.57673
-5.97024
-6.3101
-6.60464
-6.85877
-7.07165
-7.23795
0.900071
1.88686
2.42777
2.90784
3.02301
2.85651
2.36106
1.66986
0.661482
-0.431396
-1.29798
-2.09303
-2.94865
-3.64912
-4.19072
-4.63191
-5.00526
-5.32759
-5.60693
-5.84924
-6.05869
-6.23519
-6.37466
0.816558
1.69425
2.12639
2.48068
2.49622
2.26303
1.75518
1.09652
0.162086
-0.789488
-1.51307
-2.1762
-2.8482
-3.38645
-3.80797
-4.15767
-4.45667
-4.71576
-4.94042
-5.13576
-5.30518
-5.44852
-5.56293
0.722428
1.48337
1.80919
2.0498
1.98438
1.70505
1.20288
0.591319
-0.245686
-1.05014
-1.64006
-2.17432
-2.68853
-3.09617
-3.42039
-3.69341
-3.92847
-4.13313
-4.31126
-4.46546
-4.59847
-4.71122
-4.80213
0.618682
1.25861
1.48468
1.62747
1.50118
1.19703
0.719258
0.169292
-0.554394
-1.21461
-1.68389
-2.1017
-2.48866
-2.79633
-3.04554
-3.25823
-3.4425
-3.60331
-3.74446
-3.86765
-3.97297
-4.06215
-4.13533
0.507957
1.02687
1.16342
1.22645
1.05979
0.751518
0.314678
-0.163326
-0.76823
-1.29489
-1.65911
-1.97897
-2.26784
-2.49997
-2.69091
-2.85537
-2.99854
-3.1241
-3.23385
-3.32873
-3.41
-3.47984
-3.53741
0.393872
0.79669
0.856875
0.859293
0.672093
0.377969
-0.00570279
-0.406869
-0.896
-1.30417
-1.57962
-1.81967
-2.03415
-2.2085
-2.35417
-2.48124
-2.59267
-2.68975
-2.77363
-2.84572
-2.90824
-2.96236
-3.00669
0.281467
0.578227
0.576849
0.537624
0.347402
0.0817161
-0.241959
-0.566874
-0.949369
-1.25621
-1.45947
-1.63631
-1.79362
-1.92391
-2.03573
-2.1342
-2.22033
-2.29499
-2.35898
-2.41425
-2.46246
-2.50353
-2.53715
0.176783
0.381958
0.334695
0.270763
0.0914803
-0.136889
-0.399394
-0.653619
-0.942912
-1.16652
-1.31371
-1.44266
-1.55653
-1.65413
-1.73995
-1.81581
-1.88125
-1.93796
-1.98726
-2.03004
-2.06648
-2.09707
-2.12218
0.0858132
0.21803
0.139683
0.0651065
-0.0943592
-0.282052
-0.487154
-0.679266
-0.890311
-1.04795
-1.1532
-1.24544
-1.32725
-1.40032
-1.46471
-1.52035
-1.56856
-1.61078
-1.64761
-1.67898
-1.70487
-1.72643
-1.74409
0.0150085
0.0946939
-0.00121828
-0.0763236
-0.211912
-0.360507
-0.515597
-0.656524
-0.805631
-0.914184
-0.988847
-1.05357
-1.11282
-1.16671
-1.2131
-1.25339
-1.28956
-1.32172
-1.34945
-1.37215
-1.39055
-1.40565
-1.41797
-0.0327498
0.015868
-0.0860012
-0.154749
-0.265785
-0.379348
-0.492764
-0.592622
-0.694409
-0.769215
-0.82349
-0.870499
-0.914334
-0.953024
-0.985949
-1.01646
-1.04438
-1.06883
-1.08919
-1.10541
-1.11829
-1.12853
-1.13681
-0.0510219
-0.0130074
-0.109629
-0.166338
-0.253113
-0.336545
-0.417632
-0.488891
-0.559244
-0.609249
-0.642947
-0.672484
-0.701322
-0.725507
-0.7471
-0.767817
-0.786422
-0.802138
-0.814566
-0.823964
-0.830784
-0.835607
-0.839251
-0.0662438
-0.0216079
-0.10238
-0.139278
-0.1976
-0.246493
-0.287274
-0.318821
-0.364238
-0.424276
-0.488731
-0.546092
-0.586654
-0.611657
-0.631202
-0.648809
-0.663949
-0.676161
-0.685673
-0.692619
-0.697376
-0.700568
-0.703029
0.0294236
0.0899271
0.0436067
0.0263317
-0.0119439
-0.0505609
-0.0929538
-0.123167
-0.126781
-0.100677
-0.0644109
-0.0442746
-0.0467009
-0.0625723
-0.0785813
-0.0896168
-0.0977779
-0.103976
-0.108153
-0.110257
-0.110742
-0.110083
-0.109017
0.953679
0.855855
1.00898
1.27603
1.60312
2.03376
2.6535
3.51644
4.70316
6.29926
8.32589
10.7906
13.6161
16.72
19.9774
23.2753
26.489
29.5073
32.231
34.5963
36.5631
38.1456
39.3498
1.02217
1.00595
1.14517
1.4305
1.78658
2.24223
2.87021
3.72384
4.87039
6.38147
8.28441
10.5848
13.226
16.1332
19.1968
22.3044
25.3333
28.1666
30.7007
32.8693
34.6354
36.0259
37.047
1.1001
1.15716
1.2985
1.59554
1.9808
2.4636
3.10076
3.94085
5.03782
6.44882
8.2025
10.305
12.7176
15.3787
18.1967
21.0684
23.8774
26.5074
28.8524
30.8414
32.4348
33.6649
34.5374
1.18714
1.29854
1.45709
1.7627
2.1735
2.68356
3.33169
4.15805
5.20349
6.51009
8.10276
9.98746
12.1393
14.512
17.0347
19.6205
22.1662
24.5638
26.7102
28.5308
29.9816
31.0909
31.8596
1.27938
1.41677
1.5996
1.91356
2.3436
2.87695
3.53498
4.34693
5.34057
6.54321
7.97167
9.63012
11.5024
13.5575
15.7454
18.0023
20.2442
22.3773
24.3057
25.9556
27.2788
28.2945
28.999
1.36449
1.49565
1.6968
2.01805
2.45924
3.00667
3.66795
4.46072
5.40161
6.5045
7.77671
9.21729
10.8147
12.5483
14.3865
16.2855
18.1858
20.0126
21.6855
23.1386
24.3244
25.2502
25.9058
1.42099
1.53144
1.74125
2.07326
2.52642
3.08482
3.74546
4.51493
5.39868
6.39806
7.50886
8.72311
10.03
11.4178
12.8718
14.3702
15.8829
17.3648
18.7605
20.0161
21.0816
21.9449
22.5769
1.42632
1.53507
1.74989
2.10472
2.58537
3.16509
3.83063
4.5765
5.3937
6.26751
7.18003
8.11554
9.06514
10.0308
11.0248
12.0629
13.1556
14.2953
15.4479
16.5596
17.5633
18.4145
19.0623
0.406801
-0.243864
0.137459
0.0394053
0.241875
0.435836
0.775343
1.48502
2.61513
4.45609
6.84725
9.96085
13.4162
17.1887
20.9991
24.7773
28.3687
31.6797
34.6217
37.1487
39.2451
40.9478
42.2875
0.421865
-0.201793
0.183766
0.0949153
0.314839
0.518569
0.885938
1.60716
2.75432
4.59679
6.98597
10.0857
13.5413
17.3273
21.1886
25.0533
28.7779
32.2646
35.4217
38.1893
40.5385
42.4861
44.0485
0.438947
-0.156151
0.237245
0.160225
0.399992
0.618192
1.01579
1.74995
2.91382
4.75299
7.13571
10.2103
13.6539
17.4347
21.3234
25.2441
29.0646
32.6846
36.0113
38.9753
41.5374
43.6968
45.4603
0.45765
-0.109007
0.295015
0.232302
0.492528
0.730647
1.16107
1.91252
3.09621
4.9333
7.31083
10.3571
13.7822
17.5459
21.443
25.394
29.2761
32.9874
36.4347
39.5423
42.2664
44.5903
46.5191
0.478628
-0.0607749
0.3558
0.309859
0.590793
0.853362
1.31951
2.09237
3.29831
5.13516
7.50819
10.525
13.927
17.6655
21.5562
25.5171
29.4324
33.1988
36.7225
39.9235
42.7555
45.1924
47.2411
0.502235
-0.0121272
0.417322
0.390726
0.690112
0.980363
1.48363
2.28162
3.51201
5.35108
7.72118
10.709
14.0848
17.7917
21.6632
25.6157
29.5393
33.3294
36.8904
40.1392
43.0289
45.527
47.6456
0.52911
0.0369257
0.476929
0.472716
0.786584
1.10527
1.64509
2.47025
3.72569
5.5686
7.93648
10.8963
14.2436
17.9136
21.7549
25.6831
29.5931
33.3799
36.9455
40.204
43.1079
45.6204
47.7605
0.55966
0.0864137
0.530275
0.550858
0.872285
1.21655
1.78889
2.64109
3.92144
5.77103
8.1406
11.0786
14.4013
18.0358
21.8413
25.7335
29.6109
33.3694
36.9097
40.1438
43.023
45.5096
47.6278
0.594042
0.139056
0.576603
0.624513
0.946481
1.31156
1.91013
2.78657
4.08868
5.94528
8.31796
11.2396
14.5422
18.1452
21.9136
25.7625
29.5928
33.303
36.7932
39.9749
42.7983
45.2249
47.2875
0.632514
0.199657
0.619312
0.697816
1.01485
1.39589
2.01304
2.90773
4.22394
6.08159
8.45186
11.3554
14.6371
18.209
21.9385
25.7391
29.5121
33.1587
36.5799
39.6884
42.4328
44.7764
46.7529
0.675484
0.272036
0.661052
0.773123
1.08159
1.47275
2.09966
3.00414
4.32264
6.1708
8.52592
11.4039
14.6565
18.1944
21.8808
25.6288
29.336
32.9073
36.2441
39.2626
41.9102
44.1524
46.0233
0.723265
0.359508
0.705744
0.853797
1.15335
1.55003
2.17878
3.08335
4.39149
6.21434
8.53797
11.3733
14.5832
18.0748
21.7103
25.3975
29.031
32.516
35.7559
38.6703
41.2069
43.3368
45.0894
0.775075
0.463364
0.756866
0.94106
1.23568
1.63614
2.26187
3.1595
4.4457
6.2287
8.50145
11.2749
14.4214
17.8499
21.4197
25.0347
28.5834
31.971
35.1011
37.8985
40.3124
42.3198
43.9466
0.829534
0.582043
0.818406
1.03527
1.33153
1.73669
2.35754
3.24339
4.4995
6.22874
8.43353
11.1236
14.1858
17.5302
21.0181
24.5471
28.0007
31.2803
34.2901
36.9596
39.2406
41.12
42.6171
0.888595
0.71332
0.897749
1.14097
1.44662
1.85956
2.47611
3.34795
4.56917
6.23455
8.3578
10.9459
13.9047
17.145
20.535
23.9648
27.3141
30.4782
33.3607
35.8952
38.037
39.786
41.1563
0.179162
-0.676757
-0.513429
-0.849637
-0.98433
-1.06278
-1.25211