/*--------------------------------*- C++ -*----------------------------------*\
  =========                 |
  \\      /  F ield         | OpenFOAM: The Open Source CFD Toolbox
   \\    /   O peration     | Website:  https://openfoam.org
    \\  /    A nd           | Version:  7
     \\/     M anipulation  |
\*---------------------------------------------------------------------------*/
FoamFile
{
    version     2.0;
    format      ascii;
    class       surfaceScalarField;
    location    "50";
    object      phi;
}
// * * * * * * * * * * * * * * * * * * * * * * * * * * * * * * * * * * * * * //

dimensions      [0 3 -1 0 0 0 0];

internalField   nonuniform List<scalar> 
25449
(
64.8933
60.7686
-37.7692
48.1681
45.2296
-28.504
35.9116
33.7979
-21.5412
26.8708
25.3207
-16.2798
20.1655
19.0073
-12.3021
15.1709
14.2931
-9.29847
11.4376
10.7669
-7.03367
8.63929
8.12658
-5.32826
6.53685
6.14777
-4.04534
4.95427
4.66298
-3.08039
3.76132
3.54681
-2.35386
2.8613
2.70559
-1.80557
2.1821
2.06951
-1.39031
1.6697
1.5868
-1.07439
1.28341
1.21913
-0.832836
0.99249
0.938044
-0.647124
0.773683
0.722387
-0.503581
0.609349
0.556395
-0.392062
0.486094
0.42829
-0.305036
0.393749
0.329271
-0.236928
0.32461
0.252662
-0.183524
0.272843
0.193531
-0.141766
0.147744
-0.108989
0.234087
49.0456
77.8468
36.5378
57.7378
27.322
43.0138
20.4969
32.1459
15.4198
24.0844
11.6295
18.0833
8.79172
13.6047
6.66145
10.2568
5.05852
7.7507
3.84989
5.87159
2.93713
4.45956
2.24714
3.39557
1.72545
2.59119
1.33124
1.98101
1.03369
1.51667
0.809488
1.16225
0.640884
0.89099
0.514364
0.682913
0.419617
0.523035
0.348779
0.400109
0.29587
0.30557
0.256359
0.233041
0.177247
0.226855
36.15
90.0807
27.0852
66.803
20.3473
49.7518
15.3243
37.1689
11.5692
27.8395
8.7558
20.8967
6.64361
15.7169
5.05442
11.846
3.8559
8.94922
2.95003
6.77746
2.26419
5.1454
1.74442
3.91535
1.35055
2.98507
1.05238
2.27918
0.827051
1.742
0.657168
1.33213
0.529428
1.01873
0.433635
0.778706
0.361974
0.594695
0.308469
0.453614
0.268563
0.345476
0.238806
0.262797
0.199443
0.21661
26.2605
98.5428
19.861
73.203
15.0311
54.5818
11.3894
40.8106
8.64379
30.5851
6.57413
22.9664
5.01333
17.2777
3.83464
13.0247
2.94255
9.84129
2.26589
7.45411
1.75176
5.65952
1.36076
4.30634
1.06357
3.28225
0.838044
2.5047
0.667326
1.91271
0.538491
1.46096
0.441582
1.11564
0.368916
0.85137
0.314572
0.649037
0.27401
0.494174
0.243765
0.375721
0.221216
0.285345
0.216268
0.204391
18.936
104.147
14.5392
77.6002
11.1308
57.9903
8.51111
43.4303
6.50807
32.5881
4.98323
24.4912
3.82503
18.4359
2.94536
13.9044
2.27605
10.5106
1.76579
7.96437
1.3762
6.04912
1.0785
4.60405
0.851304
3.50945
0.678323
2.67768
0.547041
2.04399
0.447789
1.56021
0.373042
1.19038
0.316939
0.907472
0.274944
0.691031
0.243567
0.525551
0.220139
0.399148
0.202652
0.302831
0.229336
0.189583
13.6365
107.617
10.7175
80.5195
8.34557
60.3623
6.46414
45.3117
4.99322
34.059
3.85649
25.6279
2.98383
19.3086
2.3156
14.5726
1.80345
11.0227
1.41034
8.35746
1.10829
6.35116
0.876018
4.8363
0.697814
3.68764
0.561496
2.81399
0.457636
2.14785
0.378879
1.63897
0.319422
1.24984
0.27469
0.952201
0.24112
0.7246
0.215966
0.550704
0.197126
0.417987
0.183027
0.31693
0.239906
0.172457
9.87259
109.51
8.0304
82.362
6.4023
61.9905
5.04389
46.6702
3.94571
35.1572
3.07856
26.4951
2.40293
19.9842
1.87998
15.0955
1.47546
11.4273
1.16244
8.67048
0.920218
6.59339
0.732585
5.02394
0.587753
3.83248
0.476316
2.92543
0.390958
2.23321
0.325926
1.704
0.276618
1.29914
0.239358
0.989459
0.211267
0.75269
0.190116
0.571855
0.174196
0.433905
0.162228
0.328898
0.248915
0.153218
7.24115
110.241
6.17649
83.427
5.07534
63.0917
4.08131
47.6642
3.23915
35.9994
2.55522
27.179
2.01249
20.5269
1.58701
15.521
1.25423
11.76
0.994246
8.93045
0.791337
6.79628
0.632704
5.18255
0.50938
3.95578
0.413875
3.02092
0.340319
2.30676
0.284021
1.76029
0.241146
1.34201
0.208579
1.02202
0.183876
0.777391
0.165145
0.590584
0.150957
0.448092
0.140212
0.339641
0.257033
0.132094
4.8232
111.82
3.64277
84.6076
2.75377
63.9808
2.08995
48.328
1.59361
36.4957
1.22473
27.5479
0.950226
20.8014
0.744859
15.7264
0.589187
11.9157
0.469938
9.0497
0.37793
6.8883
0.306259
5.25423
0.250596
4.01145
0.207347
3.06417
0.173855
2.34025
0.148098
1.78605
0.12843
1.36168
0.113477
1.03697
0.102126
0.78874
0.0935097
0.599199
0.086958
0.454643
0.081982
0.344617
0.260848
0.0781663
2.98732
112.804
2.25651
85.3387
1.7063
64.5311
1.29786
48.7364
0.994211
36.7993
0.770792
27.7713
0.60608
20.9661
0.483659
15.8488
0.39064
12.0087
0.318798
9.12153
0.262802
6.94427
0.218457
5.29855
0.183545
4.04634
0.155973
3.09172
0.134269
2.36194
0.11734
1.80297
0.104257
1.37476
0.0941959
1.04703
0.086458
0.796476
0.0804944
0.605161
0.0758796
0.459256
0.0723109
0.348184
0.263639
0.0695193
1.65265
113.354
1.24815
85.7433
0.943875
64.8353
0.720593
48.9597
0.556709
36.9632
0.438725
27.8893
0.35358
21.0513
0.291238
15.9111
0.243555
12.0564
0.205984
9.15911
0.176025
6.97424
0.151433
5.32316
0.131522
4.06626
0.115277
3.10797
0.102075
2.37515
0.0914987
1.81355
0.0831387
1.38312
0.0765697
1.0536
0.0713937
0.801649
0.0672963
0.609256
0.0640314
0.46252
0.0614411
0.350773
0.265725
0.0593532
0.69812
113.593
0.526359
85.9153
0.397453
64.9643
0.305977
49.0512
0.241577
37.0276
0.19857
27.9323
0.170006
21.0798
0.150395
15.9307
0.134961
12.0718
0.121761
9.17229
0.110341
6.98564
0.0998075
5.33367
0.0905671
4.07548
0.0823492
3.11617
0.0751394
2.38235
0.0690073
1.81967
0.0639272
1.38819
0.0597668
1.05776
0.0563467
0.805066
0.053518
0.612083
0.0511653
0.464871
0.0492322
0.352705
0.267342
0.0476147
0.0295946
113.616
0.0200363
85.9249
0.0131867
64.9711
0.0132583
49.0511
0.0179179
37.023
0.0268911
27.9233
0.0375669
21.0692
0.0476095
15.9207
0.0545677
12.0648
0.058287
9.16859
0.0597652
6.98417
0.0590176
5.33442
0.0572024
4.0773
0.0545397
3.11884
0.0514328
2.38546
0.0483073
1.8228
0.0454231
1.39108
0.0428689
1.06031
0.0406218
0.80731
0.038641
0.614061
0.0369005
0.466609
0.0354106
0.354193
0.268642
0.0341089
-0.425839
113.492
-0.325922
85.8251
-0.250465
64.8957
-0.188842
48.9895
-0.137802
36.9719
-0.0939649
27.8795
-0.0569362
21.0321
-0.026926
15.8906
-0.00485353
12.0427
0.0102808
9.15344
0.0204789
6.97395
0.0263312
5.32855
0.0295184
4.0741
0.0305647
3.11778
0.0301473
2.38586
0.0289488
1.82399
0.027446
1.39257
0.0258991
1.06185
0.0243939
0.808811
0.022954
0.615497
0.0216089
0.467952
0.0204044
0.355396
0.269743
0.0193021
-0.722147
113.275
-0.552062
85.6551
-0.423996
64.7676
-0.323219
48.8887
-0.242773
36.8915
-0.176895
27.8136
-0.12319
20.9784
-0.0804952
15.848
-0.0487761
12.011
-0.0263367
9.13101
-0.0105093
6.95814
-0.000397302
5.31845
0.00600275
4.06771
0.00939042
3.1144
0.0106167
2.38464
0.0105503
1.82406
0.00983075
1.39329
0.0088543
1.06282
0.00778041
0.809882
0.00667341
0.616601
0.00558595
0.469038
0.00458364
0.356396
0.270704
0.00361999
-0.904264
113.001
-0.692265
85.4432
-0.532982
64.6084
-0.409156
48.7649
-0.311484
36.7938
-0.232724
27.7349
-0.169225
20.9149
-0.119009
15.7977
-0.0815299
11.9735
-0.0547334
9.1042
-0.0354943
6.93888
-0.0227998
5.30574
-0.0144549
4.05934
-0.00969654
3.10962
-0.00757585
2.38251
-0.00707788
1.82355
-0.00743809
1.39365
-0.00815478
1.06354
-0.00901805
0.810741
-0.00994331
0.617523
-0.0108849
0.469977
-0.0117634
0.357273
0.271564
-0.0126259
-1.00372
112.697
-0.770194
85.2096
-0.595134
64.4333
-0.459893
48.6296
-0.353799
36.6877
-0.268781
27.6499
-0.200465
20.8466
-0.146452
15.7437
-0.106009
11.9331
-0.0769749
9.07518
-0.0559083
6.91783
-0.0418291
5.29167
-0.0324401
4.04996
-0.0269924
3.10418
-0.0245061
2.38003
-0.0238532
1.8229
-0.0241701
1.39396
-0.0248635
1.06423
-0.0256777
0.811552
-0.0265306
0.618373
-0.0273834
0.470828
-0.0281524
0.35804
0.272298
-0.0288881
-1.04273
112.383
-0.802537
84.9695
-0.622952
64.2538
-0.484784
48.4914
-0.376687
36.5796
-0.290242
27.5634
-0.220733
20.7771
-0.165626
15.6886
-0.124242
11.8917
-0.0945059
9.04543
-0.0727471
6.89606
-0.058137
5.27704
-0.0483411
4.04015
-0.0426838
3.0985
-0.0402071
2.37753
-0.0396941
1.82237
-0.0401973
1.39446
-0.0410314
1.06506
-0.0418969
0.812413
-0.0427159
0.619189
-0.0434562
0.471567
-0.0440912
0.358674
0.272885
-0.0446805
-1.0407
112.073
-0.803918
84.7327
-0.627437
64.0773
-0.492093
48.3561
-0.386337
36.4739
-0.301719
27.4788
-0.233444
20.7088
-0.179037
15.6342
-0.138049
11.8507
-0.108636
9.01603
-0.0869253
6.87436
-0.0723379
5.26247
-0.0625448
4.03037
-0.0569857
3.09295
-0.0547707
2.37533
-0.0546063
1.82221
-0.0554577
1.39532
-0.0565391
1.06614
-0.0575274
0.813398
-0.0583325
0.619992
-0.0589266
0.47216
-0.0593814
0.359127
0.273274
-0.0597724
-1.01069
111.774
-0.784189
84.5063
-0.616012
63.9092
-0.487412
48.2275
-0.386956
36.3734
-0.306381
27.3982
-0.240986
20.6434
-0.188483
15.5817
-0.148783
11.811
-0.120379
8.98762
-0.0991883
6.85316
-0.08497
5.24823
-0.0754284
4.02081
-0.0701505
3.08765
-0.0683641
2.37352
-0.0686983
1.82253
-0.070014
1.39663
-0.0714379
1.06756
-0.0726224
0.814577
-0.0734098
0.620775
-0.0738344
0.472585
-0.0741091
0.3594
0.273413
-0.0742505
-0.966348
111.492
-0.753704
84.2936
-0.59654
63.752
-0.476708
48.1077
-0.38306
36.2798
-0.307623
27.3228
-0.245888
20.5817
-0.195818
15.5317
-0.157788
11.773
-0.130724
8.96057
-0.110258
6.83271
-0.0965597
5.23455
-0.0873715
4.01164
-0.082441
3.08273
-0.0811663
2.37225
-0.0820796
1.82345
-0.0839283
1.39848
-0.0857976
1.06943
-0.0872714
0.816047
-0.0880442
0.621549
-0.0882674
0.472804
-0.0882415
0.359376
0.273154
-0.0879889
-0.908822
111.232
-0.713243
84.0981
-0.569538
63.6083
-0.460347
47.9985
-0.374959
36.1944
-0.305781
27.2536
-0.248533
20.5244
-0.201467
15.4846
-0.165507
11.737
-0.140106
8.93516
-0.120504
6.81309
-0.107374
5.2214
-0.0985398
4.00278
-0.0939419
3.07811
-0.093218
2.37151
-0.0947641
1.82499
-0.0972282
1.40094
-0.0997079
1.0719
-0.101587
0.817919
-0.102432
0.62239
-0.102467
0.472843
-0.102064
0.358965
0.272453
-0.101362
-0.842701
110.995
-0.666472
83.9218
-0.537885
63.4797
-0.440487
47.9011
-0.364115
36.118
-0.301621
27.1911
-0.249115
20.4719
-0.205336
15.4408
-0.171813
11.7035
-0.148394
8.91176
-0.129774
6.79449
-0.117359
5.209
-0.109047
3.99449
-0.104863
3.07394
-0.104735
2.37139
-0.106937
1.82719
-0.11013
1.40414
-0.113453
1.07522
-0.11582
0.820284
-0.116855
0.623427
-0.116907
0.472894
-0.116482
0.358538
0.271829
-0.115862
-0.815539
110.757
-0.640032
83.7464
-0.512106
63.3518
-0.417052
47.806
-0.345283
36.0463
-0.28989
27.1357
-0.246122
20.4282
-0.211158
15.4058
-0.183956
11.6763
-0.16392
8.89171
-0.148273
6.77883
-0.136884
5.1976
-0.128533
3.98612
-0.12385
3.06924
-0.123332
2.37085
-0.125559
1.82941
-0.129359
1.40793
-0.133711
1.07956
-0.136913
0.823478
-0.138739
0.625252
-0.139525
0.473679
-0.139725
0.358734
0.271501
-0.139405
-0.792394
110.531
-0.626034
83.58
-0.504667
63.2304
-0.414413
47.7158
-0.346202
35.9781
-0.293474
27.083
-0.251671
20.3864
-0.218043
15.3722
-0.191679
11.6499
-0.17231
8.87236
-0.156956
6.7635
-0.145469
5.18613
-0.136754
3.97743
-0.131609
3.06411
-0.130779
2.37004
-0.132913
1.83155
-0.137061
1.41208
-0.141927
1.08443
-0.145797
0.827344
-0.148599
0.628059
-0.150275
0.475353
-0.150672
0.359128
0.270455
-0.149633
-0.769811
110.317
-0.61209
83.4223
-0.496903
63.1152
-0.411165
47.63
-0.346302
35.9132
-0.29607
27.0328
-0.256093
20.3464
-0.223717
15.3398
-0.198168
11.6243
-0.179443
8.85363
-0.164314
6.74836
-0.152642
5.17445
-0.143492
3.96826
-0.13779
3.05839
-0.136516
2.36874
-0.138458
1.83348
-0.142937
1.41655
-0.148357
1.08983
-0.153322
0.832301
-0.157449
0.632184
-0.160076
0.477979
-0.160631
0.35968
0.269335
-0.159522
-0.747794
110.115
-0.598266
83.2727
-0.488931
63.0059
-0.407469
47.5486
-0.345775
35.8515
-0.297908
26.9849
-0.25966
20.3081
-0.22847
15.3087
-0.203691
11.5996
-0.185566
8.83552
-0.170622
6.73344
-0.158694
5.16254
-0.149031
3.95862
-0.142658
3.05203
-0.140802
2.3669
-0.14244
1.83513
-0.147112
1.42123
-0.15318
1.0959
-0.159594
0.838708
-0.165413
0.638011
-0.169708
0.482271
-0.172241
0.362211
0.27131
-0.174227
-0.726362
109.924
-0.584622
83.131
-0.480843
62.9021
-0.403444
47.4712
-0.344765
35.7928
-0.299148
26.9393
-0.26255
20.2715
-0.232493
15.2786
-0.208436
11.5755
-0.190876
8.81796
-0.176085
6.71864
-0.163832
5.15027
-0.15357
3.94835
-0.146399
3.04484
-0.143809
2.36429
-0.145011
1.83631
-0.149649
1.42585
-0.156298
1.10253
-0.164189
0.846592
-0.172098
0.645916
-0.179234
0.489404
-0.185912
0.368886
0.278465
-0.193077
-0.705524
109.743
-0.571203
82.9967
-0.472713
62.8036
-0.39918
47.3977
-0.343376
35.737
-0.299912
26.8959
-0.264893
20.2365
-0.235921
15.2497
-0.212545
11.5521
-0.19552
8.80095
-0.180856
6.70399
-0.168205
5.13764
-0.157256
3.93742
-0.149155
3.03676
-0.14565
2.36081
-0.146234
1.83691
-0.150573
1.4302
-0.157459
1.10942
-0.166336
0.855461
-0.176098
0.655688
-0.186124
0.499427
-0.19663
0.379392
0.289192
-0.207367
-0.685282
109.572
-0.558039
82.8695
-0.46459
62.7102
-0.394747
47.3278
-0.341689
35.684
-0.300284
26.8544
-0.266782
20.203
-0.23885
15.2217
-0.21612
11.5294
-0.199606
8.78443
-0.185047
6.68943
-0.171925
5.12451
-0.160205
3.92569
-0.15104
3.02758
-0.146414
2.35616
-0.146148
1.83663
-0.149872
1.43391
-0.156459
1.11599
-0.1654
0.864398
-0.175884
0.666165
-0.187191
0.510731
-0.198992
0.391192
0.300193
-0.210001
-0.665632
109.411
-0.545152
82.749
-0.456517
62.6215
-0.390197
47.2615
-0.339767
35.6335
-0.300336
26.815
-0.268291
20.171
-0.241362
15.1948
-0.219242
11.5073
-0.203218
8.76842
-0.188751
6.67498
-0.175085
5.11087
-0.16251
3.91314
-0.152142
3.01723
-0.146185
2.35023
-0.144824
1.83529
-0.147512
1.43661
-0.153129
1.12161
-0.161074
0.872336
-0.170608
0.675709
-0.180989
0.521106
-0.191311
0.401515
0.308905
-0.200033
-0.646567
109.259
-0.532556
82.635
-0.448523
62.5375
-0.385573
47.1985
-0.337659
35.5856
-0.300124
26.7775
-0.269481
20.1403
-0.243518
15.1688
-0.221979
11.4857
-0.206427
8.75286
-0.192045
6.6606
-0.177763
5.09658
-0.164247
3.89962
-0.152528
3.0055
-0.145048
2.34273
-0.142339
1.83256
-0.143536
1.43779
-0.147464
1.12553
-0.153435
0.878306
-0.160443
0.682708
-0.168123
0.528783
-0.17522
0.40861
0.314195
-0.180518
-0.628079
109.116
-0.520261
82.5271
-0.440631
62.4579
-0.380908
47.1388
-0.335407
35.5401
-0.299694
26.7418
-0.270402
20.111
-0.245372
15.1438
-0.224385
11.4648
-0.209291
8.73778
-0.194992
6.64632
-0.180023
5.08163
-0.165482
3.88511
-0.152267
2.99231
-0.143104
2.3336
-0.138817
1.8283
-0.138156
1.43714
-0.139715
1.1271
-0.142826
0.881412
-0.146383
0.686273
-0.150345
0.532741
-0.153558
0.411823
0.315971
-0.15534
-0.610159
108.981
-0.508275
82.4253
-0.432862
62.3825
-0.376231
47.0822
-0.333046
35.4969
-0.299086
26.7078
-0.271099
20.0831
-0.246969
15.1197
-0.226509
11.4443
-0.211862
8.72314
-0.19765
6.63211
-0.181934
5.06591
-0.166292
3.86946
-0.151432
2.97744
-0.140442
2.3226
-0.134416
1.82226
-0.131655
1.43437
-0.130322
1.12575
-0.129884
0.880978
-0.129694
0.686072
-0.129619
0.532665
-0.129073
0.411276
0.314659
-0.127763
-0.592795
108.854
-0.496603
82.3291
-0.425233
62.3111
-0.371566
47.0285
-0.330607
35.456
-0.298335
26.6755
-0.271607
20.0563
-0.248352
15.0964
-0.228395
11.4243
-0.214186
8.70894
-0.200078
6.61802
-0.183569
5.04942
-0.166743
3.85266
-0.150066
2.96079
-0.137118
2.30968
-0.129328
1.81449
-0.124262
1.42932
-0.119691
1.1212
-0.115546
0.876832
-0.111654
0.682187
-0.107736
0.528743
-0.103821
0.407363
0.31078
-0.0999423
-0.575977
108.735
-0.485246
82.2384
-0.417754
62.2436
-0.366933
46.9777
-0.328113
35.4172
-0.297469
26.6449
-0.27196
20.0308
-0.249552
15.074
-0.230078
11.4049
-0.216305
8.69517
-0.202328
6.60404
-0.184979
5.03207
-0.166863
3.83455
-0.148181
2.94211
-0.133236
2.29473
-0.12381
1.80506
-0.116142
1.42164
-0.108274
1.11333
-0.100652
0.869217
-0.0932912
0.674815
-0.0860466
0.521499
-0.0792775
0.400595
0.304783
-0.0732751
-0.559694
108.624
-0.474206
82.1529
-0.410438
62.1798
-0.362352
46.9296
-0.32559
35.3804
-0.296518
26.6158
-0.272188
20.0065
-0.250604
15.0525
-0.231595
11.3859
-0.218255
8.68184
-0.204436
6.59024
-0.186195
5.01385
-0.166671
3.81505
-0.145818
2.92128
-0.129022
2.27797
-0.118076
1.79413
-0.107524
1.4111
-0.0965369
1.10236
-0.0858646
0.858547
-0.0754383
0.664394
-0.0655039
0.511562
-0.0564531
0.391548
0.297075
-0.0487382
-0.543932
108.519
-0.463485
82.0725
-0.403294
62.1197
-0.357836
46.8842
-0.323058
35.3456
-0.295503
26.5883
-0.272317
19.9833
-0.251535
15.0317
-0.232976
11.3673
-0.220067
8.66894
-0.206436
6.57661
-0.187272
4.99469
-0.166197
3.79399
-0.142994
2.89808
-0.124743
2.25972
-0.112071
1.78146
-0.098595
1.39762
-0.0849769
1.08874
-0.0717868
0.845367
-0.0588636
0.65146
-0.0468397
0.499539
-0.0361253
0.380836
0.288097
-0.0271365
-0.528681
108.421
-0.453081
81.9968
-0.396331
62.0629
-0.353402
46.8412
-0.320535
35.3128
-0.294449
26.5622
-0.272372
19.9612
-0.252371
15.0117
-0.234248
11.3492
-0.221767
8.65646
-0.208369
6.56323
-0.188283
4.97462
-0.165473
3.7712
-0.139795
2.87243
-0.120595
2.24055
-0.105678
1.76656
-0.0895937
1.38155
-0.0739422
1.07311
-0.0587663
0.830198
-0.044055
0.636751
-0.0306288
0.486113
-0.0189669
0.369179
0.278437
-0.00929633
-0.513929
108.331
-0.442995
81.9259
-0.389556
62.0095
-0.349062
46.8007
-0.318038
35.2817
-0.293374
26.5375
-0.272374
19.9402
-0.253135
14.9924
-0.235435
11.3315
-0.223384
8.64442
-0.210284
6.55014
-0.189263
4.95361
-0.164447
3.7464
-0.136462
2.84445
-0.116711
2.22081
-0.099109
1.74897
-0.0809597
1.3634
-0.0637944
1.05596
-0.0470165
0.813433
-0.0312476
0.620973
-0.0171773
0.472044
-0.00519925
0.357203
0.268646
0.00460488
-0.499665
108.246
-0.433225
81.8594
-0.382976
61.9592
-0.344829
46.7626
-0.315585
35.2525
-0.292297
26.5143
-0.272345
19.9203
-0.25385
14.974
-0.236563
11.3142
-0.224948
8.63281
-0.212226
6.53743
-0.190235
4.93163
-0.163004
3.71919
-0.133211
2.81469
-0.112996
2.20062
-0.0927624
1.72875
-0.0730175
1.34367
-0.0546833
1.03764
-0.0367435
0.795503
-0.0205067
0.604734
-0.00644425
0.457982
0.0054143
0.345347
0.25903
0.0150446
-0.485877
108.167
-0.42377
81.7974
-0.376596
61.9121
-0.340713
46.7267
-0.313189
35.225
-0.291237
26.4923
-0.272304
19.9013
-0.254535
14.9562
-0.237654
11.2973
-0.226482
8.62165
-0.214217
6.52517
-0.191251
4.90868
-0.161155
3.68911
-0.130159
2.78371
-0.109072
2.17955
-0.0866391
1.70633
-0.0657656
1.3228
-0.0466545
1.01855
-0.0281945
0.777058
-0.0118921
0.588424
0.002041
0.444051
0.0134808
0.333911
0.24997
0.0225573
-0.472555
108.095
-0.414629
81.7394
-0.370423
61.8678
-0.336725
46.693
-0.310866
35.1991
-0.290211
26.4716
-0.27227
19.8834
-0.255211
14.9391
-0.238732
11.2808
-0.228016
8.61094
-0.216285
6.51345
-0.192309
4.88472
-0.159083
3.65591
-0.127474
2.75212
-0.104813
2.15692
-0.080719
1.68225
-0.0590757
1.30116
-0.0394423
0.998933
-0.0208369
0.758464
-0.00492445
0.572507
0.00842007
0.430709
0.0191511
0.323183
0.241549
0.0275886
-0.459688
108.028
-0.405801
81.6856
-0.364461
61.8265
-0.332876
46.6614
-0.308629
35.1749
-0.289234
26.4522
-0.27226
19.8664
-0.255894
14.9228
-0.239818
11.2647
-0.229586
8.60071
-0.218482
6.50236
-0.193278
4.85953
-0.156708
3.61936
-0.125077
2.72051
-0.10041
2.13228
-0.0752947
1.65715
-0.0529581
1.27883
-0.0328682
0.978863
-0.0145155
0.740126
0.0007036
0.557283
0.0133407
0.418074
0.0233843
0.313143
0.233833
0.031118
-0.447265
107.967
-0.397284
81.6356
-0.358716
61.7879
-0.329176
46.6319
-0.306491
35.1522
-0.288322
26.4341
-0.272292
19.8504
-0.256605
14.9071
-0.240938
11.2491
-0.231216
8.591
-0.220796
6.49195
-0.194071
4.83281
-0.153968
3.57928
-0.122782
2.68934
-0.0960319
2.10555
-0.0705056
1.63163
-0.0474083
1.25574
-0.0269789
0.958453
-0.00914349
0.722305
0.00551682
0.542616
0.0173195
0.406275
0.026548
0.303918
0.226858
0.0335405
-0.435278
107.911
-0.389076
81.5894
-0.353193
61.7521
-0.325633
46.6043
-0.304463
35.131
-0.287489
26.4171
-0.27238
19.8353
-0.257362
14.8921
-0.242111
11.2338
-0.232882
8.58178
-0.223163
6.48224
-0.194839
4.8045
-0.151268
3.53573
-0.120663
2.65877
-0.0918558
2.07677
-0.0661168
1.60591
-0.0424716
1.23211
-0.022021
0.938027
-0.00476488
0.705063
0.00937657
0.528471
0.0203868
0.395267
0.0289392
0.295369
0.220475
0.0353388
-0.423716
107.86
-0.381177
81.5468
-0.347895
61.7188
-0.322256
46.5787
-0.302559
35.1113
-0.286751
26.4013
-0.272546
19.8211
-0.258187
14.8777
-0.243344
11.219
-0.234586
8.57302
-0.225662
6.47333
-0.195843
4.77469
-0.14892
3.48882
-0.118645
2.62851
-0.0877644
2.04591
-0.0617139
1.57987
-0.0381246
1.20852
-0.0178909
0.917811
-0.00117158
0.688357
0.0123948
0.514894
0.0227559
0.384911
0.0307151
0.287412
0.214585
0.0366211
-0.412571
107.815
-0.373587
81.5079
-0.342829
61.688
-0.319053
46.5549
-0.300786
35.0931
-0.286112
26.3866
-0.272783
19.8078
-0.259048
14.864
-0.244627
11.2046
-0.236416
8.56482
-0.228351
6.46527
-0.196928
4.74329
-0.147134
3.43906
-0.117438
2.59884
-0.0844085
2.01291
-0.057457
1.55294
-0.0342628
1.18534
-0.0141144
0.89769
0.00224817
0.672007
0.0153467
0.501806
0.0251735
0.375076
0.0325651
0.28003
0.209091
0.038066
-0.38815
107.756
-0.344095
81.4638
-0.312233
61.6561
-0.289199
46.5319
-0.272456
35.0763
-0.259614
26.3738
-0.248212
19.7964
-0.236454
14.8522
-0.224212
11.1923
-0.217284
8.55789
-0.21054
6.45853
-0.181166
4.71392
-0.134137
3.39204
-0.106385
2.5711
-0.0746035
1.98114
-0.0493013
1.52764
-0.0288643
1.1649
-0.0106567
0.879497
0.0040039
0.657363
0.0156998
0.490092
0.0243062
0.366496
0.0304696
0.273845
0.204423
0.0351649
-0.308673
107.709
-0.273925
81.4291
-0.248821
61.6311
-0.230718
46.5138
-0.217621
35.0632
-0.207636
26.3638
-0.198753
19.7875
-0.189549
14.843
-0.18021
11.183
-0.174494
8.55219
-0.169009
6.45306
-0.145578
4.6905
-0.106634
3.35312
-0.0807506
2.54524
-0.054858
1.95528
-0.0361013
1.50891
-0.0215522
1.15037
-0.00841134
0.866384
0.00219046
0.646778
0.010929
0.481376
0.0173093
0.3601
0.0217122
0.269459
0.20115
0.0249786
-0.245443
107.673
-0.21802
81.4016
-0.198228
61.6113
-0.183991
46.4996
-0.173739
35.053
-0.165978
26.3561
-0.159081
19.7806
-0.151904
14.8359
-0.144753
11.1758
-0.140132
8.54757
-0.135792
6.44872
-0.116934
4.67164
-0.0838129
3.32
-0.0596512
2.52108
-0.0391264
1.93475
-0.0258927
1.49568
-0.0158189
1.14029
-0.00668281
0.857258
0.000772158
0.639331
0.00724819
0.474895
0.0120367
0.355326
0.0151944
0.266295
0.198972
0.0173807
-0.19512
107.644
-0.173446
81.38
-0.157816
61.5957
-0.146598
46.4883
-0.138557
35.0449
-0.132518
26.35
-0.127171
19.7752
-0.121583
14.8303
-0.116111
11.1704
-0.112489
8.54395
-0.109064
6.44531
-0.0937501
4.65635
-0.0651761
3.29146
-0.0431821
2.49912
-0.0273566
1.91896
-0.0182407
1.48658
-0.011404
1.13346
-0.00522177
0.851102
-0.000101291
0.634229
0.00457391
0.47024
0.00819678
0.351694
0.0105976
0.263903
0.197581
0.0119923
-0.155085
107.621
-0.137933
81.3628
-0.125572
61.5833
-0.116719
46.4795
-0.110401
35.0386
-0.105697
26.3453
-0.101556
19.7711
-0.097213
14.8259
-0.093036
11.1662
-0.0902857
8.5412
-0.0875345
6.44256
-0.0747818
4.64359
-0.0508841
3.26756
-0.0313724
2.47961
-0.0189145
1.9065
-0.0127232
1.48039
-0.008203
1.12893
-0.00413076
0.847036
-0.000684852
0.630784
0.00254
0.467012
0.00531184
0.348934
0.00727121
0.261937
0.196651
0.00820478
-0.123193
107.602
-0.109566
81.3492
-0.0997467
61.5735
-0.0927251
46.4724
-0.0877332
35.0336
-0.0840473
26.3416
-0.0808324
19.7679
-0.0774584
14.8226
-0.0742756
11.163
-0.0722416
8.53918
-0.0700251
6.44036
-0.0591285
4.63271
-0.0397038
3.24816
-0.0227868
2.46272
-0.012767
1.89651
-0.00870761
1.47636
-0.00590354
1.12614
-0.0033577
0.844516
-0.00112624
0.62857
0.000936833
0.464966
0.00300132
0.346862
0.00465986
0.260286
0.195895
0.00541429
-0.0980785
107.588
-0.0874212
81.3385
-0.0797547
61.5658
-0.0742927
46.467
-0.0704359
35.0298
-0.0676206
26.3388
-0.0651821
19.7654
-0.0625996
14.82
-0.0601982
11.1606
-0.058749
8.53772
-0.0570271
6.43863
-0.0477762
4.62346
-0.031736
3.23212
-0.0169595
2.44793
-0.0086786
1.88822
-0.0059737
1.47365
-0.00430162
1.12445
-0.00276018
0.842976
-0.00132238
0.627129
-2.33909e-05
0.463664
0.00153017
0.34532
0.00292239
0.258887
0.195154
0.003667
-0.0776894
107.577
-0.0690529
81.3299
-0.0628296
61.5596
-0.0583899
46.4625
-0.0552551
35.0266
-0.0529811
26.3365
-0.051044
19.7635
-0.0490207
14.818
-0.04719
11.1588
-0.0461568
8.5367
-0.0448372
6.43732
-0.0373643
4.616
-0.0242406
3.21902
-0.0117551
2.43548
-0.00532495
1.88182
-0.00376667
1.47211
-0.00300819
1.12371
-0.00225953
0.842252
-0.00149686
0.626381
-0.000825003
0.463008
0.000234284
0.344254
0.00141927
0.25771
0.194279
0.0022926
-0.0671969
107.562
-0.056409
81.3191
-0.0483804
61.5515
-0.04249
46.4567
-0.0382453
35.0224
-0.0351863
26.3335
-0.0327419
19.7611
-0.0303356
14.8156
-0.0279936
11.1564
-0.0268431
8.53555
-0.0262385
6.43672
-0.0194207
4.60918
-0.00491167
3.2045
0.00929737
2.42126
0.0161764
1.87493
0.0176188
1.47066
0.0176284
1.12368
0.0175826
0.842296
0.0176957
0.626262
0.0179028
0.462795
0.0190087
0.343159
0.0205118
0.256201
0.193068
0.0217269
-0.0705427
107.548
-0.0592227
81.3078
-0.0507993
61.5431
-0.0446259
46.4505
-0.0401898
35.018
-0.0370157
26.3303
-0.0345102
19.7585
-0.0320537
14.8131
-0.0296695
11.154
-0.0286497
8.53454
-0.0282047
6.43628
-0.0206759
4.60166
-0.00490352
3.18876
0.0107476
2.40564
0.0182533
1.86745
0.0197829
1.46916
0.0195405
1.12394
0.019294
0.842565
0.0193592
0.626209
0.0194381
0.46273
0.0204754
0.342115
0.021909
0.254775
0.19184
0.0231354
-0.0740554
107.532
-0.0621767
81.2959
-0.0533384
61.5343
-0.0468678
46.444
-0.042231
35.0133
-0.0389369
26.327
-0.0363685
19.756
-0.0338609
14.8106
-0.0314437
11.1516
-0.030584
8.53367
-0.0302979
6.43599
-0.0219145
4.59327
-0.00495214
3.17179
0.0122282
2.38845
0.0205665
1.8591
0.0222604
1.46745
0.0217568
1.12443
0.0212821
0.843035
0.0212821
0.6262
0.0212314
0.462774
0.0221153
0.341242
0.0233636
0.253521
0.19064
0.024567
-0.0777433
107.516
-0.0652777
81.2835
-0.0560039
61.525
-0.0492214
46.4372
-0.044374
35.0085
-0.0409544
26.3236
-0.0383209
19.7533
-0.0357612
14.8081
-0.0333211
11.1492
-0.0326513
8.53301
-0.0325223
6.43588
-0.0231821
4.58395
-0.00500343
3.15364
0.013796
2.36968
0.0231109
1.84981
0.0250622
1.46553
0.0242845
1.12522
0.0235244
0.843815
0.0233764
0.626358
0.0231828
0.46298
0.0237883
0.340628
0.0246914
0.252626
0.189533
0.0257972
-0.0816149
107.499
-0.0685336
81.2704
-0.0588024
61.5153
-0.0516923
46.4301
-0.0466239
35.0034
-0.0430732
26.32
-0.0403722
19.7506
-0.0377598
14.8054
-0.035308
11.1467
-0.0348615
8.53256
-0.0348806
6.43589
-0.024364
4.57342
-0.00496395
3.13423
0.0154379
2.34926
0.0258568
1.83938
0.0281795
1.46319
0.0271239
1.12626
0.0260098
0.844924
0.0255916
0.626764
0.0252122
0.463351
0.0254069
0.340444
0.0258555
0.252171
0.188636
0.0267558
-0.0856801
107.481
-0.071952
81.2567
-0.0617404
61.5051
-0.0542863
46.4227
-0.0489861
34.9981
-0.0452983
26.3163
-0.0425276
19.7479
-0.039862
14.8028
-0.0374119
11.1443
-0.0372233
8.53238
-0.0373757
6.43606
-0.0254688
4.56153
-0.00492659
3.11371
0.0170771
2.32729
0.0287824
1.8277
0.0315975
1.4604
0.0302744
1.1276
0.0287163
0.8465
0.0278952
0.627594
0.0272558
0.464003
0.026918
0.340774
0.0269102
0.252188
0.188057
0.0274883
-0.0899477
107.462
-0.0755409
81.2423
-0.0648251
61.4943
-0.0570097
46.4149
-0.0514664
34.9926
-0.0476353
26.3125
-0.0447923
19.745
-0.0420733
14.8001
-0.0396401
11.1418
-0.0397446
8.53248
-0.0400133
6.43632
-0.0267193
4.54823
-0.00506709
3.09205
0.0187225
2.30349
0.0318747
1.81454
0.0352804
1.45699
0.0337494
1.12912
0.031648
0.848594
0.0302821
0.628947
0.0292791
0.464997
0.028348
0.341716
0.0279035
0.252626
0.187889
0.0280744
-0.0944288
107.442
-0.0793091
81.2272
-0.0680635
61.4831
-0.059869
46.4067
-0.0540705
34.9868
-0.0500895
26.3085
-0.0471717
19.7421
-0.0443991
14.7973
-0.0420002
11.1394
-0.0424379
8.53293
-0.0427993
6.43669
-0.0281116
4.53356
-0.00522995
3.06919
0.0204064
2.27788
0.0350637
1.79991
0.0391883
1.45288
0.037535
1.13079
0.0348405
0.851305
0.0328035
0.630992
0.0313138
0.466499
0.0297809
0.34324
0.0288802
0.253535
0.188163
0.0286058
-0.0991333
107.421
-0.0832653
81.2113
-0.0714636
61.4713
-0.062871
46.3981
-0.0568047
34.9807
-0.0526669
26.3044
-0.0496713
19.7391
-0.0468449
14.7945
-0.0444998
11.1371
-0.0453167
8.53374
-0.045733
6.4371
-0.0294033
4.51722
-0.00515262
3.04493
0.0220467
2.25066
0.0382639
1.78367
0.0433502
1.44779
0.041614
1.13251
0.0383225
0.854588
0.0355374
0.633766
0.0334501
0.468577
0.0313467
0.345354
0.0299419
0.254934
0.188896
0.0292116
-0.104073
107.4
-0.0874191
81.1947
-0.0750334
61.4589
-0.0660227
46.3891
-0.0596755
34.9744
-0.0553735
26.3001
-0.0522969
19.736
-0.0494168
14.7916
-0.0471468
11.1348
-0.0483913
8.53499
-0.0488054
6.43753
-0.0304915
4.49892
-0.00488238
3.01935
0.0237232
2.22209
0.0415417
1.76588
0.0477665
1.44158
0.0460306
1.13427
0.0421187
0.858515
0.038519
0.637373
0.0357777
0.471331
0.0331587
0.347965
0.0312532
0.256847
0.190084
0.0300655
-0.109259
107.377
-0.0917802
81.1771
-0.0787815
61.4459
-0.0693318
46.3796
-0.0626896
34.9677
-0.0582158
26.2956
-0.0550548
19.7329
-0.0521206
14.7887
-0.0499495
11.1326
-0.051669
8.53671
-0.0520061
6.43786
-0.0314649
4.47837
-0.00456662
2.99244
0.0256343
2.19187
0.0449979
1.7465
0.0522927
1.43428
0.0507635
1.13578
0.0462633
0.863007
0.0417904
0.641836
0.0383487
0.474764
0.0352831
0.351041
0.032933
0.259192
0.1917
0.0313185
-0.114704
107.353
-0.0963593
81.1589
-0.0827165
61.4323
-0.0728061
46.3697
-0.0658544
34.9608
-0.0612004
26.291
-0.0579513
19.7296
-0.0549627
14.7857
-0.0529165
11.1306
-0.0551581
8.53896
-0.0553284
6.43804
-0.032399
4.45546
-0.00422727
2.96429
0.0275466
2.16013
0.0485375
1.72554
0.0568582
1.42598
0.0556432
1.13701
0.0507377
0.867926
0.0454572
0.647125
0.0412626
0.478971
0.037766
0.35453
0.0350452
0.26192
0.193686
0.0330593
-0.120421
107.327
-0.101167
81.1396
-0.0868483
61.418
-0.0764538
46.3593
-0.0691773
34.9535
-0.0643345
26.2861
-0.060993
19.7263
-0.0579498
14.7826
-0.0560569
11.1287
-0.0588679
8.54176
-0.0587663
6.43794
-0.0332485
4.42993
-0.00380954
2.93484
0.0291299
2.12717
0.0519886
1.70266
0.0615485
1.4164
0.0606083
1.13794
0.0554767
0.873047
0.0495803
0.653012
0.0446458
0.483897
0.0407024
0.358483
0.0376411
0.264976
0.195991
0.0353369
-0.126424
107.301
-0.106215
81.1194
-0.0911863
61.403
-0.0802838
46.3484
-0.0726664
34.9459
-0.0676256
26.2811
-0.0641871
19.7228
-0.0610888
14.7796
-0.0593803
11.127
-0.0628075
8.5452
-0.0623116
6.43745
-0.0339488
4.40158
-0.00324233
2.90416
0.0305063
2.09345
0.0552392
1.67796
0.0663414
1.40532
0.0657936
1.1385
0.0604776