/*--------------------------------*- C++ -*----------------------------------*\
  =========                 |
  \\      /  F ield         | OpenFOAM: The Open Source CFD Toolbox
   \\    /   O peration     | Website:  https://openfoam.org
    \\  /    A nd           | Version:  7
     \\/     M anipulation  |
\*---------------------------------------------------------------------------*/
FoamFile
{
    version     2.0;
    format      ascii;
    class       volVectorField;
    location    "50";
    object      U;
}
// * * * * * * * * * * * * * * * * * * * * * * * * * * * * * * * * * * * * * //

dimensions      [0 1 -1 0 0 0 0];

internalField   nonuniform List<vector> 
12842
(
(14.8519 4.8319 -5.15311e-18)
(14.8402 4.82007 -1.93974e-18)
(14.8277 4.81344 -5.78754e-19)
(14.8104 4.80698 1.46413e-18)
(14.7898 4.80002 -5.4277e-18)
(14.7672 4.79438 0)
(14.7426 4.79289 0)
(14.7155 4.79927 -2.20346e-19)
(14.6843 4.81777 1.15436e-18)
(14.6465 4.85248 -4.92925e-20)
(14.5988 4.90675 -2.35055e-19)
(14.5379 4.98284 -4.76961e-21)
(14.4609 5.08165 -3.33496e-19)
(14.366 5.2028 -3.44464e-20)
(14.253 5.34483 6.40995e-20)
(14.1229 5.50484 1.76995e-19)
(13.9783 5.67836 1.02206e-19)
(13.8233 5.85926 0)
(13.6635 6.04 1.30594e-21)
(13.5051 6.21314 4.07559e-22)
(13.3541 6.37061 9.09081e-21)
(13.2153 6.5113 -1.62196e-20)
(13.0928 6.62008 2.28223e-20)
(14.85 4.83478 4.23904e-18)
(14.8336 4.8301 0)
(14.8193 4.82627 -6.67225e-18)
(14.7993 4.82153 3.6952e-18)
(14.7768 4.81565 4.38348e-18)
(14.7542 4.81042 0)
(14.7327 4.80894 -3.8536e-18)
(14.7124 4.81557 0)
(14.6925 4.83543 -1.36597e-18)
(14.6704 4.87338 -1.80062e-19)
(14.6425 4.93335 3.2762e-19)
(14.6042 5.01777 1.35758e-18)
(14.5512 5.12717 3.28588e-19)
(14.4801 5.26049 -9.38874e-19)
(14.3892 5.41552 0)
(14.2781 5.58853 -2.02276e-19)
(14.1487 5.77416 -1.74411e-19)
(14.0048 5.96554 3.54181e-19)
(13.8519 6.15458 0)
(13.6967 6.33362 -1.15136e-20)
(13.5461 6.49438 6.54726e-20)
(13.4046 6.63674 1.53785e-20)
(13.2799 6.74322 9.32808e-21)
(14.8481 4.83876 0)
(14.8298 4.84099 0)
(14.8135 4.83966 -7.18753e-19)
(14.7904 4.83643 -2.16047e-17)
(14.7654 4.83125 0)
(14.7419 4.82554 0)
(14.722 4.82256 -2.21746e-19)
(14.707 4.82733 1.85465e-18)
(14.6969 4.846 6.16206e-19)
(14.689 4.88437 -2.58256e-19)
(14.679 4.9471 -1.58789e-18)
(14.6615 5.0371 -1.35408e-18)
(14.6305 5.15465 -4.03035e-19)
(14.5814 5.29815 1.45839e-18)
(14.5111 5.46479 0)
(14.4185 5.65007 2.37651e-19)
(14.3047 5.84781 -3.05598e-19)
(14.1735 6.05032 -2.55408e-19)
(14.0306 6.24881 -4.73763e-19)
(13.8824 6.43528 2.7078e-19)
(13.7366 6.60098 -6.25117e-20)
(13.5971 6.74694 0)
(13.4739 6.85288 -1.40523e-20)
(14.8469 4.844 1.15047e-18)
(14.8287 4.85202 -3.05546e-18)
(14.8101 4.8531 9.78103e-18)
(14.7836 4.85152 3.3074e-17)
(14.7558 4.8471 -2.70235e-18)
(14.7304 4.84065 6.81699e-18)
(14.711 4.83546 8.49327e-19)
(14.7002 4.83716 -1.85941e-18)
(14.6987 4.85301 -4.06471e-19)
(14.7039 4.88982 -1.19762e-18)
(14.7108 4.95307 3.93919e-18)
(14.7129 5.04631 -6.64795e-19)
(14.7026 5.16965 8.67045e-19)
(14.6741 5.32112 3.23416e-18)
(14.6234 5.49748 -5.06855e-19)
(14.5487 5.69362 6.54602e-19)
(14.4511 5.9026 1.94036e-19)
(14.3343 6.11595 5.34551e-19)
(14.2038 6.32414 3.9958e-20)
(14.0657 6.5188 3.06155e-19)
(13.9279 6.69059 9.7003e-20)
(13.7938 6.84167 1.40926e-19)
(13.6747 6.94897 -2.0442e-19)
(14.8465 4.8503 9.99779e-18)
(14.8294 4.86248 0)
(14.8084 4.86614 -1.48427e-18)
(14.7787 4.86657 -1.20313e-17)
(14.7479 4.86326 -1.42457e-18)
(14.7201 4.85623 -1.79904e-17)
(14.7003 4.84861 -3.21597e-19)
(14.6928 4.84651 3.78505e-18)
(14.699 4.85836 2.75049e-19)
(14.7164 4.892 1.27284e-18)
(14.7392 4.95376 -4.54297e-18)
(14.7598 5.04813 -4.42516e-18)
(14.769 5.17506 1.05874e-18)
(14.7602 5.33246 -7.00439e-18)
(14.7286 5.5168 -2.61606e-18)
(14.672 5.72238 1.71067e-18)
(14.5915 5.94147 0)
(14.4906 6.16487 -5.49189e-19)
(14.3745 6.38231 0)
(14.2488 6.58521 1.29108e-19)
(14.1213 6.76361 1.87367e-19)
(13.9947 6.92082 -1.73493e-19)
(13.8818 7.03091 -3.56463e-20)
(14.8471 4.85729 -9.35691e-18)
(14.8313 4.87198 0)
(14.8083 4.8784 0)
(14.7753 4.88112 -1.85934e-17)
(14.7414 4.87929 1.19377e-17)
(14.7107 4.87189 1.04682e-17)
(14.6896 4.86169 1.02104e-17)
(14.6845 4.85511 -4.38762e-18)
(14.698 4.86185 0)
(14.727 4.89081 2.14837e-18)
(14.7652 4.94922 4.22025e-18)
(14.8038 5.04287 2.30768e-18)
(14.832 5.17142 0)
(14.8423 5.33281 3.76139e-18)
(14.8294 5.52342 2.25266e-18)
(14.791 5.73699 -1.25078e-18)
(14.7282 5.96496 -2.89112e-19)
(14.6444 6.19741 1.96022e-18)
(14.5444 6.42349 0)
(14.4328 6.63459 -8.32894e-19)
(14.3176 6.82002 2.71142e-19)
(14.2005 6.98424 9.34398e-19)
(14.0954 7.0982 -1.97117e-19)
(14.8484 4.86448 8.2623e-19)
(14.8337 4.88035 0)
(14.8096 4.88973 0)
(14.7738 4.89517 1.86125e-17)
(14.7372 4.89552 -1.35471e-17)
(14.7031 4.88851 1.06001e-18)
(14.6801 4.87631 -6.44242e-18)
(14.6759 4.86531 -8.42992e-20)
(14.6947 4.86648 1.11039e-19)
(14.7331 4.88978 -2.6271e-18)
(14.7843 4.94319 -5.95563e-19)
(14.8394 5.03402 4.5292e-18)
(14.8857 5.16165 0)
(14.9156 5.32449 -4.58572e-18)
(14.9228 5.51918 3.85842e-19)
(14.9042 5.73884 -4.99104e-19)
(14.8606 5.97395 1.37652e-18)
(14.7951 6.21399 -1.15713e-18)
(14.7122 6.44759 -1.45885e-18)
(14.616 6.66629 -3.57454e-19)
(14.5142 6.85862 5.02379e-20)
(14.4077 7.03031 -5.5446e-19)
(14.3117 7.14883 -3.70188e-19)
(14.8506 4.87155 0)
(14.8365 4.88756 1.09406e-18)
(14.8115 4.89983 -1.3249e-17)
(14.7726 4.90783 1.80327e-19)
(14.733 4.9101 1.44522e-17)
(14.695 4.90292 -1.80454e-18)
(14.6701 4.8877 4.84739e-19)
(14.6678 4.87081 2.69575e-18)
(14.6936 4.86486 0)
(14.7427 4.88083 -3.44339e-18)
(14.8073 4.92743 3.96508e-19)
(14.8785 5.01463 2.65223e-19)
(14.9405 5.14095 0)
(14.9866 5.30469 4.54125e-18)
(15.0108 5.50255 -3.36301e-18)
(15.0103 5.72706 0)
(14.9866 5.96786 -1.37019e-18)
(14.9423 6.21422 0)
(14.88 6.45457 1.19525e-18)
(14.8027 6.68087 0)
(14.7172 6.88048 -5.71848e-19)
(14.6242 7.06087 3.46176e-19)
(14.5387 7.18466 4.92419e-19)
(14.8527 4.87883 0)
(14.8395 4.89395 0)
(14.8153 4.90853 -3.455e-19)
(14.7744 4.91972 7.25771e-19)
(14.7322 4.92563 -1.67071e-17)
(14.689 4.92154 -1.13432e-17)
(14.658 4.90768 0)
(14.6505 4.88938 -2.43186e-18)
(14.675 4.8793 0)
(14.7278 4.8889 6.8335e-18)
(14.8019 4.92768 4.23605e-18)
(14.8886 5.00731 -3.85435e-18)
(14.9694 5.12608 -3.99231e-19)
(15.0371 5.28422 0)
(15.0821 5.48066 3.54058e-18)
(15.099 5.70788 2.48858e-18)
(15.089 5.95378 -2.10279e-19)
(15.0565 6.20611 1.56478e-18)
(15.006 6.4521 1.3961e-18)
(14.9407 6.68404 0)
(14.8678 6.88815 3.59831e-19)
(14.786 7.07535 3.24196e-20)
(14.7107 7.20282 -2.85703e-19)
(14.8551 4.88614 -4.81301e-20)
(14.8422 4.89959 -1.46625e-17)
(14.8182 4.91603 1.26365e-17)
(14.775 4.9295 0)
(14.7304 4.93743 -2.72619e-19)
(14.6831 4.93442 -5.97007e-19)
(14.6484 4.91986 7.4804e-18)
(14.6386 4.89874 0)
(14.6644 4.88459 0)
(14.7215 4.88952 -3.42324e-18)
(14.8025 4.92296 -4.48958e-18)
(14.8999 4.99819 -1.59952e-19)
(14.9929 5.11264 4.17061e-18)
(15.0749 5.26734 -1.45193e-19)
(15.1348 5.46262 -4.71652e-19)
(15.1661 5.69079 4.2124e-19)
(15.1702 5.93872 -1.55512e-18)
(15.1518 6.19363 -1.44921e-18)
(15.1157 6.44233 -1.59601e-18)
(15.0647 6.67772 -1.18769e-18)
(15.0057 6.88465 4.01088e-19)
(14.9356 7.07721 -1.81775e-18)
(14.8722 7.20797 3.36016e-19)
(14.8577 4.89292 -1.3862e-17)
(14.8448 4.90457 1.65454e-17)
(14.8211 4.92296 -3.96029e-19)
(14.7759 4.93896 -1.23255e-17)
(14.7293 4.9489 5.28484e-19)
(14.6782 4.94699 1.21382e-17)
(14.64 4.9315 -1.44009e-17)
(14.6283 4.90711 -1.49584e-19)
(14.6552 4.8884 4.4287e-20)
(14.7162 4.88842 -3.78249e-18)
(14.8035 4.91647 1.91699e-19)
(14.9107 4.98754 -4.9642e-18)
(15.0146 5.09798 -3.74414e-18)
(15.1101 5.24942 0)
(15.1844 5.44348 3.88778e-18)
(15.2304 5.67203 -5.20696e-18)
(15.2492 5.92081 -3.21725e-19)
(15.2459 6.17664 1.45239e-18)
(15.2257 6.42627 -1.76167e-20)
(15.1904 6.66354 1.50607e-18)
(15.1473 6.87171 0)
(15.0909 7.06825 5.55845e-19)
(15.0416 7.20132 0)
(14.8604 4.89889 2.35914e-17)
(14.8473 4.90894 1.67919e-17)
(14.8241 4.92927 -6.6525e-19)
(14.7772 4.94801 2.46356e-17)
(14.7287 4.96009 -9.69406e-18)
(14.6743 4.95951 3.96372e-19)
(14.6329 4.94325 7.45843e-18)
(14.6193 4.91566 -1.68123e-20)
(14.6474 4.89233 -3.52726e-20)
(14.7123 4.8874 3.88736e-18)
(14.8053 4.90986 0)
(14.9218 4.97659 4.57632e-18)
(15.0362 5.08271 3.60473e-19)
(15.1448 5.23049 -1.74457e-19)
(15.2337 5.42304 -4.04765e-18)
(15.2946 5.65157 8.56677e-20)
(15.3285 5.90043 1.40726e-18)
(15.3408 6.15598 -2.37899e-18)
(15.3369 6.40489 0)
(15.3182 6.64235 -1.04644e-18)
(15.2919 6.84986 1.42242e-18)
(15.2505 7.0486 0)
(15.2167 7.18224 -8.84609e-19)
(14.863 4.90419 -8.66426e-18)
(14.8497 4.91273 3.10778e-19)
(14.827 4.93502 -6.78521e-19)
(14.7787 4.95663 -1.20043e-17)
(14.7285 4.9709 1.92846e-17)
(14.6708 4.97187 -1.07353e-19)
(14.6264 4.95501 -1.29433e-19)
(14.6108 4.92433 -3.18486e-18)
(14.6402 4.89641 2.13138e-20)
(14.7087 4.88655 0)
(14.8068 4.90328 5.17833e-18)
(14.9322 4.96537 1.35726e-19)
(15.0565 5.06651 1.38911e-19)
(15.1781 5.20973 1.78589e-20)
(15.2818 5.40007 -3.97141e-19)
(15.3576 5.62798 2.87442e-18)
(15.4067 5.87616 -1.55116e-18)
(15.4346 6.13027 -2.12935e-19)
(15.447 6.37681 -5.144e-19)
(15.4453 6.61269 1.42024e-18)
(15.4369 6.81738 -1.03033e-18)
(15.4115 7.01621 2.1521e-18)
(15.3948 7.14832 -1.44036e-18)
(14.8661 4.90761 -8.76111e-18)
(14.8521 4.91604 -1.65931e-17)
(14.8299 4.94026 -7.07652e-20)
(14.7804 4.96485 -1.29416e-17)
(14.7285 4.98146 -1.96385e-17)
(14.6677 4.98422 1.09474e-19)
(14.6202 4.96703 1.32081e-19)
(14.6026 4.93338 -2.43573e-20)
(14.6331 4.90075 -4.41685e-19)
(14.7051 4.88573 2.34435e-18)
(14.808 4.89634 -5.49619e-18)
(14.9417 4.95348 -5.10765e-18)
(15.0752 5.04907 4.30828e-18)
(15.2096 5.1868 0)
(15.328 5.37403 2.25498e-18)
(15.419 5.60054 0)
(15.483 5.84714 2.08824e-18)
(15.526 6.09854 1.27883e-18)
(15.5547 6.34084 -2.66236e-20)
(15.5705 6.57313 -1.59604e-18)
(15.5806 6.77259 -4.58578e-20)
(15.5721 6.96887 -1.07635e-21)
(15.5739 7.09717 -5.91194e-19)
(14.8693 4.90999 -4.49861e-20)
(14.8544 4.91895 -1.56999e-19)
(14.8328 4.94507 7.01665e-20)
(14.7824 4.97271 1.29234e-17)
(14.7288 4.9918 9.82392e-18)
(14.665 4.99659 0)
(14.6144 4.97935 -4.8367e-20)
(14.5945 4.94299 3.25024e-18)
(14.6259 4.90576 -9.6579e-20)
(14.701 4.88557 -2.34106e-18)
(14.8082 4.88963 2.87776e-18)
(14.95 4.94102 7.95695e-18)
(15.0925 5.03014 -4.187e-18)
(15.2395 5.16141 3.1407e-18)
(15.3727 5.3447 2.29787e-19)
(15.479 5.56904 1.26698e-20)
(15.558 5.81324 -1.24931e-19)
(15.6157 6.06071 -4.03185e-19)
(15.6605 6.29664 2.76582e-19)
(15.6939 6.52292 -4.841e-19)
(15.7226 6.7139 -3.90064e-20)
(15.7319 6.90401 4.4401e-19)
(15.7543 7.02415 0)
(14.8723 4.91177 3.46404e-20)
(14.8566 4.92155 0)
(14.8356 4.94955 0)
(14.7844 4.98027 1.31143e-17)
(14.7293 5.00193 1.0249e-17)
(14.6627 5.00893 -7.22838e-18)
(14.6089 4.99183 -6.84708e-20)
(14.5867 4.95289 6.32303e-21)
(14.6187 4.91107 5.29054e-19)
(14.6968 4.88577 -5.54821e-20)
(14.8076 4.88309 1.37569e-19)
(14.9572 4.92817 -2.68856e-18)
(15.1082 5.00972 0)
(15.2681 5.1332 -3.33143e-18)
(15.4166 5.31169 -4.81308e-18)
(15.5387 5.53331 -1.82219e-18)
(15.6329 5.7746 -1.0609e-18)
(15.7051 6.01725 0)
(15.7652 6.24528 0)
(15.8147 6.46367 8.56476e-19)
(15.8603 6.64472 6.32977e-19)
(15.8859 6.82506 -1.30369e-18)
(15.9254 6.93883 0)
(14.8752 4.91306 9.0085e-18)
(14.8587 4.92388 -7.96031e-20)
(14.8384 4.95375 3.46873e-20)
(14.7866 4.98756 -1.30388e-17)
(14.73 5.01192 -2.05157e-17)
(14.6607 5.02129 1.44313e-17)
(14.6038 5.00455 6.97747e-20)
(14.5791 4.9631 5.89006e-21)
(14.6115 4.91666 -7.78794e-21)
(14.6924 4.88622 0)
(14.8062 4.87653 -2.86825e-18)
(14.9634 4.91471 2.8106e-18)
(15.1228 4.98775 0)
(15.2956 5.10205 0)
(15.4603 5.27457 2.27864e-18)
(15.599 5.49276 1.24242e-19)
(15.7091 5.73082 1.1888e-18)
(15.7957 5.96818 8.86462e-19)
(15.8698 6.1874 -1.26711e-18)
(15.9338 6.39578 -4.73377e-19)
(15.9948 6.56623 1.90924e-18)
(16.036 6.73172 -1.80473e-18)
(16.0906 6.84008 1.2031e-18)
(14.878 4.91393 -4.54295e-18)
(14.8608 4.92596 -8.22683e-18)
(14.8412 4.95769 -7.14204e-20)
(14.7889 4.9946 9.45334e-20)
(14.731 5.0218 1.03987e-17)
(14.6591 5.03372 -7.3741e-18)
(14.599 5.01754 2.54333e-20)
(14.5716 4.97371 -2.80835e-20)
(14.6042 4.92256 -7.43788e-21)
(14.6877 4.88695 2.93271e-20)
(14.8041 4.86989 -3.85065e-20)
(14.9686 4.90048 -2.81037e-18)
(15.136 4.96397 2.50838e-18)
(15.3222 5.06772 -1.06655e-19)
(15.504 5.23308 0)
(15.6605 5.44705 -2.10689e-19)
(15.7874 5.6816 1.54021e-19)
(15.8882 5.91328 -8.72771e-19)
(15.9748 6.12273 1.5497e-18)
(16.052 6.31835 9.11987e-19)
(16.1261 6.47597 -6.14797e-19)
(16.1805 6.62073 -9.29151e-19)
(16.2486 6.72135 1.17921e-18)
(14.8806 4.91445 -2.79288e-20)
(14.8628 4.92783 8.30608e-18)
(14.844 4.9614 0)
(14.7913 5.00143 0)
(14.7322 5.03156 0)
(14.6578 5.04621 0)
(14.5944 5.03079 -2.60559e-20)
(14.5641 4.98465 3.17514e-20)
(14.5967 4.92868 3.67655e-21)
(14.6826 4.88784 3.00303e-20)
(14.801 4.86304 -3.94086e-20)
(14.9727 4.88524 0)
(15.148 4.93802 -4.93146e-18)
(15.3476 5.02968 1.25307e-19)
(15.5477 5.18661 -2.5156e-19)
(15.723 5.39553 2.08813e-18)
(15.8676 5.62635 -1.59924e-19)
(15.9817 5.8522 2.40711e-19)
(16.0787 6.05088 -2.93806e-19)
(16.1663 6.23123 4.52476e-19)
(16.2491 6.3745 -6.30042e-19)
(16.3139 6.49472 0)
(16.3925 6.58193 6.05811e-19)
(14.883 4.91468 9.03783e-18)
(14.8647 4.92949 4.10294e-18)
(14.8468 4.96489 5.38962e-20)
(14.7939 5.00805 -6.92029e-18)
(14.7338 5.04122 -5.41762e-18)
(14.6571 5.05879 -2.79736e-20)
(14.5904 5.04437 4.60662e-18)
(14.5569 4.99603 -1.80043e-18)
(14.5892 4.93519 4.18099e-19)
(14.6773 4.88914 0)
(14.7969 4.85615 6.11679e-20)
(14.9753 4.86902 -3.07011e-18)
(15.1579 4.90976 2.59426e-18)
(15.3712 4.98749 1.89288e-18)
(15.5904 5.1345 1.44818e-18)
(15.7859 5.33746 0)
(15.9485 5.56452 0)
(16.0746 5.78481 -9.44569e-19)
(16.1795 5.97268 -9.71679e-19)
(16.2731 6.1364 4.51813e-19)
(16.3587 6.2628 3.22948e-19)
(16.4297 6.35715 4.09776e-19)
(16.5108 6.42975 -5.72981e-19)
(14.8852 4.91475 -4.5355e-18)
(14.8665 4.93105 -4.12724e-18)
(14.8494 4.96828 3.70398e-20)
(14.7964 5.01457 -1.13118e-19)
(14.7352 5.05088 5.43218e-18)
(14.656 5.07146 3.90169e-18)
(14.5859 5.05811 -2.20011e-18)
(14.5492 5.00744 1.80243e-18)
(14.5812 4.94124 -3.91767e-19)
(14.6716 4.88961 -3.10579e-20)
(14.7915 4.84783 0)
(14.9769 4.85062 2.99317e-18)
(15.1667 4.87822 2.671e-18)
(15.3935 4.94025 -2.0051e-18)
(15.6327 5.07578 -1.25027e-18)
(15.849 5.27191 -5.11438e-19)
(16.0293 5.49544 -3.66512e-19)
(16.1662 5.71116 1.88082e-18)
(16.2784 5.8898 0)
(16.3734 6.03795 0)
(16.4532 6.14675 2.92555e-19)
(16.5211 6.21658 -7.73897e-19)
(16.5947 6.26729 -5.33918e-19)
(14.8872 4.91442 4.46674e-18)
(14.8685 4.93224 0)
(14.8526 4.97121 0)
(14.7999 5.02067 1.41025e-17)
(14.7382 5.06035 -5.53384e-18)
(14.657 5.08452 -4.00074e-18)
(14.5835 5.07316 5.70492e-20)
(14.5426 5.02084 -9.82554e-19)
(14.5728 4.94955 7.61499e-21)
(14.6654 4.89298 -1.58754e-18)
(14.7853 4.84248 6.29011e-20)
(14.9759 4.83355 -8.20276e-20)
(15.171 4.84518 -2.67207e-18)
(15.4111 4.88802 2.16755e-18)
(15.6722 5.00945 1.46503e-18)
(15.9112 5.19764 -1.08008e-18)
(16.1099 5.41803 8.72068e-19)
(16.2595 5.6306 -9.36272e-19)
(16.3779 5.80315 0)
(16.463 5.93974 0)
(16.526 6.03341 -2.75865e-19)
(16.5806 6.08138 1.72972e-19)
(16.6354 6.10471 -4.85547e-19)
(14.8893 4.91483 -3.76645e-20)
(14.8696 4.93428 4.21736e-18)
(14.8539 4.9752 0)
(14.8006 5.02748 -3.512e-18)
(14.7374 5.06985 1.12649e-17)
(14.654 5.09608 -2.99214e-20)
(14.5771 5.08393 1.07594e-19)
(14.5333 5.02701 9.91953e-19)
(14.5664 4.95004 -5.08902e-21)
(14.6643 4.89016 1.60612e-18)
(14.7785 4.82946 -4.17113e-20)
(14.9764 4.80767 -1.50046e-18)
(15.1803 4.80526 -1.7565e-19)
(15.4328 4.8298 -2.03784e-18)
(15.7144 4.93653 -1.66191e-18)
(15.9745 5.11569 8.86442e-20)
(16.1916 5.33235 0)
(16.3564 5.5435 -1.17894e-19)
(16.4763 5.71747 1.49362e-19)
(16.5412 5.84855 0)
(16.5819 5.9294 2.37821e-19)
(16.6177 5.96493 -1.67421e-19)
(16.6534 5.97749 0)
(14.891 4.91204 -4.45412e-18)
(14.8721 4.93294 -4.22564e-18)
(14.8581 4.97491 0)
(14.8056 5.03114 -3.59146e-18)
(14.7423 5.07891 -1.14292e-17)
(14.6566 5.11247 -4.14533e-18)
(14.5757 5.10797 -5.00943e-18)
(14.5266 5.05721 0)
(14.5533 4.97878 3.81591e-19)
(14.6498 4.90605 -1.68323e-18)
(14.7683 4.8328 1.53864e-18)
(14.9674 4.80097 1.56791e-18)
(15.1711 4.77688 -2.54325e-20)
(15.4371 4.77114 3.28408e-20)
(15.7458 4.85496 -1.68781e-18)
(16.034 5.02163 1.09743e-18)
(16.2785 5.23407 0)
(16.4653 5.44966 4.68615e-19)
(16.5795 5.63629 0)
(16.6229 5.77171 0)
(16.639 5.85268 -2.28572e-19)
(16.6565 5.89597 -3.97157e-19)
(16.6784 5.91357 3.29412e-19)
(14.8923 4.91096 0)
(14.873 4.93289 1.66668e-22)
(14.8594 4.9759 -5.22211e-22)
(14.8069 5.03432 3.67243e-18)
(14.743 5.08492 2.83827e-18)
(14.6561 5.12227 4.14786e-18)
(14.5729 5.12176 2.52982e-18)
(14.5203 5.07321 2.9036e-22)
(14.5457 4.99278 -1.82791e-19)
(14.6445 4.91566 -8.22196e-20)
(14.7601 4.83502 1.89769e-20)
(14.9602 4.7918 0)
(15.167 4.74759 2.64162e-20)
(15.4441 4.71356 -3.40932e-20)
(15.7764 4.77322 2.5117e-18)
(16.0913 4.92308 7.09895e-20)
(16.3669 5.12592 0)
(16.5817 5.34802 1.20355e-19)
(16.6947 5.55247 -1.42454e-19)
(16.7321 5.70521 0)
(16.7338 5.81177 0)
(16.7292 5.87225 2.19894e-19)
(16.6996 5.86931 -1.22367e-19)
(14.8935 4.91014 -4.4765e-18)
(14.8738 4.93317 -4.3567e-18)
(14.8606 4.97731 0)
(14.808 5.0379 -3.67877e-18)
(14.7435 5.09131 2.91993e-18)
(14.6553 5.13231 4.24605e-18)
(14.5697 5.13539 -2.58887e-18)
(14.5144 5.08841 1.11939e-18)
(14.538 5.00604 -2.00383e-19)
(14.6374 4.92584 2.71245e-18)
(14.7506 4.83801 -1.56422e-18)
(14.9513 4.78192 -1.6288e-18)
(15.1594 4.71631 -1.58129e-18)
(15.4462 4.65212 0)
(15.8024 4.68516 -8.82167e-19)
(16.1463 4.81468 1.25177e-18)
(16.4586 5.00449 4.76528e-20)
(16.7045 5.23663 -5.27028e-19)
(16.8292 5.46419 0)
(16.8716 5.64746 0)
(16.8539 5.79614 0)
(16.7877 5.87034 -2.45166e-19)
(16.647 5.8361 1.64474e-19)
(14.8945 4.90935 4.48581e-18)
(14.8746 4.93351 -4.54042e-20)
(14.8618 4.97882 0)
(14.8092 5.04159 3.76167e-18)
(14.7444 5.09784 3.37759e-22)
(14.6551 5.14251 -6.38747e-18)
(14.5675 5.14913 5.18128e-18)
(14.5094 5.10367 -3.34261e-18)
(14.531 5.01945 -9.36863e-22)
(14.6313 4.93646 -9.40433e-19)
(14.7425 4.84135 -8.31328e-19)
(14.9423 4.77179 1.63796e-18)
(15.1499 4.68363 1.56837e-18)
(15.4449 4.58684 -1.32927e-18)
(15.8249 4.59006 1.53668e-20)
(16.1998 4.69464 -1.26892e-18)
(16.5536 4.86817 0)
(16.8351 5.10983 0)
(16.9915 5.36388 2.7355e-19)
(17.0521 5.59303 0)
(17.0129 5.80336 0)
(16.8745 5.9246 4.82763e-20)
(16.665 5.9369 4.09343e-20)
(14.8954 4.90855 0)
(14.8754 4.93387 4.41893e-18)
(14.8631 4.98033 -1.06825e-22)
(14.8106 5.04528 2.65977e-20)
(14.7455 5.1044 1.91068e-22)
(14.6551 5.15278 4.27373e-18)
(14.5657 5.16301 -2.5919e-18)
(14.5048 5.11918 2.22515e-18)
(14.5244 5.0332 -3.12419e-19)
(14.6258 4.94756 0)
(14.7341 4.84512 8.28624e-19)
(14.9318 4.76166 3.53304e-21)
(15.1374 4.64973 9.68209e-22)
(15.4391 4.51753 1.3274e-18)
(15.8423 4.48718 0)
(16.2494 4.56156 6.97951e-19)
(16.6495 4.71459 -1.32191e-20)
(16.9768 4.96032 0)
(17.1845 5.23733 -2.71247e-19)
(17.2849 5.51956 0)
(17.2581 5.81189 0)
(17.122 6.03558 0)
(16.9797 6.19114 -8.33821e-21)
(14.8963 4.90775 0)
(14.8763 4.93422 -2.24803e-18)
(14.8644 4.98184 1.9735e-23)
(14.812 5.04896 -3.80067e-18)
(14.7467 5.11096 -3.01547e-18)
(14.6554 5.16311 -4.27294e-18)
(14.5641 5.17705 0)
(14.5005 5.13498 1.06686e-18)
(14.5178 5.04732 6.69315e-19)
(14.6202 4.95922 -6.09826e-23)
(14.7251 4.84957 8.78459e-19)
(14.9192 4.75182 -8.586e-19)
(15.1212 4.61481 0)
(15.4273 4.4443 0)
(15.8523 4.37619 1.05582e-18)
(16.2921 4.4143 -6.88125e-19)
(16.7423 4.53966 0)
(17.1268 4.77951 -5.32558e-19)
(17.4025 5.06726 -2.98373e-19)
(17.5698 5.38797 0)
(17.6139 5.75208 1.4368e-21)
(17.5845 6.08725 -1.0602e-21)
(17.6081 6.38409 -5.52293e-21)
(14.8973 4.90693 -2.2569e-23)
(14.8771 4.93457 4.51679e-18)
(14.8657 4.98334 5.7895e-23)
(14.8135 5.05261 0)
(14.748 5.1175 -5.64047e-21)
(14.6559 5.17346 4.26333e-18)
(14.5627 5.19121 6.48411e-22)
(14.4963 5.15105 -1.06847e-18)
(14.5112 5.06181 -3.57066e-19)
(14.6147 4.97149 1.23308e-18)
(14.7154 4.85481 1.67069e-20)
(14.9041 4.74247 1.72332e-18)
(15.1005 4.57913 -1.79161e-18)
(15.4087 4.36734 5.16877e-21)
(15.8531 4.25714 -2.16393e-18)
(16.3253 4.25196 7.75597e-19)
(16.8269 4.3399 -2.85379e-20)
(17.2739 4.55936 5.51716e-19)
(17.631 4.8372 2.95557e-19)
(17.8907 5.1638 0)
(18.0485 5.55194 8.36398e-20)
(18.1779 5.93976 0)
(18.3665 6.29035 -2.52541e-20)
(14.8982 4.9061 0)
(14.878 4.93492 -2.26859e-18)
(14.8671 4.98482 -2.20428e-18)
(14.8151 5.05623 -2.11278e-22)
(14.7494 5.12402 6.06395e-18)
(14.6566 5.18384 -2.13045e-18)
(14.5615 5.2055 0)
(14.4922 5.1674 0)
(14.5046 5.0767 -6.28024e-22)
(14.6091 4.98439 -1.23403e-18)
(14.7049 4.86097 1.13014e-20)
(14.8863 4.73381 -8.63021e-19)
(15.0751 4.54296 1.79103e-18)
(15.3821 4.28692 0)
(15.8433 4.12996 1.101e-18)
(16.3474 4.07407 -7.55625e-19)
(16.899 4.11436 4.70509e-19)
(17.4073 4.29476 3.72153e-20)
(17.8499 4.53383 0)
(18.2145 4.82771 0)
(18.4923 5.17918 -4.1744e-20)
(18.7681 5.53357 -1.10717e-19)
(19.056 5.84377 2.93141e-20)
(14.8991 4.90526 0)
(14.8789 4.93526 8.89394e-23)
(14.8685 4.98627 2.20744e-18)
(14.8167 5.05981 -1.94131e-18)
(14.751 5.13051 -3.03754e-18)
(14.6574 5.19423 -5.0682e-22)
(14.5605 5.21991 -1.22996e-18)
(14.4882 5.18402 -5.08526e-19)
(14.4978 5.09196 -4.44878e-19)
(14.6034 4.99795 0)
(14.6936 4.86817 6.99536e-21)
(14.8655 4.72603 -8.47283e-19)
(15.0446 4.50646 0)
(15.3471 4.20322 -2.67111e-20)
(15.8217 3.99442 1.21524e-18)
(16.357 3.88058 0)
(16.953 3.86322 -3.80571e-20)
(17.5165 3.98549 2.25958e-21)
(18.035 4.15449 4.95676e-19)
(18.4909 4.38141 0)
(18.8721 4.64329 0)
(19.2427 4.89686 6.11366e-20)
(19.5571 5.1128 -2.12588e-19)
(14.9 4.90441 4.60071e-23)
(14.8798 4.93559 -6.07379e-23)
(14.8698 4.98771 0)
(14.8184 5.06336 -1.95777e-18)
(14.7525 5.13696 1.46067e-21)
(14.6582 5.20462 -1.01341e-21)
(14.5596 5.23442 1.2311e-18)
(14.4842 5.20092 5.0986e-19)
(14.4908 5.1076 4.45536e-19)
(14.5975 5.01216 -1.42006e-18)
(14.6815 4.87651 -9.22848e-19)
(14.8415 4.71921 8.58893e-19)
(15.0088 4.4697 9.38409e-19)
(15.303 4.11657 7.82639e-19)
(15.7877 3.8509 -1.19375e-18)
(16.3519 3.67285 5.06658e-20)
(16.9843 3.5888 -5.99644e-19)
(17.5913 3.63621 -2.66407e-19)
(18.1641 3.71205 -1.80782e-19)
(18.674 3.83879 1.35028e-19)
(19.1328 3.98303 -1.6779e-19)
(19.5398 4.10435 0)
(19.8312 4.20526 1.32294e-19)
(14.9009 4.90354 0)
(14.8806 4.93591 -2.32721e-18)
(14.8712 4.98912 -2.24566e-18)
(14.8201 5.06686 1.94676e-18)
(14.7542 5.14337 -1.53062e-18)
(14.6592 5.21502 0)
(14.5588 5.24904 -9.3073e-22)
(14.4803 5.21808 1.23397e-21)
(14.4837 5.12361 2.31942e-19)
(14.5915 5.02705 2.16567e-18)
(14.6686 4.88607 -9.2473e-19)
(14.8145 4.71349 -5.71658e-21)
(14.9675 4.43314 1.43345e-20)
(15.2492 4.02783 -8.15501e-19)
(15.7403 3.70024 0)
(16.33 3.45256 9.00158e-19)
(16.9909 3.29481 -5.83901e-19)
(17.6251 3.25589 3.55638e-19)
(18.2224 3.22842 1.43965e-19)
(18.7494 3.22875 9.59822e-21)
(19.2405 3.24276 -2.06616e-19)
(19.6434 3.23357 1.55005e-19)
(19.8856 3.22184 1.98155e-19)
(14.9017 4.90267 -1.18473e-18)
(14.8815 4.93623 -1.26101e-20)
(14.8726 4.9905 2.24876e-18)
(14.8218 5.07032 1.96085e-18)
(14.7559 5.14974 3.06722e-18)
(14.6604 5.2254 2.10432e-18)
(14.5582 5.26374 9.26418e-22)
(14.4765 5.23551 -1.2284e-21)
(14.4765 5.13997 -2.3227e-19)
(14.5855 5.04259 -7.41922e-19)
(14.6552 4.89698 1.86599e-18)
(14.7843 4.7093 -7.90631e-19)
(14.9207 4.39764 -9.74507e-19)
(15.1855 3.93755 8.65088e-19)
(15.6786 3.54242 -4.35803e-20)
(16.2893 3.22041 -7.94035e-19)
(16.9709 2.98542 5.92081e-19)
(17.6087 2.85598 -5.93453e-19)
(18.2027 2.72179 -1.25648e-19)
(18.7206 2.59072 0)
(19.1939 2.47284 2.6933e-19)
(19.5645 2.34451 -3.19026e-19)
(19.7492 2.23509 4.86161e-19)
(14.9025 4.9018 1.18614e-18)
(14.8824 4.93653 3.52493e-18)
(14.874 4.99186 2.27228e-18)
(14.8235 5.07373 -1.9762e-18)
(14.7577 5.15606 -1.53646e-18)
(14.6616 5.23577 -2.10671e-18)
(14.5577 5.27853 -1.18982e-18)
(14.4729 5.2532 0)
(14.4693 5.15668 2.31217e-19)
(14.5795 5.0588 -8.01097e-19)
(14.6415 4.90946 -9.36902e-19)
(14.751 4.70701 7.93347e-19)
(14.8682 4.36321 0)
(15.1108 3.84524 -8.11068e-19)
(15.6015 3.37721 6.10207e-19)
(16.2307 2.97767 -4.81361e-19)
(16.9218 2.66784 1.58268e-19)
(17.5316 2.44896 2.01986e-19)
(18.1 2.20707 -6.01146e-19)
(18.5894 1.95386 3.94454e-19)
(19.0125 1.71493 0)
(19.3286 1.48445 -8.7101e-19)
(19.4558 1.29321 1.3028e-18)
(14.9033 4.90091 0)
(14.8833 4.93682 -1.18047e-18)
(14.8753 4.9932 -2.2744e-18)
(14.8253 5.07709 1.97851e-18)
(14.7596 5.16233 5.99354e-23)
(14.663 5.24611 -1.01409e-21)
(14.5574 5.2934 6.0048e-19)
(14.4694 5.27114 0)
(14.462 5.17372 -2.31528e-19)
(14.5737 5.07573 -3.01984e-20)
(14.6274 4.92368 0)
(14.7145 4.70651 -3.64721e-19)
(14.8094 4.32949 0)
(15.0243 3.75133 6.39929e-20)
(15.5108 3.20606 -1.39941e-18)
(16.1601 2.72812 3.68661e-19)
(16.8369 2.352 1.61785e-19)
(17.3965 2.0482 -6.30812e-19)
(17.9215 1.69685 3.01521e-19)
(18.3599 1.33775 4.88164e-19)
(18.7143 0.999429 -8.07273e-19)
(18.9605 0.685911 7.87106e-19)
(19.0314 0.42762 -2.99142e-18)
(14.9041 4.90002 1.2025e-18)
(14.8841 4.93711 -1.19434e-18)
(14.8767 4.9945 1.14789e-18)
(14.8271 5.0804 9.71831e-22)
(14.7616 5.16854 -1.47236e-21)
(14.6645 5.25642 1.94637e-21)
(14.5573 5.30834 5.89645e-19)
(14.466 5.28932 -1.25008e-21)
(14.4547 5.1911 4.64766e-23)
(14.5679 5.09335 -3.09249e-20)
(14.6132 4.9396 -4.82166e-19)
(14.6748 4.70784 3.47445e-19)
(14.7439 4.29735 2.47274e-20)
(14.9245 3.65637 -6.62754e-20)
(15.4082 3.02823 8.07624e-19)
(16.0798 2.47675 0)
(16.7066 2.04368 3.05296e-19)
(17.2121 1.65793 4.33508e-19)
(17.6852 1.20842 -3.51998e-19)
(18.0484 0.763773 9.84601e-19)
(18.3227 0.348666 -5.12919e-19)
(18.4891 -0.0272171 1.34862e-19)
(18.5058 -0.340831 1.82732e-18)
(14.9048 4.89913 -2.41172e-18)
(14.885 4.93738 1.19574e-18)
(14.8781 4.99578 4.7321e-21)
(14.8289 5.08366 0)
(14.7636 5.17468 0)
(14.6662 5.26669 1.04718e-18)
(14.5574 5.32333 5.79278e-19)
(14.4628 5.30775 0)
(14.4474 5.20878 -3.37838e-21)
(14.5624 5.11162 8.69523e-19)
(14.599 4.95728 4.90805e-19)
(14.6318 4.71153 -1.02584e-20)
(14.6711 4.26831 -4.05566e-20)
(14.8112 3.56141 1.21922e-19)
(15.2957 2.84271 -8.74859e-20)
(15.9787 2.22745 0)
(16.5349 1.74549 -4.4513e-19)
(16.9865 1.27907 3.10407e-20)
(17.3994 0.750835 -1.00844e-18)
(17.6752 0.244143 4.79931e-19)
(17.864 -0.223196 8.16938e-19)
(17.9506 -0.64086 -1.38211e-18)
(17.9074 -0.978044 0)
(14.9055 4.89823 2.42274e-18)
(14.8858 4.93764 -1.26615e-22)
(14.8795 4.99702 -1.15544e-18)
(14.8307 5.08686 0)
(14.7657 5.18076 0)
(14.6679 5.27692 -3.02332e-21)
(14.5577 5.33838 -1.15273e-18)
(14.4598 5.3264 0)
(14.44 5.22675 1.04806e-19)
(14.557 5.13049 0)
(14.5849 4.97702 0)
(14.5855 4.71844 -1.8048e-20)
(14.5898 4.2421 2.41035e-20)
(14.6853 3.46552 4.46897e-19)
(15.1786 2.65453 8.96731e-20)
(15.8452 1.9865 -1.1521e-19)
(16.3311 1.46162 4.50193e-19)
(16.7295 0.920446 0)
(17.0715 0.330122 3.40757e-19)
(17.2581 -0.217188 0)
(17.3658 -0.71401 1.91744e-19)
(17.3821 -1.13917 2.87511e-19)
(17.2852 -1.47967 0)
(14.9062 4.89733 -1.8241e-18)
(14.8867 4.93789 6.08677e-19)
(14.8809 4.99824 0)
(14.8326 5.09001 -1.00547e-18)
(14.7679 5.18678 7.76647e-19)
(14.6698 5.2871 -1.04686e-18)
(14.5581 5.35348 5.74636e-19)
(14.457 5.34528 2.52804e-19)
(14.4327 5.24498 -1.05026e-19)
(14.5518 5.14998 -6.56996e-21)
(14.5711 4.99911 8.65581e-21)
(14.536 4.72944 2.58061e-19)
(14.4994 4.21817 4.23055e-20)
(14.547 3.36405 -6.52388e-19)
(15.0619 2.46663 9.08895e-20)
(15.6812 1.75882 0)
(16.105 1.19825 0)
(16.453 0.58608 0)
(16.7141 -0.0494828 0)
(16.8165 -0.616682 -1.22435e-19)
(16.8458 -1.12274 -9.28066e-19)
(16.8049 -1.52998 9.33789e-19)
(16.67 -1.86642 0)
(14.9069 4.89642 6.10034e-19)
(14.8875 4.93812 -1.22167e-18)
(14.8823 4.99942 0)
(14.8345 5.0931 1.00682e-18)
(14.7701 5.19271 -1.55691e-18)
(14.6719 5.29722 0)
(14.5587 5.36862 0)
(14.4543 5.36438 -2.52974e-19)
(14.4253 5.26345 0)
(14.5468 5.17009 -4.90199e-19)
(14.5577 5.02364 -2.68194e-19)
(14.4832 4.74459 -1.49421e-19)
(14.3974 4.198 5.04041e-19)
(14.3983 3.25584 0)
(14.9454 2.27705 0)
(15.5002 1.54115 9.77522e-20)
(15.8718 0.949612 -1.26227e-19)
(16.1691 0.279553 0)
(16.3432 -0.379555 -1.46348e-19)
(16.3753 -0.947414 1.26513e-19)
(16.3395 -1.44434 7.68702e-19)
(16.2412 -1.83669 -1.00883e-18)
(16.074 -2.16243 0)
(14.9076 4.89551 -9.75245e-23)
(14.8884 4.93834 1.22936e-18)
(14.8837 5.00057 3.3728e-22)
(14.8364 5.09613 5.05427e-19)
(14.7724 5.19857 7.80227e-19)
(14.674 5.30728 -5.2079e-19)
(14.5594 5.38378 -1.2052e-21)
(14.4518 5.38367 1.25536e-19)
(14.418 5.28213 9.16063e-20)
(14.5421 5.19085 4.92401e-19)
(14.5452 5.05099 2.59685e-19)
(14.4274 4.76403 -1.10378e-19)
(14.2821 4.1812 -5.09872e-19)
(14.246 3.14797 -7.00244e-20)
(14.8185 2.08866 8.8707e-20)
(15.3052 1.3334 8.34844e-20)
(15.6346 0.708549 -1.08106e-19)
(15.8774 0.00392673 0)
(15.9662 -0.664106 1.50476e-19)
(15.9422 -1.23224 0)
(15.8536 -1.69332 -8.83438e-20)
(15.7101 -2.0466 0)
(15.5142 -2.36955 -3.87914e-20)
(14.9083 4.8946 -3.09215e-19)
(14.8892 4.93855 -6.16539e-19)
(14.8851 5.00169 -5.91645e-19)
(14.8384 5.0991 2.84237e-22)
(14.7747 5.20436 1.43579e-21)
(14.6763 5.31728 -2.88483e-22)
(14.5603 5.39897 2.77189e-19)
(14.4494 5.40315 3.22841e-22)
(14.4107 5.30101 -8.80837e-20)
(14.5377 5.2123 -7.13282e-21)
(14.5335 5.08205 2.83326e-19)
(14.3678 4.7893 0)
(14.1561 4.16067 -4.39005e-20)
(14.0981 3.03546 5.94173e-20)
(14.6704 1.90678 1.46359e-19)
(15.0889 1.13948 0)
(15.3843 0.480781 0)
(15.57 -0.239399 -6.05755e-20)
(15.5833 -0.914323 0)
(15.5133 -1.4682 4.0447e-19)
(15.3739 -1.87678 -4.69477e-19)
(15.21 -2.19901 4.73794e-20)
(15.0018 -2.51836 1.26636e-18)
(14.9089 4.89369 6.20322e-19)
(14.89 4.93874 3.11824e-19)
(14.8864 5.00277 8.88934e-19)
(14.8403 5.102 -5.09569e-19)
(14.7771 5.21005 -3.90426e-19)
(14.6786 5.3272 7.82383e-19)
(14.5614 5.41417 -2.77055e-19)
(14.4472 5.4228 -1.24631e-19)
(14.4034 5.32012 3.71892e-21)
(14.5336 5.23462 -5.13358e-21)
(14.5229 5.11666 -2.74239e-19)
(14.3037 4.81951 -2.02429e-20)
(14.0159 4.13279 1.81027e-19)
(13.952 2.90929 3.49318e-19)
(14.5039 1.73348 -1.4853e-19)
(14.8596 0.95705 0)
(15.1165 0.271935 0)
(15.2482 -0.45713 -9.49375e-20)
(15.197 -1.13201 1.59778e-19)
(15.0827 -1.65485 0)