/*--------------------------------*- C++ -*----------------------------------*\
  =========                 |
  \\      /  F ield         | OpenFOAM: The Open Source CFD Toolbox
   \\    /   O peration     | Website:  https://openfoam.org
    \\  /    A nd           | Version:  7
     \\/     M anipulation  |
\*---------------------------------------------------------------------------*/
FoamFile
{
    version     2.0;
    format      ascii;
    class       volScalarField;
    location    "50";
    object      yPlus;
}
// * * * * * * * * * * * * * * * * * * * * * * * * * * * * * * * * * * * * * //

dimensions      [0 0 0 0 0 0 0];

internalField   uniform 0;

boundaryField
{
    inlet
    {
        type            calculated;
        value           uniform 0;
    }
    outlet
    {
        type            calculated;
        value           uniform 0;
    }
    suction_side
    {
        type            calculated;
        value           nonuniform List<scalar> 
56
(
34.5534
37.1438
39.8976
42.5976
45.3841
47.8177
50.1824
52.6838
53.6849
55.9039
55.4624
52.5314
45.045
29.1048
29.2555
33.832
36.7063
35.6091
34.4014
33.066
31.6568
31.0395
30.155
28.6669
26.8162
25.134
25.281
25.6186
30.6178
31.2118
24.0738
15.6677
16.952
21.7091
24.9735
27.3204
29.0429
30.2258
31.1166
31.7504
31.8935
31.7677
31.6665
30.8236
29.7214
28.2694
26.7103
26.3756
27.0106
26.9183
23.9787
19.346
16.0062
13.5515
13.5121
15.9542
)
;
    }
    pressure_side
    {
        type            calculated;
        value           nonuniform List<scalar> 
56
(
37.3458
35.9194
36.0186
36.0938
36.6644
37.0153
37.2426
37.0978
36.6455
36.2908
36.007
35.8321
35.8316
35.9953
36.3321
36.7597
37.1834
37.4781
37.5957
37.5388
37.3462
37.0693
36.7333
36.3721
36.0209
35.759
35.7555
36.0663
36.685
37.4174
38.0406
38.4098
38.4455
37.4202
36.0828
34.337
32.3951
30.2411
27.4822
24.3935
21.1756
17.77
14.5926
12.1561
11.1483
12.3318
13.5357
14.6565
16.325
19.1401
20.5843
23.8692
25.1448
27.8106
30.146
32.1526
)
;
    }
    trailing_edge
    {
        type            calculated;
        value           nonuniform List<scalar> 2(132.402 111.991);
    }
    defaultFaces
    {
        type            empty;
    }
}


// ************************************************************************* //
