/*--------------------------------*- C++ -*----------------------------------*\
  =========                 |
  \\      /  F ield         | OpenFOAM: The Open Source CFD Toolbox
   \\    /   O peration     | Website:  https://openfoam.org
    \\  /    A nd           | Version:  7
     \\/     M anipulation  |
\*---------------------------------------------------------------------------*/
FoamFile
{
    version     2.0;
    format      ascii;
    class       volSymmTensorField;
    location    "100";
    object      devReff;
}
// * * * * * * * * * * * * * * * * * * * * * * * * * * * * * * * * * * * * * //

dimensions      [0 2 -2 0 0 0 0];

internalField   nonuniform List<symmTensor> 
180
(
(-8.16243e-21 -0.0540248 -0 1.63249e-20 -0 -8.16243e-21)
(-8.16826e-21 -0.0988849 -0 1.63365e-20 -0 -8.16826e-21)
(8.22937e-20 -0.0317953 -0 -3.98723e-20 -0 -4.24215e-20)
(-1.0584e-19 -0.0478221 -0 3.72494e-20 -0 6.8591e-20)
(6.01332e-20 -0.0287577 -0 -1.20266e-19 -0 6.01332e-20)
(-3.60415e-20 -0.0357816 -0 7.20829e-20 -0 -3.60415e-20)
(-7.65742e-21 -0.0266663 -0 1.53148e-20 -0 -7.65742e-21)
(6.3154e-21 -0.0302772 -0 -1.26308e-20 -0 6.3154e-21)
(-3.23654e-19 -0.0240008 -0 2.62993e-19 -0 6.06608e-20)
(3.85511e-19 -0.026092 -0 -3.30242e-19 -0 -5.52698e-20)
(-6.28667e-20 -0.0212182 -0 1.25733e-19 -0 -6.28667e-20)
(4.07914e-20 -0.0217983 -0 -8.15829e-20 -0 4.07914e-20)
(4.47472e-19 -0.018195 -0 -2.62316e-19 -0 -1.85156e-19)
(-4.95489e-19 -0.0180249 -0 3.25968e-19 -0 1.69521e-19)
(5.19662e-20 -0.014768 -0 -1.03932e-19 -0 5.19662e-20)
(-1.32413e-20 -0.0143666 -0 2.64825e-20 -0 -1.32413e-20)
(-3.68715e-20 -0.0110254 -0 7.3743e-20 -0 -3.68715e-20)
(2.25235e-20 -0.0106326 -0 -4.5047e-20 -0 2.25235e-20)
(-6.59709e-20 -0.00703556 -0 1.31942e-19 -0 -6.59709e-20)
(-5.50702e-21 -0.00673392 -0 1.1014e-20 -0 -5.50702e-21)
(-2.91426e-20 -0.0028439 -0 5.82853e-20 -0 -2.91426e-20)
(-3.3244e-20 -0.00263586 -0 6.6488e-20 -0 -3.3244e-20)
(2.41999e-20 0.00152756 -0 -4.83998e-20 -0 2.41999e-20)
(-5.612e-20 0.00166974 -0 1.1224e-19 -0 -5.612e-20)
(1.22269e-19 0.00607246 -0 -2.44538e-19 -0 1.22269e-19)
(7.18598e-20 0.0061798 -0 -1.4372e-19 -0 7.18598e-20)
(8.17099e-20 0.0107908 -0 -1.6342e-19 -0 8.17099e-20)
(1.14494e-19 0.0108873 -0 -2.28989e-19 -0 1.14494e-19)
(-8.26371e-20 0.0156831 -0 1.65274e-19 -0 -8.26371e-20)
(-1.14112e-19 0.0157841 -0 2.28225e-19 -0 -1.14112e-19)
(-8.02863e-20 0.0207477 -0 1.60573e-19 -0 -8.02863e-20)
(-7.0545e-20 0.0208623 -0 1.4109e-19 -0 -7.0545e-20)
(-1.79573e-20 0.0259802 -0 3.59146e-20 -0 -1.79573e-20)
(8.62888e-20 0.0261137 -0 -1.72578e-19 -0 8.62888e-20)
(-1.44996e-20 0.0313745 -0 2.89992e-20 -0 -1.44996e-20)
(5.87565e-20 0.0315298 -0 -1.17513e-19 -0 5.87565e-20)
(-4.53727e-21 0.0369228 -0 9.07453e-21 -0 -4.53727e-21)
(3.10594e-20 0.037102 -0 -6.21188e-20 -0 3.10594e-20)
(1.4138e-21 0.0426165 -0 -2.82759e-21 -0 1.4138e-21)
(8.67388e-21 0.0428212 -0 -1.73478e-20 -0 8.67388e-21)
(4.2869e-21 0.0484466 -0 -8.5738e-21 -0 4.2869e-21)
(-1.15997e-20 0.0486784 -0 2.31995e-20 -0 -1.15997e-20)
(4.42056e-21 0.0544039 -0 -8.84112e-21 -0 4.42056e-21)
(-3.01915e-20 0.0546644 -0 6.0383e-20 -0 -3.01915e-20)
(1.7217e-21 0.0604797 -0 -3.44341e-21 -0 1.7217e-21)
(-5.19855e-20 0.0607704 -0 1.03971e-19 -0 -5.19855e-20)
(-2.68064e-21 0.0666661 -0 5.36128e-21 -0 -2.68064e-21)
(-7.82423e-20 0.0669886 -0 1.56485e-19 -0 -7.82423e-20)
(-7.81824e-21 0.0734361 -0 1.56365e-20 -0 -7.81824e-21)
(-9.72783e-20 0.0738256 -0 1.94557e-19 -0 -9.72783e-20)
(-1.19738e-20 0.0800332 -0 2.39476e-20 -0 -1.19738e-20)
(-1.2125e-19 0.0803909 -0 2.425e-19 -0 -1.2125e-19)
(-1.91677e-20 0.0854418 -0 3.83355e-20 -0 -1.91677e-20)
(-8.56324e-20 0.085842 -0 1.71265e-19 -0 -8.56324e-20)
(3.9576e-20 0.0912947 -0 -7.91521e-20 -0 3.9576e-20)
(1.96842e-20 0.0917394 -0 -3.93684e-20 -0 1.96842e-20)
(1.59364e-19 0.0974829 -0 -3.18728e-19 -0 1.59364e-19)
(5.20292e-20 0.0979727 -0 -1.04058e-19 -0 5.20292e-20)
(2.22396e-19 0.103867 -0 -4.44792e-19 -0 2.22396e-19)
(3.43113e-20 0.104403 -0 -6.86225e-20 -0 3.43113e-20)
(1.69844e-19 0.110322 -0 -3.39688e-19 -0 1.69844e-19)
(3.43637e-20 0.110905 -0 -6.87275e-20 -0 3.43637e-20)
(5.95028e-20 0.116755 -0 -1.19006e-19 -0 5.95028e-20)
(2.81639e-20 0.117386 -0 -5.63279e-20 -0 2.81639e-20)
(2.62119e-20 0.123123 -0 -5.24238e-20 -0 2.62119e-20)
(2.3117e-20 0.123805 -0 -4.62341e-20 -0 2.3117e-20)
(6.64937e-20 0.129427 -0 -1.32987e-19 -0 6.64937e-20)
(1.68577e-20 0.13016 -0 -3.37155e-20 -0 1.68577e-20)
(2.13999e-20 0.135685 -0 -4.27999e-20 -0 2.13999e-20)
(8.73561e-21 0.136472 -0 -1.74712e-20 -0 8.73561e-21)
(-9.84057e-20 0.14192 -0 1.96811e-19 -0 -9.84057e-20)
(9.64325e-22 0.142764 -0 -1.92865e-21 -0 9.64325e-22)
(-1.23467e-19 0.148153 -0 2.46934e-19 -0 -1.23467e-19)
(-6.36041e-21 0.149055 -0 1.27208e-20 -0 -6.36041e-21)
(-7.36075e-20 0.154398 -0 1.47215e-19 -0 -7.36075e-20)
(-1.26208e-20 0.155361 -0 2.52416e-20 -0 -1.26208e-20)
(-4.51778e-20 0.160662 -0 9.03557e-20 -0 -4.51778e-20)
(-1.48672e-20 0.161688 -0 2.97343e-20 -0 -1.48672e-20)
(-1.58113e-20 0.166946 -0 3.16226e-20 -0 -1.58113e-20)
(-1.15029e-20 0.168037 -0 2.30059e-20 -0 -1.15029e-20)
(3.19374e-20 0.173244 -0 -6.38748e-20 -0 3.19374e-20)
(-3.13104e-21 0.174403 -0 6.26208e-21 -0 -3.13104e-21)
(6.09156e-20 0.179548 -0 -1.21831e-19 -0 6.09156e-20)
(6.30911e-21 0.180777 -0 -1.26182e-20 -0 6.30911e-21)
(9.27851e-20 0.185846 -0 -1.8557e-19 -0 9.27851e-20)
(1.50393e-20 0.187146 -0 -3.00786e-20 -0 1.50393e-20)
(5.37966e-20 0.192123 -0 -1.07593e-19 -0 5.37966e-20)
(2.38986e-20 0.193497 -0 -4.77971e-20 -0 2.38986e-20)
(-8.0995e-20 0.198366 -0 1.6199e-19 -0 -8.0995e-20)
(3.44414e-20 0.199814 -0 -6.88829e-20 -0 3.44414e-20)
(-1.21638e-19 0.204558 -0 2.43276e-19 -0 -1.21638e-19)
(5.14476e-20 0.206082 -0 -1.02895e-19 -0 5.14476e-20)
(-6.88033e-20 0.210685 -0 1.37607e-19 -0 -6.88033e-20)
(7.83913e-20 0.212286 -0 -1.56783e-19 -0 7.83913e-20)
(-1.39378e-20 0.216732 -0 2.78755e-20 -0 -1.39378e-20)
(1.00146e-19 0.218411 -0 -2.00292e-19 -0 1.00146e-19)
(5.70789e-20 0.222685 -0 -1.14158e-19 -0 5.70789e-20)
(9.70411e-20 0.224442 -0 -1.94082e-19 -0 9.70411e-20)
(1.57393e-19 0.228527 -0 -3.14785e-19 -0 1.57393e-19)
(1.13177e-19 0.230363 -0 -2.26353e-19 -0 1.13177e-19)
(-3.2279e-20 0.234245 -0 6.4558e-20 -0 -3.2279e-20)
(1.68471e-19 0.23616 -0 -3.36943e-19 -0 1.68471e-19)
(-2.86476e-19 0.239821 -0 5.72951e-19 -0 -2.86476e-19)
(1.68577e-19 0.241814 -0 -3.37154e-19 -0 1.68577e-19)
(-3.84275e-20 0.245239 -0 7.68551e-20 -0 -3.84275e-20)
(1.09012e-19 0.24731 -0 -2.18024e-19 -0 1.09012e-19)
(1.49496e-19 0.250482 -0 -2.98993e-19 -0 1.49496e-19)
(1.16938e-19 0.252631 -0 -2.33877e-19 -0 1.16938e-19)
(3.38725e-20 0.255532 -0 -6.7745e-20 -0 3.38725e-20)
(1.23118e-19 0.257756 -0 -2.46235e-19 -0 1.23118e-19)
(-6.53831e-20 0.26037 -0 1.30766e-19 -0 -6.53831e-20)
(2.40115e-20 0.262669 -0 -4.80229e-20 -0 2.40115e-20)
(-9.86567e-20 0.264977 -0 1.97313e-19 -0 -9.86567e-20)
(-5.43365e-20 0.267348 -0 1.08673e-19 -0 -5.43365e-20)
(-8.065e-20 0.269332 -0 1.613e-19 -0 -8.065e-20)
(-2.33204e-20 0.271773 -0 4.66409e-20 -0 -2.33204e-20)
(1.65033e-19 0.273416 -0 -3.30067e-19 -0 1.65033e-19)
(-9.15297e-21 0.275923 -0 1.83059e-20 -0 -9.15297e-21)
(4.17482e-19 0.277205 -0 -8.34965e-19 -0 4.17482e-19)
(-4.27688e-20 0.279777 -0 8.55376e-20 -0 -4.27688e-20)
(1.89357e-19 0.28068 -0 -3.78714e-19 -0 1.89357e-19)
(-4.66754e-20 0.283312 -0 9.33508e-20 -0 -4.66754e-20)
(-4.55017e-20 0.28382 -0 9.10035e-20 -0 -4.55017e-20)
(-1.42943e-19 0.286508 -0 2.85887e-19 -0 -1.42943e-19)
(-5.27744e-20 0.286606 -0 1.05549e-19 -0 -5.27744e-20)
(-2.6182e-19 0.289346 -0 5.23641e-19 -0 -2.6182e-19)
(-1.29543e-20 0.289028 -0 2.59087e-20 -0 -1.29543e-20)
(-2.23889e-19 0.291814 -0 4.47779e-19 -0 -2.23889e-19)
(-1.26872e-19 0.291084 -0 2.53744e-19 -0 -1.26872e-19)
(-1.37781e-19 0.293911 -0 2.75562e-19 -0 -1.37781e-19)
(-3.08574e-19 0.29279 -0 6.17148e-19 -0 -3.08574e-19)
(-8.94574e-20 0.295652 -0 1.78915e-19 -0 -8.94574e-20)
(1.10576e-20 0.294182 -0 -2.21152e-20 -0 1.10576e-20)
(-8.58857e-20 0.297071 -0 1.71771e-19 -0 -8.58857e-20)
(3.06868e-19 0.293297 -0 -6.13736e-19 -0 3.06868e-19)
(-7.68917e-20 0.296406 -0 1.53783e-19 -0 -7.68917e-20)
(5.21071e-20 0.290673 -0 -1.04214e-19 -0 5.21071e-20)
(2.15493e-20 0.293644 -0 -4.30987e-20 -0 2.15493e-20)
(-1.57447e-19 0.288991 -0 3.14895e-19 -0 -1.57447e-19)
(1.21836e-19 0.291956 -0 -2.43671e-19 -0 1.21836e-19)
(-5.91889e-20 0.286737 -0 1.18378e-19 -0 -5.91889e-20)
(9.55739e-20 0.289684 -0 -1.91148e-19 -0 9.55739e-20)
(3.95248e-20 0.283899 -0 -7.90495e-20 -0 3.95248e-20)
(-1.40522e-20 0.28682 -0 2.81045e-20 -0 -1.40522e-20)
(-4.04241e-20 0.28047 -0 8.08481e-20 -0 -4.04241e-20)
(-5.46802e-20 0.283355 -0 1.0936e-19 -0 -5.46802e-20)
(2.31002e-21 0.276442 -0 -4.62004e-21 -0 2.31002e-21)
(-2.72805e-20 0.279285 -0 5.45609e-20 -0 -2.72805e-20)
(1.39864e-19 0.271814 -0 -2.79729e-19 -0 1.39864e-19)
(-6.86636e-20 0.274604 -0 1.37327e-19 -0 -6.86636e-20)
(7.29848e-20 0.266582 -0 -1.4597e-19 -0 7.29848e-20)
(-1.19109e-19 0.269311 -0 2.38218e-19 -0 -1.19109e-19)
(3.57263e-21 0.260748 -0 -7.14526e-21 -0 3.57263e-21)
(-5.97166e-20 0.263408 -0 1.19433e-19 -0 -5.97166e-20)
(2.7816e-20 0.254317 -0 -5.5632e-20 -0 2.7816e-20)
(-1.00943e-20 0.256899 -0 2.01887e-20 -0 -1.00943e-20)
(3.10816e-20 0.247295 -0 -6.21632e-20 -0 3.10816e-20)
(-1.31503e-20 0.249789 -0 2.63007e-20 -0 -1.31503e-20)
(1.32393e-20 0.239691 -0 -2.64786e-20 -0 1.32393e-20)
(-8.21771e-21 0.242091 -0 1.64354e-20 -0 -8.21771e-21)
(2.41149e-21 0.23152 -0 -4.82298e-21 -0 2.41149e-21)
(-1.30155e-20 0.233817 -0 2.6031e-20 -0 -1.30155e-20)
(5.04009e-21 0.222798 -0 -1.00802e-20 -0 5.04009e-21)
(-2.26729e-20 0.224989 -0 4.53457e-20 -0 -2.26729e-20)
(1.11428e-20 0.213548 -0 -2.22857e-20 -0 1.11428e-20)
(-1.11987e-20 0.215631 -0 2.23975e-20 -0 -1.11987e-20)
(1.79222e-20 0.203805 -0 -3.58444e-20 -0 1.79222e-20)
(6.68626e-21 0.205779 -0 -1.33725e-20 -0 6.68626e-21)
(2.46523e-20 0.193614 -0 -4.93045e-20 -0 2.46523e-20)
(7.13598e-21 0.195478 -0 -1.4272e-20 -0 7.13598e-21)
(3.04328e-20 0.183043 -0 -6.08656e-20 -0 3.04328e-20)
(-4.96328e-22 0.184795 -0 9.92655e-22 -0 -4.96328e-22)
(3.49866e-20 0.172181 -0 -6.99732e-20 -0 3.49866e-20)
(-6.15974e-21 0.173822 -0 1.23195e-20 -0 -6.15974e-21)
(3.80751e-20 0.161146 -0 -7.61502e-20 -0 3.80751e-20)
(-1.00816e-20 0.162676 -0 2.01632e-20 -0 -1.00816e-20)
(4.01503e-20 0.150106 -0 -8.03005e-20 -0 4.01503e-20)
(-1.24264e-20 0.151526 -0 2.48528e-20 -0 -1.24264e-20)
(4.2517e-20 0.0722993 -0 -8.50339e-20 -0 4.2517e-20)
(-1.17967e-20 0.0729826 -0 2.35934e-20 -0 -1.17967e-20)
)
;

boundaryField
{
    inlet
    {
        type            cyclic;
    }
    outlet
    {
        type            cyclic;
    }
    bottom
    {
        type            symmetry;
    }
    top
    {
        type            calculated;
        value           nonuniform List<symmTensor> 2((2.00731e-21 -0.0356484 -0 -4.01461e-21 -0 2.00731e-21) (-9.3343e-21 -0.0437833 -0 1.86686e-20 -0 -9.3343e-21));
    }
    frontAndBack
    {
        type            empty;
    }
}


// ************************************************************************* //
