/*--------------------------------*- C++ -*----------------------------------*\
  =========                 |
  \\      /  F ield         | OpenFOAM: The Open Source CFD Toolbox
   \\    /   O peration     | Website:  https://openfoam.org
    \\  /    A nd           | Version:  7
     \\/     M anipulation  |
\*---------------------------------------------------------------------------*/
FoamFile
{
    version     2.0;
    format      ascii;
    class       volScalarField;
    location    "100";
    object      k;
}
// * * * * * * * * * * * * * * * * * * * * * * * * * * * * * * * * * * * * * //

dimensions      [0 2 -2 0 0 0 0];

internalField   nonuniform List<scalar> 
180
(
0.108358
0.253202
0.111591
0.140457
0.101053
0.108341
0.0918884
0.0932048
0.0846075
0.0842688
0.0797125
0.079187
0.0774414
0.0771093
0.0775938
0.0774832
0.0797831
0.0798305
0.0835981
0.0837427
0.088699
0.0889042
0.094843
0.0950917
0.101871
0.102158
0.109687
0.110012
0.118232
0.118599
0.127478
0.127889
0.137407
0.137868
0.148014
0.148528
0.159296
0.159869
0.171252
0.171888
0.183881
0.184586
0.19718
0.197959
0.211144
0.212002
0.225765
0.226709
0.241033
0.242071
0.25712
0.25827
0.274458
0.275744
0.293225
0.294654
0.313092
0.314667
0.33362
0.335344
0.354399
0.356275
0.375124
0.377156
0.39565
0.397844
0.41597
0.418331
0.436141
0.438675
0.456237
0.458952
0.476323
0.479226
0.496446
0.499544
0.516628
0.519931
0.536873
0.540387
0.557166
0.560898
0.577477
0.581433
0.597766
0.601953
0.61799
0.622413
0.638099
0.642763
0.658045
0.662953
0.677778
0.682934
0.697249
0.702656
0.716408
0.722068
0.735206
0.741119
0.753592
0.759758
0.771511
0.777929
0.788908
0.795578
0.805727
0.812644
0.821907
0.829067
0.837386
0.844784
0.8521
0.85973
0.865982
0.873835
0.878964
0.887031
0.890977
0.899248
0.901951
0.910414
0.911822
0.920463
0.920532
0.929337
0.928045
0.936996
0.934355
0.943435
0.939506
0.948693
0.943591
0.952864
0.946739
0.956079
0.949071
0.958462
0.950642
0.960075
0.951453
0.960918
0.951514
0.961001
0.950843
0.960342
0.949467
0.958968
0.947423
0.956917
0.944757
0.954235
0.941526
0.950979
0.937795
0.947215
0.933638
0.94302
0.929141
0.938478
0.924397
0.933683
0.919506
0.928739
0.914577
0.923755
0.909724
0.918847
0.905066
0.914136
0.900726
0.909748
0.896828
0.905805
0.893494
0.902433
0.89084
0.89975
0.888976
0.897866
)
;

boundaryField
{
    inlet
    {
        type            cyclic;
    }
    outlet
    {
        type            cyclic;
    }
    bottom
    {
        type            symmetry;
    }
    top
    {
        type            kqRWallFunction;
        value           nonuniform List<scalar> 2(0.108358 0.253202);
    }
    frontAndBack
    {
        type            empty;
    }
}


// ************************************************************************* //
