/*--------------------------------*- C++ -*----------------------------------*\
  =========                 |
  \\      /  F ield         | OpenFOAM: The Open Source CFD Toolbox
   \\    /   O peration     | Website:  https://openfoam.org
    \\  /    A nd           | Version:  7
     \\/     M anipulation  |
\*---------------------------------------------------------------------------*/
FoamFile
{
    version     2.0;
    format      ascii;
    class       volScalarField;
    location    "100";
    object      nut;
}
// * * * * * * * * * * * * * * * * * * * * * * * * * * * * * * * * * * * * * //

dimensions      [0 2 -1 0 0 0 0];

internalField   nonuniform List<scalar> 
180
(
1.64391e-05
3.84912e-05
6.98816e-05
0.000101725
0.000118181
0.00015294
0.000173638
0.000208803
0.000236158
0.000272326
0.000308653
0.000336757
0.000395206
0.000415947
0.000496981
0.000511452
0.000612696
0.000622288
0.000739256
0.000745473
0.000872839
0.000877029
0.00100975
0.00101293
0.00114685
0.00114967
0.00128172
0.00128454
0.00141264
0.00141563
0.00153849
0.00154171
0.00165865
0.00166212
0.00177291
0.00177663
0.00188132
0.00188529
0.00198416
0.00198837
0.00208183
0.00208627
0.00217478
0.00217945
0.00226352
0.00226842
0.00234854
0.00235367
0.00243032
0.00243568
0.00244446
0.0024456
0.00236534
0.002366
0.00230149
0.00230312
0.00228784
0.0022907
0.00232422
0.00232819
0.00239806
0.00240295
0.0024944
0.00250003
0.00260043
0.00260665
0.00270724
0.00271393
0.00280976
0.00281683
0.00290584
0.00291324
0.00299531
0.00300302
0.00307911
0.00308713
0.00315869
0.00316702
0.00323554
0.00324422
0.00331098
0.00332004
0.003386
0.00339544
0.00346119
0.00347104
0.0035368
0.00354707
0.0036128
0.00362349
0.00368897
0.00370006
0.00376496
0.00377645
0.0038404
0.00385227
0.00391494
0.00392717
0.00398827
0.00400086
0.00406016
0.00407309
0.00413044
0.0041437
0.004199
0.00421258
0.00426577
0.00427967
0.00433076
0.00434498
0.00439408
0.00440859
0.00445598
0.00447079
0.00451706
0.00453212
0.00457843
0.00459369
0.00464212
0.00465751
0.00471157
0.00472698
0.00479229
0.00480756
0.00489237
0.00490731
0.00502229
0.00503673
0.00519253
0.00520648
0.00540509
0.00541949
0.00563044
0.00564873
0.00576521
0.00579365
0.00579634
0.00582507
0.00582396
0.00585295
0.00584812
0.00587735
0.0058689
0.00589832
0.00588639
0.00591599
0.00590071
0.00593045
0.005912
0.00594186
0.00592043
0.00595038
0.00592619
0.00595621
0.00592949
0.00595955
0.00593058
0.00596066
0.00592971
0.0059598
0.00592717
0.00595725
0.00592327
0.00595333
0.00591833
0.00594835
0.00591269
0.00594267
0.0059067
0.00593664
0.00590073
0.00593063
0.00589514
0.00592499
0.00589029
0.00592012
0.0058866
0.00591639
0.00588448
0.00591425
)
;

boundaryField
{
    inlet
    {
        type            cyclic;
    }
    outlet
    {
        type            cyclic;
    }
    bottom
    {
        type            symmetry;
    }
    top
    {
        type            nutkWallFunction;
        Cmu             0.09;
        kappa           0.41;
        E               9.8;
        value           nonuniform List<scalar> 2(0 2.52799e-06);
    }
    frontAndBack
    {
        type            empty;
    }
}


// ************************************************************************* //
