/*--------------------------------*- C++ -*----------------------------------*\
  =========                 |
  \\      /  F ield         | OpenFOAM: The Open Source CFD Toolbox
   \\    /   O peration     | Website:  https://openfoam.org
    \\  /    A nd           | Version:  7
     \\/     M anipulation  |
\*---------------------------------------------------------------------------*/
FoamFile
{
    version     2.0;
    format      ascii;
    class       volScalarField;
    location    "100";
    object      omega;
}
// * * * * * * * * * * * * * * * * * * * * * * * * * * * * * * * * * * * * * //

dimensions      [0 0 -1 0 0 0 0];

internalField   nonuniform List<scalar> 
180
(
4028.97
2592
1596.85
1101.23
855.072
631.978
529.195
426.002
358.266
309.441
258.259
235.146
195.952
185.383
156.13
151.496
130.217
128.285
113.084
112.335
101.621
101.37
93.9275
93.8783
88.8273
88.8589
85.5776
85.6431
83.6959
83.7783
82.8589
82.9527
82.8425
82.9467
83.4865
83.6011
84.6724
84.7979
86.3095
86.4468
88.3268
88.4765
90.6666
90.8295
93.2811
93.4581
96.1297
96.3216
99.1775
99.3853
102.428
102.655
105.917
106.165
109.579
109.843
113.257
113.533
116.851
117.138
120.293
120.59
123.53
123.839
126.546
126.867
129.359
129.693
132.004
132.353
134.512
134.876
136.907
137.287
139.205
139.602
141.415
141.831
143.543
143.977
145.587
146.041
147.546
148.02
149.417
149.911
151.197
151.711
152.882
153.416
154.471
155.025
155.961
156.536
157.353
157.948
158.647
159.262
159.842
160.476
160.938
161.591
161.936
162.606
162.834
163.522
163.633
164.338
164.332
165.051
164.928
165.662
165.421
166.169
165.808
166.568
166.087
166.858
166.255
167.037
166.313
167.103
166.26
167.057
166.101
166.904
165.845
166.651
165.507
166.315
165.108
165.917
164.673
165.481
164.216
165.022
163.736
164.541
163.229
164.033
162.694
163.495
162.128
162.928
161.532
162.33
160.907
161.702
160.254
161.047
159.576
160.365
158.875
159.662
158.158
158.941
157.428
158.207
156.693
157.468
155.959
156.731
155.236
156.003
154.533
155.296
153.859
154.618
153.227
153.982
152.647
153.398
152.13
152.879
151.689
152.435
151.334
152.078
151.071
151.814
)
;

boundaryField
{
    inlet
    {
        type            cyclic;
    }
    outlet
    {
        type            cyclic;
    }
    bottom
    {
        type            symmetry;
    }
    top
    {
        beta1           0.075;
        blended         0;
        type            omegaWallFunction;
        value           nonuniform List<scalar> 2(4028.97 2592);
    }
    frontAndBack
    {
        type            empty;
    }
}


// ************************************************************************* //
