/*--------------------------------*- C++ -*----------------------------------*\
  =========                 |
  \\      /  F ield         | OpenFOAM: The Open Source CFD Toolbox
   \\    /   O peration     | Website:  https://openfoam.org
    \\  /    A nd           | Version:  7
     \\/     M anipulation  |
\*---------------------------------------------------------------------------*/
FoamFile
{
    version     2.0;
    format      ascii;
    class       volScalarField;
    location    "100";
    object      p;
}
// * * * * * * * * * * * * * * * * * * * * * * * * * * * * * * * * * * * * * //

dimensions      [0 2 -2 0 0 0 0];

internalField   nonuniform List<scalar> 
180
(
2.9141e-20
2.72163e-16
1.25239e-19
2.72183e-16
1.00213e-19
2.72189e-16
9.39846e-20
2.72147e-16
8.15098e-20
2.72243e-16
6.2794e-20
2.72225e-16
1.02273e-19
2.72206e-16
1.47722e-19
2.72184e-16
1.98359e-19
2.72161e-16
2.56945e-19
2.72136e-16
3.2155e-19
2.7211e-16
3.94996e-19
2.72082e-16
6.5872e-19
2.72053e-16
7.46608e-19
2.72023e-16
1.47929e-19
2.72224e-16
5.00716e-19
2.72194e-16
6.04213e-19
2.72164e-16
7.15097e-19
2.72135e-16
8.27547e-19
2.72106e-16
9.46659e-19
2.72079e-16
1.06605e-18
2.72053e-16
1.19162e-18
2.72028e-16
1.31644e-18
2.72006e-16
1.44694e-18
2.71984e-16
1.57548e-18
2.71966e-16
1.70718e-18
2.71949e-16
1.83156e-18
2.71935e-16
1.95439e-18
2.72326e-16
2.4651e-18
2.72318e-16
2.58179e-18
2.72312e-16
2.69449e-18
2.72309e-16
2.39286e-18
2.72308e-16
2.50896e-18
2.72311e-16
2.6322e-18
2.72316e-16
2.75307e-18
2.72324e-16
2.39069e-18
2.72334e-16
2.51547e-18
2.72349e-16
2.64734e-18
2.72365e-16
2.77505e-18
2.72386e-16
2.90986e-18
2.72408e-16
3.04005e-18
2.72435e-16
3.17727e-18
2.72464e-16
3.30965e-18
2.72498e-16
3.44913e-18
2.72533e-16
2.96733e-18
2.72573e-16
3.10865e-18
2.72615e-16
3.24542e-18
2.72662e-16
3.38826e-18
2.72711e-16
3.52707e-18
2.72766e-16
3.67139e-18
2.72822e-16
3.81208e-18
2.72883e-16
3.95799e-18
2.72946e-16
4.1003e-18
2.72654e-16
4.24779e-18
2.72725e-16
4.39122e-18
2.728e-16
4.54006e-18
2.725e-16
4.6842e-18
2.72199e-16
5.2216e-18
2.72284e-16
5.36599e-18
2.72374e-16
5.51538e-18
2.72066e-16
5.6603e-18
2.72163e-16
5.81014e-18
2.71851e-16
5.53718e-18
2.71536e-16
5.68946e-18
2.71646e-16
5.84009e-18
2.71763e-16
5.99842e-18
2.71885e-16
6.1566e-18
2.71777e-16
6.32233e-18
2.71666e-16
6.2352e-18
2.71808e-16
6.40125e-18
2.71953e-16
6.56201e-18
2.71848e-16
6.72553e-18
2.71489e-16
6.75668e-18
2.71387e-16
6.91699e-18
2.71416e-16
7.07262e-18
2.71319e-16
7.10135e-18
2.71223e-16
7.12578e-18
2.7126e-16
7.15051e-18
2.71233e-16
7.17155e-18
2.7121e-16
7.16031e-18
2.71221e-16
7.16199e-18
2.71219e-16
7.14682e-18
2.71215e-16
7.16104e-18
2.71197e-16
7.17398e-18
2.71246e-16
7.18455e-18
2.71234e-16
7.19343e-18
2.71223e-16
7.20009e-18
2.71216e-16
7.20473e-18
2.7121e-16
7.20726e-18
2.71208e-16
7.20762e-18
2.71207e-16
)
;

boundaryField
{
    inlet
    {
        type            cyclic;
    }
    outlet
    {
        type            cyclic;
    }
    bottom
    {
        type            symmetry;
    }
    top
    {
        type            zeroGradient;
    }
    frontAndBack
    {
        type            empty;
    }
}


// ************************************************************************* //
