/*--------------------------------*- C++ -*----------------------------------*\
  =========                 |
  \\      /  F ield         | OpenFOAM: The Open Source CFD Toolbox
   \\    /   O peration     | Website:  https://openfoam.org
    \\  /    A nd           | Version:  7
     \\/     M anipulation  |
\*---------------------------------------------------------------------------*/
FoamFile
{
    version     2.0;
    format      ascii;
    class       surfaceScalarField;
    location    "100";
    object      phi;
}
// * * * * * * * * * * * * * * * * * * * * * * * * * * * * * * * * * * * * * //

dimensions      [0 3 -1 0 0 0 0];

internalField   nonuniform List<scalar> 
268
(
0.00217886
-6.76647e-19
-1.45176e-19
0.00286131
-8.88801e-20
-6.60544e-20
0.00319873
1.39494e-19
-1.57925e-19
0.00340942
8.96803e-20
-4.10681e-19
0.00354885
-1.22446e-19
1.39029e-19
0.00364389
-4.22218e-19
2.5723e-19
0.00370866
-2.73277e-19
-4.51601e-20
0.00375157
-7.96516e-20
2.23119e-20
0.00377864
-2.15283e-19
5.33829e-20
0.00379419
-2.85938e-19
4.58593e-20
0.00380124
-3.02309e-19
1.5743e-20
0.00380184
-3.20002e-19
-3.10042e-20
0.00379738
-2.37123e-19
-6.48996e-20
0.00378878
-6.11254e-20
2.59212e-19
0.00377668
-2.6735e-19
-5.00241e-20
0.0037615
-2.31766e-19
-1.02204e-20
0.00374354
-2.56459e-19
3.35288e-20
0.003723
-2.59807e-19
6.01325e-20
0.00370003
-2.65252e-19
7.46289e-20
0.00367473
-2.61076e-19
7.73069e-20
0.00364719
-2.62996e-19
7.36971e-20
0.00361747
-2.57635e-19
6.11346e-20
0.00358562
-2.60718e-19
4.32402e-20
0.0035517
-2.58178e-19
1.45406e-20
0.00351574
-2.64735e-19
-1.73813e-20
0.00347728
-2.6479e-19
-4.74726e-20
0.00343507
-2.62559e-19
-1.13616e-19
0.00338827
-2.81402e-19
-7.03101e-20
0.00333734
-1.90376e-19
-6.27292e-20
0.00328332
-1.32109e-19
-5.18454e-20
0.00322728
-3.98884e-20
-3.85956e-20
0.00317002
-5.31869e-20
-3.05517e-20
0.00311199
-3.70486e-20
-2.18876e-20
0.00305338
-2.46569e-20
-1.79743e-20
0.00299419
1.41875e-20
-1.4188e-20
0.00293437
-4.60078e-20
-1.50698e-20
0.00287381
-7.27312e-20
-1.57242e-20
0.00281243
-8.79936e-20
-2.01836e-20
0.00275018
-1.04443e-19
-2.30666e-20
0.00268701
-1.03983e-19
-2.69882e-20
0.00262292
-1.00409e-19
-2.68369e-20
0.00255795
-8.10698e-20
-2.61995e-20
0.00249211
-7.4994e-20
-2.17186e-20
0.00242548
-2.27984e-20
-1.69836e-20
0.00235808
-8.05126e-20
-8.23258e-21
0.00228999
-9.25989e-20
2.4774e-21
0.00222123
-1.11204e-19
2.05739e-20
0.00215187
-1.11044e-19
4.13368e-20
0.00208193
-1.01892e-19
6.27224e-20
0.00201145
-6.6279e-20
8.53873e-20
0.00194046
-2.67424e-20
1.1482e-19
0.00186899
-1.78647e-19
1.651e-19
0.00179708
-1.40924e-19
1.70247e-19
0.00172475
-1.09036e-19
1.92069e-19
0.00165204
-1.05365e-19
2.27907e-19
0.001579
-1.09148e-19
2.31647e-19
0.00150567
-1.47466e-19
2.1097e-19
0.00143209
-1.42478e-19
2.05851e-19
0.00135835
-1.69727e-19
2.21984e-19
0.00128453
4.72609e-21
1.90971e-19
0.00121078
-1.81584e-20
2.00355e-19
0.0011373
-6.67653e-21
1.75096e-19
0.0010644
-3.47477e-20
1.20014e-19
0.000992483
-2.91804e-20
8.80813e-20
0.000922104
-2.69188e-20
6.36515e-20
0.000853849
-1.21216e-19
5.52948e-20
0.000788126
-1.25343e-19
4.31111e-20
0.000724647
-2.19972e-20
2.60538e-20
0.000662375
-4.85086e-20
2.94208e-20
0.000600714
-6.64035e-20
4.9193e-20
0.000539742
-9.00723e-20
6.85877e-20
0.00047954
-5.44182e-20
5.93795e-20
0.000420191
-7.78526e-20
5.05504e-20
0.000361784
-8.83944e-20
5.06525e-20
0.000304409
-4.27905e-20
4.73426e-20
0.000248159
-4.50364e-20
1.48614e-20
0.000193131
-4.54325e-20
1.55431e-20
0.000139424
-4.10899e-20
1.36272e-20
8.71397e-05
-3.57861e-20
1.10748e-20
3.63817e-05
-3.4997e-20
1.08221e-20
-1.27451e-05
-3.50017e-20
9.62389e-21
-6.01349e-05
-3.40423e-20
4.67905e-21
-0.000105683
-3.2403e-20
2.48064e-21
-0.000149285
-2.96892e-20
5.4212e-21
-0.000190843
-2.63472e-20
5.77909e-21
-0.000230267
-2.19791e-20
5.68039e-21
-0.000267479
-1.70729e-20
4.82752e-21
-0.000302422
-1.17086e-20
3.41335e-21
-0.000335063
-6.02766e-21
1.65656e-21
-0.000365414
)
;

boundaryField
{
    inlet
    {
        type            cyclic;
        value           nonuniform List<scalar> 
90
(
-0.00217886
-0.00286131
-0.00319873
-0.00340942
-0.00354885
-0.00364389
-0.00370866
-0.00375157
-0.00377864
-0.00379419
-0.00380124
-0.00380184
-0.00379738
-0.00378878
-0.00377668
-0.0037615
-0.00374354
-0.003723
-0.00370003
-0.00367473
-0.00364719
-0.00361747
-0.00358562
-0.0035517
-0.00351574
-0.00347728
-0.00343507
-0.00338827
-0.00333734
-0.00328332
-0.00322728
-0.00317002
-0.00311199
-0.00305338
-0.00299419
-0.00293437
-0.00287381
-0.00281243
-0.00275018
-0.00268701
-0.00262292
-0.00255795
-0.00249211
-0.00242548
-0.00235808
-0.00228999
-0.00222123
-0.00215187
-0.00208193
-0.00201145
-0.00194046
-0.00186899
-0.00179708
-0.00172475
-0.00165204
-0.001579
-0.00150567
-0.00143209
-0.00135835
-0.00128453
-0.00121078
-0.0011373
-0.0010644
-0.000992483
-0.000922104
-0.000853849
-0.000788126
-0.000724647
-0.000662375
-0.000600714
-0.000539742
-0.00047954
-0.000420191
-0.000361784
-0.000304409
-0.000248159
-0.000193131
-0.000139424
-8.71397e-05
-3.63817e-05
1.27451e-05
6.01349e-05
0.000105683
0.000149285
0.000190843
0.000230267
0.000267479
0.000302422
0.000335063
0.000365414
)
;
    }
    outlet
    {
        type            cyclic;
        value           nonuniform List<scalar> 
90
(
0.00217886
0.00286131
0.00319873
0.00340942
0.00354885
0.00364389
0.00370866
0.00375157
0.00377864
0.00379419
0.00380124
0.00380184
0.00379738
0.00378878
0.00377668
0.0037615
0.00374354
0.003723
0.00370003
0.00367473
0.00364719
0.00361747
0.00358562
0.0035517
0.00351574
0.00347728
0.00343507
0.00338827
0.00333734
0.00328332
0.00322728
0.00317002
0.00311199
0.00305338
0.00299419
0.00293437
0.00287381
0.00281243
0.00275018
0.00268701
0.00262292
0.00255795
0.00249211
0.00242548
0.00235808
0.00228999
0.00222123
0.00215187
0.00208193
0.00201145
0.00194046
0.00186899
0.00179708
0.00172475
0.00165204
0.001579
0.00150567
0.00143209
0.00135835
0.00128453
0.00121078
0.0011373
0.0010644
0.000992483
0.000922104
0.000853849
0.000788126
0.000724647
0.000662375
0.000600714
0.000539742
0.00047954
0.000420191
0.000361784
0.000304409
0.000248159
0.000193131
0.000139424
8.71397e-05
3.63817e-05
-1.27451e-05
-6.01349e-05
-0.000105683
-0.000149285
-0.000190843
-0.000230267
-0.000267479
-0.000302422
-0.000335063
-0.000365414
)
;
    }
    bottom
    {
        type            symmetry;
        value           uniform 0;
    }
    top
    {
        type            calculated;
        value           uniform 0;
    }
    frontAndBack
    {
        type            empty;
        value           nonuniform 0();
    }
}


// ************************************************************************* //
