/*--------------------------------*- C++ -*----------------------------------*\
  =========                 |
  \\      /  F ield         | OpenFOAM: The Open Source CFD Toolbox
   \\    /   O peration     | Website:  https://openfoam.org
    \\  /    A nd           | Version:  7
     \\/     M anipulation  |
\*---------------------------------------------------------------------------*/
FoamFile
{
    version     2.0;
    format      ascii;
    class       volVectorField;
    location    "100";
    object      U;
}
// * * * * * * * * * * * * * * * * * * * * * * * * * * * * * * * * * * * * * //

dimensions      [0 1 -1 0 0 0 0];

internalField   nonuniform List<vector> 
180
(
(1.98047 1.67276e-19 0)
(1.94158 -6.20896e-19 0)
(2.56035 -1.19636e-18 0)
(2.59005 5.94019e-20 0)
(2.86498 1.31817e-19 0)
(2.89276 -3.09204e-19 0)
(3.05892 3.67398e-19 0)
(3.07805 -6.77913e-19 0)
(3.18767 -7.17726e-21 0)
(3.20026 -2.12993e-19 0)
(3.27559 -5.45891e-19 0)
(3.28343 4.04257e-19 0)
(3.33564 -6.64806e-19 0)
(3.33996 1.79131e-19 0)
(3.37537 -3.34311e-19 0)
(3.37746 -3.84671e-21 0)
(3.40038 -3.23135e-19 0)
(3.40119 9.44874e-20 0)
(3.41472 -5.31687e-19 0)
(3.41483 1.14894e-19 0)
(3.42124 -6.1663e-19 0)
(3.42099 7.01891e-20 0)
(3.42188 -6.4172e-19 0)
(3.42144 -1.00325e-20 0)
(3.41791 -5.37526e-19 0)
(3.41737 -1.12685e-19 0)
(3.41021 -2.89416e-19 0)
(3.4096 1.9652e-19 0)
(3.39935 -3.26671e-19 0)
(3.39868 1.82129e-19 0)
(3.38571 -4.83039e-19 0)
(3.38499 -7.02917e-20 0)
(3.36957 -4.99498e-19 0)
(3.3688 3.05861e-20 0)
(3.35112 -5.18911e-19 0)
(3.35029 1.01723e-19 0)
(3.33047 -5.26607e-19 0)
(3.32958 1.40209e-19 0)
(3.30773 -5.26907e-19 0)
(3.30679 1.56348e-19 0)
(3.28298 -5.24243e-19 0)
(3.28197 1.54677e-19 0)
(3.25627 -5.20076e-19 0)
(3.25518 1.37903e-19 0)
(3.22764 -5.17499e-19 0)
(3.22648 1.08712e-19 0)
(3.19715 -5.17552e-19 0)
(3.19591 6.18483e-20 0)
(3.16483 -5.21287e-19 0)
(3.1635 -1.62809e-21 0)
(3.13028 -5.28231e-19 0)
(3.12883 -7.0737e-20 0)
(3.09237 -5.37549e-19 0)
(3.09075 -1.66218e-19 0)
(3.05034 -5.55129e-19 0)
(3.04854 -1.90872e-19 0)
(3.0046 -4.80477e-19 0)
(3.00262 -1.37852e-19 0)
(2.95607 -3.2395e-19 0)
(2.95391 -1.1549e-19 0)
(2.90572 -1.62889e-19 0)
(2.90339 -8.89373e-20 0)
(2.85426 -8.8845e-20 0)
(2.85177 -6.80192e-20 0)
(2.80212 -8.36914e-20 0)
(2.79947 -5.15355e-20 0)
(2.74945 -5.53742e-20 0)
(2.74663 -3.85706e-20 0)
(2.69627 -2.12137e-21 0)
(2.69328 -3.09063e-20 0)
(2.64252 -3.00766e-20 0)
(2.63935 -2.82698e-20 0)
(2.58811 -1.14617e-19 0)
(2.58475 -2.98067e-20 0)
(2.53297 -1.6702e-19 0)
(2.52942 -3.53064e-20 0)
(2.47704 -1.94044e-19 0)
(2.47328 -4.33901e-20 0)
(2.42029 -2.14545e-19 0)
(2.41632 -5.0905e-20 0)
(2.36273 -2.10283e-19 0)
(2.35853 -5.51727e-20 0)
(2.30437 -1.82489e-19 0)
(2.29994 -5.40391e-20 0)
(2.24524 -1.50491e-19 0)
(2.24057 -4.89972e-20 0)
(2.18539 -9.33887e-20 0)
(2.18047 -3.9638e-20 0)
(2.12487 -9.99324e-20 0)
(2.11968 -2.66018e-20 0)
(2.06371 -1.67912e-19 0)
(2.05826 -8.04169e-21 0)
(2.00198 -2.09546e-19 0)
(1.99624 1.96217e-20 0)
(1.93969 -2.28666e-19 0)
(1.93367 6.09687e-20 0)
(1.87689 -2.21612e-19 0)
(1.87058 1.06053e-19 0)
(1.81361 -1.80191e-19 0)
(1.80699 1.43127e-19 0)
(1.74988 -9.03951e-20 0)
(1.74295 2.00111e-19 0)
(1.68572 -2.06626e-19 0)
(1.67846 2.80663e-19 0)
(1.62116 -3.21027e-19 0)
(1.61357 3.35394e-19 0)
(1.55624 -2.37059e-19 0)
(1.54831 3.66717e-19 0)
(1.49098 -2.04482e-19 0)
(1.4827 4.26262e-19 0)
(1.42542 -2.11048e-19 0)
(1.41678 4.60953e-19 0)
(1.3596 -2.53969e-19 0)
(1.3506 4.44376e-19 0)
(1.29357 -2.84683e-19 0)
(1.2842 4.20531e-19 0)
(1.22739 -3.13352e-19 0)
(1.21763 4.27262e-19 0)
(1.16115 -1.64792e-19 0)
(1.15101 4.13904e-19 0)
(1.09498 -1.4218e-20 0)
(1.08443 3.96718e-19 0)
(1.02905 -3.11104e-20 0)
(1.0181 3.81059e-19 0)
(0.963642 -4.58014e-20 0)
(0.952273 2.97814e-19 0)
(0.899133 -6.6994e-20 0)
(0.887337 2.03577e-19 0)
(0.836009 -5.43822e-20 0)
(0.823778 1.49936e-19 0)
(0.774798 -1.48283e-19 0)
(0.76213 1.15534e-19 0)
(0.715855 -2.44329e-19 0)
(0.702772 9.50155e-20 0)
(0.658896 -1.41748e-19 0)
(0.645469 6.49426e-20 0)
(0.602998 -6.72113e-20 0)
(0.589278 5.08527e-20 0)
(0.547649 -1.11834e-19 0)
(0.533637 7.72529e-20 0)
(0.492918 -1.57171e-19 0)
(0.478618 1.20121e-19 0)
(0.438878 -1.45513e-19 0)
(0.424294 1.31365e-19 0)
(0.385605 -1.34761e-19 0)
(0.370741 1.12193e-19 0)
(0.333175 -1.68366e-19 0)
(0.318037 1.00608e-19 0)
(0.281672 -1.33458e-19 0)
(0.266265 9.68857e-20 0)
(0.231178 -8.96398e-20 0)
(0.215509 6.21531e-20 0)
(0.181779 -9.24355e-20 0)
(0.165857 3.0274e-20 0)
(0.133566 -8.76336e-20 0)
(0.117398 2.87893e-20 0)
(0.0866283 -7.68247e-20 0)
(0.0702238 2.46375e-20 0)
(0.0410592 -7.01933e-20 0)
(0.0244286 2.14477e-20 0)
(-0.00304741 -6.93949e-20 0)
(-0.019893 2.0049e-20 0)
(-0.0455965 -6.88394e-20 0)
(-0.0626456 1.41772e-20 0)
(-0.0864932 -6.65634e-20 0)
(-0.103735 7.37548e-21 0)
(-0.125645 -6.25741e-20 0)
(-0.143067 7.91216e-21 0)
(-0.162962 -5.64766e-20 0)
(-0.180555 1.11196e-20 0)
(-0.198363 -4.86856e-20 0)
(-0.216116 1.19122e-20 0)
(-0.231779 -3.93142e-20 0)
(-0.249682 1.08411e-20 0)
(-0.263158 -2.89364e-20 0)
(-0.2812 8.4526e-21 0)
(-0.292472 -1.78039e-20 0)
(-0.310642 5.17421e-21 0)
(-0.319728 -6.23953e-21 0)
(-0.338018 1.4633e-21 0)
)
;

boundaryField
{
    inlet
    {
        type            cyclic;
    }
    outlet
    {
        type            cyclic;
    }
    bottom
    {
        type            symmetry;
    }
    top
    {
        type            noSlip;
    }
    frontAndBack
    {
        type            empty;
    }
}


// ************************************************************************* //
