/*--------------------------------*- C++ -*----------------------------------*\
  =========                 |
  \\      /  F ield         | OpenFOAM: The Open Source CFD Toolbox
   \\    /   O peration     | Website:  https://openfoam.org
    \\  /    A nd           | Version:  7
     \\/     M anipulation  |
\*---------------------------------------------------------------------------*/
FoamFile
{
    version     2.0;
    format      ascii;
    class       volScalarField;
    location    "50";
    object      k;
}
// * * * * * * * * * * * * * * * * * * * * * * * * * * * * * * * * * * * * * //

dimensions      [0 2 -2 0 0 0 0];

internalField   nonuniform List<scalar> 
12842
(
0.00569343
0.00511647
0.0047342
0.00448643
0.00430153
0.00418548
0.00410735
0.00403837
0.00399744
0.00395901
0.00393966
0.0039204
0.00392228
0.00393375
0.00395563
0.00397676
0.00401101
0.00403536
0.00407241
0.0041053
0.00413943
0.00417083
0.00420395
0.00565303
0.00508086
0.00472139
0.00448389
0.00430066
0.0041695
0.00409386
0.00403253
0.00399457
0.0039573
0.0039394
0.0039194
0.00392157
0.00393464
0.00395841
0.00398074
0.00401749
0.00404238
0.00408149
0.00411535
0.00415115
0.00418312
0.00422189
0.00563397
0.00499407
0.00464471
0.00443456
0.00426955
0.00415316
0.0040698
0.00401184
0.00398234
0.00394827
0.00393511
0.00391815
0.00392126
0.00393759
0.00396613
0.00400479
0.00404814
0.004076
0.00412339
0.004161
0.00420699
0.00423836
0.00427724
0.00558515
0.00496869
0.00458878
0.0044044
0.00424206
0.00413078
0.00405501
0.00400229
0.00397109
0.00394218
0.0039305
0.00391601
0.0039206
0.00393985
0.00397008
0.00401164
0.00407061
0.00410602
0.00416383
0.00422037
0.00429051
0.00435649
0.00441081
0.00553579
0.00487686
0.00453475
0.00433354
0.0042071
0.00411002
0.00402766
0.00398343
0.0039579
0.00393375
0.0039256
0.00391417
0.00392012
0.00394401
0.00398151
0.00403524
0.00411939
0.00418522
0.00425901
0.00432183
0.00440225
0.00451307
0.00459916
0.00549018
0.00483863
0.00448562
0.00430607
0.00416776
0.00408351
0.00401277
0.00397319
0.0039486
0.00392662
0.00392113
0.00391291
0.00392004
0.00394976
0.00399625
0.0040507
0.00415088
0.00424395
0.00434187
0.00444424
0.00453258
0.0046719
0.00478738
0.00543819
0.00475869
0.00442772
0.0042486
0.00413808
0.0040591
0.00398527
0.00395511
0.00393492
0.00391903
0.00391545
0.00391016
0.00391943
0.00396118
0.00402386
0.00410444
0.00422944
0.00434827
0.00446385
0.00459585
0.00470072
0.00486963
0.00500732
0.0053891
0.00472448
0.0043984
0.00422509
0.00411472
0.00403954
0.00397371
0.00394395
0.00392346
0.00391295
0.00391049
0.00390869
0.00391976
0.00396867
0.00405657
0.00417363
0.00430823
0.00444942
0.0045872
0.00475401
0.00486686
0.00505334
0.00521338
0.00534027
0.00465623
0.00434188
0.00417917
0.00408327
0.00401901
0.00395634
0.00393083
0.00391217
0.00390672
0.00390721
0.00390655
0.00392713
0.00399576
0.00411347
0.00427782
0.00442759
0.004596
0.00474858
0.00494766
0.0050827
0.00527765
0.00544775
0.00528371
0.00462576
0.00431903
0.00416011
0.00407013
0.00400348
0.00394654
0.00392149
0.00390617
0.00390116
0.00390349
0.00390935
0.00394883
0.00404643
0.00418492
0.00438722
0.00455057
0.00474227
0.00490575
0.00511703
0.00526517
0.00546934
0.00563071
0.00522724
0.00456077
0.00427275
0.00412317
0.0040426
0.00398769
0.00393581
0.00391264
0.00389805
0.00389625
0.00389688
0.00391284
0.00398261
0.00410628
0.00427196
0.00450677
0.0046833
0.00489542
0.00506694
0.00528699
0.00544055
0.00564705
0.00580927
0.00517405
0.00452862
0.00425008
0.00410693
0.00403046
0.00397407
0.00392689
0.00390198
0.00389081
0.00389317
0.00389675
0.00393188
0.0040339
0.00419252
0.00438417
0.00464721
0.00483519
0.00505976
0.00523673
0.00546048
0.00561815
0.00582148
0.00597046
0.00511845
0.00447577
0.00421532
0.00407661
0.00400695
0.0039577
0.00391659
0.00389105
0.00388371
0.00388595
0.00390447
0.00397403
0.00409889
0.00428862
0.00451324
0.00479322
0.00499156
0.00522642
0.00540375
0.00562519
0.00578255
0.00597991
0.00612407
0.00506955
0.00443731
0.00419035
0.00406319
0.00399604
0.00394984
0.00391062
0.00388557
0.00387981
0.00388462
0.00393849
0.00404224
0.00419033
0.00441313
0.00465913
0.00495362
0.00515822
0.00539293
0.00557063
0.00578989
0.00594211
0.00613102
0.00626022
0.00501899
0.00439752
0.00416544
0.00403801
0.00397474
0.0039344
0.00389901
0.00387461
0.00387165
0.00388578
0.00398325
0.00411968
0.00428639
0.00454498
0.00481786
0.00511404
0.00532325
0.00555616
0.00572804
0.00593882
0.00609151
0.00626655
0.00638785
0.00497603
0.00435865
0.00414056
0.00402668
0.0039648
0.00392725
0.0038936
0.00387071
0.00387636
0.00391708
0.00405512
0.00422165
0.00440965
0.00469927
0.00498447
0.00528095
0.00548712
0.00571117
0.00587897
0.00608197
0.00622833
0.00639271
0.00650118
0.00493135
0.00432533
0.00411637
0.00400494
0.00394575
0.00391393
0.00388336
0.00386607
0.00387498
0.00396036
0.00413042
0.00432396
0.00453063
0.00485229
0.00515417
0.00543981
0.00564753
0.00585973
0.00602058
0.00621439
0.0063565
0.00650706
0.00660596
0.00489479
0.00429158
0.00409781
0.00399488
0.00393697
0.0039083
0.00387918
0.00388844
0.00391653
0.00404112
0.00423376
0.00444836
0.00467265
0.00502063
0.00532704
0.00560115
0.00579522
0.00599545
0.00614769
0.0063322
0.00646929
0.00661096
0.00670074
0.00485652
0.0042631
0.00407224
0.00397544
0.00391967
0.00389335
0.00386683
0.00390663
0.00396381
0.00411325
0.00433429
0.00456731
0.00480822
0.00517684
0.00549009
0.00574582
0.00594007
0.0061216
0.00626988
0.00644618
0.00657305
0.00669875
0.00678514
0.00482536
0.00423344
0.00405129
0.00396627
0.00391152
0.00388979
0.00387733
0.00398282
0.00406419
0.0042256
0.00445953
0.00470155
0.00495604
0.00534492
0.00565445
0.00589123
0.00606625
0.00623614
0.00637442
0.0065396
0.00666561
0.00678703
0.00686639
0.004796
0.00420854
0.00403398
0.00394847
0.00389621
0.00388563
0.00387979
0.00403809
0.00413691
0.00432122
0.0045744
0.00482635
0.00509307
0.00549147
0.00580088
0.00601575
0.00618693
0.00633806
0.00647325
0.00663693
0.00674985
0.00685384
0.00693227
0.00477151
0.00418348
0.00400859
0.00393875
0.00389028
0.00391025
0.00393561
0.00414459
0.00426028
0.00445713
0.00471018
0.00496099
0.00523786
0.0056486
0.00594479
0.00613961
0.00629305
0.00643298
0.00656391
0.00671179
0.00682772
0.00693586
0.0070024
0.00474788
0.00415999
0.00399065
0.00392694
0.00387597
0.00395488
0.00399747
0.00422312
0.00435318
0.00456674
0.00482749
0.00508101
0.00536701
0.00578063
0.00607327
0.00624624
0.00639225
0.00651981
0.00664503
0.0067985
0.00690187
0.00698838
0.00705571
0.00472985
0.00413837
0.00397421
0.00391099
0.0038847
0.00405015
0.00411526
0.00435667
0.00450544
0.00472757
0.00497728
0.00522187
0.00551268
0.00592821
0.00619763
0.00634867
0.0064774
0.00659364
0.00671795
0.00685696
0.00695931
0.00705642
0.00711592
0.00471582
0.00412464
0.00396271
0.00390936
0.00392044
0.00414381
0.0042241
0.00446314
0.00462722
0.00485492
0.00509773
0.00533805
0.00563865
0.0060528
0.00631099
0.00644396
0.00656474
0.00667377
0.00679745
0.00693435
0.00703305
0.00710887
0.00715815
0.00470045
0.00410702
0.00394966
0.00393335
0.004007
0.00423914
0.00434469
0.00457648
0.00474823
0.00497869
0.00521297
0.00544928
0.00575537
0.00616784
0.00640354
0.00651896
0.00662608
0.0067325
0.00684897
0.00699249
0.00708186
0.00715213
0.00720199
0.00468545
0.00409177
0.00394028
0.00398836
0.004109
0.00434259
0.00445731
0.00469026
0.00486671
0.00509526
0.00531871
0.00554952
0.00586683
0.00627452
0.00649673
0.00660105
0.00670137
0.00679944
0.0069255
0.00704307
0.00712821
0.00719963
0.00724793
0.00466744
0.00408176
0.00395365
0.00407452
0.00421361
0.00445011
0.00457662
0.00480531
0.00498013
0.00520474
0.00541897
0.00564719
0.00596906
0.00636919
0.00656743
0.00665762
0.00675086
0.00685905
0.00697096
0.00711929
0.00719791
0.00725241
0.00728193
0.00465258
0.00406637
0.00399133
0.00416363
0.00432861
0.00455482
0.00469329
0.00491243
0.00508851
0.00530439
0.005508
0.00573265
0.0060663
0.00645769
0.00664266
0.00672875
0.0068128
0.00691269
0.00704723
0.00716452
0.00724899
0.00728894
0.00732872
0.00463541
0.00405422
0.00403582
0.00426352
0.00443334
0.00466676
0.00480103
0.00501697
0.00518614
0.00539519
0.00559084
0.00581506
0.00615597
0.00653661
0.00669827
0.00677442
0.0068601
0.00697433
0.00708873
0.00723465
0.00731511
0.00737714
0.0076352
0.00461574
0.00405575
0.00410237
0.00436682
0.00454626
0.00476501
0.00491276
0.0051122
0.00527844
0.00547584
0.00566379
0.00588846
0.00624114
0.00660929
0.00676076
0.00684023
0.00692377
0.00703797
0.00718774
0.00733541
0.0074111
0.00762602
0.00878548
0.004599
0.00408006
0.00416394
0.00446848
0.00464778
0.00487053
0.00500574
0.00519792
0.00535841
0.00554707
0.00572893
0.00595599
0.00632055
0.00667865
0.00681229
0.00689172
0.00697978
0.00710741
0.00726074
0.00747603
0.00780973
0.00930731
0.0169083
0.00458861
0.0041381
0.00424551
0.0045722
0.00474787
0.00496246
0.00510083
0.0052806
0.00543011
0.00560979
0.00578779
0.0060189
0.0063958
0.0067386
0.00686631
0.00695185
0.00705842
0.00723077
0.00741416
0.00766041
0.00844645
0.0120707
0.0270767
0.00456887
0.00419636
0.00432868
0.00467195
0.00484467
0.00504801
0.00518156
0.00534551
0.00549448
0.00566328
0.0058373
0.006075
0.0064681
0.00680572
0.00692783
0.00702887
0.00714754
0.00731499
0.00754907
0.00799977
0.00966773
0.0181882
0.0505432
0.00455185
0.00428192
0.00441722
0.00476726
0.00492706
0.00513288
0.00525394
0.00541412
0.00554643
0.00571067
0.00588417
0.00612792
0.00653483
0.00685766
0.00697641
0.00709339
0.00723674
0.0074736
0.00780938
0.00861749
0.0124642
0.027978
0.0758062
0.00455148
0.0043586
0.00451175
0.00485961
0.00501334
0.00520204
0.00532443
0.00546418
0.00559606
0.00574991
0.00592158
0.00617696
0.00660278
0.00692742
0.00705632
0.00719149
0.00735677
0.00764061
0.00806412
0.00963857
0.0169919
0.0431258
0.110219
0.00457204
0.00446032
0.00460732
0.00494394
0.00508462
0.00526564
0.00537964
0.00551468
0.00563539
0.0057851
0.00595839
0.00622115
0.00666426
0.00697954
0.00710866
0.00727903
0.00749994
0.00780924
0.00843401
0.0107349
0.0216597
0.0602741
0.152343
0.00460429
0.00454294
0.00469951
0.00502432
0.00515497
0.00532937
0.00543328
0.00555838
0.00567093
0.00581396
0.00598735
0.00626594
0.0067296
0.0070525
0.00720754
0.0074072
0.00762778
0.00804058
0.00887591
0.0120435
0.0263605
0.073099
0.169412
0.0046441
0.00464914
0.00479387
0.00509763
0.0052161
0.00537644
0.00548563
0.00559208
0.00570236
0.00584031
0.00601597
0.00630453
0.00678898
0.00710768
0.00726318
0.00749647
0.00780078
0.00833605
0.0094589
0.0141341
0.0328589
0.0876517
0.19188
0.00469072
0.0047355
0.0048805
0.00516423
0.00527786
0.00542217
0.00551962
0.00562931
0.00572949
0.00586212
0.00603956
0.006346
0.00685381
0.00718734
0.0073831
0.00768103
0.00804937
0.0087116
0.0104263
0.0175006
0.0423234
0.107215
0.223999
0.00473724
0.00482642
0.00496462
0.00522771
0.00532863
0.00546565
0.0055606
0.00565028
0.00575299
0.00588254
0.00606191
0.00638284
0.0069126
0.0072444
0.00744755
0.00780582
0.00824642
0.00919434
0.0121839
0.024112
0.0601315
0.130803
0.243478
0.00479357
0.00491667
0.00504141
0.00528062
0.00537232
0.00549994
0.00559443
0.00568299
0.00577426
0.00589993
0.00608233
0.00642185
0.00697699
0.00732517
0.00757462
0.00799014
0.00855555
0.0102575
0.0167643
0.038271
0.0894905
0.15474
0.261561
0.0048422
0.00498937
0.00511059
0.00533384
0.00541973
0.00552467
0.00561251
0.00569121
0.00579217
0.00591643
0.0061003
0.00645938
0.00703859
0.00739146
0.00765484
0.00821461
0.00910572
0.0124738
0.0240257
0.0628061
0.11639
0.17269
0.269649
0.0049023
0.00506165
0.00517402
0.00537545
0.00545186
0.0055553
0.00562849
0.00570142
0.00580793
0.005931
0.00611913
0.00649793
0.00709813
0.00745747
0.00778169
0.00846201
0.010075
0.0161543
0.0385073
0.0891794
0.139845
0.189648
0.288228
0.00494569
0.00512445
0.0052267
0.0054166
0.00547346
0.00557281
0.00562859
0.00571673
0.00581968
0.00594476
0.00613422
0.0065369
0.00716512
0.00754055
0.00790946
0.00890716
0.011376
0.0215936
0.0584079
0.118414
0.15962
0.204846
0.329466
0.00500682
0.00517935
0.00527449
0.00544883
0.0054904
0.00558297
0.00563103
0.00572057
0.00583046
0.00595749
0.00615254
0.00657657
0.00721929
0.00758927
0.0080242
0.00938833
0.0136206
0.0341255
0.0838796
0.141296
0.171783
0.236364
0.296871
0.00504233
0.00521369
0.0053116
0.00547775
0.00550448
0.00558729
0.00563471
0.00572486
0.00583784
0.00596891
0.00616638
0.00661762
0.007286
0.00767964
0.00825479
0.0103765
0.0195453
0.0477721
0.104701
0.155853
0.186211
0.235547
0.271014
0.00510015
0.00525214
0.00534543
0.00550263
0.00551819
0.00559847
0.00564635
0.00572452
0.00584748
0.00598025
0.00618425
0.00665971
0.00734209
0.00773505
0.00847531
0.0121125
0.0248344
0.0601949
0.119432
0.161624
0.185708
0.221237
0.254778
0.00513432
0.00527605
0.00537502
0.00552401
0.00553298
0.00561397
0.00566069
0.00573048
0.00585429
0.0059902
0.00619867
0.00670082
0.00740199
0.00781968
0.00889379
0.0142737
0.0311866
0.0713975
0.134275
0.164062
0.179321
0.201344
0.22436
0.0051868
0.00531534
0.00540582
0.005547
0.00555156
0.005629
0.00566626
0.00574407
0.00586409
0.0060007
0.00621652
0.00674851
0.00745806
0.00791886
0.00941954
0.0163783
0.0363579
0.0789374
0.142664
0.162354
0.171622
0.178631
0.189138
0.00522707
0.00534379
0.00543383
0.00556633
0.00557081
0.00564253
0.00567541
0.00575811
0.00587187
0.00600943
0.00622881
0.00678077
0.00750968
0.00798178
0.00987451
0.018095
0.0382531
0.0815186
0.138344
0.158397
0.154683
0.14956
0.156352
0.00527602
0.00538029
0.00546382
0.00558804
0.00559345
0.00565717
0.00568948
0.00577305
0.00588008
0.0060181
0.00624529
0.00682478
0.00755007
0.00806053
0.0103051
0.0196455
0.0407841
0.0834805
0.127882
0.147693
0.136056
0.122509
0.122786
0.00531608
0.00540845
0.00549164
0.00560757
0.00561544
0.00567257
0.00570561
0.00578738
0.00588766
0.00602461
0.00625408
0.00684845
0.00757737
0.00813783
0.0107291
0.0208186
0.0430938
0.0863247
0.116056
0.135128
0.120559
0.102128
0.0942083
0.00536166
0.00544245
0.00551985
0.00562871
0.005639
0.00569146
0.00572402
0.00580176
0.00589559
0.00603246
0.00626862
0.0068825
0.00760892
0.00818339
0.0111012
0.021014
0.0431468
0.0851829
0.10271
0.127005
0.109403
0.0878249
0.071856
0.00540031
0.00547137
0.00554838
0.00564945
0.00566225
0.00570982
0.00574165
0.00581576
0.00590286
0.00603731
0.00627695
0.00690382
0.00762635
0.00823116
0.0112971
0.0201446
0.040725
0.0825852
0.0883553
0.114874
0.0974052
0.0763237
0.0563799
0.00544125
0.00550389
0.0055755
0.00567019
0.00568509
0.00573064
0.00576062
0.00583016
0.00591086
0.00604339
0.00628755
0.00692772
0.00764561
0.00829337
0.0111454
0.0183814
0.0364725
0.0752652
0.0731425
0.0965616
0.082267
0.0634846
0.0436554
0.00547612
0.00553094
0.00560218
0.00568954
0.00570593
0.00574846
0.0057772
0.00584234
0.00591767
0.00604738
0.00629468
0.00694212
0.00765312
0.00829428
0.0106894
0.0164413
0.0309902
0.0644148
0.0593537
0.0781306
0.0686458
0.0538297
0.0359436
0.00550894
0.00555907
0.00562642
0.00570788
0.0057249
0.00576653
0.0057934
0.00585441
0.00592377
0.00605062
0.00629999
0.00695518
0.00766709
0.00824779
0.010188
0.0146483
0.0259044
0.0534217
0.0472549
0.0606375
0.0548058
0.0442411
0.0293463
0.00553952
0.00558426
0.00565203
0.00572601
0.00574382
0.00578338
0.00580978
0.00586613
0.00593022
0.00605337
0.00630622
0.00696696
0.00766358
0.00817311
0.00970212
0.0130564
0.0214482
0.0432484
0.0370754
0.0459663
0.0422815
0.0348475
0.0238695
0.0055692
0.00561121
0.00567692
0.00574454
0.00576159
0.00580078
0.00582532
0.00587744
0.00593576
0.00605536
0.00631065
0.00697174
0.00764649
0.00806465
0.00925386
0.0117499
0.0177884
0.0344425
0.0289308
0.0341654
0.0323956
0.0270241
0.0193618
0.00559828
0.00563744
0.00570187
0.00576199
0.00577961
0.00581666
0.00584145
0.00588931
0.00594204
0.00605682
0.00631527
0.00697326
0.00761524
0.00797029
0.00888147
0.0106935
0.0149489
0.0272892
0.0227828
0.0257562
0.0244607
0.0208108
0.0158812
0.00562422
0.00566212
0.00572684
0.00578058
0.00579667
0.00583324
0.0058563
0.00589991
0.00594745
0.00605789
0.00631904
0.00696579
0.00755911
0.00784999
0.0085467
0.00985493
0.0128118
0.0217602
0.0181713
0.019587
0.0189849
0.0164618
0.0133805
0.00565174
0.00568851
0.00574985
0.00579706
0.00581366
0.00584829
0.00587125
0.00591127
0.00595385
0.00605858
0.00632216
0.00694203
0.00751451
0.00775051
0.00828423
0.00922749
0.0112557
0.017548
0.01505
0.0156266
0.0151296
0.0135001
0.01164
0.00567689
0.0057133
0.00577475
0.0058158
0.00583144
0.00586396
0.00588622
0.00592184
0.00595978
0.00605932
0.00632601
0.00691072
0.00743669
0.00764948
0.00804847
0.00872391
0.0102076
0.0146621
0.0126943
0.012995
0.0127555
0.0118294
0.0105821
0.00569904
0.0057353
0.00579395
0.00583184
0.00584671
0.00587824
0.00589895
0.0059323
0.00596614
0.00605985
0.00632669
0.00687532
0.00737206
0.00753779
0.00787282
0.0083556
0.00944613
0.0126709
0.0114273
0.0113524
0.0113636
0.0107124
0.0104258
0.00572541
0.00576156
0.00581846
0.00584809
0.00586438
0.00589201
0.00591288
0.00594171
0.00597313
0.00606068
0.0063274
0.00683177
0.00729791
0.00746497
0.00771339
0.00809064
0.00893055
0.0113801
0.0108439
0.0106046
0.0105335
0.0102639
0.0103386
0.00574488
0.00578022
0.00583325
0.00586579
0.00587986
0.00590711
0.00592589
0.00595223
0.00597896
0.00606131
0.00632817
0.00679457
0.00723437
0.00735141
0.00757825
0.00784713
0.00886898
0.0107646
0.0105075
0.0102674
0.0104871
0.0103659
0.0103094
0.00576547
0.00580099
0.00585427
0.005879
0.0058931
0.00591652
0.00593522
0.00596026
0.00598654
0.00606262
0.0063289
0.00676399
0.00716488
0.00733699
0.00748466
0.00776669
0.00880986
0.010439
0.0103019
0.0101398
0.0103838
0.0103644
0.0102699
0.00578469
0.00582321
0.00586831
0.00589586
0.00590925
0.00593052
0.00594728
0.00596769
0.00599252
0.00606381
0.00632935
0.00673084
0.00711386
0.00731736
0.00740432
0.00772754
0.00875676
0.0104569
0.0101683
0.010021
0.0101481
0.010297
0.0101061
0.00580377
0.00582593
0.00587726
0.00589916
0.00591962
0.00594142
0.00595587
0.00597818
0.00599858
0.00606333
0.00632862
0.00671071
0.00708093
0.00727154
0.00740861
0.00770148
0.00867599
0.0104427
0.0102428
0.0101206
0.0102229
0.0102729
0.0102058
0.00580449
0.0058294
0.00587722
0.00590274
0.00593072
0.00594126
0.00596228
0.00597856
0.00600492
0.00606338
0.00632547
0.0067003
0.00708525
0.00724759
0.00736585
0.00768428
0.0086555
0.0103066
0.0102739
0.0100612
0.0101664
0.0102644
0.0100908
0.00581351
0.00583858
0.0058786
0.00591105
0.00593123
0.00594217
0.00596129
0.0059797
0.00601089
0.00606404
0.00632102
0.00669395
0.00707468
0.00722965
0.00738728
0.00764525
0.0087299
0.0103629
0.0102849
0.010199
0.0103007
0.010262
0.0102216
0.00581016
0.00584174
0.00588099
0.0059134
0.00593242
0.00594401
0.00596138
0.00598007
0.0060107
0.00606553
0.0063179
0.00668495
0.00708221
0.00724895
0.00734173
0.00760767
0.0088783
0.0103112
0.0102507
0.0102193
0.0103257
0.0102589
0.0102485
0.00581793
0.005843
0.00588167
0.00591882
0.00593429
0.00594842
0.00596255
0.00598053
0.00601394
0.00606684
0.00631501
0.00668525
0.00708317
0.00724293
0.00735438
0.00763954
0.00908094
0.0104143
0.0103255
0.0101901
0.0103158
0.0102139
0.010188
0.00581578
0.00584371
0.00588333
0.00591676
0.00593472
0.00594624
0.00596353
0.0059807
0.00601221
0.00606529
0.00631227
0.00668387
0.00708518
0.00724377
0.00735738
0.00762931
0.00926878
0.0104333
0.0104746
0.0102779
0.0102996
0.010265
0.0101859
0.00581983
0.00585107
0.0058834
0.0059159
0.00593612
0.00594625
0.00596337
0.00598113
0.0060128
0.00606564
0.00631006
0.0066836
0.00708389
0.00723915
0.0073589
0.00767322
0.00946558
0.0104199
0.0106053
0.0104504
0.0104462
0.010407
0.0103065
0.00582023
0.00585107
0.00588819
0.00591876
0.00593937
0.00594599
0.00596278
0.00598278
0.00601255
0.00606551
0.00630828
0.00668313
0.00708532
0.00724462
0.00737086
0.00768266
0.00966493
0.0105407
0.0108403
0.0106726
0.0105564
0.0104996
0.010442
0.00581767
0.00584959
0.00589262
0.00591774
0.00594105
0.00594598
0.00596244
0.0059801
0.00601173
0.00606721
0.00630658
0.00668289
0.0070847
0.00724058
0.00737546
0.00768643
0.00983242
0.0107388
0.0109917
0.010904
0.0107756
0.0107119
0.0105915
0.00581399
0.00584938
0.00588852
0.00591724
0.00593698
0.00594573
0.00596199
0.00598008
0.00601173
0.00606883
0.00630489
0.0066779
0.00708274
0.00722788
0.00736748
0.00770104
0.0100501
0.0110941
0.0113034
0.0111965
0.0109869
0.0108387
0.010752
0.00581348
0.00584817
0.0058864
0.00591697
0.00593668
0.00594591
0.00596514
0.00597936
0.00601312
0.00606959
0.00630356
0.0066797
0.00709377
0.007232
0.00740744
0.00770787
0.0102397
0.0114196
0.0115554
0.0114695
0.0112631
0.0110833
0.0109607
0.00581114
0.00584831
0.00588537
0.00591657
0.00593513
0.00594481
0.0059623
0.00597897
0.00601006
0.00606798
0.00630225
0.00667866
0.00709359
0.00722965
0.00741402
0.00774062
0.0105566
0.0117545
0.0117898
0.0117456
0.0115068
0.0113196
0.0112052
0.00580992
0.00584164
0.00588966
0.00591622
0.00593417
0.00594488
0.00596088
0.0059781
0.00600996
0.0060678
0.00630138
0.00667929
0.00709093
0.00725564
0.00742658
0.00776805
0.0108846
0.0121112
0.0121014
0.0119697
0.0116823
0.0114848
0.0114298
0.0058137
0.00584855
0.00588453
0.0059166
0.00593375
0.00594698
0.00596013
0.00597755
0.00601113
0.00606717
0.00630055
0.00667882
0.00710268
0.00723494
0.00743316
0.00779967
0.0114273
0.0124791
0.0123572
0.0122065
0.0119716
0.0117781
0.0117832
0.00581361
0.00584465
0.0058818
0.00591751
0.00593646
0.00594265
0.00596203
0.00597754
0.0060086
0.00606624
0.00629961
0.00667938
0.00710172
0.0072531
0.00745284
0.0078326
0.0118984
0.0127497
0.0126195
0.0123736
0.012172
0.0119861
0.0120314
0.00580973
0.00584331
0.00588107
0.00591166
0.00593669
0.00594211
0.00596246
0.00597569
0.00600938
0.00606595
0.00629928
0.0066794
0.0071056
0.00725281
0.00745528
0.00792253
0.0124994
0.0132004
0.0130647
0.0127926
0.0124125
0.0122808
0.0123625
0.00580822
0.00584246
0.00587859
0.00591086
0.0059369
0.00594366
0.00596195
0.00597472
0.00600916
0.00606293
0.00629867
0.006683
0.0071049
0.00725451
0.00747167
0.00804432
0.0129384
0.0134743
0.0132931
0.0130743
0.0128182
0.0125541
0.0126449
0.00580568
0.0058428
0.00587696
0.00591152
0.00593035
0.00594163
0.00596088
0.00597383
0.00600813
0.00606244
0.00629855
0.00668306
0.00708926
0.00727374
0.00747892
0.00818493
0.0130773
0.0138032
0.0136965
0.0134619
0.0130893
0.0129252
0.0131067
0.00580171
0.00584261
0.0058733
0.00591354
0.00592851
0.00593728
0.00595735
0.00597215
0.00600694
0.00606153
0.00629847
0.00668201
0.00709881
0.00729271
0.00746759
0.00837225
0.0131927
0.0141314
0.0140193
0.0137804
0.0134035
0.0132085
0.0134062
0.00579668
0.00583401
0.00587216
0.00591243
0.00592813
0.00593534
0.00595452
0.00597207
0.00600591
0.00606119
0.00629821
0.00668337
0.00709702
0.00730477
0.00747617
0.00855264
0.0134459
0.0144342
0.0144262
0.014221
0.0138654
0.0135354
0.0137262
0.0057923
0.00582862
0.00586908
0.00590809
0.0059211
0.0059329
0.0059531
0.00596806
0.00600461
0.00606143
0.00629778
0.00669
0.00710308
0.00731535
0.00750255
0.00875417
0.013622
0.0146352
0.0146707
0.014518
0.0142653
0.0139978
0.0141543
0.0057843
0.00582653
0.00586797
0.00590465
0.00592654
0.00593541
0.00594597
0.00596679
0.00600271
0.00606229
0.00629702
0.00669633
0.00711193
0.00732028
0.00755104
0.00900608
0.0135131
0.0146584
0.0149579
0.0146079
0.0143828
0.0143414
0.0145414
0.00577919
0.00582224
0.00587279
0.00590004
0.00592026
0.0059309
0.00594388
0.00596024
0.00600008
0.00606202
0.00629674
0.00670777
0.00711852
0.0073172
0.00759099
0.00919379
0.013407
0.0146583
0.0151779
0.014771
0.0145528
0.0145589
0.0147357
0.00577172
0.00582052
0.00587205
0.00589613
0.00592345
0.00593337
0.00594012
0.00595909
0.0059976
0.00605805
0.00629508
0.0067202
0.00713239
0.00732678
0.00760128
0.00944734
0.0130908
0.0143854
0.0152227
0.0147203
0.0143773
0.0144462
0.0147402
0.00576761
0.00582184
0.00586781
0.00588596
0.00592054
0.00593197
0.00593785
0.0059592
0.0059937
0.00605704
0.00629428
0.00673452
0.00714792
0.00734327
0.00761681
0.00963757
0.0127609
0.0141013
0.0149808
0.0142987
0.014179
0.0142356
0.0146377
0.005766
0.00582339
0.00586391
0.0058912
0.00591716
0.00592887
0.00593499
0.00596008
0.00598659
0.00605498
0.0062876
0.00675847
0.00715085
0.00736896
0.0076418
0.00990619
0.0125385
0.0135766
0.0144628
0.0142416
0.0140701
0.0142481
0.014412
0.0057502
0.00581909
0.00585525
0.00588234
0.00591173
0.00592386
0.00593335
0.00595505
0.00598543
0.00605693
0.00628875
0.00677024
0.00715594
0.00740253
0.00769054
0.0099393
0.0124755
0.0132759
0.0143461
0.0141737
0.0140777
0.0142142
0.0142716
0.00574813
0.0058123
0.00584747
0.00588431
0.00590188
0.00591348
0.00593463
0.00594514
0.00598385
0.00605225
0.00627068
0.00676957
0.0071535
0.00742238
0.00774581
0.00977827
0.0123008
0.013021
0.0140121
0.013885
0.0138759
0.0141647
0.0139822
0.00575125
0.00580709
0.00584105
0.00588165
0.00588787
0.0059083
0.00592696
0.00594141
0.00597858
0.00605072
0.00625047
0.00676598
0.00717486
0.00743364
0.00780563
0.00968516
0.0121275
0.0128001
0.0136119
0.0137311
0.0136407
0.0139505
0.0138447
0.00574319
0.00579245
0.00583073
0.00587132
0.00588319
0.00589572
0.00591242
0.00594133
0.00597429
0.00604444
0.00622893
0.00675511
0.00716787
0.00744022
0.00784603
0.00971648
0.0118982
0.0126471
0.0133677
0.0136745
0.0136899
0.0139103
0.0139145
0.00573401
0.00576993
0.00580975
0.00585959
0.00588486
0.00589615
0.00590728
0.00593907
0.00596203
0.00603593
0.00620688
0.00673105
0.00716474
0.00745945
0.00790273
0.00960731
0.0116961
0.0126042
0.0132967
0.0135633
0.013638
0.0138638
0.0139786
0.00571829
0.00576216
0.00580278
0.00584617
0.00587773
0.00588096
0.00590762
0.00593251
0.00594434
0.00602527
0.00618316
0.00668578
0.0071599
0.00752481
0.00793101
0.0094099
0.0115413
0.0125551
0.0132391
0.0134935
0.0136122
0.0137953
0.0139373
0.00569778
0.00576265
0.00580491
0.00583755
0.00586733
0.00587351
0.00590027
0.00592026
0.00593716
0.00601468
0.0061593
0.00662692
0.00714981
0.00751745
0.00803185
0.00912925
0.0114017
0.0126489
0.0132604
0.0135046
0.0137027
0.0138043
0.0139227
0.00568745
0.00575188
0.00579516
0.00582455
0.0058532
0.0058438
0.00588689
0.00590575
0.00593621
0.00600118
0.00613393
0.00655951
0.00710633
0.00754048
0.00809647
0.00926395
0.0110289
0.0127539
0.0133077
0.0135713
0.0137451
0.0140276
0.0140859
0.00566436
0.00573939
0.00577557
0.00580816
0.00583652
0.00583125
0.0058712
0.00589124
0.00592606
0.00598648
0.00610949
0.0064879
0.00704754
0.00748073
0.00813504
0.00947815
0.0110811
0.0126576
0.0133316
0.0136396
0.013794
0.014078
0.0142366
0.00564284
0.00570952
0.00575218
0.00578755
0.00581539
0.00582812
0.00585121
0.00587371
0.00590972
0.00596716
0.00608198
0.00641643
0.00696434
0.00746504
0.00808792
0.00962365
0.0113188
0.0128502
0.0136109
0.0137541
0.0138739
0.0141223
0.0144465
0.00560886
0.00568165
0.00572801
0.00576453
0.00579247
0.00581246
0.00582933
0.00585394
0.0058902
0.00594662
0.00605543
0.00635117
0.00686519
0.00746572
0.00814358
0.00980607
0.0113053
0.0128448
0.0139444
0.0140382
0.0141093
0.0142835
0.0146262
0.00556752
0.00564197
0.00569865
0.00573487
0.0057643
0.00578747
0.00580166
0.0058284
0.00586448
0.00591962
0.00602288
0.00628501
0.00676003
0.00738474
0.00823904
0.00965135
0.0119004
0.0134106
0.0142516
0.0145372
0.0146932
0.0149767
0.0152328
0.0055395
0.00560234
0.00566719
0.00570266
0.0057339
0.00575927
0.00577206
0.00579981
0.0058358
0.00589107
0.00599071
0.00622416
0.00665389
0.007323
0.00803391
0.00960631
0.0116823
0.0140509
0.0149324
0.0150446
0.0155431
0.0157769
0.0159148
0.00551251
0.00555427
0.00562694
0.00566262
0.00569538
0.00572172
0.00573538
0.00576368
0.00579951
0.00585333
0.00594856
0.00615675
0.00654653
0.00718113
0.00787244
0.00945152
0.012898
0.014757
0.0153998
0.0159964
0.0162494
0.0166743
0.0168903
0.00547196
0.00550711
0.00558285
0.00562046
0.0056538
0.00568176
0.00569673
0.00572541
0.00576049
0.00581384
0.0059056
0.00609208
0.00644456
0.00700409
0.00796534
0.00921344
0.0125014
0.0160565
0.017013
0.0174467
0.017625
0.0178031
0.0177385
0.00541877
0.00546278
0.0055272
0.00556775
0.0056009
0.00562998
0.00564782
0.00567627
0.00571073
0.00576171
0.00584833
0.00601477
0.00632111
0.00695156
0.00769595
0.00964181
0.0128232
0.0168526
0.0184735
0.0187452
0.018728
0.018854
0.0191713
0.00536018
0.00541569
0.00546811
0.00551244
0.00554481
0.00557574
0.00559632
0.00562465
0.00565862
0.00570769
0.00578889
0.00593803
0.00620403
0.00677597
0.00776004
0.0101039
0.0119682
0.0173495
0.0217794
0.0223419
0.0217036
0.020658
0.0208287
0.00528775
0.00535115
0.00539428
0.0054423
0.00547385
0.00550586
0.00552957
0.00555712
0.00559061
0.00563613
0.0057101
0.0058413
0.00607198
0.00657756
0.00762263
0.00973518
0.012324
0.0160384
0.0232246
0.0240314
0.0237593
0.0229054
0.0227013
0.00521088
0.00528047
0.0053183
0.00536929
0.00540042
0.00543389
0.00546029
0.00548735
0.00552112
0.00556309
0.00562956
0.00574377
0.00593874
0.00635549
0.00735298
0.0091711
0.0127552
0.0175304
0.0250609
0.0259261
0.0257107
0.0251286
0.025378
0.00511716
0.00518891
0.00522402
0.00527655
0.0053076
0.00534147
0.00536968
0.00539607
0.00542864
0.00546778
0.0055242
0.00562135
0.00578256
0.00609849
0.00700049
0.00873619
0.0135255
0.0183874
0.0267425
0.0291768
0.0296171
0.0294161
0.028786
0.00502035
0.00509455
0.00513031
0.00518282
0.00521435
0.00524842
0.00527865
0.00530426
0.00533647
0.00537338
0.00542086
0.0055021
0.00563275
0.00586864
0.00649998
0.00840168
0.0129841
0.0169933
0.0257819
0.0307412
0.0336626
0.0335062
0.0351301
0.00490198
0.00497565
0.00501323
0.00506327
0.00509528
0.00512865
0.00515887
0.00518389
0.0052132
0.00524868
0.00528604
0.00535008
0.00546436
0.00563376
0.00603107
0.00741237
0.0112527
0.0166382
0.0239756
0.029557
0.0344222
0.036893
0.0389004
0.00478388
0.00485849
0.00490052
0.00494645
0.0049796
0.00501164
0.00504304
0.0050678
0.00509525
0.00512946
0.00516046
0.00521005
0.00530694
0.00542896
0.00566432
0.00649828
0.00910314
0.0150689
0.0233934
0.0277483
0.0320461
0.036618
0.0412265
0.00463773
0.00471036
0.00475573
0.00479569
0.00482888
0.00485936
0.00488857
0.00491246
0.00493673
0.00496666
0.00499353
0.00502899
0.00510534
0.00519784
0.00533967
0.00577145
0.00739575
0.0116902
0.0223466
0.0287214
0.0311191
0.0339079
0.0395612
0.00449882
0.00457162
0.00462191
0.0046555
0.00468902
0.00471734
0.00474665
0.00477084
0.0047944
0.00482112
0.00484675
0.00487153
0.00491957
0.00501481