/*--------------------------------*- C++ -*----------------------------------*\
  =========                 |
  \\      /  F ield         | OpenFOAM: The Open Source CFD Toolbox
   \\    /   O peration     | Website:  https://openfoam.org
    \\  /    A nd           | Version:  7
     \\/     M anipulation  |
\*---------------------------------------------------------------------------*/
FoamFile
{
    version     2.0;
    format      ascii;
    class       volScalarField;
    location    "50";
    object      nut;
}
// * * * * * * * * * * * * * * * * * * * * * * * * * * * * * * * * * * * * * //

dimensions      [0 2 -1 0 0 0 0];

internalField   nonuniform List<scalar> 
12842
(
0.00181066
0.00179815
0.00177863
0.00177445
0.0017602
0.00175969
0.00176246
0.00175806
0.0017598
0.00175641
0.00175961
0.00175798
0.00176455
0.00176887
0.00105055
0.000571301
0.000359847
0.000251829
0.000188571
0.00014757
0.000120037
0.000101016
8.79747e-05
0.00180361
0.00180147
0.0017932
0.00178345
0.0017689
0.00175731
0.00175773
0.00175708
0.00176126
0.00175747
0.00176057
0.00175788
0.00176422
0.00176897
0.00103478
0.000564268
0.000356674
0.000250195
0.000187915
0.000147471
0.000120275
0.000101783
8.86143e-05
0.00180826
0.00178196
0.00178194
0.00179011
0.00177464
0.0017673
0.00175687
0.00175264
0.00175754
0.00175631
0.00176155
0.00175977
0.00176482
0.00177059
0.00101877
0.00055991
0.000356175
0.000250664
0.000188928
0.000148628
0.000121643
0.000103403
8.9694e-05
0.00180989
0.00178879
0.00176957
0.00178607
0.00177203
0.00176547
0.00175673
0.00175619
0.00175671
0.00175605
0.00176093
0.00176004
0.00176528
0.00177192
0.000994964
0.000550306
0.000352685
0.000249383
0.000188806
0.000149506
0.000123218
0.000106103
9.2039e-05
0.00180713
0.00178371
0.00177129
0.00177765
0.00177749
0.00177148
0.00175679
0.00175446
0.00175559
0.00175575
0.00176107
0.00176096
0.00176588
0.00177406
0.000972552
0.000542292
0.000350964
0.000250734
0.000190933
0.000151691
0.000125417
0.000109556
9.5385e-05
0.00180757
0.00178742
0.00176959
0.0017757
0.00176962
0.0017673
0.00175577
0.00175796
0.00175635
0.00175721
0.00176177
0.00176155
0.00176624
0.00177688
0.000956122
0.000536058
0.000349419
0.000251799
0.000193061
0.000154936
0.000128291
0.000113092
9.87586e-05
0.0018056
0.00177972
0.00176776
0.00177015
0.00177289
0.00176991
0.00175366
0.00175627
0.00175482
0.00175688
0.00176185
0.00176236
0.00176664
0.00178211
0.000960628
0.000541351
0.000355599
0.000257976
0.000198472
0.000160175
0.00013283
0.000117896
0.000102996
0.00180501
0.00178339
0.00176967
0.00177046
0.00177071
0.00176705
0.00175373
0.00175672
0.00175454
0.00175778
0.00176121
0.00176287
0.00176723
0.00178533
0.00095822
0.000548157
0.000362788
0.000264674
0.000204195
0.000165559
0.000137042
0.000121961
0.000106873
0.00180331
0.00177561
0.00176578
0.00176456
0.0017693
0.00176728
0.00175454
0.00175507
0.00175243
0.00175853
0.00176148
0.00176296
0.0017709
0.00179717
0.000961342
0.000559765
0.000374442
0.000275407
0.000212829
0.000173268
0.000143505
0.000127725
0.00011157
0.00180294
0.00178107
0.0017672
0.00176649
0.00176858
0.00176436
0.001754
0.00175455
0.00175287
0.00175775
0.00176069
0.00176486
0.00178102
0.00181934
0.000981193
0.000575328
0.000386282
0.000285211
0.000220508
0.000179692
0.000148818
0.000132562
0.000115247
0.00179912
0.00177374
0.00176599
0.00176264
0.00176616
0.00176438
0.00175516
0.00175354
0.0017514
0.00175784
0.00175959
0.00176749
0.00179661
0.00184596
0.000981738
0.000583948
0.000395814
0.000294157
0.000227496
0.000185439
0.000153445
0.00013658
0.000118585
0.00180065
0.0017766
0.00176586
0.00176289
0.00176512
0.00176152
0.00175431
0.00175184
0.00175059
0.00175753
0.00176075
0.00177698
0.00182018
0.00188247
0.000992916
0.000600454
0.000409842
0.000304672
0.000235396
0.000191692
0.000158437
0.000140706
0.000121807
0.00179641
0.00177163
0.00176719
0.0017619
0.00176282
0.00176021
0.00175466
0.00174956
0.00174921
0.00175614
0.00176691
0.00179748
0.00185023
0.00192367
0.00101267
0.000621345
0.000426057
0.000317087
0.00024409
0.00019814
0.0001634
0.00014465
0.000125069
0.00179798
0.0017695
0.00176511
0.00176157
0.00176166
0.00175955
0.0017543
0.00174972
0.00174978
0.00175682
0.00178349
0.00182994
0.00189106
0.00194942
0.00105372
0.000653269
0.000446849
0.000330295
0.000253312
0.000205019
0.000168579
0.000148621
0.000128178
0.00179514
0.00176686
0.00176804
0.00176141
0.00175932
0.00175769
0.00175345
0.00174854
0.00174894
0.00175893
0.00180611
0.00186542
0.00192958
0.0019955
0.00109709
0.000683987
0.000467514
0.000345025
0.00026304
0.000211874
0.000173869
0.000152459
0.000131421
0.00179622
0.00176263
0.00176442
0.00176139
0.00175838
0.00175695
0.00175336
0.00174916
0.00175342
0.00177449
0.00183708
0.00190735
0.0019676
0.00203088
0.00116109
0.00072616
0.000493274
0.000360171
0.000273106
0.000219132
0.000179407
0.000156537
0.000134834
0.00179447
0.00175891
0.00176518
0.00176136
0.00175682
0.00175576
0.00175354
0.00175244
0.00175709
0.00179699
0.0018689
0.00193917
0.00199015
0.0020497
0.00122305
0.000766292
0.000518792
0.000377746
0.000284612
0.000227227
0.000185625
0.000160965
0.000138711
0.00179576
0.00175581
0.00176265
0.00176144
0.00175654
0.00175582
0.0017542
0.00176505
0.00177768
0.00183015
0.00190175
0.00196569
0.0020099
0.00206066
0.00130886
0.000821752
0.000551915
0.000397075
0.000296841
0.000235968
0.00019256
0.000166166
0.000143218
0.00179459
0.00175142
0.0017604
0.00176164
0.00175624
0.00175442
0.00175414
0.00177789
0.00180262
0.00186072
0.0019285
0.0019827
0.00201679
0.00206345
0.00139296
0.000875894
0.000586271
0.00041985
0.000312118
0.000246935
0.000201156
0.00017238
0.000148621
0.001796
0.00174786
0.00175545
0.00176192
0.00175646
0.00175555
0.00176123
0.00181293
0.00184251
0.00189279
0.00194866
0.00199251
0.00202027
0.00206434
0.00150498
0.000950974
0.000632181
0.000447385
0.000329353
0.000258888
0.000211481
0.000180149
0.000155566
0.0017955
0.00174473
0.0017548
0.00176249
0.00175792
0.00175944
0.00176623
0.0018385
0.00187096
0.00191461
0.00196616
0.00199562
0.00201582
0.00205813
0.00161042
0.00102435
0.000680318
0.000478529
0.000351245
0.000274835
0.000224586
0.000189344
0.000163787
0.00179671
0.00174108
0.00174748
0.00176319
0.00175936
0.00177314
0.00178787
0.00187511
0.0019
0.00193158
0.00197366
0.00199153
0.00201013
0.00205475
0.00176294
0.00113417
0.000751804
0.000522037
0.000379102
0.00029294
0.000240171
0.000201713
0.000174855
0.00179681
0.00173886
0.00174534
0.00176461
0.00175921
0.00179843
0.00180824
0.00188721
0.00191192
0.00194319
0.00197893
0.00198549
0.00200137
0.00204467
0.00186531
0.00123916
0.000830044
0.000570561
0.000411368
0.000316753
0.000258148
0.000215583
0.000188174
0.00179677
0.00173437
0.00174123
0.00176489
0.00176855
0.00184052
0.00184357
0.00190723
0.00193054
0.00195384
0.00197774
0.00197493
0.00199229
0.00203933
0.00196658
0.00136354
0.0009369
0.000639595
0.000455347
0.000344579
0.000280524
0.000234892
0.000206633
0.0017984
0.00173422
0.00173902
0.00176767
0.00178599
0.00187318
0.00186234
0.00191468
0.00193501
0.00195568
0.00197225
0.00196378
0.00198371
0.0020285
0.00200526
0.00155729
0.0010823
0.000721779
0.00050621
0.000381526
0.000306995
0.000257523
0.000228428
0.00179681
0.00173177
0.00173743
0.0017821
0.00181988
0.00189216
0.00187537
0.0019179
0.00193539
0.00195372
0.00196354
0.00195261
0.00197543
0.0020221
0.00199872
0.00175342
0.00127332
0.000838766
0.000571766
0.000421172
0.000336129
0.000283636
0.000253509
0.00179891
0.00172975
0.00173542
0.001811
0.001851
0.00190426
0.00188083
0.00191647
0.00193051
0.00194692
0.00195214
0.00194065
0.00196869
0.00201198
0.00197344
0.00188433
0.0015922
0.000992717
0.000645565
0.000463854
0.000366206
0.000313384
0.000283051
0.00179599
0.00173262
0.00174576
0.00185042
0.00187281
0.00191323
0.00188305
0.00191229
0.00192511
0.00193821
0.00194061
0.00193104
0.00196269
0.00200536
0.00196632
0.00187195
0.00175554
0.00121598
0.000729449
0.000511188
0.000408217
0.000355767
0.000319362
0.00179828
0.00173044
0.0017645
0.00188405
0.00189204
0.00191277
0.00188384
0.00190505
0.00191601
0.00192742
0.00192824
0.0019216
0.00195903
0.00199735
0.00194205
0.00183794
0.00170969
0.00148358
0.000816582
0.000565206
0.000458573
0.00039958
0.00036509
0.00179645
0.00173273
0.00178811
0.00191213
0.00189938
0.00191402
0.00187959
0.00189771
0.00190767
0.00191626
0.00191719
0.00191457
0.0019559
0.00199098
0.00193529
0.00182341
0.00168279
0.00152093
0.000898904
0.000623899
0.000508505
0.00046406
0.000438053
0.0017967
0.00173698
0.00181197
0.0019324
0.00190575
0.00190612
0.0018787
0.00188912
0.00189718
0.00190518
0.00190672
0.00190898
0.00195537
0.00198522
0.00191182
0.00179035
0.00163016
0.00146455
0.000954359
0.0006561
0.000568648
0.000560388
0.000585204
0.00179617
0.00175329
0.00183225
0.00194635
0.00190382
0.00190291
0.0018724
0.00188197
0.00188883
0.00189455
0.00189744
0.00190445
0.00195478
0.00197955
0.00190485
0.00176706
0.00158905
0.00141105
0.000912344
0.000680333
0.000628799
0.000703144
0.00109674
0.00179864
0.00177985
0.00184375
0.00195385
0.00190041
0.00189404
0.00187092
0.001876
0.00187785
0.00188548
0.00188988
0.00190217
0.00195657
0.00197426
0.0018808
0.00173672
0.00154144
0.00133585
0.000875273
0.000716604
0.000788391
0.000764146
0.000910971
0.00179896
0.00180871
0.00186082
0.00195615
0.00189698
0.00188728
0.00186636
0.00187035
0.00187233
0.00187691
0.00188273
0.00190025
0.00195842
0.00197142
0.00187563
0.00170206
0.00148207
0.00121389
0.000832612
0.000791351
0.000692623
0.000751276
0.00111669
0.00179818
0.00183678
0.00186252
0.00195548
0.00188798
0.00188122
0.00186319
0.00186744
0.00186193
0.0018705
0.00187794
0.00189991
0.00196123
0.00196379
0.00184551
0.00166966
0.00144602
0.0010535
0.000807635
0.000773601
0.000716052
0.000870804
0.00123908
0.0018031
0.00185726
0.0018744
0.00195038
0.00188516
0.00187459
0.0018627
0.00186337
0.00185866
0.00186444
0.00187297
0.00190063
0.00196504
0.00196415
0.0018434
0.00163841
0.00134133
0.000898907
0.000787911
0.000748023
0.000803081
0.00106927
0.00144625
0.00181847
0.00187358
0.00187727
0.00194506
0.00187652
0.00186765
0.00185833
0.00186095
0.00185217
0.0018602
0.00187027
0.00190119
0.00196869
0.00195537
0.00180797
0.00158764
0.00111871
0.000811177
0.000784294
0.000723023
0.000840411
0.00117371
0.00163594
0.00183175
0.00188042
0.00188078
0.00193675
0.00187271
0.00186507
0.00185822
0.0018586
0.00184805
0.00185626
0.00186737
0.001904
0.00197333
0.00195323
0.00179928
0.00140619
0.00099656
0.00077275
0.000787096
0.000721183
0.000872741
0.00116435
0.00145769
0.00185055
0.00189234
0.00188481
0.00192851
0.00186612
0.00185838
0.00185737
0.00185527
0.00184556
0.00185351
0.00186602
0.00190538
0.00197788
0.00194698
0.0017712
0.00130586
0.000920544
0.000748822
0.000779058
0.000754097
0.000920494
0.0011952
0.00149338
0.00185992
0.00189271
0.00188506
0.0019185
0.00186319
0.00185287
0.0018533
0.00185268
0.00184219
0.00185091
0.00186491
0.00190933
0.00198281
0.00193829
0.00174102
0.00122608
0.000889061
0.000753212
0.000740448
0.000838234
0.00100453
0.00123262
0.00143169
0.00186644
0.00189349
0.00188559
0.00190916
0.00185703
0.00185022
0.00185215
0.00184736
0.00183914
0.00184916
0.0018644
0.00191191
0.00198722
0.00193181
0.00170307
0.00116133
0.000879789
0.000744708
0.000687682
0.000986237
0.00118417
0.00132446
0.0015532
0.00186554
0.00189413
0.00188297
0.00189878
0.00185164
0.00184281
0.0018496
0.00184586
0.00183767
0.00184744
0.00186458
0.00191629
0.00199211
0.00191949
0.00168433
0.00118015
0.000893956
0.000713558
0.000693984
0.00124134
0.00138385
0.0014274
0.00163678
0.00186466
0.00188686
0.00187823
0.00188847
0.00184845
0.00183729
0.00184191
0.00183808
0.00183649
0.00184631
0.00186458
0.00192019
0.00199606
0.00190659
0.00164247
0.00116906
0.000899309
0.000726139
0.000864278
0.0015307
0.00145555
0.00149108
0.00176997
0.00186162
0.00188022
0.00187015
0.00187704
0.00184146
0.00183294
0.00183614
0.00183173
0.0018349
0.00184517
0.00186562
0.00192505
0.00199878
0.00189142
0.00162617
0.00120438
0.000927719
0.00084685
0.00143541
0.00157579
0.00149166
0.00154839
0.00186458
0.00185546
0.00187239
0.00186224
0.00187078
0.00183433
0.00183046
0.00182673
0.00183013
0.0018349
0.00184458
0.00186584
0.0019298
0.00200348
0.0018757
0.00157683
0.0012571
0.001005
0.00116718
0.00162187
0.00165939
0.00157437
0.00163134
0.00208488
0.00185518
0.00186434
0.00185315
0.00186004
0.00182743
0.00182452
0.00181863
0.00182421
0.00183729
0.0018439
0.00186743
0.00193559
0.00200203
0.00184938
0.0015548
0.00131927
0.00125602
0.00150313
0.0017147
0.00168995
0.0015841
0.00169605
0.00170566
0.00184839
0.00185486
0.00184649
0.00185485
0.00182305
0.00181926
0.00181481
0.00182161
0.00183865
0.00184391
0.0018679
0.00194043
0.0020066
0.00183972
0.00152127
0.00131059
0.00136718
0.00151656
0.00170221
0.00169817
0.0016909
0.00172447
0.00160377
0.00185068
0.00184722
0.00183925
0.00185038
0.00182026
0.00181812
0.00181253
0.00181812
0.00183814
0.00184373
0.0018696
0.00194795
0.00200324
0.00180034
0.00146532
0.00129972
0.0013139
0.00147152
0.00166518
0.00167141
0.00161195
0.00165027
0.00154716
0.00184645
0.00184187
0.00183502
0.00184691
0.00181968
0.00182034
0.00181326
0.0018198
0.00183713
0.00184409
0.0018706
0.00195166
0.00200338
0.00177869
0.00143602
0.00128614
0.00128311
0.00145882
0.00170184
0.00166334
0.00160016
0.00155813
0.00143143
0.00184799
0.00183896
0.00183117
0.00184477
0.0018187
0.00182168
0.0018108
0.00182191
0.00183771
0.0018443
0.00187212
0.00196079
0.00199903
0.00175277
0.00139852
0.00125489
0.001258
0.00144144
0.00171679
0.00163471
0.00156221
0.00140334
0.00129153
0.00184616
0.00183939
0.00182993
0.00184472
0.0018193
0.00182277
0.00181114
0.00182399
0.00183817
0.00184451
0.00187298
0.0019635
0.00199924
0.00171902
0.00135187
0.00119796
0.001151
0.00139119
0.00162069
0.00159511
0.00143229
0.00123019
0.00116321
0.001848
0.00184053
0.0018297
0.00184583
0.00182064
0.00182361
0.00181247
0.0018257
0.0018385
0.00184465
0.00187444
0.00197084
0.00199195
0.00169087
0.0013129
0.00115488
0.00114758
0.00137506
0.00148377
0.00148814
0.00127379
0.00106184
0.00100171
0.00184779
0.00184295
0.00183119
0.00184701
0.00182312
0.00182459
0.00181444
0.00182747
0.00183838
0.00184444
0.00187485
0.00197329
0.0019889
0.00166969
0.00128161
0.00112444
0.00116389
0.00139637
0.00134145
0.0013564
0.00114073
0.000933624
0.000841367
0.00185145
0.00184462
0.00183332
0.00184811
0.00182583
0.00182663
0.00181664
0.00182883
0.00183823
0.00184445
0.00187597
0.00197696
0.001984
0.00164368
0.00125402
0.00107252
0.0011266
0.00136736
0.00117375
0.00127458
0.00104479
0.000836738
0.000698677
0.00185389
0.00184597
0.00183718
0.00184992
0.00182911
0.00182847
0.00181854
0.00183007
0.00183773
0.00184404
0.00187648
0.00197979
0.00198281
0.00162601
0.00121778
0.000996335
0.00106742
0.0013065
0.00101032
0.00115642
0.000935707
0.000749981
0.000595047
0.00185941
0.00184643
0.00184055
0.00185142
0.00183179
0.00183132
0.00182101
0.00183174
0.00183772
0.00184386
0.00187716
0.00198182
0.0019787
0.00159935
0.00116024
0.000902853
0.000971954
0.00118901
0.000850731
0.000996228
0.000816237
0.000665426
0.000511513
0.0018632
0.00184562
0.00184411
0.00185314
0.00183405
0.00183355
0.00182316
0.00183313
0.00183782
0.00184362
0.00187766
0.00198295
0.00197828
0.00158675
0.00111042
0.00082961
0.000873791
0.00104413
0.000746875
0.000883208
0.000749465
0.000620779
0.000467726
0.00186761
0.00184513
0.00184648
0.00185397
0.00183538
0.00183575
0.00182542
0.00183463
0.00183802
0.00184338
0.00187781
0.00198419
0.00198034
0.00157524
0.00106166
0.000779007
0.000786681
0.000923753
0.000674372
0.000791315
0.000686445
0.000578184
0.000434032
0.00186992
0.0018434
0.00184891
0.00185439
0.00183626
0.00183729
0.00182751
0.00183594
0.00183835
0.0018432
0.00187846
0.00198493
0.0019783
0.0015601
0.00102896
0.000743918
0.000714512
0.000829771
0.000619167
0.000716174
0.000623771
0.000537028
0.00040856
0.00187225
0.00184262
0.00185045
0.0018541
0.00183661
0.00183858
0.00182941
0.00183681
0.00183837
0.00184293
0.00187878
0.00198428
0.00197391
0.00154823
0.00102007
0.000726724
0.000659246
0.000755051
0.00057803
0.000647889
0.000574491
0.000505002
0.000388424
0.00187275
0.00184126
0.00185196
0.00185316
0.00183662
0.00183888
0.00183105
0.00183778
0.0018386
0.0018427
0.00187938
0.00198295
0.0019686
0.0015487
0.00102568
0.000724302
0.00062234
0.000700388
0.000551898
0.000598508
0.000526668
0.000476585
0.000377651
0.00187239
0.00184019
0.00185288
0.00185177
0.00183658
0.00183929
0.00183226
0.00183789
0.0018382
0.00184227
0.00187984
0.00197969
0.0019578
0.00155441
0.00104549
0.000736403
0.000603126
0.000663874
0.000534883
0.0005561
0.000492039
0.00045596
0.000372442
0.0018712
0.00183921
0.00185345
0.0018499
0.00183625
0.00183832
0.00183313
0.00183803
0.00183821
0.00184188
0.00188019
0.00197275
0.00195319
0.00156765
0.00107827
0.000763591
0.000598712
0.000638575
0.000534168
0.0005353
0.000467995
0.000435987
0.000293658
0.00186935
0.00183852
0.00185402
0.00184811
0.00183643
0.00183816
0.0018338
0.00183788
0.00183756
0.00184125
0.00188067
0.00196384
0.00193997
0.0015848
0.00111798
0.000800423
0.000611667
0.000628973
0.000531879
0.000522971
0.000462311
0.000419601
0.000238305
0.00186609
0.00183665
0.00185333
0.00184579
0.00183609
0.00183648
0.00183381
0.0018372
0.0018372
0.00184058
0.00188091
0.00195432
0.0019334
0.00160088
0.00116394
0.000846786
0.000628228
0.000627259
0.000550214
0.000520504
0.000464153
0.000361081
0.00021867
0.00186374
0.0018369
0.00185358
0.00184378
0.00183611
0.00183563
0.00183376
0.00183665
0.00183672
0.00183987
0.00188103
0.00194443
0.00192356
0.00162653
0.00121294
0.000898075
0.000649852
0.000630769
0.000580943
0.000536199
0.000469984
0.000321365
0.000205504
0.00186022
0.0018344
0.00185153
0.00184176
0.00183635
0.00183467
0.00183368
0.00183588
0.00183577
0.00183882
0.00188092
0.00193739
0.00192009
0.00164254
0.00126103
0.000943369
0.000691407
0.000647843
0.00060569
0.000554127
0.000469984
0.000318872
0.000206289
0.00185581
0.00183395
0.00185073
0.00183957
0.00183514
0.00183234
0.00183243
0.00183485
0.00183557
0.00183815
0.00188084
0.00193318
0.00191454
0.00167947
0.00131301
0.000996869
0.000720333
0.000663998
0.000618364
0.000562299
0.000449296
0.000322438
0.000212222
0.00185255
0.00183265
0.00184853
0.00183808
0.00183546
0.00183203
0.00183156
0.00183329
0.00183434
0.00183705
0.00188077
0.00192762
0.00191437
0.00171205
0.00135943
0.00104477
0.000724604
0.000688405
0.000620545
0.000576306
0.000444215
0.000332888
0.000223582
0.00184864
0.00182755
0.0018439
0.00183237
0.00183384
0.00183032
0.00183052
0.00183297
0.00183365
0.00183559
0.00188036
0.00192573
0.00191839
0.00173408
0.0014115
0.00108007
0.000721521
0.000700541
0.000625903
0.000584779
0.000462173
0.000354215
0.000246571
0.00183973
0.00182119
0.00183751
0.0018284
0.00183233
0.0018262
0.0018286
0.00182986
0.00183257
0.00183434
0.00187976
0.00192579
0.00193273
0.00175553
0.001418
0.00110675
0.000715581
0.000697382
0.000626963
0.000582197
0.000480037
0.000376432
0.000261731
0.00183337
0.00181824
0.0018316
0.00182501
0.00182805
0.00182231
0.00182332
0.0018259
0.00183183
0.00183279
0.0018785
0.00192643
0.00193856
0.00177253
0.00142417
0.00111839
0.000701672
0.000702163
0.000624719
0.000588351
0.000516756
0.000408889
0.00029204
0.00182493
0.00181534
0.0018246
0.0018224
0.00182391
0.00181945
0.00182159
0.00182438
0.00182879
0.00183255
0.0018776
0.00192574
0.00194858
0.00179207
0.00143927
0.00112323
0.000680551
0.000697667
0.000620402
0.00058651
0.000551113
0.000451496
0.000329402
0.00182314
0.00181267
0.00182217
0.00182205
0.00182146
0.00182079
0.0018211
0.00182399
0.0018277
0.00183259
0.00187639
0.00192751
0.00195504
0.00180347
0.00147618
0.00113697
0.000683967
0.000699726
0.000623281
0.000582595
0.000552899
0.000496407
0.00036916
0.00182257
0.00181338
0.00182154
0.00182058
0.00181927
0.00181985
0.00182059
0.00182299
0.00182602
0.00183164
0.00187595
0.00192809
0.00195657
0.00181076
0.00150855
0.00114135
0.000691684
0.000696068
0.000630725
0.000586425
0.000552435
0.00050869
0.000416525
0.00182344
0.0018157
0.00182023
0.00181846
0.00182017
0.00181953
0.0018191
0.00182204
0.00182545
0.00183148
0.00187528
0.00192898
0.00195706
0.00181325
0.0015214
0.00114689
0.000700091
0.00069035
0.000637335
0.000595078
0.000562076
0.000517884
0.000479281
0.0018212
0.0018156
0.00182038
0.00181995
0.00182125
0.00181813
0.00181739
0.00182172
0.00182473
0.00183093
0.00187462
0.00192946
0.00195834
0.00181493
0.00152677
0.0011453
0.00071499
0.000692973
0.000649654
0.000605429
0.000567088
0.000524437
0.000498076
0.00182174
0.00181438
0.00182161
0.00181981
0.00182039
0.00181865
0.00181765
0.00182158
0.00182507
0.00183201
0.00187389
0.00193004
0.00195856
0.0018143
0.00152971
0.00113633
0.000726503
0.0007028
0.000656936
0.000614966
0.000576809
0.000535133
0.000505301
0.0018207
0.00181478
0.00182035
0.0018197
0.00181986
0.00181857
0.00181676
0.00182135
0.00182477
0.00183243
0.00187355
0.00192885
0.00195833
0.00181224
0.00152958
0.00112995
0.00074225
0.000720769
0.000670489
0.000623288
0.000583199
0.000541656
0.000514233
0.00182047
0.00181455
0.0018198
0.00182002
0.0018201
0.00181845
0.00181755
0.00182102
0.00182603
0.00183268
0.00187343
0.0019299
0.0019616
0.00181404
0.00153738
0.00111714
0.000753141
0.000735079
0.000678557
0.000629701
0.000591715
0.000553116
0.000525117
0.00181975
0.00181418
0.00181789
0.00182003
0.00181975
0.00181751
0.00181695
0.00182194
0.00182444
0.00183123
0.00187354
0.00193024
0.00196213
0.00181381
0.00153841
0.00111389
0.000769195
0.000738947
0.000681552
0.000635945
0.000597556
0.000563671
0.000537414
0.00181937
0.00181396
0.00181775
0.00182048
0.00181968
0.00181798
0.0018167
0.00182136
0.0018252
0.00183173
0.00187382
0.00193102
0.00196265
0.00182044
0.00153864
0.00110563
0.000800241
0.000746572
0.000686546
0.000637156
0.000601736
0.000570707
0.000548146
0.0018208
0.00181643
0.00181766
0.00181941
0.00181959
0.00181829
0.00181688
0.00182166
0.00182539
0.00183134
0.0018743
0.00193167
0.00196555
0.00181582
0.0015394
0.00109562
0.000844195
0.000767477
0.000700864
0.000644846
0.000610118
0.00058376
0.000563174
0.00182042
0.00181495
0.00181659
0.00182076
0.00181997
0.00181818
0.00181741
0.00182083
0.0018257
0.00183118
0.00187477
0.00193316
0.00196547
0.00182038
0.0015429
0.00108978
0.000878683
0.000782505
0.000715233
0.000652731
0.000615766
0.000591481
0.00057461
0.00181943
0.00181668
0.00181825
0.00181938
0.00181988
0.00181762
0.00181888
0.00182122
0.00182618
0.00183122
0.0018755
0.0019343
0.00196722
0.00182007
0.00153818
0.00108982
0.000915539
0.000808478
0.000739847
0.000674531
0.000625907
0.000601781
0.000590334
0.00181759
0.00181652
0.00181774
0.0018194
0.00182162
0.0018182
0.00181905
0.00182096
0.00182622
0.00183094
0.00187614
0.0019359
0.00196681
0.00181933
0.0015342
0.00107871
0.000960199
0.000821051
0.000754708
0.000690843
0.000646845
0.000615523
0.000605168
0.00181822
0.00181599
0.00181681
0.00181943
0.00181979
0.00181736
0.00181833
0.00182013
0.00182586
0.00183058
0.00187692
0.00193653
0.00196205
0.0018236
0.00153198
0.00109714
0.000971737
0.000844235
0.000783711
0.000718359
0.000663286
0.000635131
0.000629035
0.00181747
0.00181479
0.00181786
0.00182038
0.00181987
0.00181768
0.00181724
0.00181948
0.00182681
0.00183137
0.00187766
0.00193726
0.00196448
0.00182757
0.00151461
0.00107744
0.000974598
0.000864973
0.000811037
0.000744894
0.000685064
0.000650679
0.000644995
0.00181607
0.00181275
0.00181789
0.0018206
0.00181979
0.00181734
0.00181617
0.00182064
0.00182678
0.00183093
0.00187832
0.00193822
0.00196374
0.00183014
0.00149969
0.00105998
0.000990391
0.000893298
0.000849915
0.000785329
0.000721186
0.000673496
0.000663204
0.00181535
0.00181166
0.00181661
0.00182014
0.00181815
0.00181598
0.0018174
0.00182036
0.00182656
0.00183152
0.00187886
0.00194047
0.0019653
0.00182899
0.00148263
0.00109066
0.000991568
0.000915039
0.000880099
0.000825151
0.000762087
0.000715496
0.000693097
0.0018133
0.00181216
0.00181871
0.00182084
0.00181995
0.001817
0.00181613
0.00182031
0.00182632
0.00183136
0.0018793
0.00194255
0.0019677
0.00182677
0.00147407
0.00110534
0.000988316
0.000935223
0.000921969
0.000860268
0.000797353
0.000757021
0.000728391
0.00181216
0.00181256
0.00181755
0.00182017
0.00181779
0.0018162
0.00181574
0.00181903
0.00182623
0.00183129
0.00187979
0.00194618
0.00196956
0.00181825
0.00145316
0.00111811
0.000980382
0.000958746
0.000965908
0.000904213
0.00084
0.000796442
0.000753097
0.00181066
0.00181329
0.00181948
0.00182027
0.00181828
0.00181872
0.00181527
0.00181905
0.00182609
0.00183071
0.00188003
0.0019501
0.00197342
0.00181802
0.00143887
0.00116772
0.000969443
0.000988004
0.00101416
0.000942981
0.000866755
0.000827727
0.000785419
0.00181115
0.00181745
0.00181747
0.00181801
0.0018184
0.00182078
0.00181484
0.00181845
0.00182521
0.00183089
0.0018802
0.00195436
0.00197529
0.00181371
0.00144539
0.00119419
0.000980673
0.00101661
0.00103685
0.000944711
0.000881565
0.00084724
0.000815393
0.00181265
0.00181896
0.00181587
0.00182051
0.00181864
0.00182044
0.00181318
0.00181918
0.00182498
0.00183148
0.00187939
0.00196198
0.00197448
0.00182036
0.00145079
0.00123409
0.00103889
0.00105647
0.00106595
0.000987827
0.000926652
0.000903506
0.000862014
0.00181257
0.00181718
0.00181437
0.0018182
0.00181798
0.00181864
0.00181339
0.00181843
0.00182495
0.0018327
0.00187956
0.001964
0.00197065
0.00181754
0.00143973
0.00124262
0.00110004
0.0010978
0.00110646
0.00101802
0.000967312
0.000946701
0.000904831
0.0018127
0.00181611
0.00181377
0.00181835
0.0018179
0.00181618
0.00181481
0.00181765
0.00182468
0.00183275
0.00187566
0.00196635
0.00197505
0.00183048
0.00147294
0.00130319
0.00119732
0.00117711
0.00116909
0.00107657
0.00103602
0.0010293
0.000975229
0.00181399
0.00181703
0.00181323
0.00181728
0.00181557
0.00181738
0.00181411
0.00181857
0.00182371
0.00183535
0.00187131
0.00196823
0.00198382
0.00184605
0.00152459
0.00137695
0.00130269
0.00126177
0.00123455
0.00115993
0.00111237
0.00110868
0.00105912
0.00181099
0.00181806
0.00181394
0.00181591
0.00181449
0.00181787
0.00181345
0.00182043
0.00182446
0.00183449
0.00186674
0.00196868
0.00198821
0.00186477
0.00158586
0.00147695
0.00140237
0.00136018
0.0013269
0.00126934
0.00123355
0.00122663
0.00118529
0.00181041
0.00181296
0.00181348
0.00181481
0.00181855
0.00181964
0.00181395
0.00182151
0.00182372
0.00183141
0.0018623
0.0019661
0.00199074
0.00189029
0.00165655
0.00155777
0.0015118
0.00147221
0.00144189
0.00139028
0.00134601
0.00134254
0.00131319
0.00180766
0.00181033
0.00181344
0.00181412
0.00181635
0.00181509
0.00181789
0.00182154
0.00181967
0.00182996
0.0018581
0.00195843
0.00199834
0.00192953
0.00172084
0.00162238
0.00161229
0.00158129
0.00156855
0.00150679
0.00147299
0.00146925
0.00144348
0.00180893
0.00181397
0.0018136
0.00181497
0.00181558
0.00181523
0.00181609
0.00182094
0.00182115
0.00182962
0.00185427
0.00194744
0.00200671
0.00195045
0.00179419
0.00165952
0.00171466
0.00170248
0.00168506
0.00163979
0.00160633
0.00159084
0.00156806
0.0018096
0.00181557
0.00181372
0.00181547
0.00181571
0.00181048
0.00181581
0.00182064
0.00182409
0.00182941
0.00185094
0.0019349
0.00200741
0.00197909
0.00185485
0.00176167
0.00175519
0.00183418
0.00180199
0.00176182
0.00172605
0.00173507
0.0017086
0.00181452
0.00181667
0.00181212
0.00181551
0.00181587
0.00181168
0.001816
0.00181945
0.00182607
0.00182959
0.00184823
0.00192126
0.00200412
0.00198455
0.00189696
0.00187434
0.00185175
0.00190873
0.00190129
0.00187191
0.00183922
0.00184855
0.00183382
0.00181342
0.00181404
0.00181126
0.00181558
0.00181628
0.00181622
0.00181587
0.00181844
0.00182741
0.00182957
0.00184587
0.00190864
0.00199473
0.00200143
0.00191578
0.00196195
0.00197051
0.00200905
0.00202538
0.00197167
0.0019222
0.00193122
0.00194431
0.00180418
0.00181323
0.00181111
0.00181514
0.00181721
0.00181712
0.00181509
0.00181748
0.001826
0.00182912
0.00184404
0.00189772
0.00198029
0.00202254
0.0019533
0.00204887
0.00204146
0.00208534
0.00214613
0.00209445
0.00202535
0.00200697
0.002025
0.00179902
0.00181038
0.00181129
0.00181429
0.00181818
0.00181716
0.00181396
0.00181692
0.00182303
0.00182838
0.00184224
0.001888
0.00196495
0.00202202
0.00200278
0.00205752
0.00221013
0.00222302
0.00222494
0.00222208
0.00217949
0.00217345
0.00216001
0.00180031
0.00180787
0.0018113
0.00181327
0.0018183
0.00181691
0.00181258
0.00181602
0.00182148
0.00182766
0.0018408
0.00187965
0.0019486
0.00202647
0.00198125
0.00207636
0.00221127
0.00242611
0.00239965
0.00231135
0.00233589
0.00231705
0.0023049
0.00180541
0.00180447
0.00181059
0.00181236
0.00181761
0.00181626
0.00181152
0.00181542
0.00182045
0.00182672
0.00183899
0.00187177
0.00193345
0.00200976
0.00197621
0.00207776
0.00249392
0.00255961
0.00245962
0.00243075
0.00241863
0.00245303
0.00245888
0.00180761
0.00180187
0.00180923
0.00181155
0.0018161
0.00181544
0.00181049
0.00181461
0.0018194
0.00182575
0.00183719
0.00186474
0.00191956
0.00198103
0.0020263
0.00206578
0.00246647
0.00281258
0.00273531
0.00263362
0.00261752
0.00260713
0.00258609
0.00180927
0.00180331
0.00180755
0.00181065
0.00181409
0.00181428
0.00180978
0.00181385
0.00181832
0.00182442
0.00183493
0.00185787
0.0019027
0.00199138
0.00199322
0.0021812
0.00265532
0.00300107
0.00294602
0.0027923
0.00275916
0.00273564
0.00276889
0.00180979
0.00180479
0.00180588
0.00180958
0.00181176
0.00181294
0.00180898
0.00181275
0.00181723
0.00182286
0.00183229
0.00185156
0.00188808
0.0019661
0.00204033
0.00231373
0.0025264
0.00319681
0.00349599
0.00327338
0.00315101
0.00295944
0.00297214
0.00180938
0.00180504
0.0018041
0.0018081
0.00180921
0.00181111
0.00180813
0.0018113
0.00181558
0.0018208
0.00182903
0.00184481
0.00187464
0.00194149
0.00204073
0.00226541
0.00262466
0.00298947
0.00373242
0.00343925
0.00335607
0.00324458
0.00319845
0.00180759
0.00180424
0.00180237
0.0018063
0.0018066
0.00180914
0.0018071
0.00180955
0.00181395
0.00181825
0.00182529
0.0018381
0.00186192
0.00191513
0.0020229
0.00217138
0.00274871
0.0032947
0.0040966
0.00374967
0.00360031
0.00353133
0.00353438
0.001805
0.00180254
0.00180023
0.00180391
0.00180373
0.00180667
0.00180556
0.00180734
0.00181135
0.00181532
0.00182083
0.00183091
0.0018495
0.00188734
0.00200033
0.00215241
0.00293655