/*--------------------------------*- C++ -*----------------------------------*\
  =========                 |
  \\      /  F ield         | OpenFOAM: The Open Source CFD Toolbox
   \\    /   O peration     | Website:  https://openfoam.org
    \\  /    A nd           | Version:  7
     \\/     M anipulation  |
\*---------------------------------------------------------------------------*/
FoamFile
{
    version     2.0;
    format      ascii;
    class       volScalarField;
    location    "50";
    object      omega;
}
// * * * * * * * * * * * * * * * * * * * * * * * * * * * * * * * * * * * * * //

dimensions      [0 0 -1 0 0 0 0];

internalField   nonuniform List<scalar> 
12842
(
3.1444
2.84542
2.66172
2.52835
2.44377
2.37853
2.33047
2.29706
2.27153
2.25403
2.23894
2.23006
2.22282
2.22388
2.22933
2.24186
2.26998
2.31066
2.39061
2.46272
2.57076
2.64133
2.73893
3.13428
2.82039
2.63294
2.51417
2.43126
2.37266
2.32906
2.29502
2.26802
2.2517
2.23757
2.22961
2.22283
2.22425
2.23034
2.24421
2.27141
2.31432
2.39269
2.46531
2.57393
2.64961
2.74247
3.11568
2.80258
2.60655
2.47726
2.40587
2.35
2.31651
2.28903
2.26585
2.24805
2.23388
2.22651
2.2219
2.22388
2.23106
2.24705
2.27656
2.32398
2.40623
2.47979
2.58354
2.65139
2.74787
3.08591
2.77769
2.59316
2.46597
2.3939
2.33976
2.30827
2.27896
2.26052
2.24492
2.23206
2.22495
2.22096
2.22349
2.23164
2.24901
2.28009
2.3298
2.41447
2.49083
2.60514
2.66703
2.7577
3.0633
2.73411
2.56014
2.43779
2.36688
2.32011
2.29262
2.27046
2.25445
2.24049
2.2291
2.22275
2.21992
2.22316
2.23241
2.25159
2.28514
2.33822
2.4289
2.50226
2.61365
2.69483
2.80625
3.03733
2.70705
2.53483
2.425
2.35518
2.3106
2.28547
2.26011
2.24818
2.23457
2.22567
2.22129
2.21942
2.22286
2.23365
2.25503
2.29149
2.34796
2.44388
2.52649
2.63509
2.71714
2.84635
3.01184
2.67385
2.50471
2.40014
2.33409
2.29339
2.27255
2.25199
2.24235
2.23067
2.22235
2.21871
2.21858
2.22275
2.23423
2.25697
2.29546
2.35571
2.45709
2.562
2.69008
2.78106
2.93667
2.98563
2.64916
2.48543
2.38644
2.32376
2.28603
2.26586
2.24506
2.23618
2.22607
2.22034
2.21723
2.21803
2.22294
2.23583
2.26029
2.30183
2.36659
2.47069
2.58435
2.75607
2.86722
3.04579
2.96138
2.62232
2.4589
2.3684
2.30784
2.27412
2.25492
2.23971
2.23243
2.22158
2.21815
2.2159
2.21759
2.22336
2.23688
2.26242
2.30692
2.38404
2.50899
2.64274
2.85233
2.97396
3.18119
2.93062
2.59718
2.44399
2.35501
2.30136
2.26909
2.25003
2.23504
2.22845
2.2194
2.21702
2.2151
2.21718
2.22412
2.23998
2.26951
2.32175
2.40324
2.54343
2.70583
2.95521
3.11794
3.33095
2.90544
2.57127
2.41947
2.3392
2.28892
2.26011
2.24242
2.23128
2.22568
2.2165
2.21466
2.21379
2.21674
2.22447
2.24161
2.27382
2.33337
2.4534
2.63445
2.7972
3.05888
3.24025
3.48318
2.87343
2.54904
2.4068
2.32966
2.28339
2.25604
2.23842
2.22736
2.22257
2.21513
2.21311
2.21268
2.21621
2.22713
2.25188
2.29576
2.37883
2.50578
2.7017
2.89799
3.19084
3.42907
3.64231
2.84927
2.52635
2.38532
2.31375
2.27304
2.24842
2.2321
2.22401
2.22027
2.21278
2.20978
2.21089
2.21534
2.2294
2.26233
2.31946
2.42156
2.60147
2.81993
3.02436
3.31587
3.57691
3.82152
2.81959
2.50766
2.37399
2.30658
2.26834
2.2448
2.22917
2.22068
2.21732
2.21117
2.2083
2.20895
2.21586
2.24202
2.3002
2.38595
2.51425
2.68277
2.90666
3.13576
3.46291
3.78032
3.98414
2.79588
2.48888
2.35596
2.29249
2.25925
2.23839
2.22362
2.21591
2.21372
2.20918
2.20542
2.20844
2.22142
2.26764
2.34104
2.4387
2.57752
2.80252
3.04632
3.2889
3.61281
3.94048
4.19027
2.77028
2.47281
2.34669
2.28608
2.2548
2.23527
2.22065
2.2129
2.21075
2.20744
2.20737
2.21336
2.24113
2.31391
2.41281
2.53325
2.69475
2.90213
3.1386
3.39237
3.75958
4.14217
4.3731
2.74808
2.45909
2.33199
2.27377
2.24596
2.22919
2.21458
2.20611
2.20534
2.20389
2.21008
2.2298
2.27652
2.36731
2.47442
2.60324
2.76966
3.02353
3.28621
3.5647
3.93076
4.29965
4.57582
2.72576
2.44421
2.3248
2.26796
2.24132
2.22591
2.21137
2.20302
2.20317
2.20808
2.22624
2.263
2.32481
2.43643
2.56275
2.71177
2.89646
3.13808
3.38235
3.66142
4.06301
4.49266
4.79753
2.7062
2.43408
2.31325
2.25668
2.23186
2.21917
2.20441
2.19734
2.19892
2.21057
2.2475
2.30358
2.38409
2.50883
2.63744
2.78879
2.97362
3.24025
3.51732
3.83803
4.24516
4.635
4.96921
2.68672
2.42207
2.30784
2.2511
2.22694
2.21571
2.2015
2.1969
2.20578
2.23246
2.28851
2.35961
2.45316
2.58917
2.73057
2.89739
3.09903
3.36737
3.62645
3.93107
4.37323
4.82153
5.21448
2.67112
2.41215
2.29882
2.24029
2.21638
2.20844
2.19665
2.19641
2.21111
2.25698
2.32656
2.41847
2.52655
2.66819
2.81095
2.97683
3.17308
3.44332
3.73144
4.10555
4.53501
4.9547
5.34608
2.6557
2.40281
2.29392
2.23387
2.21118
2.20527
2.20128
2.21031
2.24225
2.3075
2.38651
2.49105
2.60574
2.74904
2.89608
3.0716
3.28841
3.57847
3.87035
4.20303
4.69607
5.15781
5.59161
2.6424
2.39237
2.28646
2.22538
2.20325
2.19908
2.2107
2.23775
2.27686
2.35013
2.43944
2.55907
2.68167
2.82717
2.98179
3.16118
3.37131
3.6442
3.94772
4.37632
4.81144
5.26316
5.71076
2.63241
2.38609
2.28242
2.21599
2.19654
2.20055
2.23222
2.28429
2.33377
2.41962
2.51665
2.64408
2.767
2.90694
3.05474
3.23443
3.4633
3.77746
4.11269
4.49032
5.01835
5.49993
5.95229
2.62223
2.37838
2.2787
2.21158
2.1951
2.21218
2.26817
2.33101
2.39132
2.48248
2.58472
2.71825
2.84247
2.98388
3.14722
3.34099
3.57655
3.85819
4.20323
4.66914
5.13708
5.62844
6.08713
2.616
2.37158
2.27327
2.20715
2.20179
2.24038
2.31671
2.38619
2.45337
2.54831
2.65489
2.79077
2.91348
3.05021
3.20382
3.39634
3.64362
3.9979
4.37799
4.82104
5.37191
5.89371
6.34808
2.60461
2.36552
2.27051
2.20229
2.21989
2.28046
2.36986
2.44735
2.52094
2.61708
2.72456
2.85962
2.98006
3.11858
3.29209
3.50313
3.77381
4.08369
4.49774
5.00811
5.55482
6.10156
6.6429
2.59881
2.35584
2.26471
2.20195
2.24988
2.32597
2.43043
2.51285
2.58693
2.68533
2.79241
2.92443
3.04126
3.17609
3.33996
3.55651
3.84547
4.26041
4.69419
5.24953
5.89904
6.55966
7.03366
2.58724
2.34991
2.26202
2.20994
2.2878
2.38127
2.49135
2.57864
2.65579
2.75207
2.85649
2.98326
3.09659
3.23312
3.42045
3.66103
3.98481
4.37179
4.91352
5.54571
6.32937
6.99643
7.7425
2.58032
2.33979
2.25703
2.22973
2.3341
2.43819
2.55429
2.6437
2.71857
2.81548
2.91616
3.03726
3.14739
3.28311
3.46113
3.71525
4.07662
4.58558
5.15235
6.00109
6.877
7.90231
8.93138
2.56901
2.33494
2.26404
2.25979
2.38555
2.49984
2.61497
2.70612
2.78226
2.87418
2.97044
3.08462
3.1918
3.32925
3.5363
3.8206
4.24728
4.80556
5.57803
6.58194
7.99652
9.46382
11.1276
2.56045
2.32709
2.27258
2.29583
2.44129
2.55952
2.67344
2.76196
2.8369
2.92791
3.0193
3.12741
3.23337
3.37382
3.57629
3.90011
4.39243
5.03696
5.95947
7.38356
9.02026
11.0773
15.3905
2.55115
2.32498
2.30265
2.3401
2.49834
2.62004
2.72638
2.81482
2.89167
2.97526
3.06252
3.16423
3.26888
3.41323
3.65075
4.00287
4.57912
5.41287
6.5731
8.32315
10.7135
15.7964
29.7229
2.53972
2.32008
2.32622
2.38833
2.55389
2.67475
2.77629
2.85803
2.93456
3.01735
3.10044
3.19694
3.30271
3.45219
3.69359
4.12962
4.82269
5.69202
7.23939
9.64239
13.9581
24.2098
45.2615
2.53136
2.33121
2.37163
2.43789
2.6097
2.72849
2.81987
2.89922
2.97886
3.05302
3.13332
3.22538
3.33201
3.49205
3.78021
4.2484
5.0046
6.18112
7.99741
11.1394
17.4068
32.129
61.1792
2.52426
2.34679
2.40704
2.49162
2.65938
2.77503
2.85845
2.93243
3.0108
3.08399
3.16159
3.24996
3.36012
3.52694
3.82788
4.3893
5.32685
6.58041
8.85514
12.8854
21.1584
40.332
76.2104
2.51423
2.38064
2.45427
2.54179
2.70961
2.8194
2.89488
2.96337
3.0426
3.10994
3.18585
3.27224
3.38512
3.56942
3.93186
4.58482
5.55984
7.07212
9.85048
14.8473
25.7727
51.3535
93.1225
2.5136
2.41592
2.49871
2.59421
2.75268
2.85746
2.92391
2.99063
3.0686
3.13208
3.20629
3.29093
3.41027
3.61068
4.00579
4.71656
5.88894
7.70173
10.863
16.6997
30.2042
62.7811
116.219
2.50958
2.45682
2.54343
2.6433
2.79516
2.89308
2.95343
3.01416
3.08977
3.15095
3.22395
3.3088
3.43245
3.65061
4.10071
4.93973
6.24596
8.26837
11.8578
18.743
35.697
73.3363
128.487
2.52201
2.50197
2.58904
2.69181
2.83271
2.92636
2.97827
3.03846
3.11015
3.16716
3.23852
3.32369
3.45662
3.70809
4.24069
5.19454
6.63612
8.88263
12.7404
20.8779
42.1324
86.982
156.457
2.53811
2.54896
2.63293
2.73822
2.86944
2.95405
3.00225
3.05857
3.12809
3.18119
3.2514
3.33846
3.47853
3.75006
4.32061
5.36842
7.01523
9.49132
13.8178
24.4484
50.7794
98.7592
156.759
2.56954
2.59573
2.67737
2.78105
2.90138
2.98455
3.02467
3.07878
3.14216
3.19357
3.26203
3.35118
3.50231
3.8162
4.49711
5.72071
7.48141
10.1769
15.5581
30.0765
64.6679
108.407
159.803
2.59682
2.64426
2.72096
2.82442
2.93205
3.00696
3.04712
3.09627
3.15394
3.20446
3.27167
3.36392
3.52625
3.87679
4.63562
5.98081
7.95974
11.1283
18.8093
41.0309
79.9626
115.815
152.347
2.63335
2.69206
2.76663
2.86379
2.96062
3.03082
3.06539
3.11259
3.16526
3.21434
3.27995
3.37547
3.55123
3.9428
4.78528
6.31613
8.54503
12.8362
24.9172
56.5935
93.7514
122.481
154.581
2.66548
2.73685
2.80667
2.89536
2.98389
3.04448
3.08124
3.12367
3.17166
3.22283
3.28764
3.38734
3.57634
4.02013
5.01605
6.71344
9.31493
15.7275
36.0126
71.3598
101.387
125.569
158.027
2.69883
2.77812
2.84623
2.92942
3.00444
3.05996
3.09631
3.13591
3.17339
3.23091
3.29465
3.39772
3.60599
4.10369
5.16092
7.11629
10.8442
22.7029
48.918
83.6096
108.442
139.362
174.051
2.72795
2.81082
2.87659
2.95321
3.01938
3.07118
3.10486
3.14274
3.17507
3.23709
3.30124
3.4104
3.63102
4.17435
5.42625
7.91742
14.296
31.5002
61.5087
91.777
110.126
136.591
168.986
2.75582
2.84327
2.90631
2.97379
3.03154
3.07927
3.11518
3.14859
3.18119
3.24355
3.30779
3.41884
3.6651
4.29644
5.78393
9.31936
18.9013
40.9066
71.7233
96.699
115.207
134.061
164.675
2.78064
2.86451
2.92914
2.99094
3.04063
3.08403
3.12182
3.14896
3.18665
3.24832
3.31373
3.43339
3.69476
4.39632
6.19338
11.0981
24.3054
48.9421
78.8997
98.634
112.064
129.221
156.738
2.80673
2.8904
2.95211
3.00687
3.05249
3.09
3.12915
3.15277
3.19098
3.25365
3.32059
3.44173
3.73084
4.5179
6.73538
13.0517
28.9013
54.7627
83.0994
99.317
109.859
127.29
146.444
2.83132
2.90519
2.96941
3.01744
3.06207
3.09557
3.13361
3.15687
3.1944
3.25802
3.32561
3.45341
3.75628
4.64321
7.30434
15.1049
33.2346
58.5965
85.3608
99.3012
107.997
121.575
134.414
2.85499
2.92323
2.98618
3.02739
3.07224
3.10218
3.13907
3.1621
3.19831
3.26246
3.33181
3.46289
3.79029
4.76708
7.84909
17.0108
35.5394
60.7106
86.1872
99.2469
106.812
115.374
122.576
2.87699
2.93466
2.99894
3.03602
3.08012
3.10896
3.14456
3.16688
3.20263
3.26637
3.33578
3.47058
3.80983
4.87384
8.3716
18.5147
37.0257
61.8209
86.5155
99.6227
105.686
109.389
111.97
2.89593
2.95044
3.01085
3.04565
3.08846
3.11582
3.15088
3.17239
3.20721
3.2706
3.34153
3.48136
3.83514
4.9787
8.85248
19.5931
38.2984
62.2975
87.5059
99.6452
104.713
104.961
102.846
2.91297
2.96396
3.02005
3.05389
3.09564
3.12273
3.15728
3.17789
3.21204
3.27396
3.34506
3.48714
3.84623
5.06219
9.27683
20.2188
38.1526
63.2109
87.4531
99.3359
104.098
101.768
94.7486
2.92632
2.98083
3.02925
3.06262
3.10358
3.12923
3.16342
3.18286
3.21641
3.27758
3.3495
3.49563
3.86396
5.18545
9.60612
20.3592
37.5249
63.3009
85.976
96.9272
100.788
95.4044
85.3456
2.93909
2.99679
3.03787
3.07022
3.11111
3.13516
3.16879
3.18709
3.21994
3.28016
3.3524
3.50091
3.86858
5.22723
9.62638
19.8181
35.4663
61.6924
79.4694
88.4623
91.5931
86.7132
76.8475
2.94972
3.01283
3.04711
3.07873
3.11919
3.14124
3.17374
3.19106
3.2229
3.28235
3.35497
3.50529
3.8716
5.23589
9.5963
18.8037
32.9287
57.8311
70.0724
76.6288
79.8401
76.5174
67.6133
2.96244
3.02933
3.05696
3.08781
3.128
3.14778
3.17906
3.19516
3.22584
3.28416
3.35712
3.50993
3.87382
5.23883
9.4291
17.5508
30.0179
52.1208
59.8795
64.1831
67.7836
64.8895
58.4236
2.97461
3.04523
3.06786
3.09829
3.13709
3.15503
3.18427
3.1998
3.22882
3.28573
3.35891
3.51348
3.87377
5.20895
9.07177
16.1683
26.9829
45.6161
50.0507
52.7334
56.3902
53.5129
49.8471
2.98934
3.06172
3.07884
3.10927
3.14687
3.16315
3.19021
3.20458
3.23183
3.28692
3.36029
3.5166
3.86836
5.14643
8.65912
14.7639
24.0204
38.963
41.2807
43.0341
46.4443
43.6664
42.0525
3.00376
3.07692
3.09078
3.12165
3.15624
3.17146
3.19622
3.21016
3.23547
3.28828
3.36148
3.51863
3.86102
5.05015
8.17485
13.3825
21.2423
32.7777
33.9725
35.2221
38.5841
36.1035
35.6691
3.02038
3.09291
3.10225
3.13372
3.16605
3.18133
3.20285
3.21609
3.23895
3.28934
3.36251
3.51895
3.84729
4.94404
7.68288
12.0843
18.7998
27.48
28.1747
29.1923
32.3285
30.9645
30.9723
3.03683
3.10755
3.11471
3.14689
3.17542
3.19012
3.20985
3.2221
3.24332
3.29087
3.3637
3.51899
3.8334
4.82678
7.19915
10.8991
16.6882
23.3111
23.8668
24.8485
27.5907
27.6931
27.4377
3.054
3.1227
3.12623
3.15953
3.18432
3.20082
3.21677
3.22899
3.24742
3.29236
3.36363
3.51802
3.813
4.70854
6.76391
9.86743
15.0362
20.2004
20.7689
21.8104
24.4824
25.2875
24.9138
3.07201
3.13657
3.13903
3.1718
3.19392
3.2098
3.22445
3.23509
3.25207
3.29408
3.36379
3.51351
3.79396
4.5895
6.35927
9.00887
13.7424
18.0417
18.666
19.7773
22.4125
23.3392
23.2651
3.08828
3.15101
3.1505
3.18488
3.20193
3.2197
3.23169
3.24216
3.25692
3.29631
3.3644
3.50707
3.76772
4.47564
6.00959
8.31819
12.8274
16.6161
17.348
18.529
21.1016
22.1286
22.2997
3.10672
3.16311
3.16322
3.19585
3.21125
3.22894
3.23899
3.24837
3.26141
3.29822
3.36493
3.49889
3.74236
4.36862
5.70039
7.79108
12.2303
15.7214
16.6599
17.74
20.1878
21.4071
21.7223
3.12256
3.17747
3.17459
3.20762
3.21949
3.23713
3.24711
3.25518
3.26686
3.30084
3.36529
3.49179
3.71603
4.27403
5.44663
7.39641
12.0849
15.1901
16.386
17.3883
19.5992
20.9739
21.439
3.13947
3.18784
3.1874
3.21942
3.22798
3.24611
3.25364
3.26147
3.27139
3.30321
3.36565
3.48476
3.69108
4.19331
5.24876
7.13051
12.0246
14.9067
16.3648
17.3068
19.1972
20.6911
21.3299
3.15507
3.20088
3.19848
3.22836
3.23671
3.25334
3.26058
3.26722
3.27677
3.30548
3.36503
3.47926
3.66594
4.12843
5.10321
6.94312
12.0958
14.779
16.3868
17.2814
18.9985
20.533
21.2129
3.17094
3.21111
3.20955
3.23891
3.24458
3.26079
3.26947
3.27494
3.28135
3.30864
3.36493
3.4748
3.64945
4.07872
4.99863
6.83597
12.4416
14.7586
16.4632
17.335
18.8143
20.409
21.145
3.18377
3.21799
3.22317
3.24484
3.25259
3.26693
3.27262
3.27787
3.28671
3.30989
3.36488
3.47138
3.63455
4.04501
4.92845
6.77305
13.0457
14.7796
16.5226
17.4239
18.7361
20.3193
21.082
3.19117
3.22342
3.22785
3.24844
3.25799
3.26695
3.27415
3.27882
3.29045
3.31053
3.36551
3.46834
3.62303
4.01612
4.88272
6.71922
13.2769
14.8833
16.5664
17.4908
18.6577
20.2448
21.0388
3.19097
3.22255
3.22987
3.24994
3.26215
3.26743
3.2756
3.28071
3.29253
3.3114
3.36484
3.46657
3.62122
4.00041
4.85376
6.68447
13.4003
14.9889
16.6073
17.5264
18.6439
20.1792
21.0119
3.19167
3.22248
3.23223
3.25325
3.26129
3.26801
3.27819
3.28265
3.29388
3.31187
3.36487
3.46485
3.61966
3.99236
4.83693
6.69044
13.5205
15.0937
16.64
17.5614
18.5851
20.0952
20.9859
3.19582
3.22266
3.23459
3.25216
3.26114
3.27038
3.28096
3.28413
3.29504
3.31281
3.3651
3.46373
3.61802
3.99168
4.82776
6.70798
13.5176
15.2108
16.6863
17.6281
18.6152
20.0206
20.9646
3.19346
3.22401
3.23484
3.25184
3.26361
3.26944
3.2803
3.28292
3.29397
3.31177
3.36551
3.46256
3.61731
3.99084
4.82147
6.76424
13.5339
15.28
16.7318
17.731
18.6814
20.0174
20.9607
3.19328
3.22319
3.23484
3.25176
3.26232
3.26945
3.28166
3.28332
3.29452
3.31191
3.36522
3.46211
3.61672
3.98836
4.81666
6.81536
13.5401
15.3921
16.8584
17.9635
18.839
20.0102
20.9087
3.1934
3.22294
3.23465
3.25105
3.26174
3.26977
3.28197
3.28352
3.29301
3.31186
3.36472
3.46116
3.61633
3.98669
4.81822
6.89967
13.596
15.5352
17.0293
18.2142
19.0347
20.0379
20.8729
3.19337
3.22366
3.23747
3.25081
3.26151
3.27085
3.28149
3.28164
3.29419
3.31361
3.36381
3.46002
3.61524
3.98588
4.81928
6.94918
13.7242
15.907
17.2984
18.4696
19.2564
20.082
20.8501
3.19336
3.22037
3.24008
3.24981
3.2611
3.27006
3.28116
3.28222
3.29276
3.31261
3.36285
3.45894
3.61293
3.98566
4.82673
7.02589
13.6017
16.2224
17.6264
18.7862
19.4143
20.1238
20.8517
3.19294
3.2198
3.23743
3.25193
3.26104
3.27064
3.28042
3.28138
3.29307
3.31297
3.36154
3.45753
3.61358
3.9844
4.82862
7.11896
13.5363
16.2599
17.6314
18.9293
19.6218
20.1762
20.9229
3.19355
3.22028
3.23783
3.25002
3.26184
3.26846
3.28052
3.28287
3.29112
3.31274
3.36021
3.45517
3.61324
3.98439
4.83043
7.18735
13.5412
16.2934
17.6439
18.9567
19.7673
20.2645
20.9384
3.19317
3.21647
3.23447
3.24928
3.26213
3.26917
3.27809
3.28115
3.29069
3.31252
3.35872
3.45314
3.61199
3.98491
4.84683
7.26959
13.6525
16.3275
17.6586
18.9652
19.8312
20.4073
20.9415
3.19555
3.21629
3.23402
3.2488
3.25913
3.26897
3.27751
3.28107
3.29048
3.31138
3.35725
3.45215
3.6124
3.98746
4.87006
7.45739
13.4747
16.411
17.6136
18.9251
19.8164
20.3958
20.8948
3.19306
3.21742
3.23476
3.24911
3.25881
3.26938
3.27822
3.28209
3.29058
3.31177
3.35579
3.45105
3.61319
3.98867
4.88188
7.46024
13.4576
16.35
17.4765
18.7398
19.734
20.3504
20.8363
3.19218
3.21945
3.23089
3.24853
3.25766
3.26641
3.27825
3.28234
3.2882
3.30983
3.35443
3.44922
3.61359
3.99039
4.93038
7.77049
13.5365
16.3374
17.2857
18.4998
19.5654
20.2995
20.7849
3.19188
3.21832
3.2302
3.24751
3.25759
3.26595
3.27861
3.2802
3.28771
3.31044
3.35311
3.4482
3.61403
3.99137
4.98515
8.06868
13.5764
16.1583
16.9738
18.1084
19.2258
20.0973
20.6968
3.19074
3.21728
3.23079
3.24595
3.25666
3.26705
3.27562
3.2785
3.28739
3.3095
3.35191
3.44761
3.61424
3.99966
5.06031
8.02648
13.7378
15.9941
16.6694
17.5944
18.7187
19.5637
20.4218
3.18993
3.21525
3.22644
3.24281
3.25644
3.26659
3.27398
3.2779
3.28679
3.31026
3.35072
3.44718
3.61434
4.00723
5.12256
8.14777
13.6728
15.6737
16.2239
16.9806
18.0381
18.9445
19.9637
3.18912
3.21216
3.23115
3.24147
3.25685
3.26556
3.27354
3.2766
3.2855
3.31024
3.3497
3.44663
3.61427
4.02432
5.22376
8.22264
13.6753
15.2891
15.7136
16.3358
17.3248
18.2799
19.5669
3.18764
3.20992
3.22732
3.23915
3.25773
3.26239
3.27231
3.27593
3.2844
3.30913
3.3484
3.44609
3.61422
4.03009
5.28282
8.09038
13.5035
14.56
15.0101
15.6104
16.5875
17.4529
18.7673
3.18451
3.2033
3.22855
3.23758
3.25591
3.25792
3.27183
3.27708
3.28385
3.30825
3.34767
3.4459
3.61867
4.04875
5.26973
8.07038
13.0124
13.8709
14.4485
15.1355
16.0839
16.8023
17.9517
3.18098
3.2015
3.22926
3.23601
3.25362
3.25684
3.27324
3.27625
3.28035
3.30606
3.34555
3.44472
3.62164
4.04809
5.26732
8.02711
12.0691
12.851
13.568
14.4171
15.1838
15.7698
16.719
3.1724
3.20226
3.22715
3.23525
3.25182
3.2573
3.27197
3.27483
3.27977
3.30491
3.34586
3.44718
3.63125
4.07282
5.34167
7.99867
11.341
12.0931
12.9658
13.9229
14.5535
15.0145
15.7727
3.17103
3.20042
3.22394
3.23607
3.24654
3.256
3.27011
3.27079
3.2794
3.30227
3.34319
3.44271
3.62194
4.05487
5.25873
7.50335
10.2736
11.0619
11.9855
12.8974
13.3934
13.7615
14.3373
3.17051
3.19591
3.22136
3.23652
3.24299
3.25099
3.26715
3.26707
3.27825
3.29677
3.34017
3.43759
3.61669
4.02678
5.11981
7.03379
9.30962
10.1446
11.0258
11.8378
12.2627
12.5831
13.072
3.17129
3.18606
3.2144
3.23326
3.24233
3.24321
3.26031
3.2637
3.27455
3.29489
3.33679
3.4313
3.60518
3.9899
4.9475
6.57873
8.48435
9.29809
10.0744
10.7729
11.0979
11.3403
11.7394
3.16725
3.18261
3.20365
3.22876
3.23601
3.24028
3.25658
3.26052
3.26915
3.29579
3.33291
3.42355
3.59904
3.94619
4.7706
6.16734
7.73654
8.56145
9.22172
9.75585
10.1321
10.3266
10.6448
3.16337
3.18293
3.19988
3.2226
3.23601
3.24004
3.24971
3.25686
3.26672
3.29257
3.32768
3.41384
3.58293
3.89981
4.6088
5.80004
7.15832
7.9398
8.44039
8.95514
9.24118
9.3894
9.65537
3.14981
3.17681
3.20077
3.21633
3.23166
3.23569
3.24889
3.25121
3.26012
3.2874
3.32168
3.40289
3.56295
3.85421
4.4766
5.50113
6.6495
7.42973
7.86939
8.23557
8.53043
8.67736
8.87896
3.14294
3.16808
3.19518
3.20829
3.22365
3.22777
3.24202
3.24378
3.25434
3.2804
3.31396
3.39009
3.54004
3.81008
4.36504
5.25862
6.28359
6.95348
7.385
7.70297
7.96329
8.08471
8.24413
3.12169
3.15929
3.18719
3.19918
3.21418
3.2187
3.23303
3.23793
3.24525
3.27204
3.30559
3.37689
3.51652
3.76949
4.28847
5.0568
5.98414
6.63145
7.01187
7.28644
7.49993
7.61572
7.76336
3.11171
3.14741
3.17578
3.18771
3.20181
3.20892
3.22226
3.23009
3.23394
3.2615
3.29492
3.36178
3.49137
3.72985
4.22173
4.90515
5.74411
6.39614
6.72016
6.97587
7.21773
7.31262
7.43012
3.10881
3.13343
3.16271
3.1758
3.18756
3.19872
3.21159
3.22091
3.22575
3.25108
3.28379
3.34673
3.46675
3.69127
4.16914
4.78608
5.53786
6.15955
6.49746
6.70255
6.96634
7.11698
7.2228
3.09475
3.11645
3.14618
3.16095
3.17036
3.1849
3.19834
3.20785
3.21689
3.23763
3.26932
3.32893
3.4403
3.65216
4.1138
4.69076
5.38448
6.0326
6.40539
6.54215
6.74159
6.89076
7.05218
3.07696
3.09887
3.12881
3.14495
3.15344
3.16982
3.18444
3.1937
3.20388
3.22329
3.25441
3.31134
3.41471
3.61368
4.05498
4.62651
5.28308
5.79153
6.22274
6.509
6.65402
6.80904
6.90476
3.05333
3.07805
3.10779
3.12445
3.13343
3.15029
3.16606
3.17484
3.18576
3.20429
3.23469
3.28927
3.38593
3.57312
3.9836
4.5489
5.1718
5.76531
6.26103
6.58082
6.71844
6.79742
6.86908
3.02718
3.05633
3.08577
3.10257
3.11316
3.12968
3.14652
3.15517
3.16615
3.18436
3.21447
3.26698
3.35731
3.53557
3.93097
4.46004
5.06852
5.70884
6.21976
6.62462
6.73347
6.82861
6.85918
2.995
3.02931
3.05783
3.07501
3.08744
3.10315
3.12072
3.1294
3.14066
3.1581
3.18722
3.23745
3.32217
3.49082
3.86106
4.42042
4.82924
5.61554
6.27068
6.71315
6.78759
6.892
6.92383
2.96176
3.00074
3.02795
3.04625
3.06046
3.07553
3.09364
3.10283
3.11387
3.13116
3.15937
3.20705
3.28589
3.44639
3.80333
4.36694
4.73726
5.42712
6.22984
6.82534
6.88782
6.98037
7.00797
2.92241
2.96456
2.99001
3.00996
3.02555
3.04005
3.05818
3.06802
3.07923
3.09542
3.12193
3.16634
3.23901
3.38789
3.73524
4.29731
4.69548
5.36496
6.22238
6.98739
7.07949
7.05959
7.09759
2.88278
2.9267
2.95073
2.97254
2.98928
3.00358
3.02158
3.03245
3.0437
3.05959
3.08421
3.12485
3.18958
3.31857
3.63488
4.22363
4.64043
5.3208
6.11749
6.91424
7.14125
7.1159
7.18034
2.83499
2.87866
2.90187
2.92507
2.94256
2.95653
2.97398
2.98565
2.99701
3.01202
3.03389
3.07025
3.12655
3.23126
3.49967
4.0588
4.6059
5.33762
6.24799
6.82305
7.15899
7.25432
7.24603
2.78687
2.82972
2.85319
2.87723
2.89531
2.90916
2.92618
2.93892
2.95068
2.96569
2.98472
3.01659
3.06461
3.14851
3.35582
3.84514
4.61447
5.42012
6.23094
6.77271
7.1722
7.28647
7.36989
2.72739
2.76788
2.79228
2.81637
2.83443
2.84775
2.86414
2.87709
2.88858
2.90317
2.91929
2.94533
2.98787
3.05089
3.19233
3.5897
4.39616
5.2383
6.19988
6.767
7.12601
7.30728
7.40101
2.66847
2.70744
2.73335
2.75718
2.77504
2.7881
2.80432
2.81794
2.82962
2.84401
2.85856
2.87902
2.91632
2.9644
3.05572
3.32729
3.9937
5.11469
6.14668
6.57777
6.85568
7.08722
7.38704
2.59445
2.63068
2.65765
2.68068
2.69743
2.70956
2.72517
2.73831
2.74897
2.76225
2.77569
2.79039
2.81951
2.85615
2.91621
3.07397
3.55185
4.57997
6.04268
6.66662
6.69674
6.88176
7.26167
2.52433
2.55942
2.58734
2.6099
2.62567
2.63735
2.65297
2.66645
2.67701
2.68909
2.70254
2.71373
2.73392
2.76988
2.80891
2.8898
3.15292
3.907
5.54289
6.44705
6.72457
6.61618
6.87678
2.43394
2.4663
2.49349
2.5147
2.52848
2.53871
2.55304
2.56549
2.57459
2.58474
2.59659
2.60517
2.61787
2.64519
2.67519
2.71865
2.84269
3.24992
4.3559
6.43389
7.03666
6.8385
6.56188
2.3545
2.3859
2.41251
2.43327
2.44585
2.45571
2.46959
2.48202
2.49098
2.49999
2.51075
2.52011
2.52838
2.54554
2.57543
2.60175
2.65436
2.84027
3.41763
5.02286
7.17613
7.43376
6.84545
2.24616
2.27383
2.29712
2.31525
2.32527
2.33323
2.34469
2.35504
2.36229
2.36903
2.37661
2.38454
2.39066
2.39974
2.42024
2.44342
2.46642
2.53797
2.77917
3.57036
5.66638
7.65983
7.58743
2.16225
2.18909
2.21028
2.22744
2.23652
2.24425
2.2551
2.26504
2.2721
2.27834
2.28466
2.29136
2.29773
2.30371
2.31565
2.33786
2.35409
2.37846
2.47046
2.7583
3.7801
6.14897
7.96469
2.03305
2.05388
2.06878
2.08078
2.08641
2.0914
2.09888
2.10615
2.11114
2.11511
2.11897
2.12265
2.12671
2.13014
2.13533
2.14779
2.16375
2.17341
2.20052
2.2949
2.6268
3.81998
6.34046
1.95781
1.97254
1.9863
1.99816
2.00322
2.00756
2.01429
2.02108
2.02607
2.02997
2.03362
2.03683
2.04045
2.04367
2.0473
2.0555
2.06893
2.08039
2.09383
2.12827
2.23724
2.57254
3.81719
1.78252
1.79546
1.79571
1.79569
1.79454
1.79316
1.79396
1.79559
1.79741
1.79852
1.79991
1.80043
1.8016
1.80321
1.80503
1.80594
1.81056
1.82105
1.82573
1.82863
1.84171
1.99213
2.12884
3.07853
2.7522
2.56613
2.44968
2.37888
2.32619
2.29661
2.26612
2.25099
2.23469
2.22706
2.21861
2.21934
2.22332
2.23454
2.25617
2.2929
2.35169
2.43309
2.53666
2.65087
2.72732
2.84473
3.08993
2.76912
2.57767
2.46591
2.39589
2.33789
2.30229
2.27108
2.25504
2.2381
2.22901
2.22031
2.22044
2.22419
2.23442
2.25493
2.29043
2.34777
2.42187
2.53456
2.62384
2.70102
2.81262
3.10627
2.78078
2.59824
2.48024
2.40443
2.34331
2.30746
2.27546
2.25706
2.23984
2.2303
2.22231
2.22138
2.22478
2.23418
2.25322
2.28642
2.33838
2.41289
2.52712
2.59962
2.69768
2.79687
3.11654
2.80513
2.62005
2.49836
2.42085
2.35523
2.31454
2.28036
2.26078
2.24406
2.23387
2.22564
2.22284
2.2255
2.23381
2.25139
2.28254
2.33212
2.4046
2.5107
2.59153
2.68663
2.78405
3.13209
2.82377
2.63888
2.51361
2.42709
2.3593
2.31712
2.28505
2.26553
2.24897
2.23734
2.22834
2.22396
2.226
2.23327
2.24929
2.27877
2.32484
2.39778
2.49599
2.5822
2.66185
2.76072
3.14277
2.84202
2.65568
2.52214
2.43374
2.36885
2.32756
2.29611
2.27224
2.25414
2.23952
2.23048
2.22476
2.22631
2.23285
2.2469
2.27675
2.31834
2.4028
2.47151
2.57904
2.64892
2.75066
3.15226
2.85249
2.6652
2.53199
2.44511
2.38018
2.33378
2.29944
2.27358
2.25492
2.2406
2.23159
2.22504
2.22651
2.23308
2.24483
2.2804
2.31884
2.4015
2.47247
2.58218
2.65004
2.75078
3.15318
2.85452
2.665
2.53302
2.44317
2.37782
2.33047
2.29701
2.27039
2.25276
2.23789
2.2293
2.22237
2.2232
2.2295
2.24183
2.27595
2.3146
2.3952
2.46517
2.57408
2.64259
2.74359
2.89988
2.56903
2.4153
2.33137
2.27998
2.25196
2.22672
2.20434
2.19321
2.19375
2.21129
2.25357
2.32497
2.40267
2.50623
2.63974
2.80976
3.0505
3.28313
3.59845
3.97378
4.3434
4.76296
2.91328
2.57597
2.41896
2.33829
2.28516
2.25473
2.2328
2.21156
2.1957
2.19418
2.19956
2.21463
2.26063
2.31921
2.40907
2.53312
2.69709
2.93343
3.16099
3.47322
3.83536
4.20602
4.62395
2.91545
2.58261
2.42408
2.34489
2.29001
2.25793
2.23777
2.21839
2.20218
2.19775
2.1998
2.21272
2.24295
2.28972
2.36361
2.47418
2.62546
2.84938
3.0685
3.36278
3.72115
4.06175
4.46434
2.92933
2.59158
2.4295
2.35009
2.29377
2.25986
2.24236
2.2244
2.20682
2.20068
2.2001
2.2036
2.21614
2.24594
2.30455
2.40097
2.53999
2.75021
2.96051
3.23988
3.58299
3.8981
4.28118
2.93292
2.59952
2.4369
2.35785
2.29899
2.26361
2.24654
2.22977
2.21238
2.20531
2.20297
2.20461
2.21475
2.23366
2.27553
2.35398
2.47521
2.66477
2.86315
3.11786
3.44653
3.7205
4.10057
2.94834
2.61023
2.4444
2.36304
2.30437
2.26753
2.24975
2.23368
2.2174
2.20961
2.20576
2.20672
2.21164
2.22447
2.25369
2.31682
2.42069
2.58791
2.77507
3.0003
3.31087
3.5607
3.91108
2.95335
2.62037
2.45379
2.36988
2.30914
2.27193
2.25368
2.23655
2.22121
2.21304
2.20822
2.20813
2.21196
2.2232
2.24646
2.29354
2.37813
2.5189
2.69214
2.88404
3.18563
3.38713
3.72859
2.97079
2.63191
2.46394
2.37619
2.31561
2.27771
2.25739
2.23941
2.22473
2.21662
2.21198
2.2098
2.21361
2.22355
2.24479
2.28411
2.35386
2.46935
2.62881
2.79583
3.06385
3.24965
3.54265
2.97706
2.64387
2.47369
2.38337
2.32165
2.28393
2.26035
2.24131
2.22896
2.21853
2.21404
2.21212
2.21503
2.22358
2.2421
2.27602
2.33356
2.42674
2.57101
2.71539
2.95292
3.10184
3.36796
2.99672
2.65806
2.48645
2.39025
2.32775
2.28974
2.26512
2.24455
2.23227
2.2207
2.21696
2.21335
2.21611
2.22359
2.24155
2.27312
2.32509
2.40405
2.53502
2.66172
2.85237
2.99878
3.24749
3.00386
2.66994
2.49636
2.39979
2.33604
2.29718
2.26811
2.24669
2.23688
2.2231
2.219
2.21485
2.21718
2.22368
2.23948
2.26797
2.31462
2.38612
2.50685
2.60875
2.78785
2.91225
3.10942
3.02491
2.68823
2.51094
2.40687
2.3417
2.30156
2.274
2.25013
2.23939
2.22494
2.22071
2.21557
2.21771
2.22387
2.2389
2.26641
2.31078
2.3783
2.48845
2.58828
2.73809
2.84251
3.01496
3.03279
2.70043
2.52161
2.41924
2.35265
2.30922
2.27807
2.25363
2.24329
2.22804
2.223
2.21656
2.2182
2.2235
2.23756
2.26321
2.30561
2.37049
2.47896
2.56554
2.70327
2.79732
2.93791
3.05292
2.72024
2.53737
2.42673
2.35864
2.31299
2.28476
2.25721
2.24523
2.22988
2.22411
2.21703
2.21847
2.22379
2.23669
2.2615
2.30232
2.36514
2.46499
2.55388
2.68651
2.76486
2.88638
3.06257
2.73587
2.54951
2.44115
2.37187
2.32167
2.28967
2.26195
2.24896
2.23302
2.22607
2.21803
2.21896
2.22351
2.23588
2.2594
2.29854
2.35958
2.45381
2.54469
2.67041
2.74897
2.86967
2.83252
2.7981
2.86391
2.95091
3.03113
3.06915
3.10907
3.14009
3.17034
3.18031
3.19418
3.21544
3.25804
3.31129
3.38692
3.50411
3.66163
3.92174
4.18321
4.56058
4.83228
5.25505
5.54297
2.80734
2.74874
2.8131
2.90982
2.99431
3.04596
3.09538
3.13256
3.16167
3.17803
3.19504
3.2132
3.25499
3.30762
3.38353
3.49893
3.6594
3.91095
4.17813
4.55417
4.85306
5.21683
5.56908
2.79172
2.71199
2.7687
2.8719
2.96446
3.01974
3.08565
3.11519
3.15283
3.17361
3.18962
3.21292
3.25182
3.3054
3.38088
3.49466
3.65581
3.91457
4.1529
4.55301
4.84089
5.26174
5.58646
2.78644
2.66181
2.71613
2.82752
2.92258
2.98952
3.06746
3.09789
3.13813
3.16549
3.18558
3.20827
3.248
3.30225
3.37895
3.48966
3.65074
3.89958
4.1492
4.55334
4.83729
5.26648
5.59872
2.78144
2.62105
2.66379
2.77903
2.88001
2.9506
3.04077
3.07439
3.12029
3.15447
3.17818
3.20577
3.24306
3.29819
3.3743
3.48359
3.64441
3.89098
4.13531
4.54192
4.84959
5.26578
5.56883
2.7862
2.58063
2.61354
2.73102
2.83095
2.90959
3.01149
3.04735
3.09966
3.13664
3.16613
3.20007
3.23683
3.29378
3.37047
3.4783
3.63635
3.88287
4.12663
4.51712
4.83949
5.27141
5.61381
2.79286
2.54408
2.56273
2.67626
2.77886
2.86073
2.98022
3.01399
3.07367
3.11491
3.15374
3.19241
3.22893
3.28767
3.36419
3.47113
3.62805
3.87273
4.11362
4.50141
4.83211
5.2886
5.61802
2.79945
2.51221
2.51521
2.62253
2.71921
2.80904
2.94182
2.97583
3.04114
3.09302
3.13241
3.17585
3.21812
3.28012
3.35697
3.46459
3.61828
3.85786
4.10338
4.49188
4.8069
5.27978
5.59201
2.81093
2.4895
2.47446
2.56913
2.65966
2.74574
2.89903
2.93405
3.00494
3.06409
3.11096
3.16074
3.20497
3.27007
3.34698
3.4554
3.60863
3.84308
4.08844
4.47573
4.79918
5.25354
5.57119
2.81965
2.47153
2.43625
2.51411
2.59221
2.68455
2.84883
2.88243
2.9607
3.03314
3.08444
3.13882
3.18866
3.25715
3.33546
3.44614
3.59721
3.82695
4.07591
4.4551
4.77765
5.2285
5.55515
2.82838
2.46666
2.40992
2.46707
2.52999
2.61505
2.78997
2.82631
2.91162
2.99644
3.05358
3.11346
3.16906
3.24087
3.32046
3.43269
3.58498
3.81084
4.06055
4.43343
4.76867
5.20605
5.54303
2.83518
2.46696
2.3869
2.4189
2.46481
2.54863
2.72707