/*--------------------------------*- C++ -*----------------------------------*\
  =========                 |
  \\      /  F ield         | OpenFOAM: The Open Source CFD Toolbox
   \\    /   O peration     | Website:  https://openfoam.org
    \\  /    A nd           | Version:  7
     \\/     M anipulation  |
\*---------------------------------------------------------------------------*/
FoamFile
{
    version     2.0;
    format      ascii;
    class       volScalarField;
    location    "50";
    object      p;
}
// * * * * * * * * * * * * * * * * * * * * * * * * * * * * * * * * * * * * * //

dimensions      [0 2 -2 0 0 0 0];

internalField   nonuniform List<scalar> 
12842
(
0.713777
0.76336
0.835474
0.9443
1.07802
1.22322
1.37794
1.55126
1.7609
2.0323
2.39708
2.88901
3.53801
4.36358
5.36962
6.5408
7.84297
9.2274
10.6368
12.0127
13.3039
14.4717
15.4953
0.707441
0.766846
0.832182
0.935967
1.05416
1.1644
1.26069
1.34898
1.44537
1.57667
1.77919
2.09395
2.5588
3.20093
4.03082
5.03856
6.19577
7.45951
8.77711
10.0918
11.3516
12.5102
13.544
0.706399
0.766417
0.825501
0.925656
1.02784
1.10214
1.13956
1.14356
1.12953
1.12719
1.17917
1.33433
1.6374
2.11995
2.79438
3.65154
4.66528
5.79675
6.99845
8.21748
9.40447
10.509
11.509
0.709493
0.75917
0.813379
0.912226
0.998545
1.03714
1.01668
0.938263
0.817313
0.687968
0.600502
0.612013
0.772273
1.11389
1.64659
2.35793
3.2217
4.20313
5.26199
6.35214
7.43074
8.44506
9.37937
0.712246
0.745906
0.796026
0.896443
0.966981
0.970696
0.894022
0.735339
0.510607
0.259663
0.0414015
-0.0790711
-0.0487525
0.162371
0.557446
1.11812
1.81759
2.62678
3.516
4.44906
5.39236
6.29207
7.14083
0.712078
0.728518
0.774745
0.88064
0.935417
0.906511
0.777012
0.542145
0.218739
-0.146651
-0.486202
-0.727349
-0.816645
-0.729686
-0.472885
-0.0722745
0.445638
1.05992
1.75483
2.50645
3.29257
4.05749
4.80411
0.708271
0.708256
0.751268
0.86735
0.906397
0.849246
0.672477
0.368026
-0.0461972
-0.516098
-0.965205
-1.31472
-1.51317
-1.54503
-1.42862
-1.19813
-0.87841
-0.480062
-0.00206391
0.545041
1.15196
1.76063
2.38685
0.701842
0.68587
0.727084
0.857015
0.879916
0.800461
0.583422
0.218102
-0.276871
-0.839827
-1.38701
-1.83448
-2.13537
-2.2841
-2.3112
-2.25906
-2.14934
-1.98171
-1.73713
-1.41369
-1.00545
-0.575231
-0.0874508
0.690363
0.661532
0.705914
0.853003
0.862301
0.77023
0.524216
0.113355
-0.442794
-1.07452
-1.69249
-2.20932
-2.58475
-2.82435
-2.97063
-3.07298
-3.14924
-3.18961
-3.15816
-3.04459
-2.82408
-2.5728
-2.21442
0.680928
0.635913
0.690757
0.853977
0.850882
0.750938
0.481302
0.0335135
-0.571436
-1.25549
-1.92503
-2.49012
-2.91817
-3.22525
-3.46465
-3.69196
-3.92191
-4.13749
-4.28972
-4.36197
-4.31451
-4.22745
-4.00807
0.670468
0.610399
0.681635
0.855914
0.839906
0.732437
0.438269
-0.046582
-0.700018
-1.43536
-2.15582
-2.76939
-3.25121
-3.62732
-3.9607
-4.31215
-4.69402
-5.08445
-5.42401
-5.6918
-5.83415
-5.93132
-5.87801
0.658263
0.585614
0.678268
0.857561
0.82962
0.714544
0.395161
-0.126595
-0.828119
-1.614
-2.38576
-3.04913
-3.58751
-4.03507
-4.463
-4.93705
-5.46815
-6.03238
-6.56235
-7.03488
-7.38258
-7.68305
-7.81682
0.644064
0.562256
0.679365
0.858385
0.821079
0.698569
0.354416
-0.202993
-0.951247
-1.78614
-2.60882
-3.32256
-3.91867
-4.43813
-4.95953
-5.55334
-6.2307
-6.96849
-7.69341
-8.38099
-8.94941
-9.47107
-9.81233
0.628144
0.541472
0.683394
0.858326
0.814924
0.68524
0.317675
-0.273368
-1.06636
-1.94831
-2.82138
-3.58553
-4.24017
-4.83102
-5.44331
-6.15299
-6.97332
-7.88464
-8.80925
-9.72164
-10.5245
-11.2825
-11.849
0.611133
0.52445
0.689061
0.857806
0.811476
0.674875
0.285775
-0.33659
-1.17223
-2.09954
-3.023
-3.83861
-4.55318
-5.21537
-5.91666
-6.73865
-7.69882
-8.78326
-9.91088
-11.055
-12.1018
-13.1062
-13.9097
0.593633
0.511836
0.69527
0.85737
0.810664
0.667423
0.258884
-0.39253
-1.26898
-2.24047
-3.21531
-4.08433
-4.86163
-5.59633
-6.38538
-7.31653
-8.41323
-9.66873
-10.9992
-12.3764
-13.6689
-14.9212
-15.9652
0.576094
0.503614
0.701163
0.857365
0.812019
0.662513
0.23663
-0.441737
-1.35748
-2.37253
-3.40036
-4.32562
-5.16893
-5.97767
-6.85375
-7.89072
-9.11926
-10.5403
-12.0675
-13.6706
-15.201
-16.6917
-17.9703
0.558952
0.499279
0.7062
0.857976
0.814977
0.659749
0.218533
-0.484838
-1.43853
-2.49664
-3.57911
-4.56298
-5.47518
-6.35869
-7.3196
-8.45697
-9.80957
-11.386
-13.0973
-14.9102
-16.6605
-18.3668
-19.8595
0.542665
0.498058
0.710128
0.859167
0.818964
0.658742
0.204077
-0.522421
-1.51277
-2.61328
-3.75152
-4.79551
-5.7779
-6.73487
-7.77648
-9.00622
-10.4715
-12.1876
-14.0624
-16.0577
-17.9976
-19.8827
-21.5575
0.527595
0.499104
0.712919
0.860868
0.823626
0.659308
0.192918
-0.554926
-1.58069
-2.72274
-3.91734
-5.02164
-6.07412
-7.1016
-8.21767
-9.52931
-11.0916
-12.9235
-14.93
-17.0661
-19.1505
-21.1645
-22.9739
0.514169
0.501594
0.714503
0.862666
0.828378
0.660937
0.184435
-0.582934
-1.6428
-2.82533
-4.07634
-5.24059
-6.36216
-7.45611
-8.63865
-10.017
-11.6524
-13.5657
-15.6596
-17.8811
-20.0508
-22.1285
-24.0051
0.502356
0.505032
0.715276
0.864966
0.833838
0.664298
0.178923
-0.606625
-1.6999
-2.92198
-4.22948
-5.45251
-6.64158
-7.79649
-9.03384
-10.4578
-12.135
-14.0875
-16.2159
-18.4588
-20.6434
-22.7103
-24.5727
0.492874
0.508541
0.714656
0.866468
0.838442
0.667887
0.175251
-0.626544
-1.75206
-3.01301
-4.37762
-5.6596
-6.9154
-8.12548
-9.40453
-10.8498
-12.5317
-14.4738
-16.5753
-18.7662
-20.8861
-22.8623
-24.6262
0.483425
0.512623
0.71566
0.87192
0.847539
0.676261
0.176025
-0.641381
-1.79725
-3.09227
-4.5073
-5.83973
-7.15348
-8.40865
-9.71631
-11.1629
-12.8182
-14.7062
-16.7238
-18.7929
-20.7715
-22.5835
-24.1695
0.47883
0.518062
0.719147
0.879842
0.857817
0.684466
0.175561
-0.657299
-1.84087
-3.16586
-4.62452
-6.00057
-7.36434
-8.65607
-9.97997
-11.4063
-12.998
-14.778
-16.644
-18.5118
-20.2676
-21.8474
-23.2011
0.47919
0.525082
0.724346
0.888209
0.866192
0.687472
0.165415
-0.687766
-1.90357
-3.26232
-4.76645
-6.18649
-7.59785
-8.91965
-10.2449
-11.6231
-13.1049
-14.7142
-16.3587
-17.9556
-19.4262
-20.7322
-21.8267
0.48308
0.532168
0.729062
0.894019
0.86921
0.682004
0.143475
-0.732758
-1.98243
-3.3758
-4.92456
-6.38739
-7.84348
-9.19038
-10.5054
-11.8138
-13.1485
-14.5373
-15.9097
-17.1941
-18.3498
-19.3686
-20.1987
0.486818
0.537583
0.731522
0.896024
0.866467
0.668993
0.112759
-0.786606
-2.06878
-3.49458
-5.08468
-6.58733
-8.085
-9.45365
-10.7504
-11.9737
-13.1354
-14.2688
-15.3347
-16.2896
-17.1257
-17.8537
-18.4235
0.4886
0.540736
0.731353
0.894489
0.859173
0.650948
0.077476
-0.843288
-2.15493
-3.60968
-5.23725
-6.77706
-8.31423
-9.7036
-10.9774
-12.1062
-13.0781
-13.933
-14.668
-15.2873
-15.8077
-16.2422
-16.5589
0.488611
0.542099
0.729302
0.890671
0.849284
0.630721
0.0414594
-0.898165
-2.23576
-3.71609
-5.37799
-6.95362
-8.52998
-9.94179
-11.1912
-12.2217
-12.9952
-13.5601
-13.9493
-14.2218
-14.4312
-14.5972
-14.6786
0.487666
0.542452
0.726439
0.885988
0.838711
0.610745
0.00755101
-0.948283
-2.30861
-3.81185
-5.50605
-7.11765
-8.73422
-10.1725
-11.3993
-12.3335
-12.9082
-13.1857
-13.2254
-13.1287
-13.0325
-12.9815
-12.8509
0.486383
0.542384
0.723571
0.881453
0.828716
0.592448
-0.0228729
-0.992653
-2.37319
-3.89767
-5.62318
-7.27197
-8.93043
-10.4009
-11.6101
-12.4564
-12.8419
-12.8471
-12.5425
-12.0596
-11.6679
-11.4308
-11.1107
0.485094
0.542241
0.72114
0.877536
0.819819
0.576232
-0.0497728
-1.0319
-2.43101
-3.97607
-5.7326
-7.42032
-9.12214
-10.6314
-11.8303
-12.6043
-12.8205
-12.5766
-11.9427
-11.0918
-10.4167
-9.95173
-9.39374
0.4839
0.542175
0.719278
0.874319
0.812002
0.56181
-0.0739333
-1.06753
-2.48446
-4.05022
-5.83787
-7.56628
-9.31208
-10.8675
-12.0657
-12.7895
-12.8672
-12.4039
-11.4735
-10.3062
-9.34278
-8.57626
-7.73617
0.482808
0.542249
0.717959
0.871666
0.805004
0.548628
-0.096364
-1.10118
-2.53578
-4.12285
-5.9417
-7.71227
-9.50157
-11.1107
-12.3197
-13.0222
-13.0024
-12.3607
-11.1891
-9.75633
-8.48738
-7.40218
-6.29859
0.48176
0.542467
0.717062
0.869388
0.79851
0.536133
-0.117952
-1.13411
-2.58661
-4.19582
-6.04569
-7.85958
-9.69085
-11.3617
-12.5953
-13.3108
-13.2452
-12.4838
-11.139
-9.48067
-7.93154
-6.5909
-5.24275
0.480713
0.54282
0.716463
0.867304
0.792265
0.523923
-0.139284
-1.16711
-2.63783
-4.26997
-6.15028
-8.00832
-9.87921
-11.6205
-12.8938
-13.6615
-13.6123
-12.8091
-11.3685
-9.54808
-7.81685
-6.30911
-4.73618
0.479629
0.543287
0.716042
0.865293
0.786107
0.511764
-0.160661
-1.2005
-2.6897
-4.34539
-6.25512
-8.15807
-10.0656
-11.8866
-13.2163
-14.0792
-14.1183
-13.367
-11.9285
-10.0657
-8.27719
-6.66089
-4.88532
0.478516
0.543859
0.715724
0.863289
0.779966
0.499572
-0.182148
-1.23427
-2.74203
-4.42162
-6.3593
-8.30784
-10.2484
-12.159
-13.5622
-14.5654
-14.7718
-14.1787
-12.8784
-11.1452
-9.41156
-7.74083
-5.84271
0.477391
0.54452
0.715453
0.861277
0.77383
0.487355
-0.203686
-1.26823
-2.79441
-4.49802
-6.4618
-8.45671
-10.4265
-12.4361
-13.9301
-15.1191
-15.5746
-15.2602
-14.28
-12.8898
-11.3717
-9.79874
-8.00444
0.476303
0.545267
0.715216
0.859266
0.767727
0.475171
-0.225143
-1.30212
-2.84636
-4.57387
-6.56155
-8.60361
-10.5981
-12.7156
-14.3165
-15.7342
-16.5215
-16.6217
-16.1751
-15.3894
-14.4159
-13.2663
-11.8145
0.47529
0.546087
0.715004
0.857285
0.761688
0.46308
-0.246401
-1.33571
-2.89747
-4.64859
-6.65768
-8.74781
-10.762
-12.9946
-14.7169
-16.4002
-17.6
-18.2561
-18.5655
-18.6849
-18.683
-18.3729
-17.4591
0.474403
0.546978
0.714831
0.855354
0.755747
0.451136
-0.267356
-1.3688
-2.94738
-4.72171
-6.74949
-8.88848
-10.917
-13.2691
-15.1254
-17.1004
-18.7851
-20.119
-21.3732
-22.6457
-23.9094
-24.7501
-24.6853
0.473668
0.547929
0.714702
0.853498
0.749915
0.439361
-0.287956
-1.40128
-2.9959
-4.79295
-6.83654
-9.0252
-11.0621
-13.5344
-15.5354
-17.8117
-20.0337
-22.117
-24.4494
-27.0625
-29.7371
-31.8082
-32.7293
0.473111
0.548933
0.714633
0.851718
0.744196
0.427763
-0.308179
-1.43309
-3.04289
-4.86216
-6.91858
-9.15738
-11.1967
-13.785
-15.9399
-18.5022
-21.2855
-24.1366
-27.6421
-31.7099
-35.763
-38.8862
-40.5264
0.472747
0.549983
0.714628
0.85002
0.738575
0.416324
-0.328036
-1.46423
-3.08833
-4.92932
-6.99553
-9.28472
-11.3205
-14.0139
-16.3324
-19.1358
-22.4769
-26.0583
-30.6915
-36.0853
-41.2936
-45.4281
-47.7735
0.472527
0.55105
0.714681
0.848386
0.733032
0.405009
-0.347583
-1.49478
-3.13232
-4.99464
-7.06768
-9.40703
-11.4345
-14.214
-16.7087
-19.679
-23.5403
-27.713
-33.34
-40.1927
-46.8408
-52.0079
-55.3134
0.472499
0.55216
0.714816
0.846819
0.727543
0.393769
-0.366908
-1.5249
-3.17514
-5.05854
-7.13569
-9.52451
-11.5406
-14.3774
-17.0688
-20.1005
-24.3786
-29.0176
-35.7918
-44.2889
-52.3958
-58.1312
-61.5833
0.471878
0.552984
0.714907
0.845315
0.722229
0.382766
-0.385923
-1.55478
-3.21738
-5.12224
-7.20205
-9.63897
-11.6469
-14.502
-17.4229
-20.3939
-24.9387
-30.1294
-38.0864
-47.167
-55.7974
-62.2215
-65.7944
0.471907
0.554106
0.7155
0.844481
0.717659
0.372437
-0.404637
-1.58538
-3.26166
-5.19066
-7.27588
-9.76164
-11.7796
-14.6138
-17.8157
-20.6226
-25.2873
-31.484
-40.0062
-48.7635
-57.3094
-64.219
-68.2322
0.473081
0.555825
0.7172
0.844855
0.714369
0.363018
-0.423565
-1.6186
-3.31192
-5.26996
-7.36751
-9.90346
-11.9612
-14.7446
-18.2689
-20.9052
-25.7198
-33.0466
-41.0695
-49.6857
-58.3345
-65.3059
-69.4749
0.475392
0.558064
0.719992
0.846309
0.711997
0.353671
-0.444355
-1.65719
-3.37238
-5.36532
-7.48412
-10.071
-12.2011
-14.9183
-18.7776
-21.3586
-26.3474
-34.136
-41.0425
-49.903
-58.9291
-65.8319
-69.8191
0.478353
0.560422
0.723369
0.848175
0.709614
0.343058
-0.468849
-1.70345
-3.44568
-5.47873
-7.62743
-10.2633
-12.4949
-15.1471
-19.3211
-22.0544
-27.0809
-34.4024
-40.2799
-49.6117
-59.1455
-66.188
-69.8532
0.48163
0.562633
0.726901
0.849874
0.706409
0.330085
-0.498419
-1.75882
-3.53303
-5.61012
-7.7956
-10.4761
-12.829
-15.4307
-19.8765
-22.9634
-27.7285
-34.0208
-39.5042
-49.2887
-59.2705
-66.6609
-70.0375
0.485206
0.564688
0.730412
0.851145
0.702087
0.314594
-0.532725
-1.8218
-3.63096
-5.75267
-7.97726
-10.6929
-13.1704
-15.7401
-20.3924
-23.9362
-28.2313
-33.4628
-39.176
-49.3407
-59.5619
-67.2686
-70.5527
0.488932
0.566509
0.733722
0.851777
0.696411
0.296383
-0.571797
-1.89194
-3.73804
-5.90301
-8.16548
-10.903
-13.4945
-16.0473
-20.833
-24.8705
-28.7047
-33.0947
-39.4505
-49.9585
-60.2745
-68.1003
-71.481
0.493194
0.568512
0.737257
0.852337
0.690123
0.276566
-0.613856
-1.96633
-3.84978
-6.05479
-8.35058
-11.095
-13.7799
-16.3259
-21.1699
-25.6091
-29.0864
-32.928
-40.0198
-50.7211
-60.859
-68.456
-71.8539
0.497486
0.570353
0.740677
0.85238
0.682958
0.2553
-0.657656
-2.04167
-3.95962
-6.19668
-8.51401
-11.2425
-13.983
-16.5111
-21.3473
-26.1291
-29.5021
-33.2113
-40.8484
-51.5573
-61.3047
-68.6469
-72.0617
0.50153
0.571778
0.743327
0.851214
0.674046
0.23178
-0.703721
-2.11784
-4.0665
-6.32689
-8.65331
-11.3448
-14.1015
-16.5905
-21.3343
-26.3285
-29.839
-33.8154
-41.6856
-52.1243
-61.2009
-68.1746
-71.482
0.505178
0.572736
0.745085
0.848847
0.663579
0.206542
-0.751079
-2.19347
-4.16901
-6.44506
-8.76986
-11.4085
-14.1458
-16.568
-21.1316
-26.173
-29.9844
-34.3916
-42.2228
-52.1641
-60.3448
-66.5933
-69.4989
0.508662
0.573555
0.746487
0.846037
0.65267
0.181193
-0.797507
-2.26573
-4.26394
-6.54853
-8.86215
-11.4355
-14.1214
-16.4469
-20.755
-25.6845
-29.8953
-34.7405
-42.3077
-51.5257
-58.7595
-63.9287
-66.0962
0.512132
0.574455
0.747923
0.843348
0.642118
0.156825
-0.841607
-2.33305
-4.34995
-6.6372
-8.93219
-11.4327
-14.0411
-16.2451
-20.2467
-24.9284
-29.5775
-34.7892
-41.9426
-50.3123
-56.5212
-60.4471
-61.7534
0.515602
0.575478
0.749499
0.840935
0.632144
0.133698
-0.883178
-2.39558
-4.42811
-6.71426
-8.98663
-11.4126
-13.9281
-15.9973
-19.6719
-24.0016
-29.075
-34.5172
-41.159
-48.5673
-53.6616
-56.3939
-56.86
0.519035
0.576585
0.751183
0.838762
0.622676
0.111634
-0.922665
-2.45439
-4.50071
-6.78445
-9.03406
-11.3904
-13.8099
-15.7461
-19.1054
-23.0165
-28.4495
-33.9298
-39.9767
-46.3193
-50.3683
-51.9852
-51.7225
0.522406
0.57774
0.752925
0.836739
0.613554
0.0903362
-0.960659
-2.51068
-4.57007
-6.85208
-9.082
-11.3788
-13.7106
-15.5293
-18.6135
-22.0817
-27.7474
-33.0261
-38.4715
-43.6606
-46.8227
-47.444
-46.6439
0.525703
0.578912
0.754676
0.834785
0.604639
0.069541
-0.997658
-2.56541
-4.63788
-6.92019
-9.13543
-11.3858
-13.6461
-15.3732
-18.2416
-21.2559
-27.0255
-31.8164
-36.7188
-40.8102
-43.0799
-43.0059
-41.8895
0.528923
0.580089
0.756401
0.832835
0.595817
0.0490581
-1.034
-2.61917
-4.70516
-6.9903
-9.19654
-11.4141
-13.623
-15.2889
-18.0123
-20.6254
-26.3822
-30.4748
-34.7756
-37.9338
-39.3155
-38.8412
-37.5931
0.53206
0.581255
0.758072
0.83085
0.587028
0.0287788
-1.06987
-2.67228
-4.77229
-7.0628
-9.26533
-11.4626
-13.6404
-15.2743
-17.9272
-20.2301
-25.774
-29.1044
-32.6908
-35.0604
-35.7089
-35.0211
-33.7103
0.535113
0.582408
0.759677
0.828804
0.578231
0.00864706
-1.10534
-2.72483
-4.83924
-7.13718
-9.34021
-11.5269
-13.6913
-15.3166
-17.9609
-20.0654
-25.1709
-27.7492
-30.4987
-32.1935
-32.2986
-31.4924
-30.1277
0.538079
0.58354
0.761202
0.826687
0.569417
-0.0113513
-1.14042
-2.77676
-4.90575
-7.21256
-9.4189
-11.6017
-13.7652
-15.3968
-18.0705
-20.0241
-24.6073
-26.5338
-28.4121
-29.3933
-29.168
-28.2124
-26.7692
0.540959
0.584649
0.762644
0.824492
0.560575
-0.0312205
-1.1751
-2.828
-4.97144
-7.28784
-9.49876
-11.6807
-13.8506
-15.493
-18.2122
-19.9718
-23.9629
-25.4187
-26.5784
-26.8387
-26.3519
-25.2187
-23.6668
0.543751
0.585729
0.763996
0.822217
0.551709
-0.0509545
-1.20933
-2.87841
-5.03594
-7.36195
-9.57734
-11.7583
-13.9358
-15.5833
-18.3443
-19.8485
-23.1006
-24.2164
-24.8917
-24.6184
-23.7924
-22.488
-20.8366
0.546457
0.586779
0.765254
0.819853
0.542809
-0.0705574
-1.24311
-2.92789
-5.09887
-7.43389
-9.65244
-11.8294
-14.0109
-15.6481
-18.4292
-19.6509
-22.0628
-22.8433
-23.2026
-22.5961
-21.4108
-19.9307
-18.2003
0.549076
0.587794
0.766413
0.817395
0.53387
-0.0900299
-1.27639
-2.97633
-5.15991
-7.50284
-9.72226
-11.8902
-14.0675
-15.6718
-18.4376
-19.3908
-20.9674
-21.3786
-21.4695
-20.6254
-19.1547
-17.4818
-15.6811
0.55161
0.588771
0.767466
0.814833
0.524877
-0.109384
-1.30917
-3.02363
-5.21875
-7.56804
-9.78532
-11.9375
-14.0995
-15.6438
-18.349
-19.0789
-19.8924
-19.9372
-19.7741
-18.7097
-17.0022
-15.1476
-13.281
0.554056
0.589705
0.768406
0.812156
0.515822
-0.128624
-1.34142
-3.06969
-5.27514
-7.62891
-9.84056
-11.9692
-14.1028
-15.5584
-18.1528
-18.7262
-18.8733
-18.5797
-18.1829
-16.8821
-14.9882
-12.9856
-11.0702
0.556413
0.590596
0.769226
0.809351
0.506686
-0.147761
-1.37312
-3.11441
-5.32881
-7.68491
-9.88713
-11.9841
-14.0751
-15.4146
-17.8459
-18.3411
-17.9272
-17.3439
-16.6892
-15.1306
-13.1555
-11.0442
-9.10526
0.558675
0.591438
0.769918
0.806408
0.497462
-0.166793
-1.40424
-3.15766
-5.37952
-7.73562
-9.9245
-11.9815
-14.0161
-15.2156
-17.4324
-17.9205
-17.0677
-16.2285
-15.2649
-13.5066
-11.4763
-9.28521
-7.36158
0.560841
0.59223
0.770472
0.803313
0.488131
-0.185725
-1.43472
-3.19935
-5.42704
-7.78068
-9.95231
-11.9615
-13.9265
-14.968
-16.9217
-17.441
-16.2855
-15.1874
-13.9323
-12.0601
-9.92259
-7.70007
-5.81709
0.562902
0.592965
0.77088
0.800056
0.478693
-0.204545
-1.46454
-3.23934
-5.47116
-7.81979
-9.97039
-11.9245
-13.8083
-14.6806
-16.3296
-16.8697
-15.5474
-14.1964
-12.7494
-10.7688
-8.50272
-6.33945
-4.51035
0.564855
0.593645
0.771134
0.796625
0.469133
-0.223249
-1.49364
-3.27752
-5.51168
-7.85271
-9.97869
-11.8712
-13.6643
-14.3635
-15.6777
-16.1683
-14.8444
-13.2729
-11.6885
-9.60014
-7.25401
-5.21074
-3.46052
0.56669
0.59426
0.771224
0.793012
0.459454
-0.241818
-1.52196
-3.31376
-5.54842
-7.87926
-9.97732
-11.803
-13.4976
-14.0268
-14.9993
-15.3328
-14.1741
-12.4262
-10.6892
-8.52908
-6.17905
-4.26171
-2.63609
0.568403
0.594812
0.771142
0.789206
0.449643
-0.260244
-1.54944
-3.34795
-5.5812
-7.89928
-9.96639
-11.7209
-13.3117
-13.6799
-14.3272
-14.4377
-13.4798
-11.6151
-9.72408
-7.53422
-5.28281
-3.47271
-1.96979
0.569984
0.595291
0.770878
0.785199
0.439707
-0.278503
-1.57604
-3.37998
-5.60988
-7.91264
-9.94611
-11.6264
-13.1103
-13.3309
-13.6828
-13.5784
-12.7009
-10.7958
-8.81411
-6.62958
-4.53817
-2.83624
-1.45134
0.57143
0.595698
0.770424
0.780981
0.429635
-0.296584
-1.6017
-3.40973
-5.63429
-7.91924
-9.91668
-11.5207
-12.8967
-12.9875
-13.0733
-12.8035
-11.8428
-9.97758
-7.99884
-5.86985
-3.94488
-2.34547
-1.08145
0.572731
0.596024
0.769771
0.776543
0.419433
-0.314464
-1.62634
-3.4371
-5.65431
-7.91899
-9.8783
-11.4053
-12.6739
-12.6556
-12.5002
-12.1297
-10.9744
-9.20502
-7.28888
-5.27028
-3.49766
-1.99641
-0.827348
0.573881
0.596267
0.768908
0.771877
0.409092
-0.33213
-1.64994
-3.46197
-5.66979
-7.91176
-9.83115
-11.2812
-12.444
-12.3403
-11.9653
-11.5402
-10.18
-8.51165
-6.69153
-4.78722
-3.1247
-1.74214
-0.660374
0.574871
0.596418
0.767827
0.766973
0.398617
-0.349558
-1.67241
-3.48424
-5.68057
-7.89745
-9.77535
-11.1495
-12.2088
-12.044
-11.472
-11.0053
-9.51744
-7.90951
-6.16968
-4.37075
-2.79848
-1.5477
-0.560329
0.575696
0.596476
0.766515
0.76182
0.388
-0.366733
-1.6937
-3.50378
-5.68651
-7.87593
-9.71099
-11.0111
-11.9687
-11.7665
-11.0147
-10.5063
-8.95625
-7.37272
-5.69352
-4.00186
-2.54715
-1.42361
-0.526738
0.576345
0.59643
0.764964
0.75641
0.377247
-0.383629
-1.71374
-3.52049
-5.68744
-7.84706
-9.63808
-10.8667
-11.724
-11.5055
-10.5847
-10.0299
-8.43835
-6.87141
-5.26408
-3.69262
-2.37544
-1.36139
-0.545907
0.576813
0.596278
0.763161
0.750731
0.366348
-0.40023
-1.73247
-3.53423
-5.6832
-7.81067
-9.55661
-10.7168
-11.474
-11.2581
-10.1816
-9.56529
-7.94225
-6.41697
-4.8959
-3.45454
-2.2643
-1.34196
-0.601721
0.577086
0.596009
0.761094
0.744774
0.355313
-0.416504
-1.74982
-3.54488
-5.67361
-7.76662
-9.46652
-10.5618
-11.2177
-11.0215
-9.81417
-9.10875
-7.4853
-6.02696
-4.59646
-3.28186
-2.19961
-1.3566
-0.682545
0.577166
0.595623
0.758752
0.738526
0.344132
-0.432427
-1.7657
-3.55228
-5.65846
-7.71465
-9.36767
-10.402
-10.9544
-10.7915
-9.49023
-8.6657
-7.08719
-5.70213
-4.35963
-3.15869
-2.17025
-1.40219
-0.79164
0.577021
0.5951
0.756118
0.731975
0.332803
-0.448003
-1.7801
-3.55641
-5.63776
-7.65484
-9.26015
-10.2376
-10.6827
-10.566
-9.21914
-8.25549
-6.74883
-5.4333
-4.1757
-3.07202
-2.16913
-1.46927
-0.915644
0.576753
0.594488
0.753211
0.725116
0.32133
-0.46315
-1.7928
-3.55685
-5.61085
-7.5864
-9.14313
-10.069
-10.4038
-10.3291
-8.98209
-7.88344
-6.4623
-5.21641
-4.04442
-3.02216
-2.19448
-1.55169
-1.04659
0.576248
0.593746
0.749969
0.717783
0.30931
-0.478715
-1.80522
-3.55559
-5.58011
-7.51155
-9.01829
-9.89513
-10.113
-10.0999
-8.83428
-7.58261
-6.24961
-5.0611
-3.95641
-2.99717
-2.23202
-1.63286
-1.16401
0.577325
0.593788
0.74691
0.709722
0.295731
-0.496069
-1.81807
-3.55105
-5.54011
-7.42025
-8.87146
-9.71238
-9.83352
-9.75197
-8.50962
-7.19468
-6.00606
-4.91876
-3.91286
-3.03858
-2.33458
-1.77604
-1.33391
0.576569
0.592011
0.74156
0.698769
0.279732
-0.513743
-1.82622
-3.5333
-5.476
-7.29446
-8.68197
-9.49776
-9.59102
-9.54271
-8.47564
-7.20798
-6.03058
-4.98892
-4.04262
-3.21985
-2.54324
-2.01384
-1.58928
0.57432
0.588448
0.733198
0.684231
0.260368
-0.532326
-1.82942
-3.50104
-5.3859
-7.1327
-8.44816
-9.23911
-9.32407
-9.3014
-8.40805
-7.24108
-6.08498
-5.08775
-4.19769
-3.41898
-2.77527
-2.26795
-1.85916
0.570585
0.583074
0.721738
0.666115
0.237662
-0.551975
-1.82832
-3.45586
-5.2725
-6.93896
-8.17448
-8.92988
-8.98095
-8.91349
-8.12096
-7.06688
-6.01606
-5.10101
-4.28336
-3.56506
-2.96959
-2.48994
-2.10392
0.56631
0.576697
0.708344
0.645897
0.213895
-0.569278
-1.818
-3.39131
-5.12792
-6.70447
-7.8517
-8.55698
-8.55038
-8.40342
-7.67862
-6.74233
-5.83701
-5.02645
-4.29646
-3.65346
-3.11062
-2.6748
-2.32108
0.561931
0.5698
0.693783
0.624677
0.191012
-0.58094
-1.7932
-3.29966
-4.94153
-6.41571
-7.4641
-8.10683
-8.04305
-7.83052
-7.17891
-6.36071
-5.59182
-4.88717
-4.25135
-3.68609
-3.20528
-2.82584
-2.51389
0.557054
0.562134
0.67785
0.602441
0.169521
-0.585556
-1.75118
-3.17653
-4.70691
-6.06361
-7.00071
-7.57215
-7.46893
-7.2217
-6.64955
-5.93994
-5.29099
-4.69261
-4.147
-3.66303
-3.25914
-2.93395
-2.66184
0.551031
0.553143
0.659889
0.578599
0.149116
-0.582954
-1.69122
-3.02085
-4.42263
-5.64614
-6.46004
-6.9546
-6.83255
-6.57544
-6.08068
-5.46774
-4.92782
-4.4309
-3.97614
-3.58119
-3.24994
-2.97828
-2.74868
0.543435
0.542355
0.639318
0.552615
0.129496
-0.57312
-1.61329
-2.83336
-4.09121
-5.16835
-5.85133
-6.26637
-6.14153
-5.89023
-5.46988
-4.94366
-4.50458
-4.10521
-3.74249
-3.42897
-3.16131
-2.94276
-2.75914
0.534017
0.529439
0.615782
0.524296
0.110846
-0.55555
-1.51723
-2.61575
-3.71813
-4.64136
-5.19292
-5.52958
-5.41334
-5.17894
-4.8322
-4.38608
-4.03902
-3.72791
-3.44575
-3.2005
-2.99147
-2.82053
-2.67752
0.522654
0.514165
0.589141
0.493795
0.0938367
-0.529297
-1.40297
-2.37097
-3.3121
-4.08157
-4.50955
-4.77299
-4.67374
-4.46512
-4.19157
-3.81726
-3.54469
-3.30657
-3.09126
-2.90333
-2.74319
-2.61124
-2.4992
0.509198
0.496337
0.559413
0.461584
0.0795288
-0.493264
-1.271
-2.10377
-2.88486
-3.50884
-3.82824
-4.02661
-3.94901
-3.77074
-3.56376
-3.25567
-3.03819
-2.85851
-2.69498
-2.55212
-2.4307
-2.32792
-2.24053
0.493533
0.475806
0.526784
0.428368
0.0691119
-0.446749
-1.12322
-1.82131
-2.45093
-2.94428
-3.17419
-3.31683
-3.26079
-3.11242
-2.96137
-2.71607
-2.53763
-2.40255
-2.27861
-2.16989
-2.07686
-1.99648
-1.92965
0.475492
0.452455
0.491581
0.395052
0.0636973
-0.38987
-0.963322
-1.53302
-2.02605
-2.4075
-2.56814
-2.66419
-2.62658
-2.50547
-2.39886
-2.21327
-2.06122
-1.95805
-1.86386
-1.78067
-1.7085
-1.64606
-1.59495
0.454976
0.426274
0.454322
0.362596
0.0639492
-0.324075
-0.797023
-1.24989
-1.6255
-1.91488
-2.02488
-2.08345
-2.05986
-1.96316
-1.88906
-1.76065
-1.63064
-1.54591
-1.47211
-1.40756
-1.35106
-1.30158
-1.2615
0.431861
0.397316
0.41564
0.331906
0.0698307
-0.252276
-0.631582
-0.983048
-1.26219
-1.47812
-1.5533
-1.58323
-1.56879
-1.49362
-1.43962
-1.36099
-1.26028
-1.18925
-1.12792
-1.07447
-1.02922
-0.989359
-0.956931
0.406176
0.365814
0.376305
0.303578
0.080302
-0.178782
-0.47493
-0.742262
-0.94541
-1.10397
-1.15662
-1.16645
-1.15679
-1.10117
-1.05862
-1.01572
-0.949802
-0.89489
-0.846985
-0.801496
-0.762575
-0.729609
-0.70303
0.377946
0.332084
0.337034
0.277753
0.093339
-0.108684
-0.334362
-0.534678
-0.680142
-0.794582
-0.833362
-0.831082
-0.822624
-0.784157
-0.749132
-0.725625
-0.690819
-0.65354
-0.620459
-0.586274
-0.553123
-0.524373
-0.501985
0.347423
0.296651
0.298463
0.253931
0.106134
-0.0470027
-0.215503
-0.364113
-0.467323
-0.54829
-0.57865
-0.57122
-0.561943
-0.53715
-0.509526
-0.493693
-0.479788
-0.460041
-0.440054
-0.418955
-0.39557
-0.372183
-0.353317
0.314859
0.260065
0.260898
0.231061
0.115671
0.00224067
-0.121511
-0.231177
-0.304476
-0.360646
-0.385571
-0.378493
-0.368528
-0.353421
-0.334291
-0.321526
-0.316948
-0.311288
-0.301886
-0.290772
-0.277646
-0.262098
-0.247251
0.28075
0.222982
0.224385
0.207748
0.119367
0.0366918
-0.0530112
-0.133723
-0.186478
-0.224898
-0.245617
-0.24209
-0.233041
-0.223913
-0.212962
-0.203636
-0.201133
-0.202934
-0.2021
-0.198245
-0.192781
-0.185167
-0.176048
0.245582
0.185941
0.188633
0.182673
0.115625
0.0558583
-0.00846787
-0.0676852
-0.106497
-0.132727
-0.149438
-0.150073
-0.143624
-0.137906
-0.132857
-0.127907
-0.125731
-0.128665
-0.132648
-0.133936
-0.133104
-0.130857
-0.127126
0.209982
0.14947
0.153326
0.154993
0.104042
0.0607746
0.01504
-0.0282087
-0.05747
-0.0758522
-0.088815
-0.0926566
-0.08991
-0.0868244
-0.0854081
-0.0846038
-0.0841116
-0.08609
-0.0906507
-0.0947325
-0.0968131
-0.0973933
-0.0969684
0.174541
0.113996
0.118294
0.124554
0.0852964
0.0534512
0.0209684
-0.0105674
-0.0332338
-0.0470698
-0.0571606
-0.06285
-0.0638875
-0.0635862
-0.0645162
-0.0666143
-0.0686785
-0.0708605
-0.0743224
-0.078515
-0.0818979
-0.0839246
-0.0849464
0.139861
0.080068
0.0837728
0.0920113
0.0608761
0.0364916
0.0130135
-0.010226
-0.0283142
-0.0398374
-0.0482468
-0.0547198
-0.0586804
-0.0611461
-0.0639424
-0.0677371
-0.071838
-0.075411
-0.0786595
-0.0820048
-0.0851433
-0.0875592
-0.0890747
0.106616
0.0483632
0.0506168
0.0588232
0.0331317
0.0132084
-0.00450434
-0.0221602
-0.037074
-0.047587
-0.0554467
-0.0623364
-0.0682351
-0.0731493
-0.0778294
-0.0829565
-0.0884537
-0.0936496
-0.0980186
-0.101563
-0.104459
-0.10678
-0.10849
0.0755384
0.0200167
0.0204407
0.0274975
0.00550997
-0.0119242
-0.0260801
-0.0400002
-0.0525544
-0.0623995
-0.070132
-0.0771188
-0.0838141
-0.0901019
-0.0960513
-0.101977
-0.108018
-0.113942
-0.119262
-0.123584
-0.126836
-0.129135
-0.130855
0.047451
-0.00339075
-0.00408039
0.00196727
-0.0168037
-0.0325659
-0.0443154
-0.0555387
-0.0661952
-0.0753787
-0.0830956
-0.0901651
-0.0971393
-0.104062
-0.110787
-0.117302
-0.123657
-0.129841
-0.135649
-0.140732
-0.144789
-0.147695
-0.149706
0.0241058
-0.0196059
-0.0196503
-0.0134884
-0.028672
-0.0428785
-0.0527972
-0.061819
-0.0706856
-0.0788309
-0.0859937
-0.0925449
-0.0989032
-0.105241
-0.111463
-0.117453
-0.123144
-0.128543
-0.133627
-0.138275
-0.142265
-0.145396
-0.147606
0.00466647
-0.0267537
-0.0221988
-0.0121096
-0.0206617
-0.0309943
-0.0379225
-0.0445506
-0.0524046
-0.0611923
-0.0704279
-0.0800453
-0.0901124
-0.100644
-0.111472
-0.122355
-0.133018
-0.143283
-0.153089
-0.162455
-0.171313
-0.17944
-0.186426
0.00245332
-0.0210325
-0.0152381
-0.00594206
-0.00852482
-0.0133662
-0.0140938
-0.0122771
-0.00995414
-0.00757021
-0.00486105
-0.0018257
0.00141155
0.00463659
0.00779623
0.010917
0.0140777
0.0172065
0.0201569
0.0228533
0.0255105
0.0285025
0.0322011
0.551087
0.45422
0.533177
0.662436
0.838864
1.09027
1.4422
1.91994
2.54978
3.34621
4.32446
5.495
6.8818
8.50422
10.3756
12.4744
14.7471
17.1057
19.448
21.67
23.6947
25.4574
26.9723
0.565468
0.509242
0.57057
0.703703
0.88227
1.13092
1.47739
1.94697
2.56619
3.35448
4.32944
5.50391
6.89594
8.51764
10.371
12.4285
14.6328
16.8982
19.1267
21.2226
23.1151
24.7518
26.1451
0.581985
0.566854
0.617134
0.747935
0.926956
1.17007
1.5049
1.95705
2.5531
3.31629
4.2673
5.42169
6.79397
8.39039
10.204
12.2015
14.3227
16.4843
18.5929
20.5608
22.3232
23.8386
25.1173
0.601822
0.623246
0.671576
0.796019
0.972633
1.20781
1.526
1.95255
2.51379
3.23538
4.14086
5.24868
6.57218
8.11413
9.86174
11.7778
13.8008
15.8497
17.8361
19.679
21.3193
22.7237
23.9005
0.627011
0.674472
0.729303
0.846824
1.01776
1.2423
1.53943
1.93292
2.44844
3.11264
3.95142
4.98597
6.23053
7.68694
9.34026
11.1519
13.061
14.99
16.8554
18.5817
20.1134
21.4226
22.5139
0.65831
0.716414
0.781366
0.893738
1.05581
1.26587
1.53684
1.88957
2.34832
2.93973
3.69094
4.62581
5.76059
7.09904
8.62725
10.3087
12.0861
13.8869
15.6334
17.255
18.6987
19.9374
20.971
0.690806
0.74394
0.816097
0.925622
1.07719
1.2687
1.50788
1.81172
2.20247
2.70607
3.35031
4.16101
5.15728
6.34626
7.71799
9.24135
10.8656
12.5258
14.1514
15.6772
17.0525
18.2496
19.2633
0.713126
0.75848
0.833704
0.944198
1.08837
1.26087
1.46478
1.71308
2.02574
2.42808
2.94884
3.6163
4.45334
5.47168
6.66705
8.01578
9.47531
10.9891
12.4941
13.9295
15.246
16.4122
17.417
0.397638
0.0761703
0.305208
0.335867
0.499707
0.7324
1.02181
1.48119
2.06187
2.71401
3.45532
4.18008
4.98175
5.86631
6.90878
8.08737
9.35369
10.6146
11.7859
12.8039
13.6352
14.2942
14.7786
0.401479
0.0850947
0.30776
0.341478
0.505142
0.737347
1.02941
1.49142
2.07882
2.74839
3.5186
4.30065
5.18291
6.18188
7.36691
8.72029
10.1923
11.6883
13.1179
14.4039
15.5017
16.409
17.1148
0.406368
0.0973164
0.313095
0.348942
0.512898
0.74328
1.03619
1.49732
2.08708
2.76888
3.56118
4.39272
5.346
6.44755
7.76115
9.2728
10.932
12.644
14.314
15.8539
17.2096
18.3603
19.2912
0.412128
0.112836
0.323017
0.360432
0.526076
0.754875
1.04861
1.50716
2.09667
2.78643
3.59458
4.4669
5.48061
6.67127
8.09807
9.74972
11.5751
13.4796
15.3656
17.1363
18.7299
20.1079
21.255
0.418915
0.131044
0.338469
0.378014
0.547633
0.776741
1.07293
1.52914
2.11767
2.81282
3.6322
4.5373
5.60104
6.86681
8.39055
10.1628
12.1317
14.2024
16.2755
18.2472
20.0499
21.6296
22.9726
0.42682
0.151109
0.359041
0.40207
0.578001
0.810193
1.11159
1.56709
2.15546
2.85499
3.68254
4.61342
5.71737
7.04427
8.64831
10.521
12.6099
14.8195
17.0485
19.1877
21.1652
22.914
24.4239
0.43599
0.171533
0.381438
0.42877
0.611523
0.848596
1.15749
1.61446
2.20497
2.91045
3.74677
4.70046
5.83844
7.21538
8.88456
10.8381
13.0231
15.3434
17.6955
19.9661
22.0806
23.9614
25.603
0.446372
0.191116
0.402675
0.455141
0.643935