/*--------------------------------*- C++ -*----------------------------------*\
  =========                 |
  \\      /  F ield         | OpenFOAM: The Open Source CFD Toolbox
   \\    /   O peration     | Website:  https://openfoam.org
    \\  /    A nd           | Version:  7
     \\/     M anipulation  |
\*---------------------------------------------------------------------------*/
FoamFile
{
    version     2.0;
    format      ascii;
    class       surfaceScalarField;
    location    "50";
    object      phi;
}
// * * * * * * * * * * * * * * * * * * * * * * * * * * * * * * * * * * * * * //

dimensions      [0 3 -1 0 0 0 0];

internalField   nonuniform List<scalar> 
25449
(
68.7893
45.1399
-20.5584
51.0019
33.3395
-15.5521
38.0043
24.7667
-11.769
28.4333
18.4796
-8.90866
21.3422
13.8378
-6.74663
16.0625
10.3934
-5.11368
12.1161
7.82731
-3.8809
9.15721
5.90914
-2.95028
6.93355
4.47119
-2.24753
5.25949
3.39048
-1.71642
3.99765
2.57635
-1.31451
3.0458
1.9617
-1.00986
2.32755
1.49669
-0.778433
1.78553
1.14416
-0.602147
1.37663
0.876272
-0.467371
1.06831
0.672179
-0.363855
0.835984
0.516225
-0.2839
0.661066
0.396688
-0.22177
0.529478
0.304811
-0.173221
0.430551
0.234052
-0.135125
0.356213
0.179505
-0.105167
0.300354
0.137465
-0.0816046
0.105088
-0.0631297
0.258397
54.0888
64.0265
40.298
47.1303
30.1481
34.9166
22.632
25.9958
17.0382
19.4315
12.8584
14.5733
9.72496
10.9607
7.37002
8.26408
5.59668
6.24454
4.25942
4.72774
3.25011
3.58566
2.488
2.72381
1.91253
2.07217
1.4781
1.57859
1.15031
1.20406
0.903158
0.919329
0.716975
0.702409
0.576856
0.536808
0.471508
0.41016
0.392367
0.313194
0.332948
0.238924
0.288339
0.182075
0.138562
0.254866
41.5483
78.0609
31.1643
57.5144
23.4426
42.6384
17.6787
31.7597
13.3619
23.7483
10.1201
17.815
7.68025
13.4006
5.84058
10.1038
4.45155
7.63357
3.40183
5.77746
2.60821
4.37928
2.00823
3.32379
1.55481
2.52559
1.21235
1.92104
0.953909
1.46251
0.75904
1.1142
0.612253
0.849197
0.501804
0.647258
0.418783
0.493181
0.356434
0.375544
0.309638
0.285721
0.274515
0.217198
0.164912
0.248165
31.5557
88.1866
23.9043
65.1658
18.1233
48.4194
13.7554
36.1276
10.4532
27.0505
7.95516
20.3131
6.06419
15.2916
4.63181
11.5361
3.54625
8.71913
2.72343
6.60029
2.09991
5.0028
1.62774
3.79596
1.27051
2.88282
1.00052
2.19104
0.796672
1.66636
0.642918
1.26795
0.527072
0.965044
0.439881
0.73445
0.374325
0.558739
0.325075
0.424794
0.288097
0.3227
0.260331
0.244964
0.185757
0.239487
23.8883
95.2563
18.3581
70.696
14.0739
52.7036
10.7767
39.4248
8.24898
29.5782
6.3166
22.2454
4.84188
16.7663
3.71762
12.6604
2.86121
9.57554
2.20945
7.25206
1.71402
5.49822
1.33801
4.17198
1.05307
3.16776
0.837484
2.40663
0.674578
1.82926
0.551617
1.39092
0.458899
1.05776
0.389055
0.804295
0.336489
0.611306
0.296954
0.464329
0.267233
0.352422
0.244889
0.267309
0.202556
0.228091
18.1381
99.9747
14.2242
74.61
11.0705
55.8574
8.57566
41.9196
6.62459
31.5292
5.11121
23.7588
3.94354
17.934
3.0458
13.5581
2.35736
10.264
1.83069
7.77873
1.42875
5.90017
1.12278
4.47796
0.890431
3.40011
0.71436
2.5827
0.581148
1.96248
0.480473
1.49159
0.404455
1.13378
0.347095
0.861656
0.303842
0.65456
0.271243
0.496928
0.246681
0.376984
0.228177
0.285814
0.216501
0.214232
13.8929
102.9
11.1969
77.3061
8.88521
58.1691
6.98202
43.8228
5.45245
33.0588
4.24328
24.968
3.29729
18.8799
2.56238
14.2931
1.99425
10.8321
1.55691
8.21608
1.2215
6.23557
0.965254
4.73421
0.770134
3.59523
0.621969
2.73087
0.509672
2.07478
0.424653
1.57661
0.360323
1.19811
0.311664
0.910316
0.274869
0.691356
0.247051
0.524747
0.226023
0.398012
0.210131
0.301706
0.228516
0.198118
10.7912
104.461
9.00768
79.0897
7.31815
59.8586
5.84644
45.2945
4.62091
34.2843
3.62919
25.9597
2.84042
19.6687
2.22022
14.9133
1.73636
11.316
1.36126
8.59117
1.07206
6.52478
0.85023
4.95604
0.680828
3.76464
0.551905
2.85979
0.453995
2.17269
0.379703
1.65091
0.323339
1.25448
0.280563
0.953093
0.248095
0.723826
0.223446
0.549397
0.204737
0.416721
0.190538
0.315907
0.239287
0.179767
8.21098
107.339
6.11828
81.1824
4.58953
61.3874
3.46425
46.4198
2.62985
35.1187
2.00809
26.5815
1.54202
20.1348
1.19093
15.2643
0.925352
11.5816
0.724016
8.79251
0.571277
6.67752
0.455538
5.07178
0.367985
3.85219
0.301857
2.92592
0.251939
2.22261
0.214232
1.68861
0.185703
1.28301
0.164074
0.974723
0.147646
0.740255
0.135149
0.561895
0.125634
0.426237
0.118392
0.323149
0.244809
0.112871
6.03648
109.463
4.49675
82.7222
3.37647
62.5077
2.55408
47.2422
1.9455
35.7273
1.49271
27.0343
1.15341
20.4741
0.897667
15.5201
0.703899
11.7753
0.556732
8.93968
0.444874
6.78938
0.359998
5.15666
0.295734
3.91646
0.247171
2.97449
0.210483
2.2593
0.182722
1.71638
0.161651
1.30408
0.145594
0.990781
0.133315
0.752536
0.123896
0.571315
0.116657
0.433477
0.111096
0.328711
0.249088
0.106817
4.38486
111.008
3.26812
83.839
2.45876
63.317
1.866
47.8349
1.4282
36.1651
1.10288
27.3596
0.859046
20.7179
0.675003
15.7041
0.535194
11.9151
0.4287
9.04617
0.347521
6.87056
0.285792
5.21839
0.238982
3.96327
0.203567
3.00991
0.176768
2.2861
0.156425
1.73672
0.140901
1.31961
0.128975
1.00271
0.119757
0.761755
0.112599
0.578474
0.107023
0.439054
0.102684
0.33305
0.252469
0.0993041
3.13915
112.11
2.34419
84.634
1.76983
63.8914
1.3498
48.255
1.04003
36.4749
0.810003
27.5896
0.637397
20.8905
0.506771
15.8348
0.407109
12.0148
0.330847
9.12244
0.272442
6.92897
0.227871
5.26297
0.193979
3.99717
0.168279
3.03561
0.148772
2.30561
0.133886
1.75161
0.122427
1.33107
0.113515
1.01162
0.106519
0.768752
0.100991
0.584003
0.0966057
0.44344
0.0931343
0.336522
0.255219
0.0903856
2.20681
112.875
1.65506
85.1857
1.25679
64.2896
0.965448
48.5463
0.750639
36.6897
0.591034
27.7492
0.470934
21.0106
0.379608
15.9261
0.309435
12.085
0.255343
9.17653
0.213609
6.9707
0.181576
5.295
0.157102
4.02164
0.138471
3.05424
0.12426
2.31982
0.113328
1.76254
0.104808
1.33959
0.0980663
1.01837
0.0926645
0.774156
0.0883004
0.588369
0.0847601
0.446982
0.0819003
0.339383
0.257525
0.0795946
1.5185
113.384
1.14861
85.5556
0.880544
64.5577
0.683652
48.7432
0.538113
36.8352
0.429622
27.8577
0.347499
21.0927
0.284519
15.9891
0.235559
12.1339
0.197375
9.21471
0.167568
7.00051
0.144477
5.3181
0.126698
4.03942
0.113077
3.06787
0.102609
2.33029
0.0944643
1.77069
0.0880092
1.34604
0.0827871
1.02359
0.0784954
0.778449
0.074937
0.591929
0.071978
0.449942
0.0695357
0.341826
0.259532
0.0675301
1.009
113.699
0.775759
85.7889
0.604167
64.7293
0.476607
48.8708
0.381511
36.9303
0.310008
27.9292
0.255252
21.1475
0.212627
16.0317
0.178854
12.1677
0.152021
9.24155
0.130687
7.02184
0.113919
5.33486
0.100851
4.05249
0.0907391
3.07798
0.0828837
2.33814
0.0766804
1.77689
0.0716598
1.35107
0.0674905
1.02776
0.0639661
0.781975
0.0609629
0.594934
0.0584036
0.452501
0.0562488
0.343982
0.261333
0.0544488
0.643075
113.869
0.51005
85.9219
0.407878
64.8315
0.329522
48.9491
0.269789
36.9901
0.223975
27.975
0.188093
21.1834
0.159423
16.0604
0.135998
12.1911
0.116853
9.26069
0.101214
7.03749
0.0886638
5.34742
0.0787125
4.06245
0.0709104
3.08579
0.0647705
2.34429
0.0598432
1.78182
0.055769
1.35514
0.0522987
1.03123
0.0492887
0.784988
0.0466627
0.597561
0.0443812
0.454784
0.0424309
0.345932
0.262982
0.0407825
0.381803
113.93
0.322343
85.9814
0.269881
64.8839
0.226094
48.9929
0.190783
37.0254
0.162474
28.0033
0.139323
21.2065
0.119986
16.0797
0.103421
12.2077
0.0893201
9.27479
0.0773725
7.04943
0.0675174
5.35727
0.05953
4.07043
0.0531699
3.09215
0.0480994
2.34936
0.0439742
1.78595
0.0405043
1.35861
0.0374915
1.03425
0.0348298
0.787651
0.0324716
0.599921
0.0303983
0.456858
0.0286132
0.347718
0.264501
0.0270949
0.199705
113.91
0.193576
85.9875
0.175934
64.9016
0.155672
49.0132
0.136538
37.0445
0.11958
28.0203
0.104547
21.2216
0.0910743
16.0932
0.0787525
12.22
0.0677162
9.28583
0.0579559
7.0592
0.049655
5.36558
0.0427673
4.07733
0.0372015
3.09772
0.0327231
2.35384
0.0290572
1.78962
0.0259533
1.36172
0.0232394
1.03696
0.0208275
0.790065
0.018683
0.602067
0.0167948
0.458747
0.0151723
0.349341
0.26588
0.0137948
0.0772736
113.828
0.1092
85.9556
0.115196
64.8956
0.110176
49.0182
0.101054
37.0536
0.0908506
28.0305
0.0804946
21.2319
0.0702998
16.1034
0.0602681
12.2301
0.0508158
9.29528
0.0421167
7.06789
0.0345136
5.37318
0.0280766
4.08376
0.0228208
3.10297
0.0185829
2.35808
0.0151318
1.79307
0.0122335
1.36462
0.00972405
1.03947
0.00751563
0.792275
0.00557555
0.604009
0.00388586
0.460437
0.00245598
0.350772
0.267085
0.00125163
-0.0010289
113.7
0.0576245
85.897
0.0790008
64.8742
0.0831156
49.0141
0.0794696
37.0573
0.0726506
28.0373
0.0644514
21.2401
0.0556453
16.1122
0.0464772
12.2392
0.0375267
9.30423
0.0290632
7.07636
0.021527
5.38072
0.0150613
4.09023
0.00975865
3.10828
0.00550681
2.36234
0.00210243
1.79648
-0.000689047
1.36741
-0.00304008
1.04183
-0.0050542
0.794292
-0.00677431
0.605731
-0.00823547
0.461899
-0.00944012
0.351977
0.268084
-0.0104382
-0.0475616
113.537
0.0296027
85.8198
0.0604214
64.8434
0.0692919
49.0052
0.0678863
37.0587
0.0620506
28.0431
0.054213
21.248
0.0454446
16.1209
0.036114
12.2486
0.026883
9.31346
0.0180563
7.08518
0.0101295
5.38864
0.00328884
4.09707
-0.0023137
3.11388
-0.00675111
2.36677
-0.0102123
1.79993
-0.0129462
1.37014
-0.0151462
1.04403
-0.0169429
0.796091
-0.0184027
0.607191
-0.0195823
0.46308
-0.020512
0.352906
0.268825
-0.0212501
-0.0702712
113.349
0.0192181
85.7303
0.0549966
64.8076
0.0653108
48.9949
0.0637009
37.0603
0.0570465
28.0498
0.0482429
21.2568
0.0385344
16.1306
0.0283108
12.2588
0.0182443
9.32353
0.00862435
7.09481
-2.98309e-05
5.39731
-0.00750596
4.10455
-0.013604
3.11999
-0.0183614
2.37153
-0.0219551
1.80353
-0.024655
1.37285
-0.0266906
1.04606
-0.0282332
0.797636
-0.0293833
0.608343
-0.0302293
0.463924
-0.0308333
0.353513
0.269262
-0.0312708
-0.0751915
113.14
0.0220389
85.6331
0.0595074
64.7702
0.068868
48.9855
0.0652781
37.0639
0.0564588
28.0586
0.0456412
21.2676
0.0341692
16.1421
0.0224139
12.2705
0.0110334
9.33491
0.00026898
7.10557
-0.00936963
5.40694
-0.0176699
4.11285
-0.0243996
3.12671
-0.0295623
2.37669
-0.0333288
1.8073
-0.0359967
1.37551
-0.0378448
1.04791
-0.0390951
0.798887
-0.0398945
0.609142
-0.0403616
0.464392
-0.0406097
0.353763
0.269368
-0.0407134
-0.406985
113.014
-0.312386
85.5385
-0.242638
64.7004
-0.190086
48.933
-0.150417
37.0242
-0.120359
28.0286
-0.097768
21.245
-0.0811998
16.1256
-0.0696324
12.259
-0.0621027
9.32738
-0.0578271
7.10129
-0.0559069
5.40502
-0.0555657
4.11251
-0.0559949
3.12715
-0.0565663
2.37727
-0.0568948
1.80763
-0.0568649
1.37548
-0.0565054
1.04756
-0.0558994
0.798284
-0.0551238
0.608367
-0.0542551
0.463524
-0.0533975
0.352906
0.26856
-0.0525876
-0.396809
112.895
-0.307775
85.4494
-0.242073
64.6347
-0.192471
48.8834
-0.15496
36.9867
-0.126469
28.0001
-0.105006
21.2235
-0.089247
16.1098
-0.0782678
12.248
-0.0711862
9.32029
-0.0672674
7.09737
-0.065648
5.4034
-0.0655506
4.11241
-0.0661445
3.12774
-0.0667447
2.37787
-0.0669243
1.80781
-0.0665604
1.37512
-0.0657242
1.04672
-0.0645671
0.797128
-0.0632328
0.607032
-0.0618433
0.462136
-0.0605285
0.351593
0.267355
-0.0593198
-0.386702
112.783
-0.30285
85.3656
-0.240906
64.5728
-0.194042
48.8365
-0.158529
36.9512
-0.131488
27.973
-0.11107
21.2031
-0.0960589
16.0948
-0.0856221
12.2376
-0.0789514
9.31362
-0.0753561
7.09378
-0.07401
5.40206
-0.0741347
4.11254
-0.0748842
3.12849
-0.0755166
2.37851
-0.0755643
1.80786
-0.0748984
1.37446
-0.0736371
1.04546
-0.0720026
0.795496
-0.0701974
0.605228
-0.0683824
0.460322
-0.0667037
0.349916
0.265848
-0.0651944
-0.376724
112.678
-0.297727
85.2866
-0.239295
64.5143
-0.194989
48.7922
-0.161341
36.9175
-0.135651
27.9473
-0.116201
21.1837
-0.101882
16.0805
-0.0919413
12.2276
-0.0856451
9.30732
-0.082342
7.09047
-0.0812462
5.40095
-0.0815788
4.11286
-0.0824869
3.12939
-0.0831724
2.37919
-0.0831253
1.80781
-0.0822094
1.37354
-0.0805881
1.04384
-0.0785428
0.793453
-0.0763401
0.603024
-0.0741926
0.458176
-0.0722612
0.347986
0.264151
-0.0705616
-0.366913
112.58
-0.292482
85.2122
-0.237351
64.4592
-0.195446
48.7503
-0.163546
36.8856
-0.139121
27.9229
-0.120574
21.1651
-0.106894
16.0668
-0.097409
12.2181
-0.0914534
9.30137
-0.0884139
7.08743
-0.0875484
5.40009
-0.0880787
4.1134
-0.0891553
3.13048
-0.0899265
2.37997
-0.0898375
1.80773
-0.0887348
1.37244
-0.0868175
1.04193
-0.0844254
0.791063
-0.0819139
0.600515
-0.0795608
0.455823
-0.0774918
0.345918
0.262351
-0.0756884
-0.357291
112.488
-0.287172
85.142
-0.235153
64.4072
-0.19551
48.7106
-0.165257
36.8554
-0.14202
27.8997
-0.124318
21.1474
-0.111233
16.0537
-0.102165
12.2091
-0.0965192
9.29572
-0.0937169
7.08462
-0.0930637
5.39943
-0.0937842
4.11411
-0.0950439
3.13173
-0.0959429
2.38086
-0.0958775
1.80766
-0.09466
1.37122
-0.0925195
1.03979
-0.0898739
0.788419
-0.0871735
0.597813
-0.0847059
0.453357
-0.0825438
0.343757
0.260488
-0.080679
-0.347875
112.401
-0.281838
85.076
-0.23276
64.3581
-0.195257
48.6731
-0.166558
36.8267
-0.144441
27.8776
-0.127531
21.1305
-0.115
16.0412
-0.106316
12.2004
-0.100952
9.29036
-0.0983626
7.08203
-0.0979054
5.39898
-0.0988102
4.11502
-0.100272
3.1332
-0.101347
2.38194
-0.101383
1.8077
-0.10014
1.36998
-0.0978802
1.03753
-0.0950948
0.785635
-0.0922581
0.594978
-0.089646
0.450746
-0.0873654
0.341478
0.258584
-0.0854581
-0.338674
112.32
-0.27651
85.0138
-0.230219
64.3118
-0.194743
48.6377
-0.167517
36.7995
-0.146458
27.8565
-0.130294
21.1143
-0.11828
16.0291
-0.109948
12.1921
-0.104841
9.28524
-0.102442
7.07963
-0.102165
5.39869
-0.10325
4.1161
-0.104934
3.13487
-0.106242
2.38324
-0.10647
1.80792
-0.105324
1.36883
-0.103064
1.03527
-0.100184
0.782757
-0.097142
0.591934
-0.0942925
0.447898
-0.0918625
0.339049
0.256603
-0.0898789
-0.329696
112.244
-0.271212
84.9554
-0.227569
64.2682
-0.194017
48.6041
-0.168187
36.7736
-0.148131
27.8364
-0.13267
21.0989
-0.12114
16.0176
-0.113133
12.1841
-0.108258
9.28037
-0.106029
7.0774
-0.105919
5.39859
-0.107178
4.11736
-0.109107
3.13681
-0.110708
2.38485
-0.111242
1.80846
-0.110334
1.36793
-0.108162
1.0331
-0.105152
0.779748
-0.10183
0.588615
-0.0987344
0.444803
-0.0961208
0.336436
0.254445
-0.0939603
-0.320945
112.174
-0.265965
84.9004
-0.22484
64.227
-0.193118
48.5724
-0.168615
36.7491
-0.149511
27.8173
-0.134715
21.0841
-0.123637
16.0065
-0.11593
12.1764
-0.111266
9.2757
-0.109185
7.07531
-0.109227
5.39862
-0.110657
4.11878
-0.112851
3.13899
-0.114813
2.3868
-0.115775
1.80942
-0.115245
1.3674
-0.113232
1.03109
-0.110118
0.776636
-0.106625
0.585118
-0.103374
0.441553
-0.100554
0.333616
0.252072
-0.0981796
-0.312423
112.107
-0.260783
84.8487
-0.222057
64.1883
-0.192078
48.5424
-0.16884
36.7259
-0.15064
27.7991
-0.136474
21.0699
-0.125822
15.9959
-0.11839
12.1689
-0.113916
9.27123
-0.111965
7.07336
-0.112145
5.3988
-0.113738
4.12038
-0.116218
3.14147
-0.118607
2.3892
-0.120117
1.81093
-0.120107
1.36739
-0.118408
1.02939
-0.115456
0.773684
-0.1121
0.581766
-0.108862
0.438315
-0.105902
0.330657
0.249509
-0.103337
-0.30413
112.046
-0.255681
84.8003
-0.219243
64.1519
-0.190928
48.5141
-0.168895
36.7039
-0.151557
27.7818
-0.137988
21.0563
-0.127736
15.9856
-0.120557
12.1617
-0.116255
9.26692
-0.114415
7.07152
-0.114718
5.3991
-0.116466
4.12211
-0.119246
3.14425
-0.122123
2.39206
-0.124298
1.8131
-0.124995
1.36808
-0.123947
1.02834
-0.121623
0.771362
-0.11874
0.578879
-0.115611
0.435187
-0.112486
0.327532
0.246572
-0.109548
-0.296069
111.988
-0.250669
84.7549
-0.216417
64.1176
-0.189691
48.4874
-0.168809
36.683
-0.152294
27.7653
-0.139293
21.0433
-0.129417
15.9758
-0.122472
12.1548
-0.118323
9.26277
-0.116576
7.06977
-0.116986
5.39951
-0.118877
4.12401
-0.121965
3.14733
-0.125379
2.39548
-0.12834
1.81606
-0.130017
1.36977
-0.130085
1.02841
-0.128812
0.770087
-0.126471
0.576542
-0.123291
0.432007
-0.119749
0.32399
0.24303
-0.116207
-0.288237
111.935
-0.245756
84.7124
-0.213596
64.0855
-0.18839
48.4622
-0.16861
36.6632
-0.152882
27.7496
-0.140421
21.0309
-0.1309
15.9662
-0.12417
12.1481
-0.120158
9.25876
-0.118486
7.06809
-0.118985
5.4
-0.121005
4.12602
-0.124397
3.15072
-0.128385
2.39946
-0.132269
1.81994
-0.135248
1.37274
-0.136833
1.02999
-0.136738
0.769992
-0.134776
0.574576
-0.131404
0.428637
-0.127553
0.320138
0.239326
-0.123849
-0.280634
111.886
-0.240951
84.6727
-0.210794
64.0553
-0.187046
48.4384
-0.168321
36.6445
-0.153346
27.7346
-0.141401
21.0189
-0.132215
15.957
-0.125684
12.1415
-0.121792
9.25486
-0.120178
7.06648
-0.120748
5.40057
-0.122879
4.12815
-0.126559
3.1544
-0.131147
2.40405
-0.136087
1.82488
-0.140628
1.37728
-0.143907
1.03327
-0.144991
0.771074
-0.143671
0.57326
-0.141012
0.425978
-0.138266
0.317391
0.236971
-0.135912
-0.273259
111.84
-0.236261
84.6357
-0.208027
64.0271
-0.185677
48.4161
-0.167965
36.6268
-0.153713
27.7203
-0.142261
21.0075
-0.133392
15.9482
-0.127043
12.1352
-0.123256
9.25107
-0.121685
7.0649
-0.122306
5.40118
-0.124524
4.13035
-0.128465
3.15833
-0.133662
2.40924
-0.139744
1.83096
-0.145952
1.38348
-0.150961
1.03828
-0.153653
0.773765
-0.154531
0.574136
-0.155036
0.426483
-0.155775
0.318129
0.237557
-0.156362
-0.26611
111.798
-0.231693
84.6013
-0.205307
64.0007
-0.184301
48.3951
-0.167563
36.61
-0.154005
27.7068
-0.143025
20.9965
-0.134457
15.9396
-0.128276
12.129
-0.12458
9.24737
-0.123035
7.06335
-0.123686
5.40183
-0.125965
4.13263
-0.130124
3.16248
-0.135912
2.41502
-0.14313
1.83817
-0.150949
1.39131
-0.157847
1.04517
-0.163382
0.779297
-0.168933
0.579691
-0.175072
0.432621
-0.180548
0.323605
0.241153
-0.184147
-0.259185
111.76
-0.227254
84.5694
-0.202645
63.9761
-0.182934
48.3753
-0.167134
36.5942
-0.154244
27.6939
-0.143717
20.986
-0.135435
15.9313
-0.129409
12.123
-0.12579
9.24375
-0.124257
7.06181
-0.124914
5.40248
-0.127225
4.13493
-0.131545
3.16679
-0.137867
2.42133
-0.146103
1.8464
-0.155397
1.40059
-0.164605
1.05437
-0.174528
0.789218
-0.186365
0.591528
-0.198225
0.444481
-0.207053
0.332433
0.246006
-0.211909
-0.252483
111.725
-0.222948
84.5398
-0.200053
63.9532
-0.18159
48.3569
-0.166696
36.5793
-0.154451
27.6816
-0.14436
20.9759
-0.13635
15.9233
-0.130467
12.1171
-0.126913
9.2402
-0.125377
7.06027
-0.126015
5.40312
-0.128327
4.13724
-0.132734
3.1712
-0.139486
2.42808
-0.148525
1.85544
-0.159151
1.41122
-0.17116
1.06638
-0.186285
0.804339
-0.203801
0.609047
-0.218848
0.459527
-0.227911
0.341495
0.249615
-0.231524
-0.246002
111.693
-0.218782
84.5126
-0.197543
63.9319
-0.180286
48.3396
-0.166267
36.5653
-0.154647
27.67
-0.144976
20.9662
-0.137226
15.9156
-0.131474
12.1114
-0.127974
9.23669
-0.126421
7.05872
-0.127015
5.40371
-0.129294
4.13951
-0.133696
3.17559
-0.140729
2.43511
-0.150293
1.865
-0.162099
1.42302
-0.177079
1.08135
-0.196819
0.824076
-0.217527
0.629756
-0.232356
0.474356
-0.238865
0.348003
0.250195
-0.239449
-0.23974
111.665
-0.21476
84.4876
-0.195122
63.9123
-0.179034
48.3235
-0.165863
36.5522
-0.154848
27.659
-0.145585
20.9569
-0.138083
15.9081
-0.132453
12.1057
-0.128995
9.23323
-0.127415
7.05713
-0.127937
5.40422
-0.130149
4.14172
-0.134436
3.17987
-0.141569
2.44223
-0.151345
1.87477
-0.164085
1.43576
-0.181598
1.09886
-0.204163
0.846637
-0.224962
0.650557
-0.236833
0.486227
-0.239337
0.350506
0.247206
-0.236353
-0.233695
111.639
-0.210888
84.4648
-0.192803
63.8942
-0.177848
48.3086
-0.165501
36.5398
-0.155074
27.6486
-0.146206
20.9481
-0.138943
15.9008
-0.133427
12.1002
-0.13
9.2298
-0.128382
7.05551
-0.128804
5.40464
-0.130917
4.14382
-0.134967
3.18391
-0.141997
2.44926
-0.151644
1.88441
-0.164899
1.44901
-0.183914
1.11787
-0.20697
0.869689
-0.225217
0.668805
-0.232622
0.493632
-0.230875
0.348757
0.240957
-0.22463
-0.227866
111.616
-0.207169
84.4441
-0.190593
63.8776
-0.176741
48.2947
-0.165196
36.5283
-0.155342
27.6387
-0.146857
20.9396
-0.139826
15.8938
-0.134415
12.0948
-0.131011
9.2264
-0.129346
7.05384
-0.129639
5.40493
-0.131624
4.1458
-0.135306
3.18759
-0.142025
2.45597
-0.151187
1.89357
-0.164345
1.46217
-0.183424
1.13694
-0.20471
0.89097
-0.2188
0.682898
-0.221539
0.49637
-0.216102
0.343319
0.232167
-0.207318
-0.222251
111.597
-0.203608
84.4255
-0.188503
63.8625
-0.175725
48.282
-0.164964
36.5175
-0.15567
27.6294
-0.14756
20.9315
-0.140752
15.887
-0.13544
12.0895
-0.132048
9.223
-0.13033
7.05212
-0.130464
5.40506
-0.132293
4.14763
-0.135472
3.19076
-0.141669
2.46216
-0.149988
1.90189
-0.162266
1.47444
-0.179841
1.15451
-0.197588
0.908712
-0.206902
0.692214
-0.205751
0.495217
-0.197853
0.33542
0.221828
-0.187518
-0.216848
111.58
-0.20021
84.4088
-0.186538
63.8489
-0.17481
48.2702
-0.164814
36.5075
-0.156067
27.6207
-0.148325
20.9237
-0.141735
15.8804
-0.13652
12.0843
-0.133136
9.21962
-0.131361
7.05034
-0.131312
5.405
-0.132969
4.14928
-0.135533
3.19332
-0.141028
2.46765
-0.148205
1.90906
-0.158784
1.48502
-0.173385
1.1691
-0.18635
0.921673
-0.190925
0.696787
-0.18701
0.491305
-0.178264
0.32667
0.211339
-0.167778
-0.20434
111.556
-0.185076
84.3896
-0.170836
63.8346
-0.159562
48.259
-0.150449
36.4984
-0.14272
27.613
-0.135962
20.917
-0.130212
15.8746
-0.125634
12.0797
-0.122626
9.21661
-0.121043
7.04876
-0.12087
5.40483
-0.122232
4.15063
-0.124027
3.19511
-0.128209
2.47182
-0.133458
1.9143
-0.140785
1.49234
-0.150181
1.17849
-0.156797
0.928283
-0.157128
0.697122
-0.152326
0.486495
-0.145085
0.319436
0.203101
-0.136855
-0.162693
111.538
-0.147613
84.3745
-0.136486
63.8235
-0.127676
48.2501
-0.120546
36.4913
-0.114478
27.6069
-0.109134
20.9116
-0.104544
15.87
-0.100841
12.076
-0.0983299
9.21409
-0.0969737
7.0474
-0.0966153
5.40447
-0.0974357
4.15145
-0.0984438
3.19611
-0.100871
2.47424
-0.103818
1.91724
-0.107447
1.49597
-0.111347
1.18239
-0.112104
0.929035
-0.109449
0.694462
-0.105022
0.482074
-0.100318
0.314727
0.198306
-0.095521
-0.129501
111.523
-0.117678
84.3627
-0.108971
63.8148
-0.102078
48.2433
-0.096494
36.4857
-0.0917284
27.6021
-0.0875036
20.9074
-0.0838416
15.8664
-0.0808516
12.073
-0.0787662
9.21201
-0.077612
7.04624
-0.077171
5.40402
-0.0776175
4.15189
-0.078169
3.19666
-0.0794547
2.47553
-0.0809278
1.91871
-0.082335
1.49738
-0.0829481
1.18299
-0.0804364
0.926519
-0.076261
0.690286
-0.0721893
0.477998
-0.0690261
0.311566
0.195675
-0.066398
-0.10304
111.512
-0.0937452
84.3534
-0.0869117
63.808
-0.081504
48.2378
-0.077122
36.4813
-0.0733738
27.5984
-0.0700326
20.9041
-0.0671123
15.8634
-0.0647007
12.0706
-0.0629768
9.21028
-0.0619991
7.04526
-0.0615401
5.40356
-0.0617342
4.15208
-0.0620288
3.19694
-0.0626125
2.4761
-0.0631667
1.91926
-0.0633471
1.49755
-0.0621343
1.18177
-0.0581949
0.922575
-0.0534734
0.685559
-0.0496241
0.47415
-0.0472438
0.309183
0.194151
-0.0457208
-0.0819575
111.503
-0.074633
84.346
-0.0692564
63.8026
-0.0650049
48.2336
-0.0615597
36.4779
-0.058608
27.5954
-0.0559646
20.9014
-0.0536365
15.8611
-0.0516935
12.0687
-0.050274
9.20886
-0.0494485
7.04443
-0.0490082
5.40312
-0.0490381
4.15211
-0.0491856
3.19709
-0.0493641
2.47628
-0.0493697
1.91927
-0.0488987
1.49709
-0.0468094
1.17968
-0.04256
0.918323
-0.0378751
0.680873
-0.0342283
0.4705
-0.0321874
0.307144
0.193046
-0.0310839
-0.0651363
111.496
-0.0593267
84.3402
-0.0550675
63.7983
-0.0517037
48.2302
-0.0489799
36.4751
-0.0466457
27.5931
-0.044549
20.8993
-0.042691
15.8593
-0.0411254
12.0671
-0.039959
9.20769
-0.039262
7.04373
-0.0388559
5.40271
-0.0387826
4.15203
-0.0388392
3.19714
-0.0387968
2.47623
-0.038488
1.91895
-0.0376895
1.49629
-0.0353575
1.17734
-0.0313826
0.914344
-0.0270537
0.676539
-0.0236787
0.467126
-0.0217703
0.305233
0.192034
-0.0207585
-0.0519097
111.49
-0.0474104
84.3357
-0.0441191
63.795
-0.0415203
48.2276
-0.0394132
36.473
-0.0376002
27.5913
-0.0359589
20.8977
-0.0344892
15.8578
-0.0332352
12.0658
-0.0322838
9.20674
-0.0317015
7.04315
-0.0313426
5.40235
-0.031219
4.1519
-0.0312201
3.19714
-0.0310757
2.47609
-0.0306155
1.91849
-0.0296692
1.49534
-0.0273856
1.17506
-0.0238148
0.910772
-0.0199134
0.672637
-0.0168714
0.46408
-0.0150814
0.303444
0.191058
-0.0141076
-0.041104
111.486
-0.037423
84.3321
-0.0347302
63.7923
-0.0326099
48.2255
-0.0308975
36.4713
-0.0294317
27.5898
-0.0281102
20.8964
-0.026927
15.8566
-0.0259117
12.0648
-0.0251291
9.20595
-0.024634
7.04265
-0.0243106
5.40202
-0.0241504
4.15173
-0.0241059
3.19709
-0.0239145
2.47589
-0.0233909
1.91796
-0.0224446
1.49439
-0.0204852
1.17309
-0.0175081
0.907791
-0.0141769
0.6693
-0.0115496
0.461454
-0.00990351
0.301795
0.190109
-0.0089541
-0.0332
111.477
-0.0263658
84.3252
-0.0210823
63.787
-0.0168581
48.2213
-0.0134387
36.4679
-0.0105778
27.587
-0.00808604
20.8939
-0.0058786
15.8544
-0.0039251
12.0629
-0.00226153
9.20429
-0.000916841
7.04131
0.000239736
5.40086
0.00120787
4.15077
0.00215452
3.19614
0.00333672
2.47471
0.00486171
1.91644
0.00694656
1.49231
0.0100813
1.16995
0.0133472
0.904526
0.015265
0.667383
0.0149345
0.461781
0.012884
0.303847
0.193054
0.00993663
-0.0348588
111.468
-0.0276862
84.3181
-0.0221437
63.7815
-0.0177156
48.2169
-0.0141334
36.4643
-0.011137
27.584
-0.00852464
20.8913
-0.00620348
15.8521
-0.00413876
12.0608
-0.00236844
9.20252
-0.000925358
7.03986
0.000332599
5.3996
0.00140486
4.14969
0.00246435
3.19507
0.00380883
2.47336
0.00555433
1.91468
0.00791902
1.48994
0.0114327
1.16643
0.0151012
0.900854
0.017357
0.665122
0.0172634
0.461875
0.0153688
0.305738
0.196007
0.0124163
-0.0366
111.459
-0.0290724
84.3105
-0.0232579
63.7757
-0.0186162
48.2122
-0.0148636
36.4606
-0.0117256
27.5808
-0.00898727
20.8885
-0.00654718
15.8496
-0.00436593
12.0586
-0.0024832
9.20063
-0.000935762
7.03831
0.000428974
5.39824
0.00161271
4.1485
0.00279222
3.1939
0.00429876
2.47185
0.00628996
1.91269
0.00896548
1.48727
0.0128482
1.16255
0.0169171
0.896786
0.0195175
0.662523
0.0196787
0.46171
0.0179606
0.307457
0.198896
0.0150701
-0.0384278
111.45
-0.0305275
84.3026
-0.0244277
63.7696
-0.0195622
48.2073
-0.0156311
36.4567
-0.012345
27.5776
-0.00947505
20.8857
-0.00691065
15.8471
-0.00460729
12.0563
-0.00260635
9.19863
-0.000948345
7.03665
0.000528872
5.39676
0.00183129
4.14719
0.00313826
3.19258
0.00480781
2.47017
0.00707058
1.91042
0.0100771
1.48426
0.014318
1.1583
0.0187703
0.892331
0.0217126
0.659576
0.022126
0.461298
0.0205859
0.308994
0.201673
0.017808
-0.0403461
111.439
-0.0320551
84.2943
-0.0256562
63.7632
-0.0205559
48.2023
-0.0164378
36.4525
-0.0129968
27.5741
-0.00998935
20.8827
-0.00729498
15.8444
-0.00486368
12.0539
-0.00273836
9.1965
-0.000963134
7.03488
0.000632812
5.39516
0.00206121
4.14577
0.00350411
3.19114
0.0053399
2.46834
0.00789616
1.90787
0.0112424
1.48092
0.0158341
1.15371
0.0206457
0.887522
0.0239225
0.656301
0.0245807
0.460636
0.0232232
0.310353
0.204294
0.0206009
-0.0423602
111.429
-0.0336588
84.2856
-0.0269459
63.7565
-0.0215995
48.1969
-0.0172857
36.4482
-0.0136827
27.5705
-0.0105316
20.8795
-0.00770132
15.8415
-0.00513592
12.0513
-0.0028797
9.19424
-0.000979975
7.03297
0.000741683
5.39344
0.0023039
4.1442
0.00389276
3.18954
0.00590111
2.46632
0.00876695
1.905
0.0124538
1.47722
0.0173891
1.14877
0.0225314
0.882377
0.0261235
0.652704
0.0270274
0.459734
0.0258689
0.311508
0.206733
0.0234292
-0.0444738
111.418
-0.0353424
84.2765
-0.0283002
63.7494
-0.0226957
48.1913
-0.0181768
36.4437
-0.0144044
27.5667
-0.0111032
20.8762
-0.00813084
15.8386
-0.00542484
12.0486
-0.00303064
9.19185
-0.000998434
7.03094
0.000856927
5.39158
0.0025617
4.14249
0.00430857
3.1878
0.00649972
2.46413
0.0096859
1.90181
0.0137084
1.4732
0.018979
1.1435
0.0244188
0.87694
0.0283
0.648824
0.0294556
0.458574
0.0285235
0.312441
0.20898
0.0262755
-0.0466929
111.406
-0.0371098
84.2669
-0.0297218
63.742
-0.0238471
48.1854
-0.0191134
36.439
-0.0151638
27.5628
-0.0117056
20.8728
-0.00858469
15.8355
-0.00573111
12.0458
-0.00319135
9.18931
-0.00101797
7.02877
0.000980293
5.38958
0.00283763
4.14063
0.00475685
3.18587
0.00714533
2.46174
0.010656
1.8983
0.0150009
1.46886
0.020597
1.1379
0.0263006
0.871234
0.030447
0.644673
0.0318638
0.457159
0.0311786
0.313123
0.211011
0.0291464
-0.049022
111.394
-0.0389653
84.2569
-0.0312147
63.7343
-0.0250563
48.1793
-0.0200977
36.434
-0.0159626
27.5587
-0.0123404
20.8691
-0.00906397
15.8322
-0.00605549
12.0428
-0.00336204
9.18662
-0.00103794
7.02644
0.00111361
5.38743
0.00313487
4.13861
0.00524282
3.18377
0.00784684
2.45914
0.0116767
1.89447
0.0163252
1.46421
0.0222319
1.13199
0.0281724
0.865297
0.0325593
0.640288
0.0342457
0.455468
0.0338212
0.313549
0.212791
0.0320408
-0.0514667
111.381
-0.040913
84.2463
-0.0327819
63.7262
-0.0263263
48.1728
-0.021132
36.4288
-0.0168028
27.5543
-0.0130092
20.8653
-0.00957
15.8287
-0.0063988
12.0396
-0.00354295
9.18376
-0.00105799
7.02395
0.00125839
5.38511
0.00345626
4.1364
0.00577098
3.18145
0.00861206
2.45629
0.0127484
1.89033
0.017687
1.45927
0.0238768
1.1258
0.0300349
0.859136
0.0346281
0.63569
0.0365944
0.453504
0.0364354
0.313705
0.214302
0.0349232
-0.0540329
111.367
-0.0429575
84.2352
-0.0344276
63.7176
-0.02766
48.166
-0.0222188
36.4234
-0.0176866
27.5498
-0.0137136
20.8614
-0.0101041
15.8251
-0.00676196
12.0363
-0.00373454
9.18073
-0.00107788
7.0213
0.00141576
5.38262
0.003804
4.13402
0.00634418
3.17891
0.00944706
2.45319
0.0138734
1.8859
0.0191012
1.45404
0.0255333
1.11937
0.0318892
0.852783
0.0366557
0.630925
0.0388967
0.451259
0.0389947
0.313608
0.215561
0.0377349
-0.0567268
111.353
-0.045104
84.2236
-0.036155
63.7087
-0.0290607
48.1589
-0.0233607
36.4177
-0.0186159
27.5451
-0.0144553
20.8572
-0.0106675
15.8213
-0.007146
12.0327
-0.00393734
9.17752
-0.0010977
7.01846
0.00158646
5.37993
0.00417965
4.13142
0.00696394
3.17612
0.0103553
2.44979
0.0150509
1.8812
0.0205708
1.44852
0.0271993
1.11274
0.0337288
0.84625
0.0386454
0.626004
0.0411322
0.448774
0.0414584
0.313279
0.2166
0.0404194
-0.0595541
111.338
-0.0473574
84.2114
-0.0379689
63.6993
-0.0305316
48.1515
-0.0245605
36.4117
-0.0195932
27.5401
-0.0152364
20.8529
-0.0112619
15.8174
-0.00755198
12.029
-0.00415204
9.17412
-0.00111768
7.01542
0.00177077
5.37704
0.00458405
4.12861
0.00763028
3.17307
0.0113332
2.44609
0.0162743
1.87626
0.0220896
1.4427
0.0288753
1.10595
0.0355427
0.839585
0.0405926
0.620956
0.0432678
0.446095
0.0437826
0.312766
0.217454
0.0429274
-0.062522
111.322
-0.0497227
84.1986
-0.039873
63.6894
-0.0320762
48.1437
-0.025821
36.4055
-0.0206207
27.5349
-0.0160586
20.8483
-0.0118888
15.8132
-0.00798108
12.0251
-0.00437939
9.17051
-0.0011382
7.01218
0.00196869
5.37393
0.00501742
4.12555
0.00834216
3.16974
0.0123696
2.44206
0.0175323
1.87109
0.0236461
1.43659
0.0305688
1.09903
0.0373269
0.832824
0.042479
0.615799
0.0452786
0.443297
0.0459319
0.31211
0.21817