/*--------------------------------*- C++ -*----------------------------------*\
  =========                 |
  \\      /  F ield         | OpenFOAM: The Open Source CFD Toolbox
   \\    /   O peration     | Website:  https://openfoam.org
    \\  /    A nd           | Version:  7
     \\/     M anipulation  |
\*---------------------------------------------------------------------------*/
FoamFile
{
    version     2.0;
    format      ascii;
    class       volVectorField;
    location    "50";
    object      U;
}
// * * * * * * * * * * * * * * * * * * * * * * * * * * * * * * * * * * * * * //

dimensions      [0 1 -1 0 0 0 0];

internalField   nonuniform List<vector> 
12842
(
(15.4265 2.44392 -2.91742e-18)
(15.426 2.44253 3.59795e-19)
(15.4243 2.44253 9.87673e-20)
(15.4213 2.44343 -2.6582e-19)
(15.4165 2.44575 1.11736e-18)
(15.4097 2.45066 0)
(15.4002 2.45947 0)
(15.387 2.47352 1.15372e-19)
(15.3683 2.4942 -9.58536e-19)
(15.3425 2.52282 -1.03776e-20)
(15.3077 2.56069 -2.73372e-19)
(15.2621 2.60912 2.58057e-21)
(15.2046 2.66936 -5.43498e-20)
(15.1341 2.74235 2.31737e-20)
(15.0505 2.82842 -3.10496e-20)
(14.9544 2.92686 -1.19293e-19)
(14.8475 3.03561 -1.26738e-19)
(14.7326 3.15124 0)
(14.6134 3.26935 1.40237e-20)
(14.4944 3.38525 1.00007e-19)
(14.3799 3.49466 1.46515e-20)
(14.2737 3.59426 -6.76144e-20)
(14.1794 3.68226 5.06692e-20)
(15.4256 2.4445 2.12511e-18)
(15.4248 2.44343 0)
(15.4233 2.4443 1.02495e-18)
(15.4208 2.44582 -6.74275e-19)
(15.4173 2.44875 -8.90985e-19)
(15.413 2.45453 0)
(15.4073 2.46481 1.70329e-18)
(15.399 2.48127 0)
(15.3863 2.50557 1.62653e-18)
(15.3673 2.53918 1.57225e-19)
(15.3398 2.58341 5.30827e-19)
(15.3022 2.63943 5.87683e-19)
(15.2529 2.70826 5.21523e-20)
(15.1911 2.7906 -9.64661e-20)
(15.1165 2.88644 0)
(15.0295 2.9947 1.23034e-19)
(14.9314 3.11282 1.82184e-19)
(14.8243 3.23685 -2.26022e-19)
(14.7116 3.36188 0)
(14.5973 3.48293 -1.27384e-19)
(14.486 3.59546 -1.90352e-19)
(14.3815 3.69681 1.78028e-19)
(14.288 3.78323 -1.81031e-19)
(15.4243 2.4451 0)
(15.4237 2.44457 0)
(15.4225 2.44605 1.0249e-19)
(15.4202 2.44771 3.80393e-18)
(15.4179 2.45067 0)
(15.416 2.45661 0)
(15.414 2.46754 4.0692e-19)
(15.4106 2.48552 -1.74836e-18)
(15.4038 2.51253 -7.48339e-19)
(15.3915 2.55018 -6.40035e-19)
(15.3712 2.59973 -1.03397e-18)
(15.3411 2.6622 -5.74357e-19)
(15.2998 2.7384 -7.03259e-20)
(15.2463 2.82877 1.85614e-19)
(15.1806 2.93311 0)
(15.1027 3.05012 -3.17784e-20)
(15.0135 3.17692 4.07444e-20)
(14.9149 3.30913 1.43107e-19)
(14.8096 3.44139 1.61646e-19)
(14.7014 3.56837 -1.34232e-19)
(14.5949 3.6852 1.39982e-19)
(14.4937 3.78973 0)
(14.4029 3.87619 6.52484e-20)
(15.4229 2.44595 4.69136e-19)
(15.4229 2.44601 3.55433e-19)
(15.4218 2.44787 -1.48074e-18)
(15.4196 2.44936 -5.948e-18)
(15.4184 2.4519 5.73538e-19)
(15.4188 2.45743 -2.32e-18)
(15.4203 2.4683 -1.01468e-19)
(15.4216 2.48701 1.72419e-18)
(15.4208 2.51588 2.87167e-18)
(15.4151 2.55666 -1.58514e-18)
(15.4018 2.6106 2.53784e-18)
(15.379 2.67847 -2.02349e-19)
(15.3452 2.76086 2.6409e-19)
(15.3 2.858 5.6564e-19)
(15.243 2.96959 -2.74988e-20)
(15.1746 3.09421 3.54646e-20)
(15.0951 3.22879 -1.66734e-20)
(15.0059 3.36867 -4.72176e-20)
(14.9092 3.50811 -7.14011e-20)
(14.8085 3.64146 1.06846e-20)
(14.7082 3.76343 -4.61085e-20)
(14.612 3.87234 -5.78657e-20)
(14.5252 3.96036 1.22687e-19)
(15.4214 2.44718 4.21943e-18)
(15.4225 2.4477 0)
(15.4212 2.44982 2.52809e-19)
(15.4188 2.45094 2.06784e-18)
(15.4186 2.45274 1.72558e-19)
(15.421 2.45735 6.34735e-18)
(15.4259 2.46753 3.74738e-19)
(15.432 2.48622 -4.75667e-18)
(15.437 2.51615 -3.22127e-18)
(15.4378 2.55926 2.02122e-18)
(15.4315 2.61676 -2.77777e-18)
(15.4158 2.6892 -1.65402e-18)
(15.3896 2.77686 3.19341e-19)
(15.3525 2.87975 -1.26381e-18)
(15.3047 2.99745 -3.59544e-19)
(15.2463 3.12855 1.72395e-19)
(15.1773 3.26993 0)
(15.0985 3.41679 2.83545e-20)
(15.0116 3.56309 0)
(14.9197 3.70294 5.76744e-20)
(14.8269 3.83058 2.819e-21)
(14.7368 3.94476 3.78794e-20)
(14.6552 4.03555 -2.03637e-20)
(15.4202 2.4488 -3.23071e-18)
(15.4222 2.44959 0)
(15.4206 2.4519 0)
(15.4179 2.45253 3.37109e-18)
(15.4185 2.45336 -2.90457e-18)
(15.4228 2.45665 -3.71623e-18)
(15.4309 2.46557 -6.29039e-18)
(15.4417 2.48353 5.25805e-18)
(15.4524 2.51374 0)
(15.4597 2.55834 2.66531e-18)
(15.4602 2.61857 2.513e-18)
(15.4514 2.6947 8.15631e-19)
(15.4325 2.78666 0)
(15.4037 2.89421 6.95945e-19)
(15.3652 3.01682 3.08841e-19)
(15.3172 3.15316 -1.11674e-19)
(15.2595 3.3002 -2.3619e-20)
(15.1922 3.45317 1.92917e-19)
(15.1164 3.60586 0)
(15.0344 3.75222 1.42546e-20)
(14.9505 3.88594 4.6146e-20)
(14.8676 4.0062 -3.61631e-20)
(14.7925 4.10084 -1.85685e-20)
(15.4192 2.4507 2.84542e-19)
(15.4221 2.45161 0)
(15.4199 2.4541 0)
(15.4167 2.45419 -3.35047e-18)
(15.4179 2.4539 3.39735e-18)
(15.4235 2.45555 -5.37859e-19)
(15.4343 2.46268 3.76656e-18)
(15.4493 2.47916 3.8248e-19)
(15.4656 2.50878 -5.02571e-19)
(15.4793 2.55402 -2.97725e-18)
(15.4868 2.61618 -2.54384e-19)
(15.4853 2.69527 1.69375e-18)
(15.4742 2.79077 0)
(15.4537 2.90207 -9.26481e-19)
(15.4246 3.02851 5.86462e-20)
(15.3874 3.16889 -7.57802e-20)
(15.3414 3.32041 2.09923e-19)
(15.2862 3.47852 -1.09398e-19)
(15.2223 3.63697 -2.03054e-19)
(15.1516 3.78965 -3.745e-20)
(15.0779 3.92963 1.51962e-20)
(15.0036 4.05652 -2.94097e-20)
(14.936 4.15577 -1.4596e-20)
(15.4185 2.45288 0)
(15.4222 2.45377 -1.63945e-19)
(15.4193 2.45635 2.01448e-18)
(15.4158 2.45578 -1.04201e-19)
(15.4176 2.45426 -3.74175e-18)
(15.4246 2.45403 6.85632e-19)
(15.4383 2.45901 -1.2499e-19)
(15.4574 2.47356 -3.37309e-18)
(15.4788 2.50203 0)
(15.4981 2.54716 -3.67685e-18)
(15.5113 2.61037 2.76556e-19)
(15.5158 2.69128 1.0011e-19)
(15.5113 2.78898 0)
(15.4988 2.90245 9.10061e-19)
(15.4794 3.03099 -6.18317e-19)
(15.4535 3.17364 0)
(15.4202 3.32802 -2.07296e-19)
(15.3784 3.49001 0)
(15.3279 3.65342 1.6659e-19)
(15.27 3.81221 0)
(15.208 3.95868 -7.44759e-20)
(15.1439 4.09293 4.92297e-20)
(15.0853 4.19771 6.81708e-20)
(15.4179 2.45516 0)
(15.4222 2.45576 0)
(15.4183 2.45881 -5.40967e-21)
(15.4135 2.45807 -1.6028e-19)
(15.4147 2.45576 4.16281e-18)
(15.4217 2.45395 4.11842e-18)
(15.4368 2.45667 0)
(15.4591 2.46859 3.16659e-18)
(15.4859 2.49475 0)
(15.512 2.53848 7.54692e-18)
(15.5327 2.60169 2.37993e-18)
(15.5445 2.68398 -1.41607e-18)
(15.5465 2.78403 -1.19529e-19)
(15.54 2.90022 0)
(15.527 3.03134 6.55896e-19)
(15.5085 3.17634 4.78046e-19)
(15.4843 3.33305 -4.07583e-20)
(15.4532 3.49777 3.14644e-19)
(15.4143 3.66449 2.85536e-19)
(15.3681 3.82747 0)
(15.3175 3.97828 6.1444e-20)
(15.2634 4.11801 9.74474e-21)
(15.2134 4.22692 -3.85503e-20)
(15.4174 2.45787 6.51818e-20)
(15.4225 2.45787 2.37009e-18)
(15.4176 2.46105 -1.86713e-18)
(15.412 2.45985 0)
(15.4131 2.4566 8.5538e-20)
(15.4203 2.45339 2.10165e-19)
(15.4368 2.45434 -4.26909e-18)
(15.4617 2.46443 0)
(15.4922 2.48915 0)
(15.5226 2.53209 -3.81359e-18)
(15.548 2.5954 -2.53776e-18)
(15.5643 2.67849 -4.77999e-20)
(15.5709 2.77974 1.10804e-18)
(15.5691 2.89714 -3.93413e-20)
(15.5616 3.02924 -9.42801e-20)
(15.55 3.17504 1.11829e-19)
(15.5341 3.33261 -3.29419e-19)
(15.5125 3.49864 -2.95015e-19)
(15.4841 3.66726 -3.22187e-19)
(15.4485 3.83305 -2.55055e-19)
(15.4084 3.98693 7.73496e-20)
(15.3638 4.1308 -3.39897e-19)
(15.3226 4.2431 5.99971e-20)
(15.4172 2.46074 -2.28314e-18)
(15.4229 2.45998 -2.58613e-18)
(15.4168 2.4633 5.74096e-20)
(15.4106 2.46159 2.00412e-18)
(15.4117 2.45733 -1.11907e-19)
(15.4191 2.45267 -4.29505e-18)
(15.4368 2.4518 8.20999e-18)
(15.4641 2.46005 2.26847e-19)
(15.498 2.48339 -1.65292e-19)
(15.5325 2.52568 -4.17699e-18)
(15.5623 2.58921 8.21343e-20)
(15.583 2.67318 -1.82772e-18)
(15.5939 2.77552 -9.89961e-19)
(15.597 2.89382 0)
(15.5951 3.02637 8.07675e-19)
(15.5905 3.17225 -1.07768e-18)
(15.5832 3.32982 -9.49484e-20)
(15.5717 3.49626 3.34029e-19)
(15.5546 3.66583 -4.06374e-21)
(15.5309 3.83359 3.23776e-19)
(15.5028 3.98974 0)
(15.4691 4.13707 1.08716e-19)
(15.4383 4.25232 0)
(15.4173 2.46367 3.0166e-18)
(15.4232 2.46203 -2.8069e-18)
(15.4161 2.46553 9.55811e-20)
(15.4094 2.46332 -3.91376e-18)
(15.4103 2.45807 2.32013e-18)
(15.4178 2.45199 -1.20599e-19)
(15.4367 2.44928 -4.2351e-18)
(15.4661 2.45565 6.56286e-20)
(15.5033 2.47756 -1.84271e-19)
(15.5416 2.51916 4.31469e-18)
(15.5758 2.58289 0)
(15.6008 2.6677 1.67132e-18)
(15.6162 2.77107 1.00999e-19)
(15.624 2.89008 -4.20977e-20)
(15.6278 3.0227 -8.3638e-19)
(15.6303 3.16808 -8.93542e-21)
(15.6319 3.32486 3.09295e-19)
(15.6311 3.49077 -5.66022e-19)
(15.626 3.66024 0)
(15.6152 3.82886 -2.52913e-19)
(15.6004 3.98625 3.36813e-19)
(15.5792 4.13602 0)
(15.5601 4.25346 -1.88151e-19)
(15.4176 2.46661 -8.64429e-19)
(15.4235 2.46401 -9.6017e-20)
(15.4154 2.46773 9.42284e-20)
(15.4083 2.46507 1.89221e-18)
(15.409 2.45885 -4.54597e-18)
(15.4164 2.45141 1.57795e-20)
(15.4364 2.44686 6.07082e-20)
(15.4678 2.45129 4.01814e-18)
(15.5081 2.4717 -8.96685e-20)
(15.5502 2.5125 0)
(15.5886 2.57633 2.94665e-18)
(15.6178 2.66188 5.84895e-20)
(15.6376 2.76614 3.39973e-20)
(15.6501 2.88567 -3.7778e-22)
(15.6596 3.01803 -8.82326e-20)
(15.6693 3.16237 6.31618e-19)
(15.68 3.31759 -3.79825e-19)
(15.6903 3.48197 -6.81944e-20)
(15.6981 3.65013 -1.29738e-19)
(15.7013 3.81833 3.56217e-19)
(15.701 3.97558 -2.43986e-19)
(15.6936 4.1265 5.18884e-19)
(15.6875 4.24509 -3.35991e-19)
(15.418 2.46951 -7.05376e-19)
(15.4238 2.4659 2.82921e-18)
(15.4148 2.46988 8.24483e-21)
(15.4072 2.4668 1.99887e-18)
(15.4076 2.45966 4.61032e-18)
(15.415 2.45089 -1.57499e-20)
(15.4359 2.4445 -6.23543e-20)
(15.4692 2.44697 1.11905e-19)
(15.5125 2.46579 -3.24014e-18)
(15.5582 2.50569 2.36213e-18)
(15.6007 2.56952 -3.09118e-18)
(15.6341 2.65568 -1.87476e-18)
(15.6582 2.76071 1.19035e-18)
(15.6754 2.88056 0)
(15.6905 3.0123 5.07351e-19)
(15.7074 3.15503 0)
(15.7274 3.30783 5.06374e-19)
(15.7493 3.46956 3.22317e-19)
(15.7706 3.63503 -8.41717e-21)
(15.7886 3.80126 -4.20514e-19)
(15.8038 3.95669 -1.19819e-20)
(15.8115 4.10707 5.95397e-21)
(15.8196 4.2254 -1.48479e-19)
(15.4186 2.47237 4.58364e-20)
(15.4241 2.46769 1.9943e-20)
(15.4142 2.472 -7.60839e-21)
(15.4062 2.46853 -2.0017e-18)
(15.4062 2.46053 -2.29631e-18)
(15.4136 2.45048 0)
(15.4353 2.44223 4.39495e-20)
(15.4703 2.44268 -4.13442e-18)
(15.5164 2.45982 -8.67064e-20)
(15.5656 2.49869 -2.3676e-18)
(15.6122 2.56238 1.64261e-18)
(15.6498 2.64906 2.94054e-18)
(15.6782 2.75473 -1.15636e-18)
(15.7001 2.87473 7.37191e-19)
(15.7207 3.00551 5.86045e-20)
(15.7448 3.14602 5.84626e-21)
(15.7742 3.29546 -2.82276e-20)
(15.808 3.45327 -1.07336e-19)
(15.8433 3.6144 7.43786e-20)
(15.8768 3.77681 -1.41995e-19)
(15.9084 3.92837 -1.45591e-20)
(15.9322 4.07607 1.19627e-19)
(15.9553 4.19233 0)
(15.4193 2.47514 5.22077e-20)
(15.4242 2.46939 0)
(15.4137 2.47406 0)
(15.4053 2.47023 -1.99586e-18)
(15.4049 2.46143 -2.34748e-18)
(15.4121 2.45014 2.47146e-18)
(15.4345 2.44002 3.25099e-20)
(15.4711 2.43841 -3.72054e-20)
(15.52 2.45378 3.38662e-18)
(15.5725 2.49151 -3.82785e-20)
(15.6232 2.55494 9.30792e-20)
(15.665 2.64202 -1.00282e-18)
(15.6978 2.74823 0)
(15.7242 2.86821 -7.88738e-19)
(15.7503 2.99767 -1.09353e-18)
(15.7816 3.13531 -4.32596e-19)
(15.8205 3.28033 -2.71267e-19)
(15.8661 3.43276 0)
(15.9157 3.5877 0)
(15.9651 3.74411 2.43472e-19)
(16.0136 3.88935 1.77931e-19)
(16.054 4.03181 -3.72521e-19)
(16.0928 4.14373 0)
(15.4199 2.47781 3.36824e-19)
(15.4243 2.471 9.33573e-21)
(15.4133 2.47606 -3.10574e-21)
(15.4045 2.47191 1.9859e-18)
(15.4036 2.46235 4.65694e-18)
(15.4106 2.44985 -4.9355e-18)
(15.4336 2.43787 -3.30597e-20)
(15.4716 2.43414 -3.80746e-20)
(15.5232 2.44764 5.00842e-20)
(15.5791 2.48409 0)
(15.6339 2.54715 -1.64194e-18)
(15.6798 2.63453 1.06333e-18)
(15.7171 2.74119 0)
(15.7481 2.86099 0)
(15.7796 2.98878 5.21944e-19)
(15.8179 3.12284 3.55857e-20)
(15.866 3.26227 3.09148e-19)
(15.9235 3.4077 2.4872e-19)
(15.9873 3.55427 -3.80776e-19)
(16.0525 3.7022 -1.49262e-19)
(16.1178 3.83828 6.05688e-19)
(16.1747 3.97247 -5.86974e-19)
(16.2293 4.0774 3.96035e-19)
(15.4206 2.48037 -9.88791e-20)
(15.4244 2.47252 1.28207e-18)
(15.4129 2.478 9.2117e-21)
(15.4037 2.47357 -1.21928e-20)
(15.4023 2.46331 -2.34592e-18)
(15.4091 2.44964 2.51274e-18)
(15.4325 2.43578 -2.33833e-20)
(15.4719 2.42985 -8.08671e-21)
(15.526 2.44136 5.1168e-20)
(15.5853 2.47639 2.01411e-20)
(15.6442 2.53894 -2.64382e-20)
(15.6944 2.62653 -1.06507e-18)
(15.7363 2.73355 7.02654e-19)
(15.7718 2.85303 -2.7197e-20)
(15.8086 2.97879 0)
(15.8535 3.10853 -4.01444e-20)
(15.9105 3.2411 3.8767e-20)
(15.9793 3.37772 -2.5139e-19)
(16.0568 3.51358 4.80201e-19)
(16.1372 3.65028 3.04018e-19)
(16.2187 3.77411 -2.12041e-19)
(16.2915 3.89671 -3.42185e-19)
(16.3611 3.99168 4.46129e-19)
(15.4213 2.4828 1.83516e-20)
(15.4244 2.47397 -1.28921e-18)
(15.4126 2.47988 0)
(15.4029 2.47522 0)
(15.401 2.46431 0)
(15.4075 2.44948 0)
(15.4313 2.43373 2.37904e-20)
(15.472 2.42553 -1.15017e-20)
(15.5286 2.43493 -2.61062e-20)
(15.5911 2.46839 2.06274e-20)
(15.6543 2.53028 -2.70818e-20)
(15.7089 2.61796 0)
(15.7553 2.72526 -1.383e-18)
(15.7954 2.8443 2.8149e-20)
(15.8371 2.96766 -5.71419e-20)
(15.8883 3.09231 4.94494e-19)
(15.9534 3.21668 -3.99637e-20)
(16.0327 3.34258 7.43683e-20)
(16.1227 3.46516 -9.04569e-20)
(16.2171 3.58768 1.6369e-19)
(16.3133 3.69587 -2.46293e-19)
(16.4 3.8034 0)
(16.4831 3.88491 2.67904e-19)
(15.4219 2.48515 1.2075e-19)
(15.4243 2.47536 -5.88499e-19)
(15.4124 2.4817 -5.72337e-21)
(15.4022 2.47685 1.00586e-18)
(15.3997 2.46535 1.1752e-18)
(15.4059 2.44941 1.30564e-20)
(15.4299 2.43175 -2.60447e-18)
(15.4717 2.42119 2.3237e-18)
(15.5307 2.42834 1.83874e-18)
(15.5965 2.46004 0)
(15.664 2.5211 2.74495e-20)
(15.7232 2.60874 -1.18641e-18)
(15.7743 2.71624 7.22567e-19)
(15.8189 2.83474 4.24236e-19)
(15.8653 2.95537 3.05633e-19)
(15.9218 3.07417 0)
(15.994 3.18895 0)
(16.0825 3.30217 -2.76179e-19)
(16.1834 3.40903 -3.31608e-19)
(16.2897 3.5146 1.72018e-19)
(16.3983 3.60451 1.34275e-19)
(16.4965 3.69378 1.83188e-19)
(16.5908 3.75995 -2.6971e-19)
(15.4225 2.48735 -5.452e-20)
(15.4243 2.47669 5.90667e-19)
(15.4123 2.48346 -4.59731e-21)
(15.4015 2.47844 7.007e-21)
(15.3984 2.46637 -1.17546e-18)
(15.4043 2.44929 -1.28329e-18)
(15.4286 2.42969 1.25823e-18)
(15.4714 2.41668 -2.30359e-18)
(15.5328 2.42147 -1.83432e-18)
(15.6018 2.45127 -4.09463e-20)
(15.6737 2.51139 0)
(15.7374 2.59889 1.15111e-18)
(15.7933 2.70652 7.31318e-19)
(15.8422 2.82438 -4.5347e-19)
(15.8927 2.94197 -2.64832e-19)
(15.9538 3.05419 -1.14799e-19)
(16.0319 3.15818 -9.04692e-20)
(16.1276 3.25698 5.43953e-19)
(16.2371 3.34602 0)
(16.3523 3.43199 0)
(16.4698 3.50146 1.3317e-19)
(16.5761 3.56945 -3.47553e-19)
(16.6782 3.61822 -2.64558e-19)
(15.4231 2.48941 6.1737e-20)
(15.4243 2.47802 0)
(15.4121 2.48521 0)
(15.4008 2.48019 -2.01575e-18)
(15.397 2.46769 1.16915e-18)
(15.4022 2.44962 1.31333e-18)
(15.4264 2.42809 -1.76899e-20)
(15.47 2.41248 1.16998e-18)
(15.5337 2.41455 4.35817e-20)
(15.6062 2.44205 -1.43026e-18)
(15.6828 2.50084 2.88086e-20)
(15.7516 2.58798 -3.78616e-20)
(15.8127 2.69569 -7.3078e-19)
(15.866 2.81293 4.59805e-19)
(15.9201 2.9274 2.80378e-19)
(15.9845 3.03259 -2.1856e-19)
(16.0663 3.12477 2.08364e-19)
(16.1666 3.20752 -2.68048e-19)
(16.2813 3.27697 0)
(16.4017 3.34112 0)
(16.5238 3.38858 -1.20131e-19)
(16.6342 3.43331 8.57777e-20)
(16.7397 3.46318 -2.54679e-19)
(15.4236 2.49129 1.15525e-20)
(15.4242 2.47906 -5.45101e-19)
(15.4123 2.48658 0)
(15.4004 2.48113 5.02407e-19)
(15.3965 2.46786 -2.3706e-18)
(15.4018 2.44842 1.35118e-20)
(15.4266 2.42492 -4.11101e-20)
(15.4714 2.40696 -1.21145e-18)
(15.5374 2.40699 2.81672e-20)
(15.6125 2.43279 1.43083e-18)
(15.6928 2.49061 -2.97615e-20)
(15.7657 2.57744 -6.00803e-19)
(15.8311 2.68499 -4.66286e-20)
(15.8879 2.80133 -4.27735e-19)
(15.9448 2.91226 -3.17597e-19)
(16.0113 3.00979 3.26692e-20)
(16.0951 3.08927 0)
(16.1975 3.1548 -3.5858e-20)
(16.3141 3.20362 4.64648e-20)
(16.4358 3.24478 0)
(16.5579 3.26952 1.11985e-19)
(16.6679 3.29062 -8.34622e-20)
(16.7723 3.30139 0)
(15.4241 2.49318 -7.3336e-20)
(15.4241 2.48088 5.43523e-19)
(15.4118 2.48908 0)
(15.3992 2.48462 5.04173e-19)
(15.3943 2.4718 2.38143e-18)
(15.3983 2.45224 1.33389e-18)
(15.4223 2.42684 2.7128e-18)
(15.4676 2.40537 0)
(15.5358 2.40081 2.01963e-18)
(15.615 2.42221 -1.46698e-18)
(15.7009 2.47719 9.87507e-19)
(15.7798 2.56287 6.17414e-19)
(15.8514 2.67064 -5.61856e-21)
(15.9129 2.78734 7.34893e-21)
(15.9722 2.89643 -2.82126e-19)
(16.0384 2.98753 2.02429e-19)
(16.1205 3.05449 0)
(16.2205 3.10175 1.14378e-19)
(16.334 3.12839 0)
(16.4515 3.14469 0)
(16.5681 3.14546 -1.08799e-19)
(16.6729 3.14286 -2.32135e-19)
(16.7711 3.13489 2.015e-19)
(15.4242 2.49453 0)
(15.4239 2.4819 -1.67772e-23)
(15.4117 2.49035 5.9112e-23)
(15.3988 2.48619 -5.14398e-19)
(15.3936 2.4735 -5.87771e-19)
(15.3973 2.45372 -1.33322e-18)
(15.4212 2.42731 -1.36724e-18)
(15.4669 2.40395 -1.38879e-21)
(15.5365 2.3968 -9.85395e-19)
(15.618 2.41538 -3.35136e-20)
(15.7075 2.46808 2.40002e-20)
(15.7909 2.55227 0)
(15.8673 2.65937 5.63503e-21)
(15.9329 2.77544 -7.36334e-21)
(15.9943 2.88201 4.08074e-19)
(16.06 2.96647 1.14934e-20)
(16.139 3.02112 0)
(16.2339 3.05051 2.05362e-20)
(16.3406 3.05587 -3.9505e-20)
(16.4496 3.04871 0)
(16.5561 3.02753 0)
(16.6516 3.00409 1.35908e-19)
(16.7391 2.97946 -9.78519e-20)
(15.4245 2.49585 -1.58221e-19)
(15.4238 2.48285 5.34392e-19)
(15.4116 2.49153 0)
(15.3984 2.48761 5.14807e-19)
(15.3928 2.47497 -6.09244e-19)
(15.3963 2.45491 -1.39496e-18)
(15.4201 2.42749 1.43383e-18)
(15.4662 2.40231 -1.28962e-18)
(15.5372 2.39274 -1.0337e-18)
(15.6211 2.40869 2.27068e-18)
(15.7143 2.45918 -1.01149e-18)
(15.8021 2.5419 -6.53028e-19)
(15.8836 2.64831 -3.9272e-19)
(15.9532 2.76385 0)
(16.0161 2.86829 -1.35627e-19)
(16.0795 2.94684 1.66086e-19)
(16.1525 2.99032 8.69533e-21)
(16.2384 3.00347 -1.1382e-19)
(16.3339 2.99011 0)
(16.4302 2.96283 0)
(16.5229 2.92317 0)
(16.6055 2.88299 -1.81947e-19)
(16.6791 2.84514 1.64045e-19)
(15.4248 2.49712 1.58381e-19)
(15.4237 2.48379 7.81118e-21)
(15.4116 2.49266 0)
(15.398 2.48898 -5.42726e-19)
(15.3922 2.4764 -6.30573e-23)
(15.3952 2.45605 2.11387e-18)
(15.4189 2.42762 -2.90799e-18)
(15.4655 2.40062 3.93751e-18)
(15.5377 2.38863 -1.11331e-21)
(15.624 2.40192 -7.67123e-19)
(15.721 2.45015 -5.32621e-19)
(15.8136 2.53131 6.53415e-19)
(15.9003 2.63701 3.87282e-19)
(15.9739 2.75229 -2.24131e-19)
(16.0377 2.85534 1.9459e-21)
(16.0973 2.92926 -1.67802e-19)
(16.1616 2.96337 0)
(16.235 2.96262 0)
(16.3158 2.9334 5.82845e-20)
(16.3958 2.88902 0)
(16.4719 2.83398 0)
(16.5399 2.78153 2.83535e-20)
(16.5988 2.73472 6.41217e-20)
(15.4251 2.49835 0)
(15.4236 2.48469 -5.43239e-19)
(15.4115 2.49377 1.30824e-23)
(15.3977 2.49034 -1.88731e-20)
(15.3915 2.47784 -5.58909e-23)
(15.3943 2.4572 -1.45682e-18)
(15.4178 2.42777 1.4741e-18)
(15.4647 2.39895 -2.64824e-18)
(15.5382 2.38449 -1.10943e-18)
(15.6268 2.39504 0)
(15.7275 2.44089 5.29908e-19)
(15.825 2.52037 1.28956e-21)
(15.9169 2.62534 -9.55012e-23)
(15.9947 2.74067 2.22658e-19)
(16.0588 2.84326 0)
(16.1133 2.91424 6.77115e-20)
(16.1667 2.94132 -1.44038e-21)
(16.2248 2.92932 0)
(16.2876 2.88686 -5.79626e-20)
(16.3491 2.82836 0)
(16.4081 2.76219 0)
(16.4623 2.70286 0)
(16.5067 2.65096 -6.69657e-21)
(15.4254 2.49954 0)
(15.4235 2.48558 2.8754e-19)
(15.4115 2.49486 -2.62238e-24)
(15.3974 2.49169 5.62473e-19)
(15.3909 2.47928 6.87399e-19)
(15.3933 2.45839 1.49853e-18)
(15.4166 2.42797 0)
(15.4638 2.39731 -1.38336e-18)
(15.5385 2.38035 2.24034e-18)
(15.6294 2.38805 -5.56189e-24)
(15.7338 2.43137 5.50052e-19)
(15.8361 2.50902 -3.45279e-19)
(15.9334 2.61324 0)
(16.0153 2.72898 0)
(16.0797 2.83221 1.13542e-19)
(16.1282 2.90226 -6.63708e-20)
(16.1686 2.92499 0)
(16.2088 2.9046 -4.04234e-20)
(16.251 2.85188 -3.04156e-20)
(16.2931 2.78347 0)
(16.3366 2.71094 7.04791e-22)
(16.3771 2.64779 9.32922e-23)
(16.4063 2.59225 -2.49325e-20)
(15.4258 2.50068 1.65857e-24)
(15.4234 2.48645 -5.85239e-19)
(15.4115 2.49593 -6.52622e-24)
(15.3971 2.49304 0)
(15.3904 2.48074 2.06519e-20)
(15.3924 2.45961 -1.53809e-18)
(15.4154 2.42823 -3.25707e-22)
(15.4628 2.39571 1.38375e-18)
(15.5386 2.3762 -1.1305e-18)
(15.6318 2.38097 8.33449e-19)
(15.7399 2.42161 8.18758e-21)
(15.8471 2.49727 6.96023e-19)
(15.9497 2.60067 -4.09257e-19)
(16.0362 2.7172 9.34576e-22)
(16.1007 2.82228 -2.21091e-19)
(16.1426 2.89367 4.90737e-20)
(16.1685 2.91511 -1.69982e-21)
(16.1884 2.88989 4.1508e-20)
(16.2085 2.83106 3.00184e-20)
(16.2313 2.75659 0)
(16.259 2.67884 8.8335e-21)
(16.284 2.61088 0)
(16.2991 2.55227 -2.87094e-21)
(15.4261 2.50178 0)
(15.4234 2.48729 2.97694e-19)
(15.4115 2.49697 2.43456e-19)
(15.3968 2.49438 2.98573e-23)
(15.3898 2.48221 -1.43731e-18)
(15.3914 2.46087 7.79045e-19)
(15.4142 2.42854 0)
(15.4617 2.39417 0)
(15.5385 2.37204 -6.00375e-22)
(15.634 2.37378 -8.32836e-19)
(15.7457 2.41158 7.80688e-21)
(15.8579 2.48508 -3.50296e-19)
(15.9661 2.58761 4.07187e-19)
(16.0573 2.7053 0)
(16.1223 2.81351 1.06851e-19)
(16.1574 2.88875 -4.7275e-20)
(16.1677 2.91258 8.17956e-21)
(16.1657 2.88718 8.92798e-22)
(16.1623 2.82629 0)
(16.1636 2.74587 0)
(16.1722 2.65965 -6.01269e-21)
(16.1819 2.58535 -4.51432e-21)
(16.187 2.52422 9.75464e-21)
(15.4265 2.50284 0)
(15.4233 2.48811 -1.06681e-23)
(15.4115 2.49799 -2.43628e-19)
(15.3966 2.49571 3.20066e-19)
(15.3892 2.4837 7.28574e-19)
(15.3905 2.46217 1.63965e-22)
(15.4129 2.42891 8.19219e-19)
(15.4605 2.39268 7.2673e-19)
(15.5383 2.3679 -1.18168e-18)
(15.636 2.36649 0)
(15.7513 2.40129 7.93796e-21)
(15.8686 2.47244 -3.62128e-19)
(15.9825 2.57399 0)
(16.0791 2.6932 -2.81494e-21)
(16.1451 2.80587 9.85998e-20)
(16.1737 2.88778 0)
(16.1679 2.91839 -1.17241e-20)
(16.1429 2.8978 1.32772e-21)
(16.1127 2.83688 -2.44088e-20)
(16.0868 2.748 0)
(16.0739 2.65139 0)
(16.0709 2.57179 1.01244e-21)
(16.066 2.50741 2.46859e-21)
(15.4268 2.50384 -3.72456e-24)
(15.4232 2.48891 4.91823e-24)
(15.4116 2.49899 0)
(15.3963 2.49703 3.36799e-19)
(15.3887 2.48519 -4.04666e-22)
(15.3895 2.4635 3.34694e-22)
(15.4116 2.42933 -8.19213e-19)
(15.4592 2.39124 -7.2776e-19)
(15.5379 2.36376 1.1822e-18)
(15.6377 2.3591 -8.69048e-19)
(15.7566 2.39073 -5.75669e-19)
(15.8791 2.45934 3.64601e-19)
(15.999 2.55975 2.08678e-19)
(16.1015 2.68078 1.07992e-19)
(16.1694 2.79922 -9.29786e-20)
(16.1926 2.89088 2.37119e-21)
(16.1712 2.9331 5.82388e-21)
(16.1213 2.9217 2.1035e-20)
(16.059 2.86221 5.24282e-22)
(16.001 2.76649 -1.15289e-20)
(15.966 2.6637 1.45907e-20)
(15.9474 2.5811 0)
(15.9271 2.51289 -9.02087e-21)
(15.4272 2.50481 0)
(15.4232 2.48969 3.34306e-19)
(15.4116 2.49996 2.68588e-19)
(15.3961 2.49835 -3.20908e-19)
(15.3881 2.4867 3.90233e-19)
(15.3885 2.46488 0)
(15.4102 2.42982 9.82267e-22)
(15.4578 2.38987 -1.29231e-21)
(15.5374 2.35963 6.06608e-19)
(15.6392 2.35163 1.3131e-18)
(15.7616 2.3799 -5.88766e-19)
(15.8894 2.44574 -2.94077e-21)
(16.0155 2.54484 4.08252e-21)
(16.1247 2.66787 -1.10542e-19)
(16.1959 2.79336 0)
(16.2155 2.89787 6.44509e-21)
(16.1794 2.95638 2.9183e-20)
(16.1024 2.9588 -2.41503e-20)
(16.004 2.90676 -2.60428e-20)
(15.9134 2.81438 -1.78811e-21)
(15.854 2.71461 2.56621e-20)
(15.8122 2.6329 -2.05969e-20)
(15.7738 2.56334 -1.50438e-20)
(15.4275 2.50572 -4.74498e-20)
(15.4232 2.49045 7.66676e-21)
(15.4116 2.50091 -2.6879e-19)
(15.3959 2.49966 -3.36498e-19)
(15.3876 2.48823 -7.88721e-19)
(15.3875 2.46629 -8.55774e-19)
(15.4088 2.43037 -9.96117e-22)
(15.4564 2.38855 1.3105e-21)
(15.5367 2.35552 -6.06878e-19)
(15.6406 2.34406 -4.4223e-19)
(15.7664 2.3688 1.19193e-18)
(15.8996 2.43164 -3.84697e-19)
(16.032 2.52916 -2.15791e-19)
(16.1489 2.65429 1.1358e-19)
(16.2249 2.7879 -1.15821e-21)
(16.2434 2.9081 -6.84651e-21)
(16.1944 2.98759 -3.33801e-20)
(16.0901 3.01138 7.35652e-20)
(15.9567 2.98001 1.54449e-20)
(15.8351 2.90576 0)
(15.7456 2.81712 -4.00635e-20)
(15.6731 2.73807 3.94457e-20)
(15.609 2.66354 -4.95743e-20)
(15.4279 2.50659 4.748e-20)
(15.4231 2.49118 -5.17175e-19)
(15.4117 2.50183 -2.83119e-19)
(15.3957 2.50096 3.51976e-19)
(15.3871 2.48976 3.98375e-19)
(15.3865 2.46774 8.56034e-19)
(15.4073 2.43098 8.69833e-19)
(15.4548 2.3873 0)
(15.5358 2.35143 6.23616e-19)
(15.6417 2.33642 -4.56942e-19)
(15.771 2.35742 -6.00928e-19)
(15.9096 2.41702 3.84543e-19)
(16.0487 2.51262 0)
(16.1741 2.63978 -1.08104e-19)
(16.257 2.78226 3.3088e-20)
(16.2775 2.92053 5.61975e-21)
(16.219 3.02643 -1.812e-20)
(16.0916 3.08329 -2.77902e-20)
(15.9285 3.08895 1.17037e-19)
(15.7743 3.04236 -7.38471e-20)
(15.6426 2.96471 0)
(15.5246 2.88145 1.30465e-19)
(15.4131 2.79061 -1.93124e-19)
(15.4282 2.50742 0)
(15.4231 2.49189 1.74884e-19)
(15.4117 2.50273 2.83186e-19)
(15.3955 2.50225 -3.52263e-19)
(15.3866 2.49131 -1.07873e-22)
(15.3856 2.46923 3.59313e-22)
(15.4059 2.43166 -4.28776e-19)
(15.4532 2.38612 0)
(15.5348 2.34737 -6.23891e-19)
(15.6426 2.3287 -7.85776e-21)
(15.7752 2.34576 0)
(15.9194 2.40185 -2.01635e-19)
(16.0653 2.49515 0)
(16.2004 2.62406 5.32841e-21)
(16.2925 2.77572 -8.52872e-20)
(16.3189 2.93401 -7.27939e-21)
(16.2571 3.07284 -2.26187e-20)
(16.115 3.17605 1.09005e-19)
(15.9265 3.22966 -5.84671e-20)
(15.7285 3.21031 -1.12889e-19)
(15.534 3.13921 1.85116e-19)
(15.3501 3.04896 -1.5739e-19)
(15.1755 2.94764 5.24915e-19)
(15.4285 2.5082 4.2856e-20)
(15.423 2.49257 1.81712e-19)
(15.4118 2.50361 -1.48562e-19)
(15.3953 2.50352 -1.98345e-22)
(15.3861 2.49286 4.4431e-22)
(15.3846 2.47076 -9.29218e-22)
(15.4044 2.4324 -4.41289e-19)
(15.4515 2.38501 3.10987e-21)
(15.5336 2.34333 -2.28645e-21)
(15.6434 2.32091 -8.09752e-21)
(15.7791 2.33384 -3.16906e-19)
(15.929 2.38612 1.95614e-19)
(16.0818 2.47663 7.72329e-21)
(16.2277 2.60678 -5.44707e-21)
(16.3314 2.76744 4.68035e-20)
(16.369 2.94726 0)
(16.3127 3.12554 -3.81913e-20)
(16.1655 3.28465 -7.91699e-20)
(15.9505 3.38854 9.31541e-20)
(15.6931 3.39801 -2.61436e-19)
(15.424 3.35131 1.36729e-19)
(15.1799 3.28955 -3.6791e-20)
(14.9655 3.22565 -3.65235e-19)
(15.4289 2.50894 -8.41175e-20)
(15.423 2.49323 -1.81818e-19)
(15.4119 2.50446 -3.52315e-21)
(15.3951 2.50479 0)
(15.3856 2.49443 0)
(15.3836 2.47232 -4.56068e-19)
(15.4029 2.43321 -4.53333e-19)
(15.4497 2.38398 0)
(15.5323 2.33934 -2.71249e-21)
(15.6438 2.31306 4.76867e-19)
(15.7827 2.32165 3.21949e-19)
(15.9382 2.36982 -6.51956e-21)
(16.0983 2.45698 -6.67411e-21)
(16.2559 2.58758 1.42847e-20)
(16.3741 2.75651 -7.30363e-21)
(16.4288 2.95865 0)
(16.3881 3.18061 4.90521e-20)
(16.244 3.39817 -2.41429e-20)
(16.0014 3.55377 2.92885e-19)
(15.6895 3.61943 -1.39922e-19)
(15.3779 3.66275 -2.49414e-19)
(15.1276 3.70972 3.78698e-19)
(14.9186 3.74743 0)
(15.4292 2.50963 8.09437e-20)
(15.423 2.49387 1.1956e-23)
(15.4119 2.50529 1.52298e-19)
(15.395 2.50605 0)
(15.3852 2.49601 0)
(15.3827 2.47393 -6.22473e-21)
(15.4013 2.43409 9.12397e-19)
(15.4479 2.38302 0)
(15.5309 2.33539 3.30214e-19)
(15.6441 2.30516 0)
(15.786 2.30919 0)
(15.9471 2.35294 -6.28472e-21)
(16.1145 2.4361 8.14414e-21)
(16.2848 2.56611 6.06924e-20)
(16.4204 2.74199 7.69744e-21)
(16.4988 2.96594 1.08444e-20)
(16.4834 3.23142 -5.53257e-20)
(16.3504 3.50445 0)
(16.0954 3.72418 -9.92523e-20)
(15.7797 3.90535 0)
(15.5057 4.12489 -7.2292e-20)
(15.3052 4.34452 -9.24878e-20)
(15.1003 4.50129 0)
(15.4295 2.51027 -5.88352e-20)
(15.423 2.49448 -9.572e-20)
(15.412 2.50609 0)
(15.3948 2.5073 1.95227e-19)
(15.3847 2.49759 -2.21933e-19)
(15.3817 2.47558 4.63268e-19)
(15.3998 2.43503 -4.59823e-19)
(15.4459 2.38215 -4.14051e-19)
(15.5292 2.33148 -3.27968e-19)
(15.6441 2.29722 -3.92442e-21)
(15.7888 2.29647 5.11508e-21)
(15.9556 2.33546 2.22627e-19)
(16.1305 2.4139 7.19214e-21)
(16.3142 2.54203 -8.22404e-20)
(16.47 2.72289 8.23996e-21)
(16.5782 2.9661 0)
(16.5969 3.27002 0)
(16.4886 3.59434 0)
(16.2648 3.90286 0)
(16.0317 4.25874 5.0323e-20)
(15.8644 4.68931 3.59207e-19)
(15.7004 5.06129 -3.394e-19)
(15.427 5.28423 0)
(15.4298 2.51087 1.91339e-20)
(15.423 2.49507 1.9305e-19)
(15.4121 2.50687 0)
(15.3947 2.50854 -1.95434e-19)
(15.3843 2.49919 4.4813e-19)
(15.3808 2.47726 0)
(15.3982 2.43605 0)
(15.4439 2.38136 4.12414e-19)
(15.5274 2.32763 0)
(15.6438 2.28924 -2.4941e-19)
(15.7913 2.28351 -1.75111e-19)
(15.9636 2.3174 -1.08507e-19)
(16.146 2.39035 1.34363e-19)
(16.3437 2.51503 0)
(16.5224 2.69817 0)
(16.6655 2.95574 -9.95575e-21)
(16.7264 3.28912 1.26769e-20)
(16.6664 3.66173 0)
(16.5386 4.08233 5.80597e-20)
(16.4626 4.62672 -4.8448e-20)
(16.3979 5.21846 -3.50465e-19)
(16.1785 5.65396 4.12645e-19)
(15.7339 5.86161 0)
(15.4301 2.51143 9.64738e-24)
(15.4229 2.49564 -1.9621e-19)
(15.4122 2.50763 -6.0105e-23)
(15.3946 2.50977 -1.01383e-19)
(15.3839 2.5008 -2.262e-19)
(15.3799 2.47898 2.41423e-19)
(15.3966 2.43714 7.97424e-22)
(15.4419 2.38066 -2.13619e-19)
(15.5254 2.32383 3.49316e-19)
(15.6433 2.28123 2.49705e-19)
(15.7933 2.27031 1.69937e-19)
(15.9711 2.29874 -1.14057e-19)
(16.161 2.36539 -1.34289e-19)
(16.3729 2.48486 -7.64214e-21)
(16.5767 2.66683 9.81971e-21)
(16.758 2.9317 -8.15013e-21)
(16.8699 3.28327 1.03448e-20)
(16.8901 3.70054 0)
(16.9203 4.23592 -5.65874e-20)
(17.0216 4.92427 0)
(16.9811 5.57743 3.81632e-20)
(16.5857 5.98272 0)
(15.8874 6.11707 1.9115e-20)
(15.4304 2.51194 -8.7076e-21)
(15.4229 2.49618 9.8871e-20)
(15.4123 2.50836 8.54481e-20)
(15.3945 2.51099 -1.66174e-21)
(15.3835 2.50241 -3.73529e-22)
(15.3789 2.48074 4.02675e-21)
(15.395 2.4383 -2.4197e-19)
(15.4397 2.38005 -4.19256e-21)
(15.5233 2.32011 -3.44112e-19)
(15.6425 2.2732 -4.12658e-21)
(15.795 2.25689 1.80965e-19)
(15.978 2.27951 0)
(16.1753 2.33902 -8.24209e-21)
(16.4012 2.45132 1.06165e-20)
(16.6316 2.62803 2.03499e-20)
(16.8531 2.89159 0)
(17.0251 3.24893 0)
(17.1582 3.70158 2.11537e-20)
(17.3819 4.32513 0)
(17.6223 5.07806 -2.14902e-19)
(17.4938 5.69588 2.26289e-19)
(16.8204 6.01057 -2.51745e-20)
(15.8231 6.05048 -6.6477e-19)
(15.4307 2.5124 1.7194e-20)
(15.4229 2.4967 -5.10082e-20)
(15.4124 2.50907 -1.29101e-19)
(15.3944 2.51219 1.03897e-19)
(15.3831 2.50403 1.18357e-19)
(15.378 2.48254 -3.70123e-19)
(15.3933 2.43954 2.42379e-19)
(15.4374 2.37954 2.12714e-19)
(15.5209 2.31645 5.49283e-21)
(15.6414 2.26517 -3.89204e-21)
(15.7961 2.24326 -1.75623e-19)
(15.9842 2.2597 -6.12495e-20)
(16.1888 2.31129 6.65468e-20)
(16.4281 2.41429 5.49695e-20)
(16.6856 2.58119 -2.03039e-20)
(16.9475 2.83402 0)
(17.1879 3.18355 0)
(17.4576 3.65307 4.99904e-20)
(17.8758 4.31656 -6.74946e-20)
(18.1804 5.05017 0)
(17.8571 5.5684 3.39953e-20)