/*--------------------------------*- C++ -*----------------------------------*\
  =========                 |
  \\      /  F ield         | OpenFOAM: The Open Source CFD Toolbox
   \\    /   O peration     | Website:  https://openfoam.org
    \\  /    A nd           | Version:  7
     \\/     M anipulation  |
\*---------------------------------------------------------------------------*/
FoamFile
{
    version     2.0;
    format      ascii;
    class       volScalarField;
    location    "50";
    object      yPlus;
}
// * * * * * * * * * * * * * * * * * * * * * * * * * * * * * * * * * * * * * //

dimensions      [0 0 0 0 0 0 0];

internalField   uniform 0;

boundaryField
{
    inlet
    {
        type            calculated;
        value           uniform 0;
    }
    outlet
    {
        type            calculated;
        value           uniform 0;
    }
    suction_side
    {
        type            calculated;
        value           nonuniform List<scalar> 
56
(
6.71955
6.87134
7.2183
7.31099
7.9266
8.04231
9.12346
9.27275
10.9556
11.0135
13.8377
15.6286
25.1885
34.3956
41.962
42.0212
38.0461
30.3349
22.589
33.5659
40.4846
42.4133
43.1383
42.2317
40.5922
38.5347
36.0428
33.2911
30.2589
26.6445
22.5262
16.8649
14.3574
16.0342
17.6826
18.1603
17.9293
17.895
19.434
19.6677
22.7341
26.1039
30.4745
32.0128
32.6334
21.936
15.1514
16.3011
16.8327
16.3697
17.6897
18.9968
20.8578
23.8532
24.5545
27.4148
)
;
    }
    pressure_side
    {
        type            calculated;
        value           nonuniform List<scalar> 
56
(
47.0176
44.583
44.3367
43.0238
42.3508
41.5164
40.7459
39.973
39.3944
39.0575
38.8307
38.6782
38.5724
38.4969
38.4195
38.3947
38.3954
38.4115
38.4426
38.4873
38.5377
38.5945
38.6307
38.5952
38.4476
38.2617
38.0724
38.0037
38.1713
38.702
39.6302
40.8477
42.1148
42.9874
43.2072
42.766
41.4009
39.3439
36.322
32.2961
27.3182
21.6038
15.6437
10.1684
8.65909
6.02835
5.35918
4.96692
4.8452
5.00717
5.26917
5.70513
5.94266
6.33442
6.41865
6.64075
)
;
    }
    trailing_edge
    {
        type            calculated;
        value           nonuniform List<scalar> 2(143.536 91.1903);
    }
    defaultFaces
    {
        type            empty;
    }
}


// ************************************************************************* //
