0 	0 	0 	0
0.000502513 	0.621603 	2.02609e-19 	0
0.00100503 	1.24321 	4.05219e-19 	0
0.00150754 	1.47847 	6.13891e-19 	0
0.00201005 	1.63021 	6.93001e-19 	0
0.00251256 	1.73141 	5.44698e-19 	0
0.00301508 	1.79988 	3.96081e-19 	0
0.00351759 	1.85473 	2.46762e-19 	0
0.0040201 	1.89003 	1.81256e-19 	0
0.00452261 	1.92192 	1.79437e-19 	0
0.00502513 	1.94307 	2.11443e-19 	0
0.00552764 	1.96279 	1.157e-19 	0
0.00603015 	1.9773 	3.47901e-19 	0
0.00653266 	1.99078 	3.85965e-19 	0
0.00703518 	2.00092 	3.61065e-19 	0
0.00753769 	2.01027 	3.67676e-19 	0
0.0080402 	2.01798 	3.34364e-19 	0
0.00854271 	2.02467 	3.1019e-19 	0
0.00904523 	2.03055 	2.84663e-19 	0
0.00954774 	2.03556 	3.79286e-19 	0
0.0100503 	2.03991 	1.90307e-19 	0
0.0105528 	2.04386 	4.72533e-19 	0
0.0110553 	2.04711 	2.44871e-19 	0
0.0115578 	2.05017 	3.52433e-19 	0
0.0120603 	2.05263 	2.17791e-19 	0
0.0125628 	2.05492 	2.63757e-19 	0
0.0130653 	2.05677 	2.87079e-19 	0
0.0135678 	2.05829 	4.43306e-19 	0
0.0140704 	2.05967 	5.86752e-19 	0
0.0145729 	2.06052 	3.41382e-19 	0
0.0150754 	2.06159 	5.02219e-19 	0
0.0155779 	2.06187 	1.32277e-19 	0
0.0160804 	2.06271 	3.37136e-19 	0
0.0165829 	2.06265 	2.33931e-19 	0
0.0170854 	2.06312 	4.89571e-19 	0
0.0175879 	2.06283 	4.41447e-19 	0
0.0180905 	2.0628 	5.84316e-19 	0
0.018593 	2.06244 	5.83806e-19 	0
0.0190955 	2.06187 	5.34472e-19 	0
0.019598 	2.06155 	6.81897e-19 	0
0.0201005 	2.06045 	4.41293e-19 	0
0.020603 	2.06014 	6.9749e-19 	0
0.0211055 	2.0586 	3.15853e-19 	0
0.021608 	2.05826 	6.525e-19 	0
0.0221106 	2.05662 	3.10748e-19 	0
0.0226131 	2.05583 	4.87565e-19 	0
0.0231156 	2.05428 	3.02478e-19 	0
0.0236181 	2.05302 	2.97454e-19 	0
0.0241206 	2.05162 	2.96991e-19 	0
0.0246231 	2.04987 	1.67354e-19 	0
0.0251256 	2.04865 	3.43907e-19 	0
0.0256281 	2.04641 	1.22749e-19 	0
0.0261307 	2.04538 	5.12571e-19 	0
0.0266332 	2.04276 	1.73952e-19 	0
0.0271357 	2.04157 	6.01344e-19 	0
0.0276382 	2.03907 	3.72112e-19 	0
0.0281407 	2.03742 	6.24191e-19 	0
0.0286432 	2.03514 	5.68214e-19 	0
0.0291457 	2.03302 	5.9314e-19 	0
0.0296482 	2.03098 	6.97604e-19 	0
0.0301508 	2.02837 	5.36502e-19 	0
0.0306533 	2.02655 	7.2101e-19 	0
0.0311558 	2.0235 	4.66627e-19 	0
0.0316583 	2.02172 	6.66192e-19 	0
0.0321608 	2.01862 	4.44057e-19 	0
0.0326633 	2.01668 	6.00342e-19 	0
0.0331658 	2.0137 	4.5285e-19 	0
0.0336683 	2.0114 	5.16592e-19 	0
0.0341709 	2.0086 	4.4908e-19 	0
0.0346734 	2.00581 	3.96627e-19 	0
0.0351759 	2.00323 	4.24008e-19 	0
0.0356784 	2.00003 	2.76583e-19 	0
0.0361809 	1.99753 	3.65877e-19 	0
0.0366834 	1.99407 	1.71827e-19 	0
0.0371859 	1.99166 	3.18671e-19 	0
0.0376884 	1.98829 	1.9182e-19 	0
0.038191 	1.98563 	2.79224e-19 	0
0.0386935 	1.98244 	2.28844e-19 	0
0.039196 	1.97945 	2.42548e-19 	0
0.0396985 	1.97629 	2.14548e-19 	0
0.040201 	1.97308 	1.87599e-19 	0
0.0407035 	1.96988 	1.68798e-19 	0
0.041206 	1.96642 	7.94154e-20 	0
0.0417085 	1.96334 	1.68372e-19 	0
0.0422111 	1.95967 	9.5646e-20 	0
0.0427136 	1.95666 	2.35172e-19 	0
0.0432161 	1.95321 	3.07259e-19 	0
0.0437186 	1.94986 	3.34205e-19 	0
0.0442211 	1.94642 	3.77423e-19 	0
0.0447236 	1.94295 	3.88807e-19 	0
0.0452261 	1.93945 	3.89412e-19 	0
0.0457286 	1.93593 	3.94192e-19 	0
0.0462312 	1.93237 	3.99691e-19 	0
0.0467337 	1.92879 	4.07576e-19 	0
0.0472362 	1.92519 	4.18509e-19 	0
0.0477387 	1.92155 	4.27796e-19 	0
0.0482412 	1.91792 	4.45456e-19 	0
0.0487437 	1.91426 	4.60604e-19 	0
0.0492462 	1.91057 	4.47113e-19 	0
0.0497487 	1.90686 	4.16998e-19 	0
0.0502513 	1.90313 	3.67949e-19 	0
0.0507538 	1.89939 	2.99965e-19 	0
0.0512563 	1.89563 	2.52042e-19 	0
0.0517588 	1.89185 	2.34125e-19 	0
0.0522613 	1.88809 	2.17466e-19 	0
0.0527638 	1.88424 	2.34654e-19 	0
0.0532663 	1.88044 	2.44413e-19 	0
0.0537688 	1.87659 	2.81838e-19 	0
0.0542714 	1.87274 	3.2351e-19 	0
0.0547739 	1.86888 	3.54201e-19 	0
0.0552764 	1.86501 	3.92936e-19 	0
0.0557789 	1.86113 	3.02296e-19 	0
0.0562814 	1.85725 	2.41833e-19 	0
0.0567839 	1.85345 	1.35103e-19 	0
0.0572864 	1.84945 	4.5247e-20 	0
0.0577889 	1.846 	1.3233e-19 	0
0.0582915 	1.84163 	5.94069e-21 	0
0.058794 	1.83801 	7.71519e-20 	0
0.0592965 	1.83379 	5.1431e-21 	0
0.059799 	1.82992 	1.88374e-20 	0
0.0603015 	1.82594 	9.26637e-21 	0
0.060804 	1.82202 	7.51581e-21 	0
0.0613065 	1.81826 	4.97223e-20 	0
0.061809 	1.81417 	-2.45696e-21 	0
0.0623116 	1.8108 	1.13689e-19 	0
0.0628141 	1.80633 	-1.47738e-20 	0
0.0633166 	1.80327 	1.34701e-19 	0
0.0638191 	1.7985 	-2.37277e-20 	0
0.0643216 	1.79521 	6.49728e-20 	0
0.0648241 	1.79069 	-2.8691e-20 	0
0.0653266 	1.78716 	1.24313e-20 	0
0.0658291 	1.78316 	1.83113e-21 	0
0.0663317 	1.77913 	-2.6817e-20 	0
0.0668342 	1.77584 	4.59516e-20 	0
0.0673367 	1.77132 	-3.61986e-20 	0
0.0678392 	1.76857 	8.16792e-20 	0
0.0683417 	1.76364 	-3.23829e-20 	0
0.0688442 	1.76107 	8.20299e-20 	0
0.0693467 	1.75602 	-2.71995e-20 	0
0.0698492 	1.75321 	4.8622e-20 	0
0.0703518 	1.74879 	3.89077e-21 	0
0.0708543 	1.74541 	2.28249e-20 	0
0.0713568 	1.74174 	3.25856e-20 	0
0.0718593 	1.73767 	8.51823e-21 	0
0.0723618 	1.73477 	5.71811e-20 	0
0.0728643 	1.72999 	3.74672e-21 	0
0.0733668 	1.7279 	9.09285e-20 	0
0.0738693 	1.72255 	7.25749e-21 	0
0.0743719 	1.7206 	1.03307e-19 	0
0.0748744 	1.71578 	4.20905e-20 	0
0.0753769 	1.71316 	9.9414e-20 	0
0.0758794 	1.70913 	7.82866e-20 	0
0.0763819 	1.7058 	9.34585e-20 	0
0.0768844 	1.7026 	1.14346e-19 	0
0.0773869 	1.69855 	7.1159e-20 	0
0.0778894 	1.69618 	6.12166e-20 	0
0.078392 	1.69145 	-1.23233e-19 	0
0.0788945 	1.68989 	1.32071e-20 	0
0.079397 	1.6849 	-2.83787e-19 	0
0.0798995 	1.68298 	-8.58458e-20 	0
0.080402 	1.67859 	-2.45193e-19 	0
0.0809045 	1.67614 	-1.35727e-19 	0
0.081407 	1.67262 	-1.75144e-19 	0
0.0819095 	1.66943 	-1.81609e-19 	0
0.0824121 	1.6668 	-1.1065e-19 	0
0.0829146 	1.66299 	-2.03374e-19 	0
0.0834171 	1.66112 	-5.22056e-20 	0
0.0839196 	1.65706 	-1.79232e-19 	0
0.0844221 	1.65543 	-2.12572e-20 	0
0.0849246 	1.65127 	-1.56807e-19 	0
0.0854271 	1.64922 	-6.56723e-20 	0
0.0859296 	1.64565 	-1.35503e-19 	0
0.0864322 	1.64317 	-1.03269e-19 	0
0.0869347 	1.64027 	-1.07505e-19 	0
0.0874372 	1.63752 	-1.11102e-19 	0
0.0879397 	1.63532 	-6.13978e-20 	0
0.0884422 	1.63232 	-9.30596e-20 	0
0.0889447 	1.63055 	-2.27424e-20 	0
0.0894472 	1.62728 	-7.67848e-20 	0
0.0899497 	1.62555 	-2.02592e-20 	0
0.0904523 	1.62243 	-6.18822e-20 	0
0.0909548 	1.62026 	-4.64027e-20 	0
0.0914573 	1.61776 	-4.86447e-20 	0
0.0919598 	1.6155 	-4.55789e-20 	0
0.0924623 	1.61328 	-3.68368e-20 	0
0.0929648 	1.61112 	-3.42805e-20 	0
0.0934673 	1.60903 	-2.49596e-20 	0
0.0939698 	1.60693 	-2.47955e-20 	0
0.0944724 	1.6053 	-5.81821e-21 	0
0.0949749 	1.60293 	-1.68566e-20 	0
0.0954774 	1.60108 	-1.21421e-20 	0
0.0959799 	1.59911 	-1.04653e-20 	0
0.0964824 	1.59727 	-9.08863e-21 	0
0.0969849 	1.59549 	-5.54295e-21 	0
0.0974874 	1.59374 	-4.52025e-21 	0
0.0979899 	1.59204 	-2.16344e-21 	0
0.0984925 	1.5904 	-1.56997e-21 	0
0.098995 	1.58891 	-3.67409e-22 	0
0.0994975 	1.58817 	-1.83705e-22 	0
0.1 	1.58743 	0 	0
