/*--------------------------------*- C++ -*----------------------------------*\
  =========                 |
  \\      /  F ield         | OpenFOAM: The Open Source CFD Toolbox
   \\    /   O peration     | Website:  https://openfoam.org
    \\  /    A nd           | Version:  7
     \\/     M anipulation  |
\*---------------------------------------------------------------------------*/
FoamFile
{
    version     2.0;
    format      ascii;
    class       volSymmTensorField;
    location    "900";
    object      devReff;
}
// * * * * * * * * * * * * * * * * * * * * * * * * * * * * * * * * * * * * * //

dimensions      [0 2 -2 0 0 0 0];

internalField   nonuniform List<symmTensor> 
180
(
(-7.73297e-21 -0.0286218 -0 1.54659e-20 -0 -7.73297e-21)
(1.8634e-21 -0.0431988 -0 -3.7268e-21 -0 1.8634e-21)
(3.84521e-22 -0.0154455 -0 -7.69042e-22 -0 3.84521e-22)
(-9.38246e-22 -0.016498 -0 1.87649e-21 -0 -9.38246e-22)
(-1.48979e-20 -0.0147474 -0 2.97958e-20 -0 -1.48979e-20)
(-3.36922e-21 -0.015781 -0 6.73845e-21 -0 -3.36922e-21)
(9.80017e-20 -0.0140911 -0 -7.75712e-20 -0 -2.04305e-20)
(-1.06259e-19 -0.0151319 -0 8.75894e-20 -0 1.86693e-20)
(6.22568e-20 -0.0135297 -0 -1.24514e-19 -0 6.22568e-20)
(-5.11895e-20 -0.01448 -0 1.02379e-19 -0 -5.11895e-20)
(3.03736e-20 -0.013059 -0 -6.07472e-20 -0 3.03736e-20)
(-1.44669e-20 -0.013882 -0 2.89338e-20 -0 -1.44669e-20)
(-1.05957e-20 -0.0126496 -0 2.11914e-20 -0 -1.05957e-20)
(3.255e-20 -0.0133304 -0 -6.50999e-20 -0 3.255e-20)
(-1.17388e-20 -0.0122805 -0 2.34775e-20 -0 -1.17388e-20)
(1.81177e-20 -0.0128169 -0 -3.62354e-20 -0 1.81177e-20)
(-2.49906e-20 -0.0119336 -0 4.99813e-20 -0 -2.49906e-20)
(5.69198e-21 -0.0123342 -0 -1.1384e-20 -0 5.69198e-21)
(-5.54611e-21 -0.0115955 -0 1.10922e-20 -0 -5.54611e-21)
(2.42201e-20 -0.0118759 -0 -4.84403e-20 -0 2.42201e-20)
(1.46768e-20 -0.0112574 -0 -2.93536e-20 -0 1.46768e-20)
(5.72936e-20 -0.0114366 -0 -1.14587e-19 -0 5.72936e-20)
(1.21381e-20 -0.0109145 -0 -2.42763e-20 -0 1.21381e-20)
(7.86105e-20 -0.011012 -0 -1.57221e-19 -0 7.86105e-20)
(5.09247e-20 -0.0105644 -0 -1.01849e-19 -0 5.09247e-20)
(4.39033e-20 -0.0105986 -0 -8.78066e-20 -0 4.39033e-20)
(8.02071e-20 -0.0102067 -0 -1.60414e-19 -0 8.02071e-20)
(-4.14579e-20 -0.0101937 -0 8.29159e-20 -0 -4.14579e-20)
(1.73438e-20 -0.00984146 -0 -3.46877e-20 -0 1.73438e-20)
(-5.5997e-20 -0.00979516 -0 1.11994e-19 -0 -5.5997e-20)
(-4.19121e-20 -0.0094696 -0 8.38242e-20 -0 -4.19121e-20)
(3.95828e-21 -0.00940143 -0 -7.91656e-21 -0 3.95828e-21)
(-7.82067e-21 -0.00909211 -0 1.56413e-20 -0 -7.82067e-21)
(3.20061e-20 -0.00901129 -0 -6.40122e-20 -0 3.20061e-20)
(2.838e-20 -0.00871013 -0 -5.676e-20 -0 2.838e-20)
(3.14131e-20 -0.00862387 -0 -6.28261e-20 -0 3.14131e-20)
(3.29494e-20 -0.00832483 -0 -6.58988e-20 -0 3.29494e-20)
(3.42046e-20 -0.00823851 -0 -6.84091e-20 -0 3.42046e-20)
(3.51506e-20 -0.00793734 -0 -7.03013e-20 -0 3.51506e-20)
(4.59408e-20 -0.00785477 -0 -9.18817e-20 -0 4.59408e-20)
(3.34612e-20 -0.00754875 -0 -6.69224e-20 -0 3.34612e-20)
(1.71303e-20 -0.00747237 -0 -3.42606e-20 -0 1.71303e-20)
(3.02035e-20 -0.00716004 -0 -6.04069e-20 -0 3.02035e-20)
(-6.08155e-20 -0.00709118 -0 1.21631e-19 -0 -6.08155e-20)
(2.58248e-20 -0.00677209 -0 -5.16495e-20 -0 2.58248e-20)
(-9.39312e-20 -0.0067112 -0 1.87862e-19 -0 -9.39312e-20)
(-2.78996e-19 -0.00638569 -0 5.57992e-19 -0 -2.78996e-19)
(-8.14933e-20 -0.00633255 -0 1.62987e-19 -0 -8.14933e-20)
(-6.00839e-19 -0.0060015 -0 1.20168e-18 -0 -6.00839e-19)
(-7.27137e-20 -0.00595545 -0 1.45427e-19 -0 -7.27137e-20)
(-3.03512e-19 -0.00562008 -0 6.07025e-19 -0 -3.03512e-19)
(-6.46611e-20 -0.00558018 -0 1.29322e-19 -0 -6.46611e-20)
(9.16423e-21 -0.00524193 -0 -1.83285e-20 -0 9.16423e-21)
(-5.70169e-20 -0.0052071 -0 1.14034e-19 -0 -5.70169e-20)
(5.69051e-21 -0.00486746 -0 -1.1381e-20 -0 5.69051e-21)
(-4.95319e-20 -0.00483663 -0 9.90638e-20 -0 -4.95319e-20)
(1.80875e-21 -0.00449706 -0 -3.61749e-21 -0 1.80875e-21)
(-4.20885e-20 -0.00446919 -0 8.4177e-20 -0 -4.20885e-20)
(-1.88015e-21 -0.00413105 -0 3.7603e-21 -0 -1.88015e-21)
(-3.45987e-20 -0.00410522 -0 6.91974e-20 -0 -3.45987e-20)
(-4.98131e-21 -0.00376975 -0 9.96262e-21 -0 -4.98131e-21)
(-2.76795e-20 -0.00374518 -0 5.53591e-20 -0 -2.76795e-20)
(-7.86465e-21 -0.00341345 -0 1.57293e-20 -0 -7.86465e-21)
(-2.08706e-20 -0.00338949 -0 4.17412e-20 -0 -2.08706e-20)
(-1.08092e-20 -0.00306243 -0 2.16184e-20 -0 -1.08092e-20)
(-1.39373e-20 -0.00303858 -0 2.78746e-20 -0 -1.39373e-20)
(-1.37114e-20 -0.00271699 -0 2.74227e-20 -0 -1.37114e-20)
(-7.23477e-21 -0.00269286 -0 1.44695e-20 -0 -7.23477e-21)
(-1.61276e-20 -0.00237738 -0 3.22553e-20 -0 -1.61276e-20)
(-6.16449e-22 -0.0023527 -0 1.2329e-21 -0 -6.16449e-22)
(-1.88132e-20 -0.00204389 -0 3.76264e-20 -0 -1.88132e-20)
(5.80735e-21 -0.00201847 -0 -1.16147e-20 -0 5.80735e-21)
(4.71757e-19 -0.00171679 -0 -9.43513e-19 -0 4.71757e-19)
(1.18498e-20 -0.00169051 -0 -2.36996e-20 -0 1.18498e-20)
(9.75961e-19 -0.00139634 -0 -1.95192e-18 -0 9.75961e-19)
(1.73488e-20 -0.00136914 -0 -3.46975e-20 -0 1.73488e-20)
(4.79882e-19 -0.00108281 -0 -9.59764e-19 -0 4.79882e-19)
(2.23705e-20 -0.00105466 -0 -4.4741e-20 -0 2.23705e-20)
(-2.84497e-20 -0.000776449 -0 5.68995e-20 -0 -2.84497e-20)
(2.68843e-20 -0.000747341 -0 -5.37687e-20 -0 2.68843e-20)
(-3.0775e-20 -0.000477504 -0 6.15499e-20 -0 -3.0775e-20)
(3.09338e-20 -0.000447462 -0 -6.18675e-20 -0 3.09338e-20)
(-3.30577e-20 -0.000186216 -0 6.61154e-20 -0 -3.30577e-20)
(3.446e-20 -0.000155268 -0 -6.892e-20 -0 3.446e-20)
(-3.52702e-20 9.71884e-05 -0 7.05404e-20 -0 -3.52702e-20)
(3.74821e-20 0.000129007 -0 -7.49643e-20 -0 3.74821e-20)
(-3.7431e-20 0.000372491 -0 7.48619e-20 -0 -3.7431e-20)
(4.00109e-20 0.000405141 -0 -8.00218e-20 -0 4.00109e-20)
(-3.95165e-20 0.000639485 -0 7.9033e-20 -0 -3.95165e-20)
(4.20232e-20 0.000672929 -0 -8.40464e-20 -0 4.20232e-20)
(-4.14335e-20 0.000897979 -0 8.2867e-20 -0 -4.14335e-20)
(4.35927e-20 0.000932178 -0 -8.71855e-20 -0 4.35927e-20)
(-4.32382e-20 0.00114779 -0 8.64763e-20 -0 -4.32382e-20)
(4.46975e-20 0.00118271 -0 -8.9395e-20 -0 4.46975e-20)
(-4.4738e-20 0.00138875 -0 8.9476e-20 -0 -4.4738e-20)
(4.53847e-20 0.00142436 -0 -9.07695e-20 -0 4.53847e-20)
(-4.61336e-20 0.00162072 -0 9.22672e-20 -0 -4.61336e-20)
(4.5673e-20 0.00165698 -0 -9.13459e-20 -0 4.5673e-20)
(-4.71665e-20 0.00184353 -0 9.43331e-20 -0 -4.71665e-20)
(4.57563e-20 0.00188042 -0 -9.15126e-20 -0 4.57563e-20)
(-4.80305e-20 0.00205708 -0 9.60609e-20 -0 -4.80305e-20)
(4.54151e-20 0.00209457 -0 -9.08303e-20 -0 4.54151e-20)
(-4.87455e-20 0.00226125 -0 9.74909e-20 -0 -4.87455e-20)
(4.47019e-20 0.00229931 -0 -8.94038e-20 -0 4.47019e-20)
(-4.91247e-20 0.00245595 -0 9.82495e-20 -0 -4.91247e-20)
(4.3678e-20 0.00249455 -0 -8.73561e-20 -0 4.3678e-20)
(-4.91281e-20 0.00264108 -0 9.82561e-20 -0 -4.91281e-20)
(4.23433e-20 0.00268021 -0 -8.46866e-20 -0 4.23433e-20)
(-4.88022e-20 0.00281658 -0 9.76043e-20 -0 -4.88022e-20)
(4.09921e-20 0.00285622 -0 -8.19842e-20 -0 4.09921e-20)
(-4.83124e-20 0.0029824 -0 9.66247e-20 -0 -4.83124e-20)
(3.94045e-20 0.00302252 -0 -7.8809e-20 -0 3.94045e-20)
(-4.747e-20 0.0031385 -0 9.49399e-20 -0 -4.747e-20)
(3.76218e-20 0.00317909 -0 -7.52435e-20 -0 3.76218e-20)
(-4.62965e-20 0.00328485 -0 9.25929e-20 -0 -4.62965e-20)
(3.59545e-20 0.00332589 -0 -7.1909e-20 -0 3.59545e-20)
(-4.53269e-20 0.00342145 -0 9.06537e-20 -0 -4.53269e-20)
(3.44354e-20 0.00346292 -0 -6.88707e-20 -0 3.44354e-20)
(-4.38133e-20 0.0035483 -0 8.76267e-20 -0 -4.38133e-20)
(3.23694e-20 0.00359019 -0 -6.47389e-20 -0 3.23694e-20)
(-4.20907e-20 0.00366543 -0 8.41813e-20 -0 -4.20907e-20)
(3.03433e-20 0.00370772 -0 -6.06865e-20 -0 3.03433e-20)
(-4.02267e-20 0.00377286 -0 8.04535e-20 -0 -4.02267e-20)
(2.88425e-20 0.00381554 -0 -5.76851e-20 -0 2.88425e-20)
(-3.82244e-20 0.00387066 -0 7.64488e-20 -0 -3.82244e-20)
(2.68771e-20 0.0039137 -0 -5.37542e-20 -0 2.68771e-20)
(-3.65851e-20 0.00395888 -0 7.31701e-20 -0 -3.65851e-20)
(2.50113e-20 0.00400229 -0 -5.00226e-20 -0 2.50113e-20)
(-3.43406e-20 0.00403762 -0 6.86812e-20 -0 -3.43406e-20)
(2.32725e-20 0.00408137 -0 -4.65451e-20 -0 2.32725e-20)
(-3.21321e-20 0.00410696 -0 6.42642e-20 -0 -3.21321e-20)
(2.16795e-20 0.00415105 -0 -4.33589e-20 -0 2.16795e-20)
(-3.04105e-20 0.00416703 -0 6.0821e-20 -0 -3.04105e-20)
(2.01625e-20 0.00421144 -0 -4.0325e-20 -0 2.01625e-20)
(-2.8221e-20 0.00421795 -0 5.64419e-20 -0 -2.8221e-20)
(1.87293e-20 0.00426267 -0 -3.74585e-20 -0 1.87293e-20)
(-2.61404e-20 0.00425986 -0 5.22808e-20 -0 -2.61404e-20)
(1.74958e-20 0.00430489 -0 -3.49917e-20 -0 1.74958e-20)
(-2.41449e-20 0.00429293 -0 4.82898e-20 -0 -2.41449e-20)
(1.5895e-20 0.00433825 -0 -3.17899e-20 -0 1.5895e-20)
(-2.22348e-20 0.00431734 -0 4.44695e-20 -0 -2.22348e-20)
(1.49511e-20 0.00436294 -0 -2.99021e-20 -0 1.49511e-20)
(-2.04584e-20 0.00433326 -0 4.09168e-20 -0 -2.04584e-20)
(1.41244e-20 0.00437914 -0 -2.82487e-20 -0 1.41244e-20)
(-1.88062e-20 0.0043409 -0 3.76123e-20 -0 -1.88062e-20)
(1.28366e-20 0.00438704 -0 -2.56732e-20 -0 1.28366e-20)
(-1.73215e-20 0.00434047 -0 3.4643e-20 -0 -1.73215e-20)
(1.21824e-20 0.00438688 -0 -2.43648e-20 -0 1.21824e-20)
(-1.59821e-20 0.0043322 -0 3.19642e-20 -0 -1.59821e-20)
(1.16882e-20 0.00437886 -0 -2.33764e-20 -0 1.16882e-20)
(-1.48181e-20 0.00431631 -0 2.96361e-20 -0 -1.48181e-20)
(1.08901e-20 0.00436321 -0 -2.17801e-20 -0 1.08901e-20)
(-1.32444e-20 0.00429301 -0 2.64889e-20 -0 -1.32444e-20)
(1.0244e-20 0.00434016 -0 -2.04881e-20 -0 1.0244e-20)
(-1.23789e-20 0.00426252 -0 2.47578e-20 -0 -1.23789e-20)
(9.63918e-21 0.00430991 -0 -1.92784e-20 -0 9.63918e-21)
(-1.16341e-20 0.00422503 -0 2.32682e-20 -0 -1.16341e-20)
(9.06925e-21 0.00427266 -0 -1.81385e-20 -0 9.06925e-21)
(-1.0481e-20 0.00418067 -0 2.0962e-20 -0 -1.0481e-20)
(8.51634e-21 0.00422854 -0 -1.70327e-20 -0 8.51634e-21)
(-9.37662e-21 0.00412953 -0 1.87532e-20 -0 -9.37662e-21)
(7.96155e-21 0.00417764 -0 -1.59231e-20 -0 7.96155e-21)
(-8.37802e-21 0.00407159 -0 1.6756e-20 -0 -8.37802e-21)
(7.92537e-21 0.00411994 -0 -1.58507e-20 -0 7.92537e-21)
(-8.0112e-21 0.00400673 -0 1.60224e-20 -0 -8.0112e-21)
(7.91577e-21 0.00405533 -0 -1.58315e-20 -0 7.91577e-21)
(-7.78861e-21 0.00393466 -0 1.55772e-20 -0 -7.78861e-21)
(7.44604e-21 0.00398351 -0 -1.48921e-20 -0 7.44604e-21)
(-7.22411e-21 0.00385485 -0 1.44482e-20 -0 -7.22411e-21)
(7.03669e-21 0.00390399 -0 -1.40734e-20 -0 7.03669e-21)
(-6.68552e-21 0.00376637 -0 1.3371e-20 -0 -6.68552e-21)
(6.67551e-21 0.00381583 -0 -1.3351e-20 -0 6.67551e-21)
(-6.20018e-21 0.00366737 -0 1.24004e-20 -0 -6.20018e-21)
(6.37898e-21 0.0037172 -0 -1.2758e-20 -0 6.37898e-21)
(-5.70847e-21 0.00357996 -0 1.14169e-20 -0 -5.70847e-21)
(6.05142e-21 0.00363025 -0 -1.21028e-20 -0 6.05142e-21)
(-5.1072e-21 0.0035124 -0 1.02144e-20 -0 -5.1072e-21)
(5.59309e-21 0.00356327 -0 -1.11862e-20 -0 5.59309e-21)
(-3.63804e-21 0.00177617 -0 7.27608e-21 -0 -3.63804e-21)
(4.25169e-21 0.00180177 -0 -8.50339e-21 -0 4.25169e-21)
)
;

boundaryField
{
    inlet
    {
        type            cyclic;
    }
    outlet
    {
        type            cyclic;
    }
    bottom
    {
        type            symmetry;
    }
    top
    {
        type            calculated;
        value           nonuniform List<symmTensor> 2((-7.10377e-21 -0.0145973 -0 1.42075e-20 -0 -7.10377e-21) (6.76629e-22 -0.0156265 -0 -1.35326e-21 -0 6.76629e-22));
    }
    frontAndBack
    {
        type            empty;
    }
}


// ************************************************************************* //
