/*--------------------------------*- C++ -*----------------------------------*\
  =========                 |
  \\      /  F ield         | OpenFOAM: The Open Source CFD Toolbox
   \\    /   O peration     | Website:  https://openfoam.org
    \\  /    A nd           | Version:  7
     \\/     M anipulation  |
\*---------------------------------------------------------------------------*/
FoamFile
{
    version     2.0;
    format      ascii;
    class       volScalarField;
    location    "900";
    object      k;
}
// * * * * * * * * * * * * * * * * * * * * * * * * * * * * * * * * * * * * * //

dimensions      [0 2 -2 0 0 0 0];

internalField   nonuniform List<scalar> 
180
(
0.0635617
0.109796
0.0451718
0.0573344
0.0439707
0.0497942
0.0437316
0.047525
0.0438111
0.046508
0.0442173
0.0461401
0.0449203
0.0462523
0.0458663
0.0467458
0.0469981
0.047539
0.0482663
0.0485618
0.0496314
0.0497563
0.051064
0.0510763
0.0525424
0.0524859
0.0540512
0.053958
0.0555797
0.055472
0.0571199
0.0570124
0.0586664
0.0585681
0.0602149
0.0601305
0.0617623
0.0616937
0.0633059
0.0632532
0.0648439
0.0648057
0.0663743
0.0663488
0.0678956
0.0678809
0.0694066
0.0694006
0.070906
0.0709071
0.072393
0.0723995
0.0738665
0.0738773
0.0753258
0.07534
0.0767703
0.076787
0.0781994
0.0782181
0.0796124
0.0796328
0.081009
0.0810307
0.0823886
0.0824117
0.083751
0.0837751
0.0850956
0.0851209
0.0864222
0.0864486
0.0877305
0.0877579
0.08902
0.0890485
0.0902905
0.0903201
0.0915416
0.0915724
0.0927731
0.092805
0.0939846
0.0940176
0.0951759
0.09521
0.0963466
0.0963818
0.0974964
0.0975328
0.0986251
0.0986626
0.0997323
0.0997709
0.100818
0.100857
0.101881
0.101922
0.102922
0.102964
0.103941
0.103984
0.104937
0.104981
0.105909
0.105954
0.106859
0.106904
0.107784
0.107831
0.108686
0.108733
0.109563
0.109612
0.110416
0.110466
0.111245
0.111295
0.112049
0.1121
0.112827
0.112879
0.113581
0.113633
0.114309
0.114362
0.115011
0.115065
0.115688
0.115742
0.116338
0.116394
0.116963
0.117019
0.117561
0.117617
0.118132
0.118189
0.118677
0.118735
0.119196
0.119254
0.119687
0.119746
0.120152
0.120211
0.120589
0.120649
0.121
0.121059
0.121383
0.121443
0.121738
0.121799
0.122067
0.122128
0.122368
0.122429
0.122641
0.122703
0.122887
0.122949
0.123105
0.123167
0.123296
0.123358
0.123459
0.123521
0.123594
0.123656
0.123701
0.123763
0.12378
0.123842
0.123831
0.123893
0.123853
0.123916
0.123847
0.123909
)
;

boundaryField
{
    inlet
    {
        type            cyclic;
    }
    outlet
    {
        type            cyclic;
    }
    bottom
    {
        type            symmetry;
    }
    top
    {
        type            kqRWallFunction;
        value           nonuniform List<scalar> 2(0.0635617 0.109796);
    }
    frontAndBack
    {
        type            empty;
    }
}


// ************************************************************************* //
