/*--------------------------------*- C++ -*----------------------------------*\
  =========                 |
  \\      /  F ield         | OpenFOAM: The Open Source CFD Toolbox
   \\    /   O peration     | Website:  https://openfoam.org
    \\  /    A nd           | Version:  7
     \\/     M anipulation  |
\*---------------------------------------------------------------------------*/
FoamFile
{
    version     2.0;
    format      ascii;
    class       volScalarField;
    location    "900";
    object      nut;
}
// * * * * * * * * * * * * * * * * * * * * * * * * * * * * * * * * * * * * * //

dimensions      [0 2 -1 0 0 0 0];

internalField   nonuniform List<scalar> 
180
(
2.20957e-05
3.71503e-05
5.18442e-05
6.56738e-05
9.31944e-05
0.000103897
0.000141715
0.000150036
0.000196954
0.000202871
0.000259498
0.00026298
0.000329653
0.000330928
0.000407367
0.000406888
0.000492312
0.000490641
0.000584
0.000581673
0.000681856
0.000679304
0.000785269
0.000782777
0.000893614
0.000891324
0.00100626
0.00100421
0.00112258
0.00112073
0.00124196
0.00124026
0.0013638
0.00136219
0.00148754
0.00148597
0.00161265
0.00161111
0.00173865
0.00173714
0.00186509
0.00186363
0.00199159
0.00199021
0.00211779
0.00211651
0.00224337
0.00224223
0.00236808
0.0023671
0.00249167
0.00249086
0.00261393
0.00261329
0.00273468
0.00273422
0.00285377
0.00285348
0.00297106
0.00297093
0.00308644
0.00308645
0.00319979
0.00319995
0.00331105
0.00331133
0.00342015
0.00342054
0.00352701
0.00352751
0.00363161
0.0036322
0.00373389
0.00373458
0.00383385
0.00383461
0.00393145
0.00393229
0.00402669
0.00402761
0.00411955
0.00412054
0.00421005
0.00421111
0.00429819
0.00429931
0.00438397
0.00438516
0.00446741
0.00446866
0.00454853
0.00454984
0.00462734
0.0046287
0.00470386
0.00470528
0.00477812
0.0047796
0.00485015
0.00485167
0.00491996
0.00492153
0.00498759
0.0049892
0.00505305
0.00505472
0.00511639
0.0051181
0.00517762
0.00517937
0.00523678
0.00523857
0.00529388
0.00529572
0.00534897
0.00535085
0.00540207
0.00540398
0.00545321
0.00545515
0.0055024
0.00550438
0.00554968
0.00555169
0.00559508
0.00559712
0.00563861
0.00564069
0.00568031
0.00568241
0.00572019
0.00572232
0.00575829
0.00576044
0.00579461
0.00579678
0.00582918
0.00583138
0.00586202
0.00586424
0.00589315
0.0058954
0.00592259
0.00592485
0.00595035
0.00595264
0.00597645
0.00597876
0.00600091
0.00600323
0.00602374
0.00602608
0.00604495
0.0060473
0.00606456
0.00606692
0.00608257
0.00608494
0.00609899
0.00610138
0.00611384
0.00611624
0.00612712
0.00612953
0.00613884
0.00614126
0.00614901
0.00615143
0.00615764
0.00616006
0.00616472
0.00616715
0.00617028
0.00617272
0.00617433
0.00617677
0.00617688
0.00617932
0.00617795
0.00618039
)
;

boundaryField
{
    inlet
    {
        type            cyclic;
    }
    outlet
    {
        type            cyclic;
    }
    bottom
    {
        type            symmetry;
    }
    top
    {
        type            nutkWallFunction;
        Cmu             0.09;
        kappa           0.41;
        E               9.8;
        value           uniform 0;
    }
    frontAndBack
    {
        type            empty;
    }
}


// ************************************************************************* //
