/*--------------------------------*- C++ -*----------------------------------*\
  =========                 |
  \\      /  F ield         | OpenFOAM: The Open Source CFD Toolbox
   \\    /   O peration     | Website:  https://openfoam.org
    \\  /    A nd           | Version:  7
     \\/     M anipulation  |
\*---------------------------------------------------------------------------*/
FoamFile
{
    version     2.0;
    format      ascii;
    class       volScalarField;
    location    "900";
    object      omega;
}
// * * * * * * * * * * * * * * * * * * * * * * * * * * * * * * * * * * * * * //

dimensions      [0 0 -1 0 0 0 0];

internalField   nonuniform List<scalar> 
180
(
2592
2592
871.298
873.017
471.817
479.267
308.59
316.758
222.444
229.249
170.396
175.451
136.265
139.765
112.592
114.886
95.4641
96.8917
82.6478
83.4864
72.7888
73.2459
65.0273
65.2501
58.7976
58.8853
53.715
53.7319
49.5107
49.4961
45.9919
45.9682
43.0169
42.9956
40.4796
40.4654
38.2986
38.2926
36.411
36.4123
34.7671
34.7738
33.3273
33.3376
32.0597
32.0721
30.9385
30.9516
29.9424
29.9553
29.054
29.0661
28.2588
28.2698
27.5446
27.5544
26.9013
26.91
26.3203
26.3278
25.7943
25.8008
25.3169
25.3225
24.8829
24.8878
24.4875
24.4918
24.1268
24.1306
23.7973
23.8006
23.4957
23.4988
23.2195
23.2223
22.9662
22.9688
22.7337
22.7362
22.5202
22.5225
22.3239
22.3261
22.1432
22.1454
21.977
21.9791
21.8239
21.826
21.6829
21.6849
21.5528
21.5548
21.433
21.4349
21.3224
21.3244
21.2205
21.2224
21.1264
21.1283
21.0396
21.0415
20.9595
20.9614
20.8855
20.8875
20.8173
20.8193
20.7543
20.7563
20.6962
20.6982
20.6425
20.6445
20.593
20.595
20.5473
20.5493
20.5051
20.5072
20.4662
20.4682
20.4302
20.4323
20.3971
20.3991
20.3664
20.3685
20.3382
20.3403
20.3121
20.3142
20.288
20.2901
20.2657
20.2678
20.2451
20.2473
20.2261
20.2283
20.2086
20.2108
20.1924
20.1946
20.1774
20.1796
20.1635
20.1657
20.1507
20.1529
20.1389
20.1411
20.1279
20.1301
20.1178
20.12
20.1085
20.1106
20.0998
20.102
20.0919
20.0941
20.0846
20.0868
20.0778
20.08
20.0717
20.0738
20.066
20.0681
20.0607
20.0629
20.0558
20.0579
20.0511
20.0533
20.0466
20.0487
)
;

boundaryField
{
    inlet
    {
        type            cyclic;
    }
    outlet
    {
        type            cyclic;
    }
    bottom
    {
        type            symmetry;
    }
    top
    {
        beta1           0.075;
        blended         0;
        type            omegaWallFunction;
        value           uniform 2592;
    }
    frontAndBack
    {
        type            empty;
    }
}


// ************************************************************************* //
