/*--------------------------------*- C++ -*----------------------------------*\
  =========                 |
  \\      /  F ield         | OpenFOAM: The Open Source CFD Toolbox
   \\    /   O peration     | Website:  https://openfoam.org
    \\  /    A nd           | Version:  7
     \\/     M anipulation  |
\*---------------------------------------------------------------------------*/
FoamFile
{
    version     2.0;
    format      ascii;
    class       volScalarField;
    location    "900";
    object      p;
}
// * * * * * * * * * * * * * * * * * * * * * * * * * * * * * * * * * * * * * //

dimensions      [0 2 -2 0 0 0 0];

internalField   nonuniform List<scalar> 
180
(
1.60296e-21
-9.53635e-17
-6.49773e-21
-9.5353e-17
2.27256e-22
-9.53531e-17
1.29681e-20
-9.53556e-17
4.74583e-20
-9.53611e-17
3.50137e-20
-9.53287e-17
2.04115e-20
-9.5316e-17
4.74122e-21
-9.52693e-17
-1.25757e-20
-9.52145e-17
-3.09154e-20
-9.51982e-17
-5.04027e-20
-9.50694e-17
-7.09782e-20
-9.50506e-17
5.51337e-20
-9.50306e-17
1.99231e-19
-9.53421e-17
-1.05614e-20
-9.53195e-17
-2.42283e-19
-9.50888e-17
-3.95165e-20
-9.50637e-17
-6.63353e-20
-9.50374e-17
-9.4128e-20
-9.50098e-17
-1.23447e-19
-9.49812e-17
-1.54152e-19
-9.49514e-17
-1.86194e-19
-9.52572e-17
-2.20029e-19
-9.52255e-17
-2.54875e-19
-9.51929e-17
-2.91802e-19
-9.51595e-17
9.46678e-20
-9.51253e-17
5.00422e-19
-9.50904e-17
9.27179e-19
-9.5055e-17
1.37309e-18
-9.5019e-17
1.83973e-18
-9.49825e-17
2.32551e-18
-9.49457e-17
2.83153e-18
-9.49085e-17
3.35663e-18
-9.4871e-17
3.90121e-18
-9.48334e-17
4.46454e-18
-9.47956e-17
5.04645e-18
-9.47578e-17
5.64646e-18
-9.47199e-17
6.26418e-18
-9.46821e-17
6.22288e-18
-9.46444e-17
6.18169e-18
-9.46068e-17
6.14026e-18
-9.45695e-17
6.09904e-18
-9.45323e-17
6.05732e-18
-9.44954e-17
6.01596e-18
-9.44589e-17
5.97388e-18
-9.44227e-17
5.93242e-18
-9.43868e-17
5.89015e-18
-9.43514e-17
5.84875e-18
-9.43165e-17
5.80655e-18
-9.4282e-17
5.76548e-18
-9.4248e-17
5.72372e-18
-9.42146e-17
5.68333e-18
-9.41817e-17
5.64244e-18
-9.41495e-17
5.60308e-18
-9.41178e-17
5.56346e-18
-9.40868e-17
5.52551e-18
-9.40564e-17
5.48755e-18
-9.40268e-17
5.4513e-18
-9.39978e-17
5.41531e-18
-9.39696e-17
5.38107e-18
-9.39421e-17
5.34732e-18
-9.39154e-17
5.31528e-18
-9.38894e-17
5.28395e-18
-9.38643e-17
5.25427e-18
-9.38399e-17
5.2255e-18
-9.38164e-17
5.19827e-18
-9.37937e-17
5.17208e-18
-9.37719e-17
5.14736e-18
-9.37509e-17
5.12376e-18
-9.37308e-17
5.10153e-18
-9.37115e-17
5.08048e-18
-9.36932e-17
5.06072e-18
-9.36758e-17
5.04218e-18
-9.36593e-17
5.02484e-18
-9.36437e-17
5.00873e-18
-9.36291e-17
4.99376e-18
-9.36154e-17
4.98001e-18
-9.36026e-17
4.96734e-18
-9.35908e-17
4.9559e-18
-9.358e-17
4.94549e-18
-9.35701e-17
4.93624e-18
-9.35612e-17
4.92801e-18
-9.35533e-17
4.92083e-18
-9.35463e-17
4.91467e-18
-9.35404e-17
4.90948e-18
-9.35354e-17
4.90532e-18
-9.35314e-17
4.90216e-18
-9.35284e-17
4.90004e-18
-9.35264e-17
4.89896e-18
-9.35253e-17
4.89882e-18
-9.35252e-17
)
;

boundaryField
{
    inlet
    {
        type            cyclic;
    }
    outlet
    {
        type            cyclic;
    }
    bottom
    {
        type            symmetry;
    }
    top
    {
        type            zeroGradient;
    }
    frontAndBack
    {
        type            empty;
    }
}


// ************************************************************************* //
