/*--------------------------------*- C++ -*----------------------------------*\
  =========                 |
  \\      /  F ield         | OpenFOAM: The Open Source CFD Toolbox
   \\    /   O peration     | Website:  https://openfoam.org
    \\  /    A nd           | Version:  7
     \\/     M anipulation  |
\*---------------------------------------------------------------------------*/
FoamFile
{
    version     2.0;
    format      ascii;
    class       surfaceScalarField;
    location    "900";
    object      phi;
}
// * * * * * * * * * * * * * * * * * * * * * * * * * * * * * * * * * * * * * //

dimensions      [0 3 -1 0 0 0 0];

internalField   nonuniform List<scalar> 
268
(
0.000930604
-1.27854e-19
2.0299e-21
0.00129804
-1.85009e-19
2.30307e-20
0.00150957
-3.45039e-19
3.75928e-21
0.00164618
-3.43253e-19
-1.39026e-21
0.00174133
1.41392e-19
-4.19881e-19
0.00181109
1.89055e-19
-4.13451e-19
0.00186409
6.72221e-20
-2.4571e-19
0.00190545
1.35776e-19
-2.586e-19
0.00193844
9.193e-23
-2.22656e-19
0.00196525
3.26356e-20
-2.30066e-19
0.00198737
6.56073e-20
-1.26206e-19
0.00200585
5.30456e-20
-7.90073e-20
0.00202149
9.06937e-20
2.95767e-20
0.00203483
1.9668e-19
-5.83927e-20
0.00204631
2.14009e-19
-1.10335e-19
0.00205626
1.3012e-19
-7.76231e-20
0.00206495
1.6875e-19
-6.70751e-20
0.00207255
1.73038e-19
-5.06688e-20
0.00207925
1.9097e-19
-3.21543e-20
0.00208517
2.07113e-19
-2.20392e-20
0.00209041
2.2228e-19
1.86183e-20
0.00209507
2.34874e-19
-3.89509e-20
0.00209921
2.44742e-19
-6.49869e-20
0.0021029
2.53208e-19
-9.5484e-20
0.00210618
-1.74949e-19
-1.20701e-19
0.00210911
-1.69791e-19
-1.42465e-19
0.00211172
-1.6761e-19
-1.60403e-19
0.00211403
-1.65142e-19
-1.75572e-19
0.00211608
-1.65245e-19
-1.87728e-19
0.0021179
-1.65212e-19
-1.97464e-19
0.0021195
-1.66982e-19
-2.04871e-19
0.0021209
-1.68699e-19
-2.10309e-19
0.00212212
-1.71625e-19
-2.13803e-19
0.00212317
-1.74816e-19
-2.15549e-19
0.00212406
-1.7869e-19
-2.15717e-19
0.00212482
-1.82929e-19
-2.14355e-19
0.00212544
-1.87756e-19
-2.11758e-19
0.00212594
2.40821e-19
-2.07951e-19
0.00212633
2.35175e-19
-2.03273e-19
0.00212661
2.29475e-19
-1.97669e-19
0.0021268
2.23037e-19
-1.91486e-19
0.00212689
2.16798e-19
-1.84623e-19
0.0021269
2.09638e-19
-1.77436e-19
0.00212683
2.02937e-19
-1.69788e-19
0.00212668
1.95144e-19
-1.6203e-19
0.00212647
1.88048e-19
-1.54002e-19
0.00212619
1.79775e-19
-1.46033e-19
0.00212585
1.72393e-19
-1.37953e-19
0.00212545
1.63827e-19
-1.30064e-19
0.002125
1.56282e-19
-1.22164e-19
0.0021245
1.47624e-19
-1.14546e-19
0.00212396
1.40022e-19
-1.07041e-19
0.00212338
1.31428e-19
-9.99057e-20
0.00212276
1.2393e-19
-9.29747e-20
0.0021221
1.15625e-19
-8.64404e-20
0.00212141
1.08384e-19
-8.01379e-20
0.00212069
1.00524e-19
-7.42728e-20
0.00211994
9.36952e-20
-6.86416e-20
0.00211916
8.63751e-20
-6.33816e-20
0.00211837
7.99946e-20
-5.84078e-20
0.00211755
7.33625e-20
-5.38582e-20
0.00211672
6.75693e-20
-4.95025e-20
0.00211587
6.16786e-20
-4.55404e-20
0.002115
5.64557e-20
-4.18217e-20
0.00211413
5.12799e-20
-3.84428e-20
0.00211324
4.67281e-20
-3.52649e-20
0.00211235
4.2235e-20
-3.23777e-20
0.00211145
3.82609e-20
-2.96673e-20
0.00211054
3.4471e-20
-2.71921e-20
0.00210964
3.10882e-20
-2.49179e-20
0.00210873
2.79193e-20
-2.2826e-20
0.00210782
2.50626e-20
-2.08266e-20
0.00210692
2.24268e-20
-1.90471e-20
0.00210602
2.00131e-20
-1.73386e-20
0.00210512
1.78074e-20
-1.57311e-20
0.00210423
1.57455e-20
-1.42167e-20
0.00210334
1.39437e-20
-1.28168e-20
0.00210247
1.22185e-20
-1.14867e-20
0.0021016
1.06564e-20
-1.0254e-20
0.00210075
9.19868e-21
-9.08616e-21
0.0020999
7.94242e-21
-8.00936e-21
0.00209907
6.79791e-21
-6.92741e-21
0.00209825
5.70956e-21
-5.86075e-21
0.00209745
4.66838e-21
-4.84889e-21
0.00209667
3.68075e-21
-3.90127e-21
0.0020959
2.78769e-21
-2.99942e-21
0.00209515
1.94744e-21
-2.14027e-21
0.00209443
1.17425e-21
-1.32335e-21
0.00209371
4.72915e-22
-5.57112e-22
0.00209302
)
;

boundaryField
{
    inlet
    {
        type            cyclic;
        value           nonuniform List<scalar> 
90
(
-0.000930604
-0.00129804
-0.00150957
-0.00164618
-0.00174133
-0.00181109
-0.00186409
-0.00190545
-0.00193844
-0.00196525
-0.00198737
-0.00200585
-0.00202149
-0.00203483
-0.00204631
-0.00205626
-0.00206495
-0.00207255
-0.00207925
-0.00208517
-0.00209041
-0.00209507
-0.00209921
-0.0021029
-0.00210618
-0.00210911
-0.00211172
-0.00211403
-0.00211608
-0.0021179
-0.0021195
-0.0021209
-0.00212212
-0.00212317
-0.00212406
-0.00212482
-0.00212544
-0.00212594
-0.00212633
-0.00212661
-0.0021268
-0.00212689
-0.0021269
-0.00212683
-0.00212668
-0.00212647
-0.00212619
-0.00212585
-0.00212545
-0.002125
-0.0021245
-0.00212396
-0.00212338
-0.00212276
-0.0021221
-0.00212141
-0.00212069
-0.00211994
-0.00211916
-0.00211837
-0.00211755
-0.00211672
-0.00211587
-0.002115
-0.00211413
-0.00211324
-0.00211235
-0.00211145
-0.00211054
-0.00210964
-0.00210873
-0.00210782
-0.00210692
-0.00210602
-0.00210512
-0.00210423
-0.00210334
-0.00210247
-0.0021016
-0.00210075
-0.0020999
-0.00209907
-0.00209825
-0.00209745
-0.00209667
-0.0020959
-0.00209515
-0.00209443
-0.00209371
-0.00209302
)
;
    }
    outlet
    {
        type            cyclic;
        value           nonuniform List<scalar> 
90
(
0.000930604
0.00129804
0.00150957
0.00164618
0.00174133
0.00181109
0.00186409
0.00190545
0.00193844
0.00196525
0.00198737
0.00200585
0.00202149
0.00203483
0.00204631
0.00205626
0.00206495
0.00207255
0.00207925
0.00208517
0.00209041
0.00209507
0.00209921
0.0021029
0.00210618
0.00210911
0.00211172
0.00211403
0.00211608
0.0021179
0.0021195
0.0021209
0.00212212
0.00212317
0.00212406
0.00212482
0.00212544
0.00212594
0.00212633
0.00212661
0.0021268
0.00212689
0.0021269
0.00212683
0.00212668
0.00212647
0.00212619
0.00212585
0.00212545
0.002125
0.0021245
0.00212396
0.00212338
0.00212276
0.0021221
0.00212141
0.00212069
0.00211994
0.00211916
0.00211837
0.00211755
0.00211672
0.00211587
0.002115
0.00211413
0.00211324
0.00211235
0.00211145
0.00211054
0.00210964
0.00210873
0.00210782
0.00210692
0.00210602
0.00210512
0.00210423
0.00210334
0.00210247
0.0021016
0.00210075
0.0020999
0.00209907
0.00209825
0.00209745
0.00209667
0.0020959
0.00209515
0.00209443
0.00209371
0.00209302
)
;
    }
    bottom
    {
        type            symmetry;
        value           uniform 0;
    }
    top
    {
        type            calculated;
        value           uniform 0;
    }
    frontAndBack
    {
        type            empty;
        value           nonuniform 0();
    }
}


// ************************************************************************* //
