/*--------------------------------*- C++ -*----------------------------------*\
  =========                 |
  \\      /  F ield         | OpenFOAM: The Open Source CFD Toolbox
   \\    /   O peration     | Website:  https://openfoam.org
    \\  /    A nd           | Version:  7
     \\/     M anipulation  |
\*---------------------------------------------------------------------------*/
FoamFile
{
    version     2.0;
    format      ascii;
    class       volVectorField;
    location    "900";
    object      U;
}
// * * * * * * * * * * * * * * * * * * * * * * * * * * * * * * * * * * * * * //

dimensions      [0 1 -1 0 0 0 0];

internalField   nonuniform List<vector> 
180
(
(0.810961 -5.91981e-19 0)
(0.868138 5.63857e-20 0)
(1.17074 -2.11135e-19 0)
(1.16785 7.53489e-20 0)
(1.36596 -5.71255e-19 0)
(1.35261 1.50572e-20 0)
(1.48831 -6.9236e-19 0)
(1.47575 -2.32558e-20 0)
(1.57236 -1.52774e-19 0)
(1.56273 -4.63448e-19 0)
(1.63359 3.1039e-19 0)
(1.62691 -8.24828e-19 0)
(1.68004 2.22908e-19 0)
(1.67574 -6.40101e-19 0)
(1.71635 2.06405e-19 0)
(1.7138 -5.06579e-19 0)
(1.74542 1.29155e-19 0)
(1.74406 -4.95237e-19 0)
(1.76915 4.05671e-20 0)
(1.76855 -4.68681e-19 0)
(1.7888 9.80323e-20 0)
(1.78866 -3.58787e-19 0)
(1.8053 1.11279e-19 0)
(1.80542 -1.91621e-19 0)
(1.8193 1.48909e-19 0)
(1.81953 -2.82585e-20 0)
(1.83128 2.99135e-19 0)
(1.83155 -2.92552e-20 0)
(1.84162 4.11988e-19 0)
(1.84187 -1.64516e-19 0)
(1.85059 3.5018e-19 0)
(1.8508 -1.94331e-19 0)
(1.85843 3.00397e-19 0)
(1.85858 -1.53962e-19 0)
(1.8653 3.31204e-19 0)
(1.86539 -1.16581e-19 0)
(1.87135 3.63568e-19 0)
(1.87139 -8.39677e-20 0)
(1.8767 3.98891e-19 0)
(1.87668 -4.62497e-20 0)
(1.88144 4.30573e-19 0)
(1.88138 3.68187e-21 0)
(1.88565 4.58374e-19 0)
(1.88555 -1.57737e-20 0)
(1.88939 4.80872e-19 0)
(1.88926 -9.76668e-20 0)
(1.89272 4.98831e-19 0)
(1.89256 -1.63012e-19 0)
(1.89569 6.81634e-20 0)
(1.8955 -2.18278e-19 0)
(1.89833 -3.43359e-19 0)
(1.89813 -2.64976e-19 0)
(1.90068 -3.3625e-19 0)
(1.90046 -3.04463e-19 0)
(1.90277 -3.31717e-19 0)
(1.90254 -3.37426e-19 0)
(1.90462 -3.29339e-19 0)
(1.90438 -3.64628e-19 0)
(1.90626 -3.29612e-19 0)
(1.90601 -3.8642e-19 0)
(1.9077 -3.31441e-19 0)
(1.90744 -4.03317e-19 0)
(1.90896 -3.34974e-19 0)
(1.9087 -4.16218e-19 0)
(1.91006 -3.39609e-19 0)
(1.90979 -4.2499e-19 0)
(1.91101 -3.45824e-19 0)
(1.91073 -4.30205e-19 0)
(1.91182 -3.52933e-19 0)
(1.91153 -4.3202e-19 0)
(1.91251 -3.61023e-19 0)
(1.91221 -4.30786e-19 0)
(1.91307 -3.70154e-19 0)
(1.91276 -4.26705e-19 0)
(1.91353 5.90007e-20 0)
(1.91321 -4.20238e-19 0)
(1.91388 4.76187e-19 0)
(1.91355 -4.11663e-19 0)
(1.91414 4.64843e-19 0)
(1.9138 -4.01323e-19 0)
(1.91431 4.52694e-19 0)
(1.91397 -3.89468e-19 0)
(1.91439 4.40002e-19 0)
(1.91404 -3.76359e-19 0)
(1.9144 4.26582e-19 0)
(1.91405 -3.62256e-19 0)
(1.91434 4.12713e-19 0)
(1.91398 -3.47366e-19 0)
(1.91422 3.98187e-19 0)
(1.91384 -3.31911e-19 0)
(1.91403 3.83294e-19 0)
(1.91364 -3.1609e-19 0)
(1.91378 3.67889e-19 0)
(1.91339 -3.00044e-19 0)
(1.91348 3.52214e-19 0)
(1.91308 -2.8397e-19 0)
(1.91312 3.36253e-19 0)
(1.91272 -2.67961e-19 0)
(1.91272 3.20097e-19 0)
(1.91231 -2.52184e-19 0)
(1.91228 3.03904e-19 0)
(1.91186 -2.36588e-19 0)
(1.9118 2.87622e-19 0)
(1.91136 -2.21487e-19 0)
(1.91127 2.71392e-19 0)
(1.91084 -2.06782e-19 0)
(1.91072 2.5528e-19 0)
(1.91027 -1.9274e-19 0)
(1.91013 2.39447e-19 0)
(1.90967 -1.79259e-19 0)
(1.90951 2.23922e-19 0)
(1.90905 -1.6641e-19 0)
(1.90887 2.08754e-19 0)
(1.90839 -1.54233e-19 0)
(1.9082 1.94088e-19 0)
(1.90772 -1.42774e-19 0)
(1.9075 1.79957e-19 0)
(1.90702 -1.31877e-19 0)
(1.90679 1.66171e-19 0)
(1.90629 -1.21572e-19 0)
(1.90606 1.53224e-19 0)
(1.90556 -1.12134e-19 0)
(1.90531 1.40719e-19 0)
(1.9048 -1.0323e-19 0)
(1.90455 1.29106e-19 0)
(1.90403 -9.48476e-20 0)
(1.90378 1.17987e-19 0)
(1.90325 -8.72522e-20 0)
(1.903 1.07517e-19 0)
(1.90246 -8.00934e-20 0)
(1.9022 9.78706e-20 0)
(1.90166 -7.36244e-20 0)
(1.9014 8.88253e-20 0)
(1.90085 -6.74869e-20 0)
(1.9006 8.02972e-20 0)
(1.90003 -6.19774e-20 0)
(1.89979 7.26192e-20 0)
(1.89922 -5.67355e-20 0)
(1.89898 6.53748e-20 0)
(1.8984 -5.19935e-20 0)
(1.89816 5.8913e-20 0)
(1.89758 -4.77159e-20 0)
(1.89735 5.28195e-20 0)
(1.89675 -4.35543e-20 0)
(1.89654 4.74181e-20 0)
(1.89594 -3.97829e-20 0)
(1.89573 4.23021e-20 0)
(1.89512 -3.63781e-20 0)
(1.89493 3.77733e-20 0)
(1.89431 -3.30022e-20 0)
(1.89413 3.34393e-20 0)
(1.8935 -2.9899e-20 0)
(1.89334 2.9587e-20 0)
(1.8927 -2.69883e-20 0)
(1.89256 2.61481e-20 0)
(1.89191 -2.42617e-20 0)
(1.89178 2.27943e-20 0)
(1.89113 -2.1701e-20 0)
(1.89101 1.97829e-20 0)
(1.89035 -1.93017e-20 0)
(1.89026 1.70754e-20 0)
(1.88959 -1.7056e-20 0)
(1.88952 1.4679e-20 0)
(1.88884 -1.49698e-20 0)
(1.88879 1.25249e-20 0)
(1.8881 -1.2753e-20 0)
(1.88807 1.03361e-20 0)
(1.88737 -1.06802e-20 0)
(1.88737 8.30961e-21 0)
(1.88666 -8.72473e-21 0)
(1.88668 6.43175e-21 0)
(1.88596 -6.87872e-21 0)
(1.88601 4.70053e-21 0)
(1.88529 -5.12247e-21 0)
(1.88536 3.08769e-21 0)
(1.88463 -3.43957e-21 0)
(1.88472 1.62368e-21 0)
(1.88398 -1.86206e-21 0)
(1.8841 3.3606e-22 0)
(1.88335 -4.27343e-22 0)
)
;

boundaryField
{
    inlet
    {
        type            cyclic;
    }
    outlet
    {
        type            cyclic;
    }
    bottom
    {
        type            symmetry;
    }
    top
    {
        type            noSlip;
    }
    frontAndBack
    {
        type            empty;
    }
}


// ************************************************************************* //
