/*--------------------------------*- C++ -*----------------------------------*\
  =========                 |
  \\      /  F ield         | OpenFOAM: The Open Source CFD Toolbox
   \\    /   O peration     | Website:  https://openfoam.org
    \\  /    A nd           | Version:  7
     \\/     M anipulation  |
\*---------------------------------------------------------------------------*/
FoamFile
{
    version     2.0;
    format      ascii;
    class       volScalarField;
    location    "0.28";
    object      p;
}
// * * * * * * * * * * * * * * * * * * * * * * * * * * * * * * * * * * * * * //

dimensions      [0 2 -2 0 0 0 0];

internalField   nonuniform List<scalar> 
1600
(
7.00596e-06
-0.00117856
-0.00390817
-0.00758129
-0.0115251
-0.0152443
-0.0183812
-0.0206834
-0.0219835
-0.0221818
-0.0212326
-0.0191339
-0.0159193
-0.0116517
-0.00641832
-0.000326898
0.00649765
0.0139159
0.0217767
0.0299189
0.0381746
0.046371
0.0543339
0.0618904
0.0688728
0.0751227
0.0804954
0.084865
0.08813
0.0902188
0.0910966
0.090772
0.0893054
0.0868176
0.0835022
0.079638
0.0756053
0.0719124
0.069227
0.0681117
0.00119968
9.97665e-06
-0.00220596
-0.00505631
-0.00809787
-0.0109656
-0.0133749
-0.0151129
-0.0160294
-0.0160284
-0.01506
-0.0131126
-0.010207
-0.00639148
-0.00173704
0.00366562
0.00970939
0.0162733
0.023225
0.0304231
0.0377198
0.044963
0.0519997
0.0586785
0.0648537
0.0703885
0.0751594
0.079061
0.0820103
0.0839522
0.0848648
0.084765
0.0837147
0.0818269
0.0792721
0.0762843
0.0731654
0.0702912
0.0681085
0.0669987
0.00394416
0.00221717
-2.92304e-05
-0.00258793
-0.00521589
-0.00764336
-0.00964681
-0.0110547
-0.0117413
-0.011623
-0.0106538
-0.00882039
-0.0061382
-0.00264698
0.0015924
0.00650097
0.0119843
0.017935
0.0242348
0.0307569
0.0373683
0.0439325
0.0503117
0.0563701
0.0619769
0.0670103
0.0713609
0.0749358
0.0776632
0.0794967
0.0804196
0.0804497
0.0796433
0.0780993
0.0759618
0.0734215
0.0707185
0.0681346
0.065928
0.0643111
0.00770694
0.00509617
0.00245573
-0.000172612
-0.00272701
-0.00500762
-0.00684028
-0.00809328
-0.00866825
-0.00849845
-0.0075472
-0.00580511
-0.00328701
-2.91184e-05
0.00391359
0.00846976
0.0135538
0.0190682
0.024905
0.0309484
0.0370765
0.0431638
0.0490836
0.0547109
0.0599252
0.0646143
0.0686773
0.0720284
0.0746012
0.0763522
0.0772644
0.0773511
0.0766587
0.0752689
0.0732987
0.0708998
0.0682645
0.065608
0.0630176
0.0605495
0.0118944
0.00825511
0.00504732
0.0021674
-0.000489601
-0.00277979
-0.00457065
-0.00576758
-0.00629944
-0.00611788
-0.00519797
-0.00353672
-0.00115125
0.00192318
0.00563503
0.00991824
0.014694
0.0198722
0.0253534
0.0310305
0.0367906
0.0425168
0.048091
0.0533964
0.05832
0.0627558
0.0666083
0.0697958
0.0722536
0.0739378
0.0748281
0.0749305
0.0742794
0.0729384
0.0709985
0.0685762
0.0658252
0.0629086
0.0597561
0.0562865
0.0160807
0.0113699
0.00750209
0.00425281
0.00137096
-0.00104241
-0.00288836
-0.00410499
-0.0046465
-0.00448286
-0.00360173
-0.00200811
0.000276754
0.00321659
0.00676126
0.010848
0.0154027
0.0203409
0.0255697
0.0309885
0.036491
0.0419673
0.0473053
0.0523937
0.0571244
0.0613951
0.0651128
0.0681967
0.0705814
0.0722198
0.0730857
0.0731761
0.0725127
0.0711411
0.0691287
0.0665622
0.0635654
0.0602637
0.0564493
0.0519279
0.0199566
0.0141794
0.00960497
0.00591037
0.00271898
0.000100507
-0.00187208
-0.00316459
-0.00375396
-0.00362738
-0.0027852
-0.00124116
0.000978157
0.00383395
0.00727585
0.0112427
0.0156631
0.0204568
0.0255351
0.0308023
0.0361568
0.0414932
0.0467034
0.0516793
0.0563151
0.06051
0.0641706
0.0672147
0.0695733
0.0711941
0.0720432
0.0721075
0.0713953
0.0699356
0.0677751
0.0649761
0.061641
0.0578695
0.0533376
0.0477601
0.0232892
0.0164697
0.0111709
0.00698743
0.00343392
0.000557618
-0.00158814
-0.0029924
-0.00365195
-0.00356977
-0.00275846
-0.00124071
0.000950838
0.00377383
0.00717641
0.0110976
0.0154675
0.020208
0.0252334
0.030451
0.0357622
0.0410642
0.046251
0.0512157
0.0558526
0.06006
0.0637422
0.066813
0.0691981
0.0708377
0.0716891
0.0717279
0.0709492
0.0693668
0.0670092
0.0639194
0.0601853
0.0558909
0.0506128
0.0439915
0.0258964
0.0180618
0.0120355
0.00734068
0.00339536
0.000230773
-0.0021145
-0.00364891
-0.00438663
-0.0043449
-0.00354788
-0.00202715
0.000178206
0.00302159
0.00644873
0.0103977
0.0147989
0.0195752
0.0246424
0.0299093
0.035279
0.0406495
0.0459152
0.0509687
0.0557026
0.0600122
0.0637975
0.0669665
0.0694376
0.071142
0.0720267
0.0720553
0.0712098
0.0694897
0.0669082
0.0634926
0.0593217
0.0544714
0.0484309
0.0407774
0.0276278
0.0188
0.0120489
0.0068331
0.00248178
-0.000985221
-0.0035405
-0.00520907
-0.00602036
-0.00600464
-0.0051969
-0.00363747
-0.00137204
0.00154803
0.00506539
0.00911633
0.0136305
0.0185309
0.0237334
0.0291475
0.0346764
0.0402176
0.0456647
0.0509079
0.0558368
0.0603417
0.0643167
0.0676622
0.0702873
0.0721131
0.0730745
0.0731226
0.0722259
0.0703706
0.067556
0.0637969
0.0591674
0.05374
0.0469244
0.0382408
0.0283505
0.0185427
0.0110707
0.00533159
0.000570733
-0.00320059
-0.00596373
-0.00775822
-0.00862731
-0.00861332
-0.00776159
-0.00612099
-0.003744
-0.000687052
0.00298887
0.00721765
0.0119275
0.0170405
0.0224722
0.0281313
0.0339203
0.0397354
0.0454678
0.0510043
0.0562297
0.0610283
0.0652863
0.0688947
0.071752
0.073767
0.0748617
0.0749734
0.0740566
0.0720841
0.0690427
0.0649362
0.0598369
0.0538179
0.0462127
0.0364877
0.0279388
0.0171547
0.0089639
0.00270356
-0.00246287
-0.00653098
-0.00948939
-0.011391
-0.0122919
-0.0122461
-0.0113089
-0.0095377
-0.00699195
-0.00373346
0.000172772
0.00465776
0.00964772
0.0150633
0.0208188
0.0268219
0.0329735
0.0391675
0.0452918
0.0512289
0.0568576
0.0620546
0.066697
0.0706646
0.0738434
0.0761285
0.0774271
0.0776611
0.0767704
0.0747137
0.0714652
0.067019
0.0614471
0.0548255
0.0464118
0.0356193
0.0262675
0.0145011
0.00559071
-0.00118648
-0.00674902
-0.0110987
-0.0142307
-0.0162109
-0.0171082
-0.0169878
-0.0159154
-0.013957
-0.0111791
-0.00764934
-0.003437
0.00138569
0.00674261
0.0125526
0.0187285
0.0251764
0.0317951
0.0384758
0.0451025
0.0515524
0.0576974
0.0634054
0.0685428
0.072977
0.0765795
0.0792295
0.0808176
0.0812486
0.0804458
0.0783527
0.0749302
0.0701624
0.0641219
0.0568885
0.0476419
0.0357406
0.0232057
0.010442
0.000807979
-0.00648021
-0.0124249
-0.017034
-0.0203096
-0.0223307
-0.0231792
-0.0229324
-0.0216663
-0.0194561
-0.0163761
-0.0124997
-0.00790083
-0.00265521
0.00315852
0.00945732
0.0161524
0.0231482
0.0303412
0.0376198
0.0448636
0.0519442
0.0587256
0.0650662
0.0708201
0.0758407
0.0799831
0.0831086
0.0850884
0.0858081
0.085172
0.0831061
0.0795563
0.0744958
0.0679971
0.0601444
0.0500346
0.0369684
0.0186129
0.00482832
-0.00553656
-0.0133287
-0.0196372
-0.0244769
-0.0278574
-0.0298719
-0.0306166
-0.0301814
-0.0286538
-0.026119
-0.0226593
-0.0183544
-0.0132835
-0.00752549
-0.00116169
0.00572311
0.0130387
0.020688
0.0285655
0.0365568
0.0445373
0.0523724
0.0599183
0.0670226
0.0735263
0.0792669
0.0840813
0.0878101
0.0903027
0.0914219
0.0910499
0.0890925
0.0854774
0.0801644
0.0732252
0.0647475
0.0537388
0.0394376
0.0123358
-0.00250168
-0.013608
-0.0218955
-0.0285448
-0.0335787
-0.037016
-0.0389657
-0.03954
-0.0388433
-0.0369759
-0.0340338
-0.0301084
-0.0252863
-0.0196517
-0.0132873
-0.00627643
0.00129453
0.00933448
0.0177454
0.0264205
0.0352429
0.0440842
0.0528042
0.0612507
0.0692601
0.0766596
0.083269
0.0889047
0.0933843
0.0965314
0.0981827
0.0981938
0.096446
0.092845
0.0873337
0.0799805
0.0708752
0.0589271
0.0433074
0.00420444
-0.0117266
-0.0235878
-0.0323603
-0.0393212
-0.044504
-0.0479384
-0.0497525
-0.0500766
-0.0490321
-0.046734
-0.0432909
-0.0388039
-0.0333676
-0.0270713
-0.0200011
-0.0122424
-0.00388221
0.0049883
0.0142711
0.0238592
0.0336342
0.0434649
0.053206
0.0626972
0.071764
0.0802184
0.0878616
0.0944872
0.0998864
0.103854
0.106194
0.106733
0.105319
0.101833
0.0961942
0.0884649
0.0787343
0.0658025
0.0487674
-0.00597083
-0.0230457
-0.0356785
-0.0449221
-0.0521581
-0.0574329
-0.0607907
-0.0623822
-0.0623601
-0.0608654
-0.0580309
-0.0539795
-0.0488238
-0.0426667
-0.0356031
-0.0277223
-0.0191109
-0.00985559
-4.64469e-05
0.0102201
0.020838
0.0316894
0.0426414
0.0535449
0.0642326
0.0745191
0.0842014
0.0930605
0.100865
0.107377
0.112357
0.115573
0.116811
0.115886
0.11264
0.106966
0.0989135
0.0885672
0.0746049
0.0560442
-0.0184035
-0.0366842
-0.0501082
-0.0598047
-0.0672685
-0.0725633
-0.0757524
-0.0770143
-0.076529
-0.074462
-0.0709669
-0.0661839
-0.0602385
-0.053243
-0.045298
-0.0364957
-0.0269227
-0.0166642
-0.00580726
0.00555502
0.0173201
0.0293723
0.0415795
0.0537906
0.0658329
0.0775113
0.0886078
0.0988826
0.108078
0.115922
0.122136
0.126447
0.128594
0.128344
0.125497
0.119906
0.111602
0.10066
0.0856199
0.0654096
-0.0333361
-0.052899
-0.0671375
-0.0772615
-0.0848914
-0.0901137
-0.0930176
-0.0938167
-0.0927252
-0.0899385
-0.0856359
-0.079978
-0.0731056
-0.0651411
-0.0561911
-0.0463497
-0.0357024
-0.0243309
-0.0123172
0.00025181
0.0132796
0.0266559
0.040252
0.0539177
0.0674774
0.0807279
0.0934375
0.105346
0.116166
0.12559
0.133297
0.13896
0.142264
0.142919
0.140668
0.135313
0.126856
0.115354
0.0991881
0.0771891
-0.0510468
-0.0719877
-0.0870675
-0.0975834
-0.105297
-0.110327
-0.112797
-0.112965
-0.11109
-0.107405
-0.102119
-0.0954191
-0.0874626
-0.0783835
-0.068294
-0.0572891
-0.0454514
-0.0328566
-0.0195786
-0.00569501
0.00870726
0.0235269
0.0386427
0.0539089
0.0691504
0.0841593
0.0986919
0.112468
0.125172
0.136456
0.14595
0.153268
0.158028
0.159868
0.158459
0.153537
0.145059
0.133054
0.115718
0.0917736
-0.0718596
-0.0942997
-0.110251
-0.121108
-0.128795
-0.133473
-0.135316
-0.134641
-0.131761
-0.126957
-0.120478
-0.112539
-0.103318
-0.0929614
-0.0815859
-0.0692861
-0.0561391
-0.0422115
-0.0275655
-0.0122654
0.00361595
0.0199909
0.0367505
0.0537582
0.0708444
0.0878003
0.104374
0.120269
0.135139
0.148596
0.160214
0.16954
0.176113
0.179482
0.179225
0.174989
0.166669
0.154245
0.135701
0.109634
-0.0961578
-0.120253
-0.137111
-0.148234
-0.155741
-0.159856
-0.160819
-0.159027
-0.154864
-0.148671
-0.140745
-0.131335
-0.120642
-0.108824
-0.0960037
-0.0822711
-0.0676946
-0.0523278
-0.0362165
-0.0194069
-0.00195247
0.0160783
0.0345946
0.0534754
0.0725623
0.0916523
0.110491
0.128766
0.146108
0.162085
0.176213
0.187961
0.196773
0.202091
0.203374
0.200152
0.19223
0.179515
0.159732
0.131341
-0.124404
-0.150356
-0.168156
-0.179435
-0.18655
-0.189815
-0.189566
-0.186303
-0.180506
-0.17259
-0.162909
-0.151753
-0.13935
-0.125868
-0.11143
-0.0961216
-0.0799964
-0.0630897
-0.045426
-0.0270271
-0.00792105
0.0118495
0.0322188
0.0530888
0.0743203
0.0957232
0.117048
0.137976
0.158116
0.176996
0.194069
0.20872
0.220282
0.228066
0.23138
0.229598
0.222398
0.209575
0.188541
0.157588
-0.157171
-0.185243
-0.20402
-0.215287
-0.221709
-0.223732
-0.221827
-0.216637
-0.20876
-0.198707
-0.186902
-0.173679
-0.159292
-0.14392
-0.127683
-0.110652
-0.092863
-0.0743262
-0.0550374
-0.0349877
-0.0141723
0.0073995
0.0296951
0.0526482
0.0761482
0.100028
0.124054
0.147909
0.171189
0.193388
0.213897
0.232009
0.246932
0.257816
0.263783
0.263999
0.257961
0.245299
0.223026
0.189233
-0.195183
-0.225723
-0.245497
-0.256496
-0.261795
-0.262036
-0.257883
-0.250168
-0.239648
-0.22695
-0.212576
-0.196913
-0.180235
-0.162727
-0.1445
-0.125603
-0.106045
-0.0858033
-0.0648376
-0.0430998
-0.0205447
0.00286044
0.0271253
0.0522254
0.0780897
0.104587
0.131511
0.158562
0.185335
0.211299
0.235792
0.25801
0.277023
0.291792
0.301203
0.304153
0.299881
0.287768
0.264312
0.227341
-0.239385
-0.272849
-0.293608
-0.303941
-0.307491
-0.305198
-0.298001
-0.28699
-0.273117
-0.257151
-0.239684
-0.22115
-0.201842
-0.181939
-0.161529
-0.140632
-0.119218
-0.0972207
-0.0745545
-0.0511234
-0.0268329
-0.00159928
0.0246393
0.0519111
0.0801977
0.109418
0.13941
0.169909
0.200528
0.23073
0.25981
0.286875
0.310846
0.330469
0.344338
0.351
0.34933
0.338342
0.313829
0.273266
-0.291046
-0.328033
-0.349687
-0.358725
-0.359608
-0.353729
-0.342421
-0.327109
-0.308997
-0.289013
-0.267842
-0.245958
-0.223657
-0.201095
-0.178322
-0.155313
-0.131983
-0.108213
-0.0838598
-0.0587708
-0.0327924
-0.00578076
0.0223884
0.0518079
0.0825257
0.114527
0.147716
0.181885
0.21669
0.251616
0.285939
0.318693
0.348654
0.374327
0.393959
0.405643
0.40775
0.398743
0.37343
0.328763
-0.351923
-0.393207
-0.415505
-0.422238
-0.419095
-0.408155
-0.3913
-0.3704
-0.346954
-0.322065
-0.296499
-0.270748
-0.245082
-0.219613
-0.194327
-0.169129
-0.143869
-0.118355
-0.0923784
-0.0657176
-0.0381515
-0.0094668
0.0205329
0.0520168
0.0851137
0.119895
0.15635
0.194361
0.233661
0.273793
0.314054
0.353443
0.390608
0.423808
0.450886
0.469362
0.47692
0.471196
0.445568
0.396163
-0.424537
-0.47109
-0.493444
-0.496238
-0.487038
-0.46896
-0.444647
-0.416522
-0.38642
-0.355605
-0.324892
-0.294745
-0.265369
-0.236787
-0.20889
-0.181491
-0.154346
-0.127182
-0.0997061
-0.0716213
-0.04263
-0.0124415
0.0192219
0.0526165
0.0879663
0.125447
0.165162
0.207114
0.251158
0.296947
0.34386
0.39092
0.436701
0.479237
0.515932
0.543609
0.559024
0.558601
0.533571
0.478675
-0.512655
-0.565597
-0.586742
-0.582911
-0.56461
-0.536486
-0.502191
-0.464804
-0.426493
-0.38863
-0.352001
-0.316969
-0.283606
-0.251789
-0.221276
-0.191749
-0.162853
-0.134209
-0.105436
-0.0761491
-0.0459677
-0.0145177
0.0185662
0.0536364
0.0910248
0.13103
0.173897
0.219785
0.268725
0.320548
0.374802
0.430629
0.48663
0.54069
0.589791
0.62995
0.656728
0.664783
0.642076
0.580898
-0.622145
-0.682496
-0.6998
-0.684911
-0.652938
-0.610729
-0.563185
-0.514078
-0.465821
-0.419757
-0.376508
-0.336216
-0.298723
-0.263692
-0.230688
-0.19923
-0.168824
-0.138975
-0.109196
-0.0790131
-0.0479578
-0.0155703
0.0186058
0.0550243
0.0941342
0.136373
0.182153
0.231832
0.285673
0.343772
0.405957
0.471639
0.53961
0.60778
0.672821
0.729927
0.773195
0.794812
0.777715
0.709744
-0.762622
-0.830466
-0.838557
-0.805267
-0.752815
-0.691003
-0.626111
-0.562458
-0.502451
-0.447143
-0.396765
-0.351064
-0.309523
-0.271501
-0.236315
-0.203282
-0.171745
-0.14108
-0.110692
-0.0800115
-0.0484868
-0.0155732
0.019275
0.0566128
0.0970106
0.141056
0.189347
0.242481
0.301014
0.365405
0.435904
0.512391
0.594116
0.679321
0.764678
0.844729
0.911986
0.955364
0.950206
0.876199
-0.950775
-1.02277
-1.01074
-0.946956
-0.864051
-0.775339
-0.688213
-0.607032
-0.533661
-0.46841
-0.410782
-0.359896
-0.314723
-0.274219
-0.237394
-0.203333
-0.171203
-0.140242
-0.109751
-0.0790703
-0.0475709
-0.0146324
0.0203721
0.058092
0.0992147
0.144479
0.194683
0.250689
0.313406
0.383752
0.462568
0.550459
0.647508
0.752806
0.863637
0.974485
1.07657
1.15496
1.17408
1.09889
-1.21711
-1.27971
-1.22549
-1.11153
-0.984066
-0.859369
-0.744752
-0.643428
-0.55574
-0.480569
-0.416238
-0.360957
-0.313025
-0.27091
-0.233274
-0.198953
-0.166938
-0.136339
-0.106362
-0.0762749
-0.0453845
-0.0130105
0.0215387
0.0589909
0.100136
0.145852
0.197133
0.255116
0.3211
0.396547
0.483053
0.582239
0.695511
0.82356
0.965371
1.11671
1.26883
1.40346
1.47113
1.41115
-1.61764
-1.63094
-1.4915
-1.29671
-1.10589
-0.935007
-0.788315
-0.665549
-0.563986
-0.480143
-0.410643
-0.352518
-0.303268
-0.260831
-0.223517
-0.189929
-0.158904
-0.129451
-0.100707
-0.0718895
-0.0422672
-0.0111235
0.0222731
0.0587029
0.0990301
0.144244
0.195505
0.254206
0.32203
0.401026
0.493663
0.602853
0.731867
0.883983
1.06156
1.26423
1.4865
1.71006
1.87238
1.87265
-2.2544
-2.11586
-1.81359
-1.49443
-1.21742
-0.990516
-0.809419
-0.666457
-0.553629
-0.464017
-0.392071
-0.333474
-0.284905
-0.243805
-0.208188
-0.176483
-0.147426
-0.11997
-0.0932192
-0.0663784
-0.0387084
-0.00948809
0.0220223
0.0566198
0.0952022
0.138821
0.188751
0.246573
0.314296
0.394508
0.490572
0.606863
0.748996
0.923951
1.13978
1.40421
1.72095
2.0794
2.41783
2.58902
-3.35614
-2.78296
-2.17273
-1.67591
-1.2926
-1.00574
-0.79416
-0.637284
-0.519338
-0.429181
-0.35898
-0.303188
-0.257843
-0.220062
-0.187705
-0.159137
-0.133079
-0.108492
-0.0845038
-0.0603459
-0.0353103
-0.00870729
0.0201725
0.0520993
0.0879514
0.128775
0.175867
0.230884
0.296007
0.374181
0.469465
0.58756
0.736543
0.92791
1.17799
1.50837
1.94106
2.49112
3.15773
3.79466
-5.52259
-3.65931
-2.43085
-1.71435
-1.24188
-0.921873
-0.704915
-0.554007
-0.445522
-0.365233
-0.304206
-0.256586
-0.218416
-0.186931
-0.160136
-0.136541
-0.114991
-0.0945602
-0.0744726
-0.0540505
-0.0326692
-0.00972075
0.015421
0.0434376
0.0751102
0.111376
0.153409
0.20273
0.261384
0.332213
0.419298
0.528705
0.669718
0.857123
1.11547
1.484
2.01615
2.80529
4.12187
6.09344
-9.21004
-4.51834
-2.30603
-1.42124
-0.958919
-0.68287
-0.512228
-0.400567
-0.322907
-0.266412
-0.223891
-0.190914
-0.164573
-0.142857
-0.124313
-0.10784
-0.092581
-0.0778365
-0.0630167
-0.0476004
-0.0311048
-0.0130589
0.00702212
0.029664
0.0554654
0.0851392
0.119569
0.159894
0.207633
0.264898
0.334748
0.421848
0.533745
0.683724
0.897415
1.22408
1.75395
2.73304
5.06019
9.8724
)
;

boundaryField
{
    movingWall
    {
        type            zeroGradient;
    }
    fixedWalls
    {
        type            zeroGradient;
    }
    frontAndBack
    {
        type            empty;
    }
}


// ************************************************************************* //
