/*--------------------------------*- C++ -*----------------------------------*\
  =========                 |
  \\      /  F ield         | OpenFOAM: The Open Source CFD Toolbox
   \\    /   O peration     | Website:  https://openfoam.org
    \\  /    A nd           | Version:  7
     \\/     M anipulation  |
\*---------------------------------------------------------------------------*/
FoamFile
{
    version     2.0;
    format      ascii;
    class       surfaceScalarField;
    location    "0.28";
    object      phi;
}
// * * * * * * * * * * * * * * * * * * * * * * * * * * * * * * * * * * * * * //

dimensions      [0 3 -1 0 0 0 0];

internalField   nonuniform List<scalar> 
3120
(
2.53406e-09
-2.54928e-09
4.09574e-09
-1.56169e-09
2.25262e-09
1.84314e-09
-3.55356e-09
5.80614e-09
-1.31339e-08
9.58022e-09
-2.59797e-08
1.28458e-08
-4.14517e-08
1.5472e-08
-5.88735e-08
1.74219e-08
-7.75777e-08
1.87042e-08
-9.69276e-08
1.93499e-08
-1.16329e-07
1.94014e-08
-1.35236e-07
1.8907e-08
-1.53154e-07
1.79179e-08
-1.69641e-07
1.64868e-08
-1.84307e-07
1.46669e-08
-1.9682e-07
1.2512e-08
-2.06896e-07
1.00764e-08
-2.14311e-07
7.41508e-09
-2.18895e-07
4.58422e-09
-2.20537e-07
1.6417e-09
-2.19184e-07
-1.35267e-09
-2.14847e-07
-4.3368e-09
-2.07601e-07
-7.24627e-09
-1.97587e-07
-1.00145e-08
-1.85013e-07
-1.2573e-08
-1.70161e-07
-1.48525e-08
-1.53378e-07
-1.67832e-08
-1.35081e-07
-1.8297e-08
-1.15753e-07
-1.9328e-08
-9.59372e-08
-1.98154e-08
-7.62322e-08
-1.97049e-08
-5.72805e-08
-1.89517e-08
-3.97563e-08
-1.75242e-08
-2.43472e-08
-1.54091e-08
-1.17253e-08
-1.26219e-08
-2.49633e-09
-9.22876e-09
2.89617e-09
-5.39223e-09
4.35793e-09
-1.46161e-09
2.56133e-09
1.79643e-09
2.56099e-09
1.61457e-09
-4.16383e-09
-1.17401e-09
1.22687e-09
-1.17158e-08
1.23849e-08
-3.10709e-08
2.51611e-08
-5.90377e-08
3.75469e-08
-9.46728e-08
4.84807e-08
-1.36627e-07
5.74263e-08
-1.83362e-07
6.41562e-08
-2.33277e-07
6.86192e-08
-2.84792e-07
7.08648e-08
-3.36393e-07
7.10024e-08
-3.86663e-07
6.91773e-08
-4.34302e-07
6.55565e-08
-4.78135e-07
6.03203e-08
-5.17126e-07
5.36573e-08
-5.50375e-07
4.57618e-08
-5.77132e-07
3.68329e-08
-5.96792e-07
2.70748e-08
-6.08904e-07
1.66967e-08
-6.13177e-07
5.91461e-09
-6.09481e-07
-5.04884e-09
-5.97854e-07
-1.59634e-08
-5.78509e-07
-2.65913e-08
-5.51835e-07
-3.66887e-08
-5.18401e-07
-4.60069e-08
-4.78958e-07
-5.42953e-08
-4.34435e-07
-6.13056e-08
-3.85935e-07
-6.67969e-08
-3.34721e-07
-7.05417e-08
-2.82203e-07
-7.2334e-08
-2.29909e-07
-7.19984e-08
-1.79458e-07
-6.94024e-08
-1.3251e-07
-6.44717e-08
-9.07049e-08
-5.72141e-08
-5.55694e-08
-4.77573e-08
-2.83803e-08
-3.64178e-08
-9.9485e-09
-2.38239e-08
-2.9315e-10
-1.11165e-08
1.85427e-09
-3.50524e-10
4.41507e-09
-1.66849e-09
-2.49526e-09
-1.21165e-08
1.1675e-08
-3.40867e-08
3.4355e-08
-6.84413e-08
5.95156e-08
-1.14767e-07
8.38724e-08
-1.71778e-07
1.05492e-07
-2.37642e-07
1.2329e-07
-3.10221e-07
1.36736e-07
-3.87249e-07
1.45647e-07
-4.6644e-07
1.50056e-07
-5.45575e-07
1.50138e-07
-6.22553e-07
1.46155e-07
-6.95428e-07
1.38431e-07
-7.62432e-07
1.27325e-07
-8.21997e-07
1.13222e-07
-8.72761e-07
9.65255e-08
-9.13582e-07
7.76539e-08
-9.43544e-07
5.70377e-08
-9.61969e-07
3.51209e-08
-9.68415e-07
1.23614e-08
-9.62695e-07
-1.07686e-08
-9.44877e-07
-3.37819e-08
-9.1529e-07
-5.61777e-08
-8.74536e-07
-7.74435e-08
-8.23483e-07
-9.70598e-08
-7.63272e-07
-1.14506e-07
-6.95307e-07
-1.2927e-07
-6.21244e-07
-1.40859e-07
-5.42973e-07
-1.48813e-07
-4.62583e-07
-1.52724e-07
-3.82328e-07
-1.52253e-07
-3.04567e-07
-1.47163e-07
-2.31692e-07
-1.37346e-07
-1.66027e-07
-1.22879e-07
-1.09696e-07
-1.04088e-07
-6.44412e-08
-8.16726e-08
-3.138e-08
-5.68853e-08
-1.06903e-08
-3.18063e-08
-1.23895e-09
-9.80165e-09
3.17612e-09
-5.56846e-09
3.07329e-09
-2.49755e-08
3.10822e-08
-5.96787e-08
6.90582e-08
-1.09854e-07
1.09691e-07
-1.7461e-07
1.48629e-07
-2.52242e-07
1.83123e-07
-3.40476e-07
2.11525e-07
-4.36697e-07
2.32957e-07
-5.38114e-07
2.47064e-07
-6.419e-07
2.53842e-07
-7.45285e-07
2.53522e-07
-8.45629e-07
2.46499e-07
-9.40471e-07
2.33273e-07
-1.02757e-06
2.14423e-07
-1.10492e-06
1.90577e-07
-1.1708e-06
1.624e-07
-1.22373e-06
1.30589e-07
-1.26256e-06
9.5864e-08
-1.28641e-06
5.89705e-08
-1.29472e-06
2.0677e-08
-1.28727e-06
-1.82235e-08
-1.26414e-06
-5.69148e-08
-1.22576e-06
-9.45591e-08
-1.1729e-06
-1.30302e-07
-1.10668e-06
-1.63281e-07
-1.02855e-06
-1.92635e-07
-9.40298e-07
-2.1752e-07
-8.44027e-07
-2.37129e-07
-7.42122e-07
-2.50719e-07
-6.37213e-07
-2.57633e-07
-5.3212e-07
-2.57346e-07
-4.29782e-07
-2.49501e-07
-3.3316e-07
-2.33968e-07
-2.45118e-07
-2.10922e-07
-1.68267e-07
-1.80939e-07
-1.04786e-07
-1.45153e-07
-5.61915e-08
-1.0548e-07
-2.30983e-08
-6.48998e-08
-4.98594e-09
-2.79141e-08
-1.80977e-09
-9.46769e-09
1.2541e-08
-3.81704e-08
5.97851e-08
-8.60671e-08
1.16955e-07
-1.52372e-07
1.75995e-07
-2.35516e-07
2.31773e-07
-3.33261e-07
2.80869e-07
-4.42869e-07
3.21133e-07
-5.61275e-07
3.51363e-07
-6.85243e-07
3.71032e-07
-8.11494e-07
3.80093e-07
-9.36814e-07
3.78842e-07
-1.05813e-06
3.67814e-07
-1.17257e-06
3.47713e-07
-1.27751e-06
3.19362e-07
-1.3706e-06
2.83671e-07
-1.44981e-06
2.41611e-07
-1.51343e-06
1.94202e-07
-1.56007e-06
1.42505e-07
-1.58872e-06
8.76186e-08
-1.59872e-06
3.06787e-08
-1.5898e-06
-2.71449e-08
-1.56206e-06
-8.46485e-08
-1.51602e-06
-1.40599e-07
-1.45258e-06
-1.93743e-07
-1.37305e-06
-2.42814e-07
-1.27913e-06
-2.86554e-07
-1.17291e-06
-3.23735e-07
-1.05686e-06
-3.53186e-07
-9.33741e-07
-3.73835e-07
-8.06631e-07
-3.84744e-07
-6.78806e-07
-3.85171e-07
-5.5368e-07
-3.74627e-07
-4.34691e-07
-3.52956e-07
-3.25177e-07
-3.20436e-07
-2.28215e-07
-2.779e-07
-1.46456e-07
-2.26912e-07
-8.19359e-08
-1.69999e-07
-3.5912e-08
-1.10924e-07
-8.75503e-09
-5.50712e-08
-1.05648e-08
-1.31614e-08
2.57025e-08
-5.10226e-08
9.76465e-08
-1.12082e-07
1.78014e-07
-1.9448e-07
2.58394e-07
-2.95844e-07
3.33136e-07
-4.13308e-07
3.98332e-07
-5.43613e-07
4.51438e-07
-6.83236e-07
4.90986e-07
-8.28519e-07
5.16314e-07
-9.75784e-07
5.27359e-07
-1.12144e-06
5.24495e-07
-1.26204e-06
5.08421e-07
-1.3944e-06
4.80068e-07
-1.51557e-06
4.40532e-07
-1.62293e-06
3.91034e-07
-1.7142e-06
3.32886e-07
-1.78747e-06
2.67469e-07
-1.84119e-06
1.96226e-07
-1.87422e-06
1.2065e-07
-1.88583e-06
4.22867e-08
-1.8757e-06
-3.72734e-08
-1.84396e-06
-1.16394e-07
-1.79116e-06
-1.93401e-07
-1.71831e-06
-2.66593e-07
-1.62686e-06
-3.34257e-07
-1.51873e-06
-3.94691e-07
-1.39622e-06
-4.46236e-07
-1.2621e-06
-4.87316e-07
-1.11944e-06
-5.16486e-07
-9.71692e-07
-5.32496e-07
-8.22511e-07
-5.34352e-07
-6.75726e-07
-5.21411e-07
-5.35215e-07
-4.93468e-07
-4.0477e-07
-4.50881e-07
-2.87958e-07
-3.94712e-07
-1.87964e-07
-3.26906e-07
-1.07451e-07
-2.50512e-07
-4.84488e-08
-1.69926e-07
-1.23352e-08
-9.11849e-08
-2.29001e-08
-1.66094e-08
4.23119e-08
-6.33059e-08
1.44343e-07
-1.3726e-07
2.51969e-07
-2.35528e-07
3.56662e-07
-3.54868e-07
4.52476e-07
-4.91715e-07
5.35179e-07
-6.42238e-07
6.01961e-07
-8.02428e-07
6.51177e-07
-9.68203e-07
6.82089e-07
-1.13551e-06
6.94663e-07
-1.3004e-06
6.89391e-07
-1.45914e-06
6.67164e-07
-1.60824e-06
6.29167e-07
-1.74452e-06
5.76803e-07
-1.86511e-06
5.11632e-07
-1.96756e-06
4.35334e-07
-2.04978e-06
3.49687e-07
-2.11009e-06
2.56541e-07
-2.14726e-06
1.5782e-07
-2.16049e-06
5.55078e-08
-2.14941e-06
-4.83489e-08
-2.11416e-06
-1.51648e-07
-2.05532e-06
-2.52241e-07
-1.97397e-06
-3.47941e-07
-1.87168e-06
-4.36549e-07
-1.75048e-06
-5.15883e-07
-1.61291e-06
-5.83813e-07
-1.46191e-06
-6.38316e-07
-1.30086e-06
-6.77538e-07
-1.13348e-06
-6.99869e-07
-9.63805e-07
-7.0403e-07
-7.96035e-07
-6.8918e-07
-6.34476e-07
-6.55027e-07
-4.83394e-07
-6.01963e-07
-3.46884e-07
-5.31223e-07
-2.28735e-07
-4.45055e-07
-1.32313e-07
-3.46934e-07
-6.04968e-08
-2.41742e-07
-1.56879e-08
-1.35994e-07
-3.8588e-08
-1.98406e-08
6.21525e-08
-7.50242e-08
1.99527e-07
-1.61538e-07
3.38482e-07
-2.75387e-07
4.70511e-07
-4.12437e-07
5.89526e-07
-5.68383e-07
6.91124e-07
-7.38775e-07
7.72353e-07
-9.19088e-07
8.3149e-07
-1.1048e-06
8.67804e-07
-1.29149e-06
8.8135e-07
-1.47489e-06
8.72789e-07
-1.65097e-06
8.43248e-07
-1.81601e-06
7.94204e-07
-1.9666e-06
7.27394e-07
-2.09972e-06
6.4475e-07
-2.21273e-06
5.4835e-07
-2.30343e-06
4.40388e-07
-2.37004e-06
3.23151e-07
-2.41124e-06
1.99012e-07
-2.42615e-06
7.04207e-08
-2.4144e-06
-6.01007e-08
-2.37608e-06
-1.8996e-07
-2.31182e-06
-3.16506e-07
-2.22272e-06
-4.37044e-07
-2.11041e-06
-5.48857e-07
-1.97704e-06
-6.49248e-07
-1.82528e-06
-7.35579e-07
-1.65825e-06
-8.0534e-07
-1.47957e-06
-8.56223e-07
-1.29322e-06
-8.86214e-07
-1.10356e-06
-8.93696e-07
-9.15163e-07
-8.77575e-07
-7.32778e-07
-8.37412e-07
-5.61169e-07
-7.73571e-07
-4.0501e-07
-6.87382e-07
-2.6875e-07
-5.81315e-07
-1.56525e-07
-4.59159e-07
-7.20904e-08
-3.26177e-07
-1.88497e-08
-1.89235e-07
-5.74377e-08
-2.29075e-08
8.506e-08
-8.62832e-08
2.62903e-07
-1.8505e-07
4.37249e-07
-3.14208e-07
5.99669e-07
-4.6873e-07
7.44049e-07
-6.43543e-07
8.65937e-07
-8.33548e-07
9.62358e-07
-1.03368e-06
1.03162e-06
-1.23895e-06
1.07308e-06
-1.44457e-06
1.08697e-06
-1.64596e-06
1.07418e-06
-1.83883e-06
1.03612e-06
-2.01923e-06
9.74606e-07
-2.18359e-06
8.91752e-07
-2.32873e-06
7.89888e-07
-2.45189e-06
6.71517e-07
-2.55077e-06
5.39269e-07
-2.62351e-06
3.95888e-07
-2.66871e-06
2.4421e-07
-2.68545e-06
8.71627e-08
-2.67331e-06
-7.2239e-08
-2.63237e-06
-2.30899e-07
-2.56323e-06
-3.8565e-07
-2.46701e-06
-5.33264e-07
-2.34538e-06
-6.70486e-07
-2.20056e-06
-7.94072e-07
-2.03529e-06
-9.00844e-07
-1.85287e-06
-9.8776e-07
-1.65708e-06
-1.05201e-06
-1.45218e-06
-1.09112e-06
-1.2428e-06
-1.10307e-06
-1.03393e-06
-1.08644e-06
-8.30761e-07
-1.04058e-06
-6.3859e-07
-9.65743e-07
-4.62715e-07
-8.63257e-07
-3.08307e-07
-7.35723e-07
-1.80309e-07
-5.87158e-07
-8.33781e-08
-4.23107e-07
-2.1885e-08
-2.50728e-07
-7.93227e-08
-2.58658e-08
1.10926e-07
-9.72243e-08
3.34261e-07
-2.08016e-07
5.48041e-07
-3.52275e-07
7.43928e-07
-5.24089e-07
9.15862e-07
-7.17598e-07
1.05945e-06
-9.2703e-07
1.17179e-06
-1.14675e-06
1.25133e-06
-1.37131e-06
1.29764e-06
-1.59553e-06
1.31119e-06
-1.81451e-06
1.29317e-06
-2.02375e-06
1.24535e-06
-2.21908e-06
1.16994e-06
-2.39678e-06
1.06946e-06
-2.55357e-06
9.46671e-07
-2.68658e-06
8.04531e-07
-2.79344e-06
6.46127e-07
-2.87221e-06
4.74665e-07
-2.92146e-06
2.93458e-07
-2.94022e-06
1.05917e-07
-2.92801e-06
-8.44478e-08
-2.88488e-06
-2.74031e-07
-2.81139e-06
-4.59137e-07
-2.70866e-06
-6.35997e-07
-2.57835e-06
-8.00797e-07
-2.4227e-06
-9.49721e-07
-2.24453e-06
-1.07901e-06
-2.04723e-06
-1.18506e-06
-1.83475e-06
-1.26449e-06
-1.61156e-06
-1.3143e-06
-1.38263e-06
-1.332e-06
-1.1533e-06
-1.31577e-06
-9.2925e-07
-1.26464e-06
-7.16352e-07
-1.17864e-06
-5.20576e-07
-1.05903e-06
-3.47856e-07
-9.08442e-07
-2.0399e-07
-7.31024e-07
-9.45538e-08
-5.32544e-07
-2.4865e-08
-3.20417e-07
-1.04188e-07
-2.87677e-08
1.39694e-07
-1.07994e-07
4.13488e-07
-2.30682e-07
6.70729e-07
-3.89925e-07
9.0317e-07
-5.78921e-07
1.10486e-06
-7.91014e-07
1.27154e-06
-1.01974e-06
1.40051e-06
-1.25887e-06
1.49046e-06
-1.50248e-06
1.54126e-06
-1.745e-06
1.55371e-06
-1.98126e-06
1.52942e-06
-2.20647e-06
1.47057e-06
-2.41634e-06
1.37981e-06
-2.60702e-06
1.26013e-06
-2.77511e-06
1.11476e-06
-2.91771e-06
9.47132e-07
-3.03238e-06
7.60796e-07
-3.11715e-06
5.59436e-07
-3.17053e-06
3.4684e-07
-3.19152e-06
1.26901e-07
-3.17959e-06
-9.63807e-08
-3.13473e-06
-3.18891e-07
-3.05745e-06
-5.3641e-07
-2.94883e-06
-7.44621e-07
-2.81049e-06
-9.39138e-07
-2.64465e-06
-1.11555e-06
-2.45417e-06
-1.2695e-06
-2.24249e-06
-1.39674e-06
-2.01371e-06
-1.49328e-06
-1.77249e-06
-1.55552e-06
-1.52408e-06
-1.58041e-06
-1.27424e-06
-1.56562e-06
-1.02913e-06
-1.50975e-06
-7.95239e-07
-1.41253e-06
-5.79251e-07
-1.27502e-06
-3.87918e-07
-1.09978e-06
-2.27934e-07
-8.91008e-07
-1.05823e-07
-6.54654e-07
-2.78589e-08
-3.98381e-07
-1.32047e-07
-3.16594e-08
1.71353e-07
-1.18731e-07
5.0056e-07
-2.53292e-07
8.0529e-07
-4.27493e-07
1.07737e-06
-6.33637e-07
1.311e-06
-8.64252e-07
1.50215e-06
-1.11216e-06
1.64842e-06
-1.37053e-06
1.74884e-06
-1.63296e-06
1.80368e-06
-1.89348e-06
1.81423e-06
-2.14663e-06
1.78256e-06
-2.38742e-06
1.71136e-06
-2.6114e-06
1.60379e-06
-2.81464e-06
1.46336e-06
-2.99368e-06
1.2938e-06
-3.14558e-06
1.09903e-06
-3.26788e-06
8.83096e-07
-3.35859e-06
6.50147e-07
-3.41619e-06
4.04444e-07
-3.43964e-06
1.50349e-07
-3.42836e-06
-1.07658e-07
-3.38228e-06
-3.6497e-07
-3.30184e-06
-6.16853e-07
-3.18802e-06
-8.58444e-07
-3.04237e-06
-1.08478e-06
-2.86708e-06
-1.29085e-06
-2.66495e-06
-1.47163e-06
-2.43948e-06
-1.62221e-06
-2.19482e-06
-1.73793e-06
-1.93585e-06
-1.81449e-06
-1.66809e-06
-1.84817e-06
-1.39767e-06
-1.83604e-06
-1.13127e-06
-1.77614e-06
-8.76043e-07
-1.66776e-06
-6.39419e-07
-1.51165e-06
-4.29025e-07
-1.31017e-06
-2.52508e-07
-1.06752e-06
-1.1739e-07
-7.89772e-07
-3.09319e-08
-4.84839e-07
-1.62978e-07
-3.4581e-08
2.05934e-07
-1.29561e-07
5.9554e-07
-2.76069e-07
9.51798e-07
-4.65295e-07
1.2666e-06
-6.8862e-07
1.53433e-06
-9.37734e-07
1.75127e-06
-1.20472e-06
1.91541e-06
-1.48214e-06
2.02626e-06
-1.76309e-06
2.08463e-06
-2.04122e-06
2.09236e-06
-2.31079e-06
2.05213e-06
-2.56664e-06
1.96721e-06
-2.8042e-06
1.84136e-06
-3.01947e-06
1.67863e-06
-3.20899e-06
1.48332e-06
-3.36981e-06
1.25986e-06
-3.49949e-06
1.01277e-06
-3.59604e-06
7.46695e-07
-3.65793e-06
4.66333e-07
-3.68408e-06
1.76501e-07
-3.67387e-06
-1.17868e-07
-3.62714e-06
-4.11698e-07
-3.54424e-06
-6.99759e-07
-3.42602e-06
-9.7666e-07
-3.27394e-06
-1.23687e-06
-3.09005e-06
-1.47473e-06
-2.87711e-06
-1.68457e-06
-2.63856e-06
-1.86076e-06
-2.37863e-06
-1.99786e-06
-2.10232e-06
-2.09081e-06
-1.81539e-06
-2.1351e-06
-1.52437e-06
-2.12705e-06
-1.23648e-06
-2.06403e-06
-9.59514e-07
-1.94473e-06
-7.01734e-07
-1.76943e-06
-4.71696e-07
-1.54021e-06
-2.78071e-07
-1.26115e-06
-1.29447e-07
-9.38396e-07
-3.41445e-08
-5.80142e-07
-1.97123e-07
-3.7568e-08
2.43502e-07
-1.40596e-07
6.98568e-07
-2.99218e-07
1.11042e-06
-5.03617e-07
1.47099e-06
-7.44211e-07
1.77492e-06
-1.01181e-06
2.01887e-06
-1.29775e-06
2.20134e-06
-1.59395e-06
2.32246e-06
-1.89301e-06
2.38369e-06
-2.18822e-06
2.38757e-06
-2.47358e-06
2.33748e-06
-2.74378e-06
2.23741e-06
-2.99419e-06
2.09177e-06
-3.22079e-06
1.90523e-06
-3.42015e-06
1.68268e-06
-3.58937e-06
1.42908e-06
-3.72604e-06
1.14945e-06
-3.82823e-06
8.4888e-07
-3.89441e-06
5.32513e-07
-3.92349e-06
2.05579e-07
-3.91479e-06
-1.26571e-07
-3.86805e-06
-4.5843e-07
-3.78351e-06
-7.84307e-07
-3.66186e-06
-1.09831e-06
-3.50439e-06
-1.39433e-06
-3.31301e-06
-1.66611e-06
-3.09031e-06
-1.90727e-06
-2.83966e-06
-2.1114e-06
-2.56527e-06
-2.27225e-06
-2.27222e-06
-2.38386e-06
-1.96649e-06
-2.44083e-06
-1.65498e-06
-2.43856e-06
-1.34542e-06
-2.37359e-06
-1.04632e-06
-2.24383e-06
-7.66802e-07
-2.04895e-06
-5.1642e-07
-1.79059e-06
-3.0496e-07
-1.47261e-06
-1.42177e-07
-1.10118e-06
-3.75529e-08
-6.84767e-07
-2.34676e-07
-4.06522e-08
2.84154e-07
-1.5194e-07
8.09855e-07
-3.22927e-07
1.28141e-06
-5.42715e-07
1.69078e-06
-8.00703e-07
2.03291e-06
-1.08678e-06
2.30495e-06
-1.39147e-06
2.50604e-06
-1.70606e-06
2.63705e-06
-2.02266e-06
2.70028e-06
-2.3342e-06
2.69911e-06
-2.63448e-06
2.63776e-06
-2.91808e-06
2.52101e-06
-3.18034e-06
2.35403e-06
-3.4173e-06
2.14219e-06
-3.6256e-06
1.89099e-06
-3.80246e-06
1.60594e-06
-3.94556e-06
1.29255e-06
-4.05304e-06
9.56359e-07
-4.12342e-06
6.02897e-07
-4.15561e-06
2.37768e-07
-4.14888e-06
-1.33308e-07
-4.10286e-06
-5.04444e-07
-4.01763e-06
-8.69537e-07
-3.89371e-06
-1.22223e-06
-3.73216e-06
-1.55589e-06
-3.53464e-06
-1.86363e-06
-3.30356e-06
-2.13835e-06
-3.04211e-06
-2.37286e-06
-2.75439e-06
-2.55997e-06
-2.44551e-06
-2.69275e-06
-2.1216e-06
-2.76473e-06
-1.78989e-06
-2.77028e-06
-1.45863e-06
-2.70485e-06
-1.13704e-06
-2.56542e-06
-8.35166e-07
-2.35082e-06
-5.63651e-07
-2.0621e-06
-3.33496e-07
-1.70276e-06
-1.55755e-07
-1.27892e-06
-4.12109e-08
-7.99311e-07
-2.75887e-07
-4.38642e-08
3.28018e-07
-1.63691e-07
9.29683e-07
-3.4737e-07
1.46509e-06
-5.82826e-07
1.92624e-06
-8.5835e-07
2.30843e-06
-1.16284e-06
2.60944e-06
-1.48599e-06
2.82918e-06
-1.81842e-06
2.96948e-06
-2.15174e-06
3.03361e-06
-2.4786e-06
3.02597e-06
-2.79259e-06
2.95175e-06
-3.08827e-06
2.81669e-06
-3.36103e-06
2.62679e-06
-3.60702e-06
2.38818e-06
-3.82305e-06
2.10702e-06
-4.00649e-06
1.78938e-06
-4.1552e-06
1.44126e-06
-4.26743e-06
1.06859e-06
-4.3418e-06
6.77259e-07
-4.37721e-06
2.73184e-07
-4.37291e-06
-1.37613e-07
-4.32841e-06
-5.48936e-07
-4.24362e-06
-9.54332e-07
-4.11881e-06
-1.34704e-06
-3.95476e-06
-1.71994e-06
-3.75284e-06
-2.06555e-06
-3.51514e-06
-2.37606e-06
-3.24459e-06
-2.64341e-06
-2.94509e-06
-2.85946e-06
-2.62168e-06
-3.01616e-06
-2.28056e-06
-3.10585e-06
-1.92923e-06
-3.12161e-06
-1.57643e-06
-3.05764e-06
-1.23212e-06
-2.90973e-06
-9.073e-07
-2.67564e-06
-6.13802e-07
-2.3556e-06
-3.63981e-07
-1.95259e-06
-1.70348e-07
-1.47255e-06
-4.51704e-08
-9.24488e-07
-3.21057e-07
-4.72357e-08
3.75254e-07
-1.75952e-07
1.0584e-06
-3.72727e-07
1.66186e-06
-6.24179e-07
2.17769e-06
-9.17378e-07
2.60163e-06
-1.24015e-06
2.93221e-06
-1.5813e-06
3.17034e-06
-1.93077e-06
3.31896e-06
-2.27971e-06
3.38255e-06
-2.62047e-06
3.36673e-06
-2.94657e-06
3.27785e-06
-3.25257e-06
3.12269e-06
-3.53403e-06
2.90824e-06
-3.78729e-06
2.64144e-06
-4.00941e-06
2.32914e-06
-4.19801e-06
1.97799e-06
-4.35119e-06
1.59444e-06
-4.46738e-06
1.18478e-06
-4.54531e-06
7.55195e-07
-4.58397e-06
3.11844e-07
-4.58255e-06
-1.39036e-07
-4.54046e-06
-5.91022e-07
-4.45739e-06
-1.03741e-06
-4.33333e-06
-1.47109e-06
-4.16872e-06
-1.88455e-06
-3.96454e-06
-2.26973e-06
-3.72245e-06
-2.61814e-06
-3.44502e-06
-2.92085e-06
-3.13582e-06
-3.16865e-06
-2.79969e-06
-3.35229e-06
-2.4428e-06
-3.46274e-06
-2.07283e-06
-3.49158e-06
-1.69896e-06
-3.43151e-06
-1.33188e-06
-3.27681e-06
-9.83601e-07
-3.02392e-06
-6.67255e-07
-2.67195e-06
-3.96705e-07
-2.22314e-06
-1.86121e-07
-1.68314e-06
-4.94842e-08
-1.06113e-06
-3.70541e-07
-5.08024e-08
4.26056e-07
-1.88836e-07
1.19643e-06
-3.99191e-07
1.87222e-06
-6.67012e-07
2.44551e-06
-9.78003e-07
2.91262e-06
-1.31881e-06
3.27301e-06
-1.6773e-06
3.52882e-06
-2.04271e-06
3.68437e-06
-2.40575e-06
3.74559e-06
-2.75855e-06
3.71953e-06
-3.09461e-06
3.6139e-06
-3.40864e-06
3.43673e-06
-3.69643e-06
3.19603e-06
-3.95465e-06
2.89967e-06
-4.18072e-06
2.55521e-06
-4.37261e-06
2.16987e-06
-4.52871e-06
1.75054e-06
-4.64774e-06
1.30381e-06
-4.72861e-06
8.36066e-07
-4.77039e-06
3.53626e-07
-4.77227e-06
-1.37159e-07
-4.73354e-06
-6.29753e-07
-4.65365e-06
-1.11729e-06
-4.53228e-06
-1.59246e-06
-4.36943e-06
-2.04739e-06
-4.1656e-06
-2.47357e-06
-3.92193e-06
-2.86181e-06
-3.64044e-06
-3.20233e-06
-3.32427e-06
-3.48483e-06
-2.97787e-06
-3.6987e-06
-2.60725e-06
-3.83336e-06
-2.22013e-06
-3.8787e-06
-1.82608e-06
-3.82557e-06
-1.43647e-06
-3.66642e-06
-1.06438e-06
-3.396e-06
-7.24361e-07
-3.01197e-06
-4.31956e-07
-2.51554e-06
-2.03246e-07
-1.91185e-06
-5.42077e-08
-1.21016e-06
-4.24749e-07
-5.46077e-08
4.80664e-07
-2.02479e-07
1.3443e-06
-4.26993e-07
2.09673e-06
-7.11599e-07
2.73012e-06
-1.04046e-06
3.24148e-06
-1.3989e-06
3.63146e-06
-1.77377e-06
3.9037e-06
-2.15362e-06
4.06421e-06
-2.52873e-06
4.1207e-06
-2.89112e-06
4.08191e-06
-3.23436e-06
3.95715e-06
-3.55345e-06
3.75581e-06
-3.84455e-06
3.48712e-06
-4.10479e-06
3.15991e-06
-4.33206e-06
2.78248e-06
-4.5248e-06
2.36261e-06
-4.68183e-06
1.90757e-06
-4.8022e-06
1.42418e-06
-4.88508e-06
9.18949e-07
-4.92968e-06
3.98229e-07
-4.93521e-06
-1.31636e-07
-4.90084e-06
-6.64125e-07
-4.82577e-06
-1.19236e-06
-4.70932e-06
-1.70892e-06
-4.55098e-06
-2.20573e-06
-4.35066e-06
-2.67389e-06
-4.10885e-06
-3.10363e-06
-3.82687e-06
-3.48431e-06
-3.50722e-06
-3.80448e-06
-3.15378e-06
-4.05213e-06
-2.77221e-06
-4.21493e-06
-2.37014e-06
-4.28078e-06
-1.95735e-06
-4.23836e-06
-1.54587e-06
-4.0779e-06
-1.14988e-06
-3.79199e-06
-7.85443e-07
-3.37641e-06
-4.70025e-07
-2.83096e-06
-2.21903e-07
-2.15997e-06
-5.94016e-08
-1.37267e-06
-4.84151e-07
-5.8708e-08
5.39372e-07
-2.17056e-07
1.50265e-06
-4.5642e-07
2.33609e-06
-7.58276e-07
3.03197e-06
-1.105e-06
3.58821e-06
-1.48046e-06
4.00692e-06
-1.87041e-06
4.29364e-06
-2.26267e-06
4.45647e-06
-2.6472e-06
4.50524e-06
-3.016e-06
4.45071e-06
-3.36288e-06
4.30403e-06
-3.68325e-06
4.07618e-06
-3.97384e-06
3.77771e-06
-4.23238e-06
3.41845e-06
-4.45741e-06
3.0075e-06
-4.64795e-06
2.55315e-06
-4.80336e-06
2.06298e-06
-4.92313e-06
1.54395e-06
-5.00676e-06
1.00258e-06
-5.05365e-06
4.45123e-07
-5.06307e-06
-1.22223e-07
-5.03408e-06
-6.93106e-07
-4.96565e-06
-1.26079e-06
-4.85665e-06
-1.81792e-06
-4.70603e-06
-2.35635e-06
-4.51298e-06
-2.86694e-06
-4.27719e-06
-3.33942e-06
-3.99912e-06
-3.76238e-06
-3.68038e-06
-4.12322e-06
-3.32411e-06
-4.4084e-06
-2.93532e-06
-4.60371e-06
-2.52133e-06
-4.69477e-06
-2.09198e-06
-4.6677e-06
-1.65986e-06
-4.51002e-06
-1.24024e-06
-4.21161e-06
-8.50812e-07
-3.76584e-06
-5.11221e-07
-3.17055e-06
-2.42295e-07
-2.4289e-06
-6.51359e-08
-1.54982e-06
-5.49287e-07
-6.31787e-08
6.02551e-07
-2.32797e-07
1.67227e-06
-4.87852e-07
2.59115e-06
-8.07475e-07
3.3516e-06
-1.17197e-06
3.9527e-06
-1.56355e-06
4.3985e-06
-1.96677e-06
4.69686e-06
-2.36878e-06
4.85848e-06
-2.75929e-06
4.89575e-06
-3.13044e-06
4.82186e-06
-3.47647e-06
4.65005e-06
-3.79341e-06
4.39313e-06
-4.07875e-06
4.06305e-06
-4.33103e-06
3.67074e-06
-4.54957e-06
3.22604e-06
-4.73414e-06
2.73773e-06
-4.88477e-06
2.2136e-06
-5.00149e-06
1.66066e-06
-5.0842e-06
1.08529e-06
-5.13258e-06
4.93506e-07
-5.14599e-06
-1.0882e-07
-5.12342e-06
-7.15674e-07
-5.06357e-06
-1.32064e-06
-4.96487e-06
-1.91662e-06
-4.82563e-06
-2.49559e-06
-4.64424e-06
-3.04833e-06
-4.41943e-06
-3.56424e-06
-4.1506e-06
-4.0312e-06
-3.83825e-06
-4.43557e-06
-3.48445e-06
-4.76221e-06
-3.09331e-06
-4.99485e-06
-2.67152e-06
-5.11656e-06
-2.22876e-06
-5.11046e-06
-1.77797e-06
-4.9608e-06
-1.33549e-06
-4.6541e-06
-9.20768e-07
-4.18056e-06
-5.55886e-07
-3.53543e-06
-2.64657e-07
-2.72012e-06
-7.14946e-08
-1.74299e-06
-6.20781e-07
-6.81233e-08
6.70674e-07
-2.50016e-07
1.85416e-06
-5.21791e-07
2.86293e-06
-8.59762e-07
3.68957e-06
-1.24179e-06
4.33473e-06
-1.64819e-06
4.80489e-06
-2.06226e-06
5.11094e-06
-2.47053e-06
5.26675e-06
-2.86261e-06
5.28783e-06
-3.23098e-06
5.19023e-06
-3.57056e-06
4.98963e-06
-3.87827e-06
4.70084e-06
-4.15257e-06
4.33735e-06
-4.39304e-06
3.9112e-06
-4.59996e-06
3.43296e-06
-4.77402e-06
2.9118e-06
-4.91604e-06
2.35562e-06
-5.02669e-06
1.77131e-06
-5.10639e-06
1.165e-06
-5.15514e-06
5.42258e-07
-5.17245e-06
-9.15164e-08
-5.15727e-06
-7.3085e-07
-5.10805e-06
-1.36986e-06
-5.02276e-06
-2.00191e-06
-4.89904e-06
-2.61932e-06
-4.73435e-06
-3.21301e-06
-4.52633e-06
-3.77225e-06
-4.27312e-06
-4.28442e-06
-3.97382e-06
-4.73486e-06
-3.62912e-06
-5.10691e-06
-3.24186e-06
-5.38211e-06
-2.81773e-06
-5.54068e-06
-2.36589e-06
-5.56231e-06
-1.89941e-06
-5.42728e-06
-1.43555e-06
-5.11796e-06
-9.95612e-07
-4.62049e-06
-6.04419e-07
-3.92662e-06
-2.89279e-07
-3.03527e-06
-7.85827e-08
-1.95368e-06
-6.99364e-07
-7.36849e-08
7.44359e-07
-2.69139e-07
2.04962e-06
-5.58916e-07
3.1527e-06
-9.15881e-07
4.04653e-06
-1.31498e-06
4.73383e-06
-1.73439e-06
5.2243e-06
-2.15609e-06
5.53264e-06
-2.56607e-06
5.67673e-06
-2.95409e-06
5.67585e-06
-3.31327e-06
5.5494e-06
-3.63951e-06
5.31587e-06
-3.93091e-06
4.99225e-06
-4.18722e-06
4.59365e-06
-4.40924e-06
4.13323e-06
-4.59848e-06
3.62219e-06
-4.75666e-06
3.06998e-06
-4.88553e-06
2.48448e-06
-4.98652e-06
1.87231e-06
-5.06064e-06
1.23912e-06
-5.10829e-06
5.89905e-07
-5.12918e-06
-7.06305e-08
-5.12227e-06
-7.37757e-07
-5.08579e-06
-1.40634e-06
-5.01725e-06
-2.07045e-06
-4.91357e-06
-2.72299e-06
-4.77127e-06
-3.35532e-06
-4.58672e-06
-3.9568e-06
-4.35659e-06
-4.51455e-06
-4.07833e-06
-5.01312e-06
-3.75087e-06
-5.43438e-06
-3.37534e-06
-5.75764e-06
-2.95597e-06
-5.96005e-06
-2.50091e-06
-6.01736e-06
-2.02299e-06
-5.9052e-06
-1.54018e-06
-5.60077e-06
-1.07566e-06
-5.08501e-06
-6.57301e-07
-4.34498e-06
-3.16524e-07
-3.37604e-06
-8.65367e-08
-2.18367e-06
-7.859e-07
-8.00637e-08
8.24423e-07
-2.90753e-07
2.26031e-06
-6.00137e-07
3.46209e-06
-9.76798e-07
4.42319e-06
-1.3922e-06
5.14923e-06
-1.82207e-06
5.65417e-06
-2.24708e-06
5.95766e-06
-2.6529e-06
6.08254e-06
-3.02974e-06
6.05269e-06
-3.37176e-06
5.89142e-06
-3.67625e-06
5.62036e-06
-3.94287e-06
5.25887e-06
-4.17293e-06
4.82371e-06
-4.36878e-06
4.32907e-06
-4.53327e-06
3.78668e-06
-4.66938e-06
3.20609e-06
-4.77986e-06
2.59497e-06
-4.86703e-06
1.95948e-06
-4.93253e-06
1.30462e-06
-4.97723e-06
6.34606e-07
-5.00111e-06
-4.67508e-08
-5.0032e-06
-7.35672e-07
-4.98154e-06
-1.428e-06
-4.93322e-06
-2.11876e-06
-4.85447e-06
-2.80174e-06
-4.74078e-06
-3.469e-06
-4.58721e-06
-4.11037e-06
-4.38876e-06
-4.713e-06
-4.14095e-06
-5.26093e-06
-3.84054e-06
-5.73478e-06
-3.48647e-06
-6.11171e-06
-3.08091e-06
-6.36562e-06
-2.6304e-06
-6.46787e-06
-2.14697e-06
-6.38864e-06
-1.64892e-06
-6.09882e-06
-1.16123e-06
-5.5727e-06
-7.15132e-07
-4.79108e-06
-3.46871e-07
-3.7443e-06
-9.55387e-08
-2.435e-06
-8.81439e-07
-8.75411e-08
9.11964e-07
-3.15664e-07
2.48843e-06
-6.46665e-07
3.79309e-06
-1.04375e-06
4.82027e-06
-1.47416e-06
5.57964e-06
-1.91093e-06
6.09094e-06
-2.3335e-06
6.38023e-06
-2.72754e-06
6.47658e-06
-3.08423e-06
6.40939e-06
-3.3993e-06
6.20649e-06
-3.67191e-06
5.89298e-06
-3.90372e-06
5.49068e-06
-4.09795e-06
5.01795e-06
-4.25874e-06
4.48986e-06
-4.3905e-06
3.91845e-06
-4.49757e-06
3.31316e-06
-4.58382e-06
2.68122e-06
-4.65247e-06
2.02813e-06
-4.70587e-06
1.35803e-06
-4.74542e-06
6.74156e-07
-4.77142e-06
-2.07587e-08
-4.783e-06
-7.2409e-07
-4.77812e-06
-1.43288e-06
-4.75351e-06
-2.14336e-06
-4.70475e-06
-2.85051e-06
-4.62635e-06
-3.54741e-06
-4.51199e-06
-4.22474e-06
-4.35489e-06
-4.8701e-06
-4.14837e-06
-5.46744e-06
-3.88666e-06
-5.9965e-06
-3.56592e-06
-6.43246e-06
-3.18555e-06
-6.74598e-06
-2.74972e-06
-6.9037e-06
-2.26886e-06
-6.86951e-06
-1.76101e-06
-6.60667e-06
-1.25267e-06
-6.08104e-06
-7.78679e-07
-5.26506e-06
-3.80959e-07
-4.14202e-06
-1.0584e-07
-2.71012e-06
-9.87279e-07
-9.65165e-08
1.00848e-06
-3.4498e-07
2.73689e-06
-7.00107e-07
4.14821e-06
-1.11824e-06
5.23841e-06
-1.56158e-06
6.02298e-06
-2.00021e-06
6.52958e-06
-2.41262e-06
6.79264e-06
-2.78506e-06
6.84902e-06
-3.11038e-06
6.73471e-06
-3.38655e-06
6.48266e-06
-3.61525e-06
6.12167e-06
-3.80058e-06
5.67601e-06
-3.94807e-06
5.16544e-06
-4.06385e-06
4.60564e-06
-4.15409e-06
4.00868e-06
-4.22451e-06
3.38358e-06
-4.28018e-06
2.73689e-06
-4.32522e-06
2.07317e-06
-4.36273e-06
1.39553e-06
-4.39461e-06
7.06037e-07
-4.42153e-06
6.16556e-09
-4.44284e-06
-7.02786e-07
-4.45646e-06
-1.41925e-06
-4.4589e-06
-2.14093e-06
-4.44519e-06
-2.86422e-06
-4.40895e-06
-3.58364e-06
-4.34254e-06
-4.29114e-06
-4.23737e-06
-4.97528e-06
-4.08437e-06
-5.62044e-06
-3.87487e-06
-6.206e-06
-3.60166e-06
-6.70566e-06
-3.26062e-06
-7.08703e-06
-2.85248e-06
-7.31183e-06
-2.38505e-06
-7.33694e-06
-1.87516e-06
-7.11656e-06
-1.35027e-06
-6.60594e-06
-8.48931e-07
-5.7664e-06
-4.19664e-07
-4.57129e-06
-1.17794e-07
-3.01199e-06
-1.10507e-06
-1.07565e-07
1.11604e-06
-3.80235e-07
3.00956e-06
-7.62562e-07
4.53054e-06
-1.20207e-06
5.67792e-06
-1.65494e-06
6.47585e-06
-2.08827e-06
6.96291e-06
-2.48015e-06
7.18451e-06
-2.81833e-06
7.18721e-06
-3.0983e-06
7.01468e-06
-3.32118e-06
6.70553e-06
-3.49185e-06
6.29234e-06
-3.61742e-06
5.80158e-06
-3.70604e-06
5.25406e-06
-3.76605e-06
4.66565e-06
-3.80538e-06
4.04802e-06
-3.83122e-06
3.40942e-06
-3.84971e-06
2.75539e-06
-3.86588e-06
2.08934e-06
-3.88349e-06
1.41313e-06
-3.90497e-06
7.27514e-07
-3.93137e-06
3.25689e-08
-3.96229e-06
-6.71865e-07
-3.99577e-06
-1.38577e-06
-4.02822e-06
-2.10848e-06
-4.05432e-06
-2.83811e-06
-4.06701e-06
-3.57096e-06
-4.05748e-06
-4.30067e-06
-4.01539e-06
-5.01736e-06
-3.92928e-06
-5.70655e-06
-3.78729e-06
-6.348e-06
-3.57832e-06
-6.91463e-06
-3.2938e-06
-7.37156e-06
-2.92989e-06
-7.67575e-06
-2.4903e-06
-7.77652e-06
-1.98928e-06
-7.61758e-06
-1.45422e-06
-7.141e-06
-9.27162e-07
-6.29346e-06
-4.64207e-07
-5.03424e-06
-1.31915e-07
-3.34428e-06
-1.23699e-06
-1.21526e-07
1.23757e-06
-4.23558e-07
3.31159e-06
-8.36727e-07
4.94371e-06
-1.29717e-06
6.13835e-06
-1.75404e-06
6.93273e-06
-2.17179e-06
7.38065e-06
-2.52917e-06
7.5419e-06
-2.81682e-06
7.47486e-06
-3.03419e-06
7.23206e-06
-3.18667e-06
6.85801e-06
-3.28316e-06
6.38883e-06
-3.33425e-06
5.85267e-06
-3.35099e-06
5.2708e-06
-3.34398e-06
4.65864e-06
-3.3229e-06
4.02694e-06
-3.29624e-06
3.38276e-06
-3.27113e-06
2.73028e-06
-3.25331e-06
2.07152e-06
-3.2471e-06
1.40692e-06
-3.25539e-06
7.35805e-07
-3.27962e-06
5.67911e-08
-3.31967e-06
-6.3181e-07
-3.37384e-06
-1.33161e-06
-3.43863e-06
-2.04368e-06
-3.50865e-06
-2.76809e-06
-3.57644e-06
-3.50317e-06
-3.63236e-06
-4.24475e-06
-3.6646e-06
-4.98512e-06
-3.65944e-06
-5.71172e-06
-3.60174e-06
-6.40569e-06
-3.47613e-06
-7.04024e-06
-3.26869e-06
-7.57899e-06
-2.96966e-06
-7.97478e-06
-2.57686e-06
-8.16932e-06
-2.09989e-06
-8.09455e-06
-1.56434e-06
-7.67654e-06
-1.01498e-06
-6.84282e-06
-5.16305e-07
-5.53292e-06
-1.48965e-07
-3.71162e-06
-1.38595e-06
-1.39661e-07
1.37723e-06
-4.77917e-07
3.64985e-06
-9.25969e-07
5.39176e-06
-1.40526e-06
6.61765e-06
-1.8572e-06
7.38466e-06
-2.24452e-06
7.76797e-06
-2.54858e-06
7.84596e-06
-2.76492e-06
7.6912e-06
-2.89872e-06
7.36585e-06
-2.9609e-06
6.92019e-06
-2.96519e-06
6.39312e-06
-2.9261e-06
5.81358e-06
-2.85762e-06
5.20232e-06
-2.77254e-06
4.57356e-06
-2.68206e-06
3.93646e-06
-2.59567e-06
3.29637e-06
-2.52121e-06
2.65581e-06
-2.46487e-06
2.01519e-06
-2.43136e-06
1.3734e-06
-2.42387e-06
7.28315e-07
-2.44416e-06
7.70809e-08
-2.49248e-06
-5.83489e-07
-2.56747e-06
-1.25661e-06
-2.66601e-06
-1.94515e-06
-2.78294e-06
-2.65116e-06
-2.91084e-06
-3.37527e-06
-3.03972e-06
-4.11587e-06
-3.15682e-06
-4.86802e-06
-3.24656e-06
-5.62198e-06
-3.2908e-06
-6.36145e-06
-3.2697e-06
-7.06135e-06
-3.16333e-06
-7.68536e-06
-2.95454e-06
-8.18357e-06
-2.63307e-06
-8.4908e-06
-2.20111e-06
-8.52651e-06
-1.67965e-06
-8.198e-06
-1.1143e-06
-7.40817e-06
-5.78391e-07
-6.06883e-06
-1.70111e-07
-4.1199e-06
-1.55606e-06
-1.63909e-07
1.54114e-06
-5.47461e-07
4.0334e-06
-1.03427e-06
5.87857e-06
-1.52712e-06
7.1105e-06
-1.9596e-06
7.81714e-06
-2.2951e-06
8.10347e-06
-2.52061e-06
8.07147e-06
-2.63945e-06
7.81004e-06
-2.66467e-06
7.39108e-06
-2.61411e-06
6.86964e-06
-2.507e-06
6.286e-06
-2.36187e-06
5.66845e-06
-2.19552e-06
5.03597e-06
-2.02249e-06
4.40053e-06