/*--------------------------------*- C++ -*----------------------------------*\
  =========                 |
  \\      /  F ield         | OpenFOAM: The Open Source CFD Toolbox
   \\    /   O peration     | Website:  https://openfoam.org
    \\  /    A nd           | Version:  7
     \\/     M anipulation  |
\*---------------------------------------------------------------------------*/
FoamFile
{
    version     2.0;
    format      ascii;
    class       volVectorField;
    location    "0.28";
    object      U;
}
// * * * * * * * * * * * * * * * * * * * * * * * * * * * * * * * * * * * * * //

dimensions      [0 1 -1 0 0 0 0];

internalField   nonuniform List<vector> 
1600
(
(6.04372e-05 -6.05328e-05 0)
(0.000155826 -5.7124e-05 0)
(0.000156863 -7.04475e-06 0)
(6.62447e-06 5.24026e-05 0)
(-0.00030326 0.000107895 0)
(-0.000756387 0.000154724 0)
(-0.0013283 0.000191527 0)
(-0.00199202 0.000218347 0)
(-0.00272035 0.000235761 0)
(-0.00348701 0.000244515 0)
(-0.00426725 0.000245399 0)
(-0.00503823 0.000239197 0)
(-0.00577908 0.00022667 0)
(-0.00647105 0.000208551 0)
(-0.00709751 0.000185551 0)
(-0.00764397 0.000158359 0)
(-0.00809811 0.000127655 0)
(-0.00844978 9.41212e-05 0)
(-0.00869108 5.84453e-05 0)
(-0.00881634 2.13349e-05 0)
(-0.0088223 -1.64762e-05 0)
(-0.00870808 -5.42218e-05 0)
(-0.00847539 -9.10995e-05 0)
(-0.00812851 -0.000126271 0)
(-0.00767446 -0.000158864 0)
(-0.00712301 -0.000187983 0)
(-0.00648672 -0.000212714 0)
(-0.00578095 -0.000232144 0)
(-0.00502371 -0.000245374 0)
(-0.00423562 -0.000251539 0)
(-0.00343957 -0.000249825 0)
(-0.00266051 -0.000239494 0)
(-0.00192495 -0.00021991 0)
(-0.00126038 -0.000190589 0)
(-0.000694369 -0.000151332 0)
(-0.000253149 -0.00010256 0)
(4.07817e-05 -4.61593e-05 0)
(0.000174294 1.26383e-05 0)
(0.000160311 6.01536e-05 0)
(6.02376e-05 5.99937e-05 0)
(5.86038e-05 -0.000156992 0)
(7.24359e-05 -6.94804e-05 0)
(-0.000178479 0.000182274 0)
(-0.00077262 0.000476797 0)
(-0.00172446 0.000760786 0)
(-0.00300745 0.0010091 0)
(-0.00457303 0.00121042 0)
(-0.00636183 0.00136086 0)
(-0.00831009 0.00146033 0)
(-0.0103536 0.00151071 0)
(-0.0124301 0.00151499 0)
(-0.0144807 0.00147672 0)
(-0.0164509 0.00139977 0)
(-0.018291 0.00128819 0)
(-0.0199569 0.00114612 0)
(-0.0214098 0.000977762 0)
(-0.0226165 0.000787367 0)
(-0.0235499 0.000579268 0)
(-0.024189 0.000357898 0)
(-0.0245187 0.000127817 0)
(-0.0245307 -0.000106261 0)
(-0.024223 -0.000339452 0)
(-0.0236006 -0.000566696 0)
(-0.0226756 -0.000782776 0)
(-0.021467 -0.000982347 0)
(-0.0200012 -0.00115999 0)
(-0.0183121 -0.00131031 0)
(-0.0164401 -0.001428 0)
(-0.0144329 -0.00150802 0)
(-0.0123441 -0.00154569 0)
(-0.0102327 -0.00153695 0)
(-0.00816198 -0.00147851 0)
(-0.00619818 -0.00136821 0)
(-0.00440796 -0.00120548 0)
(-0.00285574 -0.000992228 0)
(-0.00159925 -0.000734498 0)
(-0.000682923 -0.000445847 0)
(-0.000126895 -0.000153436 0)
(9.19563e-05 8.83262e-05 0)
(6.17129e-05 0.000160685 0)
(1.14357e-05 -0.00016281 0)
(-0.000171908 0.000178378 0)
(-0.000803885 0.00081371 0)
(-0.00193065 0.00153598 0)
(-0.00355308 0.00223821 0)
(-0.00563525 0.00286092 0)
(-0.00811235 0.00337253 0)
(-0.0109029 0.00375865 0)
(-0.0139174 0.00401512 0)
(-0.0170639 0.00414388 0)
(-0.0202517 0.00415062 0)
(-0.0233938 0.00404334 0)
(-0.0264092 0.00383145 0)
(-0.0292232 0.00352528 0)
(-0.031769 0.00313572 0)
(-0.0339878 0.0026741 0)
(-0.0358297 0.00215204 0)
(-0.0372532 0.00158149 0)
(-0.0382264 0.000974748 0)
(-0.0387269 0.000344469 0)
(-0.038742 -0.000296277 0)
(-0.0382693 -0.000933996 0)
(-0.0373166 -0.00155478 0)
(-0.0359025 -0.00214438 0)
(-0.0340565 -0.00268829 0)
(-0.0318187 -0.00317195 0)
(-0.0292401 -0.00358094 0)
(-0.0263822 -0.00390135 0)
(-0.0233159 -0.00412008 0)
(-0.0201214 -0.00422539 0)
(-0.0168858 -0.0042074 0)
(-0.0137022 -0.00405884 0)
(-0.0106663 -0.00377602 0)
(-0.0078736 -0.00336021 0)
(-0.00541455 -0.00281984 0)
(-0.00336863 -0.00217424 0)
(-0.00179547 -0.00146006 0)
(-0.000723001 -0.000741057 0)
(-0.000138854 -0.00012646 0)
(1.76589e-05 0.000180033 0)
(-4.53858e-05 -2.20391e-05 0)
(-0.000464267 0.000767854 0)
(-0.00153508 0.00194099 0)
(-0.00324115 0.00322596 0)
(-0.00555339 0.00446715 0)
(-0.00842086 0.00556972 0)
(-0.0117626 0.00647864 0)
(-0.0154786 0.00716584 0)
(-0.0194592 0.00762066 0)
(-0.0235911 0.00784382 0)
(-0.0277613 0.00784343 0)
(-0.0318611 0.00763252 0)
(-0.0357881 0.00722735 0)
(-0.0394479 0.0066463 0)
(-0.0427554 0.00590926 0)
(-0.0456358 0.00503713 0)
(-0.048025 0.00405165 0)
(-0.0498703 0.0029753 0)
(-0.0511309 0.00183125 0)
(-0.0517781 0.000643414 0)
(-0.051796 -0.000563537 0)
(-0.0511816 -0.00176419 0)
(-0.0499454 -0.00293243 0)
(-0.0481113 -0.00404159 0)
(-0.045717 -0.00506466 0)
(-0.0428139 -0.00597465 0)
(-0.0394671 -0.00674505 0)
(-0.0357546 -0.00735042 0)
(-0.0317663 -0.00776715 0)
(-0.027603 -0.00797436 0)
(-0.0233744 -0.00795502 0)
(-0.0191966 -0.00769736 0)
(-0.0151885 -0.00719666 0)
(-0.011468 -0.00645769 0)
(-0.00814619 -0.00549835 0)
(-0.0053212 -0.0043551 0)
(-0.0030684 -0.00309145 0)
(-0.00142965 -0.00180961 0)
(-0.000419973 -0.000669496 0)
(-3.66737e-05 5.97897e-05 0)
(-0.000100432 0.000278521 0)
(-0.000761012 0.00172885 0)
(-0.00228938 0.00359127 0)
(-0.00459271 0.00555489 0)
(-0.00760154 0.00742707 0)
(-0.0112439 0.00908272 0)
(-0.01542 0.0104449 0)
(-0.0200118 0.0114716 0)
(-0.0248918 0.0121448 0)
(-0.0299285 0.0124636 0)
(-0.0349912 0.0124382 0)
(-0.0399534 0.0120872 0)
(-0.0446958 0.0114343 0)
(-0.049108 0.0105073 0)
(-0.0530905 0.00933673 0)
(-0.0565552 0.00795482 0)
(-0.059427 0.00639552 0)
(-0.061644 0.00469401 0)
(-0.063158 0.00288671 0)
(-0.0639356 0.00101121 0)
(-0.0639581 -0.000893735 0)
(-0.0632219 -0.00278823 0)
(-0.0617394 -0.0046314 0)
(-0.0595388 -0.00638156 0)
(-0.0566644 -0.00799669 0)
(-0.0531765 -0.00943489 0)
(-0.0491513 -0.0106552 0)
(-0.0446799 -0.0116186 0)
(-0.0398674 -0.0122891 0)
(-0.0348313 -0.0126353 0)
(-0.0296993 -0.0126319 0)
(-0.0246062 -0.0122623 0)
(-0.0196901 -0.011521 0)
(-0.015088 -0.0104171 0)
(-0.0109298 -0.00897884 0)
(-0.00733221 -0.00726066 0)
(-0.00438935 -0.00535209 0)
(-0.00216332 -0.00338948 0)
(-0.000707105 -0.00157318 0)
(-8.95777e-05 -0.000214668 0)
(-0.000150648 0.000732486 0)
(-0.00104567 0.00306212 0)
(-0.00302913 0.00577184 0)
(-0.00592957 0.00853015 0)
(-0.00963201 0.011119 0)
(-0.0140386 0.01339 0)
(-0.0190279 0.0152482 0)
(-0.0244625 0.0166393 0)
(-0.0301973 0.0175391 0)
(-0.0360846 0.0179449 0)
(-0.041978 0.01787 0)
(-0.0477363 0.0173386 0)
(-0.0532261 0.0163833 0)
(-0.0583242 0.0150422 0)
(-0.0629193 0.0133575 0)
(-0.0669129 0.0113746 0)
(-0.0702209 0.00914116 0)
(-0.072774 0.00670691 0)
(-0.0745183 0.00412336 0)
(-0.0754163 0.00144371 0)
(-0.0754469 -0.0012772 0)
(-0.074606 -0.00398296 0)
(-0.0729072 -0.00661584 0)
(-0.0703819 -0.00911713 0)
(-0.0670794 -0.0114277 0)
(-0.0630667 -0.0134887 0)
(-0.0584288 -0.0152429 0)
(-0.0532671 -0.0166358 0)
(-0.047699 -0.0176173 0)
(-0.0418557 -0.0181442 0)
(-0.0358796 -0.018182 0)
(-0.0299219 -0.0177084 0)
(-0.0241377 -0.0167166 0)
(-0.0186816 -0.0152197 0)
(-0.0137027 -0.0132559 0)
(-0.00933781 -0.010896 0)
(-0.00570324 -0.00825273 0)
(-0.00288635 -0.00549056 0)
(-0.000983486 -0.00284003 0)
(-0.000137833 -0.000637676 0)
(-0.000195934 0.00132954 0)
(-0.00131388 0.00475628 0)
(-0.00374049 0.00847507 0)
(-0.00722855 0.0121461 0)
(-0.0116159 0.0155357 0)
(-0.0167758 0.0184794 0)
(-0.0225624 0.0208689 0)
(-0.0288173 0.022641 0)
(-0.0353773 0.023767 0)
(-0.0420789 0.0242443 0)
(-0.0487612 0.0240899 0)
(-0.0552701 0.0233352 0)
(-0.0614602 0.0220221 0)
(-0.0671977 0.0202004 0)
(-0.0723616 0.0179253 0)
(-0.0768452 0.0152564 0)
(-0.0805572 0.0122566 0)
(-0.0834224 0.00899152 0)
(-0.0853822 0.00552917 0)
(-0.0863957 0.00193988 0)
(-0.0864398 -0.00170387 0)
(-0.0855096 -0.00532762 0)
(-0.0836194 -0.0088552 0)
(-0.0808026 -0.0122092 0)
(-0.0771118 -0.0153117 0)
(-0.0726194 -0.0180853 0)
(-0.0674168 -0.0204547 0)
(-0.0616137 -0.0223483 0)
(-0.0553372 -0.0237006 0)
(-0.0487301 -0.0244548 0)
(-0.0419481 -0.0245658 0)
(-0.0351566 -0.0240045 0)
(-0.0285272 -0.0227615 0)
(-0.0222324 -0.0208522 0)
(-0.0164411 -0.0183234 0)
(-0.0113128 -0.0152596 0)
(-0.00698905 -0.0117924 0)
(-0.00358587 -0.00810868 0)
(-0.00124496 -0.00446075 0)
(-0.000181316 -0.00119954 0)
(-0.000237221 0.00205997 0)
(-0.00156686 0.00679677 0)
(-0.00442242 0.0116875 0)
(-0.00848546 0.0163913 0)
(-0.013547 0.0206661 0)
(-0.0194497 0.024338 0)
(-0.0260213 0.0272904 0)
(-0.0330808 0.029455 0)
(-0.0404462 0.0308016 0)
(-0.0479377 0.0313298 0)
(-0.0553808 0.0310621 0)
(-0.0626092 0.0300385 0)
(-0.0694672 0.0283118 0)
(-0.0758118 0.0259443 0)
(-0.0815142 0.0230057 0)
(-0.086461 0.0195708 0)
(-0.0905552 0.0157188 0)
(-0.0937168 0.0115324 0)
(-0.0958837 0.00709711 0)
(-0.097012 0.00250153 0)
(-0.0970766 -0.00216316 0)
(-0.0960718 -0.00680328 0)
(-0.0940117 -0.011323 0)
(-0.0909306 -0.015625 0)
(-0.0868835 -0.0196112 0)
(-0.0819461 -0.0231843 0)
(-0.0762146 -0.0262494 0)
(-0.0698053 -0.0287161 0)
(-0.0628532 -0.0305018 0)
(-0.0555109 -0.0315344 0)
(-0.0479461 -0.0317567 0)
(-0.0403383 -0.0311304 0)
(-0.0328752 -0.0296418 0)
(-0.0257479 -0.0273066 0)
(-0.019147 -0.0241769 0)
(-0.0132566 -0.020348 0)
(-0.0082461 -0.0159661 0)
(-0.00426265 -0.0112352 0)
(-0.00149336 -0.00642363 0)
(-0.000221042 -0.00189139 0)
(-0.000275646 0.002916 0)
(-0.00180793 0.00917024 0)
(-0.00507983 0.0153957 0)
(-0.00970597 0.0212538 0)
(-0.0154316 0.0264997 0)
(-0.022068 0.0309552 0)
(-0.0294152 0.0345006 0)
(-0.0372682 0.0370665 0)
(-0.0454253 0.0386247 0)
(-0.0536901 0.0391798 0)
(-0.0618746 0.0387623 0)
(-0.0698008 0.0374225 0)
(-0.0773039 0.0352255 0)
(-0.0842328 0.0322481 0)
(-0.0904523 0.0285752 0)
(-0.0958436 0.024298 0)
(-0.100305 0.019513 0)
(-0.103754 0.0143206 0)
(-0.106124 0.00882478 0)
(-0.107369 0.00313306 0)
(-0.107463 -0.00264393 0)
(-0.106398 -0.00839255 0)
(-0.104188 -0.0139965 0)
(-0.100867 -0.0193376 0)
(-0.0964905 -0.0242965 0)
(-0.0911367 -0.0287547 0)
(-0.0849048 -0.0325963 0)
(-0.0779158 -0.0357106 0)
(-0.0703116 -0.0379959 0)
(-0.0622533 -0.0393629 0)
(-0.0539197 -0.0397396 0)
(-0.0455041 -0.0390766 0)
(-0.0372107 -0.0373527 0)
(-0.0292506 -0.0345812 0)
(-0.0218374 -0.0308164 0)
(-0.0151823 -0.0261604 0)
(-0.00948463 -0.0207703 0)
(-0.00492409 -0.014863 0)
(-0.00173295 -0.00871927 0)
(-0.000258306 -0.0027067 0)
(-0.000312264 0.00389213 0)
(-0.002041 0.0118664 0)
(-0.00572003 0.0195886 0)
(-0.0109003 0.0267238 0)
(-0.0172824 0.033028 0)
(-0.0246456 0.0383232 0)
(-0.0327614 0.042491 0)
(-0.0414 0.0454655 0)
(-0.0503388 0.0472241 0)
(-0.0593648 0.0477797 0)
(-0.068276 0.0471735 0)
(-0.0768838 0.0454685 0)
(-0.0850144 0.0427443 0)
(-0.0925101 0.0390933 0)
(-0.0992305 0.0346171 0)
(-0.105053 0.0294244 0)
(-0.109871 0.0236296 0)
(-0.113601 0.0173515 0)
(-0.116173 0.0107131 0)
(-0.117541 0.00384103 0)
(-0.117674 -0.00313412 0)
(-0.116564 -0.0100784 0)
(-0.114223 -0.0168545 0)
(-0.110685 -0.0233226 0)
(-0.106004 -0.0293416 0)
(-0.10026 -0.0347704 0)
(-0.0935527 -0.0394708 0)
(-0.0860067 -0.04331 0)
(-0.0777691 -0.0461651 0)
(-0.0690087 -0.0479272 0)
(-0.0599149 -0.0485069 0)
(-0.0506945 -0.0478404 0)
(-0.0415692 -0.0458959 0)
(-0.0327708 -0.0426805 0)
(-0.0245378 -0.038247 0)
(-0.0171105 -0.0327007 0)
(-0.0107202 -0.0262059 0)
(-0.00558052 -0.0189894 0)
(-0.00196879 -0.0113427 0)
(-0.00029437 -0.00364177 0)
(-0.000347976 0.00498508 0)
(-0.00226983 0.0148787 0)
(-0.00635086 0.0242589 0)
(-0.0120802 0.0327946 0)
(-0.0191142 0.0402449 0)
(-0.0272001 0.0464361 0)
(-0.0360798 0.0512554 0)
(-0.0454978 0.0546442 0)
(-0.0552102 0.05659 0)
(-0.0649868 0.0571175 0)
(-0.074612 0.0562818 0)
(-0.0838867 0.0541613 0)
(-0.0926293 0.0508524 0)
(-0.100676 0.0464647 0)
(-0.107883 0.041118 0)
(-0.114124 0.0349394 0)
(-0.119291 0.0280618 0)
(-0.123297 0.020623 0)
(-0.126072 0.0127648 0)
(-0.127567 0.00463355 0)
(-0.127751 -0.00362053 0)
(-0.126613 -0.011843 0)
(-0.124162 -0.0198754 0)
(-0.120431 -0.0275562 0)
(-0.115472 -0.0347214 0)
(-0.109363 -0.0412067 0)
(-0.102206 -0.04685 0)
(-0.0941248 -0.0514948 0)
(-0.0852718 -0.0549945 0)
(-0.0758222 -0.0572178 0)
(-0.0659748 -0.0580546 0)
(-0.0559503 -0.0574232 0)
(-0.045988 -0.0552772 0)
(-0.036342 -0.0516133 0)
(-0.0272773 -0.0464787 0)
(-0.0190651 -0.0399781 0)
(-0.0119707 -0.0322796 0)
(-0.00624321 -0.0236179 0)
(-0.002206 -0.0142943 0)
(-0.000330374 -0.00469577 0)
(-0.000383531 0.00619355 0)
(-0.00249787 0.0182045 0)
(-0.00697991 0.0294037 0)
(-0.0132573 0.0394633 0)
(-0.0209422 0.0481478 0)
(-0.0297491 0.0552908 0)
(-0.0393895 0.0607891 0)
(-0.0495815 0.0645962 0)
(-0.0600595 0.0667135 0)
(-0.0705757 0.0671819 0)
(-0.0809012 0.0660738 0)
(-0.090827 0.0634861 0)
(-0.100165 0.0595343 0)
(-0.108746 0.0543475 0)
(-0.116423 0.0480648 0)
(-0.123069 0.0408327 0)
(-0.128575 0.0328034 0)
(-0.132853 0.0241334 0)
(-0.135832 0.0149838 0)
(-0.137461 0.00551983 0)
(-0.137707 -0.00408865 0)
(-0.136558 -0.0136671 0)
(-0.134021 -0.0230363 0)
(-0.130123 -0.0320125 0)
(-0.124915 -0.0404089 0)
(-0.118471 -0.0480371 0)
(-0.110891 -0.0547096 0)
(-0.102301 -0.0602443 0)
(-0.0928536 -0.0644683 0)
(-0.0827294 -0.0672249 0)
(-0.0721364 -0.0683795 0)
(-0.0613086 -0.067828 0)
(-0.0505033 -0.065505 0)
(-0.0399978 -0.0613921 0)
(-0.0300854 -0.0555263 0)
(-0.0210703 -0.0480076 0)
(-0.0132541 -0.0390048 0)
(-0.0069234 -0.0287584 0)
(-0.00244947 -0.01758 0)
(-0.000367334 -0.00587058 0)
(-0.000419555 0.00751797 0)
(-0.00272814 0.0218446 0)
(-0.00761413 0.035024 0)
(-0.0144427 0.0467308 0)
(-0.0227808 0.0567367 0)
(-0.032309 0.0648856 0)
(-0.0427077 0.0710882 0)
(-0.0536679 0.0753144 0)
(-0.0649015 0.0775845 0)
(-0.0761435 0.0779595 0)
(-0.087152 0.0765335 0)
(-0.0977089 0.073425 0)
(-0.10762 0.0687715 0)
(-0.116714 0.0627236 0)
(-0.124841 0.0554414 0)
(-0.131875 0.0470917 0)
(-0.137707 0.037846 0)
(-0.142249 0.02788 0)
(-0.145431 0.0173733 0)
(-0.1472 0.00650952 0)
(-0.147523 -0.00452262 0)
(-0.146383 -0.0155293 0)
(-0.143784 -0.0263108 0)
(-0.13975 -0.036662 0)
(-0.134327 -0.0463729 0)
(-0.127584 -0.0552303 0)
(-0.119616 -0.0630204 0)
(-0.110548 -0.069533 0)
(-0.100533 -0.0745669 0)
(-0.0897544 -0.0779356 0)
(-0.0784281 -0.0794761 0)
(-0.0668006 -0.0790572 0)
(-0.0551474 -0.0765888 0)
(-0.0437698 -0.0720322 0)
(-0.0329908 -0.065409 0)
(-0.0231501 -0.05681 0)
(-0.0145881 -0.0464013 0)
(-0.00763194 -0.0344277 0)
(-0.00270378 -0.0212113 0)
(-0.000406161 -0.00717061 0)
(-0.000456581 0.00896027 0)
(-0.00296335 0.0258032 0)
(-0.00825982 0.0411247 0)
(-0.0156463 0.0546016 0)
(-0.0246427 0.0660142 0)
(-0.0348941 0.0752202 0)
(-0.0460486 0.0821484 0)
(-0.057769 0.0867901 0)
(-0.0697448 0.0891894 0)
(-0.0816936 0.0894326 0)
(-0.0933614 0.0876394 0)
(-0.104522 0.0839543 0)
(-0.114978 0.0785394 0)
(-0.124555 0.0715693 0)
(-0.133106 0.0632265 0)
(-0.140504 0.0536989 0)
(-0.146643 0.0431777 0)
(-0.151438 0.0318573 0)
(-0.154818 0.019935 0)
(-0.156732 0.00761207 0)
(-0.157144 -0.00490536 0)
(-0.156035 -0.0174052 0)
(-0.153405 -0.0296687 0)
(-0.149271 -0.0414698 0)
(-0.143673 -0.0525756 0)
(-0.136674 -0.0627478 0)
(-0.128362 -0.0717452 0)
(-0.118858 -0.079328 0)
(-0.108311 -0.0852628 0)
(-0.0969068 -0.0893304 0)
(-0.084867 -0.091334 0)
(-0.0724493 -0.0911096 0)
(-0.0599468 -0.0885368 0)
(-0.0476854 -0.0835498 0)
(-0.0360196 -0.0761492 0)
(-0.0253268 -0.0664111 0)
(-0.0159895 -0.0544954 0)
(-0.0083791 -0.0406488 0)
(-0.00297324 -0.0252047 0)
(-0.00044769 -0.00860259 0)
(-0.000495083 0.0105237 0)
(-0.00320595 0.0300873 0)
(-0.00892275 0.0477142 0)
(-0.0168773 0.0630831 0)
(-0.0265394 0.0759846 0)
(-0.0375165 0.0862942 0)
(-0.0494228 0.0939635 0)
(-0.0618919 0.0990107 0)
(-0.0745905 0.101509 0)
(-0.0872196 0.101576 0)
(-0.099514 0.0993624 0)
(-0.111242 0.0950415 0)
(-0.122202 0.0888044 0)
(-0.132223 0.0808517 0)
(-0.141158 0.0713902 0)
(-0.148887 0.0606293 0)
(-0.155307 0.0487801 0)
(-0.160335 0.0360549 0)
(-0.163905 0.0226677 0)
(-0.165966 0.00883585 0)
(-0.16648 -0.00521881 0)
(-0.165426 -0.0192678 0)
(-0.162798 -0.0330746 0)
(-0.158608 -0.0463938 0)
(-0.152884 -0.0589703 0)
(-0.145683 -0.070541 0)
(-0.137083 -0.0808364 0)
(-0.127196 -0.0895848 0)
(-0.116167 -0.0965182 0)
(-0.104179 -0.10138 0)
(-0.0914569 -0.103934 0)
(-0.0782674 -0.103978 0)
(-0.0649207 -0.101354 0)
(-0.0517673 -0.0959607 0)
(-0.0391948 -0.0877713 0)
(-0.0276208 -0.0768411 0)
(-0.017474 -0.0633188 0)
(-0.00917465 -0.047451 0)
(-0.00326197 -0.029582 0)
(-0.000492714 -0.0101755 0)
(-0.000535512 0.0122129 0)
(-0.00345831 0.0347067 0)
(-0.00960848 0.0548041 0)
(-0.0181442 0.0721852 0)
(-0.0284812 0.0866537 0)
(-0.0401863 0.0981066 0)
(-0.0528374 0.106524 0)
(-0.0660381 0.111958 0)
(-0.0794321 0.114517 0)
(-0.0927043 0.114356 0)
(-0.10558 0.111662 0)
(-0.117824 0.106642 0)
(-0.129235 0.0995203 0)
(-0.139645 0.0905259 0)
(-0.148914 0.0798909 0)
(-0.156927 0.0678474 0)
(-0.163589 0.0546259 0)
(-0.168824 0.0404556 0)
(-0.172568 0.0255656 0)
(-0.174772 0.0101872 0)
(-0.175401 -0.00544433 0)
(-0.174428 -0.0210864 0)
(-0.171841 -0.0364871 0)
(-0.167644 -0.0513835 0)
(-0.161856 -0.0654999 0)
(-0.154519 -0.0785487 0)
(-0.145702 -0.0902318 0)
(-0.135503 -0.100244 0)
(-0.124058 -0.10828 0)
(-0.111544 -0.114041 0)
(-0.0981851 -0.117247 0)
(-0.0842553 -0.117647 0)
(-0.0700794 -0.115038 0)
(-0.0560323 -0.109277 0)
(-0.0425356 -0.1003 0)
(-0.0300505 -0.0881331 0)
(-0.0190564 -0.0729086 0)
(-0.010028 -0.054869 0)
(-0.00357396 -0.0343692 0)
(-0.000542012 -0.0119002 0)
(-0.00057834 0.0140334 0)
(-0.00372288 0.0396741 0)
(-0.0103227 0.0624091 0)
(-0.0194556 0.0819202 0)
(-0.0304777 0.0980271 0)
(-0.0429116 0.110654 0)
(-0.0562963 0.119816 0)
(-0.0702036 0.125605 0)
(-0.0842544 0.128176 0)
(-0.098119 0.127725 0)
(-0.111516 0.124482 0)
(-0.124207 0.118696 0)
(-0.135996 0.110625 0)
(-0.146723 0.100531 0)
(-0.156257 0.0886725 0)
(-0.164493 0.0753047 0)
(-0.171346 0.0606767 0)
(-0.176747 0.0450332 0)
(-0.18064 0.0286166 0)
(-0.182981 0.011669 0)
(-0.183733 -0.00556337 0)
(-0.182867 -0.0228272 0)
(-0.180365 -0.0398583 0)
(-0.176221 -0.0563786 0)
(-0.170441 -0.0720943 0)
(-0.163052 -0.0866944 0)
(-0.154105 -0.0998525 0)
(-0.143685 -0.111229 0)
(-0.13191 -0.120478 0)
(-0.118949 -0.127253 0)
(-0.10502 -0.131224 0)
(-0.0903988 -0.132085 0)
(-0.0754228 -0.129578 0)
(-0.0604902 -0.123506 0)
(-0.0460574 -0.113758 0)
(-0.0326326 -0.100322 0)
(-0.0207507 -0.0833056 0)
(-0.0109483 -0.0629428 0)
(-0.00391324 -0.0395973 0)
(-0.000596391 -0.01379 0)
(-0.000624105 0.0159923 0)
(-0.00400241 0.0450049 0)
(-0.0110716 0.0705469 0)
(-0.0208206 0.0923021 0)
(-0.0325389 0.11011 0)
(-0.0456999 0.123929 0)
(-0.0598003 0.133817 0)
(-0.0743788 0.139916 0)
(-0.0890336 0.142433 0)
(-0.103422 0.141617 0)
(-0.117258 0.137749 0)
(-0.130307 0.131122 0)
(-0.142381 0.122036 0)
(-0.15333 0.110786 0)
(-0.163039 0.0976603 0)
(-0.171416 0.0829356 0)
(-0.17839 0.0668795 0)
(-0.183904 0.0497502 0)
(-0.187912 0.0318002 0)
(-0.190374 0.0132797 0)
(-0.191254 -0.00555832 0)
(-0.190523 -0.0244535 0)
(-0.188155 -0.0431331 0)
(-0.184132 -0.061308 0)
(-0.178445 -0.0786687 0)
(-0.171103 -0.0948836 0)
(-0.162138 -0.109599 0)
(-0.151609 -0.122439 0)
(-0.139619 -0.133016 0)
(-0.126315 -0.140932 0)
(-0.111907 -0.145798 0)
(-0.0966661 -0.147245 0)
(-0.0809384 -0.144948 0)
(-0.0651427 -0.138645 0)
(-0.0497711 -0.128163 0)
(-0.0353812 -0.113442 0)
(-0.0225702 -0.0945539 0)
(-0.0119449 -0.0717171 0)
(-0.00428404 -0.0453016 0)
(-0.000656718 -0.0158601 0)
(-0.000673471 0.0180983 0)
(-0.00430027 0.0507178 0)
(-0.0118628 0.0792385 0)
(-0.0222499 0.103347 0)
(-0.034676 0.122907 0)
(-0.0485585 0.137919 0)
(-0.0633479 0.148495 0)
(-0.0785484 0.154839 0)
(-0.093736 0.157219 0)
(-0.108558 0.155949 0)
(-0.122727 0.151366 0)
(-0.136018 0.143818 0)
(-0.148255 0.133648 0)
(-0.159306 0.121188 0)
(-0.169074 0.106757 0)
(-0.177488 0.090655 0)
(-0.184493 0.0731645 0)
(-0.19005 0.054555 0)
(-0.194123 0.0350858 0)
(-0.19668 0.0150112 0)
(-0.197691 -0.00541361 0)
(-0.197122 -0.0259259 0)
(-0.19494 -0.0462495 0)
(-0.191116 -0.0660884 0)
(-0.185623 -0.0851221 0)
(-0.178449 -0.103001 0)
(-0.169597 -0.119346 0)
(-0.159103 -0.133748 0)
(-0.147039 -0.145772 0)
(-0.13353 -0.154966 0)
(-0.118764 -0.160874 0)
(-0.103005 -0.163055 0)
(-0.0865989 -0.161103 0)
(-0.0699826 -0.154676 0)
(-0.0536824 -0.143525 0)
(-0.0383092 -0.127525 0)
(-0.0245286 -0.106699 0)
(-0.0130278 -0.0812413 0)
(-0.00469098 -0.0515221 0)
(-0.000723977 -0.018128 0)
(-0.000727313 0.0203618 0)
(-0.0046208 0.0568358 0)
(-0.0127058 0.0885093 0)
(-0.0237572 0.115072 0)
(-0.0369022 0.13642 0)
(-0.0514951 0.152605 0)
(-0.0669353 0.163807 0)
(-0.0826907 0.170304 0)
(-0.0983167 0.172442 0)
(-0.113454 0.170608 0)
(-0.127821 0.165208 0)
(-0.141205 0.156649 0)
(-0.153451 0.145323 0)
(-0.164452 0.131605 0)
(-0.174136 0.115841 0)
(-0.182455 0.0983541 0)
(-0.189379 0.0794412 0)
(-0.194887 0.0593793 0)
(-0.19896 0.0384302 0)
(-0.201577 0.0168473 0)
(-0.202712 -0.00511702 0)
(-0.20233 -0.0272036 0)
(-0.200392 -0.0491384 0)
(-0.196855 -0.0706246 0)
(-0.191672 -0.0913357 0)
(-0.184804 -0.110909 0)
(-0.176227 -0.128944 0)
(-0.165939 -0.144997 0)
(-0.15398 -0.158588 0)
(-0.14044 -0.169207 0)
(-0.125478 -0.176324 0)
(-0.109338 -0.179412 0)
(-0.0923594 -0.177972 0)
(-0.0749912 -0.171564 0)
(-0.0577918 -0.159843 0)
(-0.0414274 -0.142599 0)
(-0.0266394 -0.119789 0)
(-0.0142077 -0.0915689 0)
(-0.00513934 -0.0583039 0)
(-0.00079933 -0.0206139 0)
(-0.000786816 0.0227961 0)
(-0.00496979 0.0633872 0)
(-0.0136134 0.0983894 0)
(-0.0253597 0.127497 0)
(-0.0392346 0.150646 0)
(-0.0545192 0.167957 0)
(-0.0705564 0.179691 0)
(-0.0867769 0.18622 0)
(-0.102718 0.187981 0)
(-0.118019 0.185452 0)
(-0.13241 0.179116 0)
(-0.145702 0.169447 0)
(-0.157767 0.156894 0)
(-0.16853 0.141871 0)
(-0.17795 0.124759 0)
(-0.186013 0.105897 0)
(-0.192716 0.0855962 0)
(-0.198063 0.0641356 0)
(-0.202053 0.0417753 0)
(-0.20468 0.0187619 0)
(-0.205924 -0.00466126 0)
(-0.205752 -0.0282451 0)
(-0.204117 -0.0517245 0)
(-0.200963 -0.0748087 0)
(-0.19622 -0.0971721 0)
(-0.189822 -0.118445 0)
(-0.181708 -0.13821 0)
(-0.171836 -0.155993 0)
(-0.160201 -0.17127 0)
(-0.146848 -0.183468 0)
(-0.131896 -0.191977 0)
(-0.115557 -0.196175 0)
(-0.0981536 -0.195451 0)
(-0.0801367 -0.189247 0)
(-0.062093 -0.177097 0)
(-0.0447448 -0.158681 0)
(-0.0289174 -0.133869 0)
(-0.0154972 -0.102758 0)
(-0.00563546 -0.0656974 0)
(-0.000884212 -0.0233409 0)
(-0.000853627 0.0254176 0)
(-0.00535519 0.0704074 0)
(-0.0146025 0.108916 0)
(-0.0270806 0.140643 0)
(-0.0416953 0.165581 0)
(-0.0576424 0.183932 0)
(-0.0742026 0.196065 0)
(-0.0907688 0.202465 0)
(-0.106865 0.203683 0)
(-0.122136 0.200299 0)
(-0.136335 0.192889 0)
(-0.149304 0.182003 0)
(-0.160953 0.168149 0)
(-0.171249 0.151786 0)
(-0.180191 0.133323 0)
(-0.187803 0.113119 0)
(-0.194117 0.09149 0)
(-0.199164 0.0687153 0)
(-0.202969 0.0450463 0)
(-0.20554 0.0207169 0)
(-0.206869 -0.00404569 0)
(-0.206924 -0.0290098 0)
(-0.205654 -0.0539272 0)
(-0.202985 -0.0785212 0)
(-0.198829 -0.102475 0)
(-0.193086 -0.125421 0)
(-0.185653 -0.146929 0)
(-0.176443 -0.166503 0)
(-0.165394 -0.183576 0)
(-0.152498 -0.197511 0)
(-0.137817 -0.207615 0)
(-0.121517 -0.213155 0)
(-0.103888 -0.213394 0)
(-0.0853704 -0.207628 0)
(-0.0665715 -0.195244 0)
(-0.048269 -0.175779 0)
(-0.0313793 -0.148982 0)
(-0.0169113 -0.11487 0)
(-0.00618724 -0.0737601 0)
(-0.000980455 -0.0263359 0)
(-0.000930065 0.0282479 0)
(-0.00578792 0.0779415 0)
(-0.0156963 0.120134 0)
(-0.0289508 0.154537 0)
(-0.0443127 0.18121 0)
(-0.0608784 0.20047 0)
(-0.0778602 0.212818 0)
(-0.094615 0.218881 0)
(-0.11066 0.219347 0)
(-0.125658 0.21492 0)
(-0.139396 0.206281 0)
(-0.151759 0.194062 0)
(-0.162709 0.178836 0)
(-0.172264 0.161107 0)
(-0.180473 0.141311 0)
(-0.187403 0.119821 0)
(-0.193128 0.0969555 0)
(-0.197713 0.0729863 0)
(-0.201208 0.0481501 0)
(-0.203642 0.0226608 0)
(-0.205019 -0.00327803 0)
(-0.205312 -0.0294601 0)
(-0.204465 -0.0556627 0)
(-0.202393 -0.0816323 0)
(-0.198981 -0.107071 0)
(-0.194097 -0.13162 0)
(-0.187595 -0.154851 0)
(-0.179331 -0.176251 0)
(-0.169182 -0.195214 0)
(-0.157069 -0.211044 0)
(-0.142984 -0.222958 0)
(-0.127026 -0.230105 0)
(-0.109434 -0.231599 0)
(-0.0906217 -0.226566 0)
(-0.0712026 -0.214208 0)
(-0.0520054 -0.193879 0)
(-0.0340442 -0.165168 0)
(-0.0184689 -0.127973 0)
(-0.00680489 -0.0825572 0)
(-0.00109048 -0.0296306 0)
(-0.00101943 0.0313151 0)
(-0.00628321 0.0860477 0)
(-0.0169262 0.132102 0)
(-0.031011 0.169204 0)
(-0.0471231 0.197511 0)
(-0.0642422 0.217486 0)
(-0.0815076 0.229802 0)
(-0.0982442 0.235263 0)
(-0.113974 0.234723 0)
(-0.128393 0.229032 0)
(-0.141338 0.218987 0)
(-0.152755 0.205314 0)
(-0.162669 0.188651 0)
(-0.171161 0.169546 0)
(-0.178338 0.148459 0)
(-0.184321 0.125772 0)
(-0.189228 0.101797 0)
(-0.193161 0.0767931 0)
(-0.196201 0.0509744 0)
(-0.198401 0.0245273 0)
(-0.199777 -0.00237609 0)
(-0.20031 -0.0295634 0)
(-0.199943 -0.0568464 0)
(-0.198576 -0.0840049 0)
(-0.196076 -0.11077 0)
(-0.192274 -0.136805 0)
(-0.186979 -0.161693 0)
(-0.179986 -0.184914 0)
(-0.1711 -0.205836 0)
(-0.160159 -0.223708 0)
(-0.147066 -0.237657 0)
(-0.131832 -0.246705 0)
(-0.11462 -0.249799 0)
(-0.095791 -0.245863 0)
(-0.0759468 -0.233871 0)
(-0.0559567 -0.212943 0)
(-0.0369353 -0.182455 0)
(-0.0201943 -0.142138 0)
(-0.007502 -0.0921645 0)
(-0.00121761 -0.0332628 0)
(-0.00112648 0.0346568 0)
(-0.00686234 0.0948021 0)
(-0.018335 0.14489 0)
(-0.0333149 0.184674 0)
(-0.0501708 0.214445 0)
(-0.0677472 0.234861 0)
(-0.0851071 0.24682 0)
(-0.101554 0.251345 0)
(-0.116633 0.249493 0)
(-0.130092 0.24228 0)
(-0.141841 0.230638 0)
(-0.151904 0.215389 0)
(-0.160388 0.197238 0)
(-0.167445 0.176772 0)
(-0.173252 0.154467 0)
(-0.177987 0.130707 0)
(-0.181818 0.105792 0)
(-0.184888 0.0799577 0)
(-0.18731 0.0533884 0)
(-0.18916 0.0262353 0)
(-0.190473 -0.00136902 0)
(-0.191239 -0.0292945 0)
(-0.191399 -0.0573965 0)
(-0.190847 -0.0854982 0)
(-0.189429 -0.113371 0)
(-0.186944 -0.140716 0)
(-0.183154 -0.167137 0)
(-0.177792 -0.192126 0)
(-0.170583 -0.215038 0)
(-0.161268 -0.235076 0)
(-0.149643 -0.251283 0)
(-0.135606 -0.26255 0)
(-0.119212 -0.26764 0)
(-0.100738 -0.265242 0)
(-0.0807442 -0.254054 0)
(-0.0601205 -0.232898 0)
(-0.0400812 -0.200861 0)
(-0.0221198 -0.157441 0)
(-0.00829722 -0.102671 0)
(-0.00136647 -0.037279 0)
(-0.00125816 0.0383239 0)
(-0.00755533 0.104305 0)
(-0.0199809 0.158589 0)
(-0.0359317 0.200976 0)
(-0.0535075 0.231948 0)
(-0.071398 0.252429 0)
(-0.088593 0.263607 0)
(-0.104393 0.266784 0)
(-0.118392 0.263257 0)
(-0.130423 0.254234 0)
(-0.14049 0.240793 0)
(-0.148721 0.223855 0)
(-0.155319 0.204187 0)
(-0.160523 0.182406 0)
(-0.164584 0.158998 0)
(-0.167743 0.134334 0)
(-0.170219 0.108695 0)
(-0.172197 0.082283 0)
(-0.173823 0.0552452 0)
(-0.175197 0.0276897 0)
(-0.176373 -0.00029809 0)
(-0.17735 -0.028638 0)
(-0.178076 -0.0572377 0)
(-0.178439 -0.0859738 0)
(-0.178269 -0.114671 0)
(-0.177339 -0.143077 0)
(-0.175367 -0.170842 0)
(-0.172024 -0.197481 0)
(-0.166949 -0.222357 0)
(-0.15978 -0.244644 0)
(-0.150184 -0.263315 0)
(-0.13792 -0.277133 0)
(-0.122897 -0.284665 0)
(-0.105267 -0.284333 0)
(-0.085503 -0.274501 0)
(-0.0644859 -0.253615 0)
(-0.0435163 -0.220381 0)
(-0.0242887 -0.173964 0)
(-0.00921669 -0.114183 0)
(-0.00154379 -0.0417372 0)
(-0.00142484 0.0423862 0)
(-0.0084049 0.11469 0)
(-0.0219427 0.17331 0)
(-0.0389485 0.218131 0)
(-0.0571877 0.249916 0)
(-0.0751778 0.269953 0)
(-0.0918495 0.279811 0)
(-0.106532 0.281138 0)
(-0.11891 0.275515 0)
(-0.128935 0.264369 0)
(-0.136745 0.248929 0)
(-0.142593 0.230212 0)
(-0.146795 0.209034 0)
(-0.149686 0.186031 0)
(-0.151597 0.161683 0)
(-0.152834 0.136339 0)
(-0.153665 0.110243 0)
(-0.154315 0.0835592 0)
(-0.154959 0.0563868 0)
(-0.155723 0.0287842 0)
(-0.156677 0.000783704 0)
(-0.157835 -0.0275911 0)
(-0.15915 -0.0563072 0)
(-0.160512 -0.0853034 0)
(-0.161743 -0.114468 0)
(-0.162597 -0.143614 0)
(-0.162755 -0.172449 0)
(-0.161831 -0.200539 0)
(-0.159384 -0.227276 0)
(-0.154937 -0.251834 0)
(-0.148018 -0.273137 0)
(-0.138214 -0.289832 0)
(-0.125251 -0.300289 0)
(-0.109096 -0.302637 0)
(-0.0900825 -0.294848 0)
(-0.0690249 -0.274894 0)
(-0.0472818 -0.240976 0)
(-0.0267598 -0.191793 0)
(-0.0102979 -0.126834 0)
(-0.0017596 -0.0467125 0)
(-0.00164236 0.0469413 0)
(-0.00947273 0.126135 0)
(-0.024327 0.189189 0)
(-0.0424717 0.236145 0)
(-0.061258 0.268181 0)
(-0.0790239 0.287096 0)
(-0.0946744 0.294955 0)
(-0.107621 0.293835 0)
(-0.117695 0.285649 0)
(-0.125019 0.272059 0)
(-0.1299 0.254441 0)
(-0.132743 0.233896 0)
(-0.133992 0.211272 0)
(-0.134086 0.187202 0)
(-0.133434 0.162141 0)
(-0.132401 0.136398 0)
(-0.131302 0.110173 0)
(-0.130393 0.0835748 0)
(-0.129877 0.0566521 0)
(-0.129896 0.0294067 0)
(-0.13054 0.00181332 0)
(-0.131834 -0.026165 0)
(-0.133743 -0.0545595 0)
(-0.136165 -0.0833779 0)
(-0.138925 -0.112582 0)
(-0.141765 -0.142062 0)
(-0.144344 -0.171603 0)
(-0.146234 -0.200846 0)
(-0.146919 -0.229243 0)
(-0.145814 -0.256001 0)
(-0.142295 -0.280029 0)
(-0.135756 -0.299892 0)
(-0.125692 -0.313775 0)
(-0.111825 -0.319498 0)
(-0.0942634 -0.314584 0)
(-0.0736768 -0.296426 0)
(-0.0514227 -0.262556 0)
(-0.0296133 -0.211016 0)
(-0.0115959 -0.140786 0)
(-0.00202941 -0.0523049 0)
(-0.00193582 0.0521274 0)
(-0.0108493 0.138877 0)
(-0.0272771 0.206383 0)
(-0.0466227 0.254978 0)
(-0.0657334 0.286471 0)
(-0.0827835 0.303371 0)
(-0.0967196 0.308397 0)
(-0.10712 0.304143 0)
(-0.114039 0.292898 0)
(-0.117834 0.276561 0)
(-0.119022 0.256641 0)
(-0.118184 0.234294 0)
(-0.1159 0.210368 0)
(-0.11271 0.185466 0)
(-0.109096 0.159994 0)
(-0.105473 0.134204 0)
(-0.102187 0.108233 0)
(-0.0995166 0.0821321 0)
(-0.0976803 0.055889 0)
(-0.0968352 0.029447 0)
(-0.0970808 0.00272123 0)
(-0.0984579 -0.0243866 0)
(-0.100946 -0.0519736 0)
(-0.104456 -0.0801193 0)
(-0.108827 -0.108865 0)
(-0.113808 -0.13819 0)
(-0.119055 -0.167973 0)
(-0.124114 -0.197957 0)
(-0.128417 -0.227686 0)
(-0.131286 -0.256445 0)
(-0.131947 -0.283181 0)
(-0.129586 -0.306421 0)
(-0.123426 -0.324207 0)
(-0.11287 -0.334058 0)
(-0.0976981 -0.333005 0)
(-0.078318 -0.317743 0)
(-0.0559799 -0.284939 0)
(-0.0329575 -0.231708 0)
(-0.0131927 -0.156248 0)
(-0.00237803 -0.0586516 0)
(-0.00234633 0.0581452 0)
(-0.01267 0.153233 0)
(-0.030982 0.22506 0)
(-0.0515232 0.274502 0)
(-0.070549 0.304339 0)
(-0.0861365 0.318077 0)
(-0.0973956 0.319271 0)