/*--------------------------------*- C++ -*----------------------------------*\
  =========                 |
  \\      /  F ield         | OpenFOAM: The Open Source CFD Toolbox
   \\    /   O peration     | Website:  https://openfoam.org
    \\  /    A nd           | Version:  7
     \\/     M anipulation  |
\*---------------------------------------------------------------------------*/
FoamFile
{
    version     2.0;
    format      ascii;
    class       volSymmTensorField;
    location    "700";
    object      devReff;
}
// * * * * * * * * * * * * * * * * * * * * * * * * * * * * * * * * * * * * * //

dimensions      [0 2 -2 0 0 0 0];

internalField   nonuniform List<symmTensor> 
180
(
(-8.89793e-21 -0.0241533 -0 1.77959e-20 -0 -8.89793e-21)
(1.44686e-20 -0.0298453 -0 -2.89372e-20 -0 1.44686e-20)
(-1.8803e-20 -0.0073999 -0 3.76059e-20 -0 -1.8803e-20)
(5.80191e-20 -0.0159295 -0 -7.35586e-20 -0 1.55394e-20)
(4.91838e-21 -0.00950746 -0 -9.83676e-21 -0 4.91838e-21)
(-7.05788e-21 -0.014986 -0 1.41158e-20 -0 -7.05788e-21)
(-6.89101e-20 -0.0116028 -0 3.74772e-20 -0 3.14329e-20)
(8.93555e-20 -0.0137791 -0 -5.18222e-20 -0 -3.75332e-20)
(3.24203e-21 -0.012898 -0 -6.48407e-21 -0 3.24203e-21)
(-1.48234e-20 -0.0132941 -0 2.96467e-20 -0 -1.48234e-20)
(4.17473e-20 -0.013447 -0 -8.34946e-20 -0 4.17473e-20)
(-1.02811e-19 -0.0130321 -0 2.05622e-19 -0 -1.02811e-19)
(8.996e-20 -0.0134435 -0 -1.7992e-19 -0 8.996e-20)
(-1.29238e-19 -0.012575 -0 2.58477e-19 -0 -1.29238e-19)
(2.69991e-20 -0.0130897 -0 -5.39982e-20 -0 2.69991e-20)
(-3.00978e-20 -0.0120636 -0 6.01956e-20 -0 -3.00978e-20)
(-5.14624e-20 -0.0125391 -0 1.02925e-19 -0 -5.14624e-20)
(2.8537e-20 -0.0115555 -0 -5.70741e-20 -0 2.8537e-20)
(4.70261e-20 -0.0118886 -0 -9.40521e-20 -0 4.70261e-20)
(4.34944e-20 -0.0110542 -0 -8.69888e-20 -0 4.34944e-20)
(1.6397e-19 -0.0111917 -0 -3.27941e-19 -0 1.6397e-19)
(5.89447e-20 -0.0105409 -0 -1.17889e-19 -0 5.89447e-20)
(2.30462e-20 -0.0104746 -0 -4.60924e-20 -0 2.30462e-20)
(3.23698e-20 -0.00999825 -0 -6.47397e-20 -0 3.23698e-20)
(-1.81475e-20 -0.00974886 -0 3.6295e-20 -0 -1.81475e-20)
(-8.91135e-20 -0.00941717 -0 1.78227e-19 -0 -8.91135e-20)
(2.53694e-19 -0.00901881 -0 -5.07387e-19 -0 2.53694e-19)
(-3.53555e-19 -0.00879649 -0 7.07111e-19 -0 -3.53555e-19)
(-1.4571e-18 -0.00828552 -0 2.81834e-19 -0 1.17527e-18)
(1.36445e-18 -0.00813999 -0 -1.01175e-19 -0 -1.26327e-18)
(-1.59747e-20 -0.00754881 -0 3.19494e-20 -0 -1.59747e-20)
(-6.64495e-20 -0.00745363 -0 1.32899e-19 -0 -6.64495e-20)
(-1.11384e-19 -0.00680822 -0 2.22767e-19 -0 -1.11384e-19)
(7.18432e-20 -0.00674369 -0 -1.43686e-19 -0 7.18432e-20)
(3.14071e-20 -0.00606343 -0 -6.28142e-20 -0 3.14071e-20)
(1.71123e-20 -0.00601579 -0 -3.42246e-20 -0 1.71123e-20)
(7.7142e-20 -0.00531435 -0 -1.54284e-19 -0 7.7142e-20)
(6.00509e-21 -0.00527456 -0 -1.20102e-20 -0 6.00509e-21)
(6.49819e-20 -0.0045612 -0 -1.29964e-19 -0 6.49819e-20)
(2.25116e-21 -0.00452365 -0 -4.50233e-21 -0 2.25116e-21)
(5.05243e-20 -0.00380447 -0 -1.01049e-19 -0 5.05243e-20)
(3.95928e-21 -0.00376589 -0 -7.91856e-21 -0 3.95928e-21)
(3.4733e-20 -0.00304487 -0 -6.94661e-20 -0 3.4733e-20)
(7.11468e-21 -0.0030035 -0 -1.42294e-20 -0 7.11468e-21)
(2.05611e-20 -0.00228328 -0 -4.11223e-20 -0 2.05611e-20)
(1.03012e-20 -0.00223828 -0 -2.06023e-20 -0 1.03012e-20)
(8.93104e-21 -0.00152074 -0 -1.78621e-20 -0 8.93104e-21)
(1.30891e-20 -0.00147179 -0 -2.61782e-20 -0 1.30891e-20)
(-1.3407e-23 -0.000758365 -0 2.6814e-23 -0 -1.3407e-23)
(1.51031e-20 -0.000705426 -0 -3.02061e-20 -0 1.51031e-20)
(-6.44533e-21 2.64827e-06 -0 1.28907e-20 -0 -6.44533e-21)
(1.65687e-20 5.95107e-05 -0 -3.31375e-20 -0 1.65687e-20)
(-1.09796e-20 0.000761075 -0 2.19593e-20 -0 -1.09796e-20)
(1.75191e-20 0.000821753 -0 -3.50383e-20 -0 1.75191e-20)
(-1.41594e-20 0.00151566 -0 2.83188e-20 -0 -1.41594e-20)
(1.81057e-20 0.00158005 -0 -3.62114e-20 -0 1.81057e-20)
(-1.62014e-20 0.00226516 -0 3.24027e-20 -0 -1.62014e-20)
(1.8408e-20 0.00233318 -0 -3.68159e-20 -0 1.8408e-20)
(-1.75288e-20 0.00300832 -0 3.50576e-20 -0 -1.75288e-20)
(1.84118e-20 0.00307989 -0 -3.68235e-20 -0 1.84118e-20)
(-1.79394e-20 0.0037439 -0 3.58789e-20 -0 -1.79394e-20)
(1.81705e-20 0.00381898 -0 -3.6341e-20 -0 1.81705e-20)
(-1.82745e-20 0.00447067 -0 3.65489e-20 -0 -1.82745e-20)
(1.76326e-20 0.00454923 -0 -3.52653e-20 -0 1.76326e-20)
(-1.86537e-20 0.00518746 -0 3.73075e-20 -0 -1.86537e-20)
(1.6723e-20 0.00526946 -0 -3.3446e-20 -0 1.6723e-20)
(-1.81155e-20 0.00589307 -0 3.6231e-20 -0 -1.81155e-20)
(1.60011e-20 0.00597849 -0 -3.20021e-20 -0 1.60011e-20)
(-1.72852e-20 0.00658637 -0 3.45704e-20 -0 -1.72852e-20)
(1.50581e-20 0.00667519 -0 -3.01161e-20 -0 1.50581e-20)
(-1.61818e-20 0.00726625 -0 3.23636e-20 -0 -1.61818e-20)
(1.33357e-20 0.00735842 -0 -2.66714e-20 -0 1.33357e-20)
(-1.45965e-20 0.00793162 -0 2.9193e-20 -0 -1.45965e-20)
(1.13627e-20 0.00802711 -0 -2.27253e-20 -0 1.13627e-20)
(-1.35351e-20 0.00858142 -0 2.70702e-20 -0 -1.35351e-20)
(9.17859e-21 0.00868019 -0 -1.83572e-20 -0 9.17859e-21)
(-1.21875e-20 0.00921466 -0 2.43751e-20 -0 -1.21875e-20)
(7.75642e-21 0.00931665 -0 -1.55128e-20 -0 7.75642e-21)
(-9.64026e-21 0.00983034 -0 1.92805e-20 -0 -9.64026e-21)
(6.06073e-21 0.0099355 -0 -1.21215e-20 -0 6.06073e-21)
(-7.99231e-21 0.0104275 -0 1.59846e-20 -0 -7.99231e-21)
(3.22912e-21 0.0105358 -0 -6.45823e-21 -0 3.22912e-21)
(-6.2304e-21 0.0110053 -0 1.24608e-20 -0 -6.2304e-21)
(1.35525e-21 0.0111166 -0 -2.71049e-21 -0 1.35525e-21)
(-3.30249e-21 0.0115628 -0 6.60497e-21 -0 -3.30249e-21)
(-5.79901e-22 0.0116771 -0 1.1598e-21 -0 -5.79901e-22)
(-1.28032e-21 0.0120992 -0 2.56063e-21 -0 -1.28032e-21)
(-3.64301e-21 0.0122163 -0 7.28602e-21 -0 -3.64301e-21)
(6.4159e-22 0.0126137 -0 -1.28318e-21 -0 6.4159e-22)
(-5.75805e-21 0.0127337 -0 1.15161e-20 -0 -5.75805e-21)
(3.56116e-21 0.0131056 -0 -7.12232e-21 -0 3.56116e-21)
(-7.74428e-21 0.0132283 -0 1.54886e-20 -0 -7.74428e-21)
(6.51156e-21 0.0135742 -0 -1.30231e-20 -0 6.51156e-21)
(-1.07055e-20 0.0136995 -0 2.14111e-20 -0 -1.07055e-20)
(9.45859e-21 0.0140187 -0 -1.89172e-20 -0 9.45859e-21)
(-1.36868e-20 0.0141466 -0 2.73736e-20 -0 -1.36868e-20)
(1.24069e-20 0.0144387 -0 -2.48138e-20 -0 1.24069e-20)
(-1.45282e-20 0.0145689 -0 2.90564e-20 -0 -1.45282e-20)
(1.31482e-20 0.0148335 -0 -2.62965e-20 -0 1.31482e-20)
(-1.50657e-20 0.0149661 -0 3.01314e-20 -0 -1.50657e-20)
(1.35369e-20 0.0152026 -0 -2.70738e-20 -0 1.35369e-20)
(-1.71281e-20 0.0153374 -0 3.42562e-20 -0 -1.71281e-20)
(1.54057e-20 0.0155455 -0 -3.08114e-20 -0 1.54057e-20)
(-1.87683e-20 0.0156824 -0 3.75365e-20 -0 -1.87683e-20)
(1.68363e-20 0.0158618 -0 -3.36726e-20 -0 1.68363e-20)
(-2.02715e-20 0.0160007 -0 4.05429e-20 -0 -2.02715e-20)
(1.81094e-20 0.0161511 -0 -3.62188e-20 -0 1.81094e-20)
(-2.15329e-20 0.016292 -0 4.30658e-20 -0 -2.15329e-20)
(1.91061e-20 0.0164131 -0 -3.82121e-20 -0 1.91061e-20)
(-2.24877e-20 0.0165558 -0 4.49753e-20 -0 -2.24877e-20)
(1.97576e-20 0.0166475 -0 -3.95152e-20 -0 1.97576e-20)
(-2.31171e-20 0.0167918 -0 4.62343e-20 -0 -2.31171e-20)
(2.00264e-20 0.016854 -0 -4.00528e-20 -0 2.00264e-20)
(-2.3401e-20 0.0169999 -0 4.68019e-20 -0 -2.3401e-20)
(1.99129e-20 0.0170325 -0 -3.98258e-20 -0 1.99129e-20)
(-2.33393e-20 0.0171798 -0 4.66786e-20 -0 -2.33393e-20)
(1.94007e-20 0.0171828 -0 -3.88015e-20 -0 1.94007e-20)
(-2.29324e-20 0.0173315 -0 4.58648e-20 -0 -2.29324e-20)
(1.85358e-20 0.0173048 -0 -3.70716e-20 -0 1.85358e-20)
(-2.21811e-20 0.0174547 -0 4.43622e-20 -0 -2.21811e-20)
(1.73492e-20 0.0173984 -0 -3.46984e-20 -0 1.73492e-20)
(-2.11075e-20 0.0175495 -0 4.22151e-20 -0 -2.11075e-20)
(1.59673e-20 0.0174637 -0 -3.19346e-20 -0 1.59673e-20)
(-1.97388e-20 0.0176158 -0 3.94775e-20 -0 -1.97388e-20)
(1.40892e-20 0.0175007 -0 -2.81783e-20 -0 1.40892e-20)
(-1.81397e-20 0.0176537 -0 3.62794e-20 -0 -1.81397e-20)
(1.36417e-20 0.0175096 -0 -2.72834e-20 -0 1.36417e-20)
(-1.64186e-20 0.0176634 -0 3.28372e-20 -0 -1.64186e-20)
(1.2848e-20 0.0174904 -0 -2.56961e-20 -0 1.2848e-20)
(-1.42914e-20 0.0176449 -0 2.85827e-20 -0 -1.42914e-20)
(9.7979e-21 0.0174433 -0 -1.95958e-20 -0 9.7979e-21)
(-1.36609e-20 0.0175985 -0 2.73218e-20 -0 -1.36609e-20)
(6.69293e-21 0.0173687 -0 -1.33859e-20 -0 6.69293e-21)
(-1.2704e-20 0.0175243 -0 2.54079e-20 -0 -1.2704e-20)
(3.56705e-21 0.0172667 -0 -7.1341e-21 -0 3.56705e-21)
(-9.51576e-21 0.0174228 -0 1.90315e-20 -0 -9.51576e-21)
(2.32843e-21 0.0171377 -0 -4.65686e-21 -0 2.32843e-21)
(-6.31802e-21 0.0172941 -0 1.2636e-20 -0 -6.31802e-21)
(7.8238e-22 0.0169821 -0 -1.56476e-21 -0 7.8238e-22)
(-3.16242e-21 0.0171388 -0 6.32484e-21 -0 -3.16242e-21)
(-2.86382e-21 0.0168004 -0 5.72764e-21 -0 -2.86382e-21)
(-1.93126e-21 0.0169572 -0 3.86253e-21 -0 -1.93126e-21)
(-6.28254e-21 0.0165929 -0 1.25651e-20 -0 -6.28254e-21)
(-4.37727e-22 0.0167497 -0 8.75454e-22 -0 -4.37727e-22)
(-9.77426e-21 0.0163601 -0 1.95485e-20 -0 -9.77426e-21)
(3.12244e-21 0.016517 -0 -6.24487e-21 -0 3.12244e-21)
(-1.14435e-20 0.0161027 -0 2.2887e-20 -0 -1.14435e-20)
(6.41132e-21 0.0162595 -0 -1.28226e-20 -0 6.41132e-21)
(-1.31013e-20 0.0158211 -0 2.62026e-20 -0 -1.31013e-20)
(9.72936e-21 0.0159777 -0 -1.94587e-20 -0 9.72936e-21)
(-1.66135e-20 0.015516 -0 3.3227e-20 -0 -1.66135e-20)
(1.11669e-20 0.0156725 -0 -2.23338e-20 -0 1.11669e-20)
(-1.96978e-20 0.0151882 -0 3.93957e-20 -0 -1.96978e-20)
(1.25193e-20 0.0153443 -0 -2.50386e-20 -0 1.25193e-20)
(-2.27101e-20 0.0148383 -0 4.54203e-20 -0 -2.27101e-20)
(1.56218e-20 0.0149941 -0 -3.12436e-20 -0 1.56218e-20)
(-2.3833e-20 0.0144674 -0 4.76659e-20 -0 -2.3833e-20)
(1.814e-20 0.0146229 -0 -3.628e-20 -0 1.814e-20)
(-2.49086e-20 0.0140768 -0 4.98172e-20 -0 -2.49086e-20)
(2.03449e-20 0.0142317 -0 -4.06898e-20 -0 2.03449e-20)
(-2.78261e-20 0.0136681 -0 5.56522e-20 -0 -2.78261e-20)
(2.25181e-20 0.0138225 -0 -4.50362e-20 -0 2.25181e-20)
(-3.04042e-20 0.0132438 -0 6.08084e-20 -0 -3.04042e-20)
(2.46086e-20 0.0133977 -0 -4.92171e-20 -0 2.46086e-20)
(-3.27275e-20 0.0128077 -0 6.5455e-20 -0 -3.27275e-20)
(2.66394e-20 0.0129611 -0 -5.32788e-20 -0 2.66394e-20)
(-3.3767e-20 0.0123654 -0 6.7534e-20 -0 -3.3767e-20)
(2.75319e-20 0.0125183 -0 -5.50639e-20 -0 2.75319e-20)
(-3.44693e-20 0.0119253 -0 6.89386e-20 -0 -3.44693e-20)
(2.81734e-20 0.0120777 -0 -5.63468e-20 -0 2.81734e-20)
(-3.57656e-20 0.0114998 -0 7.15312e-20 -0 -3.57656e-20)
(2.94537e-20 0.0116518 -0 -5.89075e-20 -0 2.94537e-20)
(-3.67458e-20 0.0111064 -0 7.34916e-20 -0 -3.67458e-20)
(3.04418e-20 0.0112582 -0 -6.08837e-20 -0 3.04418e-20)
(-3.75107e-20 0.0106489 -0 7.50215e-20 -0 -3.75107e-20)
(3.12129e-20 0.0108006 -0 -6.24258e-20 -0 3.12129e-20)
(-3.69918e-20 0.0101051 -0 7.39837e-20 -0 -3.69918e-20)
(3.07024e-20 0.0102572 -0 -6.14047e-20 -0 3.07024e-20)
(-3.56833e-20 0.00474442 -0 7.13666e-20 -0 -3.56833e-20)
(2.93882e-20 0.00482057 -0 -5.87765e-20 -0 2.93882e-20)
)
;

boundaryField
{
    inlet
    {
        type            cyclic;
    }
    outlet
    {
        type            cyclic;
    }
    bottom
    {
        type            symmetry;
    }
    top
    {
        type            calculated;
        value           nonuniform List<symmTensor> 2((4.67656e-21 -0.0187508 -0 -9.35313e-21 -0 4.67656e-21) (-2.75992e-21 -0.0158892 -0 5.51985e-21 -0 -2.75992e-21));
    }
    frontAndBack
    {
        type            empty;
    }
}


// ************************************************************************* //
