/*--------------------------------*- C++ -*----------------------------------*\
  =========                 |
  \\      /  F ield         | OpenFOAM: The Open Source CFD Toolbox
   \\    /   O peration     | Website:  https://openfoam.org
    \\  /    A nd           | Version:  7
     \\/     M anipulation  |
\*---------------------------------------------------------------------------*/
FoamFile
{
    version     2.0;
    format      ascii;
    class       volScalarField;
    location    "700";
    object      k;
}
// * * * * * * * * * * * * * * * * * * * * * * * * * * * * * * * * * * * * * //

dimensions      [0 2 -2 0 0 0 0];

internalField   nonuniform List<scalar> 
180
(
0.043635
0.0644317
0.0406897
0.0459132
0.0456512
0.0471888
0.050673
0.0495153
0.0548019
0.0525472
0.0584662
0.0562671
0.0619494
0.0602033
0.0653719
0.064131
0.0687745
0.067961
0.0721653
0.0716716
0.0755405
0.0752691
0.0788928
0.0787682
0.0822152
0.0821837
0.0855018
0.0855274
0.0887483
0.0888084
0.091952
0.0920328
0.0951113
0.0952048
0.0982256
0.0983275
0.101295
0.101403
0.104319
0.104433
0.1073
0.107418
0.110237
0.110361
0.113132
0.113261
0.115985
0.116119
0.118797
0.118937
0.121568
0.121714
0.1243
0.124452
0.126992
0.12715
0.129645
0.129808
0.132259
0.132428
0.134834
0.135008
0.13737
0.13755
0.139867
0.140052
0.142324
0.142516
0.144743
0.14494
0.147121
0.147324
0.14946
0.149669
0.151759
0.151973
0.154017
0.154237
0.156235
0.15646
0.158411
0.158641
0.160546
0.160781
0.162638
0.162879
0.164689
0.164935
0.166696
0.166947
0.168661
0.168917
0.170582
0.170843
0.172459
0.172724
0.174291
0.174562
0.176079
0.176354
0.177822
0.178102
0.17952
0.179804
0.181172
0.18146
0.182778
0.183071
0.184338
0.184635
0.185852
0.186153
0.187319
0.187624
0.18874
0.189048
0.190114
0.190426
0.191441
0.191756
0.192721
0.193039
0.193954
0.194276
0.19514
0.195464
0.196278
0.196606
0.19737
0.197701
0.198415
0.198748
0.199413
0.199749
0.200365
0.200703
0.201269
0.20161
0.202128
0.20247
0.20294
0.203284
0.203706
0.204052
0.204426
0.204774
0.205101
0.20545
0.20573
0.206081
0.206315
0.206667
0.206854
0.207208
0.207349
0.207704
0.2078
0.208156
0.208207
0.208564
0.208571
0.208928
0.208891
0.209249
0.209169
0.209527
0.209403
0.209762
0.209596
0.209955
0.209746
0.210106
0.209855
0.210214
0.209922
0.210281
0.209946
0.210305
0.209928
0.210287
)
;

boundaryField
{
    inlet
    {
        type            cyclic;
    }
    outlet
    {
        type            cyclic;
    }
    bottom
    {
        type            symmetry;
    }
    top
    {
        type            kqRWallFunction;
        value           nonuniform List<scalar> 2(0.043635 0.0644317);
    }
    frontAndBack
    {
        type            empty;
    }
}


// ************************************************************************* //
