/*--------------------------------*- C++ -*----------------------------------*\
  =========                 |
  \\      /  F ield         | OpenFOAM: The Open Source CFD Toolbox
   \\    /   O peration     | Website:  https://openfoam.org
    \\  /    A nd           | Version:  7
     \\/     M anipulation  |
\*---------------------------------------------------------------------------*/
FoamFile
{
    version     2.0;
    format      ascii;
    class       volScalarField;
    location    "700";
    object      nut;
}
// * * * * * * * * * * * * * * * * * * * * * * * * * * * * * * * * * * * * * //

dimensions      [0 2 -1 0 0 0 0];

internalField   nonuniform List<scalar> 
180
(
1.27294e-05
2.02338e-05
2.5529e-05
4.44175e-05
5.91775e-05
8.82653e-05
0.000118542
0.000152547
0.000202691
0.000234269
0.000309225
0.000334128
0.000433298
0.000449086
0.000569883
0.000576753
0.000715178
0.000715195
0.000866718
0.000862546
0.00102295
0.00101694
0.00118279
0.0011766
0.00134541
0.00133999
0.00151006
0.00150583
0.00167607
0.00167309
0.0018428
0.00184096
0.00200967
0.00200878
0.00217615
0.00217602
0.00234176
0.00234223
0.00250608
0.00250702
0.00266872
0.00267004
0.00282938
0.00283102
0.00298778
0.0029897
0.0031437
0.00314586
0.00329693
0.00329932
0.00344732
0.00344993
0.00359475
0.00359756
0.00373912
0.00374213
0.00388035
0.00388355
0.00401838
0.00402177
0.00415318
0.00415675
0.00428472
0.00428846
0.00441299
0.0044169
0.00453798
0.00454206
0.00465972
0.00466396
0.00477822
0.00478262
0.0048935
0.00489805
0.0050056
0.00501029
0.00511455
0.00511938
0.00522039
0.00522536
0.00532317
0.00532827
0.00542293
0.00542816
0.00551972
0.00552508
0.00561359
0.00561907
0.0057046
0.0057102
0.00579279
0.00579851
0.00587822
0.00588405
0.00596094
0.00596688
0.006041
0.00604705
0.00611847
0.00612461
0.00619337
0.00619962
0.00626578
0.00627212
0.00633573
0.00634216
0.00640328
0.0064098
0.00646847
0.00647508
0.00653135
0.00653804
0.00659196
0.00659874
0.00665035
0.0066572
0.00670656
0.00671349
0.00676063
0.00676763
0.00681259
0.00681966
0.00686249
0.00686962
0.00691035
0.00691755
0.00695622
0.00696348
0.00700012
0.00700744
0.00704208
0.00704946
0.00708214
0.00708957
0.00712031
0.0071278
0.00715663
0.00716417
0.00719112
0.00719871
0.00722381
0.00723143
0.0072547
0.00726237
0.00728383
0.00729154
0.00731122
0.00731896
0.00733687
0.00734464
0.0073608
0.00736861
0.00738304
0.00739088
0.00740358
0.00741145
0.00742246
0.00743035
0.00743967
0.00744758
0.00745523
0.00746316
0.00746915
0.0074771
0.00748143
0.0074894
0.00749208
0.00750007
0.00750112
0.00750911
0.00750852
0.00751652
0.00751429
0.0075223
0.0075184
0.00752642
0.00752085
0.00752886
0.00752163
0.00752965
)
;

boundaryField
{
    inlet
    {
        type            cyclic;
    }
    outlet
    {
        type            cyclic;
    }
    bottom
    {
        type            symmetry;
    }
    top
    {
        type            nutkWallFunction;
        Cmu             0.09;
        kappa           0.41;
        E               9.8;
        value           uniform 0;
    }
    frontAndBack
    {
        type            empty;
    }
}


// ************************************************************************* //
