/*--------------------------------*- C++ -*----------------------------------*\
  =========                 |
  \\      /  F ield         | OpenFOAM: The Open Source CFD Toolbox
   \\    /   O peration     | Website:  https://openfoam.org
    \\  /    A nd           | Version:  7
     \\/     M anipulation  |
\*---------------------------------------------------------------------------*/
FoamFile
{
    version     2.0;
    format      ascii;
    class       volScalarField;
    location    "700";
    object      omega;
}
// * * * * * * * * * * * * * * * * * * * * * * * * * * * * * * * * * * * * * //

dimensions      [0 0 -1 0 0 0 0];

internalField   nonuniform List<scalar> 
180
(
3391.48
2592
1593.86
1033.67
771.427
534.624
427.47
324.589
270.371
224.303
189.073
168.4
142.972
134.057
114.711
111.193
96.1642
95.0245
83.2627
83.0931
73.8459
74.0155
66.7005
66.9455
61.108
61.3314
56.6214
56.7976
52.9503
53.0805
49.898
49.9918
47.3268
47.3944
45.1373
45.1868
43.2558
43.2934
41.6265
41.6562
40.2064
40.231
38.9614
38.9827
37.8647
37.8837
36.8944
36.9118
36.0326
36.049
35.2646
35.2802
34.5782
34.5933
33.9632
33.9778
33.4107
33.4251
32.9135
32.9277
32.4652
32.4793
32.0604
32.0744
31.6943
31.7083
31.3629
31.3769
31.0625
31.0765
30.79
30.8041
30.5426
30.5568
30.3178
30.3321
30.1135
30.128
29.9278
29.9424
29.7588
29.7735
29.605
29.6198
29.465
29.48
29.3375
29.3527
29.2214
29.2367
29.1156
29.1311
29.0193
29.0349
28.9314
28.9472
28.8514
28.8673
28.7783
28.7944
28.7117
28.7279
28.6508
28.6672
28.5953
28.6117
28.5445
28.5611
28.498
28.5147
28.4554
28.4722
28.4163
28.4333
28.3805
28.3975
28.3474
28.3646
28.317
28.3343
28.2889
28.3063
28.2629
28.2804
28.2387
28.2563
28.2163
28.2339
28.1953
28.213
28.1757
28.1934
28.1572
28.1751
28.1399
28.1578
28.1235
28.1414
28.1079
28.1259
28.0932
28.1112
28.0791
28.0972
28.0657
28.0838
28.0529
28.071
28.0406
28.0587
28.0288
28.0469
28.0175
28.0356
28.0066
28.0247
27.9961
28.0143
27.9861
28.0042
27.9764
27.9946
27.9672
27.9853
27.9584
27.9765
27.95
27.968
27.942
27.96
27.9345
27.9525
27.9275
27.9455
27.9211
27.939
27.9153
27.9332
27.91
27.9279
)
;

boundaryField
{
    inlet
    {
        type            cyclic;
    }
    outlet
    {
        type            cyclic;
    }
    bottom
    {
        type            symmetry;
    }
    top
    {
        beta1           0.075;
        blended         0;
        type            omegaWallFunction;
        value           nonuniform List<scalar> 2(3391.48 2592);
    }
    frontAndBack
    {
        type            empty;
    }
}


// ************************************************************************* //
