/*--------------------------------*- C++ -*----------------------------------*\
  =========                 |
  \\      /  F ield         | OpenFOAM: The Open Source CFD Toolbox
   \\    /   O peration     | Website:  https://openfoam.org
    \\  /    A nd           | Version:  7
     \\/     M anipulation  |
\*---------------------------------------------------------------------------*/
FoamFile
{
    version     2.0;
    format      ascii;
    class       volScalarField;
    location    "700";
    object      p;
}
// * * * * * * * * * * * * * * * * * * * * * * * * * * * * * * * * * * * * * //

dimensions      [0 2 -2 0 0 0 0];

internalField   nonuniform List<scalar> 
180
(
2.07971e-20
-1.30113e-16
7.43082e-20
-1.30117e-16
9.6413e-20
-1.30155e-16
1.8951e-19
-1.30249e-16
3.00298e-19
-1.30363e-16
4.53392e-19
-1.30448e-16
5.83527e-19
-1.30566e-16
7.51683e-19
-1.30633e-16
9.62931e-19
-1.30834e-16
1.21999e-18
-1.30944e-16
1.5266e-18
-1.31078e-16
1.68988e-18
-1.3143e-16
2.10085e-18
-1.31836e-16
2.56588e-18
-1.32297e-16
2.25074e-18
-1.3198e-16
2.21222e-18
-1.31939e-16
2.50862e-18
-1.32233e-16
2.83227e-18
-1.3219e-16
2.78939e-18
-1.32145e-16
2.74505e-18
-1.32098e-16
2.69965e-18
-1.3205e-16
2.65301e-18
-1.32002e-16
2.6055e-18
-1.31952e-16
2.55694e-18
-1.31902e-16
2.50771e-18
-1.3185e-16
2.45763e-18
-1.31798e-16
2.40705e-18
-1.31746e-16
2.35581e-18
-1.31693e-16
2.30424e-18
-1.31639e-16
2.25219e-18
-1.31585e-16
2.19996e-18
-1.31531e-16
2.14744e-18
-1.31477e-16
2.09485e-18
-1.31423e-16
2.04215e-18
-1.31368e-16
1.98952e-18
-1.31314e-16
1.93693e-18
-1.3126e-16
1.88452e-18
-1.31206e-16
1.83229e-18
-1.31153e-16
1.78037e-18
-1.31099e-16
1.72874e-18
-1.31046e-16
1.67753e-18
-1.30994e-16
1.62672e-18
-1.30942e-16
1.57642e-18
-1.3089e-16
1.52662e-18
-1.30839e-16
1.47743e-18
-1.30789e-16
1.42881e-18
-1.30739e-16
1.38087e-18
-1.3069e-16
1.33358e-18
-1.30641e-16
1.28704e-18
-1.30594e-16
1.24122e-18
-1.30547e-16
1.19622e-18
-1.30501e-16
1.152e-18
-1.30456e-16
1.10865e-18
-1.30411e-16
1.06617e-18
-1.30368e-16
1.0246e-18
-1.30325e-16
9.83959e-19
-1.30284e-16
9.4428e-19
-1.30243e-16
9.05592e-19
-1.30204e-16
8.67911e-19
-1.30166e-16
8.31263e-19
-1.30128e-16
7.95668e-19
-1.30092e-16
7.6114e-19
-1.30057e-16
7.27704e-19
-1.30023e-16
6.95364e-19
-1.2999e-16
6.64148e-19
-1.29958e-16
6.34059e-19
-1.29927e-16
6.05121e-19
-1.29898e-16
5.77343e-19
-1.29869e-16
5.50737e-19
-1.29842e-16
5.25323e-19
-1.29816e-16
5.01102e-19
-1.29792e-16
4.78101e-19
-1.29768e-16
4.56315e-19
-1.29746e-16
4.35769e-19
-1.29725e-16
4.16456e-19
-1.29706e-16
3.984e-19
-1.29687e-16
3.81596e-19
-1.2967e-16
3.6606e-19
-1.29655e-16
3.51792e-19
-1.2964e-16
3.38801e-19
-1.29627e-16
3.27091e-19
-1.29615e-16
3.16662e-19
-1.29604e-16
3.07524e-19
-1.29595e-16
2.9967e-19
-1.29587e-16
2.93111e-19
-1.29581e-16
2.87844e-19
-1.29575e-16
2.8387e-19
-1.29571e-16
2.81192e-19
-1.29568e-16
2.79808e-19
-1.29567e-16
2.79631e-19
-1.29567e-16
)
;

boundaryField
{
    inlet
    {
        type            cyclic;
    }
    outlet
    {
        type            cyclic;
    }
    bottom
    {
        type            symmetry;
    }
    top
    {
        type            zeroGradient;
    }
    frontAndBack
    {
        type            empty;
    }
}


// ************************************************************************* //
