/*--------------------------------*- C++ -*----------------------------------*\
  =========                 |
  \\      /  F ield         | OpenFOAM: The Open Source CFD Toolbox
   \\    /   O peration     | Website:  https://openfoam.org
    \\  /    A nd           | Version:  7
     \\/     M anipulation  |
\*---------------------------------------------------------------------------*/
FoamFile
{
    version     2.0;
    format      ascii;
    class       surfaceScalarField;
    location    "700";
    object      phi;
}
// * * * * * * * * * * * * * * * * * * * * * * * * * * * * * * * * * * * * * //

dimensions      [0 3 -1 0 0 0 0];

internalField   nonuniform List<scalar> 
268
(
0.00107893
-6.11699e-19
3.29722e-19
0.00146652
-5.70777e-19
8.5606e-19
0.00169068
-7.5521e-19
8.01625e-19
0.00182142
-7.22858e-19
8.32591e-19
0.00190516
-7.3178e-19
8.86194e-19
0.00196254
-7.11632e-19
5.74365e-19
0.00200331
-3.51721e-19
1.84744e-19
0.00203338
-3.9973e-19
2.67643e-19
0.00205628
-4.55628e-19
2.69473e-19
0.0020742
-5.27944e-19
3.08135e-19
0.00208851
-1.64459e-19
3.76439e-19
0.00210013
-2.70465e-19
3.88821e-19
0.00210967
-4.06829e-19
4.69944e-19
0.00211756
-9.94266e-20
1.06817e-19
0.0021241
1.11741e-19
-1.48927e-19
0.00212955
1.45998e-22
-6.38526e-20
0.00213407
-4.63881e-20
-6.54805e-20
0.0021378
-1.33892e-20
-4.87988e-20
0.00214086
3.93131e-21
-4.66858e-20
0.00214334
2.52743e-20
-4.58847e-20
0.0021453
4.11222e-20
-4.47011e-20
0.00214681
5.11914e-20
-4.25487e-20
0.00214791
5.70017e-20
-3.97383e-20
0.00214866
5.92675e-20
-3.62236e-20
0.00214907
5.93389e-20
-3.2464e-20
0.00214919
5.7705e-20
-2.84263e-20
0.00214904
5.52371e-20
-2.44139e-20
0.00214864
5.20115e-20
-2.03589e-20
0.00214801
4.86137e-20
-1.64407e-20
0.00214718
4.49073e-20
-1.26142e-20
0.00214614
4.1393e-20
-8.9912e-21
0.00214493
3.7767e-20
-5.56445e-21
0.00214355
3.43266e-20
-2.41583e-21
0.00214201
3.09335e-20
5.11176e-22
0.00214032
2.79153e-20
3.20447e-21
0.0021385
2.50372e-20
5.51559e-21
0.00213655
2.26094e-20
7.45537e-21
0.00213448
2.03137e-20
8.97123e-21
0.0021323
1.83701e-20
1.02393e-20
0.00213001
1.68002e-20
1.12018e-20
0.00212763
1.55795e-20
1.17058e-20
0.00212516
1.45982e-20
1.19191e-20
0.0021226
1.41227e-20
1.18239e-20
0.00211997
1.391e-20
1.12968e-20
0.00211727
1.40257e-20
1.04446e-20
0.0021145
1.45131e-20
9.34886e-21
0.00211166
1.54587e-20
7.82052e-21
0.00210878
1.67541e-20
5.92633e-21
0.00210584
1.8486e-20
3.91577e-21
0.00210286
2.0251e-20
1.87909e-21
0.00209984
2.20899e-20
-4.26503e-22
0.00209678
2.41195e-20
-2.91084e-21
0.0020937
2.63412e-20
-5.57335e-21
0.00209059
2.86882e-20
-8.36612e-21
0.00208746
3.11468e-20
-1.1257e-20
0.00208431
3.3668e-20
-1.41974e-20
0.00208115
3.61869e-20
-1.71496e-20
0.00207798
3.86903e-20
-2.00644e-20
0.00207481
4.1083e-20
-2.29092e-20
0.00207164
4.33786e-20
-2.5634e-20
0.00206847
4.54838e-20
-2.82113e-20
0.00206532
4.74318e-20
-3.0601e-20
0.00206217
4.91184e-20
-3.27832e-20
0.00205905
5.07566e-20
-3.47464e-20
0.00205594
5.22803e-20
-3.64409e-20
0.00205286
5.34387e-20
-3.80572e-20
0.00204981
5.42265e-20
-3.95435e-20
0.00204679
5.46403e-20
-4.06596e-20
0.00204381
5.49149e-20
-4.13881e-20
0.00204086
5.50012e-20
-4.17587e-20
0.00203796
5.46753e-20
-4.19762e-20
0.0020351
5.39513e-20
-4.203e-20
0.0020323
5.28369e-20
-4.16708e-20
0.00202954
5.15331e-20
-4.09436e-20
0.00202684
5.00473e-20
-3.98402e-20
0.0020242
4.81696e-20
-3.85791e-20
0.00202162
4.5948e-20
-3.717e-20
0.0020191
4.33968e-20
-3.54143e-20
0.00201665
4.07229e-20
-3.33848e-20
0.00201427
3.79375e-20
-3.11078e-20
0.00201196
3.48312e-20
-2.86014e-20
0.00200973
3.14427e-20
-2.58569e-20
0.00200757
2.78035e-20
-2.29024e-20
0.00200548
2.40514e-20
-1.9843e-20
0.00200348
2.02276e-20
-1.67229e-20
0.00200154
1.62633e-20
-1.34609e-20
0.00199968
1.21936e-20
-1.00932e-20
0.00199787
8.02979e-21
-6.62957e-21
0.00199616
3.78741e-21
-3.08667e-21
0.00199451
)
;

boundaryField
{
    inlet
    {
        type            cyclic;
        value           nonuniform List<scalar> 
90
(
-0.00107893
-0.00146652
-0.00169068
-0.00182142
-0.00190516
-0.00196254
-0.00200331
-0.00203338
-0.00205628
-0.0020742
-0.00208851
-0.00210013
-0.00210967
-0.00211756
-0.0021241
-0.00212955
-0.00213407
-0.0021378
-0.00214086
-0.00214334
-0.0021453
-0.00214681
-0.00214791
-0.00214866
-0.00214907
-0.00214919
-0.00214904
-0.00214864
-0.00214801
-0.00214718
-0.00214614
-0.00214493
-0.00214355
-0.00214201
-0.00214032
-0.0021385
-0.00213655
-0.00213448
-0.0021323
-0.00213001
-0.00212763
-0.00212516
-0.0021226
-0.00211997
-0.00211727
-0.0021145
-0.00211166
-0.00210878
-0.00210584
-0.00210286
-0.00209984
-0.00209678
-0.0020937
-0.00209059
-0.00208746
-0.00208431
-0.00208115
-0.00207798
-0.00207481
-0.00207164
-0.00206847
-0.00206532
-0.00206217
-0.00205905
-0.00205594
-0.00205286
-0.00204981
-0.00204679
-0.00204381
-0.00204086
-0.00203796
-0.0020351
-0.0020323
-0.00202954
-0.00202684
-0.0020242
-0.00202162
-0.0020191
-0.00201665
-0.00201427
-0.00201196
-0.00200973
-0.00200757
-0.00200548
-0.00200348
-0.00200154
-0.00199968
-0.00199787
-0.00199616
-0.00199451
)
;
    }
    outlet
    {
        type            cyclic;
        value           nonuniform List<scalar> 
90
(
0.00107893
0.00146652
0.00169068
0.00182142
0.00190516
0.00196254
0.00200331
0.00203338
0.00205628
0.0020742
0.00208851
0.00210013
0.00210967
0.00211756
0.0021241
0.00212955
0.00213407
0.0021378
0.00214086
0.00214334
0.0021453
0.00214681
0.00214791
0.00214866
0.00214907
0.00214919
0.00214904
0.00214864
0.00214801
0.00214718
0.00214614
0.00214493
0.00214355
0.00214201
0.00214032
0.0021385
0.00213655
0.00213448
0.0021323
0.00213001
0.00212763
0.00212516
0.0021226
0.00211997
0.00211727
0.0021145
0.00211166
0.00210878
0.00210584
0.00210286
0.00209984
0.00209678
0.0020937
0.00209059
0.00208746
0.00208431
0.00208115
0.00207798
0.00207481
0.00207164
0.00206847
0.00206532
0.00206217
0.00205905
0.00205594
0.00205286
0.00204981
0.00204679
0.00204381
0.00204086
0.00203796
0.0020351
0.0020323
0.00202954
0.00202684
0.0020242
0.00202162
0.0020191
0.00201665
0.00201427
0.00201196
0.00200973
0.00200757
0.00200548
0.00200348
0.00200154
0.00199968
0.00199787
0.00199616
0.00199451
)
;
    }
    bottom
    {
        type            symmetry;
        value           uniform 0;
    }
    top
    {
        type            calculated;
        value           uniform 0;
    }
    frontAndBack
    {
        type            empty;
        value           nonuniform 0();
    }
}


// ************************************************************************* //
