/*--------------------------------*- C++ -*----------------------------------*\
  =========                 |
  \\      /  F ield         | OpenFOAM: The Open Source CFD Toolbox
   \\    /   O peration     | Website:  https://openfoam.org
    \\  /    A nd           | Version:  7
     \\/     M anipulation  |
\*---------------------------------------------------------------------------*/
FoamFile
{
    version     2.0;
    format      ascii;
    class       volVectorField;
    location    "700";
    object      U;
}
// * * * * * * * * * * * * * * * * * * * * * * * * * * * * * * * * * * * * * //

dimensions      [0 1 -1 0 0 0 0];

internalField   nonuniform List<vector> 
180
(
(1.04171 3.89714e-19 0)
(0.882732 -2.29994e-19 0)
(1.31973 -1.69462e-18 0)
(1.31094 1.82519e-18 0)
(1.50455 -1.37438e-18 0)
(1.53324 1.58923e-18 0)
(1.62514 -1.45763e-18 0)
(1.64984 1.58577e-18 0)
(1.70514 -1.42663e-18 0)
(1.72162 1.68691e-18 0)
(1.7599 -1.40682e-18 0)
(1.77078 1.38349e-18 0)
(1.79875 -9.90705e-19 0)
(1.80577 6.91047e-19 0)
(1.82729 -7.30375e-19 0)
(1.83165 4.45114e-19 0)
(1.84891 -8.35506e-19 0)
(1.85146 5.20062e-19 0)
(1.86572 -9.66926e-19 0)
(1.86706 5.76284e-19 0)
(1.87905 -6.56711e-19 0)
(1.87961 6.86221e-19 0)
(1.88979 -4.37791e-19 0)
(1.88987 7.67612e-19 0)
(1.89856 -5.92306e-19 0)
(1.89834 7.77153e-19 0)
(1.90578 -4.82421e-19 0)
(1.90537 5.47578e-19 0)
(1.91175 -3.5983e-20 0)
(1.91123 -3.21332e-22 0)
(1.9167 1.0635e-19 0)
(1.91612 -2.19596e-19 0)
(1.9208 -6.47228e-20 0)
(1.92018 -1.19988e-19 0)
(1.92419 -7.74812e-20 0)
(1.92354 -1.00971e-19 0)
(1.92696 -1.68349e-20 0)
(1.9263 -9.38947e-20 0)
(1.92921 3.18582e-20 0)
(1.92853 -9.24615e-20 0)
(1.93099 6.92541e-20 0)
(1.93029 -9.09135e-20 0)
(1.93237 9.47293e-20 0)
(1.93165 -8.75371e-20 0)
(1.93337 1.10029e-19 0)
(1.93264 -8.25659e-20 0)
(1.93406 1.17592e-19 0)
(1.93331 -7.60902e-20 0)
(1.93445 1.19469e-19 0)
(1.93368 -6.87407e-20 0)
(1.93457 1.17578e-19 0)
(1.93378 -6.08775e-20 0)
(1.93444 1.13255e-19 0)
(1.93364 -5.27782e-20 0)
(1.9341 1.07425e-19 0)
(1.93327 -4.46901e-20 0)
(1.93355 1.00666e-19 0)
(1.9327 -3.66934e-20 0)
(1.9328 9.35438e-20 0)
(1.93194 -2.89307e-20 0)
(1.93189 8.61615e-20 0)
(1.93101 -2.14712e-20 0)
(1.93081 7.91802e-20 0)
(1.92991 -1.43946e-20 0)
(1.92957 7.19778e-20 0)
(1.92865 -7.79757e-21 0)
(1.9282 6.5122e-20 0)
(1.92726 -1.80267e-21 0)
(1.92669 5.87005e-20 0)
(1.92574 3.9195e-21 0)
(1.92507 5.27836e-20 0)
(1.92409 8.93629e-21 0)
(1.92332 4.74355e-20 0)
(1.92232 1.31947e-20 0)
(1.92147 4.28611e-20 0)
(1.92045 1.66533e-20 0)
(1.91952 3.84402e-20 0)
(1.91848 1.9289e-20 0)
(1.91747 3.49335e-20 0)
(1.91642 2.16938e-20 0)
(1.91534 3.22964e-20 0)
(1.91426 2.31478e-20 0)
(1.91313 2.99382e-20 0)
(1.91203 2.37102e-20 0)
(1.91084 2.84738e-20 0)
(1.90972 2.39785e-20 0)
(1.90848 2.79474e-20 0)
(1.90734 2.33609e-20 0)
(1.90606 2.77149e-20 0)
(1.9049 2.18213e-20 0)
(1.90358 2.83217e-20 0)
(1.9024 2.00055e-20 0)
(1.90104 2.97606e-20 0)
(1.89984 1.7377e-20 0)
(1.89846 3.20079e-20 0)
(1.89723 1.39511e-20 0)
(1.89582 3.50409e-20 0)
(1.89458 9.74385e-21 0)
(1.89315 3.88425e-20 0)
(1.89189 5.95589e-21 0)
(1.89045 4.21924e-20 0)
(1.88916 1.55766e-21 0)
(1.88771 4.61164e-20 0)
(1.8864 -3.23849e-21 0)
(1.88494 5.0375e-20 0)
(1.88361 -8.40091e-21 0)
(1.88215 5.49603e-20 0)
(1.8808 -1.38761e-20 0)
(1.87934 5.97874e-20 0)
(1.87797 -1.95814e-20 0)
(1.87652 6.47909e-20 0)
(1.87513 -2.54347e-20 0)
(1.87369 6.98555e-20 0)
(1.87227 -3.13493e-20 0)
(1.87085 7.49022e-20 0)
(1.86941 -3.72378e-20 0)
(1.86801 7.98214e-20 0)
(1.86654 -4.30181e-20 0)
(1.86516 8.45305e-20 0)
(1.86368 -4.86071e-20 0)
(1.86233 8.8947e-20 0)
(1.86082 -5.3927e-20 0)
(1.8595 9.30069e-20 0)
(1.85797 -5.8909e-20 0)
(1.85668 9.66915e-20 0)
(1.85513 -6.34909e-20 0)
(1.85388 9.97932e-20 0)
(1.85231 -6.76373e-20 0)
(1.85109 1.03219e-19 0)
(1.8495 -7.1339e-20 0)
(1.84833 1.05903e-19 0)
(1.84672 -7.44258e-20 0)
(1.8456 1.0785e-19 0)
(1.84396 -7.77894e-20 0)
(1.84289 1.09048e-19 0)
(1.84124 -8.03904e-20 0)
(1.84022 1.09518e-19 0)
(1.83854 -8.22332e-20 0)
(1.83758 1.10131e-19 0)
(1.83588 -8.3326e-20 0)
(1.83498 1.0988e-19 0)
(1.83326 -8.36956e-20 0)
(1.83242 1.08812e-19 0)
(1.83067 -8.4215e-20 0)
(1.8299 1.06997e-19 0)
(1.82814 -8.38962e-20 0)
(1.82743 1.04345e-19 0)
(1.82565 -8.27895e-20 0)
(1.82501 1.01787e-19 0)
(1.82321 -8.09802e-20 0)
(1.82265 9.84005e-20 0)
(1.82082 -7.83799e-20 0)
(1.82033 9.42739e-20 0)
(1.81849 -7.59355e-20 0)
(1.81808 8.95192e-20 0)
(1.81621 -7.27412e-20 0)
(1.81589 8.40629e-20 0)
(1.814 -6.8919e-20 0)
(1.81375 7.88305e-20 0)
(1.81185 -6.46144e-20 0)
(1.81169 7.29176e-20 0)
(1.80976 -5.98254e-20 0)
(1.80969 6.64058e-20 0)
(1.80773 -5.45704e-20 0)
(1.80775 5.93669e-20 0)
(1.80578 -4.88694e-20 0)
(1.80589 5.18436e-20 0)
(1.80389 -4.27297e-20 0)
(1.80409 4.43635e-20 0)
(1.80208 -3.66494e-20 0)
(1.80236 3.65466e-20 0)
(1.80032 -3.024e-20 0)
(1.80069 2.85069e-20 0)
(1.79864 -2.3605e-20 0)
(1.79908 2.02678e-20 0)
(1.797 -1.67683e-20 0)
(1.79755 1.18983e-20 0)
(1.79545 -9.79962e-21 0)
(1.7961 3.89434e-21 0)
(1.79398 -3.19314e-21 0)
)
;

boundaryField
{
    inlet
    {
        type            cyclic;
    }
    outlet
    {
        type            cyclic;
    }
    bottom
    {
        type            symmetry;
    }
    top
    {
        type            noSlip;
    }
    frontAndBack
    {
        type            empty;
    }
}


// ************************************************************************* //
