/*--------------------------------*- C++ -*----------------------------------*\
  =========                 |
  \\      /  F ield         | OpenFOAM: The Open Source CFD Toolbox
   \\    /   O peration     | Website:  https://openfoam.org
    \\  /    A nd           | Version:  7
     \\/     M anipulation  |
\*---------------------------------------------------------------------------*/
FoamFile
{
    version     2.0;
    format      ascii;
    class       volScalarField;
    location    "50";
    object      k;
}
// * * * * * * * * * * * * * * * * * * * * * * * * * * * * * * * * * * * * * //

dimensions      [0 2 -2 0 0 0 0];

internalField   nonuniform List<scalar> 
12842
(
0.00569501
0.00513387
0.00474137
0.00450372
0.00432835
0.00421686
0.00411968
0.00406041
0.00400556
0.00397369
0.00394394
0.00392866
0.00391587
0.00391851
0.00392666
0.00393945
0.00395117
0.00396863
0.00398404
0.00400413
0.00402022
0.00403421
0.00404553
0.00567411
0.00509568
0.00473755
0.0044825
0.00429692
0.00419384
0.00410922
0.00405647
0.00400429
0.00397363
0.00394426
0.0039286
0.00391795
0.00392197
0.00393103
0.00394397
0.00395595
0.00397091
0.00398806
0.00400747
0.00402486
0.00403908
0.00405001
0.00565765
0.00504232
0.0046698
0.00445397
0.00426834
0.00416134
0.00407726
0.00403268
0.00398684
0.00396215
0.00393593
0.00392247
0.0039168
0.00392186
0.00393311
0.00394729
0.00396003
0.00397837
0.0039922
0.00400936
0.00402863
0.00404151
0.0040504
0.00561838
0.00500646
0.00464733
0.00442442
0.00425506
0.00414924
0.00406583
0.0040236
0.00397984
0.00395487
0.00392859
0.00391517
0.00391353
0.0039201
0.00393258
0.00394996
0.00396234
0.00398009
0.00400173
0.00401717
0.00403266
0.00404344
0.00405136
0.00557999
0.00493176
0.00457748
0.00437034
0.00421661
0.00411903
0.00403979
0.00400455
0.00396537
0.00394651
0.00392322
0.0039097
0.00391076
0.00391957
0.00393342
0.00395208
0.00396709
0.00398436
0.00400496
0.00402381
0.00403598
0.00405255
0.00405596
0.00554471
0.00490035
0.00454394
0.00434577
0.00419966
0.00410666
0.00403066
0.0039948
0.00395778
0.00393746
0.00391595
0.00390576
0.00390863
0.00391924
0.00393607
0.0039535
0.00397288
0.00399096
0.00400901
0.00402955
0.0040404
0.00405091
0.00405362
0.00549598
0.00483761
0.00448444
0.00428861
0.00416235
0.004081
0.00401206
0.00398179
0.00394825
0.00393132
0.00391039
0.00390244
0.00390677
0.0039195
0.00393772
0.00396005
0.00397522
0.0039947
0.00401328
0.00403313
0.004042
0.00405153
0.00405619
0.00546334
0.00481012
0.0044626
0.00426578
0.00414579
0.00406677
0.00400403
0.00397318
0.0039422
0.00392473
0.00390566
0.00389975
0.00390561
0.00392129
0.0039404
0.00396124
0.0039819
0.00399681
0.00401578
0.00403464
0.00404784
0.00405254
0.00405592
0.00540714
0.00475348
0.00441804
0.00422303
0.0041136
0.00404411
0.00398984
0.00396289
0.0039359
0.00391782
0.00390273
0.00389923
0.00390461
0.00392157
0.00394615
0.00396547
0.00398295
0.00400033
0.00402073
0.00403751
0.00404798
0.00405239
0.00405566
0.00538321
0.00472355
0.00439828
0.00420464
0.00409802
0.00402985
0.0039803
0.00395374
0.00393136
0.00391312
0.00390168
0.00389831
0.00390503
0.00392406
0.00394497
0.00396587
0.00398302
0.00400229
0.00402211
0.00403917
0.00404573
0.00405251
0.00405515
0.00531663
0.00467294
0.00436019
0.0041716
0.00407346
0.0040121
0.00396752
0.00394402
0.00392565
0.00390812
0.00390114
0.00389851
0.00390486
0.0039249
0.00394826
0.00396662
0.00398233
0.00400307
0.00402719
0.00404472
0.00404948
0.00405392
0.00408105
0.00529246
0.00463645
0.00433574
0.00415554
0.00406065
0.00399897
0.0039579
0.0039357
0.00392155
0.00390489
0.00390016
0.00389769
0.00390465
0.00392292
0.00394742
0.00396602
0.00398394
0.00400838
0.00402751
0.00404517
0.00405105
0.00407266
0.00414233
0.0052292
0.004598
0.00430426
0.00413048
0.00404227
0.00398316
0.00394661
0.00392896
0.00391721
0.00390251
0.00389983
0.00389563
0.00390243
0.00391788
0.00394607
0.00396682
0.00398438
0.00400903
0.00402514
0.00404502
0.0040701
0.00413501
0.00424731
0.00520583
0.00456353
0.00427739
0.00411657
0.00403171
0.00397113
0.00393899
0.00392464
0.00391524
0.00390126
0.00389847
0.00389017
0.00389647
0.00391689
0.00394604
0.0039671
0.00399
0.00400659
0.0040287
0.00405888
0.00412822
0.00422868
0.00437496
0.00514717
0.00453355
0.0042522
0.00409736
0.00401588
0.00395807
0.00393129
0.00392203
0.0039126
0.00389926
0.00389368
0.00388247
0.00388893
0.00391535
0.00394159
0.00396757
0.00399096
0.00400985
0.00403737
0.00411252
0.0042181
0.00435676
0.00453099
0.00512595
0.00450744
0.00422514
0.00408263
0.00400463
0.00394916
0.00392733
0.00392042
0.00391061
0.00389721
0.00388716
0.00387289
0.00387978
0.00391471
0.00394522
0.00396748
0.00399091
0.00402143
0.0040829
0.00419909
0.0043428
0.00451018
0.00470213
0.00507219
0.00448234
0.00420503
0.00406786
0.00399075
0.00394115
0.00392332
0.00391864
0.00390629
0.00389219
0.00387691
0.0038631
0.0038714
0.00391133
0.00394288
0.00397176
0.00399472
0.00406516
0.00415805
0.00432006
0.00448855
0.00467846
0.00488718
0.00505418
0.0044626
0.00417985
0.0040517
0.00397904
0.00393652
0.0039214
0.00391613
0.00390186
0.00388603
0.00386712
0.00385372
0.00386439
0.00391204
0.00394593
0.00397588
0.00402552
0.00414266
0.00427075
0.00446586
0.00465776
0.00486968
0.00507722
0.00500563
0.00444144
0.00416214
0.00404106
0.00397009
0.00393301
0.00391817
0.00391069
0.00389038
0.00387455
0.00385656
0.0038468
0.00386105
0.00390905
0.00394699
0.00400509
0.00409083
0.00424961
0.00440474
0.00463114
0.00483736
0.00505578
0.00527324
0.00499178
0.00442359
0.00414099
0.00402669
0.00396059
0.00393051
0.00391477
0.00390279
0.0038792
0.00386571
0.00384977
0.00384279
0.00386135
0.00391128
0.003964
0.00406851
0.00418865
0.00438279
0.00456499
0.00481128
0.00502735
0.00525955
0.00546294
0.00494923
0.00440482
0.00412412
0.00401847
0.00395591
0.00392733
0.00390827
0.00388871
0.00386577
0.00385548
0.00384461
0.00384056
0.00386094
0.00391518
0.00401245
0.0041616
0.00431279
0.00453416
0.00473483
0.00499773
0.00522109
0.00544706
0.00565291
0.00493921
0.00438679
0.00410719
0.00400899
0.00394873
0.00392165
0.00389722
0.00387561
0.00385559
0.00385048
0.00384275
0.00384091
0.00386691
0.00395022
0.00409633
0.00428104
0.00446018
0.00470077
0.00491826
0.00518708
0.0054134
0.0056429
0.00583091
0.00490207
0.00436958
0.00409351
0.00400256
0.00394395
0.00391531
0.00388559
0.00386363
0.00384607
0.00384415
0.00384076
0.00384097
0.00388441
0.00400647
0.00420332
0.00442029
0.00462121
0.00487479
0.00510173
0.00537536
0.00560304
0.00582284
0.00600483
0.00489239
0.00435426
0.00408408
0.00399977
0.00393658
0.00390147
0.00386948
0.00385267
0.00383953
0.00384263
0.00384298
0.00386146
0.00394407
0.00410807
0.00434272
0.00458067
0.00479804
0.00505544
0.00528772
0.00555661
0.00577687
0.00599758
0.00616602
0.00487861
0.00434198
0.00407865
0.00399624
0.00392735
0.00388806
0.00385925
0.00384657
0.00383605
0.00384324
0.00386026
0.00391481
0.00403158
0.00422624
0.00449581
0.00475021
0.00497775
0.00523713
0.00547153
0.00573738
0.00595354
0.00616384
0.00632495
0.00486765
0.00433151
0.00407339
0.00399083
0.00391207
0.00387251
0.00385119
0.00384234
0.00383665
0.00385517
0.00391122
0.00399462
0.00414318
0.00436641
0.00466027
0.00492429
0.00516015
0.00541622
0.00565101
0.00590863
0.00611304
0.00631712
0.00646477
0.00485592
0.00431929
0.00406586
0.00397985
0.00389634
0.00386087
0.00384495
0.00384162
0.00384784
0.00389884
0.00398579
0.00409877
0.00427562
0.00451774
0.00483312
0.00510283
0.00533923
0.00558865
0.00581883
0.006066
0.00626055
0.00645428
0.00659169
0.00484868
0.00430831
0.00405551
0.00396949
0.00388171
0.00385117
0.00384274
0.00385233
0.00388609
0.00396825
0.00408589
0.00422138
0.00442154
0.00467924
0.00500719
0.00527556
0.00551057
0.00575033
0.00597476
0.00620912
0.00639
0.00657242
0.00669784
0.00484109
0.00429379
0.00404099
0.00395378
0.00386922
0.00384419
0.00384347
0.00388093
0.00394945
0.00406448
0.00420134
0.00435842
0.00457614
0.00484016
0.00517814
0.00544383
0.00567111
0.0058982
0.00611344
0.00633408
0.00650271
0.00667504
0.0067929
0.00483708
0.00427753
0.00402409
0.00394197
0.00385994
0.00383916
0.0038633
0.00394145
0.00404099
0.00417846
0.00433309
0.00450347
0.00473312
0.00500108
0.00534305
0.00559891
0.00581762
0.00603181
0.00623814
0.00644363
0.00659918
0.00676194
0.00686981
0.00483286
0.0042568
0.00400558
0.0039313
0.00385364
0.00384223
0.00390707
0.00402143
0.00415036
0.00430829
0.00447088
0.00465226
0.00488779
0.00515285
0.00549652
0.00574376
0.00594871
0.00614842
0.006344
0.00653575
0.00668207
0.00683572
0.00693822
0.00482939
0.00423445
0.00398909
0.0039217
0.00385339
0.00386151
0.00398005
0.00412468
0.00427914
0.00444662
0.00461563
0.00479976
0.00503664
0.00529793
0.00563989
0.00587181
0.00606489
0.00625077
0.00643727
0.00661528
0.00675056
0.00689676
0.00699244
0.00482714
0.00420844
0.00397383
0.00391819
0.00386495
0.0039149
0.00407251
0.00424429
0.00441544
0.00458958
0.00475768
0.00494246
0.00517538
0.005429
0.00576761
0.0059869
0.00616374
0.00633692
0.00651366
0.00667901
0.00681007
0.00695117
0.00704128
0.00482207
0.00418624
0.00396724
0.00391989
0.00390114
0.00399511
0.00418464
0.00437203
0.00455899
0.00473224
0.0048975
0.00507743
0.00530359
0.00555007
0.00588353
0.00608534
0.00624972
0.00641047
0.00657887
0.00673412
0.00685947
0.00699334
0.00708006
0.00481819
0.00416029
0.00395998
0.00393455
0.00396087
0.00409621
0.00430488
0.00450939
0.00469914
0.00486846
0.00502902
0.00520212
0.00541822
0.00565613
0.00598371
0.00617065
0.00632035
0.00647131
0.00663281
0.00677903
0.00690293
0.00703235
0.0071171
0.00480993
0.00414507
0.00396641
0.00397283
0.00403995
0.00421407
0.00443446
0.00464248
0.00483531
0.00499877
0.00514992
0.00531557
0.0055201
0.00575073
0.00607158
0.00624214
0.00638075
0.00652159
0.00667586
0.00681481
0.00693829
0.0070656
0.00714871
0.00479929
0.00413087
0.00398328
0.00402703
0.00413283
0.00433546
0.00455956
0.00477461
0.00496033
0.00511229
0.00526027
0.00541625
0.00560949
0.00583276
0.00614656
0.00630189
0.00642907
0.00656345
0.0067139
0.00684839
0.00697313
0.00709359
0.0071799
0.00478371
0.0041209
0.00402289
0.00409808
0.00423573
0.00445979
0.00468493
0.00489573
0.00507287
0.00521934
0.00535634
0.00550484
0.00568524
0.00590273
0.00620976
0.00635199
0.00647102
0.00659662
0.00674259
0.00687327
0.00699892
0.00712391
0.00720901
0.00476555
0.00412016
0.00406999
0.00418053
0.00434053
0.00457799
0.00480029
0.00500813
0.00517226
0.0053066
0.00543934
0.00558061
0.00575241
0.00596405
0.00626346
0.00639173
0.00650129
0.0066256
0.00677034
0.00689871
0.00702592
0.00714919
0.00723864
0.00474554
0.00412831
0.00413417
0.00427107
0.00444832
0.00468972
0.00490748
0.00510476
0.00525673
0.00538698
0.00551076
0.005646
0.0058063
0.00601401
0.00630756
0.00642605
0.00652915
0.00664724
0.00679047
0.0069212
0.00705115
0.00717995
0.0072667
0.00472305
0.00414979
0.0041979
0.00436605
0.00455016
0.00479253
0.00500534
0.00519116
0.0053311
0.00545286
0.00556973
0.00569972
0.00585523
0.00605826
0.00634434
0.00645096
0.00654705
0.00666847
0.00681328
0.00694452
0.00707392
0.00720535
0.0072954
0.0047045
0.00418293
0.0042732
0.00446177
0.00465108
0.00488595
0.00509171
0.00526298
0.00539507
0.00551064
0.00562132
0.00574653
0.00589336
0.00609401
0.00637452
0.00647424
0.00656371
0.00668295
0.00682871
0.00696962
0.0071047
0.00723595
0.00732077
0.00468623
0.00422803
0.00434278
0.00455747
0.00474298
0.00497059
0.00516905
0.00532639
0.00545384
0.00555898
0.0056649
0.00578304
0.00592747
0.00612521
0.00639887
0.00648933
0.00657636
0.00669938
0.0068501
0.00699578
0.00713227
0.00726215
0.0073435
0.00467325
0.00428509
0.00442027
0.00464852
0.00483289
0.00504802
0.00524052
0.00538166
0.00550606
0.00560233
0.00570356
0.00581639
0.00595574
0.00615201
0.00642016
0.00650566
0.00658724
0.00671079
0.00686568
0.00702388
0.00716751
0.00728986
0.00736182
0.00466967
0.00435219
0.00449394
0.00473665
0.00491628
0.00512119
0.00530415
0.00543363
0.00555097
0.00563656
0.00573449
0.00584099
0.00597817
0.00617369
0.00643712
0.0065154
0.00659713
0.00672337
0.00688747
0.00705261
0.00720101
0.00731393
0.0073785
0.00467777
0.00443513
0.00457305
0.00482316
0.00500009
0.00519209
0.00536451
0.0054813
0.00558867
0.0056724
0.00576104
0.00586545
0.00600093
0.00619667
0.00645338
0.00652767
0.00660736
0.00673511
0.00690685
0.00707835
0.00723499
0.0073369
0.00739762
0.00469567
0.00452255
0.00465284
0.00490739
0.00507823
0.00526078
0.00542324
0.00552482
0.00561715
0.00569489
0.00578031
0.00588257
0.00601519
0.00621196
0.00646495
0.00653415
0.00661368
0.00674465
0.00693008
0.00710844
0.00726685
0.00735834
0.00741858
0.00472939
0.00462377
0.00473566
0.00499212
0.00515814
0.00532553
0.00547642
0.00556276
0.0056416
0.00571801
0.00579694
0.00590143
0.0060344
0.00623399
0.00647787
0.00654362
0.00662697
0.0067558
0.00695628
0.00713185
0.00729819
0.00738246
0.00744625
0.00476904
0.00471884
0.00482072
0.00507285
0.00523002
0.00538853
0.00552229
0.00559574
0.00566021
0.00573328
0.00580845
0.00591436
0.00604468
0.00624552
0.00648518
0.00654842
0.00663532
0.00676335
0.00697977
0.00716208
0.00733092
0.00740715
0.00746396
0.00481993
0.00482549
0.00491226
0.00515518
0.0053061
0.00544515
0.00555955
0.00562458
0.00567897
0.0057432
0.00581964
0.00593036
0.00606039
0.00626454
0.00649264
0.00655335
0.00665119
0.00676546
0.00700315
0.00718861
0.0073559
0.00741625
0.00746904
0.00487552
0.00491746
0.00500294
0.00522626
0.00536724
0.00549433
0.00558867
0.00564742
0.00569261
0.00575115
0.00582772
0.00594134
0.00606905
0.00627351
0.00649515
0.00655482
0.00666237
0.00676491
0.00701469
0.00720917
0.00736847
0.00742687
0.00748881
0.00492925
0.00500391
0.00509436
0.00529086
0.0054245
0.00553244
0.00561136
0.00566785
0.00570576
0.0057585
0.00583723
0.00595374
0.00608143
0.00628708
0.00649835
0.00655601
0.00667405
0.00676717
0.00702073
0.00721782
0.00737182
0.0074223
0.00748301
0.00498301
0.00507763
0.00517879
0.00534309
0.0054689
0.00556337
0.00563019
0.00568507
0.00571598
0.00576737
0.00584497
0.00596309
0.00608849
0.00629377
0.00650029
0.00655708
0.00667923
0.00676537
0.00702292
0.00721809
0.00737755
0.00742586
0.00748998
0.00503264
0.00514408
0.00525686
0.00538907
0.0055081
0.00558838
0.00564583
0.00570078
0.00572652
0.00577691
0.00585392
0.00597282
0.00609848
0.00630429
0.00650369
0.00655872
0.00668385
0.00676608
0.00702564
0.00722243
0.00737908
0.00743759
0.00751001
0.00507998
0.00520363
0.00532274
0.00542686
0.00553988
0.00560921
0.00566014
0.00571387
0.00573667
0.0057876
0.00586119
0.00598073
0.00610558
0.00631129
0.00650756
0.00656198
0.00668756
0.00677172
0.00703181
0.00722391
0.00738897
0.00746274
0.00767027
0.00512538
0.00525743
0.00537788
0.00546143
0.00556764
0.00562876
0.00567259
0.00572469
0.00574788
0.00579812
0.00586926
0.00598928
0.00611513
0.00632351
0.00651649
0.00657004
0.00669327
0.00679557
0.00704904
0.00723502
0.00743995
0.00803432
0.0099121
0.00516692
0.00530473
0.00541874
0.00549079
0.00559021
0.00564528
0.00568349
0.00573372
0.00575872
0.00580676
0.00587567
0.00599529
0.0061221
0.00633515
0.0065279
0.00658418
0.00670573
0.00683583
0.00707922
0.00726237
0.00767772
0.00912256
0.0118868
0.00520671
0.005345
0.00545243
0.00551716
0.00560988
0.00566143
0.00569331
0.00574169
0.00576916
0.00581484
0.00588256
0.00600172
0.00612966
0.00634931
0.00654216
0.00660307
0.00673044
0.00688862
0.00713345
0.00733657
0.00801619
0.00999235
0.0134308
0.00524478
0.00538324
0.00547995
0.00554265
0.00562842
0.00567714
0.00570362
0.00575036
0.00578025
0.00582182
0.00588923
0.0060067
0.00613664
0.00636605
0.00656009
0.00662657
0.00676406
0.00694846
0.00719341
0.00746934
0.00823519
0.0100922
0.0141433
0.00528419
0.00541643
0.00550563
0.00556553
0.00564576
0.00569293
0.00571411
0.00575906
0.00579046
0.00582922
0.00589679
0.00601308
0.00614461
0.00638599
0.00658044
0.00665187
0.00680305
0.00701121
0.00726289
0.00759234
0.00837222
0.010199
0.0144944
0.00532146
0.00544804
0.00552761
0.00558825
0.00566246
0.00570854
0.00572553
0.0057686
0.00580087
0.00583569
0.00590379
0.00601776
0.00615176
0.00640681
0.00660389
0.00667923
0.00684558
0.00707256
0.00732963
0.00770371
0.00839886
0.0103969
0.0149435
0.00535952
0.00547529
0.0055501
0.00560836
0.00567941
0.00572432
0.00573805
0.00577902
0.00581071
0.00584326
0.00591179
0.00602336
0.0061595
0.00643025
0.00662766
0.00670694
0.00688862
0.00713423
0.00739095
0.00776448
0.0084333
0.0105295
0.014645
0.00539547
0.0055014
0.00557039
0.00562841
0.00569544
0.00573896
0.00575106
0.00578932
0.00582005
0.0058506
0.00591877
0.0060285
0.00616732
0.00645374
0.00665333
0.00673512
0.00693294
0.00718679
0.00743888
0.00779725
0.00851014
0.010494
0.0149495
0.00543035
0.00552502
0.00559186
0.00564716
0.00571225
0.00575441
0.00576513
0.00580095
0.00582984
0.00585865
0.00592648
0.00603364
0.00617444
0.0064749
0.00667731
0.00676331
0.00697355
0.00723694
0.0074725
0.00781447
0.00855366
0.0106167
0.0146588
0.00546287
0.00554722
0.0056118
0.00566509
0.0057282
0.00576747
0.00577928
0.00581185
0.00583839
0.00586731
0.00593335
0.00603486
0.00618333
0.0064998
0.00670148
0.00679055
0.00700952
0.00727215
0.00749103
0.00781588
0.00853683
0.0104429
0.0137098
0.00549343
0.00556976
0.00563305
0.00568369
0.00574378
0.00578181
0.00579316
0.0058237
0.00584834
0.00587575
0.00593997
0.00603573
0.00618543
0.0065159
0.00672305
0.00681616
0.00703863
0.00729566
0.00749379
0.00781616
0.00857225
0.0100922
0.0125795
0.00552107
0.00559009
0.00565296
0.00570039
0.00575941
0.00579364
0.00580779
0.00583522
0.00585652
0.00588507
0.00594671
0.00603813
0.0061872
0.00652425
0.00674197
0.00683734
0.00705971
0.00731046
0.00749644
0.00781688
0.0085269
0.00966613
0.0114853
0.00554658
0.00561186
0.00567404
0.00571857
0.00577306
0.00580662
0.00582048
0.00584652
0.00586638
0.00589361
0.00595244
0.00603773
0.00618864
0.00653248
0.00675666
0.00685476
0.0070633
0.00731236
0.0074981
0.00782497
0.00841281
0.00923824
0.0105294
0.00557022
0.00563248
0.00569314
0.00573518
0.00578762
0.00581735
0.00583451
0.00585838
0.00587454
0.00590266
0.00595787
0.00603801
0.00618929
0.00653149
0.00676709
0.00686595
0.00706603
0.0073134
0.00750029
0.0078083
0.00826493
0.00884933
0.00974502
0.00559081
0.00565146
0.00571387
0.00575123
0.0057999
0.00582897
0.00584581
0.00586829
0.00588335
0.00591073
0.00596384
0.00603872
0.00618969
0.00653399
0.00677193
0.0068714
0.00706784
0.00731452
0.0074884
0.00776196
0.00811102
0.00851386
0.00912339
0.00561099
0.00567157
0.00573011
0.00576806
0.00581204
0.00583857
0.00585906
0.00587948
0.00589162
0.00591829
0.00596768
0.00604093
0.00618879
0.00653665
0.00677409
0.00687278
0.00706889
0.00730768
0.00745692
0.00769702
0.00795996
0.00823339
0.00864038
0.00562916
0.00568888
0.00575034
0.00578164
0.00582553
0.00584993
0.00586871
0.00588906
0.00589926
0.0059261
0.00597259
0.00603993
0.00618954
0.00653443
0.00677351
0.00687234
0.00705547
0.00728265
0.00740874
0.00761592
0.00781333
0.00799982
0.00826778
0.00565088
0.00570597
0.00576683
0.00579862
0.00583573
0.00586035
0.00588258
0.0058981
0.00590829
0.00593173
0.00597925
0.00604015
0.00618711
0.00653559
0.00677287
0.0068624
0.00702508
0.00724205
0.00734711
0.00752344
0.00767825
0.00780309
0.00797756
0.00567019
0.00572806
0.00578621
0.00581341
0.00585228
0.005874
0.00589429
0.00591199
0.00591726
0.00593992
0.0059795
0.00603978
0.00618693
0.00653077
0.00676496
0.00684151
0.00698216
0.00718732
0.00727765
0.00742857
0.00754642
0.00763824
0.00775207
0.0057008
0.00574822
0.00581032
0.00583466
0.00586759
0.00588764
0.00590625
0.0059209
0.00592785
0.00594827
0.00598052
0.00603948
0.00618814
0.00651809
0.00674652
0.00681471
0.00693586
0.00712353
0.00720445
0.00733286
0.00742764
0.00749424
0.00757015
0.00572
0.00576902
0.00582008
0.00584646
0.00587718
0.00589903
0.00591174
0.00592528
0.00593641
0.00595384
0.00598294
0.00603902
0.00618671
0.00650205
0.00672308
0.0067854
0.0068913
0.00705829
0.00713424
0.00724457
0.00731767
0.00737099
0.00742402
0.00573309
0.00577856
0.0058242
0.00585119
0.00588508
0.00589996
0.00591529
0.0059292
0.00594435
0.00595944
0.00598435
0.00603866
0.00618301
0.00648226
0.00669515
0.00675919
0.00684895
0.00699359
0.00706971
0.00716417
0.00722574
0.00726543
0.00730466
0.00573818
0.00578159
0.00583207
0.00586453
0.00589129
0.00590203
0.00591646
0.00593378
0.00594318
0.00595801
0.005987
0.00604004
0.00617864
0.00646294
0.00666844
0.00673745
0.00681318
0.00693478
0.00701427
0.00709626
0.00715019
0.00718036
0.00721062
0.00575223
0.00579376
0.00583047
0.00586772
0.00589462
0.00590725
0.00591792
0.00593663
0.00594649
0.00595891
0.00598526
0.00603774
0.00617319
0.00644214
0.00664185
0.00672053
0.00678394
0.0068848
0.00696862
0.0070405
0.00709197
0.00711505
0.00713818
0.00574867
0.00579096
0.00583639
0.00587028
0.00589868
0.00591078
0.00592022
0.00593898
0.00594411
0.00596144
0.00598451
0.00603922
0.0061679
0.00642417
0.00662025
0.00670724
0.00676203
0.00684518
0.0069326
0.00699578
0.00704667
0.00706747
0.00708492
0.00575416
0.00579707
0.00583239
0.00587404
0.00589578
0.00591342
0.00592487
0.00593604
0.00594495
0.00595899
0.00598397
0.00603649
0.00616175
0.00640541
0.00660085
0.00669659
0.00674656
0.00681521
0.0069047
0.00696325
0.00701204
0.00703093
0.00704436
0.00575456
0.00579209
0.00583807
0.00587242
0.00589858
0.00590986
0.00592211
0.00593554
0.00594781
0.00596221
0.00598333
0.00603625
0.00615619
0.00639041
0.00658717
0.00668793
0.00673547
0.00679378
0.00688355
0.00693876
0.00698474
0.00700369
0.00701419
0.00575625
0.0057932
0.00583461
0.00587351
0.00589857
0.00590928
0.00592193
0.00593734
0.0059446
0.00596104
0.00598284
0.00603755
0.00614977
0.00637446
0.00657418
0.00668014
0.00672733
0.00677857
0.00686695
0.00692286
0.00696296
0.00698153
0.00699068
0.00574826
0.0057941
0.00583329
0.00587345
0.00589866
0.00590883
0.00592197
0.00593639
0.00594438
0.00596055
0.00598473
0.00603773
0.00614427
0.00636246
0.00656564
0.00667401
0.00672033
0.00676752
0.00685448
0.00691057
0.00694706
0.00696503
0.00697303
0.00575068
0.00579327
0.00583335
0.00588053
0.00589354
0.00590802
0.00592564
0.00593826
0.00594471
0.00596146
0.00598155
0.00603683
0.00613788
0.00634884
0.00655537
0.00666798
0.00671454
0.00675927
0.0068443
0.00690135
0.00693489
0.00695198
0.00695931
0.00574878
0.00580003
0.00583463
0.00587635
0.00589279
0.00590741
0.00592184
0.00593432
0.00594678
0.00595777
0.00598143
0.00603537
0.00613282
0.00633903
0.00654874
0.00666356
0.00670916
0.00675231
0.00683571
0.00689411
0.00692619
0.00694268
0.00694909
0.00575151
0.00579469
0.00583372
0.00587984
0.00589354
0.00591051
0.00592178
0.00593404
0.00594279
0.00596122
0.00598263
0.00603364
0.00612667
0.00632691
0.00653854
0.00665883
0.00670495
0.00674695
0.00682916
0.00688635
0.00691835
0.00693509
0.00694072
0.00575146
0.00579717
0.00583482
0.00588044
0.00588778
0.00590573
0.00592294
0.00593519
0.0059423
0.00595771
0.00597877
0.00603007
0.00612225
0.00631874
0.00653198
0.0066557
0.00670048
0.00674213
0.00682246
0.0068789
0.00691348
0.00692973
0.00693455
0.00574403
0.00579779
0.00582728
0.00587738
0.00589244
0.00590595
0.00592341
0.00593018
0.00594226
0.0059574
0.0059787
0.00602811
0.00611649
0.00630774
0.00651955
0.00665095
0.0066971
0.00673711
0.00681634
0.00687207
0.00690711
0.00692418
0.0069281
0.00574741
0.00578831
0.00582579
0.0058758
0.00588757
0.00590481
0.00591764
0.0059292
0.005941
0.00595751
0.00598126
0.00602569
0.00611277
0.00630103
0.00651199
0.00664748
0.00669336
0.00673261
0.00680733
0.0068628
0.00690017
0.00692057
0.0069246
0.0057364
0.00578632
0.00582915
0.00586999
0.00589057
0.00590425
0.0059172
0.00592961
0.00594002
0.0059522
0.00598158
0.00602529
0.00610745
0.0062908
0.00649565
0.00664103
0.00668987
0.00672847
0.00679836
0.00685432
0.00689348
0.00691499
0.00691876
0.00573534
0.00578586
0.00582294
0.00586514
0.00589208
0.00590703
0.00591506
0.00592376
0.00593842
0.00595096
0.00598064
0.00601988
0.00610429
0.00628519
0.00648655
0.00663662
0.00668695
0.00672415
0.00679244
0.00684646
0.0068903
0.00691138
0.00691549
0.00573501
0.00578058
0.00581851
0.00586194
0.00588903
0.00590669
0.00591504
0.0059234
0.00593655
0.00595102
0.00597817
0.00601926
0.00609908
0.00627496
0.00646564
0.00662796
0.00668255
0.00671937
0.00678539
0.00683717
0.00687757
0.00690535
0.00690923
0.00573895
0.00577626
0.00581639
0.00585892
0.00588606
0.00590298
0.00591325
0.00592508
0.00593436
0.00594511
0.00597509
0.00602135
0.00609623
0.00626964
0.00645549
0.006623
0.00667982
0.00671551
0.00677936
0.00683111
0.00687426
0.00690088
0.00690698
0.00573698
0.00577551
0.00581693
0.00585782
0.00588095
0.00589805
0.00591272
0.00592628
0.00593239
0.00594942
0.00597179
0.00602084
0.00608955
0.00625617
0.00643179
0.00661068
0.00667372
0.00670772
0.00676683
0.00681971
0.00686716
0.0068967
0.00690214
0.00573106
0.00576279
0.00580618
0.00585807
0.00587717
0.00589444
0.0059145
0.00592592
0.00592836
0.00594589
0.00596472
0.00602106
0.00608861
0.00625572
0.00642526
0.00661018
0.00667024
0.00670587
0.00677106
0.00681859
0.00686898
0.00690467
0.00690465
0.00572454
0.00576064
0.00580458
0.00585999
0.00586976
0.00588384
0.00591499
0.00592229
0.00592446
0.00594669
0.00596238
0.00601476
0.00608009
0.00623697
0.0064001
0.00659339
0.00666255
0.00669821
0.00676539
0.00680785
0.00686317
0.00690207
0.00691566
0.00571429
0.00576067
0.005806
0.00585699
0.00586638
0.00588016
0.00590908
0.00591743
0.00591812
0.00594297
0.00596282
0.00600848
0.00607188
0.00621648
0.00637426
0.00657683
0.00665065
0.006687
0.00675061
0.0067981
0.006852
0.00690464
0.00692754
0.00570269
0.00576227
0.00580403
0.00584514
0.00585233
0.00586695
0.00589828
0.0059077
0.00590584
0.00593797
0.00595827
0.00599936
0.00606062
0.00619316
0.00634531
0.00655655
0.00664058
0.0066692
0.00673443
0.00678555
0.00683998
0.00689146
0.00693216
0.00569534
0.00575425
0.00578983
0.00583563
0.0058487
0.00586322
0.00588245
0.00589287
0.00590119
0.0059326
0.00594965
0.00598779
0.0060476
0.00616804
0.00631281
0.00653207
0.00662411
0.00666009
0.00672442
0.00677618
0.00682296
0.00688573
0.0069242
0.00568671
0.00574375
0.00576661
0.00582176
0.00585259
0.00586567
0.00587696
0.00588769
0.00590254
0.00592328
0.00594031
0.00597533
0.0060316
0.00613978
0.00627638
0.00649745
0.00660396
0.00664114
0.0067165
0.00676258
0.0068047
0.00687107
0.00691454
0.00567672
0.00572387
0.00575832
0.0058046
0.00584682
0.00586015
0.00587772
0.00588818
0.00589809
0.00591302
0.0059314
0.0059627
0.00601468
0.00611114
0.00623696
0.0064496
0.00657681
0.00663871
0.00670442
0.0067453
0.00679455
0.00684867
0.00690642
0.0056643
0.00571086
0.00575816
0.00580023
0.00583413
0.00584776
0.00586818
0.0058797
0.00588896
0.00590122
0.00592023
0.00594819
0.00599563
0.00608014
0.00619318
0.0063879
0.00653541
0.00662288
0.0066879
0.00672476
0.00677851
0.00682883
0.0069057
0.00564195
0.00569743
0.0057435
0.00578584
0.0058179
0.00583337
0.0058554
0.00586608
0.00587561
0.00588805
0.00590751
0.00593468
0.00597801
0.00605062
0.00614868
0.00631802
0.00647495
0.00658474
0.00666572
0.00670643
0.00676312
0.00680849
0.00688693
0.00560918
0.00568527
0.00572664
0.00576605
0.00579689
0.00581361
0.00583655
0.00584702
0.00585718
0.00587169
0.00588995
0.00591569
0.0059551
0.00601741
0.00610092
0.0062421
0.00640057
0.0065254
0.00661919
0.00667722
0.00672315
0.00678309
0.00686071
0.00558269
0.00566424
0.00570218
0.00574304
0.0057733
0.00579253
0.00581523
0.00582502
0.00583639
0.00585257
0.00587047
0.00589568
0.00593184
0.00598518
0.00605441
0.00616811
0.00631073
0.00644927
0.0065478
0.0066206
0.00667234
0.00672104
0.00680102
0.00555511
0.0056292
0.00567109
0.00571219
0.005744
0.00576417
0.00578676
0.00579887
0.00581126
0.00582803
0.00584378
0.00586743
0.00590056
0.00594599
0.00600516
0.0060963
0.00621402
0.0063548
0.00646116
0.00654224
0.0065988
0.00664238
0.00669664
0.00551687
0.00558857
0.00563377
0.00567822
0.00571243
0.00573367
0.00575632
0.00577004
0.00578331
0.0058003
0.0058162
0.00583772
0.00586866
0.00590727
0.00595794
0.00602933
0.00611981
0.00624497
0.00635668
0.00644748
0.00651315
0.00655315
0.0065991
0.00547009
0.00554217
0.00558514
0.00563599
0.00567381
0.0056948
0.00571773
0.00573461
0.00574845
0.00576482
0.00577858
0.00579887
0.00582744
0.00585957
0.00590498
0.00596382
0.00603156
0.00613548
0.00623382
0.00632916
0.00640525
0.00644645
0.00648588
0.005425
0.00549651
0.00553013
0.0055907
0.00563349
0.00565521
0.00567764
0.00569515
0.0057092
0.00572647
0.00574127
0.00575932
0.00578592
0.00581245
0.00585077
0.00589923
0.0059492
0.00603097
0.00611794
0.00619961
0.00628274
0.00633357
0.00637419
0.0053789
0.00544401
0.00547367
0.00553694
0.00558271
0.00560565
0.00562684
0.00564655
0.00566046
0.00567647
0.00568998
0.00570734
0.00573319
0.0057555
0.00578931
0.00583203
0.00587008
0.0059263
0.00599735
0.00606438
0.00613647
0.00619255
0.00624088
0.00532778
0.00538931
0.00542092
0.0054822
0.0055283
0.0055532
0.00557377
0.00559355
0.00560805
0.00562546
0.00563942
0.00565433
0.0056779
0.00569669
0.00572343
0.00576041
0.00579641
0.00583723
0.00589303
0.00594513
0.00600344
0.00604973
0.00610088
0.00526014
0.00532156
0.00535526
0.00541361
0.00545768
0.00548392
0.00550428
0.00552774
0.00554283
0.0055577
0.00557119
0.00558464
0.00560862
0.00562573
0.00564811
0.0056773
0.00570861
0.00573752
0.00578053
0.00582063
0.00586924
0.00590464
0.00594824
0.00517923
0.00524928
0.00528338
0.00534082
0.00538255
0.0054097
0.00543164
0.00545571
0.00547475
0.00549211
0.00550452
0.00551518
0.00553505
0.00555127
0.00557023
0.00559348
0.00562441
0.00564759
0.00568087
0.00570834
0.00574633
0.00577376
0.00580714
0.0050723
0.00515846
0.0051907
0.00524849
0.00528796
0.00531407
0.00533729
0.00536546
0.00538509
0.00540113
0.00541572
0.00542568
0.00544413
0.00545937
0.00547644
0.00549184
0.00551685
0.00553564
0.00556304
0.00558374
0.0056127
0.00563286
0.00565947
0.00496189
0.00506395
0.00509501
0.00515461
0.00519254
0.00521823
0.00524324
0.00526977
0.00529455
0.0053129
0.00532691
0.00533542
0.00535093
0.00536479
0.00538304
0.00539566
0.00541732
0.00543255
0.00545451
0.00546997
0.00549391
0.00550913
0.00553058
0.00483539
0.00494615
0.00497687
0.00503776
0.00507435
0.00509717
0.00512353
0.00515122
0.00517222
0.0051902
0.00520782
0.00521664
0.00523095
0.00524167
0.00525723
0.00526781
0.00528473
0.00529708
0.00531582
0.00532636
0.00534444
0.00535667