/*--------------------------------*- C++ -*----------------------------------*\
  =========                 |
  \\      /  F ield         | OpenFOAM: The Open Source CFD Toolbox
   \\    /   O peration     | Website:  https://openfoam.org
    \\  /    A nd           | Version:  7
     \\/     M anipulation  |
\*---------------------------------------------------------------------------*/
FoamFile
{
    version     2.0;
    format      ascii;
    class       volScalarField;
    location    "50";
    object      nut;
}
// * * * * * * * * * * * * * * * * * * * * * * * * * * * * * * * * * * * * * //

dimensions      [0 2 -1 0 0 0 0];

internalField   nonuniform List<scalar> 
12842
(
0.00180816
0.00180015
0.00178044
0.00177749
0.00177051
0.00177438
0.00176677
0.00176843
0.00176244
0.00176298
0.00175974
0.00176062
0.00175943
0.00176302
0.0013593
0.00072352
0.000447435
0.00030918
0.000228717
0.000177527
0.000143091
0.000119805
0.00010261
0.00180689
0.00179549
0.00179151
0.00177424
0.00175963
0.00176492
0.00176323
0.00176756
0.00176264
0.0017633
0.00175985
0.00176034
0.00176005
0.00176391
0.0012951
0.000691315
0.000428836
0.000297404
0.000221095
0.000172449
0.000139696
0.000117898
0.000101019
0.00181062
0.00178671
0.00178091
0.00178491
0.0017653
0.00176163
0.00175383
0.00175974
0.00175649
0.001759
0.00175656
0.00175757
0.00175959
0.0017632
0.0012382
0.000665618
0.000415582
0.000289983
0.000216278
0.00016922
0.000137482
0.000116616
9.95695e-05
0.00181027
0.0017898
0.00177989
0.00177946
0.0017678
0.00176733
0.00175871
0.00176363
0.00175884
0.00175816
0.00175455
0.00175494
0.00175849
0.00176212
0.00117521
0.000636491
0.000400029
0.000280596
0.000210557
0.000165333
0.000134584
0.000114776
9.7814e-05
0.00180927
0.00178453
0.0017768
0.00177619
0.00176625
0.0017665
0.00175849
0.00176104
0.00175839
0.00175966
0.00175516
0.00175367
0.00175812
0.00176167
0.00111767
0.000609123
0.000385159
0.000271362
0.00020434
0.000161199
0.000131476
0.00011294
9.60593e-05
0.00180919
0.00178622
0.0017736
0.00177571
0.00176933
0.00176643
0.00176195
0.00176371
0.00175937
0.0017583
0.00175488
0.0017534
0.00175785
0.00176164
0.0010729
0.000586994
0.000372984
0.000263761
0.000199077
0.000157582
0.000128723
0.000110943
9.42625e-05
0.00180755
0.00178528
0.00177264
0.00176781
0.00176814
0.00176753
0.00176216
0.0017652
0.00176117
0.00176062
0.00175617
0.00175418
0.001758
0.0017621
0.00104132
0.000571108
0.000363384
0.000257534
0.000194751
0.000154417
0.000126177
0.000109072
9.2619e-05
0.00180629
0.00178608
0.00177307
0.00176599
0.00176792
0.00176606
0.00176251
0.00176458
0.00176133
0.0017604
0.00175753
0.00175555
0.00175848
0.00176351
0.00102989
0.000563813
0.00035817
0.000253223
0.000191368
0.000151688
0.000123985
0.000107247
9.09561e-05
0.00180386
0.0017853
0.00177351
0.00176179
0.00176505
0.00176497
0.00176366
0.00176503
0.00176231
0.00176053
0.00175832
0.00175678
0.00175911
0.00176452
0.00101816
0.000556924
0.000353064
0.000249631
0.000188735
0.000149655
0.000122181
0.000105842
8.96932e-05
0.0018024
0.00178576
0.00177456
0.00176171
0.00176405
0.00176226
0.00176208
0.00176381
0.00176204
0.00176028
0.00175918
0.00175756
0.00176039
0.00176661
0.000994153
0.000544551
0.000345906
0.000245188
0.000185686
0.000147535
0.000120388
0.000104525
8.85355e-05
0.00179992
0.00178496
0.00177435
0.00175891
0.00176226
0.00176178
0.00176164
0.0017631
0.0017629
0.00176029
0.00175994
0.00175899
0.00176187
0.00176846
0.000976422
0.000535978
0.000340426
0.000241724
0.000183403
0.000145881
0.000118987
0.000103322
8.80912e-05
0.00179908
0.00178364
0.00177281
0.00175983
0.00176218
0.00175935
0.00175964
0.00176193
0.00176293
0.00176082
0.0017608
0.00176068
0.00176362
0.00176912
0.000958163
0.000526905
0.00033505
0.000238501
0.000180782
0.000143921
0.000117459
0.000102478
8.84074e-05
0.00179706
0.00178328
0.00177221
0.00175898
0.00176247
0.00175877
0.00175891
0.00176158
0.00176402
0.00176241
0.00176257
0.00176197
0.00176469
0.00176858
0.000940438
0.00051722
0.000329625
0.000235008
0.000178021
0.000141917
0.000116441
0.000102681
8.96494e-05
0.00179623
0.00178311
0.00176856
0.00176066
0.00176304
0.00175664
0.00175749
0.00176126
0.00176453
0.00176441
0.00176446
0.00176201
0.00176409
0.00176954
0.000921635
0.000508009
0.000325255
0.000231675
0.000175676
0.000140488
0.000116599
0.000103644
9.14052e-05
0.00179425
0.00178288
0.00176795
0.00176104
0.00176331
0.00175648
0.00175787
0.00176216
0.001766
0.00176698
0.00176552
0.00176102
0.0017625
0.00176889
0.000903563
0.000500111
0.00032136
0.000228977
0.000173712
0.000140512
0.000117728
0.000105454
9.38415e-05
0.00179336
0.00178445
0.00176371
0.00176244
0.00176278
0.00175524
0.00175817
0.00176281
0.00176665
0.00176907
0.00176549
0.00175886
0.00175944
0.0017687
0.000888154
0.00049465
0.000318422
0.000227045
0.000173448
0.000141745
0.000119933
0.000107931
9.67509e-05
0.00179129
0.0017842
0.00176309
0.00176257
0.00176235
0.00175628
0.00176073
0.00176557
0.00176834
0.001771
0.00176396
0.00175628
0.00175608
0.00176705
0.000876955
0.000493057
0.000316507
0.000227104
0.000174634
0.00014429
0.00012292
0.000110922
0.000100217
0.0017904
0.00178601
0.00175964
0.00176352
0.00176021
0.00175635
0.00176263
0.0017669
0.00176881
0.00177027
0.0017618
0.00175242
0.00175201
0.00176324
0.000876873
0.00049351
0.000317419
0.00022939
0.000177667
0.000147932
0.000126894
0.000114775
0.000104193
0.00178832
0.00178541
0.00175814
0.00176328
0.00175997
0.00175875
0.00176746
0.00177045
0.00176806
0.00176787
0.0017589
0.00174874
0.00174321
0.00174679
0.000884452
0.000498623
0.000321573
0.000233712
0.000181992
0.00015264
0.000131649
0.000119012
0.000108842
0.00178763
0.00178615
0.00175606
0.00176311
0.00175826
0.00175994
0.00176992
0.00177077
0.0017647
0.00176422
0.00175438
0.00173576
0.00172371
0.00172033
0.000899741
0.000508999
0.000328905
0.000239961
0.000187955
0.000158392
0.000137369
0.000124401
0.000114058
0.00178594
0.00178515
0.00175369
0.00176242
0.00175837
0.00176226
0.00177349
0.00176956
0.00176171
0.0017602
0.00174994
0.00171741
0.00169582
0.00168643
0.000924301
0.000524201
0.000339021
0.000247911
0.000194996
0.000165113
0.000144036
0.000130357
0.000120127
0.00178562
0.00178429
0.0017518
0.00176292
0.0017589
0.001764
0.00177159
0.00176578
0.00175676
0.00175233
0.00173085
0.00168495
0.00166075
0.00165742
0.000958233
0.000543037
0.000351385
0.000257381
0.00020353
0.000172857
0.00015173
0.000137749
0.000126947
0.00178456
0.00178351
0.00174978
0.00176265
0.00175911
0.00176458
0.0017709
0.00176371
0.00175292
0.00174356
0.00170923
0.00165182
0.00162849
0.00163503
0.00100046
0.000566401
0.000366382
0.000268359
0.000212986
0.000181578
0.000160332
0.000146032
0.000134846
0.00178463
0.00178147
0.00174732
0.00176481
0.00175989
0.00176303
0.00176663
0.00175845
0.00174477
0.00172034
0.00166896
0.00161331
0.00160393
0.00162314
0.00104586
0.000590543
0.000381978
0.000280229
0.0002236
0.000191203
0.000169822
0.000155769
0.000143917
0.00178362
0.00178148
0.00174535
0.00176671
0.00175898
0.0017598
0.00176202
0.0017534
0.00172577
0.00168881
0.00163411
0.00159015
0.00159284
0.00161984
0.00108823
0.000614392
0.000398385
0.000292868
0.000235134
0.000202135
0.000180737
0.000166709
0.000154385
0.00178639
0.00177996
0.0017438
0.0017676
0.00175639
0.00175505
0.00175715
0.0017383
0.00169799
0.00165441
0.00160983
0.00157689
0.00159034
0.00162448
0.00113544
0.000640131
0.000415658
0.000306576
0.000247719
0.0002138
0.000192161
0.000178228
0.000165266
0.00178538
0.001779
0.00174117
0.00176652
0.00175025
0.00174994
0.00174608
0.00171292
0.00166568
0.00163146
0.00159318
0.00157219
0.00159588
0.00163374
0.00118488
0.000667227
0.000434259
0.000320797
0.000260627
0.000225916
0.000204019
0.000190056
0.000176667
0.00178929
0.00177776
0.00173817
0.00176561
0.00174596
0.00174197
0.00172525
0.00167997
0.0016406
0.00161487
0.0015856
0.0015757
0.00160728
0.00164846
0.00123511
0.000694829
0.00045273
0.000335549
0.000273984
0.000238331
0.000216065
0.000201929
0.00018819
0.00178986
0.00177485
0.00173307
0.00176152
0.00173656
0.00172575
0.00169734
0.00164859
0.00162287
0.00160858
0.00158448
0.00158493
0.00162317
0.00166458
0.00128321
0.00072134
0.000471269
0.000349987
0.000287117
0.00025071
0.000228125
0.00021378
0.000199859
0.00179487
0.00177249
0.00172824
0.00175605
0.00172441
0.0017007
0.00166799
0.00162506
0.00161495
0.00160715
0.00159016
0.00159937
0.00164174
0.00168378
0.00133049
0.000748088
0.000489473
0.000364767
0.000300446
0.000263132
0.00024011
0.000225389
0.000211422
0.00179702
0.00176851
0.00172237
0.00174614
0.00170279
0.0016703
0.00164548
0.00160893
0.00161278
0.00161316
0.00160017
0.00161628
0.00166172
0.00170214
0.00137444
0.000772792
0.000507058
0.000378862
0.000313263
0.000275285
0.000252032
0.000236824
0.000222925
0.00180156
0.00176491
0.00171703
0.00172715
0.00167728
0.00164143
0.00163022
0.0016039
0.00162
0.00162245
0.00161533
0.00163594
0.00168214
0.00172177
0.00141728
0.000797811
0.000524383
0.000393087
0.000326108
0.000287277
0.00026354
0.000247769
0.00023423
0.00180531
0.0017597
0.0017143
0.00170505
0.00165305
0.00162354
0.00162392
0.00160712
0.00162851
0.00163718
0.00163207
0.00165578
0.00170194
0.00173937
0.00145682
0.00082048
0.000540853
0.000406562
0.000338272
0.000298806
0.00027494
0.000258492
0.000245315
0.00180893
0.00175636
0.00171227
0.00167961
0.00163501
0.00161451
0.0016244
0.00161809
0.00164442
0.00165405
0.00165218
0.00167676
0.00172085
0.00175702
0.00149491
0.000843548
0.000556876
0.00041989
0.000350313
0.000310068
0.000285782
0.000268474
0.000256124
0.0018129
0.00175065
0.00170779
0.00165837
0.00162726
0.00161465
0.00163193
0.00163553
0.00165938
0.00167296
0.0016722
0.00169638
0.0017383
0.00177235
0.00153106
0.000864499
0.000572562
0.000432715
0.000361691
0.00032077
0.000296267
0.000278041
0.000266653
0.00181623
0.00174832
0.00170305
0.00164677
0.00162731
0.00162149
0.00164381
0.00165418
0.00167672
0.00169246
0.00169187
0.00171551
0.00175399
0.00178675
0.00156545
0.000886097
0.000587397
0.000445061
0.000372755
0.00033107
0.000306231
0.000287009
0.000276807
0.00181838
0.00174175
0.0016965
0.00164134
0.00163413
0.00163197
0.0016592
0.00167667
0.00169389
0.00170972
0.00171032
0.00173271
0.00176847
0.00179942
0.00159946
0.000905974
0.000602472
0.000457334
0.000383319
0.000340746
0.000315575
0.000295235
0.000286575
0.00181843
0.00173556
0.00169399
0.00164245
0.00164596
0.00164534
0.0016757
0.00169554
0.00170747
0.00172625
0.00172767
0.00174828
0.00178035
0.00181019
0.00163238
0.00092699
0.000616882
0.000468819
0.000393356
0.000350053
0.000324526
0.000303186
0.000295804
0.00181809
0.00172457
0.00168946
0.00164882
0.00165886
0.00165953
0.00169301
0.00171452
0.00172102
0.00173854
0.0017426
0.00176216
0.00179193
0.00182032
0.00166528
0.000946643
0.00063138
0.00048066
0.000403209
0.000358598
0.000332607
0.000310232
0.000304577
0.00181642
0.00171462
0.00169168
0.0016556
0.00167262
0.00167287
0.00170789
0.0017286
0.00173083
0.0017512
0.00175694
0.0017743
0.0018002
0.00182779
0.00169918
0.000967991
0.000645856
0.000491627
0.0004123
0.000367015
0.000340624
0.000317089
0.000312679
0.00181268
0.00170405
0.00168737
0.00166538
0.0016844
0.00168685
0.00172166
0.00174023
0.00174062
0.00175937
0.00176818
0.001785
0.00180896
0.00183557
0.00173237
0.000988428
0.000660585
0.000503243
0.000421604
0.000374717
0.000347598
0.000323066
0.000320161
0.00180523
0.00169544
0.00169014
0.00167235
0.00169494
0.00169797
0.00173251
0.00174767
0.00175085
0.00176843
0.00177896
0.00179394
0.00181447
0.00184064
0.00176907
0.00101108
0.000675172
0.00051408
0.000430063
0.000382405
0.000354858
0.00032868
0.000326885
0.00179436
0.00168923
0.00168343
0.00168094
0.00170283
0.0017075
0.00174142
0.00175424
0.00176059
0.00177595
0.00178832
0.00180143
0.00182051
0.00184641
0.00180463
0.00103332
0.000691324
0.000525888
0.00043909
0.000389813
0.000361315
0.000333711
0.000332634
0.00178198
0.00168476
0.00168301
0.00168466
0.00171045
0.00171533
0.00174997
0.00175939
0.00177011
0.00178506
0.00179621
0.00180774
0.00182436
0.00185012
0.00184552
0.00105881
0.000707104
0.000537303
0.000447663
0.000397011
0.000367816
0.000338441
0.00033751
0.00176845
0.00168271
0.00167758
0.00168996
0.00171709
0.00172284
0.00175602
0.00176517
0.00178155
0.00179168
0.00180289
0.00181309
0.001828
0.00185418
0.00188608
0.00108412
0.000725214
0.000550045
0.000457055
0.000404786
0.000374674
0.000343046
0.000341587
0.00175944
0.00168521
0.00167774
0.00169433
0.00172419
0.0017293
0.00176291
0.00177162
0.00179114
0.00180024
0.00180846
0.00181778
0.00183101
0.00185763
0.00188894
0.0011141
0.000744252
0.000563461
0.000467182
0.000412624
0.000381211
0.000348005
0.00034516
0.00175109
0.00168912
0.00167798
0.00170282
0.00173184
0.00173813
0.00176979
0.00177846
0.00179807
0.00180544
0.00181285
0.00182144
0.00183299
0.00186041
0.00189038
0.00114458
0.000765022
0.000578458
0.000478348
0.000421681
0.000389633
0.000353349
0.000348615
0.00174904
0.00169755
0.00168282
0.0017127
0.00174085
0.00174792
0.00177861
0.00178533
0.00180238
0.00181002
0.00181602
0.0018245
0.00183551
0.00186406
0.00189028
0.00118116
0.000789318
0.000596018
0.000492213
0.000432593
0.000398339
0.000360381
0.000352607
0.00174912
0.00170422
0.00168939
0.00172556
0.00175068
0.00175978
0.00178546
0.00179141
0.0018058
0.00181276
0.00181849
0.00182687
0.00183683
0.00186601
0.00189035
0.00121784
0.000814345
0.000614977
0.00050753
0.000444941
0.000410316
0.000369417
0.000357292
0.00175075
0.0017154
0.0016998
0.00173865
0.00176202
0.00177101
0.0017921
0.00179662
0.00180794
0.00181366
0.0018197
0.0018288
0.0018386
0.001869
0.0018887
0.00125426
0.000840251
0.000633482
0.000524262
0.000458531
0.000421976
0.000379155
0.000362839
0.00175462
0.00172568
0.00171364
0.00175107
0.00177189
0.00178077
0.0017971
0.00179999
0.00181
0.00181328
0.00182082
0.00183048
0.00183965
0.00187036
0.0018874
0.00128395
0.000862282
0.000649411
0.000539109
0.000471096
0.000433612
0.000389493
0.000370981
0.00175677
0.00173777
0.00173105
0.00176104
0.00178172
0.00178798
0.0018017
0.00180294
0.00181138
0.00181287
0.00182173
0.00183222
0.00184084
0.00187204
0.00188441
0.00131521
0.000886122
0.000665893
0.000554909
0.00048541
0.000445904
0.000400567
0.000377865
0.00176241
0.00174919
0.00174899
0.00176837
0.00178881
0.00179295
0.00180474
0.001805
0.00181268
0.00181334
0.00182251
0.00183385
0.0018414
0.00187269
0.00188268
0.00134544
0.000908945
0.000682559
0.000569304
0.000497569
0.000457724
0.000411423
0.000386698
0.00176705
0.00176052
0.00176552
0.00177359
0.00179483
0.00179639
0.00180649
0.00180712
0.00181337
0.00181432
0.00182301
0.00183496
0.00184217
0.00187342
0.00187885
0.00137214
0.000932219
0.000698592
0.000583054
0.00051252
0.000473788
0.000429957
0.000400511
0.00177344
0.00177092
0.00177901
0.00177742
0.00179862
0.00179809
0.00180723
0.00180849
0.00181417
0.00181568
0.00182299
0.00183576
0.00184287
0.00187395
0.00187629
0.00141376
0.000963358
0.000728899
0.000610301
0.000534669
0.00049568
0.000459099
0.000483503
0.0017784
0.00178077
0.00178864
0.00178092
0.00180136
0.00179995
0.00180691
0.00180904
0.00181436
0.00181652
0.00182278
0.00183645
0.00184383
0.00187472
0.00187169
0.00142213
0.000975392
0.000749378
0.000632924
0.00055679
0.0005433
0.000650998
0.000804152
0.0017832
0.00178893
0.00179462
0.00178453
0.00180344
0.00180164
0.00180645
0.00180906
0.0018143
0.00181691
0.00182245
0.00183668
0.00184463
0.00187632
0.00186972
0.0014192
0.000985519
0.000772778
0.000666637
0.000600627
0.000654329
0.000815676
0.000694681
0.00178724
0.00179563
0.00179839
0.00178792
0.00180501
0.00180401
0.00180584
0.00180863
0.0018138
0.0018169
0.00182243
0.00183715
0.00184577
0.00187827
0.00186707
0.00148529
0.001052
0.000843973
0.000742183
0.000704612
0.000847889
0.000750234
0.000644094
0.00179134
0.00180085
0.0018004
0.00179156
0.00180695
0.00180635
0.0018055
0.0018084
0.00181315
0.00181662
0.00182237
0.00183703
0.00184649
0.00188104
0.00186594
0.00153226
0.00110268
0.000909598
0.000828058
0.000819267
0.000823961
0.000687806
0.000659334
0.0017956
0.00180476
0.00180177
0.00179464
0.00180826
0.00180905
0.00180545
0.00180796
0.00181241
0.00181627
0.00182283
0.00183745
0.00184786
0.00188463
0.00186391
0.00157762
0.00115858
0.00098788
0.000914232
0.000943168
0.000756005
0.000647263
0.000659983
0.00179974
0.00180667
0.00180188
0.00179733
0.00181
0.00181116
0.00180564
0.00180796
0.00181159
0.0018158
0.0018231
0.0018372
0.00184867
0.001888
0.00186242
0.00163282
0.00122156
0.00106027
0.00101001
0.000919005
0.000735864
0.000659056
0.000659283
0.00180389
0.00180761
0.00180239
0.00179937
0.00181117
0.00181325
0.00180636
0.00180794
0.00181119
0.00181545
0.00182373
0.00183733
0.00184976
0.00189241
0.00186073
0.00169524
0.00127193
0.00111349
0.00105997
0.000909513
0.000727718
0.000663631
0.000625008
0.00180774
0.00180675
0.00180184
0.00180047
0.00181217
0.00181407
0.0018069
0.00180803
0.00181053
0.00181518
0.00182407
0.00183719
0.00185071
0.00189587
0.00185916
0.00173436
0.00133309
0.00117774
0.00107601
0.00088764
0.000723922
0.000651342
0.000648316
0.00181049
0.00180532
0.00180232
0.00180144
0.00181306
0.00181504
0.00180791
0.00180823
0.00181061
0.00181478
0.00182441
0.00183719
0.00185286
0.00189991
0.00186094
0.00173405
0.00137604
0.00123052
0.0010765
0.000887578
0.000724396
0.000649134
0.000627353
0.00181284
0.00180312
0.0018017
0.00180117
0.00181328
0.00181441
0.00180847
0.00180822
0.00181008
0.00181476
0.00182457
0.00183587
0.0018552
0.0019061
0.00186502
0.00173599
0.00142603
0.00128112
0.00107471
0.00088377
0.000716043
0.00062518
0.000589312
0.00181351
0.00180059
0.00180236
0.00180159
0.00181329
0.00181428
0.00180907
0.00180843
0.00181033
0.00181427
0.00182444
0.0018346
0.00185534
0.00190989
0.00186968
0.00173871
0.00147543
0.0012959
0.00105995
0.000867211
0.000727186
0.000615905
0.000564484
0.00181327
0.00179841
0.00180206
0.0018006
0.00181335
0.00181296
0.00180956
0.00180829
0.00180985
0.00181406
0.00182423
0.00183387
0.00185518
0.00191192
0.00187409
0.00174355
0.00152734
0.00129055
0.001064
0.000873376
0.000715203
0.000587496
0.000548074
0.00181244
0.0017959
0.00180291
0.00180088
0.00181212
0.00181211
0.00180943
0.00180854
0.00180982
0.00181382
0.00182385
0.00183201
0.00185567
0.00191405
0.00187692
0.00174746
0.00155419
0.00129763
0.00105847
0.000868136
0.000713448
0.000581019
0.000541554
0.00180996
0.00179485
0.00180277
0.00180011
0.00181227
0.00181085
0.00180985
0.00180861
0.00180955
0.00181309
0.0018232
0.00183095
0.00185585
0.00191406
0.00188132
0.00175023
0.00155002
0.00129485
0.00106266
0.000871047
0.000698808
0.000589899
0.000545565
0.00180814
0.00179257
0.00180403
0.00179986
0.00181054
0.00180947
0.00180873
0.00180832
0.00180882
0.00181251
0.00182268
0.00182965
0.00185603
0.00191472
0.00188309
0.00175111
0.0015559
0.00129732
0.00106837
0.000874867
0.000709114
0.000611247
0.000561395
0.00180388
0.00179167
0.00180278
0.00179915
0.00180958
0.00180807
0.00180888
0.00180894
0.00180829
0.00181129
0.00182183
0.00183006
0.00185524
0.0019157
0.00188397
0.00174884
0.0015569
0.00129642
0.0010911
0.000897953
0.000737214
0.00064365
0.000589209
0.00180003
0.0017902
0.00180335
0.0017981
0.0018081
0.0018064
0.00180716
0.00180742
0.00180711
0.00181037
0.00182034
0.00182944
0.00185583
0.00191465
0.00188386
0.00174956
0.00155451
0.00131191
0.00112455
0.000933424
0.000776939
0.000685276
0.000628149
0.00179695
0.00178795
0.00180137
0.00179652
0.00180622
0.00180486
0.00180685
0.00180766
0.00180552
0.00180853
0.00181987
0.00182875
0.00185494
0.00191532
0.00188748
0.00175191
0.0015626
0.00133844
0.00116481
0.00097764
0.000824212
0.000733688
0.000676114
0.00179173
0.00178724
0.00180133
0.00179653
0.00180522
0.00180408
0.00180633
0.00180736
0.00180648
0.00180952
0.00181828
0.00182812
0.0018549
0.00191437
0.00189152
0.00175796
0.00157672
0.00137032
0.00120812
0.00102767
0.000873629
0.00078635
0.000729695
0.0017969
0.00179225
0.00180331
0.00180102
0.00180634
0.00180637
0.00180699
0.00180912
0.00180897
0.00181152
0.00181797
0.00182722
0.00185536
0.00191216
0.00189413
0.00176653
0.00159493
0.00140394
0.00125076
0.00108028
0.000922592
0.000839528
0.000784804
0.00180089
0.00179731
0.00180461
0.00180175
0.00180723
0.00180893
0.00180758
0.0018099
0.00181004
0.00181176
0.0018185
0.00182744
0.00185511
0.00190926
0.00189565
0.00177646
0.00161495
0.00143655
0.00129004
0.00113225
0.000967584
0.000890121
0.000837237
0.00180174
0.00179819
0.00180552
0.00180334
0.0018087
0.00180823
0.00180731
0.00181069
0.00181257
0.0018135
0.00181859
0.00182703
0.0018542
0.00190552
0.00189582
0.00178788
0.001635
0.00146612
0.00132479
0.0011793
0.00100857
0.000935292
0.00088462
0.00180327
0.00179813
0.00180568
0.00180661
0.00180905
0.00180896
0.00180789
0.00181098
0.0018121
0.00181248
0.00181977
0.00182732
0.00185312
0.0019017
0.00189544
0.00179949
0.00165432
0.0014914
0.0013543
0.0012191
0.00104386
0.000973575
0.000925402
0.00180702
0.00179968
0.00180551
0.00180714
0.00181053
0.00180941
0.00180733
0.00181105
0.00181301
0.00181264
0.00181916
0.00182733
0.00185172
0.00189749
0.00189443
0.001811
0.00167281
0.00151317
0.00137969
0.00125203
0.00107369
0.00100489
0.000959994
0.00180341
0.00179808
0.0018058
0.0018067
0.00181112
0.0018109
0.00180878
0.00181204
0.00181154
0.00181369
0.0018189
0.00182741
0.00185063
0.00189377
0.00189369
0.00182107
0.00168971
0.00153118
0.00140095
0.0012783
0.00109807
0.00103034
0.000987947
0.00180608
0.00179924
0.00180582
0.00180841
0.00180987
0.00181101
0.00181025
0.00181081
0.00181188
0.0018123
0.00181847
0.00182734
0.00184865
0.0018899
0.00189318
0.00183017
0.00170568
0.0015476
0.00141996
0.00130107
0.00111987
0.00105227
0.00101216
0.00180386
0.00179939
0.00180773
0.00180667
0.00181198
0.00180952
0.0018095
0.00180973
0.00181278
0.00181405
0.00181831
0.00182733
0.00184795
0.00188685
0.00189338
0.00183737
0.00171934
0.00156182
0.00143599
0.00132055
0.00114035
0.00107305
0.00103348
0.00180573
0.00179932
0.0018065
0.00180828
0.00181215
0.00181045
0.00180953
0.00181101
0.00181171
0.00181357
0.00181802
0.00182751
0.00184608
0.00188376
0.00189388
0.00184385
0.00173221
0.00157639
0.00145125
0.00134037
0.00116294
0.0010959
0.00105626
0.00180275
0.00179811
0.00180515
0.00180842
0.00181237
0.00181044
0.00180972
0.00181032
0.00181116
0.00181286
0.00181862
0.00182851
0.00184427
0.00188158
0.00189483
0.00184867
0.00174243
0.00158931
0.00146427
0.0013589
0.00118736
0.00112097
0.00108036
0.00180292
0.0017995
0.00180679
0.00180957
0.00181092
0.00181017
0.00181099
0.001812
0.0018123
0.0018141
0.00181759
0.00182841
0.00184193
0.0018793
0.0018957
0.00185347
0.00175278
0.0016043
0.00147839
0.00137966
0.00121642
0.00115133
0.00110895
0.00180484
0.00180118
0.00180731
0.00180973
0.00181039
0.00181054
0.00180902
0.00181097
0.00181204
0.00181299
0.00181725
0.00182837
0.00184075
0.00187786
0.00189658
0.00185663
0.00176066
0.00161779
0.00149075
0.00139946
0.00124643
0.00118313
0.0011398
0.00180579
0.0018018
0.00180776
0.00180906
0.00181214
0.00181173
0.00181023
0.00181077
0.00181177
0.00181379
0.00181769
0.00182802
0.00183952
0.00187619
0.00189714
0.00186045
0.00177023
0.00163524
0.00150683
0.00142268
0.00128129
0.00122071
0.00117542
0.00180619
0.00180275
0.00180819
0.00181071
0.0018105
0.00181008
0.00181064
0.00181116
0.00181161
0.00181263
0.00181681
0.0018268
0.0018388
0.00187522
0.00189749
0.00186243
0.00177743
0.00165094
0.00152122
0.00144384
0.00131408
0.00125637
0.00121038
0.00180235
0.00180186
0.00180649
0.00180895
0.00181183
0.00181174
0.00181007
0.00181111
0.00181184
0.00181271
0.00181679
0.00182744
0.00183854
0.00187402
0.00189722
0.00186562
0.0017877
0.00167171
0.00154145
0.00147045
0.00135195
0.00129783
0.00125101
0.00180331
0.00179928
0.00180631
0.00181056
0.00181073
0.00181124
0.00180856
0.00181096
0.00181213
0.00181338
0.00181907
0.0018268
0.00183841
0.0018734
0.00189699
0.00186703
0.00179509
0.00168881
0.00155903
0.0014931
0.00138376
0.0013334
0.00128683
0.00180074
0.00179959
0.00180633
0.00180925
0.00181137
0.00181153
0.00180923
0.00181165
0.00181239
0.00181228
0.00181955
0.00182601
0.00183735
0.0018724
0.00189574
0.00187011
0.00180629
0.0017112
0.00158469
0.00152317
0.00142254
0.00137569
0.00132947
0.00180093
0.00180049
0.00180437
0.0018071
0.00181387
0.00181201
0.00180881
0.00180984
0.00181201
0.00181204
0.00181968
0.00182449
0.00183816
0.00187196
0.001895
0.00187162
0.0018139
0.00172716
0.00160651
0.00154767
0.00145342
0.00140933
0.00136295
0.00180396
0.00180052
0.00180426
0.00180638
0.00181318
0.00181244
0.00181101
0.00181016
0.00181314
0.00181369
0.00181888
0.00182493
0.00183692
0.00187101
0.00189275
0.00187519
0.00182585
0.00174971
0.00163671
0.00158073
0.00149173
0.0014514
0.00140602
0.00180726
0.00180161
0.00180452
0.00180675
0.0018114
0.00181214
0.00181103
0.00181077
0.00181268
0.00181216
0.00181951
0.00182692
0.00183565
0.00187049
0.00189172
0.00187703
0.00183304
0.00176322
0.00165817
0.00160512
0.00152037
0.00148155
0.00143891
0.00180744
0.00180221
0.00180648
0.00180766
0.00181013
0.00181112
0.001811
0.00181025
0.00181175
0.00181353
0.00181862
0.00182869
0.00183389
0.00186872
0.00188932
0.00188134
0.00184544
0.00178441
0.00168835
0.00163962
0.00156146
0.00152436
0.00148267
0.00180727
0.00179981
0.0018047
0.00180957
0.00181001
0.00181247
0.00181377
0.0018104
0.00181022
0.00181203
0.0018157
0.00182895
0.00183371
0.00186952
0.00188832
0.00188376
0.00185124
0.00179429
0.00170827
0.00166181
0.00158775
0.00155491
0.00151023
0.00180585
0.00179995
0.0018065
0.00181298
0.001811
0.00180987
0.00181454
0.00181184
0.00180978
0.0018134
0.00181554
0.00182703
0.00183282
0.00186641
0.00188648
0.00188916
0.00186405
0.00181437
0.00174026
0.00169717
0.00163023
0.00159856
0.00155652
0.00180147
0.00179906
0.00180825
0.00181607
0.00181109
0.00180844
0.00181335
0.00181203
0.00181085
0.00181442
0.00181699
0.00182637
0.00183236
0.00186291
0.0018843
0.00189453
0.00187482
0.00183125
0.00176629
0.00172943
0.00166845
0.00164034
0.00160098
0.0018002
0.00180053
0.00181233
0.00181366
0.00181073
0.00180647
0.00180975
0.00181134
0.00180836
0.00181642
0.0018192
0.00182599
0.00183127
0.00185893
0.00188154
0.0018994
0.00188638
0.00184583
0.00179092
0.00176035
0.00170686
0.00167972
0.00164683
0.001803
0.00180138
0.00180916
0.00181085
0.00181092
0.0018082
0.00180709
0.00181003
0.00181142
0.00181675
0.00181799
0.00182495
0.00182999
0.00185467
0.00187781
0.0019033
0.00189629
0.00186265
0.00181608
0.00179117
0.00174381
0.0017217
0.00169201
0.00180805
0.00180327
0.00180131
0.00180718
0.00181182
0.00181258
0.0018084
0.00180858
0.0018136
0.00181669
0.00182003
0.00182321
0.00182787
0.00184992
0.00187326
0.00190449
0.00190539
0.0018771
0.00184093
0.0018198
0.00177962
0.00176212
0.00173852
0.00180755
0.00180417
0.00180046
0.0018055
0.00181294
0.00181451
0.00181204
0.00181098
0.00181258
0.00181388
0.00181927
0.00182097
0.00182605
0.00184542
0.00186787
0.00190166
0.00191234
0.0018964
0.001864
0.00184649
0.00181587
0.00179987
0.0017857
0.00180332
0.00180966
0.00180819
0.00180885
0.0018136
0.00181343
0.00181274
0.00181154
0.00181233
0.001813
0.00181649
0.00181941
0.00182439
0.00184103
0.00186166
0.00189462
0.00191512
0.00191237
0.00188546
0.00187133
0.00184995
0.00183738
0.00183429
0.00179988
0.00180863
0.00181065
0.00180939
0.00181299
0.00181274
0.00181329
0.00181136
0.00181196
0.00181263
0.00181577
0.00181907
0.0018238
0.00183754
0.00185554
0.00188483
0.00191157
0.00192108
0.00190463
0.00189497
0.00188059
0.00187203
0.00187446
0.00179617
0.00180349
0.00181323
0.00180934
0.00181122
0.00181171
0.00181374
0.00181086
0.00181141
0.00181266
0.00181502
0.00181837
0.00182278
0.00183395
0.00184924
0.00187339
0.00190362
0.00192279
0.00191761
0.00191303
0.00190418
0.00190087
0.00190773
0.00179624
0.00180055
0.00181413
0.00180883
0.00180918
0.00181093
0.00181387
0.0018104
0.00181096
0.00181247
0.00181462
0.00181814
0.0018222
0.00183114
0.00184359
0.00186237
0.00189025
0.00191763
0.0019214
0.00192135
0.00191791
0.00191873
0.00192395
0.00179824
0.00179727
0.00180987
0.00180757
0.0018075
0.00180965
0.00181311
0.00181021
0.00181088
0.00181213
0.00181334
0.00181685
0.00182085
0.00182781
0.00183846
0.00185273
0.00187502
0.00190644
0.00191913
0.00192397
0.00192395
0.00192643
0.00192982
0.00179709
0.00179493
0.00180601
0.00180616
0.00180619
0.00180843
0.00181188
0.00180981
0.00181037
0.00181134
0.00181273
0.00181581
0.00181967
0.0018249
0.00183413
0.00184478
0.00186022
0.00188892
0.001908
0.00191888
0.0019232
0.00192646
0.00193046
0.00179525
0.00179455
0.00180197
0.00180472
0.0018058
0.0018072
0.00180998
0.00180954
0.0018101
0.00181044
0.0018109
0.00181411
0.00181808
0.00182172
0.00183021
0.00183873
0.00184866
0.00187148
0.00189115
0.00190693
0.00191621
0.00192047
0.00192456
0.00179475
0.00179567
0.00179692
0.00180315
0.00180652
0.00180688
0.00180836
0.00180853
0.00180867
0.00180934
0.0018104
0.00181281
0.00181646
0.00181854
0.00182583
0.00183325
0.00183953
0.00185597
0.00187367
0.00188898
0.00190212
0.0019096
0.00191478
0.00179717
0.00179735
0.00179444
0.00180178
0.00180769
0.00180727
0.00180629
0.00180775
0.00180765
0.00180781
0.00180824
0.00181105
0.00181514
0.0018161
0.00182237
0.00182895
0.0018327
0.00184276
0.00185698
0.00187036
0.00188302
0.00189264
0.00190022
0.00179874
0.00179854
0.00179382
0.00180047
0.00180821
0.00180767
0.00180482
0.00180606
0.00180557
0.00180664
0.00180737
0.00180892
0.00181259
0.00181267
0.0018174
0.00182402
0.0018286
0.00183433
0.00184455
0.00185462
0.00186516
0.00187341
0.00188157
0.00179879
0.00179915
0.00179307
0.00179858
0.00180712
0.00180689
0.00180232
0.00180498
0.00180455
0.0018044
0.00180497
0.00180652
0.00181109
0.00181082
0.00181381
0.00181825
0.00182258
0.00182661
0.00183375
0.00184128
0.00185006
0.00185707
0.00186453
0.0017945
0.00179884
0.00179102
0.00179593
0.00180428
0.00180436
0.00180024
0.0018023
0.00180278
0.00180394
0.00180356
0.00180329
0.00180692
0.00180756
0.00180968
0.00181375
0.00181815
0.00182079
0.00182573
0.00183028
0.0018362
0.00184118
0.00184666
0.0017861
0.00179767
0.00178769
0.00179289
0.00180019
0.00180016
0.00179712
0.00180063
0.00180123
0.00180111
0.00180202
0.00180132
0.00180419
0.00180502
0.00180594
0.00180797
0.00181195
0.00181466
0.00181836
0.00182189
0.00182601
0.0018293