/*--------------------------------*- C++ -*----------------------------------*\
  =========                 |
  \\      /  F ield         | OpenFOAM: The Open Source CFD Toolbox
   \\    /   O peration     | Website:  https://openfoam.org
    \\  /    A nd           | Version:  7
     \\/     M anipulation  |
\*---------------------------------------------------------------------------*/
FoamFile
{
    version     2.0;
    format      ascii;
    class       volScalarField;
    location    "50";
    object      omega;
}
// * * * * * * * * * * * * * * * * * * * * * * * * * * * * * * * * * * * * * //

dimensions      [0 0 -1 0 0 0 0];

internalField   nonuniform List<scalar> 
12842
(
3.14961
2.85191
2.66303
2.53376
2.44469
2.37652
2.33176
2.29605
2.27274
2.25397
2.24121
2.23142
2.22566
2.22261
2.22434
2.23111
2.24225
2.26931
2.30397
2.35288
2.42463
2.46888
2.53322
3.14025
2.83805
2.64444
2.52643
2.44195
2.37623
2.33051
2.29496
2.27175
2.25352
2.24125
2.23173
2.22604
2.22345
2.22556
2.23243
2.24494
2.27135
2.30761
2.36324
2.42892
2.47804
2.53512
3.12471
2.82213
2.62214
2.49536
2.41792
2.36222
2.32478
2.29164
2.26977
2.25251
2.24071
2.23176
2.22597
2.22429
2.227
2.23467
2.24945
2.27613
2.31515
2.37566
2.43666
2.49469
2.5454
3.10362
2.79721
2.61102
2.48638
2.40698
2.34775
2.31183
2.28143
2.26276
2.24944
2.23908
2.23094
2.22551
2.22464
2.22765
2.23587
2.25186
2.27948
2.3213
2.3867
2.44157
2.50423
2.54731
3.08411
2.76362
2.57625
2.46052
2.38732
2.33175
2.29731
2.27397
2.25511
2.24276
2.23524
2.22943
2.2244
2.22492
2.22869
2.23835
2.25676
2.28703
2.33193
2.39949
2.453
2.51252
2.56135
3.06474
2.74341
2.56199
2.44733
2.37359
2.32483
2.28761
2.265
2.24954
2.23936
2.23147
2.22754
2.22352
2.22477
2.22919
2.23963
2.25933
2.29127
2.33861
2.41086
2.45892
2.51897
2.5615
3.04056
2.70971
2.52981
2.42595
2.35408
2.30888
2.27679
2.25572
2.24184
2.23292
2.22666
2.22466
2.22229
2.22434
2.23034
2.24194
2.26371
2.29822
2.34773
2.42112
2.4706
2.54337
2.57326
3.02463
2.69311
2.51688
2.41552
2.34501
2.30273
2.27178
2.25162
2.2382
2.22945
2.22225
2.22138
2.22102
2.22357
2.23051
2.24474
2.26699
2.30209
2.35357
2.42999
2.47789
2.54806
2.6074
2.99753
2.66257
2.49113
2.39701
2.33059
2.29132
2.26225
2.24523
2.23338
2.22536
2.21958
2.21954
2.21965
2.22246
2.23019
2.2443
2.26841
2.30402
2.35703
2.4362
2.49097
2.56364
2.61793
2.98669
2.64512
2.47852
2.38668
2.32307
2.28675
2.25887
2.24159
2.23114
2.22301
2.21789
2.21802
2.21828
2.22123
2.22997
2.2457
2.26942
2.30647
2.36307
2.44948
2.50927
2.60039
2.65343
2.95381
2.61795
2.45734
2.3717
2.31149
2.27731
2.25218
2.23699
2.22682
2.22016
2.21663
2.21633
2.21631
2.21939
2.22891
2.24643
2.27082
2.31009
2.37437
2.4743
2.54293
2.65085
2.72941
2.94176
2.59944
2.44568
2.36134
2.30434
2.27298
2.24926
2.23375
2.22445
2.21765
2.21499
2.21374
2.21399
2.21744
2.22764
2.24973
2.27269
2.3205
2.39625
2.51034
2.59438
2.72759
2.82125
2.90987
2.5784
2.42876
2.34822
2.29352
2.26475
2.24378
2.23036
2.22061
2.2143
2.21259
2.21096
2.2114
2.21526
2.22814
2.2505
2.27622
2.33835
2.42982
2.55933
2.66822
2.82156
2.94111
2.8982
2.55931
2.41857
2.33808
2.28679
2.26065
2.24126
2.22832
2.21886
2.21108
2.20944
2.20781
2.20878
2.21351
2.22809
2.25056
2.28565
2.37192
2.47576
2.62351
2.75833
2.93589
3.08017
2.86871
2.54282
2.40516
2.32667
2.27746
2.25341
2.2364
2.2257
2.21551
2.20673
2.2054
2.20468
2.20649
2.21346
2.2274
2.25215
2.30486
2.41467
2.5356
2.70264
2.86688
3.05671
3.22793
2.85829
2.52596
2.3956
2.31647
2.27177
2.24993
2.23376
2.22397
2.21357
2.20297
2.20174
2.20194
2.20513
2.21333
2.22838
2.26237
2.33894
2.47286
2.6075
2.79646
2.98801
3.2001
3.38831
2.83159
2.51224
2.38504
2.30791
2.26444
2.24404
2.22823
2.21947
2.20902
2.19773
2.19784
2.19959
2.20457
2.21348
2.23201
2.28799
2.3861
2.54016
2.69106
2.90497
3.11704
3.34425
3.5551
2.82293
2.49864
2.3754
2.29751
2.26054
2.24131
2.22474
2.21639
2.20592
2.19517
2.19498
2.19909
2.20569
2.21866
2.24925
2.32784
2.44791
2.61796
2.78551
3.02124
3.25718
3.50585
3.72778
2.79908
2.48764
2.36736
2.29178
2.25577
2.23625
2.21684
2.20887
2.20037
2.19165
2.1926
2.19976
2.21491
2.23785
2.28248
2.3829
2.5202
2.70445
2.886
3.14863
3.39924
3.66157
3.90448
2.7924
2.4766
2.35811
2.28385
2.25256
2.23332
2.21184
2.204
2.19822
2.19117
2.19438
2.21389
2.24014
2.27356
2.33232
2.44955
2.60134
2.79569
2.99519
3.27496
3.54933
3.83807
4.0858
2.77122
2.46748
2.35168
2.28009
2.24976
2.22858
2.20371
2.19756
2.19432
2.19037
2.19699
2.23625
2.27674
2.32157
2.39349
2.52584
2.68975
2.89229
3.10259
3.40536
3.69892
3.9961
4.27222
2.7661
2.45856
2.34455
2.27406
2.245
2.22316
2.19984
2.19485
2.19471
2.19735
2.22015
2.27954
2.3284
2.38335
2.46671
2.60771
2.77916
2.98899
3.21702
3.53011
3.85531
4.1792
4.45911
2.74693
2.44999
2.33945
2.27077
2.24201
2.21883
2.19413
2.19062
2.19409
2.20477
2.24707
2.32529
2.38528
2.45039
2.54357
2.69252
2.87224
3.08509
3.32215
3.6554
3.99431
4.34417
4.65588
2.74141
2.4442
2.33733
2.2664
2.23684
2.21293
2.19032
2.19095
2.20059
2.23364
2.30262
2.39351
2.459
2.53093
2.63038
2.78047
2.96168
3.1806
3.4337
3.77539
4.1376
4.5192
4.85394
2.73523
2.43729
2.33687
2.26197
2.23275
2.20937
2.19025
2.19378
2.2228
2.2757
2.3623
2.46191
2.53107
2.60905
2.71338
2.86518
3.05205
3.27135
3.53518
3.89509
4.26749
4.67497
5.04218
2.72485
2.43349
2.33593
2.25776
2.22734
2.20649
2.19172
2.2104
2.25953
2.33024
2.42958
2.53322
2.60522
2.68789
2.79599
2.94722
3.13366
3.36015
3.6384
4.00604
4.39523
4.82485
5.21444
2.71982
2.42793
2.33514
2.25293
2.22616
2.20629
2.20204
2.24273
2.31007
2.38979
2.50178
2.60705
2.67916
2.76527
2.87433
3.02341
3.21298
3.43809
3.72669
4.10609
4.50551
4.9586
5.36934
2.70984
2.42345
2.33321
2.24823
2.22325
2.21081
2.22735
2.29309
2.3687
2.45731
2.57688
2.67906
2.75095
2.83856
2.94868
3.09621
3.2836
3.51556
3.81532
4.20038
4.61147
5.07858
5.51328
2.70473
2.41924
2.3317
2.24453
2.2281
2.22754
2.26441
2.3541
2.43362
2.52675
2.65156
2.74991
2.81927
2.90774
3.01561
3.15895
3.34774
3.57902
3.88845
4.28212
4.70797
5.1933
5.63723
2.69494
2.41328
2.32843
2.2448
2.23841
2.2574
2.31614
2.42542
2.50223
2.59991
2.72493
2.81578
2.88298
2.97016
3.07722
3.21898
3.40542
3.64313
3.96178
4.35917
4.79329
5.28925
5.75851
2.68937
2.407
2.32562
2.25143
2.26313
2.30033
2.37442
2.49944
2.57342
2.67071
2.79401
2.87837
2.94139
3.02728
3.13036
3.26747
3.45483
3.69399
4.02087
4.4271
4.88023
5.38641
5.85558
2.68067
2.39924
2.32325
2.27062
2.29741
2.35253
2.44142
2.57166
2.64145
2.74068
2.85739
2.93395
2.99418
3.07702
3.17799
3.31403
3.49928
3.74464
4.08056
4.48978
4.94943
5.46376
5.95319
2.67386
2.39156
2.31805
2.29798
2.33808
2.41133
2.50783
2.64093
2.71134
2.80335
2.91513
2.98498
3.04087
3.12125
3.21818
3.34988
3.5374
3.7858
4.12749
4.54547
5.0233
5.5417
6.02824
2.6657
2.38347
2.31695
2.33381
2.386
2.47449
2.57611
2.70196
2.7724
2.861
2.96427
3.02813
3.08196
3.1588
3.25285
3.38448
3.5694
3.82421
4.17592
4.59934
5.08475
5.6049
6.10493
2.65773
2.37643
2.31878
2.37254
2.43407
2.5369
2.6379
2.75714
2.83187
2.91009
3.00743
3.06661
3.11696
3.19131
3.28236
3.41021
3.59986
3.85856
4.21339
4.64236
5.1382
5.66126
6.16897
2.6483
2.37088
2.329
2.41249
2.48259
2.59889
2.69767
2.8065
2.88378
2.95356
3.04391
3.09854
3.14717
3.21854
3.3067
3.4356
3.62256
3.88679
4.25192
4.69117
5.19643
5.71638
6.23329
2.63933
2.37168
2.34794
2.4535
2.52907
2.65658
2.74805
2.84767
2.92836
2.99013
3.0756
3.12588
3.17194
3.24146
3.32762
3.45378
3.64644
3.91658
4.28386
4.72321
5.23195
5.76158
6.29384
2.63068
2.3744
2.37481
2.4951
2.57341
2.71057
2.79581
2.88741
2.97098
3.0235
3.10032
3.14872
3.19333
3.26084
3.345
3.47271
3.66433
3.93756
4.31278
4.76689
5.28724
5.81636
6.34646
2.62118
2.38909
2.40904
2.53547
2.61657
2.75861
2.83536
2.92101
3.00535
3.05233
3.12138
3.16691
3.21018
3.27638
3.35901
3.48566
3.68236
3.96323
4.34154
4.79209
5.31576
5.8601
6.3984
2.61258
2.40771
2.44382
2.57977
2.65949
2.80339
2.87342
2.95311
3.03711
3.07616
3.13657
3.1821
3.22536
3.29033
3.37214
3.50009
3.69659
3.97972
4.36208
4.82793
5.36499
5.91324
6.44926
2.60556
2.43524
2.48784
2.62166
2.70135
2.84111
2.90728
2.98303
3.06277
3.09933
3.14997
3.19312
3.23679
3.30047
3.381
3.5096
3.71219
4.00121
4.38645
4.85074
5.39412
5.96567
6.49906
2.60603
2.46717
2.52831
2.66796
2.74409
2.87753
2.93893
3.01143
3.0814
3.11612
3.15989
3.2033
3.24797
3.31081
3.39131
3.52113
3.72167
4.01372
4.40114
4.87635
5.4378
6.01983
6.55576
2.61165
2.50293
2.57972
2.71126
2.78536
2.91104
2.9683
3.03629
3.09774
3.13015
3.16771
3.21025
3.25594
3.31736
3.39699
3.52804
3.73652
4.03118
4.41991
4.90324
5.47884
6.0836
6.61159
2.62251
2.54344
2.6264
2.75932
2.8255
2.94289
2.99464
3.05882
3.11058
3.13845
3.17533
3.2175
3.26456
3.32519
3.40519
3.53853
3.74407
4.04081
4.43298
4.92091
5.51488
6.15579
6.67482
2.64054
2.58642
2.67883
2.80282
2.86314
2.97252
3.02056
3.07825
3.11581
3.14595
3.18071
3.22158
3.27034
3.32961
3.40927
3.54378
3.75618
4.05449
4.44599
4.95129
5.57974
6.23322
6.73699
2.65867
2.6318
2.72572
2.84665
2.89997
3.00241
3.04299
3.09394
3.12018
3.15091
3.18561
3.22671
3.27739
3.3358
3.41641
3.55402
3.76614
4.06505
4.46401
4.97822
5.61693
6.32107
6.78663
2.68156
2.67746
2.77287
2.88192
2.93227
3.0267
3.06435
3.10652
3.12398
3.15429
3.18852
3.22963
3.28162
3.33902
3.41992
3.55929
3.77499
4.07534
4.47507
5.00184
5.69747
6.39612
6.83325
2.70399
2.7238
2.81412
2.91477
2.96301
3.04677
3.07904
3.11583
3.13009
3.15909
3.19211
3.23456
3.28759
3.34431
3.42694
3.57047
3.78913
4.09097
4.50071
5.04921
5.746
6.47757
6.87484
2.72654
2.76891
2.85352
2.93983
2.98742
3.06204
3.09291
3.12366
3.13446
3.16274
3.19411
3.23743
3.29081
3.347
3.43068
3.57655
3.79689
4.09994
4.51545
5.07616
5.82614
6.54426
6.91436
2.75306
2.81304
2.8899
2.96504
3.01137
3.0746
3.10226
3.13064
3.14112
3.16663
3.19812
3.24276
3.2962
3.35181
3.43763
3.58777
3.81085
4.11438
4.54244
5.11686
5.8777
6.58648
6.94736
2.77867
2.84957
2.91949
2.98462
3.0291
3.08537
3.10982
3.13747
3.14509
3.17169
3.2006
3.24578
3.29903
3.35418
3.44133
3.59392
3.81921
4.12442
4.56211
5.14703
5.92087
6.61923
7.00508
2.80586
2.87949
2.94294
3.00439
3.04453
3.09425
3.11448
3.14367
3.14995
3.17646
3.20422
3.24947
3.30361
3.35841
3.44849
3.60578
3.83609
4.14258
4.5989
5.20886
5.99551
6.67681
7.05449
2.82738
2.90285
2.96102
3.02148
3.05728
3.10292
3.11967
3.14963
3.15333
3.18053
3.20709
3.25168
3.30645
3.36083
3.45268
3.61274
3.8461
4.15909
4.62892
5.2499
6.03358
6.71752
7.15008
2.84804
2.9219
2.97751
3.03851
3.06887
3.1109
3.12531
3.15463
3.15794
3.18406
3.21113
3.25501
3.31048
3.36512
3.46153
3.62672
3.87085
4.18958
4.68072
5.3378
6.13374
6.89303
7.31815
2.86448
2.93838
2.99197
3.05322
3.08007
3.11953
3.13195
3.15947
3.16214
3.18756
3.21515
3.2579
3.31308
3.36792
3.46832
3.63722
3.88857
4.23186
4.76543
5.43335
6.20398
7.00305
7.92183
2.88201
2.95233
3.00668
3.06664
3.0908
3.12718
3.13939
3.16449
3.168
3.19189
3.21995
3.26134
3.31653
3.37304
3.48161
3.65677
3.93444
4.3442
4.96197
5.68301
6.61518
8.52671
12.3262
2.89755
2.9653
3.01944
3.07688
3.09974
3.13341
3.14623
3.16945
3.17407
3.19595
3.22405
3.2642
3.31887
3.37636
3.49138
3.67726
3.98762
4.48842
5.24157
6.07563
7.61269
11.184
17.1112
2.91326
2.97667
3.03184
3.08579
3.10795
3.13826
3.15272
3.17461
3.18071
3.20041
3.22787
3.26686
3.32093
3.3804
3.50397
3.70586
4.07166
4.6699
5.54449
6.68424
8.83902
13.319
20.8523
2.92785
2.98927
3.04374
3.09376
3.11488
3.14288
3.15903
3.17981
3.18795
3.20475
3.23164
3.26979
3.32341
3.38432
3.5157
3.73763
4.15633
4.86015
5.93456
7.31785
9.99464
14.673
21.4508
2.94286
3.0012
3.05568
3.1012
3.1222
3.14692
3.16491
3.18539
3.19489
3.20945
3.23496
3.27252
3.32526
3.38847
3.53045
3.77683
4.26012
5.10778
6.29781
8.04982
11.0743
15.7571
21.9617
2.95679
3.01551
3.06768
3.1092
3.12844
3.15186
3.17092
3.19067
3.20208
3.21384
3.23833
3.27551
3.32768
3.39343
3.54587
3.8112
4.36405
5.32271
6.66359
8.38267
11.4136
15.7755
22.6662
2.97108
3.02903
3.0793
3.11685
3.13577
3.15695
3.17658
3.19647
3.20823
3.21863
3.2416
3.27832
3.32988
3.39792
3.56186
3.85468
4.4452
5.43953
6.82348
8.53696
11.5887
15.8666
23.4317
2.98464
3.04491
3.09151
3.12607
3.14289
3.16359
3.18284
3.202
3.21457
3.22315
3.24481
3.28138
3.33241
3.4041
3.57867
3.88334
4.46489
5.54829
6.91341
8.78425
11.7556
16.1113
23.0589
2.99938
3.06042
3.10259
3.1348
3.15061
3.17041
3.18884
3.20807
3.21982
3.2283
3.24844
3.28416
3.33238
3.408
3.58815
3.90031
4.484
5.61486
6.94146
8.80426
11.808
16.3551
23.3661
3.01344
3.07645
3.11473
3.14522
3.15903
3.1787
3.19567
3.21413
3.22549
3.23311
3.25192
3.28719
3.33297
3.41
3.59324
3.91163
4.52042
5.62183
6.97031
8.8438
11.9222
16.7038
23.2642
3.02917
3.09329
3.12538
3.15481
3.16761
3.18684
3.20229
3.2203
3.23053
3.23862
3.25579
3.28994
3.33385
3.41166
3.59583
3.92025
4.5428
5.62981
7.06996
9.01299
11.7882
16.386
22.2849
3.04482
3.10836
3.13694
3.16582
3.17611
3.19569
3.20951
3.22693
3.23591
3.24414
3.25984
3.29256
3.3351
3.4124
3.59747
3.92152
4.54324
5.66461
7.04553
8.95019
11.9224
16.4531
20.9558
3.06028
3.12481
3.14716
3.17543
3.18581
3.20434
3.21674
3.23273
3.24142
3.24928
3.26366
3.29569
3.335
3.41291
3.59987
3.9227
4.54468
5.63516
7.08392
9.01354
11.7918
15.9001
19.443
3.07754
3.13814
3.15798
3.18602
3.19358
3.2125
3.22376
3.23916
3.24641
3.25557
3.26781
3.29776
3.33502
3.41238
3.597
3.92289
4.55866
5.64808
7.05802
8.96428
11.8272
15.0014
17.8622
3.09203
3.15271
3.16729
3.19538
3.2034
3.22137
3.23199
3.24517
3.2526
3.26108
3.27202
3.30048
3.3349
3.4125
3.59619
3.92402
4.54259
5.63817
7.00915
8.87217
11.4382
13.9287
16.2513
3.11051
3.16552
3.17848
3.20599
3.21182
3.22918
3.23906
3.25024
3.25811
3.26744
3.27566
3.30094
3.33585
3.41215
3.59565
3.92991
4.54035
5.63684
6.8343
8.57174
10.7974
12.7917
14.6644
3.12726
3.17779
3.1887
3.21541
3.22191
3.23845
3.24748
3.25827
3.26447
3.27342
3.28104
3.30152
3.33518
3.41287
3.59555
3.92803
4.5387
5.55117
6.58821
8.15912
10.0565
11.6739
13.1621
3.14471
3.19136
3.20135
3.2277
3.23091
3.24699
3.25571
3.26284
3.27234
3.27986
3.28553
3.30288
3.33547
3.41228
3.58831
3.9171
4.49577
5.41081
6.30757
7.69552
9.31586
10.6354
11.7991
3.16465
3.20497
3.21219
3.23591
3.24188
3.25595
3.26314
3.27106
3.27557
3.28259
3.28855
3.30382
3.33545
3.41145
3.57646
3.89173
4.42827
5.245
6.02393
7.22858
8.63801
9.71354
10.6237
3.17258
3.20727
3.22203
3.23965
3.24833
3.25937
3.26857
3.2728
3.27692
3.28358
3.28966
3.30529
3.33528
3.40876
3.5618
3.85769
4.34868
5.07395
5.76006
6.78791
8.05084
8.92674
9.64591
3.17621
3.20981
3.22511
3.24488
3.25203
3.26106
3.27053
3.27382
3.27971
3.28623
3.29005
3.30464
3.33496
3.40554
3.54658
3.81962
4.2672
4.91338
5.53023
6.39839
7.56284
8.28088
8.86729
3.18198
3.21354
3.22578
3.24465
3.25376
3.26284
3.27297
3.27455
3.27951
3.28616
3.29066
3.30518
3.3346
3.40183
3.53154
3.78055
4.18896
4.77013
5.33647
6.07495
7.16437
7.76809
8.2574
3.1821
3.21532
3.22985
3.24615
3.25656
3.26266
3.27258
3.27656
3.27973
3.28721
3.28998
3.30542
3.33419
3.3985
3.51816
3.7441
4.11843
4.64983
5.17925
5.8209
6.84974
7.37525
7.79188
3.18327
3.21932
3.22927
3.24696
3.25574
3.26474
3.27439
3.278
3.27991
3.28742
3.29012
3.30412
3.33377
3.39508
3.50599
3.71096
4.05541
4.54992
5.05087
5.62328
6.60521
7.08046
7.43565
3.18767
3.22064
3.23203
3.24917
3.25692
3.264
3.27304
3.27751
3.28124
3.28691
3.29018
3.30479
3.33287
3.39227
3.49595
3.68314
4.0019
4.47053
4.9485
5.47274
6.41732
6.85939
7.17135
3.18599
3.22195
3.22977
3.24818
3.25757
3.26527
3.27295
3.27811
3.2811
3.28808
3.29066
3.30343
3.33311
3.38929
3.48665
3.659
3.95535
4.40372
4.86262
5.35194
6.26146
6.68169
6.95975
3.19014
3.21891
3.2295
3.25041
3.25533
3.26599
3.27278
3.2798
3.28105
3.28668
3.29061
3.30331
3.33137
3.38681
3.47905
3.63996
3.91748
4.34991
4.7936
5.25445
6.12507
6.52689
6.78693
3.18776
3.21966
3.22979
3.24811
3.25502
3.26398
3.27264
3.27848
3.28121
3.28691
3.29086
3.30371
3.33126
3.3839
3.47127
3.62293
3.88366
4.30005
4.73173
5.16491
5.9874
6.3706
6.61833
3.18861
3.22234
3.23147
3.24784
3.25466
3.26375
3.27231
3.27919
3.28209
3.28792
3.2908
3.30199
3.33154
3.38145
3.46503
3.61016
3.85687
4.25816
4.68115
5.08542
5.85086
6.21337
6.45434
3.18965
3.21937
3.22856
3.24968
3.25444
3.26379
3.27205
3.27719
3.2802
3.28619
3.29093
3.30168
3.3323
3.3783
3.45802
3.59756
3.83079
4.21323
4.62957
5.00222
5.70107
6.03821
6.27556
3.18519
3.22013
3.22834
3.24708
3.25499
3.26279
3.27351
3.27687
3.28182
3.28616
3.29148
3.30096
3.3317
3.37567
3.45293
3.58907
3.8106
4.1738
4.5854
4.92625
5.55682
5.86806
6.09676
3.18503
3.21606
3.22705
3.25022
3.25225
3.26236
3.27129
3.27708
3.2801
3.2866
3.29134
3.30064
3.33058
3.37221
3.44653
3.57915
3.7876
4.12598
4.53212
4.84042
5.39953
5.68118
5.90487
3.18431
3.21574
3.22688
3.24759
3.25201
3.2627
3.27119
3.27702
3.28012
3.28678
3.29081
3.3009
3.32948
3.3696
3.44243
3.57367
3.76976
4.08382
4.48485
4.76429
5.26107
5.51566
5.72921
3.18696
3.21766
3.22574
3.24905
3.2522
3.25981
3.27247
3.27433
3.27968
3.28647
3.29081
3.29867
3.32683
3.36589
3.43637
3.56502
3.74622
4.03007
4.42204
4.67345
5.109
5.33521
5.53799
3.18713
3.21701
3.22525
3.24529
3.2515
3.2601
3.27201
3.27407
3.27846
3.28531
3.28808
3.29849
3.32503
3.36343
3.4328
3.56045
3.72871
3.98661
4.36638
4.59633
4.98653
5.19017
5.38113
3.18558
3.21536
3.22708
3.24444
3.252
3.25927
3.27056
3.27304
3.27746
3.28437
3.28739
3.29971
3.32405
3.35975
3.42645
3.55114
3.70365
3.93202
4.29001
4.50004
4.84588
5.02657
5.20416
3.18465
3.2135
3.22713
3.24561
3.24836
3.25993
3.27014
3.27308
3.27725
3.28413
3.28664
3.29949
3.32087
3.35755
3.42298
3.54593
3.6865
3.89318
4.22806
4.42372
4.74074
4.90402
5.0739
3.17911
3.2105
3.22488
3.24513
3.2479
3.25897
3.26616
3.2723
3.27417
3.28116
3.28674
3.29834
3.32027
3.35378
3.41601
3.53455
3.65996
3.84027
4.14576
4.32533
4.61046
4.75772
4.91405
3.17549
3.20617
3.22324
3.2428
3.24945
3.25747
3.26514
3.27213
3.27381
3.28068
3.2839
3.29591
3.32101
3.35186
3.41249
3.52844
3.64412
3.80865
4.08846
4.25581
4.52145
4.65789
4.80016
3.17408
3.20468
3.22004
3.24054
3.24892
3.25658
3.26488
3.27373
3.2744
3.28058
3.28369
3.29244
3.32057
3.34784
3.40428
3.51381
3.61633
3.75907
4.00796
4.15932
4.3979
4.52434
4.65521
3.17111
3.20189
3.21726
3.23728
3.24704
3.25216
3.26089
3.27327
3.27494
3.28134
3.28508
3.29208
3.32038
3.34616
3.40264
3.50904
3.60311
3.73734
3.9637
4.10312
4.32624
4.44057
4.57193
3.16999
3.20045
3.21317
3.23224
3.24117
3.25098
3.25977
3.26866
3.27357
3.2793
3.28408
3.29211
3.31735
3.34169
3.39262
3.49012
3.57423
3.69176
3.88758
4.0113
4.20994
4.31768
4.44304
3.17202
3.20205
3.21084
3.2251
3.23914
3.25151
3.25865
3.26564
3.26815
3.2754
3.28171
3.28985
3.31369
3.33697
3.38283
3.47149
3.54736
3.6516
3.82192
3.93083
4.10681
4.20927
4.32708
3.16781
3.20032
3.20252
3.22285
3.23204
3.24775
3.25917
3.2615
3.26585
3.26904
3.27522
3.28553
3.30952
3.33157
3.3724
3.4519
3.52027
3.61312
3.76032
3.85465
4.00736
4.10274
4.20939
3.15882
3.19435
3.20029
3.2226
3.22968
3.24257
3.2552
3.25568
3.25777
3.2655
3.27265
3.28108
3.30471
3.32569
3.36179
3.43198
3.4932
3.5756
3.70271
3.78311
3.91268
3.99937
4.09229
3.14522
3.18518
3.20134
3.22146
3.23022
3.23608
3.24981
3.25542
3.2546
3.26049
3.26386
3.27737
3.29979
3.31895
3.35051
3.41165
3.46594
3.53798
3.64843
3.71612
3.82369
3.89932
3.97725
3.14056
3.17258
3.19824
3.21495
3.22505
3.2296
3.24371
3.25139
3.25397
3.25987
3.26032
3.27446
3.29382
3.31152
3.33907
3.39156
3.43914
3.50069
3.59679
3.65303
3.74177
3.80509
3.86763
3.14104
3.15576
3.18448
3.20659
3.21688
3.22469
3.23718
3.2457
3.24939
3.25494
3.25916
3.2693
3.28638
3.30258
3.32669
3.3716
3.41253
3.46317
3.5471
3.59357
3.66416
3.71661
3.76477
3.13462
3.15014
3.17207
3.19766
3.20901
3.21799
3.22916
3.23849
3.24269
3.24835
3.25345
3.26248
3.27778
3.29279
3.3137
3.35204
3.38724
3.42763
3.49975
3.53907
3.59628
3.63696
3.67409
3.12285
3.15238
3.15825
3.18682
3.20053
3.2089
3.21796
3.22886
3.23349
3.23927
3.24511
3.2533
3.26705
3.28112
3.29915
3.33198
3.36231
3.39372
3.4518
3.4904
3.53073
3.56842
3.59627
3.10798
3.14584
3.1432
3.17499
3.19112
3.19865
3.20598
3.21752
3.22282
3.22907
3.2351
3.2427
3.25532
3.26855
3.28404
3.31198
3.33856
3.36314
3.40782
3.4458
3.47896
3.50285
3.53493
3.0892
3.13208
3.13342
3.16015
3.17788
3.18525
3.19161
3.20342
3.20909
3.21612
3.22265
3.22946
3.24055
3.25307
3.26641
3.29045
3.31411
3.33334
3.36672
3.40039
3.42982
3.44802
3.47008
3.06989
3.11352
3.11946
3.1438
3.1627
3.17052
3.17699
3.1882
3.19454
3.20221
3.20852
3.21495
3.22513
3.23703
3.24838
3.26832
3.28983
3.30611
3.33159
3.36002
3.38662
3.40165
3.41842
3.04698
3.08833
3.09947
3.12291
3.142
3.15117
3.159
3.1691
3.17576
3.1842
3.19101
3.19654
3.20527
3.21651
3.2264
3.24345
3.26267
3.27841
3.29631
3.31904
3.34267
3.3567
3.37006
3.02271
3.06099
3.07756
3.10052
3.11842
3.12982
3.13966
3.14905
3.15658
3.16494
3.17127
3.17701
3.18528
3.19622
3.20444
3.2179
3.23409
3.2495
3.26522
3.28198
3.30301
3.31669
3.32894
2.99299
3.02891
3.05035
3.07304
3.08831
3.10173
3.11514
3.12352
3.13139
3.13998
3.1467
3.1514
3.15854
3.16916
3.17679
3.18873
3.20296
3.21598
3.22962
3.24236
3.25884
3.2719
3.2843
2.96195
2.99649
3.022
3.04488
3.05732
3.07201
3.08827
3.0971
3.10597
3.11376
3.12023
3.12581
3.13248
3.14271
3.14924
3.15808
3.16985
3.18221
3.19484
3.20558
3.21872
3.22925
3.24245
2.92426
2.95782
2.98664
3.00994
3.02011
3.03501
3.054
3.06249
3.07159
3.08009
3.08659
3.09138
3.09682
3.10673
3.11395
3.12239
3.13217
3.14108
3.15229
3.16118
3.17247
3.17954
3.19021
2.88617
2.91816
2.94992
2.97385
2.98321
2.99813
3.01717
3.02709
3.03684
3.04451
3.05204
3.0584
3.06325
3.07115
3.07802
3.08393
3.09348
3.10173
3.11156
3.11883
3.12946
3.13591
3.14467
2.83987
2.86952
2.90358
2.92738
2.93745
2.952
2.96992
2.97977
2.98968
2.99878
3.00536
3.01205
3.01749
3.02454
3.03245
3.03758
3.0447
3.05051
3.05937
3.06481
3.07376
3.07925
3.08749
2.79308
2.82038
2.85629
2.87952
2.89207
2.90593
2.92174
2.93298
2.94262
2.95096
2.95976
2.96698
2.97252
2.97771
2.98491
2.99084
2.99851
3.00408
3.01202
3.01652
3.02392
3.02823
3.03526
2.73381
2.75987
2.79627
2.81781
2.83286
2.84671
2.85976
2.87066
2.88086
2.8895
2.89612
2.90445
2.91208
2.91666
2.92287
2.92635
2.9324
2.93654
2.94437
2.94895
2.95644
2.95998
2.96618
2.67405
2.70056
2.73689
2.75704
2.77445
2.78848
2.80014
2.81137
2.82081
2.82987
2.838
2.84383
2.85175
2.85723
2.86381
2.86877
2.87454
2.87751
2.88275
2.88632
2.89297
2.89803
2.90516
2.59803
2.62628
2.66078
2.67915
2.69724
2.7113
2.72152
2.73235
2.74202
2.74971
2.75711
2.76447
2.77119
2.77693
2.78128
2.78481
2.79048
2.79383
2.79919
2.80189
2.8064
2.80944
2.81616
2.52573
2.55615
2.58906
2.6071
2.62485
2.63918
2.64912
2.65949
2.66924
2.67783
2.68437
2.68999
2.69733
2.70403
2.71128
2.71432
2.71994
2.72243
2.72755
2.73104
2.73684
2.73872
2.74243
2.434
2.46519
2.4947
2.51216
2.52825
2.54093
2.55073
2.5602
2.56822
2.57592
2.58322
2.5883
2.59286
2.59772
2.60358
2.60838
2.61257
2.61714
2.61971
2.62389
2.62787
2.63265
2.63562
2.35388
2.3848
2.41206
2.43006
2.44495
2.45722
2.46642
2.47609
2.48478
2.49031
2.49719
2.50324
2.50818
2.51373
2.51717
2.52228
2.5269
2.53162
2.53796
2.54053
2.54531
2.547
2.55088
2.24725
2.2741
2.29682
2.31375
2.32529
2.33554
2.34447
2.3521
2.36023
2.36582
2.36925
2.37423
2.37725
2.38238
2.38615
2.38921
2.39073
2.39345
2.39585
2.40199
2.40477
2.41063
2.4115
2.16479
2.18822
2.20793
2.225
2.23551
2.24337
2.25168
2.2598
2.26753
2.2749
2.2796
2.28404
2.28699
2.29101
2.29522
2.29968
2.30204
2.30489
2.30716
2.31032
2.3149
2.31772
2.32243
2.04071
2.05442
2.06729
2.07981
2.08718
2.09125
2.09513
2.09953
2.10391
2.10867
2.11295
2.11657
2.11933
2.12198
2.12476
2.12859
2.13174
2.13492
2.13509
2.13797
2.14073
2.14282
2.14695
1.96167
1.97569
1.98641
1.99756
2.00453
2.00814
2.01112
2.01439
2.01786
2.02186
2.02611
2.02992
2.03321
2.03618
2.03878
2.04269
2.04553
2.04973
2.0505
2.05349
2.05616
2.05839
2.06122
1.79928
1.79596
1.79512
1.79626
1.79745
1.7974
1.79628
1.79485
1.79336
1.79259
1.79313
1.79451
1.79615
1.79975
1.80013
1.80213
1.80478
1.80806
1.81075
1.81281
1.81598
1.81677
1.8199
3.0531
2.73012
2.54344
2.43574
2.36159
2.31286
2.28085
2.2617
2.24364
2.2304
2.22193
2.216
2.21349
2.21474
2.21869
2.22704
2.24239
2.26797
2.30687
2.36436
2.44168
2.4914
2.56052
3.06691
2.74204
2.55368
2.44432
2.36992
2.32287
2.29233
2.26615
2.24923
2.23421
2.22485
2.21889
2.21581
2.21683
2.22016
2.22783
2.2426
2.26755
2.30588
2.36591
2.43091
2.47844
2.54553
3.08506
2.77041
2.58331
2.46886
2.38747
2.33388
2.29799
2.27455
2.25552
2.23902
2.22898
2.22134
2.21766
2.21813
2.22108
2.22837
2.24245
2.26649
2.30348
2.36031
2.42057
2.47243
2.54139
3.10387
2.78967
2.59721
2.47814
2.39499
2.34051
2.31161
2.28274
2.2623
2.24399
2.23306
2.22506
2.22108
2.2201
2.22234
2.22886
2.24207
2.26539
2.30127
2.35424
2.41916
2.47667
2.52972
3.11952
2.81438
2.62254
2.49816
2.41462
2.36306
2.32436
2.28976
2.26582
2.2469
2.23635
2.22819
2.22352
2.22096
2.22286
2.22907
2.24154
2.26506
2.30114
2.3503
2.42462
2.46753
2.52848
3.13846
2.83181
2.64143
2.51318
2.43463
2.37321
2.32917
2.29206
2.26964
2.25204
2.24029
2.23041
2.22471
2.2215
2.22314
2.22926
2.2409
2.26711
2.30235
2.35354
2.42564
2.47073
2.53328
3.14707
2.84834
2.65966
2.53164
2.4457
2.37872
2.33236
2.29831
2.27519
2.25579
2.24235
2.23183
2.22521
2.22177
2.22314
2.23036
2.24149
2.27266
2.3057
2.35859
2.42491
2.47963
2.53906
3.15186
2.85768
2.66686
2.53658
2.44749
2.38086
2.3361
2.30062
2.27605
2.25603
2.24222
2.23166
2.22485
2.22169
2.22281
2.23102
2.24258
2.27462
2.3067
2.35887
2.42405
2.47389
2.53569
2.83025
2.51937
2.36609
2.30238
2.26383
2.24514
2.22113
2.2073
2.19481
2.19647
2.21335
2.26356
2.33568
2.42011
2.50009
2.6006
2.72748
2.86793
3.02551
3.25809
3.48017
3.74156
3.99391
2.84588
2.52587
2.37329
2.30755
2.26723
2.2481
2.2267
2.2091
2.19789
2.19332
2.19669
2.22303
2.28312
2.3539
2.42486
2.51824
2.64301
2.78131
2.93568
3.17435
3.38916
3.64746
3.90002
2.85024
2.53211
2.38372
2.313
2.27318
2.25275
2.2296
2.21348
2.20209
2.19644
2.19517
2.2089
2.24857
2.30532
2.36385
2.44467
2.56144
2.69596
2.84358
3.08066
3.29013
3.54686
3.79753
2.86786
2.54045
2.39203
2.31689
2.27596
2.25764
2.23254
2.21553
2.20553
2.20023
2.19568
2.20029
2.2232
2.26411
2.31
2.37725
2.48431
2.60963
2.7514
2.98932
3.18955
3.44734
3.68798
2.87376
2.54781
2.40226
2.32432
2.28145
2.26016
2.23664
2.21966
2.20938
2.20376
2.19877
2.20209
2.21007
2.23576
2.26945
2.32085
2.41172
2.52692
2.66023
2.8905
3.08129
3.34468
3.56369
2.89325
2.55847
2.4094
2.32962
2.28439
2.26438
2.24003
2.22168
2.21191
2.20686
2.20168
2.20139
2.2039
2.2176
2.23988
2.27741
2.35195
2.45203
2.57654
2.79758
2.98047
3.23978
3.43086
2.90047
2.56828
2.42189
2.33752
2.29074
2.26889
2.24317
2.22565
2.21528
2.21043
2.20422
2.20416
2.20397
2.20924
2.22232
2.24783
2.30292
2.38793
2.50026
2.70547
2.87598
3.12829
3.30512
2.92169
2.58178
2.42825
2.34453
2.29545
2.27199
2.24755
2.22768
2.21719
2.21282
2.20662
2.20536
2.20447
2.20774
2.21539
2.23191
2.27151
2.33906
2.43947
2.624
2.78492
3.02136
3.17547
2.92984
2.59477
2.44215
2.35375
2.30111
2.27711
2.25027
2.232
2.21957
2.21427
2.2082
2.20701
2.2065
2.20821
2.21448
2.22705
2.25298
2.30511
2.39024
2.55187
2.69576
2.91066
3.05964
2.95304
2.6119
2.45168
2.36216
2.30878
2.28183
2.25524
2.23484
2.22219
2.21632
2.21008
2.20862
2.20797
2.20984
2.21484
2.22631
2.248
2.28764
2.35945
2.49641
2.62063
2.81657
2.95212
2.96182
2.62681
2.46426
2.37213
2.31502
2.28557
2.25772
2.23838
2.22418
2.21745
2.2113
2.2095
2.20887
2.21088
2.21584
2.2261
2.24552
2.28019
2.33954
2.44956
2.55996
2.72485
2.86053
2.9868
2.64895
2.47988
2.3835
2.32337
2.29177
2.26296
2.24263
2.22787
2.21981
2.21295
2.21086
2.20976
2.21161
2.21632
2.22621
2.24466
2.27704
2.33085
2.42207
2.51306
2.64837
2.77939
2.99571
2.66303
2.49052
2.39275
2.33255
2.29576
2.26648
2.24567
2.23026
2.22146
2.21471
2.21158
2.21041
2.21216
2.21674
2.22627
2.24354
2.27362
2.32204
2.39353
2.47717
2.59305
2.71405
3.02173
2.69068
2.51123
2.40887
2.34019
2.30132
2.27056
2.25114
2.23469
2.22459
2.21647
2.21291
2.21115
2.21277
2.21719
2.22635
2.24292
2.27086
2.31428
2.37531
2.45887
2.54075
2.64561
3.03186
2.70322
2.52097
2.41717
2.35087
2.30724
2.27664
2.25434
2.23855
2.22723
2.21892
2.21416
2.2121
2.21357
2.21782
2.22665
2.24247
2.26868
2.30891
2.36619
2.44709
2.50142
2.58869
2.80902
2.82814
2.91346
2.96772
3.0337
3.08152
3.1157
3.14101
3.15207
3.16961
3.1822
3.20166
3.21481
3.25039
3.29373
3.36197
3.45687
3.5965
3.79883
4.06697
4.39763
4.78681
5.14731
2.78648
2.80697
2.86844
2.92876
3.00238
3.05604
3.10522
3.13966
3.15133
3.16994
3.18172
3.20048
3.216
3.24535
3.29381
3.36028
3.45252
3.59135
3.78833
4.04914
4.36649
4.73994
5.12028
2.76313
2.75648
2.83021
2.89891
2.9781
3.03748
3.08874
3.12532
3.14564
3.16437
3.17593
3.19505
3.21264
3.24445
3.29044
3.35721
3.44899
3.58742
3.78344
4.03858
4.35453
4.70824
5.07066
2.73838
2.7203
2.78323
2.85833
2.94108
3.00399
3.06466
3.11741
3.13883
3.157
3.17408
3.19285
3.21066
3.24118
3.28886
3.35406
3.44462
3.58118
3.77383
4.02771
4.33552
4.67933
5.03778
2.72488
2.67607
2.73535
2.81749
2.90368
2.97887
3.03701
3.09869
3.12093
3.15081
3.16973
3.19174
3.20979
3.23852
3.28643
3.35049
3.44044
3.57706
3.76714
4.01507
4.31974
4.64343
5.00696
2.71056
2.63231
2.68949
2.77068
2.86114
2.94487
3.00947
3.0745
3.10193
3.14911
3.16806
3.19158
3.20996
3.23718
3.28376
3.34574
3.43501
3.56934
3.75847
4.00743
4.30825
4.62543
4.9638
2.70727
2.58651
2.6356
2.72068
2.81395
2.90762
2.97432
3.04512
3.08067
3.12977
3.16148
3.18443
3.20647
3.23694
3.27864
3.34095
3.42937
3.563
3.74787
3.99297
4.28903
4.597
4.94114
2.7089
2.55093
2.58647
2.66626
2.76337
2.8697
2.93762
3.01425
3.05466
3.11559
3.14921
3.17861
3.20163
3.23143
3.27163
3.3342
3.42263
3.55431
3.73843
3.98402
4.27676
4.5759
4.89723
2.71738
2.51055
2.53299
2.60899
2.70872
2.82522
2.89643
2.97504
3.02583
3.09396
3.13506
3.1667
3.19449
3.22473
3.26472
3.32711
3.41452
3.5446
3.72468
3.96701
4.2542
4.5582
4.87782
2.7261
2.48313
2.48592
2.55148
2.65315
2.77732
2.85313
2.9327
2.99185
3.06644
3.11709
3.1568
3.1797
3.21631
3.25563
3.31743
3.40559
3.53377
3.71295
3.9552
4.23607
4.53171
4.83649
2.73505
2.46113
2.43701
2.49091
2.59569
2.7268
2.80287
2.88082
2.95477
3.03617
3.09151
3.13573
3.16701
3.20428
3.24455
3.30664
3.39414
3.52089
3.6961
3.93508
4.21154
4.51682
4.81755
2.74724
2.44603
2.39746
2.43887
2.53962
2.66995
2.75207
2.82725
2.90798
2.99821
3.05916
3.10955
3.14682