/*--------------------------------*- C++ -*----------------------------------*\
  =========                 |
  \\      /  F ield         | OpenFOAM: The Open Source CFD Toolbox
   \\    /   O peration     | Website:  https://openfoam.org
    \\  /    A nd           | Version:  7
     \\/     M anipulation  |
\*---------------------------------------------------------------------------*/
FoamFile
{
    version     2.0;
    format      ascii;
    class       volScalarField;
    location    "50";
    object      p;
}
// * * * * * * * * * * * * * * * * * * * * * * * * * * * * * * * * * * * * * //

dimensions      [0 2 -2 0 0 0 0];

internalField   nonuniform List<scalar> 
12842
(
-0.0911969
-0.0948547
-0.0980447
-0.104549
-0.11327
-0.120682
-0.120241
-0.101355
-0.0487646
0.0581949
0.246095
0.546844
0.99529
1.62458
2.4595
3.50839
4.75641
6.16423
7.67192
9.20729
10.6996
12.0857
13.3311
-0.104837
-0.113143
-0.123065
-0.141021
-0.168639
-0.204486
-0.244053
-0.278856
-0.295483
-0.274492
-0.189475
-0.00716061
0.310623
0.802526
1.50071
2.42189
3.55939
4.88023
6.32795
7.82997
9.31268
10.7058
11.9718
-0.114361
-0.127258
-0.14394
-0.17353
-0.219958
-0.28381
-0.362534
-0.449671
-0.533648
-0.596294
-0.61148
-0.544795
-0.355068
0.00140669
0.563508
1.35535
2.37716
3.60108
4.97326
6.42045
7.86739
9.23726
10.4928
-0.120982
-0.138123
-0.16154
-0.202591
-0.267376
-0.35835
-0.474828
-0.612375
-0.761325
-0.90495
-1.01775
-1.06475
-1.00246
-0.782821
-0.360943
0.294046
1.1888
2.3003
3.57761
4.94762
6.33493
7.65772
8.88194
-0.125475
-0.145996
-0.176229
-0.227838
-0.309911
-0.426371
-0.578353
-0.763573
-0.974456
-1.19611
-1.40433
-1.56458
-1.63211
-1.55536
-1.28392
-0.780198
-0.0305905
0.947726
2.10825
3.37946
4.68779
5.94656
7.12693
-0.128308
-0.151014
-0.188115
-0.24848
-0.346155
-0.485444
-0.66945
-0.898221
-1.16648
-1.46166
-1.76177
-2.03394
-2.23343
-2.30611
-2.19642
-1.85978
-1.27465
-0.451014
0.570873
1.72248
2.93333
4.11193
5.23534
-0.129787
-0.153539
-0.197213
-0.263829
-0.375035
-0.533525
-0.744987
-1.0119
-1.3314
-1.69381
-2.08029
-2.46116
-2.79297
-3.0201
-3.08215
-2.9273
-2.52517
-1.87741
-1.01642
-0.00686537
1.08554
2.16396
3.21421
-0.130161
-0.15405
-0.203538
-0.273748
-0.396236
-0.569586
-0.803302
-1.10217
-1.46587
-1.88821
-2.35448
-2.83955
-3.30249
-3.68719
-3.92872
-3.96807
-3.76533
-3.31324
-2.63501
-1.79098
-0.8399
0.115487
1.07467
-0.129558
-0.15299
-0.206728
-0.277946
-0.408711
-0.591302
-0.840229
-1.1616
-1.5571
-2.02387
-2.55136
-3.11967
-3.69101
-4.20982
-4.60774
-4.81993
-4.79817
-4.52772
-4.02278
-3.34065
-2.52973
-1.70433
-0.838254
-0.128852
-0.151461
-0.208537
-0.280302
-0.418104
-0.607359
-0.868249
-1.20715
-1.62715
-2.12815
-2.70316
-3.33685
-3.99429
-4.62077
-5.14564
-5.50025
-5.63054
-5.51662
-5.16585
-4.63253
-3.95666
-3.25554
-2.49349
-0.127734
-0.14944
-0.208942
-0.281863
-0.426218
-0.621345
-0.893688
-1.24917
-1.69224
-2.22562
-2.84585
-3.54227
-4.28284
-5.01422
-5.66431
-6.16198
-6.44884
-6.5011
-6.3198
-5.95583
-5.44022
-4.8897
-4.26039
-0.126229
-0.147099
-0.208032
-0.282841
-0.432775
-0.633045
-0.916184
-1.28708
-1.75165
-2.31555
-2.97885
-3.7357
-4.55711
-5.39173
-6.16697
-6.81053
-7.26087
-7.4913
-7.49669
-7.32382
-6.99382
-6.61999
-6.1495
-0.124479
-0.144608
-0.206262
-0.283482
-0.437674
-0.642448
-0.935552
-1.32054
-1.8049
-2.39735
-3.10154
-3.91661
-4.81692
-5.75388
-6.65534
-7.44907
-8.07137
-8.4933
-8.70339
-8.74343
-8.62359
-8.45116
-8.16535
-0.122529
-0.14199
-0.204143
-0.283975
-0.441095
-0.649953
-0.952156
-1.34995
-1.85247
-2.4716
-3.21459
-4.08574
-5.06311
-6.10165
-7.1307
-8.07923
-8.88218
-9.50886
-9.94122
-10.2151
-10.3289
-10.3813
-10.3054
-0.120346
-0.139213
-0.202066
-0.284347
-0.443292
-0.656026
-0.966505
-1.37595
-1.8952
-2.53934
-3.31917
-4.24439
-5.29712
-6.43674
-7.59504
-8.7033
-9.69579
-10.5404
-11.2121
-11.7398
-12.1094
-12.4083
-12.5652
-0.11792
-0.136324
-0.200285
-0.284539
-0.444557
-0.661097
-0.979083
-1.3992
-1.93393
-2.60161
-3.41656
-4.39408
-5.52079
-6.76135
-8.05103
-9.32431
-10.5153
-11.5903
-12.5171
-13.3162
-13.9605
-14.5238
-14.9321
-0.115296
-0.133458
-0.198924
-0.284476
-0.445154
-0.665444
-0.990212
-1.42015
-1.96927
-2.65914
-3.5076
-4.53577
-5.73527
-7.07696
-8.50039
-9.94404
-11.3419
-12.6586
-13.8535
-14.9377
-15.8707
-16.7101
-17.3822
-0.112534
-0.130792
-0.197978
-0.284096
-0.445293
-0.669201
-1.00003
-1.43897
-2.00139
-2.71208
-3.59232
-4.66934
-5.94026
-7.383
-8.94215
-10.5607
-12.1723
-13.7391
-15.211
-16.5882
-17.8167
-18.9363
-19.8755
-0.109684
-0.128476
-0.197346
-0.283378
-0.445086
-0.672346
-1.0085
-1.45559
-2.03017
-2.76011
-3.67012
-4.7938
-6.13423
-7.6772
-9.37293
-11.1691
-12.9985
-14.8196
-16.5716
-18.2423
-19.7639
-21.1574
-22.3557
-0.106794
-0.126605
-0.196888
-0.282322
-0.444585
-0.674809
-1.01555
-1.46993
-2.05541
-2.80287
-3.74038
-4.90807
-6.3155
-7.95694
-9.78857
-11.7628
-13.8104
-15.8847
-17.9127
-19.8679
-21.6694
-23.3185
-24.7549
-0.103913
-0.125204
-0.196473
-0.280979
-0.443789
-0.676464
-1.02103
-1.48178
-2.07684
-2.83996
-3.80244
-5.01115
-6.48235
-8.21936
-10.1843
-12.3339
-14.5956
-16.9155
-19.2066
-21.4266
-23.4823
-25.3562
-26.9962
-0.101068
-0.124246
-0.195959
-0.27934
-0.442654
-0.677282
-1.02502
-1.49129
-2.09459
-2.87141
-3.85612
-5.1024
-6.63341
-8.4617
-10.5552
-12.8737
-15.3397
-17.89
-20.4215
-22.8752
-25.1472
-27.2032
-29.0009
-0.0983104
-0.123615
-0.195318
-0.277506
-0.441125
-0.67706
-1.02724
-1.49813
-2.10844
-2.89714
-3.90142
-5.18169
-6.76789
-8.68175
-10.8961
-13.373
-16.0274
-18.7847
-21.5242
-24.1698
-26.6095
-28.7961
-30.6975
-0.0956721
-0.123388
-0.19437
-0.27575
-0.439887
-0.677192
-1.02958
-1.50421
-2.11958
-2.91669
-3.93538
-5.24232
-6.87428
-8.86217
-11.1839
-13.8032
-16.6261
-19.5646
-22.4792
-25.2764
-27.8375
-30.1069
-32.0599
-0.0937917
-0.123689
-0.193946
-0.275246
-0.440364
-0.679416
-1.03404
-1.51173
-2.13067
-2.9334
-3.96241
-5.28995
-6.95956
-9.01042
-11.4248
-14.1658
-17.1288
-20.2097
-23.25
-26.1405
-28.7602
-31.0517
-33.0006
-0.0915218
-0.123935
-0.193666
-0.275728
-0.442633
-0.684354
-1.04227
-1.52404
-2.14754
-2.95658
-3.99605
-5.34277
-7.0458
-9.15044
-11.6409
-14.4768
-17.5408
-20.7115
-23.8149
-26.7306
-29.3417
-31.596
-33.4914
-0.0892003
-0.124211
-0.193773
-0.27725
-0.446458
-0.691213
-1.05273
-1.53861
-2.16659
-2.98145
-4.03025
-5.39335
-7.12404
-9.27164
-11.8201
-14.7227
-17.8486
-21.0598
-24.1711
-27.0566
-29.6086
-31.7842
-33.5924
-0.0875468
-0.124793
-0.194485
-0.279647
-0.45126
-0.698874
-1.06357
-1.55275
-2.18411
-3.00322
-4.05904
-5.43461
-7.18615
-9.36499
-11.9525
-14.8938
-18.0444
-21.2513
-24.3237
-27.1355
-29.592
-31.6616
-33.3633
-0.0867366
-0.125716
-0.195712
-0.282575
-0.456386
-0.706403
-1.07358
-1.56499
-2.19845
-3.0201
-4.0805
-5.46446
-7.2298
-9.42783
-12.0353
-14.9877
-18.1277
-21.2906
-24.285
-26.9895
-29.3249
-31.2717
-32.8569
-0.0864662
-0.126796
-0.197156
-0.285606
-0.461283
-0.713187
-1.08213
-1.5749
-2.20943
-3.03227
-4.0951
-5.4836
-7.25566
-9.46056
-12.0687
-15.0052
-18.102
-21.1862
-24.0708
-26.6432
-28.8405
-30.6551
-32.1197
-0.0863367
-0.127817
-0.198513
-0.288379
-0.465549
-0.718878
-1.08903
-1.58253
-2.21743
-3.04045
-4.10385
-5.49312
-7.26474
-9.46407
-12.0537
-14.9485
-17.9722
-20.9482
-23.6981
-26.1209
-28.17
-29.848
-31.1917
-0.0861024
-0.128649
-0.199616
-0.290706
-0.469044
-0.723443
-1.09442
-1.58828
-2.22311
-3.04551
-4.10769
-5.49392
-7.25776
-9.43894
-11.9914
-14.8203
-17.7443
-20.5877
-23.184
-25.4456
-27.3411
-28.8819
-30.1066
-0.0856529
-0.129252
-0.200418
-0.292571
-0.471824
-0.727071
-1.09868
-1.59273
-2.22723
-3.04829
-4.10741
-5.48659
-7.23515
-9.38571
-11.883
-14.6238
-17.425
-20.1159
-22.5448
-24.6381
-26.3782
-27.7837
-28.893
-0.0849889
-0.129647
-0.200971
-0.294066
-0.474091
-0.730092
-1.10228
-1.59652
-2.2305
-3.04946
-4.10358
-5.47152
-7.19718
-9.3049
-11.7301
-14.3628
-17.0213
-19.5439
-21.7957
-23.7171
-25.3026
-26.5762
-27.5746
-0.0841448
-0.129882
-0.20136
-0.295332
-0.476061
-0.732825
-1.10565
-1.60013
-2.23339
-3.04946
-4.09648
-5.44891
-7.14412
-9.19725
-11.5346
-14.0414
-16.5404
-18.8824
-20.9505
-22.6988
-24.1321
-25.2778
-26.1701
-0.0831864
-0.130017
-0.201683
-0.296503
-0.477948
-0.735542
-1.1091
-1.60386
-2.23617
-3.04845
-4.08621
-5.4188
-7.07623
-9.06371
-11.2989
-13.6641
-15.9896
-18.1412
-20.0213
-21.5967
-22.8806
-23.9025
-24.6931
-0.0821628
-0.130108
-0.202021
-0.297693
-0.479892
-0.738409
-1.11279
-1.60783
-2.23888
-3.04636
-4.07268
-5.38124
-6.99395
-8.90555
-11.0257
-13.2357
-15.376
-17.3298
-19.0188
-20.4219
-21.5591
-22.4604
-23.1523
-0.0811249
-0.130206
-0.20244
-0.298974
-0.481992
-0.741515
-1.11678
-1.61202
-2.2414
-3.04305
-4.05575
-5.33626
-6.8978
-8.72423
-10.718
-12.7612
-14.7067
-16.4567
-17.9523
-19.1837
-20.1762
-20.9594
-21.5551
-0.0800941
-0.130345
-0.202972
-0.300387
-0.484276
-0.744869
-1.12102
-1.61632
-2.24357
-3.03829
-4.03528
-5.28399
-6.78849
-8.52151
-10.3791
-12.2459
-13.9891
-15.5305
-16.831
-17.8911
-18.7405
-19.4079
-19.9098
-0.0790919
-0.13055
-0.203635
-0.301939
-0.486752
-0.748444
-1.12543
-1.62058
-2.24518
-3.0319
-4.01118
-5.22461
-6.66678
-8.29917
-10.0123
-11.6951
-13.2301
-14.5597
-15.664
-16.5529
-17.2608
-17.8148
-18.2258
-0.0781158
-0.130834
-0.204418
-0.303618
-0.489385
-0.752177
-1.12992
-1.62466
-2.24607
-3.02374
-3.98345
-5.15841
-6.53359
-8.05922
-9.62137
-11.1145
-12.4373
-13.5531
-14.4607
-15.179
-15.7467
-16.1896
-16.5125
-0.0771712
-0.131201
-0.205308
-0.305398
-0.492143
-0.75601
-1.13439
-1.62845
-2.24612
-3.01373
-3.95212
-5.08572
-6.38984
-7.80361
-9.20981
-10.5093
-11.6179
-12.5192
-13.2306
-13.7791
-14.2073
-14.5406
-14.7771
-0.0762475
-0.131648
-0.206276
-0.307252
-0.494981
-0.759879
-1.13877
-1.63186
-2.24529
-3.00187
-3.91736
-5.00699
-6.23659
-7.53448
-8.78144
-9.88545
-10.7797
-11.4672
-11.9831
-12.3624
-12.6509
-12.8735
-13.022
-0.0753473
-0.132167
-0.207301
-0.309152
-0.497869
-0.763743
-1.143
-1.63485
-2.24354
-2.98823
-3.87934
-4.9227
-6.0749
-7.25391
-8.33995
-9.24839
-9.9301
-10.4056
-10.7273
-10.9373
-11.0837
-11.1911
-11.2455
-0.0744624
-0.132747
-0.208353
-0.311077
-0.500773
-0.767566
-1.14705
-1.63742
-2.24092
-2.97292
-3.83833
-4.8334
-5.90597
-6.96413
-7.88922
-8.60384
-9.07669
-9.34331
-9.47222
-9.5118
-9.5121
-9.49778
-9.45042
-0.0735967
-0.133376
-0.209415
-0.313009
-0.503681
-0.771333
-1.15093
-1.63958
-2.23749
-2.95605
-3.7946
-4.73965
-5.73092
-6.66725
-7.43293
-7.95723
-8.2269
-8.2894
-8.22773
-8.09614
-7.94644
-7.80565
-7.652
-0.0727499
-0.134045
-0.210472
-0.314943
-0.506582
-0.775044
-1.15465
-1.64138
-2.23335
-2.93783
-3.74847
-4.64208
-5.55102
-6.36548
-6.97486
-7.31401
-7.38822
-7.25344
-7.00495
-6.70437
-6.4031
-6.13398
-5.87333
-0.0719142
-0.134739
-0.211514
-0.316876
-0.509484
-0.778718
-1.15825
-1.6429
-2.22862
-2.91844
-3.7003
-4.54134
-5.36748
-6.06097
-6.51866
-6.67943
-6.56809
-6.24608
-5.81685
-5.35498
-4.90476
-4.5067
-4.14066
-0.0711184
-0.135458
-0.212527
-0.318797
-0.512385
-0.782417
-1.16192
-1.64457
-2.22414
-2.89951
-3.65309
-4.44287
-5.18967
-5.76859
-6.08629
-6.08356
-5.80499
-5.31678
-4.72071
-4.11786
-3.53313
-3.01247
-2.54641
-0.0704133
-0.136218
-0.21357
-0.320799
-0.515481
-0.786486
-1.16629
-1.6475
-2.22191
-2.88464
-3.61342
-4.35837
-5.03703
-5.51842
-5.72041
-5.58343
-5.16924
-4.55304
-3.81768
-3.10737
-2.42498
-1.80464
-1.24775
-0.069553
-0.13689
-0.214503
-0.322843
-0.518836
-0.791211
-1.17199
-1.65279
-2.2237
-2.87663
-3.58566
-4.29466
-4.9195
-5.32441
-5.43814
-5.20023
-4.68315
-3.97974
-3.13957
-2.3461
-1.60871
-0.925462
-0.294136
-0.0685702
-0.137514
-0.215389
-0.325035
-0.522626
-0.796862
-1.17936
-1.66086
-2.22988
-2.87565
-3.5694
-4.25021
-4.83325
-5.1794
-5.22647
-4.91524
-4.32009
-3.55929
-2.64904
-1.77778
-1.01046
-0.302174
0.380135
-0.0676129
-0.138181
-0.216358
-0.327526
-0.52701
-0.803595
-1.18851
-1.67164
-2.24007
-2.88073
-3.56271
-4.22161
-4.77226
-5.07387
-5.07051
-4.7081
-4.05409
-3.25429
-2.30757
-1.35939
-0.565454
0.140125
0.845698
-0.0667587
-0.138931
-0.217497
-0.330403
-0.532077
-0.811458
-1.19937
-1.6848
-2.25347
-2.89037
-3.56294
-4.20438
-4.72931
-4.9969
-4.95429
-4.55709
-3.85901
-3.02945
-2.07328
-1.05874
-0.228472
0.463649
1.16447
-0.0659971
-0.139742
-0.2188
-0.333629
-0.537712
-0.820196
-1.21142
-1.69947
-2.26871
-2.90248
-3.56696
-4.19381
-4.69735
-4.93799
-4.86304
-4.44149
-3.71006
-2.85422
-1.90339
-0.846605
0.0301391
0.714445
1.39391
-0.0653155
-0.140597
-0.220258
-0.337164
-0.543836
-0.829642
-1.22437
-1.71511
-2.28489
-2.91563
-3.57259
-4.18654
-4.67135
-4.88958
-4.78643
-4.34626
-3.58868
-2.70733
-1.76458
-0.694472
0.233302
0.923009
1.56849
-0.064665
-0.141456
-0.221818
-0.34093
-0.550339
-0.839622
-1.23791
-1.73124
-2.30126
-2.92857
-3.57767
-4.17874
-4.64503
-4.84162
-4.7107
-4.2521
-3.47076
-2.56227
-1.62162
-0.564032
0.400207
1.11064
1.74473
-0.0640106
-0.142295
-0.223388
-0.344742
-0.556814
-0.849401
-1.25083
-1.746
-2.31513
-2.9376
-3.57727
-4.16397
-4.61056
-4.78514
-4.62719
-4.15075
-3.34979
-2.41667
-1.47435
-0.444685
0.543072
1.2732
1.86869
-0.0634601
-0.143192
-0.225118
-0.348726
-0.563412
-0.859116
-1.26326
-1.75956
-2.32686
-2.9434
-3.57252
-4.14383
-4.56988
-4.72184
-4.5367
-4.04081
-3.22178
-2.26449
-1.31363
-0.314461
0.68478
1.44215
2.0157
-0.063022
-0.144139
-0.226987
-0.352807
-0.570024
-0.868635
-1.27511
-1.77202
-2.33685
-2.94686
-3.56497
-4.12046
-4.52557
-4.65432
-4.44112
-3.92291
-3.0855
-2.10352
-1.13725
-0.162911
0.836087
1.63001
2.22006
-0.062604
-0.145058
-0.228839
-0.356786
-0.57639
-0.877652
-1.2861
-1.78316
-2.34515
-2.94841
-3.55552
-4.09535
-4.47991
-4.58575
-4.3446
-3.80242
-2.94714
-1.94109
-0.953861
0.00542925
0.995983
1.826
2.45466
-0.0621517
-0.14591
-0.230582
-0.360538
-0.582363
-0.886027
-1.29613
-1.79305
-2.35205
-2.94866
-3.54522
-4.07012
-4.43533
-4.51977
-4.25259
-3.68727
-2.8167
-1.78917
-0.777015
0.178258
1.15625
2.01323
2.68208
-0.061657
-0.146702
-0.232207
-0.364075
-0.587985
-0.89387
-1.30546
-1.80215
-2.35828
-2.94869
-3.53553
-4.04673
-4.39449
-4.46012
-4.17065
-3.58572
-2.70494
-1.66123
-0.623586
0.336043
1.29966
2.1699
2.87152
-0.0611328
-0.147464
-0.233753
-0.367454
-0.593359
-0.90137
-1.31439
-1.81094
-2.36454
-2.9494
-3.52754
-4.02643
-4.35884
-4.40865
-4.10168
-3.50256
-2.61871
-1.56727
-0.50887
0.457692
1.40388
2.27259
2.99667
-0.0605875
-0.148215
-0.235252
-0.370745
-0.598603
-0.908715
-1.32322
-1.81982
-2.37132
-2.9513
-3.52165
-4.0094
-4.32813
-4.36467
-4.04487
-3.43746
-2.55838
-1.50993
-0.440655
0.529266
1.45352
2.30605
3.04073
-0.0600283
-0.148971
-0.236732
-0.373993
-0.603789
-0.916016
-1.33208
-1.82895
-2.37872
-2.95428
-3.51733
-3.99446
-4.30024
-4.32485
-3.9955
-3.38455
-2.5169
-1.48238
-0.414879
0.551036
1.44836
2.27255
3.00432
-0.0594603
-0.149735
-0.238208
-0.377231
-0.608972
-0.923341
-1.34106
-1.83835
-2.38659
-2.95791
-3.51366
-3.97989
-4.27224
-4.28461
-3.94686
-3.33474
-2.48237
-1.47061
-0.416978
0.537005
1.4043
2.19218
2.90778
-0.05889
-0.150513
-0.239691
-0.380474
-0.614162
-0.930694
-1.35011
-1.84788
-2.39462
-2.96152
-3.50941
-3.96366
-4.24092
-4.23915
-3.89182
-3.27795
-2.4411
-1.45698
-0.426171
0.50994
1.34691
2.09582
2.78484
-0.0583226
-0.151302
-0.241184
-0.38373
-0.61937
-0.938068
-1.35918
-1.8574
-2.40248
-2.96451
-3.50356
-3.94419
-4.20389
-4.18484
-3.82478
-3.20594
-2.38137
-1.42523
-0.42177
0.493631
1.30304
2.01466
2.67142
-0.0577626
-0.152103
-0.242691
-0.386995
-0.624574
-0.945413
-1.36816
-1.86671
-2.40981
-2.96631
-3.49529
-3.92031
-4.15955
-4.11947
-3.7423
-3.11352
-2.29533
-1.36362
-0.38791
0.506763
1.29302
1.97175
2.59475
-0.0572132
-0.152913
-0.244207
-0.390265
-0.629767
-0.952703
-1.377
-1.87567
-2.4164
-2.96661
-3.4842
-3.8916
-4.10752
-4.04269
-3.64378
-2.99943
-2.18052
-1.26717
-0.316704
0.558682
1.32625
1.97698
2.56664
-0.0566755
-0.153731
-0.245733
-0.393528
-0.634917
-0.959883
-1.38559
-1.88413
-2.42205
-2.96517
-3.4701
-3.85806
-4.04819
-3.95544
-3.53074
-2.86572
-2.03923
-1.13746
-0.208595
0.648742
1.40005
2.02613
2.58242
-0.0561506
-0.154554
-0.247262
-0.39678
-0.640019
-0.966933
-1.3939
-1.89205
-2.42668
-2.96198
-3.45314
-3.82021
-3.98272
-3.85986
-3.40657
-2.71725
-1.87781
-0.981706
-0.071265
0.767757
1.50207
2.10393
2.62509
-0.055637
-0.15538
-0.248794
-0.400008
-0.645044
-0.973808
-1.40187
-1.89934
-2.43024
-2.95704
-3.43352
-3.77863
-3.91243
-3.75843
-3.27537
-2.56019
-1.70485
-0.810599
0.0829521
0.901281
1.61446
2.18953
2.67227
-0.0551354
-0.156205
-0.250322
-0.40321
-0.649991
-0.980504
-1.40947
-1.90599
-2.43275
-2.9505
-3.41162
-3.73415
-3.83888
-3.65385
-3.14157
-2.40125
-1.52988
-0.636355
0.239723
1.03309
1.71872
2.26238
2.70327
-0.0546437
-0.15703
-0.251845
-0.406374
-0.654836
-0.986988
-1.41668
-1.91197
-2.4342
-2.94242
-3.38769
-3.68736
-3.7633
-3.54838
-3.00901
-2.24648
-1.36171
-0.470562
0.385406
1.14844
1.7996
2.30702
2.70431
-0.0541629
-0.157849
-0.25336
-0.409502
-0.659587
-0.993265
-1.42351
-1.9173
-2.43465
-2.93295
-3.36204
-3.63889
-3.68682
-3.44397
-2.88091
-2.10086
-1.20766
-0.322837
0.509012
1.23645
1.84751
2.31564
2.67037
-0.0536911
-0.158666
-0.254867
-0.412584
-0.664221
-0.999309
-1.42991
-1.92194
-2.43409
-2.92213
-3.33482
-3.58907
-3.6101
-3.34182
-2.75935
-1.96777
-1.07273
-0.199735
0.603506
1.29127
1.85926
2.28796
2.60388
-0.0532306
-0.159475
-0.256363
-0.415623
-0.668751
-1.00513
-1.4359
-1.92592
-2.43256
-2.91004
-3.30619
-3.5382
-3.53364
-3.24272
-2.64558
-1.84909
-0.95959
-0.104525
0.666153
1.31226
1.83723
2.22945
2.51254
-0.0527797
-0.16028
-0.257849
-0.418613
-0.673154
-1.0107
-1.44145
-1.9292
-2.43003
-2.89666
-3.27615
-3.4863
-3.45751
-3.14681
-2.53984
-1.74513
-0.868583
-0.0372415
0.698155
1.30297
1.78786
2.1489
2.40663
-0.0523412
-0.161079
-0.259323
-0.421555
-0.677446
-1.01604
-1.44657
-1.93179
-2.42651
-2.88202
-3.24474
-3.43343
-3.38174
-3.054
-2.44178
-1.65508
-0.798188
0.0046848
0.703729
1.26985
1.71955
2.0559
2.29607
-0.0519135
-0.161874
-0.260788
-0.424445
-0.681604
-1.0211
-1.45122
-1.93364
-2.42193
-2.86603
-3.21185
-3.37942
-3.30608
-2.96381
-2.35043
-1.57712
-0.745426
0.0256768
0.688931
1.22049
1.6409
1.95887
2.18832
-0.0514998
-0.162663
-0.262242
-0.427286
-0.685642
-1.02592
-1.45541
-1.93475
-2.4163
-2.84869
-3.17746
-3.32422
-3.23032
-2.87572
-2.26465
-1.50898
-0.706517
0.0311005
0.660456
1.16236
1.5593
1.86395
2.08791
-0.0510982
-0.16345
-0.263686
-0.43007
-0.689535
-1.03045
-1.45909
-1.93507
-2.40953
-2.82988
-3.14142
-3.26762
-3.15412
-2.78906
-2.18306
-1.44812
-0.677372
0.0264567
0.624571
1.10158
1.4801
1.77499
1.99652
-0.0507119
-0.164232
-0.265119
-0.432803
-0.693299
-1.0347
-1.46227
-1.93458
-2.4016
-2.80958
-3.10369
-3.20952
-3.07728
-2.70329
-2.10441
-1.3921
-0.654116
0.0166748
0.586376
1.04249
1.40626
1.69329
1.91332
-0.0503389
-0.165013
-0.266542
-0.435474
-0.696906
-1.03863
-1.46489
-1.93321
-2.39243
-2.78767
-3.06412
-3.14976
-2.99953
-2.61786
-2.02753
-1.33874
-0.633447
0.00564361
0.549379
0.987222
1.33828
1.6178
1.83547
-0.0499822
-0.165789
-0.267952
-0.438089
-0.70037
-1.04227
-1.46696
-1.93097
-2.38199
-2.76413
-3.02269
-3.08831
-2.92077
-2.53242
-1.95152
-1.28633
-0.612895
-0.00401956
0.51541
0.936127
1.27481
1.54578
1.7591
-0.04964
-0.166563
-0.269352
-0.440637
-0.703662
-1.04555
-1.46841
-1.92776
-2.37019
-2.73884
-2.9793
-3.02505
-2.84089
-2.44668
-1.87572
-1.23368
-0.590928
-0.0110304
0.484802
0.888152
1.21334
1.47376
1.67996
-0.0493151
-0.167332
-0.270738
-0.443122
-0.706796
-1.0485
-1.46926
-1.92358
-2.357
-2.7118
-2.93394
-2.96005
-2.75992
-2.36058
-1.79979
-1.18021
-0.566909
-0.0152287
0.456796
0.84149
1.15117
1.3984
1.59458
-0.0490059
-0.168098
-0.272111
-0.445534
-0.709738
-1.05107
-1.46943
-1.91835
-2.34234
-2.68291
-2.88655
-2.89327
-2.6779
-2.27415
-1.72368
-1.12586
-0.540994
-0.0173098
0.430008
0.794152
1.08603
1.31743
1.50085
-0.048715
-0.168857
-0.273467
-0.447874
-0.712503
-1.05326
-1.46893
-1.91206
-2.32618
-2.65217
-2.83718
-2.82485
-2.59504
-2.18759
-1.64763
-1.07101
-0.513897
-0.0184045
0.402948
0.7446
1.01662
1.23012
1.39865
-0.0484414
-0.169612
-0.274807
-0.450131
-0.715057
-1.05504
-1.4677
-1.90463
-2.30845
-2.61952
-2.78581
-2.75485
-2.51151
-2.10119
-1.57208
-1.01638
-0.486687
-0.019803
0.374433
0.692061
0.942878
1.1374
1.28985
-0.0481867
-0.170357
-0.276127
-0.452307
-0.71741
-1.05639
-1.46571
-1.89604
-2.28912
-2.58496
-2.73253
-2.68347
-2.42764
-2.01539
-1.49764
-0.962861
-0.460463
-0.0225902
0.34379
0.63668
0.865915
1.04147
1.17784
-0.0479529
-0.171097
-0.27743
-0.454394
-0.719535
-1.05729
-1.46294
-1.88624
-2.26815
-2.54848
-2.6774
-2.61087
-2.34375
-1.93068
-1.42503
-0.911411
-0.436273
-0.0275593
0.310768
0.579225
0.787658
0.945132
1.06601
-0.0477292
-0.17182
-0.278705
-0.456383
-0.721423
-1.05771
-1.4593
-1.87512
-2.24543
-2.51003
-2.62046
-2.53726
-2.2602
-1.84757
-1.35492
-0.862794
-0.414793
-0.0349098
0.275768
0.520646
0.710026
0.851422
0.958906
-0.0475396
-0.172553
-0.279997
-0.458346
-0.723174
-1.05778
-1.45497
-1.86282
-2.221
-2.46962
-2.56177
-2.46282
-2.17748
-1.76684
-1.28837
-0.81823
-0.39702
-0.0450672
0.238524
0.460736
0.635084
0.763849
0.856424
-0.0472506
-0.173243
-0.281326
-0.460336
-0.724801
-1.05715
-1.44887
-1.84727
-2.19181
-2.4235
-2.4976
-2.38455
-2.09385
-1.68807
-1.22588
-0.778376
-0.383294
-0.0567033
0.203335
0.401984
0.55872
0.68262
0.786367
-0.0469997
-0.173861
-0.282479
-0.461654
-0.724917
-1.05356
-1.43775
-1.82436
-2.15332
-2.36769
-2.42599
-2.30413
-2.01561
-1.62254
-1.18296
-0.761471
-0.393368
-0.0915147
0.148538
0.331561
0.471589
0.573608
0.654618
-0.0469949
-0.174612
-0.28379
-0.462613
-0.723811
-1.04713
-1.42154
-1.79385
-2.10516
-2.30144
-2.34522
-2.21792
-1.93647
-1.56134
-1.1487
-0.756047
-0.415693
-0.138237
0.0822122
0.25018
0.376275
0.46543
0.534867
-0.0472082
-0.175474
-0.285223
-0.463235
-0.721538
-1.03804
-1.40054
-1.75607
-2.04746
-2.22414
-2.25325
-2.12193
-1.85023
-1.49631
-1.11332
-0.751315
-0.438542
-0.183798
0.0191367
0.176104
0.297443
0.387465
0.458165
-0.047385
-0.176188
-0.286378
-0.463074
-0.717501
-1.02555
-1.3739
-1.71002
-1.97895
-2.13415
-2.148
-2.01364
-1.75411
-1.42444
-1.07359
-0.743711
-0.458059
-0.223891
-0.0352852
0.11374
0.232306
0.323584
0.3957
-0.0474363
-0.176611
-0.287008
-0.461771
-0.711146
-1.00893
-1.34064
-1.65456
-1.89839
-2.0302
-2.02819
-1.89176
-1.64647
-1.34336
-1.02614
-0.729003
-0.470309
-0.256064
-0.0817649
0.0575985
0.169584
0.257462
0.32744
-0.0474905
-0.176779
-0.287139
-0.459298
-0.702376
-0.988004
-1.30062
-1.58963
-1.80595
-1.9127
-1.89434
-1.75629
-1.52607
-1.24999
-0.96613
-0.701505
-0.470277
-0.277413
-0.119817
0.00671976
0.108518
0.189202
0.25399
-0.047708
-0.176795
-0.286897
-0.455732
-0.691248
-0.962902
-1.25417
-1.51602
-1.70304
-1.78381
-1.74901
-1.60961
-1.39428
-1.14441
-0.89259
-0.66006
-0.4572
-0.287752
-0.149198
-0.0378058
0.0517388
0.123017
0.180699
-0.0481583
-0.176693
-0.286322
-0.451089
-0.67778
-0.933745
-1.20172
-1.43479
-1.59176
-1.64684
-1.59674
-1.45706
-1.25685
-1.03258
-0.811749
-0.610749
-0.436752
-0.291687
-0.173267
-0.0778968
-0.00122442
0.0600828
0.110145
-0.0488357
-0.176446
-0.28535
-0.445217
-0.661773
-0.90043
-1.14356
-1.34702
-1.47442
-1.50583
-1.44339
-1.30622
-1.12279
-0.924425
-0.733861
-0.563234
-0.417037
-0.295492
-0.196286
-0.116081
-0.0512523
0.000978515
0.0441973
-0.0496943
-0.175967
-0.283814
-0.437868
-0.642919
-0.862764
-1.07992
-1.25386
-1.3536
-1.3651
-1.29514
-1.16481
-1.00073
-0.828936
-0.667336
-0.524726
-0.403427
-0.302724
-0.220171
-0.152988
-0.0980686
-0.0533337
-0.0156705
-0.0506901
-0.175152
-0.281501
-0.428703
-0.620831
-0.820551
-1.01118
-1.15668
-1.232
-1.22871
-1.15697
-1.03813
-0.895581
-0.750097
-0.615101
-0.49691
-0.396589
-0.313055
-0.244045
-0.187298
-0.140294
-0.101462
-0.0682724
-0.0517687
-0.173862
-0.278146
-0.417376
-0.595185
-0.773779
-0.938025
-1.05715
-1.11219
-1.09964
-1.03149
-0.927471
-0.807155
-0.686259
-0.574735
-0.477
-0.393788
-0.323946
-0.265716
-0.2172
-0.176538
-0.142435
-0.112998
-0.0528833
-0.171953
-0.273464
-0.403539
-0.56575
-0.722671
-0.86142
-0.956982
-0.996184
-0.979243
-0.918304
-0.830462
-0.73125
-0.632324
-0.540943
-0.460363
-0.3912
-0.332586
-0.283172
-0.241499
-0.206154
-0.176152
-0.150029
-0.0539612
-0.169242
-0.267143
-0.386904
-0.532478
-0.667729
-0.782549
-0.857725
-0.885017
-0.867025
-0.814868
-0.742577
-0.6622
-0.58235
-0.508325
-0.442578
-0.385685
-0.337063
-0.295726
-0.260563
-0.230505
-0.204801
-0.182321
-0.0549288
-0.165545
-0.258885
-0.367265
-0.49552
-0.609687
-0.702632
-0.76049
-0.778837
-0.76143
-0.71789
-0.659316
-0.59505
-0.531425
-0.472333
-0.419553
-0.373581
-0.334011
-0.300141
-0.271126
-0.246174
-0.224712
-0.205896
-0.0556665
-0.160644
-0.248408
-0.344545
-0.455237
-0.54943
-0.622792
-0.666045
-0.677377
-0.661059
-0.625032
-0.578039
-0.52714
-0.477103
-0.430635
-0.389054
-0.352636
-0.321145
-0.294009
-0.270659
-0.250459
-0.233029
-0.217711
-0.0560557
-0.154341
-0.235497
-0.318824
-0.412192
-0.487946
-0.544116
-0.575096
-0.580849
-0.565697
-0.536126
-0.498869
-0.45922
-0.420681
-0.385139
-0.35346
-0.325758
-0.301814
-0.281169
-0.26339
-0.247993
-0.234691
-0.223015
-0.055924
-0.14644
-0.220037
-0.290359
-0.367126
-0.426323
-0.467765
-0.488744
-0.490332
-0.476646
-0.452885
-0.424063
-0.394012
-0.3652
-0.338882
-0.315554
-0.295198
-0.277579
-0.262332
-0.249117
-0.237598
-0.227557
-0.218703
-0.0551192
-0.136818
-0.202058
-0.259611
-0.320961
-0.365792
-0.395114
-0.408465
-0.407468
-0.395812
-0.37751
-0.356166
-0.334428
-0.313962
-0.29556
-0.27947
-0.265587
-0.253673
-0.24342
-0.234563
-0.226852
-0.220133
-0.214222
-0.0534621
-0.125433
-0.181782
-0.227244
-0.274794
-0.307691
-0.327611
-0.335616
-0.333509
-0.324252
-0.310854
-0.295776
-0.280783
-0.26692
-0.254666
-0.244099
-0.235089
-0.227409
-0.220822
-0.215118
-0.210136
-0.205761
-0.201917
-0.0508354
-0.112399
-0.159651
-0.194136
-0.229847
-0.253343
-0.266393
-0.270939
-0.268629
-0.261648
-0.252142
-0.241776
-0.231692
-0.222539
-0.214585
-0.207838
-0.202168
-0.197387
-0.193315
-0.189797
-0.186726
-0.184022
-0.181667
-0.047169
-0.0979962
-0.136353
-0.161338
-0.187354
-0.203859
-0.21217
-0.214585
-0.212495
-0.207413
-0.20081
-0.193826
-0.187204
-0.181338
-0.176366
-0.172254
-0.168879
-0.166088
-0.163742
-0.161727
-0.159973
-0.158421
-0.157089
-0.0425113
-0.0827263
-0.112789
-0.129985
-0.148449
-0.160064
-0.165349
-0.166569
-0.16494
-0.161451
-0.15707
-0.152561
-0.14841
-0.144848
-0.141932
-0.139607
-0.137765
-0.136285
-0.135063
-0.134019
-0.133111
-0.132301
-0.131621
-0.0370431
-0.0672659
-0.090001
-0.101174
-0.114034
-0.122468
-0.126058
-0.12676
-0.125704
-0.123528
-0.120825
-0.118076
-0.115599
-0.113529
-0.111886
-0.110613
-0.109629
-0.108841
-0.108185
-0.107605
-0.107086
-0.106604
-0.106199
-0.0310676
-0.0524157
-0.0690081
-0.0757779
-0.0846022
-0.0911051
-0.0939422
-0.094583
-0.0941034
-0.09299
-0.0915664
-0.090126
-0.0888585
-0.0878575
-0.0871208
-0.0866091
-0.0862545
-0.0860013
-0.0857986
-0.0856204
-0.0854541
-0.0852958
-0.0851728
-0.025004
-0.0389412
-0.0506305
-0.0542864
-0.0601541
-0.0654484
-0.0680843
-0.0688881
-0.0688783
-0.068517
-0.0679862
-0.0674364
-0.0669674
-0.0666378
-0.0664405
-0.0663511
-0.066322
-0.0663215
-0.0663177
-0.0663017
-0.0662695
-0.0662279
-0.0661984
-0.0192379
-0.0273702
-0.0352472
-0.0366449
-0.0400888
-0.0443567
-0.0469296
-0.0478916
-0.0481224
-0.0481404
-0.0480964
-0.0480568
-0.0480546
-0.0481186
-0.0482389
-0.0484013
-0.0485749
-0.0487423
-0.0488853
-0.0490031
-0.0490962
-0.0491745
-0.0492533
-0.0140813
-0.0180287
-0.0230713
-0.0228534
-0.0242008
-0.0274519
-0.0300472
-0.031285
-0.0317441
-0.0319884
-0.0322077
-0.0324399
-0.0326719
-0.0329081
-0.0331348
-0.0333489
-0.0335338
-0.0336883
-0.0338054
-0.0338938
-0.0339575
-0.0340111
-0.0340634
-0.00921541
-0.0101494
-0.0130552
-0.0114937
-0.010559
-0.0121711
-0.0142568
-0.0154672
-0.0159587
-0.0162941
-0.0167441
-0.0173598
-0.0180861
-0.0188813
-0.0196956
-0.0205046
-0.0212774
-0.0220047
-0.0226723
-0.0232838
-0.0238375
-0.0243441
-0.0248075
-0.00438047
-0.00525538
-0.00681667
-0.00557102
-0.00404174
-0.00447309
-0.005938
-0.00699739
-0.00724281
-0.00699713
-0.00657128
-0.00612882
-0.00569072
-0.00526816
-0.0048462
-0.00443458
-0.00402773
-0.00363992
-0.0032714
-0.00293746
-0.00264014
-0.00239266
-0.00219426
-0.000423301
-0.0217488
0.0131925
0.0526091
0.118278
0.225397
0.380784
0.600473
0.892322
1.27047
1.74887
2.35395
3.11819
4.08076
5.27303
6.70626
8.35882
10.1745
12.0727
13.9567
15.7471
17.3593
18.7964
-0.00490888
-0.0217304
0.00509779
0.0464667
0.110523
0.213318
0.364866
0.5799
0.869616
1.24964
1.73719
2.35876
3.14637
4.13559
5.3535
6.80651
8.4692
10.2834
12.1673
14.0265
15.7818
17.3563
18.7479
-0.0104531
-0.0221609
-0.00306639
0.0368559
0.0978048
0.193957
0.337645
0.543325
0.824714
1.19916
1.68663
2.31387
3.11198
4.1129
5.33936
6.79334
8.44652
10.2399
12.0923
13.9124
15.6231
17.154
18.4993
-0.0174728
-0.0241757
-0.0111255
0.0242137
0.079952
0.167091
0.298891
0.490058
0.756121
1.11602
1.59197
2.21115
3.00374
3.99862
5.21475
6.65061
8.27605
10.0323
11.8401
13.6118
15.2726
16.7583
18.0595
-0.0265777
-0.0291335
-0.0198474
0.00871308
0.0566015
0.131966
0.247613
0.418433
0.661123
0.99589
1.44658
2.04098
2.80869
3.77653
4.96086
6.35822
7.93819
9.64366
11.3983
13.1182
14.7305
16.1754
17.4395
-0.038569
-0.0383388
-0.0310281
-0.010272
0.0270373
0.0874557
0.182482
0.326688
0.537307
0.835287
1.24554
1.79643
2.51744
3.43449
4.56294
5.89922
7.41451
9.05507
10.7487
12.4159
13.9856
15.4003
16.6411
-0.0541476
-0.0527524
-0.0470832
-0.0343585
-0.00988564
0.0323194
0.102228
0.213554
0.383449
0.633137
0.98814
1.47744
2.13099
2.97498
4.0254
5.2803
6.71399
8.27721
9.90285
11.5158
13.0474
14.4414
15.6744
-0.0730487
-0.0725991
-0.0698888
-0.065639
-0.0560431
-0.0357998
0.00356966
0.0745431
0.193749
0.382473
0.666892
1.07719
1.64496
2.39848
3.35629
4.51968
5.86686
7.35281
8.91418
10.4785
11.9774
13.3537
14.5792
0.04334
-0.028454
0.0276503
0.0434872
0.111977
0.238584
0.390465
0.633453
0.911666
1.23267
1.56723
1.89723
2.21208
2.50355
2.76757
2.99776
3.18114
3.29393
3.32426
3.26525
3.12744
2.94517
2.72055
0.0413422
-0.0292774
0.0240546
0.0412475
0.109579
0.235886
0.38835
0.632636
0.914222
1.24351
1.59327
1.95127
2.31041
2.67068
3.03389
3.39907
3.75466