/*--------------------------------*- C++ -*----------------------------------*\
  =========                 |
  \\      /  F ield         | OpenFOAM: The Open Source CFD Toolbox
   \\    /   O peration     | Website:  https://openfoam.org
    \\  /    A nd           | Version:  7
     \\/     M anipulation  |
\*---------------------------------------------------------------------------*/
FoamFile
{
    version     2.0;
    format      ascii;
    class       surfaceScalarField;
    location    "50";
    object      phi;
}
// * * * * * * * * * * * * * * * * * * * * * * * * * * * * * * * * * * * * * //

dimensions      [0 3 -1 0 0 0 0];

internalField   nonuniform List<scalar> 
25449
(
70.4378
34.102
-8.7978
52.1688
24.9466
-6.67772
38.8466
18.3878
-5.06549
29.0519
13.6398
-3.84512
21.8032
10.1711
-2.9225
16.4108
7.61764
-2.22524
12.3828
5.72633
-1.69831
9.36424
4.3186
-1.30002
7.0964
3.2666
-0.998767
5.38923
2.47778
-0.770603
4.10214
1.88451
-0.597411
3.13064
1.437
-0.465503
2.39676
1.09843
-0.364558
1.84216
0.841431
-0.286825
1.42301
0.645663
-0.226513
1.10633
0.496007
-0.179331
0.867231
0.381216
-0.142115
0.68686
0.292921
-0.112549
0.550919
0.224879
-0.0889381
0.448551
0.172407
-0.0700385
0.371512
0.131954
-0.0549151
0.313547
0.100822
-0.0428569
0.0768658
-0.0332705
0.269952
56.6993
53.9485
42.2263
39.4196
31.5851
29.0289
23.7097
21.5153
17.8506
16.0302
13.4738
11.9944
10.1938
9.00641
7.72935
6.783
5.87412
5.12183
4.4753
3.87659
3.41936
2.94045
2.62154
2.23482
2.0184
1.70157
1.56233
1.2975
1.21751
0.99048
0.956939
0.756578
0.760191
0.577963
0.611786
0.441325
0.499965
0.3367
0.415786
0.256585
0.35246
0.19528
0.304829
0.148453
0.112677
0.269017
44.5641
69.0095
33.4284
50.5552
25.1498
37.3075
18.9691
27.6961
14.3392
20.66
10.862
15.4716
8.24529
11.6232
6.27284
8.75545
4.78416
6.61051
3.65947
5.00129
2.8091
3.79082
2.16578
2.87814
1.67896
2.18839
1.31056
1.6659
1.03188
1.26917
0.821201
0.967252
0.662099
0.737065
0.542084
0.561341
0.451656
0.427128
0.383586
0.324655
0.332378
0.246487
0.293861
0.18697
0.141641
0.264898
34.6372
80.1272
26.2435
58.9489
19.9013
43.6497
15.1066
32.4908
11.4803
24.2864
8.73658
18.2152
6.66001
13.6997
5.08785
10.3276
3.89723
7.80114
2.99531
5.90321
2.31194
4.47419
1.79408
3.39599
1.40166
2.58081
1.10438
1.96319
0.879287
1.49426
0.709016
1.13752
0.580361
0.86572
0.483272
0.65843
0.410093
0.500308
0.354986
0.379762
0.313513
0.287961
0.282303
0.21818
0.165125
0.258819
26.8447
88.0999
20.6245
65.169
15.8089
48.4654
12.1018
36.1979
9.2598
27.1283
7.08758
20.3875
5.43083
15.3565
4.16912
11.5893
3.20929
8.76096
2.47966
6.63284
1.92531
5.02855
1.50429
3.81701
1.18467
2.90043
0.942164
2.2057
0.758313
1.67811
0.619082
1.27675
0.513777
0.971026
0.434237
0.73797
0.374231
0.560314
0.329003
0.42499
0.294932
0.322032
0.269268
0.243844
0.184457
0.249937
20.8723
93.6073
16.3413
69.7001
12.7027
52.104
9.82876
39.0719
7.58422
29.3729
5.84525
22.1264
4.50555
16.6962
3.4776
12.6173
2.69114
9.54742
2.09068
7.23329
1.63291
5.48632
1.28428
4.16564
1.019
3.16571
0.817325
2.40738
0.664154
1.83128
0.547964
1.39294
0.459947
1.05904
0.393361
0.804555
0.343049
0.610626
0.305068
0.462972
0.27641
0.35069
0.254792
0.265461
0.200766
0.238484
16.3652
97.2
13.1316
72.9337
10.3884
54.8471
8.14264
41.3177
6.34521
31.1703
4.92844
23.5432
3.82334
17.8013
2.96765
13.473
2.30854
10.2065
1.80272
7.73911
1.41555
5.87349
1.11974
4.46145
0.894034
3.39141
0.722023
2.57939
0.591086
1.96221
0.491543
1.49249
0.415968
1.13462
0.358666
0.861858
0.315269
0.654024
0.282431
0.495809
0.257599
0.375522
0.238828
0.284232
0.214954
0.22464
12.9943
99.3107
10.7522
75.1758
8.685
56.9143
6.90836
43.0943
5.44167
32.637
4.26134
24.7235
3.32724
18.7354
2.59643
14.2038
2.02925
10.7737
1.59152
8.17684
1.25502
6.20999
0.997025
4.71945
0.799585
3.58885
0.648701
2.73027
0.53354
2.07738
0.44575
1.58028
0.378911
1.20146
0.328082
0.912686
0.289472
0.692634
0.260168
0.525113
0.237945
0.397745
0.221098
0.301079
0.227718
0.208334
10.3404
103.031
7.66867
77.8475
5.7282
58.8547
4.3064
44.5161
3.25679
33.6866
2.47735
25.503
1.89564
19.3171
1.45977
14.6396
1.13214
11.1013
0.885212
8.42377
0.698691
6.39651
0.557521
4.86062
0.450497
3.69588
0.369255
2.81151
0.307532
2.1391
0.260618
1.62719
0.224957
1.23712
0.19785
0.939793
0.177248
0.713236
0.161592
0.54077
0.149693
0.409643
0.140658
0.310114
0.234586
0.13379
7.97153
105.9
5.91492
79.9041
4.42337
60.3463
3.3318
45.6077
2.5267
34.4917
1.92921
26.1005
1.48346
19.7629
1.14951
14.9736
0.898464
11.3524
0.709207
8.61302
0.566175
6.53954
0.457829
4.96896
0.375587
3.77812
0.313047
2.87405
0.265422
2.18672
0.229111
1.6635
0.201403
1.26483
0.18024
0.960956
0.164066
0.729411
0.151698
0.553138
0.142236
0.419104
0.135005
0.317346
0.240117
0.129475
6.13333
108.097
4.55836
81.4791
3.41638
61.4883
2.5808
46.4432
1.96456
35.1079
1.50723
26.5578
1.16596
20.1041
0.910204
15.2293
0.717854
11.5447
0.572748
8.75813
0.462984
6.64931
0.379728
5.05222
0.316411
3.84144
0.268136
2.92233
0.231243
2.22362
0.202985
1.69176
0.181297
1.28652
0.164617
0.977636
0.151766
0.742262
0.141855
0.56305
0.134204
0.426755
0.128306
0.323244
0.244664
0.123759
4.71292
109.766
3.51414
82.6778
2.64338
62.359
2.00532
47.0813
1.53417
35.5791
1.18411
26.9078
0.922615
20.3656
0.726427
15.4255
0.578716
11.6924
0.467147
8.8697
0.382626
6.73383
0.318387
5.11646
0.269396
3.89043
0.231899
2.95982
0.203096
2.25242
0.180886
1.71397
0.163699
1.3037
0.150351
0.990984
0.139955
0.752658
0.131844
0.571161
0.125509
0.43309
0.120572
0.328181
0.24851
0.116726
3.61985
111.018
2.71411
83.5836
2.0529
63.0202
1.56639
47.5678
1.20595
35.9395
0.937388
27.1764
0.736274
20.5668
0.585059
15.5767
0.470978
11.8065
0.384636
8.95604
0.319075
6.79939
0.2691
5.16643
0.230838
3.92869
0.201397
2.98927
0.178621
2.2752
0.1609
1.73169
0.147038
1.31757
0.136137
1.00188
0.12753
0.761264
0.120722
0.57797
0.115332
0.43848
0.111077
0.332436
0.251862
0.107725
2.78805
111.946
2.10888
84.2627
1.60798
63.5211
1.23639
47.9394
0.95928
36.2166
0.751701
27.384
0.595558
20.7229
0.477711
15.6946
0.388511
11.8957
0.320786
9.02377
0.269191
6.85098
0.229702
5.20592
0.199309
3.95908
0.175755
3.01282
0.157365
2.29359
0.142892
1.74616
0.131415
1.32904
0.122253
1.01105
0.114905
0.768613
0.109
0.583875
0.104256
0.443224
0.100461
0.336231
0.254888
0.0974358
2.14561
112.614
1.64443
84.7639
1.26799
63.8976
0.984744
48.2226
0.77115
36.4302
0.609728
27.5454
0.487439
20.8452
0.394602
15.7874
0.323986
11.9663
0.27013
9.07762
0.228915
6.8922
0.197201
5.23764
0.172624
3.98366
0.153406
3.03204
0.138227
2.30877
0.126113
1.75828
0.116351
1.3388
0.108424
1.01897
0.101955
0.775081
0.0966722
0.589158
0.0923643
0.447532
0.0888746
0.33972
0.2577
0.0860621
1.66402
113.08
1.2996
85.1283
1.0172
64.18
0.79973
48.4401
0.632833
36.5971
0.50499
27.6733
0.407118
20.9431
0.332195
15.8623
0.274816
12.0237
0.230795
9.12164
0.196911
6.92608
0.170669
5.26388
0.150168
4.00416
0.13397
3.04824
0.121011
2.32173
0.110508
1.76878
0.101903
1.34741
0.0947949
1.02608
0.0888989
0.780977
0.0840125
0.594044
0.079978
0.451567
0.0766766
0.343022
0.260383
0.0739935
1.30001
113.384
1.04204
85.3863
0.831441
64.3906
0.663291
48.6083
0.530863
36.7296
0.427473
27.7766
0.347184
21.0233
0.285041
15.9245
0.237036
12.0717
0.199937
9.15874
0.171189
6.95483
0.148761
5.28631
0.131085
4.02184
0.116964
3.06236
0.105513
2.33318
0.0960906
1.7782
0.0882453
1.35525
0.0816631
1.03266
0.0761268
0.786514
0.0714848
0.598687
0.0676167
0.455435
0.0644301
0.346208
0.262986
0.0618272
1.02628
113.56
0.851419
85.5612
0.695517
64.5465
0.564082
48.7397
0.456765
36.8369
0.370857
27.8625
0.302935
21.0913
0.24966
15.9778
0.208087
12.1133
0.175696
9.19113
0.150415
6.98011
0.130544
5.30618
0.114748
4.03763
0.101995
3.07511
0.0915252
2.34365
0.0827914
1.78694
0.0754201
1.36263
0.0691594
1.03892
0.0638403
0.791833
0.0593477
0.603179
0.0555858
0.459197
0.0524787
0.349315
0.265527
0.0499379
0.823554
113.633
0.71345
85.6713
0.598836
64.6611
0.494239
48.8443
0.404718
36.9264
0.330846
27.9364
0.271222
21.1509
0.223763
16.0252
0.186328
12.1507
0.15692
9.22054
0.133808
7.00322
0.115519
5.32447
0.100872
4.05228
0.0889428
3.08704
0.0790509
2.35354
0.0707126
1.79527
0.0636069
1.36973
0.0575249
1.04501
0.0523309
0.797027
0.0479336
0.607577
0.044251
0.46288
0.0412152
0.352351
0.268003
0.0387399
0.674926
113.621
0.61557
85.7306
0.532039
64.7446
0.446786
48.9296
0.369518
37.0037
0.303564
28.0024
0.249162
21.2053
0.205217
16.0692
0.170192
12.1858
0.142468
9.24826
0.120549
7.02514
0.103112
5.34191
0.0890708
4.06632
0.077564
3.09855
0.0679586
2.36314
0.0598092
1.80342
0.052829
1.37671
0.0468375
1.051
0.0417205
0.802144
0.0373999
0.611897
0.0337981
0.466481
0.0308469
0.355303
0.270392
0.028457
0.569074
113.541
0.54938
85.7503
0.488862
64.8052
0.417027
49.0014
0.347635
37.0731
0.286348
28.0637
0.23474
21.2569
0.192489
16.1114
0.15851
12.2197
0.131445
9.27533
0.109953
7.04664
0.0927961
5.35906
0.0789392
4.08018
0.0675495
3.10994
0.0580158
2.37268
0.0499115
1.81153
0.0429691
1.38365
0.0370243
1.05694
0.031973
0.807196
0.0277405
0.61613
0.0242446
0.469977
0.0214092
0.358138
0.272664
0.0191374
0.493732
113.403
0.50574
85.7383
0.462463
64.8484
0.399824
49.064
0.335201
37.1377
0.27628
28.1226
0.225755
21.3074
0.18392
16.1533
0.150028
12.2536
0.122906
9.30245
0.101306
7.06824
0.0840358
5.37633
0.0700784
4.09414
0.058606
3.12141
0.0490116
2.38227
0.0408737
1.81967
0.0339326
1.3906
0.0280303
1.06285
0.0230634
0.812163
0.0189515
0.620242
0.0155998
0.473329
0.0129185
0.360819
0.274784
0.0107991
0.441691
113.216
0.479344
85.7006
0.448916
64.8789
0.392256
49.1207
0.330023
37.1999
0.271698
28.1809
0.220934
21.3582
0.178529
16.1957
0.143991
12.2882
0.116268
9.33017
0.0941606
7.09034
0.0764881
5.394
0.0622259
4.1084
0.0505339
3.1331
0.0407955
2.39201
0.0325827
1.82788
0.0256348
1.39754
0.0197904
1.06869
0.0149385
0.817015
0.0109843
0.624196
0.00781544
0.476498
0.00532434
0.363311
0.276715
0.00339288
-0.126608
113.167
-0.0904859
85.6645
-0.0634828
64.8519
-0.0431756
49.1004
-0.0278985
37.1846
-0.016415
28.1694
-0.00783221
21.3496
-0.00147967
16.1893
0.00315387
12.2835
0.00643627
9.32689
0.00861848
7.08816
0.00984586
5.39278
0.0102118
4.10803
0.00979281
3.13352
0.00870365
2.3931
0.0071068
1.82948
0.00521563
1.39943
0.00324809
1.07066
0.00138746
0.818876
-0.000243076
0.625827
-0.00159574
0.477851
-0.00266765
0.364383
0.277542
-0.00349447
-0.124959
113.122
-0.0920017
85.6316
-0.0673382
64.8272
-0.0487681
49.0818
-0.0347825
37.1707
-0.0242592
28.1589
-0.0163905
21.3417
-0.0105669
16.1835
-0.00632026
12.2793
-0.0033088
9.32388
-0.0012964
7.08615
-0.000142412
5.39162
0.000247525
4.10764
-4.49086e-05
3.13381
-0.000900514
2.39396
-0.0021561
1.83073
-0.00360868
1.40089
-0.00506163
1.07211
-0.00636676
0.820181
-0.00744082
0.626901
-0.00826938
0.478679
-0.00887519
0.364989
0.277973
-0.00930522
-0.123108
113.081
-0.0930144
85.6015
-0.0704645
64.8046
-0.0534614
49.0648
-0.0406394
37.1578
-0.0309799
28.1492
-0.0237518
21.3345
-0.0184004
16.1781
-0.0144954
12.2754
-0.0117176
9.3211
-0.00984278
7.08427
-0.00873201
5.39051
-0.00828777
4.1072
-0.00842141
3.13395
-0.00900988
2.39454
-0.00989192
1.83161
-0.0108809
1.40188
-0.0118079
1.07304
-0.0125642
0.820937
-0.0131065
0.627443
-0.0134487
0.479022
-0.0136327
0.365173
0.278051
-0.0137104
-0.121119
113.044
-0.0936368
85.574
-0.0730126
64.784
-0.0574357
49.0492
-0.0456709
37.1461
-0.0367949
28.1404
-0.0301461
21.3279
-0.0252194
16.1732
-0.0216188
12.2718
-0.0190443
9.31853
-0.0172807
7.08251
-0.0161886
5.38942
-0.0156651
4.10668
-0.0156135
3.13389
-0.015908
2.39484
-0.0163932
1.8321
-0.0169048
1.40239
-0.017308
1.07344
-0.0175354
0.821165
-0.0175814
0.627489
-0.017483
0.478923
-0.0172949
0.364985
0.277826
-0.0170699
-0.119034
113.01
-0.0939502
85.5489
-0.0750925
64.7652
-0.060822
49.035
-0.0500243
37.1353
-0.0418634
28.1322
-0.0357419
21.3217
-0.0311998
16.1687
-0.027872
12.2685
-0.0254751
9.31613
-0.0238008
7.08084
-0.0227067
5.38833
-0.0220831
4.10605
-0.0218249
3.13364
-0.0218051
2.39482
-0.0218787
1.83217
-0.0219098
1.40242
-0.0218022
1.07333
-0.0215302
0.820893
-0.0211222
0.627081
-0.0206327
0.478434
-0.0201232
0.364475
0.277345
-0.0196422
-0.116885
112.979
-0.0940152
85.526
-0.0767869
64.7479
-0.0637197
49.0219
-0.0538115
37.1254
-0.0463069
28.1247
-0.0406678
21.3161
-0.0364758
16.1645
-0.0333938
12.2654
-0.0311526
9.31389
-0.0295488
7.07923
-0.0284352
5.38721
-0.0276942
4.10531
-0.0272124
3.13315
-0.026864
2.39447
-0.0265194
1.83183
-0.0260757
1.40198
-0.0254788
1.07274
-0.0247432
0.820157
-0.0239266
0.626264
-0.0230947
0.477602
-0.0223108
0.363691
0.27665
-0.0216153
-0.114696
112.95
-0.0938787
85.5052
-0.078159
64.7322
-0.0662049
49.0099
-0.0571183
37.1163
-0.0502189
28.1178
-0.0450231
21.3109
-0.0411511
16.1606
-0.0382912
12.2625
-0.0361867
9.31179
-0.0346371
7.07768
-0.0334893
5.38607
-0.0326169
4.10444
-0.0318989
3.13244
-0.0312135
2.39379
-0.030451
1.83107
-0.0295457
1.40107
-0.0284872
1.07168
-0.0273273
0.818997
-0.0261471
0.625084
-0.0250186
0.476473
-0.0240024
0.362675
0.275776
-0.0231286
-0.112485
112.925
-0.093577
85.4863
-0.0792597
64.7179
-0.0683391
48.999
-0.0600143
37.108
-0.0536748
28.1115
-0.0488879
21.3061
-0.0453094
16.157
-0.042651
12.2599
-0.0406667
9.3098
-0.0391575
7.07618
-0.0379631
5.38487
-0.0369483
4.10342
-0.0359855
3.13147
-0.03496
2.39276
-0.0337863
1.82989
-0.0324385
1.39972
-0.0309501
1.07019
-0.0294062
0.817454
-0.0279056
0.623583
-0.0265222
0.47509
-0.0253105
0.361463
0.274755
-0.0242892
-0.110266
112.902
-0.0931402
85.4692
-0.0801306
64.7049
-0.0701722
48.9891
-0.0625559
37.1003
-0.0567362
28.1056
-0.0523277
21.3017
-0.0490193
16.1537
-0.0465442
12.2574
-0.0446656
9.30792
-0.0431849
7.07469
-0.0419338
5.38362
-0.0407682
4.10226
-0.0395559
3.13026
-0.0381921
2.3914
-0.0366193
1.82832
-0.0348529
1.39796
-0.0329685
1.06831
-0.0310804
0.815566
-0.0292996
0.621803
-0.0276985
0.473489
-0.0263232
0.360088
0.273612
-0.0251801
-0.108052
112.881
-0.0925928
85.4537
-0.0808054
64.6931
-0.0717459
48.98
-0.0647905
37.0934
-0.0594547
28.1003
-0.0553973
21.2977
-0.0523381
16.1507
-0.0500301
12.2551
-0.0482446
9.30614
-0.046782
7.07323
-0.045466
5.38231
-0.0441442
4.10094
-0.0426814
3.1288
-0.0409857
2.3897
-0.0390302
1.82636
-0.0368722
1.3958
-0.0346268
1.06606
-0.0324327
0.813372
-0.0304084
0.619778
-0.0286221
0.471703
-0.02711
0.358576
0.272369
-0.0258666
-0.105852
112.862
-0.091956
85.4398
-0.081314
64.6825
-0.0730963
48.9718
-0.066759
37.0871
-0.061875
28.0954
-0.0581443
21.2939
-0.0553158
16.1478
-0.0531605
12.2529
-0.0514567
9.30443
-0.0500037
7.07178
-0.0486165
5.38092
-0.0471355
4.09946
-0.0454245
3.12709
-0.0434073
2.38768
-0.0410896
1.82405
-0.0385694
1.39328
-0.0359979
1.06349
-0.0335338
0.810907
-0.0312989
0.617543
-0.0293553
0.469759
-0.0277291
0.35695
0.271042
-0.0264029
-0.103673
112.846
-0.0912476
85.4274
-0.0816823
64.6729
-0.0742547
48.9644
-0.0684971
37.0813
-0.0640359
28.091
-0.06061
21.2905
-0.0579955
16.1452
-0.0559801
12.2509
-0.0543485
9.3028
-0.0528976
7.07033
-0.0514348
5.37946
-0.0497939
4.09782
-0.0478405
3.12514
-0.0455157
2.38536
-0.0428591
1.82139
-0.0400077
1.39043
-0.0371445
1.06063
-0.0344435
0.808206
-0.0320271
0.615127
-0.0299502
0.467682
-0.0282284
0.355228
0.269647
-0.0268334
-0.101523
112.831
-0.0904837
85.4164
-0.0819325
64.6643
-0.0752486
48.9577
-0.070036
37.0761
-0.0659718
28.0869
-0.0628311
21.2874
-0.0604155
16.1428
-0.0585288
12.249
-0.0569606
9.30123
-0.0555061
7.06887
-0.0539647
5.37791
-0.0521659
4.09602
-0.0499783
3.12295
-0.0473633
2.38274
-0.0443938
1.81842
-0.0412429
1.38728
-0.0381211
1.0575
-0.0352138
0.805299
-0.0326414
0.612555
-0.0304514
0.465492
-0.028649
0.353426
0.268194
-0.0271961
-0.0994081
112.818
-0.0896785
85.4066
-0.0820851
64.6568
-0.0761033
48.9517
-0.0714047
37.0714
-0.0677141
28.0832
-0.0648411
21.2845
-0.0626112
16.1406
-0.060843
12.2473
-0.059331
9.29972
-0.0578682
7.06741
-0.056247
5.37629
-0.0542941
4.09406
-0.0518837
3.12054
-0.0489984
2.37986
-0.0457437
1.81516
-0.0423257
1.38386
-0.0389773
1.05416
-0.0358915
0.802213
-0.0331855
0.609849
-0.0308992
0.463206
-0.0290286
0.351555
0.266692
-0.0275267
-0.097333
112.807
-0.0888447
85.3982
-0.0821585
64.6501
-0.0768415
48.9464
-0.072629
37.0672
-0.0692912
28.0799
-0.0666701
21.2819
-0.064614
16.1385
-0.0629554
12.2456
-0.0614933
9.29826
-0.0600188
7.06594
-0.0583182
5.37459
-0.0562171
4.09196
-0.0535975
3.11792
-0.0504643
2.37673
-0.046954
1.81165
-0.0433012
1.38021
-0.0397567
1.05061
-0.0365183
0.798975
-0.0336985
0.607029
-0.0313305
0.460838
-0.0294019
0.349627
0.265149
-0.0278582
-0.0953032
112.798
-0.0879948
85.3908
-0.0821706
64.6442
-0.0774847
48.9417
-0.0737336
37.0634
-0.07073
28.0769
-0.0683469
21.2795
-0.0664542
16.1366
-0.0648975
12.244
-0.0634801
9.29684
-0.0619916
7.06445
-0.0602132
5.37281
-0.0579716
4.08972
-0.0551586
3.1151
-0.0518021
2.37337
-0.048067
1.80792
-0.044212
1.37635
-0.0405012
1.0469
-0.0371341
0.795608
-0.0342185
0.604113
-0.0317815
0.458401
-0.0298034
0.347648
0.263569
-0.0282236
-0.093323
112.79
-0.0871393
85.3847
-0.082137
64.6392
-0.0780525
48.9376
-0.0747408
37.0601
-0.0720551
28.0742
-0.0698976
21.2773
-0.0681591
16.1349
-0.0666976
12.2426
-0.0653207
9.29547
-0.0638169
7.06295
-0.0619638
5.37096
-0.0595913
4.08735
-0.0566025
3.11212
-0.0530488
2.36982
-0.0491208
1.80399
-0.0450965
1.37233
-0.0412484
1.04305
-0.0377757
0.792135
-0.034781
0.601119
-0.0322862
0.455906
-0.0302656
0.345628
0.261957
-0.0286539
-0.0913962
112.784
-0.0862893
85.3796
-0.0820729
64.635
-0.0785639
48.9341
-0.0756722
37.0572
-0.07329
28.0718
-0.0713475
21.2754
-0.0697551
16.1333
-0.0683831
12.2412
-0.0670435
9.29413
-0.0655241
7.06143
-0.0636005
5.36904
-0.061108
4.08486
-0.0579628
3.10897
-0.0542397
2.36609
-0.0501515
1.7999
-0.0459909
1.36817
-0.0420344
1.0391
-0.0384786
0.788579
-0.0354208
0.598061
-0.0328786
0.453364
-0.0308218
0.343571
0.260317
-0.029182
-0.0895272
112.779
-0.085454
85.3755
-0.0819931
64.6316
-0.0790365
48.9312
-0.0765481
37.0547
-0.074457
28.0697
-0.0727202
21.2736
-0.0712672
16.1318
-0.0699801
12.2399
-0.0686752
9.29282
-0.0671409
7.05989
-0.0651521
5.36705
-0.0625519
4.08226
-0.0592708
3.10569
-0.0554071
2.36223
-0.0511923
1.79569
-0.0469292
1.3639
-0.0428934
1.03506
-0.0392767
0.784962
-0.0361717
0.594956
-0.0335925
0.450785
-0.0315056
0.341484
0.258653
-0.0298412
-0.0877195
112.775
-0.0846438
85.3724
-0.0819109
64.6288
-0.0794876
48.9287
-0.0773881
37.0526
-0.0755776
28.0679
-0.0740388
21.2721
-0.0727193
16.1305
-0.0715133
12.2387
-0.0702417
9.29155
-0.0686939
7.05834
-0.0666462
5.365
-0.0639515
4.07956
-0.0605562
3.10229
-0.0565818
2.35825
-0.0522746
1.79138
-0.047943
1.35957
-0.0438577
1.03097
-0.0402033
0.781308
-0.0370675
0.59182
-0.0344622
0.448179
-0.0323519
0.339374
0.256967
-0.0306665
-0.0859763
112.773
-0.0838665
85.3703
-0.0818396
64.6268
-0.0799329
48.9268
-0.0782104
37.0509
-0.0766718
28.0664
-0.0753244
21.2708
-0.074134
16.1293
-0.0730061
12.2376
-0.0717669
9.29031
-0.070208
7.05679
-0.0681084
5.3629
-0.0653334
4.07679
-0.0618463
3.09881
-0.0577913
2.3542
-0.0534263
1.78702
-0.049061
1.35521
-0.0449574
1.02687
-0.0412902
0.777641
-0.038142
0.588672
-0.0355235
0.445561
-0.0333983
0.337248
0.255267
-0.0316976
-0.0843015
112.772
-0.0831318
85.3691
-0.0817921
64.6255
-0.0803886
48.9254
-0.0790334
37.0496
-0.0777596
28.0651
-0.0765986
21.2696
-0.0755336
16.1283
-0.0744818
12.2365
-0.0732749
9.2891
-0.0717078
7.05522
-0.0695643
5.36076
-0.0667238
4.07395
-0.0631676
3.09525
-0.0590626
2.35009
-0.0546747
1.78263
-0.0503112
1.35084
-0.0462222
1.02278
-0.0425699
0.773988
-0.0394318
0.585534
-0.0368169
0.442946
-0.0346895
0.335121
0.25356
-0.0329827
-0.0826981
112.773
-0.0824475
85.3689
-0.08178
64.6248
-0.0808695
48.9245
-0.0798741
37.0486
-0.0788597
28.0641
-0.0778812
21.2686
-0.0769391
16.1273
-0.0759622
12.2356
-0.0747882
9.28793
-0.0732165
7.05365
-0.0710374
5.35858
-0.0681465
4.07106
-0.0645444
3.09165
-0.0604196
2.34597
-0.0560439
1.77825
-0.0517184
1.34652
-0.0476799
1.01874
-0.044074
0.770382
-0.0409735
0.582433
-0.0383848
0.440357
-0.0362721
0.333008
0.25186
-0.0345724
-0.0811693
112.774
-0.081822
85.3695
-0.0818158
64.6248
-0.0813903
48.9241
-0.0807492
37.0479
-0.0799904
28.0633
-0.0791918
21.2678
-0.078371
16.1265
-0.0774683
12.2347
-0.0763285
9.28679
-0.0747563
7.05207
-0.0725505
5.35637
-0.0696246
4.06813
-0.0659994
3.08802
-0.0618843
2.34185
-0.0575563
1.77392
-0.0533047
1.34226
-0.0493556
1.01479
-0.0458314
0.766858
-0.042801
0.579403
-0.0402671
0.437823
-0.0381916
0.330932
0.250184
-0.0365163
-0.0797176
112.777
-0.0812626
85.3711
-0.0819096
64.6254
-0.081964
48.9241
-0.0816738
37.0476
-0.0811685
28.0628
-0.0805485
21.2672
-0.0798485
16.1258
-0.0790205
12.2338
-0.0779169
9.28569
-0.0763489
7.05051
-0.0741257
5.35415
-0.07118
4.06518
-0.0675546
3.0844
-0.0634776
2.33778
-0.0592328
1.76968
-0.0550908
1.33812
-0.051273
1.01098
-0.0478703
0.763455
-0.0449459
0.576478
-0.0425014
0.435379
-0.0404944
0.328925
0.248556
-0.0388664
-0.0755073
112.778
-0.0759432
85.3715
-0.0761519
64.6256
-0.0761158
48.9241
-0.0759017
37.0474
-0.0755404
28.0625
-0.0750791
21.2667
-0.0745287
16.1252
-0.0738374
12.2331
-0.0728688
9.28472
-0.071451
7.04909
-0.069418
5.35212
-0.0667224
4.06249
-0.0634242
3.0811
-0.0597449
2.3341
-0.0559552
1.76589
-0.0522795
1.33445
-0.0489251
1.00762
-0.045947
0.760477
-0.0433866
0.573918
-0.0412533
0.433245
-0.0395059
0.327178
0.247133
-0.0380828
-0.0603155
112.779
-0.0608926
85.3721
-0.061234
64.626
-0.0613363
48.9242
-0.061262
37.0474
-0.0610421
28.0622
-0.0607193
21.2664
-0.0603073
16.1248
-0.0597684
12.2326
-0.0589977
9.28395
-0.0578603
7.04795
-0.0562324
5.35049
-0.0540844
4.06034
-0.0514811
3.0785
-0.0486024
2.33122
-0.0456733
1.76296
-0.0428525
1.33163
-0.0403025
1.00507
-0.0380641
0.758239
-0.0361369
0.571991
-0.0345361
0.431645
-0.0332361
0.325878
0.24608
-0.0321825
-0.0481445
112.779
-0.0487597
85.3727
-0.0491511
64.6264
-0.0493218
48.9244
-0.0493282
37.0474
-0.049199
28.0621
-0.0489721
21.2662
-0.0486615
16.1245
-0.0482403
12.2322
-0.0476278
9.28334
-0.0467184
7.04704
-0.0454192
5.34919
-0.0437118
4.05863
-0.0416592
3.07644
-0.0394055
2.32896
-0.0371365
1.76069
-0.0349681
1.32946
-0.0330183
1.00312
-0.0313355
0.756556
-0.0298861
0.570541
-0.0286812
0.43044
-0.0277132
0.32491
0.245303
-0.0269371
-0.0383943
112.78
-0.0389814
85.3733
-0.039368
64.6268
-0.03956
48.9246
-0.0396063
37.0474
-0.0395323
28.062
-0.03937
21.266
-0.039133
16.1243
-0.0388021
12.2318
-0.0383152
9.28285
-0.0375896
7.04632
-0.0365554
5.34816
-0.0352008
4.05728
-0.0335838
3.07483
-0.0318189
2.3272
-0.0300571
1.75893
-0.0283883
1.32779
-0.0268899
1.00162
-0.0256183
0.755284
-0.0245297
0.569453
-0.0236214
0.429531
-0.0228964
0.324185
0.244729
-0.0223221
-0.0305947
112.781
-0.0311216
85.3738
-0.0314757
64.6271
-0.0316634
48.9248
-0.0317257
37.0475
-0.0316844
28.062
-0.0315661
21.2659
-0.0313832
16.1241
-0.0311218
12.2316
-0.0307345
9.28246
-0.0301561
7.04574
-0.0293341
5.34733
-0.0282605
4.0562
-0.0269865
3.07355
-0.0256034
2.32582
-0.0242313
1.75756
-0.0229438
1.3265
-0.0217889
1.00047
-0.0208183
0.754313
-0.019999
0.568633
-0.0193144
0.428847
-0.0187679
0.323638
0.244301
-0.0183397
-0.0243424
112.781
-0.0247808
85.3743
-0.0250781
64.6274
-0.0252392
48.9249
-0.0252973
37.0475
-0.0252699
28.062
-0.0251784
21.2658
-0.0250333
16.124
-0.0248245
12.2314
-0.0245153
9.28215
-0.0240548
7.04528
-0.023403
5.34668
-0.0225547
4.05536
-0.0215532
3.07255
-0.0204715
2.32473
-0.019403
1.75649
-0.0184095
1.32551
-0.0175211
0.99958
-0.0167746
0.753567
-0.0161558
0.568014
-0.0156427
0.428334
-0.0152317
0.323227
0.243981
-0.0149118
-0.0194563
112.782
-0.0198873
85.3747
-0.0201866
64.6277
-0.020362
48.9251
-0.020443
37.0476
-0.0204459
28.062
-0.0203896
21.2658
-0.0202842
16.1239
-0.0201233
12.2312
-0.0198788
9.28191
-0.0195108
7.04491
-0.0189884
5.34616
-0.0183083
4.05468
-0.0175073
3.07175
-0.0166454
2.32387
-0.0157961
1.75564
-0.0150119
1.32472
-0.0143146
0.998883
-0.0137261
0.752978
-0.0132449
0.567533
-0.012851
0.42794
-0.0125354
0.322912
0.243737
-0.0122919
-0.0153796
112.782
-0.0156586
85.375
-0.0158495
64.6279
-0.0159537
48.9252
-0.0159919
37.0477
-0.0159747
28.062
-0.0159153
21.2657
-0.0158206
16.1238
-0.0156852
12.2311
-0.0154871
9.28171
-0.0151952
7.04462
-0.0147859
5.34575
-0.0142568
4.05415
-0.0136368
3.07113
-0.0129736
2.32321
-0.0123217
1.75499
-0.0117235
1.32413
-0.0111966
0.998356
-0.0107481
0.75253
-0.0103838
0.567169
-0.010093
0.427649
-0.00986243
0.322681
0.243561
-0.00968569
-0.00935011
112.778
-0.00578729
85.3714
-0.00285249
64.625
-0.000422808
48.9228
0.00159069
37.0456
0.00327107
28.0603
0.00468392
21.2643
0.0058854
16.1226
0.00693057
12.23
0.00787934
9.28076
0.00879065
7.04371
0.00970681
5.34483
0.010639
4.05321
0.0115633
3.07021
0.0124404
2.32233
0.0132242
1.7542
0.0138895
1.32346
0.0144404
0.997805
0.0148791
0.752091
0.0152102
0.566838
0.0154715
0.427388
0.0156773
0.322476
0.243414
0.0158244
-0.00982073
112.773
-0.00607976
85.3677
-0.00299896
64.6219
-0.00044836
48.9202
0.00166563
37.0435
0.00343054
28.0585
0.00491546
21.2628
0.00617925
16.1213
0.00727922
12.2289
0.00827748
9.27976
0.00923517
7.04275
0.0101958
5.34387
0.0111706
4.05224
0.0121336
3.06924
0.013044
2.32142
0.0138543
1.75339
0.0145378
1.32278
0.0150998
0.997243
0.0155484
0.751643
0.0158824
0.566504
0.016142
0.427128
0.0163487
0.322269
0.243262
0.0165005
-0.0103152
112.769
-0.00638714
85.3637
-0.00315291
64.6187
-0.000475444
48.9175
0.00174399
37.0413
0.00359759
28.0567
0.0051582
21.2613
0.0064875
16.12
0.00764504
12.2278
0.00869536
9.27871
0.00970172
7.04174
0.0107089
5.34287
0.0117279
4.05122
0.0127306
3.06824
0.0136747
2.32048
0.0145117
1.75256
0.0152131
1.32208
0.0157852
0.99667
0.016242
0.751186
0.0165794
0.566166
0.0168365
0.426871
0.017042
0.322063
0.243108
0.0171962
-0.0108346
112.764
-0.00670988
85.3596
-0.00331465
64.6153
-0.000504142
48.9147
0.00182595
37.039
0.00377264
28.0547
0.00541275
21.2596
0.00681087
16.1186
0.008029
12.2266
0.00913406
9.27761
0.0101915
7.04069
0.0112473
5.34181
0.0123123
4.05016
0.013356
3.0672
0.0143342
2.3195
0.0151979
1.75169
0.0159169
1.32136
0.0164979
0.996089
0.0169605
0.750723
0.0173013
0.565825
0.0175553
0.426617
0.0177568
0.321862
0.242955
0.0179094
-0.0113798
112.758
-0.007049
85.3553
-0.00348487
64.6117
-0.000534542
48.9118
0.00191167
37.0365
0.0039561
28.0527
0.00567968
21.2579
0.00715015
16.1171
0.00843203
12.2253
0.00959472
9.27644
0.0107059
7.03957
0.0118126
5.3407
0.0129253
4.04904
0.0140112
3.06611
0.015024
2.31849
0.0159143
1.7508
0.0166505
1.32062
0.0172393
0.995501
0.0177052
0.750257
0.0180481
0.565482
0.0182983
0.426367
0.018493
0.321667
0.242808
0.0186401
-0.0119529
112.753
-0.00740526
85.3507
-0.00366369
64.608
-0.000566715
48.9087
0.00200135
37.034
0.00414835
28.0505
0.0059596
21.2561
0.00750614
16.1155
0.00885512
12.2239
0.0100785
9.27522
0.0112461
7.03841
0.0124061
5.33954
0.0135685
4.04788
0.0146981
3.06498
0.015746
2.31744
0.0166628
1.74989
0.0174158
1.31987
0.0180115
0.994905
0.0184781
0.749791
0.0188213
0.565139
0.0190667
0.426121
0.0192527
0.321481
0.242669
0.0193918
-0.0125543
112.747
-0.00777947
85.346
-0.00385178
64.604
-0.000600778
48.9054
0.0020952
37.0313
0.00434983
28.0483
0.00625315
21.2542
0.00787969
16.1139
0.00929928
12.2225
0.0105866
9.27393
0.0118136
7.03718
0.0130295
5.33833
0.0142436
4.04667
0.0154182
3.06381
0.0165019
2.31635
0.0174453
1.74894
0.0182149
1.3191
0.0188166
0.994303
0.0192817
0.749325
0.0196231
0.564798
0.0198631
0.425881
0.0200394
0.321305
0.242539
0.0201686
-0.0131863
112.741
-0.00817255
85.341
-0.00404921
64.5999
-0.000636832
48.902
0.00219336
37.0284
0.00456101
28.0459
0.00656106
21.2522
0.00827169
16.1122
0.00976566
12.221
0.0111202
9.27258
0.0124097
7.03589
0.0136841
5.33705
0.014952
4.0454
0.0161732
3.06259
0.0172934
2.31523
0.0182635
1.74797
0.0190493
1.31831
0.0196565
0.993696
0.0201187
0.748863
0.0204562
0.56446
0.0206903
0.425647
0.0208562
0.321139
0.242422
0.0209741
-0.0138498
112.735
-0.00858546
85.3357
-0.00425694
64.5956
-0.000674948
48.8984
0.00229611
37.0255
0.0047824
28.0434
0.00688404
21.2501
0.00868311
16.1104
0.0102554
12.2194
0.0116808
9.27115
0.013036
7.03453
0.0143716
5.33572
0.0156953
4.04407
0.0169644
3.06132
0.0181218
2.31408
0.0191186
1.74697
0.0199204
1.31751
0.0205327
0.993083
0.0209911
0.748405
0.021323
0.564128
0.0215504
0.42542
0.0217057
0.320983
0.242316
0.021811
-0.0145467
112.728
-0.00901912
85.3302
-0.00447518
64.591
-0.000715259
48.8947
0.00240363
37.0224
0.00501443
28.0408
0.0072228
21.2479
0.00911487
16.1085
0.0107695
12.2178
0.0122696
9.26965
0.0136937
7.03311
0.0150932
5.33432
0.0164748
4.04269
0.0177931
3.06
0.0189882
2.31288
0.0200114
1.74595
0.0208287
1.31669
0.0214459
0.992466
0.0219
0.747951
0.0222246
0.563804
0.0224442
0.4252
0.0225889
0.320839
0.242223
0.0226818
-0.0152786
112.721
-0.00947449
85.3244
-0.00470471
64.5863
-0.000757887
48.8907
0.00251618
37.0191
0.00525771
28.0381
0.00757815
21.2455
0.009568
16.1065
0.0113094
12.216
0.0128878
9.26808
0.0143843
7.03161
0.0158505
5.33285
0.0172918
4.04125
0.0186603
3.05863
0.0198933
2.31165
0.0209422
1.7449
0.0217744
1.31586
0.022396
0.991845
0.0228452
0.747501
0.0231613
0.563487
0.0233718
0.424989
0.0235059
0.320705
0.242142
0.0235876
-0.0160474
112.714
-0.00995298
85.3183
-0.00494559
64.5813
-0.000802943
48.8866
0.00263398
37.0156
0.00551273
28.0352
0.00795092
21.2431
0.0100436
16.1044
0.0118761
12.2142
0.013537
9.26641
0.0151092
7.03004
0.0166447
5.33132
0.0181476
4.03975
0.0195669
3.05721
0.0208376
2.31038
0.0219112
1.74383
0.022757
1.31501
0.0233824
0.991219
0.023826
0.747058
0.0241321
0.563181
0.0243322
0.424789
0.0244558
0.320581
0.24207
0.024528
-0.0168546
112.706
-0.0104556
85.3119
-0.00519907
64.576
-0.000850522
48.8823
0.00275732
37.012
0.00578009
28.0322
0.00834191
21.2405
0.0105426
16.1022
0.012471
12.2123
0.0142185
9.26467
0.01587
7.02839
0.0174775
5.32971
0.0190434
4.03818
0.0205141
3.05574
0.0218219
2.30907
0.0229187
1.74273
0.0237764
1.31416
0.0244041
0.990591
0.0248413
0.74662
0.025136
0.562887
0.0253246
0.424601
0.0254378
0.320468
0.242005
0.0255019
-0.0177023
112.698
-0.0109832
85.3052
-0.00546523
64.5705
-0.000900789
48.8777
0.00288642
37.0083
0.0060604
28.029
0.00875204