/*--------------------------------*- C++ -*----------------------------------*\
  =========                 |
  \\      /  F ield         | OpenFOAM: The Open Source CFD Toolbox
   \\    /   O peration     | Website:  https://openfoam.org
    \\  /    A nd           | Version:  7
     \\/     M anipulation  |
\*---------------------------------------------------------------------------*/
FoamFile
{
    version     2.0;
    format      ascii;
    class       volVectorField;
    location    "50";
    object      U;
}
// * * * * * * * * * * * * * * * * * * * * * * * * * * * * * * * * * * * * * //

dimensions      [0 1 -1 0 0 0 0];

internalField   nonuniform List<vector> 
12842
(
(15.5987 0.81797 4.62386e-19)
(15.5996 0.82125 2.12938e-19)
(15.6004 0.823889 6.49347e-20)
(15.6012 0.827464 -1.64697e-19)
(15.6018 0.832705 6.68383e-19)
(15.6019 0.840275 0)
(15.601 0.850965 0)
(15.5985 0.865728 3.465e-20)
(15.5935 0.885661 -3.29332e-19)
(15.5847 0.911948 -5.10698e-21)
(15.5705 0.945782 -6.40781e-20)
(15.5488 0.988223 -1.442e-20)
(15.5174 1.04001 4.29329e-20)
(15.4741 1.10132 3.50138e-20)
(15.4173 1.1716 -4.66934e-20)
(15.3462 1.24945 -1.47771e-19)
(15.2617 1.33263 -1.49592e-19)
(15.166 1.41822 0)
(15.0628 1.50298 1.66204e-20)
(14.9567 1.58379 1.18309e-19)
(14.8527 1.65794 1.66895e-20)
(14.7544 1.72409 -8.03012e-20)
(14.6662 1.77936 5.94179e-20)
(15.5989 0.817863 -3.66461e-19)
(15.6005 0.820543 0)
(15.602 0.822933 7.87224e-19)
(15.6039 0.826372 -4.87364e-19)
(15.606 0.831599 -5.26361e-19)
(15.6082 0.839345 0)
(15.61 0.850521 8.59895e-19)
(15.6109 0.86625 0)
(15.6102 0.887848 6.40405e-19)
(15.6064 0.916773 6.43394e-20)
(15.5982 0.954518 1.31299e-19)
(15.5832 1.00242 2.09769e-19)
(15.5592 1.0614 -4.03364e-20)
(15.5235 1.13163 4.1818e-21)
(15.4742 1.21225 0)
(15.4101 1.30132 1.51681e-19)
(15.3314 1.39582 2.11457e-19)
(15.2401 1.49197 -2.64644e-19)
(15.1399 1.58577 0)
(15.0352 1.67365 -1.46667e-19)
(14.9314 1.75257 -2.30674e-19)
(14.8325 1.82184 2.10902e-19)
(14.7433 1.87688 -2.19127e-19)
(15.5992 0.817683 0)
(15.6013 0.819697 0)
(15.6034 0.821749 1.52314e-19)
(15.6062 0.8249 2.74814e-18)
(15.6097 0.829891 0)
(15.6137 0.837515 0)
(15.6181 0.84879 2.38751e-19)
(15.6223 0.864991 -8.28789e-19)
(15.6257 0.887625 -3.07766e-19)
(15.627 0.918395 -2.73705e-19)
(15.6247 0.959076 -4.85468e-19)
(15.6166 1.01129 -2.01953e-19)
(15.6001 1.07619 -2.7155e-20)
(15.5724 1.15399 3.12478e-20)
(15.5309 1.24369 0)
(15.4742 1.34293 -4.04928e-20)
(15.4019 1.44806 5.1781e-20)
(15.3158 1.55456 1.65357e-19)
(15.2195 1.65772 1.98905e-19)
(15.1174 1.7535 -1.70125e-19)
(15.0152 1.83849 1.67827e-19)
(14.917 1.91249 0)
(14.8283 1.96923 7.9258e-20)
(15.5995 0.817418 -1.28403e-19)
(15.6018 0.818761 3.76421e-19)
(15.6043 0.820421 -1.15303e-18)
(15.608 0.823166 -4.34138e-18)
(15.6127 0.82774 3.90598e-19)
(15.6185 0.834982 -1.3407e-18)
(15.6252 0.846012 -5.47628e-20)
(15.6326 0.862239 8.07951e-19)
(15.6399 0.885344 1.33231e-18)
(15.6462 0.91725 -7.52995e-19)
(15.6498 0.960004 1.22203e-18)
(15.6486 1.01553 -1.12456e-19)
(15.6399 1.08521 1.46492e-19)
(15.6205 1.16942 4.29889e-19)
(15.5874 1.26706 -2.06377e-20)
(15.5387 1.37548 2.65479e-20)
(15.4737 1.49051 -2.00639e-20)
(15.3939 1.60701 -6.10402e-20)
(15.3026 1.71963 -8.15234e-20)
(15.2044 1.82388 -4.13399e-21)
(15.1051 1.91588 -6.30993e-20)
(15.009 1.99588 -8.61561e-20)
(14.9221 2.05591 1.68688e-19)
(15.5997 0.817074 -1.29556e-18)
(15.602 0.817811 0)
(15.605 0.819055 1.9142e-19)
(15.6093 0.821303 1.53985e-18)
(15.6151 0.825303 1.56769e-19)
(15.6225 0.831933 3.59575e-18)
(15.6314 0.842403 1.80429e-19)
(15.6417 0.858246 -2.24943e-18)
(15.6528 0.881293 -1.47876e-18)
(15.6638 0.913674 9.33056e-19)
(15.6734 0.957697 -1.42435e-18)
(15.6792 1.01559 -9.95175e-19)
(15.6785 1.08903 2.02912e-19)
(15.6679 1.17857 -1.04125e-18)
(15.6439 1.28314 -3.80284e-19)
(15.6041 1.39987 2.09076e-19)
(15.5475 1.52415 0)
(15.4751 1.65033 3.57885e-20)
(15.3901 1.77244 0)
(15.2972 1.88557 5.67748e-20)
(15.2021 1.98533 -1.0542e-20)
(15.1092 2.0723 6.37415e-20)
(15.0249 2.13678 -2.16393e-20)
(15.6 0.816669 1.14946e-18)
(15.6021 0.816901 0)
(15.6054 0.817734 0)
(15.6102 0.819418 2.47854e-18)
(15.6169 0.822724 -1.86476e-18)
(15.6257 0.828545 -2.08681e-18)
(15.6365 0.838176 -3.11748e-18)
(15.6495 0.853252 2.47324e-18)
(15.6642 0.87573 0)
(15.6798 0.907923 1.2881e-18)
(15.6951 0.952385 1.32546e-18)
(15.708 1.01166 4.95726e-19)
(15.7156 1.08775 0)
(15.7141 1.18145 6.07475e-19)
(15.6999 1.29181 3.18451e-19)
(15.67 1.41583 -1.36232e-19)
(15.6228 1.54861 -2.71514e-20)
(15.5592 1.68404 2.11602e-19)
(15.4819 1.81559 0)
(15.3955 1.93795 6.8566e-20)
(15.306 2.0461 3.62073e-20)
(15.2173 2.14096 -1.38241e-19)
(15.1366 2.21098 -2.45552e-22)
(15.6001 0.816233 -1.26029e-19)
(15.6021 0.816061 0)
(15.6055 0.816511 0)
(15.6107 0.817596 -2.45044e-18)
(15.6182 0.820121 2.13711e-18)
(15.628 0.824977 -2.71586e-19)
(15.6406 0.833529 1.85724e-18)
(15.656 0.847499 1.75539e-19)
(15.6739 0.868942 -2.30558e-19)
(15.6939 0.900329 -1.44091e-18)
(15.7148 0.944435 -1.55494e-19)
(15.7346 1.00411 1.11684e-18)
(15.7505 1.08171 0)
(15.7585 1.17835 -9.56561e-19)
(15.7546 1.29326 7.22768e-20)
(15.7353 1.42347 -9.30849e-20)
(15.6987 1.56384 2.61601e-19)
(15.645 1.70793 -1.2413e-19)
(15.5769 1.84872 -1.95182e-19)
(15.4985 1.98051 -2.55053e-20)
(15.4158 2.09757 7.52616e-21)
(15.3325 2.20113 1.46734e-20)
(15.2564 2.27761 2.61654e-20)
(15.6002 0.815793 0)
(15.6019 0.815313 -1.29728e-19)
(15.6055 0.815401 1.54989e-18)
(15.611 0.815873 -4.97443e-20)
(15.619 0.817571 -2.24739e-18)
(15.6298 0.821366 3.63195e-19)
(15.6438 0.828672 -7.02059e-20)
(15.6612 0.841264 -1.50763e-18)
(15.682 0.861249 0)
(15.7059 0.891211 -1.79754e-18)
(15.7319 0.934104 1.46573e-19)
(15.7585 0.993076 1.04896e-19)
(15.7827 1.07087 0)
(15.8004 1.16897 9.34247e-19)
(15.8074 1.28692 -7.74674e-19)
(15.7997 1.4219 0)
(15.7748 1.56874 -2.56642e-19)
(15.7325 1.72075 0)
(15.6751 1.87047 1.50997e-19)
(15.6062 2.01185 0)
(15.5319 2.13834 -3.29507e-20)
(15.4556 2.25155 3.07641e-20)
(15.3852 2.33549 2.74694e-20)
(15.6002 0.81533 0)
(15.6017 0.814648 0)
(15.6053 0.814509 1.52974e-20)
(15.6107 0.814506 -1.03077e-19)
(15.619 0.815488 2.54278e-18)
(15.6303 0.81831 2.13401e-18)
(15.6454 0.824417 0)
(15.6645 0.835651 1.41422e-18)
(15.6875 0.854185 0)
(15.7145 0.882711 3.68379e-18)
(15.7446 0.924318 1.36717e-18)
(15.7763 0.982379 -9.76748e-19)
(15.8069 1.05992 -9.71108e-20)
(15.8325 1.15877 0)
(15.8484 1.27871 8.26196e-19)
(15.8505 1.4171 6.39551e-19)
(15.836 1.56869 -4.86257e-20)
(15.8041 1.72671 3.61735e-19)
(15.7568 1.88332 2.88376e-19)
(15.6975 2.03232 0)
(15.6317 2.16628 3.89514e-20)
(15.5626 2.28745 6.30401e-21)
(15.4982 2.37787 -1.31327e-20)
(15.6003 0.814861 -1.50832e-20)
(15.6015 0.814075 1.62484e-18)
(15.6051 0.813752 -1.43784e-18)
(15.6106 0.813352 0)
(15.6192 0.81376 4.61735e-20)
(15.6309 0.815827 7.47022e-20)
(15.6468 0.82102 -1.94844e-18)
(15.6671 0.831216 0)
(15.6918 0.848609 0)
(15.7211 0.875945 -1.84979e-18)
(15.7543 0.916405 -1.44685e-18)
(15.7902 0.973527 -3.98226e-20)
(15.8261 1.05057 1.03e-18)
(15.858 1.14961 -3.41684e-20)
(15.8813 1.27066 -1.20743e-19)
(15.8917 1.4112 1.55621e-19)
(15.8861 1.56603 -4.24781e-19)
(15.8635 1.7283 -3.41424e-19)
(15.8254 1.88995 -3.25127e-19)
(15.7748 2.04471 -2.34813e-19)
(15.7173 2.18447 5.58354e-20)
(15.6554 2.31194 -2.30648e-19)
(15.5973 2.4077 3.68078e-20)
(15.6002 0.81441 1.55945e-18)
(15.6013 0.813581 -1.82711e-18)
(15.6049 0.813081 4.35167e-20)
(15.6104 0.8123 1.47707e-18)
(15.6192 0.812145 -7.10139e-20)
(15.6314 0.813489 -2.18435e-18)
(15.648 0.817801 3.7025e-18)
(15.6694 0.826997 9.83784e-20)
(15.6957 0.843272 -7.14364e-20)
(15.7271 0.869406 -2.00414e-18)
(15.7633 0.908632 5.43339e-20)
(15.8031 0.964634 -1.32559e-18)
(15.844 1.04088 -9.16607e-19)
(15.8822 1.1397 0)
(15.9131 1.26131 1.06124e-18)
(15.932 1.40339 -1.44756e-18)
(15.9358 1.56078 -1.208e-19)
(15.9232 1.72666 3.9731e-19)
(15.8954 1.89276 1.28916e-21)
(15.8549 2.05282 3.00504e-19)
(15.8072 2.19807 0)
(15.754 2.33162 7.69862e-20)
(15.7038 2.43267 0)
(15.6002 0.813992 -2.49877e-18)
(15.6011 0.813155 -1.78366e-18)
(15.6047 0.812487 7.31934e-20)
(15.6102 0.811349 -2.90548e-18)
(15.6192 0.810646 1.35879e-18)
(15.6317 0.811289 -6.36311e-20)
(15.649 0.814738 -1.89148e-18)
(15.6714 0.82295 2.79643e-20)
(15.6991 0.838109 -8.17104e-20)
(15.7326 0.863007 2.06153e-18)
(15.7715 0.90091 0)
(15.8151 0.955619 1.20881e-18)
(15.861 1.03079 9.29307e-20)
(15.9054 1.12898 -4.49304e-20)
(15.9438 1.25065 -1.0956e-18)
(15.9716 1.39366 -1.57211e-20)
(15.9853 1.55294 3.96347e-19)
(15.9836 1.72174 -6.63381e-19)
(15.9672 1.89161 0)
(15.9383 2.05638 -2.42875e-19)
(15.9019 2.20661 3.02892e-19)
(15.8591 2.34581 0)
(15.8181 2.45198 -1.3128e-19)
(15.6001 0.813617 8.69063e-19)
(15.6009 0.812794 -9.80236e-21)
(15.6045 0.811967 7.33486e-20)
(15.61 0.810492 1.40313e-18)
(15.6191 0.809257 -2.66305e-18)
(15.6319 0.809219 1.13292e-20)
(15.6498 0.811817 2.77667e-20)
(15.6731 0.819051 1.66605e-18)
(15.7022 0.83308 -3.77808e-20)
(15.7375 0.856698 0)
(15.7791 0.89318 1.68516e-18)
(15.8263 0.946416 3.88615e-20)
(15.8769 1.02023 3.65245e-20)
(15.9276 1.1174 7.72703e-21)
(15.9737 1.23862 -1.12797e-19)
(16.0107 1.38194 8.46415e-19)
(16.0351 1.54239 -4.93934e-19)
(16.0451 1.71335 -9.3824e-20)
(16.0413 1.88619 -1.39745e-19)
(16.0252 2.05487 3.61355e-19)
(16.0016 2.20933 -2.08543e-19)
(15.9708 2.35348 4.36626e-19)
(15.9406 2.46436 -2.67269e-19)
(15.5999 0.813289 8.82952e-19)
(15.6007 0.81249 1.73375e-18)
(15.6043 0.811511 6.33839e-21)
(15.6098 0.809719 1.50259e-18)
(15.619 0.807966 2.69833e-18)
(15.632 0.807264 -1.14356e-20)
(15.6505 0.80902 -2.82941e-20)
(15.6746 0.815277 3.61192e-20)
(15.7049 0.828159 -1.35855e-18)
(15.742 0.850444 1.11662e-18)
(15.786 0.885396 -1.77014e-18)
(15.8367 0.936971 -1.38368e-18)
(15.8921 1.00913 1.13126e-18)
(15.9491 1.10487 0)
(16.0031 1.22509 6.69047e-19)
(16.0497 1.36807 0)
(16.0853 1.52891 6.51263e-19)
(16.1079 1.70113 3.86961e-19)
(16.1178 1.87598 -3.24742e-21)
(16.1158 2.04756 -4.213e-19)
(16.1064 2.20521 -2.21983e-21)
(16.089 2.35325 1.33929e-20)
(16.0711 2.46812 -1.17756e-19)
(15.5998 0.813011 -2.16531e-20)
(15.6006 0.812238 1.62442e-20)
(15.6041 0.811119 -6.17401e-21)
(15.6095 0.809025 -1.50176e-18)
(15.6188 0.806769 -1.34447e-18)
(15.6321 0.805418 0)
(15.6509 0.806336 1.83187e-20)
(15.6758 0.811612 -1.69518e-18)
(15.7072 0.823322 -3.00725e-20)
(15.746 0.844217 -1.11665e-18)
(15.7924 0.877522 9.37084e-19)
(15.8464 0.927235 2.1608e-18)
(15.9066 0.997429 -1.09143e-18)
(15.9699 1.09129 8.7066e-19)
(16.0319 1.20993 8.42671e-20)
(16.0886 1.35182 7.51008e-21)
(16.136 1.51217 -3.97786e-20)
(16.1721 1.68463 -1.29937e-19)
(16.1967 1.8603 8.65998e-20)
(16.2101 2.03349 -1.51002e-19)
(16.2162 2.19298 -1.30678e-20)
(16.2136 2.34346 1.10123e-19)
(16.2093 2.46123 0)
(15.5996 0.812781 -3.23802e-20)
(15.6004 0.812031 0)
(15.6038 0.810781 0)
(15.6092 0.808401 -1.51276e-18)
(15.6185 0.805656 -1.38691e-18)
(15.632 0.803668 1.22082e-18)
(15.6513 0.803753 1.46276e-20)
(15.6769 0.808043 -1.53117e-20)
(15.7093 0.818554 1.40686e-18)
(15.7496 0.837994 -2.02392e-20)
(15.7982 0.869526 5.0793e-20)
(15.8556 0.917162 -7.36712e-19)
(15.9204 0.985058 0)
(15.99 1.07657 -9.24051e-19)
(16.0604 1.19298 -1.45504e-18)
(16.1274 1.33296 -5.98674e-19)
(16.1872 1.49179 -3.6527e-19)
(16.2376 1.66327 0)
(16.2778 1.83834 0)
(16.3077 2.01154 2.56762e-19)
(16.3305 2.17115 1.64719e-19)
(16.344 2.3222 -3.49337e-19)
(16.3545 2.44136 0)
(15.5994 0.812595 -9.61336e-19)
(15.6003 0.811861 8.15605e-21)
(15.6036 0.810491 -2.99051e-21)
(15.6089 0.807838 1.50136e-18)
(15.6183 0.804619 2.75986e-18)
(15.6319 0.802003 -2.43385e-18)
(15.6515 0.801257 -1.48446e-20)
(15.6777 0.804549 -1.55818e-20)
(15.7111 0.813828 2.05101e-20)
(15.7528 0.831742 0)
(15.8036 0.861367 -9.34608e-19)
(15.8642 0.906695 7.80939e-19)
(15.9336 0.971932 0)
(16.0097 1.06056 0)
(16.0885 1.17403 6.9485e-19)
(16.1662 1.31118 3.54924e-20)
(16.239 1.46731 4.14413e-19)
(16.3043 1.63639 3.2211e-19)
(16.361 1.80915 -4.5862e-19)
(16.4083 1.9804 -1.58457e-19)
(16.4487 2.13802 6.14743e-19)
(16.4792 2.2873 -5.6083e-19)
(16.5052 2.40595 3.62682e-19)
(15.5993 0.812451 4.72658e-19)
(15.6001 0.811727 8.28321e-19)
(15.6034 0.810246 7.87317e-21)
(15.6086 0.807332 -1.04172e-20)
(15.6179 0.803653 -1.39218e-18)
(15.6317 0.800417 1.23858e-18)
(15.6516 0.798837 -9.61216e-21)
(15.6784 0.801118 -3.1581e-21)
(15.7127 0.809127 2.08329e-20)
(15.7557 0.825438 1.05632e-20)
(15.8086 0.853012 -1.38674e-20)
(15.8723 0.895785 -7.80667e-19)
(15.9463 0.957969 6.73058e-19)
(16.0287 1.04315 -2.95474e-20)
(16.1162 1.15287 0)
(16.2049 1.28613 -7.40635e-20)
(16.2911 1.43822 5.42484e-20)
(16.3718 1.60322 -3.23924e-19)
(16.4457 1.77167 5.864e-19)
(16.5109 1.93867 3.41568e-19)
(16.5694 2.09182 -2.28451e-19)
(16.6173 2.23657 -3.3038e-19)
(16.6592 2.35241 4.20651e-19)
(15.5991 0.812344 -8.04815e-21)
(15.6 0.811622 -8.34511e-19)
(15.6032 0.810041 0)
(15.6083 0.806877 0)
(15.6176 0.80275 0)
(15.6314 0.798899 0)
(15.6516 0.796483 9.73448e-21)
(15.6789 0.797737 -4.80835e-21)
(15.714 0.804435 -1.05585e-20)
(15.7583 0.819061 1.07471e-20)
(15.8131 0.844428 -1.41123e-20)
(15.8798 0.884379 0)
(15.9583 0.943086 -1.31827e-18)
(16.0472 1.02418 3.71115e-20)
(16.1434 1.12927 -7.75318e-20)
(16.2433 1.25744 7.13438e-19)
(16.3431 1.40395 -5.75954e-20)
(16.4396 1.56296 9.67662e-20)
(16.5308 1.72481 -1.05799e-19)
(16.6141 1.88495 1.95284e-19)
(16.6906 2.03085 -2.74438e-19)
(16.7558 2.16805 0)
(16.8133 2.27846 2.52574e-19)
(15.599 0.812272 -9.41034e-19)
(15.5999 0.811544 -4.12806e-19)
(15.603 0.809873 -5.47175e-21)
(15.608 0.806471 7.73238e-19)
(15.6172 0.801907 7.09619e-19)
(15.631 0.797448 5.82913e-21)
(15.6515 0.79419 -1.10317e-18)
(15.6792 0.794394 9.22112e-19)
(15.715 0.799735 7.37498e-19)
(15.7605 0.812587 0)
(15.8171 0.835583 1.79717e-20)
(15.8867 0.872427 -8.55871e-19)
(15.9696 0.927194 6.91672e-19)
(16.0648 1.00351 5.23615e-19)
(16.1698 1.10297 4.43699e-19)
(16.281 1.22472 0)
(16.3944 1.36393 0)
(16.5067 1.51483 -3.99564e-19)
(16.6151 1.66756 -4.257e-19)
(16.7161 1.818 2.15046e-19)
(16.81 1.95373 1.48837e-19)
(16.8914 2.08027 2.10172e-19)
(16.9634 2.1825 -2.85109e-19)
(15.5988 0.812225 4.72734e-19)
(15.5998 0.811484 4.14198e-19)
(15.6028 0.809725 -3.99158e-21)
(15.6076 0.806093 7.88777e-21)
(15.6168 0.801101 -7.08684e-19)
(15.6307 0.796034 -6.3453e-19)
(15.6513 0.79193 5.33626e-19)
(15.6794 0.791066 -9.12313e-19)
(15.7158 0.795008 -7.33394e-19)
(15.7624 0.805992 -1.76473e-20)
(15.8207 0.82644 0)
(15.893 0.859869 8.31332e-19)
(15.9801 0.910193 6.97921e-19)
(16.0816 0.980967 -5.54907e-19)
(16.1951 1.07372 -3.80672e-19)
(16.3174 1.18759 -1.80492e-19)
(16.4444 1.31762 -1.51988e-19)
(16.5721 1.45812 8.24626e-19)
(16.6969 1.59912 0)
(16.8146 1.73698 0)
(16.9245 1.85969 1.76178e-19)
(17.0205 1.97266 -4.29048e-19)
(17.105 2.06403 -3.1642e-19)
(15.5987 0.81222 -4.55507e-19)
(15.5997 0.811464 0)
(15.6026 0.809641 0)
(15.6072 0.805801 -1.55066e-18)
(15.6163 0.800395 7.10096e-19)
(15.6301 0.79472 6.48212e-19)
(15.6509 0.789743 -4.5976e-21)
(15.6793 0.787763 4.55698e-19)
(15.7163 0.790233 1.76251e-20)
(15.7639 0.799248 -6.32017e-19)
(15.8238 0.816973 1.84707e-20)
(15.8987 0.846681 -2.42415e-20)
(15.9898 0.892053 -6.97178e-19)
(16.0973 0.956499 5.84026e-19)
(16.2191 1.04139 4.40691e-19)
(16.3522 1.14584 -3.84824e-19)
(16.4921 1.26471 3.4727e-19)
(16.6343 1.39246 -4.24848e-19)
(16.7744 1.5191 0)
(16.9069 1.64161 0)
(17.0307 1.74872 -1.6499e-19)
(17.1387 1.84568 1.23485e-19)
(17.2334 1.92388 -3.45247e-19)
(15.5985 0.812173 9.48817e-21)
(15.5996 0.811379 -4.26399e-19)
(15.6024 0.809437 0)
(15.607 0.805351 3.86341e-19)
(15.6161 0.799529 -1.43625e-18)
(15.6299 0.793272 5.94912e-21)
(15.6508 0.787494 -1.27865e-20)
(15.6794 0.784466 -4.7103e-19)
(15.7168 0.785478 1.09192e-20)
(15.7651 0.792429 6.32751e-19)
(15.8263 0.807207 -1.47446e-20)
(15.9036 0.832799 -4.17049e-19)
(15.9985 0.872596 -4.60797e-20)
(16.1116 0.929799 -5.49643e-19)
(16.2413 1.00557 -5.06799e-19)
(16.3846 1.09896 3.15904e-20)
(16.5365 1.2047 0)
(16.6919 1.31748 -6.18557e-20)
(16.8453 1.42744 8.0936e-20)
(16.9904 1.53234 0)
(17.1252 1.62191 1.84698e-19)
(17.2425 1.70122 -1.25177e-19)
(17.3444 1.76443 0)
(15.5984 0.812359 4.62051e-19)
(15.5994 0.811585 4.28158e-19)
(15.6021 0.809745 0)
(15.6065 0.805606 3.91454e-19)
(15.6153 0.799487 1.45678e-18)
(15.6291 0.79268 6.58556e-19)
(15.65 0.786011 1.13192e-18)
(15.679 0.781855 0)
(15.7169 0.781455 7.76618e-19)
(15.766 0.78658 -6.36905e-19)
(15.8285 0.798749 5.25174e-19)
(15.9077 0.820522 4.40853e-19)
(16.0058 0.854817 -6.60968e-21)
(16.1239 0.904434 8.65659e-21)
(16.2607 0.970116 -5.02856e-19)
(16.4132 1.05076 3.94053e-19)
(16.576 1.14089 0)
(16.7431 1.23561 2.44236e-19)
(16.9079 1.32547 0)
(17.063 1.40935 0)
(17.2063 1.47834 -1.87267e-19)
(17.3296 1.53772 -4.16284e-19)
(17.4358 1.58391 3.65001e-19)
(15.5983 0.812434 0)
(15.5994 0.811679 -1.65726e-23)
(15.602 0.809844 5.36127e-23)
(15.6064 0.805642 -3.96677e-19)
(15.6151 0.799336 -3.61496e-19)
(15.6288 0.792198 -6.57848e-19)
(15.6498 0.784979 -5.67764e-19)
(15.6789 0.78004 -5.29341e-22)
(15.717 0.778521 -3.85734e-19)
(15.7666 0.782022 -2.28997e-21)
(15.8298 0.791714 3.11091e-21)
(15.9106 0.809711 0)
(16.0114 0.838378 6.71391e-21)
(16.1338 0.879986 -8.79819e-21)
(16.2767 0.93474 7.43295e-19)
(16.4372 1.0013 2.35941e-20)
(16.6093 1.07406 0)
(16.7858 1.1487 7.34669e-20)
(16.9593 1.2165 -8.74631e-20)
(17.1212 1.27767 0)
(17.2693 1.32499 0)
(17.3954 1.36395 2.70855e-19)
(17.5029 1.39278 -1.92647e-19)
(15.5983 0.812501 4.5146e-19)
(15.5994 0.811761 4.39216e-19)
(15.6019 0.809924 0)
(15.6062 0.805652 3.96724e-19)
(15.6149 0.799159 -3.69169e-19)
(15.6286 0.791696 -6.71949e-19)
(15.6496 0.783944 5.7857e-19)
(15.6788 0.778241 -4.81003e-19)
(15.7173 0.775611 -3.90291e-19)
(15.7672 0.777469 9.6097e-19)
(15.8313 0.784627 -5.29324e-19)
(15.9135 0.798726 -4.47472e-19)
(16.0166 0.821535 -3.79538e-19)
(16.1428 0.85475 0)
(16.2908 0.898012 -2.55919e-19)
(16.4576 0.949787 4.19915e-19)
(16.6365 1.00448 2.25408e-20)
(16.8194 1.05855 -2.77774e-19)
(16.9977 1.10432 0)
(17.1626 1.14332 0)
(17.3114 1.17017 0)
(17.4368 1.19041 -4.11134e-19)
(17.5426 1.20349 3.73338e-19)
(15.5982 0.812571 -4.51615e-19)
(15.5993 0.811844 3.9486e-21)
(15.6018 0.810004 0)
(15.606 0.805663 -4.05497e-19)
(15.6147 0.798983 -4.02976e-23)
(15.6284 0.7912 1.01153e-18)
(15.6494 0.782919 -1.16217e-18)
(15.6788 0.776456 1.44978e-18)
(15.7175 0.772712 -4.3852e-22)
(15.7678 0.772911 -3.20195e-19)
(15.8326 0.777489 -2.68683e-19)
(15.9161 0.787591 4.48397e-19)
(16.0212 0.804351 3.74894e-19)
(16.1503 0.828856 -3.17533e-19)
(16.3023 0.860183 4.62423e-21)
(16.4738 0.896667 -4.24238e-19)
(16.6572 0.932929 0)
(16.8434 0.9664 0)
(17.0233 0.990733 1.88724e-19)
(17.1877 1.00874 0)
(17.3343 1.01677 0)
(17.4563 1.02032 6.50711e-20)
(17.5585 1.01954 1.81732e-19)
(15.5981 0.812648 0)
(15.5993 0.811931 -4.4341e-19)
(15.6018 0.81009 1.09662e-23)
(15.6059 0.805682 -4.35481e-21)
(15.6145 0.79882 -2.80571e-23)
(15.6281 0.790718 -6.81712e-19)
(15.6492 0.781911 5.83569e-19)
(15.6786 0.774686 -9.6862e-19)
(15.7176 0.769821 -3.95572e-19)
(15.7683 0.768343 0)
(15.8337 0.770301 2.67243e-19)
(15.9181 0.776322 9.10896e-22)
(16.0248 0.786878 1.89892e-22)
(16.1561 0.802425 3.15766e-19)
(16.3109 0.821504 0)
(16.4853 0.842414 2.16201e-19)
(16.671 0.860213 -4.82019e-21)
(16.8579 0.873472 0)
(17.0365 0.877389 -1.87762e-19)
(17.1977 0.875945 0)
(17.3397 0.867057 0)
(17.4565 0.856072 0)
(17.5538 0.843365 -1.21827e-21)
(15.598 0.812734 0)
(15.5993 0.812023 2.25326e-19)
(15.6017 0.810183 -2.06105e-24)
(15.6057 0.805711 4.10027e-19)
(15.6143 0.798671 3.85031e-19)
(15.6279 0.790254 6.86841e-19)
(15.649 0.780921 0)
(15.6785 0.772932 -4.87349e-19)
(15.7176 0.76694 7.91317e-19)
(15.7686 0.763771 -9.20762e-24)
(15.8344 0.763077 2.6831e-19)
(15.9196 0.76495 -2.25749e-19)
(16.0273 0.769185 0)
(16.1601 0.7756 0)
(16.3165 0.782254 2.63481e-19)
(16.4921 0.787521 -2.1194e-19)
(16.6778 0.787115 0)
(16.863 0.780893 -2.5096e-19)
(17.0379 0.765707 -1.87119e-19)
(17.1938 0.746572 0)
(17.3295 0.722736 3.06272e-21)
(17.4399 0.69927 2.20837e-22)
(17.5315 0.676439 -9.46756e-20)
(15.598 0.812828 2.25453e-24)
(15.5992 0.812121 -4.5208e-19)
(15.6016 0.810283 -5.68635e-24)
(15.6056 0.80575 0)
(15.614 0.798536 2.45498e-21)
(15.6276 0.789808 -6.90557e-19)
(15.6487 0.779952 -1.30355e-22)
(15.6783 0.771197 4.87199e-19)
(15.7175 0.764074 -3.95598e-19)
(15.7687 0.759202 3.22749e-19)
(15.8349 0.755832 -1.14318e-22)
(15.9204 0.753512 4.51469e-19)
(16.0288 0.751347 -3.8233e-19)
(16.1623 0.748535 1.12949e-21)
(16.3191 0.742722 -5.28129e-19)
(16.4943 0.732482 2.1804e-19)
(16.678 0.714387 -1.04559e-20)
(16.8593 0.689679 2.58808e-19)
(17.0285 0.656896 1.85313e-19)
(17.1775 0.621914 0)
(17.3055 0.585041 9.14457e-20)
(17.4089 0.550985 0)
(17.4942 0.519621 -4.08791e-20)
(15.5979 0.81293 0)
(15.5992 0.812222 2.26751e-19)
(15.6015 0.81039 2.14238e-19)
(15.6054 0.8058 2.20879e-23)
(15.6138 0.798416 -7.77068e-19)
(15.6273 0.78938 3.4615e-19)
(15.6484 0.779003 0)
(15.678 0.769482 0)
(15.7173 0.761224 -2.19763e-22)
(15.7687 0.754643 -3.22358e-19)
(15.835 0.748583 -2.80077e-22)
(15.9208 0.742042 -2.2533e-19)
(16.0293 0.733443 3.80441e-19)
(16.1627 0.72139 0)
(16.3187 0.7032 2.62423e-19)
(16.4918 0.677778 -2.10999e-19)
(16.6718 0.642725 1.51426e-19)
(16.8472 0.60072 1.45254e-20)
(17.0091 0.551945 0)
(17.1499 0.502944 0)
(17.2696 0.454829 -4.47638e-20)
(17.3654 0.411873 -1.21189e-19)
(17.4444 0.373354 8.46939e-20)
(15.5979 0.813038 0)
(15.5992 0.812329 -8.69895e-24)
(15.6014 0.810503 -2.14277e-19)
(15.6053 0.80586 2.11006e-19)
(15.6136 0.79831 3.89421e-19)
(15.627 0.78897 7.56638e-23)
(15.6481 0.778075 2.967e-19)
(15.6777 0.767788 2.44038e-19)
(15.7171 0.758394 -3.95202e-19)
(15.7686 0.7501 0)
(15.8349 0.741344 -3.77609e-22)
(15.9206 0.730576 -2.24473e-19)
(16.0288 0.715552 0)
(16.1613 0.694321 -5.67948e-21)
(16.3153 0.663975 2.66183e-19)
(16.4849 0.623866 0)
(16.6593 0.572759 -2.46288e-20)
(16.8274 0.514776 -3.85267e-21)
(16.9806 0.451638 2.16416e-19)
(17.1124 0.390369 0)
(17.2233 0.332648 0)
(17.3114 0.282273 6.08297e-20)
(17.3839 0.237774 -2.03188e-19)
(15.5978 0.813154 -4.5413e-24)
(15.5991 0.81244 5.99637e-24)
(15.6013 0.810622 0)
(15.6051 0.80593 2.1294e-19)
(15.6133 0.798218 -1.99189e-22)
(15.6267 0.788579 1.51754e-22)
(15.6477 0.777168 -2.96538e-19)
(15.6774 0.766116 -2.44239e-19)
(15.7168 0.755586 3.95139e-19)
(15.7683 0.745578 -3.20786e-19)
(15.8345 0.734131 -2.67854e-19)
(15.9199 0.719152 2.26395e-19)
(16.0273 0.697755 1.85411e-19)
(16.158 0.66749 1.50954e-19)
(16.309 0.625325 -2.60284e-19)
(16.4736 0.571173 1.18193e-20)
(16.6411 0.505051 -1.81188e-19)
(16.8005 0.432482 -8.86473e-20)
(16.944 0.356585 -8.9902e-20)
(17.0662 0.284679 6.32595e-20)
(17.168 0.218815 -8.21435e-20)
(17.2484 0.162299 0)
(17.3146 0.112805 7.7192e-20)
(15.5978 0.813276 0)
(15.5991 0.812555 2.29399e-19)
(15.6013 0.810748 2.1689e-19)
(15.6049 0.806009 -2.11111e-19)
(15.6131 0.798141 1.97001e-19)
(15.6264 0.788206 0)
(15.6474 0.776284 3.3196e-22)
(15.677 0.764467 -4.37288e-22)
(15.7164 0.752802 1.977e-19)
(15.7678 0.741085 4.82052e-19)
(15.8339 0.72696 -2.64603e-19)
(15.9186 0.707807 -1.58079e-21)
(16.0247 0.680131 -1.34322e-21)
(16.153 0.641052 -1.56504e-19)
(16.2999 0.587518 0)
(16.4583 0.520092 1.98817e-19)
(16.6174 0.440096 -1.52187e-19)
(16.767 0.354366 1.16655e-19)
(16.9002 0.267251 4.0494e-20)
(17.0123 0.1862 4.15136e-21)
(17.1049 0.11348 -7.9026e-20)
(17.1778 0.0519087 5.38047e-20)
(17.2378 -0.00175987 7.62934e-20)
(15.5977 0.813405 1.12562e-19)
(15.5991 0.812674 5.03274e-22)
(15.6012 0.81088 -2.16947e-19)
(15.6048 0.806098 -2.12805e-19)
(15.6129 0.798077 -3.94855e-19)
(15.6261 0.787852 -3.51298e-19)
(15.647 0.775421 -3.32674e-22)
(15.6766 0.762842 4.38197e-22)
(15.716 0.750044 -1.97672e-19)
(15.7672 0.736627 -1.60586e-19)
(15.8329 0.719847 5.30778e-19)
(15.9168 0.696578 -2.21293e-19)
(16.0212 0.662761 -1.86576e-19)
(16.1463 0.615158 1.52596e-19)
(16.2881 0.550803 -8.70634e-21)
(16.439 0.470983 -1.74e-19)
(16.5888 0.378322 1.54928e-19)
(16.7277 0.280855 -1.64684e-19)
(16.8499 0.183981 -4.3282e-20)
(16.9518 0.0951325 0)
(17.0353 0.0166754 7.96004e-20)
(17.1008 -0.0490383 -1.05995e-19)
(17.1548 -0.106207 1.4462e-19)
(15.5977 0.813539 -1.12569e-19)
(15.599 0.812797 -3.4528e-19)
(15.6011 0.811017 -2.18967e-19)
(15.6046 0.806196 2.15001e-19)
(15.6126 0.798028 1.97818e-19)
(15.6258 0.787516 3.51254e-19)
(15.6466 0.774581 3.00192e-19)
(15.6761 0.761242 0)
(15.7154 0.747316 1.98186e-19)
(15.7665 0.73221 -1.60376e-19)
(15.8317 0.712809 -2.64981e-19)
(15.9144 0.685501 2.21231e-19)
(16.0166 0.645722 0)
(16.1379 0.589954 -1.41855e-19)
(16.2736 0.515413 1.06403e-19)
(16.4162 0.424164 -9.40827e-20)
(16.5556 0.320096 3.89622e-20)
(16.6831 0.212297 5.82791e-20)
(16.794 0.107026 -1.54558e-19)
(16.8856 0.011586 1.04028e-19)
(16.96 -0.0716397 0)
(17.0183 -0.140736 -2.06072e-19)
(17.0666 -0.200857 2.96668e-19)
(15.5976 0.813679 0)
(15.599 0.812924 1.15314e-19)
(15.601 0.81116 2.18938e-19)
(15.6045 0.806303 -2.15052e-19)
(15.6124 0.797993 -3.1191e-23)
(15.6254 0.7872 1.54046e-22)
(15.6461 0.773764 -1.4931e-19)
(15.6756 0.759668 0)
(15.7149 0.744621 -1.98162e-19)
(15.7657 0.727841 1.55866e-22)
(15.8302 0.70586 0)
(15.9116 0.674615 -1.08927e-19)
(16.0111 0.629088 0)
(16.1279 0.565574 1.04834e-20)
(16.2568 0.481562 -2.3489e-19)
(16.39 0.37992 7.25936e-20)
(16.5182 0.265731 3.73534e-20)
(16.6339 0.148967 -1.48375e-19)
(16.7332 0.0365702 7.48449e-20)
(16.8144 -0.0643841 1.04838e-19)
(16.8799 -0.15154 -1.70046e-19)
(16.9312 -0.223383 1.42685e-19)
(16.9738 -0.286003 -5.30773e-19)
(15.5976 0.813824 -1.10633e-19)
(15.599 0.813055 1.16272e-19)
(15.601 0.811308 -1.10774e-19)
(15.6043 0.80642 -1.10954e-22)
(15.6121 0.797971 2.03505e-22)
(15.6251 0.786902 -3.57423e-22)
(15.6457 0.772971 -1.50667e-19)
(15.6751 0.758122 9.86522e-22)
(15.7142 0.74196 -7.15887e-22)
(15.7647 0.723527 2.4276e-22)
(15.8284 0.699017 -1.30805e-19)
(15.9082 0.663952 1.05017e-19)
(16.0047 0.61293 5.09744e-21)
(16.1164 0.542144 -1.02175e-20)
(16.2376 0.449439 1.30647e-19)
(16.3608 0.338497 0)
(16.4773 0.215489 6.525e-20)
(16.5805 0.0910904 9.98762e-20)
(16.6681 -0.0272475 -7.15905e-20)
(16.739 -0.132747 1.91852e-19)
(16.7957 -0.223097 -9.43589e-20)
(16.8402 -0.297145 2.11967e-20)
(16.8772 -0.361881 2.66971e-19)
(15.5976 0.813974 2.20774e-19)
(15.599 0.813189 -1.16297e-19)
(15.6009 0.811462 -7.74794e-22)
(15.6042 0.806545 0)
(15.6119 0.797964 0)
(15.6247 0.786624 -1.79336e-19)
(15.6453 0.772202 -1.52018e-19)
(15.6746 0.756604 0)
(15.7135 0.739336 -8.7591e-22)
(15.7636 0.719273 1.61057e-19)
(15.8264 0.692294 1.33121e-19)
(15.9043 0.653545 -3.06119e-21)
(15.9975 0.597313 -6.24072e-21)
(16.1035 0.519777 1.8086e-20)
(16.2165 0.419215 -1.29749e-20)
(16.3289 0.300106 0)
(16.4331 0.169587 -9.35915e-20)
(16.5237 0.0388492 3.99351e-21)
(16.5994 -0.0843144 -1.9253e-19)
(16.6599 -0.193475 8.7486e-20)
(16.7079 -0.286364 1.24385e-19)
(16.7457 -0.362153 -2.02257e-19)
(16.7772 -0.428681 0)
(15.5975 0.814129 -2.19868e-19)
(15.5989 0.813326 1.20477e-23)
(15.6008 0.811621 1.11614e-19)
(15.604 0.806679 0)
(15.6117 0.79797 0)
(15.6244 0.786365 -8.46847e-22)
(15.6448 0.771457 3.04475e-19)
(15.674 0.755116 0)
(15.7127 0.736752 9.95109e-20)
(15.7623 0.715085 0)
(15.8241 0.685706 0)
(15.9 0.643425 -3.77612e-21)
(15.9894 0.582297 4.94473e-21)
(16.0894 0.498576 5.86018e-20)
(16.1935 0.391035 1.2568e-20)
(16.2947 0.264926 -2.19838e-20)
(16.3862 0.128208 9.08815e-20)
(16.4639 -0.00760725 0)
(16.5276 -0.134534 6.28258e-20)
(16.5776 -0.246532 0)
(16.6171 -0.34137 2.69768e-20)
(16.6483 -0.418498 3.77074e-20)
(16.6744 -0.486549 0)
(15.5975 0.814289 1.6441e-19)
(15.5989 0.813468 -5.92603e-20)
(15.6008 0.811784 0)
(15.6039 0.806822 1.10992e-19)
(15.6114 0.79799 -1.02308e-19)
(15.624 0.786126 1.80376e-19)
(15.6443 0.770737 -1.52726e-19)
(15.6733 0.753658 -1.25323e-19)
(15.7118 0.73421 -9.87832e-20)
(15.7609 0.71097 -1.40607e-21)
(15.8216 0.679264 1.84619e-21)
(15.8952 0.63362 1.03749e-19)
(15.9805 0.567934 5.93751e-21)
(16.074 0.478626 -8.52896e-20)
(16.1689 0.36502 1.21342e-20)
(16.2585 0.2331 0)
(16.3369 0.0914925 0)
(16.4016 -0.0481575 0)
(16.4532 -0.177816 0)
(16.4929 -0.291867 -1.82962e-20)
(16.5238 -0.388101 -1.19759e-19)
(16.5484 -0.466213 1.18105e-19)
(16.5691 -0.535545 0)
(15.5975 0.814453 -5.46892e-20)
(15.5989 0.813612 1.18964e-19)
(15.6007 0.811953 0)
(15.6037 0.806974 -1.11057e-19)
(15.6112 0.798024 2.05461e-19)
(15.6236 0.785905 0)
(15.6438 0.770042 0)
(15.6727 0.752231 1.2477e-19)
(15.7109 0.731712 0)
(15.7594 0.70693 -7.74767e-20)
(15.8189 0.672981 -6.52175e-20)
(15.89 0.624155 -5.26905e-20)
(15.971 0.554271 8.1744e-20)
(16.0576 0.460002 0)
(16.143 0.34127 0)
(16.2206 0.204739 1.95553e-20)
(16.2859 0.0595514 -2.56121e-20)
(16.3373 -0.0827039 0)
(16.377 -0.214079 -2.45773e-20)
(16.4062 -0.329405 1.83614e-20)
(16.4285 -0.426493 9.3652e-20)
(16.4465 -0.505252 -1.23113e-19)
(16.4617 -0.575628 0)
(15.5974 0.814621 9.23379e-24)
(15.5989 0.813759 -1.19879e-19)
(15.6006 0.812126 -3.58378e-23)
(15.6036 0.807134 -5.61909e-20)
(15.6109 0.798072 -1.03153e-19)
(15.6233 0.785705 9.15267e-20)
(15.6433 0.769372 2.73613e-22)
(15.672 0.750837 -6.31956e-20)
(15.7099 0.729259 1.00935e-19)
(15.7578 0.702972 7.77258e-20)
(15.8159 0.666868 6.33809e-20)
(15.8844 0.615052 -5.10625e-20)
(15.9609 0.541349 -8.17646e-20)
(16.0404 0.442764 -8.55523e-21)
(16.1158 0.319858 1.1199e-20)
(16.1814 0.179921 1.82869e-20)
(16.2334 0.0324587 -2.39659e-20)
(16.2718 -0.111173 0)
(16.2993 -0.243238 2.46557e-20)
(16.318 -0.359041 0)
(16.3317 -0.456424 -1.11188e-20)
(16.343 -0.535486 0)
(16.3526 -0.606634 -4.19936e-21)
(15.5974 0.814793 2.71827e-20)
(15.5988 0.81391 6.01441e-20)
(15.6006 0.812304 5.79178e-20)
(15.6034 0.807302 -2.48911e-22)
(15.6107 0.798133 -1.78991e-22)
(15.6229 0.785524 6.9893e-22)
(15.6428 0.768729 -7.758e-20)
(15.6713 0.749475 -5.52638e-22)
(15.7089 0.726855 -9.93381e-20)
(15.7561 0.6991 -1.37275e-21)
(15.8128 0.660935 6.38369e-20)
(15.8784 0.606331 0)
(15.9502 0.529198 -5.40942e-21)
(16.0223 0.426954 7.08439e-21)
(16.0878 0.300831 2.19936e-20)
(16.1412 0.15869 0)
(16.1801 0.0102539 0)