/*--------------------------------*- C++ -*----------------------------------*\
  =========                 |
  \\      /  F ield         | OpenFOAM: The Open Source CFD Toolbox
   \\    /   O peration     | Website:  https://openfoam.org
    \\  /    A nd           | Version:  7
     \\/     M anipulation  |
\*---------------------------------------------------------------------------*/
FoamFile
{
    version     2.0;
    format      ascii;
    class       volScalarField;
    location    "50";
    object      yPlus;
}
// * * * * * * * * * * * * * * * * * * * * * * * * * * * * * * * * * * * * * //

dimensions      [0 0 0 0 0 0 0];

internalField   uniform 0;

boundaryField
{
    inlet
    {
        type            calculated;
        value           uniform 0;
    }
    outlet
    {
        type            calculated;
        value           uniform 0;
    }
    suction_side
    {
        type            calculated;
        value           nonuniform List<scalar> 
56
(
5.21979
5.35643
5.72324
5.86457
6.35675
6.53194
7.28167
7.63807
8.38245
9.80722
10.1528
13.8046
16.1622
26.171
37.8589
46.1665
51.4027
51.9969
50.2114
47.0957
43.4924
40.3943
38.711
38.5985
39.6557
41.0726
41.8638
42.1621
42.1069
41.7812
41.2863
40.7361
40.1508
39.5457
38.9316
38.3202
37.7193
37.1355
36.558
35.9973
35.4354
34.8739
34.2997
33.7059
33.0903
32.4483
31.7419
30.9183
29.9357
28.8718
27.8309
26.7835
25.8808
24.8491
24.2938
23.3794
)
;
    }
    pressure_side
    {
        type            calculated;
        value           nonuniform List<scalar> 
56
(
26.8402
27.6232
27.9967
28.868
29.5173
30.3324
31.1052
31.9347
32.6907
33.3382
33.9031
34.4101
34.8738
35.3031
35.7027
36.0795
36.44
36.7814
37.1064
37.4189
37.7134
38.0001
38.2783
38.5317
38.7237
38.8126
38.7476
38.6013
38.5298
38.7366
39.4028
40.6694
42.4451
44.2728
45.8403
47.0584
47.6517
47.2743
45.2468
41.6788
36.591
30.0585
22.4927
14.4042
11.2308
8.66369
7.60515
5.78122
5.22157
4.66035
4.42247
4.32886
4.43075
4.54967
4.77164
4.90828
)
;
    }
    trailing_edge
    {
        type            calculated;
        value           nonuniform List<scalar> 2(101.186 95.9437);
    }
    defaultFaces
    {
        type            empty;
    }
}


// ************************************************************************* //
