/*--------------------------------*- C++ -*----------------------------------*\
  =========                 |
  \\      /  F ield         | OpenFOAM: The Open Source CFD Toolbox
   \\    /   O peration     | Website:  https://openfoam.org
    \\  /    A nd           | Version:  7
     \\/     M anipulation  |
\*---------------------------------------------------------------------------*/
FoamFile
{
    version     2.0;
    format      ascii;
    class       volTensorField;
    location    "815";
    object      gradU;
}
// * * * * * * * * * * * * * * * * * * * * * * * * * * * * * * * * * * * * * //

dimensions      [0 0 -1 0 0 0 0];

internalField   nonuniform List<tensor> 
150
(
(-2.81775e-08 2.56264e-10 0 0.740165 2.27209e-08 0 0 0 0)
(1.38169e-08 -4.73954e-10 0 0.740164 4.4968e-09 0 0 0 0)
(1.43605e-08 2.1769e-10 0 0.740165 -2.77726e-08 0 0 0 0)
(-2.15654e-08 7.41102e-10 0 0.34307 2.0543e-08 0 0 0 0)
(5.82951e-09 -1.07933e-09 0 0.34307 -3.5113e-09 0 0 0 0)
(1.57358e-08 3.38224e-10 0 0.34307 -1.70434e-08 0 0 0 0)
(-2.66272e-08 6.79711e-10 0 0.161562 2.30559e-08 0 0 0 0)
(2.30993e-08 -1.72476e-09 0 0.161563 -1.2059e-08 0 0 0 0)
(3.52796e-09 1.04504e-09 0 0.161563 -1.08833e-08 0 0 0 0)
(-2.20985e-08 7.0212e-10 0 0.09649 2.03409e-08 0 0 0 0)
(2.32973e-08 -2.31807e-09 0 0.0964903 -1.7656e-08 0 0 0 0)
(-1.1988e-09 1.61596e-09 0 0.0964901 -2.62425e-09 0 0 0 0)
(-1.48067e-08 4.18795e-11 0 0.0660087 1.63796e-08 0 0 0 0)
(2.34905e-08 -2.63603e-09 0 0.0660089 -1.83963e-08 0 0 0 0)
(-8.68384e-09 2.59415e-09 0 0.0660086 2.05544e-09 0 0 0 0)
(-8.93558e-09 -1.83218e-10 0 0.0487347 8.62878e-09 0 0 0 0)
(1.57588e-08 -2.9527e-09 0 0.0487345 -9.49413e-09 0 0 0 0)
(-6.82318e-09 3.13592e-09 0 0.0487343 8.91955e-10 0 0 0 0)
(-2.79128e-09 -4.67492e-10 0 0.0377526 2.04656e-09 0 0 0 0)
(3.06913e-09 -3.00047e-09 0 0.0377524 -2.6331e-09 0 0 0 0)
(-2.77843e-10 3.46796e-09 0 0.0377522 6.06892e-10 0 0 0 0)
(2.21757e-09 -3.37278e-10 0 0.0302166 -2.6065e-09 0 0 0 0)
(-2.97749e-09 -3.02907e-09 0 0.0302166 4.76831e-09 0 0 0 0)
(7.59911e-10 3.36634e-09 0 0.0302164 -2.14484e-09 0 0 0 0)
(5.20438e-09 -5.15624e-11 0 0.0247532 -5.22143e-09 0 0 0 0)
(-5.37692e-09 -2.96894e-09 0 0.0247532 7.21508e-09 0 0 0 0)
(1.72539e-10 3.0205e-09 0 0.0247531 -1.97914e-09 0 0 0 0)
(6.65269e-09 2.62018e-10 0 0.0206247 -6.39999e-09 0 0 0 0)
(-6.13371e-09 -2.81364e-09 0 0.0206248 7.52398e-09 0 0 0 0)
(-5.18983e-10 2.55162e-09 0 0.0206247 -1.11163e-09 0 0 0 0)
(7.21725e-09 5.66168e-10 0 0.017402 -6.72445e-09 0 0 0 0)
(-6.31641e-09 -2.58694e-09 0 0.017402 7.14906e-09 0 0 0 0)
(-9.00846e-10 2.02078e-09 0 0.017402 -4.1502e-10 0 0 0 0)
(7.36769e-09 8.574e-10 0 0.0148187 -6.59987e-09 0 0 0 0)
(-6.35952e-09 -2.31429e-09 0 0.0148187 6.58677e-09 0 0 0 0)
(-1.00817e-09 1.45689e-09 0 0.0148187 2.07571e-11 0 0 0 0)
(7.35577e-09 1.13497e-09 0 0.0127013 -6.26278e-09 0 0 0 0)
(-6.36591e-09 -2.0113e-09 0 0.0127013 5.9381e-09 0 0 0 0)
(-9.89866e-10 8.76331e-10 0 0.0127013 3.29753e-10 0 0 0 0)
(7.29031e-09 1.39178e-09 0 0.0109315 -5.81496e-09 0 0 0 0)
(-6.31786e-09 -1.68379e-09 0 0.0109315 5.18958e-09 0 0 0 0)
(-9.72457e-10 2.92007e-10 0 0.0109315 6.28169e-10 0 0 0 0)
(7.21202e-09 1.61252e-09 0 0.0094257 -5.26612e-09 0 0 0 0)
(-6.17874e-09 -1.33319e-09 0 0.0094257 4.31405e-09 0 0 0 0)
(-1.03328e-09 -2.79326e-10 0 0.0094257 9.53034e-10 0 0 0 0)
(7.12666e-09 1.77784e-09 0 0.00812309 -4.56625e-09 0 0 0 0)
(-5.94134e-09 -9.63614e-10 0 0.00812309 3.36802e-09 0 0 0 0)
(-1.18533e-09 -8.14224e-10 0 0.00812309 1.19768e-09 0 0 0 0)
(7.00067e-09 1.88606e-09 0 0.0069779 -3.71657e-09 0 0 0 0)
(-5.67704e-09 -5.99726e-10 0 0.0069779 2.67076e-09 0 0 0 0)
(-1.32364e-09 -1.28634e-09 0 0.0069779 1.04495e-09 0 0 0 0)
(6.74117e-09 2.00621e-09 0 0.00595485 -3.10753e-09 0 0 0 0)
(-5.65332e-09 -2.99496e-10 0 0.00595484 2.73753e-09 0 0 0 0)
(-1.08785e-09 -1.70672e-09 0 0.00595485 3.69553e-10 0 0 0 0)
(6.39522e-09 2.25756e-09 0 0.00502612 -2.84075e-09 0 0 0 0)
(-6.48316e-09 -6.67012e-11 0 0.00502612 1.77003e-09 0 0 0 0)
(8.79391e-11 -2.19086e-09 0 0.00502612 1.07225e-09 0 0 0 0)
(6.59409e-09 2.10532e-09 0 0.00416931 -1.6487e-09 0 0 0 0)
(-4.6703e-09 3.7476e-10 0 0.00416934 2.70115e-10 0 0 0 0)
(-1.92379e-09 -2.48008e-09 0 0.00416934 1.38237e-09 0 0 0 0)
(6.42478e-09 2.0546e-09 0 0.00336615 1.87474e-10 0 0 0 0)
(-1.42767e-09 4.83713e-10 0 0.00336618 -1.54202e-09 0 0 0 0)
(-4.99711e-09 -2.53831e-09 0 0.00336618 1.35844e-09 0 0 0 0)
(6.04886e-09 1.48388e-09 0 0.00260124 1.44671e-09 0 0 0 0)
(7.88729e-10 6.16737e-10 0 0.00260125 -2.64248e-09 0 0 0 0)
(-6.83759e-09 -2.10061e-09 0 0.00260125 1.19758e-09 0 0 0 0)
(5.94544e-09 1.19902e-09 0 0.00186049 1.7235e-09 0 0 0 0)
(9.44847e-10 4.11083e-10 0 0.00186049 -2.41512e-09 0 0 0 0)
(-6.89029e-09 -1.6101e-09 0 0.00186049 6.91666e-10 0 0 0 0)
(6.34067e-09 6.99475e-10 0 0.00112813 1.73668e-09 0 0 0 0)
(2.02377e-10 3.67403e-10 0 0.00112813 -2.82255e-09 0 0 0 0)
(-6.54305e-09 -1.06688e-09 0 0.00112813 1.08664e-09 0 0 0 0)
(6.61641e-09 1.23217e-10 0 0.000381022 2.22845e-09 0 0 0 0)
(1.79868e-09 2.28228e-10 0 0.000381028 -2.73409e-09 0 0 0 0)
(-8.41509e-09 -3.51446e-10 0 0.000381027 5.09143e-10 0 0 0 0)
(6.54523e-09 -2.51946e-10 0 -0.000380625 2.1938e-09 0 0 0 0)
(1.7739e-09 -1.44937e-10 0 -0.000380632 -2.67815e-09 0 0 0 0)
(-8.31913e-09 3.96883e-10 0 -0.000380632 4.88917e-10 0 0 0 0)
(6.44806e-09 -8.06264e-10 0 -0.00112779 1.61069e-09 0 0 0 0)
(4.29072e-11 -2.79957e-10 0 -0.0011278 -2.22049e-09 0 0 0 0)
(-6.49097e-09 1.08622e-09 0 -0.0011278 6.14119e-10 0 0 0 0)
(6.20885e-09 -1.04451e-09 0 -0.00186027 1.17834e-09 0 0 0 0)
(-1.85775e-10 -4.18103e-10 0 -0.00186028 -1.67526e-09 0 0 0 0)
(-6.02308e-09 1.46261e-09 0 -0.00186028 5.00582e-10 0 0 0 0)
(6.00216e-09 -1.34541e-09 0 -0.0026012 1.0382e-09 0 0 0 0)
(-4.44199e-10 -4.53746e-10 0 -0.0026012 -2.22546e-09 0 0 0 0)
(-5.55796e-09 1.79915e-09 0 -0.0026012 1.18852e-09 0 0 0 0)
(6.16699e-09 -1.80952e-09 0 -0.00336633 8.40634e-10 0 0 0 0)
(2.09818e-12 -3.88892e-10 0 -0.00336634 -1.59627e-09 0 0 0 0)
(-6.16909e-09 2.19841e-09 0 -0.00336634 7.54555e-10 0 0 0 0)
(6.01446e-09 -1.84923e-09 0 -0.00416973 -5.43416e-10 0 0 0 0)
(-1.96862e-09 -4.64706e-10 0 -0.00416974 -1.86907e-09 0 0 0 0)
(-4.04584e-09 2.31394e-09 0 -0.00416974 2.41083e-09 0 0 0 0)
(6.54483e-09 -2.57627e-09 0 -0.00502676 -1.28562e-09 0 0 0 0)
(-2.98811e-09 1.30921e-10 0 -0.00502677 3.71323e-10 0 0 0 0)
(-3.55671e-09 2.44535e-09 0 -0.00502678 9.13513e-10 0 0 0 0)
(6.4708e-09 -2.00357e-09 0 -0.0059557 -3.37257e-09 0 0 0 0)
(-5.06607e-09 -5.39774e-11 0 -0.00595572 1.90008e-09 0 0 0 0)
(-1.40473e-09 2.05755e-09 0 -0.00595572 1.47204e-09 0 0 0 0)
(6.62594e-09 -2.46088e-09 0 -0.00697896 -4.79385e-09 0 0 0 0)
(-6.81299e-09 8.26995e-10 0 -0.00697892 8.18004e-10 0 0 0 0)
(1.87053e-10 1.63389e-09 0 -0.00697894 3.9755e-09 0 0 0 0)
(9.44374e-09 -2.46759e-09 0 -0.00812426 -2.94142e-09 0 0 0 0)
(-2.88388e-09 1.19915e-09 0 -0.00812428 4.18091e-09 0 0 0 0)
(-6.55986e-09 1.26844e-09 0 -0.00812427 -1.24114e-09 0 0 0 0)
(6.20416e-09 -1.80284e-09 0 -0.0094269 -5.78592e-09 0 0 0 0)
(-8.34792e-09 1.06758e-09 0 -0.00942703 6.00153e-09 0 0 0 0)
(2.14376e-09 7.35261e-10 0 -0.00942699 -2.20698e-10 0 0 0 0)
(4.51318e-09 -1.72007e-09 0 -0.0109328 -7.05241e-09 0 0 0 0)
(-1.29369e-08 1.80131e-09 0 -0.0109328 8.53577e-09 0 0 0 0)
(8.4237e-09 -8.12353e-11 0 -0.0109328 -1.4906e-09 0 0 0 0)
(8.03476e-09 -7.8996e-10 0 -0.0127027 -5.6399e-09 0 0 0 0)
(-8.90314e-09 1.69237e-09 0 -0.0127026 9.65963e-09 0 0 0 0)
(8.68372e-10 -9.0241e-10 0 -0.0127026 -4.02583e-09 0 0 0 0)
(8.08881e-09 -3.88318e-10 0 -0.0148201 -6.86979e-09 0 0 0 0)
(-6.85085e-09 1.93837e-09 0 -0.01482 6.95816e-09 0 0 0 0)
(-1.23796e-09 -1.55006e-09 0 -0.01482 -9.2931e-11 0 0 0 0)
(7.53872e-09 -1.69664e-10 0 -0.0174033 -7.11129e-09 0 0 0 0)
(-5.87021e-09 2.27573e-09 0 -0.0174033 6.18925e-09 0 0 0 0)
(-1.66851e-09 -2.10607e-09 0 -0.0174033 9.17262e-10 0 0 0 0)
(6.82911e-09 2.80831e-11 0 -0.020626 -6.71024e-09 0 0 0 0)
(-5.10581e-09 2.5729e-09 0 -0.020626 6.03995e-09 0 0 0 0)
(-1.7233e-09 -2.60098e-09 0 -0.020626 6.64707e-10 0 0 0 0)
(5.75731e-09 2.15614e-10 0 -0.0247544 -5.86811e-09 0 0 0 0)
(-3.88598e-09 2.80671e-09 0 -0.0247544 5.37957e-09 0 0 0 0)
(-1.87133e-09 -3.02232e-09 0 -0.0247544 4.82616e-10 0 0 0 0)
(4.03064e-09 3.49152e-10 0 -0.0302178 -4.56324e-09 0 0 0 0)
(-1.37631e-09 2.98842e-09 0 -0.0302177 3.24327e-09 0 0 0 0)
(-2.65433e-09 -3.33758e-09 0 -0.0302176 1.31453e-09 0 0 0 0)
(1.43355e-09 3.36581e-10 0 -0.0377536 -2.54305e-09 0 0 0 0)
(3.58023e-09 3.15474e-09 0 -0.0377535 -1.85963e-09 0 0 0 0)
(-5.01378e-09 -3.49133e-09 0 -0.0377534 4.39619e-09 0 0 0 0)
(-2.12353e-09 2.75419e-11 0 -0.0487357 1.89271e-09 0 0 0 0)
(1.21368e-08 3.35911e-09 0 -0.0487355 -1.13706e-08 0 0 0 0)
(-1.00133e-08 -3.38665e-09 0 -0.0487353 9.47091e-09 0 0 0 0)
(-7.7209e-09 -6.61649e-10 0 -0.0660098 1.53991e-08 0 0 0 0)
(2.39897e-08 3.52613e-09 0 -0.0660099 -2.11809e-08 0 0 0 0)
(-1.62688e-08 -2.86448e-09 0 -0.0660093 5.77436e-09 0 0 0 0)
(-2.57962e-08 -1.17523e-09 0 -0.0964904 2.3017e-08 0 0 0 0)
(3.25766e-08 2.96743e-09 0 -0.0964914 -1.92752e-08 0 0 0 0)
(-6.78044e-09 -1.7922e-09 0 -0.0964905 -3.74992e-09 0 0 0 0)
(-4.25196e-08 -1.30502e-09 0 -0.161561 2.87936e-08 0 0 0 0)
(2.15387e-08 2.44679e-09 0 -0.161562 -1.28856e-08 0 0 0 0)
(2.09808e-08 -1.14177e-09 0 -0.161562 -1.58761e-08 0 0 0 0)
(-2.56574e-08 -1.08274e-09 0 -0.343064 2.81356e-08 0 0 0 0)
(-2.80991e-09 1.36084e-09 0 -0.343064 1.11865e-09 0 0 0 0)
(2.84673e-08 -2.78095e-10 0 -0.343064 -2.92887e-08 0 0 0 0)
(-2.8958e-08 -3.20556e-10 0 -0.740126 2.57147e-08 0 0 0 0)
(9.17015e-09 5.26683e-10 0 -0.740124 9.78836e-09 0 0 0 0)
(1.97879e-08 -2.06127e-10 0 -0.740126 -3.54877e-08 0 0 0 0)
)
;

boundaryField
{
    inlet
    {
        type            cyclic;
    }
    outlet
    {
        type            cyclic;
    }
    wall
    {
        type            extrapolatedCalculated;
        value           nonuniform List<tensor> 6((-2.81775e-08 2.56264e-10 0 1.00104 3.02375e-08 0 0 0 0) (1.38169e-08 -4.73954e-10 0 1.00104 1.39228e-09 0 0 0 0) (1.43605e-08 2.1769e-10 0 1.00104 -3.25643e-08 0 0 0 0) (-2.8958e-08 -3.20556e-10 0 -1.00097 3.24243e-08 0 0 0 0) (9.17015e-09 5.26683e-10 0 -1.00097 5.1112e-09 0 0 0 0) (1.97879e-08 -2.06127e-10 0 -1.00097 -3.73644e-08 0 0 0 0));
    }
    frontAndBack
    {
        type            empty;
    }
}


// ************************************************************************* //
