/*--------------------------------*- C++ -*----------------------------------*\
  =========                 |
  \\      /  F ield         | OpenFOAM: The Open Source CFD Toolbox
   \\    /   O peration     | Website:  https://openfoam.org
    \\  /    A nd           | Version:  7
     \\/     M anipulation  |
\*---------------------------------------------------------------------------*/
FoamFile
{
    version     2.0;
    format      ascii;
    class       volScalarField;
    location    "815";
    object      k;
}
// * * * * * * * * * * * * * * * * * * * * * * * * * * * * * * * * * * * * * //

dimensions      [0 2 -2 0 0 0 0];

internalField   nonuniform List<scalar> 
150
(
0.239245
0.239245
0.239251
2.3982
2.39821
2.39824
2.84818
2.84818
2.84823
2.94819
2.9482
2.94825
2.9636
2.96361
2.96366
2.94492
2.94494
2.94499
2.90724
2.90726
2.9073
2.85648
2.85649
2.85653
2.79524
2.79526
2.79528
2.72473
2.72474
2.72476
2.64546
2.64547
2.64548
2.5576
2.5576
2.55762
2.46116
2.46117
2.46117
2.35611
2.35612
2.35612
2.24248
2.24248
2.24249
2.12047
2.12047
2.12047
1.9906
1.9906
1.9906
1.85389
1.85389
1.85389
1.7121
1.7121
1.7121
1.56801
1.56801
1.56802
1.42581
1.42581
1.42582
1.29142
1.29142
1.29142
1.1728
1.1728
1.1728
1.0802
1.0802
1.0802
1.02629
1.02629
1.02629
1.02626
1.02626
1.02626
1.08011
1.08012
1.08012
1.17266
1.17267
1.17267
1.29125
1.29126
1.29126
1.42564
1.42564
1.42564
1.56783
1.56783
1.56783
1.71191
1.71191
1.71191
1.85371
1.8537
1.85371
1.99042
1.99042
1.99042
2.12029
2.12029
2.1203
2.24231
2.2423
2.24231
2.35593
2.35594
2.35595
2.46098
2.46099
2.46099
2.55741
2.55743
2.55743
2.64527
2.64528
2.64529
2.72453
2.72455
2.72457
2.79504
2.79506
2.79508
2.85627
2.85629
2.85632
2.90703
2.90705
2.90709
2.9447
2.94472
2.94477
2.96337
2.96338
2.96344
2.94797
2.94796
2.94803
2.84795
2.84794
2.848
2.39796
2.39796
2.39801
0.239193
0.239192
0.239198
)
;

boundaryField
{
    inlet
    {
        type            cyclic;
    }
    outlet
    {
        type            cyclic;
    }
    wall
    {
        Ceps2           1.9;
        type            kLowReWallFunction;
        value           nonuniform List<scalar> 6(0.0138615 0.0138615 0.0138621 0.0138557 0.0138555 0.0138562);
    }
    frontAndBack
    {
        type            empty;
    }
}


// ************************************************************************* //
