/*--------------------------------*- C++ -*----------------------------------*\
  =========                 |
  \\      /  F ield         | OpenFOAM: The Open Source CFD Toolbox
   \\    /   O peration     | Website:  https://openfoam.org
    \\  /    A nd           | Version:  7
     \\/     M anipulation  |
\*---------------------------------------------------------------------------*/
FoamFile
{
    version     2.0;
    format      ascii;
    class       volScalarField;
    location    "815";
    object      nut;
}
// * * * * * * * * * * * * * * * * * * * * * * * * * * * * * * * * * * * * * //

dimensions      [0 2 -1 0 0 0 0];

internalField   nonuniform List<scalar> 
150
(
0.0683198
0.0683197
0.0683213
2.16742
2.16742
2.16746
5.46499
5.46499
5.46508
9.36636
9.36664
9.3669
13.723
13.7235
13.7239
18.4723
18.4739
18.4742
23.568
23.5702
23.5707
28.9794
28.9822
28.9829
34.6822
34.6856
34.6864
40.6529
40.6569
40.6579
46.8662
46.8709
46.8719
53.2934
53.2987
53.2998
59.9016
59.9076
59.9086
66.6534
66.6599
66.661
73.5073
73.5142
73.5153
80.418
80.4251
80.4262
87.3376
87.3446
87.3458
94.216
94.2227
94.2241
101.001
101.007
101.009
107.636
107.635
107.641
114.038
114.037
114.043
120.083
120.081
120.088
125.531
125.539
125.54
129.954
129.963
129.966
132.635
132.632
132.644
132.632
132.63
132.64
129.944
129.955
129.956
125.517
125.525
125.526
120.061
120.068
120.069
114.013
114.018
114.021
107.612
107.611
107.617
100.977
100.982
100.984
94.1961
94.1949
94.2011
87.3166
87.323
87.324
80.3999
80.4047
80.4074
73.4939
73.4937
73.4996
66.6397
66.6467
66.6467
59.8904
59.8968
59.8969
53.2844
53.29
53.2903
46.859
46.8639
46.8643
40.6473
40.6515
40.6519
34.6779
34.6813
34.6818
28.9761
28.9789
28.9794
23.5656
23.5677
23.5681
18.4706
18.472
18.4725
13.7215
13.7223
13.7228
9.36564
9.36564
9.36624
5.46458
5.46454
5.46465
2.16724
2.16725
2.16728
0.0683048
0.0683045
0.0683063
)
;

boundaryField
{
    inlet
    {
        type            cyclic;
    }
    outlet
    {
        type            cyclic;
    }
    wall
    {
        type            nutLowReWallFunction;
        Cmu             0.09;
        kappa           0.41;
        E               9.8;
        value           uniform 0;
    }
    frontAndBack
    {
        type            empty;
    }
}


// ************************************************************************* //
