/*--------------------------------*- C++ -*----------------------------------*\
  =========                 |
  \\      /  F ield         | OpenFOAM: The Open Source CFD Toolbox
   \\    /   O peration     | Website:  https://openfoam.org
    \\  /    A nd           | Version:  7
     \\/     M anipulation  |
\*---------------------------------------------------------------------------*/
FoamFile
{
    version     2.0;
    format      ascii;
    class       volScalarField;
    location    "815";
    object      omega;
}
// * * * * * * * * * * * * * * * * * * * * * * * * * * * * * * * * * * * * * //

dimensions      [0 0 -1 0 0 0 0];

internalField   nonuniform List<scalar> 
150
(
3.50184
3.50184
3.50184
1.07621
1.0762
1.0762
0.519234
0.519224
0.51922
0.314763
0.314755
0.314752
0.215959
0.215952
0.215949
0.159424
0.159411
0.15941
0.123356
0.123345
0.123344
0.0985693
0.0985604
0.0985593
0.0805959
0.0805884
0.0805873
0.0670242
0.0670179
0.0670169
0.0564469
0.0564415
0.0564407
0.0479908
0.0479862
0.0479855
0.0410867
0.0410827
0.0410821
0.0353487
0.0353453
0.0353448
0.0305069
0.0305041
0.0305037
0.026368
0.0263658
0.0263655
0.022792
0.0227902
0.0227899
0.019677
0.0196756
0.0196753
0.0169513
0.0169504
0.01695
0.0145677
0.0145679
0.014567
0.012503
0.0125031
0.0125024
0.0107544
0.0107545
0.0107539
0.00934268
0.00934209
0.009342
0.00831221
0.00831165
0.00831146
0.00773769
0.00773786
0.0077372
0.00773763
0.00773778
0.00773718
0.00831213
0.00831149
0.0083114
0.00934269
0.00934206
0.009342
0.010755
0.0107544
0.0107543
0.0125041
0.0125036
0.0125034
0.0145692
0.0145694
0.0145686
0.0169534
0.0169527
0.0169523
0.0196792
0.0196795
0.0196782
0.0227954
0.0227938
0.0227935
0.0263719
0.0263702
0.0263694
0.0305101
0.0305102
0.0305078
0.0353533
0.0353498
0.0353498
0.0410914
0.0410872
0.0410872
0.0479955
0.0479907
0.0479906
0.0564516
0.056446
0.0564458
0.0670287
0.0670222
0.0670219
0.0806002
0.0805926
0.0805922
0.0985733
0.0985644
0.098564
0.123359
0.123349
0.123348
0.159427
0.159415
0.159414
0.215965
0.215954
0.215951
0.314764
0.314763
0.314751
0.519231
0.519223
0.519217
1.0762
1.07619
1.07618
3.50184
3.50184
3.50184
)
;

boundaryField
{
    inlet
    {
        type            cyclic;
    }
    outlet
    {
        type            cyclic;
    }
    wall
    {
        beta1           0.075;
        blended         0;
        type            omegaWallFunction;
        value           nonuniform List<scalar> 6(3.50184 3.50184 3.50184 3.50184 3.50184 3.50184);
    }
    frontAndBack
    {
        type            empty;
    }
}


// ************************************************************************* //
