/*--------------------------------*- C++ -*----------------------------------*\
  =========                 |
  \\      /  F ield         | OpenFOAM: The Open Source CFD Toolbox
   \\    /   O peration     | Website:  https://openfoam.org
    \\  /    A nd           | Version:  7
     \\/     M anipulation  |
\*---------------------------------------------------------------------------*/
FoamFile
{
    version     2.0;
    format      ascii;
    class       volScalarField;
    location    "815";
    object      p;
}
// * * * * * * * * * * * * * * * * * * * * * * * * * * * * * * * * * * * * * //

dimensions      [0 2 -2 0 0 0 0];

internalField   nonuniform List<scalar> 
150
(
1.2022e-09
-5.41072e-05
2.49873e-05
-1.44963e-07
-5.39509e-05
2.49786e-05
-5.22703e-07
-5.36135e-05
2.5019e-05
-1.32697e-06
-5.26055e-05
2.48151e-05
-2.56033e-06
-5.05683e-05
2.40105e-05
-3.96032e-06
-4.71939e-05
2.20359e-05
-5.55375e-06
-4.23597e-05
1.87945e-05
-7.43835e-06
-3.68041e-05
1.51235e-05
-9.64189e-06
-3.08063e-05
1.13286e-05
-1.2125e-05
-2.45042e-05
7.50981e-06
-1.48398e-05
-1.8019e-05
3.73877e-06
-1.77436e-05
-1.14996e-05
1.24161e-07
-2.08107e-05
-5.11737e-06
-3.19049e-06
-2.40066e-05
9.12555e-07
-6.02245e-06
-2.72803e-05
6.33733e-06
-8.17187e-06
-3.05394e-05
1.08822e-05
-9.45526e-06
-3.36581e-05
1.42963e-05
-9.74865e-06
-3.6627e-05
1.64563e-05
-8.93663e-06
-3.98447e-05
1.71569e-05
-6.41536e-06
-4.39343e-05
1.51304e-05
-2.94138e-07
-4.82432e-05
1.05537e-05
8.59677e-06
-5.143e-05
5.34072e-06
1.69994e-05
-5.29622e-05
1.39333e-06
2.24763e-05
-5.35174e-05
-9.31975e-07
2.53469e-05
-5.37016e-05
-3.06997e-06
2.76549e-05
-5.33447e-05
-3.09563e-06
2.73183e-05
-5.26956e-05
-9.3685e-07
2.45169e-05
-5.21248e-05
1.4692e-06
2.15526e-05
-5.15195e-05
4.25278e-06
1.8173e-05
-5.01073e-05
7.1553e-06
1.38644e-05
-4.71823e-05
1.07429e-05
7.35249e-06
-4.33592e-05
1.3233e-05
1.03828e-06
-3.88878e-05
1.46704e-05
-4.87386e-06
-3.47353e-05
1.41841e-05
-8.54208e-06
-3.06223e-05
1.1018e-05
-9.49033e-06
-2.4835e-05
8.21969e-06
-1.2479e-05
-2.02598e-05
4.31277e-06
-1.31489e-05
-1.80048e-05
-1.54871e-06
-9.54561e-06
-1.60834e-05
-7.70188e-06
-5.31854e-06
-1.40804e-05
-1.38853e-05
-1.14196e-06
-1.20592e-05
-2.00372e-05
2.98587e-06
-1.01079e-05
-2.60269e-05
7.02252e-06
-8.27507e-06
-3.17218e-05
1.08835e-05
-6.55956e-06
-3.70024e-05
1.44482e-05
-4.85579e-06
-4.17449e-05
1.74869e-05
-2.9275e-06
-4.56919e-05
1.95059e-05
-7.13652e-07
-4.83353e-05
1.9936e-05
7.40672e-07
-4.94134e-05
1.95604e-05
1.19016e-06
-4.97496e-05
1.94475e-05
1.33275e-06
-4.99352e-05
1.94905e-05
)
;

boundaryField
{
    inlet
    {
        type            cyclic;
    }
    outlet
    {
        type            cyclic;
    }
    wall
    {
        type            zeroGradient;
    }
    frontAndBack
    {
        type            empty;
    }
}


// ************************************************************************* //
