/*--------------------------------*- C++ -*----------------------------------*\
  =========                 |
  \\      /  F ield         | OpenFOAM: The Open Source CFD Toolbox
   \\    /   O peration     | Website:  https://openfoam.org
    \\  /    A nd           | Version:  7
     \\/     M anipulation  |
\*---------------------------------------------------------------------------*/
FoamFile
{
    version     2.0;
    format      ascii;
    class       surfaceScalarField;
    location    "815";
    object      phi;
}
// * * * * * * * * * * * * * * * * * * * * * * * * * * * * * * * * * * * * * //

dimensions      [0 3 -1 0 0 0 0];

internalField   nonuniform List<scalar> 
247
(
91.4752
0.000145166
91.4752
8.31005e-06
-0.000157506
201.957
0.000274083
201.956
3.35106e-05
-0.000310768
275.243
0.000458915
275.243
-8.72598e-05
-0.000374149
339.019
0.000628839
339.019
-0.000234635
-0.000396351
401.977
0.000753529
401.977
-0.000405137
-0.00035017
467.633
0.000835169
467.633
-0.000524305
-0.000312412
537.97
0.000860714
537.97
-0.000524309
-0.000337712
614.423
0.000831575
614.423
-0.000459702
-0.00037297
698.217
0.000763205
698.217
-0.000363785
-0.000400335
790.513
0.000670348
790.513
-0.000255328
-0.000415727
892.484
0.000563402
892.484
-0.000142041
-0.000421948
1005.35
0.000448227
1005.35
-2.72239e-05
-0.000421436
1130.41
0.000328622
1130.41
8.65596e-05
-0.000415521
1269.04
0.000206356
1269.04
0.000196674
-0.000403343
1422.74
8.48086e-05
1422.74
0.000298173
-0.000383204
1593.07
-3.47588e-05
1593.07
0.000387605
-0.000353164
1781.73
-0.000146564
1781.73
0.000461424
-0.000315069
1990.45
-0.000244685
1990.45
0.000528031
-0.000283672
2221.04
-0.000316473
2221.04
0.000618175
-0.000301858
2475.31
-0.00037099
2475.31
0.000653382
-0.000282602
2754.96
-0.000381381
2754.96
0.000579252
-0.000197885
3061.56
-0.000335053
3061.56
0.000428541
-9.34631e-05
3396.3
-0.000244109
3396.3
0.000282255
-3.79376e-05
3759.8
-0.000135169
3759.8
0.000178975
-4.34542e-05
4151.67
-5.59205e-06
4151.67
-1.02856e-05
1.63707e-05
4151.68
0.000125297
4151.68
-0.000198214
7.36153e-05
3759.81
0.000219982
3759.81
-0.00029152
7.23125e-05
3396.31
0.000291719
3396.31
-0.000382195
9.14354e-05
3061.57
0.000341128
3061.57
-0.00046792
0.000127775
2754.98
0.000353619
2754.98
-0.00057838
0.000225851
2475.32
0.000339184
2475.32
-0.000618873
0.00028074
2221.05
0.000278245
2221.05
-0.000627391
0.000350218
1990.45
0.000197641
1990.45
-0.000570927
0.000374293
1781.72
9.85457e-05
1781.72
-0.000463752
0.000366157
1593.07
-8.02113e-05
1593.07
-0.000452463
0.000533562
1422.73
-0.000186643
1422.73
-0.000305193
0.000492605
1269.03
-0.00025935
1269.03
-6.33993e-05
0.000323463
1130.39
-0.000398666
1130.39
9.21157e-05
0.00030711
1005.34
-0.000529366
1005.34
0.000209035
0.000320863
892.469
-0.000643106
892.468
0.000309198
0.000334276
790.498
-0.000738635
790.498
0.00039721
0.000341784
698.202
-0.000814008
698.202
0.000468105
0.000346099
614.409
-0.00086374
614.409
0.000508805
0.000355151
537.957
-0.00088281
537.957
0.000497947
0.000384943
467.62
-0.000867029
467.62
0.000409982
0.000457125
401.965
-0.000805127
401.965
0.000230678
0.000574463
339.008
-0.000606042
339.008
5.62441e-06
0.00060042
275.232
-0.000306375
275.232
-0.000107596
0.000413972
201.947
-0.000152217
201.947
-2.85851e-05
0.000180802
91.469
91.469
)
;

boundaryField
{
    inlet
    {
        type            cyclic;
        value           nonuniform List<scalar> 
50
(
-91.4753
-201.957
-275.243
-339.019
-401.977
-467.633
-537.97
-614.423
-698.217
-790.513
-892.484
-1005.35
-1130.41
-1269.04
-1422.74
-1593.07
-1781.73
-1990.45
-2221.04
-2475.31
-2754.96
-3061.56
-3396.3
-3759.8
-4151.67
-4151.68
-3759.81
-3396.31
-3061.57
-2754.98
-2475.32
-2221.05
-1990.45
-1781.72
-1593.06
-1422.73
-1269.03
-1130.39
-1005.34
-892.468
-790.498
-698.202
-614.409
-537.957
-467.62
-401.965
-339.008
-275.233
-201.948
-91.4692
)
;
    }
    outlet
    {
        type            cyclic;
        value           nonuniform List<scalar> 
50
(
91.4753
201.957
275.243
339.019
401.977
467.633
537.97
614.423
698.217
790.513
892.484
1005.35
1130.41
1269.04
1422.74
1593.07
1781.73
1990.45
2221.04
2475.31
2754.96
3061.56
3396.3
3759.8
4151.67
4151.68
3759.81
3396.31
3061.57
2754.98
2475.32
2221.05
1990.45
1781.72
1593.06
1422.73
1269.03
1130.39
1005.34
892.468
790.498
698.202
614.409
537.957
467.62
401.965
339.008
275.233
201.948
91.4692
)
;
    }
    wall
    {
        type            calculated;
        value           uniform 0;
    }
    frontAndBack
    {
        type            empty;
        value           nonuniform 0();
    }
}


// ************************************************************************* //
