/*--------------------------------*- C++ -*----------------------------------*\
  =========                 |
  \\      /  F ield         | OpenFOAM: The Open Source CFD Toolbox
   \\    /   O peration     | Website:  https://openfoam.org
    \\  /    A nd           | Version:  7
     \\/     M anipulation  |
\*---------------------------------------------------------------------------*/
FoamFile
{
    version     2.0;
    format      ascii;
    class       volSymmTensorField;
    location    "815";
    object      R;
}
// * * * * * * * * * * * * * * * * * * * * * * * * * * * * * * * * * * * * * //

dimensions      [0 2 -2 0 0 0 0];

internalField   nonuniform List<symmTensor> 
150
(
(0.159497 -0.0505679 -0 0.159497 -0 0.159497)
(0.159497 -0.0505678 -0 0.159497 -0 0.159497)
(0.159501 -0.050569 -0 0.159501 -0 0.159501)
(1.5988 -0.743578 -0 1.5988 -0 1.5988)
(1.59881 -0.743577 -0 1.59881 -0 1.59881)
(1.59883 -0.74359 -0 1.59883 -0 1.59883)
(1.89879 -0.882928 -0 1.89879 -0 1.89879)
(1.89879 -0.88293 -0 1.89879 -0 1.89879)
(1.89882 -0.882942 -0 1.89882 -0 1.89882)
(1.96546 -0.903741 -0 1.96546 -0 1.96546)
(1.96547 -0.903803 -0 1.96547 -0 1.96547)
(1.9655 -0.903828 -0 1.9655 -0 1.9655)
(1.97573 -0.905836 -0 1.97573 -0 1.97573)
(1.97574 -0.905873 -0 1.97574 -0 1.97574)
(1.97578 -0.9059 -0 1.97577 -0 1.97577)
(1.96328 -0.900287 -0 1.96328 -0 1.96328)
(1.96329 -0.900303 -0 1.96329 -0 1.96329)
(1.96333 -0.900317 -0 1.96333 -0 1.96333)
(1.93816 -0.889767 -0 1.93816 -0 1.93816)
(1.93817 -0.88985 -0 1.93817 -0 1.93817)
(1.9382 -0.889869 -0 1.9382 -0 1.9382)
(1.90432 -0.875635 -0 1.90432 -0 1.90432)
(1.90433 -0.875719 -0 1.90433 -0 1.90433)
(1.90435 -0.875741 -0 1.90435 -0 1.90435)
(1.86349 -0.858485 -0 1.86349 -0 1.86349)
(1.86351 -0.858569 -0 1.86351 -0 1.86351)
(1.86352 -0.858589 -0 1.86352 -0 1.86352)
(1.81649 -0.838444 -0 1.81649 -0 1.81649)
(1.81649 -0.838526 -0 1.81649 -0 1.81649)
(1.81651 -0.838547 -0 1.81651 -0 1.81651)
(1.76364 -0.815578 -0 1.76364 -0 1.76364)
(1.76365 -0.81566 -0 1.76365 -0 1.76365)
(1.76365 -0.815678 -0 1.76365 -0 1.76365)
(1.70507 -0.789763 -0 1.70507 -0 1.70507)
(1.70507 -0.789841 -0 1.70507 -0 1.70507)
(1.70508 -0.789858 -0 1.70508 -0 1.70508)
(1.64077 -0.760849 -0 1.64077 -0 1.64077)
(1.64078 -0.760925 -0 1.64078 -0 1.64078)
(1.64078 -0.760938 -0 1.64078 -0 1.64078)
(1.57074 -0.728587 -0 1.57074 -0 1.57074)
(1.57075 -0.728658 -0 1.57075 -0 1.57075)
(1.57075 -0.72867 -0 1.57075 -0 1.57075)
(1.49499 -0.692811 -0 1.49499 -0 1.49499)
(1.49499 -0.692876 -0 1.49499 -0 1.49499)
(1.49499 -0.692887 -0 1.49499 -0 1.49499)
(1.41365 -0.653277 -0 1.41365 -0 1.41365)
(1.41365 -0.653335 -0 1.41365 -0 1.41365)
(1.41365 -0.653344 -0 1.41365 -0 1.41365)
(1.32707 -0.609481 -0 1.32707 -0 1.32707)
(1.32707 -0.609529 -0 1.32707 -0 1.32707)
(1.32707 -0.609538 -0 1.32707 -0 1.32707)
(1.23593 -0.561029 -0 1.23593 -0 1.23593)
(1.23593 -0.561069 -0 1.23593 -0 1.23593)
(1.23593 -0.561077 -0 1.23593 -0 1.23593)
(1.1414 -0.507626 -0 1.1414 -0 1.1414)
(1.1414 -0.507656 -0 1.1414 -0 1.1414)
(1.1414 -0.507666 -0 1.1414 -0 1.1414)
(1.04534 -0.448787 -0 1.04534 -0 1.04534)
(1.04534 -0.448783 -0 1.04534 -0 1.04534)
(1.04535 -0.448808 -0 1.04535 -0 1.04535)
(0.95054 -0.383856 -0 0.95054 -0 0.95054)
(0.95054 -0.383852 -0 0.95054 -0 0.95054)
(0.950547 -0.383872 -0 0.950546 -0 0.950547)
(0.860947 -0.312346 -0 0.860946 -0 0.860947)
(0.860946 -0.312341 -0 0.860947 -0 0.860946)
(0.860947 -0.312359 -0 0.860946 -0 0.860947)
(0.781867 -0.233556 -0 0.781866 -0 0.781867)
(0.781866 -0.23357 -0 0.781867 -0 0.781866)
(0.781867 -0.233572 -0 0.781867 -0 0.781867)
(0.720133 -0.146569 -0 0.720133 -0 0.720133)
(0.720133 -0.146579 -0 0.720134 -0 0.720133)
(0.720133 -0.146582 -0 0.720133 -0 0.720133)
(0.684194 -0.0505266 -0 0.684193 -0 0.684194)
(0.684193 -0.0505949 -0 0.684194 -0 0.684193)
(0.684193 -0.05053 -0 0.684193 -0 0.684193)
(0.684146 0.0504528 -0 0.684187 -0 0.684187)
(0.684173 0.0504554 -0 0.684174 -0 0.684173)
(0.684201 0.0504558 -0 0.684159 -0 0.684159)
(0.720073 0.146486 -0 0.720073 -0 0.720073)
(0.72008 0.14657 -0 0.72008 -0 0.72008)
(0.72008 0.146499 -0 0.72008 -0 0.72008)
(0.781773 0.23353 -0 0.781773 -0 0.781773)
(0.78178 0.233544 -0 0.78178 -0 0.78178)
(0.78178 0.233546 -0 0.78178 -0 0.78178)
(0.860833 0.312289 -0 0.860833 -0 0.860833)
(0.86084 0.312307 -0 0.86084 -0 0.86084)
(0.86084 0.312309 -0 0.86084 -0 0.86084)
(0.950427 0.383772 -0 0.950427 -0 0.950427)
(0.950427 0.383788 -0 0.950427 -0 0.950427)
(0.950427 0.383798 -0 0.950427 -0 0.950427)
(1.04522 0.448783 -0 1.04522 -0 1.04522)
(1.04522 0.448778 -0 1.04522 -0 1.04522)
(1.04522 0.448803 -0 1.04522 -0 1.04522)
(1.14127 0.507595 -0 1.14127 -0 1.14127)
(1.14127 0.50762 -0 1.14127 -0 1.14127)
(1.14127 0.50763 -0 1.14127 -0 1.14127)
(1.23581 0.561011 -0 1.23581 -0 1.23581)
(1.2358 0.561004 -0 1.2358 -0 1.2358)
(1.23581 0.561041 -0 1.23581 -0 1.23581)
(1.32695 0.609428 -0 1.32695 -0 1.32695)
(1.32695 0.609472 -0 1.32695 -0 1.32695)
(1.32695 0.609479 -0 1.32695 -0 1.32695)
(1.41353 0.65313 -0 1.41353 -0 1.41353)
(1.41353 0.653169 -0 1.41353 -0 1.41353)
(1.41353 0.653191 -0 1.41353 -0 1.41353)
(1.49487 0.69279 -0 1.49487 -0 1.49487)
(1.49487 0.692788 -0 1.49487 -0 1.49487)
(1.49487 0.692844 -0 1.49487 -0 1.49487)
(1.57062 0.728533 -0 1.57062 -0 1.57062)
(1.57063 0.728609 -0 1.57063 -0 1.57063)
(1.57063 0.72861 -0 1.57063 -0 1.57063)
(1.64065 0.76081 -0 1.64065 -0 1.64065)
(1.64066 0.760892 -0 1.64066 -0 1.64066)
(1.64066 0.760893 -0 1.64066 -0 1.64066)
(1.70494 0.789722 -0 1.70494 -0 1.70494)
(1.70495 0.789805 -0 1.70495 -0 1.70495)
(1.70495 0.78981 -0 1.70495 -0 1.70495)
(1.76351 0.815453 -0 1.76351 -0 1.76351)
(1.76352 0.815538 -0 1.76352 -0 1.76352)
(1.76353 0.815546 -0 1.76353 -0 1.76353)
(1.81635 0.838422 -0 1.81635 -0 1.81635)
(1.81637 0.838509 -0 1.81637 -0 1.81637)
(1.81638 0.838517 -0 1.81638 -0 1.81638)
(1.86336 0.858459 -0 1.86336 -0 1.86336)
(1.86337 0.858543 -0 1.86337 -0 1.86337)
(1.86339 0.858555 -0 1.86339 -0 1.86339)
(1.90418 0.875535 -0 1.90418 -0 1.90418)
(1.90419 0.87562 -0 1.90419 -0 1.90419)
(1.90421 0.875635 -0 1.90421 -0 1.90421)
(1.93802 0.889676 -0 1.93802 -0 1.93802)
(1.93803 0.889756 -0 1.93803 -0 1.93803)
(1.93806 0.889771 -0 1.93806 -0 1.93806)
(1.96313 0.900205 -0 1.96313 -0 1.96313)
(1.96315 0.900273 -0 1.96315 -0 1.96315)
(1.96318 0.900297 -0 1.96318 -0 1.96318)
(1.97558 0.905737 -0 1.97558 -0 1.97558)
(1.97559 0.905789 -0 1.97559 -0 1.97559)
(1.97563 0.905823 -0 1.97563 -0 1.97563)
(1.96531 0.90371 -0 1.96531 -0 1.96531)
(1.96531 0.90371 -0 1.96531 -0 1.96531)
(1.96535 0.90373 -0 1.96535 -0 1.96535)
(1.89863 0.882869 -0 1.89863 -0 1.89863)
(1.89863 0.882868 -0 1.89863 -0 1.89863)
(1.89867 0.882883 -0 1.89867 -0 1.89867)
(1.59864 0.743496 -0 1.59864 -0 1.59864)
(1.59864 0.743501 -0 1.59864 -0 1.59864)
(1.59867 0.743519 -0 1.59867 -0 1.59867)
(0.159462 0.0505541 -0 0.159462 -0 0.159462)
(0.159461 0.0505538 -0 0.159461 -0 0.159461)
(0.159465 0.0505552 -0 0.159465 -0 0.159465)
)
;

boundaryField
{
    inlet
    {
        type            cyclic;
    }
    outlet
    {
        type            cyclic;
    }
    wall
    {
        type            calculated;
        value           nonuniform List<symmTensor> 6((0.009241 -0 -0 0.009241 -0 0.009241) (0.009241 -0 -0 0.009241 -0 0.009241) (0.0092414 -0 -0 0.0092414 -0 0.0092414) (0.00923713 0 -0 0.00923713 -0 0.00923713) (0.009237 0 -0 0.009237 -0 0.009237) (0.00923747 0 -0 0.00923747 -0 0.00923747));
    }
    frontAndBack
    {
        type            empty;
    }
}


// ************************************************************************* //
