/*--------------------------------*- C++ -*----------------------------------*\
  =========                 |
  \\      /  F ield         | OpenFOAM: The Open Source CFD Toolbox
   \\    /   O peration     | Website:  https://openfoam.org
    \\  /    A nd           | Version:  7
     \\/     M anipulation  |
\*---------------------------------------------------------------------------*/
FoamFile
{
    version     2.0;
    format      ascii;
    class       volVectorField;
    location    "815";
    object      U;
}
// * * * * * * * * * * * * * * * * * * * * * * * * * * * * * * * * * * * * * //

dimensions      [0 1 -1 0 0 0 0];

internalField   nonuniform List<vector> 
150
(
(4.78461 1.44525e-07 0)
(4.78461 6.65463e-09 0)
(4.78462 -1.55646e-07 0)
(9.59699 2.97185e-07 0)
(9.59698 8.29763e-08 0)
(9.59699 -3.86388e-07 0)
(11.883 5.8322e-07 0)
(11.883 -7.86416e-08 0)
(11.883 -5.09125e-07 0)
(13.2974 8.29307e-07 0)
(13.2974 -1.94131e-07 0)
(13.2974 -6.38807e-07 0)
(14.3244 1.10314e-06 0)
(14.3245 -5.39817e-07 0)
(14.3245 -5.66341e-07 0)
(15.1396 1.28452e-06 0)
(15.1396 -7.01558e-07 0)
(15.1396 -5.85519e-07 0)
(15.8235 1.36482e-06 0)
(15.8235 -8.3155e-07 0)
(15.8235 -5.35472e-07 0)
(16.4189 1.34952e-06 0)
(16.4189 -7.82496e-07 0)
(16.4189 -5.68887e-07 0)
(16.9512 1.26391e-06 0)
(16.9512 -6.49068e-07 0)
(16.9512 -6.16412e-07 0)
(17.4362 1.13224e-06 0)
(17.4362 -4.83781e-07 0)
(17.4362 -6.49726e-07 0)
(17.8845 9.72405e-07 0)
(17.8845 -3.07419e-07 0)
(17.8845 -6.65993e-07 0)
(18.3032 7.95876e-07 0)
(18.3032 -1.26821e-07 0)
(18.3032 -6.69841e-07 0)
(18.6973 6.09415e-07 0)
(18.6973 5.44054e-08 0)
(18.6973 -6.64408e-07 0)
(19.0701 4.16951e-07 0)
(19.0701 2.32013e-07 0)
(19.0701 -6.49449e-07 0)
(19.4238 2.22349e-07 0)
(19.4238 3.99255e-07 0)
(19.4238 -6.22007e-07 0)
(19.7596 3.13987e-08 0)
(19.7596 5.47074e-07 0)
(19.7596 -5.7889e-07 0)
(20.0779 -1.45101e-07 0)
(20.0779 6.6958e-07 0)
(20.0779 -5.24928e-07 0)
(20.378 -2.97245e-07 0)
(20.378 7.83676e-07 0)
(20.378 -4.86925e-07 0)
(20.6586 -4.48596e-07 0)
(20.6586 9.38946e-07 0)
(20.6586 -4.9084e-07 0)
(20.9173 -6.02795e-07 0)
(20.9173 9.67922e-07 0)
(20.9173 -3.65448e-07 0)
(21.1508 -6.37995e-07 0)
(21.1508 9.69602e-07 0)
(21.1508 -3.31643e-07 0)
(21.3543 -5.73602e-07 0)
(21.3543 7.56786e-07 0)
(21.3543 -1.83002e-07 0)
(21.522 -4.26623e-07 0)
(21.522 5.93107e-07 0)
(21.522 -1.6627e-07 0)
(21.6458 -3.02731e-07 0)
(21.6458 3.72959e-07 0)
(21.6458 -7.00423e-08 0)
(21.7153 -1.22256e-07 0)
(21.7153 1.00327e-07 0)
(21.7153 2.22889e-08 0)
(21.7153 1.14667e-07 0)
(21.7154 -1.36693e-07 0)
(21.7153 2.28731e-08 0)
(21.6459 2.88821e-07 0)
(21.6459 -3.99119e-07 0)
(21.6459 1.11514e-07 0)
(21.5221 3.97572e-07 0)
(21.5221 -5.28749e-07 0)
(21.5221 1.32773e-07 0)
(21.3544 4.76213e-07 0)
(21.3544 -6.63251e-07 0)
(21.3544 1.8884e-07 0)
(21.1509 5.46804e-07 0)
(21.1509 -8.45523e-07 0)
(21.1509 3.00506e-07 0)
(20.9174 5.87158e-07 0)
(20.9174 -8.78335e-07 0)
(20.9174 2.92844e-07 0)
(20.6586 4.89131e-07 0)
(20.6586 -1.05959e-06 0)
(20.6586 5.72047e-07 0)
(20.378 4.46293e-07 0)
(20.378 -8.56821e-07 0)
(20.378 4.12107e-07 0)
(20.0778 1.7086e-07 0)
(20.0778 -8.63935e-07 0)
(20.0778 6.94623e-07 0)
(19.7595 1.5144e-08 0)
(19.7595 -7.88202e-07 0)
(19.7595 7.74604e-07 0)
(19.4237 -6.96836e-08 0)
(19.4237 -5.35349e-07 0)
(19.4237 6.06452e-07 0)
(19.0699 -3.97033e-07 0)
(19.0699 -3.45584e-07 0)
(19.0699 7.43795e-07 0)
(18.6971 -5.47474e-07 0)
(18.6971 2.40521e-08 0)
(18.6971 5.2436e-07 0)
(18.3029 -7.36178e-07 0)
(18.3029 2.45524e-07 0)
(18.3029 4.91459e-07 0)
(17.8842 -9.24818e-07 0)
(17.8842 4.09025e-07 0)
(17.8842 5.16479e-07 0)
(17.4359 -1.09207e-06 0)
(17.4359 5.55213e-07 0)
(17.4359 5.37427e-07 0)
(16.9508 -1.23043e-06 0)
(16.9508 6.83709e-07 0)
(16.9508 5.47153e-07 0)
(16.4185 -1.33538e-06 0)
(16.4185 7.78417e-07 0)
(16.4185 5.57287e-07 0)
(15.8231 -1.40298e-06 0)
(15.8231 8.0819e-07 0)
(15.8231 5.95022e-07 0)
(15.1392 -1.42407e-06 0)
(15.1392 7.20808e-07 0)
(15.1392 7.03365e-07 0)
(14.324 -1.34912e-06 0)
(14.324 4.65046e-07 0)
(14.324 8.8409e-07 0)
(13.297 -1.00485e-06 0)
(13.297 1.30213e-07 0)
(13.297 8.74528e-07 0)
(11.8825 -7.5765e-07 0)
(11.8825 -3.45305e-08 0)
(11.8826 7.91984e-07 0)
(9.59655 -3.45799e-07 0)
(9.59653 -1.69672e-07 0)
(9.59655 5.16064e-07 0)
(4.7843 -1.54977e-07 0)
(4.78428 -2.44298e-08 0)
(4.7843 1.78589e-07 0)
)
;

boundaryField
{
    inlet
    {
        type            cyclic;
    }
    outlet
    {
        type            cyclic;
    }
    wall
    {
        type            noSlip;
    }
    frontAndBack
    {
        type            empty;
    }
}


// ************************************************************************* //
