/*--------------------------------*- C++ -*----------------------------------*\
  =========                 |
  \\      /  F ield         | OpenFOAM: The Open Source CFD Toolbox
   \\    /   O peration     | Website:  https://openfoam.org
    \\  /    A nd           | Version:  7
     \\/     M anipulation  |
\*---------------------------------------------------------------------------*/
FoamFile
{
    version     2.0;
    format      ascii;
    class       volScalarField;
    location    "43";
    object      k;
}
// * * * * * * * * * * * * * * * * * * * * * * * * * * * * * * * * * * * * * //

dimensions      [0 2 -2 0 0 0 0];

internalField   nonuniform List<scalar> 
12842
(
0.00570197
0.00512256
0.00475532
0.00450812
0.00432617
0.00420808
0.00411718
0.00406106
0.00400523
0.00397653
0.00394245
0.00392916
0.00391093
0.00391065
0.00391676
0.00392613
0.00393992
0.0039565
0.00397353
0.00399553
0.00401771
0.00403377
0.0040462
0.00569246
0.00509428
0.00473071
0.00448668
0.00431214
0.00418588
0.00409638
0.00404855
0.00399722
0.00397109
0.00393863
0.00392697
0.00391089
0.00391189
0.00391942
0.00393124
0.00394526
0.00396388
0.00397974
0.0040006
0.00402223
0.00403565
0.00404543
0.00565765
0.00506285
0.00470176
0.00446814
0.00430213
0.00418192
0.00408535
0.00403965
0.00399355
0.0039687
0.0039369
0.0039257
0.00391066
0.00391262
0.0039215
0.00393505
0.00395157
0.00396971
0.00398737
0.00400888
0.00402728
0.00403292
0.00403738
0.00563189
0.00499798
0.00463263
0.00442394
0.00427056
0.00416752
0.00407703
0.00402496
0.00398181
0.0039602
0.00393043
0.00392079
0.00390969
0.00391304
0.00392327
0.00393989
0.00395652
0.00397769
0.00399247
0.00401119
0.00402449
0.00403856
0.00404002
0.00559482
0.00497318
0.00458497
0.00436474
0.00422931
0.00413447
0.00406581
0.00401691
0.00397587
0.00395278
0.00392386
0.00391581
0.00390855
0.00391289
0.00392647
0.00394373
0.0039622
0.00397954
0.00399728
0.00401591
0.00402634
0.0040316
0.00403805
0.00555046
0.00492208
0.00456415
0.00434162
0.00420396
0.00411069
0.00404229
0.00399882
0.00396349
0.00394401
0.00391847
0.00391269
0.00390608
0.00391268
0.00392885
0.00394834
0.00396473
0.00398059
0.00399766
0.00401647
0.00402546
0.00402743
0.00403332
0.00551427
0.00485459
0.00451273
0.00430451
0.00417161
0.00408689
0.00402361
0.00398126
0.00394911
0.00393412
0.00391222
0.0039085
0.00390547
0.00391342
0.00393072
0.00394923
0.0039674
0.00398386
0.00399963
0.00401849
0.0040264
0.00403065
0.00403301
0.00548443
0.00482542
0.00449206
0.00428768
0.00415094
0.0040657
0.00400412
0.00396376
0.00393849
0.00392693
0.00390773
0.00390622
0.00390554
0.00391402
0.00393178
0.00395185
0.00396686
0.00398416
0.00399997
0.00401854
0.00402565
0.00403121
0.00403857
0.00543579
0.00476634
0.00444683
0.00425926
0.00412736
0.00404418
0.00398898
0.00394846
0.00392923
0.00392285
0.00390438
0.00390431
0.00390416
0.00391388
0.00393204
0.0039516
0.00396923
0.00398547
0.00400333
0.00401867
0.0040258
0.00403521
0.00408984
0.00541278
0.00473739
0.00442886
0.00423783
0.00410346
0.00402616
0.00397299
0.00393793
0.0039254
0.00392141
0.0039048
0.00390233
0.00390412
0.00391416
0.00393007
0.0039519
0.00396876
0.00398558
0.00400216
0.00401791
0.00403024
0.00407731
0.00418873
0.00535049
0.00468813
0.00439196
0.00420772
0.00407727
0.00400958
0.00396391
0.00393154
0.00392067
0.0039196
0.0039064
0.00390129
0.00390327
0.0039123
0.00392986
0.00395118
0.00396933
0.00398417
0.00400286
0.00402369
0.00407121
0.00417158
0.0043276
0.00532749
0.00466149
0.00437398
0.00418141
0.00405212
0.00399709
0.00395325
0.00392788
0.00391796
0.00391717
0.00390526
0.00389611
0.00389808
0.00390787
0.00392957
0.0039515
0.00396925
0.00398544
0.00400583
0.0040643
0.00415569
0.00430477
0.00448788
0.00526567
0.00462529
0.00434021
0.00415103
0.00402742
0.00398736
0.00394633
0.00392608
0.00391292
0.00391119
0.00390116
0.00388835
0.00389082
0.00390175
0.00392936
0.00394985
0.00396939
0.00399355
0.00404113
0.00414771
0.00428292
0.00446667
0.00467234
0.00524342
0.00460064
0.00431598
0.00412683
0.0040122
0.00398154
0.00394006
0.0039245
0.00390914
0.00390339
0.00389107
0.00387918
0.00388277
0.00390001
0.00392867
0.00395075
0.00397583
0.00403696
0.00411304
0.00426819
0.00443454
0.00464839
0.00486517
0.00518772
0.00457139
0.00428389
0.00410514
0.00399946
0.00397833
0.00393501
0.00392309
0.00390058
0.00389154
0.00387966
0.00387035
0.00387623
0.00389736
0.00392895
0.00395812
0.00401442
0.00411519
0.00422879
0.00441885
0.00461406
0.00484303
0.00506121
0.0051689
0.00454594
0.004255
0.00409199
0.00399147
0.00397553
0.00393119
0.00391927
0.00389303
0.00388124
0.0038689
0.00386321
0.00387201
0.00389733
0.00393397
0.00399525
0.00409013
0.00422767
0.00436877
0.00459082
0.00480104
0.00504466
0.00526174
0.00512083
0.00451867
0.00422878
0.00408253
0.00398007
0.00397229
0.00392841
0.00391617
0.00388005
0.00386833
0.00386024
0.00385831
0.00386984
0.00389777
0.00396576
0.00406868
0.00419911
0.00436708
0.00453628
0.00477459
0.00499907
0.00524051
0.00544809
0.00510607
0.00449241
0.00420192
0.00407862
0.00396381
0.00396722
0.00392483
0.00391214
0.00387153
0.00386094
0.00385435
0.00385521
0.00386973
0.00391236
0.00403491
0.00417506
0.00433497
0.00452614
0.00471657
0.00496715
0.00519515
0.00543726
0.00563357
0.00506408
0.00446609
0.0041854
0.00407405
0.00396187
0.00395607
0.00391981
0.00390007
0.0038609
0.00385366
0.00385007
0.00385587
0.00388033
0.00396241
0.00413923
0.00430858
0.00449166
0.00470205
0.00490369
0.00515764
0.00538491
0.00561661
0.00579936
0.00505314
0.00444304
0.00416736
0.00407031
0.00396306
0.00394118
0.0039133
0.00389239
0.00385746
0.00385649
0.00385506
0.003875
0.00392654
0.00405037
0.00427136
0.0044633
0.00466158
0.00488152
0.00509515
0.00534777
0.00556852
0.00579003
0.00595794
0.00501618
0.00441971
0.00415864
0.0040634
0.00395999
0.00391616
0.00389538
0.00388054
0.00385157
0.00385255
0.00386565
0.00392124
0.00400526
0.00416818
0.00442447
0.00463059
0.00483891
0.00506669
0.00527788
0.00552415
0.00573488
0.00594683
0.00609697
0.0050105
0.00440186
0.00414729
0.0040516
0.00394279
0.00389405
0.00388296
0.00387587
0.00385636
0.00387893
0.00392217
0.00400677
0.00411864
0.00431103
0.00458946
0.00480524
0.00501681
0.00524331
0.00545671
0.00569536
0.00589315
0.0060873
0.00622715
0.00497333
0.00438626
0.0041377
0.00403815
0.00392106
0.00387222
0.00386839
0.00386785
0.00385898
0.00390874
0.00398589
0.00410466
0.00424641
0.00446393
0.00475934
0.00497887
0.00519134
0.00541665
0.00562111
0.0058452
0.00603208
0.00621708
0.00633854
0.00496626
0.00437393
0.00412617
0.00400773
0.00389325
0.0038536
0.00385845
0.00386829
0.00388264
0.00398967
0.00410917
0.00424925
0.00440863
0.00463745
0.00493731
0.00515497
0.00536096
0.00557603
0.00577363
0.00598858
0.00615899
0.00632455
0.00644007
0.00495589
0.00436714
0.00410867
0.0039857
0.00387759
0.0038438
0.00385355
0.00387547
0.00394362
0.00409412
0.00423802
0.00439021
0.00456459
0.00480114
0.00510459
0.0053182
0.00551907
0.00572732
0.00591474
0.00611165
0.00627325
0.00643176
0.00652695
0.00494937
0.00435407
0.00408732
0.00396576
0.00386673
0.0038375
0.00385319
0.00391232
0.0040382
0.00421565
0.00437874
0.0045376
0.00472
0.00495883
0.00526179
0.00547075
0.0056635
0.00586028
0.00603876
0.00622675
0.00637428
0.0065148
0.00661068
0.00494338
0.0043381
0.00406266
0.00394934
0.00385948
0.00383558
0.00386493
0.00397855
0.00415747
0.00434981
0.00452449
0.00468263
0.00487091
0.00510832
0.00540953
0.00561099
0.00579433
0.00598074
0.00614813
0.00632058
0.00645947
0.00659668
0.00667251
0.0049389
0.00431669
0.00403975
0.003936
0.00385865
0.00384517
0.00390588
0.00407484
0.00429305
0.00449158
0.00467217
0.00482746
0.00501429
0.00524691
0.00554411
0.0057378
0.00591165
0.00608729
0.00624622
0.0064087
0.00653985
0.00665967
0.00673971
0.00493597
0.00428724
0.00401869
0.00392709
0.00386788
0.00387925
0.00398834
0.00418888
0.00443584
0.00463769
0.00481556
0.0049642
0.00514921
0.00537494
0.00566805
0.00585252
0.00601434
0.0061775
0.00632471
0.00647614
0.00659869
0.00671829
0.00678436
0.00493359
0.00426181
0.00400266
0.00392431
0.00389964
0.00395396
0.00409468
0.00431965
0.00458583
0.00478151
0.00495251
0.00509552
0.00527316
0.00549008
0.00577761
0.00595198
0.00610288
0.0062567
0.00639581
0.00654106
0.00666139
0.00676758
0.00683621
0.00492788
0.00423258
0.00399052
0.00393068
0.00395879
0.00405008
0.00423003
0.00445839
0.00472697
0.00491937
0.00508203
0.00521539
0.00538603
0.00559351
0.00587597
0.00604007
0.00617878
0.00632048
0.00644963
0.00658839
0.00670067
0.00680666
0.00687099
0.00492048
0.00421074
0.00398777
0.00396197
0.0040344
0.0041714
0.00437152
0.00460209
0.00486682
0.00504686
0.00519755
0.00532397
0.00548638
0.00568437
0.00596075
0.00611415
0.00624142
0.0063755
0.00649989
0.00663637
0.00674644
0.00684694
0.00690834
0.00490889
0.00419356
0.00398965
0.00401533
0.0041293
0.00430175
0.00452133
0.00473981
0.00499064
0.00516154
0.00530398
0.00542
0.00557438
0.00576371
0.00603451
0.00617806
0.0062952
0.00641935
0.00653852
0.00666919
0.00677064
0.00687241
0.00693638
0.00489017
0.00417869
0.0040159
0.0040939
0.00423017
0.00443677
0.00466183
0.0048764
0.00510223
0.00526282
0.00539308
0.00550131
0.00565002
0.00583219
0.00609746
0.00623122
0.00633837
0.00645682
0.00657786
0.00670427
0.00680419
0.00690334
0.00696001
0.00486895
0.00417388
0.00406072
0.00417637
0.00433861
0.00457072
0.00479688
0.00499328
0.00520221
0.00534933
0.00547155
0.00557192
0.00571391
0.00589027
0.00615047
0.0062756
0.00637501
0.00648745
0.00660852
0.00672621
0.00682011
0.00692467
0.0069873
0.00484415
0.0041753
0.00412308
0.00427376
0.00444454
0.00469249
0.00491588
0.00510455
0.00528279
0.00542395
0.00553397
0.00562904
0.00576751
0.00593992
0.0061956
0.00631278
0.00640551
0.00651398
0.00664209
0.00675149
0.00684838
0.00694563
0.00700298
0.00481972
0.0041857
0.00419543
0.00436617
0.00455183
0.00480946
0.00502157
0.00519352
0.00535788
0.00548778
0.005589
0.00567805
0.00581156
0.00598084
0.00623252
0.00634306
0.00643029
0.00653797
0.00666812
0.00676542
0.00686227
0.00696797
0.00702809
0.00479443
0.00421426
0.00427318
0.00446207
0.00464899
0.00490451
0.00511679
0.0052727
0.00541933
0.00554296
0.00563372
0.00571811
0.00584818
0.00601589
0.00626377
0.00636853
0.00645125
0.0065574
0.00669328
0.00678369
0.00689072
0.00698219
0.00704986
0.00477329
0.00425098
0.00435372
0.00455221
0.00474875
0.00499513
0.00519175
0.00533879
0.00547499
0.00558978
0.00567241
0.00575229
0.00587782
0.00604403
0.00628909
0.00638943
0.00646908
0.00657778
0.0067148
0.00679342
0.00690598
0.00700933
0.00706986
0.00475453
0.00430604
0.00443193
0.00464119
0.00483618
0.0050669
0.00526789
0.00539591
0.00552193
0.00563269
0.00570154
0.00578159
0.00590255
0.00606851
0.00630995
0.00640684
0.00648299
0.00659463
0.00673455
0.00680752
0.00693833
0.00702786
0.00710009
0.00474839
0.00436604
0.00451028
0.00472376
0.00492747
0.00513401
0.00532309
0.0054485
0.0055685
0.00566405
0.00572935
0.00580902
0.00592251
0.0060878
0.00632721
0.00642123
0.00649667
0.00660976
0.00675046
0.00681903
0.00695655
0.00705628
0.00712914
0.00474959
0.0044465
0.00458876
0.00480741
0.00501302
0.00519821
0.00538877
0.00549785
0.00560564
0.00569566
0.00574854
0.00583155
0.00593935
0.00610499
0.00634061
0.00643332
0.00650832
0.00662489
0.0067696
0.00683145
0.00699504
0.00708685
0.00715604
0.00476178
0.00453352
0.00466935
0.0048892
0.00509303
0.00525802
0.00543661
0.00554297
0.00563907
0.00571864
0.00577248
0.0058485
0.0059536
0.00611849
0.00635231
0.00644287
0.00651862
0.0066345
0.00678248
0.00684681
0.0070188
0.00712416
0.007191
0.00479156
0.00463853
0.00475576
0.00497295
0.00517478
0.00532589
0.00549309
0.00558527
0.0056599
0.00573185
0.00578238
0.00586232
0.00596571
0.00613063
0.0063604
0.00645077
0.0065281
0.00664487
0.00680536
0.00686925
0.00706002
0.00714917
0.00721705
0.0048266
0.00474046
0.00484207
0.00505732
0.00524682
0.00538921
0.00554255
0.00561844
0.00568017
0.00574055
0.00578687
0.00587188
0.00597714
0.00614025
0.00636815
0.00645687
0.00653453
0.00665237
0.006818
0.00688472
0.00708751
0.0071723
0.0072375
0.00487424
0.00484764
0.00493488
0.00513861
0.00531844
0.0054459
0.00558143
0.00565022
0.00569523
0.00574841
0.00579474
0.00588156
0.00598607
0.00614873
0.00637273
0.00646175
0.00654184
0.00665923
0.00684018
0.00691541
0.00711748
0.00721224
0.00725903
0.00492069
0.00493722
0.00502343
0.00521637
0.00538049
0.00548696
0.00560527
0.00567233
0.00569816
0.00575555
0.00579958
0.00588721
0.00599623
0.00615557
0.0063775
0.00646565
0.00654992
0.00666527
0.00685937
0.00694472
0.00716157
0.00722703
0.00727327
0.00497249
0.00502614
0.00511171
0.00528512
0.00543553
0.00552167
0.00562193
0.00568635
0.00570778
0.00576245
0.00580461
0.00589482
0.00600268
0.0061614
0.00638073
0.00647032
0.00656053
0.00667593
0.0068799
0.00697717
0.00717468
0.00726102
0.00730137
0.00501935
0.00509451
0.00519177
0.00534896
0.0054865
0.0055513
0.00563943
0.0056972
0.00571909
0.0057691
0.00581094
0.00589841
0.006012
0.00616626
0.00638323
0.00647306
0.00656726
0.00668804
0.00689865
0.00699527
0.00720885
0.00726774
0.00731068
0.00507169
0.00516702
0.00526849
0.00540733
0.00552457
0.00557908
0.00565587
0.00570656
0.00573318
0.00577732
0.00582049
0.00590494
0.00601777
0.00616996
0.00638447
0.0064752
0.00657821
0.00669734
0.00693164
0.00702728
0.00720781
0.0072709
0.00733934
0.00511597
0.0052234
0.00532954
0.00545625
0.00555355
0.00560503
0.00567081
0.00571452
0.00574296
0.00578391
0.00582735
0.00591035
0.00602459
0.0061725
0.00638605
0.00647618
0.00658316
0.00670371
0.00693185
0.00702582
0.00717758
0.00724097
0.00732118
0.00516153
0.00527728
0.00538196
0.00549839
0.00557363
0.00562773
0.00568324
0.00572211
0.00575046
0.00578956
0.00583497
0.00591754
0.00603019
0.00617415
0.00638777
0.00648393
0.0065906
0.00672084
0.00692477
0.00700889
0.00714353
0.00720171
0.00732991
0.00519656
0.00532157
0.00542323
0.00553181
0.00559221
0.00564965
0.00569471
0.00572922
0.00575883
0.0057962
0.00584028
0.00592323
0.0060343
0.00617496
0.00638793
0.00648158
0.00659029
0.00672084
0.00689325
0.00696448
0.00708242
0.00712785
0.00727942
0.00523517
0.00536283
0.00546059
0.00556106
0.00560933
0.00566819
0.00570668
0.00573913
0.00576891
0.0058051
0.00584706
0.00593014
0.00603887
0.00617552
0.00639075
0.00648315
0.00658547
0.00672089
0.00686727
0.00693178
0.00702827
0.00707889
0.00722266
0.00526845
0.0053991
0.00549357
0.00558461
0.00562653
0.00568556
0.0057185
0.00575067
0.00578116
0.00581608
0.00585331
0.00593582
0.00604236
0.00617593
0.00638849
0.00648239
0.00656744
0.00671242
0.00683074
0.00688998
0.00695701
0.00702086
0.00714262
0.00530712
0.00543332
0.00552514
0.00560646
0.00564391
0.00570101
0.00573222
0.00576517
0.00579426
0.00582838
0.00586127
0.00594262
0.0060463
0.00617646
0.00638799
0.0064786
0.00655197
0.00670115
0.00679394
0.00685548
0.00690925
0.0069858
0.00709739
0.00534308
0.00546221
0.00555236
0.00562381
0.00565956
0.00571529
0.00574483
0.00577784
0.00580575
0.00583905
0.00586823
0.00594739
0.00605025
0.006175
0.00638402
0.00647415
0.00653639
0.00668155
0.00675775
0.00682152
0.00687008
0.00694399
0.00703881
0.00537977
0.00548742
0.00557628
0.00564033
0.0056753
0.00572824
0.00575822
0.0057906
0.00581646
0.00584876
0.00587573
0.00595216
0.00605333
0.00617432
0.00637997
0.00646951
0.00652281
0.00665962
0.00672429
0.00678959
0.00683844
0.00690638
0.00698654
0.00541486
0.00551085
0.00559804
0.00565549
0.00569048
0.00574169
0.00577108
0.00580189
0.00582629
0.00585787
0.00588301
0.00595638
0.00605605
0.00617386
0.00637657
0.0064656
0.00651131
0.00663733
0.00669513
0.00676026
0.00681108
0.00687294
0.00694055
0.00544941
0.0055322
0.00561814
0.0056709
0.00570659
0.00575409
0.00578453
0.00581312
0.00583541
0.00586557
0.00589078
0.00596061
0.00605579
0.00617333
0.00637384
0.00646014
0.00649972
0.00661514
0.0066704
0.00673469
0.00678736
0.00684427
0.00690134
0.00548198
0.00555378
0.00563644
0.00568643
0.00572203
0.00576734
0.00579696
0.00582321
0.00584419
0.00587352
0.005898
0.00596462
0.00605592
0.00617322
0.00637257
0.00645563
0.00649096
0.0065946
0.0066498
0.00671314
0.00676804
0.00682184
0.00687026
0.00551072
0.00557446
0.00565481
0.00570178
0.00573818
0.0057791
0.00580975
0.00583375
0.00585251
0.00588046
0.00590579
0.00596838
0.00605725
0.00617184
0.00637115
0.00645123
0.00648612
0.00657637
0.00663346
0.00669675
0.00675403
0.00680415
0.00684684
0.00553864
0.00559609
0.00567276
0.00571841
0.00575308
0.00579246
0.00582126
0.00584393
0.00586098
0.00588797
0.00591282
0.00597233
0.00605681
0.00617151
0.00637072
0.00644938
0.00648172
0.00656145
0.00662077
0.0066851
0.00674477
0.00679439
0.0068309
0.0055611
0.00561833
0.00569049
0.00573369
0.00576886
0.00580407
0.0058336
0.00585448
0.00586968
0.0058954
0.00592045
0.00597587
0.00605694
0.00617111
0.00636961
0.00644791
0.00648162
0.00654927
0.00661132
0.00667745
0.00673984
0.00678926
0.00682087
0.00558475
0.00563948
0.00571054
0.00575082
0.0057825
0.00581736
0.00584446
0.00586553
0.00587788
0.00590266
0.00592728
0.00597959
0.00605862
0.00617082
0.00636941
0.00644624
0.00647946
0.00654098
0.00660453
0.00667261
0.00673716
0.00678682
0.00681486
0.0056041
0.00566246
0.00572726
0.00576588
0.00579806
0.0058295
0.00585673
0.00587587
0.00588724
0.00591044
0.00593459
0.00598336
0.00605758
0.00617094
0.00636918
0.00644482
0.00647933
0.00653512
0.00660005
0.00666976
0.0067356
0.00678437
0.00681131
0.0056248
0.0056824
0.00574828
0.00578228
0.00581116
0.00584191
0.00586735
0.00588696
0.0058954
0.00591764
0.00594135
0.00598631
0.0060581
0.00616899
0.0063676
0.00644359
0.00647873
0.00653223
0.00659733
0.00666815
0.00673487
0.00678354
0.00680961
0.00564435
0.0057021
0.00576383
0.00579725
0.00582618
0.00585422
0.00587905
0.00589676
0.00590409
0.00592428
0.00594766
0.0059904
0.00605807
0.00616854
0.00636722
0.0064428
0.00647729
0.00653064
0.00659602
0.0066673
0.00673433
0.00678314
0.00680878
0.00566294
0.00572151
0.00578296
0.00581153
0.00583958
0.00586513
0.00588927
0.00590649
0.00591277
0.00593176
0.00595508
0.00599309
0.00605739
0.00616849
0.00636765
0.0064414
0.00647606
0.00652905
0.00659529
0.00666651
0.00673349
0.00678278
0.00680823
0.00568404
0.00573772
0.00579737
0.00582779
0.00585395
0.00587828
0.00590105
0.00591556
0.00592036
0.00593721
0.00596034
0.00599699
0.00605695
0.00616597
0.00636683
0.00643848
0.00647346
0.00652575
0.00659394
0.00666548
0.00673131
0.00678215
0.00680667
0.0057056
0.00575783
0.00581725
0.00584137
0.00586801
0.00588986
0.00591094
0.00592604
0.00593062
0.00594439
0.00596893
0.00600166
0.0060565
0.00616535
0.00636411
0.00643319
0.00646763
0.00651879
0.00658874
0.00666029
0.00672136
0.00678012
0.00680006
0.00572834
0.0057773
0.00583181
0.00586033
0.00588528
0.0059036
0.00592586
0.00593503
0.005939
0.00595256
0.00597708
0.00600754
0.00605619
0.00616552
0.00635762
0.00642453
0.00645789
0.00650756
0.00657779
0.00664667
0.00670141
0.00676988
0.00678522
0.00576137
0.00580193
0.00585492
0.00587851
0.00589926
0.0059214
0.00593712
0.0059485
0.00595102
0.00595913
0.00598231
0.00600772
0.00605651
0.00616281
0.00634763
0.00641295
0.00644424
0.00649125
0.00656036
0.00662447
0.00667389
0.00674711
0.00676145
0.00578204
0.0058197
0.00587144
0.00589572
0.00591775
0.00592859
0.00594253
0.00595674
0.0059632
0.00596937
0.00598629
0.00600851
0.0060543
0.00615849
0.00633475
0.00639799
0.00642721
0.00647099
0.00653735
0.00659553
0.00664043
0.00671418
0.00672996
0.00579446
0.00582786
0.00587365
0.00589796
0.00592387
0.00593207
0.00594957
0.00596289
0.00596475
0.00597348
0.00599179
0.00600998
0.00605382
0.00615322
0.00631956
0.00638131
0.0064081
0.00644783
0.00650978
0.00656234
0.00660369
0.00667564
0.006693
0.00579514
0.00584087
0.00587699
0.00590109
0.00592759
0.00593771
0.00595513
0.00596246
0.0059667
0.00597524
0.00599161
0.00601171
0.00605416
0.00614757
0.00630347
0.00636305
0.00638779
0.00642345
0.0064799
0.00652722
0.00656609
0.00663502
0.00665428
0.00579766
0.0058414
0.00588627
0.00590822
0.0059296
0.00593783
0.00595703
0.00596336
0.00597071
0.00597877
0.00599215
0.00601151
0.0060533
0.00614175
0.00628694
0.00634514
0.00636782
0.00639944
0.00644978
0.00649343
0.00653059
0.00659586
0.00661666
0.0058032
0.00584346
0.00589356
0.00591112
0.00593063
0.00593899
0.0059613
0.00596663
0.00597351
0.00598218
0.00599592
0.00601131
0.00605253
0.00613628
0.0062715
0.0063278
0.0063487
0.00637681
0.00642112
0.00646204
0.00649845
0.00656011
0.00658257
0.00581232
0.0058511
0.00589047
0.00591747
0.00593041
0.00594086
0.00595977
0.00596807
0.00597325
0.00598421
0.0059944
0.00601138
0.00605107
0.00613076
0.00625666
0.00631238
0.00633177
0.00635679
0.00639536
0.00643473
0.00647111
0.00652869
0.00655302
0.0058103
0.00584724
0.00588913
0.00591517
0.00593333
0.00594678
0.00596162
0.00596957
0.00597542
0.00598659
0.00599546
0.00601173
0.00604906
0.00612594
0.00624389
0.00629867
0.00631658
0.00633926
0.00637297
0.00641126
0.00644835
0.00650215
0.00652835
0.0058107
0.00585226
0.00589177
0.00591443
0.00592977
0.00594435
0.00596258
0.00596706
0.00597537
0.00598395
0.00599517
0.0060121
0.00604794
0.00612096
0.00623153
0.00628714
0.00630391
0.00632433
0.00635435
0.00639176
0.00642957
0.00648008
0.00650818
0.00581136
0.00584981
0.00588998
0.00591415
0.00593035
0.00594419
0.0059588
0.00596732
0.00597611
0.00598326
0.00599458
0.00600969
0.00604429
0.00611683
0.00622166
0.00627748
0.00629296
0.00631185
0.00633911
0.00637578
0.0064146
0.00646172
0.00649092
0.00581095
0.00585342
0.00588899
0.00591655
0.00593184
0.00594438
0.00595846
0.00596862
0.00597265
0.00598299
0.00599434
0.00601031
0.00604359
0.00611227
0.00621161
0.00626905
0.00628378
0.00630107
0.00632628
0.00636244
0.00640152
0.00644677
0.00647591
0.00581113
0.00584707
0.00588845
0.00591769
0.00593134
0.00594614
0.00595783
0.00596847
0.0059723
0.00598386
0.00599255
0.00600944
0.00604398
0.00610863
0.00620429
0.00626223
0.00627599
0.0062923
0.00631616
0.00635177
0.00639075
0.00643354
0.00646338
0.00581408
0.00584738
0.00589109
0.00591223
0.00593203
0.00594163
0.00595753
0.00596812
0.00597315
0.00598015
0.00599224
0.00600898
0.00604207
0.00610426
0.00619597
0.00625542
0.00626911
0.00628429
0.00630714
0.00634243
0.00638074
0.00642215
0.00645218
0.00580578
0.00585065
0.00589154
0.00591159
0.00592659
0.00594099
0.00595816
0.00596703
0.00596911
0.00597965
0.00598982
0.00600591
0.00604024
0.00610111
0.00619048
0.00625023
0.00626329
0.00627791
0.00630019
0.00633517
0.00637267
0.00641213
0.0064432
0.00580544
0.00584322
0.00588615
0.00590998
0.00592646
0.0059389
0.00595517
0.0059669
0.00596858
0.00597796
0.00598887
0.00600522
0.00603648
0.00609676
0.006183
0.00624422
0.00625792
0.00627185
0.00629346
0.00632817
0.00636482
0.00640289
0.00643549
0.00580662
0.00584212
0.00588419
0.00591393
0.00592843
0.00593854
0.00595667
0.00596193
0.00596676
0.00597755
0.00598901
0.00600073
0.00603133
0.0060939
0.00617841
0.00623982
0.00625322
0.00626688
0.0062883
0.00632241
0.00635868
0.00639476
0.00642874
0.00580454
0.00584518
0.00588029
0.005908
0.00592256
0.00593684
0.00595144
0.00596094
0.00596557
0.00597603
0.00598452
0.0060001
0.00603043
0.00608936
0.00617072
0.00623462
0.00624841
0.00626188
0.00628304
0.00631657
0.00635222
0.0063871
0.006421
0.00580132
0.00584752
0.00587936
0.00590702
0.00592239
0.00593622
0.00595108
0.00595857
0.00597009
0.00597553
0.00598787
0.00600205
0.00603168
0.00608651
0.00616633
0.00623004
0.00624388
0.00625777
0.00627745
0.00630993
0.00634688
0.00638065
0.00641444
0.00579722
0.00583693
0.00587638
0.00590668
0.00592309
0.00593909
0.00595326
0.00595816
0.00596595
0.00597621
0.00598386
0.00600185
0.00603069
0.00608127
0.00615767
0.0062256
0.00623993
0.00625304
0.006272
0.00630368
0.00634096
0.00637456
0.00640653
0.00579649
0.00583432
0.00587525
0.00589806
0.00592548
0.005939
0.00595443
0.0059564
0.00596797
0.00597711
0.00598618
0.00599839
0.00602658
0.00607788
0.00615299
0.00622051
0.00623561
0.00624989
0.00626764
0.00629819
0.00633611
0.0063696
0.00640131
0.00578319
0.00582897
0.00587947
0.00589594
0.00592453
0.00593664
0.00595164
0.005956
0.00596831
0.00597548
0.00598539
0.00599547
0.00602286
0.00607212
0.00614326
0.00621269
0.00623137
0.00624527
0.00626303
0.00629099
0.00632858
0.0063632
0.00639402
0.00578071
0.00582712
0.00587928
0.00589585
0.00591903
0.00593203
0.00594871
0.00595864
0.00596618
0.00597267
0.00598161
0.00599372
0.00601915
0.00606911
0.00613816
0.00620805
0.00622732
0.00624226
0.00626009
0.00628689
0.00632364
0.00635897
0.00638992
0.00578514
0.00582251
0.005874
0.00588647
0.00591462
0.00592933
0.00594423
0.00595753
0.00596295
0.00596565
0.00597563
0.00598687
0.00601329
0.00606271
0.00612723
0.00619743
0.00622218
0.00623768
0.00625463
0.00627892
0.00631297
0.00635024
0.00638148
0.00578253
0.00581993
0.00586661
0.00588571
0.00590884
0.00592467
0.00594051
0.0059524
0.00595698
0.00596139
0.005968
0.00598532
0.00600575
0.00606002
0.0061222
0.00619269
0.00622008
0.00623395
0.0062521
0.0062742
0.00630711
0.00634495
0.00637637
0.0057768
0.00582263
0.00585884
0.0058897
0.00590157
0.00592135
0.00593447
0.00594439
0.00594803
0.00596025
0.00596562
0.00598575
0.00600307
0.00605327
0.00610991
0.00618396
0.00621305
0.0062299
0.00624734
0.00626722
0.0062977
0.00633441
0.00636581
0.0057671
0.00581514
0.0058515
0.00588631
0.00589729
0.00591691
0.00592304
0.00593304
0.00594488
0.00595377
0.00596613
0.00598232
0.00600211
0.00604415
0.00609668
0.0061738
0.00620699
0.0062218
0.0062402
0.00626006
0.00628757
0.00632338
0.00635498
0.0057473
0.00580013
0.0058378
0.00587621
0.00588714
0.00591282
0.00591958
0.00592917
0.0059451
0.00595354
0.00596194
0.00597732
0.00599612
0.00603428
0.00608266
0.00615976
0.00619631
0.00621272
0.0062337
0.00625284
0.00627652
0.00631268
0.00634376
0.0057415
0.00577803
0.00581724
0.00585565
0.00588588
0.00590469
0.00592074
0.00592977
0.00594003
0.0059417
0.00595485
0.00597118
0.00598751
0.00602271
0.00606731
0.00614115
0.00618443
0.0062022
0.00622578
0.0062455
0.00626612
0.00630017
0.00633385
0.00574409
0.00577035
0.00580975
0.00584619
0.0058771
0.00589299
0.00591565
0.00592287
0.00593279
0.00593332
0.00594782
0.0059631
0.00597659
0.00601082
0.00605088
0.00611654
0.00616929
0.00618799
0.0062172
0.00623645
0.00625539
0.00628683
0.00632059
0.00572964
0.00577125
0.00580743
0.00582726
0.00586813
0.00588247
0.00590458
0.00591276
0.0059241
0.00592148
0.00593838
0.00595106
0.00596635
0.00599879
0.0060333
0.00608837
0.00614959
0.00617508
0.00620934
0.0062294
0.00624553
0.00627153
0.006301
0.00570448
0.00576069
0.00578679
0.00582491
0.00585408
0.00586813
0.00588675
0.00589995
0.00591169
0.00591065
0.00592714
0.00593727
0.00595491
0.00598541
0.00601445
0.00605756
0.00611871
0.00615629
0.00619273
0.0062184
0.00623503
0.00625412
0.00627672
0.00566949
0.0057443
0.00577022
0.00581051
0.00583633
0.00585259
0.00586755
0.00588623
0.00589669
0.00590381
0.00591239
0.00592169
0.00593995
0.00596852
0.00599492
0.00602849
0.00608197
0.00612591
0.00616442
0.00619421
0.0062135
0.00622823
0.00624643
0.00562314
0.00572165
0.00573389
0.00578953
0.00581372
0.00582951
0.00584694
0.00586689
0.00587666
0.00588893
0.00589621
0.0059049
0.00592294
0.00594894
0.00597281
0.00599882
0.00604115
0.00608388
0.00612382
0.00615683
0.00618017
0.00619236
0.00620578
0.00560718
0.00569642
0.00570638
0.00576663
0.00579047
0.00580514
0.0058263
0.00584476
0.00585551
0.00586979
0.00587746
0.00588643
0.00590239
0.00592518
0.0059487
0.00596912
0.00600179
0.00604006
0.00607679
0.0061087
0.00613556
0.00614945
0.0061631
0.00560355
0.00566456
0.0056773
0.00573827
0.00576197
0.00577827
0.00580102
0.00581632
0.00582845
0.00584644
0.00585556
0.00586365
0.00587855
0.00589857
0.005921
0.00593807
0.00596199
0.00599106
0.00602362
0.00605147
0.00607817
0.00609175
0.00610458
0.00558345
0.00563086
0.00566238
0.00570545
0.00573204
0.00575116
0.0057727
0.00578724
0.00580093
0.00581795
0.00582915
0.00583818
0.00585086
0.00586642
0.00588824
0.00590446
0.00592459
0.0059483
0.00597466
0.00599744
0.00602278
0.00603771
0.00605197
0.00552698
0.00558881
0.00562535
0.00566442
0.0056937
0.00571513
0.00573618
0.0057516
0.00576503
0.00578242
0.00579419
0.0058033
0.00581744
0.00583162
0.00585063
0.00586462
0.00588043
0.00589786
0.0059202
0.00593732
0.0059583
0.00597107
0.00598563
0.00547408
0.00554258
0.00557442
0.00561899
0.0056537
0.00567349
0.00569385
0.00571387
0.00572922
0.00574335
0.00575452
0.00576463
0.00577665
0.00578892
0.00580765
0.00582246
0.00583791
0.00585193
0.00587056
0.00588393
0.00590135
0.00591158
0.00592465
0.00538663
0.00548333
0.00550867
0.00556264
0.00560231
0.00562007
0.00564019
0.00566511
0.00568066
0.00569404
0.00570454
0.0057154
0.00572984
0.00574103
0.00575658
0.00576955
0.00578413
0.00579576
0.00581226
0.00582274
0.00583812
0.00584626
0.00585849
0.005301
0.00541893
0.00544368
0.00550487
0.00554966
0.00556379
0.00558232
0.00561121
0.00563153
0.00564323
0.00565233
0.00566223
0.00567449
0.00568726
0.00570258
0.00571556
0.00573042
0.00574069
0.0057556
0.0057638
0.00577555
0.00578117
0.00579072
0.00521461
0.00534144
0.00537224
0.00543676
0.00548208
0.00549586
0.00551419
0.00554332
0.00556172
0.00557589
0.00558686
0.00559929
0.00561125
0.00562076
0.00563505
0.00564487
0.00565909
0.00566705
0.00568083
0.00568845
0.00570165
0.00570785
0.00571868
0.00514034
0.0052627
0.00530338
0.00536681
0.00541269
0.00542619
0.00544515
0.0054716
0.00549355
0.00550608
0.00551627
0.00552726
0.00554192
0.00555245
0.00556626
0.00557571
0.00558855
0.00559582
0.00560647
0.00561124
0.00561905
0.00562355
0.0056318
0.00508319
0.00516961
0.00521946
0.00527893
0.00532339
0.00533863
0.00535941
0.00538279
0.00539862
0.00541572
0.00542818
0.00543929
0.00545024
0.00545984
0.00547285
0.00548132
0.00549302
0.00549947
0.00551024
0.00551775
0.00552798
0.00553274
0.00554065
0.00501446
0.00507539
0.00513222
0.0051872
0.00523162
0.00524856
0.00527038
0.0052916
0.00531037
0.00532264
0.00533563
0.00534712
0.00536075
0.00536941
0.00538187
0.00538895
0.00539997
0.00540557
0.00541385
0.0054192
0.00542925
0.0054356
0.0054483
0.00491476
0.00495901
0.0050195
0.00506917
0.00511281
0.00513111
0.00515328
0.00517384
0.00518804
0.00520543
0.00521621
0.00522667
0.00523718
0.00524818
0.00526118
0.00527152
0.00528147
0.005287
0.00529598
0.00530027
0.00530785
0.00531242