/*--------------------------------*- C++ -*----------------------------------*\
  =========                 |
  \\      /  F ield         | OpenFOAM: The Open Source CFD Toolbox
   \\    /   O peration     | Website:  https://openfoam.org
    \\  /    A nd           | Version:  7
     \\/     M anipulation  |
\*---------------------------------------------------------------------------*/
FoamFile
{
    version     2.0;
    format      ascii;
    class       volScalarField;
    location    "43";
    object      nut;
}
// * * * * * * * * * * * * * * * * * * * * * * * * * * * * * * * * * * * * * //

dimensions      [0 2 -1 0 0 0 0];

internalField   nonuniform List<scalar> 
12842
(
0.00180956
0.00179537
0.00178502
0.00177898
0.00176953
0.00176729
0.00176255
0.00176538
0.00175856
0.00176208
0.00175501
0.00175788
0.00175386
0.00175837
0.00169605
0.000882237
0.000534968
0.000363842
0.000265728
0.000204058
0.000163241
0.000135458
0.000116222
0.00181229
0.00179211
0.00178533
0.00177417
0.00176962
0.0017609
0.0017552
0.00176034
0.00175524
0.00175949
0.00175326
0.00175717
0.00175446
0.00175892
0.00159557
0.000833497
0.000507748
0.000347277
0.000254948
0.0001969
0.000158405
0.000132416
0.000113822
0.00180697
0.00179707
0.0017887
0.00178389
0.00177438
0.00177227
0.00176021
0.00176126
0.00175831
0.00176195
0.00175549
0.00175963
0.00175665
0.00175999
0.00153151
0.000806474
0.00049501
0.000340288
0.000250835
0.000194337
0.000156507
0.000131123
0.000112262
0.00180998
0.00178257
0.00177528
0.00177925
0.00177613
0.00177261
0.00176767
0.00176295
0.00175798
0.00176168
0.00175774
0.00176174
0.00175927
0.00176146
0.00145278
0.000771548
0.000476963
0.000329909
0.00024404
0.000189693
0.000153044
0.000129249
0.00011049
0.00180972
0.00179562
0.00177113
0.00176477
0.00176719
0.001768
0.00176763
0.00176908
0.00176185
0.00176304
0.00175798
0.00176188
0.00175998
0.0017619
0.00137858
0.000737132
0.000458647
0.0003185
0.000236735
0.000184786
0.000149463
0.000126735
0.000108444
0.00180573
0.00178906
0.00178055
0.00177053
0.00176398
0.00176484
0.00176359
0.00176434
0.00176324
0.00176266
0.00175927
0.0017623
0.00176016
0.00176213
0.00131995
0.00070915
0.000442945
0.00030863
0.000230117
0.000180264
0.000146102
0.000124445
0.000106397
0.00180722
0.001785
0.00177608
0.00176999
0.00176439
0.00176094
0.0017609
0.00176262
0.00176233
0.00176423
0.00175941
0.00176128
0.0017606
0.00176325
0.00128624
0.000691753
0.000432792
0.000302081
0.000225529
0.000176991
0.000143515
0.000122741
0.00010466
0.00180627
0.00178435
0.00178111
0.00177237
0.00176236
0.00176024
0.00175741
0.00175761
0.00176098
0.00176341
0.00176017
0.00176109
0.00176099
0.00176383
0.00125935
0.000676225
0.000422417
0.000294879
0.000220338
0.000173142
0.000140425
0.000120496
0.000102751
0.00180537
0.00178042
0.00177762
0.00177407
0.00176183
0.00175635
0.00175682
0.00175501
0.00176088
0.00176477
0.0017601
0.0017607
0.00176061
0.00176378
0.0012421
0.000665236
0.000415136
0.000289677
0.000216694
0.000170374
0.000138179
0.000118971
0.000102578
0.00180358
0.00178256
0.00178167
0.00177234
0.00175791
0.00175568
0.00175454
0.00175333
0.00176073
0.00176534
0.00176157
0.00176037
0.00176098
0.00176383
0.0012283
0.000658121
0.000410825
0.000286857
0.000214599
0.000168892
0.000137064
0.000119283
0.000104154
0.00180119
0.00178038
0.00177961
0.0017708
0.00175503
0.00175429
0.00175523
0.0017539
0.00176122
0.00176638
0.00176366
0.00176111
0.00176151
0.00176363
0.00120612
0.000646657
0.00040407
0.000282365
0.000211529
0.000166871
0.000136599
0.000120526
0.000106271
0.00179997
0.00178366
0.00178131
0.00176561
0.00175222
0.0017557
0.00175382
0.00175436
0.00176153
0.0017666
0.0017649
0.00176034
0.00176053
0.00176262
0.00118193
0.000634639
0.00039683
0.00027792
0.00020835
0.000166074
0.00013744
0.000122695
0.000108782
0.0017968
0.00178397
0.00177851
0.00176226
0.00175079
0.00175746
0.00175403
0.00175715
0.0017616
0.00176601
0.00176484
0.0017586
0.00175871
0.00176075
0.0011591
0.000623259
0.00039086
0.000274456
0.000207043
0.000167082
0.000139713
0.000125628
0.000111889
0.00179565
0.00178744
0.00177527
0.00175792
0.00175245
0.00175933
0.00175345
0.00175886
0.00176192
0.00176431
0.00176206
0.00175647
0.00175674
0.00176058
0.00114015
0.000617019
0.000387358
0.000273942
0.000207803
0.000169647
0.000142822
0.000129076
0.000115252
0.00179319
0.00178666
0.00177275
0.00175832
0.00175468
0.00176204
0.00175474
0.00176287
0.00176134
0.0017618
0.0017592
0.00175428
0.00175506
0.00175914
0.00113373
0.000615578
0.000387888
0.000276024
0.000210834
0.000173388
0.000146835
0.000132831
0.000118781
0.0017926
0.00178799
0.00176726
0.00175898
0.00175654
0.00176272
0.00175533
0.00176361
0.00176004
0.00175932
0.00175629
0.00175311
0.00175338
0.00175324
0.0011387
0.000620646
0.000392603
0.000280432
0.000215048
0.00017794
0.000151147
0.000136785
0.000122587
0.00179138
0.00178539
0.00176547
0.00176314
0.00175517
0.00176376
0.00175963
0.00176761
0.00175858
0.0017574
0.00175479
0.00175147
0.00174781
0.00173173
0.00115572
0.000631633
0.000400514
0.000286599
0.000220658
0.000183018
0.000155992
0.000140727
0.000126388
0.00179133
0.00178309
0.00176241
0.00176594
0.00174998
0.00176305
0.00176136
0.00176914
0.00175693
0.00175545
0.00175406
0.00174945
0.00173021
0.00170237
0.00118508
0.000648104
0.000411127
0.000294176
0.000227104
0.000188684
0.000161166
0.000145048
0.00013067
0.00179087
0.00178052
0.00176189
0.00176931
0.00175051
0.00176147
0.00176664
0.00176951
0.00175579
0.00175474
0.00175259
0.00174162
0.00170245
0.00167734
0.0012252
0.000668164
0.000423679
0.000303099
0.000234307
0.000194751
0.000166746
0.000149496
0.000135196
0.00179111
0.00177646
0.00176251
0.00177099
0.00175209
0.00175724
0.00176903
0.00176828
0.00175467
0.00175284
0.001749
0.00172612
0.00167867
0.00166198
0.00127254
0.00069187
0.000437895
0.000312832
0.000242363
0.000201469
0.000172962
0.000154649
0.000140389
0.00179133
0.00177389
0.00176357
0.00177107
0.00175257
0.0017522
0.00176741
0.00176644
0.00175273
0.00175139
0.00174086
0.00171379
0.00166234
0.00165527
0.00132547
0.000717273
0.000453154
0.000323549
0.000250865
0.0002086
0.000179643
0.000160479
0.000146123
0.00179244
0.0017689
0.00176534
0.00177028
0.00174753
0.00174659
0.00176549
0.00176382
0.00174726
0.00174255
0.00173142
0.00170264
0.00165504
0.00165805
0.0013808
0.000744884
0.000469446
0.000334828
0.000260292
0.000216623
0.000187271
0.000167221
0.000152685
0.00179166
0.00176757
0.00176533
0.00176721
0.00174002
0.00174204
0.00176304
0.00176056
0.00174018
0.00173677
0.00172258
0.00169624
0.00165423
0.00166563
0.00143864
0.000773234
0.000486428
0.000346926
0.000270254
0.000225152
0.000195566
0.000175301
0.000160131
0.0017928
0.00176219
0.0017652
0.00175749
0.00173247
0.00173795
0.00175872
0.00175305
0.0017247
0.00172779
0.00171608
0.001693
0.00166
0.00167928
0.00149279
0.000800875
0.000502969
0.000358877
0.00028062
0.000234538
0.000204701
0.000184295
0.000168609
0.00179434
0.00175983
0.00176144
0.00175248
0.00172823
0.00173575
0.00175515
0.00173463
0.00171128
0.00172249
0.00171084
0.0016928
0.00166943
0.00169457
0.00154181
0.000826558
0.000519093
0.000371153
0.000291567
0.000244463
0.000214683
0.000194675
0.000178202
0.00179891
0.00175567
0.00175777
0.00174568
0.00172401
0.00173328
0.00174336
0.00171279
0.00170099
0.0017167
0.00170968
0.00169604
0.00168084
0.00171051
0.00158868
0.000852285
0.000535755
0.000384064
0.000303319
0.000255599
0.000225664
0.000205684
0.000188868
0.00180108
0.00175248
0.00175286
0.00174154
0.0017162
0.00172771
0.00172076
0.00169316
0.00169657
0.0017143
0.00170816
0.00169919
0.00169388
0.00172665
0.00163709
0.000878977
0.000553037
0.000397607
0.000315671
0.000267156
0.000237113
0.000217576
0.000199895
0.0018062
0.00174828
0.00174894
0.00173409
0.00170695
0.00171563
0.00169709
0.00167836
0.00169509
0.00171403
0.00171089
0.00170618
0.00170746
0.001742
0.00168454
0.000905005
0.000570518
0.000411458
0.000328328
0.000279248
0.000249194
0.000229463
0.00021159
0.00180863
0.00174366
0.001745
0.0017284
0.001691
0.00169478
0.00168497
0.0016696
0.00169635
0.00171595
0.00171324
0.00171233
0.00172177
0.00175683
0.00173029
0.000930936
0.00058773
0.000425277
0.000340944
0.000291335
0.000260945
0.000241512
0.000223001
0.00181315
0.00174113
0.00174273
0.00171655
0.0016837
0.00168411
0.00167593
0.00166589
0.00170265
0.00172168
0.00171854
0.0017225
0.00173594
0.00177037
0.00177362
0.000955105
0.000604618
0.000439027
0.000353547
0.00030358
0.000273336
0.000253471
0.00023488
0.00181411
0.00173497
0.00173878
0.00170502
0.00167942
0.00167266
0.0016803
0.00167003
0.00170786
0.00172809
0.00172601
0.00173156
0.00174992
0.00178305
0.00181506
0.000979395
0.000621278
0.000452783
0.000366067
0.000315741
0.000285068
0.000265169
0.000246377
0.00181589
0.00173316
0.00173557
0.00169589
0.00168112
0.00167374
0.00168518
0.00167843
0.0017191
0.00173757
0.00173442
0.00174378
0.0017631
0.00179437
0.00183879
0.00100198
0.000637509
0.000466238
0.000378497
0.000327946
0.00029731
0.00027688
0.000258103
0.00181574
0.00172912
0.00172756
0.00169198
0.00168254
0.00167648
0.00169841
0.00169064
0.00172685
0.00174637
0.00174518
0.00175405
0.00177544
0.00180463
0.00184632
0.0010249
0.000653671
0.000479849
0.000390875
0.000339825
0.000308776
0.000287993
0.000269544
0.0018143
0.00172741
0.00172323
0.00169319
0.0016874
0.00168714
0.00170903
0.00170677
0.00173838
0.00175729
0.00175562
0.00176521
0.00178607
0.00181369
0.0018527
0.00104648
0.000669487
0.00049304
0.000403228
0.000351779
0.000320508
0.000298913
0.000280696
0.00181372
0.00172394
0.00172254
0.0016931
0.00168949
0.00169984
0.00172389
0.0017211
0.00174746
0.00176608
0.00176476
0.00177463
0.00179583
0.00182159
0.0018582
0.00106859
0.000685342
0.000506508
0.000415425
0.000362956
0.000331348
0.000309045
0.000291763
0.00181148
0.00172491
0.00172689
0.00169948
0.00169632
0.00171255
0.00173467
0.00173793
0.00175696
0.00177485
0.00177358
0.00178202
0.00180373
0.00182849
0.00186294
0.00108993
0.000701098
0.000519474
0.00042758
0.000374326
0.00034223
0.000318669
0.000302219
0.00180984
0.00172108
0.00173166
0.00170402
0.00170087
0.00172859
0.00174699
0.0017506
0.00176602
0.00178267
0.00178131
0.00178929
0.00180993
0.00183425
0.00186682
0.00111199
0.000716983
0.000532762
0.000439461
0.000384592
0.000352114
0.000327665
0.000312464
0.0018071
0.00172535
0.00173979
0.00171356
0.0017109
0.00173868
0.00175748
0.00176339
0.00177455
0.00178783
0.00178967
0.00179648
0.0018153
0.00183923
0.00187007
0.00113406
0.000732883
0.000545575
0.000451023
0.00039495
0.000362057
0.000335964
0.000322517
0.00180573
0.00172509
0.00174284
0.00172277
0.00171991
0.00175151
0.00176533
0.00177237
0.0017822
0.00179146
0.00179519
0.00180176
0.00181915
0.00184309
0.00187274
0.00115693
0.000749157
0.000558503
0.000462232
0.000404544
0.000371078
0.000344041
0.000331717
0.00180039
0.00173344
0.00174595
0.00173335
0.00173217
0.0017588
0.00177515
0.00178103
0.00178681
0.00179744
0.00179982
0.00180795
0.00182305
0.0018464
0.00187472
0.00118086
0.000765538
0.000571535
0.000473391
0.000414235
0.000380338
0.000351495
0.000341451
0.00179817
0.00173587
0.00174318
0.00174211
0.00174364
0.00176595
0.00177941
0.00178627
0.0017922
0.00180003
0.00180597
0.0018149
0.00182564
0.00184871
0.00187646
0.00120553
0.000782518
0.000584223
0.000483758
0.000423254
0.000388759
0.000359012
0.000349808
0.00179107
0.00174485
0.00173865
0.00175021
0.00175643
0.00177157
0.00178742
0.0017932
0.00179467
0.00180526
0.00180995
0.00182081
0.00182814
0.00185075
0.00187748
0.00123235
0.000800084
0.00059779
0.000494751
0.000432697
0.000397767
0.000365264
0.000358399
0.00178498
0.00175015
0.00173361
0.00175747
0.00176454
0.00177571
0.00178972
0.00179572
0.0017988
0.00180966
0.00181388
0.00182479
0.00182979
0.00185196
0.00187851
0.00126018
0.00081844
0.000611052
0.000505358
0.000442503
0.000405284
0.000372272
0.000364798
0.00178199
0.00175962
0.00172994
0.00176182
0.00177438
0.00178167
0.00179511
0.00180067
0.00179752
0.00180932
0.00181536
0.00182746
0.00183172
0.00185308
0.00187876
0.00129067
0.000837845
0.000625632
0.000516921
0.000451907
0.000415195
0.000376978
0.000369713
0.00178018
0.00176499
0.00172757
0.00176777
0.00177941
0.00178555
0.00179999
0.00180169
0.00180041
0.00181045
0.00181578
0.00182807
0.00183289
0.00185349
0.00187945
0.00132329
0.000858559
0.000640604
0.000528884
0.000461711
0.00042265
0.000381236
0.000374605
0.00178347
0.00176903
0.00172924
0.00176998
0.00178518
0.00178947
0.00180063
0.00180333
0.00180349
0.00181194
0.00181647
0.00183083
0.00183333
0.00185408
0.00187917
0.00135876
0.000881307
0.000657512
0.000542289
0.000473736
0.000430655
0.000385594
0.000378933
0.00178356
0.0017724
0.00173375
0.00177452
0.00178991
0.00178945
0.00180288
0.00180912
0.00180274
0.00181261
0.0018151
0.00183208
0.00183617
0.00185387
0.00187945
0.00139808
0.000905425
0.000676203
0.000557648
0.000484778
0.000439839
0.000388914
0.000381982
0.00178746
0.00177473
0.00174131
0.00177679
0.00179494
0.00179094
0.00180582
0.00181201
0.00180305
0.00181487
0.00181702
0.00183261
0.00183777
0.0018542
0.00187928
0.00144108
0.000937031
0.000697517
0.000574653
0.0004983
0.00044865
0.000396586
0.000387686
0.00178739
0.00177498
0.00174949
0.00178141
0.00179999
0.00179088
0.00180738
0.00181145
0.00180404
0.00181514
0.00181859
0.00183207
0.00184008
0.00185366
0.00187891
0.00148699
0.000966859
0.00072203
0.000592847
0.00051173
0.000459218
0.000403468
0.000391834
0.00178994
0.0017795
0.00175928
0.00178633
0.00180129
0.00179262
0.00180685
0.00180954
0.00180627
0.00181444
0.00181961
0.00183216
0.00184064
0.00185352
0.00187871
0.00153074
0.00099521
0.000745785
0.000615483
0.000524437
0.000467019
0.000411387
0.000397537
0.00178975
0.00178647
0.00176826
0.00179131
0.00180181
0.00179482
0.00180726
0.00180749
0.00180722
0.00181391
0.00181929
0.00183241
0.00184202
0.00185299
0.00187828
0.00156824
0.0010237
0.000766478
0.00063098
0.00053229
0.000475246
0.000419063
0.000400034
0.00179066
0.00179336
0.00177643
0.00179603
0.00179987
0.00179728
0.0018064
0.00180584
0.00180759
0.00181348
0.00181914
0.00183302
0.00184221
0.00185235
0.0018786
0.00160181
0.00104243
0.000787267
0.000643449
0.000539719
0.000481305
0.00042461
0.000403846
0.00178929
0.0017997
0.00178312
0.00179933
0.00179956
0.00179963
0.00180628
0.001805
0.00180773
0.0018133
0.00181821
0.00183285
0.00184244
0.00185191
0.00187797
0.00162534
0.00106091
0.000800631
0.000648782
0.000542524
0.000484597
0.000428074
0.000404934
0.00178929
0.00180432
0.00178863
0.00180293
0.0017989
0.00180112
0.0018055
0.00180489
0.00180837
0.00181389
0.00181773
0.00183273
0.00184217
0.00185122
0.00187889
0.00164341
0.0010725
0.000807689
0.000651851
0.000544486
0.00048709
0.000431467
0.000405011
0.00178884
0.00180874
0.001794
0.00180516
0.00179932
0.00180252
0.00180541
0.00180578
0.0018092
0.0018149
0.0018173
0.00183227
0.00184219
0.00185092
0.00187902
0.00166369
0.0010862
0.000816209
0.00065646
0.00054807
0.000491139
0.000436531
0.000406411
0.00178997
0.00181131
0.00179823
0.00180759
0.00179991
0.0018034
0.00180543
0.00180723
0.00181029
0.00181627
0.00181712
0.00183222
0.00184176
0.00185042
0.00187912
0.00165677
0.00107911
0.000808864
0.000647194
0.000540933
0.000485125
0.000433753
0.000402815
0.00179106
0.00181268
0.00180167
0.00180825
0.00180078
0.00180449
0.00180605
0.00180844
0.00181085
0.00181722
0.001817
0.00183171
0.00184191
0.00184997
0.00187923
0.0016654
0.00108278
0.000809116
0.000645583
0.000540735
0.000483918
0.000436554
0.00040264
0.00179314
0.00181249
0.00180368
0.001809
0.0018017
0.00180515
0.00180665
0.00180943
0.00181147
0.00181773
0.00181677
0.00183139
0.00184166
0.0018496
0.00187923
0.00170275
0.00111246
0.000832193
0.000664217
0.000558197
0.000499405
0.000452854
0.000414999
0.00179502
0.0018121
0.00180503
0.00180855
0.00180249
0.00180607
0.00180749
0.00180988
0.00181147
0.00181803
0.00181666
0.00183056
0.00184139
0.00184956
0.00187907
0.00172923
0.00113114
0.000845204
0.000675035
0.000568636
0.000508505
0.000463457
0.000423242
0.00179753
0.00181078
0.00180553
0.00180845
0.00180313
0.00180657
0.00180831
0.00181002
0.00181171
0.00181756
0.00181647
0.00182998
0.00184017
0.0018494
0.00187898
0.00175156
0.00114503
0.000853556
0.000683357
0.000576616
0.000515243
0.000471486
0.000430787
0.00179975
0.00181025
0.00180568
0.00180798
0.00180351
0.0018072
0.0018089
0.0018097
0.00181145
0.00181737
0.00181639
0.00182903
0.00183914
0.0018494
0.00187899
0.00178217
0.00116468
0.000866243
0.000695016
0.000587163
0.000524391
0.000481426
0.000440212
0.00180193
0.00180926
0.00180574
0.00180782
0.00180367
0.00180763
0.0018098
0.00180948
0.00181156
0.00181663
0.00181646
0.00182832
0.0018386
0.00184896
0.001879
0.00181255
0.00118618
0.000881189
0.000709451
0.000600748
0.000535925
0.00049337
0.000452164
0.00180377
0.00180933
0.00180622
0.00180821
0.0018037
0.00180813
0.00181012
0.00180903
0.00181138
0.00181645
0.00181656
0.00182759
0.00183738
0.00184869
0.00187919
0.00184937
0.00121229
0.000900083
0.000726951
0.000617243
0.000550316
0.000508231
0.000466521
0.00180495
0.00180906
0.0018068
0.0018082
0.0018039
0.00180871
0.00181108
0.00180916
0.00181168
0.00181614
0.0018169
0.00182696
0.0018367
0.00184898
0.00187915
0.00185136
0.00124337
0.000922701
0.000747521
0.000637076
0.00056797
0.000525013
0.000482329
0.00180632
0.00180936
0.00180825
0.00180938
0.001804
0.00180926
0.00181149
0.00180934
0.00181157
0.0018161
0.00181728
0.00182639
0.00183611
0.0018489
0.00187954
0.00185202
0.00127848
0.000948972
0.000770883
0.000659269
0.000589018
0.000545328
0.000501533
0.00180681
0.00180927
0.00180954
0.00180955
0.00180489
0.0018101
0.00181234
0.00180983
0.00181216
0.00181624
0.00181774
0.00182598
0.00183502
0.00184857
0.00187978
0.00185249
0.001318
0.000979145
0.00079712
0.000684729
0.000613605
0.00056939
0.000524556
0.0018074
0.00180954
0.00181142
0.0018106
0.00180558
0.00181052
0.00181289
0.00181092
0.00181214
0.00181616
0.0018181
0.00182534
0.00183416
0.00184843
0.00187951
0.00185275
0.001361
0.00101208
0.000825617
0.00071279
0.000640314
0.000596935
0.000551226
0.00180809
0.00180869
0.00181246
0.00181109
0.00180702
0.00181145
0.00181345
0.00181147
0.00181247
0.00181623
0.00181838
0.00182481
0.00183306
0.00184835
0.00187994
0.00185301
0.0014076
0.00104853
0.00085697
0.000743546
0.000671022
0.000628575
0.000583034
0.00180696
0.00180887
0.0018141
0.00181065
0.00180832
0.00181131
0.00181339
0.00181209
0.00181248
0.00181578
0.00181827
0.00182419
0.00183117
0.00184823
0.00188039
0.00185304
0.00145829
0.00108854
0.000891151
0.000775811
0.000704753
0.000664372
0.000619657
0.00180675
0.00180705
0.0018132
0.00181122
0.00180927
0.00181214
0.00181377
0.00181278
0.00181177
0.0018152
0.0018176
0.00182308
0.00183037
0.001848
0.00188035
0.00185275
0.0015134
0.00113235
0.000928415
0.000812015
0.000742129
0.000704904
0.000663656
0.00180525
0.00180638
0.00181454
0.00180931
0.00181032
0.00181143
0.00181233
0.00181199
0.00181151
0.00181395
0.00181775
0.00182201
0.00182989
0.00184791
0.00188032
0.00185226
0.00157271
0.00118074
0.000970913
0.000852316
0.000783628
0.000750728
0.000713339
0.00180453
0.0018055
0.00181205
0.00180911
0.00181113
0.00181178
0.0018133
0.00181249
0.00181073
0.00181328
0.00181683
0.00182212
0.00182909
0.0018482
0.00187844
0.00185176
0.00163663
0.00123587
0.00101615
0.000896031
0.00082874
0.00080198
0.000765308
0.00180665
0.00180404
0.00181302
0.00181143
0.00181095
0.00181212
0.00181237
0.00181378
0.0018121
0.001813
0.00181693
0.00182033
0.00182932
0.00184751
0.00187639
0.00185138
0.00170624
0.00129497
0.00106475
0.000941498
0.000874184
0.000851613
0.000817806
0.00180477
0.00180557
0.00181392
0.00181252
0.00181339
0.00181182
0.00181152
0.00181413
0.00181452
0.00181574
0.00181742
0.00182077
0.00182854
0.00184653
0.00187384
0.00185078
0.00178303
0.00135935
0.00111821
0.000990634
0.000922496
0.000901782
0.000872563
0.00180623
0.00180594
0.00181388
0.00181159
0.0018124
0.00181157
0.00181215
0.00181538
0.00181436
0.00181645
0.001818
0.00182066
0.00182831
0.00184489
0.00187092
0.0018503
0.00180205
0.00143052
0.00117812
0.00104532
0.000976093
0.00095536
0.000931558
0.00180504
0.00180786
0.00181399
0.00181171
0.00181342
0.00181282
0.00181254
0.00181509
0.00181439
0.00181635
0.00181682
0.00182068
0.0018284
0.00184396
0.0018678
0.00184959
0.00180473
0.00151043
0.00124647
0.00110764
0.00103729
0.00101544
0.000997362
0.00180455
0.00180628
0.00181407
0.00181246
0.00181363
0.00181282
0.00181347
0.00181422
0.00181517
0.00181715
0.00181732
0.00181958
0.00182809
0.0018417
0.00186462
0.00184906
0.00180792
0.00160132
0.00132546
0.00117997
0.00110837
0.00108533
0.00107293
0.00180384
0.00180644
0.0018165
0.00181362
0.00181323
0.00181307
0.00181478
0.00181561
0.00181641
0.00181682
0.00181843
0.00181984
0.00182788
0.00184077
0.00186169
0.00184836
0.00181116
0.0017059
0.00141759
0.00126487
0.00119143
0.00116826
0.00116154
0.00180736
0.00180837
0.00181525
0.00181531
0.00181317
0.00181347
0.00181343
0.00181581
0.00181497
0.00181788
0.00181793
0.00181993
0.0018274
0.0018388
0.00185898
0.00184797
0.00181462
0.00176212
0.00152547
0.00136511
0.00128894
0.00126707
0.00126651
0.00180666
0.00180508
0.00181266
0.00181313
0.00181309
0.00181496
0.00181468
0.00181554
0.00181621
0.00181864
0.00181831
0.00181997
0.001827
0.00183755
0.00185668
0.00184754
0.00181771
0.00177046
0.0016522
0.00148392
0.00140433
0.00138428
0.00139132
0.00180535
0.00180792
0.00181424
0.00181377
0.00181238
0.00181424
0.00181465
0.0018156
0.00181624
0.00181771
0.00181821
0.00181971
0.0018267
0.00183657
0.00185455
0.00184753
0.0018208
0.0017784
0.00173614
0.00162451
0.00154097
0.00152265
0.00150882
0.00180344
0.00180664
0.00181295
0.00181377
0.00181291
0.00181283
0.00181449
0.00181545
0.00181631
0.00181768
0.00181785
0.00181981
0.00182523
0.00183589
0.00185289
0.00184756
0.00182332
0.00178525
0.00174424
0.00169735
0.00165131
0.00157951
0.00152556
0.00180507
0.00180768
0.00181326
0.0018146
0.00181313
0.00181374
0.00181445
0.00181607
0.0018154
0.00181736
0.00181803
0.00182012
0.00182573
0.0018351
0.00185121
0.0018479
0.00182579
0.00179124
0.0017519
0.00170414
0.00166291
0.00159588
0.00154118
0.00180472
0.00180602
0.00181239
0.00181509
0.00181325
0.00181348
0.00181393
0.00181546
0.00181508
0.00181781
0.00181756
0.00181974
0.00182558
0.00183478
0.0018501
0.00184823
0.00182759
0.00179593
0.00175869
0.00170992
0.00167284
0.00161116
0.00155643
0.00180803
0.0018062
0.00181492
0.00181349
0.00181383
0.00181209
0.00181503
0.00181572
0.00181646
0.00181631
0.00181815
0.00182066
0.00182512
0.00183419
0.00184885
0.00184865
0.00182939
0.00179996
0.00176517
0.00171634
0.00168257
0.00162657
0.00157231
0.00180581
0.00180616
0.00181514
0.00181244
0.00181232
0.00181191
0.00181539
0.00181599
0.00181529
0.00181722
0.00181716
0.00181996
0.00182466
0.00183476
0.00184819
0.00184897
0.00183044
0.00180291
0.00177064
0.0017229
0.00169195
0.00164147
0.00158855
0.00180534
0.00180387
0.00181217
0.00181195
0.00181289
0.00181296
0.00181427
0.00181624
0.00181554
0.00181682
0.00181798
0.00181998
0.00182413
0.0018343
0.00184719
0.00184932
0.00183179
0.00180591
0.00177627
0.00173073
0.00170239
0.00165718
0.00160623
0.00180848
0.00180408
0.00181342
0.00181335
0.00181394
0.0018133
0.00181617
0.00181537
0.00181519
0.00181676
0.00181727
0.00181868
0.00182341
0.00183432
0.0018467
0.00184951
0.0018323
0.00180807
0.001781
0.00173817
0.0017125
0.00167253
0.00162411
0.001808
0.00180694
0.00181265
0.00181309
0.00181143
0.00181289
0.00181465
0.00181522
0.0018151
0.0018162
0.00181691
0.00181973
0.00182355
0.00183447
0.00184566
0.00184999
0.00183352
0.001811
0.00178644
0.00174688
0.00172375
0.00168909
0.00164342
0.00180593
0.00180931
0.00181341
0.00181398
0.00181307
0.00181444
0.00181483
0.00181501
0.00181522
0.00181743
0.00181729
0.00182054
0.00182375
0.00183393
0.00184523
0.00184998
0.00183371
0.00181319
0.00179041
0.00175392
0.00173389
0.0017045
0.00166254
0.00180409
0.00180679
0.0018128
0.0018143
0.00181138
0.00181423
0.00181573
0.00181515
0.00181512
0.00181794
0.00181627
0.00182038
0.0018238
0.00183196
0.00184401
0.00185081
0.00183541
0.00181649
0.00179572
0.00176262
0.00174524
0.00172098
0.00168301
0.00180431
0.00180916
0.00181336
0.00181257
0.00181366
0.00181569
0.00181551
0.00181423
0.00181496
0.00181878
0.00181789
0.00181982
0.00182334
0.00183149
0.00184356
0.00185067
0.00183569
0.00181903
0.00179974
0.00176939
0.00175472
0.00173516
0.00170239
0.0018051
0.00180818
0.0018151
0.00181235
0.00181227
0.00181448
0.00181523
0.00181411
0.00181551
0.00181863
0.00181908
0.00181961
0.00182356
0.00183044
0.00184215
0.00185073
0.00183773
0.00182268
0.00180558
0.00177798
0.00176552
0.00175041
0.001723
0.00180563
0.00180728
0.00181445
0.00181194
0.00181121
0.00181423
0.00181536
0.00181559
0.00181556
0.00181745
0.00181982
0.00181944
0.00182429
0.00183112
0.00184167
0.00185078
0.00183823
0.00182509
0.00180971
0.00178441
0.00177405
0.00176259
0.00174091
0.00180907
0.00180706
0.00181276
0.00180894
0.00181159
0.00181457
0.00181509
0.00181624
0.0018157
0.0018159
0.00181845
0.0018192
0.00182292
0.00183063
0.00184011
0.00185028
0.00184041
0.00182885
0.00181567
0.00179328
0.00178408
0.00177625
0.00176034
0.00180969
0.00180871
0.00181199
0.00181016
0.00181226
0.00181414
0.0018151
0.00181645
0.00181541
0.00181559
0.00181575
0.00181913
0.00182026
0.00183031
0.00183947
0.00185025
0.00184133
0.00183054
0.00181921
0.00179856
0.00179117
0.00178571
0.00177461
0.00180754
0.00181074
0.00181175
0.00181492
0.00181335
0.00181415
0.00181602
0.00181665
0.00181481
0.00181758
0.00181667
0.00181894
0.00182056
0.00182924
0.00183759
0.00185052
0.0018434
0.0018345
0.00182551
0.00180804
0.00180138
0.00179793
0.00179162
0.00180624
0.00181005
0.00181161
0.00181574
0.00181324
0.00181442
0.00181352
0.00181403
0.00181684
0.00181648
0.00181814
0.00181892
0.00182188
0.00182753
0.00183554
0.00185036
0.00184575
0.001837
0.00183045
0.00181647
0.00181024
0.00180821
0.00180542
0.00180247
0.00180702
0.0018104
0.00181498
0.00180983
0.00181421
0.00181262
0.00181259
0.00181799
0.00181645
0.00181872
0.00181884
0.00182223
0.00182631
0.00183354
0.00184932
0.00184729
0.00183962
0.00183562
0.0018246
0.00181868
0.00181831
0.00181792
0.00180571
0.00180281
0.00181005
0.00180926
0.00181107
0.00181436
0.00181476
0.00181413
0.00181678
0.00181396
0.00181778
0.00181926
0.00182162
0.00182475
0.00183148
0.00184712
0.00184863
0.00184205
0.0018404
0.0018324
0.0018271
0.00182755
0.00182955
0.00181426
0.00180422
0.00181072
0.00180938
0.00181127
0.0018133
0.00181645
0.00181509
0.00181696
0.00181382
0.00181751
0.00181939
0.00182021
0.0018239
0.00182955
0.00184356
0.00184961
0.00184415
0.00184503
0.00183957
0.00183517
0.00183633
0.00183935
0.00181216
0.00180991
0.00181483
0.00180823
0.00181196
0.00181295
0.00181734
0.00181555
0.00181765
0.00181368
0.00181749
0.00181802
0.0018194
0.00182325
0.00182763
0.00183913
0.00184915
0.00184692
0.00185007
0.00184713
0.00184321
0.00184409
0.00184662
0.00180303
0.00181095
0.00180902
0.00181301
0.00181164
0.00181263
0.00181506
0.00181521
0.00181801
0.00181437
0.0018183
0.00181725
0.00181927
0.00182313
0.00182601
0.0018346
0.001846
0.00184857
0.00185291
0.00185378
0.00185135
0.00185145
0.00185259
0.00179594
0.00181012
0.00181124
0.00181274
0.00181144
0.00181286
0.00181324
0.00181487
0.00181776
0.00181535
0.00181751
0.00181663
0.00181857
0.0018221
0.0018246
0.00183077
0.00184106
0.001847
0.00185232
0.00185566
0.00185535
0.00185535
0.00185617
0.00179013
0.00180936
0.00180768
0.0018112
0.00181088
0.00181145
0.00181204
0.00181456
0.00181508
0.00181484
0.00181675
0.00181645
0.0018185
0.00182169
0.0018234
0.00182784
0.00183548
0.00184233
0.00184898
0.00185467
0.00185654
0.00185659
0.00185651
0.00179458
0.00180826
0.00180769
0.00181103
0.0018109
0.00181022
0.00181288
0.00181481
0.00181391
0.00181396
0.00181556
0.00181607
0.00181774
0.00182042
0.00182219
0.001825
0.00183073
0.00183714
0.00184281
0.00184866
0.00185278
0.00185444
0.00185554
0.001814
0.00180666
0.00180976
0.00181111
0.00181041
0.00180941
0.00181399
0.00181457
0.00181352
0.00181457
0.00181601
0.00181576
0.00181722
0.00181981
0.00182137
0.0018234
0.00182664
0.00183179
0.00183733
0.00184239
0.00184639
0.00184802
0.00184892
0.00181632
0.00180495
0.00181767
0.00181044
0.00181018
0.0018096
0.00181379
0.00181356
0.00181326
0.00181374
0.00181523
0.00181539
0.00181628
0.00181785
0.00181972
0.00182117
0.00182399
0.00182745
0.00183134
0.00183562
0.00184029
0.00184309
0.00184502
0.00182369
0.00180309
0.00180862
0.00180879
0.00180942
0.00180922
0.00181197
0.00181196
0.00181213
0.00181337
0.00181473
0.0018142
0.00181545
0.00181729
0.00181875
0.00181977
0.001821
0.00182417
0.00182744
0.0018298
0.00183238
0.00183412
0.00183585
0.00181654
0.00180136
0.00180352
0.00180666
0.00180909
0.00180834
0.00180896
0.00180999
0.00181092
0.00181132
0.00181249
0.00181303
0.00181343
0.00181443
0.00181651
0.00181768
0.00181871
0.00181985
0.00182277
0.00182552
0.00182851
0.00183014
0.00183151
0.00179065
0.00179942
0.00179923
0.00180447
0.00180827
0.00180679
0.00180605
0.0018083
0.00180882
0.00180942
0.00181042
0.00181119
0.00181337
0.00181363
0.00181499
0.00181598
0.00181727
0.00181825
0.00181944
0.00181986
0.00182186
0.00182321
0.00182506
0.00177666
0.00179797
0.00179671
0.00180333
0.00180793
0.00180552
0.00180347
0.00180638
0.00180793
0.00180748
0.00180786
0.00180872
0.0018103
0.001812
0.00181276
0.00181372
0.00181451
0.00181571
0.00181798
0.0018189
0.00181968
0.00181996
0.00182031
0.00176989
0.00179696
0.00179591
0.00180322
0.0018066
0.00180419
0.00180271
0.00180534
0.00180531
0.00180557
0.00180619
0.00180786
0.00180946
0.00180996
0.0018114
0.00181201
0.00181321
0.00181316
0.00181434
0.00181518
0.00181708
0.001818
0.00181961
0.00176978
0.00179638
0.00179626
0.00180361
0.00180551
0.00180298
0.00180217
0.00180397
0.00180489
0.00180409
0.00180364
0.00180425
0.00180695
0.00180744
0.00180799
0.00180781
0.00180962
0.00181032
0.00181207
0.00181251
0.00181296
0.0018129
0.00181244
0.00178159
0.00179557
0.00179674
0.00180334
0.0018035
0.00180093
0.00180223
0.00180297
0.00180131
0.00180247
0.00180305
0.00180275
0.00180318
0.00180376
0.00180508
0.00180415
0.00180471
0.00180465
0.00180535
0.00180679
0.00180873
0.00180935
0.00180998