/*--------------------------------*- C++ -*----------------------------------*\
  =========                 |
  \\      /  F ield         | OpenFOAM: The Open Source CFD Toolbox
   \\    /   O peration     | Website:  https://openfoam.org
    \\  /    A nd           | Version:  7
     \\/     M anipulation  |
\*---------------------------------------------------------------------------*/
FoamFile
{
    version     2.0;
    format      ascii;
    class       volScalarField;
    location    "43";
    object      omega;
}
// * * * * * * * * * * * * * * * * * * * * * * * * * * * * * * * * * * * * * //

dimensions      [0 0 -1 0 0 0 0];

internalField   nonuniform List<scalar> 
12842
(
3.15103
2.8532
2.66401
2.5341
2.44481
2.38109
2.33592
2.3004
2.27756
2.25673
2.2464
2.23517
2.2299
2.22402
2.22465
2.2282
2.23633
2.25404
2.28078
2.32209
2.38515
2.42935
2.48362
3.14103
2.84262
2.64977
2.52889
2.43676
2.37713
2.33386
2.29987
2.2773
2.25696
2.24646
2.23482
2.22911
2.22402
2.22501
2.22942
2.23945
2.2589
2.28921
2.33327
2.39945
2.43921
2.48836
3.13101
2.81728
2.62859
2.50471
2.42459
2.35964
2.32094
2.29362
2.27124
2.25245
2.24262
2.23098
2.2262
2.22309
2.22447
2.22964
2.24132
2.26268
2.29612
2.34282
2.4129
2.45457
2.49745
3.11158
2.80381
2.60952
2.4864
2.40441
2.35107
2.30645
2.28309
2.26498
2.24797
2.23607
2.22552
2.22234
2.22147
2.22407
2.23088
2.24443
2.26768
2.30536
2.35094
2.42156
2.45894
2.50072
3.09154
2.76961
2.58873
2.47326
2.39324
2.3385
2.30015
2.27062
2.25664
2.24203
2.23203
2.22252
2.22079
2.22084
2.22395
2.2322
2.2477
2.27296
2.31293
2.36346
2.43105
2.46074
2.50378
3.0738
2.7512
2.56333
2.45216
2.38323
2.32921
2.29208
2.26647
2.24784
2.23753
2.22733
2.22022
2.21916
2.22043
2.22451
2.23387
2.25117
2.27874
2.31793
2.37211
2.42992
2.46245
2.51006
3.05125
2.71965
2.54083
2.43194
2.36433
2.32085
2.28497
2.25871
2.24085
2.22994
2.22359
2.21913
2.21826
2.21944
2.22438
2.23534
2.25356
2.28257
2.32388
2.37799
2.43113
2.47539
2.54339
3.03632
2.7043
2.52206
2.41918
2.35533
2.30974
2.27842
2.25521
2.23653
2.2269
2.22008
2.21806
2.21781
2.21905
2.22481
2.23646
2.25655
2.28594
2.32515
2.38133
2.43399
2.51453
2.58007
3.0109
2.67709
2.50156
2.40084
2.34265
2.3026
2.27057
2.24982
2.2314
2.22287
2.21827
2.21748
2.21751
2.21903
2.22496
2.23739
2.25836
2.2876
2.32796
2.39018
2.44822
2.55504
2.66186
3.00113
2.65763
2.4858
2.39109
2.33428
2.29321
2.26441
2.24597
2.22942
2.22134
2.21665
2.21677
2.21702
2.21913
2.22517
2.23775
2.25915
2.28828
2.33176
2.40455
2.49026
2.63987
2.74775
2.97054
2.63322
2.46793
2.37617
2.32319
2.28559
2.25834
2.2416
2.2261
2.219
2.21494
2.21524
2.21586
2.21832
2.22488
2.23773
2.25966
2.29133
2.34107
2.44616
2.5451
2.7316
2.86397
2.95977
2.61344
2.45549
2.36825
2.31257
2.27664
2.25409
2.23893
2.22418
2.21735
2.21275
2.21327
2.21415
2.21708
2.22472
2.2383
2.2615
2.30007
2.36902
2.50523
2.63715
2.84622
2.99065
2.93058
2.59269
2.44036
2.35552
2.30035
2.26883
2.24986
2.23434
2.22123
2.21471
2.21049
2.21105
2.21232
2.21596
2.22472
2.23949
2.26703
2.33196
2.42394
2.58654
2.73788
2.97307
3.12235
2.92007
2.57387
2.43116
2.34757
2.28948
2.2631
2.24703
2.23127
2.21869
2.21242
2.20825
2.2085
2.21022
2.21518
2.22537
2.24803
2.29503
2.3907
2.49766
2.68548
2.86572
3.10679
3.26903
2.89302
2.55862
2.41653
2.33469
2.27932
2.25779
2.2425
2.2254
2.21455
2.20885
2.20535
2.20624
2.20861
2.2155
2.23423
2.27722
2.34722
2.46755
2.59132
2.79627
2.99525
3.24236
3.41376
2.88346
2.54249
2.40768
2.32635
2.27235
2.25533
2.23957
2.22229
2.21189
2.2061
2.20288
2.20364
2.20831
2.22294
2.26288
2.32773
2.41962
2.55811
2.69472
2.91658
3.13398
3.39024
3.55472
2.85859
2.53092
2.39527
2.31548
2.26762
2.25217
2.23252
2.21552
2.20635
2.20117
2.19984
2.2029
2.2141
2.25079
2.31132
2.39223
2.50355
2.6552
2.80594
3.03954
3.26968
3.52752
3.71515
2.85044
2.51945
2.38418
2.3096
2.26506
2.25021
2.2283
2.21132
2.20358
2.19941
2.19739
2.20367
2.23657
2.29818
2.37443
2.46873
2.59542
2.7557
2.91911
3.15956
3.40416
3.67709
3.85052
2.82771
2.50831
2.37552
2.30262
2.26327
2.24589
2.2188
2.20405
2.19895
2.19615
2.19679
2.21395
2.27927
2.36232
2.44889
2.54926
2.68799
2.8548
3.03101
3.27954
3.5298
3.81193
4.02313
2.82123
2.50107
2.36444
2.29832
2.2619
2.24282
2.21211
2.20123
2.1984
2.20014
2.20415
2.24492
2.33908
2.43708
2.52838
2.63341
2.78048
2.95237
3.14039
3.38967
3.65577
3.95465
4.15829
2.80026
2.49154
2.35809
2.29432
2.25953
2.23499
2.20401
2.19682
2.19747
2.19971
2.22055
2.28805
2.40941
2.51813
2.61026
2.71521
2.86832
3.0438
3.2424
3.4995
3.77021
4.09002
4.33308
2.79535
2.48847
2.34929
2.28867
2.25621
2.22952
2.19937
2.19743
2.20709
2.226
2.26529
2.35326
2.48854
2.60007
2.69002
2.79638
2.9531
3.13272
3.34205
3.59973
3.88838
4.22
4.47233
2.77583
2.48152
2.34387
2.28504
2.25346
2.22281
2.19417
2.19694
2.21758
2.25058
2.3139
2.41985
2.56699
2.68002
2.76707
2.87246
3.03131
3.21273
3.43032
3.69599
3.99334
4.34694
4.63692
2.77011
2.48209
2.33751
2.28037
2.24722
2.21733
2.19389
2.20661
2.25121
2.30912
2.39451
2.5099
2.6558
2.76157
2.84286
2.9481
3.10701
3.29128
3.51794
3.78795
4.10445
4.47038
4.76466
2.76196
2.48157
2.33257
2.27432
2.24368
2.21449
2.19558
2.23418
2.30448
2.37686
2.47716
2.59346
2.73422
2.83325
2.91134
3.01733
3.17621
3.36225
3.59751
3.8776
4.20586
4.59221
4.9182
2.75132
2.48
2.32529
2.27176
2.24288
2.21401
2.21021
2.28418
2.37403
2.45567
2.56114
2.67542
2.80812
2.89903
2.97422
3.08088
3.23952
3.42826
3.67023
3.9578
4.30926
4.70679
5.03225
2.74467
2.47541
2.31774
2.26772
2.24885
2.22004
2.24606
2.34978
2.45051
2.53736
2.64875
2.75581
2.87559
2.95852
3.03206
3.14001
3.29672
3.48805
3.73963
4.0401
4.39729
4.81037
5.15716
2.73441
2.46911
2.30982
2.26977
2.26055
2.24125
2.30151
2.42787
2.53264
2.62047
2.73084
2.82939
2.9367
3.01201
3.08447
3.19211
3.34844
3.54155
3.79723
4.10477
4.48999
4.90974
5.25852
2.72911
2.45875
2.30298
2.2721
2.28734
2.28893
2.36701
2.5089
2.61493
2.7027
2.8108
2.8991
2.99064
3.05946
3.13175
3.24045
3.39439
3.59184
3.85784
4.1812
4.56519
4.99713
5.35702
2.721
2.44773
2.29678
2.28616
2.31612
2.34781
2.44324
2.59299
2.69334
2.77723
2.88181
2.95822
3.03763
3.10109
3.17357
3.28083
3.43473
3.63361
3.90411
4.23403
4.64376
5.07901
5.45
2.71642
2.43958
2.29501
2.30536
2.35723
2.42133
2.51743
2.66965
2.76777
2.84671
2.94438
3.01197
3.07787
3.13704
3.21009
3.3181
3.4703
3.67527
3.95521
4.29828
4.71025
5.15811
5.5313
2.70968
2.42952
2.29767
2.33622
2.39983
2.49226
2.59409
2.7419
2.83103
2.90455
2.99671
3.05313
3.11178
3.16788
3.24167
3.34784
3.50085
3.70776
3.99397
4.3449
4.77338
5.22347
5.6081
2.70352
2.42525
2.30941
2.37316
2.45421
2.56594
2.6621
2.80356
2.89002
2.95558
3.03922
3.08999
3.13972
3.19384
3.26841
3.37532
3.52788
3.74206
4.03621
4.39347
4.83482
5.29219
5.67818
2.69534
2.41904
2.33046
2.41786
2.50692
2.62975
2.72777
2.85709
2.93505
2.99485
3.07189
3.11653
3.16338
3.21566
3.29111
3.39649
3.55078
3.76776
4.06913
4.43924
4.88591
5.34603
5.74096
2.68451
2.42112
2.35741
2.46671
2.568
2.6889
2.78259
2.90121
2.97701
3.02892
3.10045
3.13977
3.18177
3.23359
3.30991
3.41605
3.57138
3.7962
4.10396
4.47349
4.93733
5.38662
5.78679
2.67414
2.42059
2.38757
2.51474
2.6201
2.74006
2.83389
2.93715
3.00678
3.05601
3.12023
3.15879
3.19754
3.24854
3.3257
3.4309
3.58878
3.81725
4.13164
4.51536
4.97203
5.42842
5.84709
2.66307
2.43202
2.42279
2.56227
2.67618
2.7823
2.87442
2.96671
3.03388
3.0784
3.13758
3.17335
3.21092
3.26064
3.33858
3.44434
3.60467
3.83914
4.15975
4.54301
5.00382
5.44822
5.87497
2.65311
2.44255
2.45614
2.60397
2.71728
2.82083
2.91143
2.9901
3.05392
3.10039
3.14791
3.18295
3.22161
3.27088
3.34948
3.45505
3.618
3.85701
4.18415
4.57362
5.02087
5.48933
5.93602
2.64342
2.4642
2.49807
2.64238
2.76105
2.8519
2.94095
3.01224
3.07205
3.12024
3.15978
3.19259
3.23108
3.2793
3.35822
3.46394
3.63009
3.87079
4.20339
4.60124
5.04442
5.52088
5.97107
2.64084
2.4841
2.5384
2.67758
2.79198
2.88089
2.96757
3.02965
3.09039
3.13372
3.16784
3.19788
3.23774
3.28667
3.3658
3.47222
3.6402
3.8858
4.22745
4.63937
5.06253
5.57126
6.0566
2.64069
2.51519
2.58739
2.71151
2.82597
2.90722
2.99149
3.05021
3.10707
3.14665
3.17244
3.20073
3.24408
3.293
3.37188
3.47816
3.64893
3.89372
4.24057
4.66997
5.09524
5.66185
6.10315
2.65182
2.54835
2.63927
2.74677
2.85409
2.93424
3.01483
3.06595
3.12349
3.15504
3.17607
3.20272
3.24885
3.29866
3.3772
3.4848
3.65618
3.90592
4.25894
4.71368
5.13794
5.70926
6.20969
2.66769
2.59036
2.69342
2.78195
2.88633
2.96108
3.0377
3.08677
3.13491
3.16007
3.1824
3.20503
3.25372
3.30379
3.38158
3.48945
3.66214
3.91245
4.27773
4.77772
5.17568
5.80907
6.23302
2.68888
2.6361
2.74909
2.82263
2.91638
2.98927
3.06002
3.10176
3.14873
3.16796
3.18525
3.2079
3.25689
3.30835
3.38543
3.4944
3.66782
3.92396
4.29429
4.82505
5.24793
5.83874
6.26131
2.7113
2.68582
2.80283
2.86085
2.94863
3.01823
3.0792
3.11844
3.15493
3.17079
3.18698
3.21206
3.26106
3.31281
3.38831
3.49854
3.66689
3.93137
4.31829
4.86786
5.29526
5.92748
6.27277
2.73301
2.74028
2.85379
2.9032
2.97922
3.04331
3.0997
3.13321
3.1579
3.17253
3.1901
3.21252
3.26514
3.31633
3.39124
3.50195
3.68295
3.94202
4.34095
4.94437
5.33639
5.88256
6.27025
2.75891
2.78561
2.89744
2.93959
3.00601
3.06629
3.10905
3.1354
3.16083
3.17528
3.19518
3.21341
3.26562
3.32038
3.39328
3.5059
3.68529
3.95501
4.37296
4.97644
5.34267
5.90686
6.25546
2.78187
2.83206
2.93555
2.97453
3.02825
3.08311
3.11323
3.13814
3.16562
3.17512
3.19457
3.21662
3.26629
3.32293
3.3953
3.50847
3.68379
3.96498
4.40235
4.9956
5.41636
5.9137
6.26767
2.8082
2.87019
2.96759
3.00266
3.04807
3.09975
3.12023
3.14511
3.17016
3.17832
3.19531
3.21953
3.26724
3.32654
3.3973
3.51229
3.69935
3.98276
4.42425
5.0519
5.39683
5.85279
6.18981
2.83344
2.90364
2.99468
3.02706
3.06701
3.11225
3.13025
3.1536
3.17404
3.18407
3.19875
3.22293
3.26938
3.32879
3.39832
3.51579
3.6993
3.99821
4.46995
5.01317
5.27969
5.74387
6.24621
2.85849
2.92386
3.01401
3.04596
3.0822
3.1229
3.13778
3.16158
3.17779
3.18864
3.20309
3.22546
3.27064
3.3311
3.39995
3.51756
3.70133
4.00786
4.47514
4.90536
5.22911
5.69766
6.14804
2.88247
2.94268
3.02966
3.06141
3.09668
3.13125
3.14616
3.16866
3.1813
3.19251
3.20754
3.2283
3.27335
3.33315
3.40028
3.52102
3.69827
4.02609
4.4752
4.83312
5.14612
5.56128
6.00412
2.90426
2.95691
3.04143
3.07436
3.10755
3.13933
3.15273
3.17408
3.18568
3.19649
3.2121
3.2317
3.27517
3.33437
3.4015
3.52245
3.69688
4.0327
4.42502
4.72943
5.01334
5.40466
5.85294
2.92584
2.97221
3.05295
3.08446
3.11821
3.14704
3.16072
3.17977
3.19011
3.20036
3.21668
3.23568
3.27813
3.33591
3.40135
3.52529
3.69466
4.03148
4.37812
4.66693
4.94547
5.35054
5.75015
2.94518
2.985
3.06219
3.0937
3.12704
3.15424
3.16743
3.18459
3.19543
3.20463
3.22087
3.2396
3.27998
3.33667
3.3999
3.52422
3.68407
4.00631
4.3005
4.56029
4.85995
5.2597
5.62727
2.96492
2.99966
3.07255
3.10162
3.13567
3.16126
3.17499
3.19005
3.20074
3.20898
3.22559
3.2434
3.28289
3.33788
3.39946
3.52492
3.68098
3.99152
4.25218
4.50292
4.84052
5.24192
5.61756
2.9832
3.01333
3.08179
3.11007
3.14283
3.16725
3.18089
3.19493
3.20609
3.21317
3.22963
3.24691
3.28478
3.33789
3.39714
3.51992
3.67184
3.96576
4.20039
4.43731
4.7781
5.15712
5.52134
3.0002
3.02755
3.09162
3.11793
3.14997
3.17327
3.18723
3.20023
3.2109
3.21761
3.23416
3.25008
3.2869
3.33819
3.39499
3.51348
3.66243
3.9378
4.15732
4.38113
4.7152
5.0726
5.4295
3.0166
3.04114
3.10135
3.12708
3.15702
3.1791
3.19288
3.20568
3.21633
3.2221
3.23836
3.25386
3.28885
3.33801
3.39347
3.5064
3.65292
3.91028
4.11855
4.33354
4.66361
5.01074
5.36788
3.03161
3.05514
3.11163
3.13579
3.16483
3.1851
3.19885
3.21164
3.22094
3.22717
3.24298
3.25721
3.29089
3.33802
3.39219
3.49986
3.64327
3.88169
4.08986
4.3025
4.62578
4.97362
5.34444
3.04597
3.06796
3.1215
3.14519
3.17272
3.19132
3.20469
3.21778
3.22626
3.23188
3.2471
3.26109
3.2928
3.33796
3.39148
3.49422
3.63467
3.85719
4.06677
4.27745
4.60868
4.96673
5.32689
3.05823
3.08107
3.13157
3.15396
3.18139
3.19707
3.21016
3.22399
3.23065
3.23701
3.25127
3.2644
3.29449
3.338
3.39071
3.48944
3.62702
3.83641
4.05092
4.26646
4.60056
4.97906
5.35315
3.07059
3.0929
3.14069
3.16248
3.1896
3.20356
3.21595
3.23042
3.23564
3.24147
3.25495
3.26788
3.29644
3.33832
3.39015
3.48566
3.6209
3.82011
4.03873
4.25247
4.57988
4.97442
5.35225
3.08103
3.10567
3.14948
3.17094
3.19799
3.20895
3.22106
3.23602
3.23991
3.24612
3.25855
3.27093
3.29772
3.33758
3.38963
3.48279
3.61596
3.80845
4.03148
4.24809
4.58253
4.97755
5.35656
3.09178
3.11683
3.15804
3.17833
3.20538
3.21532
3.22633
3.2418
3.24464
3.25019
3.26163
3.274
3.2997
3.33756
3.38881
3.48065
3.61203
3.79848
4.02484
4.24275
4.58345
4.98572
5.37285
3.10165
3.1297
3.16505
3.18637
3.21242
3.22054
3.23159
3.24664
3.24873
3.25421
3.26482
3.27679
3.3011
3.33823
3.38825
3.47901
3.60877
3.79311
4.02075
4.2406
4.5725
4.98309
5.3709
3.1121
3.14025
3.17335
3.19357
3.21844
3.22664
3.23647
3.25081
3.25329
3.25832
3.26789
3.27956
3.30292
3.33743
3.3879
3.47784
3.60629
3.78651
4.01412
4.2272
4.56172
4.99669
5.37177
3.12172
3.15261
3.18011
3.20097
3.2242
3.23179
3.24191
3.25524
3.25749
3.26185
3.27085
3.28276
3.30489
3.33732
3.38693
3.47693
3.60454
3.78093
4.00835
4.22431
4.55399
4.99663
5.37488
3.13396
3.16304
3.18779
3.20964
3.22928
3.23807
3.24766
3.25948
3.26225
3.26678
3.27513
3.28534
3.30794
3.33751
3.38634
3.47612
3.60317
3.7761
4.00316
4.22374
4.56458
4.99006
5.37464
3.146
3.17519
3.19731
3.2176
3.23553
3.24383
3.25347
3.26325
3.26772
3.27083
3.27924
3.28948
3.30915
3.33656
3.38598
3.4751
3.60159
3.77116
3.99534
4.20853
4.53894
4.99289
5.37962
3.16056
3.18749
3.2059
3.2285
3.24142
3.2515
3.26151
3.27046
3.27386
3.27704
3.2837
3.29398
3.30977
3.33639
3.38458
3.47317
3.59874
3.76577
3.98754
4.20507
4.53592
4.97014
5.38626
3.17442
3.19983
3.21835
3.23934
3.24951
3.25845
3.268
3.27452
3.27989
3.28275
3.28983
3.297
3.31104
3.33597
3.38452
3.46943
3.59278
3.76075
3.98293
4.2059
4.53993
4.96156
5.39034
3.18899
3.21608
3.22937
3.24524
3.25754
3.26768
3.27589
3.27962
3.28404
3.28689
3.29254
3.30035
3.3108
3.33573
3.3829
3.46388
3.58342
3.7565
3.96282
4.19066
4.52236
4.94514
5.31476
3.20375
3.2232
3.23688
3.25278
3.26336
3.27218
3.28042
3.28353
3.28638
3.28756
3.29385
3.29998
3.31101
3.33517
3.38061
3.45691
3.57101
3.74267
3.93173
4.14981
4.45913
4.85948
5.18674
3.20805
3.22704
3.23817
3.25569
3.26853
3.27455
3.28315
3.28465
3.28752
3.28854
3.29582
3.30099
3.31115
3.33528
3.37778
3.44879
3.556
3.72171
3.8929
4.09528
4.37627
4.74078
5.03179
3.21054
3.23082
3.23982
3.2572
3.26874
3.2754
3.28552
3.28494
3.28855
3.28969
3.29787
3.30191
3.31117
3.3339
3.3748
3.44025
3.53946
3.69569
3.84989
4.03412
4.28704
4.61139
4.8699
3.2128
3.23395
3.24478
3.25977
3.26946
3.27546
3.28489
3.28701
3.28933
3.29019
3.29724
3.30379
3.31127
3.33483
3.37171
3.43156
3.52218
3.66659
3.80576
3.97186
4.1992
4.48729
4.71668
3.21714
3.2348
3.24446
3.2593
3.27075
3.27566
3.28486
3.2863
3.28864
3.29267
3.29731
3.30321
3.31124
3.33353
3.36871
3.42346
3.50532
3.63673
3.7635
3.91342
4.11701
4.3783
4.58254
3.21592
3.23556
3.24498
3.25976
3.27074
3.27596
3.28646
3.28673
3.29111
3.29186
3.29738
3.30308
3.3113
3.3341
3.36564
3.41585
3.48931
3.60747
3.72451
3.86163
4.04236
4.28735
4.47192
3.21605
3.23932
3.2489
3.2624
3.27249
3.27654
3.28521
3.28804
3.29004
3.2918
3.29727
3.30321
3.31092
3.33375
3.36293
3.40921
3.47503
3.58056
3.69028
3.81863
3.97849
4.21215
4.384
3.21859
3.23701
3.24751
3.26085
3.2718
3.2765
3.28579
3.28654
3.28997
3.29203
3.2973
3.30388
3.31085
3.33282
3.36014
3.403
3.46217
3.55619
3.66005
3.78357
3.92622
4.14735
4.31341
3.22238
3.23794
3.24883
3.2607
3.27118
3.27895
3.284
3.28697
3.29025
3.29171
3.29762
3.30238
3.31152
3.33181
3.35782
3.39771
3.45138
3.53556
3.63432
3.75631
3.88456
4.09096
4.25478
3.21925
3.23809
3.24774
3.26053
3.27161
3.27742
3.2839
3.28656
3.28999
3.29213
3.29716
3.30215
3.31023
3.33075
3.35542
3.39252
3.44169
3.51771
3.61109
3.73352
3.84959
4.03963
4.20191
3.21995
3.23754
3.24899
3.26027
3.27111
3.27885
3.28449
3.28759
3.29039
3.2918
3.29704
3.30235
3.31072
3.32935
3.35348
3.38823
3.43402
3.50366
3.5914
3.71465
3.8203
3.99312
4.15271
3.21569
3.23739
3.24592
3.26014
3.27044
3.27887
3.28233
3.28692
3.28835
3.29247
3.29579
3.30044
3.31051
3.32804
3.35126
3.38379
3.42689
3.49134
3.57311
3.69532
3.79225
3.94827
4.10363
3.21506
3.23928
3.24578
3.26167
3.27017
3.27885
3.28203
3.28583
3.28823
3.29055
3.29626
3.30003
3.31033
3.32529
3.34948
3.38038
3.42174
3.48209
3.55814
3.67704
3.76647
3.90634
4.05601
3.2157
3.23928
3.24812
3.26167
3.26908
3.27579
3.28241
3.2853
3.2875
3.29034
3.29425
3.29961
3.30924
3.32376
3.34726
3.3765
3.41628
3.47296
3.54307
3.65637
3.73876
3.86373
4.00658
3.21078
3.23828
3.2448
3.26133
3.26826
3.275
3.2798
3.28414
3.28712
3.29023
3.2956
3.2995
3.30772
3.32217
3.34565
3.37376
3.41277
3.46606
3.53077
3.6374
3.71311
3.82341
3.9583
3.21047
3.23486
3.24404
3.25853
3.26954
3.2748
3.27967
3.28386
3.28663
3.2904
3.29379
3.29725
3.30697
3.31942
3.34336
3.37008
3.40788
3.45769
3.51707
3.61591
3.68512
3.78138
3.9071
3.21237
3.23191
3.24215
3.25639
3.26649
3.27165
3.27914
3.28294
3.28891
3.28791
3.29494
3.29684
3.3073
3.31883
3.34177
3.36763
3.40505
3.45125
3.50615
3.59761
3.66049
3.74341
3.85822
3.21337
3.23055
3.2416
3.25562
3.26993
3.27362
3.27871
3.28247
3.28681
3.28735
3.29458
3.29704
3.30666
3.31955
3.33928
3.36372
3.39975
3.44237
3.49274
3.57632
3.63328
3.70402
3.80659
3.21258
3.22487
3.23998
3.25397
3.26713
3.27092
3.27975
3.28316
3.2882
3.28632
3.29293
3.29614
3.30524
3.31855
3.33755
3.36123
3.39687
3.43584
3.48253
3.55953
3.61089
3.6709
3.76019
3.2038
3.22367
3.2392
3.25319
3.26912
3.27181
3.27873
3.28315
3.28741
3.2857
3.29034
3.29493
3.3028
3.3173
3.33484
3.35688
3.3908
3.42642
3.4687
3.53827
3.58454
3.63525
3.71097
3.20149
3.22424
3.24026
3.25389
3.26799
3.26973
3.27688
3.28192
3.28614
3.28628
3.28692
3.29426
3.29944
3.31443
3.33293
3.35428
3.38768
3.42026
3.45918
3.52323
3.56452
3.60774
3.67046
3.19785
3.22209
3.24037
3.25411
3.26487
3.26762
3.27489
3.28016
3.28411
3.28522
3.28612
3.29094
3.29871
3.31182
3.32981
3.34946
3.38087
3.4107
3.4448
3.50136
3.53851
3.57508
3.62514
3.19532
3.21772
3.23767
3.25149
3.26048
3.26583
3.27282
3.27694
3.28134
3.28345
3.2868
3.29021
3.29938
3.31092
3.32824
3.34694
3.37803
3.40552
3.43672
3.48845
3.52122
3.55318
3.5931
3.19594
3.2156
3.23381
3.24516
3.25452
3.26399
3.26784
3.27217
3.2775
3.27922
3.28382
3.29079
3.29737
3.30916
3.32497
3.34175
3.37043
3.39597
3.42224
3.4663
3.49605
3.52317
3.5531
3.19287
3.2127
3.22999
3.24182
3.25235
3.26105
3.26605
3.27064
3.2721
3.27764
3.28145
3.28894
3.29445
3.30727
3.32147
3.33654
3.36285
3.38694
3.40911
3.44627
3.47334
3.49704
3.51994
3.18857
3.20977
3.22459
3.23761
3.25287
3.25918
3.26576
3.2711
3.27015
3.27756
3.27809
3.28634
3.29053
3.30408
3.31744
3.33083
3.35427
3.37718
3.39597
3.42696
3.45115
3.47174
3.48957
3.17964
3.20502
3.21385
3.2365
3.24995
3.25441
3.26255
3.26866
3.26955
3.27554
3.2759
3.2822
3.28692
3.30056
3.3128
3.32471
3.34541
3.36702
3.38284
3.40837
3.42955
3.44733
3.46197
3.16608
3.19825
3.20853
3.23104
3.24474
3.24988
3.2567
3.26312
3.26522
3.27117
3.27251
3.27752
3.28345
3.29559
3.30731
3.31778
3.33544
3.35548
3.3697
3.39018
3.40862
3.42359
3.43631
3.16178
3.18869
3.19999
3.22263
3.23856
3.2447
3.24903
3.25672
3.25921
3.26491
3.26735
3.27337
3.2793
3.29016
3.30116
3.31046
3.32563
3.34344
3.35627
3.37247
3.3884
3.40087
3.41218
3.16383
3.18104
3.19885
3.21284
3.23137
3.23735
3.24329
3.25029
3.25174
3.25768
3.25972
3.26717
3.27325
3.28304
3.29377
3.30184
3.31457
3.3303
3.34216
3.35444
3.36783
3.37796
3.38809
3.15683
3.17343
3.18579
3.20538
3.22192
3.22838
3.23595
3.24334
3.24394
3.25216
3.25301
3.2597
3.26627
3.27562
3.28561
3.29288
3.30352
3.31668
3.32795
3.33802
3.34896
3.3569
3.36523
3.14118
3.16225
3.17197
3.19652
3.21045
3.21815
3.22672
3.23323
3.23768
3.24487
3.24547
3.2508
3.25705
3.26562
3.27564
3.28192
3.29132
3.30227
3.312
3.31964
3.32887
3.33535
3.34272
3.12451
3.15023
3.15673
3.18418
3.19756
3.20687
3.21384
3.22058
3.22811
3.23589
3.23726
3.2413
3.2471
3.25483
3.26458
3.27076
3.27836
3.28776
3.29758
3.30439
3.31154
3.31606
3.32146
3.08907
3.13538
3.13704
3.16836
3.1827
3.19345
3.19793
3.20534
3.21388
3.22194
3.22441
3.22931
3.23492
3.2413
3.25085
3.25659
3.26392
3.2706
3.27847
3.28459
3.29192
3.29636
3.30169
3.07404
3.11967
3.11519
3.15142
3.16657
3.17814
3.18268
3.1911
3.19918
3.20771
3.21124
3.21593
3.22135
3.22712
3.23578
3.24212
3.24816
3.25497
3.26246
3.26726
3.27274
3.27586
3.28017
3.03066
3.09958
3.1103
3.13162
3.14671
3.1589
3.16572
3.17424
3.18135
3.18877
3.19287
3.19882
3.2044
3.20896
3.21683
3.22272
3.22922
3.23317
3.23961
3.24478
3.25168
3.25554
3.26041
3.01346
3.07689
3.09086
3.11015
3.12516
3.1374
3.14757
3.15685
3.1637
3.17081
3.17491
3.17956
3.18548
3.19049
3.19715
3.20324
3.20992
3.21561
3.22068
3.22314
3.22741
3.23013
3.23485
3.00821
3.04728
3.06169
3.08269
3.09817
3.11053
3.12294
3.13284
3.14054
3.14689
3.15095
3.1556
3.15978
3.16549
3.17168
3.1771
3.18286
3.18754
3.19453
3.19956
3.20448
3.20658
3.21002
2.98369
3.01391
3.02981
3.05261
3.06962
3.08155
3.09532
3.10633
3.1149
3.12215
3.12652
3.13051
3.13456
3.13867
3.1458
3.15128
3.15812
3.16168
3.16594
3.16885
3.17394
3.17654
3.18118
2.94628
2.97249
2.99137
3.01502
3.03447
3.04616
3.05883
3.07052
3.08077
3.08816
3.09317
3.09719
3.10107
3.10546
3.11088
3.11525
3.12103
3.12551
3.13108
3.13382
3.13781
3.13963
3.1428
2.90451
2.92962
2.95245
2.97559
2.99788
3.00956
3.02145
3.03308
3.0437
3.052
3.05841
3.06346
3.067
3.07201
3.0787
3.08423
3.08825
3.09106
3.09396
3.09583
3.09938
3.10197
3.1073
2.85317
2.87909
2.90497
2.92731
2.9517
2.96437
2.97376
2.98551
2.99705
3.00461
3.01055
3.01723
3.02258
3.02691
3.03192
3.03818
3.04371
3.04738
3.05217
3.0539
3.05628
3.05786
3.06117
2.80191
2.8294
2.85707
2.87887
2.90376
2.91751
2.92734
2.93824
2.94914
2.95745
2.96342
2.9691
2.97506
2.98207
2.98766
2.99226
2.99686
2.9988
3.0006
3.00358
3.00683
3.00929
3.01565
2.74086
2.77013
2.79758
2.81921
2.84309
2.85716
2.86614
2.87747
2.88892
2.8958
2.9023
2.90855
2.91391
2.9187
2.92456
2.92916
2.93431
2.94035
2.9437
2.94565
2.94918
2.95147
2.95652
2.68223
2.71267
2.73925
2.76146
2.78295
2.7969
2.80775
2.81839
2.82878
2.83675
2.84192
2.84869
2.85525
2.86079
2.86604
2.86937
2.87084
2.87324
2.8777
2.88064
2.88625
2.88951
2.89621
2.6105
2.64068
2.66519
2.68825
2.70685
2.71852
2.72909
2.74024
2.75087
2.75731
2.76344
2.76904
2.77552
2.78019
2.78553
2.7896
2.79588
2.79692
2.80028
2.80249
2.80794
2.81118
2.81668
2.54368
2.57186
2.59432
2.6185
2.63564
2.6472
2.65784
2.66866
2.67765
2.68506
2.68987
2.69602
2.704
2.71003
2.71535
2.71889
2.72347
2.72912
2.73255
2.73664
2.74067
2.74448
2.74773
2.45728
2.48168
2.50062
2.52322
2.5391
2.54897
2.56003
2.57069
2.58007
2.58566
2.59042
2.59353
2.59848
2.60363
2.60943
2.61395
2.61692
2.62175
2.62713
2.63223
2.63579
2.64029
2.64171
2.38076
2.4007
2.41662
2.43675
2.45199
2.46387
2.47378
2.48571
2.49422
2.50191
2.50642
2.51134
2.51659
2.51937
2.52314
2.52704
2.53052
2.53326
2.53814
2.54285
2.55203
2.55564
2.5627
2.27408
2.28892
2.30009
2.31508
2.32658
2.33656
2.34759
2.35758
2.36736
2.37322
2.37724
2.37993
2.3843
2.38836
2.39125
2.39282
2.39594
2.39735
2.39968
2.404
2.4081
2.4163
2.42131
2.19063
2.20164
2.21005
2.22219
2.23178
2.23897
2.24766
2.25818
2.26837
2.2767
2.28281
2.28671
2.28944
2.29367
2.29731
2.30062
2.3039
2.30863
2.30952
2.31144
2.31467
2.31942
2.32858
2.05904
2.06429
2.06928
2.07674
2.08381
2.08814
2.0924
2.09799
2.10575
2.1132
2.11889
2.12331
2.12464
2.12655
2.12822
2.13084
2.13451
2.1408
2.14329
2.14773
2.15196
2.1525
2.15612
1.98451
1.98542
1.98879
1.99496
2.00159
2.00574
2.00936
2.0137
2.0206
2.02761
2.03362
2.03821
2.04012
2.04204
2.04383
2.0462
2.05009
2.05582
2.05959
2.06498
2.0692
2.06964
2.07216
1.80409
1.80045
1.79676
1.79563
1.79608
1.7967
1.79693
1.79543
1.79714
1.80095
1.80273
1.80435
1.80536
1.80619
1.8086
1.81106
1.81371
1.81815
1.82087
1.82763
1.82793
1.83071
1.83244
3.04588
2.71034
2.53672
2.42691
2.35842
2.31518
2.27995
2.25656
2.24123
2.22734
2.21776
2.21334
2.21056
2.21148
2.21449
2.22113
2.23459
2.2595
2.30013
2.36331
2.45603
2.62074
2.76042
3.05998
2.73324
2.55219
2.43833
2.36654
2.32124
2.28534
2.26076
2.24465
2.22924
2.21988
2.21575
2.21289
2.21362
2.21609
2.22225
2.23425
2.25502
2.28892
2.34409
2.42306
2.55109
2.66432
3.08307
2.75356
2.5715
2.45789
2.38632
2.3358
2.29639
2.26976
2.2503
2.23415
2.22458
2.21775
2.21446
2.21486
2.21732
2.22329
2.23465
2.25486
2.28822
2.34332
2.40154
2.50456
2.59354
3.09773
2.77755
2.5987
2.47736
2.39653
2.3422
2.30158
2.27406
2.25552
2.23915
2.22894
2.21949
2.21694
2.21649
2.21858
2.22362
2.23457
2.25422
2.28486
2.3322
2.38765
2.49065
2.5435
3.11551
2.80836
2.61879
2.49492
2.41372
2.35702
2.31507
2.28688
2.26297
2.24546
2.23403
2.22301
2.22051
2.21822
2.21973
2.22468
2.23437
2.25375
2.28237
2.33086
2.37893
2.45502
2.49874
3.13345
2.83109
2.64016
2.51024
2.42318
2.36564
2.32341
2.29168
2.27007
2.25078
2.23982
2.22879
2.22355
2.21957
2.22072
2.22515
2.23508
2.25411
2.28132
2.32964
2.37412
2.44002
2.47936
3.14552
2.8482
2.65219
2.52809
2.44383
2.38094
2.33487
2.29873
2.27545
2.25482
2.24468
2.23305
2.22695
2.22202
2.22282
2.22679
2.23461
2.25601
2.283
2.33076
2.38088
2.43399
2.47643
3.15218
2.8565
2.66568
2.53855
2.44764
2.38144
2.33475
2.29765
2.27456
2.2538
2.24437
2.23372
2.22908
2.22335
2.2239
2.22737
2.235
2.25416
2.28094
2.32326
2.38212
2.43296
2.47633
2.80783
2.48808
2.35276
2.28744
2.23526
2.22332
2.21728
2.26136
2.30411
2.3223
2.37064
2.48744
2.63539
2.74581
2.83329
2.93008
3.03999
3.1534
3.30763
3.45587
3.67595
3.86074
4.09108
2.82292
2.49939
2.3598
2.29346
2.2431
2.23167
2.2118
2.22957
2.25803
2.26322
2.30198
2.40525
2.54757
2.65761
2.75077
2.85635
2.97387
3.0921
3.2504
3.39915
3.61651
3.79748
4.02711
2.82657
2.50798
2.37011
2.30193
2.25482
2.23988
2.21343
2.21015
2.22443
2.22898
2.25428
2.3357
2.46783
2.57667
2.66896
2.77655
2.89957
3.02116
3.18821
3.33534
3.55292
3.72396
3.95202
2.84307
2.51981
2.3763
2.3063
2.26178
2.24647
2.21959
2.20178
2.20486
2.20443
2.21841
2.27769
2.39033
2.49079
2.58026
2.69103
2.81893
2.94615
3.11974
3.2644
3.48213
3.65296
3.88073
2.84815
2.53019
2.38793
2.31426
2.27239
2.25572
2.22323
2.20037
2.1965
2.19815
2.20316
2.23951
2.32828
2.4149
2.4943
2.60169
2.73138
2.86257
3.043
3.19162
3.40575
3.57542
3.7969
2.86786
2.54244
2.3982
2.31802
2.27823
2.26134
2.23035
2.20495
2.19766
2.19898
2.20163
2.21438
2.27327
2.34563
2.41585
2.51479
2.6424
2.77755
2.96443
3.1088
3.32239
3.50165
3.71593
2.87498
2.55486
2.40831
2.3253
2.2843
2.26559
2.23418
2.20895
2.20254
2.20265
2.20177
2.2037
2.24133
2.29179
2.342
2.43034
2.55285
2.68882
2.87585
3.02692
3.2362
3.41779
3.62061
2.89814
2.56744
2.42256
2.33356
2.29105
2.27066
2.2401
2.21635
2.2075
2.20731
2.20539
2.20238
2.21618
2.24769
2.28788
2.35852
2.46913
2.60277
2.7911
2.937
3.14315
3.33958
3.53119
2.9071
2.58205
2.43226
2.34096
2.29514
2.27324
2.2431
2.2211
2.21273
2.21131
2.20875
2.20213
2.20872
2.22233
2.2416
2.29637
2.39302
2.51902
2.69838
2.84778
3.05174
3.24769
3.43056
2.93338
2.59769
2.4469
2.3519
2.30326
2.27785
2.24934
2.22729
2.21695
2.21449
2.21152
2.2047
2.20294
2.20598
2.21883
2.25598
2.33054
2.44353
2.61429
2.75597
2.95464
3.15706
3.34129
2.94363
2.61196
2.45827
2.36255
2.30959
2.28113
2.25289
2.23167
2.22091
2.21717
2.21377
2.20675
2.20373
2.20391
2.20875
2.22917
2.28389
2.37704
2.52774
2.66452
2.86183
3.05963
3.24109
2.9724
2.63399
2.4727
2.37291
2.31754
2.28529
2.25768
2.23682
2.22475
2.21948
2.2152
2.20868
2.20351
2.20431
2.20855
2.22127
2.25501
2.32532
2.45191
2.57919
2.76758
2.9592
3.1471
2.98301
2.64735
2.4849
2.38732
2.32739
2.29195
2.26379
2.24123
2.22883
2.22154
2.21628
2.20982
2.20569
2.2063
2.20977
2.21927
2.24124
2.2894
2.38459
2.5011
2.67784
2.86348
3.05251
3.01228
2.67266
2.50236
2.39708
2.33673
2.29823
2.26838
2.24674
2.23298
2.22334
2.21677
2.21123
2.20702
2.20811
2.21173
2.21973
2.23688
2.27166
2.33674
2.43865
2.60279
2.77626
2.95699
3.0218
2.68962
2.5148
2.41312
2.34643
2.30595
2.27391
2.2508
2.23679
2.22482
2.21713
2.21241
2.20937
2.21033
2.21323
2.21992
2.23429
2.26159
2.30718
2.38254
2.50911
2.66655
2.84742
2.89985
2.9854
3.02875
3.07313
3.11014
3.13658
3.1614
3.17915
3.18398
3.20054
3.21243
3.21384
3.23726
3.26153
3.30766
3.36783
3.46086
3.62067
3.85269
4.14881
4.50646
4.89017
5.21059
2.87737
2.96293
3.01089
3.07045
3.10521
3.13557
3.15495
3.17829
3.18289
3.19708
3.20894
3.20896
3.23677
3.26202
3.30688
3.36608
3.45458
3.606
3.838
4.12344
4.47649
4.87477
5.21383
2.87598
2.9419
2.9876
3.05134
3.09866
3.12983
3.15238
3.17868
3.18347
3.19561
3.20921
3.20591
3.23716
3.26096
3.30488
3.36436
3.45166
3.59669
3.81017
4.0912
4.43233
4.80527
5.15736
2.86176
2.89904
2.9572
3.02704
3.08513
3.1226
3.15015
3.17457
3.17876
3.18935
3.20547
3.20263
3.23271
3.25974
3.30316
3.36235
3.44597
3.58653
3.79715
4.07081
4.40757
4.77316
5.11166
2.83482
2.8634
2.92519
2.99763
3.07291
3.10219
3.14603
3.16995
3.17528
3.18833
3.20211
3.20148
3.23123
3.25694
3.30078
3.36035
3.44321
3.57557
3.77759
4.04082
4.36369
4.72686
5.07738
2.81694
2.81802
2.8865
2.97114
3.04837
3.08539
3.13666
3.16184
3.17112
3.18441
3.20054
3.20166
3.22901
3.25524
3.29836
3.35781
3.43786
3.56942
3.7602
4.02319
4.34186
4.66812
5.00267
2.78355
2.7686
2.8483
2.93551
3.02284
3.06169
3.12109
3.15472
3.16701
3.18274
3.19932
3.1972
3.22742
3.25314
3.29541
3.35519
3.4347
3.55856
3.75012
3.99573
4.3017
4.6271
4.96853
2.76651
2.7258
2.80359
2.90231
2.99345
3.03521
3.10016
3.14329
3.16538
3.17736
3.19428
3.19339
3.22071
3.2484
3.29217
3.35174
3.42893
3.55329
3.7345
3.98287
4.28525
4.59321
4.91041
2.74262
2.67411
2.76059
2.86374
2.96009
3.00964
3.07946
3.12573
3.14989
3.16832
3.19328
3.19013
3.21798
3.24614
3.28806
3.34804
3.42499
3.54368
3.72354
3.95677
4.25492
4.55077
4.8865
2.72019
2.63111
2.71239
2.82253
2.92518
2.9773
3.05314
3.10456
3.13511
3.1635
3.18518
3.18902
3.21603
3.2448
3.28353
3.34326
3.41809
3.53633
3.71242
3.9426
4.2339
4.52768
4.8436
2.70601
2.58569
2.67106
2.77743
2.88082
2.94521
3.02756
3.08207
3.1214
3.1592
3.17807
3.18911
3.21505
3.2383
3.27797
3.33789
3.41295
3.52785
3.69759
3.92248
4.21107
4.48775
4.81391
2.6987
2.54708
2.61989
2.72886
2.83813
2.90508
2.99364
3.05442
3.09905
3.13946
3.17178
3.18502
3.20954
3.23471
3.27101
3.33116
3.40457