/*--------------------------------*- C++ -*----------------------------------*\
  =========                 |
  \\      /  F ield         | OpenFOAM: The Open Source CFD Toolbox
   \\    /   O peration     | Website:  https://openfoam.org
    \\  /    A nd           | Version:  7
     \\/     M anipulation  |
\*---------------------------------------------------------------------------*/
FoamFile
{
    version     2.0;
    format      ascii;
    class       volScalarField;
    location    "43";
    object      p;
}
// * * * * * * * * * * * * * * * * * * * * * * * * * * * * * * * * * * * * * //

dimensions      [0 2 -2 0 0 0 0];

internalField   nonuniform List<scalar> 
12842
(
0.0391023
0.0408561
0.0455386
0.0543735
0.0701733
0.0968025
0.140019
0.209027
0.317812
0.486251
0.740717
1.11344
1.63992
2.35383
3.28002
4.42621
5.77597
7.28738
8.89735
10.5304
12.1126
13.5787
14.893
-0.0020244
-0.00372842
-0.00501949
-0.00624325
-0.00409097
0.00518276
0.0261271
0.0664136
0.138471
0.260729
0.458598
0.764375
1.21517
1.84813
2.69315
3.76382
5.04937
6.51217
8.09114
9.71005
11.2928
12.7689
14.1012
-0.0355815
-0.0402487
-0.0464834
-0.057021
-0.0673827
-0.074318
-0.0748444
-0.0629982
-0.0281146
0.0465614
0.185377
0.420814
0.791949
1.33979
2.0996
3.09064
4.30709
5.7144
7.25241
8.84323
10.4087
11.8731
13.1995
-0.063203
-0.0689512
-0.0798658
-0.0995923
-0.121608
-0.143891
-0.165329
-0.18178
-0.184584
-0.158999
-0.0819928
0.0789616
0.36494
0.820946
1.48763
2.38986
3.52643
4.86558
6.34795
7.89425
9.42529
10.8608
12.167
-0.0864691
-0.0902856
-0.106532
-0.135231
-0.167869
-0.204646
-0.246405
-0.290943
-0.331961
-0.357235
-0.345506
-0.264614
-0.0717317
0.282036
0.842834
1.64133
2.68146
3.9349
5.34423
6.82979
8.31275
9.70837
10.9876
-0.106218
-0.105095
-0.128029
-0.164842
-0.206789
-0.256994
-0.318
-0.389663
-0.468409
-0.545059
-0.600618
-0.603881
-0.510727
-0.268738
0.173672
0.853216
1.77961
2.92902
4.24735
5.65563
7.07662
8.4206
9.66442
-0.122853
-0.114512
-0.14565
-0.188909
-0.238721
-0.300966
-0.379424
-0.476169
-0.590629
-0.717131
-0.839411
-0.92796
-0.938062
-0.814526
-0.500676
0.0461857
0.842092
1.86854
3.07618
4.3877
5.72894
7.00513
8.20113
-0.136605
-0.119792
-0.160395
-0.207986
-0.264524
-0.337354
-0.431144
-0.550368
-0.697598
-0.871037
-1.05759
-1.23033
-1.34487
-1.34432
-1.16753
-0.766126
-0.117341
0.766312
1.84182
3.03433
4.27521
5.46395
6.59824
-0.148867
-0.122054
-0.172256
-0.221054
-0.282262
-0.362273
-0.466455
-0.601469
-0.772526
-0.981317
-1.21765
-1.45761
-1.65796
-1.76167
-1.70464
-1.43443
-0.922482
-0.176051
0.768809
1.83934
2.97595
4.06769
5.13586
-0.161212
-0.122898
-0.18361
-0.231626
-0.296763
-0.38196
-0.493601
-0.640177
-0.828927
-1.06428
-1.33826
-1.62957
-1.89627
-2.08194
-2.12103
-1.95891
-1.56315
-0.937334
-0.111894
0.843035
1.8755
2.87188
3.86216
-0.171038
-0.122527
-0.194003
-0.240425
-0.309965
-0.399931
-0.518537
-0.675992
-0.881421
-1.14187
-1.45156
-1.79199
-2.12298
-2.38951
-2.52559
-2.47542
-2.20357
-1.71056
-1.02107
-0.201833
0.703502
1.58194
2.47056
-0.178342
-0.12157
-0.203004
-0.247425
-0.321598
-0.415739
-0.54076
-0.708361
-0.929464
-1.21371
-1.55762
-1.94589
-2.34064
-2.6891
-2.92569
-2.9943
-2.85701
-2.51144
-1.97616
-1.31364
-0.558399
0.179432
0.944316
-0.1838
-0.120608
-0.210586
-0.252991
-0.331695
-0.429292
-0.560072
-0.736913
-0.972496
-1.27907
-1.65566
-2.09059
-2.54892
-2.981
-3.32243
-3.51748
-3.52605
-3.34297
-2.98019
-2.49512
-1.91254
-1.33779
-0.720406
-0.187891
-0.119911
-0.216849
-0.257527
-0.340406
-0.440771
-0.576659
-0.761791
-1.01059
-1.33791
-1.7455
-2.2257
-2.74717
-3.26415
-3.71416
-4.04259
-4.20747
-4.20099
-4.02828
-3.74092
-3.35361
-2.96487
-2.52006
-0.190883
-0.119492
-0.221915
-0.26131
-0.347851
-0.450418
-0.590825
-0.783348
-1.04414
-1.39072
-1.82766
-2.35175
-2.93579
-3.5387
-4.10064
-4.56886
-4.89998
-5.08379
-5.11848
-5.04909
-4.87991
-4.7002
-4.45258
-0.192983
-0.119271
-0.225946
-0.264508
-0.354138
-0.458491
-0.602916
-0.80205
-1.07381
-1.43834
-1.90326
-2.47015
-3.11647
-3.80656
-4.48393
-5.09842
-5.60564
-5.99319
-6.25214
-6.42007
-6.49045
-6.54065
-6.51208
-0.194404
-0.11914
-0.229123
-0.267226
-0.359414
-0.465287
-0.613326
-0.818441
-1.10034
-1.48186
-1.97379
-2.58285
-3.29165
-4.07064
-4.86732
-5.63473
-6.3278
-6.93188
-7.43054
-7.8528
-8.18074
-8.47747
-8.68494
-0.19533
-0.119011
-0.231601
-0.269496
-0.363782
-0.471001
-0.622299
-0.832861
-1.12422
-1.52191
-2.04009
-2.69088
-3.46252
-4.33221
-5.25197
-6.17858
-7.06632
-7.898
-8.64902
-9.33849
-9.93666
-10.4902
-10.9436
-0.195903
-0.11882
-0.233496
-0.271328
-0.367347
-0.475779
-0.629995
-0.845507
-1.14568
-1.55876
-2.10241
-2.79442
-3.62903
-4.59074
-5.63661
-6.72746
-7.81672
-8.88399
-9.89552
-10.859
-11.7326
-12.5447
-13.2441
-0.196228
-0.118529
-0.234889
-0.272715
-0.370168
-0.479673
-0.636448
-0.856401
-1.1647
-1.59232
-2.16048
-2.89287
-3.79004
-4.84427
-6.01802
-7.27628
-8.5711
-9.87781
-11.1522
-12.389
-13.5339
-14.596
-15.53
-0.196379
-0.118108
-0.23585
-0.273694
-0.372364
-0.482794
-0.641768
-0.865647
-1.18134
-1.62253
-2.21402
-2.98552
-3.9441
-5.09023
-6.39193
-7.81825
-9.31891
-10.8635
-12.3957
-13.8956
-15.2969
-16.5892
-17.734
-0.196403
-0.117545
-0.236391
-0.274219
-0.373869
-0.484995
-0.645741
-0.872958
-1.19521
-1.64883
-2.26217
-3.071
-4.089
-5.32505
-6.75268
-8.34457
-10.0467
-11.8212
-13.5977
-15.3402
-16.9717
-18.4633
-19.7841
-0.196234
-0.116806
-0.236623
-0.274506
-0.375042
-0.486764
-0.649002
-0.879098
-1.20716
-1.67208
-2.30562
-3.14957
-4.22415
-5.54667
-7.09578
-8.84707
-10.7409
-12.7299
-14.7281
-16.6823
-18.5071
-20.1581
-21.6114
-0.195532
-0.115995
-0.236033
-0.273773
-0.374418
-0.486017
-0.64874
-0.880415
-1.21241
-1.68579
-2.33538
-3.20856
-4.33217
-5.73224
-7.39317
-9.29347
-11.3669
-13.5544
-15.7527
-17.8904
-19.8744
-21.6489
-23.1934
-0.1972
-0.116292
-0.23617
-0.273497
-0.373605
-0.484533
-0.64687
-0.878907
-1.21305
-1.69217
-2.35402
-3.25117
-4.41704
-5.88593
-7.64775
-9.68237
-11.9151
-14.2726
-16.6333
-18.9078
-20.9982
-22.8438
-24.4304
-0.197956
-0.116256
-0.235801
-0.272902
-0.372487
-0.48299
-0.645336
-0.87837
-1.21549
-1.70116
-2.37576
-3.29614
-4.50129
-6.03193
-7.88154
-10.0286
-12.3878
-14.8704
-17.3381
-19.6878
-21.8218
-23.6813
-25.2607
-0.197568
-0.115643
-0.234793
-0.27177
-0.370877
-0.481156
-0.643816
-0.878265
-1.21876
-1.71115
-2.39796
-3.33959
-4.57942
-6.16287
-8.08503
-10.3205
-12.7724
-15.3357
-17.8593
-20.2311
-22.3575
-24.1867
-25.7218
-0.196758
-0.114744
-0.233506
-0.270316
-0.368929
-0.479029
-0.642046
-0.877884
-1.22151
-1.71988
-2.41732
-3.37705
-4.64579
-6.27205
-8.25055
-10.55
-13.0612
-15.6642
-18.1992
-20.5501
-22.6312
-24.3998
-25.8676
-0.195973
-0.113813
-0.232249
-0.268839
-0.366979
-0.476926
-0.640286
-0.877356
-1.22364
-1.72701
-2.43316
-3.40747
-4.69891
-6.35745
-8.37568
-10.7148
-13.2536
-15.8594
-18.3679
-20.6638
-22.6723
-24.3612
-25.7489
-0.195311
-0.112958
-0.231145
-0.267485
-0.365202
-0.475052
-0.63875
-0.876898
-1.22541
-1.73282
-2.44578
-3.43114
-4.73896
-6.41902
-8.46017
-10.8151
-13.3517
-15.9272
-18.3775
-20.5919
-22.508
-24.1046
-25.4046
-0.194745
-0.1122
-0.230193
-0.266273
-0.363625
-0.47342
-0.637432
-0.876497
-1.22681
-1.73738
-2.45537
-3.44834
-4.76618
-6.45688
-8.50414
-10.8515
-13.358
-15.8741
-18.2398
-20.3522
-22.1614
-23.6566
-24.8639
-0.194229
-0.111536
-0.229351
-0.265155
-0.362171
-0.471918
-0.63618
-0.875967
-1.22766
-1.74052
-2.4618
-3.45898
-4.78051
-6.47098
-8.50775
-10.8253
-13.2759
-15.7071
-17.9666
-19.9614
-21.6534
-23.0414
-24.1534
-0.193727
-0.11095
-0.22856
-0.264075
-0.360764
-0.470437
-0.634841
-0.875126
-1.22776
-1.74205
-2.46492
-3.46291
-4.78182
-6.46129
-8.47144
-10.738
-13.1095
-15.4341
-17.57
-19.4355
-21.0041
-22.2822
-23.2984
-0.193212
-0.11042
-0.227769
-0.262975
-0.359324
-0.468868
-0.633288
-0.87383
-1.22696
-1.74181
-2.46453
-3.45994
-4.76991
-6.42782
-8.39586
-10.5921
-12.8637
-15.0633
-17.062
-18.7904
-20.2322
-21.4003
-22.3223
-0.192673
-0.10992
-0.226932
-0.261818
-0.357807
-0.467156
-0.631455
-0.872015
-1.22519
-1.73973
-2.46057
-3.44995
-4.74471
-6.37078
-8.28208
-10.3901
-12.5438
-14.6035
-16.4547
-18.0407
-19.3546
-20.414
-21.2443
-0.192108
-0.109428
-0.226022
-0.26058
-0.356178
-0.465259
-0.629308
-0.869652
-1.22244
-1.73579
-2.45297
-3.43288
-4.70628
-6.29065
-8.13158
-10.1354
-12.1556
-14.0632
-15.7595
-17.2
-18.3861
-19.3388
-20.0802
-0.191525
-0.108921
-0.225024
-0.259256
-0.354436
-0.463181
-0.626855
-0.866768
-1.21874
-1.73004
-2.4418
-3.40886
-4.65494
-6.18832
-7.9464
-9.83197
-11.7055
-13.4514
-14.9872
-16.2805
-17.3396
-18.1878
-18.8429
-0.190931
-0.108389
-0.223941
-0.257851
-0.35258
-0.460926
-0.624119
-0.863397
-1.21415
-1.72255
-2.42718
-3.37811
-4.59119
-6.06499
-7.72898
-9.48409
-11.2
-12.7763
-14.1479
-15.293
-16.2262
-16.9718
-17.5428
-0.190337
-0.10782
-0.222781
-0.256381
-0.350631
-0.458524
-0.621141
-0.859602
-1.20875
-1.71344
-2.40929
-3.34097
-4.51578
-5.92217
-7.48218
-9.0965
-10.6457
-12.0465
-13.2508
-14.2471
-15.0551
-15.6996
-16.1884
-0.189749
-0.107213
-0.221562
-0.254859
-0.3486
-0.455995
-0.617954
-0.855428
-1.20261
-1.70282
-2.38831
-3.29781
-4.42951
-5.76155
-7.20908
-8.6741
-10.0495
-11.2699
-12.3045
-13.1514
-13.8345
-14.3786
-14.7861
-0.189169
-0.106566
-0.2203
-0.253303
-0.346509
-0.453368
-0.614596
-0.850929
-1.1958
-1.69078
-2.36445
-3.24907
-4.33328
-5.58494
-6.91292
-8.22195
-9.41809
-10.4545
-11.3173
-12.0138
-12.5716
-13.015
-13.3412
-0.188596
-0.105884
-0.219013
-0.251721
-0.344363
-0.450654
-0.611088
-0.846134
-1.18837
-1.67743
-2.33788
-3.19514
-4.22801
-5.39421
-6.59699
-7.74511
-8.75825
-9.60805
-10.2973
-10.8417
-11.2728
-11.6142
-11.8578
-0.188028
-0.105169
-0.217712
-0.250121
-0.342178
-0.447871
-0.60745
-0.841073
-1.18036
-1.66285
-2.30879
-3.13646
-4.11462
-5.19125
-6.26464
-7.24871
-8.07678
-8.73843
-9.2524
-9.64287
-9.94524
-10.1821
-10.3408
-0.187459
-0.10443
-0.216408
-0.248505
-0.339949
-0.445019
-0.603688
-0.835754
-1.17179
-1.64708
-2.27732
-3.07339
-3.99401
-4.97791
-5.91918
-6.73781
-7.38048
-7.85377
-8.19148
-8.42588
-8.59677
-8.72606
-8.79675
-0.186886
-0.10367
-0.215103
-0.246872
-0.337683
-0.442104
-0.599807
-0.830187
-1.16269
-1.63017
-2.24362
-3.00632
-3.86709
-4.75609
-5.56394
-6.21756
-6.67634
-6.96262
-7.12403
-7.20067
-7.23735
-7.25583
-7.23537
-0.186302
-0.102895
-0.213799
-0.245217
-0.335372
-0.439122
-0.595804
-0.824368
-1.15306
-1.61217
-2.2078
-2.93561
-3.73473
-4.5276
-5.20218
-5.69302
-5.97142
-6.07398
-6.06076
-5.97902
-5.8794
-5.78422
-5.66963
-0.185703
-0.10211
-0.212492
-0.243534
-0.333014
-0.436064
-0.591667
-0.818287
-1.14289
-1.59309
-2.16999
-2.86163
-3.59783
-4.29425
-4.83711
-5.16925
-5.2729
-5.19737
-5.0135
-4.77475
-4.53788
-4.32676
-4.11496
-0.185068
-0.101305
-0.211165
-0.241805
-0.33059
-0.432916
-0.587382
-0.811927
-1.13218
-1.57296
-2.1303
-2.78472
-3.45722
-4.05779
-4.47187
-4.65119
-4.58798
-4.34274
-3.99513
-3.60372
-3.23045
-2.90245
-2.59024
-0.184275
-0.100496
-0.209801
-0.240022
-0.328098
-0.429673
-0.58296
-0.80537
-1.12119
-1.5525
-2.09044
-2.70846
-3.3197
-3.8298
-4.12447
-4.16452
-3.9509
-3.55376
-3.05848
-2.52883
-2.02723
-1.58982
-1.17825
-0.184018
-0.0999021
-0.208667
-0.238315
-0.325593
-0.426308
-0.578334
-0.798613
-1.11027
-1.53298
-2.05372
-2.64006
-3.19892
-3.6331
-3.82957
-3.75721
-3.42398
-2.90818
-2.2956
-1.65975
-1.05164
-0.527539
-0.0309418
-0.183656
-0.0992044
-0.20743
-0.236453
-0.322907
-0.422706
-0.57345
-0.791716
-1.09971
-1.5152
-2.02191
-2.58284
-3.10049
-3.47589
-3.59803
-3.44202
-3.02146
-2.42206
-1.72375
-1.01731
-0.330778
0.254682
0.813611
-0.183149
-0.0983857
-0.206046
-0.234377
-0.319959
-0.418759
-0.568177
-0.784517
-1.08929
-1.49877
-1.99415
-2.53489
-3.02031
-3.35027
-3.41617
-3.19766
-2.71314
-2.05516
-1.29456
-0.54121
0.199039
0.826654
1.42951
-0.18261
-0.0975113
-0.204563
-0.232124
-0.316772
-0.414487
-0.562536
-0.777048
-1.07902
-1.48359
-1.96994
-2.49473
-2.95499
-3.24968
-3.27276
-3.00698
-2.47503
-1.77469
-0.969764
-0.180484
0.593698
1.25096
1.88392
-0.182083
-0.0966171
-0.203009
-0.229723
-0.313379
-0.409936
-0.556604
-0.769415
-1.06902
-1.46967
-1.94897
-2.46133
-2.90204
-3.16934
-3.15978
-2.85792
-2.29065
-1.55787
-0.723091
0.0987006
0.893582
1.57263
2.2242
-0.181577
-0.0957095
-0.20141
-0.22723
-0.309873
-0.405251
-0.550586
-0.761881
-1.05956
-1.45722
-1.93112
-2.43388
-2.85945
-3.10543
-3.07081
-2.74116
-2.14755
-1.38864
-0.534858
0.316767
1.12614
1.82147
2.48158
-0.181057
-0.0947846
-0.19975
-0.224641
-0.306243
-0.400427
-0.544478
-0.754436
-1.05061
-1.44607
-1.91602
-2.41157
-2.82566
-3.05535
-3.00187
-2.65121
-2.03861
-1.25886
-0.393727
0.48163
1.30431
2.01043
2.67033
-0.180614
-0.0938619
-0.198116
-0.222059
-0.302632
-0.395631
-0.538451
-0.747192
-1.04208
-1.43571
-1.9023
-2.39156
-2.7956
-3.01093
-2.94104
-2.57231
-1.94409
-1.14635
-0.272645
0.619262
1.45591
2.16943
2.82526
-0.179954
-0.0927731
-0.196156
-0.219099
-0.298531
-0.390242
-0.531708
-0.739078
-1.03244
-1.42386
-1.88653
-2.36892
-2.76259
-2.9641
-2.8795
-2.49617
-1.85729
-1.04823
-0.171423
0.724377
1.57041
2.28305
2.9271
-0.179335
-0.0917355
-0.194269
-0.216252
-0.294592
-0.385089
-0.525301
-0.731403
-1.02329
-1.41242
-1.8709
-2.34597
-2.72875
-2.91611
-2.8168
-2.41974
-1.77177
-0.95469
-0.0762197
0.815205
1.66657
2.37613
3.00526
-0.178794
-0.0907833
-0.192524
-0.213608
-0.29094
-0.38034
-0.519445
-0.724441
-1.01499
-1.40184
-1.85595
-2.3232
-2.69424
-2.86624
-2.75056
-2.33811
-1.67928
-0.853725
0.0285378
0.913244
1.76691
2.47646
3.09173
-0.178277
-0.0898616
-0.190845
-0.211076
-0.287456
-0.375831
-0.513912
-0.71787
-1.00707
-1.39149
-1.84081
-2.29951
-2.65765
-2.81275
-2.67865
-2.24856
-1.57625
-0.740618
0.148404
1.02722
1.88058
2.5943
3.2003
-0.177758
-0.0889405
-0.189184
-0.208587
-0.284035
-0.371411
-0.508477
-0.71135
-0.999032
-1.38065
-1.82457
-2.27378
-2.61778
-2.75455
-2.60041
-2.15103
-1.46325
-0.616422
0.281581
1.15647
2.00734
2.72803
3.33138
-0.177233
-0.0880137
-0.187531
-0.206118
-0.280637
-0.367009
-0.503022
-0.704699
-0.990624
-1.369
-1.80681
-2.2456
-2.57441
-2.69184
-2.51684
-2.04761
-1.34374
-0.485831
0.421765
1.29434
2.14036
2.86809
3.47404
-0.176705
-0.0870865
-0.185885
-0.203663
-0.277248
-0.362602
-0.497511
-0.697871
-0.981793
-1.3565
-1.78762
-2.21527
-2.52817
-2.62586
-2.4301
-1.94171
-1.22282
-0.355662
0.559884
1.43013
2.26774
2.99867
3.60832
-0.176175
-0.0861599
-0.184247
-0.201219
-0.273863
-0.358182
-0.491941
-0.690873
-0.972586
-1.3433
-1.76727
-2.18331
-2.47999
-2.55811
-2.34249
-1.83681
-1.10557
-0.232856
0.686565
1.55215
2.37603
3.1026
3.71196
-0.17564
-0.0852359
-0.182616
-0.198786
-0.270482
-0.353754
-0.486321
-0.683737
-0.963075
-1.32954
-1.74605
-2.15023
-2.43069
-2.48981
-2.25582
-1.73548
-0.995703
-0.122515
0.794802
1.65137
2.45515
3.1675
3.76879
-0.175096
-0.0843121
-0.180989
-0.19636
-0.267104
-0.349319
-0.480662
-0.676486
-0.953316
-1.31533
-1.72417
-2.11632
-2.3807
-2.42157
-2.17091
-1.63883
-0.894713
-0.0266256
0.881816
1.7241
2.50156
3.19
3.77393
-0.174544
-0.0833891
-0.179366
-0.193941
-0.263731
-0.344882
-0.474973
-0.669143
-0.943353
-1.30074
-1.70172
-2.08175
-2.33019
-2.35349
-2.08772
-1.54657
-0.801977
0.0559271
0.94915
1.77221
2.51882
3.17582
3.73415
-0.173983
-0.0824649
-0.177743
-0.191527
-0.26036
-0.340443
-0.46926
-0.661719
-0.933204
-1.28581
-1.67874
-2.04648
-2.27903
-2.28523
-2.00554
-1.4574
-0.71531
0.128588
1.00166
1.80196
2.51556
3.13721
3.66436
-0.173414
-0.0815413
-0.176121
-0.189118
-0.256995
-0.336008
-0.46353
-0.654227
-0.922885
-1.27056
-1.65523
-2.01047
-2.22703
-2.21634
-1.92346
-1.36966
-0.631893
0.195797
1.04568
1.82149
2.50265
3.08867
3.58253
-0.172836
-0.0806179
-0.174498
-0.186715
-0.253635
-0.331576
-0.457784
-0.646667
-0.912399
-1.25496
-1.63115
-1.97362
-2.17398
-2.14635
-1.84057
-1.28172
-0.548991
0.261884
1.08748
1.83882
2.49013
3.04335
3.50497
-0.172254
-0.0796975
-0.172876
-0.184317
-0.250284
-0.327152
-0.452027
-0.639047
-0.901752
-1.23904
-1.60648
-1.93588
-2.11974
-2.07497
-1.75625
-1.19245
-0.464613
0.330091
1.13182
1.85998
2.4853
3.01026
3.44292
-0.171664
-0.0787803
-0.171254
-0.181926
-0.24694
-0.322735
-0.446259
-0.631365
-0.89094
-1.22277
-1.5812
-1.89719
-2.06423
-2.00206
-1.67022
-1.10127
-0.377703
0.402219
1.18147
1.88827
2.4915
2.99325
3.40119
-0.171069
-0.0778689
-0.169633
-0.179542
-0.243607
-0.318328
-0.440483
-0.623627
-0.879966
-1.20615
-1.55531
-1.85756
-2.00746
-1.92767
-1.58257
-1.00824
-0.288261
0.478447
1.23688
1.92397
2.50834
2.99106
3.37837
-0.170467
-0.076963
-0.168012
-0.177168
-0.240283
-0.313929
-0.434697
-0.615827
-0.868821
-1.18916
-1.52877
-1.81696
-1.94948
-1.85196
-1.49359
-0.913891
-0.197074
0.557674
1.29664
1.96499
2.53219
2.9986
3.36834
-0.16986
-0.076064
-0.166391
-0.174802
-0.23697
-0.309541
-0.428903
-0.607965
-0.857499
-1.1718
-1.50157
-1.77541
-1.89036
-1.77516
-1.4038
-0.819109
-0.105581
0.637767
1.3579
2.00739
2.55763
3.0085
3.36231
-0.169242
-0.0751707
-0.164771
-0.172446
-0.233666
-0.305161
-0.423097
-0.600032
-0.845981
-1.15403
-1.47366
-1.73286
-1.83014
-1.69748
-1.31372
-0.724887
-0.0154809
0.716141
1.41715
2.04659
2.57843
3.01293
3.35104
-0.168617
-0.0742839
-0.163149
-0.170098
-0.230374
-0.300791
-0.417278
-0.592025
-0.834252
-1.13581
-1.44501
-1.68929
-1.76888
-1.61918
-1.22393
-0.632286
0.071414
0.790052
1.47071
2.07794
2.58899
3.00502
3.3266
-0.167978
-0.0734015
-0.161526
-0.167761
-0.227089
-0.296427
-0.41144
-0.583929
-0.822285
-1.1171
-1.41554
-1.64464
-1.70657
-1.54041
-1.13487
-0.542219
0.153527
0.857078
1.5154
2.09772
2.58491
2.97988
3.28351
-0.167331
-0.072524
-0.159901
-0.165432
-0.223816
-0.292071
-0.405584
-0.575738
-0.810059
-1.09786
-1.38521
-1.59887
-1.64325
-1.46136
-1.04699
-0.455504
0.229512
0.915234
1.54872
2.10326
2.56371
2.93498
3.21924
-0.166669
-0.0716494
-0.158273
-0.163113
-0.220549
-0.287718
-0.3997
-0.567433
-0.797544
-1.07804
-1.35393
-1.55191
-1.5789
-1.38212
-0.960596
-0.372719
0.298472
0.963226
1.56921
2.09342
2.52465
2.87024
3.13398
-0.165995
-0.0707781
-0.156641
-0.160804
-0.217293
-0.283372
-0.393788
-0.55901
-0.784718
-1.0576
-1.32168
-1.50376
-1.51357
-1.30288
-0.876029
-0.294347
0.359811
1.00037
1.5764
2.06828
2.4688
2.78754
3.03021
-0.165305
-0.0699087
-0.155006
-0.158503
-0.214043
-0.279026
-0.387841
-0.550449
-0.771553
-1.0365
-1.2884
-1.45437
-1.4473
-1.22377
-0.793517
-0.220661
0.41336
1.02673
1.57076
2.02919
2.39843
2.69015
2.91191
-0.164603
-0.0690418
-0.153366
-0.156213
-0.210803
-0.274684
-0.381856
-0.541747
-0.758034
-1.01472
-1.2541
-1.40382
-1.38024
-1.14503
-0.713346
-0.15189
0.459172
1.04283
1.5535
1.97818
2.31665
2.58208
2.78363
-0.163883
-0.0681764
-0.151723
-0.153932
-0.207567
-0.27034
-0.375826
-0.532885
-0.744138
-0.992237
-1.21877
-1.35213
-1.3125
-1.06687
-0.635742
-0.0880922
0.497619
1.04968
1.52634
1.91786
2.22677
2.46733
2.64988
-0.163149
-0.0673137
-0.150075
-0.151661
-0.204342
-0.265996
-0.369749
-0.523861
-0.729859
-0.969055
-1.18244
-1.29943
-1.24431
-0.989601
-0.560997
-0.0293174
0.529164
1.04847
1.49125
1.8508
2.13204
2.34962
2.51467
-0.162395
-0.0664528
-0.148422
-0.149401
-0.20112
-0.261647
-0.363618
-0.51466
-0.715181
-0.945165
-1.14516
-1.24583
-1.17591
-0.913529
-0.489341
0.0245161
0.554448
1.04056
1.45023
1.77959
2.03532
2.23202
2.38122
-0.161626
-0.0655953
-0.146765
-0.14715
-0.197906
-0.257295
-0.357431
-0.505281
-0.700104
-0.920592
-1.107
-1.19152
-1.10759
-0.839027
-0.421063
0.0734519
0.574083
1.02722
1.40513
1.70637
1.93892
2.11693
2.25194
-0.160835
-0.0647405
-0.145103
-0.14491
-0.194694
-0.252933
-0.351179
-0.495709
-0.684617
-0.895341
-1.06802
-1.13666
-1.03963
-0.766417
-0.356367
0.117631
0.58874
1.00968
1.35755
1.63291
1.84459
2.00598
2.12838
-0.160025
-0.0638898
-0.143435
-0.142679
-0.191488
-0.248564
-0.344862
-0.485945
-0.668727
-0.869451
-1.02834
-1.08146
-0.972356
-0.69607
-0.2955
0.157141
0.598991
0.988977
1.30874
1.56045
1.75342
1.90009
2.01132
-0.159191
-0.0630426
-0.14176
-0.140457
-0.188281
-0.244178
-0.338469
-0.475974
-0.652426
-0.842939
-0.988029
-1.02611
-0.906055
-0.628274
-0.238593
0.192161
0.605418
0.965974
1.25962
1.48982
1.66601
1.79963
1.90098
-0.158335
-0.0622004
-0.140079
-0.138245
-0.185077
-0.23978
-0.332
-0.465797
-0.635722
-0.815848
-0.947207
-0.970841
-0.84104
-0.563338
-0.185802
0.222814
0.608455
0.941293
1.21083
1.42145
1.58257
1.70457
1.79715
-0.157451
-0.0613618
-0.138388
-0.13604
-0.181869
-0.23536
-0.325445
-0.455404
-0.618616
-0.78821
-0.905968
-0.915827
-0.777557
-0.501468
-0.137157
0.249294
0.608486
0.915392
1.1627
1.35551
1.503
1.61459
1.69933
-0.156544
-0.0605296
-0.136688
-0.133841
-0.178655
-0.230912
-0.318792
-0.444779
-0.6011
-0.760054
-0.864419
-0.861273
-0.715859
-0.442876
-0.092714
0.271726
0.60574
0.888495
1.11534
1.29188
1.42697
1.52915
1.60683
-0.155609
-0.0596977
-0.13498
-0.131654
-0.175444
-0.226452
-0.312064
-0.433956
-0.583231
-0.731478
-0.822722
-0.807416
-0.656206
-0.387731
-0.0524779
0.290246
0.600367
0.860647
1.06866
1.23025
1.35401
1.4476
1.51888
-0.154676
-0.0588856
-0.133259
-0.129444
-0.172164
-0.221862
-0.305094
-0.422729
-0.564794
-0.70232
-0.780835
-0.754387
-0.598867
-0.336349
-0.0167017
0.304657
0.592195
0.831606
1.02227
1.17012
1.2834
1.36908
1.43446
-0.153923
-0.0580554
-0.131577
-0.12721
-0.168778
-0.217026
-0.297628
-0.410632
-0.545058
-0.671656
-0.737956
-0.701956
-0.544581
-0.290413
0.0122658
0.312501
0.579042
0.799977
0.975864
1.11245
1.21748
1.29723
1.35852
-0.152334
-0.0565715
-0.128924
-0.123916
-0.164053
-0.210463
-0.287756
-0.395179
-0.520958
-0.636236
-0.69151
-0.649316
-0.495228
-0.254706
0.0270505
0.304564
0.550503
0.754826
0.918436
1.04645
1.14579
1.22197
1.28126
-0.15098
-0.0552207
-0.126445
-0.120753
-0.159371
-0.203779
-0.277378
-0.378575
-0.494881
-0.598206
-0.642548
-0.595229
-0.446226
-0.221103
0.0384896
0.29264
0.517647
0.705123
0.856076
0.975032
1.068
1.13973
1.19611
-0.14998
-0.0542037
-0.12443
-0.11814
-0.155328
-0.197806
-0.267637
-0.362323
-0.468649
-0.559443
-0.592503
-0.540061
-0.396385
-0.186892
0.0503608
0.280752
0.484093
0.653571
0.790368
0.898604
0.983622
1.04951
1.10184
-0.148974
-0.0532972
-0.122576
-0.115809
-0.151644
-0.19225
-0.258222
-0.346106
-0.442041
-0.520042
-0.542137
-0.48564
-0.348943
-0.156916
0.0562664
0.26119
0.44126
0.591156
0.712351
0.808625
0.884817
0.944347
0.992345
-0.147753
-0.0523217
-0.120606
-0.113433
-0.147873
-0.186504
-0.24831
-0.328916
-0.414055
-0.479424
-0.491855
-0.433851
-0.307432
-0.136149
0.0502763
0.227737
0.383132
0.512578
0.617662
0.701727
0.76897
0.822116
0.865686
-0.146295
-0.0512407
-0.118427
-0.110873
-0.143766
-0.180178
-0.237349
-0.310082
-0.384063
-0.437238
-0.441745
-0.385113
-0.272174
-0.124281
0.0337924
0.183069
0.313689
0.422911
0.5122
0.584286
0.642614
0.689227
0.72805
-0.144648
-0.0500817
-0.11605
-0.108124
-0.139281
-0.173188
-0.225219
-0.289513
-0.352093
-0.393636
-0.391781
-0.338608
-0.240803
-0.116892
0.013356
0.135612
0.242749
0.332888
0.407223
0.46785
0.517478
0.557548
0.59139
-0.142824
-0.0488637
-0.113492
-0.105211
-0.134437
-0.165563
-0.212005
-0.267426
-0.318561
-0.349106
-0.342067
-0.293354
-0.2106
-0.109239
-0.00442759
0.0934573
0.179466
0.252367
0.313087
0.363141
0.404602
0.438399
0.467267
-0.140821
-0.047591
-0.110754
-0.102148
-0.129255
-0.157353
-0.197847
-0.244156
-0.284066
-0.304405
-0.293113
-0.249091
-0.180136
-0.0986575
-0.0158062
0.0611795
0.129033
0.186987
0.235746
0.27635
0.31034
0.338287
0.362335
-0.138603
-0.0462501
-0.107821
-0.0989262
-0.123724
-0.148575
-0.182869
-0.220056
-0.249289
-0.260478
-0.245849
-0.206423
-0.149532
-0.0848049
-0.0201441
0.0396076
0.0923639
0.137704
0.176138
0.208397
0.235585
0.258098
0.277527
-0.13615
-0.0448274
-0.104669
-0.0955249
-0.117826
-0.139245
-0.16722
-0.195551
-0.215024
-0.218434
-0.201499
-0.166533
-0.119953
-0.0689511
-0.0189503
0.0269358
0.0674284
0.102341
0.132074
0.157157
0.178393
0.196073
0.211361
-0.13342
-0.0432978
-0.101267
-0.091917
-0.111535
-0.12939
-0.151101
-0.17115
-0.182148
-0.179439
-0.161364
-0.130801
-0.0929944
-0.0531126
-0.0147376
0.0201925
0.0509626
0.077521
0.100214
0.119424
0.13575
0.149404
0.161238
-0.130392
-0.0416446
-0.0975839
-0.0880766
-0.104848
-0.119089
-0.134805
-0.14747
-0.151593
-0.144615
-0.126613
-0.100485
-0.0702171
-0.0393423
-0.0101359
0.0162575
0.0394658
0.0595234
0.0767069
0.0913137
0.103771
0.114256
0.123378
-0.127027
-0.0398384
-0.0935873
-0.0839847
-0.0977822
-0.108478
-0.118716
-0.125197
-0.124246
-0.114869
-0.0980972
-0.0764546
-0.05275
-0.0292406
-0.00729216
0.012458
0.0298376
0.0449116
0.0578893
0.0689911
0.0785174
0.0866077
0.0937007
-0.123308
-0.0378683
-0.089256
-0.0796368
-0.0904064
-0.0977786
-0.10331
-0.105022
-0.100825
-0.0907418
-0.076118
-0.0589149
-0.040938
-0.023509
-0.00738051
0.00711666
0.0199174
0.0310849
0.0407682
0.0491225
0.056356
0.0625689
0.0680849
-0.119204
-0.0357074
-0.08457
-0.075053
-0.0828414
-0.0872856
-0.089091
-0.0875309
-0.081735
-0.0722375
-0.0602792
-0.0472082
-0.0340722
-0.0215522
-0.0100179
0.000384621
0.00963577
0.0177896
0.0249391
0.0311895
0.036674
0.0414596
0.0457807
-0.114713
-0.0333543
-0.0795332
-0.0702808
-0.0752672
-0.0773426
-0.0765254
-0.0730924
-0.0669733
-0.0588234
-0.0495634
-0.0399996
-0.0306638
-0.0218503
-0.0137106
-0.00630005
0.000373716
0.00634103
0.0116506
0.0163631
0.0205602
0.0242798
0.0276942
-0.109814
-0.0307943
-0.0741563
-0.0654039
-0.0679078
-0.0682854
-0.0659363
-0.0617835
-0.0561681
-0.0496386
-0.0427579
-0.0359332
-0.0293876
-0.0232161
-0.0174676
-0.0121588
-0.00729885
-0.00287392
0.00113667
0.00476823
0.00806884
0.01106
0.0138658
-0.104528
-0.0280469
-0.0684808
-0.0605268
-0.0609903
-0.0603579
-0.0574261
-0.0533698
-0.0486887
-0.0437355
-0.0387944
-0.0340145
-0.0294592
-0.0251308
-0.0210373
-0.0171804
-0.0135739
-0.0102174
-0.00711049
-0.00423971
-0.00158187
0.000868266
0.0031982
-0.0988583
-0.0251246
-0.0625534
-0.0557567
-0.0546839
-0.0536291
-0.050804
-0.0473177
-0.0436825
-0.0400895
-0.0366223
-0.033301
-0.0301013
-0.0270056
-0.0240027
-0.0211073
-0.0183321
-0.0156979
-0.0132094
-0.0108749
-0.00867874
-0.00663131
-0.00466432
-0.0928499
-0.0220752
-0.0564349
-0.0511576
-0.0490284
-0.0479336
-0.0455854
-0.0428136
-0.0400918
-0.0375143
-0.0350544
-0.0326756
-0.0303297
-0.0280003
-0.0256821
-0.0233974
-0.0211649
-0.0190126
-0.0169518
-0.0149982
-0.0131447
-0.0114053
-0.00973139
-0.0865406
-0.0189416
-0.0501606
-0.0467106
-0.0439137
-0.0429005
-0.0411093
-0.0389476
-0.0368636
-0.0349097
-0.0330352
-0.0311793
-0.0293123
-0.0274181
-0.0255115
-0.0236096
-0.0217431
-0.0199314
-0.0181956
-0.0165438
-0.0149797
-0.0135078
-0.0121
-0.0799896
-0.0157848
-0.0437353
-0.0423126
-0.0391218
-0.0381261
-0.0367945
-0.035077
-0.0333733
-0.0317618
-0.0301984
-0.0286305
-0.0270404
-0.0254227
-0.0237958
-0.022177
-0.020593
-0.0190595
-0.0175939
-0.0162019
-0.0148866
-0.01365
-0.0124721
-0.0732534
-0.0126509
-0.0371436
-0.0378071
-0.0344637
-0.0333608
-0.0323794
-0.0310221
-0.0295954
-0.0282175
-0.0268736
-0.0255208
-0.0241498
-0.0227598
-0.0213701
-0.0199958
-0.0186593
-0.0173726
-0.0161492
-0.0149924
-0.0139047
-0.0128852
-0.0119202
-0.0663584
-0.00959254
-0.0303469
-0.0330562
-0.0298217
-0.0285404
-0.0278303
-0.0268413
-0.0256984
-0.0245572
-0.0234273
-0.0222915
-0.0211347
-0.019967
-0.0187984
-0.0176498
-0.0165329
-0.0154634
-0.0144458
-0.0134877
-0.0125851
-0.0117414
-0.0109418
-0.0593529
-0.00667164
-0.0233712
-0.0279701
-0.0251586
-0.0236684
-0.0231386
-0.022503
-0.0216602
-0.0207523
-0.0198283
-0.0188939
-0.0179424
-0.0169851
-0.0160312
-0.0150983
-0.0141954
-0.0133347
-0.0125185
-0.0117517
-0.0110307
-0.0103562
-0.00971789
-0.0521454
-0.00383467
-0.0161358
-0.0223209
-0.0202338
-0.0185239
-0.0180223
-0.0176744
-0.0171378
-0.0164865
-0.0157896
-0.0150763
-0.0143481
-0.0136168
-0.0128887
-0.0121779
-0.0114899
-0.0108342
-0.0102113
-0.00962486
-0.00907086
-0.00855002
-0.0080543
-0.0448702
-0.0014218
-0.0090605
-0.0163717
-0.0153104
-0.0134638
-0.0128466
-0.0126784
-0.0124234
-0.0120403
-0.0115862
-0.0111066
-0.0106113
-0.0101133
-0.00961496
-0.00912661
-0.00864948
-0.00819043
-0.00774784
-0.00732496
-0.00691784
-0.0065278
-0.0061497
-0.0359619
0.00235587
-0.000629967
-0.00823367
-0.00810351
-0.00600842
-0.00493464
-0.00459486
-0.00435477
-0.00403288
-0.00363744
-0.00321737
-0.00279037
-0.00237583
-0.00197541
-0.00159877
-0.00124319
-0.000913307
-0.00060379
-0.000316243
-4.40325e-05
0.000211974
0.000459126
-0.0263094
-0.00128019
0.000415811
-0.00586845
-0.00753211
-0.00655899
-0.00583585
-0.005824
-0.00609667
-0.0063952
-0.00662953
-0.00680511
-0.00691578
-0.00697507
-0.00697782
-0.00693552
-0.00684503
-0.00671654
-0.006548
-0.00634848
-0.00611655
-0.00586139
-0.00558092
0.233042
0.210055
0.253013
0.310643
0.374954
0.446984
0.534549
0.639392
0.773904
0.95268
1.19935
1.54421
2.02682
2.69032
3.57369
4.69795
6.05487
7.602
9.27121
10.9729
12.6312
14.1544
15.5447
0.223285
0.212865
0.247554
0.303284
0.366573
0.439536
0.529499
0.641217
0.787349
0.985123
1.25998
1.64445
2.17844
2.90362
3.85499
5.04822
6.46912
8.07055
9.7804
11.5089
13.1786
14.7048
16.0835
0.210814
0.211756
0.23998
0.292082
0.353861
0.427003
0.518823
0.636347
0.792789
1.00719
1.30632
1.72399
2.29981
3.07351
4.0763
5.31923
6.78341
8.4184
10.1498
11.8886
13.5571
15.0766
16.439
0.19537
0.205007
0.228793
0.275856
0.33499
0.407048
0.499357
0.620605
0.78467
1.01172
1.32929
1.77164
2.37756
3.18458
4.22058
5.49299
6.97983
8.62889
10.3651
12.1009
13.759
15.2662
16.6104
0.176652
0.190924
0.211973
0.253156
0.30806
0.377235
0.467827
0.589615
0.757051
0.990857
1.31881
1.77491
2.39677
3.21984
4.26929
5.55025
7.03941
8.68471
10.4122
12.1363
13.7804
15.2751
16.6036
0.153812
0.16806
0.187067
0.221949
0.270758
0.334639
0.420435
0.53845
0.703487
0.936384
1.26467
1.72163
2.3435
3.16384
4.20593
5.47376
6.94442
8.56784
10.2729
11.9775
13.6061
15.0921
16.4128
0.124595
0.135285
0.151597
0.179697
0.220455
0.276203
0.353538
0.462839
0.619011
0.842772
1.16119
1.60672
2.21432
3.01609
4.03405
5.2719
6.70798
8.29505
9.96564
11.6417
13.2497
14.7261
16.0435
0.0852061
0.0913094
0.103043
0.122894
0.153077
0.197058
0.261258
0.355828
0.495599
0.701178
0.999404
1.42242
2.00475
2.77809
3.76427
4.96734
6.36693
7.9178
9.55479
11.2021