/*--------------------------------*- C++ -*----------------------------------*\
  =========                 |
  \\      /  F ield         | OpenFOAM: The Open Source CFD Toolbox
   \\    /   O peration     | Website:  https://openfoam.org
    \\  /    A nd           | Version:  7
     \\/     M anipulation  |
\*---------------------------------------------------------------------------*/
FoamFile
{
    version     2.0;
    format      ascii;
    class       surfaceScalarField;
    location    "43";
    object      phi;
}
// * * * * * * * * * * * * * * * * * * * * * * * * * * * * * * * * * * * * * //

dimensions      [0 3 -1 0 0 0 0];

internalField   nonuniform List<scalar> 
25449
(
70.8117
30.3438
-4.85872
52.4231
22.0808
-3.69222
39.0212
16.2132
-2.81132
29.1729
11.9915
-2.1432
21.8879
8.92142
-1.63637
16.4704
6.66925
-1.25183
12.4251
5.00529
-0.959901
9.39433
3.76885
-0.738114
7.11793
2.84582
-0.569424
5.4047
2.15414
-0.440908
4.11331
1.63416
-0.342772
3.13876
1.24214
-0.267596
2.40273
0.945796
-0.209766
1.8466
0.721174
-0.165046
1.42638
0.550468
-0.130246
1.10895
0.420415
-0.102985
0.869321
0.321121
-0.0814888
0.688569
0.245191
-0.0644397
0.552354
0.187076
-0.0508609
0.449784
0.142594
-0.0400232
0.372593
0.108568
-0.031378
0.314512
0.0825746
-0.0244931
0.0627354
-0.0190501
0.270826
57.4262
50.4617
42.7567
36.7503
31.9734
26.9964
23.9948
19.9701
18.0605
14.8557
13.6286
11.1011
10.3081
8.32578
7.81409
6.2629
5.93708
4.72283
4.52226
3.56896
3.45455
2.70188
2.64805
2.04864
2.03851
1.55534
1.57769
1.18199
1.22934
0.898817
0.966121
0.683635
0.767368
0.519875
0.617428
0.395131
0.504418
0.300086
0.419312
0.2277
0.355256
0.172624
0.307049
0.130781
0.0990012
0.270783
45.4543
65.8279
34.0904
48.1142
25.6422
35.4445
19.3354
26.2769
14.6118
19.5794
11.0649
14.648
8.39639
10.9943
6.38558
8.27371
4.8685
6.23991
3.72279
4.71467
2.85686
3.56781
2.20202
2.70348
1.70663
2.05073
1.33184
1.55677
1.04837
1.18229
0.834083
0.897923
0.672229
0.681728
0.550098
0.517262
0.458029
0.392155
0.388676
0.297053
0.336461
0.224839
0.297152
0.17009
0.128586
0.267567
35.5724
77.2495
26.9468
56.7399
20.4292
41.9622
15.5021
31.204
11.7762
23.3053
8.95787
17.4664
6.8255
13.1267
5.21178
9.88744
3.99027
7.46141
3.06543
5.63951
2.36504
4.2682
1.83454
3.23398
1.43272
2.45256
1.1284
1.86109
0.898039
1.41265
0.723785
1.07218
0.592098
0.813415
0.492682
0.616679
0.417701
0.467136
0.361192
0.353562
0.318624
0.267407
0.286559
0.202155
0.152737
0.262408
27.7564
85.5048
21.3165
63.1798
16.3319
46.9468
12.4958
35.0401
9.55596
26.2452
7.30978
19.7125
5.59747
14.839
4.29424
11.1907
3.30349
8.45217
2.55086
6.39214
1.97941
4.83965
1.54567
3.66771
1.21658
2.78165
0.967008
2.11067
0.777859
1.6018
0.634634
1.2154
0.526297
0.921752
0.444439
0.698536
0.38265
0.528925
0.336043
0.400169
0.300903
0.302547
0.274411
0.228647
0.17271
0.254438
21.724
91.2635
16.9936
67.9102
13.1992
50.7412
10.2047
38.0346
7.86787
28.582
6.05868
21.5217
4.66601
16.2317
3.59836
12.2583
2.78226
9.26826
2.15974
7.01467
1.68555
5.31384
1.32471
4.02856
1.05034
3.05601
0.841886
2.31912
0.683649
1.76004
0.563655
1.33539
0.472766
1.01264
0.404
0.767302
0.352024
0.580901
0.312768
0.439425
0.283132
0.332182
0.260763
0.251017
0.189595
0.243879
17.1401
95.0725
13.7311
71.3191
10.848
53.6243
8.49251
40.3901
6.61022
30.4643
5.12843
23.0035
3.97405
17.386
3.08131
13.1511
2.3945
9.95508
1.86803
7.54114
1.46549
5.71638
1.15825
4.33579
0.924057
3.29021
0.745732
2.49745
0.610092
1.89568
0.507037
1.43845
0.42883
1.09085
0.369548
0.826583
0.324658
0.625791
0.290692
0.473391
0.265005
0.357869
0.245586
0.270436
0.204275
0.230906
13.6876
97.364
11.2945
73.7122
9.10394
55.8149
7.22914
42.2649
5.68565
32.0078
4.44603
24.2431
3.46676
18.3653
2.7019
13.9159
2.1092
10.5478
1.65243
7.99791
1.30175
6.06706
1.03321
4.60433
0.827951
3.49547
0.671271
2.65413
0.551815
2.01513
0.460845
1.52942
0.391648
1.16004
0.339071
0.879161
0.299163
0.665699
0.268895
0.503659
0.245956
0.380808
0.228576
0.287815
0.217435
0.215415
11.0149
101.358
8.15449
76.5726
6.08049
57.8889
4.56354
43.7818
3.44541
33.1259
2.61631
25.0722
1.99858
18.983
1.53652
14.378
1.18981
10.8945
0.928942
8.25878
0.732197
6.26381
0.583507
4.75302
0.470938
3.60804
0.385598
2.73947
0.320841
2.07989
0.271677
1.57859
0.234344
1.19738
0.205993
0.907511
0.184466
0.687227
0.168121
0.520003
0.155713
0.393217
0.146298
0.29723
0.224582
0.139151
8.5869
104.47
6.36128
78.7983
4.74888
59.5013
3.57061
44.9601
2.70264
33.9939
2.05939
25.7155
1.58032
19.4621
1.22208
14.7362
0.953302
11.1633
0.751056
8.46103
0.598479
6.41638
0.483096
4.8684
0.395655
3.69548
0.329266
2.80585
0.278785
2.13037
0.240355
1.61701
0.211073
1.22666
0.188743
0.929841
0.171704
0.704265
0.158698
0.533009
0.148768
0.403147
0.141193
0.304805
0.230362
0.135414
6.69099
106.882
4.96577
80.5235
3.71524
60.7518
2.80119
45.8741
2.12767
34.6674
1.62844
26.2147
1.25656
19.834
0.978438
15.0143
0.769715
11.372
0.612593
8.61815
0.49398
6.535
0.404188
4.95819
0.336035
3.76363
0.284175
2.85771
0.244622
2.16992
0.214392
1.64725
0.191241
1.24981
0.173481
0.947601
0.159836
0.71791
0.149344
0.543501
0.141271
0.411219
0.135067
0.311009
0.235128
0.130301
5.21595
108.738
3.88448
81.8549
2.91677
61.7195
2.20804
46.5829
1.68491
35.1905
1.29666
26.6029
1.00716
20.1235
0.790448
15.231
0.62768
11.5348
0.505038
8.74079
0.412346
6.62769
0.342063
5.02848
0.288595
3.8171
0.247778
2.89853
0.216512
2.20119
0.192479
1.67128
0.173945
1.26834
0.159608
0.961939
0.14849
0.729029
0.139855
0.552135
0.133145
0.417929
0.127939
0.316215
0.239164
0.123903
4.0722
110.153
3.04996
82.8772
2.30255
62.4669
1.75261
47.1328
1.34514
35.598
1.04184
26.9062
0.81514
20.3502
0.645123
15.4011
0.517216
11.6627
0.420684
8.83732
0.34759
6.70078
0.292037
5.08403
0.249638
3.8595
0.217129
2.93104
0.192081
2.22624
0.172682
1.69068
0.157585
1.28344
0.145782
0.973742
0.136522
0.738289
0.129244
0.559413
0.12352
0.423653
0.119029
0.320706
0.242681
0.115512
3.19491
111.22
2.41382
83.6583
1.83643
63.0443
1.40791
47.5613
1.0882
35.9177
0.848966
27.1455
0.669407
20.5297
0.534294
15.5362
0.432363
11.7646
0.355238
8.91445
0.296682
6.75934
0.252031
5.12868
0.217807
3.89372
0.191414
2.95743
0.170924
2.24673
0.154904
1.7067
0.142293
1.29605
0.132307
0.983728
0.124365
0.746231
0.118036
0.565742
0.112993
0.428696
0.10899
0.324709
0.24585
0.10582
2.51012
112.007
1.92056
84.2478
1.47669
63.4882
1.14255
47.8955
0.890499
36.1698
0.700298
27.3357
0.556611
20.6734
0.447941
15.6448
0.36562
11.8469
0.303102
8.97697
0.25546
6.80698
0.218975
5.16517
0.190856
3.92184
0.169014
2.97928
0.151898
2.26384
0.138359
1.72024
0.127558
1.30685
0.118877
0.992409
0.111867
0.753241
0.106198
0.57141
0.10162
0.433274
0.0979418
0.328387
0.248792
0.0949999
1.99158
112.573
1.55075
84.6887
1.20888
63.8301
0.945796
48.1586
0.744045
36.3715
0.589906
27.4898
0.472368
20.791
0.382836
15.7344
0.314625
11.9151
0.262569
9.02902
0.222714
6.84684
0.192033
5.19585
0.168235
3.94564
0.149595
2.99792
0.134834
2.27861
0.12301
1.73206
0.11344
1.31642
0.105632
1.00022
0.0992333
0.75964
0.0939876
0.576656
0.0896991
0.437562
0.0862189
0.331867
0.2516
0.0834117
1.59466
112.961
1.27108
85.0123
1.00814
64.093
0.799091
48.3676
0.635002
36.5356
0.507505
27.6173
0.409068
20.8894
0.333386
15.8101
0.275311
11.9732
0.230725
9.07361
0.196401
6.88116
0.169821
5.22243
0.149059
3.9664
0.132652
3.01432
0.119514
2.29174
0.108854
1.74272
0.100103
1.32517
0.0928618
1.00746
0.0868468
0.765655
0.0818583
0.581644
0.0777405
0.44168
0.0743737
0.335234
0.254331
0.0716421
1.29152
113.204
1.06083
85.2429
0.859003
64.2948
0.690885
48.5357
0.554749
36.6717
0.446667
27.7254
0.361931
20.9741
0.296052
15.8759
0.245072
12.0242
0.20567
9.11301
0.175154
6.91168
0.15138
5.2462
0.132678
3.9851
0.11777
3.02923
0.105707
2.30381
0.0958005
1.75263
0.0875665
1.33341
0.0806706
1.01435
0.0748824
0.771443
0.0700419
0.586485
0.0660215
0.4457
0.062721
0.338535
0.257016
0.0600362
1.063
113.33
0.905814
85.4001
0.750971
64.4497
0.6134
48.6733
0.497534
36.7876
0.403152
27.8198
0.327851
21.0494
0.26858
15.9352
0.222298
12.0705
0.186276
9.14903
0.158214
6.93974
0.136226
5.26819
0.11882
4.00251
0.104838
3.04321
0.0934234
2.31522
0.0839568
1.76209
0.0760118
1.34135
0.069301
1.02106
0.0636311
0.777113
0.0588694
0.591246
0.054906
0.449664
0.0516512
0.34179
0.259661
0.0490064
0.891746
113.36
0.793178
85.4987
0.674482
64.5684
0.559517
48.7883
0.458053
36.8891
0.373016
27.9048
0.303901
21.1186
0.248808
15.9903
0.205401
12.1139
0.171392
9.18304
0.144757
6.96637
0.123784
5.28916
0.107097
4.01919
0.0936144
3.0567
0.0825337
2.3263
0.0732799
1.77135
0.0654648
1.34917
0.0588336
1.0277
0.0532176
0.782729
0.0485017
0.595962
0.0445837
0.453582
0.0413773
0.344996
0.262254
0.0387834
0.766791
113.31
0.714794
85.5507
0.623483
64.6597
0.5247
48.887
0.432895
36.9809
0.353681
27.984
0.288126
21.1841
0.235247
16.0432
0.193244
12.1559
0.160144
9.21614
0.134109
6.99241
0.113535
5.30974
0.0971089
4.03562
0.083789
3.07002
0.0728011
2.33729
0.0635932
1.78056
0.0557999
1.35696
0.0491858
1.03431
0.0435966
0.788318
0.0389243
0.600634
0.0350658
0.45744
0.0319301
0.348132
0.264772
0.0294127
0.674497
113.192
0.660522
85.5647
0.590403
64.7298
0.503283
48.9742
0.417806
37.0664
0.341948
28.0599
0.278118
21.2479
0.226082
16.0952
0.184459
12.1975
0.151503
9.2491
0.125496
7.01842
0.104898
5.33034
0.0884245
4.05209
0.0750465
3.08339
0.0639997
2.34833
0.0547409
1.78981
0.0469164
1.36479
0.0403009
1.04092
0.0347449
0.793874
0.0301389
0.60524
0.0263716
0.461208
0.0233397
0.351164
0.267181
0.0209307
0.607247
113.015
0.624738
85.5472
0.571064
64.7835
0.492142
49.0531
0.410446
37.148
0.336058
28.1343
0.27255
21.3115
0.220311
16.1475
0.178285
12.2395
0.144887
9.28249
0.118475
7.04483
0.0975342
5.35128
0.0807845
4.06884
0.0671905
3.09699
0.055983
2.35954
0.0466161
1.79918
0.0387388
1.37266
0.0321266
1.04754
0.0266266
0.799374
0.0221198
0.609747
0.0184801
0.464848
0.0155882
0.354055
0.269446
0.0133225
-0.0361082
112.992
-0.0192946
85.5304
-0.00673289
64.7709
0.00267698
49.0437
0.00974257
37.141
0.0150434
28.129
0.0190052
21.3075
0.0219286
16.1445
0.0240145
12.2374
0.0253846
9.28112
0.0261027
7.04411
0.0261852
5.35119
0.025633
4.0694
0.0244543
3.09817
0.0227107
2.36129
0.0205234
1.80137
0.0180766
1.37511
0.0155746
1.05004
0.0131995
0.801749
0.0110839
0.611863
0.00928647
0.466645
0.00781888
0.355523
0.270611
0.00665378
-0.037234
112.973
-0.0227821
85.5159
-0.0120001
64.7601
-0.00393677
49.0356
0.00211129
37.1349
0.00664229
28.1244
0.0100237
21.3041
0.0125127
16.142
0.0142795
12.2357
0.0154243
9.27998
0.0159987
7.04353
0.0160141
5.35118
0.0154724
4.06994
0.0143869
3.09925
0.0128249
2.36285
0.0109113
1.80328
0.00882616
1.3772
0.00675913
1.05211
0.0048647
0.803644
0.00324205
0.613486
0.00191827
0.467969
0.000880244
0.356561
0.271403
8.84044e-05
-0.0380681
112.957
-0.0257064
85.5036
-0.016498
64.7509
-0.0096243
49.0287
-0.00447506
37.1298
-0.00062357
28.1206
0.0022463
21.3012
0.00435386
16.1399
0.00584239
12.2342
0.00679502
9.27903
0.00725373
7.04308
0.00722824
5.3512
0.00672397
4.07044
0.00576176
3.10021
0.00441528
2.36419
0.00281145
1.80489
0.00112089
1.37889
-0.000486853
1.05371
-0.00189019
0.805047
-0.00302651
0.614622
-0.00389718
0.468839
-0.00453584
0.3572
0.271858
-0.00499086
-0.0386731
112.943
-0.0281781
85.4931
-0.0203742
64.7431
-0.0145622
49.0229
-0.0102147
37.1254
-0.00696903
28.1173
-0.00455456
21.2988
-0.00278542
16.1382
-0.00154153
12.2329
-0.000754104
9.27824
-0.000387921
7.04271
-0.000432451
5.35125
-0.000876423
4.07089
-0.00168971
3.10103
-0.00279264
2.3653
-0.00405883
1.80615
-0.00533306
1.38016
-0.00647283
1.05485
-0.00739271
0.805967
-0.00806614
0.615295
-0.00851869
0.469292
-0.00879882
0.35748
0.272017
-0.00895815
-0.0390948
112.931
-0.0302796
85.4842
-0.0237385
64.7366
-0.0188811
49.0181
-0.0152541
37.1218
-0.0125526
28.1146
-0.0105466
21.2968
-0.00907993
16.1367
-0.00805258
12.2319
-0.00740772
9.27759
-0.00711456
7.04242
-0.00715956
5.35129
-0.00752371
4.07125
-0.00816667
3.10167
-0.00900392
2.36613
-0.00991344
1.80706
-0.010761
1.38101
-0.0114363
1.05553
-0.0118917
0.806422
-0.0121345
0.615538
-0.0122092
0.469367
-0.0121735
0.357444
0.271922
-0.0120778
-0.0393678
112.921
-0.032073
85.4769
-0.0266747
64.7312
-0.0226804
49.0141
-0.0197051
37.1188
-0.0174953
28.1124
-0.0158579
21.2952
-0.0146631
16.1355
-0.0138285
12.2311
-0.0133069
9.27707
-0.0130701
7.04218
-0.0130998
5.35132
-0.0133677
4.07152
-0.0138229
3.10213
-0.0143779
2.36669
-0.0149191
1.8076
-0.0153385
1.38143
-0.0155621
1.05575
-0.0155796
0.80644
-0.0154283
0.615387
-0.0151667
0.469105
-0.0148562
0.357134
0.271608
-0.0145427
-0.0395189
112.913
-0.0336069
85.471
-0.029247
64.7268
-0.0260373
49.0109
-0.0236538
37.1164
-0.0218906
28.1107
-0.0205875
21.2939
-0.0196382
16.1346
-0.0189758
12.2304
-0.0185609
9.27666
-0.0183661
7.04198
-0.0183669
5.35132
-0.0185248
4.07167
-0.0187786
3.10238
-0.0190399
2.36695
-0.019208
1.80777
-0.0192053
1.38143
-0.0189965
1.05554
-0.0186072
0.80605
-0.0180998
0.614879
-0.0175417
0.468547
-0.016994
0.356586
0.271109
-0.0164956
-0.0395693
112.907
-0.0349196
85.4664
-0.0315076
64.7234
-0.0290137
49.0084
-0.0271702
37.1146
-0.0258141
28.1093
-0.0248153
21.2929
-0.0240886
16.1338
-0.0235806
12.2299
-0.023258
9.27634
-0.0230929
7.04182
-0.0230534
5.35128
-0.0230903
4.07171
-0.0231326
3.10242
-0.0230937
2.36691
-0.0228899
1.80757
-0.0224773
1.38101
-0.0218603
1.05493
-0.0210974
0.805287
-0.0202712
0.614053
-0.0194537
0.467729
-0.0187026
0.355835
0.270455
-0.0180481
-0.0395355
112.902
-0.0360427
85.4629
-0.0334992
64.7209
-0.0316605
49.0065
-0.0303113
37.1133
-0.0293276
28.1083
-0.0286068
21.2922
-0.0280826
16.1333
-0.0277133
12.2295
-0.0274705
9.27609
-0.0273245
7.04167
-0.0272353
5.35119
-0.0271424
4.07162
-0.0269669
3.10225
-0.0266259
2.36657
-0.0260567
1.807
-0.0252514
1.38021
-0.0242534
1.05393
-0.0231508
0.804185
-0.0220415
0.612944
-0.0209986
0.466687
-0.020074
0.35491
0.269669
-0.0192881
-0.0394321
112.899
-0.0370026
85.4605
-0.0352565
64.7191
-0.0340199
49.0053
-0.0331246
37.1124
-0.0324828
28.1077
-0.0320167
21.2917
-0.0316773
16.133
-0.0314329
12.2293
-0.031259
9.27592
-0.031123
7.04154
-0.0309763
5.35105
-0.0307475
4.07139
-0.0303509
3.10185
-0.0297104
2.36593
-0.028787
1.80607
-0.0276098
1.37903
-0.02626
1.05258
-0.0248512
0.802776
-0.0234921
0.611585
-0.0222543
0.465449
-0.021182
0.353838
0.268772
-0.0202856
-0.0392712
112.897
-0.037822
85.459
-0.0368107
64.7181
-0.0361289
49.0046
-0.0356516
37.1119
-0.0353246
28.1074
-0.0350926
21.2915
-0.0349223
16.1328
-0.0347908
12.2292
-0.0346762
9.2758
-0.0345426
7.0414
-0.0343323
5.35084
-0.0339638
4.07102
-0.033346
3.10123
-0.0324124
2.365
-0.0311499
1.80481
-0.0296247
1.3775
-0.0279532
1.05091
-0.0262704
0.801093
-0.0246921
0.610007
-0.0232859
0.464043
-0.0220879
0.35264
0.267783
-0.0210983
-0.0390628
112.896
-0.0385205
85.4585
-0.0381888
64.7178
-0.0380195
49.0044
-0.0379285
37.1118
-0.0378921
28.1073
-0.0378761
21.2914
-0.0378609
16.1328
-0.0378317
12.2291
-0.0377681
9.27574
-0.0376305
7.04127
-0.0373521
5.35056
-0.0368421
4.07051
-0.0360063
3.1004
-0.0347895
2.36378
-0.0332066
1.80323
-0.0313592
1.37566
-0.0293961
1.04894
-0.0274697
0.799167
-0.0256995
0.608236
-0.0241481
0.462491
-0.0228427
0.351334
0.266714
-0.0217742
-0.0388165
112.896
-0.0391156
85.4588
-0.0394141
64.7181
-0.03972
49.0047
-0.0399871
37.1121
-0.0402201
28.1076
-0.0404039
21.2916
-0.0405316
16.1329
-0.0405953
12.2292
-0.0405756
9.27572
-0.0404287
7.04112
-0.0400793
5.35021
-0.0394282
4.06986
-0.0383802
3.09935
-0.0368936
2.36229
-0.0350114
1.80135
-0.0328693
1.37352
-0.0306441
1.04672
-0.0285026
0.797025
-0.026565
0.606299
-0.024888
0.460814
-0.0234907
0.349937
0.265579
-0.0223549
-0.0385408
112.898
-0.0396232
85.4599
-0.0405083
64.719
-0.0412567
49.0055
-0.041857
37.1127
-0.0423405
28.108
-0.0427098
21.292
-0.0429698
16.1332
-0.0431182
12.2293
-0.0431363
9.27574
-0.0429761
7.04096
-0.0425541
5.34979
-0.0417643
4.06907
-0.0405125
3.0981
-0.0387721
2.36055
-0.0366144
1.79919
-0.0342059
1.37111
-0.0317478
1.04426
-0.0294174
0.794695
-0.0273341
0.604216
-0.0255487
0.459029
-0.0240722
0.348461
0.264385
-0.0228785
-0.0382425
112.9
-0.0400575
85.4617
-0.041491
64.7204
-0.042653
49.0067
-0.0435646
37.1136
-0.044282
28.1088
-0.0448244
21.2925
-0.045207
16.1336
-0.0454331
12.2296
-0.045484
9.27579
-0.0453074
7.04078
-0.0448126
5.34929
-0.0438883
4.06815
-0.0424437
3.09665
-0.0404681
2.35858
-0.0380605
1.79678
-0.0354147
1.36846
-0.032752
1.0416
-0.0302571
0.7922
-0.0280476
0.602006
-0.0261685
0.45715
-0.0246234
0.346915
0.263141
-0.0233792
-0.0379293
112.903
-0.0404326
85.4642
-0.0423811
64.7224
-0.0439312
49.0082
-0.0451351
37.1148
-0.046072
28.1097
-0.0467766
21.2932
-0.0472739
16.134
-0.0475716
12.2299
-0.0476512
9.27587
-0.0474561
7.04059
-0.0468897
5.34873
-0.0458369
4.06709
-0.0442124
3.09503
-0.0420225
2.35639
-0.039392
1.79415
-0.0365386
1.36561
-0.033699
1.03876
-0.0310628
0.789564
-0.0287446
0.599688
-0.0267845
0.45519
-0.0251796
0.345311
0.261852
-0.023891
-0.0376076
112.908
-0.0407605
85.4673
-0.0431952
64.7248
-0.0451117
49.0101
-0.0465915
37.1163
-0.0477355
28.1108
-0.048593
21.2941
-0.049198
16.1347
-0.0495624
12.2302
-0.0496672
9.27597
-0.0494527
7.04037
-0.0488169
5.34809
-0.0476431
4.06592
-0.0458536
3.09324
-0.0434721
2.35401
-0.0406473
1.79133
-0.0376165
1.36258
-0.0346273
1.03577
-0.0318717
0.786808
-0.0294612
0.597277
-0.0274314
0.45316
-0.0257742
0.343654
0.260524
-0.0244461
-0.0372831
112.912
-0.0410536
85.4711
-0.0439499
64.7277
-0.0462144
49.0124
-0.047956
37.118
-0.0492967
28.1122
-0.0502992
21.2951
-0.0510061
16.1354
-0.0514329
12.2307
-0.0515607
9.2761
-0.0513264
7.04014
-0.0506246
5.34739
-0.0493389
4.06463
-0.047401
3.0913
-0.0448522
2.35146
-0.0418627
1.78834
-0.038685
1.3594
-0.0355736
1.03266
-0.0327203
0.783955
-0.030233
0.59479
-0.028144
0.451071
-0.0264413
0.341951
0.25916
-0.0250778
-0.0369622
112.918
-0.0413226
85.4755
-0.0446607
64.731
-0.0472577
49.015
-0.0492496
37.12
-0.0507783
28.1137
-0.0519193
21.2962
-0.0527233
16.1362
-0.0532094
12.2311
-0.0533584
9.27625
-0.0531051
7.03988
-0.0523416
5.34663
-0.0509542
4.06325
-0.0488859
3.08923
-0.0461953
2.34877
-0.0430718
1.78521
-0.0397787
1.35611
-0.0365728
1.02945
-0.0336436
0.781025
-0.0310952
0.592242
-0.0289575
0.448933
-0.0272159
0.340209
0.257766
-0.0258209
-0.0366502
112.925
-0.0415792
85.4804
-0.0453421
64.7348
-0.0482595
49.0179
-0.0504925
37.1222
-0.0522021
28.1154
-0.0534766
21.2975
-0.0543739
16.1371
-0.0549169
12.2317
-0.0550863
9.27642
-0.0548152
7.03961
-0.0539954
5.34581
-0.0525177
4.06177
-0.0503379
3.08705
-0.0475323
2.34596
-0.0443063
1.78199
-0.0409297
1.35273
-0.0376581
1.02618
-0.0346759
0.778043
-0.0320831
0.589649
-0.0299083
0.446758
-0.028135
0.338436
0.256344
-0.0267131
-0.0363523
112.932
-0.0418326
85.4859
-0.0460084
64.739
-0.0492364
49.0211
-0.0517034
37.1247
-0.0535887
28.1173
-0.0549927
21.2989
-0.0559807
16.138
-0.0565789
12.2323
-0.0567684
9.27661
-0.0564818
7.03933
-0.0556116
5.34494
-0.0540556
4.06021
-0.0517843
3.08478
-0.0488912
2.34307
-0.0455949
1.77869
-0.042168
1.3493
-0.0388608
1.02287
-0.0358504
0.775033
-0.0332322
0.587031
-0.0310337
0.44456
-0.0292378
0.33664
0.254901
-0.027795
-0.0360739
112.94
-0.0420939
85.4919
-0.0466734
64.7435
-0.0502054
49.0247
-0.0529014
37.1274
-0.0549586
28.1194
-0.0564893
21.3005
-0.0575662
16.1391
-0.0582188
12.2329
-0.058429
9.27682
-0.0581295
7.03903
-0.0572158
5.34402
-0.0555944
4.05859
-0.053252
3.08244
-0.0502991
2.34011
-0.0469654
1.77536
-0.0435222
1.34586
-0.0402113
1.01956
-0.0372004
0.772022
-0.034579
0.584409
-0.0323734
0.442354
-0.0305669
0.334833
0.253446
-0.0291117
-0.0358197
112.948
-0.0423718
85.4984
-0.0473497
64.7485
-0.0511819
49.0285
-0.0541039
37.1303
-0.0563309
28.1216
-0.0579869
21.3021
-0.0591518
16.1403
-0.0598586
12.2336
-0.0600905
9.27705
-0.0597815
7.03872
-0.0588315
5.34307
-0.0571581
4.05692
-0.0547654
3.08004
-0.0517808
2.33713
-0.0484427
1.77202
-0.0450181
1.34243
-0.0417377
1.01628
-0.0387573
0.769042
-0.036159
0.581811
-0.0339675
0.440163
-0.0321664
0.333032
0.25199
-0.0307106
-0.0355948
112.958
-0.0426763
85.5055
-0.0480505
64.7539
-0.0521813
49.0326
-0.0553282
37.1335
-0.0577243
28.124
-0.0595052
21.3039
-0.0607581
16.1415
-0.0615198
12.2344
-0.061775
9.27731
-0.0614603
7.0384
-0.0604817
5.34209
-0.0587699
4.05521
-0.0563476
3.07762
-0.0533591
2.33414
-0.0500494
1.76871
-0.0466793
1.33906
-0.0434656
1.01307
-0.0405499
0.766126
-0.038006
0.579267
-0.0358552
0.438012
-0.0340809
0.331258
0.25055
-0.0326413
-0.0354031
112.968
-0.0430158
85.5131
-0.0487876
64.7597
-0.0532179
49.0371
-0.0565906
37.1368
-0.0591564
28.1265
-0.0610629
21.3058
-0.0624045
16.1429
-0.0632222
12.2352
-0.063503
9.27759
-0.063187
7.03809
-0.062188
5.34109
-0.0604517
4.05347
-0.0580203
3.07519
-0.0550553
2.33118
-0.0518066
1.76546
-0.0485269
1.33579
-0.0454182
1.00996
-0.0426052
0.763313
-0.0401527
0.576815
-0.0380749
0.435934
-0.0363577
0.329541
0.249151
-0.0349577
-0.033858
112.977
-0.0408388
85.5201
-0.0461686
64.765
-0.0502797
49.0412
-0.0534206
37.14
-0.0558168
28.1289
-0.057601
21.3076
-0.0588578
16.1441
-0.0596221
12.236
-0.0598799
9.27784
-0.0595772
7.03778
-0.0586401
5.34016
-0.0570314
4.05186
-0.0548055
3.07296
-0.0521247
2.3285
-0.0492203
1.76256
-0.0463161
1.33288
-0.0435856
1.00723
-0.0411245
0.760852
-0.0389879
0.574678
-0.0371752
0.434121
-0.0356792
0.328045
0.247926
-0.0344549
-0.0272046
112.985
-0.032986
85.5259
-0.0373962
64.7694
-0.040797
49.0446
-0.0433936
37.1426
-0.0453738
28.1309
-0.0468476
21.3091
-0.0478847
16.1452
-0.0485148
12.2366
-0.0487275
9.27806
-0.048483
7.03754
-0.0477286
5.3394
-0.0464459
4.05058
-0.0446895
3.07121
-0.0425995
2.32641
-0.0403602
1.76032
-0.0381437
1.33066
-0.0360801
1.00517
-0.0342301
0.759002
-0.0326363
0.573084
-0.0312852
0.43277
-0.0301738
0.326933
0.247018
-0.0292653
-0.0218195
112.991
-0.0265716
85.5306
-0.0301943
64.773
-0.0329872
49.0474
-0.0351188
37.1447
-0.0367441
28.1326
-0.0379535
21.3103
-0.0388045
16.146
-0.0393215
12.2371
-0.0394972
9.27823
-0.0393023
7.03734
-0.0386989
5.3388
-0.03768
4.04956
-0.0362964
3.06982
-0.0346665
2.32478
-0.0329372
1.75859
-0.0312416
1.32897
-0.0296775
1.0036
-0.0282856
0.75761
-0.0270957
0.571894
-0.026091
0.431766
-0.0252691
0.326111
0.246348
-0.0245993
-0.0174655
112.996
-0.0213416
85.5345
-0.024295
64.776
-0.0265714
49.0496
-0.0283085
37.1464
-0.0296328
28.1339
-0.0306183
21.3112
-0.031312
16.1467
-0.0317337
12.2376
-0.0318783
9.27838
-0.0317239
7.03719
-0.0312434
5.33832
-0.0304362
4.04875
-0.0293474
3.06874
-0.0280755
2.3235
-0.0267372
1.75725
-0.0254367
1.32767
-0.0242462
1.00241
-0.023197
0.756561
-0.0223051
0.571003
-0.0215581
0.431018
-0.0209501
0.325503
0.245856
-0.0204576
-0.0139566
113
-0.0170988
85.5377
-0.0194921
64.7784
-0.0213367
49.0515
-0.0227439
37.1478
-0.0238168
28.1349
-0.0246154
21.312
-0.0251777
16.1473
-0.0255199
12.2379
-0.0256383
9.2785
-0.0255165
7.03707
-0.0251349
5.33794
-0.0244961
4.04811
-0.0236393
3.06788
-0.0226452
2.32251
-0.0216066
1.75621
-0.0206054
1.32667
-0.0196944
1.0015
-0.0189002
0.755767
-0.0182276
0.57033
-0.0176706
0.430461
-0.0172184
0.325051
0.245493
-0.0168563
-0.0111199
113.003
-0.0136411
85.5402
-0.0155608
64.7803
-0.0170403
49.053
-0.018169
37.149
-0.0190297
28.1358
-0.0196704
21.3127
-0.0201217
16.1477
-0.0203965
12.2382
-0.020492
9.27859
-0.0203959
7.03697
-0.0200938
5.33763
-0.01959
4.04761
-0.0189173
3.06721
-0.0181414
2.32173
-0.0173355
1.7554
-0.0165642
1.3259
-0.0158657
1.0008
-0.0152627
0.755164
-0.014754
0.569821
-0.0143381
0.430046
-0.0140002
0.324713
0.245227
-0.013734
-0.00893032
113.006
-0.0110067
85.5423
-0.012587
64.7819
-0.0138048
49.0542
-0.0147338
37.1499
-0.0154424
28.1365
-0.0159702
21.3132
-0.0163427
16.1481
-0.0165705
12.2384
-0.0166517
9.27867
-0.0165768
7.0369
-0.0163352
5.33739
-0.0159317
4.04721
-0.0153941
3.06667
-0.0147763
2.32112
-0.0141375
1.75477
-0.0135296
1.32529
-0.0129814
1.00025
-0.0125116
0.754694
-0.012117
0.569427
-0.0117982
0.429727
-0.0115391
0.324454
0.245027
-0.0113383
-0.00703036
113.008
-0.00863183
85.5439
-0.00985056
64.7831
-0.0107899
49.0551
-0.0115066
37.1506
-0.0120533
28.1371
-0.0124606
21.3136
-0.0127477
16.1484
-0.0129227
12.2386
-0.0129837
9.27873
-0.0129238
7.03684
-0.012735
5.3372
-0.0124218
4.04689
-0.0120068
3.06625
-0.0115321
2.32064
-0.0110436
1.75428
-0.010581
1.32483
-0.0101661
0.999839
-0.00981191
0.75434
-0.00951636
0.569131
-0.00928032
0.429491
-0.00908836
0.324262
0.24488
-0.00894164
-0.00161307
113.005
0.000844235
85.5414
0.00292073
64.781
0.00464476
49.0534
0.00607393
37.1492
0.00725195
28.1359
0.00823032
21.3126
0.0090588
16.1476
0.00978711
12.2378
0.0104634
9.27806
0.0111295
7.03617
0.0118152
5.33652
0.012528
4.04618
0.013251
3.06553
0.0139482
2.31994
0.0145845
1.75364
0.0151335
1.32428
0.0155898
0.999383
0.0159542
0.753975
0.0162408
0.568845
0.0164614
0.42927
0.0166336
0.32409
0.244757
0.0167565
-0.00169248
113.002
0.000887526
85.5388
0.00306781
64.7788
0.00487802
49.0516
0.00637856
37.1477
0.00761525
28.1346
0.00864218
21.3116
0.00951172
16.1467
0.0102762
12.2371
0.0109862
9.27735
0.0116852
7.03547
0.0124039
5.3358
0.0131492
4.04543
0.0139028
3.06478
0.0146264
2.31922
0.0152837
1.75298
0.0158478
1.32371
0.0163134
0.998917
0.0166832
0.753606
0.0169706
0.568557
0.0171905
0.42905
0.0173611
0.323919
0.244635
0.017483
-0.00177591
112.999
0.000932932
85.5361
0.00322238
64.7765
0.00512309
49.0497
0.00669855
37.1461
0.00799684
28.1333
0.00907477
21.3105
0.00998744
16.1458
0.0107899
12.2363
0.0115352
9.2766
0.0122686
7.03474
0.0130217
5.33505
0.0138007
4.04466
0.0145856
3.06399
0.0153361
2.31847
0.0160144
1.75231
0.0165932
1.32313
0.0170674
0.998443
0.017442
0.753231
0.0177295
0.56827
0.0179477
0.428832
0.018116
0.323751
0.244514
0.0182367
-0.00186353
112.996
0.000980833
85.5333
0.00338487
64.7741
0.0053805
49.0477
0.00703467
37.1444
0.00839765
28.132
0.00952916
21.3094
0.0104871
16.1448
0.0113294
12.2354
0.0121117
9.27582
0.0128812
7.03397
0.0136702
5.33426
0.0144841
4.04384
0.0153011
3.06318
0.0160786
2.31769
0.0167777
1.75161
0.0173707
1.32254
0.0178524
0.997961
0.0182309
0.752853
0.018518
0.567983
0.0187332
0.428617
0.0188979
0.323586
0.244396
0.0190164
-0.00195519
112.992
0.00103112
85.5303
0.00355538
64.7716
0.0056509
49.0456
0.00738771
37.1427
0.00881867
28.1306
0.0100064
21.3082
0.0110119
16.1438
0.011896
12.2346
0.0127172
9.275
0.0135244
7.03316
0.0143508
5.33343
0.0152007
4.04299
0.0160505
3.06233
0.0168554
2.31689
0.0175749
1.75089
0.0181814
1.32193
0.0186695
0.997473
0.0190503
0.752472
0.0193361
0.567697
0.0195469
0.428406
0.0197066
0.323427
0.244281
0.0198215
-0.00205171
112.988
0.00108398
85.5272
0.00373462
64.769
0.00593495
49.0434
0.00775854
37.1409
0.00926089
28.1291
0.0105077
21.307
0.0115632
16.1428
0.0124912
12.2336
0.0133531
9.27414
0.0141997
7.03232
0.015065
5.33257
0.0159522
4.0421
0.0168356
3.06144
0.0176679
2.31606
0.0184073
1.75015
0.0190265
1.32131
0.0195199
0.99698
0.0199013
0.75209
0.020185
0.567413
0.0203901
0.428201
0.0205431
0.323274
0.244171
0.0206526
-0.00215255
112.984
0.00113957
85.5239
0.00392282
64.7662
0.00623332
49.0411
0.00814809
37.139
0.00972536
28.1275
0.0110343
21.3057
0.0121421
16.1417
0.0131162
12.2327
0.0140208
9.27323
0.0149088
7.03143
0.0158145
5.33166
0.0167402
4.04118
0.0176578
3.06052
0.0185177
2.3152
0.0192766
1.74939
0.0199075
1.32068
0.0204051
0.996482
0.0207858
0.75171
0.0210659
0.567133
0.0212645
0.428002
0.0214092
0.323129
0.244069
0.0215115
-0.00225874
112.98
0.00119804
85.5204
0.00412079
64.7633
0.00654673
49.0387
0.00855723
37.137
0.0102132
28.1258
0.0115873
21.3043
0.0127502
16.1405
0.0137727
12.2316
0.0147221
9.27228
0.0156532
7.0305
0.016601
5.33071
0.0175664
4.04021
0.018519
3.05957
0.0194066
2.31431
0.0201845
1.74861
0.0208264
1.32004
0.0213273
0.995981
0.0217055
0.751331
0.0219809
0.566858
0.0221721
0.427811
0.0223076
0.322994
0.243975
0.0224015
-0.00236991
112.976
0.00125951
85.5168
0.00432857
64.7602
0.00687598
49.0361
0.00898702
37.1349
0.0107257
28.1241
0.0121683
21.3028
0.013389
16.1393
0.0144622
12.2306
0.0154585
9.27128
0.0164347
7.02952
0.0174264
5.32972
0.0184328
4.03921
0.019421
3.05858
0.0203364
2.31339
0.0211329
1.74781
0.0217849
1.31939
0.0222881
0.995478
0.0226628
0.750957
0.0229323
0.566588
0.0231157
0.427628
0.0232415
0.322868
0.243891
0.0233262
-0.00248655
112.972
0.00132421
85.513
0.00454695
64.757
0.00722183
49.0334
0.00943846
37.1326
0.011264
28.1223
0.0127784
21.3013
0.0140599
16.138
0.0151864
12.2294
0.0162319
9.27024
0.0172553
7.0285
0.0182925
5.32868
0.0193413
4.03816
0.0203658
3.05756
0.0213091
2.31245
0.0221236
1.747
0.0227849
1.31873
0.0232897
0.994973
0.0236597
0.750587
0.0239224
0.566325
0.0240976
0.427453
0.0242138
0.322752
0.243815
0.024289
-0.00260883
112.967
0.00139238
85.509
0.00477622
64.7536
0.00758513
49.0306
0.00991269
37.1303
0.0118295
28.1203
0.0134194
21.2997
0.0147646
16.1366
0.0159472
12.2282
0.0170442
9.26914
0.0181169
7.02742
0.0192015
5.3276
0.0202939
4.03707
0.0213554
3.0565
0.0223264
2.31148
0.0231585
1.74617
0.0238281
1.31806
0.0243338
0.994467
0.0246983
0.750222
0.0249531
0.566071
0.0251199
0.427286
0.0252266
0.322645
0.243749
0.0252927
-0.00273744
112.962
0.0014639
85.5048
0.00501742
64.75
0.00796676
49.0277
0.0104108
37.1279
0.0124234
28.1183
0.0140927
21.2981
0.015505
16.1352
0.0167462
12.227
0.0178973
9.26799
0.0190216
7.0263
0.0201553
5.32646
0.0212926
4.03593
0.0223916
3.0554
0.0233903
2.31048
0.0242392
1.74532
0.0249162
1.31738
0.0254217
0.993962
0.0257799
0.749864
0.026026
0.565825
0.026184
0.427128
0.0262813
0.322548
0.243692
0.0263389
-0.00287199
112.957
0.00153909
85.5003
0.0052705
64.7463
0.00836768
49.0246
0.0109341
37.1253
0.0130474
28.1162
0.0148
21.2963
0.0162826
16.1338
0.0175855
12.2257
0.0187934
9.26678
0.0199715
7.02512
0.0211562
5.32528
0.0223395
4.03475
0.0234765
3.05426
0.0245026
2.30945
0.0253674
1.74445
0.0260505
1.3167
0.0265547
0.993458
0.0269058
0.749513
0.0271422
0.565588
0.0272909
0.426979
0.0273788
0.32246
0.243642
0.0274281
-0.00301325
112.951
0.0016184
85.4957
0.00553661
64.7424
0.00878884
49.0213
0.0114838
37.1226
0.0137028
28.114
0.0155429
21.2945
0.0170995
16.1322
0.0184672
12.2243
0.0197345
9.26552
0.0209687