/*--------------------------------*- C++ -*----------------------------------*\
  =========                 |
  \\      /  F ield         | OpenFOAM: The Open Source CFD Toolbox
   \\    /   O peration     | Website:  https://openfoam.org
    \\  /    A nd           | Version:  7
     \\/     M anipulation  |
\*---------------------------------------------------------------------------*/
FoamFile
{
    version     2.0;
    format      ascii;
    class       volVectorField;
    location    "43";
    object      U;
}
// * * * * * * * * * * * * * * * * * * * * * * * * * * * * * * * * * * * * * //

dimensions      [0 1 -1 0 0 0 0];

internalField   nonuniform List<vector> 
12842
(
(15.6178 0.274448 -1.02794e-19)
(15.6179 0.277166 -2.79356e-21)
(15.6177 0.281239 -2.0265e-21)
(15.6173 0.286223 8.60374e-21)
(15.6163 0.292369 -4.13035e-20)
(15.6146 0.300026 0)
(15.6118 0.309597 0)
(15.6072 0.32156 -2.75576e-20)
(15.5998 0.336468 1.6731e-19)
(15.5886 0.354924 4.11899e-21)
(15.5717 0.37754 1.16574e-19)
(15.5471 0.404863 -2.64282e-20)
(15.5128 0.437267 1.64434e-19)
(15.4666 0.474844 5.46538e-20)
(15.407 0.517257 -7.69413e-20)
(15.3334 0.563725 -2.36162e-19)
(15.2467 0.613046 -2.22978e-19)
(15.1494 0.663642 0)
(15.0452 0.713767 2.18069e-20)
(14.9387 0.761737 1.58944e-19)
(14.8347 0.80616 1.96993e-20)
(14.7369 0.846027 -1.01879e-19)
(14.6496 0.880929 7.12998e-20)
(15.6182 0.27443 5.8607e-20)
(15.6188 0.277406 0)
(15.6193 0.281585 6.7946e-20)
(15.6196 0.286746 -3.50666e-20)
(15.6196 0.293196 2.67308e-20)
(15.6191 0.301359 0)
(15.6178 0.311749 -7.13993e-21)
(15.6151 0.325008 0)
(15.6101 0.341907 -1.39958e-19)
(15.6017 0.363322 -5.29762e-21)
(15.5883 0.390162 -1.95919e-19)
(15.5678 0.423245 -2.07501e-19)
(15.5378 0.463108 -1.53229e-19)
(15.496 0.509809 2.32044e-19)
(15.4407 0.562711 0)
(15.371 0.620465 2.43008e-19)
(15.2875 0.681072 3.19938e-19)
(15.1925 0.742097 -4.44982e-19)
(15.0896 0.801033 0)
(14.9836 0.855745 -1.92166e-19)
(14.8795 0.904578 -3.25775e-19)
(14.7811 0.947165 2.73377e-19)
(14.6933 0.981552 -2.88563e-19)
(15.6186 0.274361 0)
(15.6197 0.277481 0)
(15.6207 0.28166 5.08583e-20)
(15.6218 0.286875 2.24788e-19)
(15.6227 0.293478 0)
(15.6234 0.301939 0)
(15.6235 0.312862 7.48612e-20)
(15.6227 0.32702 -4.40929e-20)
(15.6202 0.345374 3.79059e-20)
(15.6148 0.369048 3.08529e-20)
(15.6051 0.399235 3.64579e-20)
(15.5889 0.437027 1.9867e-19)
(15.5637 0.483161 6.20615e-20)
(15.527 0.537735 -3.0237e-19)
(15.4766 0.599919 0)
(15.4113 0.667938 -1.11069e-19)
(15.3315 0.739154 1.42147e-19)
(15.2393 0.810411 2.85059e-19)
(15.1385 0.878527 4.03047e-19)
(15.0337 0.940931 -3.06504e-19)
(14.9304 0.995633 2.39639e-19)
(14.8325 1.04277 0)
(14.7451 1.07888 1.06629e-19)
(15.619 0.274273 -5.41712e-20)
(15.6205 0.277431 4.84872e-20)
(15.6221 0.281539 -1.2207e-19)
(15.6238 0.286721 -4.52955e-19)
(15.6256 0.29336 3.83672e-20)
(15.6274 0.301959 -1.43115e-19)
(15.6289 0.313178 4.54125e-20)
(15.63 0.327899 4.28074e-20)
(15.6299 0.34725 1.58747e-19)
(15.6278 0.372584 -9.66352e-20)
(15.6219 0.405369 -6.83004e-21)
(15.6103 0.446986 2.72294e-20)
(15.5904 0.498406 -3.55034e-20)
(15.5592 0.559827 -1.79312e-19)
(15.5143 0.630324 9.22669e-20)
(15.4542 0.707795 -1.18813e-19)
(15.3789 0.78908 -7.88133e-20)
(15.2905 0.870401 -2.37177e-19)
(15.1927 0.947961 -1.18222e-19)
(15.0902 1.01876 -9.71089e-20)
(14.9888 1.0804 -1.10133e-19)
(14.8922 1.1334 -1.50161e-19)
(14.8063 1.17278 2.7206e-19)
(15.6195 0.274174 -7.28641e-19)
(15.6213 0.277255 0)
(15.6234 0.281242 2.40782e-20)
(15.6257 0.286318 1.73255e-19)
(15.6283 0.292895 1.92085e-20)
(15.6311 0.301489 4.17465e-19)
(15.634 0.312797 6.267e-20)
(15.6369 0.327787 -3.42349e-19)
(15.6393 0.34773 -1.64824e-19)
(15.6404 0.374197 8.91338e-20)
(15.6386 0.408928 -1.74007e-19)
(15.632 0.453606 -1.04381e-19)
(15.6176 0.509476 1.41511e-21)
(15.5926 0.576898 2.19683e-19)
(15.554 0.654924 1.17284e-19)
(15.5 0.741214 -1.57759e-19)
(15.4304 0.832165 0)
(15.3469 0.923447 1.99274e-19)
(15.2532 1.01067 0)
(15.1542 1.0904 3.43742e-20)
(15.0555 1.15976 -6.81426e-20)
(14.9611 1.21959 1.29227e-19)
(14.877 1.26332 -1.726e-20)
(15.62 0.274063 5.98205e-19)
(15.6219 0.276974 0)
(15.6245 0.280797 0)
(15.6274 0.285698 3.47534e-19)
(15.6307 0.292123 -2.54468e-19)
(15.6344 0.300576 -2.67114e-19)
(15.6386 0.31177 -4.68175e-19)
(15.6433 0.326738 3.77887e-19)
(15.6481 0.346869 0)
(15.6524 0.373929 2.93399e-19)
(15.6548 0.40992 2.28658e-19)
(15.6532 0.456843 5.48698e-20)
(15.645 0.51625 0)
(15.6267 0.588728 -4.43136e-20)
(15.5952 0.673388 -9.74772e-20)
(15.5483 0.767749 1.32137e-19)
(15.4855 0.867848 4.61819e-20)
(15.4081 0.968879 -2.92131e-19)
(15.3198 1.06588 0)
(15.2252 1.15501 3.28688e-19)
(15.1302 1.23279 -3.10687e-20)
(15.0386 1.30037 -4.2664e-19)
(14.957 1.34949 5.05725e-20)
(15.6204 0.273934 -7.3943e-20)
(15.6224 0.276623 0)
(15.6255 0.280248 0)
(15.6289 0.284927 -3.42952e-19)
(15.6328 0.291132 2.90202e-19)
(15.6373 0.299337 -4.41015e-20)
(15.6427 0.310251 2.98006e-19)
(15.649 0.324945 3.70155e-20)
(15.6561 0.344897 -4.86424e-20)
(15.6635 0.372045 -3.22233e-19)
(15.67 0.408636 -3.93582e-20)
(15.6737 0.456991 3.0778e-19)
(15.6718 0.519002 0)
(15.6608 0.595542 -2.01208e-19)
(15.6372 0.685867 -2.5911e-21)
(15.5984 0.787448 3.34023e-21)
(15.5434 0.896062 -4.95035e-20)
(15.4734 1.00651 1.66651e-19)
(15.3917 1.11329 1.75089e-19)
(15.3027 1.21215 6.94818e-20)
(15.2125 1.29898 -2.2238e-21)
(15.1246 1.37519 1.66163e-19)
(15.0462 1.4306 1.24119e-19)
(15.6208 0.273803 0)
(15.6228 0.276229 -1.99354e-20)
(15.6263 0.279621 2.61263e-19)
(15.63 0.284026 -6.65312e-21)
(15.6345 0.289938 -3.42282e-19)
(15.6397 0.297777 5.99068e-20)
(15.6461 0.30823 -9.26154e-21)
(15.6538 0.32238 -3.32419e-19)
(15.6629 0.341754 0)
(15.6732 0.368426 -5.23957e-19)
(15.6837 0.404852 4.27127e-20)
(15.6926 0.453667 7.29788e-20)
(15.697 0.517125 0)
(15.6936 0.596456 1.96164e-19)
(15.6784 0.691169 -1.74828e-19)
(15.6485 0.798819 0)
(15.6026 0.915052 4.84784e-20)
(15.5413 1.03438 0)
(15.4676 1.15083 -1.5054e-19)
(15.3857 1.25975 0)
(15.3016 1.35623 1.09133e-19)
(15.2186 1.44206 -5.22976e-20)
(15.1442 1.50481 -8.44161e-20)
(15.6212 0.273613 0)
(15.623 0.275833 0)
(15.627 0.279002 1.94361e-20)
(15.631 0.283186 -1.57945e-20)
(15.6359 0.288864 3.85704e-19)
(15.6417 0.296413 3.65386e-19)
(15.6487 0.306483 0)
(15.6575 0.320151 3.14629e-19)
(15.6682 0.338963 0)
(15.6808 0.365084 1.10526e-18)
(15.6945 0.40114 4.58937e-19)
(15.7077 0.450028 -3.16101e-19)
(15.7176 0.514313 -3.218e-20)
(15.7207 0.595545 0)
(15.713 0.693465 1.86776e-19)
(15.6912 0.805733 1.34211e-19)
(15.6535 0.927912 2.38855e-22)
(15.6004 1.05433 -5.44247e-21)
(15.5344 1.1786 -4.62001e-20)
(15.4596 1.29585 0)
(15.3817 1.40033 -4.78495e-20)
(15.3038 1.49438 1.17046e-21)
(15.2336 1.56358 5.41401e-20)
(15.6216 0.273408 -1.71092e-20)
(15.6232 0.275482 1.88583e-19)
(15.6277 0.278455 -2.59961e-19)
(15.6318 0.282479 0)
(15.637 0.287975 7.72994e-21)
(15.6431 0.295287 2.32919e-20)
(15.6507 0.305037 -3.9254e-19)
(15.6603 0.318292 0)
(15.6722 0.336607 0)
(15.6865 0.362216 -5.67878e-19)
(15.7026 0.397856 -4.8351e-19)
(15.719 0.446614 -1.40613e-20)
(15.7332 0.511292 3.71655e-19)
(15.7415 0.593694 -1.29958e-20)
(15.7398 0.693761 -3.40744e-20)
(15.7247 0.809269 7.34604e-20)
(15.6943 0.935757 -8.72593e-20)
(15.6485 1.06747 -7.1966e-21)
(15.5897 1.19773 5.25588e-20)
(15.5217 1.32156 3.60857e-20)
(15.4501 1.43251 -3.52924e-20)
(15.3776 1.5333 1.71601e-19)
(15.312 1.60811 -3.51737e-20)
(15.622 0.273171 9.24076e-19)
(15.6233 0.275164 -2.228e-19)
(15.6282 0.277933 7.34689e-21)
(15.6325 0.281838 2.24771e-19)
(15.638 0.287169 -1.1185e-20)
(15.6444 0.294264 -3.81821e-19)
(15.6525 0.303706 7.54138e-19)
(15.6628 0.316551 2.4622e-20)
(15.6757 0.334356 -1.91794e-20)
(15.6916 0.359406 -6.59957e-19)
(15.71 0.394536 1.98386e-20)
(15.7297 0.443004 -5.00913e-19)
(15.7479 0.507827 -3.32081e-19)
(15.7614 0.591056 0)
(15.7658 0.692843 3.65285e-19)
(15.7578 0.811112 -4.09697e-19)
(15.735 0.941424 -5.3841e-20)
(15.6974 1.078 7.65103e-20)
(15.6469 1.21392 5.70693e-21)
(15.587 1.34414 -3.72421e-20)
(15.5232 1.46154 0)
(15.4574 1.56913 -4.13486e-20)
(15.3979 1.64981 0)
(15.6223 0.272901 -1.36071e-18)
(15.6234 0.274873 -2.00097e-19)
(15.6288 0.277427 1.24969e-20)
(15.6331 0.281245 -4.38963e-19)
(15.6388 0.28642 2.22195e-19)
(15.6456 0.293315 -1.10176e-20)
(15.6541 0.302459 -3.89033e-19)
(15.6651 0.314897 7.67614e-21)
(15.679 0.332177 -2.43745e-20)
(15.6964 0.356624 6.77532e-19)
(15.717 0.391153 0)
(15.7397 0.439175 4.56803e-19)
(15.762 0.503907 3.58153e-20)
(15.7806 0.587641 -1.7196e-20)
(15.7914 0.690748 -3.75201e-19)
(15.7908 0.811323 -3.6907e-20)
(15.7764 0.944981 9.70934e-20)
(15.7477 1.08597 -1.42965e-19)
(15.7067 1.22715 0)
(15.6562 1.36346 -2.10233e-20)
(15.6015 1.48712 1.0199e-20)
(15.5441 1.6014 0)
(15.492 1.68807 3.63632e-20)
(15.6226 0.272613 4.44165e-19)
(15.6235 0.274609 2.01279e-21)
(15.6292 0.276938 1.26297e-20)
(15.6336 0.280693 2.0938e-19)
(15.6396 0.285718 -4.36092e-19)
(15.6467 0.292422 1.45968e-21)
(15.6556 0.301274 5.52419e-21)
(15.6671 0.313303 4.18672e-19)
(15.682 0.330037 -1.05497e-20)
(15.7008 0.353832 0)
(15.7235 0.387665 6.37843e-19)
(15.7491 0.435081 1.50877e-20)
(15.7755 0.499481 1.46047e-20)
(15.7994 0.583392 2.4437e-21)
(15.8168 0.687407 -4.29589e-20)
(15.824 0.809814 2.90007e-19)
(15.8185 0.9463 -1.73595e-19)
(15.7999 1.09118 -5.29828e-20)
(15.7694 1.23711 -3.07754e-20)
(15.7296 1.37902 6.65225e-20)
(15.6855 1.50853 -1.96027e-21)
(15.638 1.62915 2.7628e-20)
(15.5947 1.7217 -6.40232e-21)
(15.6228 0.272316 4.51913e-19)
(15.6236 0.27437 1.87828e-19)
(15.6296 0.276469 1.25485e-21)
(15.6341 0.280181 2.18093e-19)
(15.6403 0.285057 4.43824e-19)
(15.6476 0.291579 -1.46525e-21)
(15.6569 0.300141 -5.64065e-21)
(15.6689 0.311755 1.19087e-20)
(15.6847 0.32792 -4.08964e-19)
(15.7048 0.351009 3.88994e-19)
(15.7295 0.384046 -6.70055e-19)
(15.758 0.430689 -5.67554e-19)
(15.7885 0.494505 4.77437e-19)
(15.8178 0.578247 0)
(15.8419 0.682731 2.78702e-19)
(15.8574 0.806448 0)
(15.8616 0.945172 2.23107e-19)
(15.8538 1.0933 1.17775e-19)
(15.835 1.2433 2.19174e-21)
(15.8072 1.39015 -1.00987e-19)
(15.7751 1.52483 5.11461e-21)
(15.7389 1.65107 1.40872e-20)
(15.706 1.74912 -1.75886e-20)
(15.623 0.272018 5.80441e-21)
(15.6236 0.27415 2.86698e-21)
(15.63 0.27602 -1.25566e-21)
(15.6345 0.279705 -2.1778e-19)
(15.641 0.284433 -2.21158e-19)
(15.6484 0.29078 0)
(15.658 0.299054 4.346e-21)
(15.6706 0.310246 -4.27e-19)
(15.6871 0.325817 -1.23833e-20)
(15.7085 0.348144 -3.88827e-19)
(15.7351 0.380279 3.65858e-19)
(15.7665 0.425972 8.91009e-19)
(15.801 0.488937 -4.59948e-19)
(15.8357 0.572139 3.82936e-19)
(15.867 0.676612 4.95979e-20)
(15.8912 0.801056 2.04639e-21)
(15.9057 0.941331 -1.70987e-20)
(15.9096 1.09194 -4.78911e-20)
(15.9036 1.24513 3.08238e-20)
(15.8892 1.39597 -6.00127e-20)
(15.8705 1.53484 -7.54365e-21)
(15.8472 1.66564 3.27528e-20)
(15.8259 1.76843 0)
(15.6231 0.271725 -3.12821e-22)
(15.6237 0.273948 0)
(15.6303 0.275594 0)
(15.6349 0.27926 -2.11839e-19)
(15.6415 0.283842 -2.26388e-19)
(15.6492 0.290019 2.14487e-19)
(15.6591 0.298005 2.89257e-21)
(15.6721 0.308766 -4.3696e-21)
(15.6893 0.323718 4.25892e-19)
(15.7119 0.345225 -7.66204e-21)
(15.7404 0.376347 2.47436e-20)
(15.7746 0.420905 -3.07642e-19)
(15.8131 0.482734 0)
(15.8534 0.564997 -4.05625e-19)
(15.892 0.668928 -6.48866e-19)
(15.9253 0.793436 -2.69245e-19)
(15.9508 0.934454 -1.61575e-19)
(15.9673 1.08658 0)
(15.9753 1.24187 0)
(15.9754 1.39544 8.8341e-20)
(15.9715 1.53716 4.51112e-20)
(15.9624 1.67101 -1.13764e-19)
(15.9542 1.77741 0)
(15.6233 0.271441 -4.24108e-19)
(15.6238 0.27376 1.41567e-21)
(15.6305 0.275189 -6.13609e-22)
(15.6352 0.278842 2.09887e-19)
(15.642 0.283279 4.47836e-19)
(15.6498 0.28929 -4.25019e-19)
(15.66 0.296985 -2.91236e-21)
(15.6734 0.307307 -4.4594e-21)
(15.6914 0.32161 5.8746e-21)
(15.7151 0.342235 0)
(15.7454 0.372228 -3.70002e-19)
(15.7823 0.415454 3.38449e-19)
(15.8249 0.475843 0)
(15.8709 0.556729 0)
(15.917 0.659526 3.15669e-19)
(15.9599 0.783336 3.52474e-21)
(15.9971 0.924141 1.82654e-19)
(16.027 1.07662 1.48021e-19)
(16.0499 1.23261 -2.06042e-19)
(16.0658 1.38731 -6.50471e-20)
(16.0778 1.53013 2.43154e-19)
(16.0841 1.66507 -2.19842e-19)
(16.09 1.77352 1.3968e-19)
(15.6233 0.271171 2.10347e-19)
(15.6238 0.273584 7.93382e-20)
(15.6308 0.274806 1.25198e-21)
(15.6355 0.278447 -1.65672e-21)
(15.6425 0.28274 -2.24751e-19)
(15.6505 0.288588 2.14903e-19)
(15.6608 0.295991 -2.26576e-21)
(15.6746 0.305862 -1.5491e-21)
(15.6932 0.319486 5.97737e-21)
(15.7181 0.339164 4.09201e-21)
(15.75 0.367905 -5.37725e-21)
(15.7897 0.409589 -3.38104e-19)
(15.8363 0.468205 3.13376e-19)
(15.8881 0.547231 -1.38705e-20)
(15.942 0.648222 0)
(15.995 0.770451 -4.85161e-20)
(16.0443 0.909906 2.61167e-20)
(16.0885 1.06133 -1.48735e-19)
(16.1271 1.2163 2.70049e-19)
(16.1597 1.37014 1.56356e-19)
(16.1885 1.51193 -1.03505e-19)
(16.211 1.64555 -1.45561e-19)
(16.2316 1.75406 1.84201e-19)
(15.6234 0.270917 1.23393e-21)
(15.6239 0.273419 -8.04784e-20)
(15.631 0.274442 0)
(15.6358 0.278072 0)
(15.6429 0.282222 0)
(15.651 0.287908 0)
(15.6616 0.295015 2.28328e-21)
(15.6758 0.304425 -7.09885e-22)
(15.6949 0.317337 -3.03174e-21)
(15.7208 0.336 4.20884e-21)
(15.7544 0.363357 -5.53206e-21)
(15.7968 0.403273 0)
(15.8474 0.459754 -6.20322e-19)
(15.9051 0.536382 1.83456e-20)
(15.9669 0.634808 -3.84973e-20)
(16.0303 0.754433 3.52506e-19)
(16.0923 0.891209 -2.90019e-20)
(16.1513 1.03991 4.83637e-20)
(16.2063 1.19185 -4.48912e-20)
(16.256 1.34249 9.97074e-20)
(16.3021 1.48075 -1.39385e-19)
(16.3411 1.6103 0)
(16.3766 1.71648 1.21612e-19)
(15.6235 0.27068 -4.01916e-19)
(15.6239 0.273262 -3.51221e-20)
(15.6311 0.274096 -8.92526e-22)
(15.636 0.277712 1.00667e-19)
(15.6433 0.281721 1.09413e-19)
(15.6515 0.287245 1.10599e-21)
(15.6623 0.294054 -2.21648e-19)
(15.6768 0.302988 2.30784e-19)
(15.6965 0.315156 2.27342e-19)
(15.7233 0.33273 0)
(15.7585 0.358565 7.86921e-21)
(15.8035 0.39647 -3.89775e-19)
(15.8582 0.450421 3.29288e-19)
(15.9217 0.524053 2.65982e-19)
(15.9917 0.619058 2.31092e-19)
(16.0656 0.734914 0)
(16.1407 0.867481 0)
(16.2147 1.01153 -2.15128e-19)
(16.2864 1.15815 -2.20291e-19)
(16.3533 1.30296 1.16225e-19)
(16.4166 1.43496 7.57083e-20)
(16.4717 1.55747 1.13421e-19)
(16.5216 1.65871 -1.48645e-19)
(15.6235 0.270462 1.98064e-19)
(15.624 0.273113 3.52492e-20)
(15.6313 0.27377 -6.01867e-22)
(15.6362 0.277368 -9.66788e-22)
(15.6436 0.281235 -1.09213e-19)
(15.6519 0.286595 -1.02932e-19)
(15.6629 0.293098 1.08598e-19)
(15.6776 0.30154 -2.27895e-19)
(15.6978 0.312924 -2.2521e-19)
(15.7255 0.329331 -6.10107e-21)
(15.7623 0.353495 0)
(15.8098 0.389127 3.78742e-19)
(15.8684 0.440117 3.4533e-19)
(15.9378 0.510094 -2.81212e-19)
(16.016 0.600723 -1.97265e-19)
(16.1006 0.711503 -9.72713e-20)
(16.1888 0.838155 -8.57896e-20)
(16.2779 0.975444 4.53014e-19)
(16.366 1.11424 0)
(16.4497 1.25043 0)
(16.5292 1.37336 1.0264e-19)
(16.5994 1.48594 -2.34575e-19)
(16.6625 1.57956 -1.7579e-19)
(15.6236 0.270256 -1.94083e-19)
(15.624 0.272964 0)
(15.6314 0.273445 0)
(15.6365 0.277023 -1.95429e-19)
(15.644 0.280751 1.05199e-19)
(15.6524 0.28595 1.05195e-19)
(15.6635 0.292151 4.66002e-22)
(15.6785 0.300094 1.12107e-19)
(15.6991 0.310663 5.44977e-21)
(15.7276 0.325827 -2.33664e-19)
(15.7658 0.348167 8.308e-21)
(15.8158 0.381254 -1.09142e-20)
(15.8782 0.428829 -3.4471e-19)
(15.9534 0.494447 3.09136e-19)
(16.0396 0.579665 2.41245e-19)
(16.1348 0.68395 -2.16591e-19)
(16.2359 0.802839 1.92836e-19)
(16.3397 0.931109 -2.37782e-19)
(16.4434 1.05952 0)
(16.5427 1.18429 0)
(16.6371 1.29548 -9.3798e-20)
(16.7205 1.39552 7.36083e-20)
(16.7949 1.47902 -2.02028e-19)
(15.6236 0.270089 1.32245e-21)
(15.624 0.272839 -2.82988e-20)
(15.6315 0.273177 0)
(15.6366 0.276721 4.96599e-20)
(15.6441 0.280302 -2.09637e-19)
(15.6526 0.285313 1.08082e-21)
(15.6638 0.29117 -2.9831e-22)
(15.679 0.298565 -1.16462e-19)
(15.7001 0.308255 3.11332e-21)
(15.7293 0.322081 2.34396e-19)
(15.7689 0.342428 -5.98971e-21)
(15.8211 0.372667 -1.97676e-19)
(15.8872 0.416317 -2.35448e-20)
(15.968 0.476785 -2.90865e-19)
(16.0621 0.555456 -2.77799e-19)
(16.1675 0.651718 1.22655e-20)
(16.2809 0.760926 0)
(16.3986 0.877924 -3.67193e-20)
(16.5167 0.993511 4.80043e-20)
(16.6299 1.10437 0)
(16.7369 1.20155 1.13896e-19)
(16.8312 1.28704 -7.45665e-20)
(16.9144 1.35821 0)
(15.6236 0.269887 1.83958e-19)
(15.6241 0.272688 2.84878e-20)
(15.6316 0.272851 0)
(15.6368 0.276401 4.74198e-20)
(15.6445 0.279903 2.07284e-19)
(15.653 0.28485 9.9857e-20)
(15.6644 0.290547 2.15958e-19)
(15.6797 0.297597 0)
(15.7011 0.306613 2.37295e-19)
(15.731 0.319287 -2.36713e-19)
(15.7717 0.337797 2.2587e-19)
(15.8259 0.365269 2.09346e-19)
(15.8953 0.404893 -3.5175e-21)
(15.9812 0.459778 4.61094e-21)
(16.0826 0.530962 -2.86208e-19)
(16.1976 0.617648 2.26847e-19)
(16.3227 0.714956 0)
(16.4531 0.817903 1.50004e-19)
(16.5842 0.917541 0)
(16.7094 1.01126 0)
(16.8269 1.09145 -1.15652e-19)
(16.9297 1.15998 -2.67174e-19)
(17.0193 1.21643 2.3414e-19)
(15.6236 0.269733 0)
(15.6241 0.272618 -2.37021e-24)
(15.6317 0.272687 7.51151e-24)
(15.6369 0.276251 -4.51662e-20)
(15.6446 0.2797 -5.25763e-20)
(15.6532 0.284592 -9.97729e-20)
(15.6646 0.290151 -1.07431e-19)
(15.6801 0.296923 -1.48676e-22)
(15.7017 0.305391 -1.18653e-19)
(15.732 0.317086 -1.00854e-21)
(15.7736 0.333934 2.38797e-21)
(15.8294 0.358743 0)
(15.9017 0.394269 3.61667e-21)
(15.9921 0.443193 -4.74376e-21)
(16.1001 0.506069 4.25106e-19)
(16.2239 0.581826 1.38497e-20)
(16.3593 0.665351 0)
(16.5009 0.751975 5.01501e-20)
(16.6428 0.833283 -5.5652e-20)
(16.7773 0.90762 0)
(16.9023 0.969004 0)
(17.0106 1.01945 1.84201e-19)
(17.1038 1.06023 -1.34288e-19)
(15.6237 0.26958 1.82268e-19)
(15.6242 0.272558 2.31087e-20)
(15.6318 0.272536 0)
(15.637 0.276118 4.51604e-20)
(15.6447 0.279515 -5.00095e-20)
(15.6534 0.284352 -9.6001e-20)
(15.6649 0.28977 1.05247e-19)
(15.6804 0.29626 -1.13939e-19)
(15.7023 0.304171 -1.18854e-19)
(15.733 0.314869 3.58492e-19)
(15.7754 0.330008 -2.29295e-19)
(15.8328 0.352041 -2.18279e-19)
(15.9077 0.383238 -2.00991e-19)
(16.0022 0.42579 0)
(16.1159 0.479708 -1.48959e-19)
(16.2472 0.543655 2.58161e-19)
(16.391 0.612386 1.44092e-20)
(16.5411 0.681747 -1.78233e-19)
(16.6903 0.744118 0)
(16.8305 0.798945 0)
(16.9592 0.841911 0)
(17.0695 0.875269 -2.88441e-19)
(17.1633 0.901372 2.65572e-19)
(15.6237 0.269426 -1.82286e-19)
(15.6242 0.272499 -2.31816e-21)
(15.6319 0.27239 0)
(15.6371 0.275989 -4.23729e-20)
(15.6449 0.279335 -4.87128e-24)
(15.6536 0.28412 1.43277e-19)
(15.6651 0.289397 -2.09886e-19)
(15.6808 0.295603 3.42279e-19)
(15.7029 0.302953 -1.52666e-22)
(15.7341 0.312636 -1.1977e-19)
(15.7773 0.326017 -1.1809e-19)
(15.836 0.345171 2.19355e-19)
(15.9132 0.371832 1.99193e-19)
(16.0112 0.40765 -1.81635e-19)
(16.1298 0.452066 2.82387e-21)
(16.267 0.503519 -2.61616e-19)
(16.4172 0.556781 0)
(16.5729 0.608412 0)
(16.7264 0.651877 1.28853e-19)
(16.869 0.687773 0)
(16.9983 0.71339 0)
(17.1077 0.731204 4.51719e-20)
(17.1998 0.744108 1.31841e-19)
(15.6237 0.269274 0)
(15.6242 0.27244 -2.07925e-20)
(15.6319 0.272245 1.36723e-24)
(15.6372 0.275861 1.22859e-21)
(15.645 0.279158 -3.72657e-24)
(15.6538 0.283889 -9.3979e-20)
(15.6654 0.289026 1.04625e-19)
(15.6812 0.294947 -2.2821e-19)
(15.7034 0.301729 -1.20644e-19)
(15.735 0.31038 0)
(15.7789 0.321961 1.1744e-19)
(15.8389 0.338141 4.57082e-22)
(15.918 0.360086 1.31579e-22)
(16.0189 0.388866 1.80566e-19)
(16.1413 0.423355 0)
(16.2829 0.461835 1.37095e-19)
(16.4374 0.499286 -3.10597e-21)
(16.5963 0.533171 0)
(16.7513 0.55826 -1.27995e-19)
(16.8935 0.576279 0)
(17.0208 0.585975 0)
(17.1274 0.589981 0)
(17.2164 0.59129 1.89139e-22)
(15.6237 0.269125 0)
(15.6243 0.272381 8.56795e-21)
(15.632 0.272103 -2.47045e-25)
(15.6373 0.275734 4.11453e-20)
(15.6452 0.278982 4.5815e-20)
(15.654 0.28366 9.30422e-20)
(15.6656 0.288657 0)
(15.6815 0.294292 -1.14602e-19)
(15.7039 0.300502 2.41778e-19)
(15.7358 0.308105 -6.3227e-24)
(15.7803 0.317849 1.19625e-19)
(15.8413 0.330974 -1.13125e-19)
(15.922 0.348054 0)
(16.0251 0.369558 0)
(16.1504 0.393819 1.61655e-19)
(16.2949 0.419052 -1.34271e-19)
(16.4515 0.440648 0)
(16.6113 0.457127 -1.71783e-19)
(16.7654 0.464716 -1.31246e-19)
(16.905 0.466193 0)
(17.0285 0.461546 2.2284e-21)
(17.1309 0.45349 1.89531e-22)
(17.2158 0.444748 -6.97918e-20)
(15.6237 0.268978 3.27691e-25)
(15.6243 0.272323 -1.65657e-20)
(15.632 0.271963 -6.81209e-25)
(15.6374 0.275607 0)
(15.6453 0.278808 -5.75555e-22)
(15.6542 0.283432 -9.23752e-20)
(15.6659 0.288291 -2.09711e-23)
(15.6819 0.29364 1.14531e-19)
(15.7044 0.299275 -1.21097e-19)
(15.7366 0.305818 1.23469e-19)
(15.7815 0.313694 7.5236e-22)
(15.8433 0.3237 2.27007e-19)
(15.9252 0.335799 -2.10203e-19)
(16.0299 0.349858 6.46058e-22)
(16.1569 0.363713 -3.25436e-19)
(16.3028 0.375622 1.41153e-19)
(16.4598 0.381576 -7.00619e-21)
(16.6183 0.381277 1.76929e-19)
(16.7693 0.372478 1.29804e-19)
(16.9046 0.35889 0)
(17.023 0.341498 6.71974e-20)
(17.1203 0.323022 0)
(17.2005 0.30564 -3.0862e-20)
(15.6237 0.268834 0)
(15.6243 0.272264 7.99775e-21)
(15.6321 0.271824 3.37808e-20)
(15.6375 0.275481 2.52636e-24)
(15.6454 0.278635 -8.99863e-20)
(15.6543 0.283206 4.60603e-20)
(15.6661 0.287927 0)
(15.6821 0.292991 0)
(15.7048 0.298048 -7.80358e-23)
(15.7372 0.303522 -1.23301e-19)
(15.7825 0.309506 5.61949e-22)
(15.8449 0.316346 -1.13669e-19)
(15.9275 0.323387 2.09097e-19)
(16.0332 0.329901 0)
(16.1608 0.333299 1.62373e-19)
(16.3066 0.331987 -1.365e-19)
(16.4622 0.322735 1.02474e-19)
(16.6176 0.306508 9.98367e-21)
(16.7639 0.28258 0)
(16.8935 0.25545 0)
(17.0058 0.226855 -3.24367e-20)
(17.0972 0.199463 -9.05366e-20)
(17.1723 0.174694 6.36671e-20)
(15.6237 0.268692 0)
(15.6244 0.272205 -1.00475e-24)
(15.6321 0.271686 -3.37805e-20)
(15.6376 0.275356 1.89833e-20)
(15.6455 0.278462 4.47383e-20)
(15.6545 0.282981 9.49341e-24)
(15.6663 0.287565 5.19157e-20)
(15.6824 0.292345 5.75954e-20)
(15.7052 0.296823 -1.22273e-19)
(15.7377 0.301222 0)
(15.7833 0.3053 3.61696e-22)
(15.846 0.308942 -1.14482e-19)
(15.9291 0.310885 0)
(16.0349 0.309826 -3.48475e-21)
(16.1622 0.302837 1.67094e-19)
(16.3065 0.288575 0)
(16.4591 0.26474 -1.60995e-20)
(16.6096 0.233593 -3.21545e-21)
(16.7499 0.19587 1.55424e-19)
(16.8727 0.156707 0)
(16.9782 0.118363 0)
(17.0634 0.0834032 4.55397e-20)
(17.1333 0.0523442 -1.54955e-19)
(15.6237 0.268552 -6.27741e-25)
(15.6244 0.272146 8.28961e-25)
(15.6322 0.27155 0)
(15.6377 0.27523 1.82731e-20)
(15.6457 0.278291 -2.3082e-23)
(15.6547 0.282757 1.88509e-23)
(15.6665 0.287206 -5.18692e-20)
(15.6827 0.291702 -5.76257e-20)
(15.7055 0.295602 1.2223e-19)
(15.7382 0.298924 -1.23999e-19)
(15.7839 0.301085 -1.21323e-19)
(15.8468 0.301519 1.15497e-19)
(15.9298 0.298361 1.03623e-19)
(16.0352 0.289776 9.02218e-20)
(16.1611 0.272581 -1.63669e-19)
(16.3025 0.245794 7.66819e-21)
(16.4506 0.20815 -1.23815e-19)
(16.5949 0.163201 -6.29326e-20)
(16.728 0.113041 -6.42371e-20)
(16.8433 0.0632884 4.68647e-20)
(16.9415 0.0165292 -6.09744e-20)
(17.0203 -0.0248065 0)
(17.0849 -0.0612146 5.88967e-20)
(15.6237 0.268414 0)
(15.6244 0.272087 6.79003e-21)
(15.6322 0.271415 3.26788e-20)
(15.6378 0.275105 -1.90178e-20)
(15.6458 0.27812 2.16223e-20)
(15.6548 0.282535 0)
(15.6667 0.286849 7.05136e-23)
(15.6829 0.291064 -9.29697e-23)
(15.7058 0.294387 6.11073e-20)
(15.7385 0.29663 1.86378e-19)
(15.7843 0.296876 -1.20366e-19)
(15.8471 0.294107 -7.77114e-22)
(15.9297 0.285885 -3.76381e-22)
(16.0339 0.26989 -9.3612e-20)
(16.1574 0.242781 0)
(16.2948 0.204025 1.3206e-19)
(16.437 0.153466 -1.04897e-19)
(16.574 0.0959009 8.23702e-20)
(16.6989 0.0346419 2.99679e-20)
(16.8062 -0.0243532 3.68431e-21)
(16.8968 -0.078327 -5.88795e-20)
(16.9693 -0.125007 4.08539e-20)
(17.0286 -0.16597 5.87964e-20)
(15.6237 0.268278 4.11696e-20)
(15.6244 0.272028 -2.96155e-22)
(15.6323 0.271281 -3.26801e-20)
(15.6379 0.27498 -1.82178e-20)
(15.6459 0.277951 -4.2928e-20)
(15.655 0.282313 -4.45178e-20)
(15.6669 0.286495 -7.02622e-23)
(15.6831 0.29043 9.26329e-23)
(15.706 0.293179 -6.10882e-20)
(15.7388 0.294347 -6.20974e-20)
(15.7845 0.292685 2.41555e-19)
(15.8469 0.286737 -1.1374e-19)
(15.9287 0.273527 -1.04538e-19)
(16.0312 0.250305 9.19346e-20)
(16.1514 0.213671 -5.68508e-21)
(16.2835 0.163619 -1.15385e-19)
(16.4187 0.101131 1.07094e-19)
(16.5474 0.0321666 -1.17219e-19)
(16.6635 -0.0388963 -3.15809e-20)
(16.7624 -0.105899 0)
(16.8453 -0.166028 6.00944e-20)
(16.9114 -0.217171 -8.00597e-20)
(16.9655 -0.262025 1.1118e-19)
(15.6237 0.268144 -4.11671e-20)
(15.6245 0.271968 -9.56445e-21)
(15.6323 0.271149 -3.1582e-20)
(15.638 0.274855 1.7337e-20)
(15.646 0.277781 2.13e-20)
(15.6551 0.282092 4.44975e-20)
(15.6671 0.286143 5.09177e-20)
(15.6833 0.2898 0)
(15.7062 0.291979 6.07926e-20)
(15.7389 0.292079 -6.18315e-20)
(15.7844 0.288525 -1.20603e-19)
(15.8464 0.279442 1.13683e-19)
(15.927 0.261354 0)
(16.027 0.231155 -8.5196e-20)
(16.143 0.185475 6.80616e-20)
(16.2689 0.124898 -6.28132e-20)
(16.3961 0.0515334 2.74079e-20)
(16.5157 -0.0276056 4.17724e-20)
(16.6224 -0.107239 -1.13187e-19)
(16.7127 -0.181128 7.66047e-20)
(16.7879 -0.246484 0)
(16.8477 -0.301342 -1.57237e-19)
(16.8967 -0.349535 2.27101e-19)
(15.6237 0.268011 0)
(15.6245 0.271909 3.06838e-21)
(15.6324 0.271018 3.15746e-20)
(15.6381 0.27473 -1.73384e-20)
(15.6461 0.277612 -5.45112e-24)
(15.6553 0.281872 1.80043e-23)
(15.6672 0.285793 -2.56345e-20)
(15.6835 0.289176 0)
(15.7064 0.290789 -6.07754e-20)
(15.7389 0.289831 2.16552e-22)
(15.7842 0.284408 0)
(15.8454 0.272251 -5.60507e-20)
(15.9244 0.249433 0)
(16.0214 0.212565 6.55158e-21)
(16.1324 0.158399 -1.49416e-19)
(16.2512 0.0881481 4.86559e-20)
(16.3695 0.00500866 2.63018e-20)
(16.4793 -0.0830886 -1.05394e-19)
(16.5763 -0.170126 5.45011e-20)
(16.6577 -0.249885 7.83117e-20)
(16.7253 -0.319656 -1.27331e-19)
(16.7789 -0.377596 1.0913e-19)
(16.8229 -0.42867 -4.07497e-19)
(15.6237 0.26788 -4.0147e-20)
(15.6245 0.271848 2.6098e-21)
(15.6324 0.270887 -1.51305e-20)
(15.6381 0.274605 -1.04989e-23)
(15.6462 0.277443 2.14616e-23)
(15.6554 0.281652 -4.81335e-23)
(15.6674 0.285446 -2.5256e-20)
(15.6836 0.288558 2.41005e-22)
(15.7065 0.289611 -1.97564e-22)
(15.7389 0.287607 2.67182e-22)
(15.7837 0.280348 -5.93844e-20)
(15.844 0.265194 5.3909e-20)
(15.9211 0.237828 2.77992e-21)
(16.0145 0.194653 -6.38872e-21)
(16.1198 0.132631 8.32238e-20)
(16.2307 0.0536255 0)
(16.3394 -0.0381539 4.51724e-20)
(16.4389 -0.13401 7.11351e-20)
(16.5259 -0.227348 -5.26431e-20)
(16.5983 -0.312056 1.42239e-19)
(16.6581 -0.385527 -7.0394e-20)
(16.7057 -0.446012 1.60954e-20)
(16.7449 -0.499586 2.05299e-19)
(15.6237 0.26775 7.99625e-20)
(15.6245 0.271788 -2.61135e-21)
(15.6324 0.270757 3.40183e-22)
(15.6382 0.274479 0)
(15.6463 0.277275 0)
(15.6555 0.281433 -2.11238e-20)
(15.6675 0.285101 -2.47792e-20)
(15.6838 0.287945 0)
(15.7065 0.288447 -3.08392e-22)
(15.7388 0.285412 6.16965e-20)
(15.7831 0.276355 6.05119e-20)
(15.8422 0.258301 -1.50602e-21)
(15.917 0.226597 -3.67073e-21)
(16.0063 0.177527 1.10105e-20)
(16.1053 0.10834 -8.11463e-21)
(16.2076 0.0215523 0)
(16.3061 -0.0777079 -6.43097e-20)
(16.3949 -0.180144 3.60918e-21)
(16.4716 -0.278735 -1.39976e-19)
(16.535 -0.367546 6.42659e-20)
(16.5872 -0.444083 9.37517e-20)
(16.6287 -0.506654 -1.52797e-19)
(16.6631 -0.562404 0)
(15.6237 0.267622 -7.93073e-20)
(15.6246 0.271727 1.48561e-24)
(15.6325 0.270628 1.47928e-20)
(15.6383 0.274353 0)
(15.6464 0.277106 0)
(15.6557 0.281214 3.42552e-22)
(15.6677 0.284758 4.92776e-20)
(15.6839 0.287339 0)
(15.7066 0.287297 2.98371e-20)
(15.7385 0.283251 0)
(15.7822 0.272442 0)
(15.8401 0.251596 -2.05426e-21)
(15.9122 0.215795 2.69401e-21)
(15.997 0.161285 3.51619e-20)
(16.0892 0.085672 7.84949e-21)
(16.1823 -0.00788087 -1.49388e-20)
(16.2701 -0.113446 6.24452e-20)
(16.3478 -0.221299 0)
(16.414 -0.324138 4.55681e-20)
(16.4683 -0.416265 0)
(16.5128 -0.495286 2.00933e-20)
(16.5484 -0.559544 2.84536e-20)
(16.578 -0.617191 0)
(15.6237 0.267495 5.90664e-20)
(15.6246 0.271665 -8.6624e-22)
(15.6325 0.2705 0)
(15.6384 0.274227 7.41128e-21)
(15.6465 0.276938 -9.44749e-21)
(15.6558 0.280995 2.08038e-20)
(15.6678 0.284417 -2.45377e-20)
(15.684 0.286739 -2.77884e-20)
(15.7065 0.286163 -2.96357e-20)
(15.7382 0.281128 -5.97352e-22)
(15.7812 0.26862 7.85453e-22)
(15.8375 0.245106 5.32825e-20)
(15.9068 0.205472 3.48438e-21)
(15.9867 0.146013 -5.15049e-20)
(16.0715 0.0647549 7.56123e-21)
(16.155 -0.0345151 0)
(16.2317 -0.145197 0)
(16.2981 -0.257314 0)
(16.3538 -0.363422 0)
(16.3988 -0.458108 -1.33521e-20)
(16.4357 -0.539065 -8.93761e-20)
(16.4653 -0.604642 8.81499e-20)
(16.49 -0.663931 0)
(15.6237 0.267369 -1.95771e-20)
(15.6246 0.271603 1.57299e-21)
(15.6325 0.270372 0)
(15.6384 0.2741 -7.41583e-21)
(15.6466 0.276769 1.86933e-20)
(15.6559 0.280776 0)
(15.6679 0.284079 0)
(15.6841 0.286146 2.76351e-20)
(15.7065 0.285047 0)
(15.7378 0.279047 -2.92861e-20)
(15.78 0.264899 -2.93839e-20)
(15.8347 0.238854 -2.7077e-20)
(15.9008 0.195672 4.58511e-20)
(15.9755 0.131784 0)
(16.0525 0.0456929 0)
(16.126 -0.0582229 1.31583e-20)
(16.1915 -0.172822 -1.72497e-20)
(16.2463 -0.288051 0)
(16.2913 -0.396452 -1.74744e-20)
(16.327 -0.492947 1.33859e-20)
(16.3561 -0.575292 6.91478e-20)
(16.3796 -0.64183 -9.113e-20)
(16.3994 -0.702502 0)
(15.6237 0.267244 1.051e-24)
(15.6246 0.271541 -1.25436e-21)
(15.6326 0.270245 -2.90742e-24)
(15.6385 0.273973 -3.44437e-21)
(15.6467 0.2766 -9.24543e-21)
(15.656 0.280558 9.88643e-21)
(15.6681 0.283743 3.78598e-23)
(15.6841 0.28556 -1.37673e-20)
(15.7064 0.28395 2.97771e-20)
(15.7373 0.277012 2.94751e-20)
(15.7786 0.261288 2.85988e-20)
(15.8315 0.232859 -2.61882e-20)
(15.8943 0.186432 -4.58481e-20)
(15.9634 0.11866 -5.28752e-21)
(16.0324 0.0285678 6.92565e-21)
(16.0957 -0.078908 1.22101e-20)
(16.1497 -0.196218 -1.60153e-20)
(16.193 -0.313395 0)
(16.2271 -0.423095 1.7514e-20)
(16.2534 -0.520622 0)
(16.2746 -0.603776 -8.12133e-21)
(16.292 -0.670894 0)
(16.3066 -0.732656 -3.07982e-21)
(15.6237 0.26712 9.51836e-21)
(15.6246 0.271478 5.44645e-22)
(15.6326 0.270118 6.58195e-21)
(15.6386 0.273845 1.40031e-22)
(15.6468 0.27643 -1.37585e-23)
(15.6561 0.280339 -1.38768e-22)
(15.6682 0.283409 -1.17438e-20)
(15.6842 0.284982 1.73936e-23)
(15.7062 0.282872 -2.92783e-20)
(15.7367 0.275025 -5.79091e-22)