/*--------------------------------*- C++ -*----------------------------------*\
  =========                 |
  \\      /  F ield         | OpenFOAM: The Open Source CFD Toolbox
   \\    /   O peration     | Website:  https://openfoam.org
    \\  /    A nd           | Version:  7
     \\/     M anipulation  |
\*---------------------------------------------------------------------------*/
FoamFile
{
    version     2.0;
    format      ascii;
    class       volScalarField;
    location    "43";
    object      yPlus;
}
// * * * * * * * * * * * * * * * * * * * * * * * * * * * * * * * * * * * * * //

dimensions      [0 0 0 0 0 0 0];

internalField   uniform 0;

boundaryField
{
    inlet
    {
        type            calculated;
        value           uniform 0;
    }
    outlet
    {
        type            calculated;
        value           uniform 0;
    }
    suction_side
    {
        type            calculated;
        value           nonuniform List<scalar> 
56
(
4.68094
4.85539
5.2751
5.52609
6.18006
6.43252
7.37293
7.63814
9.08719
9.34241
12.0104
13.4901
16.8507
23.2867
34.179
43.5272
49.8506
52.592
51.9311
49.8509
47.02
44.1089
41.8801
40.6151
40.3688
40.8445
41.6022
42.0284
42.0551
41.8726
41.5264
41.0594
40.5443
40.0207
39.4933
38.9572
38.4134
37.8688
37.3283
36.7943
36.2504
35.6986
35.1156
34.5155
33.8874
33.2061
32.4338
31.5728
30.5819
29.5365
28.5053
27.5238
26.6603
25.6446
25.1287
24.0828
)
;
    }
    pressure_side
    {
        type            calculated;
        value           nonuniform List<scalar> 
56
(
25.6409
26.4756
26.8736
27.728
28.4164
29.2739
30.1106
30.9899
31.8184
32.5447
33.1883
33.7517
34.2644
34.7353
35.1841
35.618
36.0354
36.4344
36.8229
37.193
37.5454
37.8795
38.1924
38.4879
38.7494
38.9317
38.9879
38.8464
38.6798
38.7042
39.1376
40.2088
41.9641
44.0124
45.9988
47.8115
49.058
49.4449
48.0242
44.592
39.1438
32.084
23.7301
15.6103
12.8205
9.22869
8.65105
6.67672
6.12711
5.13955
4.77599
4.49624
4.35434
4.30052
4.38313
4.48387
)
;
    }
    trailing_edge
    {
        type            calculated;
        value           nonuniform List<scalar> 2(98.6335 95.4182);
    }
    defaultFaces
    {
        type            empty;
    }
}


// ************************************************************************* //
