/*--------------------------------*- C++ -*----------------------------------*\
  =========                 |
  \\      /  F ield         | OpenFOAM: The Open Source CFD Toolbox
   \\    /   O peration     | Website:  https://openfoam.org
    \\  /    A nd           | Version:  7
     \\/     M anipulation  |
\*---------------------------------------------------------------------------*/
FoamFile
{
    version     2.0;
    format      ascii;
    class       volScalarField;
    location    "50";
    object      k;
}
// * * * * * * * * * * * * * * * * * * * * * * * * * * * * * * * * * * * * * //

dimensions      [0 2 -2 0 0 0 0];

internalField   nonuniform List<scalar> 
12842
(
0.00570189
0.00507425
0.00472061
0.00446903
0.00430332
0.00417945
0.00409024
0.0040356
0.00397866
0.00395345
0.00392936
0.00393288
0.00395147
0.00399113
0.00403939
0.00409806
0.00414228
0.00421367
0.00426804
0.00434301
0.00441434
0.00448306
0.0045834
0.00562947
0.00506223
0.00468148
0.00443386
0.00428924
0.00417109
0.00408524
0.00403329
0.00397039
0.00394516
0.00392171
0.00392574
0.00394482
0.00398803
0.00405158
0.00411381
0.00415909
0.00424471
0.00429501
0.0043604
0.00442066
0.00451668
0.00461663
0.00560783
0.00495677
0.0046227
0.00438549
0.00424022
0.00413358
0.00406255
0.00401436
0.00396203
0.00394233
0.00391298
0.00391785
0.00394333
0.00400264
0.00409461
0.00418447
0.00422368
0.00428829
0.00437793
0.00447295
0.00452352
0.00462907
0.00471858
0.00553643
0.00492148
0.0045509
0.00434595
0.00421671
0.00411661
0.00405233
0.00399955
0.00395913
0.00393482
0.00391063
0.00391861
0.003948
0.00401535
0.00413648
0.0042293
0.00429161
0.00434989
0.00443185
0.00452709
0.00463667
0.00481127
0.00494475
0.00548276
0.004835
0.00448185
0.00427388
0.004162
0.0040794
0.00403111
0.00398258
0.00395511
0.00392569
0.00390726
0.00392922
0.00398306
0.00407288
0.00421992
0.00432687
0.00440976
0.00445117
0.00453252
0.00467773
0.00479404
0.00496081
0.00515264
0.00541231
0.00477987
0.00443419
0.0042451
0.00413159
0.00405686
0.00401
0.00396707
0.00394987
0.00392217
0.00391411
0.00394301
0.00401258
0.00413174
0.00429256
0.00440795
0.00450766
0.00456901
0.00461051
0.00473191
0.00494359
0.00515483
0.00536019
0.00534986
0.00471108
0.00437164
0.00418693
0.00408977
0.00402724
0.00398769
0.00395436
0.00394197
0.00391516
0.003929
0.00397615
0.00407007
0.00421285
0.00439066
0.00453671
0.00463558
0.00473248
0.00477329
0.00489979
0.00512625
0.005374
0.00559138
0.00528734
0.00464836
0.00433255
0.00416491
0.0040564
0.00400947
0.00396855
0.00394378
0.00393408
0.00390949
0.00394651
0.00401729
0.00413473
0.00432049
0.00448543
0.00465353
0.00477101
0.0048783
0.00494005
0.00509134
0.0053163
0.00558201
0.00582928
0.00522315
0.00459431
0.00428497
0.00412297
0.0040283
0.0039834
0.00395194
0.00393431
0.0039268
0.00390829
0.00397364
0.00407193
0.00423006
0.00445066
0.00462884
0.00480697
0.00493221
0.00506837
0.00516721
0.00535794
0.00558072
0.00585055
0.00609902
0.00515315
0.00453301
0.00425101
0.00410563
0.00401002
0.00397219
0.00393918
0.00393026
0.00392266
0.00392109
0.00400938
0.00414296
0.00433637
0.00458199
0.00476333
0.00495493
0.00510323
0.00525651
0.00537061
0.005575
0.00580534
0.00606072
0.00630956
0.00508712
0.00447753
0.00420996
0.00407214
0.00398528
0.00395175
0.00392669
0.00392227
0.00391268
0.00393713
0.00405208
0.0042194
0.00446646
0.00472402
0.00491533
0.00510844
0.00526109
0.00543502
0.00558382
0.00580702
0.00602714
0.0062834
0.00652052
0.00500952
0.00442777
0.004181
0.00405409
0.00397458
0.00394083
0.00391771
0.00391768
0.0039138
0.00397479
0.00411368
0.00432202
0.0046122
0.00488535
0.0050789
0.00527722
0.00545268
0.00564478
0.00580228
0.00602676
0.00624375
0.00647744
0.00670051
0.00494988
0.00438015
0.00414719
0.00402931
0.00395449
0.0039236
0.00390885
0.00391095
0.00390773
0.00400565
0.00418027
0.00443701
0.00477732
0.00505365
0.00525944
0.00545771
0.00564004
0.00583639
0.00601471
0.00624568
0.00645012
0.00668057
0.00689362
0.00487474
0.00433538
0.00412282
0.00400845
0.00394537
0.00391451
0.0039009
0.0039072
0.00392777
0.00406144
0.00427005
0.00457449
0.00494678
0.00523806
0.00544594
0.00564588
0.00583985
0.00604606
0.00623472
0.00645504
0.00664907
0.00684987
0.0070426
0.00481644
0.00429557
0.00409409
0.00399082
0.00392808
0.00390011
0.00389193
0.00389726
0.00394968
0.00411599
0.00436566
0.00473102
0.00512874
0.00541705
0.00563744
0.00583508
0.0060423
0.00624264
0.00643024
0.00665421
0.00682418
0.00701988
0.00720502
0.00475685
0.00426081
0.00407339
0.0039729
0.00392004
0.0038935
0.00388826
0.00390193
0.00400302
0.00419773
0.00448802
0.00489964
0.00531031
0.00561221
0.0058369
0.00603506
0.00623783
0.00642698
0.00663103
0.0068326
0.00700357
0.00718334
0.00735274
0.00470844
0.00422055
0.00405234
0.00395435
0.0039045
0.00388122
0.00387511
0.00389561
0.00404483
0.00427704
0.00460962
0.00508069
0.00549567
0.00579278
0.00602506
0.00621648
0.00643248
0.00662499
0.00679896
0.00700772
0.00715516
0.00731233
0.00747781
0.00466405
0.00419302
0.00403051
0.00394256
0.00389715
0.00387635
0.00387296
0.00393035
0.0041286
0.00438933
0.00476223
0.00526844
0.00568121
0.00598529
0.00622039
0.00640999
0.0066057
0.00676948
0.00697956
0.00716038
0.00728752
0.00745745
0.00762171
0.00462645
0.00415907
0.00401243
0.00392658
0.00388265
0.00386105
0.00387009
0.00396349
0.00419192
0.00448974
0.0048993
0.00544891
0.00585478
0.00616084
0.0064018
0.00658412
0.00680686
0.0069773
0.00713456
0.00730389
0.00745462
0.00761354
0.00777282
0.00459087
0.00412928
0.00399755
0.00391141
0.00387524
0.00385811
0.00390046
0.00406043
0.0043071
0.00463003
0.00507424
0.00564599
0.00604465
0.00634519
0.00658458
0.00676292
0.00693703
0.00709235
0.00729624
0.00747878
0.00758905
0.00774174
0.00789316
0.00456244
0.00410135
0.00397675
0.00389942
0.00386046
0.0038541
0.00393697
0.00412424
0.00439032
0.00474211
0.00521485
0.00581352
0.00620037
0.00651321
0.00675647
0.00693373
0.00716188
0.00730643
0.0074684
0.00761015
0.0077062
0.00787726
0.00803909
0.00453406
0.00407317
0.00395931
0.00389093
0.00386574
0.0038805
0.00403512
0.00424991
0.00452966
0.00489641
0.00539232
0.00599499
0.00637781
0.00668028
0.00692771
0.00709296
0.00727736
0.00743183
0.00763864
0.00774824
0.00790802
0.00811923
0.00829181
0.0045112
0.00404711
0.0039485
0.00386873
0.0038594
0.00392454
0.00410752
0.00433868
0.00462789
0.00501424
0.0055342
0.00615493
0.00652816
0.00683979
0.00708851
0.0072918
0.00750471
0.00766545
0.00780118
0.00800201
0.00814239
0.008315
0.00848515
0.0044889
0.00402284
0.00393049
0.00386659
0.00388543
0.00401617
0.00423968
0.00448729
0.00479104
0.00517932
0.00571135
0.00632301
0.00668763
0.00699912
0.0072565
0.00742568
0.00768862
0.00783644
0.00810781
0.00823671
0.00832636
0.00850058
0.0087406
0.00447868
0.00400444
0.00391859
0.0038814
0.00394885
0.00411945
0.0043516
0.00460995
0.00491631
0.00530852
0.00585561
0.00646343
0.00681943
0.00713038
0.00742261
0.00766403
0.00788715
0.00815478
0.00839317
0.0084675
0.00865929
0.0090693
0.00950615
0.00445839
0.00399014
0.00391936
0.00394047
0.00405045
0.00422456
0.00446757
0.00473217
0.00503799
0.00543128
0.00599024
0.00659349
0.00695015
0.00726503
0.00755195
0.00783402
0.00825529
0.00851475
0.00863848
0.00903813
0.009617
0.0103191
0.0114755
0.00444711
0.00397344
0.00395127
0.00401282
0.00415774
0.00434427
0.00458386
0.00485286
0.0051537
0.00554588
0.00611982
0.00671601
0.00706961
0.00739382
0.00775207
0.00802371
0.00843412
0.00880102
0.00949292
0.0100133
0.0107027
0.0117362
0.0134353
0.00442596
0.00396861
0.00400301
0.00410253
0.00426902
0.00445468
0.00469923
0.0049677
0.00526163
0.00565042
0.00623346
0.00681919
0.00718144
0.00750963
0.00788918
0.00836568
0.00898072
0.00966556
0.0102011
0.0111367
0.0120132
0.0138652
0.0172287
0.00441419
0.00397069
0.00408061
0.00419876
0.0043844
0.0045782
0.0048147
0.00507499
0.00536109
0.00574501
0.00633925
0.00692172
0.00728535
0.00763295
0.00805799
0.00855376
0.00957149
0.0105515
0.0116112
0.0124577
0.014524
0.0187321
0.0235441
0.0043957
0.00399987
0.00416086
0.00429836
0.00449327
0.00468665
0.0049222
0.00517452
0.00545125
0.00583005
0.00643168
0.00699385
0.00737115
0.007757
0.00833253
0.00900736
0.0103234
0.0119055
0.0132604
0.015809
0.0203661
0.0262559
0.0310816
0.00438176
0.00405202
0.00425121
0.00440648
0.00460887
0.00480198
0.00502575
0.00526414
0.00553248
0.00590544
0.00651404
0.00707987
0.00746779
0.00784626
0.00851271
0.00973419
0.0126344
0.0144346
0.0174003
0.0215967
0.0275115
0.0334867
0.0371644
0.00437399
0.00411169
0.0043493
0.00450946
0.00471061
0.00490317
0.00512005
0.00534538
0.00560475
0.00597374
0.00658668
0.00713256
0.00753792
0.00801759
0.00895304
0.0101737
0.0142611
0.0200401
0.0233436
0.0279581
0.033454
0.038392
0.0411888
0.004357
0.00418953
0.00443957
0.00461453
0.00481638
0.00499983
0.00520808
0.00541664
0.00566852
0.00603222
0.00665366
0.00720529
0.00762621
0.00814418
0.00961218
0.0128214
0.0207555
0.025635
0.0291777
0.032827
0.0375234
0.0419769
0.0435342
0.00434222
0.00426396
0.00453945
0.00471497
0.0049083
0.00509016
0.00528597
0.00548001
0.00572486
0.00608746
0.0067072
0.0072532
0.00770312
0.00838078
0.0102973
0.0156725
0.0265929
0.0323345
0.0330521
0.0357392
0.0405495
0.0435437
0.0441532
0.00435879
0.00435673
0.00462213
0.00480963
0.00499698
0.00516687
0.00535699
0.0055349
0.00577337
0.00613206
0.00676372
0.00730967
0.00779176
0.00877075
0.0129652
0.0209595
0.0371287
0.0391814
0.035784
0.0375664
0.0407924
0.042908
0.0434041
0.00439286
0.00444202
0.0047171
0.00490157
0.00507915
0.00524044
0.00542098
0.0055831
0.00581649
0.00617636
0.0068051
0.00736879
0.0079035
0.00941422
0.0160524
0.0284721
0.0457064
0.0428334
0.0368098
0.0379484
0.0400077
0.0412805
0.041303
0.00444721
0.00453814
0.0047879
0.00498497
0.00514828
0.00530576
0.00547522
0.00562507
0.00585258
0.00621107
0.00685086
0.00742016
0.00810131
0.0108661
0.020855
0.0433911
0.0553111
0.0427713
0.0371851
0.0373357
0.0376163
0.0386283
0.0396782
0.0045051
0.00462838
0.0048737
0.00506323
0.00521984
0.00535856
0.00552513
0.00566213
0.00588551
0.00624647
0.00688576
0.00746734
0.0082938
0.0126556
0.0296124
0.0540316
0.0615229
0.0440009
0.0370886
0.0355501
0.0357712
0.0387739
0.0380724
0.00457315
0.00471962
0.00494006
0.00513584
0.00527501
0.00541411
0.00556874
0.00569506
0.00591211
0.00627482
0.00692692
0.00756774
0.00889861
0.0165191
0.0428425
0.0637886
0.061905
0.0432116
0.03659
0.0342413
0.0362209
0.0384272
0.0365994
0.00464437
0.00480502
0.0050095
0.00519934
0.00533306
0.00545824
0.00560392
0.00572467
0.00593748
0.00630367
0.00695817
0.0076303
0.00963591
0.0218422
0.0532864
0.0694335
0.0622525
0.0432141
0.0359038
0.0347134
0.0357044
0.0386128
0.0350435
0.00471648
0.00489005
0.00507515
0.00525974
0.00537889
0.00549524
0.00563858
0.00575169
0.00595757
0.00632914
0.00699736
0.00779937
0.0110015
0.0276481
0.0603288
0.069813
0.0626398
0.0437621
0.0356181
0.0342215
0.035605
0.0371178
0.0335396
0.00478828
0.00496367
0.00513237
0.00530808
0.00542223
0.00553289
0.00566407
0.00577643
0.00597762
0.00635489
0.00703476
0.00796365
0.0126272
0.0322343
0.0635374
0.0703048
0.0635547
0.0437614
0.0359669
0.0339077
0.0352683
0.0377343
0.0323692
0.00485647
0.00503486
0.00518836
0.00535567
0.00545903
0.00556086
0.00568443
0.00579909
0.00599314
0.00637817
0.00708211
0.00829307
0.0143033
0.0360232
0.0651577
0.0707493
0.0628104
0.0431867
0.0357813
0.035067
0.0367652
0.0363674
0.0309213
0.00491941
0.00509501
0.00523635
0.00539085
0.00549066
0.0055853
0.00571044
0.00582
0.00601013
0.00640572
0.00712446
0.00854884
0.0154844
0.0378196
0.0658593
0.0714695
0.0634282
0.0426168
0.0362098
0.0351568
0.0357495
0.0349558
0.0317282
0.00497752
0.00514928
0.00528075
0.00542319
0.00551475
0.00559896
0.00570984
0.0058383
0.00602271
0.0064283
0.00718065
0.00884212
0.0164407
0.0393583
0.0662737
0.071499
0.0634771
0.0426435
0.0364741
0.0353428
0.0341774
0.0332115
0.0318002
0.00502721
0.00519226
0.00531645
0.00544741
0.00553546
0.00561273
0.00571758
0.00585577
0.00603695
0.00645478
0.00722698
0.00910936
0.0173709
0.0402371
0.0660839
0.0709573
0.0644964
0.0428205
0.0360565
0.034851
0.0327548
0.0324454
0.0316882
0.00507472
0.00523001
0.00534352
0.00546688
0.00555175
0.00562103
0.0057288
0.00586946
0.00604879
0.00648143
0.00728027
0.0094182
0.0184176
0.041297
0.0661451
0.0699565
0.0644952
0.042577
0.034938
0.0332062
0.0305971
0.0306186
0.0300054
0.00511098
0.00525809
0.00536912
0.00548619
0.00557073
0.00563397
0.00573766
0.00588275
0.00606035
0.00650755
0.00733574
0.00961961
0.0193864
0.0417787
0.0657577
0.0690919
0.0649094
0.041347
0.0326525
0.0305936
0.0281638
0.0282842
0.0277293
0.00515599
0.00528431
0.0053911
0.00549984
0.00558768
0.00564031
0.00574705
0.00589238
0.00607121
0.00653315
0.0073794
0.00981137
0.0195537
0.0428506
0.0640136
0.0673255
0.0642302
0.0387214
0.0300479
0.0273849
0.0251494
0.0253502
0.0248593
0.00518763
0.00531049
0.00541779
0.00551992
0.00560895
0.00565351
0.00575633
0.00590305
0.0060822
0.00656225
0.00741375
0.00992161
0.0198529
0.0435043
0.0624628
0.0605647
0.0578549
0.0342873
0.0268644
0.0238432
0.0217933
0.0219167
0.0214606
0.00523548
0.0053355
0.00544437
0.00553497
0.00563001
0.00566444
0.00576495
0.00591028
0.00609209
0.00659145
0.00745449
0.0100886
0.0199263
0.0429568
0.0606539
0.0502748
0.0476312
0.0301242
0.0235994
0.0204869
0.0186885
0.0188269
0.0184887
0.00527105
0.00536524
0.00547345
0.00555628
0.00565111
0.00567888
0.00577519
0.00591743
0.00610052
0.00660994
0.00747704
0.0102777
0.0193764
0.039005
0.0526933
0.0391467
0.037356
0.024731
0.0203264
0.0177045
0.0161689
0.0162299
0.0158523
0.00531426
0.00539092
0.0055012
0.00557248
0.00567165
0.00568996
0.00578473
0.00592277
0.00610971
0.0066462
0.00751787
0.0102051
0.0178528
0.0323289
0.0402509
0.0296
0.0282327
0.0208858
0.0174948
0.0151586
0.0139145
0.0138883
0.0137508
0.00535369
0.00542078
0.00553161
0.00559523
0.00569287
0.00570482
0.00579598
0.00592761
0.00611514
0.00666901
0.00753896
0.00989092
0.0159912
0.025943
0.0288205
0.0221393
0.0211413
0.0170099
0.0146235
0.0130241
0.0123245
0.0123691
0.0122775
0.00539351
0.00544796
0.00555895
0.00561332
0.0057123
0.00571887
0.00580654
0.00593224
0.00612422
0.00669871
0.0075762
0.00947474
0.014086
0.0207249
0.0203127
0.0168453
0.0160619
0.0138831
0.0125516
0.0114953
0.0110545
0.0110221
0.0109814
0.00543219
0.00547781
0.00558787
0.00563558
0.00573271
0.00573527
0.00581795
0.00593785
0.00613248
0.0067215
0.00757849
0.00910548
0.0124962
0.0171451
0.0152369
0.0136864
0.0130284
0.0120522
0.010953
0.0102818
0.0100874
0.010159
0.0102216
0.00546735
0.00550516
0.00561264
0.00565417
0.00575043
0.00574988
0.00582796
0.00594178
0.00613609
0.00673945
0.00756915
0.00880687
0.0112673
0.0145952
0.0123385
0.0119347
0.0113934
0.0108463
0.00997457
0.00952847
0.00947828
0.00952837
0.00956246
0.00549985
0.00553313
0.00563705
0.00567333
0.00576719
0.00576549
0.00583786
0.0059454
0.00613948
0.00675463
0.00755158
0.00855482
0.0103012
0.0128427
0.0108835
0.0109163
0.0102667
0.0102389
0.00937305
0.00906208
0.00915872
0.00909091
0.00908016
0.00553084
0.00556103
0.00565974
0.00569279
0.00578425
0.00578054
0.00584816
0.00594881
0.00614277
0.00674785
0.00752889
0.00835843
0.00956388
0.0116446
0.010218
0.0102617
0.00984158
0.00967596
0.00906935
0.00877647
0.00889777
0.00876386
0.00874612
0.00556097
0.00558947
0.00568425
0.00571222
0.00579947
0.00579709
0.00585887
0.00595273
0.00614515
0.00671547
0.00748435
0.00818544
0.00900979
0.0107051
0.00981364
0.00991239
0.00963936
0.00932432
0.00878229
0.00861656
0.00875475
0.00871664
0.00874089
0.00559117
0.00561924
0.00570651
0.00573295
0.00581609
0.00581292
0.00586985
0.00595704
0.00614719
0.00668125
0.0074465
0.00805446
0.00860206
0.010375
0.00978176
0.00968918
0.00962042
0.00915758
0.00878278
0.00853376
0.00870909
0.00869029
0.00862762
0.00561805
0.00564677
0.00573055
0.00575311
0.00582992
0.00582971
0.00588173
0.00596222
0.00614828
0.00665738
0.00738552
0.00792525
0.00828834
0.0102446
0.00977259
0.0096544
0.00946901
0.00916355
0.0087656
0.0084881
0.00868759
0.00867963
0.00866898
0.00564645
0.00567611
0.00575339
0.00577447
0.00584538
0.00584565
0.00589336
0.00596788
0.00614975
0.0066652
0.00733369
0.00781499
0.00808398
0.0102216
0.00976649
0.00961039
0.00946632
0.00914149
0.00867732
0.00844163
0.00864471
0.00864842
0.00862991
0.00567401
0.00570319
0.005776
0.00579449
0.00585919
0.0058627
0.0059054
0.00597415
0.00615047
0.00665827
0.00726698
0.00770502
0.00787448
0.0101343
0.00985808
0.00955758
0.0094429
0.00902798
0.00864624
0.0085039
0.00860481
0.00864601
0.00864304
0.00569609
0.00572982
0.00579768
0.00581615
0.00587181
0.00587734
0.00591767
0.00598082
0.00615199
0.00664524
0.00719867
0.0076058
0.00775047
0.010164
0.010008
0.00954147
0.00943358
0.00893987
0.00866221
0.00852866
0.0086087
0.00862886
0.00864125
0.00572478
0.00575457
0.0058198
0.00583481
0.00588657
0.00589317
0.00592896
0.00598751
0.00615288
0.00662519
0.00714112
0.00749219
0.00768739
0.0101848
0.0101856
0.00951718
0.0093234
0.00900141
0.00866768
0.00854266
0.00859154
0.00856704
0.00864571
0.0057456
0.00577973
0.00583724
0.00585466
0.00589676
0.00590841
0.00594107
0.00599465
0.00615458
0.00660208
0.0070983
0.0074208
0.00763489
0.010286
0.01033
0.00950483
0.00932909
0.0090081
0.00859484
0.00850482
0.00852475
0.00855469
0.00863035
0.0057671
0.00580063
0.00585645
0.00587362
0.0059113
0.00591955
0.00595152
0.00600108
0.00615528
0.00658541
0.00707371
0.00731946
0.00757335
0.0103894
0.0103877
0.00938806
0.00932815
0.00895502
0.00865673
0.00850614
0.00854476
0.00857975
0.00866189
0.00578599
0.00582038
0.00587233
0.00588717
0.00591813
0.00593292
0.00596113
0.00600815
0.00615687
0.00657129
0.00704695
0.00723396
0.00751359
0.0103183
0.0102733
0.00943559
0.00930188
0.00893505
0.00859372
0.00856115
0.00857483
0.0086689
0.00879954
0.0058097
0.00583883
0.00588364
0.00590547
0.00592141
0.00594457
0.00597203
0.00601395
0.00615775
0.00657507
0.00704829
0.00723367
0.00741895
0.00995711
0.0102669
0.00940909
0.00929182
0.00890907
0.00860696
0.00859966
0.00863272
0.00873912
0.00888887
0.00580806
0.00585372
0.00588798
0.00591643
0.00592851
0.00595069
0.00597774
0.00602024
0.00615928
0.00657506
0.00704678
0.00719716
0.0074292
0.00979984
0.0102278
0.00941155
0.00927247
0.00887599
0.00859948
0.00867266
0.00871691
0.00889981
0.00915819
0.00581124
0.00586276
0.0058886
0.00592173
0.00592791
0.0059504
0.00598421
0.0060256
0.00616004
0.00657469
0.0070431
0.00721766
0.00738324
0.00977874
0.0100609
0.00940164
0.00932006
0.00888134
0.00864452
0.00877287
0.00889629
0.00905929
0.00930292
0.00581289
0.00586894
0.00589437
0.00592755
0.00592836
0.00595092
0.0059864
0.00603049
0.00616176
0.00657071
0.00704463
0.00721847
0.00741876
0.00958476
0.00993557
0.00946565
0.00930459
0.00886658
0.00872245
0.00889078
0.00896889
0.00935951
0.00999997
0.0058184
0.00586586
0.00589256
0.00592676
0.00593019
0.00595212
0.00598739
0.00603451
0.00616267
0.00656806
0.00704029
0.0071954
0.00740716
0.0096
0.0100139
0.00949351
0.00929022
0.00888736
0.00895207
0.00908622
0.00942989
0.0100367
0.0102971
0.00581672
0.00586755
0.00589213
0.00592703
0.00593356
0.00595504
0.00598913
0.00603951
0.0061642
0.00655488
0.00703891
0.00722254
0.00736404
0.00956849
0.0100099
0.00957781
0.00934183
0.00902028
0.00908827
0.00955765
0.00964236
0.0112625
0.0131863
0.00582132
0.0058672
0.00589302
0.00593084
0.00593623
0.00595257
0.00598767
0.00603975
0.00616538
0.00655664
0.00702747
0.00722166
0.00740441
0.00946708
0.0100805
0.00974225
0.00941049
0.00918723
0.0094342
0.00976621
0.0106349
0.0134754
0.0150052
0.00581737
0.0058678
0.00589729
0.00592743
0.00593317
0.00595295
0.00599005
0.00604174
0.00616663
0.0065521
0.00701586
0.00723105
0.00740521
0.00942004
0.0101682
0.00994388
0.00960786
0.00954555
0.0100224
0.0109711
0.0126756
0.0161491
0.0227231
0.00581855
0.00586218
0.00589329
0.00592853
0.00593157
0.00595491
0.00598878
0.00604096
0.00616695
0.0065491
0.00702162
0.0072274
0.00740888
0.00945087
0.0104954
0.0104046
0.00994143
0.00997258
0.0107238
0.0122018
0.0155321
0.0268175
0.0336156
0.00581194
0.00586733
0.005894
0.0059315
0.00593088
0.00595182
0.00599094
0.00604166
0.00616847
0.00654938
0.00702736
0.00723358
0.0073969
0.00948154
0.0109857
0.0107529
0.010376
0.0107232
0.0121392
0.0149247
0.0202084
0.0307995
0.0498065
0.00581066
0.00586543
0.00589664
0.00593254
0.00593291
0.00595145
0.00598805
0.00603988
0.00616816
0.00655169
0.00702906
0.00723479
0.00733837
0.00955191
0.0114619
0.0114961
0.0109468
0.0114346
0.01334
0.0170533
0.0256526
0.0437459
0.0690599
0.00581525
0.00586539
0.00589645
0.00593354
0.00593448
0.00595217
0.00598745
0.00603953
0.00616726
0.0065573
0.00702661
0.00721752
0.00738718
0.00978327
0.012063
0.0120901
0.0118979
0.0129729
0.0159386
0.0220649
0.0349583
0.0586822
0.0955638
0.00580842
0.00586388
0.0058937
0.00592934
0.00593
0.00595277
0.0059867
0.0060398
0.00616254
0.00656157
0.00703388
0.00720837
0.00735771
0.010085
0.0128231
0.0129639
0.0129781
0.0143992
0.0180296
0.024523
0.0401215
0.0744934
0.113081
0.00580858
0.00586344
0.00589464
0.00593015
0.0059295
0.0059485
0.00598633
0.00603721
0.00615798
0.0065709
0.00702182
0.00722083
0.00739282
0.010286
0.0139032
0.0141931
0.0141373
0.0160549
0.0211026
0.0323649
0.0508179
0.0916526
0.142823
0.00581189
0.00586742
0.00588823
0.00592914
0.00592751
0.00595127
0.00598637
0.00603672
0.00615473
0.00659233
0.00702765
0.00724283
0.00744397
0.0108649
0.015231
0.0156352
0.0157728
0.018166
0.0236745
0.0319151
0.0613276
0.0887724
0.13539
0.00580323
0.00586744
0.00589248
0.00592806
0.00592706
0.00594727
0.00598916
0.00603673
0.00615311
0.00661473
0.00702824
0.00725476
0.00752822
0.0119807
0.0163104
0.0172674
0.0177525
0.0208132
0.0287613
0.0358065
0.0638571
0.0884206
0.133619
0.00580252
0.00586411
0.00588653
0.00592416
0.00592521
0.00594793
0.00598997
0.00603704
0.00615159
0.00663143
0.00704969
0.00732506
0.00763789
0.0125997
0.0180711
0.0193505
0.0197876
0.0228397
0.0301189
0.0379609
0.0732377
0.0952956
0.142894
0.00580488
0.0058602
0.00588822
0.00591925
0.00592433
0.00594263
0.00598953
0.00603344
0.00615058
0.00664682
0.00707528
0.00734568
0.00778463
0.0143288
0.0197268
0.0212764
0.0221673
0.0269529
0.0370011
0.0478929
0.0830544
0.119824
0.164236
0.00580657
0.00585453
0.00588795
0.00591665
0.0059258
0.00594199
0.00598763
0.00603575
0.00615004
0.00665955
0.00709997
0.00735564
0.00791092
0.0166324
0.0220502
0.0231245
0.0247953
0.0297164
0.0414146
0.0609979
0.0921349
0.146292
0.189645
0.00580422
0.00585588
0.00588593
0.00591351
0.00592598
0.00594458
0.00598571
0.00603248
0.00615066
0.00669335
0.00712081
0.0074374
0.00829921
0.0198838
0.0237745
0.0247423
0.0270599
0.0343733
0.0506544
0.0709532
0.11655
0.157734
0.196845
0.00579762
0.00584596
0.00588098
0.00591179
0.00592463
0.00594459
0.00598238
0.00603341
0.00615073
0.00671131
0.00715763
0.00745549
0.00863601
0.0236482
0.0267114
0.0272311
0.0304251
0.0386298
0.0568593
0.0902352
0.135948
0.163917
0.195352
0.00579302
0.00584483
0.00587518
0.00591216
0.00592113
0.00594181
0.00597615
0.0060339
0.00615316
0.00674213
0.00717193
0.00743476
0.00919646
0.027945
0.0281337
0.0285451
0.033432
0.0471307
0.0707883
0.11084
0.140932
0.16854
0.199726
0.00578752
0.00584508
0.00586977
0.0059122
0.0059168
0.00593947
0.00597499
0.00603341
0.00615759
0.00678592
0.00718448
0.00745723
0.0101838
0.0321526
0.0308438
0.0309513
0.0385636
0.0522491
0.084689
0.113565
0.143215
0.174012
0.200236
0.00578287
0.00584865
0.00586564
0.00590714
0.00591448
0.00593577
0.00597506
0.00603093
0.00616112
0.00680894
0.00719505
0.00749739
0.0109068
0.0347669
0.0332424
0.0335363
0.0416708
0.0621794
0.098281
0.116215
0.145472
0.17059
0.196126
0.00577765
0.00584338
0.00585468
0.00590352
0.00590304
0.00593257
0.00597653
0.00602932
0.00616519
0.00684311
0.00721593
0.00769698
0.0127664
0.0373311
0.0361996
0.0367002
0.0458811
0.0637994
0.09753
0.117944
0.148142
0.172852
0.192683
0.00577412
0.00583672
0.00585102
0.00589623
0.00590022
0.00592386
0.00597436
0.00602617
0.00616948
0.00686846
0.0072432
0.00775227
0.0147589
0.0385094
0.0375338
0.0387154
0.0491982
0.065207
0.097939
0.11975
0.143661
0.168333
0.184997
0.00576714
0.00583068
0.00583917
0.00589047
0.00589586
0.00592195
0.00597149
0.00602479
0.00617705
0.00688448
0.00728795
0.00809175
0.0193035
0.0400414
0.0397025
0.0415421
0.0520256
0.0661588
0.0973361
0.116777
0.137284
0.159719
0.182007
0.00576084
0.00581592
0.00583614
0.00588441
0.00589282
0.00592338
0.0059675
0.00602107
0.00617227
0.00686863
0.00731877
0.00808627
0.0214842
0.0409492
0.0410464
0.0431565
0.0516882
0.0669496
0.0884738
0.105008
0.123883
0.139887
0.15919
0.00575371
0.00580903
0.00583812
0.00586975
0.00589322
0.00592057
0.00596235
0.00601597
0.00616225
0.00683672
0.00732737
0.00812925
0.0239301
0.0416843
0.0422082
0.0445716
0.0537939
0.0680543
0.08158
0.0929864
0.108489
0.122641
0.137394
0.00573706
0.00579481
0.00583329
0.00586515
0.00589148
0.00591632
0.00595733
0.00600913
0.00614891
0.00679314
0.00737424
0.00821358
0.0257702
0.0431954
0.0438023
0.0457586
0.0561361
0.0696245
0.0790786
0.0869288
0.0988205
0.109171
0.126328
0.0057122
0.00577926
0.00582578
0.00586714
0.00588407
0.0059087
0.00594997
0.00600152
0.00613487
0.00674387
0.00747515
0.00842678
0.0276279
0.0462135
0.0449354
0.0478491
0.0587277
0.0703181
0.0767101
0.0811022
0.0919216
0.099097
0.113102
0.00570329
0.00576797
0.00580655
0.00585868
0.00587193
0.00590251
0.00594012
0.00599223
0.00612055
0.00669353
0.0075345
0.00862671
0.0291564
0.0476372
0.0479407
0.0497019
0.058416
0.0717331
0.077713
0.0776998
0.0824324
0.0883542
0.100883
0.00570367
0.00575688
0.00577809
0.0058437
0.00586128
0.00589325
0.00592953
0.00598249
0.00610795
0.0066487
0.00764166
0.00914305
0.0313388
0.0530835
0.050696
0.0537427
0.0632652
0.0725283
0.0787553
0.077736
0.0779023
0.0829964
0.090316
0.00568203
0.00573418
0.00576787
0.00582327
0.00584734
0.00587943
0.00591482
0.00597008
0.0060951
0.00660652
0.00771921
0.00953292
0.0343897
0.0561826
0.0555499
0.0576865
0.070303
0.0768749
0.0762478
0.0765359
0.0777341
0.0786935
0.0787244
0.00566208
0.00570641
0.00577028
0.00580334
0.00583249
0.00586381
0.00589906
0.00595701
0.00608391
0.00657285
0.00796788
0.0103873
0.0390518
0.0664329
0.0649273
0.0647628
0.0724966
0.0779741
0.073259
0.076202
0.0734709
0.0729091
0.0682194
0.00562562
0.00570081
0.00574678
0.00576391
0.00581642
0.0058435
0.00587976
0.00593996
0.0060708
0.00654094
0.00812609
0.0110863
0.0432001
0.0735089
0.0712112
0.0737409
0.0736583
0.0762183
0.0799982
0.0730263
0.0689323
0.0668476
0.0588481
0.00559415
0.00568123
0.00572822
0.00574222
0.00579759
0.00582177
0.00586008
0.00592203
0.0060588
0.00651672
0.00847398
0.0124291
0.0539747
0.0914148
0.0835224
0.0837507
0.0745335
0.0868124
0.0758686
0.0707131
0.0695626
0.0625514
0.0672746
0.00556169
0.00564631
0.00568451
0.00570689
0.00577092
0.00579394
0.00583465
0.00589839
0.00604282
0.00649238
0.00868876
0.013405
0.0603879
0.104324
0.0845526
0.0908979
0.0793444
0.077579
0.0768972
0.0703949
0.0673043
0.0656793
0.0546107
0.00554957
0.00560905
0.00564768
0.00565957
0.00574058
0.00576429
0.00580752
0.00587359
0.0060278
0.00647452
0.00913202
0.0155959
0.0879349
0.108806
0.0853291
0.0973755
0.102587
0.094777
0.0705285
0.0735013
0.0622118
0.0559281
0.047373
0.00551318
0.00556596
0.00559538
0.00565286
0.00570102
0.00572621
0.00577164
0.00584073
0.00600644
0.00646879
0.00954461
0.01767
0.090801
0.111426
0.0849069
0.0938224
0.103909
0.0761106
0.073863
0.0634747
0.0572589
0.0524316
0.0483728
0.00546949
0.00552216
0.00554372
0.00562053
0.00565843
0.00568601
0.00573362
0.00580654
0.00598613
0.00639462
0.00999788
0.0207781
0.0977322
0.108839
0.125109
0.106953
0.0810057
0.0759505
0.062577
0.0600485
0.0570896
0.0558993
0.0520582
0.0054129
0.00546783
0.00548286
0.00557057
0.00560452
0.00563435
0.00568392
0.00576084
0.00595553
0.00639403
0.0111446
0.0222111
0.0993203
0.108496
0.129973
0.0967599
0.0809618
0.0624621
0.0618924
0.0613005
0.0632807
0.0615215
0.0576071
0.00535109
0.00541157
0.00543347
0.00551461
0.00554798
0.00558055
0.00563239
0.00571357
0.00592478
0.00637847
0.0119631
0.0328502
0.0869617
0.10762
0.120834
0.0913296
0.0657938
0.0676911
0.0703618
0.0735379
0.071629
0.0729522
0.0658663
0.00527538
0.00534014
0.00538226
0.00544229
0.00547642
0.00551137
0.00556522
0.00564953
0.00587648
0.00642677
0.0139916
0.0375798
0.0795087
0.121641
0.092489
0.0718987
0.0694527
0.0798788
0.0872222
0.0871692
0.0858233
0.0860712
0.0660602
0.00519602
0.00526586
0.00532117
0.005367
0.00540293
0.0054408
0.00549684
0.00558377
0.00582458
0.00646848
0.014982
0.0473003
0.0833207
0.119418
0.0865757
0.0651673
0.0782164
0.0932202
0.100371
0.0983523
0.099861
0.0904282
0.0639457
0.00509944
0.00517197
0.00523501
0.00527198
0.00530943
0.00534982
0.00540704
0.00549424
0.00574433
0.00680352
0.0200852
0.0417019
0.0726747
0.0930613
0.0711565
0.0730853
0.0919655
0.105728
0.108966
0.110677
0.105361
0.0951388
0.0636802
0.00500061
0.00507737
0.00514381
0.00517617
0.00521594
0.0052592
0.00531754
0.00540453
0.00565982
0.00726806
0.0226638
0.0343087
0.0678489
0.073702
0.0652132
0.0851506
0.102449
0.110478
0.111728
0.115826
0.106959
0.0921914
0.0631908
0.00487977
0.00495765
0.00502501
0.00505454
0.00509566
0.00514093
0.00519864
0.00528265
0.00553576
0.00749211
0.020555
0.0313751
0.0681602
0.0566242
0.070878
0.0943376
0.111332
0.121996
0.130177
0.127131
0.115076
0.0884005
0.0581244
0.00476002
0.00484162
0.00490786
0.00493602
0.00497942
0.0050266
0.00508403
0.00516588
0.00541483
0.00815883
0.0418707
0.0275259
0.0617837
0.0556037
0.0746207
0.101951
0.127851
0.143823
0.144107
0.135926
0.116487
0.0802846
0.0498525
0.00461187
0.00469286
0.0047567
0.0047832
0.00482676
0.00487411
0.00492908
0.00500602
0.00524562
0.00797759
0.0368769
0.0284105
0.0558339
0.0500097
0.0824698
0.115665
0.149225
0.156599
0.148296
0.127908
0.107091
0.0724691
0.0346823
0.00447196
0.00455604
0.00461647
0.0046417
0.00468645
0.0047339
0.00478779
0.00486227
0.00509348
0.0079995
0.0312201
0.0261132
0.0451908
0.0484759
0.0875313
0.128674
0.163215
0.15648
0.15683
0.125811
0.0998625
0.0546785
0.0186058
0.0042944
0.00437534
0.00443065
0.00445335
0.00449563
0.0045404
0.0045902
0.00465918
0.00488057
0.00796941
0.0372902
0.0238237
0.0467452
0.0531417
0.0982948
0.151164