/*--------------------------------*- C++ -*----------------------------------*\
  =========                 |
  \\      /  F ield         | OpenFOAM: The Open Source CFD Toolbox
   \\    /   O peration     | Website:  https://openfoam.org
    \\  /    A nd           | Version:  7
     \\/     M anipulation  |
\*---------------------------------------------------------------------------*/
FoamFile
{
    version     2.0;
    format      ascii;
    class       volScalarField;
    location    "50";
    object      nut;
}
// * * * * * * * * * * * * * * * * * * * * * * * * * * * * * * * * * * * * * //

dimensions      [0 2 -1 0 0 0 0];

internalField   nonuniform List<scalar> 
12842
(
0.00181776
0.00178714
0.00178369
0.00176781
0.00176725
0.00176195
0.00176019
0.00176617
0.00175752
0.00176336
0.00175861
0.00176578
0.00177235
0.00136149
0.000650297
0.000363369
0.000235559
0.000170157
0.000130709
0.000105629
8.84862e-05
7.69291e-05
6.80207e-05
0.00180304
0.001803
0.00178652
0.001772
0.00177027
0.00176189
0.00175948
0.00176508
0.00175525
0.00176049
0.00175676
0.00176475
0.00177132
0.00135027
0.000644299
0.000361452
0.000234722
0.000170554
0.000131036
0.000105822
8.85188e-05
7.78265e-05
6.8489e-05
0.00181058
0.00178427
0.00178897
0.00177759
0.0017743
0.00176328
0.00175945
0.00176111
0.00175857
0.00176336
0.00175503
0.00176239
0.00177141
0.00131555
0.000632933
0.000359677
0.000235067
0.000170739
0.000132683
0.000108071
9.03083e-05
7.99757e-05
6.98349e-05
0.00180365
0.00179106
0.0017724
0.00177153
0.0017736
0.00176359
0.00176379
0.00175829
0.00176035
0.00176371
0.0017566
0.0017651
0.00177543
0.00126254
0.000614901
0.000353994
0.000234251
0.000170806
0.000132939
0.00010861
9.21079e-05
8.32016e-05
7.29032e-05
0.00180607
0.00179296
0.00177602
0.00176835
0.0017698
0.00176417
0.00176508
0.00175898
0.00176402
0.00176174
0.00175902
0.00177163
0.00179234
0.00120759
0.000598956
0.000349891
0.000235048
0.000172016
0.000134537
0.000111438
9.47592e-05
8.58197e-05
7.56822e-05
0.00179873
0.00178725
0.00177023
0.00176866
0.00176762
0.00176284
0.00176242
0.00175802
0.00176722
0.0017623
0.00176414
0.00178018
0.00180699
0.00116785
0.000586624
0.00034734
0.000236414
0.000174826
0.000136123
0.000112507
9.76418e-05
8.95135e-05
7.8739e-05
0.00180131
0.00179166
0.00177264
0.00176654
0.00176661
0.00176493
0.00176131
0.001759
0.00176741
0.00176158
0.00177321
0.00179608
0.00183268
0.00113241
0.000577431
0.000347288
0.000238625
0.000178722
0.000139746
0.000115772
0.000100668
9.30792e-05
8.18213e-05
0.00179653
0.00178138
0.00176803
0.00176896
0.00175963
0.00176493
0.00175888
0.00176029
0.00176727
0.00176094
0.00178504
0.00181585
0.00186061
0.00112726
0.000580663
0.000355454
0.000248053
0.000187627
0.000147628
0.000122713
0.00010607
9.81745e-05
8.63539e-05
0.0017981
0.00178634
0.00177105
0.0017657
0.00176149
0.00176278
0.00175756
0.00176216
0.00176674
0.00176179
0.0017979
0.00184134
0.00190288
0.00112536
0.000582719
0.000360782
0.000254659
0.000195168
0.000155654
0.000130661
0.000112584
0.000104218
9.11304e-05
0.00179473
0.00177834
0.00176678
0.0017687
0.00175931
0.00176411
0.00175627
0.00176378
0.00176629
0.00176954
0.00181578
0.00187201
0.00194922
0.00110771
0.000581689
0.000363657
0.000257626
0.000197997
0.00015821
0.000133392
0.000115107
0.000106484
9.30329e-05
0.0017952
0.00177816
0.00176951
0.0017652
0.00175879
0.00176084
0.00175596
0.00176478
0.00176358
0.00177873
0.00183454
0.00190602
0.00200532
0.00110195
0.000585324
0.000369688
0.000263736
0.0002046
0.000164986
0.000139855
0.000120231
0.000111122
9.68905e-05
0.00178982
0.00177547
0.00176615
0.00176507
0.00175902
0.00176026
0.00175522
0.00176504
0.00176494
0.00179681
0.00186035
0.00194938
0.00206157
0.00110269
0.000597846
0.000380633
0.000273407
0.000214086
0.00017291
0.000146664
0.000125792
0.000115789
0.000100939
0.00179161
0.00177477
0.00176907
0.00176511
0.0017587
0.00175767
0.00175678
0.00176528
0.00176348
0.00181302
0.00189024
0.00199818
0.00212051
0.00111366
0.000611031
0.000393847
0.00028377
0.00022317
0.000181118
0.000154175
0.000131989
0.000121286
0.00010578
0.00178557
0.00177243
0.00176652
0.00176128
0.00175854
0.00175611
0.00175581
0.00176518
0.00177351
0.00183897
0.00192795
0.00205074
0.00216481
0.00114291
0.000638057
0.000411546
0.000296689
0.000234913
0.00019124
0.000162807
0.000138935
0.000127063
0.000110715
0.00178599
0.0017716
0.00176933
0.00176383
0.00175765
0.00175436
0.00175612
0.00176383
0.00178534
0.00186462
0.00196901
0.00210455
0.00221109
0.00116252
0.000654278
0.000426872
0.000310435
0.00024712
0.000200932
0.000172161
0.000146785
0.000134269
0.000117277
0.00178193
0.00177126
0.00176775
0.00176056
0.00175715
0.00175385
0.00175662
0.00176758
0.00181076
0.00189959
0.00201488
0.00214996
0.00223314
0.00121201
0.000692766
0.000451793
0.000327087
0.000260712
0.000214029
0.00018437
0.000157593
0.000143927
0.000125739
0.0017811
0.0017663
0.00177175
0.00176115
0.00175607
0.00175311
0.00175505
0.00176846
0.00183234
0.00193659
0.00205729
0.00219045
0.00226107
0.00123288
0.000706815
0.000464052
0.000341001
0.000277038
0.000227981
0.000198922
0.000170313
0.000154528
0.000137155
0.00177731
0.00176786
0.00176959
0.00176002
0.00175573
0.0017535
0.0017564
0.0017848
0.00186876
0.0019792
0.00209539
0.0022146
0.00226176
0.0012988
0.000754391
0.000498947
0.000366453
0.000296648
0.000246326
0.000216671
0.000188676
0.000171127
0.000155146
0.00177821
0.00176205
0.00177212
0.00176063
0.00175518
0.00175215
0.00176008
0.00180297
0.00189939
0.0020146
0.0021222
0.00222899
0.00226484
0.00133534
0.000775023
0.000513037
0.000381718
0.000316684
0.000269698
0.000243425
0.000218201
0.000194894
0.000178296
0.00177298
0.0017605
0.00177319
0.00175817
0.00175505
0.00175348
0.00177483
0.001841
0.00193993
0.00204319
0.00214226
0.00223087
0.00225227
0.001403
0.000827555
0.000553458
0.000415458
0.00034959
0.00030366
0.00028385
0.000257837
0.00023179
0.000220786
0.00177539
0.00175609
0.00177173
0.00175908
0.00175523
0.00175804
0.00179502
0.00186835
0.00196555
0.00206142
0.00214872
0.00222564
0.00223637
0.00146692
0.000858067
0.000572392
0.000438398
0.000380153
0.000347974
0.000335147
0.000328668
0.000315514
0.00031418
0.00177135
0.00175261
0.00177169
0.00176137
0.0017612
0.00177189
0.00183525
0.00190282
0.00198497
0.00207118
0.00215082
0.00221159
0.00221571
0.00151164
0.000911537
0.000622461
0.000479984
0.00042089
0.000400545
0.000426858
0.00046534
0.000469984
0.000503876
0.00177271
0.00174812
0.00177341
0.00175584
0.00176404
0.00179419
0.00186482
0.00192045
0.00199572
0.00207589
0.00214666
0.00220204
0.0022
0.00159352
0.000937843
0.000638657
0.00050362
0.000463441
0.000476333
0.000544283
0.000651583
0.000803095
0.000709507
0.00177031
0.00174377
0.0017718
0.00176096
0.00178012
0.00183384
0.00190481
0.00194162
0.00200359
0.00207072
0.00213557
0.00217942
0.00216724
0.00167683
0.00100148
0.000681955
0.000537649
0.000507621
0.000525678
0.000615367
0.000829646
0.000690429
0.000585024
0.00177289
0.00174156
0.00177149
0.00177144
0.00180849
0.00187104
0.00192154
0.00194947
0.00199756
0.00205938
0.00212174
0.00216381
0.00215483
0.00169846
0.00102054
0.000712829
0.000589267
0.00053535
0.000547858
0.000649086
0.000702005
0.000584429
0.000513951
0.00177037
0.00174076
0.00177637
0.00180154
0.00185144
0.0018939
0.00193217
0.00195122
0.00198906
0.00204563
0.00210624
0.00214221
0.00211694
0.00178841
0.00108184
0.000755038
0.000609024
0.000567195
0.000580294
0.000704792
0.000645406
0.000552418
0.000494268
0.00177282
0.00173995
0.00179573
0.00183424
0.00188188
0.00191624
0.00193548
0.0019501
0.00197872
0.00202991
0.00209183
0.00212861
0.00211029
0.00181019
0.00113943
0.000814896
0.00066783
0.000607726
0.000645329
0.000703857
0.00061105
0.000497238
0.000397144
0.00177073
0.00174348
0.00182339
0.0018692
0.00190433
0.0019242
0.00193523
0.00194532
0.00196713
0.00201414
0.00207658
0.00210875
0.0020715
0.00190381
0.00117048
0.000861729
0.000736396
0.000672195
0.000686953
0.000709564
0.000545918
0.000393864
0.000331163
0.00177445
0.0017504
0.00185902
0.00189292
0.00191454
0.00193325
0.00193088
0.00193787
0.00195514
0.00199793
0.0020628
0.00209796
0.00206491
0.00188527
0.00129098
0.000956993
0.000798008
0.000720709
0.000743409
0.000642889
0.000439217
0.000346103
0.000326254
0.00177466
0.00176791
0.00189277
0.00191022
0.0019198
0.00193111
0.00192453
0.00192957
0.00194315
0.0019834
0.00205071
0.00208125
0.00202694
0.00182072
0.00135931
0.00109461
0.000882277
0.000808045
0.000810066
0.000547616
0.000405859
0.000357434
0.000346169
0.00177808
0.00179619
0.00191797
0.00191975
0.00192031
0.00192967
0.00191671
0.00191919
0.00193172
0.00196909
0.0020387
0.00207272
0.00201758
0.001789
0.00148781
0.00116832
0.000983638
0.0010339
0.000720906
0.000493294
0.000407917
0.000376436
0.000365517
0.00178281
0.00182722
0.00194111
0.00192542
0.00191781
0.00192285
0.00190802
0.00190999
0.00192099
0.00195739
0.00202959
0.00206086
0.00198643
0.0017488
0.00150178
0.00129299
0.00121889
0.00105316
0.000623844
0.000476917
0.000414063
0.000392602
0.000382562
0.00178462
0.00186173
0.00194527
0.00192601
0.00191478
0.00191497
0.00190131
0.00189924
0.00191122
0.00194577
0.00202141
0.0020536
0.0019624
0.00169469
0.0015136
0.00147851
0.00149967
0.000825358
0.000571787
0.000465723
0.000425331
0.000408546
0.000389808
0.00178571
0.00189175
0.00195465
0.00192744
0.00191053
0.00190684
0.00189238
0.00189066
0.00190251
0.00193738
0.00201347
0.00204532
0.00194546
0.00169868
0.00154165
0.00157789
0.0012541
0.000737445
0.00052895
0.000459561
0.000434945
0.000408027
0.000390795
0.00180022
0.0019193
0.00194709
0.00192412
0.00190642
0.0018976
0.00188753
0.00188172
0.00189462
0.00192851
0.00200951
0.00204071
0.00191495
0.00165164
0.00176435
0.00162051
0.00107282
0.000707994
0.000512265
0.000459911
0.000423455
0.000403721
0.000387791
0.00182041
0.00193423
0.00194655
0.00192377
0.00190291
0.00188938
0.0018811
0.00187445
0.00188804
0.00192298
0.00200336
0.0020327
0.00189377
0.00169292
0.00191688
0.00131648
0.00101132
0.000677915
0.000502917
0.000451785
0.000418871
0.000399389
0.000382719
0.0018437
0.00194525
0.00193525
0.00191978
0.00189695
0.00188254
0.00187694
0.00186821
0.00188189
0.00191679
0.00200139
0.00203335
0.00190445
0.00178431
0.00187568
0.00130454
0.00100278
0.000636255
0.000498432
0.000447188
0.000409002
0.000396296
0.00039024
0.0018641
0.00194564
0.00192841
0.0019171
0.00189418
0.0018752
0.00187247
0.00186276
0.00187722
0.00191352
0.00199774
0.00201737
0.00185121
0.00176724
0.001627
0.00121113
0.00103302
0.000644115
0.000498305
0.000442942
0.000417341
0.000429639
0.000406505
0.00188281
0.00194503
0.00191952
0.00191232
0.00188705
0.00186972
0.00186976
0.00185893
0.00187255
0.00190978
0.00199777
0.00202326
0.00187724
0.00176233
0.00152581
0.00120856
0.000989661
0.000631075
0.000507463
0.000455629
0.000460078
0.000464851
0.00042706
0.00189406
0.00193657
0.00190866
0.00190751
0.00188362
0.0018657
0.00186499
0.00185526
0.00186942
0.00190821
0.00199507
0.00199821
0.00178655
0.0016721
0.00143673
0.00120588
0.000987629
0.000644911
0.00052929
0.000500431
0.000492524
0.000513188
0.000448863
0.0019016
0.00193199
0.00190245
0.00190108
0.00187607
0.00185888
0.00186294
0.00185299
0.00186603
0.00190675
0.00199577
0.00198551
0.00174392
0.00163103
0.00139332
0.00119531
0.000993809
0.00069007
0.000565506
0.000535358
0.000537752
0.000544197
0.000474993
0.00190168
0.00191942
0.00189127
0.00189319
0.00187187
0.0018539
0.00185682
0.00185068
0.00186407
0.00190674
0.00199316
0.00195776
0.00172217
0.00155572
0.00135918
0.00119706
0.00103271
0.000732984
0.000609088
0.000570163
0.00058314
0.000610271
0.000510768
0.0018996
0.00191176
0.00188503
0.00188607
0.00186347
0.00184815
0.00185246
0.00184941
0.00186162
0.00190676
0.00199394
0.00194939
0.00169232
0.00149676
0.00135229
0.00120733
0.00106395
0.000766072
0.000649179
0.000629803
0.000662511
0.000648453
0.000544928
0.00189193
0.00189856
0.00187304
0.00187534
0.00185784
0.00184043
0.00185035
0.00184764
0.00186063
0.00190874
0.00199233
0.00194916
0.0016634
0.00144098
0.0013626
0.00126423
0.00110546
0.000788931
0.000690496
0.00067197
0.000696258
0.00068388
0.000618779
0.00188443
0.001888
0.00186505
0.00186538
0.00184933
0.00183388
0.0018416
0.00184685
0.00185889
0.00191019
0.00199338
0.00191927
0.0015879
0.00140628
0.00140192
0.00131159
0.00113918
0.000819636
0.000733649
0.000717988
0.00071145
0.000702235
0.000679398
0.00187336
0.00187495
0.0018543
0.00185404
0.00183986
0.00182791
0.0018369
0.00184621
0.00185831
0.00191248
0.00199009
0.00191497
0.00158492
0.0013918
0.00143427
0.00136041
0.00119409
0.000843541
0.000748053
0.000742396
0.000717524
0.000730833
0.000725776
0.00186602
0.00186328
0.00184486
0.00184329
0.00183456
0.00182299
0.00183604
0.00184597
0.00185741
0.00191623
0.00199304
0.0019027
0.00157746
0.00136938
0.00145742
0.00138973
0.00122986
0.000850016
0.000750271
0.000731175
0.000688525
0.000708578
0.000724866
0.00185479
0.00185259
0.00183776
0.00183515
0.00183361
0.00182043
0.00183599
0.00184536
0.00185704
0.00191914
0.00198416
0.00185466
0.00158264
0.00135446
0.00146721
0.00140703
0.00129114
0.0008553
0.000726388
0.000699097
0.000654483
0.000672592
0.000686279
0.00185263
0.00184253
0.00183272
0.00182807
0.00183244
0.00181876
0.00183657
0.00184487
0.00185651
0.00192217
0.00198179
0.00183343
0.00153693
0.001352
0.0014585
0.00140783
0.00134612
0.000835682
0.000704534
0.000658525
0.000610949
0.000620119
0.000628058
0.00184393
0.00183674
0.00183202
0.00182512
0.0018314
0.00181885
0.00183649
0.00184418
0.00185649
0.00192727
0.00196937
0.00176923
0.00147767
0.00137687
0.00145796
0.00131506
0.00129252
0.000802608
0.000671132
0.000614174
0.000564717
0.000570734
0.000569943
0.00184591
0.00183065
0.00183218
0.00182361
0.00183182
0.00181904
0.00183573
0.00184325
0.00185597
0.00193096
0.00196147
0.00170847
0.00141755
0.0014002
0.0014406
0.00120248
0.00117558
0.000783599
0.000636809
0.000576949
0.000531325
0.00053313
0.000531162
0.00184343
0.00182969
0.0018353
0.00182466
0.00183228
0.0018198
0.00183571
0.00184258
0.0018558
0.00193366
0.00195227
0.00169246
0.00136792
0.00136329
0.00133524
0.00107133
0.00104977
0.000716521
0.000609688
0.000550579
0.000507169
0.000510057
0.000499592
0.00184634
0.00182734
0.00183668
0.00182623
0.00183366
0.0018195
0.00183559
0.00184234
0.00185568
0.0019404
0.00194474
0.00168182
0.00129149
0.00127593
0.00122107
0.000991256
0.000940538
0.000701255
0.000592287
0.000532966
0.000495953
0.000495125
0.000485037
0.00184732
0.00182805
0.00183946
0.00182911
0.00183554
0.00182011
0.00183618
0.00184221
0.00185522
0.00194448
0.00193894
0.0016617
0.00123648
0.00116476
0.00111229
0.000916043
0.000853737
0.00066872
0.000575381
0.000525267
0.000496685
0.000492063
0.000474229
0.0018498
0.00182766
0.00183996
0.00183092
0.00183736
0.00182037
0.00183666
0.00184225
0.00185567
0.00194963
0.00194874
0.0016627
0.00121413
0.00107681
0.000993049
0.000881153
0.000798342
0.000649395
0.000582376
0.000538058
0.000508307
0.0004155
0.000362478
0.00185101
0.00182861
0.00184125
0.00183241
0.00183951
0.00182098
0.00183697
0.00184229
0.00185662
0.00195331
0.00195922
0.00168307
0.00121798
0.00103549
0.000922432
0.000873148
0.000772922
0.00065838
0.000590116
0.000550807
0.000470723
0.000371576
0.000290917
0.00185198
0.00182874
0.00184144
0.00183254
0.00184096
0.00182122
0.0018371
0.00184194
0.00185601
0.0019568
0.0019752
0.0017177
0.00123934
0.00100079
0.000870553
0.000872903
0.00077176
0.000674716
0.000602899
0.000568513
0.000515556
0.000389073
0.00025668
0.00185236
0.00182962
0.00184227
0.00183243
0.00184193
0.00182172
0.00183678
0.00184142
0.00185594
0.00195971
0.00198975
0.0017587
0.00128123
0.00099903
0.00087156
0.000879357
0.000771546
0.000707501
0.00062245
0.000505863
0.000414924
0.000316505
0.000229172
0.00185238
0.00183013
0.00184245
0.00183203
0.00184281
0.00182193
0.00183667
0.00184066
0.00185624
0.00195544
0.00200303
0.00180353
0.0013288
0.00100927
0.000897906
0.000882244
0.000794157
0.000723534
0.000647936
0.000447454
0.000365332
0.000284375
0.000217975
0.00185243
0.00183089
0.00184351
0.00183185
0.0018428
0.00182265
0.00183619
0.00183992
0.00185562
0.00194386
0.00200789
0.00184432
0.00139102
0.00101621
0.000911976
0.000881355
0.000811383
0.000730705
0.000636636
0.000422819
0.000339716
0.000272976
0.000219415
0.00185221
0.0018321
0.00184375
0.00183163
0.00184314
0.00182298
0.00183593
0.00183907
0.00185601
0.00193397
0.00201334
0.00188247
0.0014525
0.00102749
0.000932166
0.000885212
0.000823339
0.000735759
0.000622891
0.000407483
0.000328407
0.000265196
0.000220115
0.00185177
0.00183249
0.00184453
0.00183205
0.00184253
0.00182387
0.00183565
0.00183841
0.00185591
0.00192703
0.00201023
0.00190851
0.00150259
0.00102094
0.000934943
0.000889384
0.000817342
0.000746813
0.000613826
0.000405394
0.000323704
0.000271205
0.000231905
0.00185115
0.00183401
0.0018452
0.00183232
0.00184257
0.00182441
0.00183534
0.00183776
0.00185671
0.00192996
0.00200898
0.00192982
0.00151943
0.00102523
0.000939337
0.000894349
0.000820122
0.000749926
0.00062969
0.000427364
0.000333867
0.000289321
0.00025374
0.00185135
0.00183457
0.00184536
0.0018329
0.00184199
0.00182537
0.00183516
0.0018372
0.00185682
0.00192844
0.00200203
0.00193749
0.00150255
0.00101196
0.000947871
0.000905176
0.000819257
0.000743033
0.000675438
0.000470336
0.000364967
0.000319051
0.000288525
0.00184913
0.00183551
0.0018459
0.00183365
0.00184134
0.00182592
0.00183492
0.00183688
0.00185736
0.00192621
0.00199379
0.0019467
0.00151471
0.000974824
0.000951705
0.000926596
0.000820875
0.000737046
0.000705795
0.000520822
0.000407329
0.000368653
0.000327559
0.00184988
0.00183599
0.00184624
0.00183395
0.0018414
0.00182653
0.00183451
0.00183629
0.00185794
0.00192267
0.00199206
0.00193867
0.00153739
0.000939469
0.000954271
0.000940602
0.000821664
0.000744979
0.000708174
0.000598894
0.000471407
0.000420935
0.000369207
0.00184796
0.00183673
0.00184534
0.0018343
0.00183975
0.00182759
0.00183443
0.00183614
0.00185901
0.00191876
0.0019864
0.00194888
0.00154769
0.000927743
0.000960475
0.000954795
0.000839306
0.000748139
0.000703781
0.000658568
0.000543543
0.000472551
0.000406294
0.00184636
0.00183628
0.00184552
0.00183496
0.00184019
0.00182696
0.00183353
0.00183551
0.00185952
0.00191487
0.0019826
0.00193423
0.00154654
0.000929581
0.000962242
0.000948957
0.000858821
0.000750058
0.000709926
0.000648866
0.000614423
0.000541173
0.000457229
0.00184484
0.0018361
0.00184404
0.00183346
0.00183733
0.00182758
0.00183298
0.00183535
0.00185953
0.0019125
0.00198085
0.00192088
0.00153788
0.000923355
0.00096016
0.000964669
0.000873402
0.000757539
0.000707295
0.0006442
0.000605174
0.000567732
0.000503332
0.00184363
0.00183465
0.00184203
0.00183378
0.00183392
0.00182729
0.00183236
0.0018345
0.00185894
0.00191578
0.00198229
0.00192836
0.00153424
0.000916149
0.000993156
0.000971891
0.000886486
0.000763264
0.000709844
0.000631559
0.000599972
0.000568755
0.000551938
0.0018364
0.00183318
0.00183729
0.00183158
0.00183112
0.00182545
0.00182964
0.00183426
0.0018583
0.00191576
0.00198317
0.00192512
0.00153783
0.000956426
0.0010332
0.00097906
0.000889591
0.00076686
0.000708741
0.000634262
0.000594867
0.00056756
0.000550438
0.00182793
0.00182873
0.00183101
0.00182692
0.00182683
0.00182156
0.00182871
0.00183312
0.00185738
0.00191602
0.00198309
0.00193456
0.00153395
0.00101683
0.00106822
0.000984822
0.000895625
0.000772643
0.000713295
0.000639353
0.000606781
0.000574478
0.000556511
0.00182244
0.00182517
0.00182735
0.00182625
0.00182211
0.00182023
0.00182695
0.0018321
0.00185667
0.00191631
0.00198632
0.0019395
0.0015543
0.0010641
0.00107611
0.000991367
0.000890973
0.000775646
0.000713527
0.000637647
0.000600634
0.000576596
0.00058018
0.00182118
0.00182085
0.00182279
0.00182481
0.00182006
0.00181983
0.00182482
0.00183103
0.00185575
0.00191676
0.00198543
0.00192991
0.00155792
0.00111663
0.00110642
0.000995487
0.000886169
0.000770469
0.000724489
0.000638891
0.000627657
0.000616668
0.000592431
0.00181741
0.00181937
0.0018203
0.00182368
0.00181958
0.00182002
0.00182521
0.00183173
0.00185501
0.00191362
0.00198525
0.00193998
0.00155439
0.00115134
0.00110637
0.00100526
0.000891249
0.000782647
0.000722917
0.000662225
0.000623509
0.00068142
0.000727262
0.00181957
0.00181734
0.00182071
0.00182453
0.00181982
0.00181782
0.00182351
0.00183144
0.00185427
0.00191484
0.00198256
0.00193415
0.00157934
0.00115283
0.00111695
0.00102093
0.000880832
0.000774653
0.000710029
0.000653474
0.000671204
0.000781927
0.000815647
0.00181777
0.00181826
0.00182168
0.00182341
0.00181879
0.00181822
0.00182472
0.00183168
0.00185352
0.00191408
0.00198101
0.00193673
0.00158995
0.00115213
0.00111377
0.00103949
0.00089607
0.000779659
0.000742874
0.000731082
0.000793866
0.000934915
0.00117892
0.00181652
0.0018167
0.0018198
0.0018238
0.00181765
0.00181878
0.00182406
0.00183101
0.00185279
0.00191362
0.00198219
0.00193395
0.00159325
0.00116183
0.00110195
0.00106243
0.000903622
0.000779642
0.000760277
0.000781506
0.000912813
0.00150133
0.00172421
0.00181597
0.00181686
0.00181857
0.0018238
0.0018183
0.00181766
0.00182393
0.00183169
0.00185191
0.00191438
0.00198356
0.00193422
0.00160539
0.00116118
0.0011299
0.00107196
0.000891137
0.000806193
0.000825176
0.000942805
0.00117961
0.00162797
0.00231194
0.00181419
0.00181752
0.00182051
0.00182397
0.00181901
0.00181693
0.00182388
0.00183128
0.00185195
0.00191519
0.00198343
0.00193405
0.00158428
0.00117402
0.00114394
0.00106809
0.000879973
0.000808155
0.000878795
0.00103674
0.00144292
0.00210413
0.00267013
0.00181639
0.00181811
0.0018202
0.00182486
0.00181873
0.00181814
0.00182354
0.00183127
0.00185147
0.00191691
0.00198229
0.00193285
0.00159584
0.00120154
0.00118867
0.00107632
0.000886164
0.000833456
0.000949496
0.0012483
0.00180529
0.00242436
0.00293648
0.0018125
0.00181763
0.0018184
0.00182267
0.00181778
0.00181737
0.00182258
0.0018311
0.00185005
0.00191786
0.00198167
0.00192904
0.00158311
0.00123545
0.00123129
0.00104248
0.000920651
0.000879315
0.0010321
0.00125438
0.00172545
0.00256712
0.00291847
0.00181429
0.00181641
0.00182019
0.00182423
0.00181781
0.001817
0.0018233
0.00183048
0.00184864
0.00192058
0.00197693
0.00192792
0.00156843
0.00125471
0.00124668
0.00103541
0.000937897
0.000908819
0.00108898
0.0015029
0.00193035
0.0026809
0.00299755
0.00181484
0.00181862
0.00181823
0.00182252
0.00181732
0.00181772
0.0018233
0.00183009
0.00184726
0.00192626
0.00197793
0.00192755
0.00155006
0.00131449
0.00131377
0.00103981
0.00097883
0.000981848
0.0011423
0.00126441
0.00198242
0.002309
0.00249359
0.00181165
0.00181915
0.00181847
0.00182352
0.00181738
0.00181669
0.00182399
0.00183056
0.00184679
0.00193235
0.00197679
0.00192407
0.00153096
0.00141983
0.00128542
0.00106698
0.00102217
0.00104099
0.00126806
0.0012847
0.00187191
0.00204452
0.00217974
0.0018116
0.00181754
0.00181644
0.00182229
0.00181697
0.00181756
0.00182544
0.0018306
0.00184624
0.00193661
0.00197873
0.00193727
0.00153353
0.00142019
0.00130095
0.00109721
0.00104783
0.00107972
0.00121747
0.00126885
0.00201746
0.00194621
0.00222551
0.00181422
0.00181679
0.00181691
0.00182118
0.00181733
0.00181644
0.00182503
0.00182999
0.00184662
0.00193852
0.00198348
0.00193608
0.00153132
0.00149921
0.00130591
0.00113387
0.00109977
0.00117581
0.00138549
0.00146082
0.00220284
0.00249266
0.00251928
0.00181659
0.00181603
0.00181928
0.00182028
0.00181817
0.0018164
0.00182422
0.00183053
0.00184652
0.00194111
0.00198973
0.00193167
0.00153816
0.00166739
0.00135367
0.00116574
0.0011478
0.00123154
0.00149285
0.00174378
0.00229332
0.00278903
0.00287063
0.00181664
0.00181746
0.00181928
0.00182134
0.00181871
0.00181886
0.00182525
0.00183081
0.00184622
0.00194826
0.00199508
0.00194365
0.0015743
0.00188689
0.00138674
0.00119759
0.00122175
0.00136737
0.0017577
0.00186299
0.00250912
0.00267626
0.00285515
0.00181602
0.00181606
0.00181897
0.00182106
0.00181841
0.00181907
0.00182462
0.0018303
0.00184712
0.00195116
0.00200386
0.00193553
0.0016072
0.00200732
0.00150024
0.00128108
0.00130608
0.00145353
0.00185693
0.00224154
0.00272535
0.00267409
0.002769
0.00181524
0.00181681
0.0018176
0.00182025
0.00181683
0.00181775
0.00182275
0.0018316
0.00184785
0.00195713
0.0020046
0.00191836
0.00164731
0.00212928
0.00152901
0.00132412
0.00141031
0.00172152
0.00209172
0.00265074
0.00269714
0.00271548
0.00275574
0.00181313
0.00182019
0.00181695
0.00182024
0.00181525
0.00181716
0.00182416
0.00183096
0.00184872
0.00196685
0.00200264
0.00190274
0.00176662
0.00225581
0.00164081
0.00141785
0.00155956
0.00176521
0.00240517
0.00264653
0.00280195
0.00273921
0.00280447
0.00181242
0.00181961
0.00181617
0.00181984
0.00181578
0.00181737
0.0018245
0.00183042
0.00185077
0.00197156
0.00200192
0.00189869
0.00182863
0.00231977
0.00174622
0.00152207
0.00164577
0.00199444
0.00273236
0.00266804
0.00284367
0.00274216
0.00271218
0.00181332
0.00182082
0.00181184
0.00181985
0.00181444
0.00181837
0.00182507
0.00183061
0.00185113
0.00197932
0.00199788
0.00191639
0.00204005
0.00238137
0.00189398
0.00166784
0.00178628
0.00204572
0.00270369
0.00263493
0.00286495
0.00273946
0.00275003
0.00181435
0.00181767
0.00181112
0.0018197
0.00181641
0.00181821
0.00182418
0.00183075
0.00185293
0.00198166
0.0019995
0.00190723
0.00202078
0.00232732
0.00194433
0.00176047
0.00190418
0.00208486
0.00270199
0.00271291
0.00271945
0.0027758
0.00279708
0.001815
0.00181747
0.00180893
0.00182118
0.00181573
0.00181825
0.0018246
0.00183236
0.00185414
0.00198478
0.00200269
0.00192112
0.0022096
0.00236176
0.00204569
0.0018796
0.0020127
0.00209928
0.00265908
0.00258846
0.00263361
0.00279302
0.00297827
0.0018179
0.0018159
0.00181052
0.00182014
0.00181465
0.00181888
0.00182627
0.00183206
0.00185379
0.00197953
0.00200972
0.0019036
0.00226751
0.00239765
0.00212215
0.00198419
0.00201499
0.00212535
0.00240345
0.00246577
0.00260674
0.0027266
0.00287233
0.00181678
0.00181915
0.00181482
0.001815
0.00181577
0.00181811
0.00182575
0.00183047
0.00185123
0.00197227
0.0020124
0.00190094
0.00248211
0.00248197
0.00228279
0.00215547
0.00220541
0.00227029
0.00232205
0.00236836
0.0025093
0.00262979
0.0027512
0.00181103
0.00181695
0.00181855
0.00181487
0.00181754
0.00181923
0.00182519
0.00182946
0.00184896
0.00196148
0.00202422
0.00191091
0.00263122
0.00265989
0.00251627
0.00237373
0.00246683
0.00249151
0.00243949
0.0024439
0.00251994
0.00255302
0.00277092
0.0018039
0.00181761
0.00181809
0.00181797
0.00181739
0.00181986
0.00182513
0.00182822
0.00184685
0.00195223
0.00204952
0.00195351
0.00283253
0.00300019
0.00268089
0.00264208
0.0027946
0.00273497
0.00260273
0.00250884
0.00256466
0.00253908
0.0027532
0.00180555
0.00181369
0.00181209
0.00181857
0.00181627
0.00182151
0.00182618
0.001828
0.00184523
0.00194178
0.00205471
0.00197862
0.002962
0.00313083
0.00295339
0.00281758
0.00294754
0.00301642
0.00289793
0.00264158
0.00256815
0.00256099
0.00278596
0.00181219
0.00181401
0.0018082
0.00181728
0.00181585
0.00182341
0.00182652
0.00182812
0.00184413
0.00193182
0.00207303
0.00209391
0.00318576
0.00351329
0.00315375
0.00307544
0.00334646
0.00335111
0.00324456
0.00296201
0.00277711
0.00274579
0.00283623
0.00181682
0.00181137
0.00181087
0.00181547
0.00181548
0.0018237
0.00182582
0.00182839
0.00184368
0.00192289
0.0020796
0.00216519
0.00351002
0.00377694
0.0034565
0.00331041
0.00374285
0.00370634
0.00344581
0.00313343
0.00293518
0.00283228
0.00270589
0.00181603
0.00180758
0.00181849
0.00181491
0.00181524
0.00182082
0.00182233
0.00182854
0.00184366
0.00191658
0.00212251
0.00229585
0.00391756
0.00448934
0.00393964
0.00371199
0.00390646
0.00393874
0.00344257
0.00315777
0.00283154
0.00271867
0.0024527
0.0018139
0.00181276
0.00181965
0.00180977
0.00181602
0.00182042
0.00182107
0.00182859
0.00184411
0.00191162
0.00213426
0.00240631
0.00419289
0.00492492
0.00441345
0.00419565
0.00400711
0.00394582
0.00371838
0.00311243
0.0027293
0.00256673
0.00220058
0.00180443
0.00181464
0.00182094
0.00181019
0.00181642
0.00182016
0.00182057
0.00182846
0.0018448
0.00190944
0.00219957
0.00258557
0.00471327
0.00570446
0.00497187
0.00477615
0.0040481
0.00452376
0.00356249
0.00307692
0.00282751
0.00245645
0.00260971
0.00180164
0.00181346
0.00181194
0.00180776
0.00181636
0.00181952
0.00182043
0.00182835
0.00184577
0.00190839
0.0022137
0.00271088
0.00522227
0.00674603
0.00519781
0.00542054
0.00427153
0.00380303
0.00339914
0.00315089
0.00280644
0.00271005
0.00240291
0.00180795
0.00181184
0.00180969
0.00180199
0.00181589
0.00181848
0.00182022
0.00182815
0.0018468
0.00190849
0.00228371
0.00299248
0.0079036
0.00734777
0.00562469
0.00560197
0.00573541
0.00446714
0.00335155
0.00338287
0.00276089
0.00252831
0.00229094
0.0018099
0.00181036
0.00180542
0.00181191
0.00181526
0.00181718
0.00181985
0.00182801
0.00184792
0.0019129
0.00231157
0.00327147
0.00831853
0.00814713
0.00554179
0.00561164
0.00601358
0.00395707
0.00366503
0.00309911
0.00274837
0.00259022
0.00248882
0.00181088
0.00180907
0.00180175
0.00181452
0.0018144
0.00181571
0.00181913
0.00182763
0.00184886
0.00189667
0.00237487
0.00374517
0.00978654
0.00867461
0.00816112
0.00680091
0.00493548
0.00419763
0.00334908
0.00306608
0.0028919
0.00288052
0.00278212
0.00181105
0.00180753
0.00179808
0.00181491
0.00181335
0.00181412
0.00181821
0.00182709
0.00184967
0.0019034
0.00259676
0.00376389
0.00904497
0.00865191
0.00901429
0.00664928
0.00519564
0.00366599
0.0034493
0.00322307
0.00331316
0.00325125
0.00313876
0.00181018
0.00180621
0.00179863
0.00181386
0.00181192
0.00181236
0.00181693
0.00182607
0.00185004
0.00189913
0.0027152
0.00496453
0.00872541
0.00838733
0.00901495
0.00666685
0.00450325
0.00416357
0.00399166
0.00397941
0.00387424
0.00397127
0.00369218
0.0018086
0.00180458
0.00180316
0.00181178
0.00181007
0.00181046
0.00181557
0.00182467
0.00185007
0.00193436
0.00307884
0.00522476
0.00844989
0.0099845
0.00736455
0.00572379
0.0048665
0.00506051
0.00502678
0.00486146
0.00478571
0.00483148
0.00382856
0.00180614
0.0018029
0.00180512
0.00180896
0.00180776
0.00180842
0.0018139
0.00182263
0.00184921
0.0019304
0.00309479
0.00677815
0.00907471
0.0107384
0.0075304
0.00552093
0.00564333
0.00600709
0.00590062
0.00570475
0.00583397
0.00533459
0.00387867
0.00180317
0.00180089
0.00180483
0.00180548
0.00180491
0.00180629
0.00181212
0.00182011
0.0018477
0.00203692