/*--------------------------------*- C++ -*----------------------------------*\
  =========                 |
  \\      /  F ield         | OpenFOAM: The Open Source CFD Toolbox
   \\    /   O peration     | Website:  https://openfoam.org
    \\  /    A nd           | Version:  7
     \\/     M anipulation  |
\*---------------------------------------------------------------------------*/
FoamFile
{
    version     2.0;
    format      ascii;
    class       volScalarField;
    location    "50";
    object      omega;
}
// * * * * * * * * * * * * * * * * * * * * * * * * * * * * * * * * * * * * * //

dimensions      [0 0 -1 0 0 0 0];

internalField   nonuniform List<scalar> 
12842
(
3.13676
2.83932
2.64654
2.528
2.43503
2.37206
2.32375
2.28494
2.26379
2.242
2.23436
2.22728
2.22952
2.23856
2.25524
2.29743
2.3532
2.44776
2.54955
2.68569
2.82809
2.94609
3.1133
3.1222
2.80767
2.62045
2.50217
2.42292
2.36739
2.32185
2.28505
2.26201
2.24095
2.23236
2.22453
2.22705
2.23718
2.25566
2.2946
2.35622
2.45796
2.55447
2.68892
2.82469
2.94495
3.11438
3.09725
2.77804
2.584
2.46711
2.3898
2.34426
2.30899
2.27944
2.25299
2.23569
2.22959
2.22303
2.2261
2.23681
2.2576
2.29643
2.3601
2.45869
2.5711
2.722
2.85512
2.99105
3.13545
3.06956
2.7478
2.56764
2.45321
2.37748
2.33423
2.29752
2.27468
2.24906
2.23098
2.22625
2.22006
2.22368
2.23637
2.25927
2.30178
2.37212
2.47631
2.58172
2.73282
2.85734
3.03041
3.21456
3.03574
2.69666
2.52354
2.41688
2.35168
2.31236
2.28382
2.26414
2.2421
2.22831
2.22128
2.21785
2.22227
2.23562
2.26203
2.30696
2.37964
2.48196
2.6174
2.77132
2.89558
3.04262
3.23489
3.00896
2.67442
2.50487
2.40019
2.33737
2.30132
2.27529
2.25655
2.23508
2.2256
2.2187
2.21495
2.22058
2.23615
2.26635
2.31881
2.40157
2.51383
2.64566
2.79125
2.92376
3.09134
3.35052
2.96998
2.62945
2.46617
2.37014
2.31504
2.28181
2.26404
2.24808
2.23037
2.22253
2.21575
2.2138
2.22083
2.23728
2.26979
2.32534
2.41431
2.52894
2.70188
2.85359
3.04256
3.19358
3.41821
2.94309
2.60941
2.4505
2.35444
2.30526
2.27174
2.2563
2.24041
2.22607
2.22011
2.21089
2.21234
2.22224
2.24122
2.27811
2.34232
2.44422
2.577
2.75207
2.89801
3.09522
3.30499
3.6985
2.90481
2.57191
2.41945
2.33504
2.28687
2.25972
2.24853
2.23267
2.22262
2.21837
2.21016
2.2114
2.22298
2.24487
2.28411
2.3534
2.46324
2.60219
2.82348
3.00974
3.28094
3.48681
3.86349
2.87127
2.54901
2.40608
2.32127
2.27932
2.25166
2.24293
2.22832
2.22084
2.21587
2.20808
2.21311
2.22467
2.24825
2.29696
2.38297
2.5122
2.67655
2.90755
3.08207
3.38814
3.6451
4.07844
2.83373
2.51807
2.37917
2.30689
2.26592
2.24424
2.23621
2.22252
2.2186
2.21345
2.20877
2.21372
2.22731
2.25714
2.30958
2.40645
2.54428
2.7266
2.97343
3.2371
3.63969
3.89337
4.3543
2.79889
2.49386
2.36729
2.29684
2.25954
2.23878
2.23203
2.2196
2.21752
2.21213
2.21123
2.21712
2.23722
2.28055
2.35459
2.46507
2.61596
2.85532
3.12935
3.41577
3.82391
4.13963
4.66086
2.76281
2.46802
2.34427
2.28276
2.24854
2.23227
2.22501
2.21549
2.21592
2.20938
2.2115
2.22053
2.25291
2.30989
2.39352
2.53287
2.69791
2.96677
3.24325
3.59914
4.10819
4.45896
5.03114
2.73007
2.44601
2.33387
2.27587
2.24355
2.22908
2.22172
2.21348
2.21469
2.20854
2.21482
2.23065
2.28509
2.36925
2.48852
2.64686
2.82396
3.14069
3.48219
3.89019
4.38694
4.76995
5.36837
2.69678
2.42468
2.31392
2.26258
2.23485
2.22309
2.21621
2.20954
2.21228
2.20742
2.21719
2.248
2.31956
2.41266
2.54256
2.73103
2.95105
3.32704
3.6511
4.11926
4.67264
5.15535
5.84276
2.6695
2.40552
2.30428
2.25661
2.2309
2.21997
2.21349
2.20749
2.21069
2.20981
2.22743
2.27894
2.37795
2.50752
2.68356
2.90966
3.15521
3.53933
3.91178
4.43159
5.03662
5.55668
6.27752
2.64356
2.38949
2.28719
2.24533
2.22344
2.2139
2.20797
2.20283
2.20747
2.20854
2.24063
2.31947
2.43056
2.56594
2.75254
2.99446
3.27638
3.74318
4.16142
4.76021
5.33911
5.87994
6.66208
2.62422
2.3718
2.27765
2.24006
2.21967
2.21064
2.20506
2.20213
2.20928
2.21773
2.27272
2.37896
2.51185
2.68114
2.91341
3.21236
3.56349
4.04542
4.45755
5.09751
5.7273
6.45651
7.3853
2.60175
2.36036
2.2642
2.23022
2.21211
2.20361
2.19882
2.19831
2.20698
2.2286
2.30859
2.44457
2.58507
2.76883
3.01142
3.32688
3.70547
4.24745
4.77901
5.51816
6.27361
7.06212
7.91224
2.58936
2.34552
2.25444
2.2247
2.20806
2.20026
2.19765
2.20556
2.22023
2.26608
2.36863
2.53085
2.6838
2.88933
3.1927
3.57197
4.01684
4.61915
5.16839
6.04297
6.71014
7.52694
8.49111
2.56982
2.3355
2.24455
2.21675
2.1994
2.19227
2.19327
2.20742
2.23363
2.30041
2.42695
2.61206
2.77251
3.00841
3.31165
3.70323
4.21865
4.91734
5.61665
6.42387
7.28631
8.57051
9.77557
2.55966
2.32406
2.23477
2.20903
2.19495
2.19004
2.19867
2.23348
2.28198
2.36407
2.5071
2.71071
2.87845
3.13018
3.5144
3.99409
4.56843
5.29669
6.01341
7.11543
8.35115
9.59961
10.5923
2.5448
2.31512
2.2265
2.20335
2.18782
2.18736
2.20264
2.2592
2.31891
2.41547
2.57805
2.79511
2.96735
3.25124
3.63187
4.15822
4.85279
5.70072
6.69609
7.97139
9.0943
10.3537
11.9592
2.53566
2.30698
2.21837
2.19572
2.18268
2.19003
2.22577
2.31111
2.39124
2.50121
2.67439
2.90124
3.08579
3.40331
3.86112
4.44548
5.17073
6.26543
7.39387
8.64345
10.036
12.312
14.9406
2.5262
2.29934
2.21203
2.1911
2.1835
2.20169
2.26464
2.36472
2.46116
2.57773
2.75982
2.98706
3.16472
3.49855
4.00534
4.71215
5.69571
6.80403
8.05367
9.68344
12.3351
15.5182
18.4962
2.51834
2.29219
2.20639
2.18728
2.18773
2.23062
2.31221
2.42524
2.53285
2.65507
2.84405
3.0779
3.28311
3.67335
4.20996
4.97712
6.04842
7.42788
9.02381
11.7262
14.9007
18.6799
23.2172
2.50849
2.28365
2.20037
2.18773
2.20935
2.26708
2.36833
2.48852
2.60456
2.73208
2.92558
3.15512
3.35006
3.76452
4.46167
5.3645
6.56726
8.18852
10.5454
13.6667
17.5153
23.6027
33.8299
2.49951
2.27626
2.19537
2.19481
2.24174
2.31508
2.42825
2.55366
2.67477
2.80538
3.0018
3.23376
3.46679
3.94453
4.60802
5.7109
7.31459
9.30154
12.046
15.6952
22.0055
35.2029
52.0249
2.48764
2.26845
2.19503
2.21814
2.29005
2.36814
2.49353
2.61885
2.74205
2.87548
3.07313
3.29926
3.52817
4.04874
4.93841
6.11789
7.89951
10.192
13.5853
19.3777
33.0679
54.1229
72.165
2.47692
2.26248
2.1983
2.25019
2.34049
2.42692
2.55762
2.6817
2.80537
2.93942
3.13632
3.3604
3.63658
4.26041
5.20615
6.85616
8.79076
11.3759
16.3696
28.8688
50.1801
73.4565
89.7874
2.46432
2.25589
2.21652
2.29534
2.40007
2.4885
2.62206
2.7429
2.86401
2.99908
3.1952
3.41574
3.70136
4.38583
5.53409
7.28618
9.51134
13.2535
24.1368
43.7805
67.4437
88.9573
101.676
2.45342
2.25025
2.24063
2.34207
2.45625
2.54995
2.68343
2.79864
2.91764
3.05189
3.24533
3.46097
3.79471
4.58461
5.96162
7.83855
10.69
19.0285
37.419
58.6225
80.7943
97.7886
107.666
2.44142
2.25035
2.28223
2.3959
2.51537
2.61091
2.73921
2.852
2.96592
3.10017
3.29159
3.50861
3.88617
4.80571
6.35056
8.67187
13.8401
31.0592
51.029
70.4862
88.2216
102.747
111.681
2.43165
2.25398
2.32239
2.44624
2.56908
2.66942
2.79328
2.89846
3.0091
3.14212
3.33117
3.54624
3.95954
4.93371
6.67942
9.93251
21.2048
43.8467
62.4863
77.7682
93.229
106.718
112.983
2.42126
2.26996
2.37387
2.49966
2.62113
2.72284
2.83809
2.9414
3.04724
3.17969
3.36586
3.58192
4.06891
5.31033
7.34845
12.9339
34.6087
55.3414
69.8545
81.682
96.3324
106.281
111.926
2.41312
2.29653
2.42331
2.54789
2.66915
2.77362
2.88182
2.97852
3.0807
3.21186
3.39684
3.62512
4.17341
5.56095
8.37425
21.6274
45.1946
63.1841
73.1926
83.9966
95.5132
103.359
107.92
2.41211
2.33293
2.47405
2.59663
2.71397
2.8184
2.91709
3.01094
3.10994
3.24034
3.42305
3.64922
4.25388
6.08981
11.1187
33.2617
55.1578
67.2236
74.6042
83.4898
91.971
97.4735
101.676
2.41677
2.37885
2.52732
2.64109
2.75572
2.8576
2.95072
3.03964
3.13522
3.26439
3.44677
3.70153
4.4802
7.1612
18.2006
44.6125
59.5562
68.3122
74.4294
80.2592
85.7122
90.2475
93.658
2.4289
2.4265
2.57359
2.68567
2.79538
2.89568
2.97831
3.06362
3.15725
3.28563
3.46733
3.74036
4.74026
9.37347
28.0784
52.7806
62.5518
68.473
72.1038
75.1516
78.7277
82.6656
85.7009
2.45207
2.4812
2.62462
2.72572
2.83128
2.92556
3.0048
3.08565
3.17611
3.30345
3.48767
3.81857
5.3936
13.0627
37.0887
57.5793
63.0322
67.0079
67.8339
69.3672
72.4928
75.2409
78.0716
2.48027
2.53109
2.66769
2.76672
2.86711
2.95621
3.02671
3.10401
3.19264
3.31933
3.5061
3.92815
6.30847
16.9513
43.2985
58.406
63.0301
63.4168
62.9844
63.9225
66.2109
68.2065
70.6107
2.51792
2.58602
2.71371
2.80377
2.89669
2.98446
3.05041
3.12125
3.20676
3.33286
3.52946
4.06774
7.33211
20.7199
46.7468
58.7314
61.5419
59.7031
59.0504
59.4703
60.4801
61.8321
63.3737
2.55658
2.63363
2.7524
2.8396
2.92949
3.00888
3.06859
3.13564
3.21931
3.34503
3.55182
4.25418
8.4519
24.0674
48.1833
58.5999
59.0353
56.3741
55.1178
55.6793
55.4937
56.0833
56.7439
2.60021
2.68362
2.79564
2.87459
2.95539
3.03478
3.08614
3.14997
3.23016
3.35599
3.57594
4.3859
9.3089
26.2457
48.3334
56.5323
57.3772
54.0184
52.4403
52.319
51.3452
51.114
51.2755
2.64139
2.72737
2.83142
2.90728
2.98202
3.05307
3.10048
3.16122
3.23995
3.36528
3.60225
4.60703
10.3537
27.9876
47.2737
54.5132
55.7216
52.0274
49.7161
49.2247
48.0391
47.294
46.8065
2.68352
2.76927
2.86709
2.93813
3.00862
3.07058
3.11263
3.17179
3.24863
3.37507
3.63149
4.75693
10.9601
28.9101
46.075
52.1589
54.0131
50.7628
48.2005
46.944
45.6497
44.395
43.6611
2.71954
2.80689
2.89643
2.96583
3.02621
3.08342
3.12019
3.17961
3.25657
3.38239
3.65284
4.94991
11.6755
30.1574
45.385
50.3383
52.4412
50.0896
46.5671
45.4149
44.4387
43.2113
41.3943
2.75556
2.83824
2.92156
2.9895
3.03812
3.09485
3.12511
3.18786
3.26345
3.39086
3.69715
5.18672
12.2494
30.8454
44.8181
49.1048
50.2731
48.3421
44.9518
43.7616
43.0322
42.0525
40.4053
2.78306
2.86796
2.94159
3.00854
3.0493
3.10119
3.12924
3.19393
3.27024
3.39883
3.7236
5.35136
12.7226
31.6943
43.8899
47.8221
47.7152
46.3351
42.6494
41.5852
41.1645
40.8795
39.5812
2.81336
2.89126
2.95727
3.02442
3.06266
3.10829
3.13442
3.20091
3.27619
3.40495
3.76453
5.60786
13.4353
31.5964
42.8427
46.0548
44.7612
42.7198
40.0285
38.8215
38.5915
38.401
37.654
2.83626
2.91454
2.97153
3.03517
3.07345
3.11397
3.14042
3.20644
3.28244
3.41356
3.80047
5.90509
14.0568
30.6791
42.1033
41.8093
40.517
38.4434
37.0588
35.5091
35.1734
35.3139
34.808
2.85937
2.93233
2.98233
3.0451
3.0842
3.1206
3.14602
3.21148
3.28728
3.41835
3.82991
6.07261
14.1649
28.6109
39.4635
36.5401
35.5849
34.5154
33.3391
32.1561
31.8807
31.8197
31.7305
2.87827
2.95014
2.99519
3.05135
3.09308
3.1272
3.15143
3.21481
3.29244
3.42518
3.86575
6.06789
13.8234
25.3375
32.9637
29.8611
30.0176
29.7835
29.5377
28.442
28.056
28.0502
28.35
2.89809
2.96533
3.00718
3.05899
3.10147
3.13432
3.15654
3.21766
3.29618
3.42972
3.88818
5.9523
12.9328
22.2732
25.911
24.1684
24.7632
25.4364
25.4154
24.7951
24.8136
25.1372
25.8895
2.91572
2.98084
3.02124
3.06585
3.10897
3.14159
3.16147
3.2201
3.30028
3.43589
3.88775
5.69841
11.6017
19.2465
20.4549
19.1173
20.1191
21.3786
21.5525
21.3645
21.7476
22.4516
23.3005
2.93472
2.99562
3.03483
3.0755
3.11644
3.14956
3.16715
3.22308
3.30304
3.44108
3.86811
5.41005
10.2597
16.5575
16.5182
15.6748
16.856
18.3058
18.5608
18.6668
19.5391
20.4667
21.5229
2.95216
3.01035
3.04796
3.08543
3.12361
3.15716
3.17238
3.22583
3.30606
3.44412
3.83208
5.12713
9.09135
14.5837
14.1732
13.6724
14.7629
16.0753
16.5444
16.7603
17.8052
18.7403
19.8193
2.9691
3.02419
3.05984
3.09608
3.13105
3.16486
3.17832
3.2287
3.30801
3.44675
3.79523
4.86428
8.04008
12.8552
12.4874
12.4139
13.3066
14.4719
15.0583
15.394
16.5028
17.4226
18.5559
2.9858
3.0386
3.07186
3.10737
3.13882
3.17275
3.1841
3.23189
3.30926
3.45082
3.75876
4.63448
7.19736
11.5376
11.3798
11.6314
12.3925
13.3732
13.9973
14.3666
15.5256
16.3931
17.5294
3.00199
3.05287
3.08339
3.11827
3.1471
3.18058
3.19077
3.23533
3.31164
3.45471
3.72747
4.43819
6.47709
10.5343
10.7608
11.2468
11.8802
12.7607
13.29
13.6611
14.8162
15.6451
16.741
3.01865
3.0671
3.09506
3.12996
3.15553
3.18868
3.19721
3.23915
3.31205
3.45468
3.69857
4.27866
5.92224
10.0975
10.4936
10.9456
11.6846
12.4465
12.8452
13.2092
14.2891
15.0783
16.114
3.03388
3.08147
3.10679
3.14026
3.16408
3.19634
3.20416
3.24314
3.31281
3.45473
3.67398
4.15258
5.51604
10.0345
10.4526
10.8551
11.5851
12.2702
12.5668
12.918
13.918
14.8151
15.6745
3.05023
3.09491
3.11803
3.15145
3.17241
3.20413
3.21104
3.24736
3.31218
3.45354
3.65046
4.04959
5.32041
9.97002
10.3972
10.7457
11.5426
12.1899
12.4068
12.7721
13.6053
14.6459
15.5413
3.06479
3.10874
3.13001
3.16138
3.18091
3.21179
3.21793
3.25177
3.31236
3.45267
3.6298
3.9768
5.24076
10.0145
10.4002
10.5588
11.5262
12.1502
12.3224
12.751
13.5289
14.616
15.4632
3.08042
3.12166
3.14084
3.1719
3.18887
3.21884
3.22503
3.25598
3.31222
3.4499
3.61054
3.90702
5.1168
10.4265
10.5158
10.2973
11.4921
12.1293
12.273
12.7136
13.4785
14.6405
15.4938
3.09468
3.13431
3.15225
3.18154
3.19679
3.22643
3.23191
3.26065
3.31168
3.44583
3.58479
3.8646
5.00027
10.841
10.6737
10.1182
11.347
12.0828
12.2395
12.8499
13.5176
14.7781
15.6338
3.10916
3.14676
3.16323
3.19177
3.2052
3.2329
3.23864
3.26481
3.31067
3.44081
3.57345
3.80773
4.93309
11.0871
10.7551
9.95484
11.1152
12.0407
12.2124
12.9141
13.6786
14.874
15.6873
3.12349
3.1589
3.17334
3.20095
3.21234
3.2401
3.24594
3.26943
3.31015
3.4391
3.56789
3.78417
4.89696
11.1765
10.7953
9.89304
10.8616
11.9391
12.1938
13.1092
13.907
15.0387
15.9165
3.13631
3.16997
3.1845
3.21095
3.22104
3.24633
3.25215
3.27357
3.31099
3.43597
3.55755
3.76597
4.88569
11.1748
10.6996
9.78117
10.6502
11.7948
12.1501
13.2896
14.1692
15.2694
16.0248
3.15123
3.18253
3.1941
3.22039
3.22883
3.25321
3.25919
3.27826
3.31251
3.43206
3.55563
3.7512
4.83559
10.8684
10.3376
9.68122
10.4816
11.6723
12.1251
13.6166
14.3885
15.3653
16.1048
3.16275
3.19321
3.20471
3.23023
3.23764
3.25984
3.26717
3.28211
3.31447
3.43209
3.55328
3.73855
4.83095
10.2463
9.89916
9.61284
10.4233
11.5744
12.1335
13.6736
14.6535
15.6808
16.638
3.17914
3.20592
3.21604
3.24138
3.24491
3.26664
3.27236
3.28707
3.31651
3.43143
3.55159
3.7309
4.81322
9.61689
9.4183
9.54653
10.4062
11.4947
12.1191
13.7215
14.6614
15.7696
16.7165
3.18962
3.21556
3.22563
3.24575
3.25357
3.26933
3.27671
3.29158
3.31872
3.42884
3.54658
3.72183
4.77307
9.0074
9.23288
9.54808
10.4432
11.4312
12.2244
13.9431
14.9324
16.2324
17.236
3.19485
3.2215
3.23271
3.24789
3.25824
3.27071
3.28108
3.2957
3.32086
3.42664
3.54598
3.72836
4.75451
8.59728
9.05076
9.53654
10.4836
11.535
12.3564
14.2219
15.0239
16.2758
17.381
3.20055
3.22504
3.2369
3.25005
3.26095
3.27197
3.28134
3.29716
3.323
3.42539
3.5456
3.723
4.73758
8.31071
9.04746
9.52766
10.4817
11.5254
12.5717
14.4326
15.4647
16.528
18.1315
3.19928
3.22845
3.23666
3.25062
3.26199
3.27457
3.28359
3.29782
3.32496
3.42412
3.54464
3.73375
4.6883
8.21201
9.02501
9.54254
10.6836
11.8598
13.2871
14.9451
15.8445
17.2335
18.3967
3.20028
3.22715
3.23728
3.25073
3.26215
3.27406
3.28273
3.29847
3.32699
3.4231
3.54155
3.73363
4.65753
8.1762
9.12951
9.56615
10.7222
12.2432
13.4915
15.0066
15.9669
17.2733
19.2746
3.20313
3.22683
3.23842
3.25066
3.26331
3.27412
3.28322
3.29926
3.32847
3.42236
3.54235
3.73711
4.65018
8.13447
9.52439
9.79323
11.0018
12.7912
14.1051
15.6132
17.0156
17.8626
19.4962
3.20046
3.22938
3.24102
3.25227
3.26176
3.27445
3.28462
3.29841
3.33087
3.42116
3.5428
3.73979
4.60755
8.16544
9.72272
10.031
11.6436
13.3011
14.7111
15.8302
17.1314
18.9189
21.5431
3.2029
3.22716
3.239
3.25255
3.26161
3.27555
3.28313
3.29818
3.33064
3.42091
3.54389
3.74074
4.632
8.13611
10.0196
10.7632
12.4399
14.1491
15.1798
16.449
17.7783
20.7905
25.8639
3.20155
3.2261
3.23946
3.25151
3.26298
3.27376
3.28342
3.298
3.33101
3.42077
3.54469
3.73414
4.62901
8.14227
10.1483
11.2328
13.4263
15.5651
16.7863
17.676
19.3644
24.2052
32.5437
3.20465
3.22611
3.24114
3.2531
3.26221
3.27549
3.28474
3.29846
3.33101
3.4213
3.54947
3.73676
4.64764
8.16302
10.4143
12.4357
14.0967
16.3754
17.4688
19.5499
23.2528
29.0183
38.7466
3.20157
3.22804
3.23848
3.25077
3.26189
3.2738
3.28323
3.29816
3.33109
3.42131
3.55188
3.7454
4.71351
8.19794
11.1521
13.7077
15.0734
17.6657
19.3783
21.535
26.3257
34.1872
47.6467
3.20243
3.22631
3.23845
3.25326
3.26168
3.27402
3.28325
3.2986
3.33182
3.42234
3.55304
3.75753
4.80236
8.2655
11.5934
15.0366
16.114
18.5018
20.7253
25.241
30.9358
38.4463
54.2951
3.20328
3.22537
3.24035
3.25088
3.26133
3.27369
3.28355
3.29776
3.33179
3.42315
3.55537
3.77053
4.91733
8.43809
12.6888
16.1835
17.3675
19.9937
22.6813
27.8716
34.1133
43.2475
61.3001
3.20298
3.2264
3.2407
3.25093
3.26104
3.27248
3.28139
3.29785
3.33195
3.42424
3.56273
3.78112
4.98059
8.87186
13.8906
17.6362
18.8844
21.1533
24.739
29.9175
36.302
48.9647
64.2073
3.19966
3.22558
3.24079
3.25022
3.2599
3.27158
3.28188
3.29698
3.33072
3.42882
3.5671
3.79409
5.08362
9.55756
15.1058
18.7645
20.1564
22.9228
26.7062
32.785
37.7033
48.0706
65.1915
3.19641
3.22381
3.23641
3.25042
3.25921
3.2713
3.2823
3.29728
3.33062
3.43079
3.56831
3.80791
5.14309
9.97514
16.2892
19.8367
21.6024
24.1295
27.7419
34.9803
40.1753
52.4525
66.0638
3.19502
3.22201
3.2353
3.24678
3.25835
3.2683
3.2794
3.29498
3.33148
3.43556
3.56919
3.8265
5.27168
10.5379
17.1442
20.66
22.1485
25.1382
28.8186
38.0856
46.4503
58.9381
68.9437
3.19248
3.21904
3.23313
3.24635
3.25814
3.26793
3.27869
3.2964
3.3299
3.43965
3.57193
3.85191
5.37333
11.781
17.8048
21.2564
23.295
26.5766
30.62
40.2559
49.8828
61.2984
70.5497
3.19132
3.21709
3.23238
3.248
3.25904
3.26877
3.27864
3.29433
3.3299
3.4449
3.57773
3.87559
5.58271
13.1241
18.4
21.5578
23.7053
27.3773
33.8421
41.8149
52.2523
62.0664
72.4763
3.19201
3.21125
3.23056
3.24804
3.2595
3.26854
3.27547
3.29522
3.33073
3.45015
3.5875
3.91922
5.76456
14.2532
18.7979
21.8298
24.7272
29.5994
35.2112
42.9108
51.1125
63.5263
71.3988
3.19069
3.21424
3.22968
3.24597
3.25726
3.26614
3.2749
3.29483
3.32894
3.45359
3.59407
3.94871
5.96448
14.9872
19.0368
22.0332
25.3199
31.1764
35.9693
43.5581
51.1567
62.2101
72.3131
3.18623
3.20921
3.23135
3.24396
3.25337
3.26258
3.27468
3.29361
3.33051
3.4573
3.61179
4.0164
6.25792
15.6764
19.1129
22.0046
25.6853
31.1868
36.073
44.7615
51.7084
63.0973
70.0657
3.18248
3.2111
3.23061
3.24022
3.24829
3.25807
3.2751
3.29164
3.32957
3.46601
3.6225
4.06468
7.30358
16.5466
19.3042
21.9915
25.837
31.2764
36.247
44.1406
52.827
60.643
66.1395
3.17748
3.20814
3.22797
3.23443
3.2471
3.25696
3.27276
3.28799
3.33148
3.46864
3.63907
4.212
8.7362
16.9541
19.4078
22.1016
25.8487
31.5151
36.6051
45.1145
52.1275
57.1851
61.1119
3.16895
3.20278
3.22345
3.23295
3.24736
3.25661
3.26759
3.28649
3.32954
3.46982
3.64169
4.24788
9.4748
17.0789
19.3419
21.7501
25.6519
31.5005
36.8112
42.5864
47.5241
51.3044
55.4218
3.16698
3.19327
3.21692
3.23402
3.24557
3.25644
3.2657
3.28656
3.32874
3.46641
3.64111
4.27642
9.641
16.7948
18.4897
20.6784
24.3917
29.976
35.1327
39.2619
43.235
46.6351
49.9397
3.16784
3.1893
3.20766
3.23172
3.24146
3.25211
3.26395
3.28465
3.3256
3.46327
3.643
4.29825
9.79402
16.2396
17.4076
19.2771
22.7563
27.9447
32.416
35.5697
39.2155
42.7617
45.5909
3.16658
3.17959
3.20435
3.2273
3.23765
3.24678
3.26002
3.28271
3.32181
3.45444
3.64728
4.31367
9.75379
15.4036
16.7614
18.1104
21.0147
25.7107
29.4729
32.3266
35.8416
39.0287
41.0802
3.15875
3.18024
3.20435
3.22159
3.23297
3.24045
3.25275
3.27801
3.31696
3.44711
3.66693
4.35996
9.84348
15.2155
16.2324
17.6399
19.8185
23.7809
26.8168
29.4141
32.0979
34.5
36.2112
3.14738
3.17357
3.19549
3.21563
3.22783
3.23199
3.24635
3.27248
3.3121
3.44168
3.68622
4.36649
9.83715
15.1093
16.0748
17.4748
18.9051
21.6431
24.273
26.2444
28.0515
30.2268
31.8437
3.12747
3.16566
3.18513
3.20759
3.22083
3.2239
3.23955
3.26521
3.30595
3.43573
3.71187
4.40281
9.7976
14.8752
16.0711
17.4258
18.7833
20.7415
22.1277
24.4256
26.4836
27.7845
29.0937
3.11784
3.15693
3.17312
3.19759
3.21306
3.22042
3.2371
3.25779
3.2999
3.42946
3.75398
4.52437
9.9684
14.7979
16.4805
17.4469
18.5582
19.7967
21.2803
24.1316
25.9474
26.8179
27.814
3.10139
3.14483
3.15817
3.18489
3.20284
3.20997
3.22874
3.24839
3.29199
3.42167
3.80746
4.60717
10.3032
14.9259
16.135
17.5756
18.3819
19.3162
21.5143
23.4628
25.2564
26.0439
26.742
3.10024
3.13078
3.14575
3.17217
3.19177
3.19849
3.21881
3.23881
3.28426
3.41289
3.85256
4.80711
11.4516
16.0251
16.799
17.5352
18.4119
19.1903
21.2965
22.9818
24.6021
25.4642
25.7786
3.08701
3.11356
3.13725
3.15688
3.17718
3.18433
3.2051
3.22608
3.27387
3.40202
3.925
4.94487
11.5635
15.4645
16.267
16.7692
18.5752
20.3992
22.6226
22.3413
23.9821
24.2354
22.727
3.06954
3.09578
3.1208
3.14073
3.1613
3.16985
3.19055
3.21286
3.26392
3.39247
3.99877
5.21171
11.1259
14.8081
15.1704
17.3824
17.8866
21.2165
21.0436
21.7275
22.5333
22.1208
20.6784
3.04613
3.07452
3.0992
3.11984
3.1406
3.15116
3.17149
3.19513
3.25037
3.38166
4.12906
5.40122
10.9155
13.6768
15.3212
16.7192
17.2791
19.2341
20.1535
20.4816
20.8337
20.2422
19.436
3.02036
3.05249
3.07685
3.09752
3.11863
3.13156
3.15184
3.17708
3.23774
3.3715
4.20986
5.54798
9.98639
12.5468
15.3299
15.7262
16.4129
18.0937
18.6849
19.5848
19.7412
19.406
18.7117
2.98881
3.02503
3.04929
3.06933
3.0907
3.10583
3.12612
3.15301
3.21977
3.35927
4.29175
5.9011
10.9807
12.5401
14.4186
14.5519
15.5826
17.0382
17.9435
19.0193
19.0998
18.9224
18.3535
2.95612
2.99609
3.0209
3.04026
3.06194
3.07916
3.09994
3.12889
3.20252
3.35863
4.40597
6.61698
9.96649
12.8313
13.4038
13.6991
14.6103
16.2579
17.6272
18.4796
18.4885
18.37
17.8394
2.91683
2.95922
2.9849
3.00384
3.02552
3.04418
3.06528
3.09619
3.17635
3.32242
4.54445
7.19265
9.40944
12.183
12.5587
12.5614
14.2716
15.7847
17.3515
17.9307
17.9332
17.8147
17.2546
2.87687
2.92077
2.94782
2.9669
2.98875
3.0086
3.03039
3.06358
3.14976
3.35085
4.84105
6.97834
9.18165
11.1207
11.4968
11.8037
13.86
15.5184
17.0103
17.2404
17.1172
16.9513
16.4865
2.82804
2.87189
2.90055
2.91999
2.94166
2.96178
2.98382
3.01863
3.1089
3.3401
4.90872
6.40248
8.73438
10.1513
10.6346
11.4189
13.5004
15.2451
16.4043
16.4955
16.5871
16.2206
15.0263
2.77877
2.8226
2.85302
2.87317
2.89509
2.91545
2.93814
2.97455
3.06778
3.39247
5.84305
6.40321
8.56264
9.16101
10.0798
11.1413
13.1815
14.8134
15.5873
15.59
15.5473
14.908
13.3743
2.71757
2.76024
2.79219
2.81287
2.83444
2.85409
2.87678
2.91346
3.00713
3.4519
6.13612
5.73173
7.72499
8.0923
9.63375
10.8924
12.7666
14.0514
14.5613
14.5116
14.3774
13.5347
11.4695
2.65734
2.70013
2.73309
2.75451
2.77639
2.79579
2.81911
2.8559
2.94944
3.54126
7.04908
5.64829
7.88973
7.42688
9.18902
10.4871
12.2557
13.2281
13.5734
13.4592
13.1965
11.873
9.56965
2.58159
2.62307
2.6563
2.67785
2.69899
2.71721
2.74016
2.77532
2.86672
3.54996
6.61058
5.35279
7.19952
6.79913
8.78118
10.0944
11.6386
12.1274
12.3949
12.2314
11.8057
10.1713
7.80189
2.51037
2.55281
2.58533
2.60735
2.62866
2.64666
2.67017
2.70403
2.79372
3.64587
7.87584
5.1036
6.51527
6.40419
8.26384
9.65822
10.7664
11.1804
11.1761
11.0322
10.3441
8.55068
5.96079
2.41868
2.45914
2.49018
2.51128
2.53118
2.54769
2.57009
2.601
2.68737
3.63432
7.64228
5.00083
6.11571
6.10062
7.80714
9.11258
9.80276
9.97226
9.96454
9.86285
8.80705
6.79321
4.17806
2.33851
2.38052
2.40907
2.42994
2.4497
2.46612
2.48879
2.51793
2.60248
3.6443
7.61605
4.98387
5.48487
5.66607
7.32175
8.45185
8.84686
9.05464
8.9058
8.57268
7.20555
4.97267
3.15462
2.2298
2.26805
2.29303
2.31116
2.32866
2.34297
2.3633
2.38894
2.46997
3.66414
8.30211
5.19815
5.10761
5.34924
6.84588
7.66763
7.88979
7.92199
7.85229
7.18192
5.59138
3.38657
2.69769
2.14605
2.18577
2.20695
2.22379
2.24078
2.25485
2.27516
2.29938
2.37877
3.55156
8.11955
4.50539
4.7232
5.15617
6.35136
6.97029
7.04022
7.05807
6.78197
5.74471
3.89555
2.6867
2.49237
2.01802
2.05202
2.0653
2.07678
2.09007
2.10086
2.11813
2.139
2.21279
3.75717
8.04287
4.29849
4.48446
4.95732
5.79633
6.00467
6.04603
6.00549
5.47654
4.24016
2.67732
2.32516
2.27371
1.94539
1.97587
1.98685
1.99865
2.01237
2.02321
2.03706
2.05623
2.13016
4.11764
7.77374
4.62059
4.25858
4.69812
5.25987
5.59087
5.48306
5.40449
4.63674
3.01063
2.30422
2.19777
2.17777
1.77664
1.78984
1.78906
1.78929
1.794
1.79849
1.81425
1.83037
1.93555
4.41608
7.3841
3.58036
3.63474
4.10425
4.31163
4.29598
4.14387
3.62375
2.68523
2.05849
1.92386
1.90925
1.91443
3.09712
2.77614
2.59276
2.47256
2.38901
2.33778
2.29532
2.27519
2.25276
2.24188
2.23323
2.23333
2.23874
2.25373
2.28378
2.33502
2.41829
2.52364
2.66559
2.82019
2.93362
3.09667
3.19993
3.10625
2.78928
2.60328
2.48209
2.39882
2.34695
2.30304
2.28038
2.25603
2.24435
2.2365
2.23382
2.23872
2.25306
2.28235
2.33277
2.41413
2.51224
2.65765
2.78153
2.91776
3.05882
3.18315
3.11797
2.80499
2.61546
2.49212
2.40522
2.3553
2.31113
2.2845
2.26149
2.24748
2.23783
2.23399
2.23823
2.25103
2.27749
2.32376
2.39812
2.49508
2.64331
2.7463
2.91055
3.00484
3.15216
3.12895
2.81955
2.62896
2.5079
2.42333
2.36669
2.31856
2.28919
2.26623
2.24892
2.2388
2.23401
2.23744
2.24879
2.27319
2.31732
2.38735
2.48859
2.61913
2.72814
2.88135
2.98286
3.13468
3.13729
2.83792
2.64475
2.52268
2.43103
2.3701
2.32242
2.29085
2.27009
2.25045
2.24042
2.23411
2.237
2.24733
2.26912
2.31105
2.37561
2.484
2.57809
2.72782
2.8262
2.97458
3.08131
3.1476
2.85005
2.65566
2.53081
2.43582
2.37578
2.32947
2.29522
2.27311
2.25143
2.24091
2.23365
2.23602
2.24495
2.26319
2.3033
2.35856
2.46006
2.54972
2.68892
2.78713
2.93203
3.04125
3.15086
2.85827
2.66196
2.53736
2.44316
2.38051
2.33367
2.29752
2.2753
2.25369
2.24267
2.23407
2.23629
2.24577
2.25889
2.31227
2.36067
2.45439
2.55292
2.66519
2.8031
2.89424
3.03298
3.1496
2.85334
2.65706
2.52925
2.43321
2.37065
2.32282
2.2885
2.26748
2.24673
2.23697
2.22912
2.23088
2.24053
2.25587
2.31088
2.36392
2.45683
2.56213
2.67084
2.82163
2.91889
3.0657
2.95536
2.61278
2.45786
2.36217
2.30299
2.26663
2.24388
2.23161
2.21454
2.20827
2.2149
2.24546
2.30805
2.41997
2.56424
2.78712
3.04982
3.39879
3.92049
4.33223
4.96721
5.51341
6.0602
2.96701
2.61876
2.46188
2.36808
2.3079
2.26836
2.24621
2.23447
2.21752
2.20682
2.21135
2.22827
2.26945
2.35808
2.48771
2.68856
2.94195
3.26723
3.77999
4.17326
4.79606
5.29059
5.8629
2.96857
2.62258
2.46644
2.37523
2.31197
2.27229
2.24962
2.23776
2.22171
2.2098
2.21369
2.22881
2.25882
2.32266
2.43412
2.60974
2.84774
3.14535
3.63127
4.00473
4.60523
5.04623
5.64136
2.98035
2.63181
2.47126
2.37901
2.3164
2.27485
2.25242
2.2402
2.22667
2.21247
2.21474
2.22511
2.24931
2.29858
2.39078
2.54321
2.76381
3.03595
3.48643
3.83338
4.4088
4.80694
5.40953
2.9828
2.63836
2.47807
2.38651
2.32002
2.27801
2.25479
2.24157
2.22975
2.21567
2.21679
2.22529
2.24548
2.28462
2.35698
2.48111
2.67895
2.92347
3.3239
3.64716
4.1901
4.55737
5.14913
2.9951
2.6493
2.48286
2.39015
2.32572
2.28222
2.25857
2.24354
2.23339
2.21962
2.21981
2.22649
2.24476
2.28075
2.34467
2.45157
2.62447
2.83917
3.19389
3.49526
3.99604
4.34665
4.91596
2.99846
2.65817
2.49211
2.39622
2.32915
2.28522
2.26112
2.24461
2.23526
2.22222
2.22183
2.22768
2.2432
2.27355
2.32681
2.4147
2.56056
2.75149
3.06262
3.332
3.79106
4.11926
4.64854
3.01199
2.67111
2.49955
2.40216
2.33588
2.29035
2.26591
2.24688
2.23651
2.22577
2.22382
2.22893
2.24277
2.27126
2.32176
2.40282
2.52925
2.69731
2.96838
3.21053
3.62198
3.91476
4.38505
3.01637
2.68051
2.50919
2.40689
2.34127
2.29345
2.26858
2.24852
2.2381
2.22802
2.22486
2.22948
2.24196
2.26735
2.31224
2.38533
2.49841
2.65192
2.89299
3.10582
3.46441
3.72223
4.14155
3.0316
2.69594
2.52092
2.41552
2.34769
2.29969
2.27325
2.25206
2.23901
2.23046
2.22668
2.22992
2.24167
2.26594
2.30906
2.37782
2.48359
2.62242
2.83608
3.02855
3.33753
3.56652
3.94096
3.03717
2.70462
2.52962
2.42063
2.35544
2.30406
2.27577
2.25473
2.24074
2.23274
2.22749
2.23062
2.24103
2.26368
2.30443
2.36969
2.46845
2.6005
2.79815
2.97739
3.24029
3.43541
3.75358
3.05417
2.7226
2.54486
2.43203
2.36112
2.31133
2.2798
2.25882
2.24191
2.23416
2.22861
2.23146
2.24086
2.2624
2.30137
2.36377
2.46039
2.58609
2.76474
2.94366
3.14234
3.3166
3.5653
3.06036
2.73109
2.55309
2.43761
2.36976
2.31755
2.28234
2.26218
2.24425
2.23659
2.22966
2.23194
2.24048
2.26073
2.29811
2.35846
2.45015
2.57329
2.7363
2.92264
3.05299
3.23048
3.40225
3.07714
2.74968
2.56921
2.45195
2.37481
2.32438
2.28662
2.26627
2.2461
2.23782
2.23046
2.23219
2.23993
2.25833
2.29259
2.34884
2.43702
2.55676
2.70075
2.87496
2.98149
3.16603
3.2781
3.08455
2.76092
2.57862
2.45925
2.38406
2.33234
2.29
2.27007
2.24895
2.24053
2.23211
2.23285
2.23946
2.25657
2.28898
2.34333
2.42905
2.54174
2.67907
2.84006
2.95325
3.1315
3.22551
2.87381
2.80448
2.87033
2.934
3.01114
3.07858
3.11192
3.13524
3.1544
3.18191
3.2157
3.26593
3.33865
3.4504
3.62569
3.89878
4.26656
4.68093
5.16675
5.62671
6.04111
6.41433
6.76833
2.8565
2.77082
2.82675
2.90177
2.9806
3.05441
3.09742
3.13385
3.15101
3.17656
3.21315
3.26369
3.3357
3.44608
3.61999
3.88455
4.25257
4.67862
5.17535
5.64761
6.10406
6.49648
6.85474
2.84946
2.72942
2.79124
2.8647
2.94353
3.02881
3.07572
3.11916
3.14234
3.17595
3.21085
3.25999
3.33225
3.44209
3.61244
3.87033
4.23906
4.67629
5.18176
5.67132
6.1684
6.57899
6.96872
2.84905
2.69532
2.74236
2.82243
2.90547
2.99701
3.05567
3.09726
3.1276
3.16812
3.20197
3.25553
3.32794
3.4372
3.60519
3.85748
4.22399
4.67335
5.18925
5.6971
6.23303
6.66837
7.06441
2.84975
2.65762
2.70126
2.78366
2.86317
2.96587
3.02714
3.074
3.1109
3.15555
3.19315
3.24928
3.32267
3.43148
3.59744
3.84409
4.2025
4.66607
5.18717
5.71202
6.28083
6.76001
7.17501
2.85496
2.62629
2.65059
2.73202
2.81353
2.92608
2.9978
3.04418
3.08617
3.13987
3.17932
3.23923
3.31544
3.42473
3.59022
3.83463
4.18598
4.65536
5.19099
5.71709
6.30859
6.84174
7.26526
2.86039
2.60024
2.60778
2.68621
2.76456
2.88586
2.96766
3.01374
3.06104
3.11685
3.16283
3.2276
3.30635
3.41605
3.57926
3.81907
4.16388
4.6379
5.18537
5.71327
6.31026
6.87973
7.32299
2.87122
2.57571
2.55543
2.62974
2.70598
2.83696
2.92597
2.97654
3.02885
3.0967
3.14093
3.21139
3.29424
3.40501
3.56923
3.80997
4.14609
4.61414
5.17287
5.70664
6.317
6.89994
7.39717
2.8792
2.56234
2.51832
2.57683
2.65
2.78786
2.88537
2.93565
2.99189
3.06548
3.11644
3.19114
3.27871
3.39123
3.55523
3.7896
4.12898
4.5856
5.16165
5.70379
6.31217
6.89606
7.43914
2.88821
2.55433
2.47263
2.52214
2.58552
2.72747
2.83284
2.88888
2.94891
3.0337
3.08672
3.16628
3.25868
3.37319
3.53845
3.77294
4.10925
4.55304
5.12553
5.66616
6.30763
6.89469
7.44899
2.89537
2.55394
2.44512
2.46902
2.52712
2.66873
2.77672
2.83759
2.89542
2.99207
3.05247
3.13633
3.23381
3.35133
3.51916
3.75126
4.09098
4.51796
5.09519
5.62412
6.29926
6.87277
7.44635
2.90062
2.5596
2.41657
2.42329
2.46353
2.6022
2.71242
2.77795
2.83709
2.9453
3.01243
3.10146