/*--------------------------------*- C++ -*----------------------------------*\
  =========                 |
  \\      /  F ield         | OpenFOAM: The Open Source CFD Toolbox
   \\    /   O peration     | Website:  https://openfoam.org
    \\  /    A nd           | Version:  7
     \\/     M anipulation  |
\*---------------------------------------------------------------------------*/
FoamFile
{
    version     2.0;
    format      ascii;
    class       volScalarField;
    location    "50";
    object      p;
}
// * * * * * * * * * * * * * * * * * * * * * * * * * * * * * * * * * * * * * //

dimensions      [0 2 -2 0 0 0 0];

internalField   nonuniform List<scalar> 
12842
(
1.53314
1.65049
1.82587
2.10945
2.46447
2.8482
3.23525
3.60936
3.95866
4.27998
4.58523
4.90357
5.27807
5.75871
6.39137
7.20433
8.19699
9.33371
10.5466
11.7505
12.8629
13.8237
14.6012
1.49536
1.65171
1.83725
2.14205
2.50639
2.87221
3.20378
3.47088
3.64769
3.72286
3.71073
3.65455
3.62145
3.69219
3.9454
4.4374
5.18461
6.15425
7.26919
8.42798
9.53208
10.5057
11.3211
1.45295
1.63941
1.8439
2.17444
2.54858
2.8983
3.17835
3.34338
3.35345
3.19041
2.87435
2.46598
2.05811
1.76074
1.67934
1.889
2.41236
3.21019
4.19277
5.24578
6.26842
7.17767
7.96519
1.40523
1.61634
1.84524
2.20407
2.58923
2.92733
3.16234
3.23173
3.08103
2.68632
2.0769
1.3343
0.577987
-0.0548904
-0.438541
-0.48755
-0.182257
0.425691
1.23508
2.12735
3.00998
3.80423
4.52238
1.35086
1.59019
1.84246
2.23113
2.62833
2.95986
3.15639
3.13571
2.8286
2.2058
1.30948
0.244927
-0.841254
-1.78732
-2.45353
-2.75167
-2.67133
-2.27868
-1.68121
-0.992737
-0.286519
0.362348
0.988754
1.29181
1.5665
1.83561
2.25706
2.66688
2.99779
3.16321
3.05941
2.60284
1.75856
0.58531
-0.786051
-2.18295
-3.42239
-4.35801
-4.9048
-5.06449
-4.91628
-4.56602
-4.11469
-3.61235
-3.13001
-2.61603
1.23113
1.54666
1.8245
2.28409
2.70753
3.04664
3.1916
3.01633
2.42376
1.3714
-0.0622434
-1.72035
-3.40742
-4.92279
-6.12137
-6.92479
-7.34671
-7.47497
-7.40541
-7.22236
-6.94892
-6.65922
-6.27708
1.17279
1.5292
1.80768
2.30919
2.74445
3.09958
3.23436
3.00171
2.29279
1.05407
-0.614314
-2.53162
-4.48506
-6.25986
-7.71952
-8.79228
-9.49949
-9.93181
-10.1679
-10.2768
-10.2538
-10.185
-9.95522
1.10994
1.51072
1.78964
2.33983
2.79237
3.17914
3.32365
3.06108
2.27357
0.892396
-0.962041
-3.08842
-5.26556
-7.26454
-8.96091
-10.2866
-11.2649
-11.9853
-12.5059
-12.8893
-13.0952
-13.2529
-13.1583
1.05374
1.49153
1.77584
2.37611
2.84893
3.27307
3.43462
3.15507
2.31086
0.818556
-1.18427
-3.47852
-5.84263
-8.03397
-9.9393
-11.4922
-12.7156
-13.6939
-14.466
-15.0915
-15.5072
-15.8621
-15.9312
1.00915
1.47271
1.76621
2.4097
2.9003
3.35832
3.53281
3.23339
2.33282
0.732951
-1.4137
-3.86966
-6.42022
-8.80664
-10.9268
-12.7128
-14.1841
-15.4211
-16.4457
-17.3186
-17.9631
-18.536
-18.8061
0.974666
1.4526
1.76044
2.43765
2.94357
3.42916
3.61068
3.28672
2.3288
0.625094
-1.65954
-4.26677
-6.99706
-9.57247
-11.9018
-13.9143
-15.6263
-17.1169
-18.3953
-19.5223
-20.4145
-21.227
-21.7226
0.947287
1.42997
1.75746
2.45951
2.98005
3.48751
3.67229
3.32137
2.3073
0.50661
-1.90675
-4.64877
-7.54407
-10.2929
-12.8176
-15.0455
-16.9908
-18.7331
-20.2713
-21.6621
-22.8181
-23.8905
-24.6326
0.924705
1.40544
1.75644
2.47608
3.01148
3.53611
3.72246
3.3442
2.27692
0.387842
-2.14432
-5.00383
-8.04988
-10.9588
-13.67
-16.1078
-18.2824
-20.2745
-22.0766
-23.7381
-25.1666
-26.513
-27.5181
0.905853
1.38106
1.75721
2.48948
3.04019
3.57869
3.76682
3.36262
2.24589
0.276893
-2.36725
-5.33231
-8.5242
-11.5919
-14.4928
-17.1447
-19.5486
-21.7873
-23.8548
-25.7914
-27.4941
-29.1167
-30.387
0.889186
1.35917
1.75964
2.50211
3.06825
3.61885
3.81022
3.38242
2.21977
0.177394
-2.57745
-5.64485
-8.98965
-12.228
-15.3345
-18.2146
-20.8541
-23.3358
-25.6666
-27.8795
-29.8501
-31.7398
-33.2666
0.873205
1.34122
1.76349
2.51535
3.09639
3.65847
3.85509
3.40644
2.20092
0.0899902
-2.77857
-5.95091
-9.46273
-12.891
-16.2262
-19.3571
-22.2467
-24.9718
-27.5613
-30.0489
-32.278
-34.4074
-36.1982
0.857111
1.32758
1.76872
2.52967
3.12482
3.69864
3.90281
3.43649
2.191
0.0154421
-2.97229
-6.25428
-9.94934
-13.5878
-17.1764
-20.5836
-23.7429
-26.7127
-29.5496
-32.2993
-34.7641
-37.0849
-39.1288
0.84088
1.31793
1.77535
2.54478
3.1533
3.73958
3.95384
3.47363
2.19157
-0.0439278
-3.15611
-6.55075
-10.4427
-14.3066
-18.1672
-21.8707
-25.3152
-28.5247
-31.5804
-34.5411
-37.1811
-39.6252
-41.8426
0.824664
1.31189
1.78339
2.56038
3.18198
3.7818
4.00891
3.51913
2.20442
-0.085319
-3.32641
-6.83336
-10.9312
-15.0283
-19.1697
-23.1794
-26.9164
-30.3536
-33.5699
-36.6502
-39.4052
-41.9089
-44.1826
0.808959
1.30888
1.79212
2.5752
3.20954
3.8237
4.06617
3.57155
2.22868
-0.107867
-3.48053
-7.09488
-11.4019
-15.7313
-20.1522
-24.4686
-28.501
-32.143
-35.4399
-38.5694
-41.3989
-43.8284
-45.9494
0.793712
1.30897
1.80235
2.59099
3.23916
3.86948
4.13088
3.63675
2.27022
-0.105004
-3.61315
-7.32697
-11.8445
-16.4014
-21.0954
-25.7159
-30.0448
-33.8625
-37.1865
-40.3348
-43.2101
-45.5284
-47.3714
0.780219
1.3109
1.8108
2.60282
3.26379
3.91003
4.19238
3.70424
2.31969
-0.083393
-3.72696
-7.52782
-12.2513
-17.0262
-21.9844
-26.9094
-31.5332
-35.5116
-38.8758
-42.0548
-44.9126
-47.038
-48.5078
0.766325
1.31823
1.82831
2.62985
3.3103
3.97805
4.28589
3.80951
2.41041
-0.0055845
-3.78173
-7.65303
-12.575
-17.5649
-22.7839
-28.0175
-32.9364
-37.1254
-40.641
-43.7853
-46.3633
-48.1078
-49.1974
0.751441
1.32928
1.85146
2.66688
3.36823
4.05753
4.38857
3.92443
2.51225
0.0911224
-3.80715
-7.74026
-12.8482
-18.0516
-23.528
-29.0666
-34.2898
-38.8105
-42.5545
-45.4961
-47.6963
-49.2045
-50.1463
0.746777
1.34779
1.8821
2.71189
3.43271
4.1392
4.48436
4.02085
2.5797
0.14073
-3.89179
-7.89202
-13.1813
-18.593
-24.3195
-30.155
-35.7091
-40.6494
-44.5972
-47.3845
-49.4476
-50.9371
-51.7764
0.751316
1.37069
1.91496
2.75673
3.49221
4.2084
4.55633
4.08134
2.59744
0.131662
-4.04023
-8.10624
-13.5636
-19.1707
-25.1385
-31.2815
-37.2154
-42.6014
-46.8198
-49.7416
-51.939
-53.4861
-54.1979
0.758085
1.39332
1.94542
2.79688
3.54265
4.26233
4.6047
4.11052
2.57661
0.0822865
-4.22669
-8.34798
-13.9521
-19.734
-25.9327
-32.395
-38.7099
-44.5192
-49.1605
-52.5452
-55.0966
-56.7954
-57.5881
0.763438
1.41333
1.97154
2.83099
3.58366
4.30284
4.63494
4.11865
2.53362
0.0152226
-4.42279
-8.58311
-14.3081
-20.2394
-26.6515
-33.4257
-40.1043
-46.3487
-51.5504
-55.6507
-58.7521
-60.8014
-62.0577
0.767332
1.43082
1.99398
2.86038
3.61785
4.33466
4.655
4.11767
2.48509
-0.0486329
-4.6048
-8.78644
-14.6059
-20.6599
-27.258
-34.3174
-41.3603
-48.0725
-53.9239
-58.9386
-62.8293
-65.4808
-67.5041
0.770827
1.44679
2.01444
2.88733
3.64863
4.36305
4.67265
4.11822
2.44475
-0.0932036
-4.75617
-8.943
-14.8328
-20.9849
-27.7345
-35.044
-42.449
-49.6724
-56.2345
-62.281
-67.3725
-71.0398
-73.945
0.774735
1.4621
2.03437
2.9137
3.67875
4.39189
4.69317
4.12697
2.42038
-0.110479
-4.87047
-9.04988
-14.9891
-21.2186
-28.0812
-35.605
-43.366
-51.1485
-58.4063
-65.314
-71.6348
-76.7466
-80.6418
0.779377
1.47727
2.0546
2.94049
3.70955
4.42292
4.71872
4.14609
2.41364
-0.100219
-4.95013
-9.11375
-15.0845
-21.3762
-28.3111
-36.0231
-44.1062
-52.427
-60.4092
-67.9371
-74.9331
-81.0173
-86.3666
0.784764
1.49254
2.07546
2.96795
3.7414
4.4564
4.74918
4.17454
2.42199
-0.0672043
-5.00281
-9.14604
-15.1315
-21.4749
-28.4371
-36.3185
-44.6369
-53.4801
-62.3055
-70.3666
-77.7457
-84.334
-90.5043
0.790717
1.50799
2.09694
2.99597
3.77401
4.49167
4.78327
4.20984
2.44115
-0.0179717
-5.03725
-9.15841
-15.1413
-21.53
-28.4642
-36.4831
-44.8903
-54.1972
-63.8714
-72.3545
-79.787
-86.9694
-93.3097
0.797035
1.52362
2.11889
3.02427
3.80702
4.52796
4.81955
4.24938
2.46697
0.0415387
-5.06062
-9.15963
-15.1199
-21.5497
-28.381
-36.4833
-44.8764
-54.472
-64.5994
-73.4623
-81.1028
-88.2846
-94.6261
0.803509
1.5394
2.14112
3.05261
3.84
4.56454
4.8568
4.29108
2.49621
0.106924
-5.07757
-9.15533
-15.0694
-21.538
-28.1672
-36.2846
-44.6891
-54.4428
-64.3255
-73.1427
-81.1778
-88.1321
-94.2685
0.810027
1.55532
2.16347
3.08083
3.87278
4.60104
4.89431
4.33362
2.52693
0.175708
-5.08991
-9.14763
-14.9871
-21.4944
-27.8041
-35.8498
-44.3365
-54.2939
-63.3554
-71.6048
-79.7487
-86.5506
-92.3578
0.816513
1.57134
2.18585
3.10889
3.90526
4.63724
4.93168
4.37632
2.55811
0.246771
-5.09764
-9.137
-14.8692
-21.4191
-27.2766
-35.1622
-43.8348
-53.9596
-61.9701
-69.3949
-77.2017
-83.7422
-89.1552
0.822992
1.58749
2.20823
3.13682
3.93754
4.67319
4.9689
4.41902
2.58963
0.320184
-5.09916
-9.12242
-14.7106
-21.3088
-26.5828
-34.3272
-43.3363
-52.7498
-60.0037
-66.857
-73.9457
-80.0208
-84.904
0.829489
1.60375
2.2306
3.16472
3.96967
4.70896
5.00602
4.46178
2.62166
0.396345
-5.0926
-9.10348
-14.5078
-21.1603
-25.7399
-33.4499
-42.9354
-50.5098
-57.1429
-63.9296
-70.2185
-75.6471
-79.9495
0.836094
1.62015
2.25303
3.19269
4.00183
4.74474
5.04323
4.50485
2.65471
0.476052
-5.07562
-9.07958
-14.2582
-20.9711
-24.7582
-32.4674
-42.1191
-48.0592
-53.9175
-60.7165
-66.3813
-71.0109
-74.6777
0.842853
1.63669
2.27556
3.22082
4.0341
4.7806
5.08066
4.54842
2.68916
0.559768
-5.04654
-9.0517
-13.9632
-20.7303
-23.639
-31.6144
-40.7591
-45.8769
-51.113
-57.5712
-62.7823
-66.6346
-69.519
0.849849
1.65338
2.29826
3.2492
4.06659
4.81666
5.11843
4.59271
2.7255
0.648029
-5.00356
-9.02129
-13.6251
-20.3947
-22.4692
-31.1897
-39.1794
-43.9946
-48.99
-54.5383
-59.0441
-62.4445
-64.7461
0.857093
1.67022
2.32117
3.27788
4.09933
4.85296
5.15661
4.63784
2.76399
0.740854
-4.94584
-8.9918
-13.239
-19.9158
-21.5782
-30.7991
-37.0605
-41.7203
-46.7574
-50.8001
-54.3547
-56.8445
-58.7086
0.864652
1.68724
2.34434
3.30689
4.13235
4.88952
5.19523
4.6839
2.8049
0.838263
-4.87256
-8.96505
-12.7936
-19.3366
-21.2771
-29.9533
-34.5125
-38.6439
-43.6497
-46.2932
-48.6634
-50.3697
-51.7807
0.872427
1.70438
2.36778
3.33628
4.16573
4.92644
5.23444
4.73114
2.84854
0.940121
-4.78326
-8.94199
-12.2776
-18.6715
-21.4833
-28.5483
-31.7533
-34.8305
-39.4027
-41.3377
-42.8024
-43.9568
-44.762
0.880644
1.72182
2.39168
3.36617
4.19959
4.96386
5.27441
4.77971
2.89521
1.04614
-4.67757
-8.92152
-11.685
-17.9183
-21.9882
-26.9634
-28.7145
-30.6877
-34.5601
-36.3684
-37.2169
-37.8509
-38.1569
0.888312
1.73886
2.4157
3.3965
4.23423
5.00249
5.31622
4.83073
2.94598
1.1551
-4.55271
-8.88789
-11.0525
-17.2579
-22.6143
-25.2532
-25.4397
-26.6335
-29.5583
-31.2249
-31.649
-31.7746
-31.7413
0.895242
1.75613
2.44072
3.42901
4.27231
5.04611
5.36474
4.88941
3.00644
1.26883
-4.39938
-8.80466
-10.4123
-16.6217
-22.9026
-22.9811
-21.7312
-22.4454
-23.9599
-24.9897
-25.1179
-24.896
-24.6381
0.904305
1.7753
2.46882
3.46584
4.31644
5.09767
5.42271
4.95658
3.07386
1.37605
-4.23488
-8.68553
-9.85637
-15.7311
-22.5808
-20.4113
-17.7078
-17.825
-17.7681
-17.7977
-17.6835
-17.3184
-17.0102
0.915773
1.79663
2.50045
3.50741
4.3669
5.15682
5.48819
5.02686
3.13683
1.45625
-4.09743
-8.58977
-9.52686
-14.6334
-21.7465
-17.9161
-13.8235
-13.1811
-11.9037
-10.9492
-10.6701
-10.3859
-10.1819
0.928477
1.81921
2.5346
3.55246
4.42179
5.22042
5.55588
5.09133
3.18043
1.48695
-4.0294
-8.58566
-9.53987
-13.6086
-20.6613
-15.701
-10.6029
-9.35332
-7.32632
-5.73254
-5.40844
-5.43836
-5.52636
0.941781
1.8425
2.57044
3.59983
4.47938
5.28574
5.62145
5.14323
3.1939
1.45363
-4.06066
-8.72483
-9.96327
-13.0057
-19.5806
-13.9756
-8.40709
-6.89678
-4.52487
-2.79231
-2.55198
-3.11803
-3.73584
0.955527
1.86615
2.60724
3.64832
4.5378
5.35009
5.68137
5.17882
3.17382
1.35645
-4.19451
-9.01486
-10.7461
-12.9715
-18.7676
-13.0136
-7.43504
-6.04563
-3.59871
-2.21434
-2.18742
-3.40914
-4.72323
0.969606
1.89
2.64471
3.6975
4.59652
5.41282
5.73497
5.19784
3.12066
1.20024
-4.42199
-9.44474
-11.8419
-13.5833
-18.1082
-12.7051
-7.53518
-6.39153
-4.19523
-3.46975
-3.76808
-5.66145
-7.71798
0.984424
1.91459
2.68333
3.7481
4.65648
5.47539
5.78487
5.2058
3.04532
1.00558
-4.71716
-9.97035
-13.067
-14.621
-17.421
-12.7313
-8.21574
-7.26651
-5.65649
-5.68449
-6.4035
-8.90631
-11.5868
1.00021
1.93989
2.72323
3.79962
4.71681
5.53651
5.83009
5.20393
2.95404
0.792273
-5.04849
-10.5833
-14.4863
-16.1335
-17.2017
-13.3693
-9.53122
-9.00377
-8.26102
-8.98309
-10.2814
-13.3245
-16.5191
1.01555
1.96438
2.76177
3.84886
4.77316
5.59072
5.86418
5.18576
2.84168
0.558018
-5.40707
-11.2486
-15.9523
-17.8635
-17.5492
-14.5299
-11.387
-11.6223
-11.7714
-12.99
-14.8812
-18.2038
-21.5727
1.03007
1.98762
2.79829
3.89512
4.82505
5.6382
5.88857
5.15528
2.71609
0.315994
-5.76421
-11.9028
-17.2836
-19.5439
-18.1952
-15.73
-13.3323
-14.3561
-15.2045
-16.6228
-18.8068
-22.0403
-25.281
1.04427
2.01026
2.83375
3.93981
4.87453
5.68211
5.9084
5.12099
2.59113
0.0881491
-6.08226
-12.4789
-18.2282
-20.9558
-19.0417
-16.9275
-15.1698
-16.7747
-17.9488
-19.247
-21.2495
-23.9719
-26.5236
1.0585
2.03276
2.86888
3.98389
4.92308
5.72484
5.92752
5.08924
2.47718
-0.109162
-6.33465
-12.9274
-18.6397
-21.9999
-19.9361
-18.3272
-16.8501
-18.7463
-19.7914
-20.7008
-22.1127
-23.8053
-25.1977
1.07277
2.05519
2.90387
4.02772
4.97131
5.76737
5.9476
5.06278
2.37851
-0.270249
-6.51349
-13.2303
-18.5915
-22.7494
-20.7281
-19.7173
-18.3186
-20.1819
-20.7548
-21.1436
-21.5922
-21.9815
-22.1498
1.08706
2.07757
2.93875
4.07131
5.01926
5.80991
5.96901
5.04205
2.29532
-0.396794
-6.62428
-13.4002
-18.2202
-23.3068
-21.4046
-20.8373
-19.4858
-21.0119
-20.9856
-20.7556
-20.0199
-19.2106
-18.3023
1.1013
2.09985
2.97343
4.11461
5.06688
5.85234
5.99151
5.02628
2.22546
-0.494982
-6.68111
-13.4677
-17.6599
-23.8145
-22.051
-21.6789
-20.2725
-21.2513
-20.5896
-19.6152
-17.8342
-16.0273
-14.201
1.11548
2.12202
3.00791
4.15752
5.11401
5.89448
6.0147
5.01448
2.16628
-0.571819
-6.69992
-13.4683
-16.9902
-24.2857
-22.6648
-22.2649
-20.6508
-20.9738
-19.6465
-17.8263
-15.3311
-12.7272
-10.2026
1.12955
2.14405
3.04209
4.19998
5.16058
5.93617
6.03823
5.00558
2.1151
-0.634282
-6.69656
-13.4427
-16.3113
-24.6168
-23.1468
-22.584
-20.6505
-20.2962
-18.3293
-15.7082
-12.7218
-9.5374
-6.58399
1.14353
2.16595
3.07598
4.24193
5.20649
5.97728
6.06184
4.99883
2.06988
-0.687746
-6.68359
-13.4274
-15.7192
-24.768
-23.4238
-22.6468
-20.3278
-19.3548
-16.8382
-13.5788
-10.2412
-6.73134
-3.58765
1.15737
2.18767
3.10951
4.28337
5.25175
6.01779
6.08533
4.99358
2.02889
-0.736564
-6.67105
-13.4513
-15.2783
-24.7814
-23.4952
-22.4831
-19.7603
-18.2895
-15.3278
-11.6261
-8.09196
-4.53736
-1.39975
1.17109
2.20926
3.14271
4.32426
5.29631
6.05762
6.1086
4.98943
1.99107
-0.78335
-6.66497
-13.5317
-15.0129
-24.6887
-23.3863
-22.1131
-19.0298
-17.2243
-13.9294
-9.95706
-6.38328
-3.01081
-0.0416241
1.18465
2.23066
3.17552
4.36463
5.34019
6.09678
6.13152
4.98599
1.95554
-0.829946
-6.669
-13.6769
-14.9196
-24.5161
-23.1235
-21.5544
-18.2145
-16.239
-12.7282
-8.64148
-5.16367
-2.07915
0.636854
1.19809
2.25191
3.20799
4.40443
5.38333
6.13518
6.154
4.98304
1.92189
-0.876862
-6.6834
-13.886
-14.9759
-24.2909
-22.7266
-20.8584
-17.3953
-15.3693
-11.7433
-7.69635
-4.41918
-1.64267
0.799878
1.21135
2.27295
3.24006
4.44369
5.42575
6.17281
6.17592
4.9803
1.88976
-0.924247
-6.70692
-14.1519
-15.1502
-24.043
-22.2105
-20.088
-16.6659
-14.6538
-10.9766
-7.09023
-4.0692
-1.58707
0.572073
1.2245
2.29381
3.27175
4.48235
5.46736
6.20953
6.19715
4.97764
1.85916
-0.971322
-6.73596
-14.4617
-15.4064
-23.7921
-21.5809
-19.297
-16.0964
-14.14
-10.4655
-6.78109
-4.00306
-1.77102
0.109382
1.23747
2.31443
3.30301
4.52041
5.50816
6.2453
6.21757
4.97486
1.83004
-1.01729
-6.76637
-14.8002
-15.711
-23.5593
-20.8664
-18.5513
-15.6858
-13.8483
-10.252
-6.75554
-4.14107
-2.07129
-0.419662
1.25031
2.33486
3.33387
4.5578
5.54801
6.27996
6.23704
4.97191
1.80266
-1.06076
-6.79261
-15.1499
-16.0382
-23.3536
-20.0722
-17.9396
-15.432
-13.7479
-10.3143
-6.9751
-4.42474
-2.40938
-0.907836
1.26298
2.35502
3.36425
4.59451
5.5869
6.31346
6.25545
4.96867
1.77716
-1.10056
-6.80947
-15.4921
-16.3697
-23.2208
-19.3319
-17.5851
-15.3692
-13.7829
-10.5608
-7.31453
-4.74929
-2.72418
-1.31245
1.2755
2.37495
3.39417
4.63046
5.62471
6.34564
6.2727
4.96512
1.75388
-1.13518
-6.81147
-15.8105
-16.6861
-23.1773
-18.9028
-17.5204
-15.4783
-13.9205
-10.8588
-7.621
-4.98266
-2.93307
-1.58956
1.28782
2.39458
3.42355
4.66563
5.66141
6.37645
6.28868
4.9612
1.73301
-1.16353
-6.79453
-16.0954
-16.9549
-23.0465
-18.7927
-17.6642
-15.7133
-14.1321
-11.1086
-7.79356
-5.055
-3.00727
-1.73019
1.29999
2.41394
3.45242
4.69993
5.69687
6.40574
6.30331
4.9569
1.71488
-1.18431
-6.75472
-16.3356
-17.1574
-22.7171
-18.8327
-17.9079
-16.0141
-14.3697
-11.2675
-7.81623
-5.00268
-3.00264
-1.792
1.31193
2.43296
3.48069
4.73335
5.73107
6.43346
6.3165
4.95215
1.69965
-1.19675
-6.68946
-16.5208
-17.2944
-22.2223
-18.8932
-18.1528
-16.3133
-14.5677
-11.2972
-7.71297
-4.89545
-2.99218
-1.84964
1.32369
2.45169
3.50837
4.76579
5.76387
6.45948
6.32816
4.94696
1.68756
-1.19987
-6.59659
-16.6425
-17.3749
-21.6106
-18.9112
-18.3276
-16.5405
-14.6264
-11.1611
-7.52235
-4.77756
-2.99307
-1.91796
1.33519
2.47003
3.53538
4.79724
5.79527
6.48375
6.33822
4.94121
1.67867
-1.19322
-6.47568
-16.6965
-17.4137
-20.9061
-18.8839
-18.4367
-16.6487
-14.4906
-10.909
-7.31784
-4.69404
-3.03044
-2.01433
1.34648
2.48803
3.56173
4.82761
5.82512
6.50612
6.34656
4.93487
1.67315
-1.17615
-6.32699
-16.6808
-17.4304
-20.1457
-18.8077
-18.4652
-16.6194
-14.2209
-10.6385
-7.17158
-4.692
-3.14489
-2.17515
1.35748
2.50562
3.58735
4.85687
5.8534
6.52655
6.35312
4.92781
1.671
-1.14846
-6.15261
-16.5958
-17.4504
-19.3839
-18.7008
-18.3633
-16.4472
-13.9054
-10.403
-7.10208
-4.77833
-3.33367
-2.39343
1.36824
2.52281
3.61222
4.88493
5.87996
6.54488
6.35776
4.91997
1.67232
-1.10967
-5.95527
-16.4406
-17.4959
-18.6589
-18.5708
-18.0862
-16.1599
-13.6136
-10.2133
-7.0964
-4.9233
-3.56351
-2.63607
1.37867
2.53953
3.63627
4.91176
5.9048
6.56108
6.3604
4.91119
1.67706
-1.05964
-5.73943
-16.2131
-17.5769
-17.9893
-18.3945
-17.6533
-15.8067
-13.3332
-10.0713
-7.15186
-5.11931
-3.8242
-2.89893
1.38883
2.55582
3.65949
4.93725
5.92774
6.57495
6.36092
4.9014
1.6853
-0.997891
-5.51014
-15.908
-17.6856
-17.3983
-18.1227
-17.1469
-15.4271
-13.0298
-9.97912
-7.26838
-5.37373
-4.12163
-3.19551
1.39862
2.57157
3.6818
4.96138
5.94877
6.58646
6.35924
4.89043
1.69697
-0.924159
-5.27406
-15.5197
-17.7973
-16.9279
-17.7171
-16.6748
-15.0663
-12.7249
-9.90497
-7.41103
-5.64383
-4.42758
-3.50135
1.40811
2.58683
3.70319
4.98403
5.9677
6.59542
6.35521
4.87818
1.7121
-0.837722
-5.0386
-15.0455
-17.8797
-16.6482
-17.1886
-16.281
-14.754
-12.4411
-9.83078
-7.54804
-5.89403
-4.71238
-3.78001
1.41719
2.60151
3.72356
5.00516
5.98452
6.60179
6.34876
4.86446
1.73056
-0.737985
-4.81274
-14.4954
-17.8877
-16.5813
-16.6577
-15.9121
-14.4486
-12.1803
-9.7735
-7.68245
-6.12955
-4.98788
-4.05276
1.42592
2.61562
3.74291
5.02465
5.99903
6.60537
6.33976
4.84917
1.75237
-0.623684
-4.60629
-13.8947
-17.7661
-16.6523
-16.231
-15.5209
-14.1091
-11.9571
-9.73723
-7.80907
-6.36409
-5.26708
-4.34333
1.4342
2.62908
3.76111
5.04246
6.01118
6.60609
6.3281
4.83205
1.77716
-0.494031
-4.42669
-13.2739
-17.511
-16.7108
-15.8882
-15.1161
-13.7144
-11.7333
-9.69716
-7.92546
-6.57475
-5.52121
-4.62417
1.44205
2.6419
3.77819
5.05847
6.02085
6.60383
6.31372
4.81292
1.80517
-0.345946
-4.28455
-12.6601
-17.155
-16.6189
-15.5733
-14.7428
-13.3049
-11.4656
-9.62078
-8.0031
-6.7474
-5.74159
-4.87652
1.44957
2.65409
3.79402
5.07254
6.02777
6.59819
6.29615
4.79133
1.83442
-0.183261
-4.17431
-12.0607
-16.7141
-16.313
-15.2968
-14.4228
-12.9532
-11.2232
-9.54607
-8.08641
-6.91897
-5.9657
-5.13157
1.45654
2.66565
3.80883
5.08497
6.03225
6.58926
6.27475
4.76498
1.86595
0.00670218
-4.13644
-11.6712
-16.2976
-15.8816
-15.0169
-14.075
-12.5942
-10.9682
-9.43413
-8.09377
-7.00285
-6.10149
-5.30354
1.46589
2.67849
3.82375
5.09551
6.03201
6.57178
6.24191
4.72854
1.87912
0.13597
-4.04182
-11.0164
-15.481
-15.1789
-14.5441
-13.7102
-12.3993
-10.9277
-9.52566
-8.27454
-7.23621
-6.3618
-5.57709
1.47445
2.6888
3.83451
5.09726
6.01858
6.53634
6.19047
4.68499
1.88392
0.172098
-4.06843
-10.6348
-14.8372
-14.6008
-13.9697
-13.1785
-11.9871
-10.607
-9.26589
-8.07327
-7.08584
-6.257
-5.50774
1.47935
2.69421
3.83668
5.08516
5.98444
6.47263
6.10667
4.61488
1.85356
0.11913
-4.11047
-10.2097
-14.0665
-13.9187
-13.3186
-12.5228
-11.3678
-10.0742
-8.79998
-7.67144
-6.73356
-5.9466
-5.23662
1.47986
2.69367
3.8288
5.05765
5.92757
6.37762
5.98433
4.50373
1.77184
0.000253369
-4.11246
-9.58199
-13.0678
-13.0442
-12.6135
-11.8195
-10.6696
-9.4586
-8.26538
-7.20795
-6.31964
-5.56754
-4.88782
1.47816
2.68857
3.81248
5.01653
5.8505
6.25518
5.82879
4.35729
1.65239
-0.143984
-4.05451
-8.79589
-11.935
-12.0516
-11.8352
-11.0798
-10.0194
-8.88809
-7.77259
-6.78045
-5.93893
-5.22383
-4.56592
1.47567
2.67979
3.78885
4.9629
5.75523
6.10936
5.64766
4.18843
1.52107
-0.270767
-3.92539
-7.9532
-10.7328
-10.9841
-10.891
-10.2533
-9.35868
-8.3515
-7.33813
-6.41657
-5.62628
-4.95235
-4.32815
1.47167
2.66659
3.75702
4.89594
5.64153
5.94162
5.44583
4.00815
1.40184
-0.346836
-3.70996
-7.10556
-9.47848
-9.82795
-9.83156
-9.3602
-8.63065
-7.77779
-6.89353
-6.07992
-5.37088
-4.75788
-4.17934
1.46515
2.64765
3.71522
4.81337
5.50721
5.75098
5.22523
3.82388
1.31184
-0.352236
-3.39308
-6.22332
-8.20794
-8.57921
-8.7138
-8.41939
-7.86508
-7.16438
-6.42396
-5.72046
-5.08929
-4.53227
-4.00213
1.45502
2.62153
3.66138
4.71274
5.34986
5.53616
4.98721
3.64112
1.26159
-0.279407
-2.97373
-5.28696
-6.91368
-7.31352
-7.52618
-7.38424
-6.99492
-6.44404
-5.82057
-5.20517
-4.65637
-4.17572
-3.71695
1.44078
2.58702
3.59374
4.5917
5.16742
5.29661
4.73381
3.46431
1.25487
-0.132374
-2.46492
-4.33419
-5.58878
-6.02532
-6.27933
-6.24394
-5.97596
-5.53746
-5.02551
-4.51485
-4.05773
-3.6584
-3.27438
1.4217
2.54276
3.51041
4.4484
4.95884
5.03329
4.46839
3.29666
1.28864
0.0740288
-1.89276
-3.38112
-4.30694
-4.71581
-5.01172
-5.03146
-4.84367
-4.50755
-4.09496
-3.68076
-3.31612
-3.00231
-2.69999
1.39733
2.48751
3.40981
4.28127
4.72388
4.74829
4.1946
3.13862
1.35251
0.314964
-1.30366
-2.46036
-3.1073
-3.47611
-3.7618
-3.82156
-3.69925
-3.4451
-3.13073
-2.82766
-2.57354
-2.36217
-2.15885
1.36679
2.41974
3.29022
4.08944
4.46348
4.4448
3.91564
2.98695
1.4295
0.55934
-0.746246
-1.62344
-2.04949
-2.36028
-2.62762
-2.70996
-2.64759
-2.48966
-2.3005
-2.13254
-2.00594
-1.90943
-1.81482
1.32951
2.33813
3.15041
3.87253
4.17935
4.12619
3.63277
2.83394
1.49751
0.772762
-0.270495
-0.915887
-1.191
-1.44871
-1.69195
-1.80551
-1.8231
-1.78444
-1.73533
-1.706
-1.70243
-1.71308
-1.71652
1.28444
2.24108
2.98925
3.63118
3.87422
3.79557
3.34482
2.66837
1.53239
0.922737
0.083006
-0.385433
-0.559993
-0.782628
-1.0185
-1.18166
-1.28998
-1.36776
-1.44031
-1.52049
-1.60855
-1.69666
-1.77004
1.23095
2.12758
2.80645
3.36675
3.55112
3.45486
3.04807
2.47794
1.51374
0.986566
0.294084
-0.0483693
-0.166181
-0.365661
-0.611579
-0.824993
-1.00557
-1.16408
-1.3127
-1.45621
-1.59411
-1.72222
-1.83091
1.168
1.99654
2.60221
3.08167
3.21333
3.10488
2.73786
2.25303
1.43019
0.958376
0.369975
0.107441
0.0221489
-0.169291
-0.4239
-0.665484
-0.881951
-1.07675
-1.2555
-1.42065
-1.57316
-1.7118
-1.83032
1.09525
1.84792
2.37794
2.77897
2.86383
2.74571
2.41076
1.99047
1.28224
0.849143
0.33854
0.125786
0.0563135
-0.134135
-0.383764
-0.625485
-0.843836
-1.03983
-1.21736
-1.37859
-1.52535
-1.65788
-1.77191
1.01209
1.68198
2.13575
2.46243
2.50567
2.37822
2.06746
1.69554
1.08246
0.682764
0.238233
0.0617912
-0.00298412
-0.190882
-0.421362
-0.642349
-0.840938
-1.01819
-1.17759
-1.32115
-1.45089
-1.56776
-1.6691
0.918998
1.50052
1.87907
2.13628
2.14245
2.0057
1.71407
1.38135
0.851604
0.48869
0.106284
-0.0407696
-0.104551
-0.281467
-0.482399
-0.671922
-0.84108
-0.991704
-1.12679
-1.24818
-1.35772
-1.45666
-1.54332
0.816491
1.30605
1.61211
1.80564
1.77936
1.63501
1.36185
1.06548
0.612653
0.292383
-0.0295563
-0.15181
-0.214349
-0.372993
-0.540327
-0.696459
-0.835242
-0.958973
-1.07029
-1.1705
-1.26104
-1.34284
-1.41509
0.706401
1.1028
1.34046
1.47684
1.42381
1.27632
1.02484
0.765787
0.386015
0.11214
-0.151489
-0.250847
-0.31066
-0.447167
-0.581828
-0.706463
-0.817225
-0.916398
-1.00581
-1.08621
-1.15863
-1.22416
-1.28253
0.591096
0.896014
1.07076
1.15769
1.08542
0.941482
0.716781
0.49698
0.186368
-0.0405114
-0.250001
-0.328042
-0.382374
-0.495978
-0.60137
-0.698536
-0.785444
-0.863625
-0.934092
-0.997501
-1.0548
-1.10697
-1.15355
0.474056
0.692523
0.811045
0.857663
0.774704
0.641651
0.448205
0.268316
0.0213207
-0.160818
-0.322536
-0.381698
-0.428288
-0.519931
-0.600725
-0.675638
-0.743077
-0.803775
-0.858674
-0.908197
-0.953205
-0.99431
-1.031
0.359702
0.500014
0.570668
0.586612
0.501569
0.38519
0.225154
0.0834561
-0.107238
-0.249105
-0.370623
-0.414099
-0.452223
-0.524362
-0.585476
-0.642478
-0.693576
-0.739731
-0.781699
-0.819825
-0.854503
-0.885916
-0.91395
0.252766
0.327286
0.359177
0.354074
0.273552
0.176946
0.0493047
-0.0582817
-0.201433
-0.308996
-0.398045
-0.428964
-0.458309
-0.513742
-0.558925
-0.600796
-0.638301
-0.672913
-0.704809
-0.733871
-0.760013
-0.783512
-0.804525
0.159239
0.183049
0.186018
0.167979
0.096027
0.0191142
-0.0797159
-0.159046
-0.264021
-0.344036
-0.408216
-0.430099
-0.451882
-0.494048
-0.526522
-0.55643
-0.583813
-0.6093
-0.632942
-0.654504
-0.67384
-0.691126
-0.706698
0.0833802
0.0746561
0.0585176
0.0341651
-0.027507
-0.0869606
-0.162214
-0.219947
-0.296111
-0.355499
-0.402132
-0.418587
-0.435084
-0.467131
-0.490179
-0.511752
-0.531837
-0.55053
-0.567701
-0.583266
-0.597346
-0.609941
-0.621247
0.0327878
0.0103666
-0.0146039
-0.0393314
-0.0896595
-0.133957
-0.190113
-0.231301
-0.285581
-0.328943
-0.362584
-0.374863
-0.386228
-0.408705
-0.423096
-0.436363
-0.448496
-0.459775
-0.470127
-0.479676
-0.488129
-0.49554
-0.502043
-0.00649685
-0.0205085
-0.0418013
-0.0577485
-0.0931662
-0.122575
-0.163245
-0.193664
-0.235414
-0.272064
-0.303145
-0.320845
-0.338669
-0.365335
-0.386798
-0.407775
-0.425817
-0.440072
-0.451194
-0.46009
-0.467617
-0.474023
-0.479361
0.0333897
0.0302263
0.0213178
0.0171196
0.00241084
-0.00465097
-0.0192811
-0.0246784
-0.0373591
-0.0474301
-0.0525331
-0.0488102
-0.0433412
-0.0412851
-0.0340427
-0.0266784
-0.0220718
-0.0219892
-0.0255891
-0.0297213
-0.0327418
-0.0346169
-0.0358187
1.05297
0.980913
1.11545
1.32823
1.60319
1.98616
2.54528
3.33433
4.42402
5.87912
7.71538
9.92797
12.4588
15.2406
18.1838
21.1965
24.1766
27.0221
29.6391
31.9575
33.9342
35.563
36.8634
1.10989
1.10132
1.21712
1.44228
1.73111
2.11935
2.669
3.43183
4.46957
5.84092
7.56898
9.65258
12.0474
14.6905
17.4955
20.3657
23.1938
25.8723
28.3048
30.4244
32.1943
33.624
34.7347
1.17672
1.22688
1.33631
1.56651
1.86894
2.26208
2.79802
3.52436
4.49362
5.75748
7.34393
9.25774
11.4692
13.9252
16.5477
19.2415
21.898
24.4059
26.6654
28.6081
30.1987
31.4563
32.4029
1.2548
1.3501
1.46691
1.69824
2.01141
2.40898
2.92942
3.61361
4.50476
5.64647
7.06812
8.78021
10.7665
12.9872
15.3773
17.8502
20.3028
22.6253
24.7167
26.5046
27.9508
29.0756
29.8979
1.34368
1.46196
1.59547
1.8282
2.14785
2.54745
3.05042
3.68834
4.49501
5.50531
6.74714
8.23524
9.96497
11.9106
14.0233
16.2307
18.4417
20.5542
22.4705
24.116
25.4465
26.476
27.22
1.43605
1.55109
1.70096
1.93678
2.25815
2.65443
3.1353
3.72173
4.43794
5.31032
6.36321
7.61432
9.06856
10.7148
12.5207
14.4311
16.3699
18.248
19.9746
21.4758
22.7031
23.6596
24.3535
1.5128
1.60867
1.76923
2.0131
2.33747
2.72799
3.18281
3.71157
4.32844
5.05079
5.89829
6.89005
8.03995
9.35174
10.8121
12.386
14.0181
15.636
17.16
18.5184
19.6599
20.5732
21.2542
1.54925
1.64041
1.80981
2.07252
2.41178
2.80261
3.23179
3.69673
4.19963
4.74758
5.35484
6.04251
6.83504
7.7548
8.81356
10.005
11.3007
12.6499
13.9838
15.23
16.3259
17.2379
17.9443
0.61578
0.120291
0.444224
0.435664
0.643876
0.934508
1.31905
2.09696
3.24433
4.92903
7.08231
9.71917
12.6429
15.8145
19.0838
22.3849
25.5908
28.5967
31.3025
33.6464
35.6007
37.1921
38.4445
0.628099
0.150613
0.470071
0.464692
0.682121
0.971771
1.37036
2.14908
3.30034
4.9867
7.13699
9.7798
12.7229
15.9368
19.2817
22.6949
26.0565
29.2588
32.1973
34.7955
37.0123
38.8549
40.3348
0.6423
0.185876
0.502898
0.500777
0.72929
1.01942
1.43179
2.20826
3.35867
5.03721
7.17484
9.80784
12.7542
15.9892
19.3859
22.8827
26.3672
29.7303
32.8653
35.6848
38.1359
40.2071
41.9017
0.657939
0.224711
0.542602
0.544489
0.785803
1.08012
1.50798
2.28298
3.43192
5.09817
7.21801
9.82988
12.7657
16.0028
19.4273
22.9784
26.5503
30.0337
33.3207
36.3162
38.9601
41.223
43.1047
0.675405
0.266161
0.588817
0.596395
0.852662
1.15591
1.60285
2.37941
3.52829
5.18114
7.28046
9.8638
12.7781
16.0012
19.432
23.0101
26.6353
30.1984
33.5908
36.7125
39.4984
41.9066
43.9361
0.694844
0.30901
0.639857
0.655445
0.927331
1.24443
1.71433
2.49687
3.6489
5.28979
7.36882
9.91963
12.8044
16.0004
19.4181
22.998
26.6447
30.2489
33.7015
36.8989
39.7742
42.2762
44.4063
0.716703
0.352122
0.692435
0.718723
1.00471
1.33879
1.83428
2.62699
3.78565
5.41772
7.47908
9.99728
12.8488
16.0088
19.398
22.958
26.5979
30.2087
33.6802
36.9069
39.8212
42.3658
44.5461
0.741182
0.394053
0.741211
0.78054
1.07594
1.42729
1.94919
2.75651
3.92753
5.55864
7.61188
10.1064
12.9302
16.0542
19.4067
22.9302
26.538
30.1226
33.5739
36.7856
39.6904
42.2288
44.4118
0.768393
0.436343
0.784077
0.838985
1.13801
1.5048
2.0514
2.87553
4.06237
5.69918
7.75337
10.235
13.0403
16.1338
19.4476
22.9246
26.4818
30.0143
33.4131
36.5728
39.4274
41.9171
44.0615
0.798523
0.48278
0.822516
0.895976
1.19281
1.57155
2.13787
2.97637
4.17659
5.81894
7.87629
10.3503
13.1435
16.2121
19.489
22.9161
26.412
29.8754
33.199
36.2798
39.0531
41.4621
43.5316
0.831987
0.536674
0.858061
0.953025
1.24233
1.62749
2.20601
3.05267
4.25869
5.90077
7.95642
10.4224
13.2043
16.2518
19.494
22.8706
26.3001
29.684
32.9177
35.9015
38.5726
40.8773
42.8458
0.869133
0.601408
0.893883
1.01361
1.29257
1.67889
2.26131
3.10744
4.30825
5.93787
7.98028
10.4283
13.1921
16.2143
19.4197
22.7434
26.1022
29.3998
32.534
35.4098
37.9659
40.1542
42.0052
0.909532
0.678812
0.932759
1.07936
1.34935
1.73375
2.31388
3.15189
4.3361
5.93945
7.9523
10.3668
13.0975
16.0828
19.2419
22.5048
25.785
28.9873
32.0124
34.7706
37.2033
39.2676
40.9938
0.952329
0.76848
0.977662
1.15022
1.41543
1.79723
2.37128
3.19564
4.35422
5.91817
7.88582
10.2493
12.9303
15.8636
18.9645
22.1562
25.3483
28.4451
31.3499
33.9796
36.279
38.2141
39.8122
0.999482