/*--------------------------------*- C++ -*----------------------------------*\
  =========                 |
  \\      /  F ield         | OpenFOAM: The Open Source CFD Toolbox
   \\    /   O peration     | Website:  https://openfoam.org
    \\  /    A nd           | Version:  7
     \\/     M anipulation  |
\*---------------------------------------------------------------------------*/
FoamFile
{
    version     2.0;
    format      ascii;
    class       surfaceScalarField;
    location    "50";
    object      phi;
}
// * * * * * * * * * * * * * * * * * * * * * * * * * * * * * * * * * * * * * //

dimensions      [0 3 -1 0 0 0 0];

internalField   nonuniform List<scalar> 
25449
(
66.3709
55.7015
-32.1099
49.2472
41.3616
-24.2378
36.7117
30.8506
-18.3149
27.4714
23.0803
-13.84
20.6218
17.3087
-10.459
15.5209
13.0094
-7.90851
11.7081
9.80028
-5.98749
8.84937
7.40108
-4.54239
6.70061
5.60485
-3.45609
5.08218
4.25775
-2.63932
3.86135
3.24509
-2.02426
2.93959
2.48145
-1.55968
2.24342
1.90337
-1.2072
1.7178
1.46389
-0.938263
1.32126
1.12832
-0.73178
1.02246
0.87098
-0.572177
0.797619
0.672842
-0.448
0.628674
0.519762
-0.350816
0.501895
0.401179
-0.274399
0.406853
0.309191
-0.214149
0.335649
0.237804
-0.1666
0.282304
0.182505
-0.12916
0.139638
-0.0996863
0.242353
50.8614
73.4287
37.8943
54.3288
28.3447
40.4002
21.274
30.151
16.0142
22.5684
12.0864
16.9372
9.14382
12.7429
6.93305
9.61184
5.26796
7.26992
4.01125
5.51445
3.06128
4.19506
2.34258
3.20014
1.79885
2.4471
1.3878
1.87495
1.07749
1.43862
0.843688
1.10478
0.667893
0.848638
0.535988
0.651667
0.437198
0.499969
0.363315
0.383075
0.308107
0.293012
0.266855
0.223758
0.170449
0.236044
38.0477
86.2938
28.5214
63.8552
21.441
47.4807
16.1619
35.4301
12.2136
26.5167
9.25277
19.898
7.02709
14.9685
5.34994
11.289
4.08319
8.53668
3.12441
6.47324
2.39764
4.92185
1.84641
3.75137
1.4285
2.86502
1.11211
2.19134
0.873109
1.67763
0.693033
1.28486
0.55773
0.983944
0.456328
0.75307
0.380498
0.5758
0.323882
0.439692
0.281648
0.335247
0.250141
0.255266
0.193952
0.226639
28.0953
95.3298
21.2642
70.6865
16.1087
52.6362
12.2206
39.3182
9.28702
29.4503
7.07244
22.1126
5.39895
16.642
4.13223
12.5557
3.1715
9.49738
2.44144
7.20329
1.88591
5.47737
1.46313
4.17414
1.14172
3.18642
0.897905
2.43514
0.713525
1.86201
0.574567
1.42382
0.470191
1.08832
0.39202
0.831242
0.333608
0.634212
0.290029
0.483272
0.257537
0.367738
0.233307
0.279497
0.212028
0.215231
20.6348
101.433
15.8514
75.4701
12.147
56.3407
9.30075
42.1645
7.1231
31.6279
5.46221
23.7735
4.19719
17.907
3.23336
13.5195
2.4981
10.2326
1.9363
7.76509
1.50659
5.90708
1.1781
4.50264
0.927427
3.4371
0.73675
2.62582
0.592295
2.00647
0.483322
1.5328
0.401437
1.17021
0.340096
0.892584
0.294248
0.680062
0.260022
0.517498
0.234483
0.393279
0.215417
0.298563
0.226275
0.201172
15.1688
105.325
11.9133
78.7257
9.28004
58.9741
7.19608
44.2484
5.56737
33.2566
4.30636
25.0345
3.33515
18.8782
2.58851
14.2661
2.01455
10.8066
1.57289
8.20675
1.23282
6.24714
0.971352
4.76409
0.770839
3.6376
0.617727
2.77893
0.501406
2.12278
0.41349
1.62071
0.347335
1.23636
0.297708
0.94221
0.260551
0.71722
0.232752
0.545297
0.211953
0.414078
0.196388
0.314129
0.237942
0.184721
11.2326
107.563
9.10375
80.8547
7.2493
60.8285
5.713
45.7847
4.47467
34.495
3.49589
26.0132
2.73087
19.6432
2.13605
14.8609
1.67457
11.2681
1.3165
8.56481
1.03866
6.52499
0.823605
4.97915
0.657678
3.80353
0.530336
2.90627
0.433198
2.21992
0.359543
1.69437
0.303965
1.29194
0.262153
0.984026
0.230741
0.748633
0.207149
0.568891
0.189421
0.431807
0.176098
0.327452
0.247971
0.166069
8.43597
108.57
7.13139
82.1594
5.83717
62.1228
4.68879
46.9331
3.72343
35.4603
2.94009
26.7966
2.31681
20.2665
1.82571
15.352
1.44067
11.6531
1.13912
8.86635
0.903044
6.76105
0.718984
5.16319
0.575996
3.9465
0.465645
3.01661
0.381085
2.30447
0.316727
1.75872
0.267993
1.34067
0.231178
1.02084
0.203385
0.776426
0.182386
0.58989
0.166513
0.447679
0.154503
0.339462
0.257052
0.145422
5.95656
110.579
4.4722
83.644
3.37366
63.2214
2.56055
47.7462
1.95529
36.0656
1.50459
27.2473
1.16734
20.6037
0.912888
15.6065
0.719164
11.8468
0.570197
9.01533
0.454708
6.87654
0.365161
5.25274
0.295735
4.01593
0.242214
3.07013
0.201243
2.34545
0.170118
1.78985
0.146613
1.36418
0.128909
1.03855
0.115571
0.789765
0.105499
0.599963
0.0978712
0.455307
0.0920891
0.345244
0.261472
0.0876688
4.00225
111.938
3.00343
84.6429
2.26811
63.9567
1.72685
48.2875
1.32572
36.4667
1.0286
27.5444
0.80704
20.8253
0.639834
15.7737
0.512009
11.9746
0.412916
9.1144
0.335181
6.95425
0.274278
5.31362
0.226526
4.06365
0.189369
3.10727
0.160704
2.3741
0.138796
1.81174
0.12217
1.3808
0.109576
1.05114
0.100017
0.799321
0.0927274
0.607253
0.0871368
0.460897
0.0828428
0.349538
0.264804
0.0795107
2.55794
112.815
1.91877
85.2821
1.4519
64.4236
1.111
48.6284
0.8602
36.7175
0.676034
27.7285
0.53949
20.9618
0.436367
15.8768
0.356912
12.0541
0.294425
9.1769
0.244381
7.00431
0.204491
5.35352
0.172622
4.09553
0.147434
3.13247
0.127743
2.39379
0.11253
1.82696
0.100876
1.39246
0.0919558
1.06006
0.0850959
0.806182
0.0797791
0.61257
0.0756201
0.465056
0.0723676
0.352791
0.267381
0.0697917
1.50354
113.335
1.12764
85.6581
0.856536
64.6947
0.661263
48.8236
0.519575
36.8592
0.417269
27.8309
0.342304
21.0368
0.285596
15.9335
0.241169
12.0985
0.205202
9.21286
0.175205
7.03428
0.150518
5.37819
0.130108
4.11591
0.113517
3.14904
0.100229
2.40707
0.0897575
1.83742
0.0815989
1.40061
0.0752446
1.06641
0.0702546
0.81117
0.0662948
0.616529
0.0631128
0.468238
0.0605629
0.35534
0.269451
0.0584928
0.74525
113.599
0.559127
85.8443
0.428349
64.8255
0.337015
48.915
0.273056
36.9232
0.228944
27.875
0.197733
21.068
0.174013
15.9572
0.154487
12.118
0.13739
9.22997
0.121635
7.05005
0.107744
5.39209
0.0954328
4.12823
0.0848779
3.1596
0.0760448
2.4159
0.0688378
1.84463
0.0630641
1.40638
0.0584516
1.07102
0.0547263
0.814896
0.0516822
0.619573
0.0491589
0.470761
0.0470806
0.357419
0.271182
0.0453493
0.210918
113.68
0.158915
85.8963
0.126468
64.8579
0.107592
48.9338
0.0976467
36.9331
0.0938764
27.8787
0.0929813
21.0689
0.0921352
15.958
0.0898768
12.1202
0.085881
9.23395
0.0799815
7.05593
0.0735445
5.39851
0.0667791
4.13497
0.0603082
3.16605
0.0544382
2.42176
0.0493616
1.84969
0.0451194
1.41062
0.0416181
1.07452
0.0386993
0.817812
0.0362403
0.62203
0.0341414
0.472859
0.0323671
0.359193
0.272696
0.0308527
-0.157274
113.634
-0.11648
85.8556
-0.081821
64.8233
-0.0516327
48.9036
-0.0251958
36.9067
-0.00189256
27.8554
0.0175461
21.0494
0.0320697
15.9435
0.0414289
12.1109
0.0462752
9.22913
0.0470035
7.05522
0.0455685
5.39996
0.0424754
4.13807
0.0386544
3.16988
0.0346479
2.42577
0.030862
1.85348
0.0275173
1.41396
0.024661
1.07737
0.0222158
0.820256
0.0201074
0.624138
0.0182732
0.474693
0.0166918
0.360774
0.274068
0.0153195
-0.401077
113.503
-0.298618
85.7531
-0.220222
64.7449
-0.158439
48.8418
-0.108776
36.857
-0.068272
27.8149
-0.0359133
21.0171
-0.0115828
15.9192
0.0051973
12.0941
0.0157058
9.21861
0.020631
7.05027
0.0223473
5.39822
0.0215098
4.13889
0.019253
3.17212
0.0162788
2.42873
0.0131519
1.85659
0.0102333
1.41687
0.00768593
1.07992
0.00548937
0.82245
0.00359292
0.626032
0.00194359
0.476342
0.00052604
0.362191
0.275325
-0.000731609
-0.554512
113.317
-0.413064
85.6117
-0.30786
64.6397
-0.22713
48.7611
-0.163761
36.7937
-0.113197
27.7644
-0.073279
20.9772
-0.0431634
15.8891
-0.0219864
12.0729
-0.0080913
9.20473
-0.000705289
7.0429
0.00283919
5.39469
0.0032419
4.1385
0.00176657
3.17361
-0.000780982
2.43128
-0.00371346
1.85952
-0.00655625
1.41971
-0.00904805
1.08241
-0.0111689
0.82457
-0.0129702
0.627832
-0.0145122
0.477884
-0.0158135
0.363492
0.276475
-0.0169641
-0.640986
113.097
-0.477354
85.4481
-0.35785
64.5202
-0.267516
48.6708
-0.197471
36.7236
-0.14211
27.709
-0.098578
20.9336
-0.0656304
15.8561
-0.0422772
12.0495
-0.0266633
9.18911
-0.0180864
7.03431
-0.0136754
5.39026
-0.0127674
4.13757
-0.0140285
3.17485
-0.0165901
2.43382
-0.0196706
1.86259
-0.0226987
1.42273
-0.0253226
1.08503
-0.0274833
0.826727
-0.0292449
0.629592
-0.0306829
0.47932
-0.0318486
0.364657
0.277477
-0.0328516
-0.680037
112.86
-0.506148
85.2742
-0.38117
64.3952
-0.287814
48.5774
-0.216031
36.6518
-0.159559
27.6525
-0.115164
20.8892
-0.0814354
15.8224
-0.0574482
12.0255
-0.0412693
9.17295
-0.0323909
7.02545
-0.0277828
5.38568
-0.0268827
4.13669
-0.0283298
3.17631
-0.0312228
2.43673
-0.0347044
1.86608
-0.0381131
1.42615
-0.0410091
1.08792
-0.043285
0.829002
-0.0450227
0.631328
-0.0463271
0.480625
-0.0473187
0.365648
0.278274
-0.0481158
-0.685613
112.617
-0.509908
85.0985
-0.385671
64.271
-0.293931
48.4857
-0.22388
36.5818
-0.168881
27.5975
-0.125542
20.8459
-0.0924543
15.7893
-0.0688964
12.002
-0.0529382
9.15698
-0.0443703
7.01687
-0.0400196
5.38131
-0.0394756
4.13613
-0.0413854
3.1782
-0.0448383
2.44016
-0.0489152
1.87014
-0.0528653
1.43009
-0.0561559
1.09121
-0.0586136
0.831456
-0.0603335
0.633046
-0.0614839
0.481774
-0.0622657
0.366429
0.278796
-0.0627889
-0.671021
112.373
-0.498666
84.9261
-0.378923
64.1512
-0.291572
48.3983
-0.225306
36.5155
-0.173282
27.5455
-0.132098
20.8047
-0.100455
15.7577
-0.0779388
11.9794
-0.0626512
9.14172
-0.0547608
7.009
-0.0509312
5.3775
-0.0509429
4.13616
-0.053478
3.18075
-0.0576322
2.44433
-0.0624383
1.87495
-0.0670562
1.43471
-0.0708524
1.09501
-0.0735597
0.834162
-0.0752708
0.634758
-0.0762492
0.482752
-0.0767848
0.366966
0.27899
-0.0769817
-0.639647
112.136
-0.47489
84.7614
-0.362771
64.0391
-0.282171
48.3177
-0.22147
36.4548
-0.17375
27.4978
-0.135692
20.7667
-0.106175
15.7281
-0.0851844
11.9584
-0.0708781
9.12741
-0.0639124
7.00203
-0.0607751
5.37435
-0.0614643
4.13683
-0.0647251
3.184
-0.0696803
2.44927
-0.075337
1.8806
-0.0807665
1.44014
-0.0852167
1.09945
-0.0883065
0.837249
-0.0901168
0.636565
-0.0909707
0.483608
-0.0912375
0.367229
0.278804
-0.0910503
-0.596595
111.909
-0.442505
84.6073
-0.340144
63.9367
-0.267771
48.2454
-0.21368
36.4007
-0.171011
27.4551
-0.136655
20.7323
-0.109765
15.7013
-0.0907233
11.9394
-0.0777237
9.11443
-0.0719769
6.9963
-0.0697137
5.37211
-0.0711965
4.13834
-0.0752912
3.18811
-0.0811507
2.45514
-0.0877847
1.88724
-0.0941799
1.44654
-0.0994667
1.10474
-0.103159
0.84094
-0.105288
0.638696
-0.106207
0.484526
-0.106325
0.367346
0.278375
-0.105899
-0.685323
111.706
-0.533779
84.4557
-0.423024
63.826
-0.340037
48.1624
-0.27691
36.3376
-0.227896
27.4061
-0.189354
20.6938
-0.159036
15.6709
-0.135955
11.9163
-0.118961
9.09743
-0.10812
6.98546
-0.101384
5.36536
-0.0987864
4.13573
-0.0996166
3.18893
-0.103264
2.45877
-0.108823
1.89279
-0.115069
1.45278
-0.120834
1.1105
-0.125281
0.845384
-0.128084
0.641496
-0.129459
0.485901
-0.129864
0.367749
0.27817
-0.129663
-0.666344
111.515
-0.522826
84.3122
-0.417859
63.721
-0.339104
48.0836
-0.279084
36.2776
-0.232339
27.3594
-0.195421
20.6568
-0.166197
15.6417
-0.143862
11.894
-0.127308
9.0809
-0.116741
6.97491
-0.110102
5.35875
-0.107454
4.1331
-0.10819
3.18968
-0.111805
2.4624
-0.117531
1.89853
-0.124173
1.45943
-0.130619
1.11695
-0.135991
0.850756
-0.139783
0.645291
-0.142067
0.488183
-0.143134
0.368814
0.278271
-0.143238
-0.647748
111.334
-0.511793
84.1763
-0.412261
63.6215
-0.337472
48.0088
-0.280361
36.2205
-0.235736
27.3148
-0.200332
20.6214
-0.17213
15.6135
-0.150479
11.8723
-0.134315
9.06473
-0.123971
6.96457
-0.117382
5.35215
-0.114614
4.13032
-0.11518
3.19024
-0.118675
2.46589
-0.124491
1.90433
-0.131541
1.46647
-0.138849
1.12425
-0.145489
0.857393
-0.150758
0.650557
-0.154401
0.491825
-0.156346
0.370758
0.278644
-0.156723
-0.629568
111.163
-0.500772
84.0474
-0.406375
63.5271
-0.335329
47.9378
-0.280963
36.1661
-0.238341
27.2721
-0.204362
20.5875
-0.177116
15.5863
-0.15609
11.8513
-0.140271
9.04893
-0.130099
6.95442
-0.123511
5.34559
-0.120553
4.12739
-0.120862
3.19057
-0.124127
2.46917
-0.129921
1.91014
-0.137358
1.47391
-0.145617
1.13252
-0.153752
0.865527
-0.160937
0.657747
-0.166522
0.497408
-0.170126
0.374361
0.2806
-0.172086
-0.611831
111.001
-0.489831
83.9255
-0.400301
63.4375
-0.332803
47.8703
-0.281042
36.1143
-0.240319
27.2314
-0.20769
20.5548
-0.181343
15.5599
-0.16089
11.8308
-0.145376
9.03342
-0.13533
6.94437
-0.128697
5.33895
-0.125474
4.12416
-0.125432
3.19052
-0.128334
2.47206
-0.133955
1.91575
-0.141662
1.48161
-0.150788
1.14164
-0.160452
0.87519
-0.169827
0.667117
-0.178005
0.505586
-0.184592
0.380947
0.286155
-0.19015
-0.594552
110.849
-0.479019
83.8099
-0.394114
63.3526
-0.329988
47.8061
-0.280705
36.0651
-0.24179
27.1925
-0.210444
20.5235
-0.184946
15.5344
-0.165022
11.8109
-0.149777
9.0182
-0.139813
6.93443
-0.133089
5.33225
-0.129529
4.12063
-0.129037
3.19005
-0.131428
2.47447
-0.136681
1.92102
-0.144408
1.48935
-0.154106
1.15134
-0.165007
0.886089
-0.176324
0.67844
-0.18714
0.516399
-0.197104
0.390911
0.295547
-0.206499
-0.577739
110.705
-0.468371
83.7005
-0.387869
63.2721
-0.326955
47.7452
-0.280033
36.0181
-0.242844
27.1553
-0.212721
20.4934
-0.188026
15.5098
-0.168589
11.7915
-0.15358
9.00319
-0.143657
6.92451
-0.136801
5.3254
-0.13283
4.11666
-0.131792
3.18901
-0.133512
2.47619
-0.138153
1.92566
-0.14552
1.49671
-0.15529
1.16111
-0.166753
0.897553
-0.179119
0.6908
-0.191584
0.528864
-0.203686
0.403013
0.306872
-0.215012
-0.561393
110.569
-0.457911
83.597
-0.381608
63.1958
-0.323759
47.6874
-0.279092
35.9735
-0.243552
27.1198
-0.214596
20.4644
-0.190664
15.4858
-0.171677
11.7725
-0.156873
8.98841
-0.146954
6.91461
-0.139928
5.3184
-0.135473
4.11223
-0.133794
3.18735
-0.134671
2.47708
-0.138422
1.92942
-0.144962
1.50326
-0.154115
1.17027
-0.165207
0.908644
-0.17732
0.702917
-0.189766
0.541308
-0.2019
0.415147
0.317669
-0.212698
-0.545513
110.442
-0.447657
83.4992
-0.375365
63.1235
-0.320442
47.6324
-0.277933
35.931
-0.243972
27.0858
-0.216133
20.4366
-0.192924
15.4626
-0.174352
11.7539
-0.159726
8.97378
-0.149777
6.90467
-0.142548
5.31117
-0.137541
4.10722
-0.135131
3.18494
-0.134983
2.47693
-0.137556
1.93199
-0.142767
1.50846
-0.150481
1.17798
-0.160094
0.918261
-0.170631
0.713448
-0.181364
0.55204
-0.191558
0.42534
0.326156
-0.200045
-0.530096
110.321
-0.437623
83.4067
-0.369165
63.055
-0.317042
47.5803
-0.276598
35.8905
-0.244152
27.0534
-0.217382
20.4098
-0.194863
15.4401
-0.176675
11.7357
-0.162202
8.95933
-0.152192
6.89468
-0.144731
5.30373
-0.139106
4.10163
-0.135883
3.18174
-0.134531
2.47561
-0.135645
1.93312
-0.13905
1.51188
-0.144547
1.18349
-0.151613
0.925328
-0.159327
0.721165
-0.167081
0.559793
-0.174071
0.432331
0.331464
-0.179378
-0.515137
110.209
-0.42782
83.3194
-0.36303
62.9903
-0.313589
47.5309
-0.275124
35.8521
-0.244133
27.0224
-0.21839
20.384
-0.196527
15.4183
-0.178694
11.7179
-0.164352
8.94499
-0.154253
6.88459
-0.146538
5.29602
-0.140235
4.09533
-0.136126
3.17764
-0.133406
2.47289
-0.1328
1.93251
-0.133997
1.51307
-0.136702
1.1862
-0.140458
0.929089
-0.144474
0.725174
-0.14832
0.563639
-0.151492
0.435503
0.333372
-0.153396
-0.500628
110.103
-0.418254
83.237
-0.35698
62.929
-0.310108
47.484
-0.273543
35.8155
-0.243951
26.9928
-0.219194
20.3593
-0.19796
15.397
-0.180455
11.7004
-0.166226
8.93078
-0.156012
6.8744
-0.148023
5.28806
-0.140989
4.08832
-0.135932
3.17261
-0.131704
2.46868
-0.129137
1.92996
-0.127812
1.51176
-0.127391
1.18579
-0.127372
0.929074
-0.127304
0.725108
-0.12696
0.563295
-0.126241
0.434786
0.332014
-0.124879
-0.486563
110.003
-0.408931
83.1594
-0.351027
62.8711
-0.306621
47.4396
-0.271881
35.7808
-0.243636
26.9645
-0.219829
20.3355
-0.199196
15.3764
-0.181996
11.6831
-0.167863
8.91665
-0.157512
6.86405
-0.149236
5.27979
-0.141424
4.08052
-0.135368
3.16656
-0.129529
2.46285
-0.124795
1.92523
-0.120739
1.50771
-0.11711
1.18216
-0.113211
0.925183
-0.108965
0.720856
-0.104629
0.55896
-0.100335
0.430493
0.327816
-0.0961305
-0.472936
109.91
-0.399855
83.0863
-0.345186
62.8164
-0.303148
47.3976
-0.270164
35.7478
-0.243217
26.9376
-0.220326
20.3126
-0.20027
15.3564
-0.183353
11.6662
-0.169302
8.90262
-0.158794
6.85357
-0.150222
5.27124
-0.141592
4.07192
-0.134497
3.15949
-0.126986
2.45536
-0.11997
1.91823
-0.113121
1.50087
-0.106316
1.17537
-0.0987106
0.917583
-0.0905818
0.712727
-0.0827114
0.55109
-0.075311
0.423094
0.321231
-0.068718
-0.459736
109.824
-0.39103
83.0176
-0.339468
62.7648
-0.299706
47.3578
-0.268412
35.7165
-0.242718
26.9119
-0.220712
20.2906
-0.201211
15.3369
-0.184556
11.6496
-0.170576
8.88865
-0.159892
6.84289
-0.151019
5.26238
-0.141545
4.06245
-0.133376
3.15133
-0.124168
2.44616
-0.114861
1.90893
-0.105365
1.49137
-0.0955075
1.16552
-0.0845169
0.906601
-0.0731
0.701306
-0.0622632
0.540255
-0.05235
0.413184
0.312677
-0.0437862
-0.446958
109.743
-0.382459
82.953
-0.333883
62.7162
-0.296311
47.3202
-0.266646
35.6868
-0.242162
26.8874
-0.221012
20.2694
-0.202047
15.3179
-0.185636
11.6332
-0.171717
8.87475
-0.160841
6.83204
-0.151665
5.25322
-0.141338
4.05215
-0.13207
3.14209
-0.121165
2.43528
-0.109649
1.89743
-0.0978326
1.47957
-0.0850883
1.15279
-0.0711918
0.892712
-0.0572376
0.687351
-0.04413
0.527149
-0.0324118
0.401469
0.302737
-0.0224614
-0.434592
109.667
-0.374142
82.8926
-0.328441
62.6705
-0.292978
47.2847
-0.264885
35.6587
-0.241572
26.8641
-0.221251
20.2491
-0.202802
15.2995
-0.186619
11.617
-0.172754
8.86089
-0.161672
6.82097
-0.152198
5.24376
-0.141027
4.041
-0.130628
3.1317
-0.118062
2.42273
-0.10448
1.88385
-0.0907218
1.46581
-0.0753631
1.13744
-0.0591529
0.87651
-0.0434425
0.671637
-0.0288357
0.512545
-0.0160341
0.388671
0.292069
-0.00535411
-0.42263
109.597
-0.366082
82.836
-0.32315
62.6276
-0.28972
47.2513
-0.263144
35.6322
-0.240965
26.8419
-0.22145
20.2296
-0.203501
15.2815
-0.187529
11.601
-0.173712
8.84709
-0.162416
6.80969
-0.152649
5.23402
-0.140656
4.02903
-0.129081
3.12015
-0.114946
2.40862
-0.0995874
1.86851
-0.084069
1.45031
-0.0665629
1.11995
-0.0487029
0.858659
-0.0319408
0.654873
-0.0166021
0.497208
-0.00346634
0.375539
0.281341
0.00727252
-0.411065
109.533
-0.358279
82.7833
-0.318018
62.5873
-0.28655
47.2198
-0.261441
35.607
-0.240362
26.8209
-0.221629
20.2109
-0.204166
15.2641
-0.188392
11.5852
-0.174619
8.83333
-0.163099
6.79818
-0.153046
5.22398
-0.140269
4.01627
-0.127448
3.10735
-0.111895
2.39308
-0.0952629
1.85189
-0.0779622
1.43301
-0.058884
1.10089
-0.0400222
0.839805
-0.0227611
0.63761
-0.0073867
0.481837
0.00554525
0.36261
0.270939
0.0159581
-0.399889
109.473
-0.350735
82.7341
-0.313051
62.5496
-0.28348
47.1903
-0.259791
35.5834
-0.239781
26.8009
-0.221809
20.1929
-0.204818
15.2471
-0.189229
11.5696
-0.175497
8.8196
-0.163748
6.78645
-0.153418
5.21367
-0.139919
4.00279
-0.125766
3.09322
-0.109046
2.37638
-0.0916147
1.83447
-0.0725175
1.41392
-0.052363
1.08074
-0.0331226
0.820574
-0.0157435
0.620228
-0.000646143
0.466742
0.0117747
0.350193
0.261109
0.0216166
-0.389094
109.419
-0.34345
82.6885
-0.308258
62.5145
-0.280521
47.1625
-0.258209
35.561
-0.239236
26.7819
-0.222007
20.1757
-0.205476
15.2305
-0.190061
11.5542
-0.176369
8.80593
-0.16439
6.77449
-0.153793
5.20309
-0.13964
3.98866
-0.124064
3.07766
-0.106603
2.35894
-0.0885268
1.8164
-0.0677928
1.3932
-0.0468396
1.0598
-0.0276636
0.801406
-0.0105062
0.60307
0.00399526
0.452244
0.0157444
0.338447
0.251921
0.0249424
-0.378673
109.369
-0.336426
82.6462
-0.303644
62.4817
-0.277683
47.1366
-0.256707
35.5401
-0.238747
26.7639
-0.222243
20.1592
-0.206161
15.2145
-0.190909
11.539
-0.177258
8.79228
-0.165053
6.76229
-0.154197
5.19225
-0.139442
3.97393
-0.122335
3.06058
-0.104705
2.34132
-0.0857808
1.79749
-0.0637978
1.37122
-0.0422281
1.03825
-0.0232605
0.782447
-0.00646322
0.58627
0.0072785
0.438505
0.0181717
0.327558
0.243519
0.0265843
-0.368619
109.324
-0.329662
82.6072
-0.299216
62.4512
-0.274978
47.1123
-0.255301
35.5204
-0.238326
26.7469
-0.222532
20.1434
-0.206889
15.1988
-0.191791
11.5239
-0.178181
8.77869
-0.165759
6.74989
-0.154642
5.18115
-0.139335
3.95865
-0.120661
3.04193
-0.103402
2.32409
-0.0832894
1.77739
-0.0605205
1.34846
-0.0386335
1.01637
-0.0197671
0.763589
-0.00349759
0.570001
0.00952899
0.425481
0.0197093
0.317381
0.235783
0.0274549
-0.358924
109.283
-0.323158
82.5714
-0.29498
62.423
-0.272416
47.0898
-0.254002
35.502
-0.237991
26.7309
-0.222895
20.1283
-0.207683
15.1836
-0.192732
11.5089
-0.179168
8.76513
-0.166533
6.73727
-0.155147
5.16978
-0.13935
3.94286
-0.119268
3.02186
-0.102637
2.30747
-0.0811704
1.75593
-0.0579101
1.3252
-0.0361306
0.994605
-0.017249
0.744715
-0.00153086
0.55428
0.0109978
0.412956
0.0206207
0.307761
0.22858
0.0278316
-0.349584
109.247
-0.316918
82.5388
-0.29094
62.397
-0.270002
47.0688
-0.252817
35.4848
-0.237743
26.7159
-0.223327
20.1139
-0.20854
15.1689
-0.193732
11.4941
-0.180207
8.75162
-0.167373
6.72445
-0.155707
5.15813
-0.139432
3.92661
-0.118307
3.00076
-0.102339
2.29152
-0.0795904
1.7332
-0.0557526
1.30138
-0.034419
0.973288
-0.0153892
0.725694
2.85941e-05
0.53887
0.012146
0.400838
0.021316
0.298597
0.22169
0.0282114
-0.328954
109.199
-0.292101
82.5019
-0.265288
62.3702
-0.245127
47.0486
-0.22943
35.4691
-0.216146
26.7026
-0.203613
20.1013
-0.190709
15.156
-0.177494
11.4809
-0.165396
8.73953
-0.153826
6.71289
-0.142851
5.14716
-0.127718
3.91149
-0.108177
2.98123
-0.093624
2.27698
-0.0721389
1.71172
-0.049952
1.27919
-0.0311177
0.954464
-0.013649
0.708235
0.000521287
0.524693
0.0113905
0.389984
0.0194408
0.29054
0.215528
0.0256165
-0.26163
109.162
-0.232611
82.4729
-0.21153
62.3491
-0.195708
47.0328
-0.183416
35.4568
-0.173026
26.6922
-0.163185
20.0915
-0.152991
15.1458
-0.142291
11.4702
-0.132568
8.72982
-0.123399
6.70373
-0.114049
5.13783
-0.10177
3.89924
-0.0864133
2.9659
-0.0739328
2.26452
-0.0570251
1.69483
-0.0397133
1.26189
-0.0253663
0.940135
-0.0119504
0.694831
-0.000822623
0.51358
0.00761429
0.381541
0.0136957
0.28447
0.210909
0.018315
-0.208055
109.132
-0.18519
82.45
-0.168602
62.3325
-0.156176
47.0204
-0.146548
35.4472
-0.138426
26.6841
-0.13071
20.0838
-0.122669
15.1377
-0.114053
11.4616
-0.106267
8.72204
-0.0990103
6.69648
-0.0911258
5.12995
-0.0811193
3.88924
-0.0690823
2.95387
-0.0583272
2.25377
-0.0451667
1.68167
-0.0317682
1.24849
-0.0206523
0.929027
-0.0104411
0.684625
-0.00181385
0.504952
0.00482966
0.374908
0.00948144
0.279817
0.207521
0.0128753
-0.165405
109.109
-0.147361
82.432
-0.134284
62.3195
-0.124509
47.0106
-0.116956
35.4396
-0.110601
26.6777
-0.104555
20.0777
-0.0982215
15.1314
-0.0913193
11.4547
-0.0851003
8.71583
-0.079359
6.69076
-0.0727946
5.12341
-0.0645982
3.88107
-0.0551457
2.94444
-0.0459814
2.24463
-0.0357911
1.67149
-0.0254857
1.2382
-0.0167843
0.920344
-0.00902448
0.676879
-0.00245939
0.498399
0.00277813
0.369667
0.00645829
0.276143
0.205031
0.00895102
-0.131468
109.09
-0.117209
82.4177
-0.106884
62.3091
-0.0991825
47.0029
-0.0932491
35.4337
-0.0882733
26.6727
-0.0835387
20.073
-0.0785567
15.1264
-0.0730508
11.4491
-0.0680935
8.71088
-0.0635515
6.68622
-0.058162
5.11802
-0.0514312
3.87434
-0.0439618
2.93697
-0.036293
2.23696
-0.0284372
1.66364
-0.0205382
1.23029
-0.0137191
0.913531
-0.00780875
0.67097
-0.00290095
0.49349
0.00118413
0.36559
0.00418668
0.273138
0.203123
0.0060977
-0.104428
109.076
-0.0931116
82.4064
-0.084922
62.3009
-0.0788244
46.9968
-0.0741417
35.429
-0.0702319
26.6688
-0.066519
20.0693
-0.0626035
15.1225
-0.0582301
11.4448
-0.0542917
8.70695
-0.0507058
6.68265
-0.0463434
5.11367
-0.0408239
3.86885
-0.0348673
2.93104
-0.0285631
2.23068
-0.0225555
1.65765
-0.016548
1.2243
-0.0112521
0.908253
-0.00677651
0.666507
-0.00317309
0.489898
-9.38069e-05
0.362507
0.00235973
0.27069
0.201558
0.00392411
-0.0831441
109.064
-0.0743123
82.3975
-0.0679319
62.2945
-0.063195
46.9921
-0.05957
35.4254
-0.0565507
26.6658
-0.0536744
20.0664
-0.0506133
15.1195
-0.0471407
11.4413
-0.043999
8.70381
-0.0411415
6.67979
-0.0376024
5.11013
-0.0330329
3.86428
-0.0281575
2.92616
-0.0229525
2.22547
-0.0182827
1.65298
-0.0136251
1.21963
-0.00944918
0.90408
-0.00599996
0.663057
-0.00327347
0.487171
-0.000910565
0.360151
0.00111753
0.268658
0.200197
0.00248193
-0.065845
109.055
-0.0586862
82.3904
-0.0535085
62.2894
-0.0496674
46.9882
-0.0467371
35.4225
-0.0443158
26.6634
-0.0420337
20.0641
-0.0396231
15.1171
-0.0368882
11.4386
-0.0344179
8.70136
-0.0321857
6.67757
-0.0294028
5.10737
-0.0257389
3.86064
-0.0218155
2.92226
-0.0177093
2.22138
-0.0142483
1.64954
-0.0107914
1.21618
-0.00763589
0.900943
-0.00511992
0.660552
-0.00316252
0.485223
-0.00148685
0.358472
0.000148797
0.267028
0.198911
0.00143311
-0.056175
109.043
-0.0465565
82.3808
-0.0393373
62.2821
-0.033858
46.9827
-0.0296491
35.4183
-0.026255
26.66
-0.0232185
20.0611
-0.0201499
15.114
-0.0167414
11.4351
-0.0134777
8.69809
-0.0104562
6.67455
-0.00707064
5.10398
-0.00295384
3.85653
0.00149665
2.91781
0.00584047
2.21704
0.00874932
1.64663
0.0116817
1.21324
0.0143456
0.89828
0.0163428
0.658551
0.0179563
0.483607
0.0195358
0.3569
0.0211994
0.265361
0.197595
0.0225185
-0.0589644
109.03
-0.0488769
82.3707
-0.0413075
62.2746
-0.0355701
46.977
-0.0311735
35.4139
-0.0276419
26.6564
-0.0244929
20.0579
-0.0213075
15.1108
-0.0177545
11.4316
-0.0143366
8.69469
-0.0111474
6.67138
-0.00757963
5.10043
-0.00313908
3.85211
0.00154738
2.91315
0.00625428
2.21235
0.00932603
1.64357
0.0123306
1.21025
0.0150924
0.895534
0.0171532
0.656499
0.0188589
0.48191
0.0204907
0.355264
0.0221735
0.263683
0.196274
0.0234935
-0.0618924
109.016
-0.0513129
82.3601
-0.0433759
62.2666
-0.0373679
46.971
-0.0327751
35.4093
-0.0291002
26.6528
-0.0258353
20.0547
-0.0225302
15.1075
-0.0188284
11.4279
-0.0152495
8.69111
-0.0118835
6.66801
-0.00813739
5.09668
-0.00333737
3.84731
0.00164275
2.90817
0.00673312
2.20726
0.00998865
1.64031
0.0130699
1.20716
0.0159116
0.892691
0.0180202
0.654385
0.0197999
0.480126
0.0214446
0.353626
0.0230953
0.26203
0.194954
0.0244184
-0.0649661
109.002
-0.0538703
82.349
-0.0455475
62.2583
-0.0392559
46.9647
-0.0344576
35.4045
-0.0306336
26.6489
-0.0272487
20.0513
-0.023821
15.1041
-0.0199659
11.424
-0.0162201
8.68738
-0.0126692
6.66447
-0.0087598
5.09279
-0.00362518
3.84219
0.00167544
2.90289
0.00723726
2.20172
0.0107318
1.63684
0.0138764
1.20403
0.016764
0.889819
0.018894
0.652262
0.020691
0.478337
0.0222796
0.352033
0.0238171
0.260498
0.193651
0.0251192
-0.0681927
108.987
-0.0565552
82.3373
-0.0478277
62.2495
-0.0412386
46.9581
-0.0362252
35.3995
-0.0322458
26.645
-0.0287371
20.0478
-0.0251838
15.1005
-0.0211711
11.42
-0.0172531
8.68346
-0.0135131
6.66073
-0.00946346
5.08873
-0.00401148
3.83674
0.00164154
2.89723
0.0077462
2.19561
0.011524
1.63306
0.014723
1.20082
0.0176189
0.88692
0.0197414
0.650132
0.0214843
0.476589
0.0229461
0.350578
0.0242886
0.259152
0.19247
0.0254724
-0.0715802
108.972
-0.0593742
82.3251
-0.0502219
62.2404
-0.0433208
46.9512
-0.0380823
35.3942
-0.0339409
26.6408
-0.0303044
20.0441
-0.0266225
15.0969
-0.0224483
11.4158
-0.0183536
8.67938
-0.0144251
6.65682
-0.0102562
5.08458
-0.00439945
3.83091
0.00171893
2.89113
0.00833081
2.18901
0.0123576
1.62905
0.0155968
1.1976
0.0184532
0.884077
0.02053
0.648061
0.0221486
0.474979
0.0234222
0.3493
0.0245264
0.258053
0.191501
0.0254951
-0.0751361
108.955
-0.0623338
82.3123
-0.0527359
62.2308
-0.0455076
46.944
-0.0400334
35.3887
-0.0357233
26.6365
-0.0319549
20.0404
-0.0281415
15.0931
-0.0238017
11.4115
-0.019526
8.6751
-0.015411
6.6527
-0.0111368
5.0803
-0.00474924
3.82452
0.00197517
2.8844
0.00904738
2.18194
0.01327
1.62482
0.0165009
1.19436
0.0192627
0.881311
0.0212438
0.646072
0.0226734
0.473544
0.0237234
0.348257
0.0245812
0.257193
0.19076
0.0253248
-0.0788696
108.938
-0.0654412
82.2989
-0.0553754
62.2207
-0.0478041
46.9364
-0.0420832
35.383
-0.0375973
26.632
-0.0336926
20.0364
-0.0297448
15.0891
-0.0252353
11.407
-0.0207744
8.67065
-0.0164729
6.64841
-0.0121041
5.07595
-0.00518181
3.81762
0.00220024
2.87704
0.0098165
2.17434
0.0142778
1.62038
0.0174373
1.19121
0.0200541
0.878707
0.0218833
0.644248
0.0230929
0.472342
0.0239063
0.34744
0.024533
0.256572
0.190201
0.0250917
-0.0827889
108.92
-0.0687037
82.2848
-0.0581471
62.2101
-0.0502159
46.9284
-0.0442367
35.377
-0.0395673
26.6274
-0.035522
20.0324
-0.0314367
15.085
-0.0267531
11.4023
-0.0221025
8.666
-0.0176154
6.64392
-0.0131618
5.07149
-0.00580363
3.81026
0.00223115
2.869
0.0105423
2.16602
0.0153475
1.61556
0.0184058
1.18815
0.0208363
0.876271
0.0224584
0.642618
0.023462
0.471334
0.0240528
0.346856
0.0244671
0.256154
0.189801
0.0248688
-0.0869036
108.901
-0.0721291
82.27
-0.0610573
62.1991
-0.0527487
46.9201
-0.046499
35.3708
-0.0416384
26.6225
-0.0374476
20.0282
-0.0332216
15.0808
-0.0283591
11.3974
-0.0235144
8.66117
-0.0188471
6.63927
-0.01431
5.06697
-0.00651375
3.80248
0.00222488
2.86029
0.0112629
2.157
0.01645
1.61039
0.0194119
1.1852
0.0216239
0.874071
0.0229943
0.641253
0.0238186
0.470518
0.0242147
0.346456
0.0244597
0.255915
0.189542
0.0247199
-0.0912234
108.881
-0.0757255
82.2545
-0.0641133
62.1875
-0.0554086
46.9114
-0.0488755
35.3643
-0.0438154
26.6174
-0.0394743
20.0239
-0.0351041
15.0764
-0.0300574
11.3924
-0.0250144
8.65612
-0.0201738
6.63443
-0.0155413
5.06233
-0.00719122
3.79413
0.00236131
2.85073
0.0120597
2.1473
0.0175946
1.60485
0.0204709
1.18231
0.022439
0.872097
0.023537
0.640149
0.0241842
0.469866
0.0244315
0.346216
0.0245591
0.255784
0.189396
0.0247063
-0.095759
108.86
-0.0795018
82.2383
-0.0673219
62.1753
-0.0582021
46.9023
-0.0513721
35.3574
-0.0461038
26.6122
-0.0416069
20.0194
-0.037089
15.0719
-0.0318526
11.3871
-0.0266067
8.65089
-0.0215976
6.62943
-0.0168507
5.0576
-0.00790887
3.78521
0.00254972
2.84029
0.0129207
2.13695
0.0188018
1.59899
0.0216087
1.17952
0.0233139
0.870402
0.0241428
0.639326
0.0246043
0.469413
0.0247445
0.346071
0.0248019
0.255733
0.189327
0.0248718
-0.100521
108.838
-0.0834668
82.2212
-0.0706913
62.1625
-0.0611357
46.8927
-0.0539946
35.3503
-0.048509
26.6067
-0.0438509
20.0147
-0.0391813
15.0673
-0.0337492
11.3817
-0.0282959
8.64543
-0.0231225
6.62425
-0.0182405
5.05272
-0.00875644
3.77572
0.00264932
2.82888
0.0137848
2.1258
0.020078
1.59269
0.0228525
1.17674
0.0242883
0.868959
0.0248649
0.638744
0.0251383
0.469135
0.0252055
0.346012
0.0252135
0.255722
0.189309
0.0252329
-0.10552
108.815
-0.0876298
82.2033
-0.0742293
62.1491
-0.0642166
46.8827
-0.0567496
35.3428
-0.0510369
26.601
-0.0462117
20.0099
-0.0413863
15.0624
-0.035752
11.376
-0.0300871
8.63978
-0.024755
6.61894
-0.0197155
5.04769
-0.00970162
3.76573
0.00266958
2.81653
0.0146279
2.11386
0.021421
1.58591
0.0242223
1.17394
0.0254017