/*--------------------------------*- C++ -*----------------------------------*\
  =========                 |
  \\      /  F ield         | OpenFOAM: The Open Source CFD Toolbox
   \\    /   O peration     | Website:  https://openfoam.org
    \\  /    A nd           | Version:  7
     \\/     M anipulation  |
\*---------------------------------------------------------------------------*/
FoamFile
{
    version     2.0;
    format      ascii;
    class       volVectorField;
    location    "50";
    object      U;
}
// * * * * * * * * * * * * * * * * * * * * * * * * * * * * * * * * * * * * * //

dimensions      [0 1 -1 0 0 0 0];

internalField   nonuniform List<vector> 
12842
(
(15.0848 4.04556 -5.95775e-18)
(15.0757 4.03574 -1.7287e-18)
(15.0675 4.02942 -4.83861e-19)
(15.0561 4.02316 1.23467e-18)
(15.0427 4.01706 -4.36806e-18)
(15.0288 4.0135 0)
(15.0142 4.01561 0)
(14.998 4.02714 -1.58405e-19)
(14.9782 4.05221 7.08481e-19)
(14.9518 4.09483 -4.10906e-20)
(14.9155 4.15839 -1.99076e-19)
(14.8653 4.24516 -1.53214e-20)
(14.7981 4.35607 -1.88926e-19)
(14.712 4.49061 -1.3697e-21)
(14.6064 4.64689 1.50972e-20)
(14.4827 4.82135 3.87063e-20)
(14.3441 5.00881 -8.08436e-22)
(14.195 5.20269 0)
(14.0412 5.39537 5.19638e-21)
(13.8887 5.57955 2.99905e-20)
(13.7432 5.74829 1.03314e-20)
(13.6102 5.89841 -2.5905e-20)
(13.4905 6.02175 2.53641e-20)
(15.0822 4.04787 4.7656e-18)
(15.0698 4.04261 0)
(15.0604 4.03809 -5.62737e-18)
(15.0477 4.0324 2.86803e-18)
(15.0342 4.02616 3.47049e-18)
(15.0224 4.02195 0)
(15.013 4.02337 -2.45224e-18)
(15.0054 4.0349 0)
(14.9981 4.06142 -5.83635e-19)
(14.9879 4.10774 -8.73653e-20)
(14.9704 4.17775 3.00095e-19)
(14.9409 4.27376 1.06549e-18)
(14.8948 4.39633 1.84512e-19)
(14.8288 4.54416 -6.0401e-19)
(14.7414 4.71438 0)
(14.6333 4.90246 -4.81849e-20)
(14.5072 5.10238 -1.86264e-20)
(14.3675 5.3069 1.33435e-19)
(14.2198 5.50797 0)
(14.0706 5.69802 -4.78971e-20)
(13.9261 5.87002 4.19129e-21)
(13.7917 6.02158 4.74154e-20)
(13.6705 6.14231 -2.24027e-20)
(15.0791 4.05111 0)
(15.0656 4.05026 0)
(15.0547 4.04713 -4.31875e-19)
(15.0401 4.04147 -1.6824e-17)
(15.0259 4.03434 0)
(15.0155 4.02838 0)
(15.0102 4.02758 1.46214e-19)
(15.0104 4.03717 6.8064e-19)
(15.0146 4.06297 2.23595e-19)
(15.0196 4.11073 -4.0155e-19)
(15.0203 4.18506 -1.50528e-18)
(15.0105 4.2884 -1.05515e-18)
(14.9843 4.42102 -2.79979e-19)
(14.9374 4.58089 9.60584e-19)
(14.8674 4.76416 0)
(14.7746 4.96532 1.3536e-19)
(14.6614 5.17751 -1.73735e-19)
(14.5323 5.39286 -1.06662e-19)
(14.3932 5.60283 -2.81594e-19)
(14.2502 5.79965 1.62721e-19)
(14.11 5.97605 -1.24622e-20)
(13.9775 6.13056 0)
(13.8577 6.25016 -5.51855e-22)
(15.0762 4.05562 1.2942e-18)
(15.0631 4.05841 -2.69478e-18)
(15.0503 4.05645 7.95507e-18)
(15.0332 4.05061 2.49986e-17)
(15.018 4.04228 -1.96332e-18)
(15.0082 4.03395 4.23629e-18)
(15.0062 4.02991 7.70582e-19)
(15.0132 4.03619 -6.7871e-19)
(15.0283 4.05955 1.05019e-18)
(15.048 4.10683 -1.59435e-18)
(15.0662 4.1835 3.78227e-18)
(15.0753 4.29224 -5.2496e-19)
(15.0684 4.43312 6.83623e-19)
(15.0399 4.60346 2.37039e-18)
(14.9868 4.79847 -3.38491e-19)
(14.9092 5.01171 4.36486e-19)
(14.8097 5.23552 1.24817e-19)
(14.6928 5.46142 3.66683e-19)
(14.5643 5.68041 -9.4275e-22)
(14.4301 5.88458 2.38645e-19)
(14.2967 6.06632 6.6894e-20)
(14.1688 6.22519 1.0675e-19)
(14.0526 6.3454 -1.44548e-19)
(15.0737 4.06136 1.17481e-17)
(15.0619 4.06666 0)
(15.0468 4.06583 -1.12151e-18)
(15.0271 4.0599 -9.04749e-18)
(15.0104 4.05035 -1.10516e-18)
(15.0006 4.03937 -1.08112e-17)
(15.0012 4.03142 9.5555e-20)
(15.0144 4.03329 2.84127e-19)
(15.0396 4.05271 -1.30518e-18)
(15.0734 4.09775 1.81914e-18)
(15.1085 4.17497 -4.45828e-18)
(15.1361 4.28729 -3.79452e-18)
(15.148 4.43478 8.56154e-19)
(15.1376 4.61411 -5.20709e-18)
(15.1015 4.81955 -1.91689e-18)
(15.0396 5.04372 1.23939e-18)
(14.9547 5.27815 0)
(14.8515 5.51386 -3.73408e-19)
(14.7353 5.7415 0)
(14.6117 5.95313 1.25799e-19)
(14.4871 6.14086 1.50103e-19)
(14.3655 6.30527 -1.34989e-19)
(14.2549 6.42769 -3.21798e-20)
(15.0719 4.06804 -1.05432e-17)
(15.0615 4.0747 0)
(15.0443 4.07505 0)
(15.0217 4.0692 -1.32439e-17)
(15.0032 4.05856 7.79615e-18)
(14.9928 4.04485 6.1186e-18)
(14.9951 4.0325 4.15442e-18)
(15.0137 4.02905 -4.22737e-19)
(15.0486 4.04314 0)
(15.0958 4.08423 2.97828e-18)
(15.1476 4.1602 4.17419e-18)
(15.1932 4.27426 1.95061e-18)
(15.2237 4.42667 0)
(15.2313 4.61349 2.82892e-18)
(15.2121 4.82804 1.63913e-18)
(15.1664 5.06192 -8.93685e-19)
(15.097 5.30585 -2.18579e-19)
(15.0086 5.55044 1.52867e-18)
(14.9063 5.78618 0)
(14.7949 6.00531 -6.50595e-19)
(14.6809 6.19959 2.2958e-19)
(14.5675 6.37065 7.56396e-19)
(14.4642 6.49661 -1.65381e-19)
(15.0708 4.07524 9.73814e-19)
(15.0616 4.08234 0)
(15.0427 4.08396 0)
(15.0172 4.07846 1.32288e-17)
(14.9968 4.06713 -8.74595e-18)
(14.9849 4.05093 4.76725e-19)
(14.9878 4.03404 -2.61119e-18)
(15.0104 4.0246 1.63101e-19)
(15.0531 4.03213 -2.1431e-19)
(15.1125 4.06757 -3.47584e-18)
(15.18 4.14036 -5.47987e-19)
(15.2433 4.25413 4.04266e-18)
(15.2926 4.40952 0)
(15.3189 4.60205 -3.64213e-18)
(15.3176 4.82415 2.97856e-19)
(15.2888 5.06636 -3.84887e-19)
(15.2355 5.31854 1.11007e-18)
(15.1625 5.57102 -8.92879e-19)
(15.0748 5.81422 -1.20845e-18)
(14.9768 6.04078 -2.94212e-19)
(14.8748 6.24198 4.89985e-20)
(14.7712 6.4206 -4.58132e-19)
(14.6769 6.55118 -3.07187e-19)
(15.0706 4.08264 0)
(15.0621 4.08948 8.35458e-19)
(15.0416 4.09238 -9.78801e-18)
(15.0132 4.0873 4.75503e-20)
(14.9909 4.07531 8.79091e-18)
(14.9775 4.05648 -9.35385e-19)
(14.9812 4.03459 2.85231e-19)
(15.0084 4.01846 -2.97318e-19)
(15.0594 4.01833 0)
(15.1308 4.04669 -4.68508e-18)
(15.2133 4.11501 4.3955e-19)
(15.2928 4.22699 3.07466e-19)
(15.3596 4.38403 0)
(15.4034 4.58103 3.59418e-18)
(15.4196 4.80933 -2.73263e-18)
(15.4082 5.05839 0)
(15.3725 5.3172 -1.1012e-18)
(15.3172 5.57609 0)
(15.2466 5.82567 9.95359e-19)
(15.1645 6.05932 0)
(15.0768 6.26768 -4.87231e-19)
(14.985 6.45496 2.94576e-19)
(14.9009 6.59102 4.17478e-19)
(15.0705 4.09039 0)
(15.0629 4.096 0)
(15.0414 4.10004 -1.42515e-19)
(15.0101 4.09612 4.64087e-19)
(14.9849 4.0849 -1.03171e-17)
(14.9672 4.06558 -5.64727e-18)
(14.9675 4.04095 0)
(14.9938 4.01976 3.55721e-19)
(15.048 4.0125 0)
(15.1281 4.03308 9.57413e-18)
(15.2241 4.09477 4.49429e-18)
(15.3201 4.20205 -3.4914e-18)
(15.4051 4.35736 -3.47461e-19)
(15.4664 4.55572 0)
(15.4981 4.78816 2.88127e-18)
(15.4995 5.04326 2.11948e-18)
(15.4749 5.30869 -1.81455e-19)
(15.4304 5.57401 1.36935e-18)
(15.3715 5.82927 1.23262e-18)
(15.3023 6.06857 0)
(15.2281 6.28159 3.11632e-19)
(15.1488 6.47541 2.84525e-20)
(15.0765 6.61537 -2.42662e-19)
(15.0705 4.09858 5.80407e-20)
(15.0637 4.10205 -1.10889e-17)
(15.0411 4.10671 9.13315e-18)
(15.0073 4.10331 0)
(14.9801 4.09196 -1.4572e-19)
(14.9599 4.0714 -8.73994e-20)
(14.9587 4.04373 2.28271e-18)
(14.9858 4.01811 0)
(15.0436 4.00531 0)
(15.1307 4.02021 -4.87585e-18)
(15.2369 4.07761 -4.76829e-18)
(15.3444 4.182 -1.41906e-19)
(15.4427 4.33656 3.6392e-18)
(15.5172 4.53622 -1.24602e-19)
(15.5617 4.77154 -4.01186e-19)
(15.5751 5.03043 4.26934e-19)
(15.5621 5.29967 -1.38576e-18)
(15.5293 5.5685 -1.27219e-18)
(15.4826 5.8268 -1.4034e-18)
(15.4258 6.06957 -1.05306e-18)
(15.364 6.28549 3.48868e-19)
(15.2958 6.48426 -1.57043e-18)
(15.235 6.62743 2.87481e-19)
(15.071 4.10656 -1.46036e-17)
(15.0646 4.10763 1.25678e-17)
(15.0409 4.11297 -2.88278e-19)
(15.0049 4.11023 -8.22612e-18)
(14.976 4.09871 3.27954e-19)
(14.9532 4.07688 5.86298e-18)
(14.9506 4.04599 -4.19357e-18)
(14.9783 4.01568 6.26501e-20)
(15.0394 3.99715 -9.03991e-20)
(15.133 4.00627 -5.58385e-18)
(15.2487 4.05947 1.90166e-19)
(15.367 4.16103 -4.72147e-18)
(15.4778 4.31483 -3.26058e-18)
(15.5652 4.51563 0)
(15.6225 4.75342 3.42e-18)
(15.6484 5.01542 -4.61228e-18)
(15.6475 5.28743 -3.31724e-19)
(15.6274 5.55854 1.32484e-18)
(15.594 5.8185 -1.45001e-20)
(15.5509 6.06351 1.3344e-18)
(15.5035 6.28121 0)
(15.4481 6.48384 4.79944e-19)
(15.4011 6.6295 0)
(15.0719 4.11407 2.39617e-17)
(15.0656 4.11267 1.21975e-17)
(15.0408 4.11879 -4.68975e-19)
(15.0029 4.11692 1.64225e-17)
(14.9723 4.10535 -5.59429e-18)
(14.9471 4.08246 2.02547e-19)
(14.943 4.04845 2.09006e-18)
(14.9713 4.0135 3.83261e-20)
(15.0355 3.98918 -1.62092e-19)
(15.1351 3.99236 5.76167e-18)
(15.2599 4.04121 0)
(15.3884 4.13968 4.33746e-18)
(15.5116 4.2924 3.25729e-19)
(15.6118 4.49398 -1.54388e-19)
(15.6821 4.73381 -3.55129e-18)
(15.7205 4.99838 1.08991e-20)
(15.7321 5.2724 1.27417e-18)
(15.7249 5.54474 -2.19185e-18)
(15.7055 5.80503 0)
(15.6772 6.0508 -9.41466e-19)
(15.6456 6.26874 1.26289e-18)
(15.6049 6.4737 0)
(15.573 6.62052 -7.52002e-19)
(15.073 4.12094 -8.55152e-18)
(15.0666 4.11718 -9.83591e-21)
(15.0408 4.12421 -4.75272e-19)
(15.0013 4.12335 -7.96483e-18)
(14.9689 4.11189 1.1101e-17)
(14.9414 4.08815 -6.95366e-20)
(14.9358 4.05118 -4.42488e-20)
(14.9645 4.0117 1.09812e-18)
(15.0315 3.98158 -5.57382e-20)
(15.1367 3.97865 0)
(15.2704 4.02295 5.93125e-18)
(15.4087 4.11794 1.38596e-19)
(15.5442 4.26908 1.25213e-19)
(15.6571 4.47092 1.67747e-20)
(15.7405 4.71228 -3.61495e-19)
(15.7917 4.97897 2.63413e-18)
(15.816 5.25442 -1.48273e-18)
(15.822 5.52712 -2.28878e-19)
(15.8172 5.78647 -4.74811e-19)
(15.8046 6.03139 1.2945e-18)
(15.7901 6.24768 -9.05372e-19)
(15.7654 6.4531 1.87858e-18)
(15.7496 6.59929 -1.23846e-18)
(15.0743 4.12721 -9.04481e-18)
(15.0676 4.12117 -1.19223e-17)
(15.0409 4.12925 -5.51322e-20)
(14.9999 4.12955 -8.62325e-18)
(14.9658 4.11831 -1.13278e-17)
(14.936 4.09392 7.1351e-20)
(14.9288 4.05414 4.40018e-20)
(14.9577 4.0102 1.48165e-19)
(15.0273 3.97426 -2.87011e-18)
(15.1377 3.96502 3.39737e-18)
(15.28 4.00452 -6.26378e-18)
(15.4278 4.09557 -5.05854e-18)
(15.5753 4.24457 4.02189e-18)
(15.7011 4.44611 0)
(15.7979 4.68847 2.12179e-18)
(15.8622 4.95688 0)
(15.8994 5.23324 1.98217e-18)
(15.919 5.50544 1.20925e-18)
(15.9292 5.76245 -2.01228e-20)
(15.9327 6.0047 -1.45423e-18)
(15.9359 6.21694 -3.22085e-20)
(15.9282 6.42058 5.77503e-21)
(15.9298 6.56379 -5.03043e-19)
(15.0759 4.13267 7.38562e-20)
(15.0685 4.12473 -1.12436e-19)
(15.041 4.13395 5.45606e-20)
(14.9988 4.13554 8.63252e-18)
(14.963 4.12469 5.67716e-18)
(14.9309 4.09988 0)
(14.922 4.05742 2.86732e-21)
(14.9508 4.00909 -1.21855e-18)
(15.0226 3.96729 -1.60199e-19)
(15.1379 3.95151 -3.41639e-18)
(15.2886 3.98589 3.4069e-18)
(15.4454 4.07245 7.9488e-18)
(15.6051 4.21865 -3.90301e-18)
(15.744 4.41928 2.95288e-18)
(15.8546 4.66213 2.6196e-19)
(15.9327 4.9319 1.46702e-20)
(15.9832 5.20875 -1.21671e-19)
(16.0163 5.47958 -3.88039e-19)
(16.0414 5.73276 2.63884e-19)
(16.0612 5.97031 -4.457e-19)
(16.0822 6.17579 -3.11839e-20)
(16.092 6.37489 3.8944e-19)
(16.1115 6.51247 0)
(15.0777 4.13723 1.76988e-19)
(15.0693 4.12794 0)
(15.0413 4.13833 0)
(14.9979 4.14132 8.74341e-18)
(14.9604 4.13103 5.89952e-18)
(14.9261 4.106 -3.21531e-18)
(14.9153 4.06106 -2.19647e-20)
(14.9437 4.0084 -2.62523e-20)
(15.0177 3.96061 3.08702e-18)
(15.1374 3.93797 -7.06589e-20)
(15.2963 3.96693 2.16664e-19)
(15.462 4.04847 -2.73201e-18)
(15.6339 4.1912 0)
(15.7862 4.39026 -3.15134e-18)
(15.9114 4.63307 -4.66284e-18)
(16.0038 4.90389 -1.80608e-18)
(16.068 5.18092 -1.05557e-18)
(16.1145 5.4496 0)
(16.1541 5.69727 0)
(16.1894 5.92777 8.1225e-19)
(16.2279 6.12273 5.8436e-19)
(16.2549 6.31388 -1.21691e-18)
(16.2932 6.44097 0)
(15.0796 4.14111 9.23124e-18)
(15.0701 4.13085 -5.70051e-20)
(15.0417 4.14243 2.69552e-20)
(14.9972 4.14689 -8.67701e-18)
(14.9581 4.13733 -1.1819e-17)
(14.9215 4.11224 6.3901e-18)
(14.9086 4.06501 2.21591e-20)
(14.9366 4.00808 -2.73963e-20)
(15.0122 3.95428 3.61236e-20)
(15.136 3.92444 0)
(15.3032 3.94754 -3.46406e-18)
(15.4775 4.02344 2.94888e-18)
(15.6622 4.16199 0)
(15.8285 4.35884 0)
(15.969 4.60108 2.24656e-18)
(16.0765 4.87274 1.14855e-19)
(16.1547 5.14972 1.20057e-18)
(16.2139 5.41567 8.88637e-19)
(16.2666 5.65667 -1.24967e-18)
(16.316 5.87844 -4.50738e-19)
(16.3695 6.06142 1.80806e-18)
(16.4118 6.24092 -1.68997e-18)
(16.4664 6.3593 1.12698e-18)
(15.0815 4.14439 -4.50273e-18)
(15.0707 4.13348 -5.64716e-18)
(15.0422 4.14626 -4.92706e-20)
(14.9968 4.15228 6.52965e-20)
(14.956 4.14361 5.98657e-18)
(14.9171 4.11863 -3.25947e-18)
(14.9021 4.06925 -2.29292e-21)
(14.9292 4.00812 -2.53039e-20)
(15.0063 3.94825 3.73477e-20)
(15.1338 3.91089 3.75954e-20)
(15.3092 3.92769 -4.91617e-20)
(15.492 3.99728 -2.94292e-18)
(15.6896 4.13075 2.48948e-18)
(15.8705 4.32458 -1.05055e-19)
(16.0272 4.56555 0)
(16.1507 4.83769 -2.16734e-19)
(16.2434 5.1147 1.55866e-19)
(16.3149 5.37769 -8.73367e-19)
(16.3793 5.61119 1.53191e-18)
(16.4409 5.82211 8.80007e-19)
(16.5071 5.99141 -5.89796e-19)
(16.5627 6.15333 -8.67759e-19)
(16.6317 6.26233 1.10901e-18)
(15.0834 4.14714 5.19055e-20)
(15.0713 4.13586 5.70051e-18)
(15.0428 4.14986 0)
(14.9965 4.15751 0)
(14.9541 4.14987 0)
(14.913 4.12516 0)
(14.8957 4.07378 2.31286e-21)
(14.9217 4.00844 1.14789e-20)
(14.9999 3.9424 -1.91528e-20)
(15.1308 3.89716 3.85807e-20)
(15.3144 3.90722 -5.04074e-20)
(15.5055 3.96978 0)
(15.7164 4.09723 -4.89598e-18)
(15.9125 4.2871 1.24145e-19)
(16.0864 4.52604 -2.50472e-19)
(16.227 4.79831 2.1065e-18)
(16.3347 5.07549 -1.6175e-19)
(16.4178 5.33553 2.38644e-19)
(16.4917 5.56086 -2.8836e-19)
(16.5628 5.75878 4.43513e-19)
(16.6376 5.91254 -6.09314e-19)
(16.7031 6.05168 0)
(16.7825 6.1489 5.70625e-19)
(15.0852 4.14939 8.72885e-18)
(15.0719 4.138 2.83214e-18)
(15.0435 4.15322 3.90626e-20)
(14.9965 4.16259 -4.63298e-18)
(14.9525 4.15612 -3.15729e-18)
(14.9092 4.13185 -8.97599e-21)
(14.8893 4.07863 1.03698e-18)
(14.9139 4.00911 7.97694e-19)
(14.9929 3.9368 1.76017e-18)
(15.1266 3.88322 0)
(15.3184 3.88602 6.93393e-20)
(15.5176 3.94077 -3.30699e-18)
(15.7422 4.06108 2.57491e-18)
(15.9542 4.24589 1.85633e-18)
(16.1464 4.48188 1.44073e-18)
(16.3052 4.75391 0)
(16.4285 5.03165 0)
(16.5224 5.28935 -9.52999e-19)
(16.6032 5.50655 -9.61664e-19)
(16.6789 5.69023 4.46389e-19)
(16.7564 5.82715 3.08811e-19)
(16.8272 5.9408 3.99487e-19)
(16.9108 6.02308 -5.47779e-19)
(15.087 4.1513 -4.34011e-18)
(15.0724 4.13999 -2.84534e-18)
(15.0442 4.15646 2.57566e-20)
(14.9964 4.16758 -8.94487e-20)
(14.951 4.16236 3.16283e-18)
(14.9053 4.1386 1.76337e-18)
(14.8829 4.08356 -4.76667e-19)
(14.9059 4.00973 -7.84069e-19)
(14.9857 3.93097 -1.74267e-18)
(15.1219 3.86859 -5.138e-20)
(15.3221 3.8637 0)
(15.529 3.90988 3.2137e-18)
(15.7675 4.02182 2.65302e-18)
(15.9961 4.20038 -1.96134e-18)
(16.2076 4.43237 -1.23944e-18)
(16.3856 4.70372 -5.1498e-19)
(16.5252 4.98266 -3.74212e-19)
(16.629 5.23951 1.90276e-18)
(16.7127 5.4501 0)
(16.7871 5.61988 0)
(16.8609 5.73954 2.94792e-19)
(16.9307 5.82785 -7.58611e-19)
(17.0101 5.89178 -5.1562e-19)
(15.0885 4.15262 4.16799e-18)
(15.073 4.14164 0)
(15.0453 4.15933 0)
(14.997 4.1724 9.46264e-18)
(14.9502 4.16882 -3.25978e-18)
(14.9021 4.14605 -1.80615e-18)
(14.8766 4.08974 2.87674e-20)
(14.8971 4.01196 3.59276e-19)
(14.9767 3.92673 3.96825e-20)
(15.1148 3.85493 -2.02324e-18)
(15.3229 3.84126 7.2723e-20)
(15.5373 3.87759 -9.4582e-20)
(15.79 3.97959 -2.64746e-18)
(16.0358 4.15015 2.10494e-18)
(16.2683 4.37661 1.44554e-18)
(16.4677 4.64666 -1.09181e-18)
(16.6252 4.92783 8.85725e-19)
(16.7387 5.18671 -9.4961e-19)
(16.8216 5.39427 0)
(16.888 5.55281 0)
(16.9506 5.65802 -2.76827e-19)
(17.0104 5.72526 1.74783e-19)
(17.0741 5.76666 -4.73732e-19)
(15.0905 4.15435 -8.25573e-20)
(15.073 4.14365 2.96838e-18)
(15.0453 4.16269 0)
(14.9963 4.17706 -2.35316e-18)
(14.9478 4.1741 6.64141e-18)
(14.8979 4.15098 -1.00177e-20)
(14.8708 4.09194 4.50678e-20)
(14.8905 4.00902 -3.89951e-19)
(14.9722 3.91741 1.9902e-20)
(15.1107 3.83565 2.03978e-18)
(15.3284 3.81391 -5.40253e-20)
(15.5494 3.8408 -1.66008e-18)
(15.8159 3.93178 -1.74798e-19)
(16.0793 4.09356 -1.97192e-18)
(16.3326 4.31374 -1.63803e-18)
(16.5538 4.58215 8.84173e-20)
(16.7296 4.86677 0)
(16.8524 5.13146 -1.22186e-19)
(16.932 5.34135 1.55487e-19)
(16.9867 5.49434 0)
(17.0319 5.59217 2.49809e-19)
(17.071 5.64797 -1.68384e-19)
(17.1045 5.67132 0)
(15.0917 4.15357 -4.10257e-18)
(15.0743 4.14392 -2.96934e-18)
(15.0473 4.16386 0)
(14.9977 4.18184 -2.41012e-18)
(14.948 4.183 -6.74143e-18)
(14.895 4.1645 -1.90504e-18)
(14.8634 4.10807 -1.20981e-18)
(14.879 4.02398 0)
(14.9584 3.92435 1.87907e-18)
(15.0996 3.83228 -2.01476e-18)
(15.323 3.79992 2.07014e-18)
(15.5506 3.81331 1.72317e-18)
(15.8304 3.89082 -2.45161e-20)
(16.1116 4.03914 3.16269e-20)
(16.3896 4.24747 -1.63947e-18)
(16.6389 4.51059 1.1015e-18)
(16.8393 4.79893 0)
(16.9755 5.07436 4.93769e-19)
(17.0532 5.29513 0)
(17.091 5.4538 0)
(17.107 5.55767 -2.39224e-19)
(17.1121 5.61685 -4.24516e-19)
(17.1103 5.63847 3.49813e-19)
(15.0926 4.15344 0)
(15.0743 4.14429 1.22362e-22)
(15.0477 4.16492 -3.72374e-22)
(14.9977 4.18457 2.45892e-18)
(14.9471 4.18763 1.67715e-18)
(14.8926 4.17111 1.906e-18)
(14.8592 4.11567 6.1218e-19)
(14.8729 4.03044 -9.65135e-22)
(14.9519 3.9268 -9.12902e-19)
(15.0929 3.82746 -2.79867e-20)
(15.3214 3.78656 4.43795e-20)
(15.5543 3.78849 0)
(15.8452 3.8522 2.51916e-20)
(16.1432 3.9859 -3.24532e-20)
(16.4446 4.18024 2.42496e-18)
(16.7225 4.43498 6.98954e-20)
(16.9507 4.72486 0)
(17.1073 5.01226 1.37687e-19)
(17.1923 5.25151 -1.53604e-19)
(17.2172 5.43324 0)
(17.205 5.56721 0)
(17.1792 5.6496 2.49796e-19)
(17.1479 5.67774 -1.44341e-19)
(15.0936 4.15338 -4.06436e-18)
(15.0745 4.14473 -3.10381e-18)
(15.048 4.16611 0)
(14.9976 4.18731 -2.46241e-18)
(14.9462 4.19215 1.71998e-18)
(14.8903 4.17737 1.93549e-18)
(14.8551 4.12266 -5.96233e-19)
(14.8668 4.03608 -3.99799e-19)
(14.9452 3.92853 -9.69012e-19)
(15.0866 3.82178 3.09482e-18)
(15.3201 3.77225 -2.11982e-18)
(15.5579 3.76251 -1.82582e-18)
(15.8594 3.81149 -1.49908e-18)
(16.1736 3.9292 0)
(16.4986 4.10751 -8.44403e-19)
(16.8068 4.35164 1.22922e-18)
(17.0665 4.64163 5.00003e-20)
(17.2516 4.94231 -5.60766e-19)
(17.3529 5.20952 0)
(17.3733 5.43342 0)
(17.342 5.61673 0)
(17.2845 5.73153 -3.15988e-19)
(17.1993 5.7612 2.29734e-19)
(15.0945 4.15326 4.07143e-18)
(15.0746 4.14516 -3.7298e-20)
(15.0484 4.16731 0)
(14.9976 4.19007 2.49436e-18)
(14.9455 4.19669 2.07623e-22)
(14.8884 4.18365 -2.90073e-18)
(14.8513 4.12967 1.16217e-18)
(14.8612 4.04171 1.27842e-18)
(14.9388 3.93023 -1.34084e-21)
(15.0805 3.81587 -1.04434e-18)
(15.3187 3.75754 -1.11842e-18)
(15.5609 3.73579 1.8323e-18)
(15.8723 3.76903 1.48265e-18)
(16.202 3.86905 -1.20865e-18)
(16.5504 4.02865 1.4722e-20)
(16.8907 4.25904 -1.24181e-18)
(17.1872 4.54595 0)
(17.4108 4.85951 0)
(17.5419 5.16234 3.15303e-19)
(17.5769 5.443 0)
(17.5403 5.6914 0)
(17.4429 5.85849 5.75497e-20)
(17.2812 5.91649 8.65096e-20)
(15.0953 4.15304 0)
(15.0748 4.14555 3.15124e-18)
(15.0488 4.16849 -7.47074e-23)
(14.9978 4.19282 1.79782e-21)
(14.9451 4.20124 9.57473e-23)
(14.8867 4.18999 1.91443e-18)
(14.8479 4.13682 -5.65641e-19)
(14.8557 4.04752 -8.78805e-19)
(14.9325 3.93212 -1.10473e-18)
(15.0743 3.81001 0)
(15.3167 3.74272 1.11442e-18)
(15.563 3.70856 3.79414e-21)
(15.8833 3.72502 6.77922e-22)
(16.2276 3.80549 1.20318e-18)
(16.599 3.94324 0)
(16.9729 4.15559 6.73815e-19)
(17.3114 4.43412 -1.32192e-20)
(17.5839 4.75684 0)
(17.7631 5.09602 -3.11233e-19)
(17.8396 5.43843 0)
(17.8211 5.76253 0)
(17.7065 6.01303 0)
(17.5218 6.16178 -3.34805e-21)
(15.0961 4.15274 0)
(15.075 4.1459 -1.60121e-18)
(15.0493 4.16964 1.34867e-23)
(14.9981 4.19555 -2.50309e-18)
(14.9447 4.20582 -1.72507e-18)
(14.8851 4.19641 -1.88842e-18)
(14.8445 4.14413 0)
(14.8503 4.05357 -5.23317e-19)
(14.926 3.93428 2.25567e-18)
(15.0677 3.80429 -6.56071e-23)
(15.314 3.7279 1.15845e-18)
(15.5637 3.68094 -9.72252e-19)
(15.8917 3.67955 0)
(16.2497 3.73853 0)
(16.6431 3.85099 9.63176e-19)
(17.0512 4.03994 -6.61114e-19)
(17.4358 4.30269 0)
(17.7668 4.62578 -5.8987e-19)
(18.0134 4.99125 -3.56478e-19)
(18.1606 5.3847 0)
(18.199 5.77768 2.5886e-21)
(18.1312 6.12125 -8.94539e-22)
(18.0242 6.39044 -3.5481e-20)
(15.0969 4.15236 -1.73844e-23)
(15.0752 4.14622 3.21353e-18)
(15.0499 4.17075 4.19433e-23)
(14.9984 4.19826 0)
(14.9445 4.21041 1.25702e-20)
(14.8837 4.2029 1.85856e-18)
(14.8412 4.15161 1.91733e-22)
(14.8448 4.05986 5.23721e-19)
(14.9193 3.93673 -1.15068e-18)
(15.0605 3.79875 1.1414e-18)
(15.3105 3.71311 1.29716e-20)
(15.5629 3.65298 1.95973e-18)
(15.8974 3.63272 -1.59653e-18)
(16.2677 3.66826 4.5539e-21)
(16.6815 3.75178 -1.96056e-18)
(17.1232 3.91118 7.38546e-19)
(17.5562 4.14847 -2.95026e-20)
(17.9535 4.45793 6.07482e-19)
(18.2827 4.82906 3.51244e-19)
(18.5249 5.24558 0)
(18.6602 5.67631 1.25416e-19)
(18.7023 6.08117 0)
(18.733 6.43369 -4.28355e-20)
(15.0978 4.1519 0)
(15.0755 4.14649 -1.6122e-18)
(15.0504 4.17183 -1.59466e-18)
(14.9988 4.20095 -1.4256e-22)
(14.9443 4.21501 3.42059e-18)
(14.8823 4.20947 -9.22328e-19)
(14.838 4.15927 0)
(14.8393 4.06642 0)
(14.9124 3.9395 -7.4419e-22)
(15.0528 3.79343 -1.14195e-18)
(15.3059 3.69839 8.39901e-21)
(15.5605 3.62477 -9.85857e-19)
(15.9 3.58466 1.59129e-18)
(16.2811 3.59484 0)
(16.713 3.64572 9.89985e-19)
(17.1865 3.76886 -7.15804e-19)
(17.6678 3.96919 4.86928e-19)
(18.1345 4.24732 4.03626e-20)
(18.5537 4.59575 0)
(18.9036 4.99657 0)
(19.1598 5.41869 -5.95275e-20)
(19.3365 5.82615 -1.68122e-19)
(19.4953 6.18928 6.36593e-20)
(15.0986 4.15136 0)
(15.0758 4.14673 6.36919e-23)
(15.051 4.17288 1.59659e-18)
(14.9993 4.20363 -1.24354e-18)
(14.9442 4.21961 -1.70542e-18)
(14.881 4.21611 -2.42903e-22)
(14.8348 4.1671 -1.88355e-19)
(14.8336 4.07324 3.09573e-19)
(14.9052 3.94259 -1.25065e-18)
(15.0445 3.78833 0)
(15.3003 3.68377 5.08828e-21)
(15.5565 3.59641 -1.00492e-18)
(15.8993 3.53552 0)
(16.2895 3.51855 -2.3328e-20)
(16.7364 3.53311 1.07514e-18)
(17.2384 3.61305 0)
(17.7644 3.76438 -3.70742e-20)
(18.2977 3.99136 -4.63571e-21)
(18.8039 4.28495 6.0803e-19)
(19.2564 4.62728 0)
(19.6322 4.99367 0)
(19.9314 5.34611 9.07189e-20)
(20.1671 5.65346 -3.11516e-19)
(15.0994 4.15075 3.51199e-23)
(15.0761 4.14693 -4.64003e-23)
(15.0516 4.17389 0)
(14.9997 4.20628 -1.23769e-18)
(14.9441 4.22423 7.70967e-22)
(14.8797 4.22282 -4.80935e-22)
(14.8316 4.1751 1.88676e-19)
(14.8279 4.08033 -3.101e-19)
(14.8976 3.94601 1.25233e-18)
(15.0357 3.78348 -1.16432e-18)
(15.2937 3.66931 -1.19328e-18)
(15.5508 3.56801 1.0151e-18)
(15.8951 3.48545 8.01108e-19)
(16.2925 3.43972 6.55503e-19)
(16.7506 3.41457 -1.05283e-18)
(17.2764 3.44468 4.63381e-20)
(17.8404 3.53547 -6.27851e-19)
(18.4302 3.69136 -3.16421e-19)
(19.0089 3.90158 -2.17144e-19)
(19.5424 4.14732 1.76807e-19)
(20.0092 4.41202 -2.17635e-19)
(20.3935 4.66995 0)
(20.6564 4.88539 1.7552e-19)
(15.1001 4.15006 0)
(15.0763 4.1471 -1.6349e-18)
(15.0522 4.17488 -1.5952e-18)
(15.0002 4.20891 1.2464e-18)
(14.9441 4.22886 -8.36986e-19)
(14.8785 4.22961 0)
(14.8285 4.18327 2.09615e-22)
(14.8221 4.0877 -2.76882e-22)
(14.8898 3.94978 6.50377e-19)
(15.0262 3.77892 1.75546e-18)
(15.286 3.65505 -1.19077e-18)
(15.5434 3.53967 -7.14448e-21)
(15.8874 3.43466 3.46184e-21)
(16.2899 3.35884 -6.80495e-19)
(16.7545 3.29089 0)
(17.2983 3.26553 8.4527e-19)
(17.8907 3.28574 -6.23886e-19)
(18.5211 3.35363 4.13533e-19)
(19.1502 3.45933 1.89101e-19)
(19.7338 3.58495 1.69391e-20)
(20.2523 3.71929 -2.64919e-19)
(20.6707 3.84779 1.98652e-19)
(20.9239 3.9557 2.51193e-19)
(15.1009 4.14931 -1.03979e-18)
(15.0766 4.14723 -3.47599e-21)
(15.0529 4.17583 1.59707e-18)
(15.0007 4.21151 1.23936e-18)
(14.9442 4.23349 1.6697e-18)
(14.8774 4.23646 8.59161e-19)
(14.8254 4.19162 -2.23474e-22)
(14.8163 4.09535 2.95226e-22)
(14.8818 3.95391 -6.51238e-19)
(15.0163 3.77467 -5.87315e-19)
(15.2774 3.64102 2.39779e-18)
(15.5344 3.51152 -1.03378e-18)
(15.876 3.3834 -8.18841e-19)
(16.2815 3.27645 7.02138e-19)
(16.7473 3.16324 -3.92952e-20)
(17.3021 3.07769 -7.39339e-19)
(17.9104 3.01928 6.40102e-19)
(18.5634 2.98709 -7.20652e-19)
(19.2169 2.97601 -1.60324e-19)
(19.8151 2.96961 0)
(20.3435 2.96597 3.47085e-19)
(20.7583 2.95449 -4.02072e-19)
(20.9698 2.94799 6.06901e-19)
(15.1016 4.1485 1.0408e-18)
(15.0769 4.14734 2.46442e-18)
(15.0535 4.17676 1.59512e-18)
(15.0013 4.2141 -1.23328e-18)
(14.9443 4.23813 -8.32711e-19)
(14.8764 4.24337 -8.60251e-19)
(14.8224 4.20014 -1.37415e-19)
(14.8104 4.10328 0)
(14.8736 3.95841 6.75622e-19)
(15.006 3.77075 -5.93629e-19)
(15.2678 3.62728 -1.20156e-18)
(15.5239 3.48371 1.03531e-18)
(15.8608 3.3319 0)
(16.2669 3.19316 -6.52733e-19)
(16.7281 3.03293 5.12558e-19)
(17.2855 2.88369 -4.5617e-19)
(17.8955 2.74128 1.87236e-19)
(18.5516 2.60196 2.52898e-19)
(19.2002 2.47202 -7.80212e-19)
(19.7798 2.3376 5.06769e-19)
(20.2798 2.19296 0)
(20.6622 2.04996 -1.10679e-18)
(20.8167 1.93924 1.62252e-18)
(15.1023 4.14763 0)
(15.0772 4.14741 -8.23283e-19)
(15.0541 4.17766 -1.59635e-18)
(15.0019 4.21667 1.23444e-18)
(14.9445 4.24277 -5.13898e-23)
(14.8755 4.25036 -4.62626e-22)
(14.8194 4.20883 7.49421e-20)
(14.8045 4.11151 0)
(14.8651 3.96329 -6.76498e-19)
(14.9952 3.76719 -3.93338e-21)
(15.2572 3.61388 0)
(15.5117 3.4564 -5.28515e-19)
(15.8416 3.28043 0)
(16.246 3.10958 5.19515e-20)
(16.6964 2.9013 -1.15312e-18)
(17.2471 2.68666 3.5265e-19)
(17.8453 2.45804 1.98156e-19)
(18.4843 2.21083 -8.01447e-19)
(19.0958 1.96648 3.88758e-19)
(19.6269 1.71474 6.41298e-19)
(20.0756 1.44322 -1.04833e-18)
(20.3961 1.18378 1.01448e-18)
(20.4905 0.980839 -3.76552e-18)
(15.103 4.1467 1.04178e-18)
(15.0776 4.14746 -8.26841e-19)
(15.0548 4.17853 7.9646e-19)
(15.0025 4.21922 5.83496e-22)
(14.9448 4.24741 -7.44126e-22)
(14.8746 4.2574 6.79462e-22)
(14.8165 4.21769 6.18006e-20)
(14.7986 4.12003 1.8486e-21)
(14.8565 3.96856 -1.96926e-21)
(14.9839 3.76402 -4.74341e-21)
(15.2457 3.60086 -6.05545e-19)
(15.498 3.4297 5.10797e-19)
(15.8184 3.22916 2.40112e-20)
(16.2186 3.02636 -5.27779e-20)
(16.6518 2.76999 6.60739e-19)
(17.1865 2.4896 0)
(17.7616 2.17566 3.78173e-19)
(18.3651 1.82779 5.58453e-19)
(18.9099 1.48057 -4.68422e-19)
(19.3651 1.12138 1.30369e-18)
(19.7458 0.746312 -6.73887e-19)
(19.9881 0.394805 1.77323e-19)
(20.0176 0.110948 2.33064e-18)
(15.1037 4.14572 -2.08442e-18)
(15.0779 4.14748 8.27669e-19)
(15.0555 4.17938 -1.23313e-21)
(15.0032 4.22174 0)
(14.9451 4.25206 0)
(14.8739 4.26451 4.06027e-19)
(14.8138 4.22673 4.94054e-20)
(14.7927 4.12885 0)
(14.8476 3.97423 -3.26573e-21)
(14.9722 3.76126 6.09153e-19)
(15.2332 3.58826 6.17886e-19)
(15.4828 3.40374 -1.48872e-20)
(15.7911 3.17843 -3.15458e-20)
(16.1844 2.94442 9.40073e-20)
(16.594 2.64076 -6.86962e-20)
(17.1036 2.2951 0)
(17.6464 1.89946 -5.56284e-19)
(18.2007 1.46443 5.06498e-20)
(18.6563 1.0317 -1.36877e-18)
(19.0178 0.578134 6.44864e-19)
(19.3139 0.122796 1.09861e-18)
(19.472 -0.290975 -1.83312e-18)
(19.433 -0.640138 0)
(15.1043 4.1447 2.08435e-18)
(15.0782 4.14748 -9.41565e-23)
(15.0562 4.1802 -7.96891e-19)
(15.0039 4.22424 0)
(14.9454 4.2567 0)
(14.8732 4.27168 -6.87288e-21)
(14.811 4.23593 -9.19787e-20)
(14.7868 4.13797 0)
(14.8385 3.98032 3.6707e-19)
(14.9601 3.75894 0)
(15.2196 3.57611 0)
(15.466 3.3787 -1.8726e-20)
(15.7597 3.12865 2.42195e-20)
(16.1434 2.86454 3.1593e-19)
(16.5235 2.51502 6.95556e-20)
(16.9998 2.10512 -1.41252e-19)
(17.5027 1.63313 5.7448e-19)
(17.9922 1.12834 0)
(18.3499 0.631429 4.6519e-19)
(18.612 0.099913 0)
(18.8118 -0.413059 2.69543e-19)
(18.8843 -0.862093 4.00264e-19)
(18.7783 -1.25528 0)
(15.1049 4.14363 -1.56321e-18)
(15.0786 4.14746 4.16376e-19)
(15.0569 4.181 0)
(15.0047 4.22672 -6.07853e-19)
(14.9459 4.26135 3.98528e-19)
(14.8726 4.2789 -4.00001e-19)
(14.8084 4.2453 4.28381e-20)
(14.7809 4.14739 -2.07861e-19)
(14.8293 3.98682 -3.65411e-19)
(14.9476 3.75708 -6.27464e-21)
(15.205 3.56448 8.12994e-21)
(15.4477 3.35476 5.53136e-19)
(15.7243 3.08007 3.16209e-20)
(16.0955 2.78712 -4.66679e-19)
(16.4408 2.39385 7.02266e-20)
(16.8792 1.92171 0)
(17.3376 1.3829 0)
(17.7344 0.824225 0)
(17.9987 0.280917 0)
(18.1692 -0.306031 -1.82332e-19)
(18.2684 -0.853793 -1.32488e-18)
(18.2612 -1.31853 1.38469e-18)
(18.0967 -1.71596 0)
(15.1055 4.14252 5.21129e-19)
(15.0789 4.14741 -8.33915e-19)
(15.0576 4.18177 0)
(15.0054 4.22918 6.08565e-19)
(14.9464 4.26599 -7.95202e-19)
(14.8721 4.28618 0)
(14.8059 4.25483 0)
(14.775 4.15713 2.06463e-19)
(14.8198 3.99375 0)
(14.9346 3.75571 -3.09947e-19)
(15.1894 3.55341 -3.11371e-19)
(15.428 3.332 -2.74811e-19)
(15.6851 3.03289 4.05764e-19)
(16.0404 2.71264 0)
(16.3471 2.27779 0)
(16.7441 1.74581 1.41022e-19)
(17.1525 1.15701 -1.82375e-19)
(17.4396 0.559799 0)
(17.6126 -0.0242764 -2.35581e-19)
(17.704 -0.641971 1.88411e-19)
(17.71 -1.20229 1.17925e-18)
(17.6344 -1.65803 -1.59086e-18)
(17.4275 -2.0418 0)
(15.1061 4.14138 -7.15204e-23)
(15.0792 4.14734 8.35697e-19)
(15.0583 4.18253 2.11113e-22)
(15.0062 4.23162 3.01764e-19)
(14.9469 4.27062 3.96652e-19)
(14.8717 4.2935 -1.89923e-19)
(14.8034 4.26453 -2.39379e-22)
(14.769 4.16717 -1.11177e-19)
(14.8101 4.00112 3.96779e-19)
(14.9212 3.75487 3.12154e-19)
(15.1727 3.54291 3.03687e-19)
(15.4068 3.31049 -2.80007e-19)
(15.6424 2.98754 -4.07285e-19)
(15.9778 2.64208 -5.46274e-20)
(16.2437 2.16767 7.09576e-20)
(16.5963 1.57942 1.37974e-19)
(16.9401 0.957555 -1.79127e-19)
(17.1274 0.335869 0)
(17.2117 -0.285713 2.41866e-19)
(17.23 -0.91544 0)
(17.16 -1.46658 -1.42235e-19)
(17.0251 -1.90418 0)
(16.7854 -2.26925 -6.66523e-20)
(15.1067 4.1402 -2.60472e-19)
(15.0796 4.14725 -4.18208e-19)
(15.059 4.18326 -3.96492e-19)
(15.007 4.23404 -1.61076e-21)
(14.9475 4.27525 7.71701e-22)
(14.8714 4.30088 3.26068e-21)
(14.801 4.27438 8.55175e-21)
(14.7631 4.17753 -3.57071e-21)
(14.8002 4.00893 -3.91559e-19)
(14.9075 3.75455 -6.32153e-21)
(15.1551 3.53302 3.08891e-19)
(15.3843 3.2904 0)
(15.5964 2.94445 -3.07943e-20)
(15.9075 2.5755 3.98512e-20)
(16.132 2.06407 1.59116e-19)
(16.4445 1.42689 0)
(16.7069 0.784471 0)
(16.809 0.145219 -1.40031e-19)
(16.8164 -0.505739 0)
(16.7633 -1.13664 7.55359e-19)
(16.6334 -1.66002 -8.9756e-19)
(16.4581 -2.06437 9.17164e-20)
(16.1932 -2.41625 2.22132e-18)
(15.1072 4.13899 5.21256e-19)
(15.08 4.14715 2.09735e-19)
(15.0598 4.18398 5.94536e-19)
(15.0079 4.23643 -3.02243e-19)
(14.9482 4.27988 -1.92884e-19)
(14.8712 4.3083 2.78637e-19)
(14.7987 4.2844 -7.96747e-21)
(14.7572 4.18821 1.11041e-19)
(14.7901 4.01719 5.89235e-21)
(14.8934 3.7548 -4.69231e-21)
(15.1364 3.52378 -3.01184e-19)
(15.3605 3.27191 -1.4355e-19)
(15.5475 2.90397 1.64726e-19)
(15.8287 2.51208 2.15652e-19)
(16.0153 1.96526 -1.60446e-19)
(16.2909 1.29071 0)
(16.4577 0.636915 0)
(16.4845 -0.0176635 -2.94271e-19)
(16.4313 -0.688324 4.0998e-19)