/*--------------------------------*- C++ -*----------------------------------*\
  =========                 |
  \\      /  F ield         | OpenFOAM: The Open Source CFD Toolbox
   \\    /   O peration     | Website:  https://openfoam.org
    \\  /    A nd           | Version:  7
     \\/     M anipulation  |
\*---------------------------------------------------------------------------*/
FoamFile
{
    version     2.0;
    format      ascii;
    class       volScalarField;
    location    "50";
    object      yPlus;
}
// * * * * * * * * * * * * * * * * * * * * * * * * * * * * * * * * * * * * * //

dimensions      [0 0 0 0 0 0 0];

internalField   uniform 0;

boundaryField
{
    inlet
    {
        type            calculated;
        value           uniform 0;
    }
    outlet
    {
        type            calculated;
        value           uniform 0;
    }
    suction_side
    {
        type            calculated;
        value           nonuniform List<scalar> 
56
(
20.2935
22.7001
26.4583
30.0375
33.296
36.7774
40.7571
44.1118
47.8645
50.6595
53.6743
52.6592
46.8026
28.7564
27.1355
34.0685
39.5662
41.4217
41.0041
40.1735
38.3131
36.3761
34.4516
32.3127
30.0749
28.8513
29.1867
29.1507
33.7385
35.7903
38.488
24.4461
17.5198
24.1785
28.8323
31.7093
33.3419
34.328
34.5184
34.3516
34.1481
33.8719
33.1917
32.2296
31.0387
29.6067
28.2097
27.1573
26.7749
25.523
22.7612
18.7733
15.1734
13.8308
13.8373
14.7595
)
;
    }
    pressure_side
    {
        type            calculated;
        value           nonuniform List<scalar> 
56
(
37.2442
37.0889
36.8494
36.6194
36.4984
36.451
36.4338
36.4376
36.4233
36.4446
36.4767
36.5227
36.5876
36.6788
36.7958
36.9211
37.0496
37.1513
37.2165
37.2481
37.2188
37.1482
37.0351
36.9281
36.8092
36.6903
36.6693
36.7834
37.1123
37.6215
38.1615
38.6081
38.8589
38.3136
37.1572
35.6188
33.6888
31.2272
27.8059
23.7433
19.446
15.1017
11.5825
10.122
6.72155
7.13264
7.847
8.20758
9.66081
9.78232
11.4235
11.3036
13.3158
13.8899
16.1653
17.6882
)
;
    }
    trailing_edge
    {
        type            calculated;
        value           nonuniform List<scalar> 2(125.744 78.8315);
    }
    defaultFaces
    {
        type            empty;
    }
}


// ************************************************************************* //
