/*--------------------------------*- C++ -*----------------------------------*\
  =========                 |
  \\      /  F ield         | OpenFOAM: The Open Source CFD Toolbox
   \\    /   O peration     | Website:  https://openfoam.org
    \\  /    A nd           | Version:  7
     \\/     M anipulation  |
\*---------------------------------------------------------------------------*/
FoamFile
{
    version     2.0;
    format      ascii;
    class       volSymmTensorField;
    location    "100";
    object      devReff;
}
// * * * * * * * * * * * * * * * * * * * * * * * * * * * * * * * * * * * * * //

dimensions      [0 2 -2 0 0 0 0];

internalField   nonuniform List<symmTensor> 
36000
(
(0.000141068 -0.0217216 -0 -0.000105437 -0 -3.56311e-05)
(0.000173381 -0.0221129 -0 -0.000169796 -0 -3.58522e-06)
(0.000221379 -0.0224374 -0 -0.000218974 -0 -2.40492e-06)
(0.000256926 -0.0226882 -0 -0.000250515 -0 -6.41146e-06)
(0.000272538 -0.0228866 -0 -0.000267313 -0 -5.22453e-06)
(0.000277131 -0.0230237 -0 -0.000275061 -0 -2.07051e-06)
(0.000278247 -0.023127 -0 -0.000278057 -0 -1.90104e-07)
(0.000277195 -0.0231777 -0 -0.00027769 -0 4.94845e-07)
(0.000274153 -0.0232108 -0 -0.000275065 -0 9.12017e-07)
(0.000269099 -0.0231954 -0 -0.000270441 -0 1.34193e-06)
(0.000263242 -0.0231683 -0 -0.000264915 -0 1.67305e-06)
(0.000256898 -0.0231238 -0 -0.000258752 -0 1.85316e-06)
(0.000250133 -0.0230567 -0 -0.000252078 -0 1.94443e-06)
(0.000243142 -0.0229753 -0 -0.000245143 -0 2.00085e-06)
(0.000236067 -0.0228823 -0 -0.000238089 -0 2.02268e-06)
(0.000229023 -0.0227799 -0 -0.000231023 -0 1.99977e-06)
(0.000222066 -0.0226699 -0 -0.000224011 -0 1.9447e-06)
(0.000215218 -0.0225541 -0 -0.0002171 -0 1.88179e-06)
(0.000208503 -0.0224338 -0 -0.000210327 -0 1.82398e-06)
(0.000201953 -0.0223104 -0 -0.000203721 -0 1.76839e-06)
(0.000195594 -0.0221847 -0 -0.000197301 -0 1.70714e-06)
(0.000189438 -0.0220577 -0 -0.000191076 -0 1.6381e-06)
(0.000183487 -0.0219302 -0 -0.000185053 -0 1.56551e-06)
(0.000177737 -0.0218027 -0 -0.000179232 -0 1.4945e-06)
(0.000172186 -0.0216757 -0 -0.000173614 -0 1.42865e-06)
(0.000166832 -0.0215498 -0 -0.0001682 -0 1.36862e-06)
(0.000161673 -0.0214251 -0 -0.000162986 -0 1.31287e-06)
(0.000156709 -0.0213021 -0 -0.000157969 -0 1.26012e-06)
(0.000151934 -0.0211809 -0 -0.000153144 -0 1.20972e-06)
(0.000147343 -0.0210617 -0 -0.000148504 -0 1.16095e-06)
(0.000142929 -0.0209447 -0 -0.000144043 -0 1.11356e-06)
(0.000138686 -0.02083 -0 -0.000139755 -0 1.06863e-06)
(0.000134608 -0.0207176 -0 -0.000135635 -0 1.02674e-06)
(0.000130689 -0.0206076 -0 -0.000131676 -0 9.87362e-07)
(0.000126921 -0.0205001 -0 -0.000127872 -0 9.50823e-07)
(0.000123299 -0.020395 -0 -0.000124216 -0 9.17508e-07)
(0.000119818 -0.0202924 -0 -0.000120705 -0 8.86598e-07)
(0.000116473 -0.0201922 -0 -0.00011733 -0 8.57187e-07)
(0.000113258 -0.0200944 -0 -0.000114087 -0 8.29177e-07)
(0.000110168 -0.019999 -0 -0.000110971 -0 8.02484e-07)
(0.000107199 -0.0199059 -0 -0.000107975 -0 7.76801e-07)
(0.000104344 -0.0198151 -0 -0.000105096 -0 7.52255e-07)
(0.000101599 -0.0197266 -0 -0.000102327 -0 7.28912e-07)
(9.89582e-05 -0.0196403 -0 -9.96652e-05 -0 7.06911e-07)
(9.64187e-05 -0.0195562 -0 -9.7105e-05 -0 6.86288e-07)
(9.39754e-05 -0.0194741 -0 -9.4642e-05 -0 6.66639e-07)
(9.16241e-05 -0.0193941 -0 -9.22724e-05 -0 6.48283e-07)
(8.93616e-05 -0.0193161 -0 -8.99931e-05 -0 6.31504e-07)
(8.7184e-05 -0.01924 -0 -8.77993e-05 -0 6.15363e-07)
(8.50871e-05 -0.0191657 -0 -8.56865e-05 -0 5.994e-07)
(8.30678e-05 -0.0190933 -0 -8.36519e-05 -0 5.8412e-07)
(8.11234e-05 -0.0190226 -0 -8.16931e-05 -0 5.69642e-07)
(7.92506e-05 -0.0189536 -0 -7.98061e-05 -0 5.5549e-07)
(7.74454e-05 -0.0188863 -0 -7.79872e-05 -0 5.41769e-07)
(7.57048e-05 -0.0188205 -0 -7.6234e-05 -0 5.29239e-07)
(7.40267e-05 -0.0187563 -0 -7.45446e-05 -0 5.1787e-07)
(7.24088e-05 -0.0186936 -0 -7.29153e-05 -0 5.06517e-07)
(7.08478e-05 -0.0186324 -0 -7.13425e-05 -0 4.94714e-07)
(6.93416e-05 -0.0185725 -0 -6.98251e-05 -0 4.83506e-07)
(6.78885e-05 -0.018514 -0 -6.83619e-05 -0 4.73416e-07)
(6.64859e-05 -0.0184567 -0 -6.69498e-05 -0 4.63821e-07)
(6.51308e-05 -0.0184008 -0 -6.55853e-05 -0 4.54456e-07)
(6.38214e-05 -0.018346 -0 -6.4267e-05 -0 4.45606e-07)
(6.2557e-05 -0.0182925 -0 -6.29942e-05 -0 4.37216e-07)
(6.1336e-05 -0.01824 -0 -6.17649e-05 -0 4.28906e-07)
(6.01559e-05 -0.0181887 -0 -6.05767e-05 -0 4.20745e-07)
(5.9015e-05 -0.0181384 -0 -5.94279e-05 -0 4.12866e-07)
(5.79117e-05 -0.0180892 -0 -5.83168e-05 -0 4.05143e-07)
(5.6845e-05 -0.0180409 -0 -5.7243e-05 -0 3.97956e-07)
(5.58143e-05 -0.0179936 -0 -5.62055e-05 -0 3.91194e-07)
(5.48176e-05 -0.0179472 -0 -5.52017e-05 -0 3.84145e-07)
(5.38532e-05 -0.0179017 -0 -5.42305e-05 -0 3.77252e-07)
(5.29209e-05 -0.0178571 -0 -5.32919e-05 -0 3.70921e-07)
(5.20199e-05 -0.0178133 -0 -5.23843e-05 -0 3.64402e-07)
(5.11486e-05 -0.0177703 -0 -5.15064e-05 -0 3.57828e-07)
(5.03059e-05 -0.0177281 -0 -5.06576e-05 -0 3.51617e-07)
(4.94908e-05 -0.0176866 -0 -4.98362e-05 -0 3.45426e-07)
(4.87024e-05 -0.0176458 -0 -4.90415e-05 -0 3.39112e-07)
(4.79396e-05 -0.0176057 -0 -4.82725e-05 -0 3.32899e-07)
(4.72013e-05 -0.0175663 -0 -4.75282e-05 -0 3.2698e-07)
(4.64861e-05 -0.0175275 -0 -4.68074e-05 -0 3.21314e-07)
(4.57931e-05 -0.0174894 -0 -4.61085e-05 -0 3.15405e-07)
(4.51209e-05 -0.0174518 -0 -4.543e-05 -0 3.09114e-07)
(4.44688e-05 -0.0174148 -0 -4.47721e-05 -0 3.03304e-07)
(4.38362e-05 -0.0173784 -0 -4.41344e-05 -0 2.98153e-07)
(4.32218e-05 -0.0173426 -0 -4.35145e-05 -0 2.92717e-07)
(4.26251e-05 -0.0173072 -0 -4.29122e-05 -0 2.87107e-07)
(4.20484e-05 -0.0172724 -0 -4.23299e-05 -0 2.8155e-07)
(4.14949e-05 -0.0172382 -0 -4.17703e-05 -0 2.75398e-07)
(4.09721e-05 -0.0172044 -0 -4.12398e-05 -0 2.6768e-07)
(4.04846e-05 -0.0171711 -0 -4.07454e-05 -0 2.60817e-07)
(4.00534e-05 -0.0171383 -0 -4.0295e-05 -0 2.41673e-07)
(3.96753e-05 -0.017106 -0 -3.98921e-05 -0 2.16836e-07)
(3.93231e-05 -0.0170742 -0 -3.95289e-05 -0 2.05785e-07)
(3.89925e-05 -0.0170428 -0 -3.91928e-05 -0 2.00275e-07)
(3.86766e-05 -0.0170118 -0 -3.88715e-05 -0 1.94952e-07)
(3.83673e-05 -0.0169813 -0 -3.85575e-05 -0 1.90178e-07)
(3.80592e-05 -0.0169511 -0 -3.82465e-05 -0 1.87277e-07)
(3.77484e-05 -0.0169213 -0 -3.79347e-05 -0 1.86252e-07)
(3.74331e-05 -0.0168918 -0 -3.76196e-05 -0 1.86502e-07)
(3.71127e-05 -0.0168627 -0 -3.72998e-05 -0 1.87104e-07)
(3.67879e-05 -0.0168339 -0 -3.69753e-05 -0 1.87488e-07)
(3.64587e-05 -0.0168055 -0 -3.66464e-05 -0 1.87679e-07)
(3.61251e-05 -0.0167773 -0 -3.63131e-05 -0 1.88027e-07)
(3.57867e-05 -0.0167495 -0 -3.59754e-05 -0 1.88752e-07)
(3.54434e-05 -0.016722 -0 -3.56333e-05 -0 1.89842e-07)
(3.50962e-05 -0.0166949 -0 -3.52875e-05 -0 1.91316e-07)
(3.47464e-05 -0.016668 -0 -3.49392e-05 -0 1.92742e-07)
(3.43948e-05 -0.0166414 -0 -3.4588e-05 -0 1.93232e-07)
(3.40416e-05 -0.0166151 -0 -3.42343e-05 -0 1.92743e-07)
(3.36877e-05 -0.0165891 -0 -3.38802e-05 -0 1.92479e-07)
(3.33337e-05 -0.0165634 -0 -3.35265e-05 -0 1.92791e-07)
(3.29796e-05 -0.016538 -0 -3.31729e-05 -0 1.9332e-07)
(3.26254e-05 -0.0165128 -0 -3.28192e-05 -0 1.93732e-07)
(3.22725e-05 -0.0164879 -0 -3.24661e-05 -0 1.93599e-07)
(3.19221e-05 -0.0164633 -0 -3.21148e-05 -0 1.9275e-07)
(3.15749e-05 -0.016439 -0 -3.17664e-05 -0 1.91473e-07)
(3.12303e-05 -0.0164149 -0 -3.14207e-05 -0 1.90419e-07)
(3.08881e-05 -0.016391 -0 -3.1078e-05 -0 1.89866e-07)
(3.05485e-05 -0.0163674 -0 -3.07377e-05 -0 1.89133e-07)
(3.02123e-05 -0.0163441 -0 -3.04001e-05 -0 1.87725e-07)
(2.98802e-05 -0.016321 -0 -3.00665e-05 -0 1.8629e-07)
(2.95528e-05 -0.0162981 -0 -2.97381e-05 -0 1.85271e-07)
(2.92299e-05 -0.0162755 -0 -2.94139e-05 -0 1.83966e-07)
(2.89107e-05 -0.0162531 -0 -2.90926e-05 -0 1.81947e-07)
(2.85956e-05 -0.0162309 -0 -2.87756e-05 -0 1.80067e-07)
(2.82859e-05 -0.016209 -0 -2.84647e-05 -0 1.7888e-07)
(2.79815e-05 -0.0161873 -0 -2.81591e-05 -0 1.77527e-07)
(2.76817e-05 -0.0161657 -0 -2.78572e-05 -0 1.75487e-07)
(2.73865e-05 -0.0161444 -0 -2.75597e-05 -0 1.73203e-07)
(2.70968e-05 -0.0161233 -0 -2.72679e-05 -0 1.71139e-07)
(2.68128e-05 -0.0161024 -0 -2.69823e-05 -0 1.69561e-07)
(2.6534e-05 -0.0160817 -0 -2.67024e-05 -0 1.68336e-07)
(2.626e-05 -0.0160612 -0 -2.64266e-05 -0 1.66611e-07)
(2.59911e-05 -0.0160409 -0 -2.61551e-05 -0 1.64071e-07)
(2.57284e-05 -0.0160208 -0 -2.589e-05 -0 1.61612e-07)
(2.54722e-05 -0.0160009 -0 -2.56319e-05 -0 1.59638e-07)
(2.52212e-05 -0.0159811 -0 -2.53792e-05 -0 1.58016e-07)
(2.49747e-05 -0.0159615 -0 -2.51311e-05 -0 1.56381e-07)
(2.4733e-05 -0.0159421 -0 -2.48874e-05 -0 1.54327e-07)
(2.44975e-05 -0.0159228 -0 -2.46494e-05 -0 1.51912e-07)
(2.42682e-05 -0.0159037 -0 -2.44177e-05 -0 1.49494e-07)
(2.40438e-05 -0.0158848 -0 -2.41913e-05 -0 1.47496e-07)
(2.38238e-05 -0.015866 -0 -2.39698e-05 -0 1.46024e-07)
(2.36079e-05 -0.0158474 -0 -2.37524e-05 -0 1.44475e-07)
(2.3397e-05 -0.0158289 -0 -2.35396e-05 -0 1.42624e-07)
(2.31913e-05 -0.0158105 -0 -2.33318e-05 -0 1.40539e-07)
(2.29901e-05 -0.0157923 -0 -2.31283e-05 -0 1.38204e-07)
(2.27929e-05 -0.0157742 -0 -2.2929e-05 -0 1.36187e-07)
(2.25994e-05 -0.0157563 -0 -2.27343e-05 -0 1.34962e-07)
(2.24092e-05 -0.0157385 -0 -2.2543e-05 -0 1.33728e-07)
(2.2222e-05 -0.0157209 -0 -2.23539e-05 -0 1.31906e-07)
(2.2038e-05 -0.0157034 -0 -2.21681e-05 -0 1.3007e-07)
(2.18576e-05 -0.015686 -0 -2.19861e-05 -0 1.28517e-07)
(2.16804e-05 -0.0156687 -0 -2.18075e-05 -0 1.27027e-07)
(2.15054e-05 -0.0156516 -0 -2.16308e-05 -0 1.25391e-07)
(2.1332e-05 -0.0156346 -0 -2.14561e-05 -0 1.24099e-07)
(2.11611e-05 -0.0156177 -0 -2.12845e-05 -0 1.23352e-07)
(2.09928e-05 -0.0156009 -0 -2.11154e-05 -0 1.22565e-07)
(2.08264e-05 -0.0155843 -0 -2.09478e-05 -0 1.21362e-07)
(2.06614e-05 -0.0155678 -0 -2.07814e-05 -0 1.19992e-07)
(2.04977e-05 -0.0155514 -0 -2.06164e-05 -0 1.18635e-07)
(2.03356e-05 -0.0155352 -0 -2.04535e-05 -0 1.1785e-07)
(2.01752e-05 -0.0155191 -0 -2.02926e-05 -0 1.17348e-07)
(2.00154e-05 -0.015503 -0 -2.01317e-05 -0 1.16293e-07)
(1.98561e-05 -0.0154872 -0 -1.99713e-05 -0 1.15237e-07)
(1.96986e-05 -0.0154714 -0 -1.98132e-05 -0 1.14684e-07)
(1.95429e-05 -0.0154558 -0 -1.9657e-05 -0 1.1407e-07)
(1.93883e-05 -0.0154403 -0 -1.95016e-05 -0 1.13289e-07)
(1.92347e-05 -0.0154249 -0 -1.93475e-05 -0 1.12795e-07)
(1.90827e-05 -0.0154096 -0 -1.9195e-05 -0 1.12264e-07)
(1.89329e-05 -0.0153944 -0 -1.9044e-05 -0 1.11114e-07)
(1.87848e-05 -0.0153794 -0 -1.88943e-05 -0 1.09545e-07)
(1.8638e-05 -0.0153645 -0 -1.87467e-05 -0 1.08668e-07)
(1.84925e-05 -0.0153497 -0 -1.8601e-05 -0 1.08461e-07)
(1.83477e-05 -0.015335 -0 -1.84557e-05 -0 1.08064e-07)
(1.82035e-05 -0.0153204 -0 -1.83108e-05 -0 1.07303e-07)
(1.80611e-05 -0.0153059 -0 -1.81679e-05 -0 1.0679e-07)
(1.7921e-05 -0.0152916 -0 -1.80272e-05 -0 1.06216e-07)
(1.7782e-05 -0.0152774 -0 -1.78873e-05 -0 1.05256e-07)
(1.76439e-05 -0.0152633 -0 -1.77483e-05 -0 1.04486e-07)
(1.75072e-05 -0.0152492 -0 -1.76113e-05 -0 1.04135e-07)
(1.73724e-05 -0.0152353 -0 -1.7476e-05 -0 1.03617e-07)
(1.72388e-05 -0.0152215 -0 -1.73411e-05 -0 1.02332e-07)
(1.71067e-05 -0.0152078 -0 -1.7208e-05 -0 1.01266e-07)
(1.69768e-05 -0.0151942 -0 -1.70774e-05 -0 1.00612e-07)
(1.68482e-05 -0.0151808 -0 -1.69477e-05 -0 9.95057e-08)
(1.67201e-05 -0.0151673 -0 -1.68183e-05 -0 9.82668e-08)
(1.65934e-05 -0.0151541 -0 -1.66911e-05 -0 9.77465e-08)
(1.64677e-05 -0.0151408 -0 -1.65651e-05 -0 9.74542e-08)
(1.63432e-05 -0.0151278 -0 -1.64401e-05 -0 9.69166e-08)
(1.62196e-05 -0.0151148 -0 -1.63161e-05 -0 9.65413e-08)
(1.60962e-05 -0.0151019 -0 -1.61922e-05 -0 9.60032e-08)
(1.59729e-05 -0.0150891 -0 -1.60683e-05 -0 9.53202e-08)
(1.58504e-05 -0.0150764 -0 -1.59455e-05 -0 9.50806e-08)
(1.57282e-05 -0.0150638 -0 -1.58228e-05 -0 9.46196e-08)
(1.5606e-05 -0.0150513 -0 -1.57001e-05 -0 9.41662e-08)
(1.54844e-05 -0.015039 -0 -1.55782e-05 -0 9.3814e-08)
(1.53633e-05 -0.0150266 -0 -1.54566e-05 -0 9.32994e-08)
(1.52424e-05 -0.0150145 -0 -1.53356e-05 -0 9.3201e-08)
(1.51226e-05 -0.0150024 -0 -1.52156e-05 -0 9.29579e-08)
(1.50043e-05 -0.0149904 -0 -1.50967e-05 -0 9.24456e-08)
(1.48879e-05 -0.0149786 -0 -1.49794e-05 -0 9.1531e-08)
(1.47738e-05 -0.0149668 -0 -1.48643e-05 -0 9.05413e-08)
(1.46613e-05 -0.0149551 -0 -1.47514e-05 -0 9.01483e-08)
(1.45507e-05 -0.0149435 -0 -1.4641e-05 -0 9.02572e-08)
(1.44433e-05 -0.014932 -0 -1.45328e-05 -0 8.9492e-08)
(1.43392e-05 -0.0149206 -0 -1.44264e-05 -0 8.71714e-08)
(1.42376e-05 -0.0149092 -0 -1.43235e-05 -0 8.58251e-08)
(1.41378e-05 -0.0148979 -0 -1.42243e-05 -0 8.64939e-08)
(1.40387e-05 -0.0148867 -0 -1.41267e-05 -0 8.79793e-08)
(1.39411e-05 -0.0148756 -0 -1.40294e-05 -0 8.8235e-08)
(1.38452e-05 -0.0148645 -0 -1.3933e-05 -0 8.77264e-08)
(1.37503e-05 -0.0148536 -0 -1.38372e-05 -0 8.68345e-08)
(1.36577e-05 -0.0148426 -0 -1.37424e-05 -0 8.47908e-08)
(1.35646e-05 -0.0148318 -0 -1.36486e-05 -0 8.39585e-08)
(1.34733e-05 -0.014821 -0 -1.35565e-05 -0 8.31304e-08)
(1.33867e-05 -0.0148104 -0 -1.34675e-05 -0 8.07368e-08)
(1.33024e-05 -0.0147997 -0 -1.3381e-05 -0 7.85502e-08)
(1.32234e-05 -0.0147894 -0 -1.3298e-05 -0 7.463e-08)
(1.31464e-05 -0.0147786 -0 -1.32197e-05 -0 7.33552e-08)
(1.30693e-05 -0.0147684 -0 -1.31437e-05 -0 7.44038e-08)
(1.29938e-05 -0.0147577 -0 -1.30665e-05 -0 7.26719e-08)
(1.29158e-05 -0.0147477 -0 -1.29876e-05 -0 7.18226e-08)
(1.28365e-05 -0.0147371 -0 -1.29077e-05 -0 7.1115e-08)
(1.27574e-05 -0.0147274 -0 -1.2828e-05 -0 7.06166e-08)
(1.26715e-05 -0.0147168 -0 -1.27441e-05 -0 7.25538e-08)
(1.25806e-05 -0.0147074 -0 -1.26533e-05 -0 7.27569e-08)
(1.24828e-05 -0.0146971 -0 -1.25546e-05 -0 7.18784e-08)
(1.2379e-05 -0.0146877 -0 -1.24524e-05 -0 7.33445e-08)
(1.22714e-05 -0.0146778 -0 -1.23457e-05 -0 7.43088e-08)
(1.21601e-05 -0.0146684 -0 -1.22371e-05 -0 7.69806e-08)
(1.20427e-05 -0.014659 -0 -1.21227e-05 -0 8.00023e-08)
(1.1925e-05 -0.0146495 -0 -1.20053e-05 -0 8.02731e-08)
(1.18081e-05 -0.0146408 -0 -1.18854e-05 -0 7.73151e-08)
(1.16928e-05 -0.0146311 -0 -1.17688e-05 -0 7.59565e-08)
(1.15722e-05 -0.0146225 -0 -1.16528e-05 -0 8.06012e-08)
(1.1453e-05 -0.0146132 -0 -1.15305e-05 -0 7.75411e-08)
(1.13203e-05 -0.0146045 -0 -1.14006e-05 -0 8.02461e-08)
(1.11772e-05 -0.0145952 -0 -1.12633e-05 -0 8.61398e-08)
(1.10336e-05 -0.014587 -0 -1.11202e-05 -0 8.65825e-08)
(1.08797e-05 -0.0145774 -0 -1.09724e-05 -0 9.27921e-08)
(1.07328e-05 -0.0145694 -0 -1.08241e-05 -0 9.12753e-08)
(1.05817e-05 -0.0145596 -0 -1.06719e-05 -0 9.02585e-08)
(1.04419e-05 -0.014552 -0 -1.05233e-05 -0 8.14042e-08)
(1.03116e-05 -0.0145422 -0 -1.03796e-05 -0 6.80639e-08)
(1.01695e-05 -0.0145351 -0 -1.02353e-05 -0 6.57201e-08)
(1.00269e-05 -0.0145254 -0 -1.00896e-05 -0 6.26781e-08)
(9.87371e-06 -0.0145185 -0 -9.93724e-06 -0 6.35291e-08)
(9.71067e-06 -0.0145086 -0 -9.77311e-06 -0 6.24354e-08)
(9.55094e-06 -0.0145016 -0 -9.60407e-06 -0 5.31325e-08)
(9.36959e-06 -0.0144912 -0 -9.42704e-06 -0 5.74527e-08)
(9.1893e-06 -0.0144837 -0 -9.25187e-06 -0 6.25767e-08)
(9.02751e-06 -0.0144749 -0 -9.0929e-06 -0 6.53972e-08)
(8.89425e-06 -0.014462 -0 -8.97456e-06 -0 8.03132e-08)
(8.75346e-06 -0.0144553 -0 -8.83153e-06 -0 7.80648e-08)
(8.62825e-06 -0.0144482 -0 -8.70832e-06 -0 8.00734e-08)
(8.53182e-06 -0.0144422 -0 -8.61191e-06 -0 8.00915e-08)
(8.43512e-06 -0.0144357 -0 -8.51173e-06 -0 7.66055e-08)
(8.34696e-06 -0.0144406 -0 -8.43684e-06 -0 8.98856e-08)
(8.23326e-06 -0.0144287 -0 -8.32553e-06 -0 9.22709e-08)
(8.11157e-06 -0.0144314 -0 -8.21476e-06 -0 1.03185e-07)
(8.00645e-06 -0.0144313 -0 -8.10993e-06 -0 1.03472e-07)
(7.90519e-06 -0.0144263 -0 -8.00635e-06 -0 1.01156e-07)
(7.79625e-06 -0.0144213 -0 -7.90227e-06 -0 1.06019e-07)
(7.71031e-06 -0.0144143 -0 -7.80531e-06 -0 9.49959e-08)
(7.6273e-06 -0.014408 -0 -7.71641e-06 -0 8.9107e-08)
(7.53713e-06 -0.0144006 -0 -7.62077e-06 -0 8.36435e-08)
(7.43925e-06 -0.0143939 -0 -7.51492e-06 -0 7.56732e-08)
(7.34547e-06 -0.0143855 -0 -7.41446e-06 -0 6.89835e-08)
(7.25894e-06 -0.01438 -0 -7.31858e-06 -0 5.96477e-08)
(7.16936e-06 -0.0143716 -0 -7.2274e-06 -0 5.80459e-08)
(7.07239e-06 -0.0143649 -0 -7.12852e-06 -0 5.61343e-08)
(6.97238e-06 -0.0143563 -0 -7.02847e-06 -0 5.60876e-08)
(6.89291e-06 -0.0143484 -0 -6.9462e-06 -0 5.32898e-08)
(6.80007e-06 -0.0143432 -0 -6.85415e-06 -0 5.40783e-08)
(6.72844e-06 -0.0143317 -0 -6.78755e-06 -0 5.9118e-08)
(6.70204e-06 -0.0143263 -0 -6.7657e-06 -0 6.36639e-08)
(6.67691e-06 -0.0143207 -0 -6.73982e-06 -0 6.29105e-08)
(6.64154e-06 -0.014319 -0 -6.69305e-06 -0 5.15032e-08)
(6.56138e-06 -0.0143222 -0 -6.61731e-06 -0 5.59384e-08)
(6.43553e-06 -0.0143204 -0 -6.50332e-06 -0 6.77841e-08)
(6.28946e-06 -0.0143166 -0 -6.36168e-06 -0 7.2225e-08)
(6.12841e-06 -0.014311 -0 -6.20344e-06 -0 7.50281e-08)
(5.97653e-06 -0.0143048 -0 -6.06172e-06 -0 8.51873e-08)
(5.8782e-06 -0.0142994 -0 -5.95691e-06 -0 7.8715e-08)
(5.80036e-06 -0.0142948 -0 -5.87258e-06 -0 7.22262e-08)
(5.71164e-06 -0.0142905 -0 -5.78619e-06 -0 7.45506e-08)
(5.62529e-06 -0.0142857 -0 -5.69925e-06 -0 7.39635e-08)
(5.56357e-06 -0.0142815 -0 -5.627e-06 -0 6.34307e-08)
(5.50873e-06 -0.0142759 -0 -5.55939e-06 -0 5.06688e-08)
(5.43553e-06 -0.0142707 -0 -5.48808e-06 -0 5.25583e-08)
(5.3772e-06 -0.0142657 -0 -5.42569e-06 -0 4.84885e-08)
(5.3374e-06 -0.0142606 -0 -5.37845e-06 -0 4.10475e-08)
(5.28634e-06 -0.014255 -0 -5.32854e-06 -0 4.22048e-08)
(5.284e-06 -0.0142471 -0 -5.3295e-06 -0 4.55027e-08)
(5.2841e-06 -0.0142416 -0 -5.33894e-06 -0 5.4836e-08)
(5.26616e-06 -0.0142362 -0 -5.3235e-06 -0 5.73424e-08)
(5.27363e-06 -0.0142401 -0 -5.32534e-06 -0 5.17081e-08)
(5.2331e-06 -0.0142305 -0 -5.29406e-06 -0 6.09626e-08)
(5.19721e-06 -0.0142328 -0 -5.25476e-06 -0 5.75445e-08)
(5.14543e-06 -0.0142303 -0 -5.19084e-06 -0 4.54139e-08)
(5.09375e-06 -0.0142263 -0 -5.13665e-06 -0 4.28997e-08)
(5.08418e-06 -0.0142153 -0 -5.12479e-06 -0 4.0607e-08)
(5.03738e-06 -0.0142098 -0 -5.08033e-06 -0 4.29533e-08)
(4.98557e-06 -0.014209 -0 -5.02714e-06 -0 4.15746e-08)
(4.96825e-06 -0.0142002 -0 -5.00272e-06 -0 3.44691e-08)
(4.94496e-06 -0.0141949 -0 -4.98342e-06 -0 3.84569e-08)
(4.9245e-06 -0.0141955 -0 -4.96478e-06 -0 4.02771e-08)
(4.88175e-06 -0.0142 -0 -4.92936e-06 -0 4.76119e-08)
(4.81783e-06 -0.0141912 -0 -4.87169e-06 -0 5.3861e-08)
(4.74411e-06 -0.0141931 -0 -4.80472e-06 -0 6.06128e-08)
(4.65293e-06 -0.0141902 -0 -4.70776e-06 -0 5.48268e-08)
(4.58838e-06 -0.0141853 -0 -4.6253e-06 -0 3.69191e-08)
(4.52717e-06 -0.0141794 -0 -4.56935e-06 -0 4.21822e-08)
(4.46483e-06 -0.0141734 -0 -4.50526e-06 -0 4.0424e-08)
(4.4121e-06 -0.0141703 -0 -4.44865e-06 -0 3.6543e-08)
(4.38504e-06 -0.0141609 -0 -4.42506e-06 -0 4.00255e-08)
(4.35508e-06 -0.0141564 -0 -4.4019e-06 -0 4.68226e-08)
(4.33609e-06 -0.0141518 -0 -4.38283e-06 -0 4.67387e-08)
(4.34546e-06 -0.0141572 -0 -4.39012e-06 -0 4.46622e-08)
(4.32027e-06 -0.0141488 -0 -4.36535e-06 -0 4.50872e-08)
(4.28341e-06 -0.0141452 -0 -4.32379e-06 -0 4.03801e-08)
(4.21549e-06 -0.0141507 -0 -4.2655e-06 -0 5.00195e-08)
(4.15669e-06 -0.0141519 -0 -4.20487e-06 -0 4.81786e-08)
(4.12673e-06 -0.0141493 -0 -4.17231e-06 -0 4.55809e-08)
(4.1066e-06 -0.0141451 -0 -4.14842e-06 -0 4.18105e-08)
(4.07e-06 -0.0141425 -0 -4.09339e-06 -0 2.33936e-08)
(4.01767e-06 -0.014131 -0 -4.045e-06 -0 2.73277e-08)
(4.00022e-06 -0.0141251 -0 -4.02052e-06 -0 2.03052e-08)
(3.97773e-06 -0.0141194 -0 -4.003e-06 -0 2.52682e-08)
(3.96903e-06 -0.0141213 -0 -4.00955e-06 -0 4.05203e-08)
(3.9601e-06 -0.0141127 -0 -3.9968e-06 -0 3.6697e-08)
(3.9337e-06 -0.0141152 -0 -3.98065e-06 -0 4.69473e-08)
(3.91238e-06 -0.0141063 -0 -3.94915e-06 -0 3.677e-08)
(3.89638e-06 -0.0141056 -0 -3.91955e-06 -0 2.317e-08)
(3.86422e-06 -0.014103 -0 -3.8978e-06 -0 3.35788e-08)
(3.83972e-06 -0.0140988 -0 -3.86538e-06 -0 2.56561e-08)
(3.82248e-06 -0.0140968 -0 -3.84157e-06 -0 1.9085e-08)
(3.81852e-06 -0.0140884 -0 -3.85296e-06 -0 3.44325e-08)
(3.85588e-06 -0.0140932 -0 -3.89822e-06 -0 4.23393e-08)
(3.86042e-06 -0.0140853 -0 -3.89847e-06 -0 3.80505e-08)
(3.85153e-06 -0.014081 -0 -3.8907e-06 -0 3.91736e-08)
(3.86312e-06 -0.014089 -0 -3.90534e-06 -0 4.22276e-08)
(3.84674e-06 -0.0140803 -0 -3.8876e-06 -0 4.0865e-08)
(3.81551e-06 -0.0140856 -0 -3.85365e-06 -0 3.81399e-08)
(3.77234e-06 -0.014085 -0 -3.81044e-06 -0 3.81017e-08)
(3.73339e-06 -0.014085 -0 -3.77079e-06 -0 3.74085e-08)
(3.67437e-06 -0.0140804 -0 -3.70339e-06 -0 2.90217e-08)
(3.59704e-06 -0.0140771 -0 -3.61773e-06 -0 2.06906e-08)
(3.54535e-06 -0.0140656 -0 -3.57506e-06 -0 2.97087e-08)
(3.53494e-06 -0.0140599 -0 -3.56681e-06 -0 3.18738e-08)
(3.51736e-06 -0.0140549 -0 -3.54657e-06 -0 2.9211e-08)
(3.46743e-06 -0.014058 -0 -3.51133e-06 -0 4.39004e-08)
(3.43608e-06 -0.0140582 -0 -3.48201e-06 -0 4.59299e-08)
(3.41576e-06 -0.0140563 -0 -3.4555e-06 -0 3.97337e-08)
(3.39696e-06 -0.0140539 -0 -3.42974e-06 -0 3.27763e-08)
(3.3918e-06 -0.0140501 -0 -3.41843e-06 -0 2.66223e-08)
(3.36662e-06 -0.0140443 -0 -3.38914e-06 -0 2.25237e-08)
(3.33739e-06 -0.0140399 -0 -3.3537e-06 -0 1.63164e-08)
(3.32757e-06 -0.0140362 -0 -3.34159e-06 -0 1.40214e-08)
(3.32132e-06 -0.0140278 -0 -3.34194e-06 -0 2.06178e-08)
(3.29729e-06 -0.0140237 -0 -3.32742e-06 -0 3.01297e-08)
(3.25707e-06 -0.0140259 -0 -3.27778e-06 -0 2.07152e-08)
(3.21085e-06 -0.0140238 -0 -3.22391e-06 -0 1.30604e-08)
(3.15152e-06 -0.0140224 -0 -3.17289e-06 -0 2.13698e-08)
(3.12562e-06 -0.014014 -0 -3.14459e-06 -0 1.89662e-08)
(3.1049e-06 -0.0140101 -0 -3.11693e-06 -0 1.20325e-08)
(3.06262e-06 -0.0140127 -0 -3.08401e-06 -0 2.13945e-08)
(3.07032e-06 -0.0140046 -0 -3.09513e-06 -0 2.48033e-08)
(3.0729e-06 -0.014001 -0 -3.10318e-06 -0 3.02847e-08)
(3.0498e-06 -0.0139977 -0 -3.088e-06 -0 3.81935e-08)
(3.03936e-06 -0.013995 -0 -3.06962e-06 -0 3.02604e-08)
(3.01051e-06 -0.0140012 -0 -3.04536e-06 -0 3.4851e-08)
(2.96173e-06 -0.0139939 -0 -2.9907e-06 -0 2.89653e-08)
(2.9321e-06 -0.0139898 -0 -2.95625e-06 -0 2.41576e-08)
(2.9228e-06 -0.0139864 -0 -2.9441e-06 -0 2.13004e-08)
(2.90243e-06 -0.0139885 -0 -2.91151e-06 -0 9.07383e-09)
(2.86513e-06 -0.0139874 -0 -2.88278e-06 -0 1.7651e-08)
(2.8399e-06 -0.0139849 -0 -2.85451e-06 -0 1.46096e-08)
(2.8169e-06 -0.0139832 -0 -2.82438e-06 -0 7.4767e-09)
(2.7899e-06 -0.0139758 -0 -2.8115e-06 -0 2.16068e-08)
(2.78121e-06 -0.0139797 -0 -2.80615e-06 -0 2.49438e-08)
(2.75652e-06 -0.0139727 -0 -2.77699e-06 -0 2.04686e-08)
(2.71825e-06 -0.0139768 -0 -2.73919e-06 -0 2.09403e-08)
(2.66061e-06 -0.0139716 -0 -2.67902e-06 -0 1.84059e-08)
(2.6307e-06 -0.0139672 -0 -2.6485e-06 -0 1.78005e-08)
(2.60384e-06 -0.0139638 -0 -2.62461e-06 -0 2.07701e-08)
(2.567e-06 -0.0139652 -0 -2.58166e-06 -0 1.46595e-08)
(2.54542e-06 -0.0139645 -0 -2.55113e-06 -0 5.71416e-09)
(2.50933e-06 -0.0139619 -0 -2.52382e-06 -0 1.44869e-08)
(2.50715e-06 -0.013959 -0 -2.51762e-06 -0 1.04723e-08)
(2.51011e-06 -0.0139575 -0 -2.52324e-06 -0 1.3133e-08)
(2.5279e-06 -0.0139502 -0 -2.55428e-06 -0 2.63861e-08)
(2.53809e-06 -0.0139472 -0 -2.55971e-06 -0 2.16236e-08)
(2.50713e-06 -0.0139485 -0 -2.53606e-06 -0 2.89369e-08)
(2.50491e-06 -0.0139498 -0 -2.53269e-06 -0 2.77841e-08)
(2.51643e-06 -0.0139427 -0 -2.53899e-06 -0 2.25623e-08)
(2.50168e-06 -0.0139396 -0 -2.52696e-06 -0 2.52757e-08)
(2.47481e-06 -0.0139364 -0 -2.49631e-06 -0 2.15004e-08)
(2.43204e-06 -0.0139339 -0 -2.45988e-06 -0 2.78451e-08)
(2.38534e-06 -0.0139416 -0 -2.4208e-06 -0 3.54631e-08)
(2.34143e-06 -0.0139346 -0 -2.37506e-06 -0 3.36281e-08)
(2.32168e-06 -0.0139309 -0 -2.35504e-06 -0 3.33657e-08)
(2.32071e-06 -0.0139281 -0 -2.35403e-06 -0 3.33156e-08)
(2.31104e-06 -0.0139251 -0 -2.34776e-06 -0 3.67178e-08)
(2.29834e-06 -0.0139228 -0 -2.33102e-06 -0 3.26772e-08)
(2.27013e-06 -0.0139201 -0 -2.29294e-06 -0 2.28119e-08)
(2.23881e-06 -0.0139273 -0 -2.26881e-06 -0 2.99981e-08)
(2.21804e-06 -0.0139206 -0 -2.23573e-06 -0 1.76907e-08)
(2.21205e-06 -0.0139222 -0 -2.21387e-06 -0 1.82807e-09)
(2.18887e-06 -0.0139235 -0 -2.2024e-06 -0 1.35326e-08)
(2.17509e-06 -0.0139162 -0 -2.19976e-06 -0 2.46708e-08)
(2.15096e-06 -0.013913 -0 -2.1775e-06 -0 2.65379e-08)
(2.10989e-06 -0.0139154 -0 -2.13296e-06 -0 2.3076e-08)
(2.07998e-06 -0.0139174 -0 -2.10549e-06 -0 2.55135e-08)
(2.0782e-06 -0.0139101 -0 -2.10258e-06 -0 2.43766e-08)
(2.08959e-06 -0.0139151 -0 -2.11109e-06 -0 2.14984e-08)
(2.03812e-06 -0.0139081 -0 -2.06759e-06 -0 2.94713e-08)
(1.99551e-06 -0.0139096 -0 -2.01392e-06 -0 1.8409e-08)
(1.9678e-06 -0.0139106 -0 -1.98238e-06 -0 1.45803e-08)
(1.95078e-06 -0.0139029 -0 -1.97561e-06 -0 2.48281e-08)
(1.94197e-06 -0.0138996 -0 -1.96018e-06 -0 1.82167e-08)
(1.90076e-06 -0.0139023 -0 -1.91281e-06 -0 1.20421e-08)
(1.85864e-06 -0.0139019 -0 -1.8736e-06 -0 1.49583e-08)
(1.8206e-06 -0.0139003 -0 -1.84322e-06 -0 2.26278e-08)
(1.80932e-06 -0.0138979 -0 -1.82563e-06 -0 1.63061e-08)
(1.78476e-06 -0.0138958 -0 -1.80233e-06 -0 1.75734e-08)
(1.74365e-06 -0.0138933 -0 -1.76509e-06 -0 2.14404e-08)
(1.72392e-06 -0.0138928 -0 -1.73779e-06 -0 1.38735e-08)
(1.72304e-06 -0.0138861 -0 -1.74135e-06 -0 1.8306e-08)
(1.69518e-06 -0.0138836 -0 -1.71289e-06 -0 1.77057e-08)
(1.61263e-06 -0.0138873 -0 -1.63832e-06 -0 2.56889e-08)
(1.54797e-06 -0.0138874 -0 -1.58085e-06 -0 3.28772e-08)
(1.52154e-06 -0.013888 -0 -1.54291e-06 -0 2.1368e-08)
(1.54475e-06 -0.0138812 -0 -1.56285e-06 -0 1.80974e-08)
(1.57034e-06 -0.0138785 -0 -1.58645e-06 -0 1.6112e-08)
(1.56636e-06 -0.0138758 -0 -1.58331e-06 -0 1.69486e-08)
(1.56869e-06 -0.0138811 -0 -1.59328e-06 -0 2.45863e-08)
(1.55597e-06 -0.0138902 -0 -1.58019e-06 -0 2.42214e-08)
(1.50736e-06 -0.0138833 -0 -1.54259e-06 -0 3.52314e-08)
(1.47806e-06 -0.0138792 -0 -1.51269e-06 -0 3.46338e-08)
(1.46035e-06 -0.0138761 -0 -1.47812e-06 -0 1.77719e-08)
(1.41899e-06 -0.0138816 -0 -1.44414e-06 -0 2.51473e-08)
(1.41408e-06 -0.0138737 -0 -1.43628e-06 -0 2.22067e-08)
(1.40965e-06 -0.0138702 -0 -1.4245e-06 -0 1.48556e-08)
(1.39489e-06 -0.0138722 -0 -1.41066e-06 -0 1.57714e-08)
(1.39088e-06 -0.0138748 -0 -1.40307e-06 -0 1.21826e-08)
(1.37058e-06 -0.013877 -0 -1.3802e-06 -0 9.62262e-09)
(1.30111e-06 -0.0138698 -0 -1.31398e-06 -0 1.28725e-08)
(1.2371e-06 -0.013871 -0 -1.2502e-06 -0 1.30962e-08)
(1.22761e-06 -0.0138635 -0 -1.24508e-06 -0 1.7476e-08)
(1.19384e-06 -0.0138606 -0 -1.22174e-06 -0 2.79072e-08)
(1.18324e-06 -0.0138577 -0 -1.20409e-06 -0 2.08558e-08)
(1.22589e-06 -0.0138653 -0 -1.24401e-06 -0 1.81209e-08)
(1.20499e-06 -0.01386 -0 -1.23728e-06 -0 3.22893e-08)
(1.14936e-06 -0.0138653 -0 -1.17759e-06 -0 2.82298e-08)
(1.11811e-06 -0.0138661 -0 -1.13597e-06 -0 1.78616e-08)
(1.10905e-06 -0.0138667 -0 -1.12815e-06 -0 1.90944e-08)
(1.15046e-06 -0.0138589 -0 -1.16897e-06 -0 1.85072e-08)
(1.17595e-06 -0.013856 -0 -1.19433e-06 -0 1.83786e-08)
(1.18392e-06 -0.0138531 -0 -1.20197e-06 -0 1.80461e-08)
(1.19972e-06 -0.0138592 -0 -1.2249e-06 -0 2.5184e-08)
(1.20628e-06 -0.0138682 -0 -1.22799e-06 -0 2.17065e-08)
(1.19242e-06 -0.013861 -0 -1.21179e-06 -0 1.93711e-08)
(1.15339e-06 -0.0138629 -0 -1.17398e-06 -0 2.05869e-08)
(1.12215e-06 -0.0138618 -0 -1.13169e-06 -0 9.53994e-09)
(1.09359e-06 -0.0138591 -0 -1.09649e-06 -0 2.9001e-09)
(1.08308e-06 -0.0138575 -0 -1.0839e-06 -0 8.25246e-10)
(1.09882e-06 -0.0138497 -0 -1.10461e-06 -0 5.7861e-09)
(1.11583e-06 -0.0138544 -0 -1.12453e-06 -0 8.70148e-09)
(1.11e-06 -0.0138474 -0 -1.11797e-06 -0 7.96837e-09)
(1.09219e-06 -0.0138513 -0 -1.10173e-06 -0 9.53641e-09)
(1.07236e-06 -0.0138536 -0 -1.07555e-06 -0 3.19537e-09)
(1.037e-06 -0.013853 -0 -1.04639e-06 -0 9.39391e-09)
(1.01426e-06 -0.0138537 -0 -1.02288e-06 -0 8.61465e-09)
(9.63678e-07 -0.0138459 -0 -9.6972e-07 -0 6.0426e-09)
(9.25716e-07 -0.0138414 -0 -9.37511e-07 -0 1.17946e-08)
(9.48888e-07 -0.0138433 -0 -9.65071e-07 -0 1.61829e-08)
(9.4244e-07 -0.0138521 -0 -9.72697e-07 -0 3.02568e-08)
(9.05901e-07 -0.0138454 -0 -9.32522e-07 -0 2.66202e-08)
(8.51252e-07 -0.0138411 -0 -8.81101e-07 -0 2.98489e-08)
(7.78818e-07 -0.0138379 -0 -8.11634e-07 -0 3.28156e-08)
(7.4316e-07 -0.0138349 -0 -7.65556e-07 -0 2.23962e-08)
(7.63346e-07 -0.0138426 -0 -7.83735e-07 -0 2.03889e-08)
(7.52559e-07 -0.0138371 -0 -7.77267e-07 -0 2.47086e-08)
(7.18698e-07 -0.0138439 -0 -7.43906e-07 -0 2.52082e-08)
(7.17482e-07 -0.0138367 -0 -7.42399e-07 -0 2.4917e-08)
(7.28877e-07 -0.0138339 -0 -7.4504e-07 -0 1.61631e-08)
(7.47619e-07 -0.0138311 -0 -7.55815e-07 -0 8.1966e-09)
(7.4331e-07 -0.013841 -0 -7.65682e-07 -0 2.2372e-08)
(7.30554e-07 -0.0138343 -0 -7.45637e-07 -0 1.50831e-08)
(7.10491e-07 -0.0138423 -0 -7.22925e-07 -0 1.2434e-08)
(6.69696e-07 -0.0138345 -0 -6.80627e-07 -0 1.09307e-08)
(6.37677e-07 -0.0138388 -0 -6.44063e-07 -0 6.38535e-09)
(6.45752e-07 -0.0138313 -0 -6.51479e-07 -0 5.72628e-09)
(6.57097e-07 -0.0138344 -0 -6.5506e-07 -0 -2.03692e-09)
(6.41411e-07 -0.0138401 -0 -6.40596e-07 -0 -8.14588e-10)
(6.0463e-07 -0.0138335 -0 -6.07172e-07 -0 2.54154e-09)
(5.90595e-07 -0.0138291 -0 -5.96451e-07 -0 5.8557e-09)
(6.03648e-07 -0.0138264 -0 -6.05612e-07 -0 1.96435e-09)
(5.81216e-07 -0.013831 -0 -5.77178e-07 -0 -4.03717e-09)
(5.42027e-07 -0.0138322 -0 -5.48231e-07 -0 6.2039e-09)
(5.33964e-07 -0.0138314 -0 -5.38668e-07 -0 4.70355e-09)
(5.5283e-07 -0.0138316 -0 -5.4255e-07 -0 -1.02795e-08)
(5.75346e-07 -0.0138247 -0 -5.77586e-07 -0 2.24051e-09)
(5.66724e-07 -0.0138222 -0 -5.71813e-07 -0 5.0886e-09)
(5.34308e-07 -0.0138265 -0 -5.33517e-07 -0 -7.91455e-10)
(5.27121e-07 -0.0138284 -0 -5.29361e-07 -0 2.24007e-09)
(5.22218e-07 -0.0138274 -0 -5.24689e-07 -0 2.47081e-09)
(5.19034e-07 -0.013828 -0 -5.22123e-07 -0 3.08923e-09)
(5.34051e-07 -0.0138214 -0 -5.45684e-07 -0 1.16328e-08)
(5.28264e-07 -0.013819 -0 -5.43741e-07 -0 1.54776e-08)
(5.20142e-07 -0.0138166 -0 -5.32815e-07 -0 1.26733e-08)
(4.98345e-07 -0.0138154 -0 -5.08674e-07 -0 1.03287e-08)
(4.47619e-07 -0.0138226 -0 -4.52348e-07 -0 4.72921e-09)
(4.10926e-07 -0.0138261 -0 -4.13693e-07 -0 2.76724e-09)
(3.75269e-07 -0.0138252 -0 -3.76669e-07 -0 1.39961e-09)
(3.42758e-07 -0.0138259 -0 -3.44175e-07 -0 1.41689e-09)
(3.38524e-07 -0.0138186 -0 -3.46869e-07 -0 8.3458e-09)
(3.17956e-07 -0.0138162 -0 -3.3238e-07 -0 1.44246e-08)
(2.82478e-07 -0.0138138 -0 -2.99753e-07 -0 1.72749e-08)
(2.73819e-07 -0.0138222 -0 -2.95826e-07 -0 2.2007e-08)
(2.38956e-07 -0.0138321 -0 -2.64932e-07 -0 2.59761e-08)
(2.18695e-07 -0.0138348 -0 -2.36004e-07 -0 1.73089e-08)
(1.75131e-07 -0.0138297 -0 -1.94998e-07 -0 1.98671e-08)
(1.35575e-07 -0.0138317 -0 -1.51525e-07 -0 1.59503e-08)