/*--------------------------------*- C++ -*----------------------------------*\
  =========                 |
  \\      /  F ield         | OpenFOAM: The Open Source CFD Toolbox
   \\    /   O peration     | Website:  https://openfoam.org
    \\  /    A nd           | Version:  7
     \\/     M anipulation  |
\*---------------------------------------------------------------------------*/
FoamFile
{
    version     2.0;
    format      ascii;
    class       volScalarField;
    location    "100";
    object      k;
}
// * * * * * * * * * * * * * * * * * * * * * * * * * * * * * * * * * * * * * //

dimensions      [0 2 -2 0 0 0 0];

internalField   nonuniform List<scalar> 
36000
(
0.052134
0.0534251
0.0545063
0.0553574
0.0560427
0.0565313
0.0569115
0.0571233
0.0572788
0.0572779
0.0572396
0.0571454
0.0569779
0.0567643
0.0565127
0.0562302
0.0559231
0.0555967
0.0552554
0.0549031
0.0545433
0.0541786
0.0538114
0.0534437
0.0530771
0.0527131
0.0523527
0.0519969
0.0516464
0.0513018
0.0509635
0.050632
0.0503074
0.04999
0.0496798
0.049377
0.0490814
0.0487932
0.0485122
0.0482383
0.0479714
0.0477114
0.0474582
0.0472116
0.0469714
0.0467375
0.0465096
0.0462877
0.0460716
0.045861
0.0456558
0.0454559
0.045261
0.045071
0.0448858
0.0447051
0.0445289
0.0443569
0.0441891
0.0440252
0.0438652
0.043709
0.0435563
0.0434071
0.0432612
0.0431186
0.0429791
0.0428426
0.042709
0.0425782
0.0424501
0.0423246
0.0422016
0.042081
0.0419628
0.0418467
0.0417329
0.0416211
0.0415113
0.0414034
0.0412974
0.0411931
0.0410906
0.0409898
0.0408905
0.0407929
0.0406968
0.0406022
0.0405091
0.0404174
0.0403272
0.0402383
0.0401509
0.0400649
0.0399801
0.0398965
0.0398141
0.0397328
0.0396526
0.0395733
0.0394951
0.0394178
0.0393414
0.039266
0.0391914
0.0391177
0.0390449
0.0389729
0.0389018
0.0388315
0.038762
0.0386932
0.0386253
0.0385581
0.0384917
0.038426
0.038361
0.0382968
0.0382332
0.0381703
0.0381081
0.0380466
0.0379857
0.0379254
0.0378658
0.0378068
0.0377484
0.0376906
0.0376334
0.0375767
0.0375206
0.0374651
0.0374101
0.0373556
0.0373016
0.0372481
0.0371952
0.0371426
0.0370906
0.037039
0.0369878
0.0369371
0.0368868
0.0368369
0.0367874
0.0367383
0.0366896
0.0366412
0.0365932
0.0365457
0.0364984
0.0364515
0.036405
0.0363588
0.0363129
0.0362675
0.0362223
0.0361775
0.036133
0.0360889
0.0360451
0.0360016
0.0359585
0.0359157
0.0358733
0.0358312
0.0357894
0.035748
0.0357068
0.0356661
0.0356256
0.0355855
0.0355457
0.0355062
0.035467
0.0354281
0.0353896
0.0353513
0.0353134
0.0352757
0.0352385
0.0352013
0.0351647
0.0351282
0.0350922
0.0350562
0.0350207
0.0349853
0.0349504
0.0349154
0.0348811
0.0348467
0.0348129
0.0347791
0.0347458
0.0347126
0.0346797
0.0346472
0.0346149
0.034583
0.0345512
0.0345199
0.0344887
0.0344578
0.0344273
0.0343969
0.0343669
0.0343368
0.0343072
0.0342777
0.0342483
0.0342193
0.0341902
0.0341616
0.0341329
0.0341047
0.0340765
0.034049
0.0340207
0.033994
0.0339656
0.0339394
0.0339112
0.0338853
0.0338574
0.0338323
0.0338046
0.0337802
0.0337532
0.0337292
0.0337032
0.0336792
0.0336549
0.0336303
0.0336079
0.0335827
0.0335609
0.0335367
0.0335142
0.03349
0.0334692
0.0334441
0.0334237
0.0333976
0.0333785
0.0333526
0.0333348
0.033309
0.033292
0.0332651
0.0332479
0.0332196
0.0332003
0.0331769
0.0331401
0.0331237
0.0331056
0.0330908
0.0330747
0.0330951
0.0330616
0.033075
0.0330792
0.0330677
0.0330559
0.033038
0.033022
0.0330026
0.0329853
0.0329626
0.0329491
0.032926
0.0329088
0.0328851
0.0328636
0.032851
0.032818
0.0328044
0.0327903
0.0327885
0.0328028
0.0328008
0.0327926
0.0327779
0.0327616
0.0327479
0.0327366
0.0327262
0.0327144
0.0327043
0.0326896
0.0326763
0.0326633
0.0326502
0.0326354
0.0326132
0.032599
0.0325846
0.0326007
0.0325727
0.0325833
0.0325785
0.0325686
0.0325364
0.0325217
0.0325221
0.0324967
0.0324827
0.0324875
0.032505
0.0324797
0.032489
0.0324824
0.0324693
0.0324534
0.0324366
0.0324295
0.0324018
0.0323899
0.0323778
0.0323981
0.0323738
0.0323647
0.0323852
0.0323917
0.0323859
0.0323747
0.032369
0.0323344
0.032318
0.0323021
0.0323106
0.0322852
0.0322959
0.0322695
0.0322699
0.0322639
0.0322527
0.0322484
0.0322237
0.0322416
0.0322184
0.0322069
0.032235
0.0322093
0.0322285
0.0322288
0.0322312
0.0322185
0.0322101
0.0321751
0.0321589
0.0321448
0.0321571
0.0321598
0.0321557
0.0321499
0.0321399
0.0321231
0.032111
0.0321009
0.0320759
0.0320648
0.0320739
0.0320692
0.0320666
0.0320413
0.0320308
0.032041
0.0320167
0.0320069
0.0319982
0.0319914
0.0320133
0.0319914
0.03198
0.0319711
0.0319797
0.0319779
0.0319715
0.0319679
0.0319458
0.0319601
0.0319392
0.0319542
0.0319389
0.0319265
0.031917
0.0319233
0.0319226
0.0319158
0.0319082
0.0319049
0.031883
0.0318748
0.0318809
0.0318866
0.031865
0.0318569
0.0318481
0.0318414
0.0318677
0.0318469
0.0318363
0.0318287
0.0318205
0.0318146
0.0318075
0.031832
0.0318117
0.0318185
0.0318238
0.0318018
0.031793
0.0318019
0.03181
0.0317877
0.031805
0.0317839
0.0317899
0.0317945
0.0317711
0.0317616
0.0317717
0.0317715
0.0317675
0.031761
0.0317555
0.0317484
0.0317479
0.0317277
0.0317208
0.0317337
0.0317351
0.0317381
0.0317172
0.0317097
0.031702
0.0317202
0.0317505
0.0317291
0.0317169
0.0317079
0.0317268
0.0317021
0.0316919
0.0316992
0.0317085
0.0317165
0.0316941
0.0316988
0.0316757
0.031667
0.0316585
0.031684
0.0316676
0.0316854
0.0316887
0.0316916
0.0316671
0.0316585
0.03165
0.0316704
0.0317002
0.0316777
0.0316846
0.0316817
0.0316737
0.0316694
0.0316449
0.0316606
0.0316388
0.0316521
0.03166
0.0316588
0.0316616
0.0316371
0.0316232
0.0316297
0.0316587
0.031638
0.0316247
0.0316148
0.0316056
0.0316308
0.0316138
0.0316361
0.0316134
0.0316047
0.0315963
0.0316287
0.0316076
0.0316338
0.0316092
0.0316233
0.0315998
0.0316101
0.0316289
0.0316079
0.0315942
0.0315858
0.0316009
0.0316051
0.0316031
0.031604
0.0315821
0.0315744
0.0315884
0.031595
0.031592
0.0315942
0.0315732
0.0315659
0.0315584
0.0315548
0.0315783
0.0315897
0.0315873
0.0315896
0.0315665
0.0315589
0.0315514
0.0315788
0.0316107
0.0316198
0.0316036
0.03161
0.0316087
0.0316003
0.0315993
0.0315738
0.0315962
0.0315766
0.0315971
0.0316034
0.0316006
0.0315996
0.0315745
0.0315955
0.0315743
0.0315934
0.0315701
0.0315617
0.0315845
0.0315627
0.0315902
0.0315713
0.031593
0.0315704
0.0315958
0.0315746
0.0315651
0.0315584
0.0315772
0.0315848
0.0315892
0.0315681
0.0315805
0.0316068
0.0315867
0.0315739
0.0315965
0.0315769
0.0315664
0.0315597
0.0315521
0.031548
0.0315713
0.0315909
0.0315686
0.0315594
0.0315511
0.0315817
0.0315645
0.0315917
0.0315689
0.0315855
0.0315719
0.031563
0.031557
0.0315519
0.0315479
0.0315425
0.0315397
0.0315358
0.0315351
0.0315646
0.0315885
0.0315644
0.0315564
0.0315767
0.0315819
0.0315881
0.0315635
0.0315556
0.0315478
0.0315437
0.0315658
0.0315856
0.0315622
0.0512263
0.0509114
0.0505349
0.0501162
0.049676
0.0492167
0.0487502
0.0482748
0.0478007
0.0473265
0.0468562
0.0463928
0.045937
0.04549
0.045053
0.0446265
0.0442115
0.0438082
0.0434172
0.0430385
0.0426724
0.0423188
0.0419777
0.0416491
0.0413329
0.0410288
0.0407366
0.0404562
0.040187
0.0399291
0.0396818
0.0394451
0.0392188
0.0390023
0.0387954
0.0385977
0.0384088
0.0382283
0.0380558
0.0378912
0.0377339
0.0375837
0.0374403
0.0373033
0.0371725
0.0370475
0.0369282
0.0368141
0.0367051
0.036601
0.0365014
0.0364061
0.036315
0.0362279
0.0361444
0.0360645
0.0359879
0.0359145
0.0358442
0.0357767
0.0357119
0.0356497
0.03559
0.0355326
0.0354773
0.0354242
0.0353729
0.0353236
0.0352759
0.0352299
0.0351854
0.0351422
0.0351004
0.0350597
0.0350201
0.0349814
0.0349435
0.0349064
0.0348699
0.0348341
0.0347987
0.0347639
0.0347295
0.0346957
0.0346622
0.0346295
0.0345972
0.0345658
0.0345349
0.0345054
0.0344762
0.0344489
0.0344213
0.0343937
0.0343662
0.034339
0.0343123
0.0342863
0.0342609
0.0342364
0.0342128
0.0341902
0.0341684
0.0341477
0.0341279
0.034109
0.0340911
0.034074
0.0340577
0.0340423
0.0340275
0.0340134
0.034
0.0339871
0.0339747
0.0339627
0.0339511
0.0339399
0.033929
0.0339183
0.0339078
0.0338975
0.0338874
0.0338774
0.0338675
0.0338576
0.0338478
0.033838
0.0338282
0.0338184
0.0338086
0.0337986
0.0337886
0.0337784
0.0337681
0.0337576
0.033747
0.033736
0.0337249
0.0337135
0.0337019
0.0336899
0.0336776
0.0336649
0.033652
0.0336387
0.0336252
0.0336113
0.0335972
0.0335828
0.0335683
0.0335535
0.0335386
0.0335235
0.0335083
0.0334929
0.0334775
0.0334619
0.0334463
0.0334307
0.033415
0.0333994
0.0333837
0.0333683
0.0333527
0.0333374
0.0333221
0.0333069
0.0332917
0.0332767
0.0332617
0.0332468
0.0332319
0.0332172
0.0332026
0.033188
0.0331736
0.0331592
0.0331451
0.0331309
0.0331169
0.033103
0.0330892
0.0330754
0.0330617
0.0330481
0.0330344
0.0330209
0.0330072
0.0329937
0.0329802
0.0329667
0.0329535
0.0329405
0.0329274
0.0329148
0.0329019
0.0328897
0.0328773
0.0328655
0.032854
0.0328426
0.0328316
0.0328204
0.0328094
0.0327983
0.0327872
0.032776
0.0327647
0.0327534
0.0327413
0.03273
0.0327173
0.0327058
0.0326937
0.0326812
0.0326701
0.0326583
0.032646
0.0326348
0.03262
0.0326075
0.0325933
0.0325786
0.0325662
0.0325516
0.0325378
0.032526
0.0325125
0.0324997
0.0324891
0.0324791
0.032472
0.0324639
0.0324571
0.0324486
0.0324383
0.0324328
0.0324119
0.0324027
0.0323929
0.0323932
0.0323826
0.0323873
0.0323731
0.0323751
0.0323616
0.032365
0.032372
0.0323603
0.0323617
0.0323477
0.0323441
0.0323406
0.0323607
0.0323511
0.0323459
0.0323429
0.0323404
0.0323394
0.0323606
0.0323513
0.03235
0.0323483
0.0323494
0.0323718
0.0323825
0.0323842
0.0323813
0.0323783
0.0323768
0.0323612
0.0323677
0.0323807
0.0323655
0.0323552
0.0323484
0.0323425
0.0323415
0.0323623
0.0323548
0.032353
0.0323681
0.0323601
0.0323818
0.0323825
0.0323837
0.0324073
0.0324307
0.032421
0.0324125
0.0324241
0.0324138
0.0324265
0.03241
0.0324035
0.0323971
0.0323949
0.0324136
0.0323992
0.0323956
0.0324053
0.0324087
0.0324093
0.0323938
0.0324076
0.0323934
0.0323878
0.0323834
0.0323773
0.0323744
0.0323712
0.0323709
0.0323942
0.0323809
0.0323964
0.0324175
0.0324039
0.0323948
0.0323888
0.032396
0.0323973
0.0323992
0.0323805
0.0323749
0.0323685
0.0323666
0.0323843
0.0323654
0.0323599
0.0323544
0.0323523
0.0323726
0.0323572
0.0323519
0.0323452
0.0323652
0.032353
0.0323484
0.032371
0.0323603
0.0323737
0.0323548
0.0323471
0.0323498
0.0323645
0.0323486
0.0323415
0.0323467
0.0323492
0.0323314
0.0323262
0.0323217
0.0323409
0.0323317
0.0323262
0.0323225
0.0323405
0.032327
0.0323346
0.0323356
0.032318
0.032325
0.0323081
0.0322989
0.0323121
0.0322987
0.0323129
0.0322969
0.0322902
0.0322829
0.0322789
0.0322947
0.032278
0.0322736
0.0322671
0.0322631
0.0322797
0.0322635
0.0322585
0.0322525
0.0322701
0.0322623
0.0322742
0.0322837
0.0322668
0.0322725
0.0322843
0.032269
0.0322734
0.0322531
0.0322462
0.032239
0.0322348
0.0322511
0.0322345
0.0322298
0.0322384
0.0322399
0.03224
0.0322233
0.0322373
0.0322242
0.03223
0.032236
0.0322401
0.032224
0.0322249
0.0322069
0.0321996
0.0322077
0.0321932
0.0322085
0.0321966
0.0322128
0.0321984
0.0321924
0.032203
0.0321873
0.0321824
0.032177
0.0321751
0.0321902
0.0322008
0.0321865
0.0322012
0.0321879
0.0321803
0.0321761
0.0321887
0.0321914
0.0321961
0.0321794
0.0321761
0.0321907
0.0321949
0.0321949
0.0321932
0.032189
0.0321914
0.0321755
0.0321704
0.032186
0.0321712
0.0321665
0.0321752
0.0321778
0.0321729
0.0321735
0.0321566
0.032152
0.0321469
0.0321697
0.0321582
0.0321734
0.0321566
0.0321519
0.0321483
0.0321459
0.0321444
0.032167
0.0321786
0.0321807
0.0321667
0.0321542
0.0321456
0.0321524
0.0321523
0.0321506
0.0321456
0.0321434
0.0321383
0.0321342
0.0321332
0.0321153
0.0321086
0.0321012
0.0320972
0.0320926
0.0321201
0.0321087
0.0321021
0.0320993
0.0321194
0.0321363
0.0321203
0.0321331
0.0321524
0.032137
0.0321401
0.0321198
0.0321104
0.0321017
0.0320972
0.0320921
0.0320895
0.0321054
0.0321199
0.0321016
0.0320959
0.0321088
0.0321202
0.0321026
0.0320975
0.032113
0.0320946
0.0321126
0.0320979
0.0321097
0.0321161
0.0321155
0.032117
0.0320982
0.0320999
0.032092
0.032093
0.0320743
0.0320659
0.0320588
0.0320528
0.0320482
0.0320446
0.0320424
0.0320655
0.0320715
0.0320644
0.032066
0.0320661
0.0320684
0.0320682
0.0320698
0.03207
0.0320703
0.0320703
0.0320705
0.0320982
0.0320813
0.0320785
0.0320987
0.0320832
0.0321038
0.0320916
0.0320994
0.0321078
0.0320904
0.0320818
0.032107
0.0320991
0.0321108
0.0321228
0.0321074
0.0321261
0.0321192
0.032139
0.0321527
0.0321357
0.032149
0.0321314
0.0321408
0.0321489
0.0321334
0.032136
0.0321145
0.0321064
0.0321189
0.0320985
0.0320924
0.0320864
0.0321102
0.0320995
0.0321126
0.0321189
0.0321017
0.0321094
0.0321222
0.0321066
0.0320953
0.0320895
0.0321086
0.0320917
0.0320867
0.0320812
0.0320784
0.0320739
0.0320711
0.0320897
0.0321023
0.0320854
0.03208
0.0320907
0.032104
0.0320883
0.0320852
0.0320811
0.0321111
0.0320995
0.0321169
0.0320996
0.0320948
0.0320878
0.0512179
0.0509605
0.0506781
0.0503699
0.0500393
0.0496891
0.0493229
0.0489424
0.0485504
0.0481488
0.0477394
0.047324
0.0469042
0.0464813
0.0460567
0.0456314
0.0452065
0.0447831
0.0443618
0.0439435
0.0435289
0.0431185
0.0427129
0.042313
0.041919
0.0415313
0.0411501
0.0407756
0.0404082
0.0400476
0.0396945
0.0393481
0.0390085
0.0386758
0.03835
0.0380312
0.0377194
0.0374148
0.0371171
0.0368264
0.0365426
0.0362656
0.0359954
0.0357319
0.0354749
0.0352244
0.0349803
0.0347424
0.0345106
0.0342848
0.0340649
0.0338508
0.0336422
0.0334391
0.0332414
0.033049
0.0328616
0.0326792
0.0325017
0.0323289
0.0321607
0.031997
0.0318377
0.0316827
0.0315318
0.0313849
0.031242
0.0311028
0.0309673
0.0308354
0.030707
0.0305819
0.03046
0.0303412
0.0302253
0.0301123
0.030002
0.0298942
0.0297888
0.0296857
0.0295849
0.0294862
0.0293895
0.0292948
0.029202
0.0291113
0.0290225
0.0289357
0.0288508
0.0287681
0.0286875
0.0286091
0.028533
0.028459
0.0283873
0.0283179
0.0282508
0.0281862
0.028124
0.0280642
0.0280069
0.0279521
0.0278998
0.0278499
0.0278025
0.0277575
0.0277148
0.0276743
0.0276361
0.0276001
0.0275661
0.0275341
0.0275039
0.0274756
0.027449
0.027424
0.0274005
0.0273785
0.0273578
0.0273384
0.0273202
0.027303
0.0272869
0.0272717
0.0272574
0.0272439
0.0272311
0.0272191
0.0272076
0.0271967
0.0271863
0.0271763
0.0271667
0.0271574
0.0271483
0.0271393
0.0271304
0.0271216
0.0271127
0.0271038
0.0270947
0.0270855
0.0270762
0.0270666
0.0270568
0.0270468
0.0270365
0.0270259
0.0270151
0.0270041
0.0269929
0.0269814
0.0269698
0.026958
0.026946
0.0269338
0.0269215
0.0269091
0.0268965
0.0268838
0.026871
0.0268583
0.0268455
0.0268329
0.0268203
0.0268079
0.0267955
0.0267833
0.0267713
0.0267594
0.0267476
0.026736
0.0267245
0.0267131
0.0267019
0.0266907
0.0266798
0.026669
0.0266585
0.026648
0.0266378
0.0266277
0.0266178
0.0266081
0.0265985
0.026589
0.0265795
0.0265702
0.0265607
0.0265514
0.026542
0.0265328
0.0265235
0.0265144
0.0265052
0.0264963
0.0264872
0.0264785
0.0264695
0.0264611
0.0264525
0.0264444
0.0264362
0.0264285
0.0264205
0.0264132
0.0264054
0.0263983
0.0263906
0.0263835
0.0263756
0.0263681
0.0263599
0.0263517
0.0263434
0.026335
0.0263265
0.0263183
0.0263102
0.0263014
0.0262936
0.0262849
0.0262773
0.0262681
0.0262605
0.0262531
0.0262449
0.0262394
0.0262316
0.0262231
0.0262154
0.0262094
0.0262047
0.0261963
0.0261903
0.0261869
0.0261833
0.02618
0.0261773
0.0261695
0.0261666
0.0261642
0.0261623
0.026161
0.0261619
0.026182
0.0262044
0.0262092
0.0262108
0.0262105
0.0262288
0.0262481
0.0262649
0.0262607
0.0262582
0.0262732
0.026268
0.0262807
0.0263189
0.0263225
0.0263457
0.0263382
0.026338
0.0263636
0.026356
0.0263813
0.0263787
0.026377
0.0263804
0.0264108
0.0264051
0.026438
0.02644
0.0264426
0.0264455
0.026449
0.026453
0.0264839
0.0265394
0.0265863
0.0266575
0.0266589
0.0266709
0.0266646
0.0266618
0.0267057
0.0267364
0.026757
0.0267439
0.026759
0.0267557
0.0267599
0.0267618
0.0267675
0.0268074
0.0268
0.0268247
0.026854
0.0268724
0.0268815
0.0268906
0.026899
0.0269105
0.0269212
0.0269366
0.0269352
0.0269337
0.0269685
0.0269636
0.026961
0.0269808
0.0269768
0.0269766
0.0269781
0.0270102
0.0270456
0.0270691
0.0270602
0.0270553
0.0270701
0.0270651
0.0270657
0.0270684
0.0270731
0.0270749
0.0270812
0.0271304
0.0271206
0.0271222
0.0271263
0.0271725
0.0271631
0.0271833
0.027201
0.0271895
0.0271874
0.0271877
0.0272064
0.027252
0.0272443
0.0272612
0.0272479
0.0272483
0.0272473
0.0272522
0.0272953
0.0272843
0.027288
0.0273275
0.0273133
0.0273099
0.0273382
0.0273745
0.0273698
0.0273641
0.0273729
0.0273812
0.027368
0.0273848
0.0273764
0.0273862
0.0273962
0.0273817
0.0273777
0.027375
0.0273765
0.0273786
0.0273841
0.0274178
0.0274067
0.0274354
0.0274256
0.0274223
0.0274217
0.0274462
0.0274307
0.0274293
0.0274476
0.0274558
0.0274633
0.0274498
0.02747
0.027494
0.0274834
0.027481
0.0274794
0.027481
0.0274813
0.0274833
0.0274843
0.0274877
0.0274903
0.0275279
0.0275196
0.0275346
0.0275457
0.0275331
0.0275292
0.027526
0.0275515
0.0275449
0.0275603
0.0275733
0.0275572
0.0275519
0.0275653
0.0275489
0.0275463
0.0275628
0.0275493
0.0275671
0.0275935
0.0275862
0.0275977
0.0275856
0.0275828
0.0275978
0.0276122
0.0275997
0.0276209
0.0276126
0.0276308
0.0276178
0.027615
0.0276333
0.02762
0.0276164
0.0276322
0.0276205
0.0276189
0.0276482
0.0276454
0.0276623
0.0276718
0.0276774
0.0276653
0.0276849
0.0276844
0.0277072
0.0277286
0.0277115
0.0277066
0.0277043
0.0277337
0.0277221
0.0277375
0.0277218
0.0277177
0.0277154
0.0277438
0.0277349
0.0277525
0.0277396
0.0277598
0.0277508
0.027747
0.0277462
0.0277715
0.0277552
0.0277517
0.0277657
0.0277734
0.0277717
0.0277729
0.0277562
0.0277484
0.0277467
0.0277617
0.0277492
0.0277664
0.027757
0.0277672
0.027769
0.0277701
0.0277545
0.0277516
0.0277669
0.0277527
0.0277493
0.0277469
0.0277766
0.0277638
0.0277599
0.027783
0.0277737
0.0277849
0.027787
0.0277878
0.0277837
0.0277843
0.0277687
0.0277644
0.0277743
0.0277775
0.027783
0.0277668
0.0277634
0.0277761
0.027786
0.0277719
0.0277889
0.0277793
0.0277873
0.0277944
0.02778
0.0277755
0.0277717
0.0277933
0.0277827
0.0277953
0.0278036
0.0277905
0.0277837
0.0277899
0.0277721
0.0277683
0.027764
0.0277884
0.0277778
0.0277913
0.0277957
0.0277961
0.0277922
0.0277945
0.0277806
0.0277914
0.0278229
0.0278122
0.0278041
0.0277993
0.0278149
0.0278201
0.0278225
0.0278026
0.0277958
0.0277902
0.0277881
0.0278062
0.0278164
0.0278186
0.027819
0.0278118
0.0278157
0.0278035
0.0278134
0.0278313
0.0278268
0.0278206
0.0278277
0.0278147
0.0278282
0.0278222
0.0278366
0.0278425
0.0278478
0.0278319
0.0278271
0.0278228
0.0278204
0.0278183
0.0278396
0.0278298
0.0278243
0.0278208
0.027818
0.027816
0.0278294
0.0278338
0.0278329
0.0278304
0.0278278
0.0278264
0.0278228
0.0278234
0.0278118
0.0278088
0.0278049
0.027818
0.0278362
0.0278229
0.0278141
0.027809
0.027819
0.0278259
0.0278107
0.0278065
0.0278142
0.0278213
0.0278076
0.0278246
0.0278188
0.0278316
0.0278412
0.0278257
0.0278377
0.027824
0.0278179
0.0278223
0.0278282
0.0278117
0.0512158
0.0509716
0.0507221
0.0504638
0.0501954
0.0499167
0.0496282
0.0493303
0.0490238
0.0487094
0.0483881
0.0480605
0.0477274
0.0473897
0.047048
0.046703
0.0463554
0.0460058
0.0456548
0.0453029
0.0449505
0.0445983
0.0442466
0.0438954
0.0435453
0.0431966
0.0428497
0.0425049
0.0421625
0.0418228
0.0414858
0.0411524
0.0408225
0.0404964
0.0401741
0.0398556
0.0395411
0.0392306
0.0389243
0.0386221
0.0383241
0.0380303
0.0377409
0.0374557
0.0371749
0.0368984
0.0366262
0.0363584
0.0360949
0.0358357
0.0355808
0.0353301
0.0350837
0.0348415
0.0346034
0.0343695
0.0341396
0.0339138
0.033692
0.0334741
0.0332601
0.03305
0.0328436
0.032641
0.0324421
0.0322468
0.032055
0.0318668
0.0316821
0.0315009
0.0313231
0.0311485
0.0309772
0.0308091
0.0306439
0.0304818
0.0303224
0.0301658
0.0300119
0.0298605
0.0297116
0.0295651
0.0294209
0.029279
0.0291391
0.0290013
0.0288656
0.0287319
0.0286003
0.0284708
0.0283436
0.0282186
0.0280959
0.0279756
0.0278577
0.0277424
0.0276297
0.0275196
0.0274123
0.0273078
0.0272061
0.0271073
0.0270114
0.0269185
0.0268285
0.0267414
0.0266573
0.0265762
0.0264979
0.0264224
0.0263498
0.02628
0.0262128
0.0261483
0.0260863
0.0260268
0.0259697
0.025915
0.0258625
0.0258121
0.0257638
0.0257175
0.025673
0.0256304
0.0255894
0.0255501
0.0255123
0.025476
0.0254411
0.0254074
0.025375
0.0253436
0.0253134
0.025284
0.0252555
0.0252277
0.0252006
0.0251741
0.025148
0.0251223
0.025097
0.0250718
0.0250469
0.025022
0.0249973
0.0249725
0.0249478
0.0249231
0.0248983
0.0248735
0.0248486
0.0248236
0.0247986
0.0247734
0.0247482
0.0247229
0.0246975
0.024672
0.0246464
0.0246208
0.024595
0.0245694
0.0245437
0.0245181
0.0244926
0.0244673
0.0244422
0.0244173
0.0243925
0.024368
0.0243437
0.0243197
0.0242958
0.0242722
0.0242488
0.0242257
0.0242029
0.0241802
0.024158
0.024136
0.0241143
0.0240929
0.0240719
0.0240511
0.0240307
0.0240104
0.0239904
0.0239705
0.0239507
0.0239311
0.0239116
0.0238922
0.0238728
0.0238537
0.0238345
0.0238156
0.0237966
0.0237779
0.0237593
0.023741
0.0237228
0.023705
0.0236875
0.0236703
0.0236534
0.0236368
0.0236205
0.0236045
0.0235888
0.0235729
0.0235575
0.0235415
0.0235261
0.0235101
0.0234945
0.0234787
0.0234631
0.0234475
0.0234326
0.0234174
0.0234034
0.0233891
0.0233759
0.0233621
0.0233495
0.0233363
0.023324
0.023313
0.0232998
0.0232858
0.0232734
0.0232611
0.0232501
0.0232409
0.0232267
0.0232133
0.0232017
0.0231948
0.0231898
0.0231838
0.0231775
0.0231684
0.0231605
0.0231501
0.0231437
0.0231289
0.023132
0.0231443
0.0231351
0.0231408
0.0231473
0.0231394
0.023147
0.0231411
0.0231418
0.0231607
0.0231539
0.023164
0.0231652
0.0231632
0.0231622
0.023176
0.0231735
0.0231744
0.0231753
0.0232159
0.0232102
0.0232119
0.0232133
0.0232157
0.0232192
0.0232545
0.0232908
0.0233188
0.0233064
0.0233011
0.0233118
0.0233511
0.0234124
0.0234593
0.0235229
0.0235877
0.0235759
0.0235733
0.023607
0.0235902
0.0235851
0.0235869
0.0235918
0.0236392
0.0236817
0.0237225
0.0237048
0.0236977
0.0236959
0.0237421
0.0237493
0.0238016
0.0237926
0.0237929
0.0237963
0.0238508
0.023908
0.0239512
0.0239885
0.024021
0.0240538
0.0240419
0.0240639
0.0240414
0.0240365
0.024032
0.0240325
0.0240339
0.0240918
0.0240917
0.024125
0.0241556
0.0241399
0.0241362
0.0241351
0.0241363
0.0241877
0.0241734
0.024168
0.0241667
0.024226
0.0242145
0.0242161
0.0242584
0.0242521
0.024254
0.0242945
0.0243422
0.0243757
0.0244052
0.0244334
0.0244186
0.0244107
0.0244116
0.0244126
0.0244197
0.0244715
0.0244583
0.0244648
0.0244707
0.0244993
0.0245077
0.0245108
0.0245134
0.0245225
0.0245307
0.0245472
0.0246098
0.0246025
0.0246389
0.0246237
0.0246454
0.0246644
0.0246657
0.0246657
0.0246641
0.0246667
0.0246702
0.0247233
0.0247119
0.0247456
0.0247293
0.0247282
0.024728
0.0247785
0.0247694
0.0248048
0.0247873
0.024784
0.0247815
0.0247838
0.0247838
0.0247883
0.0247915
0.0248165
0.0248394
0.0248596
0.024852
0.0248533
0.0248934
0.0248786
0.0248735
0.0248709
0.0248885
0.024904
0.0249209
0.0249353
0.0249471
0.0249592
0.0249595
0.0249905
0.0249851
0.025
0.025017
0.0250007
0.024995
0.0249935
0.0249893
0.0249875
0.0249892
0.0249882
0.0249898
0.0249922
0.0250212
0.0250302
0.0250377
0.0250777
0.0250776
0.0251058
0.0250932
0.0250929
0.025122
0.0251079
0.0251411
0.0251311
0.025162
0.0251466
0.0251419
0.0251445
0.0251445
0.0251694
0.0251961
0.0251778
0.0251791
0.0251831
0.0252096
0.0252344
0.0252223
0.0252196
0.0252318
0.0252422
0.0252532
0.0252493
0.0252501
0.0252487
0.0252546
0.0252863
0.0253165
0.0253029
0.0253148
0.025318
0.0253135
0.0253451
0.025339
0.025356
0.0253733
0.0253553
0.0253503
0.0253475
0.0253824
0.0253725
0.0253942
0.025378
0.0254018
0.0253909
0.0254055
0.0254127
0.0254172
0.0254015
0.0254129
0.0254364
0.0254214
0.0254124
0.0254305
0.0254212
0.0254454
0.0254263
0.0254209
0.0254315
0.0254355
0.0254337
0.0254341
0.0254167
0.025412
0.0254086
0.0254089
0.0254263
0.0254401
0.0254242
0.0254201
0.0254164
0.0254428
0.0254308
0.0254412
0.0254429
0.0254443
0.0254294
0.0254442
0.025434
0.0254411
0.0254441
0.0254405
0.0254429
0.0254267
0.0254234
0.0254369
0.0254489
0.0254364
0.0254467
0.0254632
0.0254455
0.0254395
0.0254553
0.0254452
0.0254424
0.025441
0.0254591
0.025445
0.025442
0.0254576
0.0254418
0.0254617
0.0254525
0.0254703
0.0254785
0.0254795
0.0254747
0.0254735
0.0254566
0.0254489
0.0254446
0.0254425
0.0254411
0.0254412
0.0254715
0.0254615
0.0254582
0.0254568
0.0254536
0.0254686
0.0254632
0.0254625
0.0254969
0.0254852
0.0254802
0.0254781
0.0254948
0.025501
0.0255013
0.0255019
0.0254987
0.0254987
0.0255002
0.0254875
0.0254925
0.0254902
0.0254839
0.0254821
0.025501
0.0254882
0.0255045
0.025528
0.025515
0.0255294
0.0255129
0.0255067
0.0255012
0.02552
0.025508
0.0255195
0.0255274
0.0255127
0.025523
0.0255079
0.0255011
0.0254992
0.0255131
0.0254998
0.0255103
0.0255303
0.0255143
0.0255083
0.0255203
0.0255041
0.0254968
0.0254892
0.0254859
0.0254827
0.0255052
0.0254916
0.025486
0.0254839
0.0254969
0.0255004
0.0255047
0.0254901
0.0254868
0.0254996
0.0255045
0.025508
0.0254929
0.0254892
0.0255036
0.0254868
0.0512152
0.0509725
0.0507306
0.0504876
0.0502423
0.0499935
0.0497406
0.0494831
0.0492209
0.048954
0.0486827
0.0484072
0.0481276
0.0478444
0.0475579
0.0472684
0.0469762
0.0466818
0.0463854
0.0460873
0.0457879
0.0454875
0.0451863
0.0448847
0.0445828
0.0442809
0.0439793
0.0436781
0.0433775
0.0430778
0.0427791
0.0424818
0.0421858
0.0418915
0.0415989
0.0413083
0.0410197
0.0407332
0.040449
0.040167
0.0398875
0.0396104
0.0393359
0.039064
0.0387947
0.0385281
0.0382643
0.0380033
0.0377451
0.0374897
0.0372371
0.0369875
0.0367407
0.0364969
0.036256
0.0360179
0.0357828
0.0355506
0.0353213
0.0350949
0.0348714
0.0346508
0.0344331
0.0342182
0.0340061
0.0337968
0.0335904
0.0333867
0.0331857
0.0329874
0.0327916
0.0325985
0.0324079
0.0322199
0.0320344
0.0318514
0.0316708
0.0314926
0.0313167
0.031143
0.0309716
0.0308023
0.0306351
0.03047
0.030307
0.0301461
0.0299871
0.0298302
0.0296753
0.0295223
0.0293713
0.0292223
0.0290754
0.0289306
0.0287879
0.0286474
0.0285092
0.0283734
0.0282399
0.028109
0.0279806
0.0278548
0.0277316
0.0276112
0.0274935
0.0273786
0.0272665
0.0271572
0.0270508
0.0269473
0.0268466
0.0267487
0.0266537
0.0265616
0.0264722
0.0263856
0.0263017
0.0262204
0.0261417
0.0260656
0.0259918
0.0259205
0.0258514
0.0257846
0.02572
0.0256574
0.0255969
0.0255383
0.0254815
0.0254265
0.0253732
0.0253214
0.0252711
0.0252222
0.0251745
0.025128
0.0250827
0.0250383
0.0249949
0.0249523
0.0249104
0.0248691
0.0248284
0.0247882
0.0247484
0.024709
0.0246699
0.024631
0.0245922
0.0245537
0.0245152
0.0244768
0.0244385
0.0244001
0.0243618
0.0243234
0.024285
0.0242465
0.0242079
0.0241692
0.0241305
0.0240917
0.0240529
0.0240142
0.0239755
0.0239369
0.0238984
0.0238601
0.0238219
0.023784
0.0237463
0.0237088
0.0236715
0.0236344
0.0235977
0.0235612
0.023525
0.0234891
0.0234536
0.0234184
0.0233836
0.0233492
0.0233152
0.0232815
0.0232483
0.0232153
0.0231827
0.0231503
0.0231182
0.0230863
0.0230547
0.0230232
0.0229919
0.0229608
0.0229298
0.0228991
0.0228685
0.0228381
0.022808
0.0227781
0.0227486
0.0227195
0.0226908
0.0226625
0.0226347
0.0226073
0.0225803
0.0225537
0.0225275
0.0225014
0.0224757
0.0224499
0.0224245
0.0223991
0.022374
0.022349
0.0223244
0.0223
0.0222762
0.0222527
0.0222297
0.022207
0.0221851
0.0221629
0.0221419
0.0221202
0.0220999
0.0220789
0.0220591
0.0220377
0.0220187
0.0219986
0.0219803
0.0219611
0.021943
0.0219209
0.0219031
0.0218813
0.0218657
0.0218439
0.0218256
0.0218076
0.0217787
0.0217594
0.0217409
0.0217311
0.0217036
0.021694
0.0216844
0.0217036
0.0216833
0.0216922
0.021694
0.0216851
0.0216758
0.0216667
0.0216565
0.021647
0.0216381
0.02163
0.0216119
0.0216066
0.0215816
0.0215711
0.0215622
0.0215574
0.021571
0.021552
0.0215723
0.0215565
0.0215727
0.0215557
0.0215764
0.0215644
0.0215573
0.0215755
0.0215592
0.0215775
0.0215741
0.0215954
0.021671
0.0216886
0.0217257
0.0217594
0.021743
0.0217389
0.0217368
0.0217434
0.0217994
0.0217808
0.0217834
0.0218188
0.0218535
0.0218433
0.0218805
0.0219645
0.0219639
0.0220109
0.0219887
0.0219796
0.0219833
0.0220384
0.0220253
0.0220616
0.0220759
0.0221213
0.0221616
0.0221906
0.0222097
0.0222354
0.0222547
0.0222534
0.0222495
0.0222529
0.0223024
0.0223448
0.0223704
0.0223997
0.0223784
0.0223971
0.0223749
0.0223983
0.0223915
0.02239
0.0223877
0.0223864
0.0223964
0.0224052
0.022419
0.0224308
0.0224465
0.0224584
0.0224743
0.0225562
0.0225665
0.0226459
0.0226364
0.0226853
0.0226621
0.0227313
0.0227075
0.0227141
0.0227233
0.022763
0.0228061
0.0228055
0.0228056
0.0228051
0.022807
0.0228094
0.0228532
0.0228528
0.0228847
0.0228821
0.0229314
0.0229276
0.0229266
0.0229327
0.0229377
0.0229502
0.0230141
0.022995
0.0230015
0.0230024
0.0230111
0.0230202
0.0230615
0.0230982
0.0230768
0.0230789
0.0230822
0.0230873
0.0231434
0.0231342
0.0231335
0.0231666
0.0231983
0.0231884
0.0232096
0.0231988
0.0232004
0.0232014
0.0232147
0.0232229
0.0232283
0.0232775
0.0232639
0.0232613
0.0232575
0.0232554
0.0233018
0.0233533
0.0233918
0.0234211
0.0234385
0.0234587
0.0234382
0.0234339
0.0234224
0.0234186
0.0234359
0.0234542
0.02343
0.0234264
0.0234543
0.0234333
0.0234273
0.0234299
0.0234327
0.0234728
0.0234664
0.0234746
0.0234846
0.023546
0.0235459
0.0235805
0.0235589
0.0235567
0.023553
0.0235572
0.0235642
0.0236241
0.0236175
0.0236419
0.0236661
0.0236397
0.0236378
0.0236409
0.0236425
0.0236754
0.0237189
0.0237019
0.0237191
0.0237378
0.0237125
0.0237156
0.0237327
0.023739
0.0237361
0.0237328
0.0237332
0.023766
0.0237576
0.0237793
0.0238031
0.0237851
0.0237872
0.0237879
0.0237958
0.0238298
0.0238497
0.0238622
0.0238405
0.0238329
0.0238464
0.0238539
0.0238716
0.023867
0.0238655
0.0238669
0.0239057
0.0239014
0.02393
0.0239451
0.0239488
0.0239461
0.023953
0.023937
0.0239479
0.0239309
0.0239582
0.0239451
0.0239412
0.023938
0.0239365
0.0239374
0.023958
0.0239427
0.023964
0.0239451
0.0239568
0.0239588
0.0239625
0.0239424
0.0239614
0.0239479
0.0239432
0.0239704
0.0239513
0.0239449
0.0239441
0.0239601
0.0239654
0.0239684
0.0239656
0.0239692
0.0239499
0.0239414
0.0239377
0.0239527
0.0239366
0.0239347
0.023935
0.0239657
0.0239518
0.0239477
0.0239449
0.0239634
0.0239503
0.0239664
0.0239879
0.0239727
0.0239812
0.0239821
0.0239793
0.0239816
0.0239609
0.0239525
0.0239514
0.0239733
0.023991
0.0239896
0.0239942
0.0239792
0.023996
0.0239802
0.0239872
0.0239948
0.0239761
0.0239971
0.0239835
0.0239761
0.023974
0.0239968
0.0239814
0.0240031
0.0239848
0.0239812
0.024008
0.023996
0.0240111
0.0239948
0.0240171
0.0240069
0.0240017
0.0240003
0.0240192
0.0240257
0.0240322
0.0240105
0.0240058
0.0240253
0.0240069
0.0240031
0.0239991
0.0239985
0.023996
0.0240004
0.0240311
0.0240211
0.0240192
0.0240168
0.0240181
0.0240415
0.0240245
0.0240387
0.0240566