/*--------------------------------*- C++ -*----------------------------------*\
  =========                 |
  \\      /  F ield         | OpenFOAM: The Open Source CFD Toolbox
   \\    /   O peration     | Website:  https://openfoam.org
    \\  /    A nd           | Version:  7
     \\/     M anipulation  |
\*---------------------------------------------------------------------------*/
FoamFile
{
    version     2.0;
    format      ascii;
    class       volScalarField;
    location    "100";
    object      nut;
}
// * * * * * * * * * * * * * * * * * * * * * * * * * * * * * * * * * * * * * //

dimensions      [0 2 -1 0 0 0 0];

internalField   nonuniform List<scalar> 
36000
(
2.90648e-05
2.98316e-05
3.04915e-05
3.10386e-05
3.15022e-05
3.18595e-05
3.21588e-05
3.23663e-05
3.25445e-05
3.26353e-05
3.27055e-05
3.2744e-05
3.27405e-05
3.27098e-05
3.26564e-05
3.25841e-05
3.24962e-05
3.23956e-05
3.22848e-05
3.21659e-05
3.20407e-05
3.19108e-05
3.17776e-05
3.16423e-05
3.15057e-05
3.13687e-05
3.1232e-05
3.10961e-05
3.09616e-05
3.08287e-05
3.06979e-05
3.05693e-05
3.04432e-05
3.03198e-05
3.01991e-05
3.00812e-05
2.99662e-05
2.9854e-05
2.97448e-05
2.96385e-05
2.95352e-05
2.94346e-05
2.93369e-05
2.92419e-05
2.91497e-05
2.90601e-05
2.89731e-05
2.88886e-05
2.88065e-05
2.87269e-05
2.86495e-05
2.85744e-05
2.85014e-05
2.84306e-05
2.83618e-05
2.82949e-05
2.82299e-05
2.81668e-05
2.81054e-05
2.80457e-05
2.79877e-05
2.79313e-05
2.78764e-05
2.78229e-05
2.77709e-05
2.77202e-05
2.76708e-05
2.76227e-05
2.75759e-05
2.75302e-05
2.74856e-05
2.74421e-05
2.73996e-05
2.73581e-05
2.73176e-05
2.7278e-05
2.72393e-05
2.72013e-05
2.71642e-05
2.71279e-05
2.70922e-05
2.70573e-05
2.70231e-05
2.69895e-05
2.69565e-05
2.69241e-05
2.68924e-05
2.68612e-05
2.68306e-05
2.68006e-05
2.67712e-05
2.67422e-05
2.6714e-05
2.66862e-05
2.66591e-05
2.66324e-05
2.66062e-05
2.65804e-05
2.6555e-05
2.653e-05
2.65054e-05
2.64811e-05
2.64571e-05
2.64335e-05
2.64102e-05
2.63873e-05
2.63646e-05
2.63422e-05
2.63201e-05
2.62983e-05
2.62768e-05
2.62555e-05
2.62345e-05
2.62137e-05
2.61932e-05
2.61729e-05
2.61529e-05
2.6133e-05
2.61135e-05
2.60941e-05
2.60749e-05
2.60559e-05
2.60372e-05
2.60186e-05
2.60002e-05
2.5982e-05
2.5964e-05
2.59462e-05
2.59286e-05
2.59111e-05
2.58938e-05
2.58766e-05
2.58596e-05
2.58428e-05
2.58261e-05
2.58095e-05
2.57931e-05
2.57767e-05
2.57606e-05
2.57445e-05
2.57286e-05
2.57128e-05
2.56971e-05
2.56815e-05
2.5666e-05
2.56506e-05
2.56353e-05
2.56201e-05
2.56049e-05
2.55899e-05
2.5575e-05
2.55602e-05
2.55454e-05
2.55308e-05
2.55162e-05
2.55018e-05
2.54874e-05
2.54732e-05
2.5459e-05
2.5445e-05
2.5431e-05
2.54172e-05
2.54034e-05
2.53898e-05
2.53762e-05
2.53628e-05
2.53494e-05
2.53363e-05
2.53231e-05
2.53101e-05
2.52972e-05
2.52844e-05
2.52718e-05
2.52592e-05
2.52467e-05
2.52343e-05
2.52221e-05
2.52099e-05
2.51979e-05
2.51859e-05
2.51742e-05
2.51623e-05
2.51508e-05
2.51392e-05
2.51279e-05
2.51164e-05
2.51053e-05
2.50941e-05
2.50831e-05
2.5072e-05
2.50613e-05
2.50504e-05
2.50398e-05
2.50292e-05
2.50188e-05
2.50084e-05
2.49981e-05
2.4988e-05
2.49779e-05
2.49681e-05
2.49582e-05
2.49486e-05
2.4939e-05
2.49295e-05
2.49202e-05
2.49108e-05
2.49017e-05
2.48925e-05
2.48835e-05
2.48745e-05
2.48655e-05
2.48567e-05
2.48478e-05
2.48391e-05
2.48304e-05
2.48218e-05
2.48132e-05
2.4805e-05
2.47963e-05
2.47885e-05
2.47795e-05
2.47719e-05
2.47629e-05
2.47555e-05
2.47466e-05
2.47396e-05
2.47306e-05
2.47241e-05
2.47155e-05
2.4709e-05
2.4701e-05
2.46945e-05
2.46875e-05
2.46803e-05
2.46747e-05
2.46669e-05
2.46615e-05
2.46543e-05
2.46482e-05
2.46408e-05
2.46358e-05
2.46276e-05
2.46227e-05
2.46135e-05
2.46094e-05
2.46002e-05
2.45968e-05
2.45874e-05
2.45845e-05
2.45741e-05
2.45708e-05
2.45591e-05
2.45541e-05
2.45457e-05
2.45275e-05
2.45243e-05
2.45196e-05
2.45175e-05
2.45141e-05
2.45379e-05
2.45216e-05
2.454e-05
2.45514e-05
2.45512e-05
2.45507e-05
2.45456e-05
2.45417e-05
2.45354e-05
2.45304e-05
2.45214e-05
2.45192e-05
2.45097e-05
2.45045e-05
2.44944e-05
2.44858e-05
2.44838e-05
2.44664e-05
2.44635e-05
2.44602e-05
2.4466e-05
2.44837e-05
2.44893e-05
2.449e-05
2.44859e-05
2.44803e-05
2.44767e-05
2.44748e-05
2.44735e-05
2.4471e-05
2.44698e-05
2.44652e-05
2.44614e-05
2.44578e-05
2.44541e-05
2.44491e-05
2.44384e-05
2.44338e-05
2.44289e-05
2.44469e-05
2.44319e-05
2.44457e-05
2.4448e-05
2.44462e-05
2.44277e-05
2.44224e-05
2.44283e-05
2.44148e-05
2.44098e-05
2.44189e-05
2.44376e-05
2.4424e-05
2.44364e-05
2.44367e-05
2.44322e-05
2.44254e-05
2.44179e-05
2.44176e-05
2.44018e-05
2.43979e-05
2.43937e-05
2.4414e-05
2.44006e-05
2.43986e-05
2.4419e-05
2.44287e-05
2.44291e-05
2.44254e-05
2.44258e-05
2.44043e-05
2.43965e-05
2.4389e-05
2.44e-05
2.43854e-05
2.43981e-05
2.43827e-05
2.43874e-05
2.43873e-05
2.43833e-05
2.43843e-05
2.43699e-05
2.43878e-05
2.43746e-05
2.43701e-05
2.43957e-05
2.43804e-05
2.43991e-05
2.44036e-05
2.44095e-05
2.4404e-05
2.44017e-05
2.4379e-05
2.43707e-05
2.4364e-05
2.43772e-05
2.43832e-05
2.43839e-05
2.43833e-05
2.43796e-05
2.43707e-05
2.43652e-05
2.43613e-05
2.4346e-05
2.43414e-05
2.4352e-05
2.4352e-05
2.43537e-05
2.4338e-05
2.43336e-05
2.43448e-05
2.43298e-05
2.43259e-05
2.43227e-05
2.43211e-05
2.43411e-05
2.43279e-05
2.43226e-05
2.43191e-05
2.43291e-05
2.4331e-05
2.43294e-05
2.43299e-05
2.43163e-05
2.43304e-05
2.43178e-05
2.43323e-05
2.43238e-05
2.43174e-05
2.43133e-05
2.43211e-05
2.43237e-05
2.43215e-05
2.43186e-05
2.43191e-05
2.43053e-05
2.43021e-05
2.43097e-05
2.4317e-05
2.43034e-05
2.43002e-05
2.42964e-05
2.42941e-05
2.43171e-05
2.43039e-05
2.42986e-05
2.42956e-05
2.4292e-05
2.42903e-05
2.42876e-05
2.4309e-05
2.42962e-05
2.43039e-05
2.43106e-05
2.42963e-05
2.42922e-05
2.43016e-05
2.43102e-05
2.42957e-05
2.43114e-05
2.42978e-05
2.43049e-05
2.43107e-05
2.42951e-05
2.42903e-05
2.43003e-05
2.43025e-05
2.43017e-05
2.42989e-05
2.42969e-05
2.42937e-05
2.42955e-05
2.42821e-05
2.4279e-05
2.42911e-05
2.42941e-05
2.42984e-05
2.42843e-05
2.42806e-05
2.42766e-05
2.42925e-05
2.43176e-05
2.43032e-05
2.42956e-05
2.42905e-05
2.43069e-05
2.42896e-05
2.42836e-05
2.42909e-05
2.42998e-05
2.43076e-05
2.42922e-05
2.42973e-05
2.42812e-05
2.42761e-05
2.4271e-05
2.4292e-05
2.42811e-05
2.42963e-05
2.43003e-05
2.43039e-05
2.42865e-05
2.42813e-05
2.42762e-05
2.42933e-05
2.43176e-05
2.43018e-05
2.43084e-05
2.43075e-05
2.43027e-05
2.43006e-05
2.42831e-05
2.42964e-05
2.4281e-05
2.42925e-05
2.42997e-05
2.43e-05
2.43033e-05
2.42857e-05
2.4276e-05
2.42821e-05
2.43054e-05
2.42906e-05
2.42815e-05
2.4275e-05
2.42687e-05
2.42891e-05
2.42771e-05
2.42951e-05
2.42786e-05
2.42728e-05
2.42672e-05
2.4293e-05
2.42777e-05
2.42987e-05
2.42807e-05
2.42922e-05
2.42748e-05
2.42836e-05
2.42988e-05
2.42834e-05
2.42736e-05
2.42678e-05
2.42801e-05
2.4284e-05
2.42831e-05
2.42844e-05
2.42682e-05
2.4263e-05
2.42744e-05
2.428e-05
2.42783e-05
2.42804e-05
2.42648e-05
2.42599e-05
2.42546e-05
2.42525e-05
2.4271e-05
2.42803e-05
2.42788e-05
2.4281e-05
2.42637e-05
2.42583e-05
2.42529e-05
2.42744e-05
2.42993e-05
2.43066e-05
2.42945e-05
2.42997e-05
2.4299e-05
2.42928e-05
2.42922e-05
2.42728e-05
2.42903e-05
2.42757e-05
2.42918e-05
2.42968e-05
2.42948e-05
2.42943e-05
2.42751e-05
2.42916e-05
2.42757e-05
2.42905e-05
2.42727e-05
2.42666e-05
2.42842e-05
2.42676e-05
2.4289e-05
2.42746e-05
2.42913e-05
2.4274e-05
2.42937e-05
2.42776e-05
2.42704e-05
2.42653e-05
2.42797e-05
2.42856e-05
2.4289e-05
2.42728e-05
2.42824e-05
2.43027e-05
2.42874e-05
2.42776e-05
2.4295e-05
2.428e-05
2.42721e-05
2.4267e-05
2.42612e-05
2.42581e-05
2.42761e-05
2.42912e-05
2.42741e-05
2.42672e-05
2.42608e-05
2.42844e-05
2.42714e-05
2.42924e-05
2.42748e-05
2.42877e-05
2.42774e-05
2.42707e-05
2.42661e-05
2.42623e-05
2.42593e-05
2.42551e-05
2.42531e-05
2.42501e-05
2.42498e-05
2.42725e-05
2.4291e-05
2.42724e-05
2.42664e-05
2.4282e-05
2.42861e-05
2.42908e-05
2.42719e-05
2.42658e-05
2.42599e-05
2.42568e-05
2.42738e-05
2.4289e-05
2.4271e-05
0.00114838
0.000788704
0.000634987
0.000546545
0.000487416
0.00044452
0.000411669
0.000385621
0.000364338
0.000346586
0.000331515
0.000318536
0.000307232
0.00029729
0.000288473
0.000280598
0.000273519
0.000267121
0.00026131
0.000256009
0.000251155
0.000246696
0.000242584
0.000238784
0.000235262
0.000231989
0.000228942
0.000226099
0.000223442
0.000220954
0.00021862
0.000216429
0.000214368
0.000212428
0.000210599
0.000208872
0.00020724
0.000205695
0.000204232
0.000202844
0.000201527
0.000200275
0.000199084
0.000197951
0.000196871
0.000195841
0.000194858
0.000193919
0.000193022
0.000192163
0.000191341
0.000190553
0.000189798
0.000189074
0.000188378
0.00018771
0.000187067
0.000186449
0.000185854
0.000185281
0.000184729
0.000184196
0.000183682
0.000183186
0.000182707
0.000182244
0.000181796
0.000181362
0.000180942
0.000180535
0.000180139
0.000179756
0.000179382
0.000179019
0.000178664
0.000178318
0.00017798
0.000177648
0.000177323
0.000177005
0.000176691
0.000176384
0.000176081
0.000175785
0.000175493
0.000175207
0.000174926
0.000174653
0.000174386
0.000174127
0.000173873
0.000173587
0.000173134
0.000172687
0.000172247
0.000171814
0.000171389
0.000170971
0.000170562
0.000170162
0.000169771
0.00016939
0.000169019
0.000168657
0.000168306
0.000167964
0.000167632
0.00016731
0.000166997
0.000166693
0.000166398
0.000166111
0.000165833
0.000165563
0.0001653
0.000165044
0.000164796
0.000164554
0.000164318
0.000164088
0.000163864
0.000163645
0.000163432
0.000163223
0.000163019
0.000162819
0.000162624
0.000162433
0.000162245
0.000162061
0.000161881
0.000161703
0.000161529
0.000161357
0.000161187
0.00016102
0.000160855
0.000160691
0.000160529
0.000160368
0.000160209
0.000160051
0.000159893
0.000159736
0.00015958
0.000159424
0.000159269
0.000159115
0.000158961
0.000158807
0.000158655
0.000158503
0.000158353
0.000158203
0.000158054
0.000157906
0.000157759
0.000157613
0.000157468
0.000157325
0.000157183
0.000157042
0.000156903
0.000156766
0.000156631
0.000156497
0.000156365
0.000156235
0.000156107
0.00015598
0.000155855
0.000155732
0.00015561
0.00015549
0.000155372
0.000155256
0.000155142
0.000155028
0.000154918
0.000154808
0.000154701
0.000154594
0.00015449
0.000154387
0.000154286
0.000154186
0.000154086
0.000153989
0.000153892
0.000153796
0.000153702
0.00015361
0.000153519
0.00015343
0.000153342
0.000153258
0.000153173
0.000153093
0.000153013
0.000152936
0.000152862
0.00015279
0.00015272
0.000152651
0.000152584
0.000152517
0.000152451
0.000152385
0.00015232
0.000152255
0.000152188
0.000152125
0.000152057
0.000151994
0.00015193
0.000151864
0.000151806
0.000151745
0.000151682
0.000151624
0.00015155
0.000151488
0.000151418
0.000151345
0.000151284
0.000151213
0.000151146
0.000151089
0.000151025
0.000150965
0.000150915
0.000150871
0.00015084
0.000150807
0.00015078
0.000150747
0.000150707
0.00015069
0.000150603
0.000150571
0.00015054
0.000150557
0.000150526
0.000150567
0.000150523
0.000150554
0.000150515
0.000150557
0.000150617
0.000150594
0.000150632
0.0001506
0.000150619
0.000150643
0.000150777
0.000150776
0.000150795
0.000150827
0.000150861
0.000150904
0.000151051
0.000151057
0.000151103
0.000151146
0.000151205
0.000151364
0.000151468
0.00015153
0.000151572
0.000151614
0.000151663
0.000151647
0.000151736
0.000151856
0.000151844
0.000151853
0.00015188
0.000151909
0.000151961
0.000152112
0.00015213
0.000152176
0.000152305
0.000152324
0.000152487
0.000152555
0.000152624
0.0001528
0.000152976
0.000152996
0.00015302
0.00015314
0.000153158
0.000153284
0.000153271
0.000153306
0.000153339
0.000153393
0.000153543
0.000153533
0.000153576
0.00015368
0.000153754
0.000153813
0.000153795
0.000153918
0.000153907
0.000153937
0.000153973
0.000153999
0.00015404
0.000154081
0.000154138
0.000154306
0.000154299
0.000154431
0.00015459
0.000154583
0.000154597
0.000154627
0.000154718
0.00015478
0.000154845
0.000154812
0.000154844
0.000154871
0.000154919
0.00015506
0.000155025
0.000155055
0.000155082
0.000155128
0.000155278
0.000155256
0.000155283
0.000155301
0.000155447
0.000155439
0.000155466
0.000155622
0.000155619
0.000155729
0.000155684
0.000155691
0.000155747
0.000155862
0.000155829
0.000155839
0.000155907
0.000155962
0.00015592
0.000155939
0.000155959
0.000156095
0.000156096
0.000156113
0.000156138
0.000156267
0.000156244
0.000156324
0.000156369
0.000156324
0.000156398
0.000156357
0.000156352
0.000156457
0.000156436
0.000156547
0.00015651
0.00015652
0.000156525
0.000156547
0.000156665
0.000156624
0.000156644
0.000156655
0.000156677
0.000156799
0.00015676
0.000156778
0.000156789
0.000156916
0.00015692
0.000157019
0.000157105
0.000157064
0.000157133
0.000157232
0.000157199
0.000157261
0.000157203
0.000157211
0.000157216
0.000157236
0.000157354
0.000157311
0.000157328
0.000157406
0.000157451
0.000157488
0.000157441
0.000157547
0.000157521
0.000157589
0.000157656
0.000157714
0.000157673
0.000157714
0.000157662
0.000157663
0.000157738
0.000157702
0.000157813
0.00015779
0.000157904
0.000157869
0.000157875
0.000157959
0.000157915
0.000157926
0.000157933
0.000157958
0.000158066
0.000158151
0.000158112
0.000158219
0.000158188
0.000158182
0.000158195
0.00015829
0.000158335
0.000158389
0.000158338
0.000158357
0.000158463
0.000158517
0.000158549
0.000158571
0.000158581
0.000158621
0.000158571
0.000158576
0.00015868
0.000158634
0.000158641
0.00015871
0.000158749
0.000158751
0.000158778
0.000158717
0.00015872
0.00015872
0.000158857
0.000158826
0.000158924
0.000158863
0.000158863
0.000158869
0.000158881
0.000158897
0.000159029
0.000159106
0.000159135
0.000159084
0.000159037
0.000159011
0.000159061
0.000159076
0.000159083
0.000159073
0.000159076
0.000159064
0.000159057
0.000159064
0.000158988
0.000158969
0.000158944
0.000158938
0.000158929
0.000159077
0.000159033
0.000159012
0.000159012
0.000159126
0.000159223
0.000159155
0.000159233
0.000159342
0.000159279
0.000159305
0.000159213
0.000159178
0.000159143
0.000159131
0.000159115
0.000159113
0.0001592
0.00015928
0.000159197
0.000159178
0.00015925
0.000159313
0.000159233
0.000159217
0.0001593
0.000159214
0.000159308
0.000159241
0.000159303
0.00015934
0.000159341
0.000159352
0.000159262
0.000159273
0.000159234
0.000159242
0.000159152
0.000159114
0.000159082
0.000159057
0.000159038
0.000159026
0.000159021
0.000159142
0.000159178
0.000159148
0.000159165
0.000159174
0.000159194
0.000159201
0.000159217
0.000159223
0.000159228
0.000159232
0.000159237
0.000159376
0.000159294
0.000159285
0.000159384
0.000159307
0.000159411
0.000159354
0.000159393
0.000159437
0.000159352
0.000159309
0.000159438
0.000159404
0.000159465
0.000159528
0.000159454
0.000159551
0.000159524
0.000159629
0.000159702
0.000159622
0.000159693
0.000159607
0.000159656
0.000159698
0.000159624
0.000159636
0.000159528
0.000159489
0.000159549
0.000159448
0.000159418
0.000159385
0.000159502
0.00015945
0.000159513
0.000159542
0.000159453
0.000159488
0.000159549
0.00015947
0.00015941
0.000159378
0.000159471
0.000159384
0.000159359
0.000159331
0.000159317
0.000159293
0.000159278
0.000159368
0.000159428
0.000159341
0.000159315
0.000159365
0.000159429
0.00015935
0.000159338
0.00015932
0.000159471
0.000159416
0.000159503
0.000159419
0.0001594
0.00015937
0.00169666
0.00157225
0.00143353
0.00131148
0.00120773
0.00112015
0.00104588
0.000982431
0.000927716
0.000880101
0.000838308
0.000801333
0.000768383
0.00073883
0.000712167
0.000687984
0.000665945
0.000645772
0.000627232
0.000610133
0.000594309
0.00057962
0.000565947
0.00055319
0.000541259
0.000530075
0.000519569
0.000509679
0.000500354
0.000491543
0.000483211
0.000475308
0.000467802
0.000460663
0.000453865
0.000447385
0.000441201
0.000435292
0.000429642
0.000424234
0.000419052
0.000414083
0.000409314
0.000404733
0.000400329
0.000396093
0.000392015
0.000388086
0.000384299
0.000380646
0.00037712
0.000373715
0.000370425
0.000367245
0.000364168
0.000361191
0.000358308
0.000355515
0.000352809
0.000350184
0.000347639
0.00034517
0.000342772
0.000340444
0.000338183
0.000335985
0.000333848
0.000331769
0.000329747
0.000327779
0.000325862
0.000323995
0.000322175
0.0003204
0.000318667
0.000316976
0.000315322
0.000313705
0.000312123
0.000310573
0.000309055
0.000307566
0.000306105
0.000304672
0.000303266
0.000301886
0.000300533
0.000299205
0.000297905
0.00029663
0.000295383
0.000294163
0.000292973
0.000291813
0.000290684
0.000289586
0.000288519
0.000287484
0.00028648
0.000285509
0.00028457
0.000283663
0.000282788
0.000281944
0.000281132
0.00028035
0.000279598
0.000278876
0.000278183
0.000277517
0.000276877
0.000276264
0.000275675
0.00027511
0.000274567
0.000274046
0.000273545
0.000273063
0.0002726
0.000272153
0.000271723
0.000271308
0.000270907
0.00027052
0.000270145
0.000269782
0.00026943
0.000269088
0.000268756
0.000268432
0.000268117
0.000267809
0.000267508
0.000267213
0.000266923
0.000266636
0.000266354
0.000266074
0.000265797
0.000265521
0.000265247
0.000264972
0.000264699
0.000264425
0.000264152
0.000263876
0.000263601
0.000263324
0.000263048
0.000262769
0.000262491
0.000262211
0.000261932
0.000261651
0.000261371
0.00026109
0.00026081
0.000260529
0.000260249
0.00025997
0.000259691
0.000259414
0.000259138
0.000258866
0.000258594
0.000258327
0.00025806
0.000257799
0.000257538
0.000257281
0.000257026
0.000256774
0.000256524
0.000256275
0.00025603
0.000255785
0.000255546
0.000255306
0.000255072
0.000254839
0.00025461
0.000254384
0.000254161
0.000253941
0.000253723
0.000253509
0.000253294
0.000253084
0.00025287
0.000252665
0.000252452
0.000252249
0.000252039
0.00025184
0.000251632
0.000251437
0.000251232
0.00025104
0.000250838
0.00025065
0.000250454
0.00025027
0.000250078
0.0002499
0.000249711
0.000249537
0.000249352
0.000249181
0.000248998
0.000248827
0.000248647
0.00024847
0.000248292
0.000248108
0.000247935
0.000247748
0.000247572
0.000247392
0.000247221
0.000247038
0.000246875
0.000246693
0.000246535
0.000246356
0.000246196
0.000246041
0.000245869
0.000245736
0.000245573
0.000245411
0.000245259
0.000245117
0.000245001
0.00024483
0.000244701
0.000244593
0.000244486
0.00024437
0.000244276
0.000244111
0.000244025
0.00024392
0.000243835
0.000243763
0.000243666
0.000243777
0.000243914
0.000243923
0.00024383
0.000243783
0.000243905
0.000244189
0.000244249
0.000244271
0.000244254
0.000244352
0.000244253
0.000244305
0.000244595
0.000244582
0.000244721
0.000244585
0.000244518
0.000244692
0.000244588
0.000244715
0.000244637
0.000244573
0.000244677
0.000244881
0.000244886
0.000245182
0.000245178
0.000245105
0.00024508
0.000245058
0.00024506
0.000245405
0.000245964
0.000246345
0.000247066
0.000247162
0.000247337
0.00024724
0.000247178
0.000247561
0.000247893
0.000248115
0.000247943
0.000248143
0.000248057
0.000248126
0.000248153
0.000248188
0.000248534
0.000248439
0.000248666
0.000248876
0.000249023
0.000249093
0.000249343
0.000249391
0.00024962
0.000249667
0.000249792
0.000249873
0.000249807
0.000250197
0.000250254
0.000250176
0.000250321
0.000250258
0.000250305
0.000250353
0.000250607
0.000251013
0.000251194
0.000251163
0.000251137
0.000251268
0.000251228
0.000251185
0.000251288
0.000251296
0.000251392
0.00025139
0.000251827
0.000251722
0.000251864
0.000252022
0.000252532
0.000252392
0.000252613
0.00025272
0.000252651
0.00025278
0.000252754
0.000252894
0.000253419
0.000253305
0.000253504
0.000253428
0.000253372
0.00025334
0.000253373
0.00025377
0.000253662
0.0002537
0.000254074
0.000253962
0.000254133
0.000254358
0.000254698
0.000254773
0.000254825
0.000254855
0.000254918
0.000254785
0.000254951
0.000255019
0.000255233
0.000255277
0.000255125
0.000255203
0.00025513
0.000255233
0.000255417
0.000255426
0.000255702
0.000255575
0.000255913
0.000255883
0.000255809
0.000255774
0.000255996
0.000255839
0.000255831
0.000256009
0.00025612
0.000256411
0.000256471
0.000256597
0.000256803
0.000256823
0.000256862
0.00025688
0.000256819
0.000256795
0.000256794
0.000256931
0.000257076
0.000257054
0.000257361
0.000257259
0.000257383
0.000257655
0.000257495
0.000257441
0.000257565
0.000257777
0.000257699
0.000258006
0.00025808
0.00025803
0.000257913
0.000258017
0.000257957
0.000258018
0.000258114
0.000257956
0.000258227
0.000258645
0.000258536
0.000258706
0.000258526
0.000258473
0.000258695
0.000258777
0.000258644
0.000258914
0.000258903
0.000259032
0.000258997
0.000258951
0.000259238
0.000259204
0.000259121
0.000259323
0.000259302
0.000259239
0.000259546
0.000259456
0.000259679
0.000259719
0.000259826
0.000259659
0.000259928
0.000259877
0.000260158
0.000260306
0.000260123
0.000260155
0.000260075
0.00026033
0.000260201
0.000260344
0.00026031
0.000260363
0.000260298
0.000260629
0.000260648
0.000260772
0.000260673
0.00026087
0.000260786
0.000260693
0.000260666
0.000260974
0.000260764
0.000260816
0.000260904
0.000261051
0.000260988
0.000260973
0.000260794
0.000260811
0.000260759
0.000260879
0.000260864
0.000260981
0.000260871
0.000261049
0.000261028
0.00026102
0.000260991
0.00026092
0.000261156
0.00026097
0.000260973
0.000260897
0.000261223
0.000261052
0.000261049
0.000261282
0.000261203
0.000261257
0.000261241
0.000261224
0.000261163
0.000261156
0.000261066
0.000261043
0.000261151
0.000261125
0.000261239
0.000261051
0.000260998
0.000261106
0.000261254
0.000261166
0.000261269
0.000261156
0.000261214
0.000261364
0.000261188
0.000261128
0.000261192
0.000261347
0.00026132
0.000261386
0.000261439
0.000261296
0.000261218
0.000261264
0.000261095
0.000261055
0.000261012
0.000261238
0.000261147
0.000261361
0.000261462
0.000261419
0.000261422
0.000261398
0.000261289
0.000261338
0.000261652
0.000261582
0.000261459
0.000261429
0.000261526
0.000261597
0.000261665
0.00026144
0.000261383
0.00026133
0.000261293
0.000261466
0.000261518
0.000261598
0.000261566
0.000261551
0.000261623
0.00026146
0.00026158
0.000261807
0.000261715
0.000261665
0.000261744
0.00026157
0.000261679
0.000261654
0.000261795
0.000261849
0.000261887
0.000261727
0.000261682
0.000261589
0.000261551
0.000261592
0.000261747
0.000261728
0.000261636
0.000261583
0.00026164
0.000261594
0.000261774
0.000261852
0.000261789
0.00026181
0.000261741
0.000261704
0.000261666
0.000261655
0.000261611
0.000261613
0.000261571
0.000261694
0.000261806
0.000261725
0.000261594
0.000261519
0.000261671
0.000261696
0.000261595
0.000261567
0.000261637
0.000261654
0.00026157
0.000261673
0.000261635
0.000261797
0.000261836
0.000261665
0.000261749
0.000261602
0.000261582
0.000261638
0.000261706
0.000261498
0.00173407
0.00171896
0.00169088
0.00164886
0.00160084
0.00155015
0.00149899
0.00144883
0.0014005
0.00135447
0.00131093
0.00126993
0.00123141
0.00119525
0.00116133
0.0011295
0.00109961
0.00107152
0.00104509
0.0010202
0.000996719
0.000974548
0.000953584
0.00093373
0.000914904
0.000897032
0.000880046
0.000863883
0.000848486
0.000833804
0.000819784
0.000806394
0.000793592
0.000781339
0.000769601
0.000758343
0.000747538
0.000737158
0.000727179
0.000717576
0.000708329
0.000699417
0.000690824
0.000682531
0.000674523
0.000666785
0.000659303
0.000652065
0.000645059
0.000638272
0.000631696
0.000625319
0.000619134
0.00061313
0.0006073
0.000601637
0.000596132
0.00059078
0.000585573
0.000580507
0.000575575
0.000570771
0.000566091
0.000561529
0.000557082
0.000552745
0.000548514
0.000544383
0.000540352
0.000536417
0.000532573
0.000528817
0.000525145
0.000521553
0.000518039
0.000514597
0.000511226
0.00050792
0.000504678
0.000501496
0.000498371
0.000495301
0.000492282
0.000489313
0.000486389
0.000483508
0.000480671
0.000477876
0.000475124
0.000472415
0.000469748
0.000467126
0.000464548
0.000462015
0.00045953
0.000457093
0.000454706
0.000452369
0.000450084
0.000447852
0.000445673
0.000443549
0.00044148
0.000439467
0.000437509
0.000435606
0.000433758
0.000431966
0.000430227
0.000428542
0.00042691
0.000425329
0.000423799
0.000422318
0.000420884
0.000419498
0.000418156
0.000416857
0.000415601
0.000414384
0.000413206
0.000412065
0.000410959
0.000409887
0.000408847
0.000407838
0.000406858
0.000405906
0.000404981
0.00040408
0.000403203
0.000402348
0.000401514
0.000400699
0.000399902
0.000399121
0.000398354
0.0003976
0.000396858
0.000396125
0.000395401
0.000394684
0.000393973
0.000393268
0.000392567
0.000391869
0.000391175
0.000390482
0.000389792
0.000389102
0.000388415
0.000387727
0.000387042
0.000386356
0.000385672
0.000384988
0.000384305
0.000383622
0.00038294
0.000382259
0.000381579
0.000380901
0.000380226
0.000379554
0.000378885
0.000378221
0.000377561
0.000376907
0.000376256
0.000375611
0.00037497
0.000374334
0.000373703
0.000373075
0.000372454
0.000371835
0.000371225
0.000370617
0.000370018
0.000369423
0.000368836
0.000368255
0.000367679
0.00036711
0.000366545
0.000365988
0.000365432
0.000364883
0.000364333
0.00036379
0.000363246
0.000362708
0.000362166
0.000361634
0.000361094
0.000360567
0.000360031
0.000359509
0.000358977
0.000358461
0.000357938
0.000357431
0.000356919
0.000356421
0.000355921
0.000355432
0.000354943
0.000354463
0.000353984
0.000353506
0.000353035
0.000352554
0.000352087
0.000351605
0.000351139
0.000350661
0.000350197
0.000349722
0.000349266
0.000348798
0.000348364
0.00034792
0.000347509
0.000347089
0.000346698
0.0003463
0.000345918
0.000345557
0.000345163
0.000344757
0.000344375
0.000343991
0.000343628
0.000343288
0.000342878
0.000342477
0.000342108
0.000341806
0.000341539
0.00034125
0.00034097
0.000340638
0.000340334
0.000339984
0.000339706
0.000339294
0.000339157
0.000339141
0.000338819
0.000338698
0.000338613
0.000338299
0.000338229
0.000337944
0.000337773
0.000337865
0.000337576
0.00033756
0.000337385
0.000337185
0.000336986
0.000337018
0.000336781
0.000336621
0.000336428
0.000336866
0.000336586
0.000336476
0.000336318
0.000336201
0.000336114
0.000336376
0.000336734
0.000336967
0.000336706
0.000336369
0.000336502
0.000336944
0.000337726
0.00033869
0.000339373
0.000340408
0.000340346
0.000340312
0.000340703
0.000340378
0.000340169
0.000340109
0.000340018
0.000340594
0.000341034
0.000341496
0.000341048
0.000340822
0.000340595
0.00034113
0.000341033
0.000341672
0.000341285
0.000341189
0.000341146
0.00034192
0.000342652
0.000343357
0.000344029
0.000344517
0.000344906
0.000344643
0.000344801
0.000344389
0.000344081
0.000343915
0.000343823
0.000343783
0.00034485
0.000344756
0.000345315
0.000345751
0.000345443
0.000345236
0.000345176
0.000344954
0.000345643
0.000345348
0.000345175
0.000345051
0.000345841
0.000345461
0.000345404
0.000346104
0.000346021
0.00034601
0.000346524
0.000347146
0.000347606
0.000347877
0.000348217
0.000348135
0.000348089
0.000348131
0.000347961
0.000347986
0.000348647
0.000348611
0.000348887
0.000348788
0.00034926
0.000349164
0.000349346
0.000349196
0.000349385
0.000349554
0.000349593
0.000350414
0.000350249
0.000350744
0.000350751
0.000351174
0.000351454
0.000351464
0.000351438
0.000351385
0.000351421
0.000351344
0.000352209
0.000352244
0.00035262
0.00035245
0.000352264
0.000352394
0.000352966
0.000352933
0.000353254
0.00035293
0.000353045
0.000352822
0.000352777
0.000352712
0.000353078
0.000353006
0.000353318
0.000353615
0.000354106
0.000354109
0.000354102
0.000354684
0.000354285
0.000354149
0.000354266
0.000354567
0.000354835
0.000354915
0.000355066
0.000355412
0.000355648
0.000355706
0.000355976
0.000355832
0.000355991
0.000356534
0.000356141
0.000355988
0.000355922
0.000356123
0.000355924
0.00035591
0.000356183
0.000356038
0.00035601
0.000356598
0.00035685
0.0003568
0.00035729
0.000357216
0.000357578
0.000357556
0.000357654
0.000357904
0.000357876
0.00035822
0.000358231
0.000358508
0.000358232
0.000358097
0.000358098
0.000358076
0.000358742
0.000359011
0.000358872
0.000358979
0.00035887
0.000359186
0.000359659
0.000359526
0.000359463
0.000359601
0.000359702
0.000359822
0.000359736
0.000359722
0.000359651
0.000359759
0.000360042
0.000360425
0.000360187
0.000360346
0.00036039
0.000360691
0.000361061
0.000361176
0.000361563
0.00036164
0.000361312
0.000361387
0.000361188
0.000361903
0.00036162
0.000362088
0.00036169
0.000362199
0.000361889
0.000362188
0.000362313
0.000362386
0.000361999
0.000362329
0.000362507
0.000362213
0.000362276
0.000362625
0.000362551
0.000362752
0.000362371
0.000362234
0.000362514
0.000362595
0.0003626
0.000362448
0.000362368
0.000362183
0.000362261
0.000362347
0.000362431
0.000362768
0.000362395
0.000362492
0.000362292
0.000362702
0.000362522
0.000362612
0.000362633
0.000362492
0.000362227
0.000362384
0.000362441
0.000362803
0.000362691
0.000362715
0.000362551
0.000362238
0.000362105
0.000362254
0.000362653
0.000362305
0.000362403
0.000362595
0.000362336
0.000362463
0.000362857
0.000362533
0.000362439
0.000362628
0.000362707
0.000362458
0.000362599
0.000362971
0.000362559
0.000362985
0.000363134
0.00036322
0.000363367
0.00036346
0.000363335
0.000363233
0.000362952
0.000362631
0.000362481
0.000362369
0.0003623
0.000362427
0.000362943
0.00036263
0.000362663
0.000362791
0.000362589
0.000362858
0.000362599
0.000362738
0.000363074
0.000362843
0.000362725
0.000362802
0.000363143
0.000363078
0.00036327
0.00036318
0.00036308
0.000363052
0.00036326
0.000363144
0.000363249
0.000363035
0.000363063
0.000362899
0.000363219
0.000363087
0.000363158
0.000363431
0.000363187
0.000363371
0.000363336
0.000363331
0.000363292
0.000363388
0.000363324
0.000363678
0.000363654
0.000363346
0.000363422
0.000363152
0.000363372
0.000363206
0.000363331
0.0003631
0.000363207
0.000363466
0.0003632
0.000363107
0.000363505
0.000363368
0.000363272
0.000363127
0.000363043
0.000362942
0.000363275
0.000362913
0.000362765
0.000362978
0.000363043
0.000363027
0.000363062
0.000363046
0.000363084
0.000363279
0.000363303
0.000363361
0.000362983
0.000362876
0.000363236
0.000362827
0.00173674
0.00173434
0.00172903
0.00171973
0.00170738
0.00169124
0.00167143
0.00164909
0.0016249
0.00159947
0.0015732
0.0015465
0.00151968
0.00149299
0.0014666
0.00144067
0.0014153
0.00139054
0.00136646
0.00134308
0.00132041
0.00129845
0.00127722
0.00125668
0.00123682
0.00121764
0.0011991
0.00118119
0.00116389
0.00114716
0.001131
0.00111537
0.00110026
0.00108564
0.0010715
0.00105782
0.00104457
0.00103173
0.0010193
0.00100725
0.000995567
0.000984234
0.000973236
0.00096256
0.000952192
0.000942119
0.00093233
0.000922812
0.000913555
0.000904549
0.000895782
0.000887246
0.000878932
0.000870831
0.000862935
0.000855237
0.000847727
0.000840401
0.00083325
0.000826269
0.000819452
0.000812792
0.000806283
0.000799922
0.000793702
0.000787619
0.000781667
0.000775845
0.000770142
0.000764557
0.000759085