/*--------------------------------*- C++ -*----------------------------------*\
  =========                 |
  \\      /  F ield         | OpenFOAM: The Open Source CFD Toolbox
   \\    /   O peration     | Website:  https://openfoam.org
    \\  /    A nd           | Version:  7
     \\/     M anipulation  |
\*---------------------------------------------------------------------------*/
FoamFile
{
    version     2.0;
    format      ascii;
    class       volScalarField;
    location    "100";
    object      omega;
}
// * * * * * * * * * * * * * * * * * * * * * * * * * * * * * * * * * * * * * //

dimensions      [0 0 -1 0 0 0 0];

internalField   nonuniform List<scalar> 
36000
(
610.053
617.56
623.778
628.629
632.508
635.26
637.392
638.577
639.446
639.441
639.227
638.7
637.764
636.567
635.155
633.566
631.833
629.986
628.05
626.045
623.99
621.9
619.789
617.668
615.546
613.431
611.331
609.25
607.193
605.164
603.166
601.201
599.27
597.377
595.521
593.703
591.923
590.183
588.481
586.817
585.191
583.604
582.053
580.538
579.06
577.616
576.207
574.83
573.487
572.174
570.893
569.642
568.419
567.225
566.058
564.918
563.803
562.714
561.648
560.606
559.586
558.589
557.612
556.656
555.72
554.803
553.905
553.025
552.161
551.315
550.485
549.671
548.871
548.086
547.315
546.558
545.813
545.081
544.361
543.653
542.956
542.269
541.593
540.928
540.272
539.626
538.989
538.362
537.744
537.136
536.536
535.945
535.363
534.79
534.224
533.667
533.117
532.573
532.037
531.507
530.983
530.465
529.952
529.446
528.945
528.45
527.959
527.475
526.995
526.52
526.051
525.586
525.126
524.671
524.221
523.775
523.333
522.896
522.463
522.035
521.61
521.19
520.774
520.362
519.953
519.549
519.148
518.751
518.358
517.968
517.582
517.199
516.82
516.443
516.07
515.7
515.333
514.969
514.608
514.25
513.895
513.542
513.192
512.844
512.499
512.157
511.816
511.479
511.143
510.81
510.479
510.151
509.824
509.5
509.178
508.859
508.541
508.226
507.913
507.603
507.294
506.988
506.684
506.382
506.082
505.785
505.49
505.197
504.906
504.617
504.33
504.046
503.764
503.483
503.205
502.929
502.656
502.383
502.114
501.845
501.581
501.316
501.055
500.794
500.538
500.28
500.027
499.774
499.524
499.274
499.029
498.783
498.541
498.299
498.06
497.822
497.587
497.353
497.121
496.892
496.664
496.44
496.215
495.994
495.774
495.555
495.339
495.122
494.909
494.695
494.483
494.273
494.063
493.857
493.65
493.446
493.242
493.043
492.839
492.645
492.439
492.249
492.044
491.858
491.655
491.474
491.274
491.1
490.903
490.733
490.542
490.374
490.194
490.02
489.856
489.673
489.518
489.337
489.175
489.002
488.848
488.662
488.51
488.317
488.18
487.989
487.863
487.667
487.541
487.334
487.204
486.98
486.864
486.606
486.494
486.526
486.277
486.426
486.183
486.278
486.311
486.224
486.144
485.999
485.892
485.738
485.611
485.457
485.314
485.152
485.051
484.859
484.76
484.501
484.39
484.27
484.173
484.18
484.272
484.256
484.17
484.055
483.945
483.803
483.678
483.591
483.522
483.439
483.347
483.263
483.139
483.043
482.943
482.838
482.788
482.594
482.725
482.531
482.591
482.595
482.513
482.424
482.181
482.074
482.105
481.891
481.883
481.777
481.818
481.87
481.892
481.81
481.727
481.479
481.366
481.256
481.176
481.09
481.257
481.07
481.129
481.218
481.212
481.148
481.059
480.951
480.858
480.751
480.519
480.574
480.381
480.398
480.435
480.292
480.289
480.084
479.996
479.907
479.845
479.774
479.948
480.018
479.89
479.988
480.005
479.973
479.936
479.833
479.759
479.534
479.408
479.429
479.427
479.376
479.311
479.25
479.181
479.064
479.015
478.812
478.723
478.699
478.788
478.689
478.579
478.495
478.413
478.548
478.379
478.305
478.386
478.349
478.382
478.27
478.257
478.07
478.145
477.979
477.889
477.825
477.754
477.705
477.815
477.839
477.801
477.78
477.608
477.707
477.545
477.474
477.397
477.344
477.283
477.244
477.41
477.243
477.183
477.122
477.317
477.158
477.227
477.217
477.211
477.037
477.134
476.971
477.087
476.92
476.935
476.957
476.789
476.717
476.649
476.842
476.689
476.626
476.575
476.688
476.761
476.58
476.497
476.428
476.594
476.445
476.362
476.304
476.244
476.205
476.159
476.122
476.088
476.33
476.18
476.112
476.065
476.014
476.26
476.109
476.227
476.304
476.316
476.284
476.304
476.108
476.017
476.039
476.026
475.983
475.943
475.938
475.787
475.736
475.873
475.727
475.847
476.034
475.885
475.789
475.725
475.661
475.898
475.74
475.878
475.932
475.963
475.798
475.69
475.606
475.527
475.475
475.595
475.643
475.619
475.592
475.55
475.516
475.515
475.364
475.469
475.618
475.661
475.54
475.593
475.413
475.479
475.622
475.464
475.368
475.504
475.373
475.487
475.514
475.481
475.472
475.296
475.227
475.318
475.342
475.362
475.202
475.369
475.223
475.149
475.108
475.059
475.035
475.287
475.126
475.074
475.018
474.986
474.949
475.232
475.089
475.306
475.136
475.065
474.997
474.958
474.919
475.225
475.078
475.257
475.375
475.394
475.447
475.253
475.16
475.076
475.023
474.974
475.181
475.439
475.271
475.167
475.097
475.028
474.992
475.159
475.303
475.121
475.061
475.259
475.074
475.019
475.179
475.315
475.14
475.074
475.196
475.252
475.229
475.25
475.086
475.025
474.968
474.943
475.135
475.217
475.258
475.089
475.183
475.37
475.216
475.301
475.115
475.288
475.12
475.047
474.995
475.177
475.012
475.129
475.325
475.17
475.071
475.169
475.423
475.283
475.377
475.367
475.372
475.166
475.312
475.148
475.328
475.126
475.048
474.981
475.259
475.095
475.016
474.971
474.924
475.218
475.071
475.246
475.067
475.006
474.943
44.6073
64.5508
79.5841
91.6965
101.917
110.719
118.421
125.187
131.199
136.551
141.34
145.644
149.519
153.016
156.177
159.041
161.64
164.002
166.152
168.113
169.904
171.543
173.044
174.422
175.689
176.857
177.934
178.931
179.854
180.712
181.51
182.254
182.95
183.602
184.215
184.791
185.335
185.849
186.337
186.8
187.24
187.661
188.062
188.447
188.816
189.171
189.513
189.842
190.161
190.468
190.766
191.055
191.335
191.607
191.872
192.129
192.38
192.624
192.862
193.094
193.321
193.542
193.759
193.97
194.176
194.378
194.575
194.768
194.957
195.142
195.323
195.5
195.674
195.844
196.01
196.174
196.334
196.492
196.646
196.798
196.946
197.092
197.235
197.376
197.514
197.649
197.781
197.911
198.038
198.162
198.284
198.404
198.52
198.632
198.741
198.847
198.949
199.049
199.145
199.239
199.329
199.416
199.5
199.581
199.659
199.734
199.806
199.875
199.942
200.005
200.066
200.125
200.18
200.234
200.285
200.334
200.38
200.425
200.467
200.508
200.547
200.584
200.62
200.653
200.686
200.717
200.747
200.775
200.803
200.829
200.854
200.878
200.901
200.923
200.945
200.965
200.985
201.005
201.023
201.042
201.059
201.077
201.094
201.111
201.127
201.144
201.159
201.175
201.19
201.206
201.22
201.235
201.249
201.264
201.276
201.29
201.302
201.315
201.327
201.338
201.349
201.36
201.37
201.379
201.388
201.397
201.404
201.412
201.419
201.425
201.431
201.437
201.443
201.449
201.454
201.459
201.464
201.468
201.472
201.476
201.479
201.482
201.484
201.486
201.487
201.487
201.488
201.489
201.488
201.493
201.497
201.495
201.491
201.483
201.477
201.467
201.458
201.447
201.435
201.423
201.409
201.397
201.385
201.373
201.361
201.347
201.334
201.319
201.306
201.29
201.277
201.262
201.244
201.23
201.209
201.197
201.181
201.161
201.141
201.116
201.097
201.077
201.05
201.031
201.005
200.986
200.972
200.94
200.913
200.866
200.85
200.815
200.78
200.751
200.664
200.653
200.654
200.623
200.609
200.575
200.547
200.459
200.391
200.292
200.223
200.191
200.134
200.064
200.016
199.934
199.93
199.878
199.794
199.769
199.744
199.72
199.656
199.604
199.498
199.439
199.31
199.277
199.269
199.274
199.265
199.131
199.098
199.029
198.909
198.834
198.833
198.766
198.746
198.611
198.599
198.597
198.529
198.408
198.294
198.221
198.116
198.036
197.955
197.844
197.785
197.685
197.627
197.582
197.512
197.526
197.537
197.49
197.357
197.351
197.355
197.313
197.228
197.148
197.038
197
196.93
196.858
196.797
196.798
196.806
196.751
196.714
196.552
196.543
196.547
196.484
196.378
196.34
196.286
196.182
196.098
196.097
196.104
196.057
195.962
195.935
195.893
195.886
195.806
195.802
195.745
195.636
195.615
195.546
195.519
195.416
195.367
195.28
195.255
195.236
195.175
195.171
195.147
195.095
195.008
194.984
194.941
194.935
194.89
194.81
194.812
194.76
194.708
194.665
194.61
194.533
194.471
194.382
194.314
194.318
194.324
194.33
194.305
194.206
194.193
194.139
194.089
194.094
194.069
194.012
193.994
193.985
193.897
193.865
193.821
193.771
193.691
193.601
193.597
193.553
193.563
193.536
193.487
193.421
193.362
193.264
193.267
193.279
193.277
193.201
193.206
193.172
193.062
193.061
193.066
193.058
192.994
192.993
192.994
192.951
192.879
192.811
192.727
192.659
192.664
192.675
192.619
192.621
192.599
192.598
192.549
192.484
192.403
192.408
192.418
192.385
192.336
192.281
192.233
192.183
192.132
192.083
192.036
191.994
191.951
191.914
191.881
191.854
191.825
191.794
191.771
191.746
191.724
191.702
191.68
191.661
191.643
191.624
191.605
191.588
191.569
191.557
191.537
191.522
191.505
191.49
191.475
191.462
191.446
191.429
191.414
191.399
191.384
191.371
191.358
191.344
191.335
191.328
191.317
191.308
191.3
191.292
191.282
191.274
191.264
191.258
191.248
191.238
191.228
191.219
191.208
191.192
191.182
191.171
191.162
191.152
191.143
191.13
191.119
191.107
191.098
191.082
191.068
191.059
191.053
191.05
191.038
191.038
191.031
191.024
191.019
191.013
191.002
191.002
190.996
190.991
190.985
190.973
190.965
190.953
190.945
190.936
190.924
190.915
190.911
190.896
190.887
190.893
190.875
190.885
190.866
190.874
190.874
190.87
190.863
190.85
190.845
190.841
190.825
190.819
190.822
190.822
190.803
190.81
190.82
190.807
190.812
190.814
190.809
190.804
190.788
190.778
190.766
190.756
190.746
190.739
190.734
190.764
190.751
190.766
190.75
190.74
190.731
190.758
190.745
190.767
190.749
190.741
190.731
190.722
190.741
190.724
190.715
190.705
190.7
190.694
190.69
190.711
190.725
190.705
190.694
190.685
190.72
190.707
190.727
190.707
190.697
190.711
190.717
190.714
190.705
190.705
190.686
190.708
190.692
190.685
190.711
190.702
190.725
190.734
190.729
190.725
190.712
190.705
190.699
190.697
190.719
190.731
190.716
190.732
190.718
190.725
190.726
190.72
190.722
190.701
190.691
190.684
190.712
190.749
190.733
190.743
190.721
190.71
190.699
30.1875
32.4125
35.352
38.407
41.4325
44.3592
47.1592
49.8176
52.3333
54.7083
56.9473
59.0566
61.0427
62.912
64.6711
66.3262
67.8833
69.3481
70.7263
72.0228
73.2429
74.391
75.4716
76.489
77.4472
78.3499
79.2005
80.0026
80.7592
81.4732
82.1474
82.7845
83.3868
83.9568
84.4964
85.0078
85.4927
85.9531
86.3906
86.8067
87.2028
87.5805
87.9408
88.2851
88.6144
88.9297
89.2321
89.5224
89.8015
90.0702
90.3291
90.579
90.8205
91.0541
91.2805
91.5001
91.7134
91.9208
92.1228
92.3196
92.5117
92.6995
92.883
93.0628
93.2389
93.4118
93.5815
93.7483
93.9123
94.0739
94.233
94.39
94.5449
94.6979
94.8492
94.9989
95.147
95.2938
95.4393
95.5837
95.727
95.8695
96.011
96.1518
96.2918
96.4313
96.57
96.7084
96.8459
96.9833
97.1197
97.2562
97.3912
97.5247
97.6568
97.7875
97.9167
98.0444
98.1706
98.2953
98.4184
98.5399
98.6599
98.7782
98.8949
99.01
99.1234
99.2352
99.3453
99.4538
99.5606
99.6658
99.7694
99.8715
99.972
100.071
100.168
100.264
100.359
100.452
100.544
100.635
100.724
100.812
100.899
100.985
101.07
101.153
101.235
101.317
101.397
101.476
101.555
101.632
101.708
101.784
101.858
101.932
102.005
102.078
102.149
102.22
102.29
102.36
102.429
102.498
102.566
102.634
102.701
102.768
102.834
102.9
102.965
103.03
103.095
103.159
103.223
103.286
103.349
103.411
103.473
103.534
103.596
103.656
103.716
103.775
103.834
103.892
103.951
104.008
104.066
104.123
104.179
104.236
104.292
104.348
104.403
104.459
104.513
104.568
104.622
104.675
104.728
104.781
104.833
104.884
104.936
104.985
105.037
105.086
105.137
105.185
105.236
105.283
105.333
105.379
105.429
105.475
105.524
105.57
105.618
105.663
105.712
105.756
105.805
105.849
105.896
105.94
105.987
106.031
106.077
106.122
106.165
106.211
106.251
106.297
106.339
106.383
106.424
106.467
106.506
106.549
106.586
106.627
106.665
106.702
106.744
106.779
106.818
106.854
106.888
106.926
106.957
106.998
107.03
107.063
107.095
107.133
107.163
107.203
107.229
107.266
107.295
107.322
107.368
107.401
107.433
107.449
107.496
107.516
107.537
107.491
107.533
107.506
107.503
107.522
107.544
107.573
107.602
107.623
107.656
107.685
107.714
107.742
107.757
107.804
107.828
107.849
107.817
107.851
107.826
107.83
107.84
107.883
107.906
107.929
107.945
107.919
107.899
107.923
107.896
107.86
107.832
107.849
107.865
107.876
107.855
107.841
107.863
107.837
107.861
107.848
107.844
107.852
107.862
107.874
107.874
107.901
107.911
107.918
107.846
107.859
107.806
107.828
107.836
107.796
107.818
107.789
107.745
107.768
107.785
107.796
107.775
107.761
107.779
107.746
107.762
107.739
107.731
107.734
107.731
107.752
107.719
107.734
107.7
107.726
107.734
107.74
107.686
107.634
107.6
107.623
107.608
107.633
107.617
107.553
107.566
107.58
107.537
107.555
107.538
107.517
107.543
107.552
107.558
107.559
107.562
107.56
107.557
107.549
107.463
107.479
107.479
107.428
107.384
107.406
107.412
107.416
107.412
107.35
107.299
107.32
107.327
107.278
107.298
107.261
107.192
107.21
107.226
107.235
107.206
107.18
107.199
107.211
107.214
107.219
107.216
107.214
107.199
107.107
107.029
107.055
107.063
107.013
106.987
106.973
107.006
107.016
107.025
106.972
106.924
106.944
106.962
106.972
106.979
106.909
106.926
106.934
106.87
106.881
106.888
106.821
106.84
106.799
106.827
106.835
106.797
106.761
106.785
106.799
106.756
106.685
106.702
106.676
106.703
106.714
106.681
106.703
106.709
106.68
106.652
106.669
106.633
106.642
106.594
106.557
106.577
106.555
106.519
106.538
106.525
106.551
106.525
106.545
106.523
106.545
106.51
106.529
106.501
106.523
106.532
106.5
106.524
106.533
106.541
106.542
106.495
106.458
106.476
106.449
106.407
106.425
106.415
106.413
106.412
106.436
106.443
106.415
106.438
106.403
106.421
106.391
106.41
106.421
106.43
106.393
106.408
106.416
106.374
106.392
106.401
106.368
106.383
106.391
106.343
106.36
106.323
106.345
106.33
106.352
106.333
106.353
106.34
106.333
106.33
106.351
106.365
106.375
106.384
106.389
106.366
106.359
106.354
106.376
106.351
106.366
106.374
106.379
106.356
106.338
106.361
106.371
106.378
106.344
106.36
106.367
106.327
106.346
106.317
106.338
106.348
106.356
106.362
106.367
106.368
106.37
106.371
106.372
106.369
106.333
106.309
106.328
106.312
106.33
106.321
106.343
106.335
106.323
106.342
106.336
106.356
106.347
106.329
106.344
106.342
106.342
106.348
106.347
106.365
106.341
106.356
106.334
106.32
106.339
106.328
106.305
106.325
106.321
106.317
106.338
106.345
106.332
106.33
106.33
106.335
106.34
106.34
106.361
106.367
106.342
106.361
106.331
106.347
106.355
106.322
106.333
106.311
106.296
106.318
106.3
106.318
106.328
106.329
106.336
106.31
106.298
106.3
106.3
106.324
106.306
106.326
106.336
106.313
106.329
106.312
106.308
106.308
106.329
106.31
106.333
106.327
106.31
106.33
106.341
106.353
106.36
106.345
106.339
106.334
106.355
29.535
29.6526
29.9975
30.6053
31.3557
32.2012
33.1076
34.0484
35.0045
35.9621
36.9112
37.845
38.7585
39.6483
40.5121
41.3483
42.1561
42.935
43.6849
44.4059
45.0985
45.7631
46.4003
47.0108
47.5955
48.155
48.6903
49.2021
49.6914
50.159
50.6058
51.0326
51.4402
51.8295
52.2012
52.5562
52.8951
53.2187
53.5278
53.823
54.1049
54.3743
54.6317
54.8777
55.1129
55.3378
55.5529
55.7589
55.956
56.1449
56.3258
56.4994
56.6658
56.8256
56.9791
57.1267
57.2686
57.4052
57.5367
57.6636
57.7859
57.9041
58.0183
58.1287
58.2357
58.3393
58.4398
58.5374
58.6323
58.7247
58.8146
58.9023
58.988
59.0718
59.1538
59.2342
59.3132
59.3908
59.4673
59.5428
59.6174
59.6912
59.7643
59.837
59.9092
59.9811
60.0526
60.1241
60.1954
60.2666
60.3377
60.4089
60.48
60.5511
60.6222
60.6931
60.7639
60.8345
60.9049
60.9751
61.045
61.1145
61.1838
61.2526
61.3211
61.3891
61.4566
61.5238
61.5904
61.6565
61.7222
61.7873
61.852
61.9161
61.9797
62.0428
62.1054
62.1675
62.2292
62.2903
62.351
62.4112
62.471
62.5303
62.5892
62.6477
62.7057
62.7633
62.8205
62.8773
62.9335
62.9894
63.0448
63.0997
63.1542
63.2082
63.2619
63.3151
63.3678
63.4202
63.4722
63.5238
63.575
63.6259
63.6764
63.7267
63.7767
63.8265
63.8759
63.9253
63.9743
64.0234
64.0721
64.1207
64.1691
64.2174
64.2654
64.3134
64.361
64.4086
64.456
64.5032
64.5503
64.5971
64.644
64.6905
64.737
64.7833
64.8296
64.8757
64.9218
64.9679
65.0138
65.0599
65.1057
65.1517
65.1973
65.2431
65.2885
65.3341
65.3794
65.4247
65.4699
65.5147
65.5598
65.6044
65.6494
65.6937
65.7386
65.7827
65.8276
65.8717
65.9168
65.9608
66.0063
66.0503
66.0961
66.1401
66.1861
66.2302
66.2763
66.3206
66.3665
66.411
66.4568
66.5016
66.5474
66.5923
66.6379
66.6832
66.7285
66.7742
66.819
66.8651
66.9094
66.9554
66.9998
67.0462
67.0909
67.1373
67.1808
67.2255
67.2669
67.3087
67.3481
67.3875
67.4264
67.4651
67.5039
67.5426
67.5816
67.6213
67.6605
67.701
67.7405
67.7807
67.8198
67.8595
67.8979
67.9379
67.9752
68.0149
68.0523
68.0916
68.1284
68.1675
68.2043
68.244
68.2817
68.3229
68.3592
68.3992
68.436
68.4762
68.5129
68.5503
68.5886
68.6219
68.6611
68.6958
68.7333
68.7677
68.8088
68.8441
68.8864
68.9172
68.9577
68.9852
69.0219
69.0531
69.0814
69.1323
69.1667
69.2019
69.2189
69.2722
69.2769
69.3026
69.3237
69.2647
69.3127
69.2925
69.2703
69.2698
69.2893
69.3058
69.3334
69.3511
69.3839
69.4058
69.4411
69.4663
69.5057
69.531
69.572
69.5986
69.6392
69.6624
69.7146
69.7354
69.754
69.7556
69.7734
69.7559
69.7281
69.7236
69.7402
69.7589
69.7906
69.8089
69.8573
69.8777
69.8978
69.91
69.8616
69.8803
69.8637
69.8642
69.881
69.9122
69.9213
69.9694
69.9788
69.997
70.0167
70.038
70.0495
70.0932
70.1095
70.0897
70.0887
70.0962
70.1092
70.1208
70.1244
70.1548
70.1672
70.1412
70.1278
70.1218
70.1591
70.1745
70.19
70.1592
70.1223
70.1594
70.1464
70.1896
70.1619
70.1997
70.1876
70.1769
70.2166
70.2307
70.2429
70.2476
70.2029
70.18
70.1783
70.1798
70.1851
70.1911
70.1914
70.2167
70.1951
70.1556
70.1764
70.1639
70.1981
70.1715
70.2009
70.1818
70.218
70.2328
70.2008
70.2381
70.2533
70.2663
70.2062
70.2296
70.2383
70.2442
70.2038
70.1818
70.1868
70.1848
70.2219
70.2346
70.204
70.1943
70.1846
70.2164
70.2272
70.1922
70.1795
70.1689
70.2028
70.2159
70.2264
70.1672
70.1989
70.213
70.2217
70.1704
70.2045
70.212
70.1556
70.1887
70.2008
70.1663
70.142
70.173
70.1887
70.2029
70.2108
70.1799
70.1596
70.192
70.1582
70.1836
70.1534
70.1852
70.1965
70.2098
70.2169
70.2213
70.16
70.182
70.1583
70.1407
70.1731
70.1855
70.1621
70.1543
70.1592
70.1661
70.1754
70.1823
70.1886
70.1933
70.2034
70.1986
70.2316
70.2409
70.2493
70.2514
70.2518
70.1805
70.196
70.1569
70.1289
70.1619
70.1756
70.1472
70.1783
70.1361
70.1636
70.1325
70.165
70.1321
70.162
70.1446
70.1401
70.1385
70.1701
70.1375
70.1682
70.1836
70.1464
70.1289
70.1176
70.1454
70.1665
70.178
70.1531
70.1485
70.1427
70.173
70.1405
70.1635
70.1388
70.1229
70.1549
70.1277
70.1561
70.126
70.1544
70.1479
70.1497
70.1611
70.1614
70.1926
70.2029
70.2135
70.1742
70.1237
70.1537
70.1392
70.1774
70.1933
70.2101
70.2185
70.1742
70.2072
70.2165
70.2248
70.2262
70.185
70.1524
70.1871
70.1979
70.1573
70.1919
70.2013
70.1657
70.1365
70.1728
70.1453
70.0913
70.1236
70.1178
70.1028
70.1135
70.1298
70.1376
70.1786
70.1956
70.2116
70.2211
70.197
70.1804
70.2133
70.1979
70.1693
70.1997
70.189
70.2241
70.1953
70.2253
70.2374
70.2466
70.2259
70.2059
70.2355
70.1995
70.2184
70.2289
70.2342
70.1983
70.1855
70.1792
70.2142
70.1914
70.2181
70.2083
70.1985
70.2298
70.2416
70.2529
70.2571
70.2185
70.2024
70.1948
70.2281
70.2072
70.1706
70.197
70.216
70.2296
70.2402
70.1791
70.2059
70.2201
70.228
70.2363
70.2412
70.2487
70.2501
70.2062
70.188
70.1865
70.1936
70.2008
70.2114
70.2091
70.2417
70.2548
70.2078
70.231
70.2438
70.249
70.2117
70.1953
70.1929
70.2019
70.2002
70.2317
70.2422
70.2123
70.245
29.4893
29.3902
29.3405
29.3578
29.4265
29.5603
29.7593
30.0062
30.2916
30.6064
30.945
31.3011
31.6695
32.0461
32.4272
32.8099
33.1918
33.5709
33.9456
34.3147
34.6771
35.032
35.3788
35.717
36.0462
36.3662
36.6768
36.9779
37.2695
37.5517
37.8243
38.0877
38.3418
38.5869
38.8231
39.0506
39.2696
39.4803
39.683
39.8778
40.0651
40.2449
40.4176
40.5834
40.7425
40.8952
41.0416
41.182
41.3167
41.4457
41.5694
41.688
41.8016
41.9104
42.0147
42.1146
42.2103
42.302
42.3898
42.474
42.5546
42.6319
42.7059
42.7769
42.8449
42.9102
42.9727
43.0328
43.0904
43.1457
43.1989
43.25
43.2992
43.3465
43.3922
43.4362
43.4789
43.5201
43.5602
43.5991
43.6371
43.6742
43.7106
43.7463
43.7814
43.8161
43.8504
43.8843
43.918
43.9515
43.9849
44.018
44.051
44.0839
44.1166
44.1492
44.1817
44.2141
44.2463
44.2783
44.3101
44.3417
44.3731
44.4043
44.4352
44.466
44.4965
44.5268
44.5569
44.5868
44.6165
44.6461
44.6754
44.7045
44.7334
44.7621
44.7906
44.819
44.8473
44.8753
44.9033
44.9312
44.959
44.9868
45.0145
45.0421
45.0697
45.0972
45.1246
45.1519
45.1791
45.2062
45.2331
45.26
45.2867
45.3132
45.3396
45.3659
45.392
45.4178
45.4436
45.4691
45.4944
45.5195
45.5445
45.5694
45.5941
45.6186
45.6431
45.6675
45.6918
45.7161
45.7404
45.7646
45.7887
45.8128
45.8368
45.8607
45.8846
45.9084
45.9323
45.9562
45.9801
46.004
46.028
46.052
46.076
46.1002
46.1243
46.1486
46.1729
46.1973
46.2217
46.2463
46.2708
46.2955
46.3201
46.3449
46.3697
46.3946
46.4195
46.4445
46.4696
46.4946
46.5198
46.545
46.5703
46.5956
46.6211
46.6465
46.6722
46.6978
46.7238
46.7496
46.776
46.8021
46.8289
46.8553
46.8824
46.9091
46.9365
46.9636
46.9912
47.0186
47.0464
47.0742
47.1022
47.1302
47.1585
47.1868
47.2151
47.2435
47.2718
47.3005
47.3289
47.3578
47.3864
47.4157
47.4447
47.4744
47.5035
47.533
47.5617
47.5903
47.6184
47.6464
47.6744
47.7023
47.7303
47.7582
47.7867
47.815
47.8441
47.8728
47.9021
47.9307
47.9603
47.9894
48.0191
48.0486
48.0779
48.1081
48.1371
48.1681
48.1972
48.2282
48.2578
48.2892
48.3193
48.3511
48.3815
48.4136
48.4443
48.4765
48.5078
48.5387
48.5694
48.5983
48.6279
48.656
48.685
48.7122
48.7409
48.7683
48.7967
48.8234
48.8503
48.8765
48.9017
48.9271
48.9504
48.9769
48.9999
49.0246
49.0467
49.0696
49.0926
49.1142
49.1396
49.1611
49.1869
49.211
49.2352
49.2601
49.2853
49.3103
49.3354
49.3593
49.3835
49.4069
49.4309
49.4524
49.4743
49.4944
49.5163
49.5359
49.5578
49.5762
49.5959
49.6131
49.6324
49.6496
49.6696
49.6874
49.706
49.7239
49.7424
49.758
49.7747
49.7886
49.8062
49.8205
49.8372
49.8526
49.8685
49.8863
49.9055
49.9295
49.9483
49.9704
49.9891
50.0083
50.034
50.055
50.0782
50.1015
50.1246
50.145
50.1674
50.189
50.2022
50.2362
50.2362
50.2153
50.2424
50.2271
50.2403
50.2363
50.2561
50.2626
50.3007
50.3199
50.3116
50.3257
50.3473
50.3641
50.3802
50.393
50.3753
50.4067
50.3857
50.4104
50.4073
50.4035
50.434
50.4091
50.4311
50.4418
50.3914
50.4177
50.3964
50.3733
50.3674
50.3713
50.3811
50.3944
50.408
50.4257
50.4497
50.4658
50.491
50.5046
50.5409
50.5553
50.5381
50.5711
50.5848
50.5978
50.5654
50.5886
50.5615
50.5918
50.6039
50.5831
50.6125
50.5901
50.619
50.6034
50.592
50.5942
50.594
50.6125
50.634
50.647
50.6301
50.6566
50.6275
50.6554
50.6699
50.678
50.6605
50.6475
50.6814
50.6911
50.6743
50.6722
50.6665
50.6958
50.7073
50.694
50.6838
50.7121
50.6913
50.7185
50.6955
50.7214
50.7373
50.7267
50.7385
50.7105
50.6988
50.7044
50.7046
50.7385
50.7545
50.7336
50.7592
50.7297
50.7545
50.7688
50.778
50.7591
50.7459
50.774
50.7852
50.7649
50.7937
50.8037
50.8151
50.8237
50.8345
50.8403
50.8474
50.8291
50.7919
50.759
50.7589
50.7768
50.7622
50.7941
50.8071
50.8198
50.8324
50.8067
50.8244
50.801
50.7979
50.7933
50.8252
50.8354
50.8459
50.8083
50.8294
50.8138
50.8126
50.8111
50.8409
50.8503
50.8209
50.8446
50.8087
50.8335
50.8138
50.7988
50.7889
50.8143
50.8288
50.8268
50.8214
50.8512
50.8661
50.8706
50.8395
50.8611
50.8249
50.8442
50.8425
50.817
50.8053
50.8027
50.806
50.8013
50.8351
50.8288
50.8276
50.8525
50.8314
50.8563
50.8706
50.8791
50.8902
50.8967
50.8582
50.8867
50.8637
50.8289
50.8576
50.8746
50.8828
50.852
50.8826
50.8886
50.8486
50.8782
50.8835
50.8888
50.8906
50.8527
50.8222
50.8515
50.8607
50.8299
50.8561
50.8247
50.8505
50.8666
50.8514
50.8664
50.8358
50.813
50.8467
50.8624
50.8763
50.884
50.8943
50.9013
50.9124
50.916
50.8825
50.8723
50.8656
50.8975
50.9071
50.9176
50.9198
50.8858
50.8722
50.8662
50.8951
50.8668
50.8916
50.9045
50.8763
50.8603
50.8544
50.8636
50.8661
50.8982
50.873
50.898
50.8746
50.9043
50.9132
50.8965
50.8889
50.892
50.8872
50.915
50.9296
50.9414
50.9213
50.9077
50.9222
50.8814
50.8986
50.8658
50.8945
50.8589
50.8858
50.8981
50.9053
50.8766
50.9053
50.9154
50.9265
50.9309
50.8897
50.9169
50.9251
50.8993
50.8759
50.9027
50.8663
50.8921
50.8814
50.8506
50.868
50.8693
50.8689
50.902
29.489
29.373
29.2625
29.1666
29.0855
29.027
28.9878
28.9843
28.9958
29.0263
29.0833
29.159
29.251
29.3575
29.4758
29.6047
29.7421
29.8859
30.0352
30.1885
30.3447
30.5028
30.6619
30.8213
30.9802
31.1381
31.2945
31.449
31.6011
31.7507
31.8974
32.0411
32.1815
32.3185
32.452
32.582
32.7083
32.831
32.9499
33.0652
33.1767
33.2846
33.3889
33.4895
33.5866
33.6802
33.7703
33.857
33.9405
34.0206
34.0976
34.1715
34.2424
34.3103
34.3754
34.4376
34.4972
34.5541
34.6085
34.6604
34.7099
34.7571
34.8021
34.8449
34.8856
34.9243
34.9611
34.9959
35.029
35.0603
35.09
35.1181
35.1447
35.1698
35.1936
35.216
35.2373
35.2574
35.2765
35.2947
35.312
35.3285
35.3443
35.3595
35.3741
35.3881
35.4017
35.4149
35.4278
35.4403
35.4526
35.4645
35.476
35.4873
35.4984
35.5094
35.5206
35.5315
35.5422
35.5521
35.562
35.5723
35.5823
35.5924
35.6017
35.6111
35.6198
35.6288
35.6373
35.6462
35.6549
35.6641
35.6728
35.6811
35.6892
35.6972
35.7048
35.7124
35.7197
35.7266
35.7337
35.7409
35.7482
35.7559
35.7638
35.7718
35.7801
35.7878
35.7958
35.8039
35.8123
35.8207
35.8291
35.8377
35.8459
35.8545
35.8637
35.8724
35.8805
35.8889
35.8975
35.9049
35.9128
35.9202
35.9285
35.9363
35.9443
35.952
35.9599
35.9671
35.9747
35.9819
35.9896
35.9969
36.0047
36.0122
36.0195
36.0265
36.0335
36.0403
36.0473
36.054
36.0612
36.0681
36.0755
36.0827
36.0905
36.0983
36.1069
36.1158
36.1245
36.1333
36.1421
36.1505
36.1595
36.1679
36.1768
36.1855
36.1945
36.2039
36.2131
36.2219
36.2312
36.2401
36.2492
36.258
36.2671
36.276
36.2853
36.2945
36.304
36.314
36.3236
36.3335
36.344
36.3542
36.3644
36.375
36.3855
36.3962
36.4071
36.4179
36.4292
36.4404
36.4519
36.4637
36.4754
36.4876
36.4999
36.5121
36.5248
36.5371
36.5495
36.562
36.5745
36.5875
36.6001
36.6129
36.6258
36.6388
36.6522
36.6655
36.679
36.6927
36.7068
36.7209
36.7356
36.7504
36.7662
36.7815
36.7972
36.8127
36.8285
36.8441
36.8607
36.8766
36.8935
36.9104
36.9279
36.9447
36.9615
36.9788
36.9963
37.0148
37.0332
37.0526
37.0716
37.0909
37.1101
37.1293
37.1492
37.1697
37.1903
37.2116
37.2325
37.2526
37.272
37.2912
37.3106
37.3298
37.3499
37.3699
37.3904
37.4114
37.4318
37.4516
37.471
37.4909
37.5096
37.5297
37.5491
37.5699
37.5901
37.6105
37.6303
37.6496
37.6701
37.6909
37.7128
37.7349
37.7587
37.7832
37.8081
37.8325
37.8561
37.8799
37.9019
37.9239
37.9435
37.9627
37.9805
37.9986
38.0153
38.0314
38.0471
38.0637
38.0803
38.0977
38.1135
38.1304
38.1473
38.1643
38.1806
38.1966
38.2131
38.2286
38.2436
38.2573
38.2716
38.2837
38.2976
38.3098
38.3239
38.3356
38.3498
38.3618
38.376
38.3891
38.4031
38.4189
38.4313
38.4458
38.464
38.4801
38.4932
38.5074
38.5191
38.5354
38.5459
38.5665
38.5765
38.6003
38.6096
38.6175
38.6057
38.6233
38.6144
38.6123
38.6182
38.6285
38.6432
38.6588
38.6717
38.698
38.7117
38.7255
38.7364
38.748
38.755
38.7399
38.737
38.7341
38.7392
38.7471
38.7592
38.7719
38.7831
38.7949
38.8025
38.8262
38.821
38.838
38.8318
38.8324
38.8378
38.8449
38.8524
38.8655
38.8777
38.8944
38.9107
38.9122
38.9187
38.9247
38.932
38.9415
38.9497
38.9602
38.9691
38.977
38.9816
38.9947
39.0018
39.0055
39.0269
39.0342
39.0428
39.039
39.0178
39.0332
39.0232
39.0309
39.0357
39.0625
39.0736
39.0665
39.0659
39.0758
39.0779
39.0816
39.1045
39.1142
39.1247
39.1078
39.126
39.114
39.1079
39.1123
39.1242
39.1416
39.1529
39.1657
39.1732
39.1583
39.1783
39.1719
39.1958
39.2068
39.2165
39.1987
39.2136
39.2217
39.2005
39.2203
39.2298
39.2104
39.2269
39.2123
39.2342
39.2433
39.2326
39.2313
39.2346
39.2385
39.2583
39.2442
39.2617
39.2516
39.2747
39.2851
39.2952
39.301
39.2792
39.2988
39.2762
39.287
39.2931
39.2968
39.2814
39.2624
39.2626
39.2829
39.2944
39.2883
39.2917
39.2927
39.314
39.3214
39.3294
39.3031
39.3236
39.3162
39.2982
39.3145
39.3101
39.3308
39.3401
39.3309
39.3256
39.3308
39.3268
39.3485
39.3547
39.3585
39.3309
39.302
39.3212
39.3179
39.3139
39.3363
39.3453
39.3317
39.3205
39.342
39.3281
39.3061
39.3268
39.3395
39.3479
39.3552
39.3424
39.3515
39.359
39.3624
39.3308
39.3452
39.3563
39.3616
39.345
39.3303
39.3555
39.3656
39.3457
39.3685
39.3509
39.327
39.346
39.3388
39.3612
39.3403
39.3587
39.3427
39.3606
39.3467
39.3214
39.3427
39.3359
39.3335
39.3379
39.3383
39.361
39.3667
39.3485
39.3404
39.3335
39.3575
39.3651
39.3713
39.3364
39.3515
39.3618
39.367
39.3475
39.3402
39.3433
39.3436
39.3686
39.3592
39.3399
39.3607
39.3713
39.3542
39.3717
39.3589
39.3496
39.3721
39.3808
39.3636
39.3849
39.3569
39.3756
39.384
39.3537
39.3685
39.3752
39.3783
39.3566
39.3499
39.3533
39.3532
39.3748
39.3837
39.3628
39.3856
39.3908
39.395
39.3601
39.3776
39.3581
39.3812
39.3638
39.3359
39.3574
39.369
39.3457
39.3602
39.3695
39.3422
39.3627
39.3534
39.3501
39.3528
39.3586
39.3581
39.3793
39.3586
39.3756
39.3654
39.3552
39.3783
39.3844
39.3921
39.3949
39.3996
39.4002
39.3571
39.3755
39.3643
39.3552
39.379
29.4891
29.3724
29.2566
29.1438
29.0343
28.9309
28.8335
28.7461
28.6684
28.6002
28.5429
28.4969
28.4615
28.4372
28.4216
28.4181
28.4213
28.4304
28.4487
28.4733
28.5036
28.5388
28.5784
28.6218
28.6683
28.7176
28.769
28.8222
28.8768
28.9324
28.9887
29.0455
29.1023
29.1592
29.2157
29.2717
29.3271
29.3818
29.4355
29.4882
29.5397
29.5901
29.6393
29.6871
29.7335
29.7785
29.8221
29.8642
29.9048
29.9439
29.9815
30.0176
30.0522
30.0853
30.1169
30.147
30.1757
30.203
30.2288
30.2532
30.2762
30.2979
30.3183
30.3374
30.3552
30.3718
30.3872
30.4014
30.4144
30.4263
30.4372
30.447
30.4558
30.4636
30.4705
30.4766
30.4817
30.4862
30.4898
30.4929
30.4952
30.4971
30.4986
30.4981
30.4985
30.4963
30.4962
30.4951
30.4939
30.4922
30.4896
30.4862
30.4821
30.4788
30.4715
30.4679
30.4692
30.4654
30.4636
30.4539
30.4493
30.4508
30.45
30.4476
30.4436
30.4385
30.4315
30.4267
30.4153
30.4102
30.4053
30.4104