/*--------------------------------*- C++ -*----------------------------------*\
  =========                 |
  \\      /  F ield         | OpenFOAM: The Open Source CFD Toolbox
   \\    /   O peration     | Website:  https://openfoam.org
    \\  /    A nd           | Version:  7
     \\/     M anipulation  |
\*---------------------------------------------------------------------------*/
FoamFile
{
    version     2.0;
    format      ascii;
    class       volScalarField;
    location    "100";
    object      p;
}
// * * * * * * * * * * * * * * * * * * * * * * * * * * * * * * * * * * * * * //

dimensions      [0 2 -2 0 0 0 0];

internalField   nonuniform List<scalar> 
36000
(
0.291678
0.278709
0.268572
0.263824
0.260952
0.258071
0.2553
0.25297
0.251029
0.249312
0.247748
0.246321
0.245003
0.243766
0.242599
0.241506
0.24048
0.239505
0.238564
0.237651
0.236769
0.235922
0.235109
0.234322
0.233556
0.232805
0.232068
0.231347
0.230641
0.229951
0.229277
0.228614
0.227963
0.22732
0.226686
0.226059
0.225439
0.224827
0.224222
0.223625
0.223035
0.22245
0.221871
0.221296
0.220726
0.220159
0.219597
0.219039
0.218484
0.217933
0.217386
0.216842
0.216301
0.215764
0.215228
0.214695
0.214164
0.213636
0.213111
0.212588
0.212067
0.211548
0.21103
0.210514
0.210001
0.20949
0.20898
0.208472
0.207966
0.207461
0.206957
0.206455
0.205955
0.205456
0.204959
0.204463
0.203968
0.203475
0.202983
0.202492
0.202002
0.201514
0.201026
0.20054
0.200056
0.199572
0.19909
0.198609
0.198129
0.197652
0.197178
0.196708
0.196238
0.195766
0.195291
0.194815
0.194338
0.193862
0.193385
0.192908
0.192431
0.191955
0.191479
0.191005
0.190531
0.190057
0.189584
0.189111
0.188639
0.188169
0.1877
0.187232
0.186764
0.186297
0.185831
0.185366
0.184902
0.18444
0.183979
0.183518
0.183058
0.182599
0.182141
0.181684
0.181229
0.180774
0.18032
0.179867
0.179415
0.178964
0.178514
0.178065
0.177617
0.177169
0.176722
0.176277
0.175832
0.175389
0.174946
0.174503
0.174061
0.173621
0.173182
0.172743
0.172304
0.171866
0.171429
0.170993
0.170558
0.170123
0.169689
0.169255
0.168822
0.16839
0.167958
0.167528
0.167097
0.166667
0.166237
0.165808
0.16538
0.164953
0.164526
0.1641
0.163674
0.163249
0.162824
0.1624
0.161976
0.161553
0.16113
0.160708
0.160287
0.159867
0.159447
0.159027
0.158607
0.158188
0.157769
0.157352
0.156935
0.156519
0.156103
0.155687
0.155272
0.154858
0.154444
0.154031
0.153617
0.153205
0.152793
0.152382
0.151971
0.151561
0.151151
0.150741
0.150332
0.149924
0.149516
0.149108
0.148701
0.148295
0.147889
0.147484
0.147079
0.146674
0.14627
0.145867
0.145465
0.145062
0.144659
0.144257
0.143855
0.143454
0.143054
0.142654
0.142253
0.141854
0.141454
0.141056
0.140658
0.14026
0.139861
0.139463
0.139065
0.138667
0.13827
0.137872
0.137475
0.137078
0.136681
0.136286
0.13589
0.135494
0.1351
0.134706
0.134313
0.13392
0.133528
0.133134
0.132742
0.13235
0.131959
0.131568
0.131177
0.130786
0.130398
0.130011
0.129625
0.12924
0.128855
0.128471
0.128086
0.127701
0.127317
0.126933
0.126549
0.126166
0.125784
0.125401
0.125019
0.124636
0.124254
0.123872
0.123492
0.123111
0.122731
0.122351
0.121971
0.121591
0.121211
0.12083
0.12045
0.120071
0.119691
0.119311
0.11893
0.118549
0.118169
0.11779
0.117414
0.11704
0.116667
0.116293
0.115918
0.115545
0.115173
0.114802
0.11443
0.114057
0.113684
0.113309
0.112935
0.112562
0.112188
0.111815
0.111444
0.111073
0.110701
0.110329
0.109957
0.109584
0.109211
0.108838
0.108465
0.108094
0.107723
0.107353
0.106983
0.106613
0.106242
0.105873
0.105505
0.105138
0.104771
0.104404
0.104037
0.10367
0.103302
0.102934
0.102566
0.102198
0.10183
0.101462
0.101095
0.100728
0.10036
0.0999933
0.0996265
0.0992605
0.0988944
0.0985283
0.098162
0.0977955
0.0974292
0.0970636
0.0966984
0.0963334
0.0959684
0.0956034
0.0952387
0.0948743
0.0945101
0.0941458
0.0937816
0.0934184
0.0930557
0.092693
0.0923302
0.0919669
0.0916027
0.0912387
0.0908753
0.0905121
0.0901493
0.0897871
0.0894251
0.0890637
0.0887028
0.0883418
0.0879802
0.0876181
0.0872566
0.086896
0.0865349
0.0861732
0.0858118
0.0854508
0.0850905
0.0847308
0.0843708
0.0840102
0.0836495
0.0832887
0.0829282
0.0825682
0.0822087
0.0818491
0.0814889
0.0811286
0.0807682
0.0804084
0.0800496
0.0796913
0.079333
0.0789746
0.0786165
0.0782583
0.0778998
0.0775408
0.0771813
0.0768215
0.0764616
0.076102
0.0757429
0.0753841
0.0750254
0.0746663
0.0743067
0.0739474
0.0735891
0.0732315
0.0728734
0.0725148
0.0721563
0.0717973
0.0714377
0.0710781
0.0707188
0.0703595
0.0699993
0.0696387
0.0692782
0.0689183
0.0685587
0.0681993
0.0678396
0.0674792
0.067118
0.0667569
0.0663961
0.0660357
0.0656758
0.065316
0.0649562
0.0645962
0.064236
0.0638755
0.0635154
0.0631558
0.0627962
0.0624368
0.0620774
0.061718
0.0613585
0.0609984
0.0606375
0.0602766
0.059916
0.0595552
0.0591938
0.0588321
0.0584702
0.0581079
0.057746
0.0573835
0.0570202
0.056657
0.0562939
0.0559306
0.0555671
0.0552038
0.0548403
0.0544763
0.0541125
0.0537492
0.0533868
0.0530242
0.0526607
0.0522961
0.0519313
0.0515665
0.0512008
0.0508342
0.0504669
0.0500991
0.0497318
0.0493646
0.0489977
0.0486311
0.048265
0.0478986
0.0475313
0.0471637
0.0467955
0.046427
0.0460589
0.0456911
0.0453233
0.0449553
0.0445868
0.044218
0.0438489
0.0434804
0.0431123
0.0427441
0.0423755
0.0420063
0.0416361
0.0412653
0.040895
0.0405251
0.0401549
0.0397846
0.0394143
0.039044
0.0386736
0.0383028
0.0379315
0.0375601
0.0371888
0.0368176
0.0364462
0.0360748
0.0357034
0.035332
0.034961
0.03459
0.0342182
0.033846
0.0334735
0.0331008
0.0327281
0.032356
0.0319839
0.0316113
0.0312387
0.0308662
0.0304936
0.0301216
0.0297502
0.0293785
0.0290059
0.0286326
0.028259
0.0278854
0.0275124
0.0271402
0.0267684
0.0263959
0.0260226
0.0256493
0.0252759
0.0249022
0.0245285
0.0241542
0.0237794
0.0234051
0.0230313
0.0226576
0.0222836
0.0219089
0.0215336
0.0211581
0.0207829
0.0204087
0.0200351
0.0196617
0.019288
0.018914
0.0185399
0.0181657
0.0177917
0.0174183
0.017045
0.0166715
0.0162984
0.0159253
0.0155517
0.0151782
0.0148049
0.014431
0.0140566
0.0136823
0.0133081
0.0129336
0.0125587
0.0121834
0.0118078
0.0114323
0.0110572
0.0106822
0.0103073
0.00993314
0.00955936
0.00918554
0.00881094
0.00843507
0.00805917
0.00768397
0.00730949
0.00693518
0.0065605
0.00618566
0.00581059
0.00543523
0.00505966
0.0046843
0.00431018
0.00393659
0.00356258
0.00318837
0.00281381
0.00243925
0.00206504
0.00169157
0.00131792
0.000942632
0.000567422
0.000191371
0.272125
0.267486
0.26319
0.260661
0.258792
0.256832
0.254859
0.253068
0.251456
0.249955
0.248539
0.247203
0.245934
0.244723
0.24357
0.242478
0.241439
0.240439
0.23947
0.238531
0.237626
0.236755
0.235916
0.235102
0.234307
0.233529
0.232768
0.232023
0.231297
0.230588
0.229893
0.229211
0.228541
0.227881
0.227229
0.226586
0.225952
0.225326
0.224708
0.224098
0.223495
0.222899
0.222308
0.221722
0.221141
0.220565
0.219992
0.219425
0.218862
0.218303
0.217747
0.217195
0.216647
0.216101
0.215559
0.215019
0.214482
0.213948
0.213415
0.212886
0.21236
0.211835
0.211312
0.210791
0.210272
0.209756
0.209242
0.208729
0.208218
0.207708
0.207201
0.206695
0.20619
0.205687
0.205186
0.204686
0.204188
0.203691
0.203195
0.202701
0.202208
0.201717
0.201226
0.200737
0.200249
0.199763
0.199278
0.198794
0.198312
0.19783
0.19735
0.196869
0.196389
0.195909
0.19543
0.194952
0.194473
0.193995
0.193517
0.19304
0.192562
0.192085
0.191609
0.191134
0.19066
0.190186
0.189712
0.18924
0.188768
0.188297
0.187827
0.187358
0.186891
0.186423
0.185956
0.18549
0.185026
0.184563
0.184101
0.18364
0.183178
0.182718
0.182259
0.181802
0.181345
0.180889
0.180434
0.17998
0.179527
0.179075
0.178623
0.178173
0.177724
0.177276
0.176828
0.17638
0.175935
0.17549
0.175047
0.174603
0.17416
0.173718
0.173278
0.172838
0.172399
0.17196
0.171522
0.171084
0.170648
0.170212
0.169778
0.169343
0.168909
0.168476
0.168044
0.167612
0.167181
0.16675
0.16632
0.165891
0.165462
0.165034
0.164606
0.16418
0.163754
0.163327
0.162902
0.162477
0.162053
0.16163
0.161207
0.160784
0.160362
0.159941
0.159521
0.159101
0.15868
0.15826
0.157842
0.157424
0.157007
0.15659
0.156174
0.155758
0.155342
0.154928
0.154513
0.154099
0.153685
0.153273
0.15286
0.152449
0.152038
0.151627
0.151217
0.150807
0.150398
0.149989
0.149581
0.149174
0.148766
0.148359
0.147953
0.147547
0.147142
0.146737
0.146333
0.145928
0.145524
0.145121
0.144719
0.144317
0.143915
0.143514
0.143113
0.142713
0.142313
0.141913
0.141512
0.141112
0.140713
0.140315
0.139917
0.139518
0.139119
0.138722
0.138326
0.137929
0.137531
0.137134
0.136738
0.136342
0.135948
0.135553
0.135157
0.134762
0.134369
0.133977
0.133584
0.13319
0.132797
0.132406
0.132017
0.131627
0.131236
0.130844
0.130453
0.130065
0.12968
0.129295
0.12891
0.128525
0.128141
0.127757
0.127372
0.126988
0.126604
0.126221
0.125838
0.125455
0.125072
0.124688
0.124305
0.123923
0.123541
0.12316
0.12278
0.122399
0.122018
0.121637
0.121255
0.120874
0.120494
0.120115
0.119737
0.119357
0.118975
0.118593
0.11821
0.117829
0.117453
0.117081
0.11671
0.116339
0.115964
0.115589
0.115216
0.114844
0.114471
0.114098
0.113723
0.113347
0.112973
0.112599
0.112224
0.11185
0.111479
0.111108
0.110737
0.110365
0.109992
0.109619
0.109245
0.108872
0.108499
0.108127
0.107756
0.107386
0.107017
0.106647
0.106275
0.105905
0.105537
0.10517
0.104803
0.104436
0.104068
0.1037
0.103332
0.102964
0.102596
0.102227
0.101859
0.101491
0.101124
0.100756
0.100388
0.10002
0.0996535
0.0992871
0.0989208
0.098555
0.0981884
0.0978206
0.0974537
0.0970885
0.0967238
0.0963591
0.0959942
0.0956288
0.0952637
0.0948991
0.0945349
0.0941708
0.093807
0.0934432
0.0930794
0.0927164
0.0923541
0.0919905
0.0916253
0.0912603
0.0908973
0.0905351
0.0901728
0.0898102
0.0894474
0.0890856
0.0887251
0.0883644
0.0880023
0.0876397
0.0872777
0.0869161
0.0865553
0.0861945
0.0858335
0.0854724
0.0851112
0.0847505
0.0843908
0.0840311
0.0836701
0.0833082
0.0829479
0.0825887
0.0822292
0.0818695
0.0815093
0.0811487
0.0807888
0.0804293
0.0800702
0.0797116
0.079353
0.0789942
0.0786359
0.0782776
0.0779183
0.0775587
0.0771991
0.0768391
0.0764784
0.0761182
0.0757591
0.0754007
0.0750422
0.074683
0.0743238
0.0739652
0.0736075
0.0732495
0.0728907
0.0725316
0.0721724
0.0718133
0.0714543
0.0710948
0.0707345
0.0703743
0.0700147
0.0696549
0.0692947
0.0689347
0.0685748
0.0682151
0.0678553
0.067495
0.067134
0.066773
0.0664119
0.0660509
0.0656908
0.0653312
0.0649712
0.0646108
0.064251
0.0638913
0.0635313
0.0631711
0.0628111
0.062451
0.0620906
0.0617306
0.061371
0.0610103
0.0606491
0.0602882
0.0599275
0.0595667
0.0592057
0.0588437
0.0584811
0.0581186
0.0577562
0.0573934
0.0570306
0.0566677
0.0563046
0.0559413
0.0555778
0.0552143
0.0548508
0.054487
0.0541238
0.0537608
0.0533973
0.0530335
0.0526692
0.0523046
0.0519399
0.0515745
0.0512084
0.0508418
0.0504747
0.0501069
0.0497391
0.0493714
0.0490041
0.0486372
0.0482707
0.0479043
0.0475375
0.0471697
0.0468016
0.046434
0.0460667
0.045699
0.0453308
0.0449624
0.0445943
0.0442266
0.0438583
0.0434889
0.0431193
0.0427502
0.042381
0.0420116
0.041642
0.0412718
0.0409012
0.0405309
0.0401607
0.0397896
0.0394182
0.0390473
0.0386769
0.0383063
0.0379354
0.0375645
0.0371937
0.0368225
0.0364502
0.0360779
0.0357066
0.0353352
0.0349632
0.0345913
0.0342199
0.0338483
0.0334762
0.0331039
0.032732
0.0323599
0.0319872
0.0316147
0.0312422
0.0308696
0.0304975
0.0301259
0.0297539
0.0293817
0.0290091
0.0286357
0.028262
0.0278886
0.0275158
0.0271432
0.0267704
0.0263979
0.0260255
0.0256525
0.0252785
0.024904
0.0245299
0.024156
0.0237814
0.0234063
0.0230318
0.022658
0.0222843
0.0219098
0.0215348
0.0211603
0.0207863
0.0204122
0.0200383
0.0196647
0.0192908
0.018916
0.0185414
0.0181672
0.0177933
0.0174197
0.0170462
0.0166723
0.0162979
0.0159236
0.0155504
0.0151776
0.0148037
0.0144291
0.0140545
0.0136802
0.0133062
0.0129322
0.0125572
0.0121815
0.0118063
0.0114315
0.0110567
0.0106819
0.0103078
0.0099339
0.00956003
0.00918603
0.00881134
0.0084361
0.00806099
0.00768571
0.00731017
0.006935
0.00656069
0.00618615
0.00581095
0.00543611
0.00506169
0.00468705
0.00431234
0.00393776
0.00356352
0.00318947
0.00281521
0.00244102
0.00206725
0.0016933
0.00131905
0.000944479
0.00057018
0.000191475
0.26467
0.264106
0.262302
0.260206
0.25828
0.256413
0.25457
0.252823
0.251205
0.249701
0.248292
0.246964
0.245709
0.244521
0.243397
0.242332
0.241313
0.240331
0.239383
0.23847
0.237592
0.236746
0.235925
0.235125
0.234343
0.233578
0.232831
0.2321
0.231386
0.230688
0.230002
0.229327
0.228662
0.228006
0.227359
0.226719
0.226089
0.225467
0.224852
0.224244
0.223643
0.223047
0.222457
0.221871
0.22129
0.220713
0.22014
0.219572
0.219009
0.218449
0.217892
0.217339
0.21679
0.216243
0.215699
0.215158
0.21462
0.214084
0.21355
0.213019
0.212491
0.211965
0.21144
0.210918
0.210398
0.20988
0.209364
0.20885
0.208337
0.207826
0.207317
0.206809
0.206303
0.205798
0.205296
0.204794
0.204294
0.203795
0.203298
0.202802
0.202308
0.201815
0.201323
0.200832
0.200344
0.199856
0.199369
0.198884
0.198399
0.197916
0.197433
0.196949
0.196466
0.195984
0.195505
0.195026
0.194547
0.194068
0.193591
0.193113
0.192636
0.192159
0.191683
0.191208
0.190733
0.190259
0.189786
0.189313
0.188842
0.18837
0.1879
0.187431
0.186964
0.186496
0.186029
0.185563
0.185098
0.184635
0.184173
0.183712
0.18325
0.182789
0.18233
0.181873
0.181416
0.180959
0.180504
0.18005
0.179597
0.179144
0.178691
0.178241
0.177792
0.177343
0.176894
0.176446
0.176
0.175555
0.175111
0.174667
0.174223
0.17378
0.173339
0.172899
0.172459
0.172019
0.171581
0.171143
0.170706
0.17027
0.169835
0.1694
0.168965
0.168531
0.168099
0.167667
0.167234
0.166803
0.166373
0.165944
0.165515
0.165086
0.164658
0.164232
0.163805
0.163378
0.162952
0.162527
0.162103
0.16168
0.161256
0.160834
0.160411
0.159989
0.159569
0.159149
0.158728
0.158308
0.157889
0.157472
0.157054
0.156637
0.156221
0.155804
0.155388
0.154973
0.154558
0.154144
0.15373
0.153317
0.152905
0.152494
0.152083
0.151671
0.151261
0.150851
0.150441
0.150032
0.149624
0.149216
0.148809
0.148402
0.147996
0.147589
0.147183
0.146779
0.146374
0.145969
0.145565
0.145162
0.14476
0.144358
0.143955
0.143553
0.143152
0.142752
0.142351
0.141951
0.14155
0.14115
0.14075
0.140352
0.139954
0.139554
0.139155
0.138759
0.138363
0.137966
0.137568
0.137171
0.136775
0.136381
0.135988
0.135593
0.135197
0.134802
0.134409
0.134017
0.133624
0.133231
0.13284
0.13245
0.132061
0.131672
0.131282
0.130892
0.130501
0.130111
0.129723
0.129338
0.128953
0.128567
0.128182
0.127799
0.127415
0.12703
0.126646
0.126263
0.12588
0.125499
0.125116
0.124731
0.124348
0.123966
0.123586
0.123204
0.122822
0.122441
0.12206
0.12168
0.1213
0.12092
0.12054
0.120159
0.119779
0.119398
0.119016
0.118636
0.118255
0.117874
0.117495
0.117121
0.11675
0.116381
0.11601
0.115635
0.115261
0.114888
0.114514
0.114138
0.113762
0.113384
0.113008
0.112632
0.112258
0.111885
0.111515
0.111144
0.110773
0.1104
0.110026
0.109652
0.10928
0.108906
0.108533
0.10816
0.107789
0.107419
0.10705
0.106679
0.106308
0.105939
0.10557
0.105203
0.104837
0.104469
0.1041
0.103731
0.103363
0.102995
0.102627
0.102258
0.10189
0.101523
0.101154
0.100786
0.100418
0.10005
0.0996826
0.0993152
0.0989483
0.0985816
0.0982137
0.0978452
0.0974782
0.0971136
0.0967499
0.0963865
0.0960214
0.0956544
0.0952884
0.0949249
0.0945623
0.0941987
0.0938347
0.0934706
0.0931061
0.0927424
0.0923794
0.0920146
0.091648
0.0912826
0.0909194
0.0905574
0.0901952
0.0898329
0.0894705
0.0891088
0.0887479
0.0883866
0.0880242
0.0876618
0.0873
0.0869382
0.0865773
0.0862176
0.0858576
0.0854961
0.0851337
0.084772
0.0844118
0.084052
0.0836909
0.0833292
0.0829696
0.0826112
0.082252
0.0818918
0.0815306
0.0811701
0.0808109
0.0804517
0.0800918
0.0797318
0.0793728
0.0790147
0.0786563
0.0782971
0.0779374
0.0775777
0.0772175
0.0768564
0.0764954
0.0761356
0.075777
0.0754184
0.0750594
0.0747002
0.074341
0.073983
0.0736251
0.0732665
0.0729076
0.0725485
0.0721888
0.0718296
0.0714706
0.0711105
0.0707499
0.0703899
0.0700312
0.0696719
0.0693113
0.0689512
0.0685922
0.0682328
0.0678722
0.0675114
0.0671502
0.066789
0.066428
0.0660673
0.0657074
0.0653475
0.0649867
0.064626
0.0642659
0.0639063
0.0635466
0.0631864
0.062826
0.0624654
0.062105
0.0617454
0.0613859
0.0610254
0.0606642
0.0603029
0.0599416
0.05958
0.0592186
0.0588563
0.0584931
0.0581304
0.0577674
0.0574041
0.0570416
0.0566789
0.0563157
0.0559527
0.0555896
0.0552257
0.0548621
0.0544988
0.0541353
0.0537712
0.0534064
0.0530418
0.0526773
0.0523121
0.0519464
0.0515799
0.0512132
0.050847
0.0504811
0.0501147
0.0497475
0.0493798
0.0490119
0.0486446
0.0482781
0.0479115
0.0475443
0.0471763
0.0468086
0.0464417
0.0460743
0.0457062
0.0453376
0.0449691
0.044601
0.0442334
0.0438653
0.0434955
0.0431254
0.0427558
0.0423864
0.0420166
0.0416467
0.041277
0.0409066
0.0405357
0.040165
0.0397939
0.0394225
0.0390522
0.0386822
0.0383113
0.0379396
0.0375683
0.0371975
0.0368259
0.0364537
0.0360818
0.0357106
0.035339
0.0349663
0.0345939
0.0342222
0.0338503
0.033478
0.033106
0.0327345
0.0323622
0.0319898
0.0316184
0.0312464
0.030873
0.0305004
0.0301287
0.0297564
0.029384
0.0290116
0.0286384
0.0282653
0.0278928
0.0275205
0.0271477
0.026774
0.0264006
0.0260277
0.025654
0.0252797
0.0249055
0.0245313
0.0241572
0.0237828
0.0234075
0.0230326
0.022659
0.0222851
0.0219103
0.0215355
0.0211615
0.0207881
0.0204146
0.0200408
0.0196671
0.0192932
0.0189189
0.0185444
0.01817
0.0177957
0.0174217
0.0170477
0.0166734
0.0162984
0.0159236
0.0155503
0.0151774
0.0148033
0.0144284
0.0140539
0.0136799
0.0133061
0.0129316
0.0125558
0.0121797
0.0118047
0.0114305
0.0110562
0.0106817
0.0103077
0.0099337
0.0095596
0.00918521
0.00881009
0.00843568
0.0080619
0.00768694
0.00731082
0.00693528
0.00656109
0.00618671
0.00581154
0.00543671
0.00506251
0.00468798
0.00431281
0.00393806
0.00356419
0.00318974
0.00281503
0.00244151
0.00206834
0.00169451
0.00132032
0.000945583
0.000572489
0.000192788
0.261161
0.260797
0.259465
0.257762
0.256165
0.254652
0.253152
0.251691
0.250303
0.248989
0.247739
0.246544
0.2454
0.244306
0.24326
0.242254
0.24128
0.240337
0.239426
0.238546
0.237695
0.236866
0.236058
0.235267
0.234493
0.233736
0.232997
0.232273
0.231565
0.230869
0.230183
0.229508
0.228842
0.228185
0.227537
0.226897
0.226266
0.225643
0.225027
0.224417
0.223814
0.223215
0.222622
0.222033
0.221449
0.22087
0.220296
0.219725
0.219159
0.218597
0.218038
0.217482
0.21693
0.216381
0.215834
0.215291
0.21475
0.214212
0.213676
0.213143
0.212613
0.212084
0.211557
0.211033
0.210511
0.209991
0.209473
0.208956
0.208442
0.207929
0.207418
0.206908
0.2064
0.205894
0.20539
0.204886
0.204385
0.203884
0.203385
0.202888
0.202392
0.201898
0.201404
0.200912
0.200422
0.199932
0.199444
0.198956
0.198471
0.197986
0.197502
0.197018
0.196535
0.196054
0.195573
0.195093
0.194613
0.194134
0.193656
0.193178
0.1927
0.192223
0.191747
0.191272
0.190798
0.190324
0.189851
0.189378
0.188907
0.188436
0.187966
0.187498
0.18703
0.186563
0.186096
0.18563
0.185166
0.184703
0.18424
0.183778
0.183317
0.182856
0.182398
0.18194
0.181483
0.181026
0.18057
0.180116
0.179663
0.179209
0.178757
0.178306
0.177856
0.177407
0.176958
0.176509
0.176063
0.175618
0.175172
0.174727
0.174283
0.17384
0.173399
0.172958
0.172517
0.172076
0.171637
0.171199
0.170761
0.170325
0.169889
0.169453
0.169017
0.168583
0.16815
0.167717
0.167285
0.166853
0.166423
0.165993
0.165563
0.165134
0.164706
0.164278
0.163851
0.163424
0.162998
0.162573
0.162149
0.161725
0.161301
0.160878
0.160455
0.160033
0.159612
0.159191
0.15877
0.158351
0.157932
0.157514
0.157096
0.156678
0.156261
0.155845
0.155428
0.155013
0.154598
0.154184
0.15377
0.153357
0.152944
0.152532
0.152121
0.151709
0.151298
0.150888
0.150478
0.150069
0.14966
0.149252
0.148844
0.148437
0.148031
0.147624
0.147218
0.146813
0.146408
0.146003
0.145599
0.145196
0.144793
0.14439
0.143987
0.143585
0.143184
0.142783
0.142382
0.141981
0.141581
0.141182
0.140782
0.140383
0.139984
0.139585
0.139187
0.13879
0.138394
0.137997
0.1376
0.137203
0.136808
0.136414
0.13602
0.135625
0.13523
0.134836
0.134443
0.13405
0.133658
0.133267
0.132877
0.132486
0.132094
0.131703
0.131316
0.130929
0.13054
0.130151
0.129762
0.129375
0.128989
0.128602
0.128218
0.127834
0.12745
0.127067
0.126683
0.1263
0.125917
0.125534
0.125152
0.124769
0.124387
0.124005
0.123623
0.123241
0.122859
0.122477
0.122096
0.121718
0.12134
0.120961
0.120581
0.120199
0.119818
0.119436
0.119057
0.118683
0.118308
0.117929
0.117547
0.117168
0.116792
0.116419
0.116046
0.115672
0.115298
0.114924
0.114549
0.114172
0.113796
0.113421
0.113045
0.112666
0.112289
0.111916
0.111545
0.111175
0.110804
0.110432
0.11006
0.109688
0.109315
0.108941
0.108567
0.108194
0.107822
0.107451
0.10708
0.10671
0.106342
0.105973
0.105604
0.105235
0.104867
0.104498
0.104129
0.103759
0.10339
0.103022
0.102654
0.102286
0.101918
0.101551
0.101183
0.100814
0.100445
0.100077
0.0997093
0.0993417
0.0989748
0.0986084
0.0982408
0.0978717
0.0975039
0.0971393
0.0967768
0.0964144
0.0960511
0.0956864
0.0953215
0.0949579
0.0945939
0.0942285
0.0938628
0.0934974
0.0931326
0.0927686
0.0924051
0.0920406
0.0916758
0.0913119
0.0909484
0.0905849
0.0902209
0.0898567
0.0894931
0.08913
0.0887676
0.0884057
0.088044
0.0876826
0.0873218
0.0869612
0.0866001
0.0862397
0.0858795
0.0855187
0.0851576
0.0847961
0.0844348
0.0840736
0.0837118
0.083351
0.0829918
0.0826331
0.0822736
0.0819134
0.0815525
0.0811918
0.0808323
0.0804736
0.0801132
0.0797519
0.0793928
0.0790356
0.0786773
0.0783176
0.077958
0.0775982
0.0772372
0.0768757
0.0765152
0.0761551
0.0757957
0.0754365
0.0750771
0.0747185
0.0743605
0.0740027
0.0736443
0.0732857
0.0729268
0.0725672
0.0722074
0.0718477
0.0714874
0.0711266
0.0707662
0.0704068
0.0700484
0.0696896
0.0693299
0.0689699
0.0686109
0.0682514
0.0678903
0.0675292
0.0671683
0.066807
0.0664458
0.0660854
0.0657259
0.0653656
0.0650037
0.0646417
0.0642808
0.0639212
0.063562
0.063203
0.0628432
0.0624828
0.0621226
0.0617623
0.0614016
0.0610409
0.0606799
0.0603186
0.0599566
0.0595946
0.0592324
0.0588696
0.0585065
0.0581434
0.0577804
0.0574174
0.0570548
0.0566923
0.0563293
0.0559661
0.0556029
0.0552391
0.0548754
0.0545113
0.0541465
0.0537816
0.0534164
0.0530513
0.0526864
0.0523206
0.0519536
0.0515865
0.0512202
0.0508548
0.0504894
0.050123
0.0497558
0.0493887
0.0490213
0.0486541
0.0482869
0.0479194
0.0475516
0.0471835
0.0468156
0.0464483
0.0460807
0.0457123
0.0453439
0.0449756
0.0446072
0.0442389
0.0438702
0.0435007
0.0431312
0.0427618
0.0423922
0.0420224
0.0416522
0.0412818
0.0409113
0.0405407
0.0401699
0.0397988
0.0394277
0.0390574
0.0386874
0.0383164
0.0379447
0.0375731
0.0372018
0.0368301
0.0364581
0.0360864
0.0357151
0.0353436
0.0349713
0.0345988
0.0342264
0.0338539
0.0334811
0.0331089
0.0327374
0.0323655
0.0319935
0.0316217
0.0312494
0.0308762
0.0305032
0.0301307
0.0297582
0.0293856
0.0290128
0.0286396
0.0282669
0.0278947
0.0275223
0.0271495
0.0267761
0.0264027
0.0260296
0.025656
0.025282
0.0249081
0.0245339
0.0241597
0.0237854
0.0234105
0.0230357
0.0226616
0.0222872
0.0219119
0.0215366
0.0211628
0.0207896
0.0204161
0.0200417
0.0196672
0.0192932
0.0189196
0.0185458
0.0181716
0.0177973
0.0174231
0.0170493
0.0166754
0.0163005
0.0159253
0.015551
0.0151772
0.014803
0.0144285
0.0140544
0.0136807
0.0133063
0.0129309
0.0125552
0.0121799
0.0118052
0.0114312
0.0110568
0.0106819
0.0103075
0.00993344
0.00955887
0.00918415
0.00880947
0.00843511
0.00806082
0.00768573
0.00731014
0.00693541
0.00656151
0.00618728
0.00581222
0.00543717
0.00506271
0.00468772
0.00431256
0.00393841
0.00356474
0.00319012
0.00281506
0.00244126
0.00206813
0.0016945
0.00132035
0.000945486
0.000573388
0.000193566
0.258412
0.258105
0.257208
0.255984
0.254716
0.253446
0.252158
0.250873
0.249622
0.248416
0.247254
0.246133
0.245052
0.244011
0.243007
0.242036
0.241095
0.240183
0.239301
0.238446
0.237613
0.236801
0.236006
0.235228
0.234468
0.233726
0.232998
0.232285
0.231584
0.230894
0.230214
0.229544
0.228883
0.228231
0.227588
0.226953
0.226326
0.225706
0.225092
0.224484
0.223882
0.223285
0.222693
0.222105
0.221523
0.220945
0.220371
0.219801
0.219236
0.218673
0.218115
0.217559
0.217007
0.216457
0.215911
0.215367
0.214826
0.214287
0.213751
0.213218
0.212686
0.212157
0.21163
0.211105
0.210583
0.210062
0.209543
0.209026
0.208511
0.207997
0.207485
0.206975
0.206467
0.20596
0.205454
0.20495
0.204448
0.203947
0.203447
0.202949
0.202452
0.201957
0.201463
0.20097
0.200478
0.199988
0.199498
0.19901
0.198524
0.198038
0.197553
0.197068
0.196585
0.196102
0.19562
0.19514
0.194659
0.19418
0.193701
0.193223
0.192745
0.192268
0.191792
0.191317
0.190843
0.190369
0.189895
0.189423
0.188952
0.188481
0.188012
0.187543
0.187075
0.186608
0.186141
0.185676
0.185212
0.184749
0.184286
0.183824
0.183363
0.182903
0.182444
0.181986
0.181529
0.181073
0.180617
0.180163
0.179709
0.179256
0.178804
0.178353
0.177902
0.177453
0.177004
0.176556
0.176109
0.175663
0.175217
0.174772
0.174328
0.173885
0.173442
0.173001
0.172559
0.172119
0.17168
0.171241
0.170803
0.170366
0.169929
0.169493
0.169057
0.168623
0.168189
0.167756
0.167323
0.166891
0.16646
0.166029
0.165599
0.16517
0.164741
0.164313
0.163886
0.163459
0.163033
0.162608
0.162183
0.161758
0.161334
0.160911
0.160488
0.160066
0.159644
0.159223
0.158802
0.158382
0.157963
0.157545
0.157126
0.156708
0.156291
0.155874
0.155458
0.155042
0.154627
0.154213
0.153799
0.153385
0.152972
0.15256
0.152148
0.151736
0.151325
0.150915
0.150505
0.150096
0.149687
0.149278
0.14887
0.148463
0.148056
0.14765
0.147244
0.146838
0.146433
0.146028
0.145624
0.14522
0.144817
0.144414
0.144011
0.143609
0.143208
0.142807
0.142406
0.142004
0.141604
0.141205
0.140806
0.140406
0.140007
0.139609
0.139212
0.138814
0.138417
0.13802
0.137623
0.137228
0.136833
0.136437
0.136042
0.135647
0.135254
0.13486
0.134467
0.134074
0.133682
0.133291
0.1329
0.132508
0.132117
0.131727
0.13134
0.130954
0.130567
0.130179
0.129791
0.129403
0.129016
0.12863
0.128245
0.127861
0.127477
0.127094
0.12671
0.126327
0.125944
0.125561
0.12518
0.124799
0.124418
0.124035
0.123652
0.123269
0.122888
0.122507
0.122127
0.121748
0.12137
0.12099
0.120611
0.120232
0.119852
0.119475
0.119099
0.118724
0.11835
0.117974
0.117594
0.117213
0.116833
0.116455
0.116078
0.115701
0.115326
0.114952
0.114578
0.114202
0.113828
0.113455
0.113081
0.112705
0.112327
0.11195
0.111576
0.111204
0.110834
0.110463
0.110092
0.109721
0.109348
0.108975
0.108602
0.108228
0.107855
0.107481
0.10711
0.106741
0.106373
0.106004
0.105635
0.105265
0.104896
0.104527
0.104157
0.103787
0.103416
0.103046
0.102678
0.102311
0.101943
0.101575
0.101207
0.10084
0.100471
0.100104
0.0997365
0.0993693
0.0990028
0.0986369
0.0982711
0.0979036
0.0975358
0.0971705
0.0968071
0.0964437
0.096081
0.0957191
0.0953561
0.0949901
0.0946212
0.0942533
0.0938872
0.0935218
0.0931574
0.0927934
0.0924296
0.0920666
0.0917045
0.0913426
0.0909796
0.0906148
0.0902491
0.0898827
0.0895166
0.0891523
0.0887891
0.088427
0.0880657
0.0877052
0.0873448
0.086984
0.0866233
0.0862621
0.0859006
0.0855406
0.085181
0.0848196
0.0844577
0.0840966
0.0837359
0.0833755
0.0830159
0.0826564
0.0822961
0.0819359
0.081576
0.0812149
0.0808535
0.080493
0.0801322
0.0797718
0.079413
0.0790552
0.0786971
0.078338
0.0779786
0.0776186
0.0772578
0.0768976
0.0765379
0.0761775
0.0758167
0.0754567
0.0750973
0.0747389
0.0743809
0.074022
0.0736632
0.0733044
0.0729451
0.0725858
0.0722268
0.0718669
0.0715063
0.0711463
0.0707872
0.0704281
0.0700686
0.0697093
0.0693501
0.0689906
0.0686308
0.0682706
0.0679097
0.0675486
0.0671879
0.0668267
0.066465
0.0661043
0.0657441
0.0653836
0.0650216
0.0646586
0.0642971
0.0639372
0.0635778
0.0632187
0.062859
0.0624988
0.0621388
0.061778
0.0614167
0.0610554
0.0606945
0.0603334
0.059972
0.0596104
0.0592481
0.0588848
0.0585211
0.0581576
0.0577945
0.0574319
0.0570693
0.0567067
0.0563438
0.0559798
0.055616
0.0552523
0.054888
0.0545233
0.0541578
0.0537926
0.0534276
0.0530626
0.0526975
0.052332
0.0519658
0.0515987
0.0512317
0.0508653
0.050499
0.0501318
0.0497645
0.0493975
0.0490309
0.0486639
0.0482957
0.0479269
0.0475581
0.0471896
0.0468218
0.0464539
0.0460858
0.0457177
0.0453497
0.0449814
0.0446129
0.0442445
0.0438757
0.0435067
0.0431378
0.0427687
0.0423984
0.0420277
0.0416569
0.0412863
0.0409158
0.0405452
0.0401743
0.0398031
0.0394319
0.039061
0.0386902
0.0383193
0.0379482
0.0375771
0.0372061
0.0368346
0.0364626
0.0360909
0.0357194
0.0353478
0.0349756
0.0346031
0.0342308
0.0338586
0.0334861
0.0331136
0.0327418
0.0323701
0.0319977
0.0316249
0.0312523
0.0308799
0.0305066
0.0301329
0.0297596
0.0293868
0.029014
0.0286409
0.0282681
0.0278953
0.0275226
0.0271502
0.0267777
0.0264044
0.0260312
0.025658
0.0252846
0.0249107
0.0245363
0.0241617
0.0237874
0.0234132
0.0230385
0.0226636
0.0222887
0.0219136
0.021539
0.0211654
0.0207919
0.0204175
0.0200428
0.0196685
0.0192944
0.0189204
0.0185465
0.0181724
0.0177983
0.017424
0.0170499
0.0166758
0.0163014
0.0159269
0.0155523
0.0151777
0.0148033
0.0144289
0.0140545
0.0136799
0.0133048
0.0129295
0.0125547
0.0121803
0.011806
0.0114314
0.0110567
0.0106817
0.010307
0.00993276
0.0095586
0.00918439
0.00881023
0.00843539
0.00805981
0.00768451
0.00730963
0.00693536
0.00656148
0.00618729
0.00581231
0.00543722
0.00506241
0.00468741
0.00431256
0.0039384
0.00356453
0.0031901
0.00281552
0.00244154
0.00206784
0.00169374
0.00131975
0.000945447
0.000573545
0.000193485
0.256131
0.255915
0.255302
0.254396
0.253372
0.252295
0.251181
0.250052
0.248929
0.247828
0.246755
0.24571
0.244693
0.243706
0.242748
0.241818
0.240913
0.240033
0.239178
0.238345
0.237531
0.236735
0.235955
0.235193
0.234447
0.233716
0.232998
0.232292
0.231597
0.230913
0.230238
0.229573
0.228917
0.228269
0.22763
0.226998
0.226373
0.225755
0.225143
0.224536
0.223934
0.223338
0.222747
0.22216
0.221578
0.221001
0.220427
0.219858
0.219292
0.21873
0.218171
0.217615
0.217062
0.216512
0.215965
0.215421
0.214879
0.21434
0.213804
0.21327
0.212738
0.212208
0.211681
0.211155
0.210632
0.210111
0.209591
0.209074
0.208558
0.208043
0.207531
0.20702
0.206511
0.206004
0.205498
0.204993
0.20449
0.203989
0.203488
0.20299
0.202492
0.201996
0.201501
0.201008
0.200515
0.200024
0.199534
0.199046
0.198558
0.198071
0.197586
0.197101
0.196617
0.196134
0.195652
0.19517
0.19469
0.19421
0.193731
0.193253
0.192775
0.192298
0.191822
0.191347
0.190872
0.190399
0.189926
0.189454
0.188983
0.188512
0.188043
0.187574
0.187106
0.186639
0.186174
0.185709
0.185245
0.184781
0.184319
0.183857
0.183397
0.182937
0.182478
0.18202
0.181563
0.181107
0.180651