/*--------------------------------*- C++ -*----------------------------------*\
  =========                 |
  \\      /  F ield         | OpenFOAM: The Open Source CFD Toolbox
   \\    /   O peration     | Website:  https://openfoam.org
    \\  /    A nd           | Version:  7
     \\/     M anipulation  |
\*---------------------------------------------------------------------------*/
FoamFile
{
    version     2.0;
    format      ascii;
    class       surfaceScalarField;
    location    "100";
    object      phi;
}
// * * * * * * * * * * * * * * * * * * * * * * * * * * * * * * * * * * * * * //

dimensions      [0 3 -1 0 0 0 0];

internalField   nonuniform List<scalar> 
71340
(
0.00614729
1.93796e-05
0.00611784
2.94442e-05
0.00608483
3.30175e-05
0.00604978
3.50484e-05
0.00601336
3.64138e-05
0.0059764
3.69675e-05
0.00593956
3.68383e-05
0.00590323
3.63318e-05
0.00586758
3.56497e-05
0.00583271
3.48671e-05
0.00579868
3.40256e-05
0.00576554
3.31483e-05
0.00573328
3.22565e-05
0.00570191
3.13659e-05
0.00567143
3.04848e-05
0.00564181
2.96191e-05
0.00561304
2.87738e-05
0.00558508
2.79517e-05
0.00555793
2.71528e-05
0.00553155
2.63769e-05
0.00550593
2.5624e-05
0.00548103
2.4895e-05
0.00545684
2.41908e-05
0.00543333
2.3511e-05
0.00541048
2.28546e-05
0.00538826
2.22204e-05
0.00536665
2.16074e-05
0.00534564
2.1015e-05
0.00532519
2.0443e-05
0.0053053
1.9891e-05
0.00528594
1.93585e-05
0.0052671
1.88449e-05
0.00524875
1.83493e-05
0.00523088
1.78709e-05
0.00521347
1.7409e-05
0.00519651
1.69631e-05
0.00517997
1.65325e-05
0.00516386
1.61168e-05
0.00514814
1.57155e-05
0.00513281
1.53283e-05
0.00511786
1.49545e-05
0.00510326
1.45938e-05
0.00508902
1.42456e-05
0.00507511
1.39095e-05
0.00506152
1.35849e-05
0.00504825
1.32714e-05
0.00503528
1.29685e-05
0.00502261
1.26759e-05
0.00501022
1.23933e-05
0.00499809
1.21203e-05
0.00498624
1.18565e-05
0.00497464
1.16016e-05
0.00496328
1.13553e-05
0.00495216
1.11171e-05
0.00494128
1.08869e-05
0.00493061
1.06642e-05
0.00492016
1.04489e-05
0.00490992
1.02406e-05
0.00489989
1.00392e-05
0.00489004
9.84422e-06
0.00488039
9.65549e-06
0.00487091
9.47279e-06
0.00486162
9.29595e-06
0.00485249
9.12472e-06
0.00484353
8.95884e-06
0.00483474
8.79817e-06
0.00482609
8.64262e-06
0.0048176
8.49195e-06
0.00480926
8.34598e-06
0.00480105
8.20462e-06
0.00479298
8.06762e-06
0.00478505
7.93493e-06
0.00477724
7.80652e-06
0.00476956
7.6821e-06
0.004762
7.56159e-06
0.00475456
7.44495e-06
0.00474722
7.33201e-06
0.00474
7.22262e-06
0.00473289
7.11663e-06
0.00472587
7.01388e-06
0.00471896
6.91426e-06
0.00471214
6.81766e-06
0.00470541
6.72384e-06
0.00469878
6.63272e-06
0.00469224
6.54418e-06
0.00468578
6.45809e-06
0.0046794
6.37452e-06
0.00467311
6.29378e-06
0.00466689
6.21629e-06
0.00466075
6.14339e-06
0.00465467
6.07741e-06
0.00464865
6.01889e-06
0.00464268
5.96744e-06
0.00463675
5.92138e-06
0.00463087
5.8776e-06
0.00462504
5.8348e-06
0.00461924
5.79245e-06
0.00461349
5.75003e-06
0.00460778
5.70699e-06
0.00460212
5.66313e-06
0.0045965
5.61837e-06
0.00459093
5.5727e-06
0.0045854
5.52615e-06
0.00457992
5.47874e-06
0.00457449
5.43053e-06
0.00456911
5.38155e-06
0.00456377
5.33192e-06
0.00455849
5.28177e-06
0.00455326
5.23123e-06
0.00454808
5.18036e-06
0.00454295
5.12932e-06
0.00453787
5.07811e-06
0.00453284
5.02677e-06
0.00452787
4.97552e-06
0.00452294
4.92449e-06
0.00451807
4.87369e-06
0.00451325
4.82312e-06
0.00450848
4.77281e-06
0.00450375
4.72293e-06
0.00449908
4.67354e-06
0.00449446
4.62462e-06
0.00448988
4.57618e-06
0.00448535
4.52829e-06
0.00448087
4.48097e-06
0.00447644
4.43426e-06
0.00447205
4.38823e-06
0.00446771
4.3429e-06
0.00446341
4.29819e-06
0.00445916
4.25419e-06
0.00445495
4.211e-06
0.00445078
4.16855e-06
0.00444666
4.12676e-06
0.00444257
4.08571e-06
0.00443853
4.04549e-06
0.00443452
4.00614e-06
0.00443056
3.96763e-06
0.00442663
3.92984e-06
0.00442274
3.89275e-06
0.00441888
3.85649e-06
0.00441506
3.82112e-06
0.00441128
3.7866e-06
0.00440752
3.75283e-06
0.0044038
3.71969e-06
0.00440012
3.68728e-06
0.00439646
3.65558e-06
0.00439284
3.62463e-06
0.00438925
3.59442e-06
0.00438568
3.5648e-06
0.00438215
3.53569e-06
0.00437864
3.50713e-06
0.00437516
3.47908e-06
0.00437171
3.45151e-06
0.00436829
3.42445e-06
0.00436489
3.39785e-06
0.00436152
3.37163e-06
0.00435817
3.34576e-06
0.00435485
3.32022e-06
0.00435156
3.295e-06
0.00434829
3.27002e-06
0.00434504
3.24526e-06
0.00434182
3.2208e-06
0.00433862
3.19654e-06
0.00433545
3.17248e-06
0.0043323
3.14861e-06
0.00432918
3.12485e-06
0.00432608
3.10125e-06
0.004323
3.07787e-06
0.00431994
3.05458e-06
0.00431691
3.0314e-06
0.0043139
3.00849e-06
0.00431092
2.98586e-06
0.00430795
2.96351e-06
0.00430501
2.94131e-06
0.00430209
2.9193e-06
0.0042992
2.89746e-06
0.00429632
2.87575e-06
0.00429346
2.85421e-06
0.00429063
2.83292e-06
0.00428782
2.81178e-06
0.00428503
2.79076e-06
0.00428226
2.76998e-06
0.00427951
2.7495e-06
0.00427678
2.72924e-06
0.00427407
2.70908e-06
0.00427138
2.6892e-06
0.00426871
2.66969e-06
0.00426606
2.65031e-06
0.00426343
2.63103e-06
0.00426082
2.61194e-06
0.00425822
2.59294e-06
0.00425565
2.57399e-06
0.00425309
2.55519e-06
0.00425056
2.53646e-06
0.00424804
2.51779e-06
0.00424554
2.49926e-06
0.00424306
2.48071e-06
0.0042406
2.46217e-06
0.00423815
2.44357e-06
0.00423573
2.42488e-06
0.00423332
2.40637e-06
0.00423093
2.38821e-06
0.00422856
2.37031e-06
0.00422621
2.35253e-06
0.00422387
2.33496e-06
0.00422156
2.31777e-06
0.00421925
2.30107e-06
0.00421697
2.28483e-06
0.0042147
2.26891e-06
0.00421245
2.25335e-06
0.00421021
2.2381e-06
0.00420799
2.22291e-06
0.00420578
2.20778e-06
0.00420358
2.19299e-06
0.00420141
2.17851e-06
0.00419924
2.16407e-06
0.00419709
2.14984e-06
0.00419495
2.13607e-06
0.00419283
2.12291e-06
0.00419072
2.11055e-06
0.00418862
2.09845e-06
0.00418653
2.08671e-06
0.00418445
2.07509e-06
0.00418239
2.06347e-06
0.00418034
2.05192e-06
0.00417829
2.03994e-06
0.00417627
2.02718e-06
0.00417425
2.01407e-06
0.00417225
1.99995e-06
0.00417026
1.98458e-06
0.00416829
1.96848e-06
0.00416634
1.95137e-06
0.00416441
1.93367e-06
0.00416249
1.91481e-06
0.00416059
1.89622e-06
0.00415871
1.8781e-06
0.00415685
1.86032e-06
0.00415501
1.8421e-06
0.00415319
1.82219e-06
0.00415138
1.80164e-06
0.0041496
1.77994e-06
0.00414785
1.7558e-06
0.00414612
1.73138e-06
0.00414441
1.70705e-06
0.00414273
1.68399e-06
0.00414106
1.66353e-06
0.00413942
1.64366e-06
0.0041378
1.62167e-06
0.0041362
1.59881e-06
0.00413462
1.57477e-06
0.00413307
1.54862e-06
0.00413154
1.52166e-06
0.00413005
1.49494e-06
0.00412858
1.46695e-06
0.00412714
1.43998e-06
0.00412572
1.41988e-06
0.00412432
1.3954e-06
0.00412295
1.3757e-06
0.00412159
1.36135e-06
0.00412024
1.34635e-06
0.00411891
1.33227e-06
0.0041176
1.31133e-06
0.00411632
1.29226e-06
0.00411504
1.27434e-06
0.00411379
1.25663e-06
0.00411255
1.24083e-06
0.00411133
1.22678e-06
0.00411012
1.21423e-06
0.00410892
1.20093e-06
0.00410773
1.18633e-06
0.00410656
1.1711e-06
0.0041054
1.15703e-06
0.00410426
1.14481e-06
0.00410313
1.12859e-06
0.00410201
1.11225e-06
0.00410091
1.09975e-06
0.00409983
1.08553e-06
0.00409875
1.07516e-06
0.00409768
1.07266e-06
0.00409661
1.07091e-06
0.00409555
1.06502e-06
0.0040945
1.05226e-06
0.00409348
1.03064e-06
0.00409248
1.00418e-06
0.0040915
9.75815e-07
0.00409055
9.54573e-07
0.00408962
9.38887e-07
0.00408869
9.24094e-07
0.00408779
9.09973e-07
0.00408689
8.97183e-07
0.00408601
8.87168e-07
0.00408513
8.78402e-07
0.00408426
8.69058e-07
0.0040834
8.59272e-07
0.00408254
8.51009e-07
0.0040817
8.42833e-07
0.00408085
8.42838e-07
0.00408001
8.44604e-07
0.00407917
8.42512e-07
0.00407833
8.40862e-07
0.00407749
8.37447e-07
0.00407666
8.32977e-07
0.00407584
8.24652e-07
0.00407503
8.18032e-07
0.00407421
8.16908e-07
0.00407341
8.10403e-07
0.00407261
8.00894e-07
0.00407181
7.97184e-07
0.00407102
7.95199e-07
0.00407023
7.89007e-07
0.00406945
7.80022e-07
0.00406868
7.69367e-07
0.00406793
7.58513e-07
0.00406718
7.43371e-07
0.00406645
7.30007e-07
0.00406573
7.23914e-07
0.00406501
7.14815e-07
0.00406431
7.05161e-07
0.00406361
7.00552e-07
0.00406291
6.96568e-07
0.00406222
6.93379e-07
0.00406152
6.95315e-07
0.00406083
6.93218e-07
0.00406015
6.85924e-07
0.00405947
6.75192e-07
0.00405881
6.63415e-07
0.00405815
6.59148e-07
0.0040575
6.5716e-07
0.00405685
6.50803e-07
0.0040562
6.46448e-07
0.00405556
6.41536e-07
0.00405492
6.38202e-07
0.00405428
6.36692e-07
0.00405365
6.31297e-07
0.00405302
6.296e-07
0.0040524
6.27083e-07
0.00405177
6.2343e-07
0.00405115
6.21378e-07
0.00405053
6.17476e-07
0.00404992
6.13521e-07
0.00404931
6.13769e-07
0.00404869
6.17483e-07
0.00404808
6.17257e-07
0.00404746
6.17207e-07
0.00404684
6.19368e-07
0.00404623
6.17178e-07
0.00404562
6.10371e-07
0.00404501
6.04415e-07
0.00404442
5.99763e-07
0.00404383
5.89867e-07
0.00404325
5.76628e-07
0.00404268
5.70802e-07
0.00404212
5.69182e-07
0.00404155
5.62998e-07
0.004041
5.55071e-07
0.00404045
5.47847e-07
0.00403991
5.42931e-07
0.00403936
5.40154e-07
0.00403882
5.40675e-07
0.00403828
5.39367e-07
0.00403774
5.35008e-07
0.00403721
5.33113e-07
0.00403667
5.3325e-07
0.00403614
5.31447e-07
0.00403562
5.22368e-07
0.0040351
5.13745e-07
0.0040346
5.0795e-07
0.00403409
5.04443e-07
0.00403359
4.99278e-07
0.0040331
4.936e-07
0.00403261
4.94359e-07
0.00403212
4.94661e-07
0.00403163
4.91283e-07
0.00403114
4.86771e-07
0.00403066
4.83916e-07
0.00403019
4.75183e-07
0.00402971
4.70586e-07
0.00402924
4.70141e-07
0.00402878
4.65105e-07
0.00402832
4.6167e-07
0.00402786
4.55671e-07
0.00402741
4.49939e-07
0.00402696
4.48741e-07
0.00402651
4.46302e-07
0.00402607
4.4179e-07
0.00402563
4.36196e-07
0.0040252
4.2736e-07
0.00402478
4.2325e-07
0.00402436
4.19949e-07
0.00402395
4.12777e-07
0.00402354
4.07338e-07
0.00402313
4.04003e-07
0.00402273
4.01674e-07
0.00402233
4.02578e-07
0.00402192
4.06633e-07
0.00402151
4.0474e-07
0.00402111
4.02372e-07
0.00402071
4.03089e-07
0.00402031
4.04003e-07
0.0040199
4.03167e-07
0.00401951
3.99016e-07
0.00401912
3.92238e-07
0.00401874
3.84042e-07
0.00401836
3.75675e-07
0.00401799
3.72671e-07
0.00401762
3.72404e-07
0.00401725
3.71323e-07
0.00401689
3.69417e-07
0.00401652
3.62928e-07
0.00401617
3.59351e-07
0.00401581
3.56606e-07
0.00401545
3.54786e-07
0.0040151
3.5315e-07
0.00401475
3.49838e-07
0.00401441
3.43436e-07
0.00401407
3.37417e-07
0.00401373
3.34409e-07
0.0040134
3.32354e-07
0.00401307
3.3222e-07
0.00401274
3.27652e-07
0.00401242
3.20288e-07
0.00401211
3.1459e-07
0.00401179
3.12965e-07
0.00401148
3.11629e-07
0.00401118
3.05045e-07
0.00401088
2.97595e-07
0.00401059
2.92605e-07
0.0040103
2.89067e-07
0.00401001
2.85325e-07
0.00400973
2.80208e-07
0.00400945
2.76616e-07
0.00400918
2.78067e-07
0.00400891
2.718e-07
0.00400865
2.58697e-07
0.0040084
2.48826e-07
0.00400816
2.41268e-07
0.00400791
2.459e-07
0.00400766
2.53129e-07
0.00400741
2.53273e-07
0.00400716
2.52033e-07
0.00400691
2.4768e-07
0.00400667
2.42654e-07
0.00400644
2.37905e-07
0.00400621
2.32048e-07
0.00400598
2.28901e-07
0.00400575
2.27093e-07
0.00400553
2.24382e-07
0.00400531
2.23763e-07
0.00400508
2.23433e-07
0.00400486
2.20322e-07
0.00400465
2.11689e-07
0.00400445
2.00575e-07
0.00400426
1.96321e-07
0.00400407
1.92789e-07
0.00400388
1.91407e-07
0.00400369
1.96058e-07
0.0040035
1.94994e-07
0.00400331
1.84675e-07
0.00400314
1.77027e-07
0.00400296
1.77984e-07
0.00400278
1.84461e-07
0.00400259
1.87681e-07
0.0040024
1.88657e-07
0.00400221
1.91879e-07
0.00400202
1.91439e-07
0.00400183
1.89682e-07
0.00400164
1.87181e-07
0.00400146
1.81611e-07
0.00400129
1.76416e-07
0.00400111
1.75461e-07
0.00400093
1.7859e-07
0.00400075
1.80102e-07
0.00400058
1.78373e-07
0.0040004
1.75742e-07
0.00400023
1.70721e-07
0.00400006
1.67746e-07
0.0039999
1.64098e-07
0.00399974
1.55004e-07
0.0039996
1.50103e-07
0.00399945
1.52138e-07
0.0039993
1.52466e-07
0.00399915
1.45175e-07
0.00399902
1.35868e-07
0.0039989
1.25383e-07
0.00399878
1.19167e-07
0.00399866
1.21304e-07
0.00399855
1.18943e-07
0.00399843
1.13579e-07
0.00399832
1.14381e-07
0.0039982
1.1574e-07
0.00399809
1.17232e-07
0.00399797
1.19938e-07
0.00399785
1.16421e-07
0.00399774
1.12643e-07
0.00399763
1.07686e-07
0.00399753
1.03495e-07
0.00399743
1.05621e-07
0.00399732
1.05727e-07
0.00399722
1.02505e-07
0.00399712
9.64976e-08
0.00399702
9.53615e-08
0.00399693
9.73221e-08
0.00399683
9.18696e-08
0.00399674
8.75793e-08
0.00399666
8.71435e-08
0.00399657
8.793e-08
0.00399647
9.38396e-08
0.00399638
9.22494e-08
0.0039963
8.62992e-08
0.00399621
8.56588e-08
0.00399613
8.47149e-08
0.00399604
8.34192e-08
0.00399596
8.65013e-08
0.00399587
8.53707e-08
0.00399579
8.251e-08
0.00399571
7.95133e-08
0.00399564
7.20451e-08
0.00399558
6.7014e-08
0.00399552
6.25329e-08
0.00399546
5.70081e-08
0.00399541
5.46778e-08
0.00399536
5.04281e-08
0.00399531
4.432e-08
0.00399527
4.21882e-08
0.00399524
3.62201e-08
0.00399521
3.08238e-08
0.00399518
2.64803e-08
0.00399516
2.09625e-08
0.00399515
1.76764e-08
0.00399513
1.56264e-08
0.00399511
1.54316e-08
0.00399509
2.13303e-08
0.00399506
3.18988e-08
0.00399503
3.47016e-08
0.003995
3.07196e-08
0.00399497
2.79827e-08
0.00399494
2.86056e-08
0.00399491
3.33396e-08
0.00399488
3.85954e-08
0.00399484
4.1381e-08
0.0039948
3.52944e-08
0.00399477
2.766e-08
0.00399474
3.02795e-08
0.00399471
2.91675e-08
0.00399469
2.26912e-08
0.00399467
2.18088e-08
0.00399465
2.10521e-08
0.00399464
1.26022e-08
0.00399464
2.35798e-09
0.00399464
9.85889e-10
0.00399464
1.96529e-09
0.00399464
-7.48668e-10
0.00399464
-4.88272e-09
0.00399466
-1.30434e-08
0.00399467
-1.8993e-08
0.00399469
-1.79507e-08
0.00399471
-1.28191e-08
0.00399471
-3.17735e-09
0.00399471
5.27274e-09
0.0039947
8.78648e-09
0.00399469
6.58164e-09
0.00399469
7.32493e-09
0.00399467
1.5342e-08
0.00399465
1.81839e-08
0.00399464
1.84915e-08
0.00399462
1.65649e-08
0.00399461
1.65662e-08
0.00399459
1.76456e-08
0.00399457
1.5047e-08
0.00399456
1.65853e-08
0.00399453
2.16077e-08
0.00399451
2.18424e-08
0.00399449
2.18229e-08
0.00399446
2.95079e-08
0.00399443
3.12598e-08
0.0039944
2.72622e-08
0.00399438
2.42767e-08
0.00399435
2.76523e-08
0.00399433
2.87909e-08
0.0039943
2.49523e-08
0.00399428
2.25356e-08
0.00399426
1.84386e-08
0.00399425
1.42937e-08
0.00399423
1.55227e-08
0.00399421
1.99866e-08
0.00399418
2.66131e-08
0.00399416
2.62351e-08
0.00399414
1.7779e-08
0.00399412
1.32839e-08
0.00399411
1.36642e-08
0.00399409
1.4979e-08
0.00399409
8.59776e-09
0.00399409
5.15004e-10
0.00399409
-6.23684e-09
0.0039941
-5.70462e-09
0.0039941
-3.20732e-09
0.0039941
-2.50458e-09
0.00399411
-7.16391e-09
0.00399412
-1.37301e-08
0.00399414
-1.95719e-08
-2.50488e-08
0.00618005
5.99464e-06
0.00619356
1.59373e-05
0.00620489
2.16891e-05
0.00621455
2.5382e-05
0.00622278
2.81891e-05
0.00622949
3.02583e-05
0.00623467
3.1661e-05
0.00623841
3.25834e-05
0.00624087
3.3189e-05
0.00624218
3.35655e-05
0.00624244
3.37617e-05
0.00624177
3.38147e-05
0.00624027
3.37566e-05
0.00623803
3.3612e-05
0.00623511
3.33987e-05
0.0062316
3.31304e-05
0.00622756
3.28185e-05
0.00622304
3.24723e-05
0.00621809
3.20985e-05
0.00621277
3.17025e-05
0.0062071
3.12894e-05
0.00620113
3.08637e-05
0.00619489
3.04294e-05
0.00618842
2.99892e-05
0.00618172
2.95449e-05
0.00617485
2.90982e-05
0.0061678
2.86505e-05
0.00616061
2.82033e-05
0.0061533
2.77584e-05
0.00614587
2.73169e-05
0.00613835
2.68798e-05
0.00613075
2.64475e-05
0.00612308
2.60208e-05
0.00611535
2.55998e-05
0.00610757
2.51848e-05
0.00609976
2.47761e-05
0.00609192
2.43742e-05
0.00608406
2.39792e-05
0.00607618
2.35913e-05
0.0060683
2.32109e-05
0.00606041
2.28378e-05
0.00605254
2.24722e-05
0.00604467
2.21141e-05
0.00603681
2.17633e-05
0.00602898
2.14198e-05
0.00602117
2.10836e-05
0.00601338
2.07545e-05
0.00600562
2.04326e-05
0.0059979
2.01178e-05
0.00599021
1.98099e-05
0.00598256
1.9509e-05
0.00597494
1.92148e-05
0.00596737
1.89272e-05
0.00595984
1.86461e-05
0.00595236
1.83714e-05
0.00594492
1.8103e-05
0.00593753
1.78408e-05
0.00593018
1.75845e-05
0.00592289
1.73339e-05
0.00591564
1.70892e-05
0.00590845
1.68501e-05
0.00590131
1.66164e-05
0.00589421
1.6388e-05
0.00588717
1.61648e-05
0.00588019
1.59467e-05
0.00587325
1.57335e-05
0.00586637
1.55253e-05
0.00585954
1.53218e-05
0.00585276
1.51229e-05
0.00584604
1.49286e-05
0.00583937
1.47387e-05
0.00583275
1.45531e-05
0.00582618
1.43718e-05
0.00581967
1.41947e-05
0.00581321
1.40216e-05
0.0058068
1.38526e-05
0.00580045
1.36874e-05
0.00579414
1.35261e-05
0.00578789
1.33685e-05
0.00578169
1.32145e-05
0.00577554
1.30641e-05
0.00576944
1.29172e-05
0.00576339
1.27736e-05
0.00575739
1.26333e-05
0.00575144
1.24962e-05
0.00574554
1.23624e-05
0.00573968
1.22317e-05
0.00573387
1.21043e-05
0.0057281
1.19806e-05
0.00572239
1.1861e-05
0.00571672
1.17462e-05
0.0057111
1.16332e-05
0.00570555
1.1522e-05
0.00570005
1.14155e-05
0.00569462
1.13129e-05
0.00568924
1.1213e-05
0.00568392
1.11154e-05
0.00567865
1.10195e-05
0.00567343
1.09249e-05
0.00566826
1.08315e-05
0.00566314
1.0739e-05
0.00565807
1.0647e-05
0.00565304
1.05556e-05
0.00564805
1.04647e-05
0.00564311
1.03742e-05
0.0056382
1.02841e-05
0.00563334
1.01944e-05
0.00562852
1.0105e-05
0.00562373
1.0016e-05
0.00561899
9.92715e-06
0.00561428
9.83872e-06
0.0056096
9.75077e-06
0.00560497
9.66334e-06
0.00560036
9.57645e-06
0.0055958
9.49007e-06
0.00559127
9.40418e-06
0.00558677
9.31886e-06
0.00558231
9.23423e-06
0.00557788
9.15038e-06
0.00557349
9.06726e-06
0.00556913
8.98478e-06
0.0055648
8.90301e-06
0.00556051
8.82207e-06
0.00555625
8.74201e-06
0.00555202
8.66278e-06
0.00554782
8.58441e-06
0.00554366
8.50702e-06
0.00553952
8.4306e-06
0.00553542
8.35511e-06
0.00553135
8.28057e-06
0.00552731
8.207e-06
0.00552331
8.13446e-06
0.00551933
8.06303e-06
0.00551538
7.99267e-06
0.00551147
7.92328e-06
0.00550758
7.85494e-06
0.00550372
7.78772e-06
0.00549989
7.72168e-06
0.00549609
7.65683e-06
0.00549232
7.59309e-06
0.00548858
7.5304e-06
0.00548486
7.46876e-06
0.00548117
7.40818e-06
0.00547751
7.34873e-06
0.00547388
7.29036e-06
0.00547027
7.233e-06
0.00546669
7.17667e-06
0.00546313
7.12131e-06
0.0054596
7.06687e-06
0.00545609
7.01345e-06
0.00545261
6.96098e-06
0.00544915
6.90932e-06
0.00544572
6.85845e-06
0.00544231
6.80837e-06
0.00543892
6.75907e-06
0.00543556
6.7105e-06
0.00543221
6.66264e-06
0.00542889
6.61548e-06
0.0054256
6.56899e-06
0.00542232
6.52306e-06
0.00541906
6.47771e-06
0.00541582
6.43286e-06
0.00541261
6.38853e-06
0.00540941
6.34474e-06
0.00540624
6.3013e-06
0.00540308
6.25815e-06
0.00539994
6.21536e-06
0.00539682
6.17289e-06
0.00539372
6.13082e-06
0.00539064
6.08928e-06
0.00538758
6.04824e-06
0.00538454
6.0077e-06
0.00538151
5.96752e-06
0.0053785
5.92778e-06
0.00537551
5.88849e-06
0.00537254
5.84958e-06
0.00536958
5.81096e-06
0.00536664
5.77269e-06
0.00536372
5.73478e-06
0.00536081
5.69719e-06
0.00535792
5.65998e-06
0.00535505
5.6232e-06
0.00535219
5.58688e-06
0.00534935
5.55084e-06
0.00534652
5.51516e-06
0.00534371
5.47991e-06
0.00534092
5.44501e-06
0.00533814
5.41032e-06
0.00533537
5.37598e-06
0.00533263
5.34198e-06
0.00532989
5.30826e-06
0.00532717
5.27491e-06
0.00532447
5.24191e-06
0.00532178
5.20912e-06
0.0053191
5.1766e-06
0.00531643
5.14429e-06
0.00531379
5.11218e-06
0.00531115
5.08029e-06
0.00530852
5.04863e-06
0.00530591
5.0173e-06
0.00530332
4.98627e-06
0.00530073
4.95557e-06
0.00529816
4.92513e-06
0.0052956
4.895e-06
0.00529305
4.8653e-06
0.00529052
4.83598e-06
0.00528799
4.80696e-06
0.00528549
4.77819e-06
0.00528299
4.74979e-06
0.00528051
4.72195e-06
0.00527803
4.69455e-06
0.00527557
4.66743e-06
0.00527313
4.64063e-06
0.00527069
4.61419e-06
0.00526827
4.58784e-06
0.00526585
4.56199e-06
0.00526345
4.53657e-06
0.00526106
4.51142e-06
0.00525869
4.4868e-06
0.00525632
4.4622e-06
0.00525397
4.43805e-06
0.00525163
4.41443e-06
0.00524931
4.39064e-06
0.00524699
4.36707e-06
0.00524469
4.34323e-06
0.0052424
4.31887e-06
0.00524012
4.2953e-06
0.00523784
4.2709e-06
0.00523558
4.24486e-06
0.00523333
4.21871e-06
0.00523109
4.19264e-06
0.00522886
4.16663e-06
0.00522663
4.13971e-06
0.00522442
4.11165e-06
0.00522221
4.08304e-06
0.00522002
4.05462e-06
0.00521783
4.02616e-06
0.00521566
3.99551e-06
0.00521349
3.96546e-06
0.00521134
3.93524e-06
0.00520919
3.90196e-06
0.00520705
3.8681e-06
0.00520492
3.83329e-06
0.00520281
3.79718e-06
0.00520071
3.76013e-06
0.00519863
3.72374e-06
0.00519657
3.68842e-06
0.00519451
3.65298e-06
0.00519247
3.61598e-06
0.00519044
3.5757e-06
0.00518843
3.53453e-06
0.00518643
3.4976e-06
0.00518443
3.46276e-06
0.00518244
3.42977e-06
0.00518046
3.39955e-06
0.0051785
3.36492e-06
0.00517654
3.3317e-06
0.0051746
3.30094e-06
0.00517268
3.27172e-06
0.00517076
3.24425e-06
0.00516886
3.2133e-06
0.00516697
3.18602e-06
0.00516508
3.15826e-06
0.00516321
3.12845e-06
0.00516135
3.10025e-06
0.0051595
3.07081e-06
0.00515767
3.04135e-06
0.00515586
3.01242e-06
0.00515406
2.98269e-06
0.00515228
2.9506e-06
0.00515052
2.91909e-06
0.00514877
2.89166e-06
0.00514703
2.86183e-06
0.00514531
2.83085e-06
0.00514361
2.80061e-06
0.00514193
2.77057e-06
0.00514026
2.74531e-06
0.00513861
2.7238e-06
0.00513698
2.69859e-06
0.00513538
2.67179e-06
0.00513378
2.64575e-06
0.0051322
2.61396e-06
0.00513063
2.57837e-06
0.00512906
2.53992e-06
0.00512751
2.50772e-06
0.00512597
2.4801e-06
0.00512444
2.45478e-06
0.00512292
2.429e-06
0.00512141
2.40101e-06
0.00511992
2.37479e-06
0.00511845
2.35148e-06
0.00511699
2.33084e-06
0.00511554
2.30847e-06
0.0051141
2.28554e-06
0.00511267
2.26785e-06
0.00511125
2.26009e-06
0.00510985
2.25253e-06
0.00510845
2.2374e-06
0.00510707
2.22082e-06
0.0051057
2.20683e-06
0.00510435
2.19008e-06
0.005103
2.1721e-06
0.00510167
2.1554e-06
0.00510035
2.14069e-06
0.00509903
2.12708e-06
0.00509773
2.10984e-06
0.00509643
2.09395e-06
0.00509515
2.07887e-06
0.00509388
2.05782e-06
0.00509262
2.04044e-06
0.00509137
2.02513e-06
0.00509011
2.00998e-06
0.00508887
1.98792e-06
0.00508764
1.96236e-06
0.00508641
1.94622e-06
0.0050852
1.92645e-06
0.005084
1.90448e-06
0.00508281
1.88727e-06
0.00508163
1.87348e-06
0.00508046
1.86124e-06
0.00507931
1.84911e-06
0.00507817
1.8353e-06
0.00507703
1.82241e-06
0.0050759
1.80842e-06
0.00507477
1.78987e-06
0.00507365
1.77786e-06
0.00507254
1.76607e-06
0.00507145
1.75039e-06
0.00507036
1.73544e-06
0.00506928
1.71881e-06
0.00506821
1.71111e-06
0.00506714
1.70689e-06
0.00506607
1.69845e-06
0.00506501
1.69131e-06
0.00506396
1.67959e-06
0.00506291
1.66573e-06
0.00506188
1.65437e-06
0.00506086
1.63896e-06
0.00505985
1.62485e-06
0.00505885
1.6175e-06
0.00505785
1.61167e-06
0.00505687
1.60128e-06
0.0050559
1.58761e-06
0.00505494
1.57816e-06
0.00505399
1.5689e-06
0.00505304
1.55372e-06
0.00505211
1.5396e-06
0.00505118
1.52846e-06
0.00505026
1.5132e-06
0.00504934
1.49614e-06
0.00504843
1.48422e-06
0.00504752
1.47469e-06
0.00504662
1.46307e-06
0.00504572
1.4528e-06
0.00504483
1.44297e-06
0.00504393
1.43218e-06
0.00504305
1.4212e-06
0.00504218
1.41322e-06
0.00504131
1.40727e-06
0.00504044
1.39933e-06
0.00503959
1.38951e-06
0.00503874
1.38343e-06
0.00503789
1.37905e-06
0.00503705
1.36543e-06
0.00503621
1.35143e-06
0.00503538
1.33945e-06
0.00503456
1.32463e-06
0.00503375
1.31117e-06
0.00503294
1.30392e-06
0.00503213
1.30129e-06
0.00503133
1.29951e-06
0.00503053
1.2932e-06
0.00502973
1.28454e-06
0.00502893
1.27911e-06
0.00502814
1.266e-06
0.00502736
1.25496e-06
0.00502659
1.24458e-06
0.00502582
1.23303e-06
0.00502505
1.22836e-06
0.00502429
1.21799e-06
0.00502353
1.20711e-06
0.00502278
1.20047e-06
0.00502203
1.1908e-06
0.00502129
1.18258e-06
0.00502056
1.17229e-06
0.00501983
1.15829e-06
0.00501911
1.1484e-06
0.00501839
1.13928e-06
0.00501767
1.12678e-06
0.00501696
1.11618e-06
0.00501626
1.11185e-06
0.00501555
1.10727e-06
0.00501484
1.10694e-06
0.00501414
1.10613e-06
0.00501345
1.10066e-06
0.00501275
1.09971e-06
0.00501205
1.09745e-06
0.00501137
1.08778e-06
0.0050107
1.07642e-06
0.00501003
1.06526e-06
0.00500937
1.05414e-06
0.00500871
1.0471e-06
0.00500805
1.03922e-06
0.00500739
1.03129e-06
0.00500674
1.02811e-06
0.00500608
1.02257e-06
0.00500544
1.01248e-06
0.00500481
9.99421e-07
0.00500418
9.8772e-07
0.00500356
9.76712e-07
0.00500295
9.68141e-07
0.00500233
9.67162e-07
0.00500172
9.63347e-07
0.00500111
9.51713e-07
0.00500051
9.3946e-07
0.00499991
9.29594e-07
0.00499932
9.19662e-07
0.00499874
9.11073e-07
0.00499816
9.05566e-07
0.00499759
8.9571e-07
0.00499702
8.84142e-07
0.00499646
8.75627e-07
0.0049959
8.65489e-07
0.00499535
8.54872e-07
0.0049948
8.44945e-07
0.00499426
8.3648e-07
0.00499372
8.28294e-07
0.00499319
8.18173e-07
0.00499266
8.06874e-07
0.00499214
7.98643e-07
0.00499163
7.92796e-07
0.00499112
7.79617e-07
0.00499061
7.6696e-07
0.0049901
7.55868e-07
0.0049896
7.4018e-07
0.00498912
7.29178e-07
0.00498865
7.23386e-07
0.00498819
7.1618e-07
0.00498773
7.09918e-07
0.00498728
7.00643e-07
0.00498683
6.91417e-07
0.00498639
6.79876e-07
0.00498595
6.68324e-07
0.00498552
6.64273e-07
0.00498509
6.56095e-07
0.00498466
6.46186e-07
0.00498425
6.39633e-07
0.00498384
6.32973e-07
0.00498344
6.22417e-07
0.00498304
6.08941e-07
0.00498265
5.93447e-07
0.00498227
5.81042e-07
0.00498189
5.73963e-07
0.00498151
5.66637e-07
0.00498115
5.60985e-07
0.00498079
5.59536e-07
0.00498042
5.49974e-07
0.00498006
5.38325e-07
0.0049797
5.36141e-07
0.00497935
5.33805e-07
0.00497901
5.28546e-07
0.00497867
5.23737e-07
0.00497835
5.19808e-07
0.00497803
5.12059e-07
0.00497771
5.06269e-07
0.00497739
5.03406e-07
0.00497708
4.94752e-07
0.00497678
4.83121e-07
0.00497648
4.75684e-07
0.00497618
4.73844e-07
0.00497589
4.70197e-07
0.00497561
4.62558e-07
0.00497533
4.551e-07
0.00497505
4.44562e-07
0.00497479
4.35325e-07
0.00497453
4.23525e-07
0.00497427
4.10801e-07
0.00497402
4.05672e-07
0.00497377
4.03683e-07
0.00497352
4.00403e-07
0.00497328
3.91125e-07
0.00497304
3.79512e-07
0.00497279
3.69505e-07
0.00497255
3.63148e-07
0.00497231
3.59397e-07
0.00497207
3.54001e-07
0.00497184
3.47691e-07
0.00497161
3.4238e-07
0.00497139
3.33561e-07
0.00497118
3.2437e-07
0.00497098
3.21836e-07
0.00497078
3.15799e-07
0.00497059
3.09295e-07
0.00497039
3.04167e-07
0.0049702
2.95862e-07
0.00497002
2.87428e-07
0.00496984
2.78917e-07
0.00496968
2.70587e-07
0.00496951
2.64022e-07
0.00496934
2.60581e-07
0.00496918
2.57388e-07
0.00496902
2.49935e-07
0.00496887
2.44359e-07
0.00496871
2.4006e-07
0.00496857
2.3463e-07
0.00496843
2.32938e-07
0.0049683
2.25248e-07
0.00496817
2.15732e-07
0.00496804
2.12981e-07
0.00496791
2.11869e-07
0.00496779
2.0996e-07
0.00496767
2.07667e-07
0.00496755
2.02236e-07
0.00496744
1.95561e-07
0.00496733
1.8886e-07
0.00496722
1.80171e-07
0.00496712
1.75045e-07
0.00496701
1.73002e-07
0.0049669
1.67184e-07
0.00496679
1.60111e-07
0.00496669
1.54752e-07
0.00496658
1.47057e-07
0.00496648
1.37774e-07
0.00496639
1.27499e-07
0.00496631
1.16924e-07
0.00496622
1.11354e-07
0.00496613
1.0594e-07
0.00496605
1.02754e-07
0.00496596
1.00477e-07
0.00496588
9.80195e-08
0.0049658
1.01882e-07
0.00496573
1.05365e-07
0.00496566
1.03692e-07
0.00496559
9.76446e-08
0.00496553
8.86873e-08
0.00496547
8.53142e-08
0.00496542
9.06804e-08
0.00496537
9.16715e-08
0.00496532
8.86783e-08
0.00496527
8.3121e-08
0.00496522
7.65719e-08
0.00496518
7.29551e-08
0.00496514
6.85642e-08
0.0049651
6.39394e-08
0.00496506
6.14872e-08
0.00496502
6.04648e-08
0.00496498
5.66883e-08
0.00496493
4.60086e-08
0.0049649
3.67884e-08
0.00496487
3.34046e-08
0.00496484
3.06135e-08
0.0049648
2.93635e-08
0.00496476
2.6894e-08
0.00496472
2.0612e-08
0.00496469
1.58591e-08
0.00496466
1.75454e-08
0.00496463
2.29707e-08
0.00496461
2.8622e-08
0.00496459
3.03031e-08
0.00496457
2.63931e-08
0.00496455
2.32196e-08
0.00496454
2.38595e-08
0.00496454
2.68029e-08
0.00496453
2.79845e-08
0.00496452
2.67324e-08
0.00496451
2.68241e-08
0.0049645
2.39284e-08
0.00496449
2.25928e-08
0.00496448
2.8389e-08
0.00496447
3.19025e-08
0.00496446
3.07271e-08
0.00496445
2.85829e-08
0.00496445
3.17623e-08
0.00496445
3.5204e-08
0.00496444
3.52876e-08
0.00496443
3.23295e-08
0.00496443
3.30603e-08
0.00496442
3.51335e-08
0.00496441
3.19437e-08
0.0049644
3.19534e-08
0.00496439
2.99516e-08
0.00496438
2.65874e-08
0.00496437
2.48134e-08
0.00496436
2.56411e-08
0.00496436
3.06751e-08
0.00496435
2.90616e-08
0.00496435
2.40038e-08
0.00496434
2.35803e-08
0.00496434
1.84756e-08
0.00496434
1.30005e-08
0.00496434
9.91473e-09
0.00496433
1.0309e-08
0.00496431
1.16125e-08
0.00496429
1.05509e-08
0.00496428
1.11557e-08
0.00496427
9.27548e-09
0.00496425
6.24806e-09
0.00496423
5.2217e-09
0.00496422
-2.02397e-09
-1.31059e-08
0.00616914
3.52045e-06
0.00617445
1.063e-05
0.00618034
1.57945e-05
0.00618618
1.95404e-05
0.00619185
2.25275e-05
0.00619718
2.49251e-05
0.00620207
2.67736e-05
0.00620647
2.81776e-05
0.00621041
2.92548e-05
0.00621389
3.0083e-05
0.00621694
3.07094e-05
0.00621959
3.11704e-05
0.00622184
3.14976e-05
0.00622374
3.17155e-05
0.0062253
3.18429e-05
0.00622653
3.18944e-05
0.00622747
3.18828e-05
0.00622812
3.18187e-05
0.00622851
3.17106e-05
0.00622865
3.15652e-05
0.00622855
3.13884e-05
0.00622823
3.11851e-05
0.0062277
3.09598e-05
0.00622697
3.0716e-05
0.00622606
3.04567e-05
0.00622497
3.01844e-05
0.00622372
2.99015e-05
0.00622231
2.961e-05
0.00622076
2.93118e-05
0.00621907
2.90086e-05
0.00621725
2.87016e-05
0.0062153
2.83919e-05
0.00621324
2.80804e-05
0.00621108
2.7768e-05
0.00620881
2.74553e-05
0.00620644
2.71431e-05
0.00620398
2.6832e-05
0.00620144
2.65225e-05
0.00619881
2.62152e-05
0.00619611
2.59104e-05
0.00619334
2.56085e-05
0.00619051
2.53097e-05
0.00618761
2.50142e-05
0.00618465
2.47221e-05
0.00618163
2.44337e-05
0.00617857
2.4149e-05
0.00617545
2.38682e-05
0.00617229
2.35915e-05
0.00616909
2.3319e-05
0.00616585
2.30505e-05
0.00616258
2.27862e-05
0.00615926
2.25261e-05
0.00615592
2.22703e-05
0.00615255
2.20186e-05
0.00614915
2.17712e-05
0.00614572
2.1528e-05
0.00614228
2.12889e-05
0.00613881
2.10539e-05
0.00613532
2.08229e-05
0.00613181
2.0596e-05
0.00612829
2.03731e-05
0.00612475
2.01541e-05
0.0061212
1.99391e-05
0.00611764
1.97278e-05
0.00611406
1.95202e-05
0.00611048
1.93165e-05
0.00610689
1.91164e-05
0.00610329
1.892e-05
0.00609969
1.87271e-05
0.00609608
1.85376e-05
0.00609246
1.83517e-05
0.00608885
1.81691e-05
0.00608523
1.79899e-05
0.00608161
1.7814e-05
0.00607799
1.76413e-05
0.00607437
1.74718e-05
0.00607075
1.73055e-05
0.00606714
1.71423e-05
0.00606352
1.6982e-05
0.00605991
1.68249e-05
0.00605631
1.66706e-05
0.0060527
1.65193e-05
0.00604911
1.63709e-05
0.00604551
1.62252e-05
0.00604193
1.60825e-05
0.00603835
1.59426e-05
0.00603478