/*--------------------------------*- C++ -*----------------------------------*\
  =========                 |
  \\      /  F ield         | OpenFOAM: The Open Source CFD Toolbox
   \\    /   O peration     | Website:  https://openfoam.org
    \\  /    A nd           | Version:  7
     \\/     M anipulation  |
\*---------------------------------------------------------------------------*/
FoamFile
{
    version     2.0;
    format      ascii;
    class       pointScalarField;
    location    "100";
    object      streamFunction;
}
// * * * * * * * * * * * * * * * * * * * * * * * * * * * * * * * * * * * * * //

dimensions      [0 3 -1 0 0 0 0];

internalField   nonuniform List<scalar> 
73322
(
-0.37
-0.37
-0.37
-0.37
-0.37
-0.37
-0.37
-0.37
-0.37
-0.37
-0.37
-0.37
-0.37
-0.37
-0.37
-0.37
-0.37
-0.37
-0.37
-0.37
-0.37
-0.37
-0.37
-0.37
-0.37
-0.37
-0.37
-0.37
-0.37
-0.37
-0.37
-0.37
-0.37
-0.37
-0.37
-0.37
-0.37
-0.37
-0.37
-0.37
-0.37
-0.37
-0.37
-0.37
-0.37
-0.37
-0.37
-0.37
-0.37
-0.37
-0.37
-0.37
-0.37
-0.37
-0.37
-0.37
-0.37
-0.37
-0.37
-0.37
-0.37
-0.37
-0.37
-0.37
-0.37
-0.37
-0.37
-0.37
-0.37
-0.37
-0.37
-0.37
-0.37
-0.37
-0.37
-0.37
-0.37
-0.37
-0.37
-0.37
-0.37
-0.37
-0.37
-0.37
-0.37
-0.37
-0.37
-0.37
-0.37
-0.37
-0.37
-0.37
-0.37
-0.37
-0.37
-0.37
-0.37
-0.37
-0.37
-0.37
-0.37
-0.37
-0.37
-0.37
-0.37
-0.37
-0.37
-0.37
-0.37
-0.37
-0.37
-0.37
-0.37
-0.37
-0.37
-0.37
-0.37
-0.37
-0.37
-0.37
-0.37
-0.37
-0.37
-0.37
-0.37
-0.37
-0.37
-0.37
-0.37
-0.37
-0.37
-0.37
-0.37
-0.37
-0.37
-0.37
-0.37
-0.37
-0.37
-0.37
-0.37
-0.37
-0.37
-0.37
-0.37
-0.37
-0.37
-0.37
-0.37
-0.37
-0.37
-0.37
-0.37
-0.37
-0.37
-0.37
-0.37
-0.37
-0.37
-0.37
-0.37
-0.37
-0.37
-0.37
-0.37
-0.37
-0.37
-0.37
-0.37
-0.37
-0.37
-0.37
-0.37
-0.37
-0.37
-0.37
-0.37
-0.37
-0.37
-0.37
-0.37
-0.37
-0.37
-0.37
-0.37
-0.37
-0.37
-0.37
-0.37
-0.37
-0.37
-0.37
-0.37
-0.37
-0.37
-0.37
-0.37
-0.37
-0.37
-0.37
-0.37
-0.37
-0.37
-0.37
-0.37
-0.37
-0.37
-0.37
-0.37
-0.37
-0.37
-0.37
-0.37
-0.37
-0.37
-0.37
-0.37
-0.37
-0.37
-0.37
-0.37
-0.37
-0.37
-0.37
-0.37
-0.37
-0.37
-0.37
-0.37
-0.37
-0.37
-0.37
-0.37
-0.37
-0.37
-0.37
-0.37
-0.37
-0.37
-0.37
-0.37
-0.37
-0.37
-0.37
-0.37
-0.37
-0.37
-0.37
-0.37
-0.37
-0.37
-0.37
-0.37
-0.37
-0.37
-0.37
-0.37
-0.37
-0.37
-0.37
-0.37
-0.37
-0.37
-0.37
-0.37
-0.37
-0.37
-0.37
-0.37
-0.37
-0.37
-0.37
-0.37
-0.37
-0.37
-0.37
-0.37
-0.37
-0.37
-0.37
-0.37
-0.37
-0.37
-0.37
-0.37
-0.37
-0.37
-0.37
-0.37
-0.37
-0.37
-0.37
-0.37
-0.37
-0.37
-0.37
-0.37
-0.37
-0.37
-0.37
-0.37
-0.37
-0.37
-0.37
-0.37
-0.37
-0.37
-0.37
-0.37
-0.37
-0.37
-0.37
-0.37
-0.37
-0.37
-0.37
-0.37
-0.37
-0.37
-0.37
-0.37
-0.37
-0.37
-0.37
-0.37
-0.37
-0.37
-0.37
-0.37
-0.37
-0.37
-0.37
-0.37
-0.37
-0.37
-0.37
-0.37
-0.37
-0.37
-0.37
-0.37
-0.37
-0.37
-0.37
-0.37
-0.37
-0.37
-0.37
-0.37
-0.37
-0.37
-0.37
-0.37
-0.37
-0.37
-0.37
-0.37
-0.37
-0.37
-0.37
-0.37
-0.37
-0.37
-0.37
-0.37
-0.37
-0.37
-0.37
-0.37
-0.37
-0.37
-0.37
-0.37
-0.37
-0.37
-0.37
-0.37
-0.37
-0.37
-0.37
-0.37
-0.37
-0.37
-0.37
-0.37
-0.37
-0.37
-0.37
-0.37
-0.37
-0.37
-0.37
-0.37
-0.37
-0.37
-0.37
-0.37
-0.37
-0.37
-0.37
-0.37
-0.37
-0.37
-0.37
-0.37
-0.37
-0.37
-0.37
-0.37
-0.37
-0.37
-0.37
-0.37
-0.37
-0.37
-0.37
-0.37
-0.37
-0.37
-0.37
-0.37
-0.37
-0.37
-0.37
-0.37
-0.37
-0.37
-0.37
-0.37
-0.37
-0.37
-0.37
-0.37
-0.37
-0.37
-0.37
-0.37
-0.37
-0.37
-0.37
-0.37
-0.37
-0.37
-0.37
-0.37
-0.37
-0.37
-0.37
-0.37
-0.37
-0.37
-0.37
-0.37
-0.37
-0.37
-0.37
-0.37
-0.37
-0.37
-0.37
-0.37
-0.37
-0.37
-0.37
-0.37
-0.37
-0.37
-0.37
-0.37
-0.37
-0.37
-0.37
-0.37
-0.37
-0.37
-0.37
-0.37
-0.37
-0.37
-0.37
-0.37
-0.37
-0.37
-0.37
-0.37
-0.37
-0.37
-0.37
-0.37
-0.37
-0.37
-0.37
-0.37
-0.37
-0.37
-0.37
-0.37
-0.37
-0.37
-0.37
-0.37
-0.37
-0.37
-0.37
-0.37
-0.37
-0.37
-0.37
-0.37
-0.37
-0.37
-0.37
-0.37
-0.37
-0.37
-0.37
-0.37
-0.37
-0.37
-0.37
-0.37
-0.37
-0.37
-0.37
-0.37
-0.37
-0.37
-0.37
-0.37
-0.37
-0.37
-0.37
-0.37
-0.37
-0.37
-0.37
-0.37
-0.37
-0.37
-0.37
-0.37
-0.37
-0.37
-0.37
-0.37
-0.37
-0.37
-0.37
-0.37
-0.37
-0.37
-0.37
-0.37
-0.37
-0.37
-0.37
-0.37
-0.37
-0.37
-0.37
-0.37
-0.37
-0.37
-0.37
-0.37
-0.37
-0.37
-0.37
-0.37
-0.37
-0.37
-0.37
-0.37
-0.37
-0.37
-0.37
-0.37
-0.37
-0.37
-0.37
-0.37
-0.37
-0.37
-0.37
-0.37
-0.37
-0.37
-0.37
-0.37
-0.37
-0.37
-0.37
-0.37
-0.37
-0.37
-0.37
-0.37
-0.37
-0.37
-0.37
-0.37
-0.363834
-0.363853
-0.363882
-0.363915
-0.36395
-0.363987
-0.364024
-0.36406
-0.364097
-0.364132
-0.364167
-0.364201
-0.364234
-0.364267
-0.364298
-0.364329
-0.364358
-0.364387
-0.364415
-0.364442
-0.364468
-0.364494
-0.364519
-0.364543
-0.364567
-0.36459
-0.364612
-0.364633
-0.364654
-0.364675
-0.364695
-0.364714
-0.364733
-0.364751
-0.364769
-0.364787
-0.364804
-0.36482
-0.364836
-0.364852
-0.364867
-0.364882
-0.364897
-0.364911
-0.364925
-0.364938
-0.364952
-0.364965
-0.364977
-0.36499
-0.365002
-0.365014
-0.365025
-0.365037
-0.365048
-0.365059
-0.365069
-0.36508
-0.36509
-0.3651
-0.36511
-0.36512
-0.365129
-0.365138
-0.365147
-0.365156
-0.365165
-0.365174
-0.365182
-0.365191
-0.365199
-0.365207
-0.365215
-0.365223
-0.36523
-0.365238
-0.365245
-0.365253
-0.36526
-0.365267
-0.365274
-0.365281
-0.365288
-0.365295
-0.365301
-0.365308
-0.365314
-0.365321
-0.365327
-0.365333
-0.365339
-0.365345
-0.365351
-0.365357
-0.365363
-0.365369
-0.365375
-0.365381
-0.365387
-0.365392
-0.365398
-0.365404
-0.365409
-0.365415
-0.36542
-0.365426
-0.365431
-0.365436
-0.365442
-0.365447
-0.365452
-0.365457
-0.365462
-0.365467
-0.365472
-0.365477
-0.365482
-0.365487
-0.365492
-0.365496
-0.365501
-0.365506
-0.36551
-0.365515
-0.365519
-0.365524
-0.365528
-0.365532
-0.365537
-0.365541
-0.365545
-0.365549
-0.365553
-0.365557
-0.365561
-0.365566
-0.36557
-0.365573
-0.365577
-0.365581
-0.365585
-0.365589
-0.365593
-0.365596
-0.3656
-0.365604
-0.365607
-0.365611
-0.365614
-0.365618
-0.365621
-0.365625
-0.365628
-0.365632
-0.365635
-0.365639
-0.365642
-0.365645
-0.365649
-0.365652
-0.365655
-0.365658
-0.365661
-0.365665
-0.365668
-0.365671
-0.365674
-0.365677
-0.36568
-0.365683
-0.365686
-0.365689
-0.365692
-0.365695
-0.365698
-0.365701
-0.365704
-0.365707
-0.365709
-0.365712
-0.365715
-0.365718
-0.365721
-0.365723
-0.365726
-0.365729
-0.365731
-0.365734
-0.365737
-0.365739
-0.365742
-0.365744
-0.365747
-0.365749
-0.365752
-0.365755
-0.365757
-0.365759
-0.365762
-0.365764
-0.365767
-0.365769
-0.365771
-0.365774
-0.365776
-0.365778
-0.365781
-0.365783
-0.365785
-0.365788
-0.36579
-0.365792
-0.365794
-0.365796
-0.365799
-0.365801
-0.365803
-0.365805
-0.365807
-0.365809
-0.365811
-0.365814
-0.365816
-0.365818
-0.36582
-0.365822
-0.365824
-0.365826
-0.365828
-0.36583
-0.365832
-0.365834
-0.365836
-0.365838
-0.365839
-0.365841
-0.365843
-0.365845
-0.365847
-0.365849
-0.365851
-0.365852
-0.365854
-0.365856
-0.365857
-0.365859
-0.365861
-0.365862
-0.365864
-0.365865
-0.365867
-0.365869
-0.36587
-0.365872
-0.365873
-0.365874
-0.365876
-0.365877
-0.365878
-0.36588
-0.365881
-0.365882
-0.365884
-0.365885
-0.365886
-0.365888
-0.365889
-0.36589
-0.365891
-0.365892
-0.365894
-0.365895
-0.365896
-0.365897
-0.365898
-0.365899
-0.3659
-0.365901
-0.365902
-0.365903
-0.365905
-0.365906
-0.365907
-0.365908
-0.365909
-0.36591
-0.36591
-0.365911
-0.365912
-0.365913
-0.365914
-0.365915
-0.365916
-0.365917
-0.365918
-0.365918
-0.365919
-0.36592
-0.365921
-0.365922
-0.365923
-0.365924
-0.365924
-0.365925
-0.365926
-0.365927
-0.365928
-0.365928
-0.365929
-0.36593
-0.365931
-0.365931
-0.365932
-0.365933
-0.365934
-0.365934
-0.365935
-0.365936
-0.365937
-0.365937
-0.365938
-0.365939
-0.365939
-0.36594
-0.365941
-0.365941
-0.365942
-0.365943
-0.365943
-0.365944
-0.365945
-0.365945
-0.365946
-0.365947
-0.365947
-0.365948
-0.365948
-0.365949
-0.36595
-0.36595
-0.365951
-0.365952
-0.365952
-0.365953
-0.365953
-0.365954
-0.365955
-0.365955
-0.365956
-0.365956
-0.365957
-0.365958
-0.365958
-0.365959
-0.365959
-0.36596
-0.36596
-0.365961
-0.365961
-0.365962
-0.365963
-0.365963
-0.365964
-0.365964
-0.365965
-0.365965
-0.365966
-0.365966
-0.365967
-0.365967
-0.365968
-0.365968
-0.365969
-0.365969
-0.36597
-0.36597
-0.36597
-0.365971
-0.365971
-0.365972
-0.365972
-0.365973
-0.365973
-0.365974
-0.365974
-0.365975
-0.365975
-0.365975
-0.365976
-0.365976
-0.365977
-0.365977
-0.365978
-0.365978
-0.365978
-0.365979
-0.365979
-0.36598
-0.36598
-0.36598
-0.365981
-0.365981
-0.365982
-0.365982
-0.365982
-0.365983
-0.365983
-0.365983
-0.365984
-0.365984
-0.365985
-0.365985
-0.365985
-0.365986
-0.365986
-0.365986
-0.365987
-0.365987
-0.365987
-0.365988
-0.365988
-0.365988
-0.365989
-0.365989
-0.365989
-0.365989
-0.36599
-0.36599
-0.36599
-0.365991
-0.365991
-0.365991
-0.365991
-0.365992
-0.365992
-0.365992
-0.365992
-0.365993
-0.365993
-0.365993
-0.365993
-0.365994
-0.365994
-0.365994
-0.365994
-0.365995
-0.365995
-0.365995
-0.365995
-0.365996
-0.365996
-0.365996
-0.365996
-0.365996
-0.365997
-0.365997
-0.365997
-0.365997
-0.365997
-0.365997
-0.365998
-0.365998
-0.365998
-0.365998
-0.365998
-0.365999
-0.365999
-0.365999
-0.365999
-0.365999
-0.365999
-0.366
-0.366
-0.366
-0.366
-0.366
-0.366001
-0.366001
-0.366001
-0.366001
-0.366001
-0.366001
-0.366001
-0.366002
-0.366002
-0.366002
-0.366002
-0.366002
-0.366002
-0.366002
-0.366002
-0.366002
-0.366003
-0.366003
-0.366003
-0.366003
-0.366003
-0.366003
-0.366003
-0.366003
-0.366003
-0.366004
-0.366004
-0.366004
-0.366004
-0.366004
-0.366004
-0.366004
-0.366004
-0.366004
-0.366004
-0.366004
-0.366004
-0.366005
-0.366005
-0.366005
-0.366005
-0.366005
-0.366005
-0.366005
-0.366005
-0.366005
-0.366005
-0.366005
-0.366005
-0.366005
-0.366005
-0.366005
-0.366005
-0.366005
-0.366005
-0.366005
-0.366005
-0.366005
-0.366005
-0.366005
-0.366005
-0.366005
-0.366005
-0.366006
-0.366006
-0.366006
-0.366006
-0.366006
-0.366006
-0.366006
-0.366006
-0.366006
-0.366006
-0.366006
-0.366006
-0.366006
-0.366006
-0.366006
-0.366006
-0.366006
-0.366006
-0.366006
-0.366006
-0.366006
-0.366006
-0.366006
-0.366006
-0.366006
-0.366006
-0.366006
-0.366006
-0.366006
-0.366006
-0.366006
-0.366006
-0.366006
-0.366006
-0.366006
-0.366006
-0.366006
-0.366006
-0.366006
-0.366006
-0.366006
-0.366006
-0.366006
-0.366006
-0.366006
-0.366006
-0.366006
-0.366006
-0.366006
-0.366006
-0.366006
-0.366006
-0.366006
-0.366006
-0.366006
-0.366006
-0.366006
-0.366006
-0.366006
-0.366006
-0.366006
-0.366006
-0.357667
-0.357673
-0.357689
-0.35771
-0.357736
-0.357764
-0.357794
-0.357826
-0.357858
-0.357892
-0.357925
-0.357959
-0.357993
-0.358026
-0.35806
-0.358093
-0.358127
-0.358159
-0.358192
-0.358224
-0.358256
-0.358287
-0.358318
-0.358348
-0.358378
-0.358408
-0.358437
-0.358466
-0.358494
-0.358522
-0.358549
-0.358576
-0.358602
-0.358628
-0.358654
-0.358679
-0.358704
-0.358728
-0.358752
-0.358776
-0.358799
-0.358822
-0.358844
-0.358866
-0.358888
-0.35891
-0.358931
-0.358951
-0.358972
-0.358992
-0.359012
-0.359031
-0.35905
-0.359069
-0.359088
-0.359106
-0.359124
-0.359142
-0.35916
-0.359177
-0.359194
-0.359211
-0.359228
-0.359244
-0.35926
-0.359276
-0.359292
-0.359308
-0.359323
-0.359338
-0.359353
-0.359368
-0.359382
-0.359397
-0.359411
-0.359425
-0.359439
-0.359452
-0.359466
-0.359479
-0.359492
-0.359506
-0.359518
-0.359531
-0.359544
-0.359556
-0.359569
-0.359581
-0.359593
-0.359605
-0.359617
-0.359629
-0.35964
-0.359652
-0.359663
-0.359675
-0.359686
-0.359697
-0.359708
-0.359719
-0.35973
-0.35974
-0.359751
-0.359762
-0.359772
-0.359782
-0.359793
-0.359803
-0.359813
-0.359823
-0.359833
-0.359843
-0.359853
-0.359862
-0.359872
-0.359881
-0.359891
-0.3599
-0.359909
-0.359918
-0.359927
-0.359936
-0.359945
-0.359954
-0.359963
-0.359972
-0.35998
-0.359989
-0.359997
-0.360005
-0.360014
-0.360022
-0.36003
-0.360038
-0.360046
-0.360054
-0.360062
-0.36007
-0.360077
-0.360085
-0.360093
-0.3601
-0.360108
-0.360115
-0.360122
-0.36013
-0.360137
-0.360144
-0.360151
-0.360158
-0.360165
-0.360172
-0.360179
-0.360186
-0.360193
-0.3602
-0.360206
-0.360213
-0.36022
-0.360226
-0.360233
-0.360239
-0.360246
-0.360252
-0.360258
-0.360265
-0.360271
-0.360277
-0.360283
-0.360289
-0.360295
-0.360302
-0.360308
-0.360314
-0.360319
-0.360325
-0.360331
-0.360337
-0.360343
-0.360349
-0.360354
-0.36036
-0.360365
-0.360371
-0.360377
-0.360382
-0.360388
-0.360393
-0.360399
-0.360404
-0.360409
-0.360415
-0.36042
-0.360425
-0.36043
-0.360435
-0.360441
-0.360446
-0.360451
-0.360456
-0.360461
-0.360466
-0.360471
-0.360476
-0.360481
-0.360485
-0.36049
-0.360495
-0.3605
-0.360505
-0.360509
-0.360514
-0.360519
-0.360523
-0.360528
-0.360533
-0.360537
-0.360542
-0.360546
-0.360551
-0.360555
-0.36056
-0.360564
-0.360568
-0.360573
-0.360577
-0.360581
-0.360586
-0.36059
-0.360594
-0.360598
-0.360603
-0.360607
-0.360611
-0.360615
-0.360619
-0.360623
-0.360627
-0.360631
-0.360635
-0.360639
-0.360643
-0.360647
-0.360651
-0.360655
-0.360658
-0.360662
-0.360666
-0.360669
-0.360673
-0.360677
-0.36068
-0.360684
-0.360687
-0.360691
-0.360694
-0.360697
-0.360701
-0.360704
-0.360707
-0.36071
-0.360714
-0.360717
-0.36072
-0.360723
-0.360726
-0.360729
-0.360732
-0.360735
-0.360738
-0.360741
-0.360744
-0.360747
-0.36075
-0.360753
-0.360756
-0.360758
-0.360761
-0.360764
-0.360767
-0.360769
-0.360772
-0.360774
-0.360777
-0.36078
-0.360782
-0.360785
-0.360787
-0.360789
-0.360792
-0.360794
-0.360797
-0.360799
-0.360801
-0.360804
-0.360806
-0.360808
-0.36081
-0.360813
-0.360815
-0.360817
-0.360819
-0.360821
-0.360823
-0.360826
-0.360828
-0.36083
-0.360832
-0.360834
-0.360836
-0.360838
-0.36084
-0.360842
-0.360844
-0.360846
-0.360848
-0.36085
-0.360852
-0.360854
-0.360856
-0.360858
-0.360859
-0.360861
-0.360863
-0.360865
-0.360867
-0.360868
-0.36087
-0.360872
-0.360874
-0.360875
-0.360877
-0.360879
-0.360881
-0.360882
-0.360884
-0.360886
-0.360887
-0.360889
-0.36089
-0.360892
-0.360894
-0.360895
-0.360897
-0.360898
-0.3609
-0.360902
-0.360903
-0.360905
-0.360906
-0.360908
-0.360909
-0.360911
-0.360912
-0.360914
-0.360915
-0.360916
-0.360918
-0.360919
-0.360921
-0.360922
-0.360924
-0.360925
-0.360926
-0.360928
-0.360929
-0.36093
-0.360932
-0.360933
-0.360934
-0.360936
-0.360937
-0.360938
-0.360939
-0.360941
-0.360942
-0.360943
-0.360944
-0.360946
-0.360947
-0.360948
-0.360949
-0.360951
-0.360952
-0.360953
-0.360954
-0.360955
-0.360956
-0.360958
-0.360959
-0.36096
-0.360961
-0.360962
-0.360963
-0.360964
-0.360965
-0.360966
-0.360968
-0.360969
-0.36097
-0.360971
-0.360972
-0.360973
-0.360974
-0.360975
-0.360976
-0.360977
-0.360978
-0.360979
-0.36098
-0.360981
-0.360982
-0.360983
-0.360984
-0.360985
-0.360986
-0.360987
-0.360988
-0.360989
-0.360989
-0.36099
-0.360991
-0.360992
-0.360993
-0.360994
-0.360995
-0.360996
-0.360996
-0.360997
-0.360998
-0.360999
-0.361
-0.361
-0.361001
-0.361002
-0.361003
-0.361003
-0.361004
-0.361005
-0.361006
-0.361006
-0.361007
-0.361008
-0.361008
-0.361009
-0.36101
-0.36101
-0.361011
-0.361011
-0.361012
-0.361013
-0.361013
-0.361014
-0.361014
-0.361015
-0.361016
-0.361016
-0.361017
-0.361017
-0.361018
-0.361018
-0.361019
-0.361019
-0.36102
-0.36102
-0.361021
-0.361021
-0.361022
-0.361022
-0.361023
-0.361023
-0.361024
-0.361024
-0.361025
-0.361025
-0.361026
-0.361026
-0.361026
-0.361027
-0.361027
-0.361028
-0.361028
-0.361028
-0.361029
-0.361029
-0.361029
-0.36103
-0.36103
-0.361031
-0.361031
-0.361031
-0.361032
-0.361032
-0.361032
-0.361032
-0.361033
-0.361033
-0.361033
-0.361034
-0.361034
-0.361034
-0.361034
-0.361035
-0.361035
-0.361035
-0.361035
-0.361036
-0.361036
-0.361036
-0.361036
-0.361036
-0.361037
-0.361037
-0.361037
-0.361037
-0.361037
-0.361038
-0.361038
-0.361038
-0.361038
-0.361038
-0.361038
-0.361039
-0.361039
-0.361039
-0.361039
-0.361039
-0.361039
-0.361039
-0.361039
-0.361039
-0.361039
-0.36104
-0.36104
-0.36104
-0.36104
-0.36104
-0.36104
-0.36104
-0.36104
-0.36104
-0.36104
-0.36104
-0.361041
-0.361041
-0.361041
-0.361041
-0.361041
-0.361041
-0.361041
-0.361041
-0.361041
-0.361041
-0.361041
-0.361041
-0.361041
-0.361041
-0.361041
-0.361041
-0.361041
-0.361041
-0.361041
-0.361041
-0.361041
-0.361041
-0.361041
-0.361041
-0.361041
-0.361041
-0.361041
-0.361041
-0.361041
-0.361041
-0.361041
-0.361042
-0.361042
-0.361042
-0.361042
-0.361042
-0.361042
-0.361042
-0.361042
-0.361042
-0.361042
-0.361042
-0.361042
-0.361042
-0.361042
-0.361042
-0.361042
-0.361042
-0.361042
-0.361042
-0.361042
-0.361042
-0.361042
-0.361042
-0.361042
-0.361042
-0.361042
-0.361042
-0.3515
-0.351504
-0.351514
-0.35153
-0.351549
-0.351572
-0.351597
-0.351624
-0.351652
-0.351681
-0.351711
-0.351742
-0.351773
-0.351805
-0.351836
-0.351868
-0.3519
-0.351932
-0.351964
-0.351995
-0.352027
-0.352058
-0.35209
-0.352121
-0.352151
-0.352182
-0.352212
-0.352242
-0.352272
-0.352301
-0.35233
-0.352358
-0.352387
-0.352415
-0.352443
-0.35247
-0.352497
-0.352524
-0.352551
-0.352577
-0.352603
-0.352628
-0.352654
-0.352679
-0.352703
-0.352728
-0.352752
-0.352776
-0.352799
-0.352823
-0.352846
-0.352869
-0.352891
-0.352913
-0.352935
-0.352957
-0.352979
-0.353
-0.353021
-0.353042
-0.353062
-0.353083
-0.353103
-0.353123
-0.353143
-0.353162
-0.353182
-0.353201
-0.35322
-0.353238
-0.353257
-0.353275
-0.353293
-0.353311
-0.353329
-0.353347
-0.353364
-0.353382
-0.353399
-0.353416
-0.353433
-0.353449
-0.353466
-0.353482
-0.353498
-0.353514
-0.35353
-0.353546
-0.353562
-0.353577
-0.353593
-0.353608
-0.353623
-0.353638
-0.353653
-0.353668
-0.353683
-0.353697
-0.353712
-0.353726
-0.35374
-0.353754
-0.353769
-0.353782
-0.353796
-0.35381
-0.353824
-0.353837
-0.353851
-0.353864
-0.353877
-0.35389
-0.353903
-0.353916
-0.353929
-0.353942
-0.353954
-0.353967
-0.353979
-0.353991
-0.354004
-0.354016
-0.354028
-0.35404
-0.354051
-0.354063
-0.354075
-0.354086
-0.354098
-0.354109
-0.354121
-0.354132
-0.354143
-0.354154
-0.354165
-0.354176
-0.354187
-0.354197
-0.354208
-0.354218
-0.354229
-0.354239
-0.35425
-0.35426
-0.35427
-0.35428
-0.35429
-0.3543
-0.35431
-0.35432
-0.354329
-0.354339
-0.354349
-0.354358
-0.354368
-0.354377
-0.354387
-0.354396
-0.354405
-0.354414
-0.354423
-0.354433
-0.354442
-0.354451
-0.354459
-0.354468
-0.354477
-0.354486
-0.354494
-0.354503
-0.354512
-0.35452
-0.354529
-0.354537
-0.354545
-0.354554
-0.354562
-0.35457
-0.354578
-0.354587
-0.354595
-0.354603
-0.354611
-0.354619
-0.354627
-0.354634
-0.354642
-0.35465
-0.354658
-0.354665
-0.354673
-0.354681
-0.354688
-0.354696
-0.354703
-0.35471
-0.354718
-0.354725
-0.354733
-0.35474
-0.354747
-0.354754
-0.354761
-0.354768
-0.354775
-0.354782
-0.35479
-0.354796
-0.354803
-0.35481
-0.354817
-0.354824
-0.354831
-0.354837
-0.354844
-0.354851
-0.354858
-0.354864
-0.354871
-0.354877
-0.354884
-0.35489
-0.354897
-0.354903
-0.354909
-0.354916
-0.354922
-0.354928
-0.354935
-0.354941
-0.354947
-0.354953
-0.354959
-0.354965
-0.354972
-0.354978
-0.354984
-0.354989
-0.354995
-0.355001
-0.355007
-0.355013
-0.355019
-0.355024
-0.35503
-0.355036
-0.355041
-0.355047
-0.355052
-0.355058
-0.355063
-0.355069
-0.355074
-0.355079
-0.355085
-0.35509
-0.355095
-0.3551
-0.355105
-0.35511
-0.355115
-0.35512
-0.355125
-0.35513
-0.355135
-0.35514
-0.355145
-0.35515
-0.355154
-0.355159
-0.355164
-0.355168
-0.355173
-0.355178
-0.355182
-0.355187
-0.355191
-0.355195
-0.3552
-0.355204
-0.355208
-0.355212
-0.355217
-0.355221
-0.355225
-0.355229
-0.355233
-0.355237
-0.355241
-0.355245
-0.355249
-0.355253
-0.355256
-0.35526
-0.355264
-0.355268
-0.355271
-0.355275
-0.355279
-0.355282
-0.355286
-0.35529
-0.355293
-0.355297
-0.3553
-0.355304
-0.355307
-0.35531
-0.355314
-0.355317
-0.355321
-0.355324
-0.355327
-0.35533
-0.355334
-0.355337
-0.35534
-0.355343
-0.355346
-0.355349
-0.355353
-0.355356
-0.355359
-0.355362
-0.355365
-0.355368
-0.355371
-0.355374
-0.355377
-0.355379
-0.355382
-0.355385
-0.355388
-0.355391
-0.355394
-0.355396
-0.355399
-0.355402
-0.355405
-0.355407
-0.35541
-0.355413
-0.355415
-0.355418
-0.355421
-0.355423
-0.355426
-0.355428
-0.355431
-0.355433
-0.355436
-0.355438
-0.355441
-0.355443
-0.355445
-0.355448
-0.35545
-0.355453
-0.355455
-0.355457
-0.35546
-0.355462
-0.355464
-0.355466
-0.355469
-0.355471
-0.355473
-0.355475
-0.355478
-0.35548
-0.355482
-0.355484
-0.355486
-0.355488
-0.35549
-0.355493
-0.355495
-0.355497
-0.355499
-0.355501
-0.355503
-0.355505
-0.355507
-0.355509
-0.355511
-0.355513
-0.355515
-0.355517
-0.355519
-0.355521
-0.355523
-0.355525
-0.355526
-0.355528
-0.35553
-0.355532
-0.355534
-0.355536
-0.355538
-0.355539
-0.355541
-0.355543
-0.355545
-0.355546
-0.355548
-0.35555
-0.355552
-0.355553
-0.355555
-0.355557
-0.355558
-0.35556
-0.355562
-0.355563
-0.355565
-0.355567
-0.355568
-0.35557
-0.355571
-0.355573
-0.355574
-0.355576
-0.355577
-0.355579
-0.35558
-0.355582
-0.355583
-0.355584
-0.355586
-0.355587
-0.355589
-0.35559
-0.355591
-0.355593
-0.355594
-0.355595
-0.355596
-0.355598
-0.355599
-0.3556
-0.355601
-0.355602
-0.355604
-0.355605
-0.355606
-0.355607
-0.355608
-0.355609
-0.35561
-0.355611
-0.355612
-0.355613
-0.355614
-0.355615
-0.355616
-0.355617
-0.355618
-0.355619
-0.35562
-0.355621
-0.355622
-0.355623
-0.355624
-0.355625
-0.355626
-0.355626
-0.355627
-0.355628
-0.355629
-0.35563
-0.35563
-0.355631
-0.355632
-0.355633
-0.355633
-0.355634
-0.355635
-0.355635
-0.355636
-0.355637
-0.355637
-0.355638
-0.355639
-0.355639
-0.35564
-0.35564
-0.355641
-0.355642
-0.355642
-0.355643
-0.355643
-0.355644
-0.355644
-0.355645
-0.355645
-0.355646
-0.355646
-0.355647
-0.355647
-0.355648
-0.355648
-0.355649
-0.355649
-0.355649
-0.35565
-0.35565
-0.35565
-0.355651
-0.355651
-0.355651
-0.355652
-0.355652
-0.355652
-0.355653
-0.355653
-0.355653
-0.355654
-0.355654
-0.355654
-0.355654
-0.355655
-0.355655
-0.355655
-0.355655
-0.355655
-0.355656
-0.355656
-0.355656
-0.355656
-0.355657
-0.355657
-0.355657
-0.355657
-0.355657
-0.355657
-0.355658
-0.355658
-0.355658
-0.355658
-0.355658
-0.355658
-0.355658
-0.355658
-0.355658
-0.355659
-0.355659
-0.355659
-0.355659
-0.355659
-0.355659
-0.355659
-0.355659
-0.355659
-0.355659
-0.355659
-0.355659
-0.355659
-0.35566
-0.35566
-0.35566
-0.35566
-0.35566
-0.35566
-0.35566
-0.35566
-0.35566
-0.35566
-0.35566
-0.35566
-0.35566
-0.35566
-0.35566
-0.35566
-0.35566
-0.35566
-0.35566
-0.35566
-0.35566
-0.35566
-0.35566
-0.35566
-0.35566
-0.35566
-0.355661
-0.355661
-0.355661
-0.355661
-0.355661
-0.355661
-0.355661
-0.355661
-0.355661
-0.355661
-0.355661
-0.355661
-0.355661
-0.355661
-0.355661
-0.355661
-0.355661
-0.355661
-0.345334
-0.345336
-0.345344
-0.345356
-0.345372
-0.345391
-0.345412
-0.345435
-0.34546
-0.345485
-0.345512
-0.34554
-0.345569
-0.345598
-0.345627
-0.345657
-0.345687
-0.345717
-0.345747
-0.345777
-0.345807
-0.345838
-0.345868
-0.345898
-0.345928
-0.345958
-0.345987
-0.346017
-0.346046
-0.346075
-0.346104
-0.346133
-0.346161
-0.346189
-0.346217
-0.346245
-0.346272
-0.3463
-0.346327
-0.346353
-0.34638
-0.346406
-0.346432
-0.346458
-0.346484
-0.346509
-0.346534
-0.346559
-0.346584
-0.346608
-0.346632
-0.346656
-0.34668
-0.346704
-0.346727
-0.34675
-0.346773
-0.346796
-0.346818
-0.34684
-0.346862
-0.346884
-0.346906
-0.346927
-0.346949
-0.34697
-0.346991
-0.347012
-0.347032
-0.347053
-0.347073
-0.347093
-0.347113
-0.347133
-0.347152
-0.347172
-0.347191
-0.34721
-0.347229
-0.347248
-0.347267
-0.347285
-0.347303
-0.347322
-0.34734
-0.347358
-0.347376
-0.347393
-0.347411
-0.347428
-0.347446
-0.347463
-0.34748
-0.347497
-0.347514
-0.347531
-0.347547
-0.347564
-0.34758
-0.347597
-0.347613
-0.347629
-0.347645
-0.347661
-0.347677
-0.347693
-0.347708
-0.347724
-0.347739
-0.347754
-0.34777
-0.347785
-0.3478
-0.347815
-0.347829
-0.347844
-0.347859
-0.347873
-0.347888
-0.347902
-0.347916
-0.34793
-0.347944
-0.347958
-0.347972
-0.347986
-0.347999
-0.348013
-0.348027
-0.34804
-0.348053
-0.348066
-0.348079
-0.348093
-0.348105
-0.348118
-0.348131
-0.348144
-0.348156
-0.348169
-0.348181
-0.348194
-0.348206
-0.348218
-0.34823
-0.348242
-0.348254
-0.348266
-0.348278
-0.34829
-0.348301
-0.348313
-0.348324
-0.348336
-0.348347
-0.348359
-0.34837
-0.348381
-0.348392
-0.348403
-0.348414
-0.348425
-0.348436
-0.348447
-0.348458
-0.348468
-0.348479
-0.34849
-0.3485
-0.348511
-0.348521
-0.348531
-0.348542
-0.348552
-0.348562
-0.348572
-0.348582
-0.348592
-0.348602
-0.348612
-0.348622
-0.348632
-0.348641
-0.348651
-0.348661
-0.34867
-0.34868
-0.348689
-0.348699
-0.348708
-0.348718
-0.348727
-0.348736
-0.348745
-0.348755
-0.348764
-0.348773
-0.348782
-0.348791
-0.3488
-0.348809
-0.348818
-0.348826
-0.348835
-0.348844
-0.348853
-0.348861
-0.34887
-0.348879
-0.348887
-0.348896
-0.348904
-0.348912
-0.348921
-0.348929
-0.348937
-0.348946
-0.348954
-0.348962
-0.34897
-0.348978
-0.348986
-0.348994
-0.349002
-0.34901
-0.349018
-0.349026
-0.349034
-0.349042
-0.34905
-0.349057
-0.349065
-0.349073
-0.34908
-0.349088
-0.349096
-0.349103
-0.349111
-0.349118
-0.349125
-0.349133
-0.34914
-0.349147
-0.349155
-0.349162
-0.349169
-0.349176
-0.349183
-0.34919
-0.349197
-0.349204
-0.349211
-0.349218
-0.349225
-0.349232
-0.349238
-0.349245
-0.349252
-0.349258
-0.349265
-0.349271
-0.349278
-0.349284
-0.349291
-0.349297
-0.349303
-0.34931
-0.349316
-0.349322
-0.349328
-0.349335
-0.349341
-0.349347
-0.349353
-0.349359
-0.349365
-0.349371
-0.349376
-0.349382
-0.349388
-0.349394
-0.349399
-0.349405
-0.34941
-0.349416
-0.349421
-0.349427
-0.349432
-0.349437
-0.349443
-0.349448
-0.349453
-0.349458
-0.349464
-0.349469
-0.349474
-0.349479
-0.349484
-0.349489
-0.349494
-0.349498
-0.349503
-0.349508
-0.349513
-0.349518
-0.349522
-0.349527
-0.349532
-0.349536
-0.349541
-0.349546
-0.34955
-0.349554
-0.349559
-0.349563
-0.349568
-0.349572
-0.349576
-0.349581
-0.349585
-0.349589
-0.349593
-0.349598
-0.349602
-0.349606
-0.34961
-0.349614
-0.349618
-0.349622
-0.349626
-0.34963
-0.349634
-0.349638
-0.349642
-0.349646
-0.349649
-0.349653
-0.349657
-0.349661
-0.349664
-0.349668
-0.349672
-0.349675
-0.349679
-0.349683
-0.349686
-0.34969
-0.349693
-0.349697
-0.3497
-0.349704
-0.349707
-0.34971
-0.349714
-0.349717
-0.34972
-0.349724
-0.349727
-0.34973
-0.349733
-0.349737
-0.34974
-0.349743
-0.349746
-0.349749
-0.349752
-0.349755
-0.349758
-0.349762
-0.349765
-0.349768
-0.349771
-0.349774
-0.349777
-0.34978
-0.349783
-0.349785
-0.349788
-0.349791
-0.349794
-0.349797
-0.3498
-0.349803
-0.349805
-0.349808
-0.349811
-0.349814
-0.349816
-0.349819
-0.349822
-0.349825
-0.349827
-0.34983
-0.349832
-0.349835
-0.349838
-0.34984
-0.349843
-0.349845
-0.349848
-0.349851
-0.349853
-0.349855
-0.349858
-0.34986
-0.349863
-0.349865
-0.349868
-0.34987
-0.349872
-0.349875
-0.349877
-0.349879
-0.349882
-0.349884
-0.349886
-0.349888
-0.349891
-0.349893
-0.349895
-0.349897
-0.349899
-0.349901
-0.349903
-0.349905
-0.349907
-0.349909
-0.349911
-0.349913
-0.349915
-0.349917
-0.349919
-0.349921
-0.349923
-0.349925
-0.349926
-0.349928
-0.34993
-0.349932
-0.349933
-0.349935
-0.349937
-0.349938
-0.34994
-0.349942
-0.349943
-0.349945
-0.349946
-0.349948
-0.349949
-0.349951
-0.349952
-0.349954
-0.349955
-0.349956
-0.349958
-0.349959
-0.34996
-0.349962
-0.349963
-0.349964
-0.349965
-0.349967
-0.349968
-0.349969
-0.34997
-0.349971
-0.349972
-0.349973
-0.349975
-0.349976
-0.349977
-0.349978
-0.349979
-0.34998
-0.349981
-0.349982
-0.349983
-0.349983
-0.349984
-0.349985
-0.349986
-0.349987
-0.349988
-0.349989
-0.349989
-0.34999
-0.349991
-0.349992
-0.349992
-0.349993
-0.349994
-0.349995
-0.349995
-0.349996
-0.349997
-0.349997
-0.349998
-0.349998
-0.349999
-0.35
-0.35
-0.350001
-0.350001
-0.350002
-0.350002
-0.350003
-0.350003
-0.350004
-0.350004
-0.350005
-0.350005
-0.350005
-0.350006
-0.350006
-0.350007
-0.350007
-0.350007
-0.350008
-0.350008
-0.350008
-0.350009
-0.350009
-0.350009
-0.35001
-0.35001
-0.35001
-0.35001
-0.350011
-0.350011
-0.350011
-0.350011
-0.350012
-0.350012
-0.350012
-0.350012
-0.350012
-0.350013
-0.350013
-0.350013
-0.350013
-0.350013
-0.350013
-0.350013
-0.350014
-0.350014
-0.350014
-0.350014
-0.350014
-0.350014
-0.350014
-0.350014
-0.350014
-0.350015
-0.350015
-0.350015
-0.350015
-0.350015
-0.350015
-0.350015
-0.350015
-0.350015
-0.350015
-0.350015
-0.350015
-0.350015
-0.350015
-0.350015
-0.350015
-0.350016
-0.350015
-0.350016
-0.350016
-0.350016
-0.350016
-0.350016
-0.350016
-0.350016
-0.350016
-0.350016
-0.350016
-0.350016
-0.350016
-0.350016
-0.350016
-0.350016
-0.350016
-0.350016
-0.350016
-0.350016
-0.350016
-0.350016
-0.350016
-0.350016
-0.350017
-0.350017
-0.350017
-0.350017
-0.350017
-0.350017
-0.350017
-0.339167
-0.339169
-0.339175
-0.339185
-0.339198
-0.339214
-0.339232
-0.339253
-0.339274
-0.339297
-0.339322
-0.339347
-0.339373
-0.3394
-0.339427
-0.339454
-0.339482
-0.33951
-0.339539
-0.339567
-0.339596
-0.339625
-0.339653
-0.339682
-0.339711
-0.339739
-0.339768
-0.339796
-0.339825
-0.339853
-0.339881
-0.339909
-0.339936
-0.339964
-0.339991
-0.340019
-0.340046
-0.340072
-0.340099
-0.340126
-0.340152
-0.340178
-0.340204
-0.34023
-0.340255
-0.34028
-0.340306
-0.34033
-0.340355
-0.34038
-0.340404
-0.340428
-0.340452
-0.340476
-0.3405
-0.340523
-0.340546
-0.340569
-0.340592
-0.340615
-0.340637
-0.34066
-0.340682
-0.340704
-0.340726
-0.340748
-0.340769
-0.340791
-0.340812
-0.340833
-0.340854
-0.340875
-0.340895
-0.340916
-0.340936
-0.340956
-0.340976
-0.340996
-0.341016
-0.341036
-0.341055
-0.341075
-0.341094
-0.341113
-0.341132
-0.341151
-0.34117
-0.341188
-0.341207
-0.341225
-0.341244
-0.341262
-0.34128
-0.341298
-0.341316
-0.341334
-0.341351
-0.341369
-0.341386
-0.341404
-0.341421
-0.341438
-0.341455
-0.341472
-0.341489
-0.341506
-0.341523
-0.341539
-0.341556
-0.341572
-0.341588
-0.341605
-0.341621
-0.341637
-0.341653
-0.341668
-0.341684
-0.3417
-0.341715
-0.341731
-0.341746
-0.341762
-0.341777
-0.341792
-0.341807
-0.341822
-0.341837
-0.341852
-0.341866
-0.341881
-0.341895
-0.34191
-0.341924
-0.341938
-0.341953
-0.341967
-0.341981
-0.341995
-0.342008
-0.342022
-0.342036
-0.34205
-0.342063
-0.342077
-0.34209
-0.342103
-0.342116
-0.34213
-0.342143
-0.342156
-0.342169
-0.342181
-0.342194
-0.342207
-0.34222
-0.342232
-0.342245
-0.342257
-0.34227
-0.342282
-0.342294
-0.342306
-0.342318
-0.342331
-0.342343
-0.342354
-0.342366
-0.342378
-0.34239
-0.342402
-0.342413
-0.342425
-0.342436
-0.342448
-0.342459
-0.342471
-0.342482
-0.342493
-0.342504
-0.342516
-0.342527
-0.342538
-0.342549
-0.34256
-0.34257
-0.342581
-0.342592
-0.342603
-0.342614
-0.342624
-0.342635
-0.342645
-0.342656
-0.342666
-0.342677
-0.342687
-0.342697