/*--------------------------------*- C++ -*----------------------------------*\
  =========                 |
  \\      /  F ield         | OpenFOAM: The Open Source CFD Toolbox
   \\    /   O peration     | Website:  https://openfoam.org
    \\  /    A nd           | Version:  7
     \\/     M anipulation  |
\*---------------------------------------------------------------------------*/
FoamFile
{
    version     2.0;
    format      ascii;
    class       volVectorField;
    location    "100";
    object      U;
}
// * * * * * * * * * * * * * * * * * * * * * * * * * * * * * * * * * * * * * //

dimensions      [0 1 -1 0 0 0 0];

internalField   nonuniform List<vector> 
36000
(
(1.84578 0.00286817 0)
(1.83914 0.00677554 0)
(1.83097 0.00886779 0)
(1.82072 0.0100021 0)
(1.80958 0.0106851 0)
(1.79841 0.011056 0)
(1.78735 0.0111675 0)
(1.77639 0.0110924 0)
(1.76558 0.0108978 0)
(1.75499 0.0106258 0)
(1.74465 0.0103089 0)
(1.73457 0.00996185 0)
(1.72476 0.00959744 0)
(1.71521 0.00922721 0)
(1.70594 0.0088581 0)
(1.69692 0.00849433 0)
(1.68817 0.008139 0)
(1.67966 0.0077946 0)
(1.67139 0.00746287 0)
(1.66337 0.00714468 0)
(1.65557 0.00684013 0)
(1.64799 0.00654909 0)
(1.64063 0.00627136 0)
(1.63348 0.0060067 0)
(1.62652 0.00575479 0)
(1.61976 0.00551526 0)
(1.61319 0.00528757 0)
(1.6068 0.00507124 0)
(1.60058 0.00486574 0)
(1.59453 0.00467045 0)
(1.58865 0.00448479 0)
(1.58292 0.0043083 0)
(1.57734 0.00414054 0)
(1.57191 0.00398101 0)
(1.56662 0.00382928 0)
(1.56146 0.00368499 0)
(1.55644 0.00354775 0)
(1.55154 0.00341713 0)
(1.54677 0.0032928 0)
(1.54211 0.00317443 0)
(1.53757 0.00306168 0)
(1.53314 0.00295427 0)
(1.52882 0.0028519 0)
(1.52459 0.00275433 0)
(1.52047 0.00266131 0)
(1.51644 0.00257258 0)
(1.51251 0.00248796 0)
(1.50866 0.00240731 0)
(1.5049 0.00233034 0)
(1.50123 0.00225681 0)
(1.49763 0.0021866 0)
(1.49411 0.00211958 0)
(1.49067 0.00205553 0)
(1.4873 0.00199429 0)
(1.484 0.00193579 0)
(1.48077 0.00187993 0)
(1.4776 0.00182648 0)
(1.4745 0.00177525 0)
(1.47146 0.00172624 0)
(1.46847 0.00167941 0)
(1.46555 0.00163461 0)
(1.46268 0.00159165 0)
(1.45987 0.00155049 0)
(1.4571 0.0015111 0)
(1.45439 0.00147337 0)
(1.45173 0.00143721 0)
(1.44911 0.00140253 0)
(1.44654 0.00136926 0)
(1.44402 0.0013374 0)
(1.44154 0.00130691 0)
(1.4391 0.00127764 0)
(1.4367 0.00124956 0)
(1.43433 0.00122269 0)
(1.43201 0.00119694 0)
(1.42973 0.00117226 0)
(1.42748 0.00114864 0)
(1.42526 0.00112599 0)
(1.42308 0.00110426 0)
(1.42093 0.00108344 0)
(1.41881 0.00106349 0)
(1.41672 0.00104435 0)
(1.41466 0.00102592 0)
(1.41263 0.00100812 0)
(1.41062 0.000991016 0)
(1.40865 0.000974577 0)
(1.4067 0.000958665 0)
(1.40477 0.000943251 0)
(1.40287 0.000928443 0)
(1.40099 0.000914324 0)
(1.39914 0.000901106 0)
(1.39731 0.000889273 0)
(1.39549 0.00087996 0)
(1.3937 0.000873853 0)
(1.39191 0.000870218 0)
(1.39014 0.000867858 0)
(1.38838 0.000865905 0)
(1.38664 0.000863988 0)
(1.38491 0.000861951 0)
(1.38319 0.000859636 0)
(1.38148 0.000856905 0)
(1.37979 0.000853656 0)
(1.37811 0.000849861 0)
(1.37645 0.000845534 0)
(1.37479 0.000840701 0)
(1.37316 0.000835384 0)
(1.37154 0.000829609 0)
(1.36993 0.000823443 0)
(1.36834 0.000816911 0)
(1.36676 0.000809966 0)
(1.3652 0.000802623 0)
(1.36365 0.000795047 0)
(1.36212 0.000787324 0)
(1.3606 0.000779443 0)
(1.3591 0.000771379 0)
(1.35762 0.000763139 0)
(1.35615 0.000754783 0)
(1.35469 0.000746381 0)
(1.35325 0.000737988 0)
(1.35183 0.000729614 0)
(1.35042 0.000721208 0)
(1.34903 0.000712766 0)
(1.34765 0.000704395 0)
(1.34628 0.000696168 0)
(1.34493 0.000688003 0)
(1.34359 0.000679829 0)
(1.34227 0.000671749 0)
(1.34096 0.000663886 0)
(1.33967 0.000656161 0)
(1.33838 0.000648475 0)
(1.33711 0.000640869 0)
(1.33586 0.00063344 0)
(1.33461 0.000626244 0)
(1.33338 0.000619244 0)
(1.33216 0.000612319 0)
(1.33095 0.000605449 0)
(1.32976 0.000598778 0)
(1.32858 0.00059237 0)
(1.3274 0.000586165 0)
(1.32624 0.00058008 0)
(1.32509 0.000574083 0)
(1.32395 0.000568233 0)
(1.32282 0.000562585 0)
(1.3217 0.00055714 0)
(1.32059 0.000551875 0)
(1.31948 0.000546732 0)
(1.31839 0.000541706 0)
(1.31731 0.000536797 0)
(1.31624 0.000531986 0)
(1.31517 0.00052732 0)
(1.31412 0.000522835 0)
(1.31307 0.000518434 0)
(1.31203 0.000514041 0)
(1.311 0.000509721 0)
(1.30997 0.000505515 0)
(1.30896 0.000501386 0)
(1.30795 0.000497267 0)
(1.30695 0.000493194 0)
(1.30596 0.000489228 0)
(1.30497 0.000485323 0)
(1.304 0.000481406 0)
(1.30303 0.000477464 0)
(1.30206 0.000473525 0)
(1.30111 0.000469666 0)
(1.30016 0.000465853 0)
(1.29922 0.000461971 0)
(1.29829 0.000458071 0)
(1.29736 0.000454251 0)
(1.29644 0.000450467 0)
(1.29553 0.000446678 0)
(1.29462 0.00044292 0)
(1.29372 0.000439185 0)
(1.29283 0.000435429 0)
(1.29194 0.000431656 0)
(1.29106 0.000427975 0)
(1.29019 0.000424373 0)
(1.28933 0.000420744 0)
(1.28847 0.000417071 0)
(1.28761 0.000413471 0)
(1.28677 0.000409935 0)
(1.28593 0.000406385 0)
(1.28509 0.000402851 0)
(1.28426 0.000399398 0)
(1.28344 0.000395977 0)
(1.28263 0.000392529 0)
(1.28182 0.000389126 0)
(1.28101 0.000385798 0)
(1.28021 0.000382439 0)
(1.27942 0.000379079 0)
(1.27864 0.000375819 0)
(1.27785 0.00037259 0)
(1.27708 0.000369378 0)
(1.27631 0.000366209 0)
(1.27555 0.000362997 0)
(1.27479 0.000359755 0)
(1.27404 0.00035655 0)
(1.27329 0.000353281 0)
(1.27255 0.000349967 0)
(1.27181 0.000346661 0)
(1.27108 0.000343341 0)
(1.27036 0.000339986 0)
(1.26964 0.000336596 0)
(1.26892 0.000333207 0)
(1.26821 0.000329894 0)
(1.26751 0.000326707 0)
(1.26681 0.000323618 0)
(1.26612 0.000320646 0)
(1.26543 0.000317704 0)
(1.26475 0.00031475 0)
(1.26407 0.000312018 0)
(1.2634 0.000309578 0)
(1.26273 0.000307259 0)
(1.26206 0.000304953 0)
(1.2614 0.000302596 0)
(1.26075 0.000300147 0)
(1.2601 0.0002977 0)
(1.25945 0.000295221 0)
(1.25881 0.000292775 0)
(1.25817 0.000290388 0)
(1.25753 0.000288069 0)
(1.2569 0.000285956 0)
(1.25627 0.000284318 0)
(1.25565 0.000282816 0)
(1.25503 0.000281213 0)
(1.25441 0.000279338 0)
(1.25379 0.000277555 0)
(1.25318 0.000275853 0)
(1.25258 0.000273901 0)
(1.25197 0.000271564 0)
(1.25138 0.000268929 0)
(1.25078 0.000266011 0)
(1.25019 0.000262696 0)
(1.24961 0.000259281 0)
(1.24903 0.000255508 0)
(1.24846 0.000251835 0)
(1.24789 0.000248031 0)
(1.24733 0.000244533 0)
(1.24678 0.000241327 0)
(1.24623 0.000238066 0)
(1.24568 0.00023407 0)
(1.24515 0.000229394 0)
(1.24462 0.000224234 0)
(1.24409 0.000219215 0)
(1.24358 0.000214521 0)
(1.24307 0.000209688 0)
(1.24257 0.000205139 0)
(1.24207 0.000200817 0)
(1.24158 0.000195853 0)
(1.2411 0.00019132 0)
(1.24062 0.000186288 0)
(1.24015 0.000180846 0)
(1.23969 0.000174981 0)
(1.23924 0.000167466 0)
(1.23879 0.000158674 0)
(1.23836 0.00015146 0)
(1.23793 0.000149765 0)
(1.2375 0.000145368 0)
(1.23709 0.00014271 0)
(1.23668 0.000142451 0)
(1.23627 0.000141514 0)
(1.23587 0.000142267 0)
(1.23548 0.000139372 0)
(1.23509 0.000135123 0)
(1.2347 0.000131458 0)
(1.23432 0.000128027 0)
(1.23395 0.000124212 0)
(1.23358 0.000121218 0)
(1.23322 0.000119149 0)
(1.23285 0.000116577 0)
(1.2325 0.000112934 0)
(1.23214 0.000109711 0)
(1.23179 0.000106536 0)
(1.23145 0.000103366 0)
(1.23111 9.92079e-05 0)
(1.23077 9.63857e-05 0)
(1.23044 9.6466e-05 0)
(1.23011 9.47793e-05 0)
(1.22979 9.4705e-05 0)
(1.22946 9.82466e-05 0)
(1.22914 0.000102127 0)
(1.22882 0.000104294 0)
(1.22851 0.000102929 0)
(1.2282 9.87239e-05 0)
(1.22789 9.31038e-05 0)
(1.22759 8.56361e-05 0)
(1.22731 7.89851e-05 0)
(1.22703 7.5283e-05 0)
(1.22675 7.34464e-05 0)
(1.22647 7.19361e-05 0)
(1.2262 7.0339e-05 0)
(1.22593 6.94156e-05 0)
(1.22567 6.79977e-05 0)
(1.22541 6.4969e-05 0)
(1.22515 6.29146e-05 0)
(1.22489 6.26176e-05 0)
(1.22464 6.03921e-05 0)
(1.22438 6.20563e-05 0)
(1.22413 6.49938e-05 0)
(1.22388 6.73653e-05 0)
(1.22362 7.18352e-05 0)
(1.22337 7.26708e-05 0)
(1.22312 7.18249e-05 0)
(1.22287 6.76957e-05 0)
(1.22263 6.4594e-05 0)
(1.22239 6.67567e-05 0)
(1.22214 6.47685e-05 0)
(1.2219 6.15462e-05 0)
(1.22166 6.25981e-05 0)
(1.22142 6.56698e-05 0)
(1.22119 6.97967e-05 0)
(1.22095 7.15352e-05 0)
(1.22072 7.00571e-05 0)
(1.22049 6.63749e-05 0)
(1.22027 6.01758e-05 0)
(1.22005 5.62372e-05 0)
(1.21983 5.46567e-05 0)
(1.21961 5.20898e-05 0)
(1.2194 5.09614e-05 0)
(1.21919 5.32873e-05 0)
(1.21898 5.47122e-05 0)
(1.21877 5.65447e-05 0)
(1.21856 6.14893e-05 0)
(1.21835 6.32581e-05 0)
(1.21815 6.20142e-05 0)
(1.21794 5.84207e-05 0)
(1.21774 5.46061e-05 0)
(1.21754 5.33017e-05 0)
(1.21735 5.29487e-05 0)
(1.21715 4.94011e-05 0)
(1.21696 4.73543e-05 0)
(1.21676 4.78954e-05 0)
(1.21657 4.81892e-05 0)
(1.21638 4.98758e-05 0)
(1.21619 4.97746e-05 0)
(1.216 4.9581e-05 0)
(1.21581 4.81195e-05 0)
(1.21562 4.65368e-05 0)
(1.21544 4.62498e-05 0)
(1.21525 4.57443e-05 0)
(1.21507 4.60207e-05 0)
(1.21488 4.91003e-05 0)
(1.2147 5.51299e-05 0)
(1.21451 5.76456e-05 0)
(1.21433 5.98251e-05 0)
(1.21415 6.37189e-05 0)
(1.21396 6.48579e-05 0)
(1.21378 6.41851e-05 0)
(1.21359 6.26705e-05 0)
(1.21341 6.14025e-05 0)
(1.21324 5.75206e-05 0)
(1.21306 5.12677e-05 0)
(1.21289 4.94313e-05 0)
(1.21272 5.1161e-05 0)
(1.21255 5.12311e-05 0)
(1.21238 4.9112e-05 0)
(1.21222 4.74563e-05 0)
(1.21205 4.64095e-05 0)
(1.21189 4.54567e-05 0)
(1.21173 4.56773e-05 0)
(1.21156 4.35113e-05 0)
(1.2114 4.1238e-05 0)
(1.21124 4.30635e-05 0)
(1.21108 4.59743e-05 0)
(1.21092 4.68053e-05 0)
(1.21076 4.464e-05 0)
(1.21061 4.23067e-05 0)
(1.21045 4.03298e-05 0)
(1.2103 4.1376e-05 0)
(1.21015 4.16188e-05 0)
(1.21 3.99093e-05 0)
(1.20986 4.24671e-05 0)
(1.20971 4.43256e-05 0)
(1.20956 4.42108e-05 0)
(1.20942 4.38509e-05 0)
(1.20927 4.29145e-05 0)
(1.20913 3.929e-05 0)
(1.20898 3.76428e-05 0)
(1.20884 3.90052e-05 0)
(1.2087 3.78105e-05 0)
(1.20856 3.63025e-05 0)
(1.20843 3.5355e-05 0)
(1.20829 3.47571e-05 0)
(1.20815 3.62725e-05 0)
(1.20802 3.84626e-05 0)
(1.20789 3.81558e-05 0)
(1.20775 3.63996e-05 0)
(1.20762 3.24729e-05 0)
(1.2075 3.1873e-05 0)
(1.20737 3.21394e-05 0)
(1.20725 3.03062e-05 0)
(1.20712 2.91424e-05 0)
(1.207 2.72119e-05 0)
(1.20688 2.66869e-05 0)
(1.20676 2.70344e-05 0)
(1.20664 3.08041e-05 0)
(1.20651 3.19137e-05 0)
(1.20639 2.96062e-05 0)
(1.20627 3.02108e-05 0)
(1.20615 3.34457e-05 0)
(1.20603 3.56714e-05 0)
(1.20591 3.61138e-05 0)
(1.20579 3.50321e-05 0)
(1.20568 3.20185e-05 0)
(1.20556 2.85123e-05 0)
(1.20545 2.80801e-05 0)
(1.20534 2.87488e-05 0)
(1.20523 2.92755e-05 0)
(1.20512 3.03e-05 0)
(1.20501 2.87975e-05 0)
(1.2049 2.77743e-05 0)
(1.2048 2.58237e-05 0)
(1.20469 2.45368e-05 0)
(1.20458 2.38343e-05 0)
(1.20448 2.51742e-05 0)
(1.20437 2.55865e-05 0)
(1.20427 2.37049e-05 0)
(1.20417 2.35612e-05 0)
(1.20407 2.62148e-05 0)
(1.20397 2.93352e-05 0)
(1.20387 2.59661e-05 0)
(1.20378 2.15818e-05 0)
(1.20368 2.01769e-05 0)
(1.20359 2.17032e-05 0)
(1.20349 2.29579e-05 0)
(1.2034 2.00068e-05 0)
(1.20331 1.67388e-05 0)
(1.20322 1.49018e-05 0)
(1.20313 1.54253e-05 0)
(1.20305 1.59848e-05 0)
(1.20296 1.51264e-05 0)
(1.20288 1.48903e-05 0)
(1.2028 1.84502e-05 0)
(1.20271 1.90886e-05 0)
(1.20263 1.36793e-05 0)
(1.20256 9.57936e-06 0)
(1.20248 7.98962e-06 0)
(1.20241 1.2589e-05 0)
(1.20234 1.70013e-05 0)
(1.20226 1.84449e-05 0)
(1.20219 2.13447e-05 0)
(1.20211 2.20433e-05 0)
(1.20204 2.0249e-05 0)
(1.20197 1.9073e-05 0)
(1.2019 1.66035e-05 0)
(1.20183 1.33362e-05 0)
(1.20176 1.389e-05 0)
(1.20169 1.43201e-05 0)
(1.20163 1.3848e-05 0)
(1.20156 1.41866e-05 0)
(1.20149 1.42592e-05 0)
(1.20143 1.01624e-05 0)
(1.20137 6.06797e-06 0)
(1.20131 8.48772e-06 0)
(1.20125 8.38391e-06 0)
(1.20119 9.07116e-06 0)
(1.20114 1.55799e-05 0)
(1.20108 1.62705e-05 0)
(1.20102 1.09678e-05 0)
(1.20097 7.04765e-06 0)
(1.20091 6.01847e-06 0)
(1.20086 1.0481e-05 0)
(1.2008 1.40171e-05 0)
(1.20075 1.57678e-05 0)
(1.20069 1.92134e-05 0)
(1.20063 2.06827e-05 0)
(1.20058 1.95395e-05 0)
(1.20052 1.5788e-05 0)
(1.20047 1.19468e-05 0)
(1.20041 9.61464e-06 0)
(1.20036 9.90334e-06 0)
(1.20031 1.2857e-05 0)
(1.20025 1.54003e-05 0)
(1.2002 1.61981e-05 0)
(1.20015 1.61922e-05 0)
(1.20009 1.46474e-05 0)
(1.20004 1.34382e-05 0)
(1.19999 1.42081e-05 0)
(1.19994 1.14885e-05 0)
(1.1999 9.57762e-06 0)
(1.19986 1.40709e-05 0)
(1.19981 1.74679e-05 0)
(1.19977 1.67535e-05 0)
(1.19973 1.47776e-05 0)
(1.19969 9.449e-06 0)
(1.19965 5.65549e-06 0)
(1.19962 8.47252e-06 0)
(1.19958 8.09534e-06 0)
(1.19955 4.46528e-06 0)
(1.19951 5.00409e-06 0)
(1.19948 7.34557e-06 0)
(1.19944 1.06292e-05 0)
(1.19941 1.30707e-05 0)
(1.19937 1.23116e-05 0)
(1.19934 1.05913e-05 0)
(1.19931 5.90483e-06 0)
(1.19927 2.87114e-06 0)
(1.19924 5.95156e-06 0)
(1.19921 8.33797e-06 0)
(1.19918 8.58947e-06 0)
(1.19915 6.03311e-06 0)
(1.19912 5.51091e-06 0)
(1.19909 7.626e-06 0)
(1.19906 5.38364e-06 0)
(1.19904 2.80806e-06 0)
(1.19901 2.60424e-06 0)
(1.19898 4.11398e-06 0)
(1.19896 9.32337e-06 0)
(1.19893 1.03076e-05 0)
(1.1989 7.50807e-06 0)
(1.19888 7.49968e-06 0)
(1.19885 6.80123e-06 0)
(1.19883 6.56774e-06 0)
(1.1988 1.0476e-05 0)
(1.19877 1.28095e-05 0)
(1.19875 1.42086e-05 0)
(1.19873 1.35502e-05 0)
(1.1987 8.80815e-06 0)
(1.19868 5.55825e-06 0)
(1.19866 2.40607e-06 0)
(1.19865 7.64281e-07 0)
(1.19863 3.58381e-06 0)
(1.19861 4.30217e-06 0)
(1.1986 3.69725e-06 0)
(1.19859 6.75348e-06 0)
(1.19858 6.458e-06 0)
(1.19857 5.1355e-06 0)
(1.19856 9.94893e-07 0)
(1.19855 -3.99835e-06 0)
(1.19855 -6.92249e-06 0)
(1.19854 -8.84609e-06 0)
(1.19854 -9.01075e-06 0)
(1.19853 -4.95815e-06 0)
(1.19852 3.95749e-06 0)
(1.19851 7.06807e-06 0)
(1.1985 3.74142e-06 0)
(1.1985 1.25593e-06 0)
(1.19849 -2.67441e-07 0)
(1.19848 -4.20104e-07 0)
(1.19847 4.20971e-06 0)
(1.19846 8.83621e-06 0)
(1.19844 4.96808e-06 0)
(1.19844 -1.08565e-07 0)
(1.19843 3.79963e-06 0)
(1.19842 5.02287e-06 0)
(1.19841 1.22094e-06 0)
(1.1984 2.23011e-06 0)
(1.1984 3.47979e-06 0)
(1.19839 -1.131e-06 0)
(1.19839 -4.83555e-06 0)
(1.19839 -2.16031e-06 0)
(1.19839 -4.32215e-07 0)
(1.19839 -1.91963e-06 0)
(1.19839 -4.54142e-06 0)
(1.19839 -9.53796e-06 0)
(1.1984 -1.28687e-05 0)
(1.19841 -1.24787e-05 0)
(1.19841 -1.0728e-05 0)
(1.19841 -5.08837e-06 0)
(1.19841 1.51059e-07 0)
(1.19841 2.11805e-06 0)
(1.19841 -7.07147e-08 0)
(1.19841 -7.92923e-07 0)
(1.1984 4.67418e-06 0)
(1.1984 6.03886e-06 0)
(1.19839 6.00587e-06 0)
(1.19839 3.69503e-06 0)
(1.19838 2.16139e-06 0)
(1.19838 4.06224e-06 0)
(1.19837 2.66791e-06 0)
(1.19837 1.94764e-06 0)
(1.19836 4.59274e-06 0)
(1.19836 4.36578e-06 0)
(1.19835 4.2471e-06 0)
(1.19834 9.64927e-06 0)
(1.19833 1.04859e-05 0)
(1.19832 6.91078e-06 0)
(1.19832 5.53669e-06 0)
(1.19831 9.20373e-06 0)
(1.1983 1.0864e-05 0)
(1.19829 1.05612e-05 0)
(1.19829 1.00818e-05 0)
(1.19828 7.45982e-06 0)
(1.19828 3.26233e-06 0)
(1.19827 2.65912e-06 0)
(1.19827 4.69563e-06 0)
(1.19826 8.06298e-06 0)
(1.19825 8.70555e-06 0)
(1.19824 4.23983e-06 0)
(1.19824 1.08283e-06 0)
(1.19824 2.56996e-06 0)
(1.19823 4.9113e-06 0)
(1.19823 1.17583e-06 0)
(1.19822 -3.59912e-06 0)
(1.19823 -6.86736e-06 0)
(1.19823 -4.14569e-06 0)
(1.19823 -1.58755e-06 0)
(1.19823 -1.21862e-08 0)
(1.19823 -2.19829e-06 0)
(1.19823 -7.61282e-06 0)
(1.19824 -8.83918e-06 0)
(1.19825 -1.03112e-05 0)
(1.85151 0.00308824 0)
(1.85592 0.00713389 0)
(1.85997 0.00896055 0)
(1.86314 0.00982504 0)
(1.86572 0.0103651 0)
(1.86793 0.0106826 0)
(1.86973 0.0108023 0)
(1.87107 0.0107949 0)
(1.87199 0.0107248 0)
(1.87254 0.0106228 0)
(1.87277 0.0104994 0)
(1.8727 0.0103611 0)
(1.87237 0.0102138 0)
(1.8718 0.0100614 0)
(1.87102 0.00990516 0)
(1.87005 0.00974584 0)
(1.86891 0.00958456 0)
(1.86762 0.00942271 0)
(1.8662 0.00926111 0)
(1.86466 0.00909989 0)
(1.863 0.0089389 0)
(1.86126 0.00877826 0)
(1.85942 0.00861843 0)
(1.85751 0.00845986 0)
(1.85554 0.00830295 0)
(1.8535 0.00814795 0)
(1.85141 0.00799492 0)
(1.84927 0.00784392 0)
(1.8471 0.00769508 0)
(1.84488 0.00754847 0)
(1.84264 0.00740415 0)
(1.84037 0.00726232 0)
(1.83808 0.00712314 0)
(1.83577 0.00698661 0)
(1.83344 0.00685277 0)
(1.8311 0.00672171 0)
(1.82875 0.00659343 0)
(1.8264 0.00646786 0)
(1.82404 0.00634503 0)
(1.82167 0.00622494 0)
(1.81931 0.00610756 0)
(1.81694 0.00599289 0)
(1.81458 0.0058809 0)
(1.81222 0.0057716 0)
(1.80987 0.00566497 0)
(1.80752 0.00556093 0)
(1.80518 0.00545947 0)
(1.80285 0.00536058 0)
(1.80053 0.00526415 0)
(1.79821 0.00517007 0)
(1.79591 0.00507835 0)
(1.79362 0.004989 0)
(1.79134 0.00490193 0)
(1.78908 0.00481704 0)
(1.78683 0.00473433 0)
(1.78459 0.00465379 0)
(1.78236 0.00457529 0)
(1.78015 0.00449872 0)
(1.77796 0.00442411 0)
(1.77578 0.00435151 0)
(1.77361 0.00428078 0)
(1.77146 0.0042118 0)
(1.76932 0.00414458 0)
(1.7672 0.00407911 0)
(1.7651 0.00401532 0)
(1.76301 0.00395313 0)
(1.76094 0.00389252 0)
(1.75888 0.00383344 0)
(1.75684 0.00377589 0)
(1.75482 0.00371987 0)
(1.75281 0.00366523 0)
(1.75081 0.00361197 0)
(1.74884 0.00356014 0)
(1.74687 0.00350964 0)
(1.74493 0.00346043 0)
(1.743 0.00341251 0)
(1.74108 0.00336584 0)
(1.73918 0.00332037 0)
(1.7373 0.00327608 0)
(1.73543 0.00323294 0)
(1.73358 0.00319092 0)
(1.73174 0.00314995 0)
(1.72992 0.00310995 0)
(1.72811 0.00307099 0)
(1.72632 0.00303307 0)
(1.72454 0.00299604 0)
(1.72278 0.00295994 0)
(1.72103 0.00292488 0)
(1.71929 0.002891 0)
(1.71757 0.00285857 0)
(1.71586 0.00282797 0)
(1.71417 0.00279762 0)
(1.71249 0.00276772 0)
(1.71084 0.0027401 0)
(1.7092 0.00271407 0)
(1.70757 0.00268892 0)
(1.70597 0.00266435 0)
(1.70438 0.00264027 0)
(1.70281 0.00261649 0)
(1.70125 0.00259287 0)
(1.69971 0.00256931 0)
(1.69818 0.00254577 0)
(1.69666 0.00252226 0)
(1.69516 0.00249882 0)
(1.69367 0.00247542 0)
(1.69219 0.00245204 0)
(1.69073 0.0024287 0)
(1.68928 0.00240541 0)
(1.68783 0.00238214 0)
(1.68641 0.00235887 0)
(1.68499 0.00233576 0)
(1.68358 0.00231283 0)
(1.68218 0.00229003 0)
(1.6808 0.00226733 0)
(1.67942 0.00224476 0)
(1.67806 0.00222236 0)
(1.6767 0.00220016 0)
(1.67536 0.00217819 0)
(1.67403 0.00215646 0)
(1.6727 0.00213492 0)
(1.67139 0.00211356 0)
(1.67009 0.00209245 0)
(1.66879 0.00207166 0)
(1.66751 0.00205112 0)
(1.66624 0.00203076 0)
(1.66497 0.00201067 0)
(1.66372 0.00199095 0)
(1.66247 0.00197152 0)
(1.66124 0.0019523 0)
(1.66001 0.00193335 0)
(1.6588 0.00191473 0)
(1.65759 0.00189647 0)
(1.65639 0.00187853 0)
(1.6552 0.00186082 0)
(1.65402 0.00184335 0)
(1.65285 0.00182624 0)
(1.65169 0.00180954 0)
(1.65054 0.00179315 0)
(1.6494 0.00177703 0)
(1.64826 0.00176116 0)
(1.64713 0.00174563 0)
(1.64601 0.00173045 0)
(1.6449 0.00171558 0)
(1.6438 0.001701 0)
(1.64271 0.00168667 0)
(1.64162 0.00167259 0)
(1.64054 0.00165881 0)
(1.63947 0.0016453 0)
(1.63841 0.00163205 0)
(1.63735 0.00161909 0)
(1.6363 0.00160634 0)
(1.63526 0.00159373 0)
(1.63423 0.00158133 0)
(1.6332 0.00156918 0)
(1.63218 0.00155725 0)
(1.63117 0.00154546 0)
(1.63016 0.00153383 0)
(1.62916 0.00152241 0)
(1.62817 0.00151115 0)
(1.62719 0.00149999 0)
(1.62621 0.00148893 0)
(1.62523 0.00147798 0)
(1.62426 0.00146719 0)
(1.6233 0.00145654 0)
(1.62235 0.0014459 0)
(1.6214 0.00143531 0)
(1.62045 0.00142488 0)
(1.61951 0.00141457 0)
(1.61858 0.00140432 0)
(1.61765 0.00139416 0)
(1.61673 0.00138411 0)
(1.61582 0.00137416 0)
(1.61491 0.00136429 0)
(1.614 0.00135457 0)
(1.6131 0.00134501 0)
(1.61221 0.00133548 0)
(1.61132 0.00132597 0)
(1.61043 0.0013166 0)
(1.60955 0.00130735 0)
(1.60868 0.00129814 0)
(1.60781 0.001289 0)
(1.60694 0.00128 0)
(1.60608 0.00127109 0)
(1.60523 0.00126217 0)
(1.60438 0.00125337 0)
(1.60353 0.00124478 0)
(1.60269 0.00123623 0)
(1.60186 0.00122771 0)
(1.60103 0.00121933 0)
(1.6002 0.00121106 0)
(1.59938 0.00120282 0)
(1.59856 0.00119466 0)
(1.59774 0.0011865 0)
(1.59694 0.00117835 0)
(1.59613 0.00117031 0)
(1.59533 0.0011623 0)
(1.59453 0.00115433 0)
(1.59374 0.00114642 0)
(1.59295 0.00113854 0)
(1.59216 0.00113077 0)
(1.59138 0.0011231 0)
(1.59061 0.00111551 0)
(1.58983 0.00110794 0)
(1.58906 0.00110044 0)
(1.5883 0.00109309 0)
(1.58753 0.00108591 0)
(1.58678 0.00107882 0)
(1.58602 0.00107175 0)
(1.58527 0.00106488 0)
(1.58452 0.00105826 0)
(1.58378 0.00105174 0)
(1.58304 0.00104511 0)
(1.5823 0.00103854 0)
(1.58157 0.00103207 0)
(1.58084 0.00102559 0)
(1.58012 0.00101933 0)
(1.5794 0.00101321 0)
(1.57868 0.00100714 0)
(1.57796 0.0010013 0)
(1.57725 0.000995371 0)
(1.57654 0.000989717 0)
(1.57584 0.000984304 0)
(1.57514 0.000978671 0)
(1.57444 0.000973164 0)
(1.57375 0.000967534 0)
(1.57306 0.0009618 0)
(1.57238 0.000956199 0)
(1.57169 0.000950076 0)
(1.57101 0.000943452 0)
(1.57034 0.000936915 0)
(1.56966 0.000930353 0)
(1.56899 0.000923816 0)
(1.56832 0.00091712 0)
(1.56766 0.000909782 0)
(1.56699 0.000901961 0)
(1.56633 0.000894378 0)
(1.56568 0.000887058 0)
(1.56502 0.000878494 0)
(1.56437 0.000870443 0)
(1.56372 0.000862715 0)
(1.56308 0.000854297 0)
(1.56244 0.000845951 0)
(1.5618 0.000836369 0)
(1.56116 0.000826726 0)
(1.56053 0.000816234 0)
(1.5599 0.000805701 0)
(1.55928 0.000796626 0)
(1.55866 0.000787098 0)
(1.55805 0.00077761 0)
(1.55744 0.000767411 0)
(1.55683 0.000756172 0)
(1.55623 0.000747343 0)
(1.55563 0.000739865 0)
(1.55503 0.000732228 0)
(1.55444 0.000724404 0)
(1.55384 0.000714857 0)
(1.55325 0.000705928 0)
(1.55267 0.000696931 0)
(1.55209 0.000687937 0)
(1.55152 0.000680667 0)
(1.55094 0.000673433 0)
(1.55037 0.000667611 0)
(1.54981 0.000660925 0)
(1.54924 0.000654145 0)
(1.54868 0.0006484 0)
(1.54813 0.000641088 0)
(1.54758 0.000634096 0)
(1.54703 0.000627048 0)
(1.54649 0.00061981 0)
(1.54595 0.000612878 0)
(1.54542 0.000605941 0)
(1.54489 0.000600345 0)
(1.54437 0.000594872 0)
(1.54385 0.000588225 0)
(1.54334 0.000580092 0)
(1.54283 0.000572997 0)
(1.54233 0.000567454 0)
(1.54183 0.000562295 0)
(1.54134 0.000555901 0)
(1.54085 0.000547996 0)
(1.54037 0.000542134 0)
(1.5399 0.000536363 0)
(1.53942 0.000528709 0)
(1.53895 0.000521228 0)
(1.53848 0.000515258 0)
(1.53802 0.000508264 0)
(1.53756 0.000501352 0)
(1.5371 0.000494755 0)
(1.53665 0.000487929 0)
(1.5362 0.000480866 0)
(1.53575 0.000474585 0)
(1.53532 0.000470958 0)
(1.53488 0.000466639 0)
(1.53445 0.000461703 0)
(1.53402 0.000459287 0)
(1.53359 0.000458196 0)
(1.53316 0.000457146 0)
(1.53274 0.000453596 0)
(1.53233 0.000448487 0)
(1.53191 0.000445746 0)
(1.53151 0.000442249 0)
(1.5311 0.000438987 0)
(1.5307 0.000436627 0)
(1.5303 0.000433364 0)
(1.52991 0.000431351 0)
(1.52951 0.000429206 0)
(1.52912 0.000425292 0)
(1.52874 0.000420808 0)
(1.52835 0.000414923 0)
(1.52798 0.000410203 0)
(1.5276 0.000406893 0)
(1.52722 0.000404574 0)
(1.52685 0.000400823 0)
(1.52647 0.000395106 0)
(1.52611 0.000391868 0)
(1.52574 0.000388154 0)
(1.52538 0.000383427 0)
(1.52502 0.000379354 0)
(1.52467 0.000376392 0)
(1.52431 0.000372755 0)
(1.52396 0.000368063 0)
(1.52362 0.000364103 0)
(1.52328 0.000360887 0)
(1.52294 0.000359519 0)
(1.5226 0.000357167 0)
(1.52226 0.000355064 0)
(1.52193 0.000352782 0)
(1.5216 0.000349213 0)
(1.52127 0.000347201 0)
(1.52094 0.000343698 0)
(1.52062 0.000342271 0)
(1.5203 0.000342573 0)
(1.51998 0.000341234 0)
(1.51966 0.000340712 0)
(1.51934 0.000338308 0)
(1.51903 0.000335649 0)
(1.51872 0.000334838 0)
(1.51841 0.000331478 0)
(1.51811 0.000328244 0)
(1.5178 0.000327914 0)
(1.5175 0.000326843 0)
(1.51721 0.000324082 0)
(1.51691 0.000321308 0)
(1.51662 0.000318846 0)
(1.51634 0.000316024 0)
(1.51605 0.000312935 0)
(1.51577 0.000310212 0)
(1.51549 0.000307508 0)
(1.51522 0.000304105 0)
(1.51494 0.000301276 0)
(1.51467 0.000300081 0)
(1.51439 0.000297846 0)
(1.51412 0.000295622 0)
(1.51385 0.000295615 0)
(1.51358 0.000294565 0)
(1.51331 0.000292434 0)
(1.51305 0.000290221 0)
(1.51278 0.000288343 0)
(1.51252 0.000287359 0)
(1.51226 0.000285645 0)
(1.512 0.000282459 0)
(1.51175 0.000280367 0)
(1.51149 0.000279094 0)
(1.51124 0.000275429 0)
(1.51099 0.000271791 0)
(1.51074 0.000269609 0)
(1.51049 0.000265724 0)
(1.51025 0.000262162 0)
(1.51 0.000261486 0)
(1.50976 0.00026047 0)
(1.50952 0.00025996 0)
(1.50928 0.000259397 0)
(1.50904 0.000257216 0)
(1.5088 0.000256067 0)
(1.50856 0.000253927 0)
(1.50832 0.000251808 0)
(1.50809 0.000249017 0)
(1.50786 0.000245776 0)
(1.50763 0.000245312 0)
(1.5074 0.000243232 0)
(1.50717 0.000240208 0)
(1.50695 0.000238923 0)
(1.50672 0.000236424 0)
(1.5065 0.000233565 0)
(1.50628 0.000231582 0)
(1.50606 0.000229485 0)
(1.50584 0.000227111 0)
(1.50562 0.000224843 0)
(1.50541 0.000221853 0)
(1.5052 0.000219165 0)
(1.50498 0.000219311 0)
(1.50477 0.000218865 0)
(1.50456 0.000219318 0)
(1.50435 0.000219951 0)
(1.50414 0.000218929 0)
(1.50393 0.000219594 0)
(1.50372 0.000218498 0)
(1.50351 0.000215466 0)
(1.50331 0.000212358 0)
(1.50311 0.000208598 0)
(1.50291 0.000206771 0)
(1.50271 0.000206567 0)
(1.50251 0.000205541 0)
(1.50232 0.000204039 0)
(1.50212 0.000203288 0)
(1.50192 0.000202506 0)
(1.50173 0.000199473 0)
(1.50154 0.000196332 0)
(1.50135 0.000195569 0)
(1.50116 0.000193192 0)
(1.50098 0.000190764 0)
(1.50079 0.000191447 0)
(1.50061 0.000191023 0)
(1.50042 0.000188654 0)
(1.50024 0.000185813 0)
(1.50006 0.000183472 0)
(1.49988 0.000180512 0)
(1.49971 0.000177845 0)
(1.49954 0.000177843 0)
(1.49936 0.000175896 0)
(1.49919 0.000173831 0)
(1.49902 0.000172731 0)
(1.49885 0.000169361 0)
(1.49869 0.000167051 0)
(1.49852 0.000166781 0)
(1.49836 0.000166416 0)
(1.4982 0.000163582 0)
(1.49804 0.000160893 0)
(1.49788 0.000158523 0)
(1.49772 0.000155362 0)
(1.49756 0.000152645 0)
(1.49741 0.000149196 0)
(1.49726 0.000148074 0)
(1.49711 0.000147272 0)
(1.49696 0.000144037 0)
(1.49681 0.00014112 0)
(1.49666 0.000138826 0)
(1.49653 0.000137177 0)
(1.49639 0.000135917 0)
(1.49625 0.000133797 0)
(1.49612 0.000133072 0)
(1.49598 0.000131318 0)
(1.49585 0.00012881 0)
(1.49572 0.000129423 0)
(1.49559 0.000127891 0)
(1.49546 0.000125626 0)
(1.49534 0.000124812 0)
(1.49521 0.000123351 0)
(1.49509 0.000120777 0)
(1.49497 0.000118813 0)
(1.49485 0.000116711 0)
(1.49474 0.000114277 0)
(1.49462 0.000113144 0)
(1.49451 0.000110072 0)
(1.4944 0.000107105 0)
(1.49429 0.000107177 0)
(1.49418 0.000106228 0)
(1.49407 0.000105083 0)
(1.49396 0.00010546 0)
(1.49386 0.000104965 0)
(1.49375 0.0001039 0)
(1.49365 0.000102878 0)
(1.49355 0.000102296 0)
(1.49346 0.000100702 0)
(1.49336 0.000100101 0)
(1.49326 0.000100274 0)
(1.49317 9.89358e-05 0)
(1.49308 9.72181e-05 0)
(1.49299 9.55105e-05 0)
(1.4929 9.51065e-05 0)
(1.49281 9.47408e-05 0)
(1.49272 9.32831e-05 0)
(1.49264 9.18262e-05 0)
(1.49256 9.01881e-05 0)
(1.49248 8.91648e-05 0)
(1.4924 8.60245e-05 0)
(1.49232 8.33775e-05 0)
(1.49224 8.27421e-05 0)
(1.49217 8.13389e-05 0)
(1.49209 7.99854e-05 0)
(1.49202 7.6483e-05 0)
(1.49195 7.37979e-05 0)
(1.49187 7.2676e-05 0)
(1.4918 7.09889e-05 0)
(1.49173 6.96986e-05 0)
(1.49166 6.98942e-05 0)
(1.49159 7.02893e-05 0)
(1.49152 6.96117e-05 0)
(1.49145 6.66882e-05 0)
(1.49139 6.36899e-05 0)
(1.49132 6.35293e-05 0)
(1.49126 6.16647e-05 0)
(1.49121 6.08748e-05 0)
(1.49115 6.13399e-05 0)
(1.49109 6.03549e-05 0)
(1.49103 5.79636e-05 0)
(1.49098 5.51543e-05 0)
(1.49093 5.35878e-05 0)
(1.49088 5.32485e-05 0)
(1.49083 5.30674e-05 0)
(1.49078 5.14747e-05 0)
(1.49073 5.03475e-05 0)
(1.49068 5.10979e-05 0)
(1.49064 5.02276e-05 0)
(1.49059 4.76365e-05 0)
(1.49055 4.70775e-05 0)
(1.49051 4.58173e-05 0)
(1.49047 4.43018e-05 0)
(1.49043 4.41923e-05 0)
(1.49039 4.44615e-05 0)
(1.49036 4.45024e-05 0)
(1.49032 4.37405e-05 0)
(1.49028 4.16e-05 0)
(1.49025 3.88731e-05 0)
(1.49021 3.69573e-05 0)
(1.49018 3.56489e-05 0)
(1.49015 3.49374e-05 0)
(1.49012 3.43579e-05 0)
(1.49009 3.28396e-05 0)
(1.49005 3.09732e-05 0)
(1.49002 2.9442e-05 0)
(1.48999 2.71544e-05 0)
(1.48996 2.41572e-05 0)
(1.48993 2.18135e-05 0)
(1.4899 1.94771e-05 0)
(1.48988 1.98894e-05 0)
(1.48985 2.0274e-05 0)
(1.48983 2.06095e-05 0)
(1.4898 2.06279e-05 0)
(1.48978 2.03215e-05 0)
(1.48975 2.11899e-05 0)
(1.48973 2.06008e-05 0)
(1.48971 1.9773e-05 0)
(1.48969 1.86208e-05 0)
(1.48967 1.67857e-05 0)
(1.48965 1.63386e-05 0)
(1.48963 1.88835e-05 0)
(1.48962 1.84719e-05 0)
(1.4896 1.62903e-05 0)
(1.48959 1.62062e-05 0)
(1.48957 1.64318e-05 0)
(1.48956 1.51182e-05 0)
(1.48955 1.31982e-05 0)
(1.48954 1.17134e-05 0)
(1.48952 1.05446e-05 0)
(1.48951 1.12803e-05 0)
(1.4895 1.20154e-05 0)
(1.48949 9.05755e-06 0)
(1.48948 5.70718e-06 0)
(1.48946 4.32756e-06 0)
(1.48946 3.41994e-06 0)
(1.48945 4.86943e-06 0)
(1.48943 5.59945e-06 0)
(1.48942 3.69263e-06 0)
(1.48941 2.29577e-06 0)
(1.4894 2.6575e-06 0)
(1.48939 3.64893e-06 0)
(1.48939 4.3943e-06 0)
(1.48938 5.00992e-06 0)
(1.48937 4.90718e-06 0)
(1.48937 3.30645e-06 0)
(1.48936 2.54725e-06 0)
(1.48936 4.69966e-06 0)
(1.48936 5.40235e-06 0)
(1.48936 5.18732e-06 0)
(1.48935 7.03095e-06 0)
(1.48935 6.43012e-06 0)
(1.48935 6.11571e-06 0)
(1.48935 9.12384e-06 0)
(1.48934 1.01339e-05 0)
(1.48934 9.17579e-06 0)
(1.48934 8.24489e-06 0)
(1.48934 8.89129e-06 0)
(1.48933 9.99296e-06 0)
(1.48933 9.9045e-06 0)
(1.48933 8.27562e-06 0)
(1.48933 7.77549e-06 0)
(1.48933 8.37154e-06 0)
(1.48932 7.06183e-06 0)
(1.48932 7.46728e-06 0)
(1.48932 7.58289e-06 0)
(1.48931 7.35913e-06 0)
(1.48931 7.05445e-06 0)
(1.48931 7.08281e-06 0)
(1.48931 7.92998e-06 0)
(1.48931 6.77688e-06 0)
(1.48931 5.4967e-06 0)
(1.4893 5.92948e-06 0)
(1.4893 3.96895e-06 0)
(1.4893 7.3218e-07 0)
(1.4893 2.10029e-07 0)
(1.4893 2.12171e-06 0)
(1.4893 3.23749e-06 0)
(1.48929 2.47885e-06 0)
(1.48929 2.51793e-06 0)
(1.48928 9.1524e-07 0)
(1.48928 -3.00536e-07 0)
(1.48927 1.02414e-06 0)
(1.48927 -1.29811e-06 0)
(1.48926 -5.05598e-06 0)
(1.85018 0.0015293 0)
(1.8514 0.00365596 0)
(1.85315 0.00505665 0)
(1.85499 0.00614026 0)
(1.85673 0.00706288 0)
(1.85838 0.00781195 0)
(1.85992 0.00838593 0)
(1.86132 0.00882219 0)
(1.86257 0.00915789 0)
(1.86368 0.00941407 0)
(1.86466 0.00960363 0)
(1.86551 0.00973795 0)
(1.86624 0.0098272 0)
(1.86687 0.0098794 0)
(1.86738 0.00990069 0)
(1.8678 0.00989656 0)
(1.86812 0.00987192 0)
(1.86836 0.00983063 0)
(1.86851 0.00977535 0)
(1.86859 0.00970801 0)
(1.8686 0.00963051 0)
(1.86853 0.00954483 0)
(1.8684 0.00945282 0)
(1.86821 0.00935594 0)
(1.86797 0.0092552 0)
(1.86767 0.00915131 0)
(1.86732 0.00904479 0)
(1.86692 0.00893619 0)
(1.86647 0.00882608 0)
(1.86598 0.00871507 0)
(1.86546 0.00860367 0)
(1.86489 0.00849227 0)
(1.86429 0.00838117 0)
(1.86366 0.00827061 0)
(1.86299 0.00816075 0)
(1.86229 0.00805173 0)
(1.86157 0.00794366 0)
(1.86082 0.00783666 0)
(1.86004 0.00773085 0)
(1.85924 0.00762637 0)
(1.85842 0.00752329 0)
(1.85758 0.00742172 0)
(1.85672 0.00732171 0)
(1.85584 0.0072233 0)
(1.85495 0.0071265 0)
(1.85403 0.00703132 0)