/*--------------------------------*- C++ -*----------------------------------*\
  =========                 |
  \\      /  F ield         | OpenFOAM: The Open Source CFD Toolbox
   \\    /   O peration     | Website:  https://openfoam.org
    \\  /    A nd           | Version:  7
     \\/     M anipulation  |
\*---------------------------------------------------------------------------*/
FoamFile
{
    version     2.0;
    format      ascii;
    class       volScalarField;
    location    "100";
    object      k;
}
// * * * * * * * * * * * * * * * * * * * * * * * * * * * * * * * * * * * * * //

dimensions      [0 2 -2 0 0 0 0];

internalField   nonuniform List<scalar> 
12842
(
0.00567956
0.0050637
0.00472731
0.00446804
0.00430629
0.00417392
0.00409515
0.00402224
0.00398157
0.00395351
0.00394934
0.00396286
0.00400197
0.00406524
0.00413209
0.00419957
0.00425659
0.0043169
0.00436673
0.00441689
0.0044575
0.0044946
0.00452445
0.00564414
0.00500783
0.00465366
0.00442482
0.00429154
0.00416045
0.00408699
0.00401315
0.00397685
0.0039489
0.00394578
0.00396007
0.00400064
0.00406599
0.00413549
0.00420276
0.00426031
0.00431889
0.00436769
0.00442247
0.0044677
0.00450845
0.00453641
0.0055858
0.00495172
0.00459141
0.00435016
0.00423686
0.0041263
0.00406462
0.00399566
0.00396219
0.00393692
0.00393993
0.00395804
0.00400635
0.00408
0.00415641
0.00422678
0.00427726
0.00433217
0.00437654
0.00443259
0.00448049
0.00452379
0.00455151
0.00552467
0.00487882
0.00453866
0.00430878
0.00419713
0.00409703
0.0040413
0.00397984
0.00395512
0.00392944
0.00393456
0.00395679
0.00401001
0.00408902
0.00416699
0.00424521
0.00430447
0.0043568
0.00440311
0.00445597
0.00450007
0.00454249
0.00456663
0.00545112
0.00479393
0.00446862
0.00425378
0.00415005
0.00406015
0.00401531
0.00395904
0.00393996
0.00392135
0.00393001
0.00395798
0.00402301
0.00411243
0.00418663
0.00425877
0.00432346
0.00437977
0.00443
0.00448205
0.00452125
0.00456233
0.00458366
0.00539023
0.00472589
0.004409
0.00421134
0.00411373
0.00403364
0.00399256
0.00394349
0.0039308
0.00391536
0.00392586
0.0039584
0.00403056
0.00413556
0.00421737
0.00428923
0.00434996
0.00440879
0.00446265
0.00451104
0.00454401
0.00458086
0.00459676
0.00530702
0.00464715
0.00435213
0.00416719
0.00407936
0.00400292
0.00396931
0.00392742
0.00391742
0.00391059
0.00392357
0.00396335
0.00405068
0.00416022
0.00424114
0.00431579
0.00437881
0.00443784
0.00449289
0.00453999
0.0045675
0.00460017
0.00461335
0.00525287
0.00458848
0.00429668
0.00413028
0.0040475
0.00398262
0.00395126
0.00391421
0.00390734
0.00390784
0.00392032
0.00396413
0.00405979
0.00418903
0.00427435
0.00434422
0.00440479
0.0044699
0.00452772
0.00456454
0.00459014
0.0046171
0.00462549
0.005164
0.00452433
0.00425567
0.00409677
0.0040245
0.00396029
0.00393383
0.0039048
0.00389817
0.00390388
0.0039198
0.00397117
0.00408272
0.00421978
0.00430499
0.0043796
0.00443539
0.00449973
0.00455686
0.00459416
0.00460967
0.00463033
0.00463748
0.00510528
0.00446586
0.00420708
0.00406788
0.0040003
0.00394744
0.00392223
0.00389626
0.00389351
0.00390193
0.0039235
0.00397776
0.00409579
0.0042503
0.00433683
0.00440615
0.00446479
0.00452924
0.00458294
0.00461135
0.0046267
0.00464261
0.00464647
0.00500684
0.00440908
0.00417436
0.0040404
0.003983
0.00393048
0.00390999
0.00389036
0.00388919
0.0039
0.00392658
0.00399156
0.0041219
0.00427885
0.00436342
0.0044339
0.00449088
0.00455329
0.00460256
0.00463162
0.004641
0.00465117
0.00465532
0.0049456
0.00435742
0.00413344
0.00401632
0.00396291
0.00392019
0.00389985
0.00388287
0.00388598
0.00389632
0.00393635
0.00400738
0.00414759
0.00431431
0.00439591
0.0044599
0.00451966
0.00458224
0.00462357
0.00464617
0.00465543
0.00466612
0.0046679
0.00485244
0.00430959
0.00410674
0.00399314
0.00394827
0.00390575
0.00389054
0.00387836
0.00388333
0.00389545
0.0039407
0.00402286
0.00418148
0.00434595
0.00442309
0.00448671
0.0045452
0.00460211
0.00464064
0.00466297
0.00467075
0.0046763
0.00467713
0.00479003
0.00426581
0.00407278
0.00397319
0.00393231
0.0038968
0.00388125
0.003872
0.00388082
0.00389834
0.00395119
0.00404477
0.00421767
0.00438545
0.00445496
0.00451259
0.00457204
0.00462846
0.00465723
0.00467733
0.00468406
0.00469329
0.00469559
0.00471855
0.00422685
0.00405088
0.00395461
0.00391972
0.00388475
0.00387405
0.00386841
0.00387924
0.00389702
0.00395785
0.00406018
0.00425459
0.00441776
0.00448121
0.00453958
0.00459704
0.00464556
0.00467329
0.00469216
0.00470299
0.00470735
0.0047071
0.00466784
0.0041907
0.00402232
0.00393829
0.00390703
0.00387663
0.00386625
0.00386308
0.00387759
0.00390163
0.00397074
0.0040867
0.00429748
0.00445783
0.00451163
0.00456575
0.00462178
0.00466886
0.0046895
0.00470906
0.00471697
0.00472293
0.00472679
0.00461443
0.004159
0.00400397
0.00392367
0.00389566
0.00386651
0.00385995
0.00386013
0.00387655
0.00390427
0.00397831
0.00410457
0.00433148
0.0044892
0.00453665
0.00459276
0.00464529
0.00468394
0.00470517
0.00472378
0.00473815
0.00474547
0.00474948
0.00457325
0.00412995
0.00397975
0.0039104
0.00388504
0.00385936
0.00385425
0.00385587
0.00387571
0.00391099
0.0039929
0.00413301
0.00437485
0.00452579
0.00456419
0.00461855
0.00466963
0.00470692
0.00472443
0.00474572
0.00475934
0.00476356
0.0047737
0.00453317
0.00410302
0.00396404
0.00389828
0.00387418
0.00385078
0.00384796
0.00385323
0.00387481
0.00391355
0.0040012
0.00415621
0.00440523
0.00455459
0.00458667
0.00464526
0.00468952
0.00471905
0.00474302
0.00476759
0.00478119
0.00479246
0.00481016
0.00450005
0.00408048
0.00394376
0.00388716
0.00386473
0.0038448
0.00384387
0.00385013
0.00387453
0.0039204
0.00401608
0.00418245
0.00444231
0.00458443
0.00460974
0.00466855
0.00471589
0.00474493
0.0047649
0.00478737
0.00481162
0.00482634
0.00484019
0.0044702
0.0040567
0.00392997
0.00387604
0.0038542
0.00383721
0.00383772
0.00384729
0.00387277
0.00392265
0.00402696
0.00421214
0.00447415
0.00461025
0.00462939
0.00469593
0.0047335
0.00475869
0.00478104
0.00481287
0.00483361
0.0048466
0.00486718
0.0044427
0.00403929
0.00391309
0.00386596
0.00384532
0.00383218
0.00383446
0.00384521
0.0038727
0.0039281
0.00403957
0.00423442
0.00450229
0.00463616
0.00464928
0.00471711
0.00476276
0.00478781
0.00480746
0.00482904
0.00485225
0.00489105
0.00493205
0.0044213
0.00401845
0.00390062
0.00385493
0.00383536
0.00382506
0.00382873
0.00384199
0.00386777
0.00393072
0.00405533
0.00426831
0.0045366
0.00465876
0.00466949
0.00474513
0.00478303
0.00480701
0.00482488
0.00484538
0.0048927
0.00494401
0.00500468
0.00440105
0.00400771
0.00388992
0.00384772
0.00382894
0.0038222
0.00382721
0.00384133
0.00386862
0.0039372
0.00406515
0.00428744
0.00455993
0.00468176
0.0046856
0.00476516
0.00481411
0.00483981
0.00484495
0.00487572
0.00494081
0.00503551
0.00521425
0.00438967
0.00399651
0.00388313
0.00384146
0.00382422
0.00381974
0.00382585
0.00384087
0.00386954
0.00394268
0.00408072
0.00431473
0.00458186
0.00469802
0.00470571
0.00479184
0.00484696
0.00486938
0.00487401
0.00490778
0.00504639
0.00547568
0.00698117
0.00437392
0.00398998
0.00387628
0.0038359
0.00382028
0.00381795
0.00382504
0.0038404
0.0038709
0.00395043
0.00409425
0.00433068
0.00460155
0.00471499
0.00472052
0.00481196
0.00487155
0.00491236
0.00492497
0.00503414
0.00559066
0.0085589
0.0207436
0.00436411
0.00397984
0.00386912
0.00382961
0.00381582
0.00381548
0.00382362
0.00383922
0.00387189
0.0039566
0.00411215
0.00435833
0.00461899
0.00472538
0.00473522
0.00483139
0.00491135
0.00498063
0.00503606
0.00560662
0.00940865
0.0277383
0.0999588
0.00434884
0.0039736
0.00386229
0.00382378
0.0038118
0.00381354
0.0038227
0.00383842
0.00387331
0.00396507
0.00413181
0.00438379
0.00464419
0.00473947
0.00475207
0.0048601
0.00495929
0.0050675
0.00542303
0.00813497
0.0257251
0.117725
0.411654
0.00433949
0.00396438
0.00385497
0.003818
0.00380751
0.0038111
0.00382081
0.00383652
0.00387399
0.00397074
0.00414636
0.00440902
0.00466002
0.00474794
0.00476458
0.0048834
0.00500721
0.0052672
0.00671737
0.0180116
0.0836766
0.310431
0.818615
0.0043256
0.00395787
0.00384828
0.00381248
0.00380336
0.003809
0.00381957
0.00383533
0.00387595
0.00398108
0.00416844
0.0044449
0.00468596
0.0047652
0.00478673
0.00491716
0.00509641
0.00568645
0.00945508
0.0356791
0.157637
0.508371
1.2303
0.00431588
0.00394943
0.00384131
0.00380727
0.00379935
0.00380662
0.00381692
0.00383324
0.00387675
0.00398768
0.00417965
0.00446466
0.00469977
0.00477882
0.00481275
0.0049813
0.00523571
0.00637943
0.0147877
0.0666692
0.270303
0.802448
1.72855
0.00430392
0.00394254
0.00383498
0.00380244
0.00379523
0.00380439
0.00381502
0.00383202
0.00387895
0.00399789
0.00419984
0.00450384
0.00472765
0.00480279
0.00484306
0.00504009
0.00544711
0.00782655
0.0248609
0.114407
0.429914
1.15611
2.10391
0.00429354
0.00393434
0.00382875
0.00379775
0.00379155
0.00380191
0.0038121
0.00383009
0.00387956
0.0040032
0.00421075
0.00452489
0.00474656
0.00483807
0.00492616
0.00519673
0.00580512
0.010512
0.0408014
0.178906
0.643794
1.42832
2.34832
0.00428349
0.00392769
0.00382308
0.00379367
0.00378778
0.00379955
0.00380971
0.00382908
0.00388096
0.00401194
0.00423335
0.00456748
0.00478136
0.00486657
0.00498289
0.00533654
0.00642377
0.0144497
0.0692632
0.301267
0.850713
1.6904
2.59326
0.00427278
0.00391913
0.00381763
0.00378944
0.00378442
0.00379688
0.00380711
0.00382724
0.00388157
0.00401641
0.00424701
0.00459276
0.00481869
0.00495778
0.00516073
0.00561207
0.00761763
0.0232878
0.113438
0.413132
1.04127
1.90447
2.90016
0.00426393
0.00391325
0.00381291
0.00378604
0.00378117
0.0037942
0.00380458
0.00382627
0.0038834
0.00402567
0.00427835
0.00464981
0.00487754
0.00501248
0.0052606
0.00591542
0.0100304
0.0424299
0.177765
0.513873
1.12823
2.002
3.02371
0.00425376
0.0039046
0.00380805
0.00378216
0.00377823
0.00379132
0.00380225
0.00382458
0.00388422
0.00403133
0.00429837
0.00468537
0.00493395
0.00514735
0.00553913
0.00694084
0.015913
0.0653716
0.234363
0.593703
1.25534
2.36454
3.25516
0.00424529
0.00389912
0.0038043
0.00377931
0.00377549
0.00378847
0.00380027
0.00382341
0.00388746
0.00404685
0.00435019
0.00477058
0.00504377
0.00524256
0.00574047
0.00800858
0.0227189
0.101712
0.304526
0.648078
1.30261
2.37755
3.1293
0.0042362
0.00389142
0.00379979
0.0037758
0.00377276
0.00378521
0.00379784
0.0038221
0.00388911
0.00405665
0.00438233
0.00482396
0.00514024
0.00549765
0.00645992
0.0121154
0.0455044
0.172439
0.365868
0.69559
1.37116
2.53682
3.07724
0.00422796
0.00388577
0.00379689
0.00377329
0.00377074
0.00378232
0.0037966
0.00382332
0.00389747
0.00408729
0.00446648
0.00494747
0.00525624
0.00562769
0.00702168
0.0157924
0.0640196
0.206112
0.407965
0.72058
1.37607
2.31769
2.86472
0.00421979
0.00387948
0.00379253
0.00377009
0.00376781
0.00377895
0.00379438
0.00382289
0.00390438
0.00410769
0.00451651
0.00502292
0.00545161
0.00603987
0.00938967
0.0289756
0.11229
0.26747
0.452664
0.754468
1.3616
2.08928
2.60188
0.00421204
0.0038739
0.00379016
0.00376794
0.00376618
0.00377607
0.00379312
0.00382719
0.00392603
0.00416404
0.00463994
0.00519192
0.00560953
0.00663283
0.0115668
0.0383547
0.13805
0.323269
0.525476
0.820689
1.38969
2.14914
2.45958
0.00420444
0.00386846
0.00378632
0.00376492
0.00376328
0.00377204
0.00379052
0.00383106
0.00394519
0.00420514
0.00471116
0.00529288
0.00585535
0.00719607
0.0163889
0.0645482
0.193677
0.37788
0.572421
0.914719
1.4083
2.09494
2.24946
0.00419732
0.00386347
0.00378385
0.00376288
0.00376152
0.0037699
0.00378954
0.00384236
0.00398232
0.00429546
0.00487419
0.00549763
0.00616402
0.00890109
0.0231428
0.0809844
0.229172
0.431153
0.674202
1.00502
1.39617
1.84741
2.08578
0.0041901
0.00385829
0.0037809
0.00376008
0.0037582
0.00376526
0.00378851
0.00385321
0.00401626
0.00436182
0.00496851
0.00564765
0.00650839
0.00993307
0.0298727
0.122836
0.298012
0.534123
0.80038
1.12865
1.42446
1.8509
2.07964
0.00418336
0.00385358
0.00377804
0.00375818
0.00375632
0.00376277
0.00379074
0.00387425
0.00406911
0.00447127
0.00516516
0.00586536
0.00695916
0.0133387
0.0500499
0.16231
0.376471
0.613922
1.02944
1.28461
1.46933
1.74903
1.97896
0.00417656
0.00384874
0.00377582
0.0037551
0.00375257
0.00375885
0.00379185
0.00389559
0.00412034
0.0045614
0.00528588
0.00610146
0.00772091
0.0165356
0.0632459
0.206877
0.449088
0.751832
1.19672
1.41541
1.56769
1.75301
1.88256
0.00416999
0.00384356
0.00377304
0.00375301
0.00374978
0.00375612
0.00380282
0.00392944
0.00418975
0.0046871
0.0054999
0.00633152
0.00846418
0.022024
0.0838705
0.283517
0.539708
1.06408
1.37019
1.50557
1.6092
1.67066
1.70833
0.00416327
0.00383857
0.00377024
0.00374996
0.00374615
0.00375503
0.00381255
0.0039647
0.00425876
0.00479931
0.00565024
0.00663488
0.00976212
0.0298855
0.131963
0.33967
0.677295
1.25723
1.48839
1.56067
1.56086
1.51875
1.56313
0.00415773
0.00383367
0.00376847
0.0037473
0.00374223
0.00375695
0.00383462
0.00401527
0.00434663
0.00494062
0.00586535
0.00697814
0.011842
0.0414602
0.161285
0.391635
1.02975
1.44036
1.51891
1.57569
1.54554
1.3612
1.36006
0.0041523
0.00382847
0.00376572
0.00374389
0.0037413
0.00376172
0.00385832
0.0040693
0.00443414
0.00507099
0.00603771
0.00724294
0.0131619
0.0531085
0.219442
0.700903
1.34555
1.51575
1.53181
1.56113
1.49428
1.25336
1.14627
0.00414778
0.00382335
0.00376274
0.00374139
0.00374281
0.00377943
0.00389785
0.004138
0.00453552
0.00521726
0.00623917
0.00765122
0.0161739
0.0768932
0.433903
1.12605
1.5572
1.52911
1.49351
1.44122
1.33823
1.10291
1.01114
0.00414383
0.00381836
0.0037598
0.00373973
0.00374872
0.00380527
0.00394134
0.00421089
0.00463718
0.0053571
0.00641785
0.00800093
0.0193427
0.125354
0.629525
1.38168
1.58062
1.51685
1.32083
1.2077
1.10906
0.920161
0.85272
0.00413929
0.0038132
0.00375925
0.00374089
0.00376862
0.00384696
0.00400125
0.00429693
0.00474903
0.00550325
0.00660565
0.0083654
0.0232205
0.1559
0.726311
1.48742
1.59554
1.38874
1.08762
0.973007
0.890944
0.778278
0.751771
0.00413482
0.0038085
0.00375944
0.00374607
0.00379935
0.00389576
0.00406719
0.00438577
0.00485977
0.00564413
0.0067722
0.0085728
0.0256447
0.167881
0.753625
1.49647
1.55039
1.14108
0.847433
0.753096
0.710789
0.668993
0.665627
0.00413018
0.00380528
0.00376604
0.00376339
0.00384489
0.0039602
0.00414783
0.00448492
0.00497746
0.00578609
0.00693324
0.00874539
0.0264967
0.17204
0.757503
1.49104
1.35324
0.898209
0.651229
0.596801
0.590109
0.606865
0.627636
0.00412553
0.00380358
0.00378345
0.00379109
0.00389783
0.00402805
0.00422825
0.00457677
0.00508041
0.00590356
0.00705596
0.00877029
0.0256683
0.162802
0.695177
1.38777
1.13147
0.703837
0.513748
0.484747
0.495147
0.556397
0.596297
0.00412075
0.0038029
0.00381135
0.00382586
0.0039576
0.00410178
0.0043126
0.00466922
0.00518087
0.00601526
0.00717319
0.00879551
0.0240409
0.142363
0.596014
1.19991
0.908559
0.547504
0.410591
0.400512
0.426256
0.516675
0.57482
0.00411606
0.00380362
0.00384459
0.003868
0.00402465
0.00418052
0.00440035
0.00476135
0.00527813
0.00611985
0.00728389
0.00883694
0.0226415
0.117717
0.481976
0.975024
0.717565
0.433283
0.339484
0.33864
0.378007
0.491935
0.55898
0.00411207
0.00381113
0.00388661
0.00391618
0.00409687
0.00426277
0.00448947
0.00485194
0.00537112
0.00621716
0.00739012
0.00896374
0.0217346
0.0970031
0.369556
0.760175
0.562381
0.351684
0.288428
0.294451
0.34217
0.469373
0.54558
0.00410871
0.00382815
0.00393225
0.00397058
0.00417342
0.00434713
0.00457878
0.00493983
0.00545926
0.00630719
0.00749443
0.0091961
0.0215008
0.079778
0.280598
0.576653
0.443242
0.295832
0.249863
0.259359
0.316183
0.451169
0.522568
0.00410624
0.0038541
0.00398508
0.00402982
0.00425303
0.00443236
0.00466727
0.00502447
0.00554216
0.00639095
0.00760062
0.00955236
0.0214869
0.0683693
0.213387
0.436605
0.362317
0.262034
0.222825
0.231221
0.284834
0.430228
0.478147
0.00410553
0.00388846
0.00404127
0.00409435
0.00433461
0.00451776
0.00475374
0.00510516
0.00561972
0.0064689
0.00771353
0.0100419
0.0216036
0.0618646
0.167805
0.339527
0.309649
0.24155
0.205615
0.209596
0.250013
0.384253
0.426493
0.00410804
0.00393001
0.00410311
0.0041631
0.00441787
0.00460246
0.00483841
0.00518197
0.0056919
0.00654215
0.00783759
0.0106707
0.0227108
0.0583968
0.140773
0.273141
0.2732
0.227183
0.188586
0.190762
0.216979
0.314928
0.388533
0.00411492
0.00397917
0.0041683
0.00423576
0.00450109
0.00468577
0.00491958
0.0052542
0.00575887
0.00661136
0.00797632
0.0114218
0.0246579
0.0561265
0.123502
0.22867
0.245236
0.212903
0.17315
0.172084
0.186272
0.248935
0.309073
0.00413094
0.0040343
0.00423704
0.00431188
0.00458468
0.00476736
0.00499825
0.00532242
0.00582073
0.00667748
0.00813118
0.0122821
0.0271247
0.0550562
0.112356
0.197682
0.222151
0.200144
0.15994
0.154325
0.160382
0.194329
0.237139
0.00415155
0.00409614
0.00430883
0.00439016
0.00466656
0.00484625
0.00507267
0.00538585
0.0058778
0.00674096
0.00830342
0.0132319
0.0299137
0.0548594
0.10643
0.174109
0.204072
0.185776
0.144792
0.136794
0.138667
0.153789
0.182815
0.00418139
0.00416289
0.00438147
0.00447033
0.00474716
0.0049223
0.00514368
0.00544528
0.00593019
0.00680255
0.00848748
0.0142455
0.0328545
0.0548005
0.101263
0.158255
0.18976
0.16762
0.133815
0.121955
0.123109
0.129893
0.148454
0.00421501
0.00423465
0.00445659
0.0045512
0.00482474
0.00499517
0.00521037
0.00549997
0.00597831
0.00686262
0.00869038
0.015311
0.0357679
0.0559055
0.10023
0.145707
0.17409
0.160811
0.134642
0.118753
0.113112
0.11939
0.132582
0.00425721
0.00430898
0.00452974
0.00463143
0.00489939
0.00506341
0.00527272
0.0055508
0.00602218
0.00692115
0.00888953
0.016366
0.0386484
0.0578199
0.0996342
0.139134
0.164069
0.158313
0.134251
0.116826
0.108385
0.114724
0.128794
0.00430146
0.00438699
0.00460415
0.00471123
0.00496948
0.00512917
0.00533083
0.00559716
0.00606235
0.00697965
0.00911847
0.0174527
0.0413198
0.060859
0.0992411
0.134902
0.159355
0.156873
0.13415
0.115342
0.10938
0.113357
0.132232
0.00435356
0.00446353
0.00467491
0.00478793
0.00503638
0.00518803
0.00538437
0.00563988
0.00609877
0.0070361
0.00930677
0.0184645
0.0437387
0.0628816
0.102668
0.134182
0.155737
0.154079
0.132462
0.113834
0.108545
0.124399
0.169876
0.00440491
0.00454343
0.00474449
0.00486247
0.00509594
0.0052458
0.00543344
0.00567856
0.00613199
0.00709455
0.00956035
0.0194234
0.0459966
0.068032
0.106421
0.132331
0.153515
0.153076
0.135343
0.118278
0.112983
0.148371
0.279062
0.00446336
0.00461732
0.0048106
0.00493311
0.00515442
0.00529484
0.00547843
0.00571398
0.00616219
0.00715024
0.00972469
0.0203442
0.0479184
0.0723386
0.1094
0.133207
0.149655
0.152165
0.145158
0.130351
0.145676
0.26454
0.485273
0.00451781
0.00469396
0.00487273
0.00499887
0.00520244
0.00534401
0.00551881
0.00574585
0.0061896
0.00721007
0.00996032
0.0212311
0.049438
0.0780635
0.146825
0.138646
0.151203
0.151212
0.188584
0.178981
0.225801
0.436712
0.774318
0.00457825
0.0047624
0.00493154
0.0050612
0.00525128
0.0053838
0.00555583
0.00577492
0.00621488
0.00726487
0.0101318
0.0220568
0.0504052
0.0840175
0.205536
0.176416
0.155154
0.164988
0.261063
0.288455
0.388379
0.730264
1.07604
0.00463329
0.00483078
0.00498686
0.00511722
0.00529046
0.00542426
0.00558814
0.00580115
0.00623793
0.0073281
0.0103526
0.0226955
0.0508261
0.0886583
0.2627
0.215672
0.163764
0.213627
0.352025
0.445658
0.647621
1.08331
1.43196
0.00469029
0.00489301
0.00503504
0.00516868
0.0053278
0.00545618
0.00561839
0.00582468
0.00625948
0.00738058
0.010497
0.0230274
0.0508975
0.0905536
0.303229
0.254713
0.185502
0.291894
0.483752
0.644577
0.929869
1.40721
1.70408
0.00474553
0.00494973
0.00508595
0.00521615
0.00536166
0.005488
0.00564355
0.00584646
0.0062798
0.00744601
0.0106798
0.0232801
0.0505672
0.0925918
0.332419
0.278427
0.230511
0.392153
0.639259
0.917293
1.26439
1.65396
1.88518
0.0047962
0.00500548
0.0051233
0.00525657
0.00538924
0.00551448
0.00566758
0.00586544
0.00629853
0.00749057
0.0107356
0.023185
0.0494668
0.093402
0.340923
0.289684
0.311965
0.552265
0.817714
1.19391
1.57502
1.90822
2.03678
0.00484778
0.00505082
0.00516847
0.00529503
0.00541728
0.00553738
0.00568758
0.00588328
0.00631713
0.00755273
0.0108397
0.0229824
0.0480896
0.0938937
0.351236
0.333171
0.45104
0.720151
1.05179
1.47341
1.83173
2.04536
2.15264
0.00489658
0.00509791
0.00520089
0.00532866
0.00544097
0.0055607
0.00570638
0.00589891
0.00633414
0.00759278
0.0107979
0.0224757
0.0457812
0.0962141
0.429913
0.446577
0.641923
0.936014
1.29714
1.72285
2.03038
2.16822
2.20309
0.00493883
0.00513566
0.0052368
0.00535677
0.00546172
0.00557722
0.00572146
0.00591309
0.0063514
0.007643
0.0107585
0.0218331
0.0445026
0.0996033
0.560798
0.609722
0.857661
1.15188
1.56521
1.93378
2.18603
2.28293
2.2727
0.00498638
0.00517446
0.00526752
0.00538627
0.00548364
0.00559659
0.00573885
0.00592572
0.00636728
0.00766627
0.0106332
0.021084
0.0406694
0.106392
0.721918
0.795755
1.09496
1.42478
1.79791
2.13626
2.24373
2.26786
2.31811
0.00502471
0.00520577
0.00529891
0.00540888
0.0054994
0.00561381
0.00574928
0.00593757
0.00638299
0.00770425
0.0105437
0.0200646
0.0405415
0.116201
0.915175
1.02817
1.36115
1.67574
2.05604
2.25581
2.31884
2.27766
2.27094
0.00506628
0.00524358
0.00532489
0.00543238
0.00551902
0.00563008
0.00575627
0.00594735
0.0063976
0.00771406
0.0103557
0.0192269
0.0397643
0.119085
1.11745
1.27508
1.6333
1.94388
2.16822
2.23652
2.2847
2.2782
2.29007
0.00510374
0.00527164
0.00535737
0.00545568
0.00553846
0.00563436
0.00575595
0.0059557
0.00641097
0.0076954
0.0101601
0.0181541
0.039388
0.11886
1.32956
1.54761
1.90031
2.18821
2.23776
2.31679
2.30185
2.30313
2.26003
0.0051484
0.00529173
0.00538505
0.00547955
0.00555264
0.005637
0.0057571
0.00596164
0.00642377
0.00770713
0.0100433
0.0169175
0.039017
0.124247
1.53412
1.83291
2.09256
2.26647
2.33098
2.35873
2.36096
2.31936
2.20173
0.00517687
0.00529474
0.00539891
0.00549079
0.00556315
0.00564122
0.0057592
0.00596564
0.00643506
0.00766076
0.00990997
0.0167567
0.0389467
0.13473
1.70218
2.04457
2.283
2.39323
2.37445
2.35684
2.31248
2.28449
2.1235
0.00519515
0.0052974
0.00541531
0.00549704
0.00556977
0.00563896
0.00576003
0.00596867
0.00644533
0.00762317
0.00982173
0.0165539
0.0392619
0.154137
1.86009
2.23499
2.36021
2.38446
2.41078
2.39375
2.34618
2.22634
2.02936
0.00520679
0.0053064
0.00541411
0.00549974
0.00557822
0.0056398
0.00576501
0.00596867
0.00645426
0.00760439
0.00987164
0.0163008
0.0415722
0.208492
2.01327
2.31571
2.40055
2.41917
2.36102
2.33653
2.32104
2.14674
1.93303
0.00520518
0.00530377
0.005415
0.00549989
0.0055742
0.00563979
0.00576368
0.00596916
0.00646357
0.00760124
0.00978538
0.0159758
0.0427764
0.254918
2.15573
2.35702
2.44379
2.4021
2.36315
2.36853
2.26771
2.0437
1.81529
0.00521628
0.00530475
0.00542414
0.00549701
0.00557369
0.00564164
0.00576322
0.00597048
0.00647016
0.00760208
0.00984967
0.0160223
0.0474955
0.43835
2.23385
2.39886
2.41024
2.37145
2.39809
2.35815
2.19256
1.94063
1.70009
0.00520777
0.00530568
0.00541818
0.00549765
0.00557987
0.00564689
0.00576495
0.00597179
0.00647867
0.00760663
0.00988298
0.0162586
0.0625548
0.593967
2.31042
2.36972
2.43466
2.36596
2.3781
2.27945
2.05595
1.78836
1.54717
0.00520706
0.00531479
0.00541748
0.00549634
0.00557453
0.00564178
0.00576313
0.00597115
0.00648362
0.00756859
0.00987687
0.0162824
0.0718248
0.846949
2.29351
2.38712
2.39796
2.38503
2.3422
2.19858
1.94196
1.66851
1.42568
0.00520516
0.00530651
0.00541687
0.0054959
0.00557672
0.00564685
0.0057643
0.00597469
0.00649458
0.00756965
0.00986296
0.0183611
0.0993695
1.08591
2.31568
2.35349
2.36314
2.32634
2.2375
2.03127
1.75017
1.47354
1.24204
0.00520429
0.00530535
0.0054233
0.00550197
0.00556756
0.00564108
0.00575666
0.00597113
0.0064887
0.00750797
0.00963757
0.0173477
0.0991434
1.10654
2.23471
2.26546
2.28119
2.23981
2.12994
1.8922
1.59639
1.32612
1.10626
0.00520226
0.00530422
0.00541355
0.00549224
0.00556538
0.00564317
0.00575702
0.00596437
0.00647867
0.00744751
0.00940464
0.0166589
0.0982587
1.1288
2.0746
2.14224
2.16412
2.12973
2.01411
1.75558
1.46444
1.20566
0.994118
0.00520219
0.00531206
0.00542296
0.00549006
0.00556914
0.00564198
0.00575154
0.00595808
0.00646838
0.00738707
0.00918606
0.0163269
0.0950064
1.14773
1.90003
2.01309
2.03121
2.00111
1.87813
1.60274
1.32095
1.07861
0.879248
0.00520869
0.00529799
0.0054116
0.00548299
0.00556779
0.00563924
0.00573994
0.00594845
0.00645624
0.00732996
0.00898241
0.0159024
0.0913671
1.13321
1.72674
1.88603
1.90118
1.86805
1.71321
1.43219
1.16913
0.938406
0.747066
0.0052043
0.00529586
0.00541624
0.00547917
0.00556274
0.00563164
0.00572188
0.00593986
0.0064427
0.0072766
0.00881264
0.0159911
0.100571
1.14268
1.56011
1.7532
1.76908
1.71965
1.53471
1.24599
0.991929
0.764082
0.580785
0.00519795
0.00529619
0.00541658
0.00546986
0.00555572
0.00562266
0.00571542
0.00592742
0.00642713
0.00722715
0.00867431
0.0162392
0.104086
1.12286
1.41763
1.57578
1.62038
1.55511
1.31736
1.02473
0.779441
0.579856
0.42831
0.005189
0.00530075
0.00541015
0.00546339
0.00554539
0.0056087
0.0057168
0.00591524
0.00640797
0.00718265
0.00855921
0.0173898
0.105227
1.02543
1.28942
1.4001
1.45832
1.35671
1.0745
0.816946
0.586689
0.402968
0.268025
0.00515374
0.00529359
0.00539618
0.00546727
0.00553376
0.00558587
0.00570759
0.0058993
0.00638782
0.00714122
0.0085188
0.0179596
0.114505
0.861405
1.12554
1.22764
1.30631
1.15295
0.840195
0.57663
0.365024
0.232017
0.147452
0.00514052
0.00527802
0.00537498
0.00545711
0.00552103
0.00555241
0.00568999
0.00588194
0.00636167
0.00710563
0.00848845
0.0185021
0.141147
0.743629
0.965109
1.06117
1.15321
0.895097
0.56906
0.356586
0.217794
0.13691
0.0862355
0.00512921
0.00525754
0.00535288
0.00544395
0.00550441
0.00554069
0.00566388
0.00586158
0.00633682
0.00707602
0.00859014
0.0219008
0.174999
0.650687
0.813981
0.955202
0.954204
0.610216
0.370771
0.228545
0.139633
0.0888208
0.0565973
0.00510662
0.00523822
0.00532812
0.00539731
0.00548147
0.00554271
0.00563984
0.00583742
0.00630388
0.0070508
0.00865212
0.0249126
0.26455
0.568551
0.717429
0.832945
0.688684
0.41308
0.255736
0.16102
0.0978111
0.0640469
0.0481207
0.00509684
0.00520981
0.005285
0.00536769
0.00544537
0.00552056
0.00561157
0.00581035
0.00627414
0.00704379
0.00925961
0.0331442
0.27065
0.469218
0.659869
0.673015
0.481549
0.30116
0.196244
0.120486
0.0746196
0.0580181
0.0370386
0.00505749
0.00517789
0.0052227
0.00531088
0.00541363
0.00549591
0.00558371
0.00577763
0.00623452
0.00702221
0.0096499
0.0405637
0.301872
0.422254
0.567678
0.513294
0.360703
0.247438
0.156309
0.0925181
0.0679036
0.0464504
0.0287854
0.00500644
0.00514097
0.0052015
0.00526643
0.00537739
0.0054571
0.00554763
0.00574083
0.00619872
0.00704241
0.0108062
0.0511045
0.257657
0.383863
0.474077
0.397358
0.291952
0.205747
0.123855
0.0812956
0.0596439
0.0345782
0.0273084
0.00495373
0.0051032
0.00520394
0.00523587
0.00533503
0.00542012
0.00550968
0.00569726
0.00615018
0.00707462
0.0123764
0.0594172
0.213051
0.336904
0.37707
0.311183
0.243097
0.167547
0.0999297
0.0739971
0.0417011
0.0306683
0.0267675
0.00491609
0.00506364
0.00517423
0.0052072
0.00528188
0.00536687
0.00545746
0.00564745
0.00610768
0.00714707
0.0137035
0.0694162
0.178506
0.299271
0.313709
0.262727
0.208694
0.137599
0.0864393
0.0555902
0.0327461
0.0287132
0.0244248
0.00486037
0.00500582
0.00511873
0.00514151
0.00522525
0.00531271
0.00540565
0.00558757
0.00604777
0.00730038
0.0179321
0.0769632
0.15511
0.251867
0.251236
0.218203
0.182826
0.118234
0.0587203
0.0370802
0.0315902
0.0257564
0.0182877
0.00478798
0.00494425
0.00505518
0.00505726
0.00516203
0.00523596
0.00533209
0.0055206
0.00599446
0.00738042
0.021437
0.0806369
0.155645
0.231935
0.217559
0.198501
0.160076
0.0875436
0.0430367
0.0392285
0.028153
0.0201731
0.0118914
0.00469903
0.00486527
0.00497012
0.00495464
0.00509006
0.00515908
0.005264
0.00543876
0.00592453
0.00784719
0.027655
0.0806011
0.15244
0.204927
0.168623
0.154257
0.12642
0.0536737
0.0436201
0.0381743
0.0230639
0.0121689
0.0098657
0.00460556
0.00479038
0.00488442
0.00487399
0.00500905
0.00505901
0.00516354
0.00534828
0.00585533
0.00800249
0.0329056
0.083017
0.148189
0.180626
0.158292
0.137465
0.0852546
0.062333
0.0486558
0.0331907
0.0130447
0.00964342
0.00867006
0.00451385
0.0046914
0.00477722
0.00478816
0.00491074
0.00496362
0.00507548
0.00524432
0.00579299
0.00983846
0.0415556
0.0953195
0.150622
0.178038
0.14863
0.136747
0.11164
0.0796783
0.0450977
0.0196949
0.00961379
0.00823228
0.0077183
0.0044347
0.00459614
0.00467318
0.0047068
0.00480358
0.00484106
0.00494159
0.00512619
0.00583387
0.0108185
0.0509621
0.104174
0.17118
0.181985
0.166217
0.161409
0.129778
0.067943
0.034082
0.0110302
0.00787987
0.00720279
0.00690833
0.00432677
0.00446823
0.0045375
0.00458842
0.00467063
0.00472384
0.00482999
0.0050062
0.00568322
0.0122425
0.0683008
0.140502
0.211708
0.208075
0.210567
0.192307
0.115628
0.0589633
0.0157941
0.00786713
0.00670805
0.00635445
0.0061718
0.00422293
0.00435028
0.00441407
0.00447379
0.00453501
0.00457199
0.00466042
0.00490372
0.00631058
0.0196115
0.0986489
0.200312
0.261336
0.257727
0.24424
0.175965
0.105351
0.027428
0.00903189
0.00639098
0.00593919
0.00575642
0.00562111
0.00407583
0.00418935
0.00424728
0.00430838
0.00436311
0.00442527
0.00451921
0.00475847
0.00697702
0.033387
0.169181
0.254479
0.307613
0.272036
0.232151
0.164319
0.0538473
0.0125957
0.00632125
0.0055256
0.00532613
0.00523114
0.00513348
0.00394608
0.00405353
0.00410668
0.00416442
0.00420308
0.00423892
0.00432493
0.00484577
0.00889054
0.0530603
0.213924
0.303741
0.351155
0.28204
0.23963
0.107838
0.0217301
0.00702488
0.0052863
0.00503206
0.00494356
0.00487987
0.00483427
0.00376016
0.0038575
0.00390137
0.00395085
0.00399038
0.00406754
0.00417997
0.00542042
0.0143091
0.103971
0.281778
0.312943
0.342138
0.278919
0.186695
0.0421184
0.00924181
0.00509646
0.00465219
0.004561
0.00452026
0.00448175
0.00446626
0.00361833
0.00371528
0.00374909
0.003792
0.00381206
0.00383636
0.00408393
0.00650996
0.0254486
0.145637
0.275324
0.330192
0.340717
0.261813
0.0779324
0.0149442
0.00543825
0.0044456
0.00432823
0.00429339
0.00426776
0.0042539
0.00424563
0.00339906
0.00347303
0.00349472
0.00352757
0.00356292
0.00368059
0.00400774
0.00705347
0.0385203
0.209305
0.280216
0.34177
0.321104
0.136238
0.0263938
0.00644714
0.00414176
0.00392823
0.0038964
0.0038831
0.00387123
0.00386699
0.0038606
0.00326931
0.00333601
0.00335201
0.00337834
0.00337933
0.00346844
0.00496941
0.0139207
0.0777459
0.248571
0.271461
0.315628
0.211517
0.0462165
0.0094167
0.00427861
0.00378015