/*--------------------------------*- C++ -*----------------------------------*\
  =========                 |
  \\      /  F ield         | OpenFOAM: The Open Source CFD Toolbox
   \\    /   O peration     | Website:  https://openfoam.org
    \\  /    A nd           | Version:  7
     \\/     M anipulation  |
\*---------------------------------------------------------------------------*/
FoamFile
{
    version     2.0;
    format      ascii;
    class       volScalarField;
    location    "100";
    object      nut;
}
// * * * * * * * * * * * * * * * * * * * * * * * * * * * * * * * * * * * * * //

dimensions      [0 2 -1 0 0 0 0];

internalField   nonuniform List<scalar> 
12842
(
0.00181311
0.00178418
0.00179345
0.00177717
0.00177534
0.00175904
0.00176523
0.00175731
0.001762
0.00175782
0.00176539
0.00177043
0.00178208
0.00110818
0.000545515
0.000313837
0.00020563
0.000149031
0.000114408
9.21457e-05
7.67465e-05
6.62075e-05
5.81866e-05
0.00181453
0.00178414
0.00177462
0.00177807
0.0017854
0.00176362
0.00176557
0.00175521
0.00176243
0.00175788
0.00176553
0.00177062
0.00178232
0.00110342
0.000544325
0.000312823
0.00020553
0.000149126
0.000114578
9.24525e-05
7.70666e-05
6.67848e-05
5.84628e-05
0.00180949
0.00179307
0.0017729
0.00175616
0.00177766
0.00176578
0.0017689
0.00175587
0.00176119
0.0017576
0.00176597
0.00177179
0.00178524
0.00107837
0.000537196
0.000310804
0.000204972
0.000148804
0.000114419
9.25283e-05
7.72499e-05
6.73038e-05
5.87063e-05
0.00180735
0.00179027
0.0017837
0.00176317
0.00177062
0.00176254
0.00176605
0.00175594
0.00176301
0.00175826
0.00176613
0.00177286
0.00178701
0.0010405
0.000523526
0.000306096
0.000203652
0.000148557
0.000114456
9.26725e-05
7.74068e-05
6.77962e-05
5.88956e-05
0.00180388
0.00178449
0.00177554
0.00175918
0.00176834
0.00175954
0.00176619
0.00175582
0.00176273
0.00175881
0.0017663
0.00177479
0.00179256
0.00100523
0.000511366
0.000301543
0.000201936
0.000147964
0.000114494
9.29633e-05
7.76437e-05
6.83477e-05
5.9131e-05
0.00180441
0.00178537
0.00177967
0.00176198
0.0017641
0.00175739
0.00176314
0.00175526
0.00176341
0.00176062
0.00176623
0.00177592
0.00179502
0.000977252
0.000502333
0.000298995
0.000201494
0.000148264
0.00011493
9.34666e-05
7.8049e-05
6.90167e-05
5.94413e-05
0.00179947
0.00177832
0.00177432
0.00176124
0.00176455
0.00175482
0.001762
0.00175588
0.00176258
0.00176215
0.00176671
0.0017786
0.00180319
0.000964863
0.000500911
0.00030005
0.000202904
0.000149722
0.000116234
9.45348e-05
7.87324e-05
6.97705e-05
5.98332e-05
0.00180152
0.00177962
0.0017737
0.00176192
0.00176122
0.00175492
0.00176005
0.00175505
0.00176176
0.00176423
0.00176661
0.00177932
0.00180478
0.000948748
0.000495446
0.000299886
0.000204659
0.000151764
0.000118053
9.59795e-05
7.98391e-05
7.09112e-05
6.06679e-05
0.00179564
0.00177412
0.00177195
0.00176119
0.00176215
0.00175303
0.00175904
0.00175663
0.00176112
0.00176471
0.00176826
0.00178286
0.00181365
0.000939693
0.000494488
0.00030111
0.000206621
0.000154638
0.00012065
9.83272e-05
8.13603e-05
7.23396e-05
6.15056e-05
0.0017981
0.00177479
0.00176924
0.0017613
0.00175978
0.00175451
0.00175815
0.00175623
0.00176087
0.00176509
0.00177077
0.00178525
0.00181634
0.000942363
0.000498073
0.000305282
0.000210328
0.000157054
0.000122127
9.92757e-05
8.19067e-05
7.28774e-05
6.15824e-05
0.0017919
0.00177051
0.00176975
0.00175982
0.00176037
0.001753
0.00175785
0.00175757
0.00176118
0.00176528
0.00177331
0.00179111
0.00182613
0.000925429
0.000494664
0.000305036
0.000211136
0.000158973
0.000123793
0.00010096
8.2931e-05
7.38357e-05
6.23028e-05
0.00179332
0.00177086
0.00176655
0.0017598
0.00175882
0.00175484
0.00175696
0.00175715
0.00176103
0.00176369
0.00177734
0.00179635
0.00183264
0.000910996
0.000490498
0.000306118
0.000214446
0.000162319
0.000126289
0.000102965
8.44345e-05
7.54099e-05
6.34674e-05
0.00178824
0.00176751
0.00176813
0.00175807
0.00175919
0.00175336
0.0017572
0.00175811
0.00176148
0.00176553
0.00177966
0.00180194
0.00184463
0.000897178
0.000489188
0.00030855
0.000217207
0.000165814
0.000129265
0.000105851
8.64289e-05
7.7181e-05
6.48211e-05
0.00178803
0.00176779
0.00176489
0.00175793
0.00175859
0.00175485
0.00175615
0.00175782
0.00176138
0.00176718
0.00178425
0.0018081
0.00185301
0.000885232
0.000487495
0.000311076
0.000222272
0.000171181
0.000133317
0.000109276
8.89103e-05
8.00342e-05
6.69508e-05
0.00178474
0.00176524
0.00176663
0.00175668
0.0017588
0.00175347
0.00175659
0.00175833
0.00176201
0.00176674
0.00178692
0.00181297
0.00182938
0.000870442
0.000484653
0.000313927
0.000226254
0.000175652
0.000137496
0.000113551
9.25842e-05
8.27313e-05
6.9621e-05
0.00178361
0.00176553
0.00176332
0.00175659
0.0017589
0.00175436
0.00175589
0.00175813
0.00176232
0.00176915
0.00179126
0.00182034
0.00179527
0.000861409
0.000485473
0.000318148
0.00023304
0.000183058
0.000143826
0.000118365
9.67856e-05
8.55859e-05
7.32797e-05
0.00178152
0.00176349
0.00176478
0.00175619
0.00175877
0.00175306
0.00175608
0.00175844
0.00176317
0.0017707
0.00179345
0.00182578
0.00175309
0.000846318
0.000481823
0.000321024
0.000238932
0.000189502
0.000150382
0.000124436
0.000103202
8.97107e-05
7.80013e-05
0.00178028
0.00176393
0.00176144
0.00175632
0.00175904
0.00175357
0.00175606
0.0017584
0.00176398
0.00177394
0.00179766
0.00183286
0.00172245
0.000839496
0.000484641
0.000328179
0.000249169
0.000200621
0.000161271
0.000133246
0.000111178
9.47297e-05
8.44749e-05
0.00177868
0.0017618
0.0017627
0.00175655
0.0017584
0.0017525
0.00175574
0.00175881
0.00176502
0.00177518
0.00180019
0.00183997
0.00168359
0.000824737
0.000480965
0.000331168
0.000257271
0.000211369
0.000173543
0.000144727
0.000121304
0.000103689
9.50209e-05
0.00177782
0.00176259
0.00175963
0.00175675
0.00175839
0.0017529
0.00175619
0.001759
0.00176611
0.00177898
0.00180439
0.00184524
0.00165368
0.000817818
0.000483987
0.000340424
0.000272902
0.000230524
0.000193772
0.000161642
0.000137268
0.000117076
0.000107793
0.00177658
0.00176009
0.00176085
0.00175715
0.00175739
0.00175213
0.00175564
0.00175954
0.00176688
0.00178051
0.00180764
0.0018538
0.00161876
0.000802638
0.000479676
0.000344667
0.000284449
0.000250717
0.000220197
0.000188225
0.000156093
0.000131569
0.000122558
0.00177573
0.00176116
0.00175831
0.00175708
0.00175693
0.00175247
0.00175627
0.00176003
0.00176794
0.00178311
0.00181074
0.00185727
0.00158296
0.000795437
0.000482691
0.000354416
0.000306442
0.000287867
0.000267104
0.000223535
0.000181734
0.000156654
0.000149435
0.00177519
0.0017587
0.00175952
0.00175725
0.00175598
0.00175194
0.00175588
0.0017606
0.00176721
0.00178482
0.00181593
0.00186606
0.00152912
0.000768203
0.000472521
0.000356833
0.00031968
0.000324702
0.000336227
0.000295012
0.00023384
0.000198742
0.000179713
0.0017739
0.00175953
0.00175804
0.00175689
0.00175515
0.00175221
0.00175651
0.00176129
0.00176836
0.00178746
0.00181757
0.00186811
0.00148458
0.000747067
0.000460888
0.000352557
0.000331987
0.000384531
0.000524947
0.000479294
0.000325151
0.000246895
0.000214263
0.00177411
0.00175861
0.00175851
0.0017565
0.00175449
0.00175219
0.00175702
0.001762
0.00176919
0.00178937
0.00182258
0.00187462
0.00146265
0.000737645
0.000460551
0.000358482
0.000347619
0.000446732
0.000921477
0.000777607
0.000487183
0.000329705
0.000286708
0.00177245
0.00175922
0.00175754
0.00175576
0.0017539
0.00175252
0.00175759
0.00176241
0.00177012
0.00179198
0.00182494
0.00187462
0.001424
0.000717333
0.000446559
0.00034861
0.000343116
0.000452332
0.000843901
0.000721081
0.000475832
0.000384331
0.000589198
0.00177313
0.00175874
0.00175755
0.00175523
0.00175343
0.00175263
0.00175821
0.00176279
0.00177093
0.00179382
0.00183077
0.00188118
0.00139082
0.000703248
0.000441323
0.000346777
0.000340022
0.000398917
0.000533804
0.000572484
0.000568732
0.00110929
0.0016815
0.0017711
0.0017591
0.00175649
0.00175446
0.00175286
0.00175315
0.0017588
0.00176305
0.00177193
0.0017966
0.00183497
0.00188287
0.00135814
0.000685219
0.000427673
0.00033015
0.000309258
0.000346724
0.00049601
0.000648393
0.00100603
0.00188155
0.00300217
0.00177193
0.00175904
0.00175602
0.00175405
0.00175257
0.00175345
0.00175922
0.00176312
0.00177272
0.00179838
0.00183907
0.00188845
0.00132205
0.000667323
0.000417005
0.000322084
0.000301016
0.000359447
0.000513522
0.000957175
0.00187354
0.00295679
0.00390308
0.00177002
0.00175887
0.0017549
0.00175356
0.00175207
0.00175407
0.00175964
0.00176322
0.00177406
0.00180195
0.001844
0.00189352
0.00129706
0.000656561
0.000407822
0.000306302
0.000286747
0.000356703
0.000530676
0.00122442
0.00240601
0.0033516
0.00427186
0.00177074
0.00175916
0.00175416
0.00175337
0.00175204
0.00175457
0.00175955
0.0017632
0.00177497
0.00180431
0.00184644
0.00189657
0.00126246
0.000637398
0.000393643
0.000302326
0.000295113
0.000347069
0.00054472
0.00169646
0.00284225
0.00387049
0.0052045
0.00176933
0.00175845
0.00175306
0.00175321
0.00175167
0.00175522
0.00175954
0.00176333
0.00177645
0.00180775
0.0018504
0.00190279
0.00124054
0.0006278
0.00039063
0.000298294
0.000280537
0.000327636
0.000655399
0.00227217
0.00333731
0.00472915
0.00631528
0.00176978
0.00175877
0.0017524
0.00175329
0.00175193
0.00175579
0.00175907
0.00176335
0.00177719
0.00180949
0.00185268
0.0019062
0.00121214
0.000624859
0.000393798
0.000303056
0.000284817
0.000385168
0.00104798
0.00256648
0.00385651
0.00523321
0.00719861
0.00176896
0.0017579
0.00175152
0.00175327
0.00175178
0.00175636
0.0017587
0.00176354
0.0017782
0.00181211
0.00185749
0.00191295
0.00119736
0.000611294
0.000386432
0.000296476
0.000279059
0.000427755
0.00185925
0.00311145
0.00421906
0.00605761
0.00834066
0.00176915
0.00175783
0.00175118
0.00175358
0.00175227
0.00175682
0.00175822
0.00176355
0.00177878
0.00181331
0.00186078
0.00191743
0.00117694
0.000630211
0.00041196
0.000321863
0.000333224
0.000714367
0.00238869
0.00337623
0.00469585
0.00679755
0.00972385
0.0017687
0.00175713
0.00175079
0.00175357
0.00175235
0.00175709
0.00175769
0.00176362
0.00177987
0.00181587
0.00186889
0.00192817
0.00117778
0.000630219
0.000420351
0.000332547
0.000390477
0.00117108
0.00275359
0.00353206
0.00484977
0.00713832
0.0106096
0.00176881
0.00175673
0.00175079
0.00175391
0.00175302
0.0017573
0.00175734
0.00176362
0.00178051
0.00181709
0.00187456
0.00193554
0.00116194
0.000652266
0.000448106
0.000394408
0.000628014
0.00214057
0.00283525
0.00348492
0.00502491
0.00881404
0.0119425
0.00176848
0.0017561
0.001751
0.00175389
0.00175325
0.00175718
0.00175705
0.0017635
0.00178211
0.00182153
0.00189067
0.00195491
0.00118019
0.000676336
0.000498512
0.000473104
0.000953822
0.00232649
0.00295329
0.0035987
0.00548995
0.00932481
0.0119879
0.00176852
0.00175584
0.00175117
0.00175413
0.00175386
0.00175695
0.00175671
0.0017636
0.00178296
0.00182423
0.00190101
0.00196752
0.00118142
0.000715328
0.000535476
0.000645161
0.00177186
0.00306085
0.0030641
0.00375135
0.0060519
0.0102974
0.0121799
0.00176832
0.00175515
0.00175184
0.00175404
0.00175424
0.00175647
0.00175675
0.00176455
0.00178685
0.0018354
0.0019298
0.00199778
0.00121383
0.00076855
0.000715735
0.00103998
0.00219616
0.00276745
0.00300854
0.00374216
0.00628222
0.00971029
0.0117182
0.00176815
0.00175521
0.00175196
0.00175413
0.00175452
0.00175584
0.00175658
0.00176502
0.0017902
0.00184324
0.00194707
0.00201632
0.00123298
0.000846129
0.000834552
0.00171331
0.00278692
0.00294256
0.00305188
0.00399191
0.00638238
0.00904947
0.0109933
0.00176815
0.00175466
0.0017528
0.00175403
0.00175481
0.00175504
0.00175649
0.00176734
0.0018001
0.00186619
0.00199093
0.00205735
0.00131732
0.000973187
0.00123296
0.00197337
0.00259869
0.00294381
0.00332066
0.00438236
0.00670388
0.00959681
0.010665
0.00176774
0.00175477
0.00175298
0.00175394
0.00175481
0.00175382
0.00175621
0.00176982
0.00180887
0.0018833
0.00201585
0.00208085
0.00135951
0.00113932
0.0016686
0.00225399
0.00275621
0.00296523
0.00355133
0.00494345
0.00701791
0.00972457
0.0101647
0.00176784
0.00175466
0.0017536
0.00175384
0.00175474
0.00175316
0.00175623
0.00177541
0.00182528
0.00192083
0.00207237
0.00212245
0.00152859
0.00156634
0.00175282
0.00228467
0.00272867
0.00304146
0.00419608
0.00551992
0.00712821
0.0088348
0.00965111
0.00176724
0.00175457
0.00175396
0.00175364
0.00175428
0.00175157
0.00175666
0.00178126
0.0018407
0.00194856
0.00210405
0.00215577
0.00161194
0.0015993
0.00195461
0.00269811
0.00285006
0.00354105
0.00485002
0.00628463
0.00746376
0.009156
0.00991184
0.00176723
0.00175468
0.00175427
0.00175362
0.00175395
0.00175078
0.00175821
0.0017913
0.00186392
0.00199191
0.00216543
0.00218146
0.00185491
0.00170741
0.00229755
0.00266853
0.00320396
0.00402126
0.00628074
0.00727607
0.00782187
0.00894162
0.00978454
0.00176654
0.00175456
0.00175475
0.00175325
0.00175316
0.00174961
0.00175979
0.0018023
0.00188706
0.00202811
0.00220176
0.00223232
0.00195029
0.00185581
0.00247177
0.00305835
0.0034901
0.0048813
0.00715027
0.00807357
0.00851669
0.00919841
0.00958408
0.00176625
0.00175432
0.00175498
0.00175315
0.00175242
0.00174882
0.00176551
0.00181813
0.0019165
0.00207221
0.00225404
0.00223266
0.0019168
0.00197593
0.00250495
0.00320217
0.00375071
0.00686437
0.0083128
0.00862239
0.00882682
0.00896806
0.00894631
0.00176536
0.00175407
0.00175513
0.00175282
0.00175161
0.00174929
0.00177136
0.00183456
0.00194542
0.00210997
0.00228954
0.00228486
0.00206276
0.00231238
0.00326727
0.00348163
0.00443869
0.00790703
0.00902222
0.00894564
0.008691
0.00828997
0.00841131
0.00176491
0.0017535
0.00175553
0.00175247
0.00175053
0.0017508
0.0017821
0.00185666
0.00197627
0.00214506
0.00232386
0.00229896
0.00222731
0.00263205
0.00333389
0.00337086
0.00662807
0.00895274
0.00917993
0.00913791
0.00864232
0.00756402
0.00746253
0.00176375
0.00175246
0.00175542
0.00175191
0.00175112
0.00175421
0.00179399
0.00188053
0.00200473
0.00217264
0.00234918
0.00231769
0.00228335
0.00281809
0.00338195
0.00506196
0.00823606
0.00933091
0.00914542
0.00904921
0.00838531
0.00704297
0.0065494
0.00176272
0.00175131
0.00175515
0.00175185
0.00175281
0.00176303
0.00181219
0.00190734
0.00203002
0.00219419
0.0023615
0.00234439
0.0025642
0.00326215
0.00502485
0.00710528
0.00927262
0.00932911
0.00893007
0.00834325
0.00756089
0.00632853
0.00604473
0.00176143
0.00174986
0.00175495
0.0017524
0.00175659
0.00177578
0.00183256
0.00193421
0.00205358
0.00221121
0.00236842
0.00236738
0.00275423
0.0043146
0.0060746
0.0078231
0.00923879
0.00917345
0.00787709
0.00699851
0.00637799
0.00549742
0.00529803
0.00175972
0.00174847
0.00175597
0.00175435
0.00176664
0.00179539
0.00185872
0.00195946
0.0020718
0.00222067
0.00236649
0.00237962
0.00310322
0.00477133
0.00629923
0.00828131
0.00913264
0.00834019
0.00654201
0.00582543
0.00539771
0.00497598
0.00495586
0.001758
0.00174734
0.00175753
0.00175804
0.00178148
0.00181816
0.00188458
0.00198204
0.00208606
0.00222571
0.00235987
0.00237536
0.00320268
0.00490364
0.00637003
0.00819824
0.00889124
0.00703513
0.00542617
0.00490088
0.00470609
0.00457098
0.00461715
0.00175625
0.00174718
0.00176222
0.00176698
0.0018028
0.00184722
0.00190963
0.00200028
0.00209407
0.00222346
0.00234679
0.00236068
0.00318725
0.00494518
0.00631643
0.00806877
0.00787016
0.0059749
0.00456891
0.00423739
0.00421659
0.00437033
0.00452965
0.00175485
0.00174786
0.00177177
0.00178043
0.00182651
0.00187407
0.00192921
0.00201237
0.00209627
0.00221663
0.00233152
0.00233903
0.0030814
0.00483307
0.00593479
0.00746119
0.00696531
0.00510957
0.00394369
0.00373795
0.00380031
0.0041719
0.00444252
0.00175387
0.0017492
0.00178598
0.00179692
0.00184956
0.00189826
0.00194562
0.00202015
0.00209455
0.00220664
0.00231523
0.00232001
0.00289161
0.00456545
0.00546908
0.00672932
0.00609112
0.00436416
0.00343044
0.00334695
0.00347431
0.0040189
0.0043825
0.00175351
0.00175129
0.00180243
0.00181608
0.00187128
0.00191992
0.00195846
0.00202375
0.00208939
0.00219399
0.00229754
0.00229936
0.00271793
0.00401678
0.0048902
0.00600653
0.00525552
0.00377032
0.00305925
0.00303033
0.00323618
0.00392036
0.00432846
0.00175394
0.00175652
0.00182277
0.00183548
0.00189056
0.00193798
0.00196742
0.00202352
0.00208144
0.00217957
0.0022795
0.00228514
0.00261777
0.00344331
0.00419753
0.00532053
0.00448814
0.00331417
0.00278947
0.00280576
0.00304583
0.00382019
0.00428087
0.00175523
0.00176595
0.00184442
0.00185316
0.00190733
0.00195256
0.00197257
0.00202003
0.00207142
0.00216402
0.00226103
0.00227419
0.00258303
0.00291703
0.00353747
0.00466257
0.00385696
0.00294954
0.00255358
0.0026058
0.00293584
0.00373139
0.00413973
0.00175743
0.00177926
0.00186894
0.00186959
0.00192123
0.00196306
0.00197453
0.00201406
0.00206004
0.00214829
0.00224261
0.00226239
0.00254994
0.00253845
0.00293151
0.00406842
0.00342469
0.00273874
0.00239898
0.0024513
0.00278288
0.00363065
0.00385832
0.00176071
0.00179614
0.00189258
0.00188381
0.00193225
0.00197032
0.00197339
0.00200615
0.00204792
0.00213271
0.00222428
0.00224814
0.00241461
0.00230242
0.00245329
0.00357873
0.00317679
0.00262326
0.00231121
0.00233584
0.00259706
0.00335904
0.00356219
0.00176543
0.0018161
0.00191524
0.00189681
0.00194065
0.00197397
0.00197032
0.00199713
0.00203551
0.00211785
0.0022059
0.00222781
0.00229531
0.00216323
0.00214873
0.00319722
0.00302344
0.00256725
0.00221551
0.00223691
0.00242056
0.00299871
0.00345054
0.00177173
0.00183898
0.001935
0.0019074
0.0019463
0.0019749
0.00196501
0.00198711
0.00202316
0.00210384
0.00218758
0.00220402
0.0022023
0.00198102
0.00193335
0.00287924
0.00291094
0.00253717
0.0021539
0.00214356
0.00224736
0.00265293
0.00299314
0.00178132
0.00186337
0.00195204
0.00191666
0.00194958
0.00197311
0.00195879
0.00197691
0.0020111
0.00209088
0.00216893
0.00216824
0.00212207
0.00183163
0.00179327
0.00267226
0.00275893
0.00249346
0.00212912
0.00205799
0.00210158
0.00232859
0.00254015
0.00179228
0.00188817
0.00196596
0.00192353
0.00195069
0.00196917
0.00195119
0.00196635
0.00199953
0.00207892
0.00215031
0.00213632
0.00205237
0.00166866
0.00170986
0.00244254
0.00269765
0.00248194
0.0020593
0.00195936
0.00196981
0.0020547
0.00216865
0.00180659
0.00191061
0.00197565
0.0019286
0.00194955
0.00196344
0.0019433
0.00195606
0.00198852
0.00206814
0.00213038
0.0020868
0.00198957
0.00155235
0.00163184
0.00232778
0.00258841
0.002347
0.00206191
0.00187681
0.00188867
0.00191057
0.00195965
0.00182163
0.00193123
0.00198266
0.00193184
0.00194706
0.00195632
0.00193487
0.00194596
0.00197823
0.00205826
0.00211195
0.00205628
0.00193365
0.00146917
0.00160544
0.00220619
0.00243182
0.00238915
0.00216195
0.00195192
0.00184767
0.00189073
0.00192849
0.00183941
0.00194796
0.00198472
0.00193274
0.00194258
0.001948
0.00192648
0.00193631
0.00196863
0.00204949
0.00208916
0.00199747
0.00188606
0.00143471
0.00157367
0.00220762
0.00238868
0.00249296
0.00220695
0.00194875
0.00183856
0.00188727
0.00197154
0.00185555
0.00196184
0.0019846
0.0019326
0.00193713
0.00193931
0.00191817
0.00192724
0.00195986
0.00204163
0.00207255
0.00197416
0.00184337
0.00142869
0.00154743
0.00220421
0.00247512
0.00254599
0.0022417
0.00195321
0.00186464
0.00189401
0.00202743
0.00187135
0.00197066
0.0019805
0.00193005
0.00193069
0.00192955
0.00191013
0.00191869
0.00195183
0.00203462
0.00204319
0.00191973
0.00180946
0.00141708
0.00157386
0.00225175
0.00252933
0.00254032
0.00221331
0.00194075
0.00186172
0.00205712
0.00246778
0.00188331
0.00197694
0.00197397
0.00192675
0.00192265
0.00192042
0.00190249
0.00191094
0.00194464
0.00202866
0.00203103
0.00189349
0.00178627
0.00148441
0.00162363
0.00222772
0.00255886
0.00255835
0.00226673
0.00200622
0.00190219
0.00221687
0.00334658
0.00189396
0.00197755
0.00196602
0.00192185
0.00191553
0.00191032
0.00189523
0.00190369
0.0019382
0.00202296
0.0019955
0.00186344
0.0017718
0.00154009
0.00164449
0.00224753
0.00256545
0.00254653
0.00235287
0.00216994
0.00231189
0.00341008
0.00477103
0.00190017
0.00197664
0.00195501
0.00191577
0.00190574
0.00190136
0.00188858
0.00189731
0.00193256
0.00201932
0.00198198
0.00183821
0.00175376
0.00163688
0.00205252
0.00232274
0.0025883
0.00250257
0.00279043
0.0025406
0.00291786
0.00442994
0.0062373
0.00190486
0.00197099
0.00194485
0.00190945
0.00189834
0.00189187
0.00188235
0.00189136
0.0019276
0.00201369
0.00195366
0.00183215
0.00174573
0.00175558
0.00269607
0.00284149
0.00266482
0.00262459
0.00339398
0.00372317
0.00433409
0.00597044
0.00724107
0.00190564
0.00196414
0.00193257
0.00190163
0.00188879
0.00188367
0.0018767
0.00188626
0.00192348
0.00201365
0.00194229
0.00180469
0.00173707
0.00184789
0.00334471
0.00334851
0.00282121
0.0031719
0.00401615
0.00454629
0.0056934
0.0073887
0.00828725
0.00190468
0.00195527
0.00192059
0.00189427
0.00188082
0.00187523
0.00187175
0.00188154
0.00191982
0.00200773
0.00191562
0.0017795
0.00172895
0.00190144
0.0038634
0.00383217
0.00308838
0.00391051
0.00507393
0.0056575
0.00692704
0.00832872
0.0090381
0.00190223
0.00194419
0.00191018
0.00188624
0.00187338
0.00186846
0.00186706
0.00187748
0.00191716
0.00201059
0.00190627
0.00175566
0.00171873
0.00198002
0.00425247
0.00413483
0.00365325
0.00477619
0.00579671
0.0071402
0.00846992
0.00927905
0.00947118
0.00189731
0.00193444
0.00189734
0.00187834
0.00186546
0.00186144
0.00186329
0.00187399
0.00191463
0.00200526
0.00186372
0.0017232
0.00170066
0.00206827
0.0044258
0.0042738
0.00449795
0.00613317
0.00671669
0.00855671
0.0100161
0.0105918
0.0103298
0.00189276
0.00192205
0.00188925
0.00187087
0.00186016
0.00185597
0.00185963
0.0018707
0.00191318
0.00200638
0.00185743
0.00170271
0.00169187
0.00215183
0.00460981
0.00475078
0.00590423
0.00736087
0.00858078
0.00983687
0.0111384
0.0112971
0.0109128
0.00188797
0.00191161
0.0018783
0.00186399
0.00185397
0.00185115
0.00185727
0.00186809
0.00191168
0.00200271
0.00181946
0.00167021
0.00166633
0.00235224
0.00565413
0.00600176
0.00752379
0.00926461
0.0105519
0.0115081
0.0124402
0.0119174
0.0111382
0.00188112
0.00190122
0.00187132
0.00185677
0.0018501
0.00184659
0.00185393
0.00186582
0.00191121
0.00200578
0.001802
0.00164079
0.00168791
0.00252496
0.00721023
0.00769007
0.0091959
0.0105226
0.0123412
0.0126509
0.0132388
0.0123447
0.0114682
0.00187848
0.00189123
0.00186329
0.00185171
0.00184595
0.00184419
0.00185361
0.00186281
0.00191071
0.00199813
0.00178486
0.00161822
0.00161713
0.00295327
0.00878354
0.00955959
0.011008
0.0131074
0.0138104
0.014059
0.0134083
0.0123327
0.0117036
0.00187219
0.00188227
0.00185892
0.00184645
0.00184334
0.00184149
0.00185061
0.00186169
0.00191091
0.00200299
0.00177845
0.0015808
0.00170141
0.00335101
0.0109258
0.0116063
0.0133958
0.0149468
0.0160228
0.0147568
0.0143319
0.0123676
0.0112624
0.00187096
0.00187778
0.00185251
0.00184195
0.00184081
0.00184119
0.00184736
0.00186019
0.00191142
0.00199963
0.001759
0.00156839
0.00176047
0.00347142
0.0131317
0.013849
0.0157025
0.0170587
0.0166583
0.0151795
0.0137191
0.0118937
0.0113779
0.00186698
0.00186939
0.00185159
0.00183956
0.00184108
0.00183581
0.00184249
0.00186012
0.00191207
0.00199369
0.00176674
0.00153768
0.00185031
0.00357457
0.0154475
0.0163195
0.0179723
0.018626
0.0172034
0.0152336
0.0140095
0.0124808
0.0110381
0.00186973
0.00186359
0.0018486
0.00183817
0.00183786
0.00183118
0.00184167
0.00186043
0.00191326
0.00199566
0.00176037
0.00149924
0.0019399
0.00367699
0.0177131
0.0194495
0.0195472
0.0188257
0.0171413
0.0157365
0.0145273
0.0123565
0.0108605
0.00186536
0.00185023
0.00184269
0.00183032
0.00183521
0.00182889
0.00184147
0.00186086
0.00191456
0.00198767
0.00178861
0.00155549
0.00204653
0.00407942
0.0194935
0.0213809
0.0213073
0.0204661
0.0177869
0.0158595
0.0141908
0.0122564
0.0106988
0.00186038
0.00183807
0.0018358
0.00182553
0.00183634
0.00182551
0.00184159
0.00186154
0.00191607
0.00198094
0.0018294
0.00161874
0.00221499
0.00458303
0.0214813
0.0238703
0.0216404
0.0196918
0.018128
0.0160761
0.0140522
0.0121185
0.0104989
0.00184813
0.00182949
0.00182838
0.00182331
0.00183466
0.00182386
0.00184305
0.00186075
0.00191744
0.00198981
0.00188505
0.00168914
0.0023755
0.00620917
0.0235735
0.0247313
0.0221365
0.0202271
0.0176475
0.0154014
0.0138521
0.0119438
0.0103112
0.00184203
0.00182708
0.00182473
0.00182106
0.00183123
0.00182197
0.00184068
0.00186
0.00191915
0.00198706
0.00187313
0.00174544
0.00257113
0.00752278
0.0256727
0.0252708
0.0228041
0.0202553
0.0172833
0.0154956
0.0137442
0.0116915
0.0100116
0.00184303
0.00182528
0.00182567
0.00181687
0.00183005
0.00182375
0.00184122
0.00186091
0.00192015
0.00198886
0.001897
0.00185912
0.00279818
0.0118299
0.0271317
0.0256339
0.0224729
0.0199748
0.0174113
0.015637
0.0136017
0.0114361
0.00969075
0.0018382
0.0018209
0.00182186
0.00181813
0.00183082
0.00182571
0.00184198
0.00186091
0.00192188
0.00199161
0.00193723
0.00196925
0.00367501
0.0138078
0.0279809
0.0260419
0.0236577
0.0194454
0.0174741
0.0154432
0.0131144
0.0108879
0.00912747
0.00183789
0.00182118
0.0018204
0.00181636
0.00182673
0.00182399
0.00184125
0.00186151
0.00192266
0.00198264
0.00196832
0.0020849
0.00415021
0.0169256
0.0281564
0.0260848
0.0234013
0.0196904
0.0175736
0.0152961
0.0127666
0.0104852
0.00869517
0.0018369
0.00181608
0.00182161
0.00181531
0.00182852
0.00182507
0.0018406
0.00186144
0.00192392
0.001989
0.00197226
0.00238778
0.00577339
0.0200853
0.0284389
0.0266168
0.022541
0.0194615
0.0171586
0.0144987
0.0118427
0.00956073
0.00783883
0.00183541
0.00181855
0.0018246
0.00182006
0.00182609
0.0018229
0.00184054
0.00186271
0.00192453
0.00199271
0.00197407
0.00236764
0.00635156
0.0200496
0.0277704
0.0258102
0.0220383
0.0192343
0.0168454
0.0139403
0.0111792
0.00891446
0.00724023
0.00183523
0.00181879
0.00182188
0.00181754
0.00182588
0.00182661
0.00184127
0.00186034
0.00192526
0.00199606
0.0019757
0.00236464
0.00655365
0.0201904
0.0262713
0.0243294
0.0215122
0.0189615
0.016516
0.0134302
0.0106349
0.00840828
0.00676208
0.0018357
0.0018204
0.00182544
0.0018169
0.00182692
0.00182719
0.00183862
0.00185898
0.00192616
0.00199794
0.00197866
0.00239191
0.00646284
0.0203004
0.0246219
0.0234689
0.0210084
0.0186121
0.0160444
0.0127713
0.00998496
0.0078452
0.00625812
0.00183911
0.00181698
0.00182291
0.00181435
0.00183082
0.00182592
0.00183544
0.00185772
0.00192713
0.00199935
0.00198085
0.00238707
0.00623928
0.0207594
0.0234267
0.0229313
0.020592
0.0181515
0.0152573
0.0118824
0.00920603
0.00712783
0.00556695
0.00183849
0.00181827
0.00182712
0.00181561
0.0018301
0.0018246
0.00183129
0.00185683
0.00192752
0.0019997
0.0019852
0.00244694
0.00685083
0.0223305
0.022494
0.0223066
0.0201149
0.0174368
0.0142222
0.0107445
0.00813554
0.00608359
0.00456015
0.00183949
0.00182016
0.00182969
0.00181444
0.00182672
0.00182421
0.00183242
0.00185567
0.00192817
0.00199988
0.00199101
0.00252242
0.00741704
0.0233673
0.0219146
0.0211939
0.019251
0.01637
0.0126302
0.00919419
0.00671602
0.0048902
0.00354124
0.00183784
0.00182021
0.00182913
0.00181658
0.00182775
0.00182321
0.00184026
0.00185582
0.00192747
0.00199982
0.00199678
0.00268165
0.00715214
0.0231511
0.0213486
0.0199364
0.0180164
0.01478
0.0107083
0.00765002
0.00532536
0.00359315
0.0024442
0.00182948
0.00182102
0.00183336
0.00182119
0.00182464
0.00182244
0.00184059
0.00185569
0.00192782
0.00200001
0.00201473
0.00273713
0.00791613
0.0202247
0.0200384
0.018423
0.016708
0.0129284
0.00866159
0.00574831
0.00359645
0.00237176
0.00160136
0.00182777
0.00181987
0.00182883
0.00182815
0.00182663
0.00182168
0.00184217
0.00185671
0.00192605
0.00200059
0.0020297
0.00278068
0.00954163
0.0183604
0.0180798
0.0166765
0.0150346
0.010362
0.00638206
0.00395815
0.00249788
0.00167618
0.00114616
0.00182166
0.00182188
0.00182021
0.00182692
0.00183113
0.00182146
0.00183399
0.00185756
0.00192645
0.00200281
0.0020747
0.00327742
0.0109193
0.0167711
0.0173156
0.0153525
0.0128494
0.00780678
0.0047446
0.00292194
0.00190645
0.00130715
0.000932838
0.00181975
0.0018302
0.00181646
0.0018107
0.00183777
0.00182231
0.00183552
0.0018573
0.00192418
0.00200472
0.00208933
0.00362378
0.0136757
0.0159347
0.015304
0.0137336
0.0102792
0.00606763
0.00373064
0.00242972
0.00157445
0.00113006
0.000982315
0.00182431
0.00182553
0.00180864
0.00180456
0.00183068
0.00181952
0.00183429
0.0018564
0.00192515
0.00201254
0.00223266
0.00458829
0.0127775
0.0143655
0.0143147
0.0121594
0.00825738
0.00508242
0.00330947
0.00212396
0.0014049
0.00121878
0.000933698
0.00182273
0.001813
0.00179652
0.00180383
0.00181967
0.00181904
0.00184098
0.00185485
0.00192312
0.00201334
0.00229859
0.00524015
0.0124689
0.0136657
0.013081
0.0105977
0.00712969
0.00480348
0.00304403
0.00188103
0.00148415
0.00117855
0.000942058
0.00181423
0.00180943
0.00180066
0.00180064
0.00181515
0.00182007
0.0018413
0.00185464
0.00192506
0.00202958
0.00252749
0.0060509
0.0115311
0.0130684
0.0121713
0.00947756
0.00661743
0.00457295
0.00276448
0.00190039
0.0015518
0.0011376
0.00127796
0.00180747
0.00181111
0.00181674
0.00181433
0.00181381
0.00182345
0.00184113
0.00185424
0.00192346
0.00204597
0.00279862
0.00626051
0.010668
0.0119992
0.0111309
0.00851138
0.00628171
0.00424357
0.00256756
0.00203481
0.00137953
0.00143169
0.00172624
0.00180973
0.00181409
0.00182146
0.00182193
0.00180993
0.00182481
0.00182815
0.00185496
0.00192696
0.00208072
0.00293712
0.00681286
0.00980157
0.0114215
0.0106224
0.00816827
0.00613633
0.00398496
0.00258166
0.00187961
0.00149846
0.00185275
0.00218233
0.00181312
0.00181191
0.00182086
0.001815
0.00180945
0.00183075
0.00182551
0.00185324
0.00192599
0.00212704
0.00350524
0.00677179
0.00911463
0.0104369
0.00970724
0.00762589
0.00608559
0.00395086
0.00210253
0.00166326
0.00197379
0.00228271
0.00258194
0.00180823
0.00181041
0.00181845
0.00179226
0.00180706
0.00182748
0.00181897
0.00185332
0.00193106
0.00218033
0.00379343
0.0068183
0.00969267
0.0106159
0.0094004
0.00775556
0.00613253
0.0034452
0.0019329
0.00231116
0.00238231
0.00289466
0.0023023
0.00179975
0.00180888
0.00181568
0.00177785
0.0018093
0.00182268
0.00182065
0.00184887
0.00193273
0.00227051
0.00441023
0.00623251
0.0100023
0.0104882
0.00800912
0.00683871
0.00560559
0.00251597
0.00246695
0.00297233
0.00308384
0.00248294
0.00234817
0.00178812
0.00181348
0.00181184
0.00177383
0.00180915
0.00180832
0.00181386
0.00184805
0.00193664
0.00227107
0.00485447
0.00651317
0.0103467
0.0102668
0.00834076
0.00704057
0.00442773
0.00352961
0.00346051
0.00373405
0.00265086
0.0024041
0.00232303
0.0017849
0.00181554
0.00180707
0.00177811
0.00181218
0.00180547
0.00181839
0.0018431
0.00194847
0.00271742
0.00538858