/*--------------------------------*- C++ -*----------------------------------*\
  =========                 |
  \\      /  F ield         | OpenFOAM: The Open Source CFD Toolbox
   \\    /   O peration     | Website:  https://openfoam.org
    \\  /    A nd           | Version:  7
     \\/     M anipulation  |
\*---------------------------------------------------------------------------*/
FoamFile
{
    version     2.0;
    format      ascii;
    class       volScalarField;
    location    "100";
    object      omega;
}
// * * * * * * * * * * * * * * * * * * * * * * * * * * * * * * * * * * * * * //

dimensions      [0 0 -1 0 0 0 0];

internalField   nonuniform List<scalar> 
12842
(
3.13249
2.83811
2.63588
2.51413
2.42561
2.37284
2.3199
2.28887
2.25968
2.24909
2.23709
2.23836
2.24568
2.26194
2.30191
2.36095
2.46834
2.60969
2.73688
2.92081
3.0598
3.26993
3.40865
3.11052
2.80686
2.62234
2.48856
2.40369
2.35904
2.31482
2.28643
2.25646
2.2464
2.23489
2.23655
2.24462
2.26295
2.30089
2.36329
2.46703
2.61727
2.75688
2.95667
3.09222
3.28738
3.41297
3.08695
2.7616
2.58977
2.47708
2.38338
2.33682
2.29782
2.2756
2.24972
2.23994
2.23104
2.23392
2.24415
2.26634
2.3085
2.3777
2.48307
2.63004
2.76329
2.96958
3.1245
3.3492
3.47697
3.05678
2.72518
2.54452
2.44377
2.37043
2.32451
2.28832
2.2665
2.24339
2.23484
2.22779
2.23187
2.24398
2.26894
2.31444
2.38988
2.50394
2.66941
2.80182
2.99239
3.13864
3.3681
3.49332
3.02189
2.68644
2.51677
2.41805
2.34686
2.3075
2.27343
2.25482
2.23515
2.22955
2.22499
2.23011
2.24429
2.27254
2.32277
2.40295
2.51849
2.68527
2.83389
3.05654
3.21113
3.44161
3.57432
2.98725
2.64701
2.47742
2.39012
2.33192
2.29524
2.26446
2.24667
2.22909
2.22385
2.22273
2.22893
2.24541
2.27858
2.33503
2.42473
2.55406
2.73209
2.86877
3.08546
3.24091
3.49341
3.61544
2.94922
2.61323
2.45285
2.36605
2.31184
2.28111
2.25273
2.23672
2.22254
2.21922
2.22083
2.22836
2.24639
2.28178
2.34421
2.43791
2.5685
2.7616
2.92955
3.1733
3.33572
3.57771
3.7255
2.9158
2.57835
2.42244
2.34419
2.29812
2.2694
2.24497
2.23025
2.21787
2.21505
2.21912
2.22789
2.24946
2.29039
2.35469
2.45807
2.6069
2.80038
2.95977
3.2122
3.39759
3.68452
3.80616
2.87585
2.55018
2.40169
2.32613
2.28387
2.25911
2.23635
2.22289
2.21346
2.21219
2.21676
2.22741
2.25111
2.29603
2.37104
2.47715
2.6237
2.84382
3.02618
3.30561
3.48198
3.74875
3.91896
2.83926
2.51628
2.3779
2.30959
2.27318
2.24988
2.23088
2.21854
2.21113
2.21061
2.2157
2.22812
2.25497
2.30317
2.37766
2.49411
2.66136
2.88559
3.07163
3.34915
3.56081
3.86851
4.01013
2.79415
2.49029
2.35873
2.29592
2.2626
2.24215
2.2243
2.21349
2.20828
2.20929
2.21427
2.22854
2.25718
2.30909
2.39318
2.51383
2.67955
2.92706
3.13129
3.44835
3.64782
3.93044
4.11029
2.75778
2.46062
2.33983
2.28226
2.25317
2.23393
2.21966
2.20975
2.20665
2.20919
2.21474
2.23084
2.26318
2.31798
2.40412
2.53495
2.72602
2.99203
3.20572
3.51132
3.73589
4.07771
4.2567
2.71353
2.43823
2.32264
2.27132
2.24437
2.22758
2.21406
2.20598
2.20458
2.20639
2.2143
2.23251
2.26684
2.32689
2.42175
2.56285
2.75033
3.03418
3.2646
3.62092
3.86305
4.16159
4.34723
2.67894
2.41307
2.30766
2.26015
2.23606
2.22058
2.21008
2.20273
2.20329
2.20597
2.21448
2.23703
2.27612
2.34115
2.4436
2.59417
2.80963
3.12479
3.37105
3.70049
3.94454
4.31582
4.56007
2.64382
2.39449
2.29299
2.25118
2.22863
2.21547
2.20543
2.20005
2.2016
2.20577
2.21491
2.23952
2.28126
2.35069
2.45986
2.62579
2.84663
3.17013
3.42946
3.81694
4.1191
4.4566
4.67876
2.61708
2.37363
2.2811
2.24201
2.2213
2.20971
2.20188
2.19727
2.20028
2.20537
2.21673
2.24502
2.29286
2.37142
2.4944
2.67507
2.92432
3.27992
3.56824
3.93201
4.22201
4.59981
4.92059
2.59017
2.3584
2.26882
2.23419
2.21499
2.20557
2.19804
2.1952
2.19863
2.20493
2.21825
2.24813
2.29908
2.38238
2.51278
2.70656
2.97248
3.33531
3.64132
4.05618
4.42103
4.85425
5.16569
2.56884
2.34133
2.25937
2.22648
2.20862
2.20086
2.19483
2.19283
2.19713
2.20469
2.22116
2.25495
2.31284
2.40752
2.55613
2.77606
3.07543
3.46166
3.80988
4.22866
4.62528
5.01943
5.38658
2.54861
2.32888
2.24884
2.21928
2.20324
2.19731
2.19164
2.19082
2.19533
2.20459
2.22266
2.25884
2.32004
2.42111
2.57979
2.81298
3.12894
3.52679
3.91228
4.38883
4.79436
5.31163
5.79847
2.53121
2.31505
2.24125
2.2127
2.19788
2.19339
2.18875
2.18882
2.19382
2.20374
2.22573
2.26661
2.33554
2.45028
2.62984
2.89153
3.25416
3.67779
4.10526
4.55752
5.10671
5.69433
6.15173
2.51618
2.30482
2.23185
2.20587
2.19313
2.19003
2.18594
2.18653
2.19187
2.2031
2.22774
2.27217
2.34422
2.46606
2.65973
2.94681
3.32139
3.75978
4.23426
4.81057
5.35297
5.91446
6.41015
2.5019
2.29354
2.22548
2.20022
2.18866
2.18673
2.1833
2.18475
2.19052
2.20295
2.2309
2.27991
2.35999
2.49818
2.71165
3.02432
3.45901
3.95509
4.48512
4.97644
5.58494
6.32583
7.05266
2.4906
2.2849
2.21686
2.19373
2.18417
2.18333
2.18052
2.18221
2.18863
2.2023
2.2332
2.28734
2.37193
2.51975
2.75948
3.11478
3.56469
4.06788
4.6349
5.26659
6.05245
6.97604
7.70063
2.481
2.27772
2.21264
2.19007
2.18154
2.18136
2.17887
2.18098
2.18769
2.20268
2.23658
2.29507
2.38431
2.54803
2.80142
3.17995
3.69385
4.31102
4.95851
5.65991
6.67518
7.61885
8.68459
2.4743
2.27253
2.20819
2.187
2.17968
2.17998
2.17746
2.17984
2.18719
2.20339
2.23898
2.30166
2.39856
2.57874
2.87173
3.31212
3.89671
4.55641
5.28935
6.31138
7.39085
8.87821
11.1803
2.46772
2.26803
2.20552
2.18475
2.17816
2.17855
2.1763
2.17907
2.18681
2.20451
2.2435
2.31017
2.4079
2.59984
2.9097
3.38155
4.0183
4.8278
5.83595
6.98137
8.80023
12.1851
19.6062
2.46125
2.2629
2.20142
2.18183
2.1762
2.177
2.17472
2.17792
2.18636
2.20568
2.24613
2.31681
2.42112
2.63335
2.98432
3.52948
4.29411
5.27513
6.35814
8.24691
12.5242
25.0054
59.4461
2.45545
2.25889
2.19887
2.17946
2.17462
2.17525
2.17347
2.17715
2.18592
2.20698
2.25171
2.32824
2.43688
2.66543
3.04025
3.6137
4.45762
5.62456
7.54691
12.0745
25.5709
62.5681
137.119
2.44901
2.25372
2.19529
2.17667
2.17253
2.17349
2.17188
2.17599
2.18534
2.20796
2.25459
2.33473
2.44666
2.69273
3.10712
3.78524
4.80589
6.37649
9.60012
18.8175
44.6623
104.989
209.736
2.44381
2.25024
2.19288
2.17413
2.17078
2.17152
2.17065
2.17519
2.18479
2.20932
2.26054
2.34742
2.46876
2.74269
3.19814
3.90575
5.02698
7.09469
12.0158
26.0358
65.5183
151.68
288.002
2.43733
2.24506
2.18983
2.17139
2.16852
2.16954
2.16926
2.17402
2.18413
2.21009
2.26362
2.35408
2.48105
2.77778
3.26695
4.09583
5.49336
8.18826
15.2067
36.7546
95.1016
207.325
332.127
2.43252
2.24205
2.18758
2.16884
2.16664
2.16748
2.16819
2.17317
2.18354
2.21153
2.26969
2.36696
2.5055
2.82309
3.36454
4.25571
5.81116
9.32367
19.3779
50.3515
128.821
244.464
333.145
2.42603
2.23699
2.18486
2.16607
2.16422
2.16535
2.16711
2.17205
2.18298
2.21234
2.27279
2.37378
2.52227
2.89727
3.51644
4.55038
6.45971
10.9467
24.7561
69.7086
166.937
272.935
326.218
2.42148
2.23431
2.18272
2.16376
2.16225
2.16331
2.16621
2.17125
2.18253
2.21396
2.27907
2.38766
2.55423
2.94258
3.61217
4.74472
6.99368
13.0061
34.3904
96.8252
201.636
279.054
310.918
2.41516
2.22953
2.18003
2.16097
2.15973
2.16122
2.16532
2.1702
2.18216
2.21496
2.28239
2.39527
2.5764
3.04832
3.82829
5.17902
8.13882
16.9306
47.4898
122.365
221.742
280.17
298.252
2.41077
2.22707
2.17783
2.15904
2.15777
2.15937
2.16454
2.16956
2.18185
2.21693
2.28925
2.41151
2.62394
3.13122
4.01633
5.52855
9.37948
22.4042
64.5576
145.488
232.636
280.458
284.998
2.40487
2.22265
2.17504
2.15641
2.15527
2.15747
2.16363
2.1686
2.18152
2.21857
2.293
2.42071
2.65233
3.25344
4.25569
6.30769
12.0592
30.5393
82.6604
170.364
249.823
268.269
272.57
2.40053
2.22032
2.17264
2.15481
2.15343
2.15599
2.16287
2.16808
2.18138
2.22167
2.30086
2.44031
2.71481
3.39447
4.65418
7.13159
15.1859
43.7189
103.114
180.087
237.271
254.971
261.037
2.39534
2.21628
2.16986
2.15251
2.15112
2.15442
2.1619
2.16721
2.18127
2.22376
2.30527
2.45179
2.75465
3.55524
4.94728
8.56035
20.9443
56.3369
119.404
185.424
226.566
246.356
252.648
2.39095
2.21393
2.16737
2.1512
2.1495
2.15336
2.16115
2.16673
2.18119
2.22691
2.31447
2.47648
2.8384
3.73518
5.72545
11.0343
29.1506
74.4773
135.603
192.557
219.041
238.684
244.467
2.38656
2.21027
2.16474
2.14926
2.14749
2.15222
2.1601
2.16592
2.18097
2.22852
2.31964
2.49114
2.89266
4.0174
6.51633
14.4925
40.2917
90.8973
148.323
188.999
213.337
230.873
236.679
2.38217
2.20777
2.16235
2.14816
2.1462
2.15156
2.15948
2.1655
2.181
2.23131
2.33054
2.5236
3.02154
4.36683
7.88342
19.4362
53.1228
109.813
158.244
187.271
207.297
223.943
230.623
2.37843
2.20453
2.15993
2.14655
2.14456
2.15075
2.15836
2.16466
2.18103
2.23285
2.33706
2.54362
3.10304
4.70898
9.82194
28.6373
70.2694
127.437
161.185
185.037
200.673
215.427
221.3
2.37427
2.20183
2.15777
2.14551
2.14363
2.15034
2.15778
2.16421
2.18176
2.23625
2.35198
2.59023
3.31687
5.68273
13.2032
35.4469
83.9868
141.759
160.674
182.07
195.866
209.107
216.119
2.37098
2.19899
2.15563
2.14415
2.1423
2.14964
2.15665
2.1632
2.18193
2.23848
2.36141
2.61978
3.44584
6.21089
15.2832
45.5265
104.563
150.838
165.026
179.589
190.85
202.151
209.814
2.36719
2.19617
2.15362
2.1431
2.14163
2.14919
2.15603
2.16282
2.18309
2.24472
2.38529
2.68874
3.75175
7.81223
21.784
60.8238
117.502
152.669
163.905
176.552
187.849
195.606
202.254
2.36427
2.19356
2.15177
2.14179
2.14046
2.14839
2.15471
2.16145
2.18347
2.24909
2.40075
2.73324
3.95885
8.91018
25.5873
67.6432
128.675
154.023
167.367
175.314
184.073
190.577
196.426
2.36093
2.19092
2.1499
2.14072
2.13978
2.1478
2.15395
2.16126
2.18614
2.26189
2.44002
2.83586
4.41578
11.1462
33.482
88.5391
143.895
155.015
164.829
174.611
182.307
186.29
190.954
2.35831
2.18838
2.14812
2.13939
2.13869
2.1466
2.15234
2.16112
2.18912
2.27459
2.46784
2.90385
4.73254
12.9241
40.3894
97.5605
152.589
159.001
164.97
174.461
179.595
183.203
185.837
2.35578
2.1863
2.14663
2.13829
2.13777
2.14585
2.15175
2.16263
2.19941
2.30326
2.52397
3.03534
5.31674
15.7521
48.3772
116.182
155.361
160.885
165.46
172.435
178.834
179.957
182.252
2.35424
2.18462
2.14519
2.13704
2.13652
2.14439
2.15069
2.16391
2.21184
2.33402
2.57014
3.12507
5.7643
18.8455
64.8863
138.465
163.373
162.444
167.495
172.516
178.203
177.959
175.019
2.35306
2.18314
2.14382
2.13568
2.13532
2.14371
2.1509
2.16951
2.23423
2.37776
2.64204
3.26362
6.30759
23.5713
86.3516
158.48
167.935
163.907
167.245
172.741
176.994
174.276
167.277
2.35253
2.1821
2.14239
2.13407
2.13409
2.14287
2.15073
2.17706
2.2581
2.4227
2.70976
3.37965
7.02292
29.0534
103.632
176.615
171.085
165.352
167.68
172.566
173.888
167.38
160.95
2.35225
2.18088
2.14084
2.13235
2.13322
2.14268
2.15269
2.19292
2.29222
2.47819
2.79133
3.51543
7.48271
32.6744
115.302
179.612
174.707
166.512
166.252
167.027
165.06
156.407
151.693
2.352
2.1796
2.13904
2.13082
2.13269
2.1427
2.15815
2.21275
2.32965
2.53588
2.86973
3.60905
8.00724
34.2361
118.308
182.536
174.373
162.198
156.175
153.665
151.036
146.357
144.164
2.35171
2.17796
2.1371
2.12984
2.13273
2.14387
2.17206
2.24214
2.37693
2.60229
2.95435
3.70461
8.31334
34.7894
119.926
184.792
171.946
150.33
142.535
140.842
139.949
138.86
138.562
2.35093
2.17613
2.1354
2.12931
2.13403
2.14936
2.1917
2.27431
2.42355
2.66331
3.02634
3.74955
8.33009
33.6851
117.136
185.998
162.444
137.749
130.271
129.682
130.291
133.368
134.225
2.34951
2.17407
2.13404
2.12912
2.13975
2.16081
2.21658
2.31132
2.47351
2.72599
3.09827
3.79116
8.31402
31.1828
108.979
178.31
149.161
125.455
119.69
119.665
122.688
128.561
131.162
2.34733
2.1719
2.133
2.12987
2.15075
2.17744
2.24684
2.35274
2.52616
2.78938
3.17031
3.84322
8.33044
29.3063
98.5595
162.327
136.536
114.919
110.97
111.75
116.806
125.482
129.141
2.34447
2.16971
2.13226
2.13361
2.16701
2.1996
2.28191
2.39777
2.58049
2.85248
3.24199
3.92262
8.30272
28.1714
88.0413
142.876
125.304
106.115
103.399
104.945
112.341
122.866
127.446
2.34084
2.16776
2.13197
2.1426
2.18809
2.22637
2.32122
2.44542
2.63551
2.91457
3.31461
4.04369
8.32386
27.349
79.3215
123.677
114.92
100.298
97.8483
99.5316
107.697
120.912
126.232
2.33651
2.16612
2.13227
2.15546
2.2137
2.25788
2.36373
2.49469
2.69031
2.97491
3.38918
4.22224
8.42643
26.9335
72.7907
107.316
105.796
95.6769
92.8833
94.3261
102.352
118.499
123.926
2.33175
2.16489
2.13532
2.17345
2.2433
2.29291
2.40892
2.54476
2.74411
3.03318
3.46789
4.46676
8.94701
26.8693
68.3999
94.8737
97.4724
92.0801
88.9645
89.7302
96.2675
114.394
119.728
2.32693
2.16398
2.14235
2.19479
2.27649
2.33158
2.45564
2.59471
2.79631
3.08905
3.55301
4.78975
9.89445
26.9952
65.5147
85.4307
90.3605
88.4929
85.1207
85.2789
89.64
105.021
112.6
2.32255
2.16379
2.15416
2.2207
2.31264
2.37266
2.50359
2.64414
2.84647
3.14253
3.64618
5.18224
11.1964
28.3321
63.8799
79.4205
84.2465
83.9136
80.3891
80.2797
82.885
93.834
103.261
2.31903
2.16505
2.17057
2.24968
2.35162
2.41616
2.5517
2.6923
2.8943
3.19361
3.74894
5.66455
12.7822
30.0585
62.6543
73.9757
80.5206
80.2676
75.1203
74.9885
76.315
83.4533
93.3562
2.31635
2.16937
2.19171
2.28235
2.39226
2.46106
2.59978
2.73901
2.9396
3.24253
3.8615
6.19377
14.5752
32.8763
62.245
71.2819
75.6481
74.8511
70.3113
69.8158
70.3962
74.8476
84.299
2.31453
2.17883
2.21774
2.31791
2.435
2.50698
2.64688
2.7838
2.98221
3.28922
3.98402
6.82648
16.5134
35.3017
62.0542
67.9854
73.3117
71.419
64.8986
64.9799
65.183
67.9865
75.7554
2.31387
2.19272
2.24778
2.35589
2.47797
2.55335
2.69288
2.82636
3.02205
3.33419
4.11485
7.44596
18.4976
38.0525
62.4314
66.0449
71.5884
67.309
62.2782
60.8393
61.2188
63.1451
68.7491
2.31444
2.21205
2.2823
2.3963
2.52211
2.59929
2.73697
2.86669
3.05908
3.377
4.25506
8.19339
20.4916
40.3007
63.3133
63.0242
68.6862
63.5041
60.8311
59.9492
58.9509
60.7882
65.3264
2.31816
2.23616
2.31994
2.43777
2.56538
2.64484
2.77912
2.90424
3.09326
3.41866
4.39965
8.84057
22.4153
42.5978
64.1326
61.2018
64.3829
61.6157
59.8431
59.0524
58.6602
59.8502
65.2216
2.32642
2.265
2.36047
2.48073
2.60859
2.68872
2.81886
2.93944
3.12465
3.45819
4.55503
9.6183
24.1722
44.374
65.2334
59.5902
61.5725
60.6532
59.8479
58.6548
58.3034
60.4723
68.8373
2.33892
2.29822
2.40352
2.52367
2.65047
2.7316
2.85596
2.97161
3.15327
3.49717
4.70715
10.258
25.7501
45.8309
65.5449
59.402
59.9936
59.8337
59.7083
58.9557
59.3963
66.9279
83.3872
2.35663
2.33487
2.44686
2.56686
2.69086
2.7717
2.89064
3.00153
3.17933
3.53455
4.87331
10.9176
27.0451
46.9703
66.5253
59.2682
58.3348
59.754
61.6942
60.0713
63.0119
77.5758
101.712
2.37758
2.37472
2.49243
2.60932
2.72988
2.81062
2.9222
3.02842
3.20279
3.57055
5.02544
11.5499
28.1896
47.6904
71.534
59.6906
58.4178
60.4227
67.5826
70.4483
77.3859
98.5819
124.143
2.40346
2.41625
2.53569
2.6506
2.76624
2.84576
2.95154
3.05331
3.22415
3.60774
5.18607
12.0388
28.8735
47.8573
76.2353
62.0858
58.2229
62.8625
76.9194
77.4756
89.6102
122.313
148.603
2.43135
2.45949
2.58043
2.69097
2.80098
2.87962
2.97763
3.07548
3.24304
3.63921
5.33011
12.5758
29.2596
47.9782
78.5419
64.4084
58.0475
67.3498
87.6525
98.0266
113.749
146.617
172.791
2.4625
2.50247
2.62161
2.72859
2.83271
2.90961
3.00167
3.09569
3.26046
3.67608
5.4797
12.9404
29.4384
47.6237
78.4876
66.4671
60.0646
74.6433
95.3406
113.933
134.237
168.959
188.544
2.49471
2.54591
2.66255
2.76537
2.86203
2.93718
3.02269
3.11399
3.27557
3.70339
5.60247
13.26
29.4213
46.763
78.1707
67.337
63.0975
82.1058
110.28
128.469
149.28
178.247
199.044
2.5279
2.58757
2.70025
2.79852
2.88896
2.96248
3.04171
3.12992
3.28969
3.73547
5.76031
13.4546
29.0869
45.1595
77.0309
67.7815
69.3571
90.0457
121.744
139.53
157.249
180.161
197.175
2.56122
2.62783
2.73573
2.83026
2.91227
2.98355
3.05845
3.14497
3.3019
3.76436
5.83586
13.4975
28.424
43.6343
76.1933
70.1296
76.3927
97.8351
122.575
149.785
164.452
181.052
197.259
2.59356
2.66682
2.76893
2.85874
2.93477
3.00392
3.07246
3.15773
3.31339
3.79126
5.93468
13.4569
27.4744
40.9032
76.0353
74.4077
85.3191
101.031
122.929
149.708
163.212
181.938
197.796
2.62547
2.70125
2.79846
2.885
2.95213
3.02028
3.08612
3.16917
3.32324
3.81049
5.9703
13.3064
26.3655
39.4474
77.7781
79.2869
93.2656
109.467
126.829
152.857
165.123
184.932
198.175
2.65448
2.73603
2.827
2.90881
2.97063
3.03472
3.09605
3.18107
3.33241
3.83672
5.95745
13.0292
25.1491
36.0251
82.1899
83.2416
99.4687
108.701
130.186
151.949
167.339
183.89
198.068
2.68386
2.76569
2.85053
2.92934
2.98339
3.04851
3.10669
3.18934
3.34029
3.84637
5.92858
12.6927
23.8282
34.6765
83.7623
88.587
101.61
112.113
128.32
152.866
161.796
184.163
201.64
2.70786
2.79243
2.87442
2.94926
2.99815
3.05786
3.11594
3.19717
3.34703
3.85774
5.88726
12.259
22.5873
34.3044
85.0959
92.07
104.015
113.952
130.159
147.338
166.535
191.548
201.274
2.7337
2.81998
2.89339
2.96576
3.00827
3.06914
3.124
3.20178
3.35288
3.85989
5.75074
11.8061
21.2872
33.2516
86.0698
94.8323
105.736
117.481
130.077
152.085
164.306
184.534
204.748
2.75356
2.83953
2.91304
2.98099
3.02125
3.07834
3.12602
3.20445
3.3575
3.86195
5.70525
11.284
20.1129
33.7904
86.6092
94.2394
107.052
120.392
135.986
149.889
162.518
187.704
202.729
2.77527
2.86166
2.9299
2.9999
3.03134
3.0845
3.12751
3.20586
3.36111
3.85413
5.54059
10.7727
19.0306
33.0267
87.3207
95.6258
107.147
116.936
133.494
148.608
162.956
186.392
198.48
2.79252
2.88205
2.94984
3.0112
3.03308
3.08898
3.12775
3.20631
3.36384
3.84826
5.36884
10.2264
17.7255
33.6321
86.5913
93.6306
109.065
121.089
132.987
148.901
166.962
183.715
193.294
2.81733
2.90048
2.96115
3.01635
3.04046
3.09223
3.12797
3.20767
3.36609
3.82167
5.23681
9.65037
17.5004
33.5781
85.4038
93.6349
108.443
119.601
133.788
151.709
167.558
179.737
187.469
2.82579
2.90287
2.96756
3.02016
3.04396
3.09543
3.13127
3.20922
3.36793
3.82538
5.22408
9.15284
16.6372
33.8861
83.9697
93.2708
107.164
118.591
136.73
152.851
164.994
174.803
181.318
2.83027
2.90626
2.97104
3.02554
3.04565
3.09343
3.13011
3.20837
3.3696
3.82233
5.19223
8.61823
16.9737
37.0545
82.3335
93.5815
107.251
118.722
137.732
150.806
161.197
169.694
175.434
2.83307
2.91376
2.97398
3.02379
3.04775
3.09299
3.12976
3.20907
3.37101
3.81933
5.10161
8.25623
17.0217
43.0169
82.5714
90.9963
102.912
121.672
136.093
147.603
156.77
164.251
169.507
2.83318
2.91832
2.97598
3.02601
3.05165
3.09309
3.13001
3.2077
3.37222
3.81742
5.01792
7.80965
17.3063
50.0396
81.4563
91.514
102.471
121.127
133.28
143.734
152.113
159.13
163.962
2.83367
2.92196
2.97367
3.02752
3.04985
3.09405
3.13174
3.20972
3.3757
3.80575
5.00085
7.68963
17.2116
54.0651
81.4265
88.4212
104.837
119.535
130.401
140.1
147.785
154.124
158.447
2.83548
2.91734
2.97232
3.02297
3.04889
3.09456
3.12769
3.20562
3.37158
3.76772
4.88207
7.32701
15.6093
55.1903
80.4708
87.774
103.51
116.449
126.44
135.735
142.8
148.76
152.793
2.83467
2.91634
2.97141
3.0218
3.04805
3.08943
3.12666
3.20606
3.36508
3.73111
4.76015
7.045
14.993
55.908
78.9683
88.0514
100.6
112.319
121.949
130.719
137.702
143.39
147.014
2.8339
2.91808
2.97076
3.02166
3.04838
3.0878
3.12818
3.20503
3.35817
3.69734
4.64256
6.82586
14.7004
56.5372
77.1682
85.7771
96.686
107.517
117.058
125.495
132.294
137.487
140.497
2.83219
2.91583
2.96866
3.02202
3.04115
3.08845
3.12729
3.20201
3.35018
3.66616
4.53462
6.66188
14.6439
54.5877
73.7085
82.2469
92.3263
102.914
112.288
120.531
126.996
131.654
134.197
2.83075
2.91258
2.96436
3.01781
3.03959
3.08651
3.12451
3.19892
3.34249
3.63884
4.43917
6.53512
14.6802
51.1711
69.3569
78.5957
87.9487
98.6219
107.91
115.965
121.925
125.597
127.361
2.82576
2.90974
2.96037
3.01464
3.04137
3.08224
3.11905
3.19423
3.33328
3.61379
4.35673
6.43794
14.0334
48.0527
64.6889
74.3508
84.1711
94.9975
104.303
111.454
116.057
118.575
120.949
2.82342
2.91217
2.95778
3.00752
3.03399
3.07628
3.10651
3.18741
3.32455
3.59164
4.28651
6.48472
14.7127
44.293
60.3986
70.2283
80.9442
91.794
100.343
106.79
110.169
112.149
109.658
2.81704
2.90693
2.94332
3.00204
3.0328
3.06506
3.10095
3.17903
3.31348
3.5706
4.22825
6.5615
14.4647
42.5917
56.1692
66.6367
78.1851
89.1801
97.0025
100.313
101.496
97.8251
92.0791
2.81245
2.90023
2.93902
2.98505
3.02253
3.04795
3.08875
3.16793
3.30296
3.55177
4.18211
6.65378
14.7927
40.5018
53.3805
63.6325
76.7036
86.3824
89.1656
90.0891
87.1917
81.6801
75.2386
2.81567
2.88578
2.9408
2.97985
3.00602
3.04189
3.08829
3.15552
3.28938
3.53304
4.14043
6.68233
16.0266
38.7981
47.0087
62.2182
74.2603
78.1649
78.1459
78.2171
73.2425
67.9498
60.6722
2.80622
2.86211
2.93325
2.98079
2.98268
3.04158
3.0726
3.14295
3.27614
3.51711
4.14111
6.87475
19.3446
35.6801
46.8786
60.6503
66.9977
68.0793
68.5501
66.2709
62.1239
56.6755
48.987
2.79385
2.85387
2.92209
2.97451
2.97451
3.03407
3.05926
3.1299
3.25905
3.49995
4.14735
7.22365
21.1818
32.6629
46.0974
55.3494
58.3174
59.2552
59.2978
56.7271
53.1139
47.6035
39.6687
2.77469
2.85597
2.90713
2.94423
2.97506
3.02132
3.03301
3.11488
3.24187
3.48784
4.19819
7.74094
24.21
30.8988
43.3971
48.4345
50.5916
51.5121
51.3494
49.1847
45.7526
39.4133
30.5558
2.75953
2.84121
2.88866
2.92475
2.96251
2.99829
3.01288
3.09539
3.22001
3.46989
4.27545
8.44578
22.3445
29.3733
38.9503
41.9262
44.1187
44.9922
44.8021
42.7784
38.4354
30.3957
21.3687
2.7407
2.81772
2.86444
2.88585
2.94134
2.97246
2.99255
3.07257
3.19746
3.45784
4.42231
9.49079
19.9712
28.0772
33.8761
36.5608
38.6992
39.4825
38.9201
36.3657
30.2284
21.4211
15.5063
2.71648
2.79129
2.8407
2.85806
2.91827
2.94106
2.98524
3.04451
3.1696
3.43491
4.66564
10.189
18.212
26.2025
29.5328
32.1644
34.0097
34.5294
33.482
29.5754
21.8531
15.4976
11.1921
2.68067
2.76273
2.81116
2.83279
2.88775
2.90193
2.96117
3.01503
3.14009
3.43218
5.11581
11.3653
17.0177
24.1324
25.8813
28.6135
30.0425
29.9262
27.9284
22.2937
16.0048
11.2832
7.08292
2.64788
2.73101
2.77994
2.82173
2.85659
2.86513
2.93138
2.97876
3.10423
3.38501
5.65109
11.8265
16.058
21.8479
23.1436
25.5947
26.1028
25.4103
22.2653
16.9735
11.8175
6.96907
5.16501
2.61093
2.68966
2.73734
2.78687
2.81328
2.83049
2.89128
2.94167
3.06537
3.45613
6.27064
12.9324
15.2405
19.5388
21.0539
22.5565
22.5525
21.3332
17.6818
12.8432
7.47897
4.901
4.20144
2.57565
2.64154
2.69583
2.74773
2.76873
2.79763
2.84671
2.89401
3.02345
3.52367
6.7784
12.746
14.3224
17.5933
18.9782
19.5247
19.2547
17.66
14.0603
8.88868
4.92095
4.01124
3.73222
2.52892
2.58402
2.64363
2.69284
2.70985
2.74921
2.7912
2.84539
2.97309
3.62052
7.7118
12.3858
13.3846
15.9274
16.8743
17.0477
16.7998
15.0064
10.9634
5.60195
3.92569
3.55849
3.43725
2.48296
2.53567
2.59482
2.63965
2.65488
2.70031
2.73316
2.78309
2.92585
3.80872
7.97509
10.9832
12.5481
14.3979
14.9216
14.9385
14.4907
12.232
7.44969
4.03338
3.43883
3.29142
3.23154
2.42092
2.47619
2.52931
2.56874
2.58273
2.63013
2.66104
2.71926
2.86453
4.04759
8.73585
10.4781
11.5481
13.1077
13.3346
13.2358
12.4957
9.05344
4.48852
3.34917
3.14151
3.07516
3.04133
2.36283
2.42467
2.46913
2.50443
2.51943
2.56467
2.59031
2.64212
2.80799
4.66542
9.60397
10.1445
10.9617
11.9288
11.9976
11.9494
10.2255
5.53223
3.40579
3.0335
2.95537
2.9231
2.89825
2.28415
2.35022
2.38465
2.41481
2.4303
2.47111
2.49936
2.56665
2.8799
5.31673
9.9991
9.64703
10.1679
10.8491
10.8936
10.1412
6.9636
3.5977
2.9112
2.79741
2.76453
2.74742
2.73027
2.21763
2.28599
2.31235
2.33954
2.35713
2.39215
2.41659
2.47876
2.8228
5.58105
9.03383
8.8244
9.54285
9.6953
9.49508
7.83589
4.03361
2.88001
2.69017
2.6532
2.63931
2.62847
2.62152
2.12382
2.18569
2.20509
2.22744
2.24455
2.27399
2.30611
2.40418
3.10012
6.27128
8.53232
8.12997
8.87675
8.89392
8.03062
4.51552
2.86177
2.5334
2.48391
2.47159
2.46588
2.46079
2.45913
2.0538
2.11079
2.12513
2.14568
2.16368
2.18785
2.21375
2.31127
3.18398
6.87629
7.67125
7.63758
8.1749
7.65229
5.28049
2.9795
2.46096
2.38162
2.36924
2.36559
2.36167
2.35925
2.35879
1.94173
1.98239
1.99151
2.00667
2.02196
2.04302
2.09818
2.31208
3.61426
6.6009
6.48401
7.01027
6.96319
5.67416
3.11605
2.31942
2.18991
2.17325
2.17062
2.16878
2.16671
2.16582
2.16408
1.87429
1.90993
1.91557
1.92977
1.94454
1.96361
1.97948
2.2831
4.3484
6.20472
6.02546
6.42513
5.89962
3.399
2.34411
2.12024
2.08493
2.07772
2.07698
2.07538
2.0741
2.07319
2.07183
1.72053
1.73058
1.73105
1.73912
1.75203
1.79142
1.98829
2.95529
4.65164
4.78353
4.81279
4.63881
3.15998
2.10694
1.85621
1.81507
1.81156
1.81345
1.81318
1.81253
1.81239
1.81302
1.81122
3.10334
2.79153
2.59903
2.48212
2.39548
2.34314
2.29978
2.27892
2.25629
2.24592
2.23602
2.23896
2.2501
2.27536
2.32203
2.39877
2.50707
2.66923
2.79904
2.9958
3.12854
3.33011
3.45586
3.11153
2.79849
2.6095
2.48996
2.40166
2.35041
2.30726
2.2855
2.25952
2.24802
2.23674
2.23927
2.24987
2.27464
2.32081
2.39631
2.50422
2.66269
2.79215
2.98503
3.11637
3.30641
3.44156
3.12056
2.81903
2.62517
2.50235
2.41194
2.35931
2.31341
2.28865
2.26158
2.25021
2.23745
2.23946
2.249
2.27187
2.31581
2.38843
2.49433
2.6502
2.77492
2.96107
3.08559
3.26903
3.39896
3.13241
2.82901
2.63105
2.50803
2.42036
2.36795
2.32095
2.29411
2.26473
2.25185
2.23775
2.23927
2.24797
2.26931
2.31295
2.38286
2.48966
2.64074
2.76861
2.95377
3.08148
3.26743
3.38689
3.13991
2.84335
2.64648
2.5284
2.43455
2.37692
2.3247
2.29578
2.26539
2.25247
2.23798
2.23912
2.2471
2.26573
2.31032
2.37567
2.48344
2.62799
2.75534
2.93664
3.06423
3.25073
3.36103
3.14835
2.85294
2.6579
2.5337
2.43691
2.37818
2.32528
2.29729
2.26681
2.25477
2.2393
2.23966
2.24667
2.26135
2.30852
2.36664
2.47233
2.60977
2.73502
2.91459
3.04045
3.22291
3.33524
3.1505
2.85875
2.66207
2.53841
2.442
2.38365
2.33055
2.30175
2.27139
2.2578
2.24214
2.24165
2.24814
2.26069
2.31019
2.36571
2.4717
2.60179
2.72885
2.90938
3.03487
3.2201
3.33573
3.1481
2.8498
2.65312
2.52878
2.4349
2.37667
2.32151
2.29407
2.2673
2.25595
2.24136
2.24118
2.24798
2.26162
2.30988
2.36548
2.47764
2.60516
2.73746
2.92509
3.06704
3.26373
3.38901
2.97665
2.6395
2.47048
2.3782
2.31432
2.2791
2.25044
2.2352
2.22397
2.21917
2.22281
2.23453
2.26029
2.31016
2.39882
2.54395
2.75555
3.05702
3.30851
3.70788
3.98719
4.4153
4.66407
2.98597
2.64618
2.47422
2.38219
2.31721
2.28196
2.25315
2.23688
2.22595
2.22073
2.22408
2.2349
2.25967
2.30805
2.3936
2.53345
2.7313
3.02316
3.26217
3.64179
3.90606
4.31238
4.54805
2.98715
2.65135
2.48103
2.38655
2.32195
2.28495
2.25561
2.23901
2.2278
2.22226
2.22495
2.23492
2.25786
2.30392
2.38576
2.51988
2.70363
2.98491
3.21375
3.57538
3.82579
4.21278
4.43619
2.99758
2.65941
2.48551
2.39129
2.32573
2.28801
2.25843
2.24093
2.2297
2.22377
2.2258
2.23519
2.25713
2.30151
2.37971
2.50816
2.68128
2.95108
3.17019
3.51496
3.75064
4.11343
4.32367
2.9999
2.66522
2.49321
2.39616
2.33042
2.29095
2.2609
2.24332
2.23159
2.22536
2.22659
2.23516
2.25581
2.29754
2.37141
2.4931
2.6552
2.91097
3.12007
3.44744
3.6693
4.01476
4.214
3.01154
2.67492
2.49898
2.40165
2.33532
2.29452
2.26398
2.24563
2.23342
2.22706
2.22734
2.23518
2.25501
2.29509
2.36568
2.48137
2.63652
2.88072
3.07995
3.39109
3.60059
3.92661
4.11253
3.01491
2.68137
2.50771
2.40744
2.33995
2.29762
2.26642
2.24829
2.23534
2.22871
2.22791
2.2351
2.25387
2.29123
2.35711
2.46519
2.612
2.8423
3.03055
3.32601
3.52392
3.83452
4.00988
3.02797
2.6931
2.51475
2.4139
2.34563
2.3018
2.26985
2.2511
2.23719
2.23061
2.22882
2.23533
2.25319
2.28907
2.35215
2.45485
2.59638
2.81602
2.99461
3.27419
3.46199
3.75758
3.92176
3.03221
2.70013
2.52491
2.4207
2.35062
2.3055
2.27253
2.25397
2.2392
2.23226
2.22949
2.23565
2.25258
2.28653
2.34614
2.44329
2.5777
2.78528
2.95408
3.21943
3.39806
3.68149
3.83586
3.04668
2.71443
2.53288
2.42826
2.3566
2.31019
2.27616
2.25731
2.2413
2.23428
2.23059
2.23627
2.25238
2.2851
2.34252
2.43555
2.56504
2.76294
2.92438
3.17744
3.34804
3.61884
3.76404
3.05148
2.72176
2.54465
2.4361
2.36241
2.31491
2.27957
2.26043
2.24347
2.23599
2.23138
2.23671
2.25214
2.28355
2.33866
2.42811
2.55198
2.7404
2.89384
3.134
3.29628
3.55558
3.69333
3.06674
2.73895
2.55334
2.44468
2.36845
2.31995
2.2831
2.26408
2.24593
2.23793
2.23242
2.2373
2.25197
2.28233
2.33591
2.42272
2.54278
2.72357
2.87173
3.10244
3.25834
3.50593
3.63563
3.07211
2.74626
2.56634
2.4534
2.37519
2.32589
2.28763
2.26773
2.24824
2.23973
2.23328
2.23778
2.25164
2.28059
2.33204
2.41593
2.53171
2.70574
2.84761
3.06715
3.21611
3.45317
3.57929
3.08672
2.76574
2.57569
2.46276
2.38129
2.33095
2.29085
2.27122
2.25098
2.24167
2.2343
2.23841
2.25159
2.27927
2.32933
2.41118
2.52379
2.69155
2.82858
3.03922
3.18355
3.40982
3.5368
3.09261
2.77292
2.58899
2.47188
2.38859
2.33793
2.29644
2.27581
2.25337
2.2436
2.23526
2.23877
2.25076
2.27757
2.32665
2.40685
2.51667
2.68073
2.81304
3.0144
3.15051
3.36017
3.48863
2.90954
2.57261
2.41148
2.32999
2.27841
2.24298
2.21986
2.2038
2.19826
2.19799
2.20686
2.23431
2.28653
2.39617
2.5785
2.85628
3.26123
3.77954
4.36116
4.85091
5.51841
6.16701
6.77948
2.91222
2.57446
2.41316
2.33102
2.27959
2.24364
2.22141
2.20479
2.19933
2.19874
2.20723
2.23514
2.28536
2.3936
2.57441
2.8437
3.235
3.71598
4.29669
4.76709
5.39364
6.04155
6.64202
2.91296
2.57622
2.41593
2.33211
2.28082
2.24484
2.22278
2.20597
2.20052
2.19972
2.20814
2.23502
2.28373
2.38822
2.56354
2.83166
3.228
3.69026
4.26569
4.74088
5.33257
5.99017
6.54007
2.91572
2.57797
2.418
2.3335
2.28218
2.24552
2.22382
2.20691
2.20117
2.20024
2.20847
2.23403
2.28256
2.38436
2.55583
2.81423
3.20368
3.65148
4.23003
4.6928
5.25434
5.89608
6.43139
2.91658
2.5797
2.42074
2.33469
2.28355
2.24686
2.22514
2.20848
2.20227
2.2012
2.20909
2.2342
2.28156
2.3815
2.55029
2.8057
3.19829
3.62085
4.19073
4.65083
5.18941
5.84539
6.31392
2.91961
2.58142
2.42299
2.33601
2.28478
2.24771
2.22582
2.20971
2.20293
2.20168
2.20952
2.23449
2.28034
2.37746
2.54146
2.79417
3.18099
3.59536
4.16878
4.62832
5.14655
5.77359
6.23355
2.92063
2.58315
2.42545
2.33772
2.28633
2.24926
2.22691
2.21131
2.20383
2.20263
2.21011
2.2343
2.27918
2.37391
2.53633
2.78146
3.16787
3.56268
4.12907
4.57813
5.08737
5.72908
6.12221
2.92389
2.58503
2.42767
2.33907
2.28728
2.25032
2.22747
2.21289
2.20456
2.20313
2.21053
2.23422
2.27807
2.37089
2.52787
2.772
3.15589
3.54878
4.11088
4.55252
5.06016
5.67051
6.0553
2.925
2.58685
2.4298
2.34108
2.28887
2.25209
2.22844
2.21445
2.20551
2.20413
2.21123
2.23324
2.27676
2.36689
2.52258
2.76002
3.13649
3.51301
4.0698
4.51218
5.01258
5.63071
5.96847
2.92837
2.58907
2.43184
2.34282
2.28963
2.25324
2.22896
2.21605
2.20624
2.20469
2.21165
2.23315
2.27553
2.36381
2.51396
2.74782
3.12395
3.49851
4.05032
4.47466
4.98247
5.57315
5.90621
2.92959
2.59107
2.4337
2.34484
2.29104
2.25514
2.22992
2.21766
2.20736
2.20574
2.21239
2.23341
2.27434
2.36026
2.50869
2.73788
3.10323
3.4719
4.00367
4.44288
4.93986
5.53195
5.84516
2.93301
2.59374
2.43561
2.34705
2.29188
2.25634
2.23055