/*--------------------------------*- C++ -*----------------------------------*\
  =========                 |
  \\      /  F ield         | OpenFOAM: The Open Source CFD Toolbox
   \\    /   O peration     | Website:  https://openfoam.org
    \\  /    A nd           | Version:  7
     \\/     M anipulation  |
\*---------------------------------------------------------------------------*/
FoamFile
{
    version     2.0;
    format      ascii;
    class       volScalarField;
    location    "100";
    object      p;
}
// * * * * * * * * * * * * * * * * * * * * * * * * * * * * * * * * * * * * * //

dimensions      [0 2 -2 0 0 0 0];

internalField   nonuniform List<scalar> 
12842
(
0.742374
0.798799
0.890623
1.05833
1.28974
1.57226
1.90409
2.28654
2.72026
3.20849
3.76167
4.39883
5.14317
6.01442
7.01621
8.12811
9.30617
10.4911
11.6204
12.6423
13.5227
14.2518
14.8358
0.634362
0.699786
0.778319
0.925198
1.1168
1.33414
1.5681
1.80794
2.04098
2.26191
2.48197
2.73333
3.0636
3.52211
4.14086
4.92133
5.83297
6.82196
7.82546
8.78637
9.66345
10.4304
11.0926
0.53307
0.60663
0.67907
0.809154
0.965336
1.12609
1.274
1.38464
1.43023
1.39664
1.29722
1.17994
1.1183
1.19097
1.45476
1.92677
2.58271
3.36896
4.22105
5.07849
5.89893
6.64218
7.32136
0.438884
0.524219
0.593361
0.708644
0.833851
0.947305
1.02094
1.0147
0.883268
0.603915
0.19329
-0.281417
-0.718697
-1.01036
-1.0781
-0.895692
-0.488095
0.0867721
0.762699
1.47877
2.19683
2.86552
3.51097
0.352447
0.457901
0.521151
0.623762
0.722461
0.798026
0.808465
0.696218
0.395925
-0.123242
-0.840206
-1.66503
-2.46652
-3.10649
-3.48854
-3.58335
-3.42255
-3.07156
-2.59692
-2.0568
-1.48009
-0.928076
-0.356327
0.275254
0.409745
0.461008
0.555022
0.631616
0.679222
0.637541
0.430387
-0.029658
-0.780545
-1.79638
-2.96168
-4.11524
-5.08909
-5.77229
-6.13772
-6.22809
-6.11781
-5.87108
-5.54021
-5.14066
-4.74257
-4.27874
0.208338
0.378174
0.410953
0.502491
0.561655
0.592775
0.511402
0.222815
-0.383591
-1.35256
-2.65403
-4.14562
-5.63734
-6.93197
-7.90734
-8.54235
-8.89373
-9.04522
-9.05525
-8.96843
-8.78182
-8.57576
-8.25083
0.152262
0.359492
0.368049
0.462613
0.507518
0.532146
0.421834
0.0660103
-0.668967
-1.83516
-3.40036
-5.19652
-7.00818
-8.61065
-9.87257
-10.7802
-11.4046
-11.8385
-12.1311
-12.3206
-12.3788
-12.4037
-12.2441
0.101479
0.349081
0.333346
0.439174
0.479774
0.514048
0.394683
-0.000752365
-0.825619
-2.14117
-3.91322
-5.9534
-8.02511
-9.88168
-11.3841
-12.5273
-13.3957
-14.0908
-14.6497
-15.1093
-15.4028
-15.6721
-15.665
0.0555438
0.341502
0.302007
0.422442
0.4659
0.516299
0.396875
-0.0239028
-0.913851
-2.34414
-4.27569
-6.50598
-8.7802
-10.838
-12.5344
-13.8743
-14.954
-15.8821
-16.6841
-17.395
-17.9159
-18.4076
-18.5794
0.022442
0.336444
0.273759
0.406695
0.455051
0.519914
0.399458
-0.0450917
-0.995075
-2.53157
-4.61006
-7.01712
-9.48195
-11.7357
-13.6269
-15.1708
-16.4736
-17.6499
-18.7131
-19.698
-20.4756
-21.2192
-21.6073
0.00134864
0.33099
0.248333
0.391041
0.445971
0.521964
0.398819
-0.0678424
-1.07404
-2.70854
-4.9232
-7.49532
-10.1417
-12.5887
-14.6774
-16.4317
-17.9651
-19.3979
-20.7323
-22.0062
-23.0618
-24.0851
-24.7138
-0.0105485
0.322418
0.224882
0.375123
0.437878
0.521736
0.395354
-0.0906972
-1.14952
-2.87411
-5.21642
-7.94432
-10.7668
-13.4076
-15.6977
-17.667
-19.4335
-21.1243
-22.7331
-24.3025
-25.6481
-26.9702
-27.8609
-0.015067
0.310378
0.203042
0.359674
0.430169
0.519223
0.389812
-0.112844
-1.22136
-3.02941
-5.49356
-8.37117
-11.3686
-14.2069
-16.7041
-18.8928
-20.892
-22.8371
-24.718
-26.5818
-28.2235
-29.8496
-31.0175
-0.013536
0.296103
0.183242
0.346441
0.423102
0.516039
0.384589
-0.132023
-1.2875
-3.17369
-5.75618
-8.78064
-11.9557
-14.9995
-17.7133
-20.1266
-22.3574
-24.5496
-26.6964
-28.8462
-30.7892
-32.7133
-34.1848
-0.00783253
0.280844
0.166406
0.336852
0.417332
0.514371
0.382554
-0.145631
-1.34513
-3.30566
-6.00521
-9.17731
-12.5372
-15.7986
-18.7421
-21.3866
-23.8456
-26.2732
-28.6743
-31.0951
-33.34
-35.5473
-37.3384
6.17844e-05
0.265518
0.153488
0.331253
0.413269
0.515765
0.38571
-0.151846
-1.39182
-3.42397
-6.2407
-9.56453
-13.1197
-16.615
-19.8036
-22.6865
-25.3689
-28.0156
-30.652
-33.3203
-35.8512
-38.317
-40.4132
0.0083077
0.250866
0.145122
0.329118
0.41116
0.520963
0.394856
-0.150065
-1.42656
-3.5284
-6.46334
-9.94529
-13.7083
-17.4562
-20.9069
-24.0357
-26.9345
-29.7781
-32.6192
-35.4968
-38.2725
-40.9552
-43.3095
0.0155281
0.237561
0.141335
0.329252
0.410821
0.529607
0.409422
-0.140884
-1.44956
-3.61912
-6.67307
-10.3197
-14.3029
-18.3224
-22.0529
-25.4348
-28.5406
-31.5522
-34.5531
-37.5834
-40.5357
-43.3742
-45.912
0.0207539
0.226196
0.141619
0.33045
0.412147
0.541127
0.428629
-0.124893
-1.46118
-3.69609
-6.8693
-10.6865
-14.9007
-19.2106
-23.2381
-26.8801
-30.1805
-33.323
-36.4238
-39.5315
-42.5689
-45.4786
-48.1015
0.0236011
0.217218
0.144797
0.331426
0.414393
0.553943
0.450557
-0.103686
-1.46256
-3.7589
-7.04969
-11.0403
-15.493
-20.1101
-24.4514
-28.3604
-31.8416
-35.0711
-38.1979
-41.2884
-44.3009
-47.1788
-49.7762
0.0239729
0.211057
0.150331
0.332497
0.418966
0.569833
0.477852
-0.0735353
-1.44951
-3.80269
-7.20884
-11.3744
-16.071
-21.012
-25.685
-29.87
-33.518
-36.7863
-39.8527
-42.8157
-45.6818
-48.4174
-50.8788
0.0228196
0.207682
0.155857
0.331698
0.422372
0.583476
0.504012
-0.0408723
-1.42737
-3.82939
-7.34467
-11.6817
-16.6228
-21.9028
-26.9288
-31.4065
-35.2157
-38.4767
-41.389
-44.1045
-46.6989
-49.1711
-51.3783
0.0203889
0.208898
0.165773
0.338608
0.439708
0.615114
0.552676
0.0185582
-1.37276
-3.81494
-7.42865
-11.9246
-17.0976
-22.7225
-28.1238
-32.9251
-36.9156
-40.1536
-42.8417
-45.2025
-47.4053
-49.4888
-51.2998
0.010015
0.209784
0.174542
0.349263
0.463894
0.655269
0.610955
0.0889577
-1.30366
-3.77795
-7.47748
-12.1179
-17.5081
-23.4773
-29.2732
-34.4317
-38.6329
-41.8427
-44.2398
-46.1207
-47.7898
-49.3454
-50.6129
0.00436051
0.215322
0.186206
0.364742
0.49341
0.69959
0.669742
0.153495
-1.24895
-3.76305
-7.55407
-12.3398
-17.9415
-24.2554
-30.4582
-35.9974
-40.4303
-43.6038
-45.6487
-46.946
-47.9701
-48.8555
-49.4166
0.00369019
0.224391
0.199321
0.382983
0.524488
0.742726
0.722308
0.205245
-1.21374
-3.77109
-7.6536
-12.5795
-18.3804
-25.0358
-31.6589
-37.6146
-42.3274
-45.5045
-47.2038
-47.9138
-48.2642
-48.3502
-48.0616
0.00425487
0.233908
0.211803
0.401876
0.554844
0.782865
0.768081
0.246015
-1.19248
-3.79218
-7.76199
-12.8197
-18.8055
-25.7998
-32.8599
-39.2817
-44.3544
-47.633
-49.0992
-49.3622
-49.0947
-48.3108
-47.0803
0.00464303
0.242343
0.222873
0.42027
0.583019
0.818818
0.806735
0.277179
-1.18146
-3.81982
-7.87043
-13.0501
-19.2042
-26.5347
-34.0497
-40.9995
-46.5463
-50.0927
-51.5713
-51.657
-50.9255
-49.3703
-47.2364
0.00548034
0.249763
0.23317
0.438303
0.609095
0.850989
0.83944
0.301282
-1.1765
-3.84809
-7.97188
-13.2629
-19.5677
-27.231
-35.2196
-42.7685
-48.9403
-53.0016
-54.857
-55.131
-54.2757
-52.357
-49.5928
0.00760691
0.256713
0.243739
0.456606
0.633947
0.88088
0.868874
0.322717
-1.17137
-3.86885
-8.05703
-13.4483
-19.8854
-27.8772
-36.3574
-44.5812
-51.5604
-56.4645
-59.15
-60.0966
-59.749
-58.1164
-55.1988
0.0113676
0.263649
0.255317
0.47558
0.658421
0.909984
0.897698
0.345578
-1.16045
-3.87541
-8.11882
-13.6
-20.1509
-28.4665
-37.4552
-46.4308
-54.4178
-60.5401
-64.5732
-66.8458
-67.7972
-67.081
-64.5715
0.0167128
0.270821
0.268107
0.495084
0.682691
0.938886
0.927326
0.372064
-1.14083
-3.8647
-8.15429
-13.7161
-20.3616
-28.9942
-38.505
-48.3042
-57.4989
-65.2139
-71.1479
-75.4829
-78.3834
-79.0252
-77.4044
0.023305
0.278284
0.281849
0.514574
0.706476
0.967442
0.957966
0.402371
-1.1125
-3.83768
-8.16527
-13.7997
-20.5195
-29.4589
-39.4982
-50.1789
-60.7607
-70.3988
-78.7526
-85.7399
-90.8387
-92.9876
-92.5598
0.030565
0.285909
0.295988
0.533369
0.729269
0.995175
0.989247
0.435778
-1.07681
-3.79683
-8.15484
-13.8544
-20.6251
-29.8548
-40.4174
-52.0104
-64.1167
-75.9374
-87.096
-96.9551
-104.09
-107.6
-108.41
0.0378038
0.293484
0.309941
0.550987
0.750852
1.02191
1.02097
0.471602
-1.03519
-3.74472
-8.12596
-13.8832
-20.6777
-30.1734
-41.2388
-53.7345
-67.4381
-81.6112
-95.7309
-108.277
-117.08
-121.679
-123.4
0.0444297
0.300839
0.323307
0.567321
0.771363
1.0479
1.05335
0.509752
-0.988368
-3.6826
-8.07967
-13.8864
-20.673
-30.4008
-41.9313
-55.27
-70.5639
-87.1398
-104.123
-118.955
-129.089
-134.57
-136.973
0.0501296
0.307953
0.335994
0.582676
0.791386
1.07386
1.08703
0.550603
-0.936475
-3.61093
-8.01612
-13.8632
-20.6063
-30.5225
-42.4623
-56.5331
-73.3301
-92.211
-111.774
-128.467
-139.647
-145.717
-148.478
0.0549001
0.314941
0.348168
0.597611
0.811623
1.10058
1.12266
0.594665
-0.879426
-3.5296
-7.93463
-13.8123
-20.4729
-30.5236
-42.801
-57.4498
-75.5788
-96.5327
-118.295
-136.459
-148.414
-154.901
-157.79
0.0589874
0.322001
0.360149
0.612738
0.832748
1.12872
1.16065
0.642151
-0.817396
-3.43881
-7.83504
-13.7331
-20.27
-30.3915
-42.9192
-57.9589
-77.1644
-99.8719
-123.362
-142.605
-155.011
-161.569
-164.493
0.0627396
0.329313
0.372251
0.628528
0.855116
1.15855
1.20092
0.692814
-0.751017
-3.33913
-7.71754
-13.6258
-19.9965
-30.1167
-42.79
-58.0037
-77.9726
-102.015
-126.597
-146.366
-158.891
-165.44
-168.296
0.0665059
0.337
0.384707
0.645221
0.878799
1.18993
1.24302
0.745964
-0.681279
-3.23166
-7.58301
-13.4911
-19.6533
-29.6947
-42.3958
-57.5394
-77.9052
-102.758
-127.826
-147.645
-159.86
-166.252
-169.151
0.0705374
0.34508
0.397608
0.662826
0.903547
1.22243
1.28619
0.800722
-0.609291
-3.11749
-7.43225
-13.33
-19.2426
-29.119
-41.7312
-56.5542
-76.935
-102.142
-127.269
-146.442
-158.003
-164.032
-166.868
0.0749823
0.353505
0.410944
0.681173
0.928992
1.25551
1.3297
0.856273
-0.535905
-2.99758
-7.26593
-13.1435
-18.7665
-28.3842
-40.7983
-55.0538
-75.038
-100.291
-125.235
-143.16
-153.816
-159.56
-162.384
0.0798645
0.36217
0.424618
0.700022
0.954713
1.28865
1.37299
0.91211
-0.461586
-2.87238
-7.0842
-12.9317
-18.2273
-27.4973
-39.592
-53.0376
-72.4206
-97.5165
-121.595
-138.375
-148.084
-153.18
-155.675
0.0851534
0.370976
0.438529
0.71912
0.980394
1.32153
1.41579
0.96806
-0.386294
-2.74195
-6.88684
-12.6946
-17.6302
-26.4776
-38.0756
-50.5047
-69.4981
-93.9389
-116.014
-131.421
-140.041
-144.237
-146.035
0.0907308
0.379811
0.452578
0.738318
1.00589
1.3541
1.45824
1.02449
-0.309461
-2.60572
-6.67315
-12.4322
-16.9775
-25.3326
-36.2204
-47.8427
-66.6364
-89.3937
-109.005
-122.439
-129.7
-133.071
-134.262
0.0966328
0.388725
0.4668
0.757581
1.03126
1.38651
1.50071
1.08195
-0.230307
-2.4632
-6.4428
-12.1448
-16.2708
-24.0576
-34.047
-45.6423
-63.9014
-84.1621
-101.255
-112.621
-118.591
-121.168
-121.771
0.102712
0.397511
0.4811
0.776891
1.0567
1.4193
1.544
1.14114
-0.149095
-2.31761
-6.20311
-11.8452
-15.5358
-22.6834
-31.7216
-44.3473
-61.154
-78.8387
-93.4852
-103.045
-107.994
-109.768
-109.737
0.107116
0.405575
0.49509
0.796526
1.08341
1.45467
1.59126
1.20525
-0.0644655
-2.17371
-5.96948
-11.5606
-14.8298
-21.2845
-29.3535
-43.718
-57.9989
-73.2012
-85.7219
-93.7928
-97.8483
-98.8024
-98.1624
0.112455
0.414508
0.510358
0.817964
1.11315
1.49473
1.64471
1.27553
0.02192
-2.04035
-5.76362
-11.3249
-14.2186
-20.0228
-26.9789
-43.0318
-54.5051
-67.0377
-77.7623
-84.774
-87.9352
-88.3008
-87.3393
0.118754
0.424443
0.527147
0.841607
1.14658
1.54019
1.70464
1.35085
0.106168
-1.92696
-5.60387
-11.1678
-13.7447
-19.0918
-24.8356
-41.9353
-50.8152
-60.6934
-69.8612
-76.1729
-78.6612
-78.8505
-77.8843
0.125185
0.434913
0.544973
0.867087
1.18324
1.59016
1.76916
1.42747
0.181669
-1.84462
-5.5075
-11.1173
-13.4499
-18.6393
-23.2159
-40.5061
-47.1511
-54.7877
-62.7093
-68.6174
-70.83
-71.1934
-70.4628
0.131405
0.445732
0.563577
0.894142
1.2227
1.64376
1.83649
1.50218
0.243382
-1.80082
-5.48548
-11.1925
-13.3681
-18.7185
-22.3426
-38.9251
-43.7711
-49.783
-56.8589
-62.6027
-64.8867
-65.6392
-65.3314
0.137394
0.45684
0.582708
0.922357
1.26405
1.69929
1.90395
1.57138
0.287694
-1.79774
-5.53677
-11.3902
-13.5021
-19.2537
-22.2545
-37.5867
-41.0581
-46.0769
-52.6813
-58.4053
-60.9523
-62.2069
-62.4112
0.143261
0.468285
0.602434
0.951794
1.30727
1.75656
1.97103
1.63433
0.314
-1.83502
-5.65882
-11.7046
-13.8422
-20.18
-22.9577
-36.6677
-39.1298
-43.6471
-50.0791
-55.792
-58.6298
-60.3743
-61.0684
0.149044
0.480101
0.622692
0.982339
1.35206
1.81522
2.03779
1.6925
0.327375
-1.90001
-5.82793
-12.0997
-14.3267
-21.2667
-24.0356
-35.9393
-37.745
-42.0166
-48.371
-53.9738
-57.032
-59.1586
-60.2552
0.155664
0.492949
0.644573
1.01498
1.39927
1.87568
2.10438
1.74675
0.331709
-1.98122
-6.01824
-12.5346
-14.9192
-22.5256
-25.5028
-35.7453
-37.297
-41.4186
-47.7401
-53.3125
-56.6096
-58.9633
-60.3223
0.162063
0.505632
0.666152
1.04721
1.44529
1.93311
2.16467
1.79015
0.320545
-2.08264
-6.22794
-12.9904
-15.5691
-23.8056
-27.0634
-35.948
-37.6631
-41.7189
-47.9769
-53.5957
-57.0823
-59.467
-60.841
0.168153
0.517942
0.687092
1.07849
1.48934
1.98675
2.21837
1.82367
0.297361
-2.19668
-6.44384
-13.4367
-16.2048
-24.9701
-28.4881
-36.1983
-38.3
-42.3741
-48.4284
-53.9764
-57.4209
-59.5398
-60.6388
0.174332
0.530192
0.707875
1.10933
1.53213
2.03775
2.26766
1.8515
0.269748
-2.31025
-6.64553
-13.8387
-16.757
-25.9192
-29.644
-36.3709
-38.8918
-43.0597
-48.7511
-53.9725
-57.0601
-58.6747
-59.3444
0.180791
0.542494
0.728697
1.13988
1.57392
2.08681
2.31413
1.87686
0.243499
-2.41332
-6.81741
-14.1711
-17.1784
-26.5843
-30.4602
-36.4384
-39.297
-43.6047
-48.811
-53.4133
-55.8903
-56.8838
-57.1123
0.187466
0.554728
0.749422
1.16997
1.61463
2.13413
2.3586
1.90158
0.221743
-2.5007
-6.95201
-14.4221
-17.4521
-26.931
-30.9219
-36.3913
-39.4581
-43.9011
-48.5332
-52.3186
-54.0151
-54.3497
-54.0975
0.194272
0.56679
0.769908
1.19939
1.65417
2.17989
2.40172
1.92689
0.206199
-2.57019
-7.04753
-14.592
-17.5835
-26.9631
-31.0605
-36.2176
-39.3628
-43.8631
-47.842
-50.7802
-51.7144
-51.3302
-50.4931
0.201122
0.578608
0.790048
1.22809
1.69262
2.22443
2.44415
1.95376
0.197731
-2.62177
-7.10673
-14.6902
-17.5912
-26.7235
-30.9386
-35.9119
-39.0286
-43.4342
-46.6753
-48.8335
-49.1479
-48.1816
-46.7874
0.207955
0.590176
0.809808
1.25608
1.73013
2.2681
2.48645
1.98281
0.196463
-2.65681
-7.13477
-14.7298
-17.4978
-26.2759
-30.6244
-35.4723
-38.4767
-42.6017
-45.0437
-46.4936
-46.3101
-44.9694
-43.2478
0.214687
0.601486
0.829157
1.28344
1.76693
2.31128
2.52905
2.0142
0.201777
-2.67794
-7.13839
-14.7257
-17.3306
-25.6882
-30.183
-34.9112
-37.7371
-41.4223
-43.0356
-43.8824
-43.2768
-41.6722
-39.8273
0.221284
0.612587
0.848152
1.31031
1.80323
2.35424
2.57214
2.04783
0.21267
-2.68793
-7.12376
-14.6909
-17.1186
-25.0186
-29.6702
-34.2553
-36.8577
-39.9984
-40.7942
-41.0915
-40.2381
-38.5092
-36.5588
0.22773
0.623533
0.866871
1.33688
1.83929
2.39722
2.61586
2.08335
0.228012
-2.68953
-7.0964
-14.6377
-16.8899
-24.3151
-29.1354
-33.5338
-35.8961
-38.3902
-38.485
-38.2261
-37.3443
-35.6222
-33.5773
0.234068
0.634418
0.885453
1.36333
1.87528
2.44034
2.66011
2.12031
0.246737
-2.68482
-7.06022
-14.5758
-16.6659
-23.6122
-28.6148
-32.7558
-34.8738
-36.6397
-36.2103
-35.4916
-34.6288
-32.9784
-30.8835
0.240329
0.645293
0.903988
1.3898
1.91133
2.48359
2.70469
2.15815
0.26783
-2.67563
-7.01843
-14.5131
-16.4634
-22.9332
-28.1319
-31.9308
-33.8056
-34.8016
-33.9918
-33.0757
-32.1132
-30.4807
-28.3352
0.246568
0.656208
0.92255
1.41632
1.94736
2.52675
2.74921
2.19621
0.290385
-2.66314
-6.9729
-14.4543
-16.2943
-22.2844
-27.6926
-31.07
-32.7208
-32.9964
-31.8857
-30.968
-29.8725
-28.1854
-25.9228
0.252798
0.667147
0.941126
1.44285
1.98329
2.56958
2.79323
2.23388
0.31366
-2.64827
-6.92488
-14.4021
-16.169
-21.6527
-27.284
-30.1949
-31.6517
-31.3356
-29.969
-29.0274
-27.882
-26.1661
-23.7482
0.259044
0.678101
0.959694
1.46927
2.01887
2.61171
2.83629
2.27068
0.33721
-2.63117
-6.87414
-14.356
-16.0936
-21.0162
-26.9217
-29.3728
-30.6149
-29.8146
-28.1922
-27.1872
-26.0813
-24.3134
-21.7195
0.265288
0.68901
0.978169
1.49549
2.05394
2.65289
2.87809
2.30636
0.360939
-2.61156
-6.81973
-14.3132
-16.0701
-20.3832
-26.6702
-28.6654
-29.5949
-28.4061
-26.5752
-25.5059
-24.4153
-22.5102
-19.7371
0.271535
0.699851
0.9965
1.52134
2.08829
2.69288
2.91845
2.34091
0.385112
-2.5884
-6.75933
-14.2676
-16.0947
-19.7929
-26.5467
-28.0467
-28.5337
-27.0395
-25.1248
-24.0254
-22.8952
-20.8005
-17.8947
0.277759
0.710566
1.01461
1.54677
2.12185
2.73163
2.95736
2.37452
0.410246
-2.56056
-6.69044
-14.2126
-16.1638
-19.3171
-26.5051
-27.4086
-27.3894
-25.6513
-23.796
-22.7233
-21.5048
-19.2531
-16.2983
0.283961
0.721149
1.03247
1.57169
2.15453
2.76909
2.9949
2.40752
0.436985
-2.52654
-6.60988
-14.1406
-16.269
-19.0159
-26.4353
-26.6429
-26.1591
-24.2763
-22.5571
-21.512
-20.1399
-17.7737
-14.8269
0.290112
0.731566
1.05004
1.5961
2.18637
2.80534
3.03124
2.44023
0.465944
-2.48525
-6.51517
-14.0437
-16.3937
-18.8585
-26.222
-25.745
-24.8818
-23.0611
-21.4597
-20.3481
-18.8009
-16.3792
-13.5157
0.296224
0.741831
1.06733
1.61998
2.21733
2.84043
3.0665
2.47295
0.497605
-2.43566
-6.4041
-13.9139
-16.5126
-18.7294
-25.8396
-24.8471
-23.6844
-22.096
-20.5891
-19.2771
-17.5965
-15.1932
-12.4782
0.302269
0.751924
1.08432
1.64336
2.24751
2.87445
3.10082
2.50584
0.532241
-2.37739
-6.27577
-13.7464
-16.6045
-18.5268
-25.3412
-24.0878
-22.7145
-21.332
-19.8902
-18.3389
-16.5359
-14.2029
-11.6451
0.308264
0.761869
1.10104
1.66624
2.27687
2.90741
3.1342
2.53894
0.569929
-2.3102
-6.12954
-13.539
-16.6562
-18.2201
-24.7185
-23.417
-21.9838
-20.6759
-19.1787
-17.4354
-15.5367
-13.3057
-10.9246
0.314184
0.771649
1.11748
1.68866
2.30549
2.93935
3.16665
2.57219
0.610567
-2.23434
-5.9657
-13.2913
-16.6587
-17.8324
-23.9236
-22.686
-21.3591
-20.0321
-18.4035
-16.541
-14.6258
-12.5192
-10.3543
0.320047
0.781289
1.13366
1.71058
2.33329
2.97019
3.19806
2.60543
0.653966
-2.14999
-5.78402
-13.0019
-16.6017
-17.4011
-22.9543
-21.8118
-20.6891
-19.3531
-17.6538
-15.7487
-13.8841
-11.9247
-9.96666
0.325828
0.790763
1.14954
1.73203
2.36031
2.9999
3.22834
2.63847
0.699891
-2.05756
-5.58441
-12.6696
-16.479
-16.9492
-21.8606
-20.8435
-19.9552
-18.6856
-16.966
-15.0735
-13.2671
-11.4553
-9.68129
0.331548
0.800091
1.16516
1.75295
2.38642
3.02834
3.25729
2.67113
0.748158
-1.9571
-5.36594
-12.2924
-16.2861
-16.4906
-20.729
-19.8713
-19.2264
-18.0503
-16.3084
-14.4595
-12.7316
-11.074
-9.49232
0.337176
0.809241
1.18046
1.77336
2.41164
3.05546
3.28483
2.70323
0.798638
-1.84878
-5.12795
-11.8697
-16.0193
-16.0292
-19.6368
-18.9487
-18.5047
-17.4123
-15.6874
-13.9325
-12.3274
-10.844
-9.44484
0.342735
0.818227
1.19546
1.79317
2.43583
3.08109
3.31079
2.73466
0.85132
-1.73233
-4.8692
-11.4009
-15.6719
-15.5434
-18.6293
-18.0856
-17.7689
-16.769
-15.1502
-13.531
-12.0635
-10.7411
-9.49295
0.348191
0.827011
1.21011
1.81238
2.45898
3.10518
3.33509
2.76537
0.906248
-1.60763
-4.58881
-10.8877
-15.241
-15.0089
-17.7286
-17.2712
-17.0474
-16.157
-14.6854
-13.1993
-11.8663
-10.6773
-9.55683
0.353566
0.835605
1.22441
1.83092
2.48095
3.12759
3.35761
2.79533
0.963563
-1.47416
-4.28522
-10.3324
-14.7336
-14.4222
-16.9247
-16.535
-16.4009
-15.5763
-14.2335
-12.8824
-11.6967
-10.6557
-9.67668
0.358822
0.843968
1.2383
1.84877
2.50175
3.14829
3.37834
2.82457
1.02338
-1.33175
-3.95724
-9.73969
-14.1674
-13.8278
-16.1691
-15.8798
-15.8051
-15.0217
-13.7986
-12.6126
-11.5921
-10.6982
-9.84762
0.363982
0.85211
1.25179
1.86585
2.52125
3.16714
3.39721
2.85312
1.08588
-1.17995
-3.6029
-9.11558
-13.5667
-13.289
-15.4097
-15.2519
-15.214
-14.493
-13.4133
-12.3889
-11.5132
-10.748
-9.99192
0.369009
0.859992
1.26482
1.88216
2.53943
3.18412
3.41418
2.88098
1.15103
-1.01902
-3.22135
-8.46567
-12.9371
-12.8269
-14.6257
-14.615
-14.6274
-13.987
-13.0435
-12.1534
-11.3903
-10.7301
-10.0841
0.373911
0.867621
1.2774
1.89763
2.55624
3.19921
3.4293
2.90826
1.21892
-0.848614
-2.80953
-7.79988
-12.2976
-12.4213
-13.8196
-13.9863
-14.0369
-13.455
-12.6351
-11.8676
-11.2218
-10.6711
-10.1421
0.378704
0.874981
1.28946
1.91219
2.5715
3.2121
3.44214
2.93447
1.2889
-0.671608
-2.37282
-7.11303
-11.6274
-12.0067
-13.012
-13.3611
-13.4079
-12.8947
-12.206
-11.5638
-11.0237
-10.573
-10.1366
0.383234
0.882056
1.30115
1.92618
2.58584
3.2236
3.4534
2.95947
1.35975
-0.486518
-1.90419
-6.45228
-11.0832
-11.6247
-12.2606
-12.7163
-12.7086
-12.2626
-11.6836
-11.1346
-10.6657
-10.2799
-9.91214
0.388112
0.889234
1.31273
1.93954
2.59863
3.23162
3.45907
2.97844
1.42925
-0.314518
-1.49787
-5.70419
-10.0929
-10.7983
-11.28
-11.8781
-11.9812
-11.6822
-11.2395
-10.7931
-10.4028
-10.0674
-9.7492
0.395016
0.897694
1.32562
1.95238
2.60859
3.23331
3.45622
2.99162
1.50592
-0.142761
-1.19196
-5.13031
-9.33899
-10.2091
-10.4717
-10.9949
-11.1229
-10.84
-10.4264
-10.0208
-9.68321
-9.41218
-9.16813
0.400014
0.904124
1.3352
1.9596
2.60887
3.21962
3.433
2.98424
1.57129
0.00974385
-0.963753
-4.59305
-8.4702
-9.48025
-9.55417
-9.98941
-10.0696
-9.76635
-9.35392
-8.96089
-8.647
-8.42307
-8.23241
0.402603
0.907869
1.34032
1.95974
2.5973
3.18748
3.38452
2.94724
1.6079
0.127521
-0.782097
-4.00968
-7.36098
-8.45631
-8.45815
-8.83292
-8.8366
-8.53309
-8.12848
-7.73293
-7.43015
-7.22986
-7.05636
0.404382
0.910106
1.34221
1.95391
2.57489
3.13818
3.3128
2.88296
1.6145
0.212769
-0.623079
-3.38175
-6.13677
-7.24506
-7.28016
-7.5591
-7.51106
-7.19737
-6.78447
-6.3905
-6.09317
-5.89857
-5.7282
0.406186
0.91147
1.34164
1.9427
2.54239
3.07316
3.22091
2.79694
1.59881
0.278665
-0.468995
-2.74286
-4.94374
-5.98896
-6.05816
-6.25998
-6.15434
-5.81533
-5.39274
-5.00127
-4.7156
-4.53468
-4.37559
0.407591
0.911541
1.3381
1.92554
2.49933
2.99258
3.11037
2.6934
1.5706
0.34183
-0.304405
-2.11774
-3.82623
-4.76826
-4.81535
-4.97449
-4.80697
-4.45087
-4.03378
-3.66007
-3.40238
-3.24853
-3.1101
0.408112
0.909685
1.33072
1.90117
2.44447
2.89576
2.98196
2.57545
1.5381
0.415616
-0.12198
-1.52019
-2.80504
-3.5837
-3.61706
-3.70846
-3.51579
-3.16699
-2.7726
-2.44635
-2.24591
-2.13917
-2.03668
0.407366
0.905321
1.31866
1.86851
2.37685
2.78252
2.83711
2.44612
1.50566
0.504897
0.0744202
-0.964697
-1.89839
-2.48621
-2.4922
-2.53125
-2.33273
-2.00941
-1.68465
-1.45773
-1.35023
-1.31203
-1.26721
0.405219
0.897998
1.30116
1.82649
2.29567
2.65313
2.678
2.30826
1.47336
0.605315
0.273493
-0.474245
-1.11822
-1.54084
-1.51109
-1.51643
-1.32817
-1.07764
-0.881328
-0.794804
-0.802207
-0.846146
-0.87103
0.401383
0.887149
1.27735
1.77422
2.2005
2.50842
2.50699
2.16386
1.4377
0.704332
0.455845
-0.0760964
-0.505279
-0.782859
-0.742736
-0.72515
-0.596659
-0.477083
-0.442562
-0.499674
-0.610686
-0.728352
-0.81708
0.395732
0.872286
1.24646
1.71085
2.09119
2.3496
2.32639
2.01392
1.39285
0.784766
0.595973
0.205686
-0.0811927
-0.252608
-0.204918
-0.210776
-0.19159
-0.22292
-0.333276
-0.500269
-0.683056
-0.84936
-0.981784
0.388026
0.852851
1.20771
1.63593
1.96823
2.17856
2.13845
1.85836
1.33156
0.828727
0.670508
0.361536
0.149208
0.0578726
0.0877125
0.0189643
-0.0809135
-0.237915
-0.443222
-0.667255
-0.881057
-1.0664
-1.21717
0.378178
0.828408
1.16059
1.54932
1.83276
1.99773
1.9452
1.69598
1.24665
0.822838
0.666118
0.395377
0.210897
0.176031
0.160766
0.0224297
-0.16644
-0.395869
-0.64203
-0.881297
-1.09612
-1.27808
-1.42807
0.365847
0.798331
1.10456
1.4513
1.68648
1.80977
1.74785
1.52459
1.13325
0.762436
0.585939
0.330015
0.155833
0.144942
0.0759018
-0.110303
-0.340401
-0.589919
-0.835418
-1.06188
-1.26066
-1.42959
-1.57069
0.350744
0.762103
1.0393
1.34243
1.53134
1.61699
1.54671
1.3422
0.991288
0.653738
0.448946
0.201364
0.0377732
0.0211423
-0.0907856
-0.292479
-0.522619
-0.758049
-0.978363
-1.17638
-1.35071
-1.50043
-1.62574
0.33233
0.719038
0.964602
1.22366
1.36936
1.42112
1.34165
1.14872
0.826658
0.512018
0.282633
0.0464764
-0.100571
-0.137718
-0.272879
-0.465121
-0.67137
-0.873457
-1.05822
-1.22461
-1.37151
-1.4976
-1.60367
0.310286
0.668772
0.880694
1.09622
1.20242
1.22359
1.13339
0.94726
0.649952
0.357024
0.115998
-0.102238
-0.229938
-0.287964
-0.425657
-0.59466
-0.76774
-0.931343
-1.08092
-1.21612
-1.33455
-1.43611
-1.5231
0.284203
0.611049
0.788158
0.961741
1.03239
1.02619
0.924712
0.744223
0.473517
0.207266
-0.0285685
-0.222996
-0.333202
-0.404815
-0.53156
-0.67152
-0.80926
-0.938602
-1.05776
-1.16335
-1.25419
-1.33342
-1.40379
0.25408
0.546222
0.688239
0.82221
0.861431
0.831815
0.720823
0.54797
0.308224
0.0755226
-0.13967
-0.306148
-0.400066
-0.476136
-0.586472
-0.69747
-0.80399
-0.905609
-0.997213
-1.0759
-1.14423
-1.20647
-1.26328
0.220015
0.475027
0.582675
0.680141
0.692413
0.644725
0.528622
0.367043
0.161676
-0.0328193
-0.216411
-0.352645
-0.43156
-0.504085
-0.595541
-0.68173
-0.765734
-0.844673
-0.912721
-0.971595
-1.02527
-1.07586
-1.12187
0.182604
0.398956
0.473932
0.538761
0.529245
0.470221
0.355265
0.208808
0.038471
-0.116962
-0.263694
-0.370036
-0.434334
-0.49764
-0.568956
-0.63504
-0.700236
-0.758036
-0.808064
-0.853532
-0.89629
-0.93641
-0.972687
0.142744
0.320079
0.365133
0.40214
0.376767
0.313626
0.206401
0.0782291
-0.0589274
-0.178046
-0.288595
-0.368259
-0.416132
-0.466066
-0.519
-0.569757
-0.616611
-0.657454
-0.695194
-0.730603
-0.763783
-0.794913
-0.823382
0.101825
0.241258
0.260097
0.275047
0.240039
0.179292
0.0851066
-0.0228147
-0.130303
-0.218614
-0.298401
-0.356104
-0.38976
-0.42505
-0.462473
-0.498414
-0.530554
-0.560523
-0.589098
-0.615838
-0.640845
-0.664817
-0.687071
0.0617484
0.165916
0.163237
0.162247
0.123386
0.0696934
-0.00838406
-0.0957248
-0.177965
-0.242296
-0.298617
-0.339533
-0.363039
-0.387616
-0.41316
-0.435425
-0.4574
-0.479504
-0.500162
-0.519166
-0.537402
-0.555315
-0.572066
0.0247261
0.0980837
0.0789475
0.0678607
0.0294273
-0.0148355
-0.0760616
-0.143587
-0.204658
-0.251064
-0.29185
-0.321506
-0.337401
-0.354366
-0.369411
-0.383481
-0.399331
-0.414659
-0.428465
-0.441537
-0.454715
-0.467895
-0.480358
-0.00631538
0.0420197
0.0114725
-0.00506894
-0.0406147
-0.0755412
-0.121482
-0.171495
-0.215454
-0.248837
-0.280204
-0.30314
-0.314826
-0.326024
-0.334704
-0.345351
-0.356991
-0.367212
-0.376316
-0.385504
-0.395012
-0.404562
-0.413646
-0.0289719
0.00152663
-0.035929
-0.0546292
-0.0863314
-0.11333
-0.146481
-0.181311
-0.211367
-0.236599
-0.263516
-0.282212
-0.291411
-0.297984
-0.305444
-0.315103
-0.323603
-0.330288
-0.336569
-0.34315
-0.349948
-0.356734
-0.363167
-0.0386726
-0.0177289
-0.0576186
-0.0758209
-0.103217
-0.124355
-0.148949
-0.174284
-0.196383
-0.215724
-0.235327
-0.247004
-0.251683
-0.255418
-0.261832
-0.268267
-0.272648
-0.27594
-0.279313
-0.282947
-0.286758
-0.290524
-0.294049
-0.0423762
-0.021783
-0.0593232
-0.0743986
-0.0961843
-0.109223
-0.118853
-0.122302
-0.131691
-0.167895
-0.218358
-0.247838
-0.25577
-0.260383
-0.266577
-0.271209
-0.274181
-0.27677
-0.279436
-0.282231
-0.285091
-0.287829
-0.290367
0.00203411
0.0315407
0.0097277
0.0025987
-0.0138203
-0.0289533
-0.0485966
-0.0664624
-0.0666504
-0.0409106
-0.0128844
-0.00618598
-0.0187694
-0.0315812
-0.0370241
-0.0392087
-0.0405701
-0.0413594
-0.0419254
-0.0424666
-0.0429592
-0.043228
-0.0432407
0.806873
0.802522
0.952229
1.2131
1.58262
2.10916
2.855
3.8753
5.23459
6.99958
9.19733
11.8293
14.8369
18.1338
21.5963
25.0936
28.4879
31.6532
34.4848
36.9145
38.9151
40.5006
41.7251
0.831849
0.862687
1.00327
1.27176
1.64981
2.1772
2.91183
3.90657
5.21908
6.9068
8.99717
11.49
14.3355
17.451
20.7185
24.007
27.1794
30.1104
32.6991
34.8839
36.6445
38.0066
39.0239
0.859273
0.919672
1.05541
1.32309
1.70375
2.22517
2.93845
3.89272
5.13856
6.72473
8.67779
10.9978
13.644
16.5409
19.5793
22.632
25.5655
28.2567
30.6084
32.5641
34.1082
35.2749
36.1151
0.887414
0.966648
1.10202
1.36182
1.73684
2.24405
2.92543
3.8249
4.98591
6.44908
8.23874
10.3561
12.769
15.4122
18.1878
20.9772
23.6538
26.0993
28.2205
29.9641
31.3179
32.3204
33.0215
0.911766
0.995279
1.13173
1.37856
1.73844
2.22157
2.85963
3.68984
4.74855
6.06888
7.67186
9.5602
11.7105
14.0694
16.5526
19.0542
21.4575
23.652
25.5489
27.0969
28.2841
29.1485
29.7393
0.922659
0.995573
1.12897
1.35853
1.6934
2.14062
2.72222
3.4677
4.40647
5.56484
6.96086
8.59936
10.4639
12.513
14.6785
16.8696
18.9838
20.9202
22.5964
23.9623
25.0034
25.7509
26.2464
0.905458
0.962581
1.08677
1.29695
1.60065
2.00174
2.51395
3.1585
3.95722
4.92978
6.09133
7.44876
8.99196
10.6935
12.5041
14.3533
16.1563
17.8266
19.2895
20.4971
21.4302
22.1101
22.5656
0.844434
0.896233
1.00707
1.19847
1.46995
1.81853
2.2502
2.77708
3.41165
4.16584
5.0515
6.07865
7.24904
8.55459
9.9697
11.4477
12.9251
14.3307
15.5984
16.6804
17.5516
18.2201
18.7034
0.639862
0.307183
0.512396
0.597933
0.914103
1.35694
1.99383
2.98684
4.383
6.33941
8.83672
11.9177
15.4267
19.2978
23.3694
27.5241
31.5949
35.4332
38.9076
41.9371
44.4848
46.5751
48.239
0.643727
0.326472
0.531533
0.622229
0.950753
1.39938
2.05212
3.05524
4.46447
6.43277
8.93724
12.0273
15.5528
19.4567
23.5884
27.8363
32.0411
36.0538
39.7394
43.0044
45.7984
48.129
50.0128
0.648193
0.349107
0.555552
0.650562
0.991731
1.44769
2.11612
3.12799
4.54777
6.52248
9.02885
12.1178
15.6477
19.566
23.7334
28.0427
32.3433
36.4874
40.3387
43.7947
46.7947
49.3303
51.4089
0.653073
0.374018
0.584464
0.683621
1.03688
1.50252
2.18722
3.20841
4.6385
6.61717
9.12332
12.2049
15.7298
19.6469
23.8273
28.1675
32.5251
36.7549
40.7216
44.3167
47.4729
50.1673
52.4035
0.658501
0.399991
0.617169
0.721101
1.0859
1.56359
2.26582
3.29776
4.73856
6.72036
9.22505
12.2954
15.8085
19.712
23.8859
28.2295
32.6077
36.8791
40.9103
44.5899
47.847
50.648
52.9958
0.664635
0.426007
0.651581
0.760887
1.135
1.62608
2.34617
3.38986
4.84175
6.82619
9.32902
12.386
15.8826
19.7634
23.9152
28.2389
32.6058
36.8783
40.9259
44.6365
47.9388
50.7915
53.1995
0.671719
0.45135
0.685439
0.800915
1.18039
1.68405
2.42053
3.47549
4.93759
6.92379
9.42447
12.4676
15.9462
19.7997
23.9192
28.2059
32.5359
36.775
40.7962
44.4887
47.783
50.6334
53.0495
0.679863
0.475897
0.717332
0.840749
1.22073
1.73457
2.48471
3.5495
5.02031
7.00729
9.50587
12.5362
15.9972
19.8221
23.9034
28.141
32.4139
36.5913
40.5498
44.1813
47.4197
50.2188
52.5958
0.689211
0.500965
0.747008
0.881308
1.2577
1.77867
2.53888
3.61081
5.08685
7.07138
9.56485
12.5806
16.0225
19.8168
23.8551
28.0348
32.236
36.3306
40.1987
43.7358
46.8805
49.5881
51.8846
0.699954
0.528325
0.774587
0.923471
1.2936
1.81851
2.58457
3.65963
5.13553
7.11165
9.59358
12.5893
16.007
19.7666
23.7569
27.8716
31.99
35.9863
39.7432
43.1608
46.1824
48.7678
50.9506
0.71246
0.55967
0.800374
0.967602