/*--------------------------------*- C++ -*----------------------------------*\
  =========                 |
  \\      /  F ield         | OpenFOAM: The Open Source CFD Toolbox
   \\    /   O peration     | Website:  https://openfoam.org
    \\  /    A nd           | Version:  7
     \\/     M anipulation  |
\*---------------------------------------------------------------------------*/
FoamFile
{
    version     2.0;
    format      ascii;
    class       surfaceScalarField;
    location    "100";
    object      phi;
}
// * * * * * * * * * * * * * * * * * * * * * * * * * * * * * * * * * * * * * //

dimensions      [0 3 -1 0 0 0 0];

internalField   nonuniform List<scalar> 
25449
(
64.9081
60.7733
-37.7734
48.194
45.3276
-28.6133
35.9446
33.924
-21.6746
26.9048
25.4622
-16.4223
20.196
19.1578
-12.4491
15.1952
14.447
-9.4462
11.4544
10.9191
-7.17827
8.64829
8.27243
-5.46633
6.53867
6.28383
-4.17422
4.94999
4.78703
-3.19835
3.75224
3.65778
-2.46003
2.84879
2.80324
-1.89979
2.1674
2.15423
-1.47285
1.65391
1.65935
-1.14586
1.26744
1.28047
-0.894007
0.977049
0.989272
-0.698882
0.759233
0.764667
-0.546852
0.596127
0.590914
-0.427809
0.47416
0.456208
-0.334242
0.383043
0.351667
-0.26055
0.315003
0.27053
-0.20249
0.264177
0.207675
-0.15685
0.159008
-0.121043
0.226212
49.0688
77.8522
36.5721
57.8243
27.3625
43.1337
20.5362
32.2885
15.4529
24.2411
11.6536
18.2463
8.80555
13.7671
6.66535
10.4126
5.05371
7.89547
3.83809
6.00265
2.92021
4.57566
2.22692
3.49653
1.70356
2.67758
1.30904
2.05388
1.01223
1.57728
0.78947
1.21203
0.622691
0.931446
0.498111
0.715493
0.405232
0.549087
0.336079
0.420819
0.284627
0.321983
0.246333
0.245969
0.187507
0.217833
36.18
90.0853
27.1267
66.8779
20.394
49.8664
15.3682
37.3143
11.6052
28.0042
8.78094
21.0706
6.65691
15.8911
5.05643
12.0131
3.84826
9.10364
2.93482
6.91609
2.24357
5.26691
1.7205
4.0196
1.32514
3.07293
1.02699
2.35203
0.802788
1.80148
0.634739
1.38008
0.509164
1.05702
0.415583
0.809073
0.345995
0.618673
0.294325
0.472489
0.255983
0.360323
0.227522
0.274429
0.208638
0.20639
26.2955
98.5441
19.9079
73.2656
15.0825
54.6919
11.4372
40.9596
8.68273
30.7586
6.60129
23.152
5.02766
17.4648
3.83683
13.2039
2.93447
10.006
2.2498
7.60075
1.72995
5.78675
1.33548
4.41407
1.03674
3.37167
0.811256
2.57752
0.641742
1.97099
0.514823
1.507
0.420139
1.1517
0.349708
0.879503
0.297431
0.670949
0.25868
0.511239
0.229969
0.389035
0.208685
0.295712
0.224426
0.192896
18.9746
104.142
14.59
77.6504
11.1857
58.0963
8.56204
43.5833
6.55003
32.7706
5.01305
24.689
3.84152
18.6363
2.94921
14.0962
2.26923
10.686
1.75059
8.11939
1.3549
6.18244
1.0534
4.71557
0.82439
3.60068
0.651234
2.75067
0.521006
2.10122
0.423551
1.60445
0.350913
1.22434
0.296928
0.933485
0.256881
0.710994
0.227202
0.540917
0.205207
0.411028
0.1889
0.312019
0.236535
0.176789
13.6774
107.603
10.7704
80.5576
8.40266
60.4641
6.51758
45.4684
5.03809
34.2501
3.88933
25.8377
3.0032
19.5224
2.32205
14.7774
1.79892
11.2091
1.39709
8.52122
1.08848
6.49105
0.851977
4.95207
0.67152
3.78114
0.534663
2.88753
0.431576
2.2043
0.354387
1.68164
0.296835
1.28189
0.254032
0.976287
0.222238
0.742787
0.19863
0.564524
0.18109
0.428567
0.168054
0.325054
0.246245
0.158343
9.91464
109.485
8.0839
82.3885
6.46038
62.0876
5.09912
46.8296
3.99328
35.3559
3.11467
26.7163
2.42583
20.2112
1.88996
15.3132
1.47437
11.6247
1.15235
8.84324
0.903023
6.74037
0.710567
5.14452
0.562821
3.92888
0.450249
3.0001
0.365187
2.28936
0.301356
1.74547
0.253664
1.32957
0.2181
1.01185
0.191589
0.769295
0.171817
0.584294
0.157055
0.443327
0.146029
0.33608
0.254505
0.137768
7.28317
110.203
6.22935
83.4424
5.13348
63.1835
4.13763
47.8255
3.28883
36.2047
2.59402
27.4112
2.03829
20.767
1.59979
15.7517
1.25584
11.9686
0.986651
9.11243
0.77625
6.95077
0.612447
5.30832
0.485776
4.05555
0.388697
3.09718
0.315033
2.36303
0.259572
1.80093
0.217991
1.37115
0.18684
1.043
0.163484
0.792649
0.145939
0.601838
0.13275
0.456516
0.122814
0.346014
0.261985
0.115333
4.86753
111.773
3.69153
84.6186
2.80255
64.0725
2.13431
48.4937
1.63107
36.708
1.25312
27.7891
0.96881
21.0513
0.754062
15.9665
0.590509
12.1322
0.464772
9.23817
0.367388
7.04815
0.291866
5.38385
0.233578
4.11384
0.189025
3.14173
0.155392
2.39666
0.130261
1.82606
0.111578
1.38983
0.0976781
1.05689
0.0873005
0.803024
0.0795111
0.609626
0.0736372
0.462389
0.0692064
0.350445
0.265369
0.065822
3.03133
112.749
2.30335
85.3466
1.75259
64.6233
1.33973
48.9065
1.02947
37.0182
0.797427
28.0211
0.623435
21.2253
0.492137
16.0978
0.391715
12.2326
0.313749
9.31613
0.252496
7.1094
0.204276
5.43206
0.166577
4.15153
0.137498
3.1708
0.115463
2.41869
0.0989931
1.84253
0.0867477
1.40208
0.0776062
1.06604
0.0707226
0.809906
0.0654818
0.614865
0.061455
0.466415
0.0583554
0.353544
0.267788
0.0559353
1.69579
113.291
1.29293
85.7496
0.987773
64.9285
0.760187
49.1341
0.58997
37.1884
0.463773
28.1473
0.369811
21.3192
0.299038
16.1686
0.244385
12.2873
0.201032
9.35948
0.165928
7.1445
0.137433
5.46056
0.114571
4.1744
0.0966024
3.18877
0.0828597
2.43244
0.0725533
1.85284
0.0648654
1.40976
0.0590693
1.07183
0.0546214
0.814351
0.0511401
0.618344
0.0483721
0.469181
0.0461731
0.355741
0.269566
0.0443938
0.739905
113.524
0.568909
85.9207
0.439052
65.0584
0.343517
49.2297
0.2731
37.2588
0.222303
28.1981
0.185357
21.3562
0.157713
16.1962
0.135677
12.3093
0.116984
9.37817
0.100479
7.161
0.0859696
5.47506
0.0735706
4.18679
0.0633798
3.19896
0.0553945
2.44042
0.0493342
1.8589
0.0447619
1.41434
0.0412328
1.07536
0.0384171
0.817165
0.0360995
0.62066
0.0341519
0.471127
0.0325271
0.357365
0.270945
0.0311472
0.0696645
113.539
0.0602856
85.9301
0.0526216
65.066
0.0489701
49.2333
0.047969
37.2599
0.0495892
28.1965
0.0522886
21.3535
0.0546498
16.1938
0.0553134
12.3086
0.0537821
9.3797
0.0501915
7.1646
0.0453473
5.4799
0.0401196
4.19202
0.0351989
3.20388
0.0310695
2.44455
0.0278253
1.86214
0.0253035
1.41686
0.0232564
1.0774
0.0214987
0.818919
0.019928
0.622228
0.0185031
0.47255
0.0172366
0.358629
0.272076
0.0161028
-0.387789
113.409
-0.287901
85.8303
-0.212965
64.9911
-0.154655
49.175
-0.108884
37.2141
-0.0719625
28.1596
-0.0425423
21.3241
-0.0199353
16.1712
-0.00394095
12.2926
0.00610964
9.36964
0.01119
7.15951
0.0127745
5.47831
0.0122434
4.19255
0.010701
3.20541
0.00898978
2.44626
0.00748276
1.86365
0.00621347
1.41813
0.00506872
1.07854
0.0039509
0.820035
0.0028381
0.623339
0.0017299
0.473656
0.000689829
0.359668
0.273073
-0.000308231
-0.686411
113.185
-0.516319
85.6602
-0.388369
64.8631
-0.290438
49.0771
-0.214817
37.1385
-0.155392
28.1002
-0.108922
21.2776
-0.0733713
16.1357
-0.0475473
12.2668
-0.030066
9.35216
-0.0194588
7.1489
-0.0138444
5.4727
-0.0115189
4.19022
-0.0110974
3.20499
-0.0114732
2.44663
-0.01206
1.86423
-0.0126833
1.41875
-0.0133681
1.07923
-0.0141688
0.820832
-0.0150596
0.624227
-0.0160262
0.474621
-0.0169655
0.360605
0.274005
-0.0178989
-0.870773
112.903
-0.658564
85.448
-0.498933
64.7035
-0.377468
48.9556
-0.284172
37.0452
-0.211434
28.0274
-0.154848
21.221
-0.111587
16.0924
-0.0798802
12.2351
-0.057959
9.33024
-0.0440999
7.13504
-0.0361966
5.46479
-0.032351
4.18637
-0.0309945
3.20363
-0.0308184
2.44646
-0.0310669
1.86448
-0.0314611
1.41914
-0.0319754
1.07974
-0.0326518
0.821507
-0.0334495
0.625022
-0.0343406
0.47551
-0.0352259
0.361489
0.27488
-0.0361035
-0.972451
112.592
-0.738381
85.214
-0.56247
64.5276
-0.429086
48.8222
-0.326903
36.943
-0.24749
27.948
-0.185796
21.1593
-0.138594
16.0452
-0.103844
12.2003
-0.0796301
9.30602
-0.0641518
7.11956
-0.0552138
5.45585
-0.0508172
4.18197
-0.0492813
3.20209
-0.0491356
2.44631
-0.0494776
1.86482
-0.0499446
1.41961
-0.0504875
1.08028
-0.0511582
0.822174
-0.0519307
0.625793
-0.0527672
0.476345
-0.0536101
0.36233
0.275691
-0.0544224
-1.01364
112.271
-0.772472
84.9728
-0.591511
64.3467
-0.454679
48.6854
-0.350017
36.8383
-0.268769
27.8668
-0.205611
21.0961
-0.157212
15.9968
-0.121474
12.1646
-0.0965176
9.28106
-0.0805968
7.10363
-0.0715292
5.44678
-0.0672831
4.17772
-0.0661219
3.20092
-0.0664371
2.44662
-0.0671887
1.86557
-0.0679364
1.42036
-0.068627
1.08097
-0.0693433
0.822889
-0.0701014
0.626548
-0.07087
0.477113
-0.0716485
0.363107
0.276398
-0.0723575
-1.01365
111.953
-0.775408
84.7346
-0.597018
64.1682
-0.46248
48.5508
-0.359677
36.7355
-0.279867
27.787
-0.217703
21.034
-0.169945
15.9491
-0.134596
12.1293
-0.10993
9.2564
-0.094354
7.08806
-0.0857692
5.43819
-0.0821553
4.1741
-0.0817618
3.20053
-0.0828517
2.44771
-0.0842417
1.86696
-0.0854073
1.42152
-0.0863028
1.08186
-0.0870645
0.823647
-0.0877734
0.627256
-0.0884329
0.477771
-0.0890852
0.363759
0.276939
-0.0896277
-0.98555
111.647
-0.757059
84.5061
-0.586433
63.9976
-0.458099
48.4225
-0.360112
36.6375
-0.283969
27.7108
-0.224468
20.9745
-0.17859
15.9032
-0.144549
12.0952
-0.120859
9.2327
-0.106151
7.07335
-0.0984608
5.43049
-0.0958104
4.17144
-0.0964717
3.20118
-0.0985802
2.44981
-0.100791
1.86917
-0.102475
1.4232
-0.103596
1.08298
-0.10436
0.824409
-0.10494
0.627833
-0.105418
0.478248
-0.105879
0.364218
0.277283
-0.106224
-0.942866
111.358
-0.727681
84.2909
-0.567522
63.8375
-0.447419
48.3024
-0.355772
36.5459
-0.284427
27.6395
-0.228418
20.9185
-0.185021
15.8598
-0.152731
12.0629
-0.130343
9.21031
-0.116757
7.05976
-0.11017
5.42391
-0.10866
4.16993
-0.110551
3.20307
-0.113843
2.4531
-0.117001
1.87232
-0.119259
1.42546
-0.120569
1.08429
-0.121234
0.82507
-0.121577
0.628176
-0.121818
0.478487
-0.122045
0.364445
0.277392
-0.122157
-0.886929
111.09
-0.68825
84.0923
-0.541
63.6902
-0.430974
48.1924
-0.347085
36.462
-0.281621
27.574
-0.229911
20.8667
-0.189577
15.8194
-0.159435
12.0328
-0.138609
9.18948
-0.12633
7.04748
-0.121
5.41857
-0.120767
4.16969
-0.124045
3.20634
-0.128697
2.45775
-0.132961
1.87658
-0.135877
1.42838
-0.137367
1.08578
-0.137862
0.825562
-0.137882
0.628193
-0.137735
0.478342
-0.137519
0.364224
0.277095
-0.137223
-0.822145
110.846
-0.642238
83.9123
-0.50957
63.5575
-0.410825
48.0936
-0.335544
36.3867
-0.276539
27.515
-0.229545
20.8198
-0.192599
15.7825
-0.164889
12.0051
-0.145883
9.17048
-0.13514
7.03674
-0.131243
5.41467
-0.132413
4.17086
-0.137222
3.21115
-0.143412
2.46393
-0.148959
1.88213
-0.152666
1.43208
-0.154384
1.08749
-0.15461
0.825786
-0.153996
0.627577
-0.153057
0.477402
-0.152161
0.363326
0.276422
-0.151491
-0.804111
110.605
-0.628308
83.7366
-0.499514
63.4288
-0.404337
47.9984
-0.333099
36.3155
-0.278981
27.4609
-0.237278
20.778
-0.205096
15.7503
-0.180803
11.9808
-0.163559
9.15323
-0.153021
7.02619
-0.148605
5.41025
-0.1494
4.17165
-0.154483
3.21622
-0.161866
2.47131
-0.169272
1.88953
-0.174878
1.43769
-0.177883
1.09049
-0.178456
0.826353
-0.177525
0.626647
-0.176221
0.476097
-0.175167
0.36227
0.275642
-0.174391
-0.781222
110.377
-0.614477
83.5698
-0.492157
63.3064
-0.401679
47.908
-0.333891
36.2477
-0.282318
27.4093
-0.242465
20.7382
-0.21159
15.7194
-0.188176
11.9573
-0.171477
9.13653
-0.161271
7.01599
-0.15711
5.40609
-0.158164
4.1727
-0.163677
3.22174
-0.171708
2.47934
-0.179855
1.89768
-0.185946
1.44378
-0.18877
1.09331
-0.188564
0.826144
-0.186767
0.62485
-0.184512
0.473841
-0.181969
0.359724
0.272848
-0.179178
-0.758867
110.161
-0.600676
83.4116
-0.484456
63.1902
-0.398395
47.8219
-0.333847
36.1831
-0.284657
27.3601
-0.246532
20.7001
-0.21687
15.6898
-0.194265
11.9347
-0.178053
9.12031
-0.168132
7.00606
-0.164172
5.40212
-0.165422
4.17394
-0.171324
3.22762
-0.180033
2.48803
-0.189051
1.90668
-0.195875
1.45059
-0.199075
1.0965
-0.198961
0.826025
-0.19653
0.622418
-0.192177
0.469486
-0.186609
0.354153
0.267208
-0.180975
-0.737071
109.957
-0.58699
83.2615
-0.476544
63.0798
-0.394659
47.74
-0.333172
36.1216
-0.286233
27.3132
-0.249737
20.6636
-0.221211
15.6613
-0.199352
11.9129
-0.183572
9.10454
-0.173877
6.99637
-0.170055
5.39831
-0.171429
4.17532
-0.17767
3.23387
-0.187078
2.49744
-0.197151
1.91676
-0.205257
1.4587
-0.209731
1.10097
-0.209978
0.826267
-0.205925
0.618366
-0.198949
0.462509
-0.191737
0.346938
0.260997
-0.185532
-0.715855
109.763
-0.573483
83.1192
-0.468518
62.9748
-0.390594
47.6621
-0.332013
36.0631
-0.287208
27.2684
-0.252256
20.6286
-0.224801
15.6338
-0.203632
11.8917
-0.188232
9.08913
-0.178706
6.98684
-0.174955
5.39454
-0.176372
4.17673
-0.182886
3.24037
-0.193012
2.50756
-0.204421
1.92816
-0.214433
1.4687
-0.220493
1.10702
-0.220618
0.826386
-0.215625
0.613373
-0.209471
0.456354
-0.204342
0.341806
0.256047
-0.199397
-0.695229
109.58
-0.5602
82.9841
-0.46045
62.875
-0.386294
47.5879
-0.330476
36.0072
-0.287704
27.2256
-0.25422
20.5951
-0.227777
15.6074
-0.20725
11.8712
-0.192182
9.07407
-0.182769
6.97743
-0.179019
5.3908
-0.18039
4.1781
-0.187097
3.24708
-0.197965
2.51843
-0.210954
1.94115
-0.223068
1.48082
-0.23059
1.11454
-0.23196
0.827751
-0.230559
0.611974
-0.229108
0.454901
-0.225725
0.338421
0.249815
-0.219499
-0.675194
109.407
-0.547173
82.8561
-0.452392
62.7803
-0.381826
47.5174
-0.328643
35.954
-0.287809
27.1848
-0.255725
20.5631
-0.230241
15.5819
-0.210311
11.8512
-0.195531
9.05928
-0.186176
6.96807
-0.182359
5.38697
-0.183588
4.17932
-0.190392
3.25387
-0.201984
2.53001
-0.216553
1.95571
-0.230628
1.49488
-0.240629
1.12453
-0.247562
0.834677
-0.25393
0.618341
-0.255731
0.456701
-0.249707
0.332396
0.239229
-0.239128
-0.655749
109.244
-0.534424
82.7348
-0.444386
62.6902
-0.377247
47.4502
-0.326578
35.9034
-0.287595
27.1458
-0.256849
20.5323
-0.232276
15.5573
-0.212902
11.8319
-0.198369
9.04476
-0.18902
6.95873
-0.185065
5.38303
-0.18605
4.18031
-0.192833
3.26066
-0.205024
2.5422
-0.220931
1.97162
-0.237158
1.51111
-0.252309
1.13968
-0.268625
0.850988
-0.281591
0.631311
-0.281995
0.457103
-0.271628
0.322028
0.225525
-0.257929
-0.636887
109.09
-0.521966
82.6199
-0.436461
62.6047
-0.372597
47.3864
-0.324332
35.8551
-0.287121
27.1086
-0.257653
20.5028
-0.233947
15.5336
-0.215091
11.813
-0.200767
9.03043
-0.191373
6.94933
-0.187211
5.37885
-0.187843
4.18094
-0.194449
3.26726
-0.206989
2.55473
-0.223941
1.98856
-0.243139
1.5303
-0.265938
1.16246
-0.291139
0.876185
-0.305419
0.645588
-0.301828
0.453511
-0.289491
0.309691
0.212288
-0.27626
-0.6186
108.944
-0.509811
82.5111
-0.428643
62.5235
-0.367912
47.3256
-0.321947
35.8092
-0.286433
27.0731
-0.25819
20.4746
-0.23531
15.5107
-0.216937
11.7946
-0.202786
9.01628
-0.1933
6.93985
-0.188861
5.37442
-0.189022
4.18111
-0.195253
3.2735
-0.2078
2.56728
-0.225601
2.00636
-0.248641
1.55334
-0.279281
1.1931
-0.308871
0.90577
-0.319279
0.656002
-0.311315
0.445544
-0.298364
0.296741
0.199929
-0.286011
-0.60088
108.807
-0.497965
82.4082
-0.42095
62.4466
-0.36322
47.2679
-0.319459
35.7654
-0.285572
27.0392
-0.258504
20.4475
-0.236411
15.4886
-0.218488
11.7767
-0.204479
9.00227
-0.194854
6.93022
-0.190069
5.36963
-0.189636
4.18066
-0.195251
3.2791
-0.207421
2.57944
-0.225914
2.02484
-0.252912
1.58033
-0.288933
1.22912
-0.317421
0.934256
-0.321383
0.659961
-0.309701
0.433862
-0.296032
0.283071
0.187496
-0.283603
-0.583715
108.678
-0.486433
82.3109
-0.4134
62.3735
-0.358545
47.213
-0.316897
35.7237
-0.284573
27.0068
-0.258632
20.4216
-0.237292
15.4673
-0.21979
11.7592
-0.205892
8.98837
-0.196084
6.92042
-0.190887
5.36444
-0.189728
4.17951
-0.194456
3.28384
-0.205855
2.59085
-0.224742
2.04374
-0.254658
1.61025
-0.292151
1.26661
-0.315508
0.957609
-0.312871
0.657329
-0.298414
0.419403
-0.2837
0.268358
0.174414
-0.270622
-0.567093
108.556
-0.475218
82.219
-0.406004
62.3043
-0.353907
47.1609
-0.314287
35.6841
-0.283464
26.976
-0.258608
20.3967
-0.237988
15.4467
-0.22088
11.7421
-0.207066
8.97456
-0.197034
6.91038
-0.191358
5.35876
-0.189337
4.17749
-0.192893
3.28738
-0.203111
2.60106
-0.221802
2.06242
-0.252611
1.64105
-0.28767
1.30166
-0.304071
0.974009
-0.296214
0.649468
-0.28003
0.403219
-0.264236
0.252564
0.160578
-0.250403
-0.551005
108.442
-0.46432
82.1323
-0.398773
62.2387
-0.349324
47.1115
-0.311653
35.6464
-0.282273
26.9466
-0.258461
20.3729
-0.238532
15.4267
-0.221793
11.7254
-0.208038
8.96081
-0.197744
6.90009
-0.191526
5.35255
-0.188508
4.17448
-0.190604
3.28949
-0.199201
2.60967
-0.216774
2.08
-0.245958
1.67024
-0.275531
1.33124
-0.284876
0.983352
-0.273664
0.638262
-0.256775
0.386328
-0.240268
0.236059
0.146114
-0.225807
-0.535437
108.335
-0.45374
82.0506
-0.391716
62.1767
-0.344812
47.0646
-0.309013
35.6106
-0.281024
26.9186
-0.258218
20.3501
-0.238953
15.4075
-0.222559
11.709
-0.208841
8.94709
-0.198251
6.8895
-0.19143
5.34572
-0.187284
4.17033
-0.187644
3.28984
-0.194131
2.61614
-0.209397
2.09526
-0.234434
1.69527
-0.256505
1.35331
-0.259507
0.986355
-0.246754
0.625504
-0.230449
0.370024
-0.214223
0.219834
0.131418
-0.199527
-0.520377
108.235
-0.443479
81.9737
-0.384843
62.1181
-0.340386
47.0201
-0.306389
35.5766
-0.279739
26.892
-0.257904
20.3283
-0.239277
15.3888
-0.223208
11.6929
-0.209507
8.93339
-0.19859
6.87859
-0.191111
5.33825
-0.185716
4.16494
-0.184079
3.28822
-0.187923
2.62
-0.1996
2.10695
-0.218327
1.714
-0.231733
1.36672
-0.229297
0.983919
-0.216411
0.612623
-0.20185
0.355462
-0.187145
0.205131
0.117238
-0.172964
-0.505815
108.142
-0.433535
81.9015
-0.37816
62.0627
-0.336056
46.978
-0.303795
35.5444
-0.278438
26.8666
-0.257542
20.3074
-0.239529
15.3708
-0.223767
11.6771
-0.210066
8.91968
-0.198793
6.86732
-0.190606
5.33006
-0.183857
4.15819
-0.179985
3.28434
-0.180636
2.62065
-0.187546
2.11385
-0.198374
1.72482
-0.202658
1.371
-0.19557
0.976834
-0.183375
0.600425
-0.171152
0.34324
-0.159178
0.193158
0.105045
-0.146983
-0.491738
108.055
-0.423907
81.8336
-0.371672
62.0105
-0.331837
46.9382
-0.301249
35.5138
-0.27714
26.8425
-0.257153
20.2874
-0.239734
15.3534
-0.224262
11.6617
-0.210544
8.90597
-0.198893
6.85567
-0.189956
5.32114
-0.181764
4.15001
-0.17545
3.27804
-0.172407
2.61762
-0.17361
2.11506
-0.175593
1.72681
-0.170867
1.36628
-0.159924
0.965892
-0.149053
0.589559
-0.139621
0.333807
-0.130931
0.184473
0.0962156
-0.122097
-0.478135
107.974
-0.414593
81.7701
-0.365387
61.9613
-0.327739
46.9005
-0.298766
35.4848
-0.275863
26.8196
-0.256757
20.2683
-0.239912
15.3366
-0.224715
11.6465
-0.210969
8.89222
-0.19892
6.84362
-0.1892
5.31141
-0.179495
4.14031
-0.17058
3.26913
-0.163419
2.61045
-0.158288
2.10993
-0.151161
1.71968
-0.137909
1.35303
-0.12347
0.951459
-0.113562
0.579647
-0.106628
0.326875
-0.1006
0.178449
0.0906959
-0.0950725
-0.464995
107.899
-0.405594
81.7107
-0.35931
61.915
-0.323772
46.865
-0.296361
35.4574
-0.274625
26.7979
-0.256374
20.25
-0.240087
15.3203
-0.22515
11.6315
-0.211366
8.87844
-0.198905
6.83116
-0.188378
5.3009
-0.17711
4.12905
-0.165493
3.25752
-0.153889
2.59887
-0.142135
2.09818
-0.126088
1.70364
-0.104818
1.33177
-0.0865151
0.933159
-0.0765208
0.569657
-0.0722419
0.322599
-0.069378
0.175591
0.0884327
-0.0671038
-0.452308
107.83
-0.396906
81.6553
-0.353446
61.8715
-0.319947
46.8315
-0.294045
35.4315
-0.273442
26.7773
-0.256021
20.2326
-0.240275
15.3045
-0.225588
11.6168
-0.211758
8.86461
-0.198875
6.81828
-0.187528
5.28955
-0.174666
4.11619
-0.160315
3.24317
-0.144051
2.5826
-0.125713
2.07985
-0.101237
1.67917
-0.0725214
1.30306
-0.0486953
0.909341
-0.035078
0.556037
-0.0292822
0.316806
-0.0265175
0.172832
0.0878122
-0.025887
-0.440064
107.766
-0.38853
81.6037
-0.3478
61.8308
-0.316274
46.8
-0.291834
35.4071
-0.272329
26.7578
-0.255717
20.216
-0.240499
15.2893
-0.226051
11.6024
-0.212169
8.85074
-0.198858
6.80498
-0.186688
5.27739
-0.172228
4.10174
-0.155192
3.22615
-0.134142
2.56157
-0.109547
2.05526
-0.0775164
1.64714
-0.0422835
1.26783
-0.0126833
0.879746
0.00452793
0.53883
0.0121611
0.309176
0.0150093
0.16999
0.088683
0.0141482
-0.428252
107.708
-0.380462
81.556
-0.342376
61.7927
-0.312762
46.7704
-0.289739
35.384
-0.271302
26.7393
-0.255477
20.2002
-0.240774
15.2746
-0.226555
11.5882
-0.212618
8.8368
-0.198879
6.79124
-0.185902
5.26441
-0.169848
4.08569
-0.15025
3.20656
-0.124372
2.53569
-0.0941564
2.02505
-0.0557476
1.60873
-0.0150193
1.22711
0.0188598
0.845875
0.0380994
0.519588
0.046729
0.30055
0.0494633
0.16726
0.0901737
0.0479829
-0.416862
107.655
-0.372702
81.5118
-0.337179
61.7572
-0.309419
46.7426
-0.287772
35.3624
-0.270374
26.7219
-0.25532
20.1851
-0.241122
15.2604
-0.227127
11.5742
-0.213135
8.82281
-0.19897
6.77708
-0.185206
5.25065
-0.167571
4.06807
-0.145617
3.18462
-0.114947
2.50504
-0.0801125
1.99022
-0.0364745
1.5651
0.0086441
1.18201
0.0448405
0.809685
0.0647066
0.499724
0.0732837
0.291976
0.0755025
0.165047
0.0920572
0.0736291
-0.405887
107.607
-0.365249
81.4712
-0.332214
61.7242
-0.306253
46.7166
-0.285943
35.3421
-0.269553
26.7055
-0.255248
20.1708
-0.241543
15.2467
-0.227762
11.5604
-0.213707
8.80875
-0.199115
6.76249
-0.184608
5.23615
-0.165412
4.04888
-0.141304
3.16051
-0.105877
2.46962
-0.0676444
1.95199
-0.0196099
1.51707
0.028857
1.13355
0.0657127
0.772836
0.0850049
0.480433
0.0926482
0.28433
0.0940082
0.163694
0.0942288
0.0918419
-0.381852
107.546
-0.336393
81.4257
-0.302537
61.6903
-0.277554
46.6917
-0.258937
35.3235
-0.244458
26.6911
-0.232085
20.1584
-0.220236
15.2349
-0.208105
11.5483
-0.19548
8.79613
-0.182122
6.74913
-0.168341
5.22237
-0.149516
4.03006
-0.125913
3.13692
-0.0901774
2.43389
-0.0533965
1.91522
-0.00655407
1.47023
0.0398586
1.08715
0.0736776
0.739027
0.0906289
0.463481
0.0966895
0.278278
0.097209
0.16316
0.0961448
0.0953108
-0.303665
107.498
-0.267775
81.3898
-0.241055
61.6636
-0.221358
46.6719
-0.206706
35.3088
-0.195335
26.6797
-0.185619
20.1487
-0.176262
15.2255
-0.166529
11.5385
-0.156305
8.78591
-0.145502
6.73833
-0.133852
5.21072
-0.117815
4.01403
-0.0980797
3.11719
-0.0686475
2.40447
-0.0384581
1.88503
-0.000368481
1.43214
0.0368338
1.04995
0.0636425
0.712225
0.0770599
0.450066
0.0817928
0.27354
0.0821077
0.16285
0.0973885
0.0808544
-0.241466
107.46
-0.213117
81.3614
-0.192017
61.6425
-0.176477
46.6564
-0.164941
35.2973
-0.15601
26.6708
-0.148386
20.1411
-0.141012
15.2181
-0.133241
11.5307
-0.125011
8.77768
-0.116311
6.72963
-0.106576
5.20099
-0.0931358
4.00059
-0.0767174
3.10078
-0.0531422
2.3809
-0.0283763
1.86027
0.00216551
1.40159
0.0316248
1.02051
0.0527585
0.691099
0.0634313
0.4394
0.0673461
0.269625
0.0676432
0.162548
0.0982971
0.0667356
-0.191966
107.43
-0.169543
81.339
-0.152856
61.6258
-0.140576
46.6441
-0.131478
35.2882
-0.124455
26.6637
-0.118471
20.1351
-0.112667
15.2123
-0.106486
11.5246
-0.0998886
8.77108
-0.0929058
6.72265
-0.0848499
5.19294
-0.073736
3.98948
-0.0600937
3.08714
-0.0414213
2.36223
-0.0210498
1.83991
0.00321424
1.37733
0.0263272
0.997401
0.0428936
0.674539
0.051394
0.430905
0.054668
0.266353
0.0549921
0.162224
0.0991061
0.0541827
-0.152586
107.406
-0.134829
81.3213
-0.121615
61.6126
-0.111899
46.6344
-0.104714
35.281
-0.0991853
26.6582
-0.0944858
20.1304
-0.0899221
15.2078
-0.0850214
11.5197
-0.07975
8.76581
-0.0741601
6.71706
-0.0675435
5.18632
-0.0584579
3.98041
-0.047172
3.07587
-0.0324039
2.34747
-0.0156719
1.82318
0.00349676
1.35816
0.0214963
0.97941
0.0343838
0.661657
0.0411353
0.424161
0.043822
0.26367
0.0441671
0.16188
0.0998493
0.0434249
-0.121216
107.387
-0.1071
81.3072
-0.0965961
61.6021
-0.0888765
46.6267
-0.0831773
35.2753
-0.0788063
26.6538
-0.075105
20.1267
-0.0715147
15.2042
-0.0676385
11.5158
-0.0634431
8.76162
-0.0589839
6.7126
-0.0535941
5.18094
-0.0462619
3.97308
-0.0370166
3.06662
-0.0253361
2.3358
-0.0116917
1.80954
0.00335941
1.3431
0.0172268
0.965551
0.027119
0.65177
0.0324169
0.418869
0.0345416
0.261549
0.0348617
0.161561
0.100473
0.0342387
-0.0965133
107.372
-0.0854577
81.2961
-0.0772344
61.5938
-0.0711999
46.6207
-0.066757
35.2708
-0.0633618
26.6504
-0.060491
20.1238
-0.057694
15.2014
-0.0546392
11.5127
-0.0512928
8.75827
-0.0477101
6.70902
-0.0432899
5.17652
-0.0373265
3.96712
-0.0296834
3.05899
-0.0202195
2.32634
-0.00897037
1.7983
0.00305643
1.33107
0.0139486
0.954666
0.0216849
0.644038
0.0258987
0.414661
0.0275706
0.259881
0.0278264
0.161308
0.100948
0.027353
-0.076456
107.36
-0.0675025
81.2872
-0.0608383
61.5872
-0.0559442
46.6158
-0.0523424
35.2672
-0.0495991
26.6477
-0.0472984
20.1215
-0.0450796
15.1992
-0.0426702
11.5103
-0.040033
8.75563
-0.0372101
6.7062
-0.0336895
5.173
-0.029022
3.96246
-0.0229518
3.05292
-0.0154941
2.31889
-0.00661758
1.78943
0.00255745
1.3219
0.0106795
0.946553
0.0164311
0.638291
0.0196225
0.411476
0.0208651
0.258642
0.0210449
0.16113
0.101248
0.0207467
-0.0660685
107.346
-0.0549533
81.276
-0.0464484
61.5787
-0.0400225
46.6093
-0.0351816
35.2624
-0.0314652
26.644
-0.028402
20.1185
-0.0255462
15.1963
-0.0225246
11.5073
-0.0191747
8.75229
-0.0154684
6.70249
-0.0110951
5.16863
-0.00550894
3.95688
0.001421
3.046
0.00999807
2.31031
0.0196143
1.77981
0.0282408
1.31327
0.0346584
0.940142
0.0376796
0.635273
0.0378997
0.411261
0.0364503
0.260096
0.0344575
0.163125
0.103259
0.0324478
-0.0693653
107.33
-0.0576968
81.2644
-0.0487683
61.5697
-0.0420245
46.6026
-0.0369505
35.2573
-0.0330652
26.6401
-0.0298743
20.1153
-0.0269059
15.1933
-0.0237606
11.5041
-0.0202527
8.74878
-0.0163318
6.69857
-0.0117026
5.164
-0.00582822
3.95101
0.00149608
3.03868
0.0104364
2.30138
0.0206624
1.76959
0.0297976
1.30413
0.0365852
0.933363
0.03977
0.632092
0.0400621
0.410976
0.0386326
0.261528
0.0366044
0.165157
0.105317
0.0345477
-0.0728272
107.314
-0.0605778
81.2521
-0.051204
61.5604
-0.0441265
46.5955
-0.0388076
35.252
-0.0347452
26.636
-0.031421
20.1119
-0.0283359
15.1903
-0.0250625
11.5009
-0.0213895
8.74511
-0.0172452
6.69443
-0.0123498
5.15911
-0.00618759
3.94485
0.00154555
3.03095
0.0108845
2.29204
0.0217664
1.75871
0.0314561
1.29444
0.0386311
0.926193
0.0419985
0.628726
0.0423493
0.41063
0.0409065
0.262977
0.0387892
0.167276
0.107476
0.0366324
-0.0764627
107.298
-0.0636028
81.2393
-0.0537616
61.5505
-0.0463333
46.5881
-0.0407572
35.2464
-0.0365092
26.6318
-0.0330456
20.1085
-0.0298393
15.187
-0.0264331
11.4975
-0.0225884
8.74126
-0.018212
6.69005
-0.0130413
5.15393
-0.00659382
3.9384
0.00156485
3.02279
0.0113443
2.28227
0.0229093
1.74715
0.0331901
1.28416
0.0407664
0.918625
0.0443147
0.625181
0.0446801
0.410273
0.043166
0.264493
0.0408952
0.169551
0.109791
0.0385824
-0.08028
107.28
-0.0667794
81.2257
-0.0564472
61.5402
-0.0486504
46.5803
-0.0428042
35.2406
-0.0383614
26.6273
-0.0347521
20.1049
-0.0314199
15.1837
-0.0278762
11.4939
-0.0238528
8.73724
-0.0192362
6.68544
-0.0137828
5.14848
-0.00705607
3.93168
0.00154461
3.0142
0.0118103
2.27201
0.024072
1.7349
0.0349722
1.27326
0.0429625
0.910639
0.0466826
0.621461
0.0470177
0.409942
0.0453801
0.266137
0.0429141
0.172018
0.112307
0.0403997
-0.0842889
107.261
-0.0701151
81.2116
-0.0592671
61.5293
-0.0510833
46.5721
-0.0449533
35.2344
-0.0403061
26.6227
-0.0365447
20.1011
-0.0330818
15.1803
-0.0293957
11.4902
-0.0251868
8.73303
-0.0203221
6.68057
-0.01458
5.14274
-0.00758494
3.92469
0.0014749
3.00514
0.0122772
2.26121
0.0252443
1.72193
0.0367822
1.26173
0.0451924
0.902238
0.0490794
0.617577
0.0493648
0.409666
0.0475733
0.267931
0.0449046
0.174692
0.115054
0.0421598
-0.0884983
107.242
-0.0736179
81.1967
-0.0622283
61.5179
-0.0536377
46.5635
-0.0472097
35.228
-0.0423482
26.6178
-0.0384276
20.0972
-0.0348291
15.1767
-0.0309958
11.4864
-0.0265945
8.72863
-0.0214742
6.67545
-0.0154388
5.13671
-0.00818961
3.91745
0.0013492
2.99561
0.0127401
2.24982
0.0264206
1.70826
0.0386026
1.24955
0.047439
0.893404
0.0515029
0.613511
0.0517425
0.40943
0.0497908
0.26989
0.0469279
0.177556
0.11802
0.0439641
-0.0929191
107.222
-0.0772962
81.1811
-0.0653374
61.506
-0.0563197
46.5545
-0.0495787
35.2213
-0.0444923
26.6127
-0.0404054
20.0931
-0.0366661
15.1729
-0.0326805
11.4824
-0.0280796
8.72403
-0.0226964
6.67007
-0.0163643
5.13038
-0.0088763
3.90996
0.00116519
2.98557
0.013193
2.2378
0.0275946
1.69386
0.0404122
1.23673
0.0496839
0.884141
0.0539422
0.609256
0.054157
0.409226
0.0520683
0.27198
0.0490363
0.180594
0.121171
0.0458874
-0.0975612
107.2
-0.0811588
81.1647
-0.0686023
61.4934
-0.0591357
46.545
-0.0520659
35.2142
-0.0467436
26.6074
-0.0424829
20.0888
-0.0385972
15.169
-0.034454
11.4783
-0.029646
8.71923
-0.0239925
6.66442
-0.0173616
5.12375
-0.00964923
3.90225
0.000922928
2.975
0.0136302
2.2251
0.0287696
1.67872
0.0422031
1.2233
0.0519068
0.874439
0.0563777
0.604782
0.056608
0.408999
0.0544369
0.27416
0.0512815
0.18375
0.124472
0.0479829
-0.102436
107.178
-0.0852148
81.1475
-0.0720306
61.4803
-0.0620925
46.5351
-0.0546773
35.2068
-0.0491074
26.6018
-0.0446649
20.0844
-0.0406272
15.165
-0.0363206
11.474
-0.0312975
8.7142
-0.0253662
6.65849
-0.0184352
5.11682
-0.0105113
3.89434
0.000623222
2.96387
0.0140473
2.21168
0.0299539
1.66283
0.0439753
1.20928
0.0540976
0.864326
0.0588168
0.600067
0.059127
0.4087
0.0569347
0.276353
0.053729
0.186962
0.127872
0.0503311
-0.107555
107.154
-0.089474
81.1294
-0.0756307
61.4664
-0.0651971
46.5247
-0.0574191
35.199
-0.0515894
26.596
-0.0469566
20.0798
-0.0427607
15.1608
-0.0382846
11.4695
-0.0330379
8.70896
-0.0268211
6.65227
-0.0195897
5.10959
-0.0114652
3.88621
0.000266134
2.95214
0.014445
2.1975
0.0311168
1.64616
0.045681
1.19472
0.0562409
0.853767
0.0612656
0.595039
0.0617281
0.408241
0.0595849
0.278506
0.0564056
0.190141
0.13129
0.0529901
-0.112931
107.129
-0.0939469
81.1104
-0.0794108
61.4519
-0.068457
46.5137
-0.0602979
35.1908
-0.0541954
26.5899
-0.0493635
20.0749
-0.0450029
15.1564
-0.0403506
11.4648
-0.0348711
8.70348
-0.028361
6.64576
-0.0208297
5.10206
-0.0125137
3.8779
-0.000149084
2.93979
0.0148265
2.18254
0.0322103
1.62878
0.0472698
1.17967
0.0583242
0.842721
0.0636934
0.589675
0.0643761
0.40757
0.0623616
0.280521
0.0592717
0.193238
0.134644
0.0559199
-0.118577
107.103
-0.098644
81.0904
-0.0833805
61.4366
-0.0718798
46.5022
-0.0633204
35.1823
-0.0569317
26.5835
-0.0518912
20.0699
-0.0473589
15.1519
-0.0425233
11.46
-0.0368013
8.69776
-0.0299899
6.63895
-0.02216
5.09423
-0.0136593
3.86941
-0.000617704
2.92675
0.0151833
2.16674
0.0332693
1.61069
0.0488116
1.16412
0.0603694
0.831163
0.0660936
0.583948
0.067063
0.406602
0.0652474
0.282347
0.0622753
0.196209
0.137889
0.0590321
-0.124506
107.076
-0.103576
81.0695
-0.087549
61.4206
-0.075474
46.4901
-0.066494
35.1733
-0.0598047
26.5768
-0.0545456
20.0646
-0.0498343
15.1472
-0.0448077
11.455
-0.0388327
8.69178
-0.0317122
6.63183
-0.0235857
5.08611
-0.0149046
3.86073
-0.0011319
2.91298
0.0154913
2.15012
0.0343485
1.59185
0.0503643
1.14811
0.0623523
0.819184
0.0684911
0.577814
0.0698301
0.405275
0.0682595
0.283916
0.065423
0.199052
0.141025
0.0622891
-0.130732
107.047
-0.108756
81.0475
-0.0919264
61.4037