/*--------------------------------*- C++ -*----------------------------------*\
  =========                 |
  \\      /  F ield         | OpenFOAM: The Open Source CFD Toolbox
   \\    /   O peration     | Website:  https://openfoam.org
    \\  /    A nd           | Version:  7
     \\/     M anipulation  |
\*---------------------------------------------------------------------------*/
FoamFile
{
    version     2.0;
    format      ascii;
    class       volVectorField;
    location    "100";
    object      U;
}
// * * * * * * * * * * * * * * * * * * * * * * * * * * * * * * * * * * * * * //

dimensions      [0 1 -1 0 0 0 0];

internalField   nonuniform List<vector> 
12842
(
(14.8542 4.83215 -2.78401e-18)
(14.8473 4.83808 -1.69153e-18)
(14.8406 4.84322 -4.68385e-19)
(14.8295 4.84979 1.22396e-18)
(14.8147 4.85931 -4.41941e-18)
(14.7963 4.87417 0)
(14.7734 4.89739 0)
(14.7444 4.93259 -3.08349e-19)
(14.7072 4.98381 1.82059e-18)
(14.6585 5.05502 -2.4993e-20)
(14.5947 5.14949 3.37296e-19)
(14.5124 5.26936 -7.77934e-20)
(14.4087 5.41517 2.04125e-19)
(14.2823 5.58597 6.47695e-20)
(14.1338 5.77919 -7.18237e-20)
(13.966 5.99053 -1.5809e-19)
(13.7835 6.21407 -1.36966e-19)
(13.5922 6.44252 0)
(13.3991 6.66781 1.06818e-20)
(13.2111 6.88227 7.30911e-20)
(13.0341 7.07889 1.46571e-20)
(12.8732 7.25441 -4.96915e-20)
(12.7322 7.40305 4.12614e-20)
(14.8539 4.83402 2.34881e-18)
(14.8473 4.84323 0)
(14.8419 4.85004 -4.83101e-18)
(14.8324 4.85821 2.48196e-18)
(14.8201 4.86941 3.5206e-18)
(14.8057 4.88608 0)
(14.7893 4.91154 -3.08455e-18)
(14.7697 4.94993 0)
(14.745 5.00598 -2.13862e-18)
(14.712 5.08429 -2.14136e-19)
(14.6665 5.18854 -6.97602e-19)
(14.6039 5.32078 -5.92516e-20)
(14.5202 5.48103 -2.01348e-19)
(14.4131 5.6674 -3.51858e-20)
(14.2825 5.87624 0)
(14.1304 6.10229 1.72897e-19)
(13.961 6.3388 1.79618e-19)
(13.78 6.57788 -1.13233e-19)
(13.5939 6.81107 0)
(13.4097 7.03063 -1.04168e-19)
(13.2338 7.22954 -9.10915e-20)
(13.0715 7.40556 1.18892e-19)
(12.9295 7.55053 -1.0284e-19)
(14.854 4.83624 0)
(14.8484 4.84787 0)
(14.844 4.85576 6.46087e-20)
(14.8356 4.86494 -1.44278e-17)
(14.8252 4.87707 0)
(14.8143 4.89447 0)
(14.8035 4.92067 2.48541e-19)
(14.7924 4.96038 1.54429e-18)
(14.7796 5.01914 8.57802e-19)
(14.7617 5.10238 2.36913e-19)
(14.7337 5.21438 -3.26924e-19)
(14.6899 5.35724 5.90817e-20)
(14.6251 5.53048 -6.35797e-20)
(14.536 5.73126 1.17808e-19)
(14.4219 5.95484 0)
(14.2848 6.19498 2.34392e-20)
(14.1287 6.4442 -3.01647e-20)
(13.9589 6.69412 5.46604e-20)
(13.7819 6.93592 -7.66153e-20)
(13.6044 7.16176 3.4493e-20)
(13.4333 7.36448 6.26504e-20)
(13.2735 7.54292 0)
(13.1341 7.68588 3.19625e-20)
(14.8544 4.83882 5.63395e-19)
(14.8503 4.85192 -2.06217e-18)
(14.8464 4.86058 6.58198e-18)
(14.8388 4.87043 2.05482e-17)
(14.83 4.88303 -1.66248e-18)
(14.8219 4.9004 3.95834e-18)
(14.816 4.92627 9.09046e-19)
(14.8128 4.96585 -1.54692e-18)
(14.8114 5.02559 -6.30594e-19)
(14.8082 5.11193 -3.88628e-19)
(14.7975 5.2299 1.05099e-18)
(14.772 5.38178 -2.05099e-19)
(14.7253 5.5666 2.6739e-19)
(14.6534 5.78054 1.14646e-18)
(14.5551 6.01773 -1.48692e-19)
(14.4326 6.27097 1.92232e-19)
(14.2901 6.53217 5.52674e-20)
(14.1328 6.7926 1.90768e-19)
(13.9668 7.04316 -4.381e-20)
(13.7985 7.27603 1.58504e-19)
(13.6351 7.48367 2.19112e-20)
(13.4806 7.66609 4.29366e-20)
(13.3466 7.80868 -3.63351e-20)
(14.8554 4.84163 4.63424e-18)
(14.8525 4.85529 0)
(14.8491 4.86461 -8.75261e-19)
(14.8421 4.87496 -7.27079e-18)
(14.8345 4.88777 -8.19534e-19)
(14.8286 4.90463 -1.00825e-17)
(14.827 4.92933 1.48006e-19)
(14.8311 4.96753 2.0607e-18)
(14.8406 5.02664 6.73391e-19)
(14.8519 5.11426 2.35977e-19)
(14.8582 5.23645 -1.84653e-18)
(14.8509 5.39577 -1.90992e-18)
(14.8221 5.59084 4.25819e-19)
(14.7669 5.81682 -2.73414e-18)
(14.6842 6.06655 -1.08899e-18)
(14.5764 6.33186 7.20352e-19)
(14.448 6.60411 0)
(14.3044 6.87441 -1.96174e-19)
(14.1511 7.13354 0)
(13.9941 7.37378 1.08955e-19)
(13.8406 7.58715 9.89872e-20)
(13.6937 7.77483 -7.16836e-20)
(13.5669 7.91847 -3.11788e-20)
(14.8566 4.84448 -4.58236e-18)
(14.8547 4.85797 0)
(14.8519 4.86788 0)
(14.8452 4.87862 -9.82714e-18)
(14.8385 4.8915 6.08076e-18)
(14.8342 4.90748 5.57299e-18)
(14.8361 4.9303 5.12329e-18)
(14.8468 4.96592 -2.35485e-18)
(14.8669 5.02279 0)
(14.8924 5.10981 1.27544e-18)
(14.9157 5.23425 1.95896e-18)
(14.9265 5.39921 1.00006e-18)
(14.9155 5.603 0)
(14.8769 5.83977 1.58266e-18)
(14.8096 6.10094 9.27462e-19)
(14.7167 6.37723 -5.15618e-19)
(14.6033 6.65954 -1.38553e-19)
(14.4746 6.93899 1.00225e-18)
(14.3359 7.20639 0)
(14.1921 7.45429 -4.13449e-19)
(14.0505 7.67408 1.70956e-19)
(13.9129 7.86828 4.90002e-19)
(13.7951 8.01425 -1.22341e-19)
(14.8581 4.84722 4.01077e-19)
(14.8568 4.86002 0)
(14.8549 4.87047 0)
(14.8483 4.88158 9.83712e-18)
(14.8423 4.89455 -6.91776e-18)
(14.8391 4.90955 4.91166e-19)
(14.8437 4.93009 -3.03316e-18)
(14.8599 4.96226 -1.64698e-21)
(14.8892 5.01545 2.16349e-21)
(14.928 5.10001 -1.51108e-18)
(14.9678 5.22477 -3.16259e-19)
(14.9968 5.39364 2.43543e-18)
(15.0043 5.60481 0)
(14.9831 5.85138 -2.28684e-18)
(14.932 6.12316 1.88194e-19)
(14.8545 6.40953 -2.4417e-19)
(14.7566 6.70084 7.38244e-19)
(14.6436 6.98843 -5.85292e-19)
(14.5203 7.26334 -8.44934e-19)
(14.3911 7.51865 -2.06033e-19)
(14.2628 7.74501 4.1858e-20)
(14.136 7.94657 -3.2201e-19)
(14.0286 8.0957 -2.21613e-19)
(14.8598 4.84966 0)
(14.8586 4.86144 5.94011e-19)
(14.8577 4.87245 -6.84244e-18)
(14.8508 4.88386 6.18544e-20)
(14.8451 4.89674 6.68388e-18)
(14.8424 4.91039 -8.12299e-19)
(14.8495 4.92795 2.28074e-19)
(14.8711 4.95552 6.76578e-19)
(14.9098 5.00347 0)
(14.9618 5.08362 -2.52464e-18)
(15.0176 5.20657 2.49447e-19)
(15.0635 5.3771 2.70708e-19)
(15.0876 5.59342 0)
(15.0823 5.84775 2.26316e-18)
(15.0465 6.12819 -1.75426e-18)
(14.985 6.4228 0)
(14.9042 6.72151 -7.35446e-19)
(14.8093 7.01615 0)
(14.7045 7.29813 7.03956e-19)
(14.5928 7.56128 0)
(14.4806 7.79508 -3.64961e-19)
(14.3671 8.00587 2.22062e-19)
(14.2717 8.15935 3.29035e-19)
(14.8611 4.85218 0)
(14.8604 4.86261 0)
(14.8608 4.87374 7.42407e-20)
(14.8538 4.88559 3.3801e-19)
(14.8481 4.89906 -7.76546e-18)
(14.8444 4.91266 -4.78436e-18)
(14.8508 4.92884 0)
(14.8735 4.95317 -5.75488e-19)
(14.917 4.99637 0)
(14.9787 5.07139 5.23708e-18)
(15.0492 5.19071 2.77229e-18)
(15.1132 5.36072 -2.19742e-18)
(15.1562 5.58054 -2.22111e-19)
(15.1681 5.842 0)
(15.1464 6.13147 1.84036e-18)
(15.0964 6.43499 1.36329e-18)
(15.0262 6.74115 -1.23594e-19)
(14.9429 7.04179 9.46432e-19)
(14.8508 7.32851 8.85024e-19)
(14.7526 7.59652 0)
(14.6541 7.83404 2.37331e-19)
(14.5525 8.05121 2.66721e-20)
(14.4683 8.20696 -1.89054e-19)
(14.8626 4.85447 -2.69113e-20)
(14.8619 4.8635 -7.91018e-18)
(14.8634 4.87476 6.2328e-18)
(14.8559 4.88706 0)
(14.8501 4.90073 -1.16301e-19)
(14.8457 4.91383 -5.21714e-20)
(14.8523 4.92829 2.56272e-18)
(14.8767 4.94957 0)
(14.9247 4.98886 0)
(14.9942 5.06009 -2.71715e-18)
(15.0754 5.17706 -2.93878e-18)
(15.1518 5.3471 -9.1197e-20)
(15.2075 5.56962 2.33832e-18)
(15.2313 5.83603 -8.07092e-20)
(15.2201 6.13131 -2.54548e-19)
(15.1802 6.44013 2.53046e-19)
(15.1207 6.75035 -9.09863e-19)
(15.0494 7.0542 -8.79257e-19)
(14.9706 7.34354 -1.01068e-18)
(14.8863 7.61495 -7.89322e-19)
(14.8019 7.85515 2.71501e-19)
(14.7122 8.07777 -1.2446e-18)
(14.6407 8.23572 2.32751e-19)
(14.864 4.85638 -7.26646e-18)
(14.8632 4.86416 8.9019e-18)
(14.8658 4.87557 -1.94329e-19)
(14.8579 4.8885 -5.49228e-18)
(14.852 4.90243 2.31871e-19)
(14.8469 4.91507 4.93188e-18)
(14.8534 4.92771 -4.76647e-18)
(14.8793 4.94574 -5.51202e-21)
(14.9315 4.98084 -2.85624e-20)
(15.0083 5.04804 -3.29049e-18)
(15.0999 5.16257 1.2246e-19)
(15.1883 5.33272 -3.08483e-18)
(15.2566 5.55806 -2.09937e-18)
(15.2925 5.82947 0)
(15.2924 6.13033 2.12572e-18)
(15.2629 6.44376 -2.92492e-18)
(15.2147 6.7569 -2.13386e-19)
(15.1563 7.06254 9.09209e-19)
(15.092 7.35293 -1.58758e-20)
(15.023 7.62636 1.0035e-18)
(14.9546 7.86793 0)
(14.8789 8.09505 3.86972e-19)
(14.8224 8.25419 0)
(14.8652 4.8578 1.2663e-17)
(14.8645 4.86462 8.54336e-18)
(14.8681 4.87616 -3.09259e-19)
(14.8598 4.88988 1.08837e-17)
(14.8538 4.90417 -4.05912e-18)
(14.8479 4.9165 1.59093e-19)
(14.8544 4.9274 2.39382e-18)
(14.8816 4.94217 1.35826e-20)
(14.9376 4.97294 -8.0362e-20)
(15.0214 5.03585 3.39487e-18)
(15.123 5.14761 0)
(15.2233 5.31757 2.84077e-18)
(15.3042 5.54549 2.09907e-19)
(15.3524 5.82175 -9.82257e-20)
(15.3635 6.12797 -2.21266e-18)
(15.3449 6.44556 2.08233e-20)
(15.3083 6.76073 8.36991e-19)
(15.2632 7.06694 -1.5231e-18)
(15.2142 7.35679 0)
(15.1619 7.63069 -7.28208e-19)
(15.1112 7.87183 1.00954e-18)
(15.0513 8.10228 0)
(15.0117 8.26094 -6.54493e-19)
(14.8662 4.85892 -4.72498e-18)
(14.8658 4.8649 -1.09027e-19)
(14.8702 4.87657 -3.0799e-19)
(14.8616 4.8912 -5.25495e-18)
(14.8554 4.90589 8.01851e-18)
(14.8488 4.91805 -4.79155e-20)
(14.855 4.92729 -4.30511e-20)
(14.8833 4.93884 -1.02369e-19)
(14.9429 4.96519 -2.14847e-20)
(15.0333 5.02356 0)
(15.1446 5.1322 3.8857e-18)
(15.2568 5.30154 9.14346e-20)
(15.3504 5.53164 7.95207e-20)
(15.4113 5.8125 7.72054e-21)
(15.4339 6.1239 -2.252e-19)
(15.4263 6.44531 1.65445e-18)
(15.4015 6.76182 -9.67897e-19)
(15.3701 7.0675 -1.51147e-19)
(15.3371 7.35525 -3.51404e-19)
(15.3023 7.62791 9.96486e-19)
(15.2706 7.86654 -7.44131e-19)
(15.2284 8.09866 1.60167e-18)
(15.2071 8.25492 -1.09339e-18)
(14.8673 4.85908 -4.8171e-18)
(14.867 4.86503 -8.21603e-18)
(14.8721 4.87684 -3.49149e-20)
(14.8634 4.89246 -5.54487e-18)
(14.8569 4.90763 -8.07126e-18)
(14.8494 4.91974 4.85812e-20)
(14.8553 4.92744 4.27123e-20)
(14.8844 4.93576 9.78815e-20)
(14.9474 4.95756 -1.45366e-18)
(15.0442 5.01109 2.13379e-18)
(15.1651 5.11622 -4.10921e-18)
(15.289 5.28453 -3.4263e-18)
(15.3956 5.51644 2.63682e-18)
(15.4695 5.80166 0)
(15.504 6.1181 1.31151e-18)
(15.5075 6.44302 0)
(15.4945 6.76007 1.30239e-18)
(15.4769 7.06386 8.40239e-19)
(15.4603 7.34744 -2.41265e-20)
(15.4438 7.61655 -1.15408e-18)
(15.4324 7.84901 -3.98167e-20)
(15.4087 8.08089 9.34611e-22)
(15.4084 8.23036 -4.66909e-19)
(14.8684 4.85872 -1.82381e-20)
(14.8682 4.86502 -6.99178e-20)
(14.8738 4.87699 3.34244e-20)
(14.8651 4.89365 5.53602e-18)
(14.8583 4.90938 4.01475e-18)
(14.85 4.92159 0)
(14.8553 4.92787 -7.06836e-21)
(14.885 4.93304 3.02928e-20)
(14.951 4.95019 -1.21889e-19)
(15.0538 4.99856 -2.13112e-18)
(15.1843 5.09965 2.28166e-18)
(15.3201 5.26636 5.37691e-18)
(15.4402 5.49961 -2.54773e-18)
(15.5277 5.78897 1.86053e-18)
(15.5746 6.11041 1.60356e-19)
(15.5894 6.43875 1.21157e-20)
(15.5881 6.75589 -7.26799e-20)
(15.5841 7.0568 -2.66396e-19)
(15.5838 7.33484 1.86098e-19)
(15.5853 7.59846 -3.441e-19)
(15.5939 7.82383 -3.0928e-20)
(15.589 8.05181 3.13548e-19)
(15.6082 8.19792 0)
(14.8695 4.85811 4.17275e-20)
(14.8694 4.8649 0)
(14.8755 4.87707 0)
(14.8667 4.89479 5.5585e-18)
(14.8596 4.91116 4.12086e-18)
(14.8505 4.92355 -2.62067e-18)
(14.8552 4.9285 -2.12279e-20)
(14.8852 4.93054 -1.16888e-20)
(14.9539 4.94294 1.58669e-18)
(15.0625 4.98585 -4.65771e-20)
(15.2024 5.08243 1.77124e-19)
(15.3503 5.24698 -1.84989e-18)
(15.4842 5.48102 0)
(15.5862 5.77424 -1.96498e-18)
(15.646 6.1007 -2.81818e-18)
(15.6724 6.43247 -1.08982e-18)
(15.6825 6.7493 -6.57001e-19)
(15.6916 7.04613 0)
(15.7072 7.31712 0)
(15.7265 7.57234 5.81858e-19)
(15.7546 7.78941 4.35978e-19)
(15.7691 8.00703 -8.88181e-19)
(15.8069 8.15155 0)
(14.8705 4.85733 4.91754e-18)
(14.8705 4.86468 -3.45435e-20)
(14.877 4.8771 1.56322e-20)
(14.8683 4.89588 -5.52624e-18)
(14.8609 4.91295 -8.23382e-18)
(14.8509 4.92562 5.21488e-18)
(14.8548 4.92933 2.13838e-20)
(14.885 4.92823 -1.26153e-20)
(14.9561 4.93574 1.6601e-20)
(15.0702 4.97284 0)
(15.2194 5.06442 -2.33376e-18)
(15.3797 5.22621 2.04212e-18)
(15.5282 5.46053 0)
(15.6454 5.75735 0)
(15.7189 6.08894 1.34022e-18)
(15.757 6.42416 7.43398e-20)
(15.7781 6.74025 7.34221e-19)
(15.7996 7.03155 5.65948e-19)
(15.8302 7.29355 -8.39707e-19)
(15.8668 7.5369 -3.25083e-19)
(15.9131 7.74337 1.30796e-18)
(15.9477 7.94471 -1.23873e-18)
(16.0023 8.0869 8.16033e-19)
(14.8714 4.85639 -2.42509e-18)
(14.8716 4.86438 -3.5625e-18)
(14.8784 4.87708 -3.03316e-20)
(14.8698 4.89692 4.00663e-20)
(14.8622 4.91477 4.16317e-18)
(14.8512 4.92779 -2.65845e-18)
(14.8542 4.93035 2.89362e-21)
(14.8844 4.92612 -1.72263e-20)
(14.9576 4.92858 1.76406e-20)
(15.077 4.95948 2.56239e-20)
(15.2355 5.04548 -3.34614e-20)
(15.4085 5.20387 -2.03956e-18)
(15.572 5.43784 1.65649e-18)
(15.7056 5.73802 -6.71183e-20)
(15.7936 6.07489 0)
(15.8435 6.41378 -1.21717e-19)
(15.875 6.72875 9.28891e-20)
(15.9076 7.013 -5.5661e-19)
(15.9519 7.26368 1.01942e-18)
(16.0045 7.49156 6.1808e-19)
(16.067 7.68405 -4.17469e-19)
(16.121 7.86507 -6.45056e-19)
(16.19 8.00155 8.03995e-19)
(14.8723 4.85535 3.11514e-20)
(14.8726 4.86401 3.59859e-18)
(14.8798 4.87702 0)
(14.8713 4.89792 0)
(14.8634 4.91661 0)
(14.8515 4.93008 0)
(14.8535 4.93155 -2.8429e-21)
(14.8833 4.92418 1.07858e-20)
(14.9584 4.9214 -9.25393e-21)
(15.0828 4.94568 2.6738e-20)
(15.2507 5.02544 -3.48858e-20)
(15.4366 5.17969 0)
(15.6161 5.41264 -3.28307e-18)
(15.7671 5.71587 7.58416e-20)
(15.8706 6.05827 -1.50931e-19)
(15.9324 6.40121 1.23641e-18)
(15.9732 6.7149 -9.54413e-20)
(16.0151 6.99061 1.5528e-19)
(16.0708 7.2274 -1.90494e-19)
(16.1371 7.4364 3.07819e-19)
(16.2134 7.61099 -4.37901e-19)
(16.2848 7.76892 0)
(16.3646 7.8937 4.23284e-19)
(14.8731 4.85421 4.68785e-18)
(14.8736 4.86358 1.73485e-18)
(14.8811 4.87691 2.31073e-20)
(14.8729 4.89887 -2.9042e-18)
(14.8647 4.91847 -2.16242e-18)
(14.8519 4.93246 -8.54458e-21)
(14.8527 4.93294 1.20348e-18)
(14.882 4.92243 1.43894e-19)
(14.9585 4.91422 9.89912e-19)
(15.0875 4.93139 0)
(15.2647 5.00421 4.97796e-20)
(15.464 5.1535 -2.39977e-18)
(15.6602 5.38459 1.73503e-18)
(15.8301 5.69048 1.18089e-18)
(15.9503 6.03876 8.6229e-19)
(16.0241 6.38642 0)
(16.0728 6.69896 0)
(16.1213 6.96491 -5.79686e-19)
(16.185 7.18516 -6.41428e-19)
(16.2616 7.37157 3.10125e-19)
(16.3482 7.52334 2.30903e-19)
(16.433 7.65593 2.9295e-19)
(16.519 7.76379 -4.07797e-19)
(14.8739 4.85306 -2.32573e-18)
(14.8744 4.86313 -1.74463e-18)
(14.8823 4.87682 1.57212e-20)
(14.8743 4.89983 -3.94914e-20)
(14.8658 4.92037 2.16819e-18)
(14.852 4.93494 1.41749e-18)
(14.8515 4.93445 -5.69058e-19)
(14.8802 4.9207 -1.36916e-19)
(14.9579 4.90677 -9.75631e-19)
(15.0916 4.91631 -3.4014e-20)
(15.2782 4.98142 0)
(15.4912 5.12484 2.33388e-18)
(15.7049 5.35311 1.83384e-18)
(15.895 5.66121 -1.24915e-18)
(16.0331 6.01587 -7.43877e-19)
(16.119 6.36937 -2.98878e-19)
(16.1735 6.68151 -2.11144e-19)
(16.2249 6.93692 1.14291e-18)
(16.2919 7.13762 0)
(16.3737 7.29741 0)
(16.467 7.42318 2.1635e-19)
(16.5618 7.53119 -5.5294e-19)
(16.6516 7.61989 -3.87599e-19)
(14.8746 4.85175 2.18008e-18)
(14.8754 4.86251 0)
(14.8836 4.87652 0)
(14.8761 4.90059 5.89406e-18)
(14.8675 4.9222 -2.21665e-18)
(14.8528 4.9376 -1.45259e-18)
(14.8507 4.93648 2.02922e-20)
(14.8781 4.91978 5.60329e-20)
(14.9563 4.90011 2.33456e-20)
(15.0937 4.90136 -1.45891e-18)
(15.2894 4.95751 5.38166e-20)
(15.5167 5.09367 -6.97189e-20)
(15.7493 5.31778 -1.82996e-18)
(15.9618 5.62738 1.36246e-18)
(16.1198 5.989 8.6815e-19)
(16.2183 6.35007 -6.1612e-19)
(16.2763 6.66347 5.03518e-19)
(16.3252 6.9082 -5.6336e-19)
(16.3882 7.08722 0)
(16.4695 7.21852 0)
(16.5672 7.31585 -1.98794e-19)
(16.6683 7.3946 1.30443e-19)
(16.7565 7.4553 -3.64199e-19)
(14.8757 4.85088 -7.82635e-20)
(14.8759 4.86239 1.77565e-18)
(14.8843 4.87691 0)
(14.8768 4.90191 -1.47014e-18)
(14.8674 4.92421 4.5172e-18)
(14.8516 4.93961 -9.28049e-21)
(14.8487 4.9367 3.81965e-20)
(14.8763 4.91592 -7.14598e-20)
(14.9563 4.88962 1.00822e-20)
(15.0984 4.8822 1.47367e-18)
(15.304 4.9298 -3.96721e-20)
(15.5457 5.05912 -1.26604e-18)
(15.7962 5.27853 -1.21418e-19)
(16.0314 5.58903 -1.27288e-18)
(16.2097 5.95826 -9.78469e-19)
(16.3203 6.3289 6.041e-20)
(16.3791 6.64615 0)
(16.4199 6.88251 -7.16503e-20)
(16.4727 7.04049 9.06597e-20)
(16.5473 7.13855 0)
(16.6398 7.19443 1.76544e-19)
(16.7335 7.23197 -1.26739e-19)
(16.8152 7.26257 0)
(14.8758 4.84859 -2.11409e-18)
(14.877 4.86062 -1.77896e-18)
(14.886 4.87512 0)
(14.879 4.90158 -1.49434e-18)
(14.8699 4.92609 -4.59224e-18)
(14.8529 4.94481 -1.52854e-18)
(14.8474 4.94466 -1.34395e-18)
(14.8718 4.92363 0)
(14.9504 4.89233 1.0723e-18)
(15.095 4.87547 -1.49719e-18)
(15.3085 4.91049 1.55323e-18)
(15.565 5.02665 1.3156e-18)
(15.8372 5.23618 -1.66755e-20)
(16.0999 5.54476 2.14278e-20)
(16.3043 5.92171 -9.81442e-19)
(16.4306 6.30594 6.14297e-19)
(16.4883 6.6339 0)
(16.5128 6.86715 2.49024e-19)
(16.5404 6.99949 0)
(16.5874 7.04867 0)
(16.6584 7.05225 -1.70088e-19)
(16.748 7.05595 -3.37805e-19)
(16.8415 7.06997 2.79282e-19)
(14.8765 4.84722 0)
(14.8774 4.85978 7.15555e-23)
(14.8867 4.87452 -2.21835e-22)
(14.8798 4.90173 1.52292e-18)
(14.8704 4.92729 1.13889e-18)
(14.8528 4.94736 1.52969e-18)
(14.8463 4.94808 6.81168e-19)
(14.8697 4.92641 -4.87804e-22)
(14.9482 4.89189 -5.23674e-19)
(15.0948 4.86842 -3.23253e-20)
(15.3149 4.89392 4.43459e-20)
(15.5837 4.99951 0)
(15.8742 5.19938 1.72481e-20)
(16.1628 5.50388 -2.21206e-20)
(16.3942 5.88626 1.44917e-18)
(16.5392 6.28443 3.93626e-20)
(16.5977 6.62737 0)
(16.5997 6.8614 4.36343e-20)
(16.5845 6.96864 -7.61743e-20)
(16.5893 6.97897 0)
(16.643 6.95093 0)
(16.732 6.91938 1.8952e-19)
(16.8148 6.87986 -1.37901e-19)
(14.8771 4.84594 -1.98257e-18)
(14.8779 4.85906 -1.83763e-18)
(14.8872 4.87409 0)
(14.8805 4.90203 -1.52559e-18)
(14.8709 4.92861 1.17723e-18)
(14.8527 4.94988 1.58207e-18)
(14.8451 4.95124 -7.02254e-19)
(14.8676 4.9287 -6.85603e-20)
(14.9459 4.89076 -5.50664e-19)
(15.0945 4.86049 2.32134e-18)
(15.321 4.87633 -1.60152e-18)
(15.602 4.97117 -1.44006e-18)
(15.9112 5.16052 -1.09923e-18)
(16.2272 5.45975 0)
(16.4883 5.84751 -5.01958e-19)
(16.6547 6.26246 6.42176e-19)
(16.7127 6.62625 2.22538e-20)
(16.683 6.87124 -2.5459e-19)
(16.6155 6.97743 0)
(16.576 6.97876 0)
(16.5858 6.90958 0)
(16.6 6.78676 -2.31919e-19)
(16.5944 6.64116 2.14575e-19)
(14.8774 4.84468 1.98674e-18)
(14.8783 4.85838 -1.98631e-20)
(14.8878 4.87371 0)
(14.8812 4.9024 1.5609e-18)
(14.8715 4.93 1.37806e-22)
(14.8528 4.95247 -2.38397e-18)
(14.8443 4.95445 1.40507e-18)
(14.8656 4.931 2.41443e-19)
(14.9437 4.88954 -9.31863e-22)
(15.0941 4.85225 -7.8603e-19)
(15.3266 4.85808 -8.55727e-19)
(15.6196 4.94148 1.44413e-18)
(15.9477 5.11893 1.08591e-18)
(16.2924 5.41123 -8.07971e-19)
(16.586 5.80387 8.06039e-21)
(16.7779 6.23817 -6.46917e-19)
(16.8377 6.63237 0)
(16.7775 6.9134 0)
(16.6569 7.04982 8.20958e-20)
(16.5359 7.03228 0)
(16.4122 6.87644 0)
(16.2903 6.66889 3.49629e-20)
(16.2044 6.48752 5.15381e-20)
(14.8778 4.84343 0)
(14.8787 4.8577 1.86464e-18)
(14.8884 4.87336 -4.50951e-23)
(14.8819 4.90278 1.40562e-20)
(14.8721 4.93141 7.42495e-23)
(14.853 4.9551 1.60413e-18)
(14.8435 4.95774 -7.02599e-19)
(14.8637 4.93342 -1.72747e-19)
(14.9413 4.8884 -6.25187e-19)
(15.0932 4.84391 0)
(15.3314 4.83929 8.52594e-19)
(15.6362 4.91041 2.94622e-21)
(15.9831 5.07433 3.02796e-22)
(16.3577 5.35758 8.02464e-19)
(16.6873 5.75384 0)
(16.9104 6.21042 3.36883e-19)
(16.9808 6.64987 -5.88444e-21)
(16.8976 6.99191 0)
(16.7 7.15688 -8.10295e-20)
(16.4297 7.09865 0)
(16.1561 6.91772 0)
(15.9825 6.76966 0)
(15.876 6.661 -3.04989e-20)
(14.8781 4.84219 0)
(14.8791 4.85704 -9.48881e-19)
(14.889 4.87301 8.30924e-24)
(14.8827 4.90317 -1.58027e-18)
(14.8728 4.93284 -1.2293e-18)
(14.8533 4.95777 -1.61077e-18)
(14.8428 4.96113 0)
(14.8618 4.93597 -1.30268e-19)
(14.9387 4.88739 1.27877e-18)
(15.0918 4.83553 -5.91914e-23)
(15.3353 4.81999 9.01511e-19)
(15.6515 4.87792 -7.94424e-19)
(16.017 5.02649 0)
(16.4228 5.29813 0)
(16.7923 5.69613 5.75506e-19)
(17.0553 6.17832 -3.29361e-19)
(17.1489 6.67533 0)
(17.0413 7.08157 -1.21577e-19)
(16.7369 7.26949 -6.40481e-21)
(16.3343 7.25901 0)
(16.0276 7.23991 -9.85691e-22)
(15.8461 7.22222 -2.31677e-22)
(15.6121 7.1144 1.22911e-20)
(14.8784 4.84096 -9.56992e-24)
(14.8795 4.85638 1.90659e-18)
(14.8896 4.87268 2.46672e-23)
(14.8835 4.90356 0)
(14.8736 4.93428 -4.58178e-21)
(14.8536 4.96049 1.61274e-18)
(14.842 4.9646 2.05422e-22)
(14.8598 4.93867 1.30295e-19)
(14.9359 4.88652 -6.53473e-19)
(15.0898 4.82714 8.80145e-19)
(15.3382 4.8002 2.00583e-20)
(15.6655 4.84402 1.61298e-18)
(16.0493 4.97526 -1.24088e-18)
(16.4874 5.23226 3.25284e-21)
(16.9012 5.62946 -1.17549e-18)
(17.2141 6.13845 3.6422e-19)
(17.3414 6.69327 -9.68603e-21)
(17.2093 7.15889 1.24755e-19)
(16.834 7.43717 5.86855e-21)
(16.4236 7.66426 0)
(16.1124 7.89102 -8.20673e-20)
(15.7226 7.86934 0)
(15.1682 7.60548 5.65372e-20)
(14.8788 4.83974 0)
(14.8799 4.85574 -9.5765e-19)
(14.8902 4.87235 -9.44646e-19)
(14.8843 4.90396 -8.90348e-23)
(14.8744 4.93573 2.47801e-18)
(14.8539 4.96323 -8.07092e-19)
(14.8413 4.96816 0)
(14.8577 4.94153 0)
(14.9329 4.88583 -5.26692e-22)
(15.0873 4.81877 -8.80592e-19)
(15.3401 4.77997 1.76028e-20)
(15.678 4.80872 -8.17279e-19)
(16.0795 4.9205 1.23564e-18)
(16.5508 5.15941 0)
(17.0135 5.55214 5.95635e-19)
(17.3857 6.08374 -3.51012e-19)
(17.5565 6.68695 1.69601e-19)
(17.433 7.23376 8.9635e-21)
(17.1006 7.73608 0)
(16.752 8.30223 0)
(16.2308 8.64415 2.01636e-20)
(15.3699 8.48892 1.63724e-19)
(14.4104 8.06792 -9.1507e-20)
(14.8791 4.83854 0)
(14.8803 4.8551 3.79558e-23)
(14.8908 4.87204 9.46062e-19)
(14.8851 4.90436 -8.13407e-19)
(14.8751 4.93719 -1.24192e-18)
(14.8543 4.96601 -1.98136e-22)
(14.8407 4.97182 -3.25772e-19)
(14.8556 4.94454 9.55013e-20)
(14.9296 4.88531 -7.23391e-19)
(15.0841 4.81043 0)
(15.3409 4.75932 1.54201e-20)
(15.6888 4.77205 -8.60441e-19)
(16.1072 4.86214 0)
(16.6124 5.07908 -1.53735e-20)
(17.1279 5.46178 6.7587e-19)
(17.567 6.00581 0)
(17.8002 6.64916 2.18369e-21)
(17.7611 7.32895 2.12852e-20)
(17.5783 8.14562 -7.1745e-20)
(17.1919 8.95088 0)
(16.2039 9.22309 0)
(14.8074 8.95655 -9.25659e-20)
(13.511 8.51422 4.11461e-19)
(14.8794 4.83735 1.94951e-23)
(14.8807 4.85448 -2.57144e-23)
(14.8914 4.87174 0)
(14.8859 4.90476 -8.20405e-19)
(14.8759 4.93865 5.87178e-22)
(14.8547 4.96882 -3.9623e-22)
(14.84 4.97556 3.26166e-19)
(14.8534 4.9477 -9.55951e-20)
(14.926 4.88498 7.24367e-19)
(15.0803 4.80217 -9.23139e-19)
(15.3404 4.73829 -9.6113e-19)
(15.6976 4.73407 8.68594e-19)
(16.1321 4.80014 6.61723e-19)
(16.6712 4.99074 4.80036e-19)
(17.2422 5.35567 -6.54625e-19)
(17.7555 5.89806 2.58174e-20)
(18.0841 6.57968 -2.0571e-19)
(18.2194 7.43632 -4.26167e-20)
(18.2039 8.53171 3.73345e-20)
(17.5796 9.36875 -9.38969e-20)
(16.0074 9.46983 1.18557e-19)
(14.1981 9.15502 0)
(12.6937 8.74771 -1.66523e-19)
(14.8796 4.83618 0)
(14.8811 4.85386 -9.81313e-19)
(14.892 4.87144 -9.63886e-19)
(14.8867 4.90517 8.16516e-19)
(14.8768 4.94012 -6.24469e-19)
(14.8551 4.97165 0)
(14.8393 4.97939 -4.00409e-23)
(14.8511 4.95103 5.27462e-23)
(14.9221 4.88485 3.79873e-19)
(15.0758 4.79401 1.39549e-18)
(15.3386 4.71694 -9.80694e-19)
(15.7044 4.69485 -6.09373e-21)
(16.1536 4.73454 1.8362e-20)
(16.7261 4.8939 -4.95643e-19)
(17.3539 5.23131 0)
(17.9495 5.75668 4.71272e-19)
(18.4157 6.4756 -2.52178e-19)
(18.7883 7.50633 6.15342e-20)
(18.8618 8.74358 -1.51146e-20)
(17.8156 9.44121 -4.59496e-20)
(15.6757 9.37018 1.13879e-19)
(13.5924 9.0407 -1.06008e-19)
(11.9462 8.65173 -1.96789e-19)
(14.8799 4.83503 -5.02624e-19)
(14.8815 4.85326 -4.33631e-21)
(14.8926 4.87116 9.65249e-19)
(14.8875 4.90557 8.21005e-19)
(14.8776 4.94159 1.25034e-18)
(14.8555 4.97452 7.98199e-19)
(14.8387 4.98331 3.30112e-23)
(14.8487 4.95453 -4.34881e-23)
(14.9179 4.88493 -3.80373e-19)
(15.0707 4.78597 -4.69307e-19)
(15.3355 4.69531 1.98514e-18)
(15.709 4.65449 -9.25546e-19)
(16.1713 4.66542 -6.90462e-19)
(16.7758 4.7882 5.34862e-19)
(17.4602 5.08704 -2.43954e-20)
(18.1472 5.57981 -4.09306e-19)
(18.7895 6.32566 2.40735e-19)
(19.4128 7.47223 -1.76007e-19)
(19.4482 8.69321 2.37567e-20)
(17.8702 9.17376 0)
(15.2399 8.97933 -1.36432e-19)
(12.9646 8.64266 2.06834e-19)
(11.1955 8.24826 -3.33607e-19)
(14.8801 4.83389 5.03244e-19)
(14.8818 4.85267 1.48441e-18)
(14.8931 4.87089 9.73492e-19)
(14.8883 4.90598 -8.24609e-19)
(14.8785 4.94306 -6.25828e-19)
(14.856 4.97741 -7.99193e-19)
(14.8381 4.98731 -3.11648e-19)
(14.8463 4.95819 0)
(14.9135 4.88524 3.96165e-19)
(15.0649 4.7781 -4.79694e-19)
(15.3311 4.67346 -9.99775e-19)
(15.7113 4.61311 9.26588e-19)
(16.1848 4.59297 0)
(16.8188 4.67349 -4.97124e-19)
(17.5581 4.92221 3.7053e-19)
(18.3446 5.36611 -2.90382e-19)
(19.1862 6.11212 7.18514e-20)
(20.0274 7.28053 4.37797e-20)
(19.9026 8.36443 -8.22549e-20)
(17.7637 8.63059 1.31852e-20)
(14.7319 8.37698 0)
(12.2926 8.0387 3.60243e-19)
(10.406 7.62503 -4.54328e-19)
(14.8803 4.83278 0)
(14.8822 4.8521 -4.96731e-19)
(14.8937 4.87063 -9.7443e-19)
(14.8891 4.90639 8.25597e-19)
(14.8794 4.94454 1.03794e-23)
(14.8566 4.98033 -3.95149e-22)
(14.8375 4.9914 1.57015e-19)
(14.8438 4.96203 0)
(14.9089 4.8858 -3.96672e-19)
(15.0585 4.77043 -4.81196e-21)
(15.3253 4.65147 0)
(15.7111 4.57088 -4.8554e-19)
(16.1935 4.51742 0)
(16.8535 4.54992 3.99496e-20)
(17.6446 4.73717 -8.54083e-19)
(18.5344 5.11425 2.17494e-19)
(19.5771 5.81735 9.36485e-20)
(20.5751 6.90613 -3.63945e-19)
(20.2083 7.7842 7.28916e-20)
(17.5434 7.88088 3.40525e-20)
(14.1852 7.62592 -7.11507e-20)
(11.5801 7.29934 -8.2853e-20)
(9.58041 6.86934 4.05025e-19)
(14.8805 4.83169 4.99939e-19)
(14.8826 4.85154 -5.01375e-19)
(14.8943 4.87038 4.90243e-19)
(14.89 4.9068 4.03137e-22)
(14.8803 4.94602 -5.8908e-22)
(14.8572 4.98327 6.91274e-22)
(14.837 4.99558 1.5437e-19)
(14.8413 4.96604 7.84426e-22)
(14.904 4.88661 -1.05879e-21)
(15.0514 4.76299 -4.90007e-21)
(15.318 4.62941 -5.17169e-19)
(15.7082 4.52796 4.69013e-19)
(16.1968 4.4391 2.19695e-20)
(16.8786 4.41801 -4.22363e-20)
(17.7166 4.53305 4.98556e-19)
(18.7067 4.82285 0)
(19.9307 5.4289 2.5278e-19)
(21.0159 6.35009 2.52963e-19)
(20.373 6.99281 -1.49935e-19)
(17.26 6.97252 3.62913e-19)
(13.6401 6.76434 -1.99055e-19)
(10.8556 6.49219 3.6337e-20)
(8.71837 6.07556 5.59065e-20)
(14.8808 4.83063 -9.98666e-19)
(14.8829 4.851 5.01975e-19)
(14.8948 4.87014 1.3441e-21)
(14.8908 4.90721 0)
(14.8812 4.9475 0)
(14.8578 4.98623 3.98223e-19)
(14.8365 4.99984 1.53259e-19)
(14.8387 4.97023 0)
(14.8988 4.88769 -2.38962e-21)
(15.0436 4.75583 4.94561e-19)
(15.3093 4.60735 5.28433e-19)
(15.7026 4.48455 -1.34646e-20)
(16.1944 4.35842 -2.77311e-20)
(16.8924 4.27864 7.94535e-20)
(17.7703 4.31152 -5.53337e-20)
(18.85 4.4916 0)
(20.2176 4.94566 -3.99761e-19)
(21.323 5.63188 1.47309e-20)
(20.4098 6.03206 -7.78222e-19)
(16.9457 5.93849 3.41029e-19)
(13.1211 5.81494 3.67825e-19)
(10.1481 5.64514 -6.2511e-19)
(7.83645 5.2888 0)
(14.8809 4.82959 9.95442e-19)
(14.8833 4.85047 -5.27343e-23)
(14.8954 4.86992 -4.92807e-19)
(14.8917 4.90763 0)
(14.8822 4.94897 0)
(14.8584 4.98922 -1.77324e-22)
(14.836 5.00418 -3.05822e-19)
(14.8361 4.97459 0)
(14.8934 4.88905 2.1423e-19)
(15.0352 4.74896 0)
(15.299 4.58539 0)
(15.694 4.44085 -1.80807e-20)
(16.1858 4.2759 2.3102e-20)
(16.8939 4.13302 2.72089e-19)
(17.802 4.07475 5.82178e-20)
(18.9524 4.12265 -1.20164e-19)
(20.4147 4.37796 4.41637e-19)
(21.484 4.78395 0)
(20.3341 4.94704 3.02413e-19)
(16.6235 4.80887 0)
(12.6466 4.7895 1.98523e-19)
(9.4898 4.76163 2.17556e-19)
(6.95298 4.52446 0)
(14.8811 4.82857 -7.45033e-19)
(14.8837 4.84996 2.55215e-19)
(14.8959 4.86971 0)
(14.8925 4.90804 -4.18457e-19)
(14.8831 4.95045 3.16509e-19)
(14.8591 4.99222 -3.99062e-19)
(14.8355 5.0086 1.52946e-19)
(14.8334 4.97914 -7.28196e-20)
(14.8877 4.89071 -2.13354e-19)
(15.0261 4.74245 -5.35722e-21)
(15.2871 4.56359 6.9345e-21)
(15.6824 4.3971 5.32326e-19)
(16.1706 4.19215 2.93654e-20)
(16.8818 3.9826 -4.06146e-19)
(17.8081 3.82542 6.09995e-20)
(19.0042 3.72251 0)
(20.5068 3.74434 0)
(21.4952 3.84704 0)
(20.1621 3.78714 0)
(16.3215 3.62366 -1.84212e-19)
(12.2556 3.71811 -1.03963e-18)
(8.97817 3.85182 1.25786e-18)
(6.23993 3.7707 0)
(14.8813 4.82759 2.48078e-19)
(14.884 4.84947 -5.123e-19)
(14.8965 4.86952 0)
(14.8933 4.90846 4.19033e-19)
(14.8841 4.95192 -6.35077e-19)
(14.8599 4.99523 0)
(14.8351 5.01309 0)
(14.8307 4.98387 7.20319e-20)
(14.8818 4.89267 0)
(15.0163 4.73631 -2.52255e-19)
(15.2737 4.54206 -2.75427e-19)
(15.6677 4.35354 -2.61438e-19)
(16.1486 4.10788 4.23439e-19)
(16.8553 3.82901 0)
(17.7852 3.56707 0)
(18.9983 3.29958 1.49201e-19)
(20.4871 3.06803 -1.82664e-19)
(21.3635 2.86722 0)
(19.9129 2.59911 -2.87813e-19)
(16.0641 2.40516 1.97407e-19)
(11.9909 2.58491 1.36627e-18)
(8.65999 2.85507 -2.04993e-18)
(5.79686 2.9157 0)
(14.8815 4.82663 -4.04353e-23)
(14.8844 4.84899 5.15667e-19)
(14.897 4.86933 1.41903e-22)
(14.8942 4.90888 2.10888e-19)
(14.8851 4.95339 3.18558e-19)
(14.8606 4.99825 -1.99892e-19)
(14.8347 5.01767 -3.88939e-22)
(14.828 4.98879 -3.89281e-20)
(14.8757 4.89495 2.31267e-19)
(15.0058 4.73059 2.54709e-19)
(15.2586 4.52088 2.68872e-19)
(15.6498 4.31045 -2.7253e-19)
(16.1195 4.0238 -4.24805e-19)
(16.8137 3.67402 -5.2783e-20)
(17.731 3.30377 6.59066e-20)
(18.9306 2.86385 1.62628e-19)
(20.3556 2.37373 -2.01118e-19)
(21.0968 1.88064 0)
(19.5846 1.41194 3.04398e-19)
(15.8385 1.15964 0)
(11.8922 1.38675 -2.05132e-19)
(8.65215 1.7792 0)
(5.89897 1.95844 -1.42986e-19)
(14.8817 4.82571 -1.24083e-19)
(14.8847 4.84853 -2.58655e-19)
(14.8976 4.86916 -2.5195e-19)
(14.895 4.9093 3.95289e-22)
(14.8861 4.95485 5.91486e-22)
(14.8614 5.00129 -2.75862e-22)
(14.8344 5.02231 7.53886e-20)
(14.8252 4.99389 -1.03642e-21)
(14.8693 4.89756 -2.27804e-19)
(14.9947 4.72533 -5.50679e-21)
(15.242 4.50015 2.79224e-19)
(15.6287 4.26807 0)
(16.0834 3.94054 -3.12455e-20)
(16.7569 3.51961 3.95518e-20)
(17.6438 3.03948 1.57179e-19)
(18.8 2.42619 0)
(20.1169 1.68501 0)
(20.7037 0.91431 -2.19336e-19)
(19.1583 0.236892 0)
(15.4919 -0.148544 1.21958e-18)
(11.6256 -0.0238588 -1.61452e-18)
(8.33061 0.314619 1.81143e-19)
(5.49213 0.50339 4.03048e-18)
(14.8818 4.82481 2.48548e-19)
(14.885 4.84809 1.30867e-19)
(14.8981 4.869 3.7857e-19)
(14.8959 4.90971 -2.12901e-19)
(14.8872 4.9563 -1.60036e-19)
(14.8622 5.00434 3.00635e-19)
(14.8341 5.02703 -7.50496e-20)
(14.8225 4.99918 3.8195e-20)
(14.8627 4.90051 3.83593e-21)
(14.983 4.72056 -3.41157e-21)
(15.2239 4.47996 -2.72569e-19)
(15.6045 4.22663 -1.44223e-19)
(16.04 3.8589 1.9238e-19)
(16.6849 3.36806 2.15539e-19)
(17.5227 2.77899 -1.58945e-19)
(18.6092 1.99712 0)
(19.778 1.02204 0)
(20.1971 -0.00186158 -5.35027e-19)
(18.5876 -0.871804 7.28203e-19)
(15.0435 -1.4023 0)
(11.3844 -1.3903 -2.31889e-19)