/*--------------------------------*- C++ -*----------------------------------*\
  =========                 |
  \\      /  F ield         | OpenFOAM: The Open Source CFD Toolbox
   \\    /   O peration     | Website:  https://openfoam.org
    \\  /    A nd           | Version:  7
     \\/     M anipulation  |
\*---------------------------------------------------------------------------*/
FoamFile
{
    version     2.0;
    format      ascii;
    class       volScalarField;
    location    "100";
    object      yPlus;
}
// * * * * * * * * * * * * * * * * * * * * * * * * * * * * * * * * * * * * * //

dimensions      [0 0 0 0 0 0 0];

internalField   uniform 0;

boundaryField
{
    inlet
    {
        type            calculated;
        value           uniform 0;
    }
    outlet
    {
        type            calculated;
        value           uniform 0;
    }
    suction_side
    {
        type            calculated;
        value           nonuniform List<scalar> 
56
(
30.7152
33.9226
36.8574
40.4897
43.648
47.6612
51.4673
55.2726
57.034
49.4006
27.6529
29.4524
34.7739
33.6513
34.6327
37.0614
40.3812
44.0865
45.1656
44.391
42.3392
40.658
30.4155
28.4365
24.1332
29.1651
30.9981
30.5614
29.9091
28.3476
26.6577
27.627
29.6482
33.4745
35.8703
33.693
22.7275
20.2496
27.9444
32.6796
35.4862
37.1719
37.6475
37.2871
36.5551
35.4532
33.9408
31.9996
29.5559
26.5393
23.2782
20.6029
19.0328
18.0245
17.9843
20.6154
)
;
    }
    pressure_side
    {
        type            calculated;
        value           nonuniform List<scalar> 
56
(
43.7088
43.0346
41.0836
41.1234
40.5849
39.6599
39.0008
38.3909
37.9203
37.6253
37.3987
37.22
37.0705
36.9383
36.8104
36.6934
36.5685
36.4513
36.3191
36.178
36.012
35.8236
35.6192
35.4214
35.2785
35.2059
35.2504
35.4029
35.612
35.8338
35.9645
35.9204
35.4295
34.223
32.6231
30.5078
27.5527
23.9304
19.8054
15.3975
12.0189
6.75271
4.85424
4.68754
5.32819
5.98655
7.30413
7.64358
9.32688
9.21425
10.2802
10.2555
12.4159
15.6655
21.97
26.8034
)
;
    }
    trailing_edge
    {
        type            calculated;
        value           nonuniform List<scalar> 2(145.316 100.109);
    }
    defaultFaces
    {
        type            empty;
    }
}


// ************************************************************************* //
