/*--------------------------------*- C++ -*----------------------------------*\
  =========                 |
  \\      /  F ield         | OpenFOAM: The Open Source CFD Toolbox
   \\    /   O peration     | Website:  https://openfoam.org
    \\  /    A nd           | Version:  7
     \\/     M anipulation  |
\*---------------------------------------------------------------------------*/
FoamFile
{
    version     2.0;
    format      ascii;
    class       volScalarField;
    location    "50";
    object      k;
}
// * * * * * * * * * * * * * * * * * * * * * * * * * * * * * * * * * * * * * //

dimensions      [0 2 -2 0 0 0 0];

internalField   nonuniform List<scalar> 
12842
(
0.00569387
0.00513019
0.00475309
0.00451525
0.00432354
0.00420885
0.00411017
0.00405318
0.00399887
0.00397086
0.00394082
0.0039291
0.00391399
0.0039153
0.00392163
0.00393146
0.00394167
0.0039553
0.00396941
0.00398773
0.00400658
0.00402224
0.00403635
0.00568852
0.00508364
0.00471884
0.00449889
0.00432182
0.00420161
0.00410587
0.00405157
0.00399736
0.00396737
0.00393804
0.00392338
0.00391175
0.00391418
0.00392207
0.00393353
0.00394381
0.00395827
0.00397284
0.00399334
0.00401107
0.00402938
0.00404089
0.00566465
0.00506035
0.00466278
0.00444425
0.00428367
0.00417294
0.00407858
0.00403279
0.00398918
0.00396232
0.00393508
0.00391877
0.00390836
0.00391167
0.00392069
0.00393363
0.00394602
0.00396081
0.00397813
0.00399759
0.00401622
0.00403485
0.00404493
0.00561796
0.00502554
0.00464172
0.00442439
0.00426862
0.00416331
0.0040718
0.00402076
0.00397749
0.00395695
0.00393193
0.00391513
0.00390545
0.00390939
0.00392019
0.00393435
0.00394671
0.00396453
0.00398161
0.00400292
0.00402047
0.00403725
0.00404528
0.00558287
0.0049532
0.00457203
0.00436528
0.00422846
0.00413658
0.00405375
0.00400721
0.00396776
0.00395013
0.00392693
0.00391224
0.00390411
0.00390893
0.00392002
0.00393498
0.00394968
0.00397149
0.00398935
0.00401122
0.0040294
0.0040418
0.00404814
0.00554626
0.00492515
0.00454614
0.00433581
0.00420582
0.0041227
0.0040457
0.00399867
0.00396078
0.00394457
0.00392128
0.00390644
0.00390156
0.00390783
0.00392054
0.00393765
0.00395203
0.00397486
0.0039975
0.00401616
0.0040351
0.00404476
0.00405047
0.00549907
0.00486226
0.00449122
0.0042797
0.00416279
0.00409294
0.00402883
0.00398794
0.00395181
0.00393731
0.00391417
0.00390241
0.00389995
0.00390759
0.00392185
0.00394226
0.00395883
0.00398036
0.00400047
0.00402336
0.00403739
0.004051
0.00405339
0.00546776
0.00483442
0.00447034
0.00425792
0.00413933
0.00407505
0.00401575
0.00397852
0.00394633
0.00392983
0.00390711
0.00389773
0.00389841
0.003907
0.0039226
0.00394506
0.00396301
0.0039842
0.00400788
0.00402871
0.00404396
0.00405586
0.00406364
0.00541462
0.00477788
0.00442612
0.00422308
0.00411218
0.00405287
0.00400077
0.00396637
0.00393732
0.00391997
0.00389995
0.00389314
0.0038962
0.00390712
0.00392603
0.00394847
0.00396851
0.00398798
0.00401314
0.00403232
0.00404616
0.00405559
0.00406096
0.00539333
0.00474313
0.00440469
0.00420497
0.00409726
0.00403962
0.00398844
0.00395482
0.00392823
0.00391131
0.00389457
0.00388979
0.0038936
0.00390714
0.00392931
0.00395233
0.00397205
0.00399097
0.00401525
0.00403876
0.00405069
0.00405714
0.00405907
0.00533193
0.00469294
0.00436613
0.00418109
0.00408032
0.00402334
0.00397493
0.00394213
0.00391895
0.00390513
0.00388994
0.00388653
0.00389211
0.00390788
0.00393254
0.00395462
0.00397524
0.00399499
0.00401769
0.00404483
0.00405176
0.0040556
0.0040575
0.00531019
0.00465088
0.00434034
0.00416498
0.00406887
0.00401066
0.00396141
0.00393025
0.00391111
0.00389948
0.00388748
0.00388411
0.00389029
0.00390903
0.00393594
0.00395739
0.00397817
0.00399953
0.00402302
0.0040461
0.00405088
0.00405733
0.00406892
0.0052516
0.00461131
0.00431088
0.00414581
0.00405484
0.00399532
0.00394817
0.00391944
0.00390486
0.00389597
0.0038845
0.00388064
0.00388919
0.00391072
0.00394062
0.00395933
0.00397999
0.0040046
0.00402997
0.00404518
0.00405534
0.00406357
0.00411706
0.00523017
0.0045731
0.00428527
0.00412927
0.00404273
0.0039823
0.00393638
0.00391185
0.00390153
0.00389273
0.00388186
0.00387912
0.00388845
0.0039106
0.00394148
0.00396248
0.00398464
0.00401109
0.00403107
0.00404819
0.00406314
0.00410688
0.00419813
0.00517514
0.00454125
0.00426452
0.00411051
0.00402807
0.00396819
0.00392627
0.00390668
0.00389892
0.00388691
0.00387997
0.00387759
0.0038881
0.00391251
0.00394552
0.00396475
0.00398739
0.00401243
0.00402989
0.0040519
0.0040931
0.00418096
0.00431804
0.0051553
0.00451367
0.00423995
0.00409098
0.00401461
0.0039572
0.00392222
0.00390446
0.00389711
0.00388528
0.00387873
0.00387632
0.00388669
0.00391166
0.0039461
0.00396701
0.00398966
0.00401166
0.00403315
0.0040841
0.00417232
0.00429756
0.00445864
0.00510413
0.00448935
0.00422197
0.00407209
0.00400189
0.00394752
0.00391192
0.0039027
0.00389355
0.00388198
0.00387671
0.00387386
0.00388319
0.00391212
0.00394768
0.00396996
0.00399302
0.00401495
0.00405773
0.00415046
0.00427134
0.0044367
0.00462679
0.00508701
0.00447017
0.00419834
0.00405234
0.00399156
0.00394127
0.00391018
0.00390118
0.00389027
0.00388166
0.00387434
0.00386908
0.00387796
0.00391096
0.00394836
0.00397393
0.00399612
0.00404001
0.0041156
0.00425817
0.00441599
0.0046054
0.00480872
0.00504008
0.00445281
0.00417817
0.00403743
0.00398404
0.00393707
0.0039079
0.00389836
0.00388142
0.00387456
0.00386711
0.0038631
0.00387423
0.00391382
0.00395222
0.0039772
0.0040138
0.00409557
0.0042078
0.00438795
0.00457025
0.0047873
0.00500331
0.0050267
0.00443561
0.00415578
0.00402312
0.00397975
0.0039344
0.00390677
0.00389531
0.00387331
0.00386612
0.00386067
0.00385759
0.00387137
0.00391416
0.00395325
0.00399903
0.00406582
0.00418926
0.00433234
0.00454882
0.00475717
0.00498505
0.00520393
0.00498487
0.00442037
0.00413436
0.00401523
0.0039767
0.00393267
0.00390934
0.00388812
0.00386105
0.00385471
0.00385273
0.00385408
0.00387072
0.00391441
0.00396274
0.00405093
0.00414771
0.00430671
0.00447867
0.00472043
0.00494591
0.00518511
0.00540351
0.00497519
0.0044025
0.00411586
0.00400775
0.0039743
0.00392916
0.00390772
0.00387976
0.0038513
0.00384726
0.00384865
0.00385254
0.00387084
0.00392012
0.00400767
0.00413353
0.004262
0.00445413
0.00464875
0.00490774
0.0051485
0.00539133
0.00560198
0.00493834
0.00438511
0.00409723
0.00400524
0.00397257
0.00392527
0.00390425
0.00387105
0.00384325
0.00384034
0.00384341
0.00385087
0.00387177
0.00393997
0.00407723
0.00424131
0.00439761
0.00461368
0.0048272
0.00509984
0.00534318
0.00558918
0.00579387
0.00492837
0.00437079
0.00408891
0.00400651
0.00396788
0.00391846
0.00389553
0.0038613
0.00383509
0.00383487
0.00384212
0.00385259
0.00389331
0.00400403
0.0041866
0.00437754
0.00455858
0.00479284
0.00501591
0.00529038
0.00553758
0.00577749
0.00597195
0.0049145
0.00435654
0.00408427
0.00400496
0.00396039
0.00390707
0.00388542
0.00385579
0.00383257
0.00383323
0.00384306
0.0038711
0.00394756
0.00409261
0.00431649
0.00453073
0.00473025
0.00497556
0.00520844
0.00548637
0.00572408
0.00596098
0.00614729
0.00490062
0.00434864
0.00408157
0.00400401
0.00394297
0.00389348
0.00387623
0.00385045
0.00382935
0.00383473
0.00385791
0.00392035
0.0040296
0.00420816
0.00446613
0.00469628
0.0049114
0.00516327
0.00539674
0.00566972
0.00590784
0.00613226
0.00630213
0.00488632
0.00433823
0.00407687
0.00399897
0.00392135
0.00387997
0.0038681
0.00384876
0.00383265
0.0038477
0.0039027
0.00399639
0.00413655
0.00434212
0.00462894
0.0048704
0.00509506
0.00534871
0.00558506
0.00585198
0.00607108
0.00629056
0.00645123
0.00487515
0.00433126
0.004071
0.00398765
0.00389848
0.00386758
0.00386168
0.00384858
0.0038496
0.00389308
0.00397225
0.00409644
0.00426375
0.00449216
0.00480076
0.0050483
0.00527804
0.00552754
0.00575748
0.00601361
0.00622977
0.00643005
0.00656904
0.00486425
0.00432395
0.00406059
0.00397113
0.00387809
0.00385764
0.00385709
0.00385928
0.00389265
0.00395829
0.00406748
0.00421566
0.00440601
0.00464968
0.00497464
0.00522327
0.00545334
0.00569642
0.00592184
0.0061642
0.00635758
0.00655185
0.00668197
0.00485719
0.00431338
0.00404521
0.00395522
0.00386153
0.00385045
0.00385668
0.003889
0.00395985
0.00405291
0.00418065
0.00434951
0.00455668
0.0048108
0.00514591
0.00539269
0.00561825
0.00584985
0.00606537
0.00629524
0.0064828
0.00665545
0.00676704
0.00485145
0.00430088
0.00402746
0.00393666
0.00384981
0.00384765
0.00386499
0.00394321
0.00404848
0.0041629
0.00430942
0.00449201
0.0047113
0.00496952
0.00531115
0.00555102
0.00576964
0.00598928
0.0061946
0.00640815
0.00657566
0.00674092
0.00684634
0.00484815
0.0042814
0.00400835
0.0039253
0.00384265
0.00384731
0.00389745
0.00401801
0.00415887
0.00429077
0.00444767
0.00463896
0.00486386
0.00512275
0.00546546
0.00569762
0.00590507
0.00611028
0.00630578
0.00650848
0.00666697
0.00681467
0.00690877
0.00484556
0.00425861
0.00399052
0.00391509
0.00384086
0.00386426
0.00395223
0.00411559
0.00428109
0.00442802
0.00459132
0.00478463
0.00501118
0.00526634
0.00560929
0.00582906
0.00602503
0.00621594
0.00639838
0.00658655
0.00672935
0.0068717
0.00696317
0.00484446
0.00423288
0.0039747
0.00390791
0.00384664
0.00391135
0.00403646
0.00422647
0.00441734
0.00456984
0.00473545
0.0049265
0.00514974
0.00539979
0.00573793
0.0059463
0.00612845
0.00630588
0.00648149
0.00665878
0.00679368
0.00692671
0.00701101
0.00484228
0.00420835
0.00396278
0.0039074
0.00387382
0.00398571
0.00413559
0.00435432
0.00455355
0.00471378
0.00487581
0.00505985
0.00527713
0.00551948
0.00585452
0.00604804
0.00621678
0.00638091
0.006544
0.00671117
0.00683507
0.006967
0.00704764
0.00483971
0.00418478
0.00395424
0.00391848
0.00392492
0.00408455
0.00425431
0.00448347
0.00469398
0.0048496
0.00501029
0.00518437
0.00539283
0.00562785
0.00595541
0.00613592
0.00629132
0.00644557
0.00660517
0.00675951
0.00688306
0.00700934
0.00708249
0.00483187
0.00416518
0.00395273
0.0039465
0.0039955
0.00419593
0.00437978
0.00462
0.00482399
0.00498075
0.00513185
0.00529641
0.00549496
0.00572157
0.00604463
0.00621074
0.00635344
0.00649781
0.00664763
0.00679801
0.00691539
0.00704089
0.00710773
0.00482386
0.00414875
0.00396188
0.00399529
0.00408247
0.00431896
0.00450907
0.00474865
0.0049488
0.00509615
0.0052448
0.00539768
0.00558482
0.00580455
0.0061201
0.00627335
0.00640486
0.00654322
0.00669366
0.00683037
0.0069537
0.00707266
0.00713098
0.00480657
0.00413732
0.00398365
0.00405893
0.00417906
0.00443948
0.00463658
0.00487175
0.00505921
0.0052025
0.00534016
0.00548496
0.0056619
0.00587468
0.00618564
0.00632641
0.00644763
0.00658117
0.00672558
0.0068624
0.00698477
0.00709695
0.00714859
0.00479225
0.00413363
0.00403059
0.00413624
0.00428341
0.00456014
0.00475839
0.00498357
0.00515802
0.00529397
0.00542491
0.00556192
0.00572729
0.0059354
0.00623983
0.00636916
0.00648171
0.00661249
0.00676285
0.00688863
0.00701557
0.00712202
0.00716751
0.00476825
0.00413567
0.0040823
0.00422333
0.00438803
0.00466891
0.00486867
0.0050817
0.00524343
0.00537323
0.00549516
0.00562508
0.00578269
0.00598593
0.00628607
0.00640554
0.00651123
0.00664107
0.00679139
0.00691847
0.0070487
0.0071428
0.0071838
0.00474758
0.00414759
0.00415454
0.00431535
0.00449307
0.00477038
0.00497233
0.00516711
0.00531929
0.00544193
0.00555588
0.00568009
0.0058281
0.00602939
0.00632337
0.00643398
0.00653327
0.00666353
0.00682244
0.00694215
0.00707683
0.00716754
0.0072047
0.00472751
0.00417156
0.00422239
0.00441045
0.00459442
0.00485862
0.00506144
0.00524036
0.00538359
0.00550012
0.00560597
0.00572314
0.00586617
0.00606464
0.00635419
0.00645795
0.00655423
0.00668365
0.00684949
0.00697379
0.00710782
0.00718839
0.00722529
0.00471154
0.00420756
0.00430255
0.00450456
0.00469088
0.00493877
0.00514561
0.00530329
0.00544284
0.00554945
0.00565201
0.00576115
0.00589766
0.00609585
0.00637883
0.00647681
0.0065681
0.0067016
0.00687425
0.00699436
0.00713879
0.00721822
0.00725062
0.00469623
0.00425865
0.00437607
0.00459653
0.00478433
0.005012
0.00521808
0.00535878
0.00549495
0.00559115
0.00568716
0.00578977
0.00592264
0.00611933
0.00639849
0.00649213
0.00658276
0.00671636
0.00690016
0.00702738
0.00716475
0.00723799
0.00727326
0.00469288
0.00432105
0.00445628
0.0046866
0.00487198
0.00508124
0.00528694
0.00541269
0.00554259
0.00562789
0.00571993
0.00581657
0.00594577
0.006142
0.00641377
0.0065039
0.00659033
0.00673273
0.00692248
0.00704886
0.00719612
0.00727174
0.00730294
0.004696
0.00440183
0.00453453
0.00477179
0.00496032
0.00514945
0.00534816
0.00546113
0.00558206
0.00565844
0.00574236
0.00583597
0.00596165
0.00615705
0.00642636
0.00651452
0.00660116
0.0067467
0.00694524
0.00708312
0.00722249
0.00729429
0.00732969
0.00471184
0.00448888
0.00461822
0.00485912
0.0050436
0.00521446
0.0054054
0.00550892
0.00561455
0.00568372
0.00576304
0.00585602
0.00597991
0.00617378
0.00643498
0.00652081
0.00660708
0.00676361
0.00697237
0.00710862
0.00724673
0.00732511
0.00735735
0.00473741
0.00458958
0.00470531
0.00494311
0.00512934
0.00528127
0.00545759
0.00554897
0.00564072
0.00570428
0.00577758
0.00587049
0.00599076
0.00618329
0.00644235
0.00652836
0.00661665
0.00677515
0.00699061
0.00713543
0.00727238
0.00734728
0.00738504
0.00477638
0.00469475
0.00480186
0.0050359
0.00521206
0.0053465
0.00550751
0.00558772
0.00566191
0.00572115
0.00578957
0.00588726
0.00600562
0.00619454
0.00644619
0.00653177
0.00662348
0.00678773
0.00701881
0.00716113
0.00729449
0.00737147
0.00740297
0.00482503
0.00480236
0.00489927
0.00512204
0.00528913
0.00540788
0.00555134
0.00561677
0.00567938
0.00573447
0.00579687
0.00590005
0.00601446
0.00619946
0.00644745
0.00653403
0.00663298
0.00679179
0.00703153
0.00717216
0.00730681
0.00738349
0.00741572
0.00487949
0.00490046
0.0049972
0.00520588
0.00535586
0.00546193
0.00558724
0.00564275
0.00569404
0.00574641
0.00580477
0.00591333
0.00602564
0.00620613
0.00644994
0.00653578
0.00664846
0.00679669
0.00704622
0.00719095
0.0073291
0.00739718
0.00742343
0.00493602
0.00499184
0.00508873
0.00527712
0.00541393
0.00550866
0.00561634
0.00566226
0.00570712
0.00575651
0.00581151
0.00592457
0.00603318
0.00620913
0.0064514
0.00653915
0.00665611
0.00679862
0.00705521
0.00719844
0.00733823
0.00740372
0.00743106
0.00499262
0.00507168
0.00517481
0.00534104
0.00546242
0.00554799
0.00563922
0.00567976
0.00571825
0.00576747
0.00581927
0.00593506
0.00604208
0.0062138
0.00645512
0.00654002
0.006669
0.00680058
0.00706237
0.00721351
0.00735178
0.00741361
0.00743586
0.00504509
0.00514302
0.00525113
0.00539319
0.00550347
0.00558024
0.00565859
0.00569335
0.00572888
0.00577757
0.00582681
0.00594414
0.00604863
0.00621637
0.00645219
0.00654467
0.00667482
0.00680239
0.00707025
0.00721163
0.00733859
0.00741769
0.00743696
0.00509412
0.00520482
0.00531891
0.00544
0.00553816
0.00560723
0.00567549
0.00570636
0.00573806
0.00578892
0.00583493
0.00595218
0.00605582
0.00621912
0.00645084
0.00654502
0.00668128
0.00680645
0.00708051
0.00721275
0.00732735
0.00742177
0.00744547
0.00513697
0.00525683
0.00537303
0.00547659
0.00556533
0.0056271
0.0056897
0.00571715
0.00574709
0.00579833
0.00584229
0.00595807
0.00606023
0.00621941
0.00644549
0.00654291
0.00668179
0.00680437
0.0070756
0.00719744
0.00730321
0.00741617
0.00744482
0.00517484
0.00530065
0.00541796
0.00550942
0.00558865
0.00564448
0.00570239
0.00572831
0.00575492
0.00580772
0.00584934
0.00596287
0.00606447
0.0062198
0.00643985
0.00653486
0.00667985
0.00680265
0.00706282
0.0071775
0.00728021
0.00739936
0.00744853
0.00521229
0.0053406
0.00545611
0.0055374
0.00560863
0.0056589
0.00571441
0.00573914
0.00576434
0.00581618
0.00585702
0.00596728
0.00606754
0.00622028
0.00643421
0.00652875
0.00667405
0.00679988
0.00704662
0.00715247
0.00725621
0.00737847
0.00745125
0.00524754
0.00537628
0.00548892
0.00556347
0.00562688
0.00567297
0.00572571
0.00575073
0.00577307
0.00582452
0.00586437
0.0059716
0.00607146
0.00622065
0.00643034
0.00652167
0.00666602
0.0067958
0.00702583
0.00712776
0.00723186
0.00735745
0.00745182
0.00528413
0.00540813
0.00551614
0.00558578
0.00564296
0.0056854
0.00573649
0.00576183
0.00578318
0.00583187
0.00587241
0.00597537
0.00607444
0.00622259
0.00642835
0.00651865
0.00665876
0.00679118
0.0070072
0.00710513
0.00721107
0.00733633
0.00745193
0.00531959
0.00543802
0.00554073
0.00560631
0.00565808
0.00569862
0.0057473
0.00577343
0.00579332
0.00583941
0.00587992
0.00597997
0.0060786
0.00622449
0.00642761
0.00651697
0.00665268
0.00678737
0.00699212
0.00709047
0.00719432
0.00732344
0.00745048
0.00535518
0.00546311
0.00556094
0.00562494
0.00567286
0.00571081
0.00575781
0.00578414
0.00580354
0.00584627
0.00588808
0.00598375
0.00608247
0.00622802
0.00642782
0.00651732
0.00664986
0.0067847
0.00698149
0.00708334
0.00718442
0.00731148
0.00745502
0.00539058
0.00548932
0.00558092
0.00564172
0.00568669
0.00572416
0.00576838
0.00579533
0.00581455
0.00585344
0.00589536
0.00598927
0.00608848
0.00623445
0.00643009
0.00651773
0.00664926
0.00678289
0.00697755
0.00708113
0.00717966
0.00730402
0.00745284
0.00542303
0.00551016
0.00559798
0.00565855
0.00570145
0.0057366
0.00577939
0.00580537
0.00582431
0.00586075
0.00590328
0.00599392
0.0060909
0.00624086
0.00643951
0.00652395
0.00664902
0.00678275
0.00697559
0.00708013
0.00717897
0.00729741
0.00744875
0.00545597
0.00553434
0.00561656
0.00567385
0.0057153
0.00575006
0.00578955
0.00581637
0.00583501
0.00586776
0.00591002
0.00599807
0.00609215
0.00625244
0.00645031
0.00653553
0.00665222
0.00678738
0.00697702
0.00708429
0.00718144
0.00729394
0.00744684
0.00548358
0.00555475
0.00563317
0.0056898
0.00573005
0.00576276
0.00580098
0.00582609
0.00584442
0.00587583
0.00591735
0.0060011
0.00609375
0.00626296
0.00646571
0.00655022
0.00666098
0.00679657
0.00698191
0.00709357
0.00718835
0.00729285
0.00745062
0.00551216
0.00557695
0.00565241
0.00570519
0.00574379
0.00577633
0.00581145
0.00583722
0.00585376
0.00588304
0.00592356
0.0060003
0.00609324
0.00626966
0.00648097
0.00656598
0.00667172
0.0068087
0.00698896
0.00710634
0.00719007
0.00728783
0.00743596
0.00553546
0.00559966
0.00566994
0.00572076
0.00575875
0.00578879
0.00582238
0.00584691
0.00586324
0.00589098
0.00593016
0.00600047
0.0060935
0.00627447
0.00649563
0.0065808
0.00668305
0.00681934
0.00699306
0.00711221
0.00719172
0.00728743
0.00743272
0.00555892
0.00561859
0.00568933
0.00573568
0.0057717
0.00580249
0.0058337
0.00585808
0.00587141
0.00589886
0.00593552
0.00600226
0.00609471
0.00627872
0.00650757
0.00659234
0.00669209
0.00682814
0.00699342
0.00711505
0.0071934
0.00728805
0.00743386
0.0055796
0.00564199
0.00570719
0.00575136
0.00578586
0.00581339
0.00584397
0.00586704
0.00587976
0.00590512
0.00594162
0.00600479
0.00609527
0.00627702
0.00650955
0.00660115
0.00669776
0.00683006
0.00699346
0.00711722
0.00719605
0.00728173
0.00743104
0.00559734
0.0056573
0.00572494
0.00576406
0.00579922
0.00582656
0.00585404
0.00587741
0.00588826
0.00591289
0.00594598
0.00600378
0.00609456
0.00627693
0.00651136
0.00660525
0.00670037
0.00683092
0.00699486
0.00711644
0.00719549
0.00728102
0.00740814
0.00561849
0.00567866
0.00574221
0.00577941
0.00581081
0.00583719
0.00586575
0.00588553
0.00589453
0.005918
0.00595122
0.00600373
0.00609469
0.00627678
0.00651456
0.00660594
0.00670081
0.00683318
0.00699351
0.00711539
0.00719472
0.0072807
0.00737293
0.00563575
0.0056952
0.00575899
0.00579355
0.00582715
0.00584967
0.00587437
0.00589547
0.00590331
0.00592407
0.00595911
0.00600409
0.00609407
0.00627633
0.00651694
0.00660646
0.00670044
0.00683226
0.00699048
0.00710325
0.00718236
0.00726323
0.00732621
0.0056591
0.00571687
0.00578003
0.00580831
0.00584058
0.00586554
0.00588893
0.00590491
0.00591235
0.00593313
0.00596024
0.00600444
0.00609409
0.00627637
0.00651504
0.00660415
0.00669469
0.00682987
0.00697463
0.00707535
0.00714909
0.00722614
0.00726897
0.00569151
0.00574125
0.00579769
0.00583023
0.0058578
0.00587813
0.0059009
0.00591771
0.00592195
0.00593506
0.00596206
0.00600601
0.00609126
0.00627627
0.00651462
0.00659473
0.00667927
0.00681429
0.00694591
0.00703443
0.00710016
0.00717225
0.00720369
0.00570455
0.00575551
0.00581773
0.00584486
0.00587099
0.00588951
0.00591083
0.00592511
0.0059247
0.00593741
0.00596625
0.0060039
0.00609063
0.00627773
0.00650617
0.00657937
0.00665568
0.00678596
0.00690613
0.00698407
0.0070401
0.00710837
0.00713233
0.00571084
0.00577448
0.00582876
0.00585146
0.00587758
0.00589934
0.00591307
0.0059301
0.00592747
0.00594278
0.00596842
0.0060037
0.00609065
0.00627408
0.00649206
0.00655966
0.00662743
0.00674722
0.00685828
0.00692817
0.00697514
0.00703889
0.00706068
0.0057199
0.00577247
0.00583498
0.00585853
0.00588594
0.00589891
0.00591444
0.00592924
0.00593055
0.00594672
0.00597212
0.00600296
0.00608728
0.0062654
0.00647251
0.00653724
0.00659609
0.00670351
0.00680622
0.0068707
0.0069105
0.00697016
0.0069908
0.00572888
0.00577661
0.00583775
0.00586462
0.00588324
0.00590336
0.00591963
0.00592968
0.00593218
0.00594696
0.00597001
0.00600261
0.00608939
0.0062555
0.00645121
0.0065143
0.00656531
0.00665975
0.00675372
0.00681501
0.00685057
0.0069057
0.00692752
0.00573728
0.00578621
0.00584248
0.00586737
0.00588884
0.00590037
0.00591838
0.00593112
0.00593436
0.00594724
0.0059717
0.00600147
0.00608621
0.0062432
0.00642759
0.00649144
0.00653775
0.00662052
0.00670431
0.00676406
0.00679736
0.00685074
0.00687235
0.00573315
0.00578341
0.00583831
0.00587073
0.0058861
0.0059013
0.00592156
0.00593123
0.00593606
0.00594708
0.00596873
0.00600122
0.00608784
0.00623202
0.00640544
0.00647079
0.00651496
0.0065872
0.00666017
0.00671867
0.00675226
0.00680367
0.00682678
0.00573531
0.00578813
0.00583959
0.00586709
0.0058858
0.00590448
0.00592402
0.00593164
0.00593682
0.00595073
0.00596918
0.0060023
0.00608656
0.00621968
0.00638297
0.00645231
0.00649741
0.0065606
0.00662299
0.00668089
0.006715
0.00676632
0.0067901
0.00574025
0.00579113
0.00583764
0.00586712
0.00589056
0.00590064
0.00592024
0.00593178
0.00594181
0.00594848
0.00597035
0.00599904
0.00608471
0.00620976
0.00636379
0.00643747
0.00648459
0.00653944
0.00659296
0.00664869
0.00668536
0.00673445
0.00675982
0.00573266
0.00578421
0.00583685
0.00586771
0.00588691
0.0059001
0.00592066
0.00593617
0.0059395
0.00594752
0.00597153
0.00599854
0.00608159
0.00619897
0.00634488
0.00642441
0.00647414
0.00652397
0.00656962
0.00662406
0.00666171
0.00670922
0.00673611
0.00573257
0.00579011
0.00583537
0.00587037
0.00588519
0.00589914
0.00591969
0.00593322
0.0059415
0.00594723
0.00596781
0.00599912
0.00607909
0.00619135
0.00633003
0.00641441
0.00646632
0.00651133
0.00655193
0.00660337
0.006644
0.00668821
0.00671534
0.00573333
0.00578366
0.00583435
0.00586993
0.00588495
0.00589837
0.00592049
0.00593494
0.00593746
0.0059469
0.00596734
0.0059952
0.00607547
0.00618246
0.00631512
0.00640466
0.00645932
0.00650295
0.00653889
0.00658812
0.00662924
0.00667043
0.0066996
0.00573191
0.00578728
0.00583498
0.00587064
0.00588612
0.00590034
0.00591988
0.00593033
0.0059373
0.00594809
0.00596696
0.00599779
0.00607293
0.00617703
0.00630441
0.00639738
0.00645337
0.00649516
0.00652857
0.00657543
0.00661943
0.00665767
0.0066844
0.00573182
0.0057877
0.00582718
0.00586596
0.00588573
0.00590036
0.00592318
0.00592959
0.00593705
0.00594378
0.00596713
0.00599422
0.00606901
0.00616936
0.00629281
0.0063891
0.00644715
0.0064891
0.00652142
0.00656501
0.00660909
0.00664613
0.00667298
0.00573528
0.00578627
0.00582576
0.00586702
0.00588155
0.00589922
0.00592351
0.00593019
0.00593701
0.00594708
0.00596227
0.00599657
0.00606638
0.00616516
0.00628532
0.00638325
0.00644181
0.00648295
0.00651395
0.00655746
0.00660298
0.00663685
0.00666292
0.00572448
0.00578317
0.00582205
0.00586715
0.00587883
0.00589715
0.00592376
0.00592453
0.00593861
0.00594287
0.00596125
0.00599594
0.00606206
0.00615755
0.00627592
0.00637533
0.00643475
0.00647622
0.00650814
0.00654729
0.00659474
0.00662759
0.00665273
0.00572269
0.00577963
0.005821
0.00585834
0.00587885
0.00589668
0.00591687
0.00592341
0.00593318
0.00594434
0.00596148
0.0059944
0.00605939
0.00615349
0.00627052
0.00637033
0.00642976
0.00647131
0.00650255
0.00654037
0.00658824
0.00662149
0.00664254
0.00572389
0.00577125
0.00581782
0.00585598
0.00587681
0.00588911
0.00591506
0.00592371
0.00593219
0.0059434
0.00595594
0.00599076
0.00605452
0.00614506
0.00626206
0.0063621
0.00642156
0.00646308
0.00649613
0.00653165
0.00657982
0.00661352
0.00663521
0.00571075
0.00576788
0.00581616
0.0058553
0.00587598
0.00588789
0.00591457
0.00591728
0.00592951
0.00594156
0.00595522
0.00598758
0.00605181
0.00614061
0.00625763
0.00635773
0.00641732
0.00645872
0.00649199
0.00652307
0.00657124
0.00660801
0.00662759
0.00570868
0.0057619
0.00581554
0.00584569
0.00587984
0.00588879
0.00590711
0.00592143
0.00592876
0.00593695
0.00595779
0.00598348
0.0060456
0.00613051
0.00624695
0.00634776
0.00640826
0.00644965
0.00648251
0.00651632
0.00656021
0.0065994
0.00662203
0.00571318
0.00575981
0.0058189
0.00584677
0.00587786
0.00588104
0.00590588
0.0059157
0.00592647
0.00593406
0.00595797
0.00598155
0.00604472
0.00612728
0.00624584
0.0063453
0.00640484
0.00644559
0.00647634
0.00650708
0.00655297
0.00659021
0.00661225
0.00571191
0.00575518
0.00581463
0.0058429
0.0058737
0.0058868
0.00590515
0.00591607
0.00592502
0.0059321
0.00595416
0.00597307
0.00603618
0.00611496
0.00623251
0.0063336
0.0063951
0.00643743
0.00646705
0.00649574
0.00654268
0.00657855
0.00659949
0.00570414
0.00575235
0.0058096
0.00584636
0.00586667
0.00587805
0.00590575
0.00591154
0.00592702
0.00592327
0.00594952
0.00596759
0.00602817
0.00610213
0.00621628
0.0063204
0.00638354
0.00642594
0.00645957
0.00648598
0.00652928
0.00656737
0.00659111
0.00569682
0.00575567
0.00579631
0.00584173
0.00585453
0.0058803
0.00589835
0.00590439
0.00592551
0.00592044
0.00594536
0.00596337
0.00601768
0.00608757
0.006197
0.00630503
0.00637147
0.00641429
0.00645284
0.00647542
0.0065203
0.00655729
0.00658226
0.00567486
0.00574598
0.00578574
0.00583055
0.00583673
0.00587333
0.00588548
0.00590089
0.00591183
0.0059206
0.00593912
0.00595779
0.00600664
0.00607155
0.00617296
0.00628517
0.00635875
0.00639544
0.00643641
0.00646831
0.00650445
0.00654876
0.0065684
0.00566874
0.00572672
0.00577118
0.00580774
0.00583026
0.00586439
0.00586677
0.00589114
0.00590386
0.00591416
0.00592962
0.0059481
0.00599419
0.00605418
0.00614509
0.00626131
0.00634476
0.00637875
0.00641844
0.0064581
0.00648979
0.0065296
0.00656013
0.00567362
0.00569799
0.00576086
0.00579578
0.00583103
0.00585336
0.00585991
0.0058873
0.00589052
0.00590313
0.00591907
0.00593521
0.00598017
0.00603522
0.00611356
0.00622798
0.00632448
0.00636085
0.00639874
0.00644206
0.00647041
0.00651255
0.00655178
0.00566417
0.00568753
0.00574939
0.00577863
0.00582135
0.00584245
0.00585906
0.0058745
0.00587591
0.00589258
0.00590708
0.00592441
0.00596563
0.0060151
0.00608227
0.00618718
0.00629399
0.00634227
0.00638001
0.00641981
0.00645099
0.00648926
0.00653637
0.00565297
0.00568812
0.00573205
0.00577397
0.00580781
0.00583113
0.00584963
0.00586023
0.00587347
0.00588288
0.00589472
0.00591147
0.0059473
0.00599202
0.00604859
0.00613871
0.00624843
0.00631983
0.00636042
0.00640071
0.00643263
0.00647337
0.00651877
0.00563181
0.00567241
0.00571374
0.00575534
0.00578918
0.00581513
0.00583255
0.00584253
0.00585893
0.00586898
0.00587879
0.0058943
0.00592609
0.0059672
0.0060148
0.00608756
0.00619106
0.00628128
0.00632752
0.00637548
0.00641143
0.00644304
0.00649591
0.0056055
0.00565083
0.00569544
0.00573429
0.00576841
0.00579643
0.00581259
0.00582338
0.00584193
0.00585234
0.00586116
0.00587485
0.00590113
0.00593872
0.00597892
0.00603503
0.00612222
0.00622416
0.00628294
0.00633675
0.00637861
0.00640914
0.0064454
0.00557061
0.00562256
0.00566737
0.00570754
0.00574116
0.00576997
0.00578454
0.00579875
0.00581666
0.00582799
0.00583624
0.00584949
0.00587363
0.00590812
0.0059438
0.00598617
0.00604767
0.00614494
0.00621692
0.00627691
0.00632308
0.00635699
0.00639143
0.00552849
0.00559078
0.00563206
0.00567877
0.00571037
0.0057383
0.00575438
0.00577097
0.00578918
0.00580074
0.00580943
0.00582093
0.00584119
0.00587216
0.005905
0.00594022
0.00598373
0.00605735
0.00613432
0.00620019
0.00625092
0.00628451
0.0063206
0.00547618
0.00555047
0.00558789
0.00564179
0.00567063
0.0056973
0.0057155
0.00573485
0.00575182
0.00576474
0.00577322
0.0057854
0.00580552
0.00583289
0.0058621
0.00589236
0.00592144
0.00596983
0.00603622
0.00610028
0.00615658
0.00619235
0.00623058
0.00542967
0.00550618
0.00554358
0.00560171
0.00562778
0.00565354
0.00567514
0.00569518
0.00571224
0.00572658
0.00573649
0.00574676
0.00576477
0.00578828
0.0058161
0.00584363
0.00586994
0.00589994
0.00594882
0.00600023
0.00605447
0.00608864
0.00612566
0.00537912
0.0054513
0.00549247
0.00554987
0.00557481
0.0056003
0.00562373
0.00564513
0.00566117
0.0056769
0.0056874
0.00569966
0.00571812
0.00573587
0.00576094
0.00578317
0.00580719
0.00582703
0.00586024
0.0058965
0.0059431
0.00597471
0.0060092
0.00532693
0.00539243
0.00543812
0.00549311
0.00551943
0.00554546
0.00556959
0.00559184
0.00560903
0.00562579
0.00563689
0.00564731
0.0056656
0.00568049
0.00570412
0.00572294
0.00574888
0.00576544
0.00579116
0.00581515
0.00585167
0.00587676
0.00590645
0.00525661
0.00532007
0.00536775
0.00542017
0.00545072
0.00547647
0.00549987
0.00552407
0.00554203
0.00555943
0.00557145
0.00558214
0.00559994
0.00561104
0.00563037
0.00564395
0.00566676
0.00568041
0.00570184
0.00571736
0.00574508
0.00576455
0.00579002
0.00517464
0.0052434
0.00529064
0.00534278
0.00537922
0.00540542
0.00542665
0.00545235
0.00547385
0.0054921
0.00550392
0.00551336
0.00553096
0.00554203
0.00555957
0.00557088
0.00559129
0.00560521
0.00562631
0.00563883
0.00566078
0.005674
0.00569335
0.00507046
0.00514871
0.0051941
0.00524681
0.00528915
0.00531473
0.00533473
0.00536048
0.00538289
0.00540294
0.00541689
0.00542529
0.00544091
0.00545014
0.00546627
0.00547532
0.00549125
0.00550069
0.00551721
0.00552699
0.00554482
0.00555604
0.00557409
0.00496645
0.00505205
0.0050964
0.00515099
0.00519749
0.00522352
0.00524237
0.00526783
0.00529155
0.00531126
0.00532711
0.00533574
0.0053518
0.00535997
0.00537411
0.00538266
0.00539862
0.00540869
0.00542543
0.00543384
0.0054476
0.00545491
0.00546797
0.00484525
0.0049328
0.00497748
0.0050328
0.00508119
0.00510677
0.00512622
0.00514951
0.00517126
0.00519057
0.00520787
0.00521654
0.0052313
0.00523938
0.00525154
0.00525809
0.00526969
0.00527694
0.00529052
0.00529875
0.0053138