/*--------------------------------*- C++ -*----------------------------------*\
  =========                 |
  \\      /  F ield         | OpenFOAM: The Open Source CFD Toolbox
   \\    /   O peration     | Website:  https://openfoam.org
    \\  /    A nd           | Version:  7
     \\/     M anipulation  |
\*---------------------------------------------------------------------------*/
FoamFile
{
    version     2.0;
    format      ascii;
    class       volScalarField;
    location    "50";
    object      nut;
}
// * * * * * * * * * * * * * * * * * * * * * * * * * * * * * * * * * * * * * //

dimensions      [0 2 -1 0 0 0 0];

internalField   nonuniform List<scalar> 
12842
(
0.0018072
0.00179875
0.00178587
0.00178174
0.00176736
0.00176625
0.00175744
0.00176072
0.00175504
0.0017584
0.00175462
0.00175789
0.00175524
0.00175949
0.00154593
0.000811917
0.000496165
0.000339518
0.000249256
0.000192208
0.00015426
0.00012856
0.00011022
0.00181101
0.00178721
0.00178285
0.0017848
0.00177584
0.0017695
0.00175801
0.00176123
0.00175506
0.00175733
0.00175378
0.00175545
0.00175435
0.00175873
0.00146342
0.000771201
0.000473004
0.000325195
0.00023995
0.000186155
0.000150141
0.000126218
0.000108297
0.00181427
0.00179244
0.00177
0.0017752
0.00177338
0.00177151
0.00175686
0.00176043
0.00175718
0.00175996
0.00175625
0.00175571
0.00175437
0.0017578
0.00139961
0.000743247
0.000459168
0.000317433
0.000235311
0.000183134
0.000148055
0.000125074
0.000106954
0.00180589
0.0018009
0.00177644
0.0017741
0.00177169
0.00177447
0.00175936
0.00175847
0.0017544
0.00175947
0.00175692
0.00175565
0.00175497
0.00175733
0.00132689
0.000710115
0.000441778
0.000307325
0.000228787
0.000178859
0.000144989
0.000123156
0.000105115
0.0018081
0.00178953
0.00177258
0.00177052
0.00177005
0.00177619
0.00176525
0.00176131
0.00175619
0.00176079
0.00175694
0.00175615
0.00175614
0.00175789
0.00125903
0.000678159
0.000424669
0.00029717
0.000222167
0.000174412
0.000141832
0.000121073
0.000103223
0.00180595
0.00179628
0.00177239
0.00176715
0.00176713
0.00177489
0.00176794
0.00176213
0.00175615
0.00176123
0.00175689
0.00175536
0.00175678
0.00175871
0.00120597
0.000652647
0.00041045
0.000288349
0.000216513
0.000170391
0.000138878
0.000119075
0.000101419
0.00180493
0.00179025
0.00177147
0.00176235
0.00176368
0.00177207
0.00177072
0.00176712
0.00175893
0.0017617
0.00175554
0.00175479
0.00175687
0.00175916
0.00117081
0.000635188
0.000400536
0.000281891
0.00021191
0.000167259
0.000136265
0.000117349
9.97264e-05
0.00180389
0.00179379
0.00177231
0.00176054
0.00175971
0.00176792
0.00176838
0.00176668
0.00176033
0.00176197
0.00175641
0.0017557
0.00175775
0.00175994
0.00115298
0.000624461
0.000393173
0.000276456
0.000207971
0.000164151
0.00013374
0.000115401
9.80969e-05
0.00180246
0.00178878
0.0017718
0.00176012
0.00175857
0.00176547
0.00176804
0.00176729
0.00176174
0.00176123
0.00175587
0.00175587
0.00175779
0.00176073
0.00113855
0.000615852
0.000387452
0.000272242
0.000204913
0.000161845
0.00013178
0.000113869
9.66654e-05
0.00180185
0.00178866
0.00177405
0.00176067
0.00175807
0.00176255
0.00176485
0.00176429
0.00176045
0.00175957
0.00175597
0.00175605
0.00175752
0.00176114
0.0011171
0.000605289
0.000381354
0.000268342
0.000202198
0.000160128
0.000130328
0.000112718
9.5562e-05
0.00180081
0.00178594
0.00177256
0.00176263
0.00175901
0.00176137
0.0017635
0.00176287
0.00175969
0.00175942
0.00175578
0.00175588
0.00175751
0.00176168
0.00109724
0.00059532
0.000375493
0.000264533
0.000199415
0.000158245
0.000128648
0.000111292
9.43885e-05
0.00180057
0.00178097
0.00177268
0.00176351
0.00175954
0.00175878
0.0017596
0.00175955
0.00175801
0.001758
0.00175636
0.0017557
0.00175724
0.0017624
0.00107686
0.000584882
0.000369206
0.000260471
0.000196568
0.000156022
0.000126835
0.00010987
9.35143e-05
0.00179957
0.0017806
0.00177182
0.00176574
0.00176136
0.00175805
0.00175799
0.00175822
0.00175764
0.00175835
0.00175644
0.001755
0.00175735
0.00176337
0.00105694
0.000574365
0.000362824
0.00025649
0.000193854
0.000153759
0.000125252
0.000108583
9.3536e-05
0.00179917
0.00177612
0.00177116
0.00176462
0.00176123
0.00175573
0.00175478
0.00175638
0.00175729
0.00175791
0.00175688
0.00175541
0.00175791
0.00176383
0.0010366
0.000564074
0.000356963
0.000252871
0.000191037
0.000151766
0.000123873
0.000108314
9.43753e-05
0.00179783
0.00177665
0.00177111
0.00176571
0.0017624
0.00175562
0.00175411
0.00175697
0.00175812
0.00175737
0.00175771
0.00175607
0.0017589
0.00176518
0.00101726
0.000554203
0.000351287
0.000249302
0.000188273
0.000149895
0.000123273
0.000108878
9.61814e-05
0.00179713
0.0017756
0.00176988
0.00176239
0.00176153
0.00175393
0.00175406
0.00175743
0.0017585
0.0017579
0.00175892
0.00175727
0.00175947
0.00176506
0.000997962
0.000544815
0.000346626
0.000246008
0.000185914
0.00014921
0.000124286
0.000110612
9.86086e-05
0.00179517
0.00177752
0.00176848
0.00176237
0.00176271
0.00175472
0.00175284
0.00175956
0.00175963
0.00175936
0.00176023
0.00175785
0.0017591
0.00176533
0.000981461
0.00053863
0.000343435
0.000243519
0.000184799
0.000149957
0.000126118
0.000113092
0.000101918
0.00179417
0.00177907
0.00176699
0.00175885
0.00176247
0.00175435
0.00175385
0.00176059
0.00175983
0.00176081
0.00176102
0.00175753
0.00175716
0.00176387
0.000975845
0.00053704
0.000341923
0.00024288
0.000185602
0.00015253
0.000129648
0.000116635
0.000105944
0.00179161
0.0017823
0.00176351
0.00175925
0.00176376
0.00175659
0.00175659
0.0017631
0.00175974
0.00176071
0.00176017
0.00175642
0.00175502
0.00175662
0.000982915
0.00053926
0.000342839
0.000244744
0.000188423
0.000156294
0.000133973
0.000121019
0.000110809
0.00179054
0.00178351
0.0017618
0.00175762
0.00176523
0.00175787
0.00175847
0.00176401
0.00175765
0.00175816
0.00175793
0.00175367
0.0017461
0.00173498
0.00099977
0.000546467
0.000347901
0.00024951
0.000193323
0.000161796
0.000139927
0.000126513
0.000116524
0.00178789
0.00178596
0.00175742
0.00175879
0.00176614
0.00176047
0.00176546
0.00176543
0.00175463
0.0017547
0.0017552
0.0017514
0.00172844
0.00170227
0.00102369
0.000559551
0.00035627
0.000256425
0.000199898
0.000168364
0.000146783
0.000133047
0.00012307
0.00178698
0.00178587
0.0017564
0.00175971
0.00176856
0.00176353
0.00176817
0.00176395
0.00175012
0.00174997
0.00174977
0.00173715
0.00169704
0.00166249
0.00105745
0.000578014
0.00036823
0.000265869
0.000208448
0.000176493
0.000155074
0.000140945
0.000130617
0.0017853
0.0017853
0.00175238
0.00176149
0.00176959
0.00176458
0.00177298
0.00176324
0.00174723
0.00174661
0.00174424
0.00171906
0.00166129
0.00162503
0.00110009
0.000601155
0.000382895
0.000277031
0.000218369
0.000185779
0.000164216
0.000150047
0.000139219
0.00178461
0.00178497
0.00175262
0.00176441
0.00177009
0.00176762
0.00177208
0.00176105
0.00174039
0.00173669
0.00172525
0.001681
0.00162081
0.00159824
0.00114641
0.00062673
0.000399386
0.000289778
0.000229618
0.000196142
0.00017458
0.000160392
0.000148912
0.0017844
0.00178188
0.00175208
0.00176615
0.00176946
0.00176505
0.00176987
0.00175837
0.00172863
0.00171725
0.00169425
0.00164592
0.00159428
0.0015832
0.00119095
0.000652122
0.000416637
0.000303426
0.00024212
0.000207952
0.000186031
0.000172138
0.00016001
0.00178256
0.00178141
0.00175267
0.001768
0.00176434
0.00176176
0.00176773
0.00175367
0.00170611
0.00168742
0.00165866
0.00161845
0.00157801
0.00157932
0.00123956
0.000680274
0.000435616
0.000318521
0.000255685
0.00022059
0.000198686
0.000184673
0.000171748
0.00178376
0.00177841
0.0017519
0.0017689
0.00175797
0.001758
0.00176436
0.00174121
0.0016769
0.00165431
0.0016313
0.00159945
0.00157131
0.00158332
0.00129188
0.000710001
0.000456136
0.000334699
0.000270381
0.0002343
0.00021161
0.000197795
0.000184248
0.0017829
0.00177755
0.00175202
0.00176671
0.0017488
0.0017529
0.00175808
0.00171608
0.00164696
0.00162988
0.00160879
0.00158794
0.00157339
0.00159522
0.00134541
0.000741014
0.000477122
0.000351338
0.000285207
0.000248066
0.000225252
0.000210936
0.000196569
0.00178558
0.00177588
0.00175047
0.00176384
0.00173845
0.00174514
0.001742
0.00168364
0.00162263
0.00160867
0.00159631
0.00158529
0.00158254
0.00161157
0.00139877
0.000771482
0.000498477
0.000368253
0.000300403
0.000262172
0.000238456
0.000224092
0.000209286
0.00178649
0.00177454
0.00174824
0.00175782
0.0017262
0.00173033
0.00171566
0.00165282
0.0016048
0.00159846
0.00158948
0.0015885
0.00159708
0.00163215
0.00145057
0.000802019
0.000519427
0.00038502
0.000315395
0.000276179
0.000252197
0.000236951
0.000221546
0.00179139
0.00177158
0.00174473
0.00175228
0.00170611
0.00170505
0.00168257
0.00162643
0.0015949
0.00159293
0.00159136
0.00159829
0.00161541
0.00165406
0.00150168
0.000831494
0.000540318
0.000401725
0.000330222
0.000289937
0.000265168
0.000249488
0.000233948
0.00179377
0.00176946
0.00174082
0.00174527
0.00168251
0.00167238
0.00165531
0.00160907
0.00159246
0.00159573
0.00159813
0.00161237
0.001636
0.00167741
0.00155021
0.000860527
0.000560469
0.000417946
0.000344813
0.00030364
0.000278432
0.000261675
0.000246062
0.00179951
0.00176355
0.00173757
0.00173324
0.00165513
0.00164126
0.00163244
0.00160031
0.00159662
0.00160375
0.00161099
0.00162969
0.00165767
0.00169992
0.00159783
0.000888216
0.000580151
0.00043385
0.000358754
0.000316616
0.000290718
0.000273253
0.0002579
0.00180231
0.00175936
0.00173127
0.00171453
0.00162668
0.00161835
0.00162181
0.0016002
0.00160791
0.00161665
0.00162723
0.00164935
0.00167949
0.00172216
0.00164261
0.000915341
0.000599201
0.000449197
0.000372629
0.000329466
0.000303058
0.000284491
0.000269633
0.00180771
0.00175152
0.00172783
0.00169343
0.00160736
0.00160748
0.00161721
0.0016087
0.00162125
0.00163333
0.0016459
0.00167022
0.00170051
0.00174223
0.00168661
0.000941099
0.000617488
0.000464088
0.000385521
0.000341469
0.00031441
0.000295021
0.000280706
0.00180995
0.00174591
0.00171954
0.00167333
0.001595
0.00160479
0.00162155
0.00162162
0.00164071
0.00165189
0.00166742
0.00169066
0.00172045
0.00176126
0.00172831
0.000966601
0.00063549
0.000478521
0.000398489
0.000353094
0.000325659
0.000305001
0.000291544
0.00181343
0.00173895
0.00170572
0.00165816
0.00159372
0.00161094
0.00163154
0.00163989
0.00165838
0.00167204
0.00168658
0.00171126
0.0017386
0.00177748
0.0017696
0.000990919
0.000652707
0.000492529
0.000410421
0.000364149
0.000336031
0.000314231
0.000301577
0.00181465
0.00172895
0.00169349
0.00165047
0.00159751
0.00162251
0.00164493
0.00165962
0.0016791
0.00169078
0.00170827
0.00172937
0.00175493
0.00179245
0.0018096
0.0010155
0.000669954
0.000506113
0.000422418
0.000374494
0.000346017
0.000322574
0.000311032
0.00181544
0.00172102
0.00167987
0.00164764
0.00160778
0.00163702
0.00166133
0.00167967
0.00169742
0.0017091
0.00172435
0.00174592
0.0017694
0.00180463
0.00184985
0.00103928
0.00068661
0.000519537
0.000433615
0.000384661
0.000355371
0.000330063
0.000319539
0.00181504
0.00170994
0.0016759
0.00165069
0.00162205
0.00165444
0.00167896
0.00169959
0.00171454
0.00172478
0.00174083
0.00175997
0.00178153
0.00181567
0.00186005
0.00106384
0.000703566
0.00053253
0.000444792
0.000393948
0.000363873
0.000336642
0.000327635
0.00181106
0.00170239
0.00167071
0.00165674
0.00163707
0.00167068
0.00169458
0.00171648
0.00172926
0.00173676
0.00175169
0.00177207
0.00179231
0.00182424
0.00186733
0.00108807
0.000720227
0.000545651
0.000455531
0.000403306
0.000372394
0.000342615
0.000334706
0.001809
0.00169344
0.00167124
0.00166549
0.00165339
0.00168599
0.00171155
0.00172943
0.00174175
0.00174908
0.00176408
0.00178295
0.00180052
0.00183207
0.00187319
0.00111372
0.000737558
0.000558623
0.000466244
0.000411902
0.000379774
0.000347851
0.000341506
0.00180209
0.00168804
0.00166862
0.00167481
0.00166872
0.00169894
0.00172387
0.00174024
0.00175188
0.00176066
0.00177515
0.00179102
0.00180801
0.00183783
0.00187785
0.0011395
0.000755036
0.000571865
0.00047687
0.000420961
0.000387537
0.000352797
0.000347597
0.00179603
0.0016811
0.00166736
0.0016832
0.00168116
0.00170851
0.0017367
0.00174715
0.00176097
0.00176964
0.00178608
0.00179856
0.00181333
0.00184326
0.00188145
0.00116753
0.000773618
0.00058552
0.000487785
0.000429664
0.000394482
0.000357423
0.000353333
0.00178403
0.00167769
0.00166304
0.00169058
0.00169406
0.00171643
0.00174488
0.0017551
0.00176917
0.00177929
0.00179296
0.00180431
0.00181812
0.00184697
0.0018844
0.0011964
0.000793074
0.000599939
0.00049905
0.000439248
0.000401721
0.000362074
0.000358703
0.00177407
0.00167423
0.00166067
0.00169524
0.00170326
0.0017215
0.00175331
0.0017625
0.00177882
0.00178714
0.00180258
0.00181043
0.00182169
0.00185054
0.00188614
0.00122827
0.000814206
0.000615691
0.00051142
0.000449126
0.000409271
0.000367339
0.000363786
0.00176296
0.0016756
0.0016578
0.00169972
0.00171471
0.00172802
0.00175892
0.00177078
0.00178841
0.00179409
0.00180932
0.00181486
0.00182453
0.00185288
0.00188811
0.00126211
0.000836669
0.000633139
0.000524406
0.000460824
0.000417456
0.000373109
0.000368999
0.00175469
0.00167843
0.00165987
0.00170376
0.00172306
0.00173345
0.0017658
0.00177781
0.00179549
0.00179992
0.00181404
0.00181945
0.00182715
0.00185517
0.00188865
0.00129956
0.000864005
0.000653885
0.000540407
0.000473661
0.000427205
0.000380723
0.000374392
0.00174936
0.00168613
0.00166459
0.0017096
0.00173541
0.00174202
0.00177137
0.00178454
0.00180132
0.00180473
0.0018174
0.00182269
0.00182884
0.00185651
0.00188971
0.00133856
0.000891749
0.000675146
0.000557431
0.000489087
0.000438563
0.000389993
0.000380473
0.00174546
0.0016972
0.00167343
0.00171829
0.00174676
0.00175032
0.00177881
0.00179035
0.00180565
0.00180786
0.00181836
0.00182594
0.00183089
0.00185771
0.00188982
0.00137471
0.000918772
0.000699594
0.00057659
0.000504643
0.000451213
0.000400806
0.000386388
0.00174601
0.00171215
0.00168556
0.00172891
0.00176015
0.00176035
0.0017854
0.00179473
0.00180883
0.00180964
0.00181845
0.00182851
0.00183202
0.00185807
0.00188982
0.00140576
0.000941273
0.000716684
0.000593485
0.000518439
0.000462677
0.000412089
0.000392713
0.00174747
0.00172788
0.0017014
0.00174136
0.00177118
0.00176913
0.00179146
0.00179828
0.00181098
0.00181105
0.00181773
0.00183042
0.00183342
0.00185842
0.0018901
0.00143283
0.000965177
0.000731508
0.000609953
0.000531649
0.0004762
0.000422965
0.000398504
0.00175151
0.00174339
0.00171949
0.00175257
0.00178121
0.00177708
0.00179597
0.00180084
0.00181185
0.00181209
0.00181738
0.00183232
0.00183407
0.00185857
0.00189026
0.00145868
0.000981247
0.000744348
0.000623741
0.000543586
0.000487201
0.000433477
0.000406421
0.00175649
0.00175674
0.00173718
0.00176347
0.00178841
0.00178335
0.00179898
0.00180284
0.00181178
0.00181316
0.00181707
0.00183334
0.00183492
0.00185877
0.00189087
0.00147723
0.000996545
0.000755295
0.000633775
0.000553032
0.000496588
0.000442075
0.000411721
0.00176135
0.00176844
0.00175391
0.00177205
0.00179412
0.00178786
0.0018008
0.00180378
0.00181105
0.00181383
0.0018171
0.00183446
0.00183524
0.00185889
0.0018896
0.00150693
0.00101611
0.000770258
0.00064863
0.000565755
0.000507354
0.000454335
0.000420029
0.00176639
0.00177786
0.00176853
0.00177971
0.00179822
0.00179097
0.00180156
0.00180437
0.0018098
0.0018146
0.00181709
0.00183474
0.00183564
0.00185859
0.00188825
0.00150485
0.00101168
0.000767529
0.000645613
0.000564577
0.000503011
0.000453257
0.00041867
0.00177014
0.00178579
0.00178026
0.00178507
0.00180144
0.00179282
0.00180212
0.00180462
0.0018091
0.00181519
0.00181727
0.00183486
0.00183566
0.00185827
0.00188598
0.00150151
0.00100851
0.000764887
0.000642042
0.000565505
0.000499945
0.000453853
0.000416486
0.00177335
0.00179161
0.001789
0.00178968
0.00180404
0.00179448
0.00180239
0.0018051
0.00180838
0.00181578
0.00181731
0.00183448
0.00183585
0.00185786
0.0018837
0.00154647
0.00104203
0.000792377
0.0006642
0.000585539
0.000519372
0.00047565
0.000437346
0.00177617
0.00179676
0.00179578
0.00179287
0.00180625
0.0017959
0.00180292
0.00180562
0.00180842
0.0018162
0.00181764
0.001834
0.00183561
0.00185756
0.00188103
0.00157487
0.00106126
0.000808056
0.000677475
0.000598425
0.000532854
0.00049605
0.000461975
0.0017786
0.00180002
0.00180011
0.00179577
0.00180786
0.00179766
0.00180339
0.00180633
0.00180851
0.00181649
0.00181774
0.00183343
0.00183581
0.00185707
0.00187846
0.0015978
0.00107739
0.000820002
0.00068787
0.000613088
0.000549982
0.000517847
0.00049488
0.00178111
0.00180223
0.00180249
0.00179731
0.00180918
0.00179927
0.00180398
0.00180714
0.0018091
0.00181642
0.00181809
0.00183258
0.00183568
0.00185697
0.00187616
0.00163331
0.00110273
0.000840057
0.00070962
0.000636476
0.000574009
0.000547345
0.000519252
0.00178381
0.00180325
0.00180371
0.00179881
0.00180934
0.00180128
0.00180474
0.00180774
0.00180969
0.00181634
0.00181812
0.00183216
0.00183573
0.00185637
0.00187325
0.00167403
0.00113506
0.000869095
0.00073866
0.000667973
0.000608459
0.000579537
0.000547322
0.00178599
0.00180262
0.00180335
0.00179943
0.00180986
0.00180261
0.00180522
0.00180832
0.00181023
0.00181584
0.00181821
0.00183122
0.0018357
0.0018562
0.00187031
0.00172053
0.00117541
0.000903568
0.000775377
0.000705542
0.000638637
0.000603739
0.000581656
0.00178941
0.00180255
0.00180337
0.00179992
0.00180867
0.00180411
0.00180593
0.00180857
0.00181082
0.0018155
0.00181819
0.00183115
0.00183741
0.00185622
0.00186749
0.00177582
0.00121829
0.00094453
0.000812538
0.000734786
0.000670307
0.000637115
0.000615539
0.00179084
0.00180033
0.00180247
0.00180034
0.0018086
0.00180476
0.0018064
0.00180856
0.00181075
0.00181518
0.00181788
0.00183057
0.00183789
0.00185693
0.00186669
0.00181362
0.00126284
0.000985731
0.000847429
0.000767901
0.000705045
0.00067155
0.000657467
0.00179434
0.00180018
0.00180246
0.00180049
0.00180677
0.00180516
0.00180665
0.00180852
0.00181113
0.00181467
0.00181789
0.00183019
0.00183789
0.00185977
0.00186937
0.00181178
0.00130493
0.00102736
0.000881482
0.000805989
0.000740813
0.000712868
0.000704285
0.00179468
0.00179811
0.00180241
0.00180077
0.00180655
0.00180516
0.0018072
0.00180819
0.00181043
0.00181492
0.00181749
0.00182933
0.00183742
0.00186265
0.00187326
0.00181571
0.00134981
0.00106277
0.000916246
0.000850489
0.00078106
0.000759708
0.000763411
0.00179747
0.00179782
0.00180282
0.00180123
0.00180461
0.00180505
0.00180712
0.00180813
0.00181047
0.00181451
0.00181741
0.00182777
0.00183748
0.00186454
0.00187673
0.00181777
0.00139186
0.00110298
0.000955275
0.000900121
0.000825492
0.000817442
0.000838563
0.00179669
0.00179738
0.00180373
0.00180133
0.00180485
0.00180441
0.00180755
0.00180783
0.00180978
0.00181491
0.00181747
0.00182621
0.00183752
0.00186583
0.00187994
0.00182306
0.00144299
0.00114849
0.00100338
0.00094523
0.000875642
0.000875146
0.000896928
0.00179873
0.00179608
0.00180453
0.00180175
0.00180333
0.0018047
0.00180751
0.00180813
0.00180925
0.00181491
0.00181692
0.00182552
0.00183736
0.00186737
0.00188403
0.00182497
0.00149828
0.00120172
0.00104877
0.00100363
0.000940152
0.000945094
0.00091514
0.00179656
0.00179686
0.00180539
0.00180166
0.00180345
0.0018034
0.00180767
0.00180715
0.0018083
0.00181453
0.00181715
0.00182485
0.00183791
0.00186667
0.00188469
0.00182783
0.00155878
0.00126187
0.00110405
0.00106232
0.00100105
0.00101674
0.00091638
0.00179611
0.00179392
0.00180532
0.00180076
0.00180264
0.00180312
0.00180657
0.00180718
0.0018074
0.00181387
0.00181602
0.00182234
0.00183751
0.00186736
0.00188526
0.00182792
0.00162914
0.00132105
0.00117006
0.00112946
0.00108
0.00101365
0.000908998
0.00179376
0.00179391
0.001805
0.00179971
0.00180166
0.00180193
0.00180674
0.00180542
0.00180594
0.00181258
0.00181478
0.00182169
0.00183807
0.00186742
0.00188583
0.00183025
0.00170329
0.00139596
0.0012487
0.00118582
0.0011205
0.00101924
0.000922637
0.00178925
0.00179066
0.00180344
0.00179893
0.00180135
0.00180087
0.00180455
0.00180506
0.0018048
0.00181082
0.00181662
0.00182133
0.00183783
0.00186717
0.00188792
0.00183077
0.00172565
0.00148257
0.00132084
0.0012365
0.00112619
0.00102523
0.000950702
0.00178893
0.00178975
0.00180216
0.00179672
0.00180094
0.00180205
0.00180437
0.00180549
0.00180611
0.00181079
0.00181632
0.00182117
0.00183793
0.00186804
0.00188768
0.00183042
0.001727
0.00156571
0.00138718
0.00128437
0.00114988
0.00105056
0.000989543
0.00179354
0.00179066
0.00180568
0.00179949
0.00180144
0.00180279
0.00180729
0.00180858
0.00180847
0.00180979
0.00181561
0.00182082
0.00183709
0.00186809
0.00188754
0.00183233
0.0017333
0.00158663
0.00144583
0.00132679
0.00118438
0.00108765
0.00103605
0.00179229
0.00179436
0.00181
0.00180119
0.00180384
0.00180543
0.00180954
0.00181053
0.00180795
0.00180908
0.00181591
0.00182062
0.0018368
0.00186824
0.00188728
0.00183553
0.00174216
0.00160258
0.00147314
0.00136641
0.00122581
0.00113278
0.00108737
0.00179418
0.00179922
0.00180966
0.00180338
0.00180504
0.00180819
0.00180926
0.00181181
0.00180893
0.00181099
0.00181666
0.00182014
0.00183687
0.0018672
0.00188646
0.00183882
0.00175206
0.00162085
0.00150194
0.00140599
0.0012703
0.0011817
0.00114077
0.0017942
0.00179666
0.00180807
0.00180523
0.00180709
0.00180784
0.0018091
0.00181061
0.00180963
0.00181219
0.00181777
0.00182063
0.00183605
0.00186541
0.00188484
0.00184215
0.00176229
0.00164044
0.00153049
0.00144424
0.00131498
0.00123145
0.00119358
0.00179824
0.00179726
0.0018095
0.00180664
0.0018061
0.00180875
0.00180979
0.00181034
0.0018086
0.00181145
0.00181707
0.00182051
0.00183692
0.00186341
0.00188271
0.00184491
0.00177187
0.00165955
0.00155665
0.00147913
0.00135696
0.00127845
0.00124344
0.00179954
0.00180014
0.00180955
0.00180714
0.00180728
0.00180779
0.00180835
0.00181079
0.00180962
0.00181208
0.00181758
0.00182023
0.00183595
0.0018609
0.00188003
0.00184749
0.0017815
0.00167897
0.00158087
0.00151061
0.00139523
0.0013215
0.00128883
0.00179658
0.00179816
0.00180786
0.00180796
0.00180754
0.00180714
0.00180958
0.00181096
0.00181022
0.00181185
0.00181607
0.00181993
0.00183739
0.00185863
0.00187735
0.00184938
0.00179005
0.00169667
0.00160194
0.00153716
0.0014285
0.00135798
0.00132809
0.00179892
0.00180124
0.00180761
0.00180559
0.00180749
0.00180831
0.00181051
0.0018109
0.00181052
0.0018127
0.00181642
0.00182079
0.0018372
0.00185611
0.00187457
0.00185148
0.0017988
0.00171418
0.00162203
0.00156019
0.00145846
0.00138902
0.00136187
0.00180041
0.00180213
0.00180861
0.00180593
0.00180906
0.00180624
0.00180946
0.00181205
0.00181213
0.001813
0.0018163
0.00182019
0.0018366
0.00185418
0.00187217
0.00185302
0.00180599
0.00172867
0.00163967
0.00157727
0.00148535
0.00141386
0.00138778
0.00179776
0.00179929
0.00180864
0.00180519
0.00180643
0.00180699
0.00180903
0.0018133
0.00181137
0.0018127
0.00181761
0.00182021
0.00183672
0.00185212
0.00186991
0.00185493
0.00181315
0.00174293
0.00165776
0.00159216
0.0015113
0.0014364
0.00140839
0.00180019
0.00180194
0.00180767
0.00180768
0.00180687
0.00180645
0.00180867
0.00181263
0.00181117
0.00181252
0.00181572
0.00182053
0.00183518
0.00185078
0.00186814
0.00185608
0.00181822
0.00175306
0.00167326
0.00160316
0.00153414
0.0014563
0.00142334
0.00180072
0.00180021
0.00180677
0.00180763
0.00180716
0.00180637
0.00180952
0.00181296
0.00181012
0.00181261
0.00181654
0.00181957
0.00183506
0.00184931
0.00186661
0.00185774
0.00182373
0.00176328
0.00168964
0.00161538
0.00155608
0.00147774
0.00143866
0.0018003
0.00180099
0.00180895
0.00180764
0.00180782
0.00180732
0.00180911
0.00181236
0.00181075
0.00181295
0.00181643
0.00182054
0.00183372
0.00184862
0.0018655
0.00185861
0.00182681
0.00176907
0.00170215
0.00162559
0.00157454
0.00149898
0.00145221
0.0018007
0.00180362
0.00180663
0.00180609
0.00180787
0.00180754
0.00181165
0.00181203
0.00181098
0.00181104
0.00181697
0.00181914
0.00183284
0.00184762
0.00186462
0.00186011
0.00183088
0.0017754
0.00171594
0.00163885
0.00159347
0.00152326
0.00147044
0.00180264
0.00180329
0.00180669
0.00180749
0.00180736
0.00180812
0.00181192
0.00181264
0.00181166
0.00181185
0.0018157
0.00182016
0.00183261
0.00184726
0.00186401
0.00186082
0.0018327
0.00177804
0.00172454
0.00165063
0.00161034
0.00154582
0.00148844
0.00179946
0.00180092
0.00180588
0.0018079
0.0018067
0.00180815
0.00181157
0.0018107
0.00181241
0.00181096
0.00181579
0.00182033
0.00183193
0.00184638
0.00186356
0.00186212
0.00183581
0.00178207
0.00173539
0.00166525
0.00162944
0.00157204
0.00151234
0.00180029
0.00180025
0.00180454
0.00180661
0.00180794
0.0018101
0.00180931
0.00181195
0.00181138
0.0018126
0.00181584
0.00182134
0.00183329
0.00184608
0.00186327
0.00186267
0.00183711
0.00178372
0.00174125
0.00167726
0.00164565
0.0015955
0.0015345
0.00180143
0.00179849
0.0018044
0.00180705
0.00180685
0.00180817
0.00180933
0.0018121
0.00181138
0.00181419
0.00181568
0.00182076
0.00183235
0.00184511
0.00186305
0.00186378
0.00183991
0.00178722
0.00175054
0.00169278
0.00166523
0.00162313
0.00156461
0.00180041
0.00179838
0.00180488
0.00180793
0.00180875
0.00180849
0.00181031
0.00180941
0.00181051
0.00181412
0.00181435
0.00182066
0.00183241
0.00184459
0.00186291
0.0018643
0.00184137
0.00178917
0.00175448
0.00170349
0.00167982
0.00164527
0.00158943
0.00180037
0.00179904
0.00180761
0.00180655
0.00181007
0.00180927
0.00180894
0.00181035
0.00181059
0.00181282
0.00181655
0.0018197
0.00183105
0.00184341
0.00186227
0.0018655
0.00184507
0.00179462
0.00176248
0.00171976
0.00169896
0.00167256
0.00162433
0.00180614
0.00179924
0.00180945
0.00180729
0.00180907
0.00180644
0.00181058
0.00180939
0.00181078
0.0018127
0.00181582
0.00181973
0.00183051
0.00184305
0.00186291
0.0018657
0.00184534
0.00179438
0.00176423
0.00172796
0.00171147
0.00168934
0.00164672
0.00180613
0.00180174
0.00181144
0.00180539
0.00180715
0.00180864
0.00181121
0.00181104
0.00181197
0.00181229
0.00181515
0.00181763
0.00182891
0.00184154
0.00186184
0.00186727
0.0018505
0.00180275
0.00177259
0.00174269
0.00173042
0.00171443
0.00168062
0.00180234
0.00180165
0.00181077
0.00180667
0.00180594
0.00180723
0.0018144
0.00181126
0.00181366
0.00181075
0.00181527
0.00181569
0.00182831
0.00184022
0.00186037
0.00186874
0.00185535
0.00181106
0.00178115
0.00175561
0.00174591
0.00173541
0.00171149
0.00180033
0.00180161
0.00180643
0.00180762
0.00180467
0.00180992
0.00181306
0.00181063
0.00181528
0.00181184
0.00181569
0.00181575
0.00182746
0.00183829
0.00185795
0.00186984
0.00186078
0.00182167
0.00179171
0.00176839
0.00176253
0.00175512
0.00174001
0.00179656
0.00180013
0.00180481
0.00180803
0.00180225
0.00181255
0.00180883
0.00181131
0.00181172
0.00181342
0.00181545
0.00181615
0.0018269
0.00183651
0.00185492
0.00187022
0.00186664
0.00183177
0.00180142
0.00178205
0.00177663
0.00177436
0.00176375
0.00180239
0.0017975
0.00180379
0.00180641
0.00180429
0.00181228
0.00180477
0.00181095
0.00181172
0.00181345
0.00181495
0.00181595
0.00182534
0.00183386
0.00185047
0.0018695
0.00187254
0.00184415
0.00181358
0.00179652
0.00179141
0.00179032
0.00178689
0.00180755
0.00179214
0.00180357
0.00181007
0.00180909
0.00181271
0.00180533
0.00181327
0.00181148
0.00181277
0.00181417
0.00181488
0.00182387
0.00183194
0.00184613
0.00186628
0.0018767
0.00185642
0.00182755
0.00181088
0.00180543
0.00180664
0.00180872
0.00181168
0.00179314
0.00180351
0.0018074
0.00180962
0.00180962
0.00180845
0.00181272
0.00181053
0.00181296
0.00181385
0.00181512
0.00182298
0.00182985
0.00184168
0.001861
0.00187796
0.0018683
0.00184401
0.00182653
0.00182112
0.00182305
0.00182833
0.00180924
0.00179816
0.00180241
0.00180569
0.00180942
0.00181047
0.00181025
0.00181185
0.00181296
0.00181353
0.00181397
0.00181541
0.00182221
0.0018286
0.0018378
0.00185359
0.00187444
0.00187763
0.00186046
0.00184492
0.00183786
0.00184195
0.00184775
0.00180853
0.00179941
0.00180286
0.00180372
0.00181001
0.00181196
0.00181124
0.00181174
0.00181281
0.00181403
0.00181415
0.00181547
0.00182116
0.00182653
0.00183389
0.00184607
0.00186726
0.00188099
0.00187244
0.00186307
0.00185636
0.00185769
0.00186686
0.00180978
0.0017997
0.00180377
0.00180259
0.00181055
0.0018146
0.00181214
0.00181218
0.00181286
0.00181386
0.00181425
0.00181552
0.00181989
0.0018247
0.00183033
0.00183802
0.00185623
0.00187732
0.00187862
0.00187564
0.00187124
0.00187161
0.00187658
0.00180752
0.00179982
0.00180379
0.00180201
0.00181012
0.00181554
0.00181169
0.00181235
0.00181207
0.00181338
0.00181347
0.00181468
0.00181845
0.00182229
0.00182779
0.00183271
0.00184375
0.00186622
0.00187641
0.00188076
0.00187994
0.00188091
0.00188442
0.00180292
0.00179975
0.00180316
0.00180222
0.00180894
0.00181359
0.00181036
0.00181174
0.00181126
0.00181221
0.00181287
0.00181367
0.00181658
0.00181976
0.0018246
0.00182834
0.00183483
0.00185198
0.00186663
0.0018769
0.00188067
0.00188279
0.00188631
0.00179752
0.00179937
0.00180232
0.00180256
0.00180713
0.00181011
0.00180817
0.00181047
0.00180971
0.00181139
0.00181135
0.00181207
0.00181515
0.00181765
0.00182232
0.0018257
0.00182756
0.00183803
0.00185187
0.00186497
0.00187321
0.00187752
0.00188197
0.0017952
0.00179845
0.00180175
0.00180287
0.00180519
0.00180661
0.001806
0.0018087
0.00180819
0.00181002
0.00181074
0.0018109
0.00181361
0.00181527
0.00181944
0.00182355
0.00182541
0.00183025
0.00183954
0.00185058
0.00186074
0.00186672
0.00187222
0.00179483
0.00179702
0.00180144
0.00180229
0.00180328
0.00180362
0.00180358
0.0018068
0.00180647
0.00180881
0.00180902
0.00180962
0.00181284
0.00181362
0.00181688
0.0018199
0.00182165
0.00182387
0.00182917
0.00183656
0.00184518
0.00185098
0.00185653
0.00179473
0.00179489
0.00180054
0.0018009
0.00180138
0.00180151
0.0018011
0.00180473
0.00180495
0.00180697
0.00180779
0.00180795
0.00181127
0.0018116
0.00181456
0.00181734
0.00182039
0.00182153
0.00182462
0.00182908
0.00183604
0.00184142
0.00184673
0.00179324
0.00179229
0.00179867
0.00179845
0.00179968
0.00179929
0.00179849
0.00180259
0.00180328
0.00180526
0.00180574
0.00180577
0.00180929
0.00180908
0.00181081
0.0018125
0.00181551
0.00181666
0.00181838
0.00182012
0.00182383
0.00182693
0.00183099
0.00178961
0.00178928
0.00179562
0.00179564
0.00179782
0.00179756
0.00179565
0.00179994
0.00180163
0.00180322
0.00180399
0.00180371
0.00180627
0.00180698
0.00180784
0.00180865
0.00181153
0.00181382
0.0018167
0.00181855
0.00182183
0.00182383
0.00182607
0.00178485
0.00178615
0.00179203
0.00179252
0.00179617
0.00179526
0.00179353
0.00179736
0.00179909
0.00180101
0.0018019
0.00180129
0.00180331
0.0018032
0.00180487
0.00180503
0.00180626
0.00180724
0.00180901
0.00180996
0.00181224
0.0018141