/*--------------------------------*- C++ -*----------------------------------*\
  =========                 |
  \\      /  F ield         | OpenFOAM: The Open Source CFD Toolbox
   \\    /   O peration     | Website:  https://openfoam.org
    \\  /    A nd           | Version:  7
     \\/     M anipulation  |
\*---------------------------------------------------------------------------*/
FoamFile
{
    version     2.0;
    format      ascii;
    class       volScalarField;
    location    "50";
    object      omega;
}
// * * * * * * * * * * * * * * * * * * * * * * * * * * * * * * * * * * * * * //

dimensions      [0 0 -1 0 0 0 0];

internalField   nonuniform List<scalar> 
12842
(
3.15066
2.85209
2.6615
2.53418
2.44632
2.38293
2.33873
2.302
2.27851
2.25823
2.24597
2.23513
2.22989
2.22524
2.22628
2.23092
2.23967
2.26173
2.28822
2.34158
2.38436
2.45128
2.48817
3.14108
2.84445
2.6468
2.52067
2.43367
2.37446
2.33553
2.30041
2.27762
2.25761
2.24546
2.23496
2.22974
2.22557
2.22712
2.23245
2.24304
2.26493
2.29476
2.35052
2.39578
2.46502
2.50079
3.12228
2.82316
2.63434
2.50352
2.41554
2.35559
2.32152
2.2908
2.27021
2.25137
2.24062
2.23201
2.22779
2.22532
2.22725
2.23327
2.24541
2.26764
2.30059
2.35877
2.40408
2.47436
2.513
3.11092
2.79057
2.61293
2.49388
2.40935
2.34622
2.31437
2.28651
2.26715
2.24895
2.23797
2.23002
2.22537
2.22462
2.2271
2.23397
2.24744
2.27075
2.30661
2.36753
2.41921
2.48808
2.52188
3.08769
2.76787
2.57931
2.46554
2.38889
2.32891
2.29641
2.27513
2.25931
2.24338
2.23509
2.22774
2.22312
2.22365
2.22672
2.23465
2.25011
2.27607
2.31577
2.38069
2.43484
2.50345
2.53394
3.0711
2.74186
2.56498
2.45355
2.38004
2.3228
2.28837
2.26923
2.25538
2.23967
2.23194
2.22544
2.22086
2.22199
2.22622
2.23548
2.25242
2.2806
2.32356
2.39343
2.44627
2.50848
2.54424
3.04669
2.71596
2.53531
2.42841
2.36029
2.30969
2.27525
2.25675
2.24672
2.23495
2.22961
2.22387
2.21983
2.22129
2.22616
2.23666
2.25568
2.28673
2.33317
2.40698
2.45928
2.51493
2.54909
3.03109
2.69508
2.52232
2.41853
2.35228
2.30499
2.27086
2.25198
2.24182
2.23037
2.22449
2.22004
2.21785
2.21997
2.226
2.23785
2.25875
2.29253
2.34149
2.41656
2.46402
2.52309
2.55599
3.00401
2.67102
2.49809
2.39931
2.33836
2.29564
2.26283
2.24433
2.2349
2.2257
2.2211
2.21721
2.21653
2.21903
2.22587
2.23907
2.2619
2.29807
2.34744
2.42101
2.46571
2.52924
2.56491
2.99323
2.65178
2.48285
2.38828
2.33055
2.29192
2.25993
2.24159
2.23138
2.22288
2.2179
2.21507
2.2154
2.21852
2.2261
2.24041
2.2644
2.30139
2.35088
2.42349
2.47255
2.53975
2.5945
2.96085
2.62772
2.46318
2.37208
2.31966
2.28421
2.254
2.2362
2.22706
2.21956
2.21551
2.21343
2.21456
2.21827
2.22651
2.24184
2.26668
2.30332
2.3538
2.42885
2.48366
2.57381
2.63825
2.94917
2.61143
2.44846
2.36175
2.31246
2.28037
2.25131
2.23367
2.22473
2.21813
2.21337
2.21229
2.21386
2.21801
2.22703
2.24308
2.26836
2.3049
2.35852
2.44429
2.51617
2.62866
2.72389
2.91825
2.58975
2.43302
2.34792
2.30211
2.27258
2.24585
2.22921
2.22164
2.21569
2.21158
2.21119
2.2131
2.21775
2.22765
2.24439
2.26939
2.30777
2.36808
2.47175
2.57088
2.71186
2.82464
2.90699
2.57477
2.41947
2.34004
2.2954
2.26817
2.24323
2.22722
2.2202
2.21442
2.20951
2.20981
2.21198
2.21711
2.22852
2.24527
2.27107
2.31461
2.39058
2.52562
2.6445
2.81204
2.94125
2.87855
2.55608
2.40783
2.32797
2.28556
2.26027
2.23833
2.22353
2.21767
2.21178
2.2074
2.20811
2.21053
2.21649
2.22884
2.24573
2.2752
2.3338
2.43013
2.58982
2.74574
2.93796
3.07858
2.86863
2.54205
2.39561
2.32126
2.27904
2.25619
2.23607
2.22169
2.21616
2.21018
2.20518
2.20587
2.20901
2.21616
2.22895
2.24815
2.28606
2.3717
2.48826
2.68266
2.85647
3.0758
3.22757
2.84325
2.52562
2.38734
2.31058
2.27031
2.24965
2.23176
2.218
2.21271
2.20648
2.20238
2.20375
2.20749
2.21608
2.2299
2.25517
2.31423
2.42855
2.56307
2.78003
2.98465
3.23202
3.38699
2.8353
2.51264
2.37598
2.30397
2.26475
2.24657
2.22948
2.21584
2.2106
2.20448
2.20006
2.20143
2.20695
2.21726
2.239
2.27958
2.363
2.50165
2.65464
2.90427
3.12264
3.3883
3.5658
2.81316
2.49835
2.36924
2.29498
2.25883
2.24132
2.22471
2.21109
2.20568
2.20056
2.19701
2.19942
2.20751
2.22804
2.26587
2.32216
2.42792
2.58778
2.75588
3.02105
3.26627
3.56234
3.73666
2.80737
2.48701
2.35883
2.28896
2.25452
2.23816
2.22169
2.20822
2.20369
2.19896
2.19614
2.19973
2.21715
2.25603
2.31056
2.38189
2.50917
2.68403
2.86849
3.15818
3.41822
3.72691
3.93327
2.78813
2.47507
2.35251
2.28294
2.25163
2.23387
2.21434
2.20237
2.20049
2.19679
2.19504
2.20058
2.23942
2.29952
2.36919
2.45402
2.59783
2.78504
2.98222
3.28227
3.5696
3.90685
4.11091
2.78413
2.46518
2.34335
2.2775
2.2472
2.22801
2.21003
2.19947
2.20059
2.19847
2.19952
2.21773
2.28094
2.35798
2.44023
2.53702
2.69433
2.8901
3.1009
3.41766
3.71823
4.07928
4.31482
2.76611
2.45623
2.33809
2.27379
2.24491
2.22447
2.20209
2.19541
2.19963
2.19874
2.20348
2.2401
2.33058
2.42456
2.51677
2.62279
2.78985
2.99259
3.21496
3.541
3.85449
4.25284
4.50457
2.76159
2.44866
2.33303
2.27074
2.24163
2.2168
2.19828
2.19262
2.20358
2.20815
2.22699
2.29184
2.40207
2.50527
2.60225
2.71531
2.88732
3.09489
3.32831
3.6658
3.99614
4.40617
4.70197
2.75414
2.44491
2.33109
2.26763
2.2382
2.21357
2.19532
2.19282
2.21712
2.23219
2.2683
2.35193
2.47607
2.58503
2.68468
2.80282
2.98038
3.1928
3.43844
3.78671
4.12471
4.56987
4.88072
2.74921
2.44113
2.32877
2.26472
2.23481
2.21
2.19278
2.19566
2.24449
2.27254
2.32592
2.42228
2.5536
2.66454
2.76507
2.88833
3.06718
3.28448
3.54045
3.89702
4.25695
4.70469
5.05064
2.73933
2.43939
2.32711
2.26071
2.23061
2.20704
2.19236
2.21039
2.28556
2.32586
2.39238
2.4986
2.63255
2.74242
2.84205
2.96762
3.14979
3.37068
3.63698
4.00296
4.37035
4.84504
5.20561
2.73439
2.43664
2.32361
2.25711
2.22923
2.2064
2.19653
2.24266
2.33739
2.38857
2.46908
2.57972
2.70991
2.81601
2.9141
3.04265
3.22375
3.44904
3.72505
4.09726
4.48543
4.95931
5.34158
2.72418
2.43482
2.31971
2.25141
2.23077
2.21051
2.21417
2.29223
2.39898
2.4606
2.54805
2.65923
2.78414
2.88518
2.98104
3.10983
3.29273
3.5209
3.80456
4.18447
4.58501
5.0757
5.47197
2.71885
2.4307
2.31388
2.25007
2.23701
2.22527
2.24793
2.35295
2.46751
2.53551
2.6302
2.73812
2.85313
2.94752
3.04121
3.17145
3.35262
3.58482
3.87888
4.2658
4.68384
5.17373
5.58574
2.7082
2.42771
2.30835
2.24659
2.25649
2.25662
2.29707
2.42445
2.53839
2.61337
2.70801
2.8105
2.91647
3.00444
3.09606
3.2252
3.4072
3.64281
3.94316
4.33759
4.77071
5.26889
5.68819
2.70277
2.41961
2.30256
2.2491
2.28388
2.3005
2.35452
2.4971
2.6116
2.68891
2.78305
2.87711
2.97302
3.05396
3.14377
3.27347
3.45437
3.69356
4.00508
4.40651
4.85506
5.35155
5.79028
2.69271
2.41479
2.29661
2.25882
2.32058
2.35445
2.42106
2.57174
2.68134
2.76104
2.85
2.93591
3.02302
3.098
3.18662
3.31452
3.49581
3.73985
4.05782
4.46865
4.93255
5.43335
5.86974
2.68791
2.40592
2.29582
2.27929
2.36472
2.41687
2.48886
2.64121
2.74725
2.82674
2.91013
2.98694
3.06625
3.13547
3.22293
3.35114
3.53259
3.77999
4.10925
4.52539
5.00111
5.49981
5.95821
2.67868
2.40268
2.2935
2.30739
2.41005
2.47948
2.55723
2.70673
2.80867
2.886
2.96239
3.02946
3.10327
3.16805
3.25508
3.38128
3.56341
3.81713
4.15325
4.57906
5.069
5.57539
6.02741
2.67395
2.3969
2.29959
2.34173
2.46076
2.54522
2.6236
2.76481
2.86095
2.93578
3.00482
3.06648
3.13454
3.19535
3.28184
3.40858
3.59208
3.84913
4.19552
4.62525
5.1231
5.62931
6.0962
2.6645
2.39523
2.31734
2.38006
2.50703
2.60465
2.68445
2.81727
2.90886
2.97885
3.04276
3.09503
3.16058
3.21893
3.30522
3.43014
3.61515
3.87943
4.23325
4.67199
5.17965
5.69193
6.15113
2.65829
2.39958
2.33947
2.42069
2.55553
2.6619
2.74118
2.86129
2.94729
3.01408
3.07024
3.12118
3.18235
3.23833
3.32448
3.45033
3.63765
3.90503
4.26724
4.70998
5.22044
5.73301
6.20346
2.6476
2.404
2.37141
2.46347
2.59928
2.71193
2.79088
2.90041
2.98053
3.044
3.09692
3.14159
3.1999
3.25534
3.3411
3.46564
3.65508
3.92981
4.30023
4.75351
5.2681
5.77839
6.23608
2.6403
2.41741
2.40503
2.50576
2.64074
2.7563
2.83412
2.93223
3.00839
3.06936
3.11628
3.16023
3.21482
3.26899
3.35466
3.48058
3.67296
3.95065
4.32811
4.78663
5.29466
5.80422
6.28108
2.63284
2.42933
2.44345
2.54918
2.68042
2.79462
2.87309
2.96054
3.03218
3.09383
3.13706
3.17431
3.22639
3.28133
3.36634
3.49132
3.68593
3.97052
4.35556
4.82554
5.33981
5.84394
6.30703
2.62442
2.4492
2.48591
2.59104
2.71749
2.82943
2.90516
2.98775
3.05399
3.11131
3.14945
3.18578
3.23689
3.29102
3.37571
3.50242
3.70004
3.98789
4.38035
4.85832
5.36262
5.86539
6.34497
2.62335
2.47125
2.53048
2.6334
2.75325
2.85979
2.93609
3.01128
3.07304
3.12389
3.15803
3.19546
3.24456
3.29989
3.38375
3.50977
3.7096
4.00408
4.40211
4.89451
5.41048
5.91409
6.38928
2.6233
2.50286
2.58045
2.67618
2.79027
2.89069
2.96286
3.03539
3.09083
3.13592
3.16448
3.2032
3.25238
3.30711
3.39038
3.51796
3.72041
4.018
4.42803
4.9368
5.43951
5.94986
6.44119
2.63238
2.5384
2.63137
2.71891
2.82418
2.92001
2.99051
3.05325
3.10594
3.14235
3.17195
3.20886
3.25756
3.31317
3.39551
3.52293
3.72782
4.03135
4.44765
4.98129
5.48949
6.02038
6.52037
2.64526
2.58092
2.68342
2.76457
2.86039
2.95164
3.01541
3.07103
3.11589
3.14911
3.17319
3.21281
3.26387
3.31904
3.40047
3.52888
3.73515
4.04494
4.47705
5.03113
5.53864
6.09079
6.58969
2.6637
2.62702
2.73527
2.8074
2.89281
2.97997
3.0406
3.08403
3.12124
3.15393
3.17378
3.21566
3.2675
3.32296
3.40359
3.53247
3.74429
4.05686
4.49521
5.08935
5.58988
6.17258
6.67734
2.68529
2.67445
2.78229
2.852
2.92713
3.00815
3.06115
3.09871
3.12703
3.15776
3.17691
3.21857
3.27281
3.32788
3.40717
3.53678
3.75347
4.07787
4.52542
5.14134
5.65819
6.25752
6.75874
2.70808
2.72196
2.8267
2.89138
2.95569
3.03169
3.08101
3.10947
3.13143
3.16074
3.17904
3.22079
3.27572
3.33059
3.40917
3.5403
3.75598
4.09353
4.54409
5.20271
5.7121
6.33602
6.84142
2.73646
2.76617
2.86947
2.93076
2.98385
3.05458
3.09618
3.12102
3.13566
3.1646
3.18396
3.22423
3.28016
3.33451
3.41101
3.53962
3.77588
4.12305
4.57503
5.25046
5.7662
6.38675
6.90741
2.76346
2.80487
2.90662
2.96258
3.00493
3.07205
3.1093
3.1296
3.13981
3.16885
3.18781
3.2267
3.28297
3.3365
3.41168
3.54627
3.77699
4.12791
4.59318
5.2833
5.79851
6.43883
6.95526
2.79233
2.83612
2.93711
2.98955
3.0239
3.08736
3.11882
3.13785
3.14418
3.17298
3.19342
3.23059
3.28655
3.33946
3.41249
3.54621
3.77966
4.12951
4.62435
5.30564
5.83955
6.46113
7.00463
2.81815
2.8633
2.95944
3.01107
3.03947
3.09984
3.12719
3.14423
3.14989
3.17672
3.19775
3.23337
3.2895
3.34081
3.41297
3.54306
3.77614
4.11298
4.6283
5.32984
5.84499
6.47602
7.01892
2.84239
2.88698
2.97886
3.02871
3.05435
3.11099
3.13467
3.15046
3.15614
3.1809
3.20255
3.23729
3.29282
3.34296
3.41384
3.5417
3.77307
4.11592
4.65214
5.34596
5.88105
6.47849
7.0722
2.86433
2.90822
2.99396
3.04347
3.0675
3.12118
3.14227
3.15635
3.16329
3.18528
3.20665
3.24027
3.29582
3.34414
3.41457
3.54073
3.75898
4.09569
4.64051
5.35304
5.87146
6.48597
7.06725
2.88392
2.92757
3.00754
3.05667
3.0798
3.13083
3.15033
3.16252
3.17055
3.19019
3.21114
3.24415
3.29902
3.34614
3.4163
3.54209
3.75223
4.09259
4.6339
5.37681
5.86699
6.50982
7.06431
2.90202
2.9437
3.01812
3.068
3.08937
3.13869
3.15722
3.16806
3.17677
3.19433
3.21488
3.24716
3.3014
3.34688
3.41758
3.54113
3.74217
4.06841
4.58408
5.35221
5.81765
6.46625
7.00321
2.91811
2.95861
3.02848
3.07843
3.09786
3.14548
3.1638
3.17341
3.18237
3.19848
3.21868
3.25044
3.30337
3.34783
3.41873
3.54038
3.73625
4.05018
4.54576
5.32356
5.78569
6.45651
7.00909
2.93456
2.97234
3.0383
3.08856
3.10513
3.15101
3.16953
3.17849
3.18751
3.20239
3.22233
3.2537
3.30546
3.34863
3.42058
3.54146
3.73368
4.03904
4.52247
5.29853
5.78485
6.54302
7.19627
2.95037
2.98679
3.04922
3.09811
3.11246
3.15575
3.17496
3.18366
3.19217
3.20646
3.22619
3.25707
3.30724
3.34972
3.42319
3.54399
3.73513
4.03608
4.51498
5.31994
5.86656
6.70111
7.62387
2.96676
3.00081
3.0603
3.10786
3.11907
3.15984
3.17991
3.18837
3.19672
3.21065
3.22999
3.26063
3.30909
3.35093
3.42633
3.54833
3.74256
4.0418
4.54543
5.3872
5.97234
6.9439
7.832
2.98215
3.01568
3.07186
3.11668
3.12716
3.16365
3.18456
3.19372
3.20127
3.21494
3.23406
3.2639
3.31127
3.35305
3.43126
3.55862
3.76134
4.08137
4.62239
5.49466
6.1834
6.99831
7.9637
2.99844
3.03065
3.08367
3.12596
3.13442
3.16808
3.18954
3.19863
3.20598
3.2196
3.23839
3.26764
3.31343
3.35525
3.43676
3.56749
3.79273
4.13516
4.73732
5.64591
6.31009
7.0437
8.09218
3.01249
3.0453
3.09472
3.13443
3.14413
3.17284
3.19412
3.20437
3.21101
3.22414
3.24243
3.27077
3.31361
3.35868
3.44316
3.58505
3.82317
4.20277
4.84187
5.7015
6.40367
7.08619
8.15349
3.02821
3.06063
3.10573
3.14304
3.15241
3.1786
3.1994
3.20995
3.21652
3.22874
3.24735
3.27435
3.31407
3.36085
3.44969
3.5972
3.8519
4.27751
4.91071
5.73242
6.3947
7.107
8.19993
3.04065
3.07433
3.11606
3.15129
3.16327
3.18535
3.20458
3.2161
3.22175
3.23352
3.25103
3.27729
3.31475
3.36194
3.45053
3.60725
3.87445
4.28941
4.94714
5.75549
6.43548
7.11962
8.22746
3.05547
3.08921
3.12535
3.15965
3.17183
3.19239
3.20992
3.22206
3.22819
3.23751
3.25578
3.28048
3.31647
3.36239
3.45157
3.60753
3.87513
4.30249
4.9636
5.81056
6.44802
7.12527
8.25014
3.06662
3.10206
3.13531
3.16739
3.18284
3.20009
3.21586
3.22831
3.23329
3.24222
3.25933
3.28285
3.31609
3.36258
3.45333
3.6121
3.87724
4.32742
4.96076
5.80045
6.46375
7.14317
8.1996
3.08092
3.11546
3.14346
3.17585
3.19072
3.20814
3.22114
3.23422
3.23975
3.24588
3.26287
3.28574
3.31615
3.36283
3.45523
3.60975
3.89006
4.3393
4.95924
5.80329
6.42189
7.1436
8.24991
3.09047
3.12825
3.1528
3.1834
3.20058
3.21522
3.22749
3.23985
3.24521
3.25023
3.26681
3.28796
3.3171
3.36234
3.45406
3.61231
3.88484
4.35739
4.97226
5.8103
6.42726
7.21505
8.1232
3.10571
3.13992
3.1612
3.19225
3.20822
3.22357
3.23287
3.24657
3.25153
3.25436
3.26974
3.29057
3.31641
3.36268
3.45392
3.61148
3.88501
4.34527
4.98246
5.83568
6.41911
7.16186
8.10912
3.11638
3.1536
3.17115
3.2009
3.21707
3.23138
3.24042
3.25225
3.25786
3.25983
3.27418
3.29454
3.31675
3.3614
3.45382
3.61353
3.88495
4.35337
4.9516
5.82308
6.41442
7.18294
8.14979
3.13224
3.16553
3.18127
3.2113
3.22526
3.23941
3.2466
3.25992
3.26398
3.26495
3.27931
3.29568
3.3158
3.3612
3.45447
3.60932
3.88819
4.33477
4.9497
5.77434
6.42097
7.14328
7.99115
3.14978
3.18051
3.19334
3.22056
3.23488
3.24824
3.25531
3.26609
3.2709
3.27149
3.28033
3.29654
3.31591
3.36141
3.45192
3.60856
3.88284
4.33204
4.95426
5.65092
6.37759
7.08452
7.70611
3.1634
3.19424
3.20728
3.23273
3.24306
3.25493
3.2637
3.27054
3.27353
3.27654
3.28149
3.29702
3.31573
3.35988
3.45135
3.60801
3.87648
4.3317
4.89889
5.48674
6.21724
6.87835
7.34578
3.17334
3.20623
3.2108
3.23993
3.25172
3.26056
3.26506
3.27202
3.27457
3.27943
3.28378
3.29851
3.31572
3.35972
3.45138
3.5991
3.85349
4.29483
4.80411
5.30184
5.99485
6.59428
6.95301
3.18283
3.20756
3.21422
3.24501
3.25473
3.26211
3.26649
3.27258
3.27703
3.28201
3.28553
3.29772
3.31589
3.36024
3.44738
3.58445
3.82036
4.23439
4.68802
5.11128
5.74321
6.27516
6.55925
3.18297
3.20943
3.22091
3.24471
3.25621
3.26257
3.26824
3.27303
3.27679
3.28152
3.28539
3.29848
3.31579
3.36015
3.4414
3.56733
3.78266
4.16277
4.56628
4.92763
5.49096
5.9566
6.1894
3.188
3.21289
3.22719
3.2453
3.25713
3.26296
3.26927
3.27472
3.27722
3.28152
3.28541
3.29719
3.31542
3.35873
3.43399
3.54869
3.74291
4.08641
4.44708
4.75733
5.25522
5.66014
5.85698
3.18582
3.21411
3.22617
3.24615
3.25743
3.26379
3.2709
3.27545
3.27998
3.28298
3.28552
3.29722
3.315
3.35702
3.42655
3.53095
3.7053
4.01297
4.33862
4.60744
5.04846
5.40163
5.57123
3.1882
3.21432
3.2287
3.24677
3.25839
3.26385
3.27281
3.27544
3.27934
3.282
3.28553
3.2971
3.31502
3.35494
3.41888
3.51366
3.66979
3.94322
4.24089
4.47771
4.87186
5.18406
5.33224
3.19114
3.21629
3.22941
3.24716
3.25642
3.26555
3.27234
3.27519
3.2792
3.28232
3.28662
3.2975
3.31331
3.35302
3.41195
3.49889
3.63953
3.88244
4.15756
4.37084
4.72684
5.01016
5.1403
3.1882
3.21342
3.23055
3.2494
3.25634
3.26519
3.27201
3.27551
3.27906
3.2828
3.28624
3.29654
3.31295
3.35091
3.40502
3.48494
3.61209
3.82726
4.08316
4.2821
4.60418
4.87129
4.98587
3.1883
3.21348
3.22769
3.2488
3.25615
3.2668
3.27183
3.27353
3.27892
3.28101
3.2871
3.29583
3.31302
3.34907
3.39916
3.47405
3.59061
3.78293
4.0209
4.21531
4.50087
4.76316
4.87094
3.18878
3.21472
3.22721
3.25046
3.25887
3.26514
3.27284
3.27368
3.27901
3.28103
3.28538
3.29551
3.31111
3.34696
3.39315
3.46342
3.57065
3.7431
3.96295
4.16043
4.40794
4.67086
4.78283
3.18443
3.21327
3.22813
3.24745
3.25712
3.26559
3.27295
3.27326
3.28048
3.28119
3.28674
3.29526
3.31253
3.34526
3.38842
3.45588
3.5564
3.71426
3.91567
4.11898
4.33078
4.59261
4.71802
3.18391
3.21276
3.22916
3.24731
3.25646
3.26531
3.27186
3.27362
3.28014
3.28086
3.285
3.29485
3.31078
3.34311
3.38319
3.44755
3.54182
3.68798
3.86999
4.07838
4.26023
4.51395
4.65685
3.18386
3.21338
3.22562
3.24768
3.25591
3.26468
3.27226
3.27216
3.27892
3.28089
3.28499
3.2945
3.3118
3.34143
3.37947
3.44202
3.53259
3.6715
3.83549
4.04495
4.20403
4.44146
4.6029
3.18311
3.20893
3.22544
3.24788
3.25562
3.26431
3.2695
3.27234
3.27836
3.28197
3.28412
3.29509
3.31125
3.33908
3.37485
3.43481
3.52134
3.65501
3.80049
4.00586
4.14761
4.36309
4.53809
3.1816
3.20874
3.22454
3.24595
3.25422
3.26263
3.26919
3.27157
3.27711
3.28232
3.28374
3.29452
3.31024
3.33747
3.37194
3.43035
3.51492
3.64613
3.77721
3.9727
4.10037
4.2934
4.47646
3.18123
3.21123
3.22394
3.24528
3.25391
3.26144
3.26996
3.27195
3.27663
3.28162
3.28301
3.29387
3.3091
3.33493
3.36771
3.4237
3.50513
3.6341
3.75024
3.93173
4.04723
4.21591
4.39898
3.17876
3.21046
3.22576
3.24272
3.25168
3.25766
3.27024
3.26908
3.2755
3.27945
3.28304
3.2912
3.3052
3.33328
3.36533
3.41999
3.49993
3.62798
3.73441
3.89945
4.00343
4.1501
4.3288
3.17742
3.20894
3.22423
3.24063
3.25251
3.25694
3.26921
3.26898
3.27496
3.27607
3.28027
3.29025
3.30425
3.33046
3.3612
3.41355
3.49014
3.61628
3.71094
3.85854
3.9513
4.07455
4.24082
3.17191
3.20727
3.22246
3.23869
3.24864
3.25569
3.26715
3.27028
3.27505
3.27517
3.28228
3.28869
3.30266
3.32897
3.35906
3.41025
3.48508
3.60989
3.70024
3.82924
3.91186
4.01637
4.16978
3.17083
3.20277
3.21725
3.23583
3.24839
3.25479
3.2655
3.27087
3.27448
3.27498
3.27973
3.28816
3.30171
3.32563
3.35449
3.40271
3.47318
3.59388
3.67807
3.78909
3.8613
3.9457
4.07678
3.1632
3.20125
3.21584
3.23511
3.24911
3.25559
3.26186
3.26944
3.27288
3.27361
3.28115
3.28705
3.30221
3.32453
3.35274
3.40103
3.47081
3.59209
3.67093
3.76575
3.82886
3.90106
4.0154
3.16251
3.19424
3.20994
3.23637
3.25026
3.25482
3.26033
3.26666
3.26993
3.27326
3.28027
3.28618
3.30042
3.32056
3.3475
3.3919
3.45588
3.5709
3.64836
3.72742
3.78097
3.83717
3.92683
3.16485
3.19283
3.20835
3.236
3.24853
3.25253
3.25494
3.26378
3.26798
3.27117
3.27749
3.28669
3.29712
3.31597
3.34143
3.38217
3.44062
3.54816
3.62663
3.69443
3.73975
3.78434
3.8511
3.16432
3.19474
3.20871
3.23173
3.2441
3.24893
3.25326
3.26096
3.26425
3.26765
3.27444
3.28424
3.29292
3.31154
3.33539
3.37197
3.42408
3.5211
3.6015
3.66177
3.6994
3.73609
3.78288
3.15874
3.19197
3.20574
3.22481
3.23858
3.24036
3.25374
3.2578
3.26311
3.26487
3.27143
3.28046
3.28788
3.30602
3.32789
3.36065
3.40652
3.4914
3.57296
3.6297
3.66113
3.69078
3.7241
3.14513
3.18593
3.19947
3.21507
3.23134
3.23592
3.25069
3.25306
3.25871
3.26129
3.2671
3.27548
3.28388
3.30134
3.32082
3.34919
3.38833
3.45892
3.5391
3.59478
3.62273
3.64717
3.67126
3.13885
3.17944
3.19415
3.20197
3.22319
3.22906
3.24589
3.24679
3.25178
3.25641
3.26268
3.2703
3.27884
3.29444
3.31156
3.33711
3.36999
3.4264
3.50127
3.55741
3.58387
3.60478
3.62233
3.12647
3.17183
3.18789
3.1972
3.21689
3.22855
3.23983
3.24072
3.24542
3.25026
3.25664
3.26392
3.27245
3.2872
3.30257
3.32466
3.35151
3.39468
3.45986
3.51475
3.54232
3.55956
3.57504
3.1245
3.16329
3.18021
3.19766
3.20976
3.22079
3.23139
3.2344
3.23972
3.24388
3.24963
3.25628
3.26378
3.27683
3.2912
3.3118
3.33349
3.36585
3.41874
3.46936
3.50006
3.51441
3.52796
3.11403
3.15237
3.16927
3.19082
3.19843
3.20929
3.2202
3.22482
3.23195
3.23532
3.24052
3.24671
3.25402
3.26697
3.27981
3.29758
3.31558
3.33935
3.37929
3.42203
3.45376
3.46832
3.47959
3.09733
3.13987
3.15752
3.18114
3.186
3.19433
3.20759
3.21346
3.2225
3.22646
3.23063
3.23591
3.24257
3.25462
3.26658
3.28344
3.2982
3.31546
3.34445
3.37844
3.40876
3.42439
3.43465
3.0819
3.12395
3.14192
3.16732
3.1717
3.1781
3.19289
3.19957
3.20995
3.21388
3.21827
3.22344
3.23002
3.24214
3.25191
3.26629
3.2801
3.29271
3.3132
3.33744
3.36344
3.37975
3.39172
3.06641
3.10641
3.12344
3.15099
3.15675
3.16406
3.17859
3.18532
3.19622
3.20092
3.20455
3.20947
3.21549
3.22688
3.23633
3.24897
3.2612
3.27075
3.2863
3.30342
3.32376
3.33788
3.35077
3.04652
3.08467
3.10039
3.12987
3.13793
3.14748
3.16093
3.1676
3.17831
3.1825
3.18724
3.1927
3.19837
3.20902
3.21683
3.22746
3.24007
3.24795
3.25953
3.27098
3.28665
3.29815
3.31067
3.02455
3.06162
3.07678
3.10711
3.11755
3.12937
3.14238
3.14877
3.15908
3.16383
3.16803
3.17344
3.17862
3.18867
3.19664
3.20453
3.21568
3.22358
3.23387
3.24234
3.25381
3.26167
3.27186
2.99701
3.03352
3.04893
3.07934
3.09149
3.10503
3.1181
3.12438
3.13384
3.13847
3.14392
3.14964
3.15423
3.16267
3.17079
3.17773
3.18788
3.19488
3.20377
3.21062
3.22089
3.22786
3.23679
2.9681
3.00433
3.02027
3.05021
3.06401
3.07822
3.09233
3.09844
3.10759
3.11338
3.1181
3.12359
3.12797
3.13562
3.14353
3.14907
3.15805
3.16516
3.1739
3.17927
3.18712
3.19143
3.19834
2.93135
2.9683
2.98429
3.01379
3.02871
3.04368
3.05804
3.06451
3.0733
3.07957
3.08541
3.09129
3.0951
3.1016
3.10931
3.11391
3.1213
3.12684
3.13567
3.14119
3.15001
3.15533
3.16223
2.8915
2.93046
2.94641
2.97541
2.99208
3.00709
3.02211
3.02918
3.03828
3.04571
3.05097
3.05667
3.06208
3.06702
3.07525
3.08013
3.0865
3.09028
3.09699
3.10072
3.10719
3.11103
3.11783
2.84083
2.88257
2.89845
2.92705
2.94468
2.96042
2.97443
2.98242
2.99201
2.99994
3.00622
3.01189
3.01718
3.02248
3.02862
3.03337
3.04012
3.0437
3.04986
3.05365
3.05965
3.0627
3.06798
2.78877
2.83269
2.84943
2.87755
2.89645
2.91261
2.92635
2.93532
2.94528
2.95407
2.96048
2.96593
2.97247
2.97732
2.98538
2.98925
2.99573
2.99887
3.00377
3.00668
3.01212
3.0154
3.02124
2.72575
2.77012
2.78881
2.81497
2.83431
2.85075
2.86339
2.87272
2.88382
2.89219
2.89901
2.90487
2.91049
2.91558
2.92163
2.92645
2.9319
2.93539
2.93992
2.94219
2.94613
2.94882
2.9543
2.66537
2.70797
2.72973
2.75381
2.77341
2.79009
2.8026
2.81273
2.82296
2.83367
2.83964
2.8455
2.85184
2.8565
2.86371
2.86835
2.87427
2.87759
2.88216
2.88479
2.88848
2.89038
2.89453
2.59183
2.63065
2.65535
2.67643
2.69529
2.7103
2.72244
2.73298
2.7433
2.75156
2.76047
2.76504
2.77168
2.77598
2.78106
2.78499
2.79013
2.79259
2.79686
2.79917
2.80323
2.80563
2.80958
2.52447
2.55836
2.58567
2.60536
2.62316
2.63723
2.64847
2.65957
2.66967
2.67872
2.68505
2.69206
2.69825
2.70374
2.71064
2.7152
2.72027
2.72421
2.72795
2.73009
2.73463
2.73636
2.7405
2.43788
2.46593
2.49384
2.51207
2.52793
2.5392
2.54921
2.55993
2.56952
2.5769
2.58369
2.58791
2.59399
2.59911
2.603
2.60898
2.6132
2.61676
2.62142
2.62355
2.62706
2.63104
2.63261
2.363
2.38573
2.4128
2.43151
2.44686
2.45688
2.46525
2.47467
2.48445
2.49259
2.49798
2.5034
2.50721
2.51341
2.51775
2.52188
2.52732
2.53035
2.53595
2.53863
2.54262
2.54654
2.55215
2.25922
2.27575
2.29889
2.31558
2.32871
2.33765
2.34458
2.35272
2.35979
2.36685
2.37195
2.37507
2.37783
2.38042
2.38436
2.38684
2.3908
2.39355
2.39747
2.40038
2.40438
2.40653
2.41174
2.17916
2.19121
2.21026
2.22666
2.23836
2.24616
2.25256
2.26029
2.26801
2.2752
2.28049
2.28506
2.28745
2.28926
2.2919
2.29443
2.29841
2.30167
2.30565
2.30952
2.31365
2.31787
2.32185
2.05284
2.05924
2.06909
2.08007
2.08801
2.09239
2.09563
2.09947
2.10421
2.10948
2.11431
2.1172
2.12157
2.12196
2.12274
2.124
2.12635
2.12973
2.13308
2.13726
2.14005
2.14461
2.14791
1.98087
1.98287
1.98901
1.99748
2.00428
2.00825
2.01101
2.01405
2.01779
2.02258
2.02748
2.03085
2.03508
2.03748
2.03828
2.03936
2.04123
2.04446
2.04728
2.05187
2.05403
2.0587
2.06122
1.80215
1.80085
1.79773
1.79678
1.79642
1.79601
1.79501
1.79415
1.79259
1.79296
1.79405
1.79619
1.79847
1.80169
1.80161
1.80216
1.80438
1.80509
1.80619
1.80912
1.81186
1.81455
1.81804
3.05064
2.71824
2.53596
2.43019
2.36246
2.31521
2.279
2.25865
2.2422
2.22955
2.22142
2.21355
2.20906
2.20986
2.21328
2.22111
2.23541
2.25903
2.29601
2.34421
2.41623
2.46707
2.54592
3.06414
2.73593
2.55415
2.44798
2.37549
2.32103
2.28374
2.26373
2.24791
2.23352
2.22515
2.21672
2.21145
2.21209
2.21519
2.22243
2.2359
2.2588
2.29363
2.34349
2.41677
2.46208
2.52234
3.08499
2.76316
2.57351
2.45964
2.387
2.33249
2.29637
2.27257
2.25313
2.23821
2.22804
2.21929
2.21366
2.21403
2.21668
2.22344
2.23629
2.25863
2.29203
2.34597
2.40449
2.45646
2.51277
3.10116
2.7807
2.59684
2.4837
2.40193
2.34414
2.30287
2.27822
2.25993
2.24264
2.23146
2.22228
2.21653
2.21656
2.21875
2.22483
2.23713
2.25936
2.29159
2.34851
2.39144
2.45543
2.49521
3.11893
2.8124
2.61999
2.49392
2.41617
2.35561
2.31749
2.28572
2.26332
2.24506
2.23314
2.22393
2.2193
2.21863
2.22065
2.22682
2.23811
2.2611
2.29102
2.34601
2.3907
2.45892
2.4939
3.13596
2.8294
2.63664
2.52075
2.43528
2.36811
2.32348
2.28795
2.26798
2.25005
2.2379
2.22867
2.22396
2.22191
2.22349
2.22877
2.2386
2.26362
2.29162
2.34584
2.39222
2.45657
2.496
3.14765
2.84646
2.6606
2.53017
2.43976
2.36919
2.32993
2.29529
2.27625
2.25635
2.24442
2.23376
2.22856
2.22415
2.22512
2.23043
2.23887
2.26627
2.29322
2.34736
2.39574
2.45927
2.5049
3.15179
2.8572
2.66597
2.53619
2.44629
2.3822
2.33856
2.30312
2.27943
2.25883
2.24635
2.23511
2.22973
2.22483
2.2257
2.23053
2.23877
2.26243
2.28836
2.34138
2.38513
2.45257
2.49054
2.81656
2.50635
2.36659
2.29333
2.26342
2.24007
2.21289
2.1989
2.19542
2.19627
2.2051
2.24205
2.30977
2.37886
2.44884
2.54673
2.65956
2.81754
2.98714
3.19723
3.44005
3.68472
3.95711
2.83257
2.51385
2.37359
2.29854
2.26701
2.24293
2.2181
2.20388
2.19867
2.19451
2.19278
2.21115
2.26261
2.3162
2.37492
2.46503
2.57
2.72624
2.8911
3.10184
3.34726
3.58821
3.85742
2.83656
2.52216
2.3817
2.30507
2.27199
2.24772
2.223
2.20848
2.20283
2.19779
2.19422
2.19947
2.23253
2.27148
2.31858
2.39604
2.48877
2.63783
2.7954
3.00258
3.23704
3.4789
3.75106
2.85444
2.5313
2.38856
2.31032
2.27464
2.25151
2.22926
2.21246
2.20605
2.19961
2.19445
2.19507
2.20968
2.23534
2.27087
2.33494
2.41502
2.55161
2.69895
2.90028
3.13318
3.37374
3.63809
2.86001
2.5403
2.39773
2.3189
2.27905
2.25422
2.2331
2.21664
2.20942
2.20372
2.19763
2.19573
2.20024
2.21397
2.23822
2.28621
2.35143
2.47071
2.60612
2.80059
3.01578
3.25502
3.51569
2.88049
2.55178
2.40364
2.32493
2.28435
2.258
2.23672
2.21983
2.21186
2.20549
2.19967
2.19627
2.196
2.20119
2.21651
2.25154
2.30331
2.40159
2.52246
2.70053
2.90993
3.1435
3.388
2.88774
2.56243
2.41515
2.33538
2.28967
2.2624
2.24107
2.22411
2.21525
2.20881
2.2038
2.19882
2.1965
2.19972
2.20757
2.22878
2.26765
2.34457
2.45009
2.61362
2.80162
3.01888
3.26218
2.91058
2.57564
2.42096
2.34097
2.29599
2.26582
2.24347
2.22668
2.21712
2.21015
2.20554
2.20007
2.19844
2.19968
2.20588
2.21962
2.24758
2.30542
2.39513
2.53152
2.71066
2.90816
3.1465
2.91923
2.58865
2.43424
2.35305
2.30403
2.27108
2.24821
2.23001
2.21975
2.2118
2.20792
2.20295
2.1995
2.20134
2.20631
2.2177
2.23905
2.28036
2.35369
2.47174
2.62872
2.80049
3.0291
2.94425
2.60539
2.44413
2.35978
2.31038
2.27593
2.25066
2.23343
2.22276
2.21386
2.20949
2.20495
2.20196
2.20317
2.20755
2.21772
2.23709
2.27116
2.33042
2.42399
2.56691
2.71482
2.93433
2.95398
2.61866
2.45596
2.37097
2.31895
2.28094
2.25504
2.23599
2.22507
2.21542
2.21054
2.20654
2.203
2.20438
2.20867
2.21803
2.23582
2.2668
2.31678
2.39626
2.52207
2.64049
2.83194
2.98086
2.64039
2.4733
2.38198
2.32685
2.2877
2.25924
2.24035
2.22908
2.21841
2.21229
2.20845
2.20437
2.20558
2.20958
2.21848
2.23546
2.26465
2.31127
2.38088
2.48865
2.58223
2.75436
2.99063
2.65468
2.48349
2.39186
2.33412
2.2922
2.26256
2.24296
2.23105
2.22045
2.21404
2.20933
2.20506
2.20622
2.21019
2.21889
2.23512
2.2624
2.30529
2.37063
2.46396
2.54017
2.6788
3.01823
2.67789
2.50452
2.40572
2.34363
2.30051
2.26853
2.24841
2.23524
2.2238
2.21591
2.21058
2.20621
2.20721
2.21095
2.21937
2.23514
2.26104
2.30095
2.36111
2.43934
2.50066
2.61201
3.02846
2.69652
2.51781
2.41715
2.35196
2.30467
2.27151
2.25115
2.23746
2.22619
2.21873
2.21196
2.2072
2.2081
2.21177
2.22006
2.23528
2.25976
2.2972
2.3515
2.42119
2.47352
2.5647
2.79935
2.82919
2.90334
2.95587
3.02582
3.08877
3.12464
3.14921
3.1625
3.1719
3.18503
3.19243
3.21267
3.23898
3.29427
3.35711
3.45265
3.59728
3.808
4.08118
4.40729
4.80181
5.1307
2.77598
2.79248
2.85519
2.91333
2.99328
3.06761
3.11021
3.14817
3.16096
3.16786
3.18069
3.19061
3.21316
3.23584
3.29177
3.35436
3.4481
3.59038
3.79848
4.0654
4.37213
4.74183
5.08618
2.7366
2.7596
2.81738
2.87688
2.96747
3.04798
3.09715
3.13152
3.15105
3.16616
3.17709
3.18847
3.20886
3.23582
3.2894
3.35181
3.44511
3.5849
3.7874
4.05171
4.35621
4.71602
5.0165
2.71428
2.72092
2.773
2.83826
2.93013
3.02531
3.07394
3.11425
3.14399
3.16577
3.17388
3.18555
3.20648
3.23498
3.28586
3.34833
3.4397
3.57746
3.77692
4.03481
4.33092
4.67608
4.98973
2.69158
2.68372
2.7255
2.79338
2.89418
2.99477
3.05323
3.09808
3.1308
3.15831
3.16984
3.18119
3.20498
3.23366
3.28179
3.34518
3.43572
3.57096
3.76801
4.02259
4.31265
4.65545
4.96185
2.68449
2.64756
2.68057
2.75165
2.85392
2.95841
3.02956
3.07505
3.11621
3.14595
3.16294
3.17829
3.20465
3.23134
3.27765
3.3407
3.42965
3.56376
3.7559
4.00789
4.29742
4.62357
4.93155
2.68004
2.6068
2.63321
2.70156
2.80683
2.92458
2.99854
3.05053
3.09466
3.12856
3.15571
3.17269
3.19926
3.22743
3.27262
3.33626
3.42386
3.55475
3.7448
3.99079
4.27627
4.60442
4.91489
2.68741
2.57406
2.58402
2.65229
2.75755
2.88196
2.96389
3.02009
3.06768
3.10956
3.14351
3.16728
3.19653
3.22293
3.26695
3.33026
3.41673
3.54706
3.73262
3.97733
4.26287
4.56927
4.88324
2.69152
2.53536
2.53923
2.59636
2.70235
2.82977
2.92314
2.98486
3.03757
3.08015
3.12352
3.15772
3.18786
3.21439
3.25947
3.32357
3.40857
3.5356
3.71785
3.95582
4.23983
4.55017
4.86366
2.70409
2.50638
2.49085
2.53971
2.64155
2.78153
2.87306
2.94328
3.00013
3.05009
3.09523
3.1414
3.17369
3.20732
3.2511
3.31481
3.3992
3.52628
3.70508
3.9411
4.22529
4.51664
4.83002
2.71295
2.47932
2.44686
2.48136
2.57977
2.71364
2.81752
2.89307
2.9532
3.00862
3.06526
3.11568
3.15365
3.19269
3.23958
3.3044
3.38781
3.51204
3.68664
3.9185
4.1989
4.49148
4.80705
2.72793
2.45741
2.40331
2.42235
2.51441
2.65397
2.75243
2.83842
2.9008
2.96283
3.02427
3.08632
3.12967
3.1752