/*--------------------------------*- C++ -*----------------------------------*\
  =========                 |
  \\      /  F ield         | OpenFOAM: The Open Source CFD Toolbox
   \\    /   O peration     | Website:  https://openfoam.org
    \\  /    A nd           | Version:  7
     \\/     M anipulation  |
\*---------------------------------------------------------------------------*/
FoamFile
{
    version     2.0;
    format      ascii;
    class       volScalarField;
    location    "50";
    object      p;
}
// * * * * * * * * * * * * * * * * * * * * * * * * * * * * * * * * * * * * * //

dimensions      [0 2 -2 0 0 0 0];

internalField   nonuniform List<scalar> 
12842
(
-0.041553
-0.0432406
-0.0425333
-0.0411523
-0.0374393
-0.0275329
-0.00492244
0.0407272
0.124426
0.266647
0.493827
0.8378
1.33341
2.01374
2.90337
4.01023
5.31864
6.78803
8.3569
9.95135
11.4989
12.935
14.2245
-0.0604174
-0.0657953
-0.070357
-0.0783246
-0.0896779
-0.101906
-0.110191
-0.105965
-0.0757836
-0.000307574
0.146578
0.397676
0.790506
1.36273
2.14512
3.15256
4.37601
5.77993
7.30532
8.87756
10.4216
11.8668
13.1756
-0.0750158
-0.0833235
-0.0928919
-0.110432
-0.136775
-0.170909
-0.209793
-0.246604
-0.269517
-0.260448
-0.193696
-0.0355573
0.254127
0.717529
1.39135
2.2968
3.43051
4.76078
6.23014
7.76269
9.28143
10.7099
12.0108
-0.086511
-0.0966839
-0.111437
-0.13867
-0.17967
-0.235193
-0.303973
-0.380932
-0.456005
-0.512605
-0.525754
-0.461252
-0.276705
0.0741837
0.633659
1.42887
2.46176
3.7042
5.10046
6.57386
8.04679
9.43798
10.7135
-0.0957314
-0.106209
-0.126832
-0.163237
-0.218051
-0.293931
-0.391268
-0.506846
-0.632636
-0.753986
-0.847234
-0.878469
-0.803817
-0.573438
-0.139781
0.530357
1.44478
2.5799
3.88305
5.27812
6.68854
8.02845
9.269
-0.103087
-0.112223
-0.139621
-0.183728
-0.251044
-0.345492
-0.469031
-0.62052
-0.794248
-0.978019
-1.15022
-1.27825
-1.31773
-1.21598
-0.920341
-0.391246
0.385908
1.39333
2.58309
3.8809
5.21252
6.48734
7.68251
-0.108788
-0.115302
-0.150105
-0.19963
-0.277897
-0.388336
-0.534726
-0.7182
-0.935562
-1.17758
-1.42547
-1.6492
-1.8049
-1.83801
-1.69101
-1.31778
-0.696073
0.163201
1.21841
2.39805
3.63181
4.82395
5.96
-0.112993
-0.116141
-0.158444
-0.210862
-0.298557
-0.42185
-0.587194
-0.798053
-1.05387
-1.34889
-1.66796
-1.9848
-2.2572
-2.42962
-2.4401
-2.23595
-1.78666
-1.09557
-0.196526
0.84237
1.95701
3.04577
4.10731
-0.116183
-0.115329
-0.164212
-0.216811
-0.311595
-0.443038
-0.621298
-0.851471
-1.1351
-1.46971
-1.84373
-2.23522
-2.60428
-2.89564
-3.04401
-2.9916
-2.70062
-2.16795
-1.41943
-0.520653
0.473816
1.45118
2.43488
-0.119268
-0.113954
-0.169035
-0.220886
-0.321822
-0.459013
-0.647154
-0.892099
-1.19691
-1.56178
-1.97813
-2.42785
-2.87319
-3.25959
-3.51968
-3.59248
-3.43514
-3.04007
-2.42687
-1.65843
-0.781472
0.088229
0.982894
-0.121256
-0.112085
-0.172583
-0.2239
-0.330834
-0.473005
-0.670531
-0.929396
-1.25415
-1.64766
-2.10438
-2.61013
-3.12954
-3.60933
-3.98095
-4.18137
-4.16389
-3.91735
-3.45537
-2.83753
-2.10214
-1.36451
-0.585077
-0.122169
-0.110031
-0.174725
-0.226004
-0.338307
-0.484714
-0.691047
-0.962848
-1.30622
-1.72678
-2.2221
-2.78217
-3.3743
-3.94718
-4.43195
-4.76464
-4.89559
-4.81074
-4.51759
-4.0717
-3.50208
-2.9211
-2.28124
-0.122352
-0.108059
-0.175768
-0.227529
-0.344203
-0.494188
-0.708632
-0.992238
-1.35278
-1.7987
-2.3308
-2.94348
-3.60714
-4.27322
-4.87343
-5.34389
-5.6327
-5.72331
-5.61692
-5.36419
-4.98399
-4.58351
-4.10836
-0.12201
-0.106217
-0.176124
-0.228759
-0.348722
-0.501851
-0.723726
-1.01806
-1.39441
-1.86408
-2.43118
-3.09474
-3.82868
-4.58795
-5.30575
-5.9193
-6.3751
-6.65458
-6.75236
-6.71343
-6.54588
-6.34929
-6.06418
-0.121212
-0.10443
-0.176115
-0.229797
-0.352097
-0.508166
-0.736848
-1.04097
-1.43195
-1.92393
-2.52441
-3.23725
-4.04032
-4.89289
-5.73057
-6.49265
-7.12469
-7.60639
-7.92564
-8.12081
-8.18866
-8.21846
-8.14723
-0.120021
-0.10266
-0.175977
-0.23062
-0.354551
-0.513502
-0.748421
-1.06153
-1.46614
-1.97922
-2.61169
-3.37246
-4.24382
-5.19022
-6.15052
-7.06699
-7.88474
-8.58182
-9.13905
-9.58707
-9.91073
-10.1864
-10.3494
-0.118538
-0.10093
-0.17585
-0.231174
-0.356294
-0.518111
-0.758721
-1.08012
-1.49749
-2.03059
-2.69382
-3.50139
-4.44049
-5.4816
-6.56766
-7.64462
-8.65736
-9.58211
-10.3919
-11.1085
-11.7042
-12.2403
-12.6523
-0.116866
-0.0993142
-0.175779
-0.231396
-0.357482
-0.522092
-0.767829
-1.09686
-1.52612
-2.07812
-2.77081
-3.62394
-4.63016
-5.76673
-6.98143
-8.22442
-9.44026
-10.6028
-11.6764
-12.6723
-13.5503
-14.3545
-15.0225
-0.115083
-0.0978808
-0.175728
-0.231262
-0.358216
-0.525438
-0.775706
-1.11166
-1.55186
-2.12151
-2.84212
-3.73926
-4.8115
-6.04371
-7.389
-8.80211
-10.2268
-11.6337
-12.9772
-14.2567
-15.419
-16.4895
-17.4104
-0.113247
-0.096678
-0.175629
-0.230765
-0.358543
-0.528082
-0.782265
-1.12441
-1.57451
-2.16039
-2.90712
-3.84633
-4.98298
-6.31012
-7.78665
-9.37191
-11.0082
-12.6612
-14.2744
-15.8332
-17.2719
-18.596
-19.754
-0.111409
-0.095707
-0.175423
-0.229963
-0.358507
-0.529974
-0.787443
-1.135
-1.5939
-2.19446
-2.96531
-3.94429
-5.14308
-6.56344
-8.17014
-9.92688
-11.7732
-13.6684
-15.5429
-17.3668
-19.0622
-20.6154
-21.9821
-0.109592
-0.0949511
-0.175021
-0.228835
-0.358045
-0.531028
-0.791208
-1.14343
-1.60999
-2.22359
-3.01633
-4.03239
-5.29036
-6.80095
-8.53463
-10.4588
-12.5086
-14.635
-16.7532
-18.817
-20.7376
-22.4836
-24.0191
-0.1078
-0.0943188
-0.174462
-0.227544
-0.35727
-0.531311
-0.793645
-1.14981
-1.623
-2.24811
-3.06059
-4.11087
-5.4244
-7.02087
-8.87588
-10.9595
-13.2004
-15.5391
-17.8741
-20.1419
-22.2454
-24.1388
-25.795
-0.105966
-0.0939413
-0.173457
-0.22601
-0.356084
-0.530965
-0.794939
-1.15402
-1.63194
-2.26539
-3.09291
-4.17083
-5.53153
-7.20382
-9.16877
-11.399
-13.8152
-16.3457
-18.8707
-21.3086
-23.5551
-25.5541
-27.284
-0.105367
-0.094222
-0.173013
-0.225399
-0.35586
-0.531618
-0.796896
-1.15804
-1.63905
-2.27811
-3.11677
-4.2167
-5.61724
-7.35559
-9.4179
-11.7773
-14.3449
-17.0337
-19.7053
-22.2611
-24.5931
-26.6414
-28.3928
-0.104125
-0.0942831
-0.172423
-0.225227
-0.356569
-0.53385
-0.801204
-1.16521
-1.65017
-2.29552
-3.14555
-4.26642
-5.70327
-7.49973
-9.6448
-12.1091
-14.7923
-17.5908
-20.35
-22.9588
-25.3109
-27.3499
-29.0726
-0.102421
-0.0941199
-0.171868
-0.225531
-0.358113
-0.537213
-0.806929
-1.17395
-1.66289
-2.31425
-3.17472
-4.31411
-5.78213
-7.6269
-9.83813
-12.3814
-15.1438
-18.0051
-20.7987
-23.406
-25.7276
-27.715
-29.3743
-0.101042
-0.0940588
-0.171669
-0.226334
-0.360232
-0.541054
-0.812884
-1.18239
-1.67452
-2.33068
-3.1996
-4.35401
-5.84698
-7.72929
-9.98928
-12.5855
-15.3919
-18.2735
-21.0559
-23.6188
-25.8728
-27.7802
-29.3554
-0.100277
-0.0942363
-0.171881
-0.227536
-0.362635
-0.544902
-0.818392
-1.18969
-1.68406
-2.34367
-3.21891
-4.38468
-5.89613
-7.80484
-10.0959
-12.7191
-15.5364
-18.3998
-21.1328
-23.6173
-25.777
-27.5857
-29.0649
-0.0999345
-0.0945697
-0.172331
-0.22889
-0.364994
-0.548399
-0.823109
-1.19561
-1.69147
-2.35346
-3.23317
-4.40681
-5.93024
-7.854
-10.1581
-12.783
-15.5796
-18.3911
-21.0426
-23.4226
-25.4688
-27.1668
-28.5432
-0.0997107
-0.0949093
-0.172786
-0.230137
-0.367019
-0.551282
-0.826852
-1.20014
-1.69698
-2.36052
-3.24302
-4.4211
-5.94994
-7.87717
-10.1765
-12.7784
-15.5254
-18.2552
-20.7993
-23.0555
-24.9754
-26.5554
-27.8256
-0.0994073
-0.0951546
-0.173096
-0.231109
-0.368556
-0.553449
-0.829617
-1.20343
-1.70087
-2.36522
-3.24888
-4.42791
-5.9554
-7.87443
-10.1512
-12.707
-15.3781
-18.0012
-20.4172
-22.5357
-24.3215
-25.7802
-26.944
-0.0989358
-0.095261
-0.173201
-0.231762
-0.369601
-0.554969
-0.831574
-1.20575
-1.7035
-2.36796
-3.25106
-4.42738
-5.9466
-7.84578
-10.083
-12.5709
-15.1428
-17.6383
-19.9106
-21.8819
-23.5297
-24.867
-25.9261
-0.0982923
-0.0952328
-0.173116
-0.232134
-0.370258
-0.556023
-0.832997
-1.20746
-1.70526
-2.36908
-3.24979
-4.41957
-5.9235
-7.79138
-9.97284
-12.3731
-14.8256
-17.1763
-19.2933
-21.1116
-22.6201
-23.8375
-24.7949
-0.0975061
-0.095094
-0.172889
-0.232315
-0.370673
-0.556823
-0.834166
-1.20887
-1.70647
-2.36883
-3.24523
-4.40454
-5.8862
-7.71172
-9.8222
-12.117
-14.4326
-16.6249
-18.5782
-20.2404
-21.61
-22.7103
-23.5695
-0.0966291
-0.0948844
-0.172591
-0.232399
-0.370989
-0.557554
-0.835298
-1.21022
-1.70732
-2.36736
-3.23744
-4.38237
-5.83495
-7.60761
-9.63311
-11.8067
-13.9707
-15.9937
-17.7773
-19.2819
-20.5142
-21.5003
-22.265
-0.0957046
-0.0946405
-0.17228
-0.232472
-0.371319
-0.558351
-0.83653
-1.21161
-1.70787
-2.36466
-3.22643
-4.35315
-5.77017
-7.48023
-9.40808
-11.4467
-13.4466
-15.2916
-16.9014
-18.248
-19.3448
-20.2198
-20.8932
-0.0947735
-0.0943993
-0.172009
-0.232592
-0.371736
-0.559284
-0.837916
-1.21305
-1.7081
-2.36069
-3.21218
-4.31705
-5.69244
-7.33098
-9.14988
-11.0416
-12.8672
-14.5273
-15.9602
-17.1487
-18.1117
-18.878
-19.4628
-0.0938558
-0.0941851
-0.171806
-0.232795
-0.372277
-0.560376
-0.839448
-1.21449
-1.7079
-2.35535
-3.19467
-4.27426
-5.60244
-7.16147
-8.86156
-10.5965
-12.2393
-13.7091
-14.9626
-15.9929
-16.8233
-17.4823
-17.9802
-0.0929671
-0.0940176
-0.171687
-0.233089
-0.372941
-0.561608
-0.841071
-1.21584
-1.70716
-2.34852
-3.17389
-4.22501
-5.5009
-6.97338
-8.54625
-10.1161
-11.5697
-12.845
-13.917
-14.7885
-15.4867
-16.0391
-16.4508
-0.0921058
-0.0939037
-0.171648
-0.233468
-0.373713
-0.562941
-0.84272
-1.217
-1.70577
-2.34014
-3.14986
-4.16959
-5.38866
-6.76852
-8.20726
-9.60573
-10.8653
-11.943
-12.8317
-13.5436
-14.1094
-14.5553
-14.881
-0.0912729
-0.0938475
-0.171678
-0.23391
-0.374561
-0.564324
-0.844321
-1.21788
-1.70365
-2.33015
-3.12264
-4.1083
-5.26653
-6.54869
-7.84789
-9.07044
-10.1329
-11.0111
-11.7152
-12.2665
-12.6993
-13.0385
-13.2787
-0.090459
-0.0938432
-0.171757
-0.234397
-0.375452
-0.565711
-0.845814
-1.21842
-1.70075
-2.31855
-3.09234
-4.04152
-5.13545
-6.31581
-7.4716
-8.5155
-9.37958
-10.0577
-10.5765
-10.9663
-11.2652
-11.497
-11.6513
-0.0896625
-0.0938857
-0.171865
-0.234902
-0.376357
-0.567061
-0.847154
-1.21858
-1.69704
-2.30538
-3.05911
-3.96964
-4.99633
-6.07179
-7.08181
-7.94618
-8.61236
-9.09136
-9.4251
-9.65249
-9.81603
-9.93851
-10.005
-0.088876
-0.0939639
-0.171982
-0.235408
-0.377251
-0.568347
-0.848317
-1.21835
-1.69255
-2.2907
-3.02313
-3.89313
-4.85021
-5.81864
-6.68207
-7.36791
-7.83858
-8.12088
-8.27072
-8.33514
-8.36092
-8.37027
-8.34439
-0.0880997
-0.0940691
-0.172092
-0.235901
-0.378119
-0.569553
-0.849291
-1.21773
-1.68731
-2.27462
-2.98463
-3.81245
-4.69811
-5.55837
-6.27588
-6.78599
-7.06553
-7.15542
-7.12371
-7.02494
-6.91006
-6.80123
-6.67688
-0.0873317
-0.0941921
-0.172183
-0.236375
-0.378954
-0.570677
-0.850089
-1.21677
-1.6814
-2.25726
-2.94385
-3.72813
-4.54111
-5.29303
-5.86676
-6.20578
-6.30055
-6.20445
-5.99499
-5.7342
-5.47627
-5.24447
-5.01583
-0.0865605
-0.0943184
-0.172244
-0.236822
-0.379753
-0.571727
-0.850735
-1.2155
-1.67489
-2.23877
-2.90107
-3.64072
-4.38033
-5.02462
-5.45811
-5.6325
-5.55087
-5.27795
-4.89665
-4.47763
-4.07674
-3.71985
-3.38292
-0.0857708
-0.0944572
-0.172267
-0.237242
-0.380524
-0.572747
-0.851362
-1.21424
-1.66841
-2.2204
-2.85873
-3.55486
-4.22397
-4.76658
-5.07018
-5.09437
-4.85325
-4.42256
-3.88425
-3.32101
-2.78616
-2.31239
-1.86971
-0.0852104
-0.0946772
-0.172376
-0.237728
-0.381401
-0.573942
-0.852334
-1.21366
-1.6633
-2.20479
-2.82205
-3.48025
-4.08894
-4.54577
-4.74223
-4.6445
-4.27528
-3.72151
-3.05689
-2.37966
-1.73635
-1.17162
-0.641093
-0.084504
-0.0947951
-0.172363
-0.238173
-0.382358
-0.575437
-0.854002
-1.21443
-1.66071
-2.19387
-2.79417
-3.422
-3.983
-4.37305
-4.48796
-4.29903
-3.83501
-3.19368
-2.43838
-1.67878
-0.958722
-0.334085
0.256506
-0.0836542
-0.0948321
-0.172252
-0.238624
-0.383477
-0.577367
-0.856551
-1.21678
-1.66077
-2.18754
-2.77446
-3.37828
-3.90196
-4.24037
-4.29337
-4.03648
-3.50276
-2.79817
-1.98285
-1.16083
-0.389669
0.270973
0.897785
-0.082803
-0.0948734
-0.172155
-0.239203
-0.384886
-0.57986
-0.860077
-1.22068
-1.6633
-2.18523
-2.7616
-3.34649
-3.84095
-4.13943
-4.14521
-3.8376
-3.2531
-2.50032
-1.65018
-0.778007
0.0282622
0.71133
1.35746
-0.082022
-0.0949632
-0.172149
-0.239986
-0.386666
-0.582983
-0.864584
-1.22601
-1.66788
-2.18606
-2.75396
-3.32368
-3.79496
-4.06228
-4.03151
-3.68572
-3.06458
-2.27286
-1.40556
-0.494514
0.339775
1.0413
1.69643
-0.0813074
-0.0950883
-0.172241
-0.240974
-0.388784
-0.586634
-0.869836
-1.23233
-1.67377
-2.18885
-2.74964
-3.30685
-3.75925
-4.00166
-3.9418
-3.56638
-2.91852
-2.09439
-1.21837
-0.282199
0.57901
1.29944
1.95921
-0.0806412
-0.0952407
-0.172425
-0.242143
-0.391189
-0.590705
-0.875634
-1.23928
-1.68039
-2.19268
-2.74722
-3.29377
-3.73043
-3.95253
-3.86904
-3.46997
-2.80216
-1.95161
-1.06774
-0.121806
0.765701
1.50585
2.17022
-0.0800145
-0.0953934
-0.172683
-0.243457
-0.393836
-0.595114
-0.88182
-1.24657
-1.68723
-2.19657
-2.74488
-3.28113
-3.70289
-3.90603
-3.80065
-3.37973
-2.69405
-1.82077
-0.925225
0.0195861
0.931078
1.69237
2.36404
-0.0793131
-0.0954873
-0.172847
-0.244688
-0.39631
-0.599205
-0.887369
-1.25269
-1.69211
-2.1975
-2.73845
-3.26333
-3.66955
-3.85396
-3.72823
-3.28826
-2.58861
-1.69986
-0.792819
0.139451
1.06305
1.8396
2.51943
-0.0786942
-0.0956428
-0.173157
-0.246087
-0.398943
-0.603364
-0.892755
-1.25825
-1.69585
-2.19661
-2.72947
-3.24225
-3.63233
-3.79765
-3.65168
-3.19302
-2.48008
-1.57955
-0.658503
0.258749
1.1837
1.97024
2.65648
-0.0781786
-0.0958674
-0.173623
-0.247631
-0.401699
-0.607549
-0.897975
-1.26335
-1.69882
-2.19462
-2.71908
-3.2194
-3.59286
-3.73839
-3.57139
-3.09261
-2.36464
-1.45299
-0.514958
0.391194
1.30864
2.10031
2.78744
-0.0776825
-0.0960872
-0.174104
-0.249143
-0.404345
-0.611477
-0.902725
-1.26773
-1.70084
-2.19153
-2.70754
-3.19533
-3.55212
-3.6777
-3.48957
-2.98994
-2.24594
-1.32406
-0.368499
0.53144
1.43447
2.22516
2.90933
-0.0771577
-0.096264
-0.174514
-0.250507
-0.406738
-0.614994
-0.906867
-1.27131
-1.70194
-2.18751
-2.6952
-3.17071
-3.51122
-3.6175
-3.40939
-2.88999
-2.131
-1.20134
-0.230599
0.666837
1.55113
2.33541
3.01552
-0.0765966
-0.0964007
-0.174843
-0.251723
-0.408892
-0.618151
-0.910524
-1.27433
-1.70251
-2.18316
-2.68286
-3.1466
-3.47164
-3.55995
-3.33396
-2.79753
-2.02656
-1.09319
-0.112013
0.784784
1.64892
2.42168
3.09631
-0.0760115
-0.0965194
-0.175116
-0.252832
-0.410879
-0.621077
-0.913914
-1.27712
-1.70303
-2.17906
-2.67123
-3.12382
-3.43431
-3.50612
-3.26463
-2.71478
-1.936
-1.00409
-0.01901
0.876741
1.71997
2.47587
3.1402
-0.0754077
-0.0966331
-0.175356
-0.253883
-0.412781
-0.623904
-0.917235
-1.27996
-1.70383
-2.17558
-2.66062
-3.10253
-3.39915
-3.45558
-3.20056
-2.6408
-1.85847
-0.933351
0.0482342
0.940367
1.76184
2.49484
3.14138
-0.0747926
-0.0967521
-0.175584
-0.254907
-0.414652
-0.626714
-0.920598
-1.28297
-1.705
-2.17269
-2.65075
-3.08209
-3.36493
-3.40631
-3.13875
-2.57146
-1.78882
-0.874827
0.0963434
0.981205
1.77988
2.48513
3.10603
-0.0741685
-0.0968777
-0.175809
-0.255931
-0.416531
-0.629557
-0.924051
-1.28617
-1.70645
-2.17012
-2.64106
-3.06142
-3.32988
-3.35559
-3.07522
-2.50119
-1.71964
-0.819091
0.136543
1.0108
1.78681
2.46201
3.05177
-0.0735429
-0.0970136
-0.17604
-0.256965
-0.418428
-0.63244
-0.927577
-1.28947
-1.70799
-2.16743
-2.63076
-3.03929
-3.29212
-3.30066
-3.00601
-2.42433
-1.64323
-0.755961
0.181554
1.04324
1.79818
2.44458
3.00105
-0.0729183
-0.0971572
-0.176278
-0.258015
-0.42035
-0.635355
-0.931135
-1.29277
-1.70937
-2.16423
-2.61921
-3.01472
-3.25026
-3.23955
-2.92835
-2.33685
-1.55387
-0.677554
0.241737
1.09042
1.82741
2.44881
2.97324
-0.0723006
-0.0973107
-0.176529
-0.25908
-0.422285
-0.638274
-0.93466
-1.29593
-1.71038
-2.16015
-2.60589
-2.98702
-3.20344
-3.17125
-2.84092
-2.23686
-1.4488
-0.579813
0.322862
1.15912
1.8815
2.48298
2.9788
-0.0716899
-0.0974702
-0.176788
-0.260157
-0.424224
-0.641171
-0.938095
-1.29886
-1.71085
-2.15496
-2.59054
-2.95598
-3.15157
-3.09591
-2.74417
-2.12499
-1.32876
-0.46331
0.424986
1.24944
1.95981
2.54587
3.0174
-0.0710892
-0.0976373
-0.177056
-0.261238
-0.426148
-0.644012
-0.941382
-1.30146
-1.71065
-2.14853
-2.57308
-2.92164
-3.09503
-3.01442
-2.63972
-2.0037
-1.19726
-0.33243
0.543242
1.35568
2.05479
2.62823
3.07943
-0.0704962
-0.0978073
-0.177329
-0.262319
-0.428049
-0.646775
-0.944483
-1.30367
-1.70972
-2.14085
-2.55361
-2.88436
-3.03463
-2.92833
-2.53013
-1.87687
-1.05975
-0.194301
0.66924
1.46806
2.15458
2.71582
3.14956
-0.069912
-0.0979814
-0.177606
-0.263392
-0.429908
-0.649435
-0.947362
-1.30547
-1.70805
-2.13194
-2.53227
-2.84457
-2.97127
-2.83929
-2.41814
-1.74869
-0.922313
-0.0570438
0.793201
1.57532
2.24587
2.79322
3.21094
-0.0693329
-0.098155
-0.177883
-0.264454
-0.431722
-0.651982
-0.950005
-1.30682
-1.70564
-2.12188
-2.50931
-2.80276
-2.90589
-2.74895
-2.30642
-1.62326
-0.790819
0.071501
0.905709
1.66685
2.31684
2.84703
3.24888
-0.0687601
-0.0983292
-0.178158
-0.265496
-0.433477
-0.654399
-0.952393
-1.30773
-1.7025
-2.11073
-2.48491
-2.75933
-2.83923
-2.65859
-2.19709
-1.50378
-0.669932
0.185044
0.99927
1.73458
2.35895
2.86804
3.25324
-0.0681902
-0.0985
-0.178429
-0.26652
-0.435173
-0.656684
-0.954526
-1.3082
-1.69867
-2.09859
-2.45924
-2.71461
-2.77189
-2.5692
-2.09167
-1.39255
-0.562865
0.279368
1.0691
1.77385
2.368
2.85219
3.21954
-0.0676248
-0.0986694
-0.178696
-0.267519
-0.436802
-0.658827
-0.956392
-1.30822
-1.69415
-2.08548
-2.4324
-2.6688
-2.7042
-2.4813
-1.99093
-1.29065
-0.471062
0.35267
1.11344
1.78369
2.3441
2.80044
3.14868
-0.0670614
-0.0988342
-0.178956
-0.268495
-0.438366
-0.660831
-0.957994
-1.3078
-1.68896
-2.07146
-2.40448
-2.62203
-2.63636
-2.39512
-1.89513
-1.19826
-0.394473
0.405294
1.1333
1.76633
2.29097
2.71766
3.04578
-0.0665025
-0.0989975
-0.179212
-0.269444
-0.439858
-0.662687
-0.959324
-1.30692
-1.68309
-2.05651
-2.37546
-2.57428
-2.56832
-2.31056
-1.80397
-1.11466
-0.331725
0.439406
1.13188
1.72639
2.21479
2.61128
2.9187
-0.0659457
-0.0991565
-0.17946
-0.270369
-0.441283
-0.664399
-0.960382
-1.3056
-1.67655
-2.04065
-2.34535
-2.52556
-2.50003
-2.2274
-1.71689
-1.03865
-0.280629
0.458354
1.11379
1.66989
2.12293
2.48977
2.77635
-0.0653942
-0.0993151
-0.179704
-0.271267
-0.442633
-0.665955
-0.961154
-1.30381
-1.66931
-2.02381
-2.31407
-2.47575
-2.4313
-2.14527
-1.63311
-0.96869
-0.238488
0.466111
1.08421
1.60318
2.02276
2.36135
2.62733
-0.0648456
-0.0994706
-0.179942
-0.272139
-0.443913
-0.667359
-0.961637
-1.30154
-1.66133
-2.00598
-2.2816
-2.42481
-2.36202
-2.06387
-1.5519
-0.903226
-0.202575
0.466665
1.04821
1.53214
1.92076
2.23299
2.47906
-0.0643031
-0.0996272
-0.180176
-0.272984
-0.445114
-0.668597
-0.961813
-1.29876
-1.6526
-1.98708
-2.24784
-2.37261
-2.29202
-1.98285
-1.47254
-0.840808
-0.170377
0.463607
1.01012
1.46154
1.82196
2.10997
2.33702
-0.0637642
-0.099782
-0.180404
-0.273803
-0.446239
-0.669669
-0.961675
-1.29546
-1.64306
-1.9671
-2.21277
-2.31913
-2.22124
-1.90203
-1.3945
-0.780299
-0.139869
0.459789
0.973268
1.39481
1.72964
1.9956
2.2047
-0.0632322
-0.0999388
-0.180629
-0.274593
-0.447279
-0.670561
-0.961198
-1.2916
-1.63268
-1.94595
-2.17629
-2.26429
-2.14961
-1.82129
-1.31741
-0.720873
-0.109604
0.457182
0.939756
1.33386
1.64549
1.89138
2.08371
-0.062704
-0.100094
-0.180848
-0.275355
-0.448236
-0.671271
-0.960373
-1.28715
-1.62143
-1.92361
-2.13841
-2.20813
-2.07719
-1.74063
-1.24114
-0.662109
-0.0787851
0.45684
0.910559
1.27937
1.5698
1.79733
1.97413
-0.0621833
-0.100252
-0.181062
-0.276085
-0.449098
-0.671779
-0.959174
-1.28209
-1.60924
-1.90002
-2.09908
-2.15064
-2.00404
-1.66015
-1.16572
-0.603927
-0.0472091
0.458975
0.885649
1.23094
1.50173
1.71241
1.87483
-0.0616668
-0.100409
-0.181269
-0.276784
-0.449868
-0.672084
-0.957586
-1.27638
-1.59609
-1.87515
-2.0583
-2.09191
-1.93033
-1.58008
-1.09139
-0.546589
-0.0151923
0.463121
0.864239
1.18739
1.43979
1.63483
1.78401
-0.0611582
-0.100567
-0.181471
-0.277446
-0.450532
-0.672165
-0.955582
-1.26999
-1.58194
-1.84896
-2.01607
-2.03201
-1.85624
-1.50068
-1.01852
-0.490603
0.0165527
0.468313
0.845046
1.14711
1.38209
1.56249
1.69948
-0.0606538
-0.100723
-0.181663
-0.278073
-0.451091
-0.672017
-0.953147
-1.26289
-1.56675
-1.82145
-1.97245
-1.97108
-1.78203
-1.42232
-0.947601
-0.436661
0.047071
0.473317
0.82656
1.10835
1.32666
1.4933
1.61906
-0.0601581
-0.10088
-0.181849
-0.278659
-0.451531
-0.67162
-0.950251
-1.25504
-1.55048
-1.79259
-1.92746
-1.90925
-1.70795
-1.34539
-0.879174
-0.385548
0.0752819
0.476793
0.807268
1.06945
1.27176
1.42541
1.54083
-0.0596664
-0.101032
-0.182023
-0.279203
-0.451851
-0.670966
-0.946878
-1.24643
-1.53312
-1.76239
-1.88119
-1.84672
-1.63433
-1.27034
-0.813816
-0.338064
0.10014
0.477511
0.785833
1.02905
1.21601
1.35739
1.46327
-0.0591855
-0.101185
-0.182188
-0.279702
-0.452041
-0.67004
-0.943005
-1.23701
-1.51464
-1.73085
-1.83371
-1.78368
-1.56148
-1.19762
-0.752111
-0.294981
0.120675
0.474407
0.761168
0.986101
1.15839
1.28822
1.38528
-0.0587029
-0.101328
-0.182339
-0.280151
-0.452093
-0.66882
-0.938591
-1.22674
-1.49499
-1.69799
-1.78512
-1.72037
-1.48978
-1.12767
-0.694572
-0.256911
0.136196
0.466795
0.732657
0.940001
1.09836
1.21735
1.30629
-0.0582475
-0.101484
-0.182499
-0.280585
-0.45205
-0.66736
-0.93368
-1.21562
-1.47413
-1.66374
-1.73545
-1.65698
-1.41965
-1.06113
-0.641962
-0.224716
0.145838
0.453882
0.699592
0.890171
1.0354
1.1443
1.22566
-0.0577704
-0.101586
-0.182692
-0.281029
-0.451922
-0.665439
-0.927585
-1.20231
-1.45001
-1.62562
-1.6823
-1.5918
-1.35052
-0.998609
-0.595716
-0.200086
0.148159
0.435154
0.662655
0.838376
0.972226
1.07295
1.14878
-0.0570896
-0.101469
-0.182534
-0.280791
-0.450526
-0.661235
-0.917723
-1.18348
-1.41886
-1.58014
-1.62366
-1.52573
-1.28729
-0.949149
-0.568393
-0.197859
0.127013
0.394117
0.605845
0.769692
0.894995
0.989792
1.0619
-0.0566589
-0.101498
-0.18261
-0.280457
-0.448506
-0.655376
-0.904711
-1.15976
-1.3813
-1.52756
-1.55874
-1.45594
-1.22427
-0.904295
-0.549587
-0.207178
0.0923072
0.338554
0.534157
0.686157
0.803008
0.891987
0.960509
-0.056502
-0.101726
-0.182974
-0.280166
-0.446071
-0.648217
-0.889084
-1.13183
-1.33797
-1.4681
-1.4867
-1.37991
-1.15692
-0.85756
-0.531319
-0.219269
0.0529752
0.277048
0.455607
0.595267
0.703643
0.787077
0.852468
-0.0563171
-0.101905
-0.183236
-0.279515
-0.442698
-0.639145
-0.870137
-1.0989
-1.28799
-1.40079
-1.40659
-1.29675
-1.08444
-0.808185
-0.512661
-0.232779
0.0109957
0.212219
0.373623
0.501103
0.601436
0.679779
0.742412
-0.0559804
-0.101878
-0.183136
-0.278158
-0.437884
-0.627485
-0.847009
-1.05998
-1.23035
-1.3248
-1.31793
-1.20647
-1.00702
-0.755967
-0.492478
-0.245203
-0.0298487
0.14892
0.293576
0.409036
0.501029
0.573628
0.632475
-0.0555774
-0.101666
-0.18268
-0.276057
-0.431516
-0.613062
-0.819496
-1.01492
-1.16511
-1.2405
-1.22137
-1.10953
-0.92423
-0.69891
-0.466883
-0.250992
-0.0629186
0.0940684
0.222024
0.324886
0.407435
0.472923
0.526463
-0.0552486
-0.101358
-0.181985
-0.273297
-0.423676
-0.596008
-0.78788
-0.964316
-1.09334
-1.1495
-1.11881
-1.00755
-0.836673
-0.636196
-0.433748
-0.24725
-0.0851062
0.0505269
0.161527
0.25111
0.323355
0.3809
0.428301
-0.0550461
-0.100993
-0.181104
-0.269931
-0.414427
-0.57647
-0.752545
-0.909017
-1.0166
-1.05421
-1.01336
-0.904013
-0.747762
-0.571053
-0.39633
-0.237341
-0.0999345
0.0149006
0.109005
0.185208
0.246941
0.296417
0.337492
-0.0549728
-0.10056
-0.180014
-0.26589
-0.403682
-0.554439
-0.71374
-0.849823
-0.936568
-0.957463
-0.909029
-0.803878
-0.663267
-0.509874
-0.361501
-0.228287
-0.114041
-0.0187637
0.0594332
0.123038
0.174924
0.216898
0.252133
-0.054985
-0.100006
-0.178614
-0.261027
-0.391255
-0.529804
-0.671651
-0.787534
-0.855006
-0.862166
-0.809845
-0.712096
-0.588718
-0.458499
-0.334972
-0.225345
-0.131804
-0.053823
0.0104915
0.0631992
0.106681
0.142311
0.172668
-0.0550555
-0.0992668
-0.176771
-0.255134
-0.376901
-0.502437
-0.626516
-0.723046
-0.773677
-0.770906
-0.718854
-0.631703
-0.526737
-0.418869
-0.317923
-0.228847
-0.152819
-0.0891397
-0.0361563
0.00777363
0.0445066
0.0750618
0.101457
-0.0551371
-0.098255
-0.174313
-0.247991
-0.360403
-0.472307
-0.578739
-0.657379
-0.694146
-0.685363
-0.637187
-0.562657
-0.475986
-0.388437
-0.307022
-0.235039
-0.173236
-0.120957
-0.076976
-0.0400088
-0.00871145
0.0176865
0.0406967
-0.0552056
-0.0968878
-0.171065
-0.239378
-0.341602
-0.439528
-0.528901
-0.59156
-0.617487
-0.605942
-0.563794
-0.502199
-0.432211
-0.362136
-0.296955
-0.23896
-0.188701
-0.145726
-0.109165
-0.0780882
-0.0515103
-0.0288831
-0.00905758
-0.0552057
-0.0950493
-0.166824
-0.229111
-0.320451
-0.404385
-0.477697
-0.526447
-0.544103
-0.531825
-0.496239
-0.446381
-0.390613
-0.335021
-0.283208
-0.23684
-0.196357
-0.161476
-0.131592
-0.106032
-0.0840695
-0.0652973
-0.0488508
-0.055101
-0.0926401
-0.161407
-0.217055
-0.297029
-0.367313
-0.42586
-0.462657
-0.473887
-0.461719
-0.432065
-0.392031
-0.347901
-0.304118
-0.263322
-0.22671
-0.194619
-0.166846
-0.142962
-0.122464
-0.104819
-0.0897101
-0.0765079
-0.0548072
-0.0895238
-0.154631
-0.203164
-0.271563
-0.328873
-0.374119
-0.400705
-0.406745
-0.394884
-0.370157
-0.338123
-0.303431
-0.269324
-0.237662
-0.209303
-0.184434
-0.162905
-0.144363
-0.128448
-0.114742
-0.103012
-0.0927871
-0.0542682
-0.085598
-0.146371
-0.187491
-0.24443
-0.289748
-0.323302
-0.3413
-0.343223
-0.331837
-0.311349
-0.286022
-0.259249
-0.233321
-0.209504
-0.188348
-0.169921
-0.154059
-0.140463
-0.128841
-0.11887
-0.110359
-0.102973
-0.0533682
-0.0807432
-0.136556
-0.170224
-0.21617
-0.250782
-0.27444
-0.285601
-0.284646
-0.274227
-0.257727
-0.238298
-0.218315
-0.19931
-0.182083
-0.166932
-0.153828
-0.142594
-0.132979
-0.124746
-0.11766
-0.111571
-0.106265
-0.0520364
-0.0749124
-0.125231
-0.151701
-0.187496
-0.212993
-0.228787
-0.235026
-0.232599
-0.223798
-0.211198
-0.197016
-0.182835
-0.169629
-0.157865
-0.147673
-0.138973
-0.131595
-0.125331
-0.119994
-0.115417
-0.111487
-0.108069
-0.0501573
-0.0680922
-0.112565
-0.132425
-0.159277
-0.177483
-0.187547
-0.190698
-0.188002
-0.181211
-0.172167
-0.162354
-0.15279
-0.144062
-0.136423
-0.129906
-0.124413
-0.119792
-0.115884
-0.112548
-0.10967
-0.107174
-0.104992
-0.047683
-0.0603952
-0.0988891
-0.113036
-0.132424
-0.145213
-0.151472
-0.152937
-0.150623
-0.145737
-0.139512
-0.13293
-0.126636
-0.12099
-0.116122
-0.112027
-0.108611
-0.105758
-0.103347
-0.101281
-0.0994865
-0.0979129
-0.0965374
-0.0445759
-0.0520239
-0.0846764
-0.0942392
-0.107741
-0.116769
-0.120707
-0.121329
-0.119566
-0.116188
-0.111998
-0.107639
-0.103544
-0.0999293
-0.096871
-0.0943381
-0.0922572
-0.0905306
-0.0890752
-0.0878176
-0.0867164
-0.0857332
-0.0848749
-0.0408829
-0.043321
-0.0704977
-0.0766935
-0.0857717
-0.0923233
-0.0949663
-0.0952193
-0.0939744
-0.0917338
-0.0889929
-0.086171
-0.0835571
-0.0812877
-0.0794028
-0.0778664
-0.0766196
-0.0755875
-0.0747124
-0.0739438
-0.0732599
-0.0726365
-0.0720924
-0.0367197
-0.0346891
-0.0569437
-0.0608857
-0.0667587
-0.0717154
-0.0737446
-0.0739089
-0.0731006
-0.0716914
-0.0699732
-0.068197
-0.0665552
-0.0651333
-0.0639558
-0.0629903
-0.0621954
-0.0615171
-0.0609201
-0.0603718
-0.0598652
-0.0593873
-0.0589609
-0.032239
-0.026564
-0.0444825
-0.0470721
-0.0506183
-0.0545111
-0.0563236
-0.0565655
-0.0560772
-0.0552366
-0.0542047
-0.0531341
-0.0521315
-0.0512676
-0.0505486
-0.0499637
-0.0494752
-0.049057
-0.0486783
-0.0483283
-0.0479977
-0.0476889
-0.0474131
-0.0276649
-0.0192877
-0.0334256
-0.0352684
-0.0370675
-0.0401179
-0.0419182
-0.0423423
-0.0421137
-0.0416607
-0.0411122
-0.0405472
-0.0400145
-0.0395578
-0.0391775
-0.038869
-0.0386054
-0.0383727
-0.0381507
-0.0379367
-0.0377259
-0.0375253
-0.0373433
-0.023115
-0.0129917
-0.0237721
-0.0251878
-0.0255299
-0.0276724
-0.029416
-0.0300074
-0.0299256
-0.0296496
-0.0293418
-0.029054
-0.0287941
-0.0285813
-0.0284085
-0.028274
-0.0281581
-0.0280548
-0.0279501
-0.027846
-0.0277393
-0.0276386
-0.0275482
-0.0187704
-0.00787872
-0.0157254
-0.0169691
-0.0161509
-0.0173306
-0.0189941
-0.0198617
-0.0200198
-0.0199249
-0.0197973
-0.0197027
-0.019628
-0.019574
-0.0195245
-0.0194801
-0.0194271
-0.0193677
-0.0192943
-0.0192144
-0.0191272
-0.0190436
-0.0189654
-0.0139028
-0.00280048
-0.00799441
-0.00897581
-0.00685199
-0.00645891
-0.00735189
-0.00798861
-0.00799965
-0.00773833
-0.0074867
-0.0073621
-0.00735014
-0.00743209
-0.00756695
-0.00773899
-0.00792024
-0.00810518
-0.00827803
-0.00844173
-0.00858906
-0.00872818
-0.00885519
-0.0092839
-0.00251011
-0.00522422
-0.00684501
-0.00557501
-0.00497365
-0.00575145
-0.00679657
-0.00735736
-0.00746554
-0.00732475
-0.00710806
-0.00685616
-0.00659937
-0.00632476
-0.00604645
-0.00575546
-0.00546737
-0.0051785
-0.00490451
-0.00464368
-0.00441009
-0.00419936
0.0557327
0.0322353
0.0666796
0.103391
0.160375
0.246173
0.368553
0.536964
0.759614
1.04806
1.41757
1.89471
2.51496
3.32078
4.34934
5.61911
7.11666
8.79361
10.5756
12.369
14.0953
15.6656
17.0816
0.0510884
0.0348485
0.0612111
0.100032
0.156322
0.240676
0.362391
0.531521
0.758572
1.05753
1.4466
1.95334
2.61288
3.46467
4.54148
5.85658
7.39191
9.09602
10.8923
12.6883
14.4048
15.9599
17.3497
0.0453109
0.0364459
0.0556793
0.093696
0.148418
0.229718
0.348206
0.514882
0.74222
1.04644
1.44831
1.97607
2.66406
3.5484
4.65739
5.9995
7.55292
9.2643
11.0565
12.8393
14.5343
16.066
17.4264
0.0381256
0.0357601
0.0498042
0.0843572
0.135952
0.212381
0.324795
0.48521
0.707702
1.01036
1.41596
1.95336
2.65589
3.55664
4.67986
6.03002
7.5827
9.28386
11.0572
12.815
14.4809
15.985
17.3157
0.029085
0.0313661
0.0424726
0.0717833
0.118172
0.18751
0.290603
0.440175
0.651489
0.944013
1.342
1.87477
2.57477
3.47273
4.5898
5.92787
7.46139
9.13707
10.8806
12.6076
14.2429
15.7212
17.0264
0.0173887
0.0219261
0.0316635
0.0549503
0.0938889
0.153468
0.243579
0.377098
0.569986
0.842546
1.21993
1.73175
2.40983
3.28336
4.37171
5.67572
7.17045
8.80501
10.5085
12.2005
13.8075
15.2668
16.5571
0.00176395
0.00627119
0.0147605
0.0318321
0.0613802
0.108361
0.181651
0.293744
0.460808
0.703553
1.04763
1.52289
2.16096
2.99044
4.03017
5.28133
6.72079
8.301
9.95525
11.6072
13.1857
14.6303
15.915
-0.0189527
-0.0164769
-0.0106044
-0.000279734
0.0179986
0.0490933
0.100927
0.185256
0.318088
0.52037
0.8183
1.24251
1.82549
2.59675
3.57624
4.7667
6.14728
7.67321
9.28057
10.8953
12.4469
13.875
15.1495
0.0849224
-0.000249836
0.0708443
0.0771738
0.137107
0.222483
0.329872
0.488256
0.664218
0.84881
1.01793
1.14524
1.21944
1.22927
1.17675