/*--------------------------------*- C++ -*----------------------------------*\
  =========                 |
  \\      /  F ield         | OpenFOAM: The Open Source CFD Toolbox
   \\    /   O peration     | Website:  https://openfoam.org
    \\  /    A nd           | Version:  7
     \\/     M anipulation  |
\*---------------------------------------------------------------------------*/
FoamFile
{
    version     2.0;
    format      ascii;
    class       surfaceScalarField;
    location    "50";
    object      phi;
}
// * * * * * * * * * * * * * * * * * * * * * * * * * * * * * * * * * * * * * //

dimensions      [0 3 -1 0 0 0 0];

internalField   nonuniform List<scalar> 
25449
(
70.6357
32.225
-6.82653
52.3041
23.5122
-5.18069
38.94
17.2959
-3.93184
29.117
12.8093
-2.98635
21.8491
9.53913
-2.27115
16.4433
7.13609
-1.7303
12.4059
5.35866
-1.32129
9.38075
4.03703
-1.01188
7.10827
3.05013
-0.777646
5.3978
2.31055
-0.600074
4.10836
1.7546
-0.465159
3.13519
1.33548
-0.362312
2.40013
1.01861
-0.283553
1.84468
0.778331
-0.222882
1.42493
0.595558
-0.17581
1.10783
0.456107
-0.139006
0.868429
0.349412
-0.11001
0.68784
0.267599
-0.0870102
0.551742
0.204777
-0.0686785
0.449257
0.156518
-0.0540335
0.37213
0.119464
-0.0423378
0.314098
0.0910575
-0.0330251
0.0692871
-0.0256393
0.27045
57.0716
52.2102
42.4984
38.0854
31.7848
28.0096
23.8567
20.7375
17.9592
15.4366
13.5542
11.5411
10.2533
8.65949
7.77365
6.51672
5.90715
4.91663
4.50003
3.71767
3.43795
2.81668
2.63559
2.13784
2.02909
1.62511
1.57053
1.2369
1.22385
0.942239
0.961874
0.718081
0.764061
0.547225
0.614838
0.416822
0.502381
0.317234
0.417705
0.241195
0.353987
0.183183
0.306045
0.138999
0.105344
0.269989
45.0162
67.426
33.7651
49.3365
25.4008
36.3739
19.1563
26.982
14.479
20.114
10.9664
15.0536
8.32336
11.3026
6.33132
8.50876
4.82808
6.41987
3.69256
4.85319
2.83415
3.67509
2.18485
2.78714
1.69357
2.11639
1.32184
1.60863
1.04064
1.22343
0.828068
0.930653
0.667516
0.707777
0.546382
0.537956
0.455084
0.408532
0.386331
0.309947
0.334586
0.234927
0.295646
0.177939
0.13464
0.266349
35.1103
78.697
26.5999
57.847
20.1693
42.8044
15.308
31.8433
11.6314
23.7905
8.85006
17.835
6.74523
13.4074
5.15193
10.1021
3.94553
7.62627
3.03185
5.76687
2.33971
4.36723
1.81531
3.31153
1.41801
2.5137
1.11706
1.90958
0.88922
1.45128
0.716863
1.10301
0.586615
0.838025
0.488301
0.636271
0.41417
0.482663
0.35832
0.365797
0.316265
0.276982
0.2846
0.209605
0.158481
0.26076
27.3049
86.8119
20.9743
64.1775
16.0738
47.705
12.3019
35.6152
9.41076
26.6817
7.2013
20.0444
5.51647
15.0922
4.2337
11.3848
3.25812
8.60186
2.51671
6.50828
1.95356
4.93038
1.52597
3.73911
1.20145
2.83823
0.955262
2.15576
0.768649
1.63789
0.62733
1.24433
0.520436
0.944919
0.439679
0.717028
0.378733
0.543609
0.332777
0.411753
0.29814
0.311619
0.272036
0.235708
0.178154
0.252363
21.3016
92.4454
16.6705
68.8086
12.9538
51.4217
10.0194
38.5496
7.7286
28.9725
5.95434
21.8187
4.58792
16.4587
3.53986
12.4329
2.73832
9.4034
2.12658
7.12002
1.66037
5.39659
1.30544
4.09404
1.03546
3.10821
0.830261
2.36096
0.674453
1.7937
0.556278
1.3625
0.466758
1.03444
0.399029
0.784757
0.347843
0.594795
0.30919
0.450406
0.280016
0.340793
0.258001
0.257724
0.194769
0.241386
16.7553
96.1464
13.4338
72.13
10.6206
54.2349
8.31988
40.8503
6.47994
30.8124
5.03056
23.2681
3.90064
17.5886
3.02622
13.3073
2.35302
10.0766
1.83665
7.6364
1.44159
5.79165
1.13989
4.39574
0.909789
3.3383
0.734502
2.53625
0.60112
1.92708
0.499746
1.46388
0.422797
1.11139
0.36446
0.843094
0.32028
0.638975
0.286851
0.483836
0.261569
0.366075
0.242456
0.276836
0.209217
0.228008
13.3431
98.3474
11.0253
74.4478
8.89641
56.3638
7.07071
42.676
5.5656
32.3176
4.35556
24.4781
3.39875
18.5454
2.65074
14.0553
2.0706
10.6567
1.62314
8.08385
1.27937
6.13543
1.01594
4.65917
0.814463
3.53979
0.660576
2.69013
0.543184
2.04447
0.45374
1.55332
0.385673
1.17946
0.333932
0.894835
0.294644
0.678263
0.264836
0.513644
0.242237
0.388674
0.225111
0.293963
0.22219
0.212138
10.6794
102.205
7.91308
77.2141
5.9058
58.3711
4.43644
44.1453
3.35255
33.4015
2.54822
25.2825
1.9484
19.1452
1.4993
14.5044
1.16197
10.9941
0.907924
8.3379
0.716157
6.32719
0.571112
4.80421
0.461221
3.64968
0.377855
2.7735
0.314557
2.10777
0.266473
1.60141
0.229941
1.21599
0.202186
0.92259
0.181101
0.699348
0.165084
0.52966
0.152919
0.400839
0.143684
0.303197
0.229205
0.13667
8.2806
105.195
6.13931
79.3554
4.58737
59.923
3.45251
45.2802
2.61599
34.238
1.9956
25.9028
1.53311
19.6077
1.18689
14.8506
0.926841
11.2541
0.730951
8.53379
0.583021
6.47512
0.47105
4.91619
0.386121
3.7346
0.321587
2.83803
0.272479
2.15688
0.235067
1.63882
0.20654
1.24451
0.184769
0.944361
0.168144
0.715973
0.155444
0.542361
0.145738
0.410545
0.138326
0.310608
0.234866
0.132665
6.41326
107.499
4.76304
81.0056
3.56689
61.1192
2.69217
46.1549
2.04733
34.8828
1.56905
26.3811
1.21241
19.9643
0.945365
15.1177
0.744701
11.4548
0.59346
8.68503
0.479156
6.58943
0.392533
5.00281
0.326718
3.80042
0.276586
2.88817
0.238314
2.19515
0.209031
1.6681
0.186583
1.26696
0.169342
0.961603
0.156078
0.729237
0.145864
0.552575
0.137994
0.418416
0.131936
0.316666
0.239527
0.127275
4.9653
109.261
3.7001
82.2708
2.78101
62.0383
2.10773
46.8282
1.61067
35.3799
1.24153
26.7503
0.965976
20.2399
0.759431
15.3242
0.604075
11.6101
0.486854
8.80225
0.398141
6.67814
0.330789
5.07016
0.279486
3.85172
0.24027
2.92738
0.21019
2.22523
0.187035
1.69126
0.169149
1.28485
0.155287
0.975464
0.144517
0.740008
0.136135
0.560957
0.129606
0.424945
0.124529
0.321742
0.243471
0.120585
3.8467
110.595
2.88267
83.2348
2.17854
62.7424
1.66045
47.3463
1.27658
35.7637
0.990682
27.0362
0.776738
20.4538
0.616038
15.4849
0.494938
11.7312
0.403394
8.89379
0.33397
6.74757
0.281122
5.12301
0.240725
3.89212
0.209696
2.95841
0.185743
2.24918
0.167153
1.70985
0.152651
1.29935
0.141283
0.986832
0.132338
0.748952
0.125287
0.568008
0.119726
0.430507
0.11535
0.326117
0.246908
0.111913
2.99201
111.592
2.26188
83.9649
1.72293
63.2814
1.32301
47.7462
1.02471
36.062
0.801342
27.2595
0.633462
20.6217
0.506909
15.6115
0.411248
11.8269
0.338725
8.96632
0.28356
6.80273
0.241414
5.16515
0.209043
3.92449
0.184021
2.98343
0.164544
2.26866
0.14927
1.72512
0.137207
1.31141
0.12762
0.996419
0.119965
0.756606
0.113843
0.57413
0.108946
0.435403
0.105046
0.330018
0.250006
0.101948
2.32827
112.319
1.78293
84.5103
1.37297
63.6913
1.06443
48.0547
0.831727
36.2948
0.655964
27.4353
0.522957
20.7547
0.422141
15.7123
0.345585
11.9034
0.287309
9.02459
0.242798
6.84724
0.208629
5.19932
0.182225
3.9509
0.161651
3.00401
0.145471
2.28484
0.13262
1.73797
0.122322
1.32171
0.114007
1.00473
0.107261
0.763353
0.101781
0.57961
0.0973358
0.439848
0.0937513
0.333603
0.252883
0.0908742
1.82811
112.835
1.42554
84.9129
1.1136
64.0032
0.873484
48.2949
0.689284
36.4789
0.54835
27.5762
0.440635
20.8624
0.358354
15.7946
0.29548
11.9663
0.24736
9.07271
0.210416
6.88419
0.18189
5.22785
0.159689
3.9731
0.14223
3.02146
0.12834
2.29873
0.117156
1.74915
0.108054
1.33081
0.100587
1.0122
0.0944342
0.769506
0.0893655
0.584679
0.0852031
0.444011
0.0818122
0.336994
0.255628
0.0790674
1.44756
113.181
1.15686
85.2035
0.920287
64.2398
0.731854
48.4833
0.583726
36.6271
0.468348
27.6916
0.378984
20.9518
0.310026
15.8635
0.256915
12.0194
0.215998
9.11363
0.184393
6.91579
0.15983
5.25241
0.140564
3.99236
0.125263
3.03677
0.112943
2.31105
0.102882
1.75921
0.0945721
1.33912
0.0876527
1.01912
0.0818729
0.775285
0.0770557
0.589496
0.0730622
0.448004
0.0697855
0.34027
0.258295
0.0671184
1.15907
113.39
0.956378
85.4062
0.777702
64.4185
0.628095
48.6329
0.506506
36.7487
0.409583
27.7885
0.333262
21.0281
0.273648
15.9232
0.227307
12.0658
0.191343
9.14959
0.16338
6.94375
0.141503
5.27429
0.124211
4.00966
0.110347
3.05063
0.0990561
2.32234
0.0897192
1.76855
0.0819056
1.34694
0.0753208
1.02571
0.0697636
0.780843
0.0650953
0.594164
0.0612033
0.451896
0.057999
0.343475
0.260908
0.0553859
0.943396
113.489
0.809845
85.5398
0.675298
64.553
0.554387
48.7538
0.451835
36.8512
0.367789
27.8726
0.300342
21.0956
0.246947
15.9765
0.205032
12.1077
0.172254
9.18237
0.146607
6.9694
0.126418
5.29448
0.110351
4.02572
0.0973641
3.06362
0.0866886
2.33302
0.0777708
1.77747
0.0702354
1.35447
0.0638329
1.03211
0.0583972
0.786278
0.0538155
0.598746
0.0499908
0.455721
0.0468441
0.346621
0.263469
0.0442828
0.783419
113.498
0.704553
85.6187
0.603614
64.654
0.503679
48.8537
0.41446
36.9404
0.339053
27.948
0.277319
21.1573
0.227777
16.0261
0.18851
12.147
0.157585
9.2133
0.133252
6.99373
0.114
5.31373
0.0985978
4.04113
0.0860739
3.07614
0.0757098
2.34338
0.0669936
1.78619
0.0595861
1.36188
0.0532683
1.03843
0.0478973
0.791649
0.0433756
0.603268
0.0396128
0.459484
0.0365311
0.349703
0.265964
0.0340366
0.667986
113.433
0.632239
85.6544
0.556491
64.7297
0.471359
48.9389
0.390913
37.0209
0.320758
28.0181
0.262209
21.2159
0.214628
16.0737
0.176591
12.185
0.146454
9.24343
0.122637
7.01755
0.103727
5.33264
0.0885488
4.0563
0.0761661
3.08852
0.0658848
2.35366
0.0572142
1.79486
0.049836
1.36926
0.043549
1.04471
0.0382227
0.796976
0.033765
0.607725
0.030083
0.463166
0.0270927
0.352693
0.268363
0.0246937
0.584146
113.304
0.583258
85.6553
0.526719
64.7863
0.452018
49.0136
0.377126
37.0958
0.30984
28.0854
0.252704
21.273
0.20576
16.1206
0.167961
12.2228
0.137871
9.27352
0.114017
7.0414
0.0950394
5.35162
0.0797886
4.07155
0.067336
3.10097
0.056995
2.364
0.0482815
1.80357
0.0408872
1.37665
0.0346191
1.05098
0.0293494
0.802245
0.0249828
0.612092
0.021416
0.466732
0.0185526
0.355557
0.270633
0.0162822
0.524485
113.123
0.55215
85.6276
0.510253
64.8282
0.442641
49.0812
0.370839
37.1676
0.304593
28.1517
0.247505
21.3301
0.200179
16.1679
0.16186
12.2611
0.131252
9.30413
0.106944
7.06571
0.0875958
5.37097
0.0720556
4.08709
0.0593857
3.11364
0.048892
2.3745
0.0400859
1.81238
0.0326601
1.38408
0.0264202
1.05722
0.0212332
0.807432
0.0169922
0.616333
0.0135779
0.470147
0.0108769
0.358258
0.27274
0.00876986
-0.0813805
113.087
-0.0548389
85.6011
-0.0349741
64.8083
-0.0200215
49.0662
-0.00876621
37.1563
-0.000306975
28.1432
0.00601068
21.3238
0.0106736
16.1633
0.0140433
12.2577
0.0163731
9.3018
0.0178244
7.06426
0.0184808
5.37031
0.0183897
4.08719
0.0175932
3.11444
0.0161789
2.37591
0.0142878
1.81427
0.0121178
1.38625
0.00987961
1.05946
0.00775567
0.809556
0.00587427
0.618214
0.00428978
0.471731
0.00301081
0.359537
0.273744
0.00200729
-0.0811226
113.055
-0.0573457
85.5773
-0.039542
64.7905
-0.0261311
49.0528
-0.0160293
37.1462
-0.00843315
28.1356
-0.00276052
21.3181
0.00142251
16.1591
0.00444048
12.2547
0.00652283
9.29972
0.00781752
7.06297
0.00840327
5.36973
0.0083285
4.08726
0.00764025
3.11513
0.0064311
2.37712
0.00484416
1.81585
0.00307035
1.38802
0.00130288
1.06123
-0.000306256
0.811166
-0.00166496
0.619573
-0.00275222
0.472819
-0.00358509
0.36037
0.274365
-0.00420611
-0.0806174
113.026
-0.0593187
85.556
-0.04336
64.7745
-0.0313275
49.0408
-0.0222562
37.1372
-0.01543
28.1288
-0.0103315
21.313
-0.00657363
16.1553
-0.00386441
12.252
-0.00199442
9.29785
-0.00082621
7.0618
-0.000282852
5.36918
-0.000312691
4.08729
-0.000861541
3.11568
-0.00183177
2.37809
-0.00308
1.8171
-0.00442798
1.38937
-0.00570646
1.06251
-0.00679953
0.812259
-0.00765296
0.620427
-0.00827371
0.473439
-0.00869866
0.360795
0.274643
-0.008977
-0.0799281
113
-0.06087
85.537
-0.0465779
64.7603
-0.0357895
49.03
-0.027647
37.129
-0.0215138
28.1227
-0.0169308
21.3084
-0.013553
16.152
-0.0111171
12.2496
-0.00943074
9.29616
-0.00836425
7.06073
-0.00784005
5.36866
-0.00780107
4.08725
-0.00818459
3.11606
-0.00888864
2.37879
-0.00977291
1.81799
-0.0106778
1.39028
-0.0114641
1.06329
-0.0120544
0.812849
-0.0124312
0.620803
-0.0126249
0.473633
-0.012686
0.360856
0.274623
-0.0126662
-0.0790993
112.977
-0.0620815
85.5199
-0.0493056
64.7475
-0.039648
49.0203
-0.0323486
37.1217
-0.0268436
28.1172
-0.0227267
21.3043
-0.0196908
16.1489
-0.0174984
12.2474
-0.0159716
9.29464
-0.0149861
7.05975
-0.0144615
5.36813
-0.0143337
4.08712
-0.0145305
3.11626
-0.0149471
2.37921
-0.0154504
1.81849
-0.0159051
1.39073
-0.0162071
1.06359
-0.0163182
0.81296
-0.016255
0.62074
-0.0160657
0.473444
-0.0158089
0.360599
0.274348
-0.0155339
-0.0781641
112.957
-0.0630146
85.5048
-0.0516264
64.7361
-0.0430023
49.0117
-0.0364729
37.1152
-0.0315405
28.1122
-0.0278474
21.3006
-0.0251208
16.1462
-0.0231466
12.2454
-0.0217586
9.29325
-0.0208364
7.05882
-0.0202949
5.36759
-0.0200613
4.08689
-0.0200543
3.11625
-0.020168
2.37933
-0.020281
1.8186
-0.0202872
1.39074
-0.0201213
1.06343
-0.0197839
0.812623
-0.0193208
0.620277
-0.018793
0.472916
-0.0182619
0.360068
0.273857
-0.0177708
-0.0771477
112.939
-0.063717
85.4914
-0.053604
64.726
-0.0459291
49.004
-0.0401059
37.1094
-0.0356979
28.1078
-0.0323918
21.2973
-0.0299465
16.1437
-0.0281682
12.2436
-0.0269015
9.29198
-0.0260273
7.05795
-0.0254548
5.36702
-0.0251015
4.08654
-0.0248775
3.11603
-0.0246781
2.37913
-0.0243983
1.81832
-0.0239652
1.3903
-0.0233545
1.06282
-0.022603
0.811871
-0.021781
0.619455
-0.0209572
0.472092
-0.0201914
0.359302
0.273185
-0.0195187
-0.0760699
112.923
-0.0642261
85.4795
-0.0552898
64.717
-0.04849
48.9972
-0.0433172
37.1042
-0.0393914
28.1039
-0.0364401
21.2943
-0.0342513
16.1416
-0.0326499
12.242
-0.0314889
9.29082
-0.0306497
7.05711
-0.0300342
5.3664
-0.0295503
4.08605
-0.0290998
3.11558
-0.0285825
2.37861
-0.0279134
1.81765
-0.0270564
1.38945
-0.0260283
1.06179
-0.0248992
0.810742
-0.0237582
0.618314
-0.0226775
0.471011
-0.0217123
0.358337
0.27236
-0.0208877
-0.0749459
112.909
-0.0645727
85.4691
-0.0567261
64.7092
-0.0507355
48.9913
-0.0461636
37.0996
-0.0426827
28.1004
-0.0400578
21.2917
-0.0381038
16.1396
-0.0366622
12.2406
-0.0355935
9.28975
-0.0347781
7.05629
-0.0341099
5.36574
-0.0334868
4.08543
-0.0328042
3.11489
-0.0319686
2.37777
-0.0309193
1.8166
-0.0296584
1.38819
-0.0282433
1.06037
-0.0267731
0.809272
-0.0253509
0.616892
-0.0240487
0.469709
-0.0229149
0.357203
0.271409
-0.0219636
-0.073789
112.897
-0.0647823
85.4601
-0.0579471
64.7024
-0.0527075
48.986
-0.0486926
37.0956
-0.0456233
28.0973
-0.0432996
21.2894
-0.0415611
16.1379
-0.0402644
12.2393
-0.0392762
9.28876
-0.0384748
7.05549
-0.0377459
5.36501
-0.0369777
4.08466
-0.0360607
3.11398
-0.0349111
2.37662
-0.0334953
1.81519
-0.0318542
1.38655
-0.0300837
1.0586
-0.028308
0.807496
-0.0266395
0.615223
-0.0251472
0.468217
-0.023871
0.355927
0.270352
-0.0228141
-0.0726101
112.886
-0.0648767
85.4524
-0.0589832
64.6965
-0.0544425
48.9815
-0.0509454
37.0921
-0.048258
28.0947
-0.0462132
21.2873
-0.0446729
16.1363
-0.043508
12.2381
-0.0425898
9.28785
-0.0417943
7.0547
-0.0409986
5.36421
-0.0400817
4.08375
-0.0389314
3.11283
-0.037476
2.37517
-0.035711
1.81342
-0.0337161
1.38455
-0.0316225
1.05651
-0.0295752
0.805449
-0.0276918
0.61334
-0.0260366
0.466562
-0.0246402
0.354531
0.269207
-0.023495
-0.0714183
112.877
-0.0648748
85.4459
-0.0598611
64.6915
-0.0559722
48.9776
-0.0529578
37.0891
-0.050626
28.0923
-0.0488399
21.2856
-0.0474827
16.135
-0.0464378
12.2371
-0.0455807
9.28699
-0.0447842
7.0539
-0.043917
5.36334
-0.0428503
4.08268
-0.0414708
3.11145
-0.0397214
2.37342
-0.037628
1.81133
-0.0353073
1.38223
-0.0329225
1.05413
-0.0306352
0.803161
-0.0285652
0.61127
-0.0267703
0.464767
-0.0252722
0.353033
0.267988
-0.024053
-0.0702217
112.87
-0.0647934
85.4404
-0.0606033
64.6873
-0.0573246
48.9743
-0.0547615
37.0865
-0.0527617
28.0903
-0.0512165
21.284
-0.0500288
16.1338
-0.0490935
12.2362
-0.0482896
9.28618
-0.0474866
7.0531
-0.046545
5.3624
-0.0453293
4.08146
-0.0437278
3.10985
-0.0416993
2.37139
-0.0393008
1.80893
-0.0366837
1.37961
-0.034039
1.05148
-0.031541
0.800663
-0.0293092
0.609038
-0.0273949
0.462853
-0.0258104
0.351448
0.266706
-0.0245285
-0.0690278
112.864
-0.0646474
85.436
-0.0612312
64.6838
-0.0585255
48.9716
-0.0563857
37.0844
-0.0546969
28.0886
-0.0533767
21.2827
-0.0523464
16.1328
-0.0515116
12.2353
-0.0507543
9.28543
-0.0499403
7.05228
-0.0489229
5.36139
-0.0475613
4.0801
-0.0457473
3.10803
-0.0434577
2.3691
-0.0407795
1.80625
-0.0378962
1.37673
-0.0350219
1.04861
-0.0323402
0.797982
-0.0299687
0.606667
-0.0279519
0.460836
-0.0262936
0.34979
0.26537
-0.0249583
-0.0678426
112.86
-0.0644504
85.4327
-0.0617637
64.6812
-0.0595977
48.9694
-0.0578565
37.0826
-0.05646
28.0872
-0.0553507
21.2816
-0.0544672
16.1319
-0.053725
12.2346
-0.0530085
9.28471
-0.0521803
7.05146
-0.0510871
5.36029
-0.0495846
4.0786
-0.0475702
3.10602
-0.0450397
2.36657
-0.0421092
1.80332
-0.0389901
1.37361
-0.0359155
1.04553
-0.0330751
0.795141
-0.0305834
0.604175
-0.0284786
0.458731
-0.0267568
0.348068
0.263989
-0.025375
-0.0666724
112.857
-0.0642158
85.4302
-0.062219
64.6792
-0.0605635
48.9678
-0.059199
37.0813
-0.0580784
28.0861
-0.0571676
21.2807
-0.0564216
16.1311
-0.055765
12.2339
-0.0550847
9.28403
-0.05424
7.05061
-0.0530724
5.35912
-0.0514357
4.07696
-0.0492353
3.10382
-0.0464863
2.36382
-0.043332
1.80017
-0.0400081
1.37029
-0.0367617
1.04229
-0.0337859
0.792166
-0.0311915
0.601581
-0.0290112
0.456551
-0.0272342
0.346291
0.262566
-0.0258116
-0.0655227
112.855
-0.0639547
85.4286
-0.0626135
64.6778
-0.0614427
48.9666
-0.0604356
37.0803
-0.0595766
28.0853
-0.0588535
21.28
-0.058237
16.1305
-0.0576602
12.2333
-0.0570122
9.28338
-0.0561499
7.04975
-0.0549105
5.35789
-0.053148
4.0752
-0.0507776
3.10145
-0.0478345
2.36088
-0.0444864
1.79682
-0.0409887
1.36679
-0.0375985
1.0389
-0.0345097
0.789077
-0.0318287
0.5989
-0.029584
0.454306
-0.0277591
0.344466
0.261108
-0.0263006
-0.0643982
112.854
-0.0636788
85.4279
-0.0629629
64.6771
-0.0622546
48.9659
-0.0615885
37.0796
-0.0609785
28.0846
-0.060434
21.2794
-0.0599399
16.13
-0.059438
12.2328
-0.0588196
9.28276
-0.0579394
7.04887
-0.0566319
5.35658
-0.0547533
4.07332
-0.0522308
3.09893
-0.0491192
2.35777
-0.0456083
1.79331
-0.0419685
1.36315
-0.0384625
1.03539
-0.0352824
0.785897
-0.0325307
0.596148
-0.0302322
0.452007
-0.0283662
0.3426
0.259617
-0.0268758
-0.0633044
112.855
-0.0633982
85.428
-0.0632824
64.677
-0.0630174
48.9656
-0.062678
37.0793
-0.0623067
28.0843
-0.0619328
21.279
-0.0615554
16.1296
-0.0611244
12.2324
-0.0605335
9.28217
-0.059636
7.04797
-0.0582652
5.35521
-0.0562818
4.07134
-0.0536261
3.09627
-0.0503731
2.35451
-0.0467313
1.78967
-0.0429815
1.3594
-0.039388
1.0318
-0.036139
0.782648
-0.0333325
0.593341
-0.0309908
0.449666
-0.0290902
0.3407
0.258099
-0.027572
-0.0622456
112.856
-0.0631238
85.4289
-0.0635859
64.6775
-0.0637486
48.9658
-0.0637243
37.0792
-0.0635829
28.0841
-0.0633731
21.2788
-0.0631078
16.1294
-0.0627446
12.232
-0.0621798
9.28161
-0.0612664
7.04706
-0.0598381
5.35378
-0.057762
4.06926
-0.0549934
3.0935
-0.0516269
2.35115
-0.0478868
1.78593
-0.04406
1.35557
-0.0404082
1.02814
-0.0371134
0.779353
-0.034269
0.590497
-0.0318955
0.447292
-0.0299674
0.338771
0.256557
-0.0284253
-0.0612261
112.859
-0.0628642
85.4305
-0.0638873
64.6785
-0.0644644
48.9664
-0.0647457
37.0795
-0.0648271
28.0842
-0.0647764
21.2788
-0.0646194
16.1292
-0.0643217
12.2317
-0.0637826
9.28107
-0.0628555
7.04613
-0.0613761
5.3523
-0.0592203
4.06711
-0.0563597
3.09064
-0.0529084
2.3477
-0.0491033
1.78212
-0.0452333
1.3517
-0.0415536
1.02446
-0.038238
0.776037
-0.0353744
0.587633
-0.0329822
0.4449
-0.031035
0.336824
0.254996
-0.0294744
-0.0602504
112.862
-0.0626299
85.4329
-0.0641998
64.68
-0.0651814
48.9674
-0.0657609
37.0801
-0.0660599
28.0845
-0.0661642
21.2789
-0.0661129
16.1292
-0.0658792
12.2315
-0.0653659
9.28056
-0.0644279
7.04519
-0.0629047
5.35078
-0.0606829
4.06488
-0.0577519
3.08771
-0.0542447
2.34419
-0.0504083
1.77829
-0.0465296
1.34782
-0.0428545
1.02079
-0.0395452
0.772728
-0.0366842
0.584772
-0.0342896
0.442506
-0.032335
0.33487
0.253425
-0.0307639
-0.0593226
112.867
-0.0624289
85.436
-0.0645355
64.6822
-0.0659147
48.9687
-0.0667871
37.081
-0.0672999
28.085
-0.0675568
21.2791
-0.0676093
16.1292
-0.067439
12.2313
-0.0669524
9.28007
-0.0660069
7.04425
-0.0644477
5.34922
-0.062174
4.06261
-0.0591942
3.08473
-0.0556601
2.34065
-0.0518264
1.77445
-0.0479744
1.34397
-0.0443382
1.01715
-0.0410662
0.769456
-0.0382338
0.58194
-0.0358578
0.440129
-0.033912
0.332924
0.251856
-0.0323431
-0.0584466
112.872
-0.0622707
85.4398
-0.0649075
64.6848
-0.0666793
48.9705
-0.0678415
37.0821
-0.0685659
28.0858
-0.0689737
21.2795
-0.0691293
16.1294
-0.0690222
12.2312
-0.0685638
9.27961
-0.0676148
7.0433
-0.0660277
5.34763
-0.0637166
4.0603
-0.0607096
3.08172
-0.0571772
2.33712
-0.0533798
1.77065
-0.0495903
1.34018
-0.0460297
1.01359
-0.0428297
0.766256
-0.0400574
0.579168
-0.0377268
0.437799
-0.0358121
0.331009
0.250307
-0.0342628
-0.0576258
112.879
-0.0621628
85.4444
-0.0653264
64.688
-0.0674888
48.9727
-0.0689395
37.0836
-0.0698748
28.0867
-0.0704333
21.2801
-0.0706922
16.1296
-0.0706493
12.2312
-0.070221
9.27918
-0.0692731
7.04235
-0.0676668
5.34602
-0.0653327
4.05796
-0.0623201
3.07871
-0.0588174
2.33362
-0.0550895
1.76693
-0.051399
1.33649
-0.0479526
1.01015
-0.0448641
0.763167
-0.0421892
0.576493
-0.0399371
0.435547
-0.0380839
0.329156
0.248801
-0.0365778
-0.0547463
112.883
-0.058415
85.448
-0.0611429
64.6907
-0.0631084
48.9746
-0.0644901
37.085
-0.0654212
28.0876
-0.0660046
21.2807
-0.0662999
16.1299
-0.0663005
12.2312
-0.0659284
9.27881
-0.0650618
7.04148
-0.0635801
5.34454
-0.0614334
4.05582
-0.058684
3.07596
-0.0555196
2.33045
-0.0521863
1.76359
-0.0489153
1.33322
-0.0458828
1.00711
-0.0431801
0.760464
-0.0408451
0.574158
-0.0388771
0.433579
-0.0372598
0.327539
0.247482
-0.0359409
-0.043813
112.887
-0.0469604
85.4512
-0.0493039
64.693
-0.0509981
48.9763
-0.0521939
37.0862
-0.0530045
28.0884
-0.0535166
21.2812
-0.053782
16.1302
-0.0537983
12.2312
-0.0535055
9.27852
-0.0528098
7.04079
-0.0516209
5.34335
-0.0499101
4.05411
-0.0477392
3.07379
-0.0452668
2.32798
-0.0426905
1.76102
-0.0401881
1.33072
-0.0378854
1.00481
-0.0358514
0.75843
-0.0341037
0.57241
-0.0326316
0.432107
-0.0314257
0.326333
0.2465
-0.0304444
-0.0350259
112.891
-0.0376841
85.4538
-0.0396659
64.695
-0.041102
48.9778
-0.0421188
37.0872
-0.0428109
28.0891
-0.0432507
21.2816
-0.0434824
16.1304
-0.0435063
12.2312
-0.0432765
9.27829
-0.0427205
7.04023
-0.0417708
5.3424
-0.0404113
4.05275
-0.0386995
3.07208
-0.036767
2.32605
-0.0347718
1.75902
-0.0328536
1.3288
-0.0310987
1.00306
-0.0295658
0.756897
-0.0282573
0.571102
-0.0271588
0.431008
-0.0262629
0.325437
0.245774
-0.0255367
-0.0279661
112.894
-0.0301774
85.4561
-0.0318277
64.6967
-0.0330257
48.979
-0.0338757
37.088
-0.0344559
28.0897
-0.0348259
21.282
-0.0350228
16.1306
-0.0350485
12.2313
-0.0348678
9.27811
-0.0344248
7.03979
-0.0336684
5.34165
-0.0325905
4.05167
-0.0312419
3.07073
-0.0297307
2.32454
-0.0281823
1.75747
-0.0267084
1.32733
-0.0253666
1.00171
-0.0242072
0.755738
-0.023225
0.570119
-0.0224056
0.430189
-0.0217394
0.324771
0.245238
-0.0212028
-0.0223056
112.896
-0.0241239
85.4579
-0.0254822
64.698
-0.0264696
48.98
-0.0271712
37.0887
-0.0276509
28.0902
-0.0279574
21.2823
-0.0281215
16.1308
-0.0281457
12.2313
-0.0280032
9.27796
-0.0276507
7.03944
-0.0270494
5.34105
-0.0261957
4.05082
-0.0251331
3.06967
-0.02395
2.32336
-0.0227454
1.75627
-0.0216086
1.32619
-0.0205792
1.00068
-0.0196969
0.754856
-0.0189557
0.569378
-0.0183426
0.429576
-0.0178447
0.324273
0.24484
-0.0174473
-0.0177557
112.898
-0.0192226
85.4593
-0.0203191
64.6991
-0.0211168
48.9808
-0.0216838
37.0893
-0.0220716
28.0906
-0.0223192
21.2826
-0.0224514
16.1309
-0.0224711
12.2313
-0.0223576
9.27785
-0.0220773
7.03916
-0.0216006
5.34057
-0.0209264
4.05014
-0.0200914
3.06883
-0.0191664
2.32243
-0.0182298
1.75533
-0.0173521
1.32531
-0.0165628
0.999895
-0.0158888
0.754182
-0.0153273
0.568817
-0.0148675
0.429116
-0.0144941
0.323899
0.244546
-0.0141995
-0.0142135
112.9
-0.0154569
85.4606
-0.0163874
64.7
-0.017066
48.9814
-0.0175498
37.0898
-0.0178822
28.0909
-0.0180958
21.2828
-0.0182121
16.131
-0.0182344
12.2313
-0.018147
9.27776
-0.0179237
7.03893
-0.0175417
5.34019
-0.0170014
4.0496
-0.0163335
3.06816
-0.0155963
2.32169
-0.014853
1.75459
-0.0141595
1.32462
-0.0135407
0.999276
-0.013013
0.753654
-0.0125766
0.56838
-0.0122222
0.428761
-0.0119348
0.323612
0.244322
-0.011711
-0.0112215
112.901
-0.0121536
85.4615
-0.0128512
64.7007
-0.0133589
48.9819
-0.0137198
37.0902
-0.0139662
28.0912
-0.0141227
21.2829
-0.0142051
16.1311
-0.014216
12.2313
-0.0141428
9.27769
-0.0139654
7.03876
-0.0136663
5.33989
-0.0132463
4.04918
-0.0127299
3.06765
-0.0121626
2.32113
-0.0115933
1.75402
-0.0110641
1.32409
-0.0105964
0.998808
-0.0101975
0.753255
-0.00986884
0.568051
-0.00960408
0.428497
-0.00939016
0.323398
0.244158
-0.00922595
-0.00549725
112.897
-0.00248024
85.4585
3.07034e-05
64.6982
0.0021195
48.9799
0.00385576
37.0884
0.00530275
28.0897
0.00651653
21.2817
0.00754675
16.1301
0.00844407
12.2304
0.00926229
9.27687
0.0100528
7.03797
0.0108534
5.33909
0.0116743
4.04836
0.0124967
3.06682
0.0132816
2.32034
0.0139915
1.75331
0.014598
1.32348
0.015098
0.998308
0.0154995
0.752854
0.0158079
0.567743
0.0160469
0.428258
0.016234
0.323211
0.244021
0.0163703
-0.00577353
112.894
-0.00260579
85.4553
3.01688e-05
64.6956
0.00222299
48.9777
0.00404589
37.0866
0.00556546
28.0882
0.00684071
21.2804
0.00792372
16.129
0.00886742
12.2295
0.00972778
9.27601
0.0105582
7.03714
0.0113977
5.33825
0.0122561
4.0475
0.0131131
3.06597
0.0139278
2.31953
0.0146615
1.75258
0.0152853
1.32286
0.015795
0.997799
0.0162039
0.752445
0.0165141
0.567433
0.0167517
0.42802
0.0169359
0.323027
0.243887
0.0170703
-0.00606384
112.89
-0.00273783
85.452
2.95472e-05
64.6928
0.00233153
48.9754
0.00424535
37.0847
0.00584109
28.0866
0.00718089
21.2791
0.00831939
16.1279
0.00931179
12.2285
0.0102164
9.27511
0.0110887
7.03626
0.0119687
5.33737
0.0128661
4.0466
0.0137588
3.06507
0.0146038
2.31868
0.0153611
1.75182
0.0160021
1.32222
0.0165208
0.99728
0.0169356
0.75203
0.0172477
0.567121
0.0174829
0.427785
0.0176635
0.322846
0.243755
0.0177952
-0.00636881
112.886
-0.00287638
85.4485
2.88953e-05
64.6899
0.00244536
48.9729
0.00445461
37.0827
0.0061303
28.0849
0.00753792
21.2777
0.00873471
16.1267
0.00977834
12.2275
0.0107295
9.27416
0.0116457
7.03535
0.0125681
5.33645
0.0135059
4.04567
0.0144353
3.06415
0.015311
2.31781
0.0160919
1.75104
0.0167496
1.32156
0.0172767
0.996753
0.0176957
0.751611
0.0180092
0.566807
0.0182412
0.427553
0.0184175
0.32267
0.243627
0.0185453
-0.00668884
112.881
-0.00302203
85.4448
2.79134e-05
64.6869
0.00256473
48.9704
0.00467414
37.0806
0.00643381
28.0832
0.00791261
21.2762
0.00917067
16.1254
0.0102682
12.2264
0.0112683
9.27316
0.0122306
7.03438
0.0131974
5.33548
0.014177
4.04469
0.0151442
3.06318
0.0160512
2.3169
0.0168553
1.75023
0.0175293
1.32089
0.0180641
0.996218
0.0184854
0.75119
0.0187997
0.566493
0.0190279
0.427325
0.0191988
0.322499
0.243505
0.0193213
-0.00702531
112.877
-0.00317506
85.441
2.68863e-05
64.6837
0.00268994
48.9677
0.00490448
37.0783
0.00675227
28.0813
0.00830586
21.2747
0.00962831
16.1241
0.0107825
12.2252
0.0118341
9.2721
0.0128448
7.03337
0.0138579
5.33447
0.0148812
4.04366
0.0158872
3.06217
0.0168258
2.31596
0.0176531
1.74941
0.0183428
1.3202
0.0188848
0.995676
0.0193069
0.750768
0.0196207
0.566179
0.0198446
0.427101
0.0200091
0.322334
0.243389
0.0201249
-0.00737825
112.872
-0.00333581
85.437
2.55896e-05
64.6803
0.00282126
48.9649
0.00514616
37.076
0.00708645
28.0794
0.00871857
21.273
0.0101087
16.1227
0.0113225
12.224
0.0124283
9.271
0.0134898
7.03231
0.0145514
5.3334
0.0156199
4.0426
0.0166659
3.06113
0.0176368
2.31499
0.0184871
1.74856
0.0191918
1.31949
0.0197407
0.995127
0.0201622
0.750346
0.0204741
0.565867
0.020693
0.426882
0.0208501
0.322177
0.243281
0.0209585
-0.00774929
112.867
-0.00350467
85.4327
2.4383e-05
64.6768
0.00295899
48.962
0.00539973
37.0736
0.00743714
28.0773
0.00915176
21.2713
0.010613
16.1212
0.0118895
12.2227
0.0130523
9.26984
0.0141672
7.0312
0.0152795
5.33229
0.016395
4.04148
0.017482
3.06004
0.0184856
2.31399
0.0193589
1.74768
0.0200779
1.31877
0.0206331
0.994572
0.021053
0.749926
0.0213615
0.565559
0.0215748
0.426668
0.021724
0.322028
0.24318
0.0218244
-0.00813874
112.861
-0.00368208
85.4283
2.28043e-05
64.6731
0.00310348
48.9589
0.0056658
37.071
0.00780519
28.0752
0.00960646
21.2695
0.0111425
16.1197
0.012485
12.2214
0.0137077
9.26861
0.0148787
7.03003
0.0160438
5.33113
0.017208
4.04032
0.0183371
3.05891
0.0193737
2.31295
0.0202697
1.74679
0.0210023
1.31804
0.0215633
0.994011
0.0219807
0.749509
0.0222843
0.565255
0.0224913
0.426461
0.0226324
0.321887
0.243088
0.0227248
-0.00854774
112.856
-0.00386836
85.4236
2.11224e-05
64.6692
0.00325504
48.9557
0.00594499
37.0683
0.00819141
28.0729
0.0100837
21.2676
0.0116984
16.1181
0.0131103
12.22
0.0143961
9.26733
0.0156257
7.0288
0.0168461
5.32991
0.0180605
4.0391
0.0192325
3.05774
0.0203024
2.31188
0.0212206
1.74587
0.0219659
1.31729
0.0225318
0.993445
0.0229459
0.749095
0.0232431
0.564958
0.0234431
0.426261
0.0235759
0.321754
0.243003
0.0236605
-0.00897717
112.85
-0.00406392
85.4187
1.90886e-05
64.6651
0.00341403
48.9523
0.00623797
37.0655
0.00859679
28.0706
0.0105847
21.2656
0.012282
16.1164
0.0137669
12.2185
0.0151189
9.26597
0.0164101
7.02751
0.0176879
5.32863
0.0189542
4.03784
0.0201699
3.05652
0.0212729
2.31078
0.0222126
1.74493
0.0229692
1.31654
0.0235389
0.992875
0.0239488
0.748685
0.0242383
0.564668
0.0244304
0.426069
0.0245546
0.32163
0.242926
0.0246315
-0.00942846
112.844
-0.0042695
85.4135
1.71868e-05
64.6608
0.00358081
48.9487
0.00654539
37.0625
0.00902221
28.0681
0.0111105
21.2636
0.0128948
16.1146
0.0144563
12.2169
0.0158779
9.26455
0.0172336
7.02615
0.0185711
5.32729
0.0198907
4.03652
0.0211504
3.05526
0.0222863
2.30964
0.0232464
1.74397
0.0240126
1.31577
0.0245846
0.992303
0.0249893
0.74828
0.0252698
0.564388
0.025453
0.425886
0.0255682
0.321515
0.242857
0.0256377
-0.00990203
112.837
-0.00448546
85.4081
1.47514e-05
64.6563
0.00375581
48.945
0.00686802
37.0594
0.00946871
28.0655
0.0116625
21.2614
0.013538
16.1127
0.0151802
12.2153
0.0166748
9.26306
0.0180979
7.02473
0.0194973
5.32589
0.0208716
4.03514
0.0221759
3.05396
0.0233439
2.30847
0.0243229
1.74299
0.025097
1.315
0.0256693
0.991731
0.0260676
0.747882
0.0263379
0.564118
0.026511
0.425713
0.0266168
0.321409
0.242795
0.0266791
-0.0103994
112.831
-0.00471206
85.4024
1.23099e-05
64.6516
0.00393941
48.9411
0.00720657
37.0562
0.00993733
28.0628
0.0122418
21.2591
0.0142133
16.1108
0.0159403
12.2135
0.0175115
9.26149