/*--------------------------------*- C++ -*----------------------------------*\
  =========                 |
  \\      /  F ield         | OpenFOAM: The Open Source CFD Toolbox
   \\    /   O peration     | Website:  https://openfoam.org
    \\  /    A nd           | Version:  7
     \\/     M anipulation  |
\*---------------------------------------------------------------------------*/
FoamFile
{
    version     2.0;
    format      ascii;
    class       volVectorField;
    location    "50";
    object      U;
}
// * * * * * * * * * * * * * * * * * * * * * * * * * * * * * * * * * * * * * //

dimensions      [0 1 -1 0 0 0 0];

internalField   nonuniform List<vector> 
12842
(
(15.6106 0.545913 2.40632e-19)
(15.6111 0.548389 1.10845e-19)
(15.6114 0.550954 3.22587e-20)
(15.6115 0.554345 -8.10981e-20)
(15.6113 0.559058 3.25228e-19)
(15.6104 0.565603 0)
(15.6085 0.574584 0)
(15.6048 0.586722 3.00457e-21)
(15.5986 0.60285 -7.94586e-20)
(15.5884 0.623864 -5.61695e-22)
(15.5728 0.650666 2.86414e-20)
(15.5495 0.684054 -2.10914e-20)
(15.5166 0.724576 1.06533e-19)
(15.4717 0.772363 4.55015e-20)
(15.4134 0.826952 -6.2695e-20)
(15.341 0.887261 -1.94249e-19)
(15.2554 0.951576 -1.88243e-19)
(15.1588 1.01767 0)
(15.0551 1.08308 1.93879e-20)
(14.9487 1.14547 1.39941e-19)
(14.8447 1.2028 1.83427e-20)
(14.7467 1.25399 -9.19556e-20)
(14.6589 1.29725 6.59641e-20)
(15.6108 0.545848 -1.94463e-19)
(15.6118 0.548127 0)
(15.6127 0.550608 4.29931e-19)
(15.6137 0.554007 -2.65018e-19)
(15.6147 0.558856 -2.57334e-19)
(15.6154 0.565735 0)
(15.6156 0.575364 4.40648e-19)
(15.6145 0.588634 0)
(15.6115 0.606595 2.53439e-19)
(15.6053 0.630418 2.99805e-20)
(15.5943 0.661303 -3.69063e-20)
(15.5763 0.700322 -2.58046e-21)
(15.5491 0.748194 -9.96696e-20)
(15.5102 0.80502 1.21913e-19)
(15.4577 0.870043 0)
(15.3906 0.941615 1.99906e-19)
(15.3094 1.01723 2.6873e-19)
(15.2161 1.09382 -3.59283e-19)
(15.1145 1.16814 0)
(15.0091 1.23741 -1.71045e-19)
(14.9051 1.29932 -2.81286e-19)
(14.8064 1.35342 2.44605e-19)
(14.7178 1.39631 -2.5656e-19)
(15.6111 0.545734 0)
(15.6125 0.547717 0)
(15.6139 0.550023 9.90027e-20)
(15.6156 0.553296 1.50688e-18)
(15.6177 0.558093 0)
(15.62 0.565053 0)
(15.6221 0.574997 1.67226e-19)
(15.6237 0.58896 -4.52925e-19)
(15.6239 0.608185 -1.37439e-19)
(15.6217 0.634083 -1.23344e-19)
(15.6155 0.668136 -2.26177e-19)
(15.603 0.711694 2.4773e-21)
(15.5819 0.765683 1.86854e-20)
(15.5494 0.830255 -1.41069e-19)
(15.5031 0.904476 0)
(15.4418 0.986274 -7.72711e-20)
(15.3656 1.07251 9.88589e-20)
(15.2762 1.15938 2.28274e-19)
(15.1774 1.24297 3.05706e-19)
(15.0739 1.32004 -2.41731e-19)
(14.9711 1.38791 2.06088e-19)
(14.8729 1.44666 0)
(14.7848 1.49127 9.39913e-20)
(15.6114 0.545577 -8.6348e-20)
(15.613 0.547201 2.1063e-19)
(15.6148 0.549275 -6.37196e-19)
(15.6173 0.552317 -2.43488e-18)
(15.6204 0.556906 2.19623e-19)
(15.624 0.563727 -7.74255e-19)
(15.628 0.573688 -3.78033e-22)
(15.6321 0.587953 4.40625e-19)
(15.6356 0.607931 7.70989e-19)
(15.6374 0.635256 -4.34358e-19)
(15.636 0.67168 6.11874e-19)
(15.6293 0.718839 -4.17005e-20)
(15.6145 0.777899 5.43504e-20)
(15.5888 0.849123 1.17737e-19)
(15.5494 0.93149 3.77962e-20)
(15.4946 1.02262 -4.86491e-20)
(15.4242 1.11884 -5.06447e-20)
(15.3397 1.21575 -1.52659e-19)
(15.2449 1.30879 -1.01051e-19)
(15.1444 1.39429 -5.22619e-20)
(15.0439 1.46915 -8.78774e-20)
(14.9474 1.53384 -1.19885e-19)
(14.8608 1.58174 2.23468e-19)
(15.6117 0.54538 -9.22168e-19)
(15.6134 0.546631 0)
(15.6156 0.548441 1.09119e-19)
(15.6186 0.551167 8.68649e-19)
(15.6226 0.555416 8.87644e-20)
(15.6275 0.561905 2.09634e-18)
(15.6333 0.571616 1.30338e-19)
(15.6398 0.585823 -1.35119e-18)
(15.6464 0.606085 -8.4792e-19)
(15.6522 0.634244 5.22365e-19)
(15.6557 0.672312 -8.05747e-19)
(15.6549 0.722225 -5.47769e-19)
(15.6469 0.785428 1.00995e-19)
(15.6286 0.862353 -3.94733e-19)
(15.5968 0.951972 -1.2414e-19)
(15.5494 1.05168 1.97853e-20)
(15.4859 1.15737 0)
(15.4075 1.2641 1.20849e-19)
(15.3178 1.36673 0)
(15.2215 1.46115 4.56344e-20)
(15.1244 1.54375 -4.04363e-20)
(15.0305 1.61536 9.81266e-20)
(14.9462 1.6677 -1.95349e-20)
(15.6119 0.54515 7.98427e-19)
(15.6136 0.546047 0)
(15.6161 0.547581 0)
(15.6197 0.549926 1.44855e-18)
(15.6244 0.553728 -1.10438e-18)
(15.6304 0.559714 -1.23181e-18)
(15.6379 0.56893 -1.87945e-18)
(15.6466 0.582739 1.48545e-18)
(15.6561 0.602825 0)
(15.6658 0.631216 8.0605e-19)
(15.6743 0.670173 7.83026e-19)
(15.6796 0.721942 2.73657e-19)
(15.6787 0.788279 0)
(15.6682 0.869852 2.73131e-19)
(15.6448 0.965712 1.04079e-19)
(15.6058 1.07312 2.53972e-21)
(15.5503 1.18766 1.07431e-20)
(15.4792 1.3039 -4.81956e-20)
(15.396 1.41615 0)
(15.3051 1.51989 2.03859e-19)
(15.2125 1.61092 1.60755e-21)
(15.122 1.69038 -2.88863e-19)
(15.0406 1.74823 2.61649e-20)
(15.6121 0.544901 -8.96433e-20)
(15.6137 0.545479 0)
(15.6165 0.546741 0)
(15.6204 0.548664 -1.43081e-18)
(15.6258 0.551941 1.2646e-18)
(15.6327 0.557288 -1.65724e-19)
(15.6416 0.5658 1.13046e-18)
(15.6523 0.57891 1.09869e-19)
(15.6647 0.5984 -1.44348e-19)
(15.6781 0.626459 -8.97165e-19)
(15.6914 0.665575 -9.73336e-20)
(15.7027 0.718303 7.09736e-19)
(15.7091 0.786741 0)
(15.707 0.871851 -5.70169e-19)
(15.6925 0.972853 3.3784e-20)
(15.6628 1.08699 -4.35333e-20)
(15.6164 1.20961 1.01978e-19)
(15.5539 1.33491 2.60278e-20)
(15.4784 1.45669 -4.6781e-21)
(15.3942 1.57004 2.35585e-20)
(15.3073 1.67008 2.51923e-21)
(15.2213 1.75823 9.34539e-20)
(15.1437 1.82251 7.73654e-20)
(15.6122 0.544649 0)
(15.6137 0.544952 -7.50575e-20)
(15.6167 0.54594 9.12101e-19)
(15.6209 0.547415 -3.08804e-20)
(15.6268 0.550113 -1.35722e-18)
(15.6346 0.55472 2.22061e-19)
(15.6446 0.562358 -4.21987e-20)
(15.6571 0.574503 -9.56578e-19)
(15.6719 0.592988 0)
(15.6887 0.620124 -1.17651e-18)
(15.7066 0.65859 9.53664e-20)
(15.7238 0.711244 8.90144e-20)
(15.7375 0.780545 0)
(15.744 0.867829 5.56356e-19)
(15.7391 0.972588 -4.68342e-19)
(15.7196 1.09219 0)
(15.6834 1.22188 -9.99519e-20)
(15.6309 1.35562 0)
(15.5646 1.48673 -4.29014e-21)
(15.4886 1.60995 0)
(15.4088 1.71956 4.06627e-20)
(15.3287 1.81738 -1.22028e-20)
(15.2558 1.88911 -3.07624e-20)
(15.6124 0.544369 0)
(15.6136 0.54447 0)
(15.6168 0.545262 1.64878e-20)
(15.621 0.546382 -6.18976e-20)
(15.6272 0.548579 1.53282e-18)
(15.6355 0.552512 1.31553e-18)
(15.6465 0.559317 0)
(15.6603 0.57051 8.98659e-19)
(15.6771 0.587979 0)
(15.6966 0.614137 2.4279e-18)
(15.7181 0.651807 9.16371e-19)
(15.74 0.704083 -6.44162e-19)
(15.7596 0.773719 -6.42783e-20)
(15.7731 0.862368 0)
(15.7764 0.969767 4.99949e-19)
(15.7657 1.09341 3.82749e-19)
(15.7388 1.22849 -2.37057e-20)
(15.6955 1.36881 1.74617e-19)
(15.638 1.50731 1.1751e-19)
(15.5702 1.63852 0)
(15.4977 1.75591 -5.82081e-21)
(15.4237 1.86185 3.63207e-21)
(15.3558 1.9401 2.18364e-20)
(15.6125 0.544082 -1.32056e-20)
(15.6135 0.544054 9.10289e-19)
(15.6169 0.544678 -8.54782e-19)
(15.6211 0.545511 0)
(15.6276 0.547304 2.83276e-20)
(15.6363 0.550709 5.17898e-20)
(15.648 0.556867 -1.2278e-18)
(15.6628 0.567316 0)
(15.681 0.583962 0)
(15.7026 0.609279 -1.22516e-18)
(15.7269 0.646188 -9.68592e-19)
(15.7525 0.697959 -2.68197e-20)
(15.7768 0.767575 6.9761e-19)
(15.7961 0.856941 -2.34766e-20)
(15.806 0.966001 -7.676e-20)
(15.8028 1.09238 1.14845e-19)
(15.7838 1.23127 -2.53582e-19)
(15.7487 1.3764 -1.71124e-19)
(15.6994 1.52045 -1.32091e-19)
(15.6393 1.65787 -9.61043e-20)
(15.574 1.78144 8.87275e-21)
(15.5061 1.89392 -2.28294e-20)
(15.4437 1.97769 -5.0752e-22)
(15.6126 0.543794 1.06554e-18)
(15.6134 0.543693 -1.02633e-18)
(15.617 0.544147 2.55075e-20)
(15.6212 0.544716 8.77827e-19)
(15.6279 0.546116 -4.28625e-20)
(15.637 0.549018 -1.34978e-18)
(15.6493 0.554551 2.33696e-18)
(15.665 0.564277 6.36738e-20)
(15.6846 0.580107 -4.66796e-20)
(15.7081 0.604553 -1.3501e-18)
(15.7349 0.640609 3.71074e-20)
(15.7641 0.6917 -9.12898e-19)
(15.793 0.761018 -6.21381e-19)
(15.8179 0.850717 0)
(15.8347 0.960958 7.09649e-19)
(15.8391 1.08953 -9.21939e-19)
(15.8286 1.23165 -8.71373e-20)
(15.8025 1.38107 2.34319e-19)
(15.7624 1.53023 3.6281e-21)
(15.7113 1.67355 1.27504e-19)
(15.6547 1.80314 0)
(15.5945 1.92211 1.58268e-20)
(15.539 2.01152 0)
(15.6126 0.543512 -1.6608e-18)
(15.6133 0.543379 -1.00294e-18)
(15.617 0.543662 4.32615e-20)
(15.6212 0.543992 -1.72506e-18)
(15.6282 0.545009 8.29545e-19)
(15.6376 0.547427 -3.92276e-20)
(15.6504 0.552347 -1.19558e-18)
(15.667 0.561359 1.83562e-20)
(15.6878 0.576363 -5.42782e-20)
(15.713 0.599899 1.38793e-18)
(15.7424 0.635012 0)
(15.7749 0.685256 8.32264e-19)
(15.8083 0.754018 6.42389e-20)
(15.839 0.843692 -3.09711e-20)
(15.8626 0.954661 -7.31432e-19)
(15.8751 1.0849 -2.68339e-20)
(15.8737 1.22969 2.44579e-19)
(15.8574 1.38284 -3.98668e-19)
(15.8277 1.53658 0)
(15.787 1.68536 -1.29134e-19)
(15.7405 1.82064 1.52379e-19)
(15.6896 1.94583 0)
(15.6423 2.04086 -4.42341e-20)
(15.6126 0.543246 5.64382e-19)
(15.6132 0.543109 -8.74956e-21)
(15.617 0.543222 4.34046e-20)
(15.6212 0.543335 8.32585e-19)
(15.6284 0.543978 -1.62591e-18)
(15.638 0.545925 6.73356e-21)
(15.6513 0.550241 1.74871e-20)
(15.6687 0.558537 1.08387e-18)
(15.6907 0.572699 -2.49138e-20)
(15.7176 0.595277 0)
(15.7493 0.629348 1.16964e-18)
(15.7851 0.678576 2.70598e-20)
(15.8229 0.746522 2.55118e-20)
(15.8593 0.835812 5.01755e-21)
(15.89 0.947052 -7.75821e-20)
(15.911 1.07841 5.65099e-19)
(15.9193 1.22527 -3.31526e-19)
(15.9138 1.3815 -7.30991e-20)
(15.8955 1.53918 -8.40685e-20)
(15.8665 1.6928 2.10298e-19)
(15.8316 1.83319 -1.02066e-19)
(15.7915 1.96409 2.25284e-19)
(15.7539 2.0645 -1.32017e-19)
(15.6126 0.543 5.64643e-19)
(15.6131 0.542877 9.75335e-19)
(15.617 0.542823 3.63307e-21)
(15.6212 0.542737 8.9157e-19)
(15.6285 0.543014 1.64897e-18)
(15.6384 0.544504 -6.79083e-21)
(15.6522 0.548219 -1.78474e-20)
(15.6703 0.555798 2.68186e-20)
(15.6932 0.569095 -9.09017e-19)
(15.7217 0.590661 7.65219e-19)
(15.7556 0.623584 -1.22833e-18)
(15.7946 0.671619 -9.79091e-19)
(15.8368 0.738477 8.05019e-19)
(15.879 0.827004 0)
(15.917 0.938028 4.72504e-19)
(15.9469 1.06993 0)
(15.9655 1.21817 4.34055e-19)
(15.9717 1.37674 2.49946e-19)
(15.966 1.53753 -3.75354e-22)
(15.9499 1.69515 -2.56876e-19)
(15.928 1.83981 1.67024e-21)
(15.9002 1.97555 1.38329e-20)
(15.8738 2.08079 -6.57551e-20)
(15.6126 0.542779 -1.2129e-20)
(15.6131 0.542679 9.58133e-21)
(15.6169 0.542466 -3.54927e-21)
(15.6212 0.542196 -8.9074e-19)
(15.6286 0.542115 -8.21671e-19)
(15.6386 0.543159 0)
(15.6528 0.546274 1.18515e-20)
(15.6716 0.55313 -1.10492e-18)
(15.6955 0.565538 -2.35898e-20)
(15.7254 0.586034 -7.65024e-19)
(15.7615 0.617699 6.57979e-19)
(15.8036 0.664351 1.53186e-18)
(15.8501 0.729834 -7.7622e-19)
(15.8982 0.817194 6.26481e-19)
(15.9437 0.927471 6.69489e-20)
(15.9829 1.05925 4.65894e-21)
(16.0125 1.2081 -2.83502e-20)
(16.0312 1.3681 -8.81204e-20)
(16.0391 1.53101 5.81162e-20)
(16.0373 1.69152 -1.04328e-19)
(16.0298 1.8393 -1.02167e-20)
(16.0158 1.97863 7.01832e-20)
(16.0019 2.08781 0)
(15.6125 0.542584 -1.8838e-20)
(15.613 0.542511 0)
(15.6169 0.542146 0)
(15.6211 0.541704 -8.96924e-19)
(15.6286 0.541276 -8.48403e-19)
(15.6388 0.541882 7.59527e-19)
(15.6534 0.5444 9.25016e-21)
(15.6727 0.550524 -1.01903e-20)
(15.6976 0.562015 9.44032e-19)
(15.7288 0.58138 -1.41372e-20)
(15.767 0.611669 3.91486e-20)
(15.8121 0.65674 -5.24622e-19)
(15.863 0.72054 0)
(15.9169 0.806296 -6.64405e-19)
(15.9702 0.915246 -1.0493e-18)
(16.0191 1.04617 -4.32103e-19)
(16.0604 1.19471 -2.6184e-19)
(16.0923 1.35509 0)
(16.115 1.51884 0)
(16.1286 1.68084 1.70347e-19)
(16.1367 1.83022 1.03056e-19)
(16.1377 1.97146 -2.27746e-19)
(16.1376 2.08327 0)
(15.6124 0.542414 -5.84698e-19)
(15.6129 0.542366 4.81286e-21)
(15.6168 0.54186 -1.72504e-21)
(15.621 0.541255 8.89861e-19)
(15.6286 0.540488 1.68769e-18)
(15.6389 0.540664 -1.51439e-18)
(15.6538 0.542585 -9.39597e-21)
(15.6737 0.547967 -1.03948e-20)
(15.6994 0.55851 1.3688e-20)
(15.7319 0.576677 0)
(15.7721 0.605465 -6.59499e-19)
(15.8202 0.648742 5.6321e-19)
(15.8754 0.710527 0)
(15.9353 0.794203 0)
(15.9966 0.901176 5.04051e-19)
(16.0555 1.03041 1.93958e-20)
(16.109 1.17759 2.96718e-19)
(16.1551 1.33704 2.33424e-19)
(16.1934 1.50011 -3.29598e-19)
(16.2235 1.66182 -1.10549e-19)
(16.2483 1.8109 4.23704e-19)
(16.2654 1.95193 -3.84975e-19)
(16.28 2.06465 2.47263e-19)
(15.6124 0.542269 2.85178e-19)
(15.6128 0.542244 4.71598e-19)
(15.6167 0.541605 4.68219e-21)
(15.6209 0.540847 -6.19595e-21)
(15.6285 0.53975 -8.51194e-19)
(15.639 0.5395 7.7069e-19)
(15.6542 0.540821 -6.24745e-21)
(15.6745 0.545448 -2.34151e-21)
(15.701 0.555009 1.39299e-20)
(15.7348 0.571908 7.44021e-21)
(15.7768 0.599061 -9.77237e-21)
(15.8278 0.640317 -5.62812e-19)
(15.8873 0.699727 4.9428e-19)
(15.9533 0.780796 -2.17225e-20)
(16.0227 0.885063 0)
(16.0922 1.01165 -6.10309e-20)
(16.1584 1.15623 3.99809e-20)
(16.2192 1.31323 -2.34646e-19)
(16.2739 1.47377 4.24813e-19)
(16.3211 1.63307 2.46723e-19)
(16.3633 1.77955 -1.64324e-19)
(16.3971 1.9178 -2.35125e-19)
(16.4271 2.02929 2.98375e-19)
(15.6123 0.542148 -4.24568e-21)
(15.6128 0.54214 -4.75069e-19)
(15.6167 0.54138 0)
(15.6208 0.540473 0)
(15.6284 0.539055 0)
(15.639 0.538384 0)
(15.6544 0.539102 6.33159e-21)
(15.6752 0.542959 -2.97855e-21)
(15.7024 0.551501 -7.06997e-21)
(15.7373 0.567056 7.59564e-21)
(15.7811 0.592431 -9.97881e-21)
(15.835 0.631421 0)
(15.8987 0.688064 -9.71105e-19)
(15.9709 0.765945 2.76619e-20)
(16.0486 0.866682 -5.78582e-20)
(16.1287 0.989514 5.30669e-19)
(16.2081 1.13007 -4.30849e-20)
(16.2841 1.28285 7.20835e-20)
(16.3555 1.43872 -7.46622e-20)
(16.4204 1.59314 1.46411e-19)
(16.4801 1.73441 -2.05207e-19)
(16.5308 1.86701 0)
(16.5759 1.97478 1.8487e-19)
(15.6122 0.542049 -5.59738e-19)
(15.6127 0.542053 -2.35117e-19)
(15.6166 0.541181 -3.22038e-21)
(15.6207 0.540133 4.5685e-19)
(15.6283 0.538402 4.3328e-19)
(15.6389 0.537312 3.69152e-21)
(15.6546 0.537423 -7.05372e-19)
(15.6757 0.540491 6.06154e-19)
(15.7036 0.547972 5.00116e-19)
(15.7395 0.562102 0)
(15.7851 0.585549 1.30234e-20)
(15.8417 0.622009 -6.26274e-19)
(15.9096 0.67546 5.11228e-19)
(15.9879 0.74951 3.941e-19)
(16.074 0.8458 3.36305e-19)
(16.165 0.963637 0)
(16.2576 1.09856 0)
(16.3491 1.2451 -3.0566e-19)
(16.4373 1.39391 -3.20842e-19)
(16.5196 1.54073 1.64553e-19)
(16.5965 1.67397 1.11315e-19)
(16.6633 1.79789 1.60459e-19)
(16.7229 1.89926 -2.14626e-19)
(15.6121 0.541967 2.79798e-19)
(15.6127 0.541978 2.35945e-19)
(15.6165 0.541 -2.36448e-21)
(15.6205 0.539814 4.2364e-21)
(15.6281 0.537775 -4.326e-19)
(15.6388 0.536267 -3.94382e-19)
(15.6546 0.535765 3.41208e-19)
(15.6761 0.538028 -5.99425e-19)
(15.7046 0.544408 -4.96915e-19)
(15.7415 0.557027 -1.22029e-20)
(15.7887 0.578382 0)
(15.8479 0.612029 6.08248e-19)
(15.9199 0.661822 5.21908e-19)
(16.0042 0.731336 -4.17324e-19)
(16.0986 0.822162 -2.88043e-19)
(16.2005 0.933629 -1.38276e-19)
(16.3064 1.06113 -1.18331e-19)
(16.413 1.19924 6.35439e-19)
(16.5177 1.33845 0)
(16.6166 1.47485 0)
(16.7097 1.59724 1.38563e-19)
(16.7913 1.70957 -3.29125e-19)
(16.8638 1.80187 -2.43852e-19)
(15.6121 0.541911 -2.69706e-19)
(15.6126 0.541925 0)
(15.6164 0.540855 0)
(15.6203 0.539545 -9.14507e-19)
(15.6279 0.537209 4.32777e-19)
(15.6386 0.535282 4.0281e-19)
(15.6546 0.534151 -2.83737e-21)
(15.6764 0.535575 2.99319e-19)
(15.7053 0.540799 1.19667e-20)
(15.7432 0.551817 -4.42705e-19)
(15.7919 0.570919 1.34839e-20)
(15.8536 0.601467 -1.77047e-20)
(15.9295 0.647124 -5.21182e-19)
(16.0197 0.71136 4.4561e-19)
(16.1223 0.795637 3.39845e-19)
(16.2348 0.899258 -2.99487e-19)
(16.3536 1.01744 2.68779e-19)
(16.4748 1.14482 -3.29619e-19)
(16.5948 1.27184 0)
(16.709 1.39505 0)
(16.8164 1.50395 -1.28549e-19)
(16.9108 1.60217 9.79024e-20)
(16.994 1.68299 -2.71406e-19)
(15.612 0.541843 4.9268e-21)
(15.6126 0.541841 -2.42071e-19)
(15.6163 0.540661 0)
(15.6202 0.539196 2.27955e-19)
(15.6278 0.53656 -8.74746e-19)
(15.6386 0.534222 3.76124e-21)
(15.6546 0.532496 -7.83135e-21)
(15.6766 0.533107 -3.09527e-19)
(15.706 0.53716 7.32641e-21)
(15.7446 0.546484 4.43294e-19)
(15.7946 0.563131 -1.05284e-20)
(15.8587 0.590225 -3.08706e-19)
(15.9382 0.631173 -3.48066e-20)
(16.034 0.689277 -4.193e-19)
(16.1444 0.765805 -3.9094e-19)
(16.2672 0.860002 2.1718e-20)
(16.3981 0.966918 0)
(16.5328 1.08134 -4.90732e-20)
(16.6668 1.19379 6.41797e-20)
(16.7942 1.30142 0)
(16.9135 1.39474 1.48535e-19)
(17.0179 1.47702 -9.92074e-20)
(17.1092 1.54433 0)
(15.6119 0.541893 2.71715e-19)
(15.6125 0.541918 2.43378e-19)
(15.6162 0.540737 0)
(15.62 0.539258 2.30803e-19)
(15.6275 0.53641 8.87711e-19)
(15.6382 0.53372 4.08772e-19)
(15.6543 0.531391 7.23129e-19)
(15.6766 0.531201 0)
(15.7064 0.534176 5.2746e-19)
(15.7458 0.542013 -4.47173e-19)
(15.797 0.556465 3.8002e-19)
(15.863 0.580314 3.26549e-19)
(15.9458 0.616562 -5.05729e-21)
(16.0466 0.668166 6.62757e-21)
(16.1642 0.736014 -3.93468e-19)
(16.2964 0.819173 3.09323e-19)
(16.4385 0.912487 0)
(16.5855 1.01102 1.96421e-19)
(16.7317 1.10563 0)
(16.8702 1.19436 0)
(16.9991 1.26908 -1.50916e-19)
(17.1109 1.33305 -3.41917e-19)
(17.2076 1.38459 3.01228e-19)
(15.6119 0.541891 0)
(15.6124 0.541949 -9.68704e-24)
(15.6162 0.540742 3.15161e-23)
(15.6199 0.539237 -2.33517e-19)
(15.6274 0.536258 -2.20432e-19)
(15.6381 0.533352 -4.08279e-19)
(15.6543 0.530641 -3.62603e-19)
(15.6767 0.529886 -3.5535e-22)
(15.7067 0.532004 -2.62344e-19)
(15.7465 0.538532 -1.93059e-21)
(15.7986 0.550927 2.86563e-21)
(15.8662 0.571586 0)
(15.9517 0.603018 5.16046e-21)
(16.0569 0.647711 -6.76665e-21)
(16.1809 0.706042 5.82798e-19)
(16.3214 0.776827 1.86861e-20)
(16.4734 0.854721 0)
(16.6307 0.935229 6.19717e-20)
(16.7867 1.00981 -7.18713e-20)
(16.9334 1.07764 0)
(17.0685 1.13224 0)
(17.1846 1.17708 2.28707e-19)
(17.2838 1.21218 -1.64154e-19)
(15.6119 0.541882 2.66824e-19)
(15.6124 0.541976 2.48549e-19)
(15.6161 0.540741 0)
(15.6199 0.539204 2.33518e-19)
(15.6273 0.536094 -2.24503e-19)
(15.638 0.532977 -4.16052e-19)
(15.6542 0.529896 3.68771e-19)
(15.6768 0.528586 -3.15871e-19)
(15.7071 0.529849 -2.65414e-19)
(15.7473 0.535052 6.76756e-19)
(15.8002 0.545334 -3.84588e-19)
(15.8693 0.562683 -3.35196e-19)
(15.9573 0.589068 -2.9127e-19)
(16.0664 0.626449 0)
(16.1958 0.674653 -2.02656e-19)
(16.3432 0.732267 3.39461e-19)
(16.5029 0.793879 1.84889e-20)
(16.6676 0.855633 -2.28098e-19)
(16.8298 0.909889 0)
(16.9808 0.957051 0)
(17.1183 0.992329 0)
(17.2351 1.01941 -3.50485e-19)
(17.3339 1.03938 3.20316e-19)
(15.6118 0.541875 -2.66884e-19)
(15.6124 0.542002 1.6801e-21)
(15.6161 0.540741 0)
(15.6198 0.539173 -2.38331e-19)
(15.6272 0.535934 -2.42033e-23)
(15.638 0.532608 6.26098e-19)
(15.6542 0.529159 -7.40502e-19)
(15.6769 0.527296 9.52029e-19)
(15.7074 0.527701 -3.05049e-22)
(15.7481 0.531562 -2.2564e-19)
(15.8017 0.539685 -1.9601e-19)
(15.8721 0.553623 3.35906e-19)
(15.9623 0.57476 2.87698e-19)
(16.0746 0.60449 -2.49801e-19)
(16.2084 0.642073 3.72274e-21)
(16.3612 0.685921 -3.42822e-19)
(16.5263 0.73073 0)
(16.6956 0.773478 0)
(16.8608 0.807713 1.58883e-19)
(17.0129 0.835048 0)
(17.1497 0.852351 0)
(17.2645 0.863435 5.52136e-20)
(17.3607 0.869924 1.57158e-19)
(15.6118 0.541872 0)
(15.6124 0.542031 -2.50313e-19)
(15.616 0.540745 6.43332e-24)
(15.6197 0.539147 -2.491e-21)
(15.6271 0.535783 -1.72346e-23)
(15.6379 0.532249 -4.21641e-19)
(15.6542 0.528435 3.71714e-19)
(15.6769 0.526017 -6.36019e-19)
(15.7077 0.525556 -2.69489e-19)
(15.7487 0.528056 0)
(15.803 0.53398 1.94949e-19)
(15.8745 0.544416 6.8808e-22)
(15.9664 0.560138 1.59456e-22)
(16.0813 0.581941 2.48367e-19)
(16.2185 0.608532 0)
(16.3749 0.638228 1.76677e-19)
(16.5433 0.666036 -3.96399e-21)
(16.7147 0.689947 0)
(16.8801 0.704914 -1.57941e-19)
(17.0305 0.713695 0)
(17.1641 0.714654 0)
(17.2751 0.711645 0)
(17.3674 0.706401 -5.10806e-22)
(15.6117 0.541875 0)
(15.6124 0.542063 1.26828e-19)
(15.616 0.540754 -1.21241e-24)
(15.6196 0.539128 2.40875e-19)
(15.627 0.53564 2.33357e-19)
(15.6378 0.531901 4.24653e-19)
(15.6541 0.527722 0)
(15.6769 0.524748 -3.20325e-19)
(15.7079 0.523416 5.39365e-19)
(15.7492 0.52454 -7.54025e-24)
(15.804 0.528228 1.96639e-19)
(15.8763 0.53509 -1.70571e-19)
(15.9696 0.545261 0)
(16.0863 0.55893 0)
(16.2258 0.574286 2.12708e-19)
(16.3843 0.58965 -1.73116e-19)
(16.554 0.600552 0)
(16.725 0.606142 -2.1144e-19)
(16.8882 0.602914 -1.59255e-19)
(17.0348 0.594663 0)
(17.1635 0.581019 2.64773e-21)
(17.2692 0.565789 2.05203e-22)
(17.3567 0.55047 -8.2371e-20)
(15.6117 0.541882 1.28798e-24)
(15.6124 0.542098 -2.54346e-19)
(15.616 0.540768 -3.30323e-24)
(15.6196 0.539116 0)
(15.6269 0.535508 1.41411e-21)
(15.6376 0.531566 -4.26856e-19)
(15.654 0.527023 -8.21575e-23)
(15.6769 0.523492 3.20199e-19)
(15.708 0.521284 -2.69779e-19)
(15.7496 0.52102 2.29008e-19)
(15.8048 0.522445 3.64609e-22)
(15.8777 0.525676 3.41558e-19)
(15.9719 0.530201 -2.97302e-19)
(16.0898 0.535598 8.89885e-22)
(16.2303 0.539606 -4.27095e-19)
(16.3894 0.540658 1.79684e-19)
(16.5583 0.535003 -8.73292e-21)
(16.7269 0.523064 2.17907e-19)
(16.8858 0.502928 1.57602e-19)
(17.0269 0.479284 0)
(17.1494 0.452773 7.93754e-20)
(17.2491 0.427068 0)
(17.3312 0.403167 -3.59195e-20)
(15.6117 0.541895 0)
(15.6124 0.542136 1.27516e-19)
(15.6159 0.540787 1.26398e-19)
(15.6195 0.539111 1.2991e-23)
(15.6268 0.535385 -4.70629e-19)
(15.6375 0.531242 2.1394e-19)
(15.6539 0.526338 0)
(15.6769 0.522249 0)
(15.7081 0.519162 -1.53774e-22)
(15.7498 0.517502 -2.28716e-19)
(15.8053 0.516644 2.01134e-22)
(15.8786 0.516207 -1.70683e-19)
(15.9733 0.515026 2.95784e-19)
(16.0916 0.512093 0)
(16.2321 0.504764 2.12567e-19)
(16.3902 0.49171 -1.73816e-19)
(16.5566 0.470068 1.27e-19)
(16.7208 0.441602 1.22591e-20)
(16.8738 0.405969 0)
(17.0081 0.368597 0)
(17.1235 0.330879 -3.862e-20)
(17.2165 0.296282 -1.05942e-19)
(17.2929 0.265112 7.42599e-20)
(15.6117 0.541912 0)
(15.6123 0.542177 -5.05083e-24)
(15.6159 0.54081 -1.26409e-19)
(15.6194 0.539112 1.2383e-19)
(15.6267 0.535271 2.35787e-19)
(15.6374 0.530931 4.64247e-23)
(15.6538 0.525667 1.89033e-19)
(15.6768 0.52102 1.60678e-19)
(15.7081 0.517053 -2.70341e-19)
(15.75 0.513991 0)
(15.8056 0.51084 6.73286e-23)
(15.8791 0.506715 -1.70796e-19)
(15.9738 0.499811 0)
(16.0918 0.488562 -4.58856e-21)
(16.2312 0.470034 2.16911e-19)
(16.3868 0.443247 0)
(16.549 0.406368 -2.03457e-20)
(16.7072 0.362523 -3.52611e-21)
(16.853 0.312861 1.85963e-19)
(16.9796 0.263378 0)
(17.0871 0.215993 0)
(17.1733 0.173914 5.32119e-20)
(17.244 0.136607 -1.79221e-19)
(15.6116 0.541933 -2.58951e-24)
(15.6123 0.542221 3.4194e-24)
(15.6159 0.540838 0)
(15.6194 0.539119 1.24805e-19)
(15.6266 0.535167 -1.20932e-22)
(15.6373 0.530631 9.30712e-23)
(15.6536 0.525009 -1.88916e-19)
(15.6767 0.519805 -1.60799e-19)
(15.708 0.514957 2.70275e-19)
(15.75 0.510491 -2.28539e-19)
(15.8056 0.505044 -1.97427e-19)
(15.879 0.497232 1.72264e-19)
(15.9733 0.484629 1.45166e-19)
(16.0903 0.465155 1.20905e-19)
(16.2275 0.435682 -2.12205e-19)
(16.3793 0.395685 9.75393e-21)
(16.5359 0.344464 -1.5254e-19)
(16.6868 0.286481 -7.58049e-20)
(16.8242 0.224257 -7.70662e-20)
(16.9423 0.16419 5.50657e-20)
(17.0418 0.108529 -7.1582e-20)
(17.121 0.0601975 0)
(17.1859 0.0177137 6.80962e-20)
(15.6116 0.541958 0)
(15.6123 0.542267 1.28657e-19)
(15.6158 0.54087 1.27733e-19)
(15.6193 0.539133 -1.23883e-19)
(15.6265 0.535073 1.19052e-19)
(15.6371 0.530344 0)
(15.6535 0.524367 2.15919e-22)
(15.6765 0.518606 -2.84571e-22)
(15.7079 0.512878 1.35366e-19)
(15.7499 0.50701 3.43514e-19)
(15.8054 0.499273 -1.95483e-19)
(15.8785 0.487794 -1.19189e-21)
(15.972 0.469554 -8.12494e-22)
(16.0872 0.442019 -1.25371e-19)
(16.2212 0.401963 0)
(16.3679 0.34941 1.65583e-19)
(16.5176 0.284851 -1.28603e-19)
(16.66 0.214022 9.95228e-20)
(16.7883 0.140665 3.52413e-20)
(16.8974 0.0714235 3.9105e-21)
(16.9886 0.00872387 -6.89733e-20)
(17.0609 -0.0448079 4.73544e-20)
(17.1201 -0.0916633 6.75909e-20)
(15.6116 0.541987 6.61091e-20)
(15.6123 0.542315 2.03479e-22)
(15.6158 0.540906 -1.27756e-19)
(15.6192 0.539153 -1.24689e-19)
(15.6264 0.534987 -2.38529e-19)
(15.637 0.530069 -2.16791e-19)
(15.6533 0.523739 -2.16372e-22)
(15.6763 0.517424 2.85147e-22)
(15.7077 0.510817 -1.35334e-19)
(15.7496 0.503552 -1.14489e-19)
(15.805 0.49354 3.92274e-19)
(15.8775 0.478434 -1.69031e-19)
(15.9697 0.454662 -1.46243e-19)
(16.0825 0.419297 1.22629e-19)
(16.2123 0.36912 -7.20164e-21)
(16.3529 0.304777 -1.44804e-19)
(16.4944 0.227967 1.3105e-19)
(16.6274 0.145601 -1.4099e-19)
(16.7459 0.0624771 -3.74267e-20)
(16.8459 -0.0146562 0)
(16.9287 -0.0833116 6.98642e-20)
(16.9941 -0.141149 -9.30637e-20)
(17.0478 -0.191707 1.27989e-19)
(15.6116 0.54202 -6.61083e-20)
(15.6123 0.542366 -1.93468e-19)
(15.6158 0.540946 -1.28721e-19)
(15.6192 0.539179 1.25787e-19)
(15.6263 0.534911 1.19454e-19)
(15.6368 0.529806 2.16745e-19)
(15.6531 0.523126 1.91111e-19)
(15.6761 0.516259 0)
(15.7075 0.508777 1.3572e-19)
(15.7493 0.500123 -1.14444e-19)
(15.8043 0.48786 -1.9589e-19)
(15.876 0.469187 1.6896e-19)
(15.9665 0.440025 0)
(16.0762 0.397129 -1.13861e-19)
(16.201 0.337381 8.73672e-20)
(16.3343 0.262105 -7.85342e-20)
(16.4668 0.174188 3.31945e-20)
(16.5897 0.0815883 5.00229e-20)
(16.698 -0.0100119 -1.33902e-19)
(16.7885 -0.0938778 9.03446e-20)
(16.863 -0.167544 0)
(16.9217 -0.228932 -1.81743e-19)
(16.97 -0.282639 2.62108e-19)
(15.6115 0.542057 0)
(15.6123 0.54242 6.45864e-20)
(15.6157 0.54099 1.28696e-19)
(15.6191 0.539211 -1.25811e-19)
(15.6261 0.534844 -2.03655e-23)
(15.6366 0.529555 9.42842e-23)
(15.6529 0.522529 -9.50693e-20)
(15.6759 0.515111 0)
(15.7072 0.50676 -1.3569e-19)
(15.7488 0.49673 7.9824e-23)
(15.8034 0.482247 0)
(15.874 0.460087 -8.33082e-20)
(15.9625 0.425713 0)
(16.0684 0.375644 8.53705e-21)
(16.1874 0.306954 -1.92473e-19)
(16.3126 0.22168 6.06768e-20)
(16.4351 0.123839 3.18408e-20)
(16.5473 0.0222883 -1.26953e-19)
(16.645 -0.0765768 6.46854e-20)
(16.726 -0.166132 9.16029e-20)
(16.7923 -0.243986 -1.48765e-19)
(16.8445 -0.308291 1.25995e-19)
(16.8876 -0.364692 -4.69588e-19)
(15.6115 0.542097 -6.48389e-20)
(15.6123 0.542476 6.50814e-20)
(15.6157 0.541038 -6.50112e-20)
(15.619 0.539248 -6.56806e-23)
(15.626 0.534786 1.23197e-22)
(15.6365 0.529317 -2.22161e-22)
(15.6527 0.521947 -9.58923e-20)
(15.6756 0.513983 6.5474e-22)
(15.7068 0.504768 -4.83165e-22)
(15.7483 0.493377 1.54428e-22)
(15.8022 0.476716 -9.67939e-20)
(15.8716 0.451164 8.02553e-20)
(15.9576 0.411793 3.96794e-21)
(16.0593 0.354964 -8.32385e-21)
(16.1717 0.278029 1.07113e-19)
(16.2879 0.183752 0)
(16.3999 0.0771959 5.52641e-20)
(16.5008 -0.0320502 8.55404e-20)
(16.5878 -0.137044 -6.21382e-20)
(16.6592 -0.231348 1.67121e-19)
(16.7173 -0.31267 -8.24292e-20)
(16.7631 -0.379359 1.86604e-20)
(16.801 -0.438081 2.36369e-19)
(15.6115 0.54214 1.29379e-19)
(15.6122 0.542534 -6.50912e-20)
(15.6157 0.541089 -4.09828e-22)
(15.6189 0.539292 0)
(15.6259 0.534738 0)
(15.6363 0.529091 -1.10509e-19)
(15.6524 0.521381 -9.66904e-20)
(15.6754 0.512874 0)
(15.7064 0.502803 -6.15202e-22)
(15.7476 0.490071 1.14933e-19)
(15.8008 0.471279 9.85328e-20)
(15.8688 0.44245 -2.31419e-21)
(15.9519 0.398326 -4.97746e-21)
(16.0488 0.335199 1.46e-20)
(16.154 0.250775 -1.05711e-20)
(16.2607 0.148538 0)
(16.3615 0.0344915 -7.90354e-20)
(16.4508 -0.0812222 3.7891e-21)
(16.5268 -0.191272 -1.66339e-19)
(16.5886 -0.289466 7.59181e-20)
(16.6386 -0.373618 1.09123e-19)
(16.6781 -0.442239 -1.77656e-19)
(16.7109 -0.502971 0)
(15.6115 0.542186 -1.28848e-19)
(15.6122 0.542594 6.83943e-24)
(15.6156 0.541144 6.54516e-20)
(15.6189 0.539341 0)
(15.6258 0.534698 0)
(15.6361 0.528877 -4.8553e-22)
(15.6522 0.520831 1.93614e-19)
(15.675 0.511786 0)
(15.706 0.500868 6.80787e-20)
(15.7468 0.486816 0)
(15.7992 0.465949 0)
(15.8655 0.433974 -2.93753e-21)
(15.9455 0.38537 3.84971e-21)
(16.0371 0.316449 4.70781e-20)
(16.1345 0.225339 1.02363e-20)
(16.2311 0.116223 -1.84837e-20)
(16.3203 -0.00408038 7.67488e-20)
(16.3977 -0.125056 0)
(16.4626 -0.239136 5.42206e-20)
(16.5147 -0.340423 0)
(16.5567 -0.426821 2.35447e-20)
(16.5899 -0.496973 3.30971e-20)
(16.6177 -0.559438 0)
(15.6114 0.542236 9.63584e-20)
(15.6122 0.542657 -3.31634e-20)
(15.6156 0.541203 0)
(15.6188 0.539396 6.47561e-20)
(15.6257 0.534667 -6.15881e-20)
(15.6359 0.528676 1.11098e-19)
(15.6519 0.520298 -9.7093e-20)
(15.6747 0.51072 -8.24214e-20)
(15.7055 0.498963 -6.75817e-20)
(15.7459 0.483617 -1.02587e-21)
(15.7974 0.46074 1.34795e-21)
(15.8618 0.425761 7.93941e-20)
(15.9384 0.372976 4.73319e-21)
(16.0244 0.2988 -6.86656e-20)
(16.1135 0.201845 9.87617e-21)
(16.1996 0.0869571 0)
(16.2769 -0.0383615 0)
(16.3422 -0.163409 0)
(16.3958 -0.280521 0)
(16.4382 -0.384134 -1.58286e-20)
(16.4721 -0.472221 -1.04581e-19)
(16.4991 -0.543534 1.03165e-19)
(16.5217 -0.607473 0)
(15.6114 0.542288 -3.20562e-20)
(15.6122 0.542722 6.65717e-20)
(15.6156 0.541265 0)
(15.6187 0.539456 -6.47903e-20)
(15.6255 0.534645 1.23644e-19)
(15.6357 0.528488 0)
(15.6517 0.519782 0)
(15.6743 0.509675 8.2041e-20)
(15.7049 0.497092 0)
(15.7448 0.480479 -5.52363e-20)
(15.7954 0.45566 -4.82104e-20)
(15.8577 0.417836 -4.03215e-20)
(15.9306 0.36119 6.4193e-20)
(16.0106 0.282327 0)
(16.0912 0.180394 0)
(16.1664 0.0608618 1.63791e-20)
(16.2315 -0.0682271 -2.14628e-20)
(16.2846 -0.196159 0)
(16.3269 -0.315309 -2.10341e-20)
(16.3595 -0.420487 1.58765e-20)
(16.3852 -0.50971 8.13848e-20)
(16.4059 -0.581827 -1.07132e-19)
(16.4234 -0.646981 0)
(15.6114 0.542343 5.24096e-24)
(15.6122 0.542789 -6.70792e-20)
(15.6155 0.54133 -2.09135e-23)
(15.6187 0.539522 -3.27443e-20)
(15.6254 0.534632 -6.20558e-20)
(15.6355 0.528312 5.62851e-20)
(15.6514 0.519283 1.71764e-22)
(15.6739 0.508652 -4.15132e-20)
(15.7043 0.495255 6.89421e-20)
(15.7437 0.477406 5.54442e-20)
(15.7932 0.450721 4.68647e-20)
(15.8533 0.41022 -3.90602e-20)
(15.9223 0.350049 -6.41982e-20)
(15.996 0.267089 -6.94344e-21)
(16.0677 0.161065 9.09095e-21)
(16.1318 0.0380246 1.52694e-20)
(16.1847 -0.0935865 -2.00202e-20)
(16.2255 -0.223209 0)
(16.2564 -0.343387 2.1091e-20)
(16.2791 -0.449346 0)
(16.2966 -0.539129 -9.61861e-21)
(16.3109 -0.611682 0)
(16.323 -0.677775 -3.64059e-21)
(15.6114 0.542401 1.59411e-20)
(15.6122 0.542857 3.36513e-20)
(15.6155 0.541398 3.38231e-20)
(15.6186 0.539593 -1.22273e-22)
(15.6253 0.534628 -1.0645e-22)
(15.6353 0.528149 3.95475e-22)
(15.6511 0.518801 -4.91902e-20)
(15.6735 0.507653 -3.30083e-22)
(15.7036 0.493454 -6.78377e-20)
(15.7425 0.474402 -1.00014e-21)
(15.7908 0.445932 4.71321e-20)
(15.8486 0.402932 0)