/*--------------------------------*- C++ -*----------------------------------*\
  =========                 |
  \\      /  F ield         | OpenFOAM: The Open Source CFD Toolbox
   \\    /   O peration     | Website:  https://openfoam.org
    \\  /    A nd           | Version:  7
     \\/     M anipulation  |
\*---------------------------------------------------------------------------*/
FoamFile
{
    version     2.0;
    format      ascii;
    class       volScalarField;
    location    "50";
    object      yPlus;
}
// * * * * * * * * * * * * * * * * * * * * * * * * * * * * * * * * * * * * * //

dimensions      [0 0 0 0 0 0 0];

internalField   uniform 0;

boundaryField
{
    inlet
    {
        type            calculated;
        value           uniform 0;
    }
    outlet
    {
        type            calculated;
        value           uniform 0;
    }
    suction_side
    {
        type            calculated;
        value           nonuniform List<scalar> 
56
(
4.86012
5.04393
5.47325
5.67089
6.22883
6.48011
7.15202
7.93594
8.06152
10.3416
10.6084
14.3008
16.9493
27.2628
38.285
46.4247
51.6261
52.8472
51.5373
48.9366
45.7371
42.6831
40.5754
39.7152
39.9065
40.8089
41.6467
42.0322
42.0319
41.8236
41.4134
40.9076
40.3724
39.8256
39.2685
38.7071
38.1449
37.5828
37.0287
36.4725
35.9403
35.3748
34.8248
34.2281
33.6031
32.9336
32.1943
31.3609
30.4147
29.4091
28.4431
27.4495
26.6216
25.6052
25.1347
24.1213
)
;
    }
    pressure_side
    {
        type            calculated;
        value           nonuniform List<scalar> 
56
(
26.0721
26.8928
27.2806
28.1857
28.8779
29.7306
30.5469
31.4153
32.2289
32.9172
33.5147
34.0509
34.5401
34.9959
35.4246
35.8289
36.2137
36.5898
36.9513
37.2996
37.6324
37.9435
38.2392
38.5162
38.7451
38.8773
38.8731
38.7112
38.5924
38.7126
39.274
40.452
42.2282
44.1677
45.9522
47.5008
48.4835
48.652
47.027
43.7311
38.739
32.6036
25.3403
18.195
11.2471
9.3869
8.21827
6.2994
5.66143
4.8873
4.55787
4.38765
4.32826
4.38566
4.49118
4.62509
)
;
    }
    trailing_edge
    {
        type            calculated;
        value           nonuniform List<scalar> 2(99.7573 97.4226);
    }
    defaultFaces
    {
        type            empty;
    }
}


// ************************************************************************* //
