/*--------------------------------*- C++ -*----------------------------------*\
  =========                 |
  \\      /  F ield         | OpenFOAM: The Open Source CFD Toolbox
   \\    /   O peration     | Website:  https://openfoam.org
    \\  /    A nd           | Version:  7
     \\/     M anipulation  |
\*---------------------------------------------------------------------------*/
FoamFile
{
    version     2.0;
    format      ascii;
    class       volScalarField;
    location    "35";
    object      k;
}
// * * * * * * * * * * * * * * * * * * * * * * * * * * * * * * * * * * * * * //

dimensions      [0 2 -2 0 0 0 0];

internalField   nonuniform List<scalar> 
17475
(
0.00763365
0.0124983
0.0125514
0.0125508
0.0125506
0.0125505
0.0125505
0.0125505
0.0125504
0.0125502
0.0125503
0.0125506
0.0125503
0.0125503
0.0125505
0.0125503
0.0125503
0.0125505
0.0125503
0.0125502
0.0125508
0.012551
0.0125496
0.0125515
0.0125469
0.0125588
0.0125589
0.012559
0.0125591
0.0125589
0.0125588
0.0125587
0.0125587
0.0125586
0.0125586
0.0125585
0.0125584
0.0125581
0.0125586
0.0125629
0.0125696
0.012576
0.0125821
0.0125878
0.0125928
0.0125975
0.0126018
0.0126057
0.0126092
0.0126126
0.0126156
0.0126185
0.0126207
0.0126101
0.0120188
0.000246163
0.00440841
0.00528565
0.00530433
0.0052949
0.00529057
0.00528853
0.00528724
0.00528652
0.00528599
0.00528568
0.00528539
0.00528519
0.00528504
0.00528487
0.00528477
0.00528465
0.00528455
0.00528443
0.00528437
0.00528431
0.00528423
0.00528525
0.005283
0.00528696
0.0052909
0.00529381
0.00529396
0.00529401
0.00529358
0.00529342
0.00529339
0.00529339
0.00529339
0.00529341
0.00529337
0.00529335
0.0052931
0.00529217
0.00529306
0.00529492
0.00529708
0.00529934
0.00530152
0.00530368
0.00530574
0.00530782
0.00530995
0.00531234
0.00531518
0.005319
0.00532432
0.00532157
0.00502946
0.00162957
3.09335e-05
0.00184674
0.00307729
0.00319515
0.00318639
0.00317747
0.00317246
0.00316947
0.00316764
0.00316634
0.00316544
0.00316477
0.00316427
0.00316382
0.00316346
0.00316314
0.00316284
0.00316256
0.00316231
0.00316206
0.00316181
0.0031621
0.00316169
0.00316325
0.00316429
0.00316573
0.00316762
0.00316845
0.00316846
0.0031683
0.00316811
0.00316818
0.0031683
0.00316844
0.00316858
0.00316873
0.00316887
0.00316858
0.00316824
0.00316854
0.00316914
0.00316992
0.00317087
0.00317197
0.00317321
0.00317462
0.00317631
0.00317851
0.00318153
0.00318601
0.00319299
0.00320139
0.00315743
0.00249665
0.000283272
9.87088e-06
0.000849035
0.00201198
0.00223592
0.00224425
0.00223413
0.0022273
0.002223
0.00222014
0.00221816
0.00221677
0.00221571
0.00221486
0.00221415
0.00221355
0.00221302
0.00221253
0.00221207
0.00221164
0.00221121
0.00221108
0.00221069
0.00221138
0.0022121
0.00221285
0.00221342
0.0022141
0.00221486
0.00221513
0.00221517
0.00221501
0.00221516
0.00221542
0.00221571
0.002216
0.00221633
0.00221664
0.00221654
0.00221656
0.00221702
0.00221754
0.0022182
0.00221901
0.00222003
0.00222128
0.00222285
0.0022249
0.00222771
0.00223178
0.00223794
0.00224707
0.00224988
0.00213842
0.00133347
8.90667e-05
4.47052e-06
0.000439827
0.00138561
0.00168595
0.00171894
0.00171191
0.00170435
0.00169922
0.00169569
0.00169321
0.00169139
0.00169
0.00168888
0.00168793
0.00168711
0.00168639
0.00168573
0.00168507
0.00168445
0.00168404
0.00168348
0.00168365
0.00168385
0.00168406
0.00168435
0.00168471
0.00168504
0.00168536
0.00168572
0.00168588
0.00168587
0.00168613
0.00168652
0.00168695
0.0016874
0.00168791
0.00168831
0.00168838
0.00168886
0.00168948
0.00169015
0.00169092
0.00169186
0.00169301
0.00169446
0.00169633
0.00169876
0.00170214
0.00170698
0.00171408
0.00172272
0.00171153
0.00153791
0.000772166
4.19314e-05
2.44765e-06
0.000256394
0.000986902
0.00132578
0.00138429
0.00138323
0.00137592
0.00137041
0.00136646
0.0013636
0.0013615
0.00135986
0.00135851
0.00135737
0.00135636
0.00135544
0.00135461
0.00135377
0.00135311
0.00135234
0.00135211
0.00135194
0.00135177
0.00135166
0.00135162
0.00135171
0.00135182
0.00135201
0.00135226
0.00135258
0.00135272
0.0013531
0.00135361
0.00135416
0.00135478
0.00135547
0.00135593
0.00135635
0.00135709
0.00135789
0.00135873
0.00135966
0.00136074
0.00136205
0.00136373
0.00136588
0.00136864
0.00137237
0.00137765
0.00138477
0.00139028
0.00136204
0.00114508
0.000485951
2.44685e-05
1.51903e-06
0.000164987
0.000724427
0.00107005
0.00115123
0.00115761
0.00115169
0.00114617
0.001142
0.00113889
0.00113661
0.00113479
0.00113325
0.00113194
0.00113078
0.00112969
0.00112871
0.0011278
0.00112682
0.00112617
0.00112569
0.00112527
0.00112482
0.00112445
0.00112415
0.00112404
0.00112394
0.001124
0.00112423
0.00112466
0.00112498
0.00112542
0.00112606
0.00112677
0.00112753
0.00112838
0.00112898
0.00112972
0.00113067
0.00113163
0.00113264
0.00113371
0.00113494
0.00113642
0.00113827
0.00114066
0.00114363
0.00114748
0.00115275
0.00115938
0.00116032
0.00111528
0.000875353
0.000330347
1.60781e-05
1.03152e-06
0.00011482
0.000547749
0.000879422
0.000978958
0.000993164
0.000989408
0.000984161
0.000979993
0.000976828
0.0009744
0.000972454
0.000970734
0.00096923
0.000967971
0.000966739
0.000965609
0.000964447
0.000963501
0.000962623
0.000961889
0.000961229
0.000960536
0.000959885
0.000959364
0.000959093
0.000958841
0.000958795
0.000958989
0.000959466
0.000959963
0.000960488
0.000961257
0.000962157
0.000963116
0.000964069
0.000964893
0.000965925
0.000967065
0.000968186
0.000969349
0.000970564
0.00097195
0.000973567
0.000975545
0.000978027
0.000980986
0.000984862
0.000990067
0.000995504
0.000991144
0.00093152
0.000685236
0.000238355
1.12831e-05
7.47853e-07
8.45574e-05
0.000426107
0.00073315
0.000846398
0.0008682
0.000867189
0.000862487
0.000858412
0.00085521
0.000852769
0.00085075
0.000848845
0.000847149
0.000845841
0.00084443
0.000842998
0.000841859
0.000840623
0.000839426
0.000838417
0.000837512
0.000836517
0.00083558
0.000834927
0.000834492
0.000834044
0.000833883
0.000834062
0.000834666
0.000835315
0.000835988
0.000836905
0.000838024
0.000839167
0.000840244
0.000841387
0.00084267
0.000843934
0.000845195
0.000846546
0.000847844
0.0008493
0.000851017
0.000853013
0.000855511
0.000858547
0.000862341
0.000867223
0.000870953
0.000861149
0.000789276
0.000547851
0.000180641
8.42498e-06
5.69195e-07
6.49863e-05
0.000340329
0.000619033
0.000741472
0.000770272
0.000772365
0.000768607
0.000764548
0.000761268
0.000758933
0.000756866
0.000754868
0.000753021
0.000751679
0.000750086
0.000748532
0.000747157
0.000745488
0.0007439
0.000742618
0.000741533
0.000740253
0.000739
0.000738107
0.000737401
0.000736681
0.000736435
0.000736706
0.000737454
0.000738269
0.00073912
0.000740176
0.000741527
0.000742842
0.000744198
0.000745709
0.000747143
0.00074839
0.000749806
0.000751344
0.000752686
0.000754139
0.00075582
0.000757811
0.000760485
0.000763599
0.000767087
0.000771393
0.000773391
0.000758564
0.000677861
0.000448597
0.000142591
6.59698e-06
4.49258e-07
5.16394e-05
0.00027838
0.00052896
0.000656477
0.000691639
0.000696805
0.000694204
0.000690202
0.000686786
0.000684564
0.000682726
0.000680867
0.000678823
0.000677345
0.000675806
0.000674043
0.000672465
0.00067043
0.000668367
0.000666713
0.000665412
0.000663928
0.000662489
0.000661312
0.000660284
0.000659172
0.000658834
0.000659206
0.000660019
0.000660961
0.000662036
0.000663374
0.000665043
0.000666449
0.000668242
0.000669889
0.000671366
0.000672625
0.000674161
0.000675707
0.000677097
0.000678497
0.000680078
0.000682374
0.000685198
0.000688388
0.000691514
0.000695122
0.000695111
0.000675871
0.000588968
0.000375015
0.000116071
5.34744e-06
3.6516e-07
4.21754e-05
0.000232586
0.000457197
0.000586348
0.000627331
0.000635182
0.000633618
0.000629764
0.000626432
0.000624507
0.000623099
0.000621308
0.000619021
0.000617426
0.000615851
0.000613766
0.000612016
0.000609623
0.000607276
0.000605486
0.000603772
0.000601969
0.000600429
0.000599138
0.000597768
0.000596413
0.000595932
0.000596191
0.000597136
0.000598233
0.000599623
0.000601236
0.000603142
0.000604813
0.000606861
0.000608774
0.00061021
0.000611377
0.000613043
0.000614735
0.000616005
0.000617113
0.000618914
0.000621661
0.000624629
0.000627867
0.0006305
0.0006331
0.000631326
0.000608054
0.000517143
0.000319424
9.68998e-05
4.45981e-06
3.04231e-07
3.52764e-05
0.000197989
0.000399523
0.000527554
0.000573649
0.000583799
0.000583545
0.000579624
0.000575973
0.000574548
0.000574137
0.000572325
0.000569955
0.000568322
0.000566354
0.00056402
0.000562139
0.000559562
0.000557262
0.000555504
0.000553227
0.000550852
0.000549635
0.000548719
0.000546712
0.000545019
0.000544764
0.000545291
0.000546018
0.00054701
0.000548819
0.000550605
0.00055258
0.000554594
0.000556734
0.000558924
0.000560463
0.000561499
0.000562546
0.000564301
0.00056581
0.000567137
0.000568857
0.000571581
0.000575177
0.000578294
0.0005803
0.000582129
0.000578722
0.000551701
0.000458425
0.000276495
8.25812e-05
3.80962e-06
2.58398e-07
3.0058e-05
0.00017131
0.000352793
0.000478344
0.000527655
0.000539687
0.000540524
0.000536601
0.000533562
0.000532491
0.000532221
0.000530623
0.000528443
0.000526697
0.000524282
0.00052186
0.000519583
0.000516937
0.000514426
0.00051247
0.000510203
0.000507902
0.000506739
0.000506306
0.000504622
0.000502603
0.000501779
0.000502178
0.000503163
0.000504593
0.000506193
0.000507971
0.000509964
0.00051201
0.000514134
0.000516361
0.000517877
0.000519071
0.000520346
0.000522075
0.000523854
0.000525323
0.000526807
0.0005295
0.000533348
0.000535909
0.000537738
0.000538622
0.000533572
0.00050378
0.000409901
0.000242348
7.13412e-05
3.28134e-06
2.23094e-07
2.60198e-05
0.00015034
0.000314519
0.000434215
0.000485669
0.000499728
0.000501091
0.00049751
0.000494467
0.000493907
0.000493888
0.000492511
0.000490467
0.000488507
0.000486092
0.000483684
0.000481325
0.000478668
0.00047616
0.000474077
0.000472019
0.000470454
0.000469981
0.00047097
0.000471277
0.000469626
0.000468922
0.000469004
0.000469457
0.000470319
0.000469679
0.000470466
0.000472332
0.000473984
0.000475792
0.000477831
0.000479643
0.000481198
0.000482473
0.000484294
0.000486385
0.000488051
0.000489651
0.000492166
0.000495563
0.000497706
0.000499065
0.00049936
0.00049287
0.000461059
0.000369221
0.000215423
6.25936e-05
2.86038e-06
1.95481e-07
2.28692e-05
0.000133612
0.000282773
0.000395584
0.0004479
0.000463236
0.000465083
0.000461803
0.000459031
0.000458828
0.000459018
0.000457797
0.000455731
0.000453648
0.000451467
0.000449363
0.000447103
0.000444548
0.000442271
0.000440378
0.000439284
0.00043957
0.000441846
0.000447734
0.000460802
0.000469365
0.000473707
0.000472388
0.000465167
0.000453475
0.00044148
0.000440266
0.000439648
0.000440436
0.000441711
0.000443329
0.000445306
0.000447007
0.000448223
0.000450058
0.000452462
0.000454411
0.000456104
0.000458494
0.000461466
0.000463051
0.000463746
0.000463537
0.000456329
0.000423337
0.000334618
0.000193707
5.55773e-05
2.52341e-06
1.71752e-07
2.02757e-05
0.000119971
0.000255985
0.00036169
0.00041384
0.000429963
0.000432233
0.000429459
0.000427034
0.000427125
0.000427487
0.00042613
0.000424011
0.00042213
0.00042019
0.000418396
0.0004165
0.000414219
0.00041206
0.000410801
0.000411998
0.000416549
0.000433151
0.000468737
0.000478494
0.000437831
0.000395407
0.000396793
0.000470003
0.000482058
0.000446968
0.0004201
0.000413029
0.000411593
0.000411537
0.000412417
0.000414553
0.000416305
0.000417386
0.000419018
0.000421582
0.000423772
0.000425694
0.000428129
0.000430667
0.000431605
0.000431591
0.000431103
0.000423757
0.000390476
0.00030576
0.000176248
4.9997e-05
2.25554e-06
1.36075e-07
1.76627e-05
0.000107398
0.000232498
0.000331261
0.000382955
0.000399708
0.000402476
0.000400343
0.000398292
0.000398443
0.000398781
0.000397152
0.0003951
0.000393538
0.000391942
0.000390429
0.000389003
0.000387268
0.000385006
0.000384771
0.000390194
0.000408758
0.000438451
0.000373021
0.000119311
2.17965e-06
1.19869e-05
0.000311528
0.000431626
0.000427366
0.000394025
0.000386284
0.000384555
0.000385398
0.000386956
0.00038846
0.000389381
0.000390726
0.000393225
0.000395407
0.000397604
0.000400248
0.000402557
0.000402919
0.000402063
0.000401449
0.000394437
0.000361385
0.000281213
0.000161607
4.53217e-05
2.03053e-06
5.06253e-08
1.26261e-05
9.21563e-05
0.000208916
0.00030185
0.000354484
0.000372236
0.000375462
0.000373889
0.000372266
0.000372297
0.000372439
0.000370253
0.00036837
0.000367077
0.000366003
0.000364556
0.000363576
0.000362689
0.000360998
0.000361778
0.000373511
0.000397454
0.00032458
8.77875e-05
3.82698e-07
0.000185734
0.000395755
0.000383436
0.000362032
0.000360136
0.000360931
0.000361638
0.000362653
0.000363471
0.000364435
0.000366897
0.000368777
0.000371029
0.000373955
0.000376278
0.000376339
0.000374908
0.000374388
0.000367784
0.000335131
0.000259863
0.000149125
4.07538e-05
1.69211e-06
6.96011e-08
1.35561e-05
8.71238e-05
0.000193757
0.00028038
0.00033002
0.000347891
0.000350685
0.000349436
0.000347299
0.000345723
0.000345966
0.000343524
0.000341634
0.000340723
0.00033969
0.000338555
0.00033792
0.000335833
0.000333223
0.000336123
0.000354932
0.000341995
0.000146967
9.93449e-06
4.66513e-05
0.000277466
0.000358022
0.000339952
0.00033086
0.000331477
0.000335378
0.000336387
0.000337039
0.000339171
0.000341386
0.000343012
0.000344764
0.000347455
0.000349609
0.000349813
0.000348789
0.000348755
0.000342271
0.000311299
0.000240352
0.00013896
3.95794e-05
1.92326e-06
1.0046e-07
1.34034e-05
8.31305e-05
0.00018108
0.000260025
0.000306444
0.000323339
0.000325588
0.000324274
0.000322543
0.000320829
0.000320667
0.00031823
0.000316617
0.000315103
0.000314501
0.000313942
0.00031324
0.000310288
0.000308548
0.000317665
0.000324464
0.000260379
7.39068e-05
4.63725e-06
7.84011e-08
3.26337e-07
2.31256e-05
0.000176957
0.00031056
0.000320407
0.00031051
0.000306813
0.000309911
0.000310959
0.000311993
0.00031462
0.00031738
0.000318597
0.000319161
0.00032143
0.000323853
0.000324619
0.000324391
0.000324397
0.000317235
0.000287073
0.000221533
0.00012806
3.62788e-05
1.65122e-06
1.02296e-07
1.23412e-05
7.66873e-05
0.000167003
0.000240114
0.000283941
0.000300267
0.00030237
0.00030167
0.000300551
0.000299078
0.000297961
0.000295666
0.000294124
0.000291993
0.000291695
0.000291957
0.00029171
0.000288792
0.000288763
0.000300993
0.000291063
0.000199782
5.04903e-05
6.41091e-06
4.71093e-06
8.97318e-06
1.22245e-05
1.03366e-05
7.56052e-06
3.70674e-06
1.83977e-05
0.000123473
0.000264483
0.000294431
0.000291517
0.000287167
0.000288368
0.000288776
0.000289553
0.000291846
0.000295258
0.000296587
0.000296134
0.000298226
0.000300699
0.00030176
0.000302312
0.000301583
0.000293536
0.000264323
0.000203766
0.000117674
3.29958e-05
1.47434e-06
9.46821e-08
1.12649e-05
7.02843e-05
0.000153638
0.000220722
0.000263086
0.000279077
0.000281508
0.000281268
0.000280414
0.000279968
0.000277118
0.0002751
0.000274696
0.000271746
0.00027243
0.000272352
0.000272674
0.000271354
0.00027304
0.000278976
0.000260344
0.000164544
4.38459e-05
1.27095e-05
3.29331e-05
6.80093e-05
8.83267e-05
8.14185e-05
5.17062e-05
1.89292e-05
1.96559e-05
0.000100155
0.000233064
0.000262789
0.00027004
0.000269796
0.000268328
0.000268841
0.000269961
0.000272153
0.000275516
0.000276597
0.000275746
0.000277368
0.000280009
0.000280667
0.000281942
0.000281264
0.000272296
0.000244027
0.000187716
0.000108118
2.99225e-05
1.32514e-06
8.6412e-08
1.02821e-05
6.45968e-05
0.000141406
0.000202149
0.00024299
0.000259289
0.000262291
0.000263007
0.00026332
0.000263803
0.000258893
0.000257005
0.000257578
0.000253023
0.00025517
0.000255238
0.000257071
0.000255516
0.000259071
0.00025751
0.000232564
0.000147306
4.62486e-05
3.07322e-05
7.56996e-05
0.00011605
0.000132042
0.000118321
7.97564e-05
3.72074e-05
2.74395e-05
9.14246e-05
0.000215197
0.000245366
0.00025675
0.000254824
0.000251249
0.000251183
0.000253338
0.000255477
0.000258275
0.00025828
0.000256572
0.000258103
0.000261426
0.00026072
0.000262815
0.000263567
0.000253493
0.000226015
0.000173626
9.95931e-05
2.72288e-05
1.1976e-06
7.88664e-08
9.40114e-06
5.94197e-05
0.000130367
0.000185919
0.000225763
0.000241619
0.000244756
0.000245928
0.000248888
0.000248434
0.000242481
0.00024114
0.00024248
0.000237289
0.000239561
0.0002408
0.000243503
0.000241442
0.000240182
0.000241496
0.000207759
0.000138818
5.73648e-05
6.03395e-05
0.000120144
0.000163176
0.000174496
0.000145948
9.50028e-05
5.21104e-05
4.11358e-05
9.45539e-05
0.000205576
0.000237591
0.000248535
0.00023839
0.000236015
0.000237306
0.000239919
0.000241054
0.000243192
0.000243678
0.000241467
0.000242285
0.000244395
0.000244563
0.000247197
0.000248461
0.000236591
0.000209908
0.000161147
9.20489e-05
2.48337e-05
1.08481e-06
7.14128e-08
8.51934e-06
5.41895e-05
0.000118921
0.000170812
0.000211082
0.000227088
0.000229931
0.000231064
0.000236071
0.000234843
0.000224214
0.000225995
0.000227951
0.000224034
0.000222506
0.000226757
0.000230323
0.000226014
0.000225916
0.000219062
0.000194932
0.000133444
7.68948e-05
9.68214e-05
0.000169139
0.000224535
0.000231723
0.000183643
0.000116294
7.36071e-05
6.58173e-05
0.000110592
0.000200494
0.000241941
0.000241279
0.000225258
0.000219158
0.000223912
0.000227023
0.000225832
0.000229497
0.000230963
0.000227476
0.000228609
0.00022977
0.000230772
0.000232846
0.000233334
0.000221093
0.000195339
0.000149997
8.53878e-05
2.27202e-05
9.78649e-07
6.43329e-08
7.68413e-06
4.90537e-05
0.000108633
0.000158148
0.000196548
0.00021359
0.00021769
0.000218165
0.000222717
0.000220569
0.000214017
0.000210955
0.000214535
0.000212992
0.000209149
0.000213822
0.000216705
0.00021628
0.000215338
0.000209439
0.000202776
0.000143505
0.000107043
0.000138845
0.000224908
0.000308537
0.000317304
0.000245907
0.000154767
0.000112685
0.000108575
0.000132995
0.000196163
0.000231786
0.000226625
0.000212689
0.000209492
0.000210357
0.000215051
0.000211656
0.000216823
0.000217494
0.000213691
0.000214427
0.000216235
0.000218908
0.00021806
0.000217891
0.000206358
0.000182432
0.000139262
7.87768e-05
2.0629e-05
8.7549e-07
5.74425e-08
6.87032e-06
4.46628e-05
0.000100156
0.00014399
0.000182969
0.000200569
0.000202121
0.000204125
0.000207968
0.000205566
0.000204694
0.00020201
0.000201684
0.000197141
0.000198256
0.00019915
0.000204362
0.000205502
0.000206659
0.000211623
0.000201997
0.000162295
0.000150863
0.00019091
0.000297538
0.000427859
0.000456055
0.000362678
0.000236651
0.000189305
0.000181944
0.000169749
0.00018775
0.000217802
0.000214568
0.000203815
0.000200537
0.000196432
0.000200103
0.00019722
0.000204917
0.000204583
0.000201466
0.000203223
0.000204632
0.000207011
0.00020447
0.000204692
0.000193328
0.000169214
0.000129064
7.22986e-05
1.86728e-05
7.84327e-07
5.28945e-08
6.37213e-06
4.17354e-05
9.19593e-05
0.000132192
0.000168995
0.000187937
0.00018992
0.000187431
0.000194465
0.000196086
0.000195546
0.000191964
0.000185698
0.000188848
0.000187303
0.000187755
0.000194518
0.000196498
0.000202523
0.000199099
0.000192907
0.000184772
0.000212503
0.000266033
0.000396497
0.000588344
0.000664492
0.000580386
0.000422017
0.000344278
0.000306072
0.000227814
0.000199198
0.000202152
0.000200068
0.000196926
0.000192728
0.000185989
0.000186396
0.000189127
0.00019317
0.000188972
0.000187769
0.000191434
0.000195353
0.000194384
0.000192186
0.000193758
0.000178844
0.000157148
0.00011938
6.64406e-05
1.68818e-05
6.99929e-07
4.92336e-08
5.88946e-06
3.81674e-05
8.47506e-05
0.000122955
0.000151678
0.000178284
0.00018044
0.000177499
0.000181101
0.000184999
0.000186703
0.000180434
0.000184742
0.000182689
0.00017856
0.000181018
0.000183155
0.000190947
0.000204828
0.000195982
0.000183516
0.000212369
0.00029323
0.00038219
0.00052795
0.000794485
0.000951529
0.000936864
0.000806409
0.000652908
0.000504094
0.000307298
0.000213392
0.000191764
0.000196131
0.00019232
0.000177556
0.000177506
0.000175876
0.000179675
0.000181895
0.000176548
0.000178748
0.000181848
0.00018489
0.000182569
0.000182347
0.000183675
0.000168263
0.000144731
0.000110089
6.10779e-05
1.53509e-05
6.28607e-07
4.57752e-08
5.52748e-06
3.63692e-05
7.82837e-05
0.000113682
0.000146086
0.000163679
0.000174586
0.00017202
0.000177765
0.000173442
0.000182564
0.000181344
0.00018136
0.000172196
0.000168147
0.00016956
0.000177014
0.000178839
0.000198954
0.000197502
0.000181081
0.00022658
0.000386681
0.000560731
0.000713643
0.0010516
0.00129742
0.00137338
0.00144604
0.00121819
0.000798991
0.000394925
0.000223429
0.000192091
0.00018707
0.000181476
0.000173082
0.000174125
0.000168224
0.000171238
0.000172059
0.000166425
0.000167537
0.000174631
0.000169754
0.000169908
0.000171715
0.0001716
0.000159438
0.000134516
0.000101886
5.65311e-05
1.40546e-05
5.7096e-07
4.23877e-08
5.08042e-06
3.38339e-05
7.6942e-05
0.000109766
0.000135473
0.000161009
0.0001681
0.000173727
0.000174824
0.00016691
0.00017136
0.00017867
0.000176633
0.000177194
0.000171041
0.000166014
0.000169639
0.000185051
0.000193192
0.000190231
0.000184229
0.000240288
0.000480197
0.000804308
0.00100522
0.00139052
0.00170263
0.00184517
0.00227449
0.00206666
0.00115604
0.000484411
0.000226196
0.000189478
0.000182777
0.000180044
0.000178298
0.000167331
0.000166869
0.000160956
0.000160581
0.000163884
0.000161488
0.000163501
0.000162861
0.000164856
0.00015998
0.000158002
0.000150501
0.000123387
9.31865e-05
5.07806e-05
1.28888e-05
5.19917e-07
4.03296e-08
4.84224e-06
3.30522e-05
7.3345e-05
0.000113304
0.00013292
0.000150712
0.000165549
0.000172402
0.000169859
0.000166181
0.000175731
0.000171511
0.000169651
0.00016989
0.000164925
0.0001626
0.000171745
0.000181361
0.000191315
0.000192681
0.000190457
0.000233127
0.000504951
0.00110347
0.00148949
0.00187159
0.0022138
0.00229043
0.00311099
0.00326962
0.00166897
0.000537423
0.00023418
0.000184991
0.00018792
0.000179664
0.000174822
0.000166577
0.000160216
0.000160166
0.000156359
0.000157115
0.000157105
0.000164774
0.000161445
0.000157248
0.000162008
0.000149502
0.00013833
0.000119898
8.8221e-05
4.95514e-05
1.19002e-05
4.77758e-07
3.83852e-08
4.50825e-06
3.08876e-05
7.19272e-05
0.00011238
0.000137653
0.000148433
0.000156291
0.000163657
0.000164605
0.000177904
0.000167841
0.000168235
0.000166106
0.000165405
0.000171367
0.00016655
0.000168477
0.00017687
0.000182232
0.000183285
0.000183697
0.000237051
0.000493757
0.00132802
0.00215144
0.00255666
0.00283923
0.00268904
0.00369739
0.00421841
0.00188095
0.000521371
0.000234837
0.000182276
0.000180694
0.000174956
0.00016794
0.000161589
0.000156277
0.000155709
0.000156461
0.000156475
0.000167745
0.000157117
0.00015545
0.000153209
0.000155867
0.000146879
0.000136568
0.000116145
8.80204e-05
4.62479e-05
1.11446e-05
4.49381e-07
3.81843e-08
4.47733e-06
3.04839e-05
7.13862e-05
0.000110382
0.000132756
0.000145476
0.000153645
0.000167363
0.000162134
0.000175678
0.000170313
0.000176761
0.00018036
0.000165695
0.000166104
0.000163286
0.000163882
0.000175126
0.000188915
0.000192235
0.000184014
0.000238206
0.000478221
0.00136417
0.00279337
0.00338711
0.00353597
0.00307023
0.0040331
0.00469816
0.00173707
0.000468147
0.000227914
0.000181777
0.000178911
0.000178031
0.000162615
0.000159572
0.000166854
0.00015767
0.000156592
0.00016264
0.000161014
0.000155868
0.000151424
0.000149619
0.000149393
0.000140475
0.000133922
0.000111694
8.84291e-05
4.75671e-05
1.10863e-05
4.45334e-07
3.849e-08
4.52221e-06
3.04893e-05
7.41174e-05
0.000111561
0.000130063
0.000159192
0.00015066
0.000159207
0.00016113
0.000170514
0.000177391
0.000178558
0.000176619
0.000171174
0.000163206
0.000160263
0.000161557
0.000168106
0.000182452
0.000186323
0.000184706
0.000239239
0.000470798
0.00137191
0.00324432
0.00422236
0.00417639
0.00341315
0.0042041
0.00444341
0.00143032
0.000409031
0.000226868
0.000186063
0.000176211
0.000170212
0.000159888
0.000172902
0.000162976
0.000166098
0.000160175
0.000167003
0.000174651
0.000159463
0.000151487
0.00015546
0.000147203
0.000136743
0.000131625
0.000114022
8.44898e-05
4.56838e-05
1.07638e-05
4.31384e-07
3.84829e-08
4.4898e-06
3.12047e-05
7.67463e-05
0.000111484
0.000128506
0.00014776
0.000150219
0.000159414
0.000171777
0.000168972
0.000175959
0.000184001
0.000176423
0.000169733
0.000163702
0.000168758
0.000161945
0.000169527
0.000175251
0.000180773
0.000183911
0.00022476
0.000484069
0.00141541
0.00328508
0.00480434
0.00460018
0.00363431
0.00435452
0.0038874
0.00110918
0.000356357
0.000218956
0.000189609
0.000188918
0.000169907
0.000160198
0.000163595
0.000163076
0.000165456
0.000164182
0.000166434
0.000175062
0.000159552
0.000156651
0.000156503
0.000150404
0.000149338
0.000122512
0.000106925
8.38174e-05
4.54857e-05
1.05026e-05
4.19859e-07
4.0538e-08
4.86945e-06
3.63329e-05
8.67845e-05
0.000114102
0.000132644
0.00014945
0.000154749
0.000165595
0.000186962
0.000172631
0.000178907
0.00018002
0.000177928
0.000169612
0.000167294
0.000173036
0.00016495
0.000169066
0.000172868
0.000177387
0.000198593
0.0002378
0.000464105
0.0013372
0.00338859
0.00498362
0.00469723
0.0037258
0.00437445
0.00315338
0.000845268
0.000313826
0.000211285
0.000200004
0.00018775
0.000168684
0.000162491
0.000162937
0.000165676
0.000177871
0.000164574
0.000170636
0.000171982
0.000163174
0.000163378
0.000158345
0.000148107
0.000141022
0.000122329
0.000121453
9.58752e-05
4.5606e-05
1.05126e-05
4.19926e-07
4.3167e-08
5.166e-06
3.75386e-05
8.71083e-05
0.000121371
0.000139287
0.000155928
0.000156409
0.000168714
0.00018934
0.000179206
0.000179081
0.000178459
0.000178353
0.000176157
0.000173015
0.000177794
0.000171659
0.00017339
0.000172484
0.000178974
0.000187097
0.000226231
0.000437343
0.00121183
0.00337263
0.00497761
0.0045561
0.00371351
0.00422454
0.00245318
0.000663841
0.000286689
0.000206667
0.000195329
0.000189573
0.000169509
0.000172489
0.000166934
0.000178001
0.000171403
0.000174108
0.000175105
0.000181596
0.000167268
0.000168917
0.00016337
0.000155698
0.00014182
0.00013406
0.000127982
9.56777e-05
5.19754e-05
1.1588e-05
4.43377e-07
4.48184e-08
5.26794e-06
3.7851e-05
9.81258e-05
0.000124268
0.000143151
0.000157378
0.000159456
0.000191705
0.000180756
0.000189747
0.000182218
0.000178398
0.000180539
0.000178633
0.000184781
0.000179333
0.000181583
0.000179396
0.000172587
0.00018002
0.000187687
0.000240349
0.000414285
0.00108577
0.00307893
0.00458806
0.00415729
0.00356215
0.0038755
0.00189961
0.000547935
0.000267413
0.000208945
0.000192161
0.00018638
0.000175239
0.000186285
0.000170182
0.000173196
0.000173366
0.000175274
0.000170362
0.000173071
0.000172543
0.000169465
0.000168535
0.000154728
0.000145883
0.000139375
0.000136401
9.80646e-05
5.05366e-05
1.14752e-05
4.53815e-07
4.87352e-08
5.87944e-06
4.4718e-05
0.000108418
0.000152089
0.000156115
0.000163777
0.000166968
0.000183257
0.000183616
0.000188865
0.000186819
0.000180559
0.000182335
0.000179684
0.000178442
0.000181546
0.000186882
0.000187056
0.000186338
0.000180611
0.000191087
0.000228948
0.000394322
0.000971731
0.00270221
0.00398947
0.0036135
0.00334164
0.00338841
0.00150419
0.000476828
0.00025223
0.000201849
0.000185255
0.000178385
0.00019549
0.000177853
0.000178296
0.000180548
0.000174357
0.000181078
0.00017666
0.000172308
0.000176465
0.000175607
0.000167016
0.000158603
0.000147368
0.00013974
0.000128257
0.000110735
5.59618e-05
1.24526e-05
4.83003e-07
5.29429e-08
6.34295e-06
4.51268e-05
0.000113015
0.000171027
0.000170267
0.000172835
0.000172994
0.000185015
0.000187952
0.000207603
0.00018853
0.000186145
0.000185694
0.000183056
0.000183117
0.000185169
0.000187917
0.000187612
0.000184998
0.000182943
0.000190965
0.000225535
0.000376419
0.000875298
0.00232277
0.00332973
0.00302386
0.00306994
0.00284128
0.00122437
0.000435824
0.00024259
0.000206993
0.000184201
0.00017899
0.000191045
0.000178844
0.000183019
0.000178432
0.000176834
0.000183979
0.000180367
0.00017467
0.000181869
0.000178026
0.000184555
0.000174635
0.000154916
0.000142492
0.000130613
0.000110672
5.83688e-05
1.27723e-05
5.06044e-07
5.63268e-08
6.71288e-06
5.05433e-05
0.000128412
0.000170227
0.000183703
0.000206825
0.000181285
0.000193634
0.000194553
0.000201006
0.000194468
0.000192398
0.000188619
0.000185187
0.000184243
0.000206468
0.000192922
0.000190132
0.000187737
0.000191586
0.000196064
0.000235672
0.000362302
0.000794612
0.00197331
0.00271227
0.00250522
0.00270317
0.00235074
0.00104356
0.000398198
0.000243163
0.000199769
0.000183388
0.000178961
0.000184659
0.000181553
0.000187241
0.000177119
0.000184435
0.000183742
0.000179615
0.000188369
0.00019473
0.000177183
0.000182301
0.000177647
0.00016704
0.00014711
0.000137002
0.000125068
6.25508e-05
1.37854e-05
5.39817e-07
5.98881e-08
7.21685e-06
5.30829e-05
0.000127335
0.00017543
0.000206002
0.00019866
0.000192492
0.000200864
0.000199244
0.000200622
0.000199018
0.000202676
0.000193773
0.000190749
0.00018521
0.000199958
0.000193154
0.000193088
0.000196652
0.000191597
0.000196609
0.000234284
0.000349842
0.000726632
0.00167016
0.00218673
0.00205566
0.00228774
0.00193491
0.000920622
0.000378292
0.00023187
0.00020964
0.00019555
0.00018185
0.000189297
0.00018635
0.000182501
0.000185074
0.000188974
0.0001847
0.000181927
0.000185204
0.000187679
0.000195947
0.000181096
0.000185213
0.000167921
0.000148089
0.000141968
0.00013452
6.67444e-05
1.45823e-05
5.72133e-07
6.34173e-08
7.4965e-06
5.35605e-05
0.000139469
0.000188459
0.000199686
0.000199672
0.000212917
0.000210479
0.00020395
0.000201263
0.00020059
0.000203422
0.00020015
0.000209897
0.000187995
0.000192957
0.000205522
0.000198999
0.000197931
0.000194489
0.000208573
0.000227496
0.000336592
0.000668667
0.00141745
0.00176525
0.00167561
0.00188737
0.00160264
0.00083069
0.000365629
0.000233557
0.000199896
0.000186679
0.000190267
0.000186215
0.000194726
0.00018861
0.000188263
0.000189774
0.00018599
0.000195354
0.000191226
0.000186498
0.000186019
0.000179906
0.000177702
0.00016371
0.000164584
0.000152853
0.000142189
6.79743e-05
1.51478e-05
6.09544e-07
6.59855e-08
7.76017e-06
5.76305e-05
0.000139393
0.000193856
0.000204247
0.000231795
0.000227285
0.00021363
0.000225378
0.000207931
0.000203655
0.000200962
0.000213758
0.000201459
0.000189358
0.000189914
0.000194848
0.000197688
0.000194539
0.000194373
0.000206992
0.00022495
0.000325671
0.000618932
0.00121261
0.00143941
0.00136822
0.0015431
0.00134463
0.000761826
0.000350185
0.000230062
0.000197674
0.000184646
0.000186278
0.000184777
0.000188079
0.000187414
0.000186337
0.000191507
0.000188664
0.000198007
0.000212246
0.000195531
0.000187297
0.00018524
0.000179811
0.000164628
0.000160166
0.000157173