/*--------------------------------*- C++ -*----------------------------------*\
  =========                 |
  \\      /  F ield         | OpenFOAM: The Open Source CFD Toolbox
   \\    /   O peration     | Website:  https://openfoam.org
    \\  /    A nd           | Version:  7
     \\/     M anipulation  |
\*---------------------------------------------------------------------------*/
FoamFile
{
    version     2.0;
    format      ascii;
    class       volScalarField;
    location    "35";
    object      nut;
}
// * * * * * * * * * * * * * * * * * * * * * * * * * * * * * * * * * * * * * //

dimensions      [0 2 -1 0 0 0 0];

internalField   nonuniform List<scalar> 
17475
(
3.12041e-05
0.00018885
0.000188081
0.000188027
0.000188026
0.000188026
0.000188025
0.000188025
0.000188025
0.000188025
0.000188025
0.000188025
0.000188025
0.000188025
0.000188025
0.000188025
0.000188025
0.000188025
0.000188025
0.000188025
0.000188025
0.000188025
0.000188025
0.000188026
0.000188024
0.000188027
0.000188027
0.000188027
0.000188027
0.000188027
0.000188027
0.000188027
0.000188027
0.000188027
0.000188027
0.000188027
0.000188027
0.000188027
0.000188027
0.000188028
0.00018803
0.000188032
0.000188033
0.000188035
0.000188036
0.000188037
0.000188038
0.000188039
0.00018804
0.000188041
0.000188042
0.000188043
0.000188054
0.000188285
0.000150675
9.21792e-07
0.00011539
0.000172096
0.000176592
0.000176755
0.00017676
0.000176757
0.000176755
0.000176753
0.000176751
0.00017675
0.000176749
0.000176748
0.000176748
0.000176747
0.000176747
0.000176746
0.000176746
0.000176745
0.000176745
0.000176744
0.000176744
0.000176747
0.00017674
0.000176749
0.000176752
0.000176758
0.000176757
0.000176758
0.000176757
0.000176757
0.000176757
0.000176757
0.000176757
0.000176757
0.000176757
0.000176757
0.000176757
0.000176754
0.000176754
0.000176754
0.000176754
0.000176754
0.000176755
0.000176756
0.000176757
0.000176759
0.000176761
0.000176763
0.000176766
0.000176765
0.000176703
0.000175365
0.000153948
1.68136e-05
1.20154e-07
5.92225e-05
0.000151144
0.000168232
0.00016991
0.000170018
0.000170022
0.000170016
0.000170009
0.000170002
0.000169997
0.000169994
0.000169992
0.000169989
0.000169987
0.000169985
0.000169983
0.000169981
0.000169979
0.000169976
0.000169974
0.000169976
0.000169976
0.000169981
0.000169983
0.000169985
0.000169991
0.000169994
0.000169995
0.000169994
0.000169993
0.000169994
0.000169995
0.000169998
0.000169999
0.000169999
0.000170001
0.000169999
0.000169997
0.000169996
0.000169996
0.000169992
0.00016999
0.000169991
0.000169994
0.000169996
0.000169998
0.000170003
0.000170009
0.000170014
0.000169976
0.000169342
0.000161174
0.000102865
3.04291e-06
3.8635e-08
3.04611e-05
0.000127842
0.0001591
0.000164773
0.000165349
0.000165408
0.000165406
0.000165391
0.000165376
0.000165369
0.000165362
0.000165356
0.000165347
0.000165344
0.000165339
0.000165333
0.000165329
0.000165325
0.000165318
0.000165316
0.000165316
0.000165322
0.000165325
0.000165328
0.00016533
0.000165332
0.000165338
0.00016534
0.000165337
0.000165335
0.000165337
0.000165343
0.00016535
0.000165352
0.000165353
0.000165358
0.000165355
0.000165354
0.000165356
0.000165359
0.000165352
0.00016535
0.000165357
0.000165367
0.000165374
0.000165379
0.000165387
0.000165394
0.000165384
0.000165159
0.000162517
0.000144087
6.41592e-05
1.07959e-06
1.75699e-08
1.70737e-05
0.000104946
0.000148994
0.000159915
0.000161714
0.000161939
0.000161959
0.00016194
0.000161922
0.000161916
0.000161907
0.000161896
0.000161878
0.000161873
0.000161867
0.000161857
0.000161846
0.00016184
0.000161833
0.000161825
0.000161828
0.000161828
0.000161825
0.000161838
0.000161843
0.000161839
0.000161839
0.000161835
0.000161827
0.000161828
0.000161835
0.000161851
0.000161861
0.000161865
0.000161873
0.000161877
0.000161871
0.000161875
0.000161882
0.000161887
0.000161885
0.000161889
0.000161902
0.00016192
0.000161937
0.000161945
0.000161954
0.000161949
0.000161869
0.000161074
0.000154862
0.000126156
4.19627e-05
5.50702e-07
9.63581e-09
1.05304e-05
8.50529e-05
0.000138727
0.000154747
0.000158563
0.000159152
0.000159238
0.000159217
0.000159191
0.000159194
0.00015919
0.000159178
0.000159153
0.000159144
0.000159131
0.000159125
0.000159097
0.000159089
0.000159085
0.000159078
0.000159069
0.000159053
0.000159046
0.000159076
0.000159081
0.000159059
0.000159031
0.000159012
0.000159013
0.000159033
0.000159052
0.000159079
0.000159088
0.000159096
0.000159126
0.000159127
0.000159114
0.000159125
0.000159138
0.000159143
0.000159149
0.000159157
0.000159171
0.000159196
0.000159234
0.000159241
0.000159245
0.000159209
0.000158945
0.000157017
0.000146718
0.000109124
2.9141e-05
3.33479e-07
5.98517e-09
7.05703e-06
6.90006e-05
0.00012851
0.00014933
0.000155601
0.000156867
0.000157094
0.00015705
0.00015699
0.000157016
0.000157027
0.000157003
0.000156984
0.000156981
0.000156947
0.000156957
0.000156925
0.000156887
0.00015685
0.000156839
0.000156838
0.00015679
0.000156796
0.000156816
0.000156806
0.000156758
0.000156689
0.000156665
0.000156709
0.000156755
0.000156795
0.000156827
0.000156837
0.000156836
0.000156914
0.00015694
0.000156906
0.000156912
0.000156925
0.000156935
0.000156928
0.000156912
0.000156924
0.000156955
0.000157062
0.00015708
0.000157032
0.000156932
0.00015632
0.000152729
0.000138611
9.41226e-05
2.13401e-05
2.23358e-07
4.066e-09
5.05717e-06
5.64925e-05
0.000118688
0.000144218
0.000152988
0.000155261
0.000155738
0.000155688
0.00015564
0.0001557
0.000155726
0.000155618
0.00015554
0.00015558
0.000155513
0.000155533
0.000155467
0.000155343
0.000155204
0.000155168
0.000155212
0.000155114
0.000155085
0.000155037
0.000155015
0.000154922
0.000154801
0.000154811
0.000154964
0.000155017
0.000155027
0.000155073
0.000155111
0.00015511
0.00015523
0.000155277
0.000155225
0.000155233
0.000155246
0.000155268
0.000155238
0.000155206
0.000155197
0.000155253
0.000155463
0.000155488
0.000155361
0.000155138
0.000153956
0.000148487
0.000130888
8.14841e-05
1.6243e-05
1.57758e-07
2.94821e-09
3.80587e-06
4.68344e-05
0.000109529
0.000139852
0.000151132
0.000154776
0.000155591
0.000155599
0.000155549
0.000155674
0.000155818
0.000155597
0.0001554
0.000155561
0.000155416
0.000155304
0.000155028
0.000154689
0.000154393
0.0001543
0.000154401
0.000154298
0.000154172
0.000154113
0.000154038
0.00015372
0.000153467
0.000153526
0.000153958
0.000154116
0.000153979
0.000154046
0.000154179
0.000154246
0.000154393
0.000154384
0.000154292
0.000154285
0.000154351
0.000154373
0.000154181
0.000154113
0.000154125
0.000154341
0.000154626
0.000154586
0.000154381
0.000153943
0.000151926
0.000144722
0.000123749
7.09241e-05
1.28217e-05
1.1903e-07
2.24359e-09
2.97514e-06
3.93661e-05
0.000101167
0.000136223
0.000149864
0.00015541
0.000156878
0.000156518
0.000156236
0.000156697
0.000157024
0.00015677
0.000156356
0.000156557
0.000156265
0.000155874
0.000155731
0.000155065
0.000154487
0.00015433
0.000154342
0.000154156
0.000154135
0.000154235
0.000153957
0.000153411
0.000153057
0.000153158
0.000153767
0.00015403
0.000153913
0.000153946
0.000154087
0.0001541
0.000154356
0.000154487
0.000154289
0.000153985
0.000154126
0.00015449
0.000154062
0.00015371
0.000153638
0.000154032
0.000154846
0.000154982
0.000154163
0.000153261
0.000150532
0.000141779
0.000117507
6.25272e-05
1.04591e-05
9.4134e-08
1.77062e-09
2.39585e-06
3.35678e-05
9.36171e-05
0.000133008
0.000148664
0.000155889
0.000158055
0.00015775
0.000157311
0.000157771
0.000158498
0.000158639
0.000158021
0.000158059
0.000158055
0.000157597
0.00015738
0.000156403
0.000155547
0.0001552
0.000155161
0.000155016
0.000154686
0.000154903
0.000155147
0.000154396
0.000153935
0.000153991
0.000154449
0.000154813
0.000154662
0.000154633
0.000154913
0.000154753
0.000155068
0.000154821
0.000154761
0.000154376
0.000154554
0.000154726
0.000154411
0.000154118
0.000154172
0.000155168
0.000156087
0.000156161
0.000155076
0.000153444
0.000149481
0.000139756
0.000112154
5.5672e-05
8.74212e-06
7.70404e-08
1.43905e-09
1.97719e-06
2.90222e-05
8.66633e-05
0.000129783
0.000147934
0.000156255
0.000158635
0.0001585
0.00015812
0.000159183
0.000160461
0.000162135
0.000159621
0.000159575
0.000160383
0.000158054
0.000158816
0.000157488
0.000156715
0.000156842
0.000156241
0.000156274
0.000157297
0.000157604
0.000156992
0.00015518
0.000156553
0.000156897
0.000155062
0.000154847
0.000155868
0.000154921
0.000156389
0.000156544
0.00015664
0.000156932
0.000156865
0.000155575
0.000155437
0.000155697
0.000155683
0.000154894
0.00015489
0.000156334
0.000156894
0.000158273
0.000155816
0.000154181
0.000148925
0.000137226
0.000107009
4.99656e-05
7.45913e-06
6.48652e-08
1.1989e-09
1.66877e-06
2.53993e-05
8.02458e-05
0.000125559
0.000148692
0.000156747
0.00016091
0.000160102
0.000156571
0.000158256
0.00016401
0.000163794
0.000162887
0.000162624
0.000161382
0.000160074
0.000159918
0.000159415
0.000158654
0.000158486
0.000157918
0.000156735
0.000157217
0.000159412
0.000158408
0.000157425
0.000157735
0.000158237
0.000157633
0.000156994
0.000158211
0.000159158
0.000158992
0.000158792
0.000158953
0.000159689
0.000159145
0.000158032
0.000156937
0.000156885
0.000157248
0.000157683
0.000157562
0.00015816
0.00016087
0.000161539
0.000159281
0.000156246
0.000151435
0.00013758
0.000101529
4.49814e-05
6.47105e-06
5.59375e-08
1.01818e-09
1.43126e-06
2.24643e-05
7.41612e-05
0.000122132
0.000143022
0.000150904
0.000155197
0.000154611
0.000156013
0.000157696
0.000158951
0.000158747
0.000158403
0.000157781
0.000156007
0.000154813
0.00015305
0.000151664
0.000150467
0.000149764
0.000149144
0.000149043
0.000149528
0.000150893
0.000151155
0.000150458
0.000149544
0.000149554
0.000149671
0.000150028
0.000150491
0.000151185
0.000151005
0.000151151
0.000151318
0.000151709
0.000151865
0.000152567
0.000152647
0.000152725
0.000153465
0.000154113
0.000153785
0.000154163
0.000156432
0.000155459
0.000154065
0.00015116
0.000145063
0.00013116
9.59146e-05
4.06016e-05
5.65776e-06
4.83063e-08
8.79031e-10
1.24501e-06
2.008e-05
6.86838e-05
0.000111939
0.000133206
0.000142448
0.000145766
0.000146206
0.000146387
0.000147735
0.000148564
0.000148426
0.000147895
0.000146965
0.000145867
0.000144449
0.000142612
0.000141009
0.00013969
0.000138602
0.000137789
0.000137535
0.000137836
0.000138638
0.000139706
0.000139531
0.000139247
0.000139199
0.000138898
0.000138716
0.000138527
0.000138444
0.000139444
0.000140003
0.000140498
0.000140841
0.00014162
0.000143065
0.000143483
0.000143943
0.000144845
0.000145389
0.000145641
0.00014583
0.000146394
0.000146028
0.000144855
0.000142134
0.000135498
0.000121432
8.80716e-05
3.67509e-05
5.01075e-06
4.2155e-08
7.70121e-10
1.09972e-06
1.80481e-05
6.26055e-05
0.000103779
0.000124618
0.000133279
0.000136744
0.000137174
0.000137454
0.000138389
0.000138889
0.000138654
0.000137996
0.000136976
0.000136059
0.000134801
0.000132687
0.000130813
0.000129256
0.000127612
0.000126487
0.000125548
0.000124944
0.000125841
0.000129738
0.000111205
0.000104437
0.000106337
0.000118352
0.000127751
0.000125816
0.000126085
0.000126667
0.000128032
0.000129635
0.000130481
0.000131708
0.00013349
0.000134083
0.000134498
0.000135459
0.0001362
0.00013646
0.000136763
0.00013729
0.000136954
0.00013573
0.000132883
0.000126643
0.00011293
8.08905e-05
3.38001e-05
4.47801e-06
3.71977e-08
6.72187e-10
9.75945e-07
1.63849e-05
5.72283e-05
9.6399e-05
0.000116274
0.000124683
0.000128123
0.000128624
0.000128776
0.00012941
0.000129648
0.000129188
0.000128382
0.000127403
0.000126638
0.000125437
0.000123062
0.000121157
0.000118666
0.000115666
0.000114317
0.000112217
0.000112437
9.9403e-05
7.00078e-05
4.55481e-05
2.39614e-05
2.41627e-05
5.90216e-05
8.30939e-05
0.000117782
0.000112651
0.000113127
0.000115599
0.000117853
0.00011958
0.000121953
0.000124303
0.00012517
0.000125646
0.000126725
0.000127473
0.000127885
0.000128338
0.00012873
0.000128323
0.000127108
0.000124431
0.00011851
0.000105279
7.48249e-05
3.09903e-05
4.05059e-06
3.32556e-08
4.90534e-10
8.34514e-07
1.45602e-05
5.22311e-05
8.89878e-05
0.000108255
0.000116481
0.000119937
0.00012052
0.000120477
0.000120754
0.000120755
0.000120054
0.000119152
0.000118339
0.00011762
0.000115983
0.000113601
0.000111133
0.000107955
0.000104768
0.000102718
0.000103002
9.34487e-05
3.22463e-05
1.55755e-06
1.42943e-09
1.39193e-08
1.2322e-05
4.15022e-05
0.000102697
0.000101492
0.000103603
0.000106429
0.000109654
0.000112362
0.000114794
0.000116325
0.000116868
0.000118056
0.000118888
0.000119522
0.000120107
0.000120477
0.00012005
0.000118805
0.000116406
0.00011099
9.82019e-05
6.95015e-05
2.85339e-05
3.68413e-06
2.9932e-08
1.19542e-10
5.01698e-07
1.2033e-05
4.64932e-05
8.08055e-05
9.93016e-05
0.000107378
0.000110685
0.000111232
0.000110908
0.000110728
0.000110507
0.000109506
0.000108564
0.000107763
0.000106989
0.000105028
0.000102604
9.98786e-05
9.63833e-05
9.32689e-05
9.28278e-05
8.15077e-05
2.3533e-05
1.32103e-06
2.05361e-10
5.50407e-06
5.89918e-05
8.76076e-05
9.09727e-05
9.48822e-05
9.86877e-05
0.000101921
0.00010451
0.000105998
0.000106712
0.000108062
0.000108981
0.000109754
0.000110427
0.000110842
0.000110536
0.000109406
0.000107417
0.000102601
9.05234e-05
6.43661e-05
2.66199e-05
3.33502e-06
2.50999e-08
1.64661e-10
6.01214e-07
1.13937e-05
4.18722e-05
7.10472e-05
8.66325e-05
9.39757e-05
9.6331e-05
9.63799e-05
9.57666e-05
9.47895e-05
9.44171e-05
9.36972e-05
9.2356e-05
9.1369e-05
8.99453e-05
8.86747e-05
8.72808e-05
8.41838e-05
8.01257e-05
7.7865e-05
7.44117e-05
4.90514e-05
6.57084e-06
1.0885e-07
1.06473e-06
2.4119e-05
6.74485e-05
7.62259e-05
7.80709e-05
8.12993e-05
8.56696e-05
8.75719e-05
8.85391e-05
8.99166e-05
9.1445e-05
9.25663e-05
9.3455e-05
9.45036e-05
9.52419e-05
9.55544e-05
9.49544e-05
9.38638e-05
9.00406e-05
7.94328e-05
5.683e-05
2.42854e-05
3.30177e-06
2.8807e-08
3.59582e-10
6.16065e-07
1.12141e-05
3.92798e-05
6.51192e-05
7.95861e-05
8.60932e-05
8.83177e-05
8.82571e-05
8.74481e-05
8.68796e-05
8.64197e-05
8.52199e-05
8.41839e-05
8.28038e-05
8.134e-05
8.06684e-05
7.94053e-05
7.57978e-05
7.25554e-05
7.11627e-05
6.24644e-05
3.03152e-05
3.59192e-06
1.36987e-07
3.84404e-10
4.11878e-09
8.02325e-07
1.35225e-05
4.91184e-05
6.83779e-05
7.14477e-05
7.33402e-05
7.70969e-05
7.85134e-05
8.01727e-05
8.13107e-05
8.27002e-05
8.41709e-05
8.5208e-05
8.63113e-05
8.73196e-05
8.75499e-05
8.71726e-05
8.62688e-05
8.26102e-05
7.27908e-05
5.207e-05
2.22693e-05
2.99897e-06
2.43567e-08
4.00073e-10
5.87697e-07
1.04244e-05
3.623e-05
5.98383e-05
7.32585e-05
7.93745e-05
8.13028e-05
8.14364e-05
8.10226e-05
8.04724e-05
7.95999e-05
7.83667e-05
7.74013e-05
7.59985e-05
7.48844e-05
7.41211e-05
7.31926e-05
7.00374e-05
6.70687e-05
6.61159e-05
5.43953e-05
2.27676e-05
3.05691e-06
3.87149e-07
3.14536e-07
3.77244e-07
4.3881e-07
3.73836e-07
4.69886e-07
2.61675e-07
1.00306e-06
9.86429e-06
3.99107e-05
6.09429e-05
6.62803e-05
6.83069e-05
7.128e-05
7.26302e-05
7.3491e-05
7.44188e-05
7.62173e-05
7.77178e-05
7.84419e-05
7.96258e-05
8.08123e-05
8.11619e-05
8.08682e-05
7.98125e-05
7.61225e-05
6.67368e-05
4.75185e-05
2.04159e-05
2.70357e-06
2.17173e-08
3.72939e-10
5.42789e-07
9.54253e-06
3.32121e-05
5.48239e-05
6.77499e-05
7.37213e-05
7.55612e-05
7.58553e-05
7.54443e-05
7.50077e-05
7.40172e-05
7.2865e-05
7.20103e-05
7.03303e-05
6.9401e-05
6.87142e-05
6.80281e-05
6.57649e-05
6.33994e-05
6.09005e-05
4.79577e-05
1.96688e-05
3.38718e-06
1.16432e-06
5.33409e-06
1.56041e-05
2.29125e-05
2.07689e-05
1.11062e-05
2.43981e-06
1.50149e-06
9.12725e-06
3.50499e-05
5.38397e-05
6.11816e-05
6.40271e-05
6.59294e-05
6.73981e-05
6.83885e-05
6.93991e-05
7.0912e-05
7.21452e-05
7.29355e-05
7.40883e-05
7.5333e-05
7.55389e-05
7.53704e-05
7.43701e-05
7.05562e-05
6.15033e-05
4.36751e-05
1.87071e-05
2.44012e-06
1.95225e-08
3.40409e-10
4.96415e-07
8.75853e-06
3.04185e-05
5.00739e-05
6.2441e-05
6.82782e-05
7.01793e-05
7.07493e-05
7.0655e-05
7.05265e-05
6.90792e-05
6.80111e-05
6.73563e-05
6.52853e-05
6.48112e-05
6.41598e-05
6.39156e-05
6.19928e-05
6.05149e-05
5.65053e-05
4.30224e-05
1.94745e-05
4.43365e-06
3.51848e-06
1.47188e-05
3.02582e-05
3.94904e-05
3.46664e-05
1.9054e-05
5.92373e-06
2.68455e-06
9.85159e-06
3.38845e-05
5.06503e-05
5.85439e-05
6.07549e-05
6.16876e-05
6.2905e-05
6.41083e-05
6.50983e-05
6.63825e-05
6.7298e-05
6.78362e-05
6.90304e-05
7.04554e-05
7.02083e-05
7.01694e-05
6.95382e-05
6.56395e-05
5.69313e-05
4.02826e-05
1.71714e-05
2.21603e-06
1.76528e-08
3.10723e-10
4.53876e-07
8.03692e-06
2.78871e-05
4.58464e-05
5.77366e-05
6.30742e-05
6.48669e-05
6.57892e-05
6.65146e-05
6.61863e-05
6.44978e-05
6.35904e-05
6.31562e-05
6.10184e-05
6.06513e-05
6.03604e-05
6.04464e-05
5.86761e-05
5.64615e-05
5.38309e-05
4.15014e-05
2.05535e-05
6.58417e-06
7.74156e-06
2.26286e-05
3.82662e-05
4.95925e-05
4.04087e-05
2.09406e-05
8.56705e-06
4.71958e-06
1.20935e-05
3.5084e-05
5.02076e-05
5.71203e-05
5.70366e-05
5.80065e-05
5.9338e-05
6.06861e-05
6.13651e-05
6.23459e-05
6.34506e-05
6.3807e-05
6.48313e-05
6.58458e-05
6.57437e-05
6.58283e-05
6.53776e-05
6.11717e-05
5.27891e-05
3.72699e-05
1.58039e-05
2.01691e-06
1.59881e-08
2.81416e-10
4.11177e-07
7.3021e-06
2.52059e-05
4.17805e-05
5.34871e-05
5.83159e-05
6.02774e-05
6.11518e-05
6.2359e-05
6.15428e-05
5.88156e-05
5.89124e-05
5.88113e-05
5.69804e-05
5.51934e-05
5.61235e-05
5.6919e-05
5.47819e-05
5.3203e-05
4.93852e-05
4.01038e-05
2.1979e-05
1.02853e-05
1.32567e-05
3.06885e-05
4.96492e-05
6.36802e-05
4.83512e-05
2.40857e-05
1.16428e-05
8.54546e-06
1.65495e-05
3.72532e-05
5.23632e-05
5.57213e-05
5.40082e-05
5.38324e-05
5.56184e-05
5.7199e-05
5.72583e-05
5.8424e-05
5.9672e-05
5.93553e-05
6.07611e-05
6.15982e-05
6.17019e-05
6.15437e-05
6.08909e-05
5.68284e-05
4.88208e-05
3.44837e-05
1.45903e-05
1.84074e-06
1.43521e-08
2.53569e-10
3.70846e-07
6.57976e-06
2.27585e-05
3.81805e-05
4.9171e-05
5.4029e-05
5.62328e-05
5.67778e-05
5.78672e-05
5.66071e-05
5.50035e-05
5.36575e-05
5.42137e-05
5.35657e-05
5.08902e-05
5.22118e-05
5.30542e-05
5.21066e-05
5.03596e-05
4.73392e-05
4.19422e-05
2.58039e-05
1.63662e-05
2.04725e-05
3.84636e-05
6.37693e-05
8.41756e-05
6.10392e-05
2.95005e-05
1.72709e-05
1.59756e-05
2.27359e-05
4.00562e-05
5.0975e-05
5.23954e-05
5.04746e-05
5.07502e-05
5.16271e-05
5.36851e-05
5.30098e-05
5.46335e-05
5.5531e-05
5.48189e-05
5.64286e-05
5.7166e-05
5.76819e-05
5.66361e-05
5.58512e-05
5.2448e-05
4.51167e-05
3.17355e-05
1.33765e-05
1.66427e-06
1.275e-08
2.26443e-10
3.31722e-07
5.95833e-06
2.07629e-05
3.41291e-05
4.28187e-05
4.88651e-05
5.13547e-05
5.23127e-05
5.30059e-05
5.07946e-05
5.18721e-05
5.12772e-05
5.09556e-05
4.92698e-05
4.8939e-05
4.72621e-05
4.98003e-05
4.95612e-05
4.83484e-05
4.67224e-05
4.25034e-05
3.13272e-05
2.58735e-05
3.04709e-05
4.955e-05
8.46759e-05
0.000119008
8.56435e-05
4.23022e-05
3.02936e-05
3.03443e-05
3.24577e-05
3.95041e-05
4.7481e-05
4.81844e-05
4.82282e-05
4.82524e-05
4.60283e-05
4.69746e-05
4.90419e-05
5.18555e-05
5.23935e-05
5.18714e-05
5.29854e-05
5.18446e-05
5.36148e-05
5.21874e-05
5.17012e-05
4.79762e-05
4.12439e-05
2.90938e-05
1.21229e-05
1.50144e-06
1.13514e-08
2.0858e-10
3.07967e-07
5.5732e-06
1.86786e-05
3.06401e-05
4.07506e-05
4.62573e-05
4.77147e-05
4.88451e-05
4.87906e-05
4.94444e-05
4.86159e-05
4.76209e-05
4.7749e-05
4.68272e-05
4.74974e-05
4.70732e-05
4.79504e-05
4.78749e-05
4.74576e-05
4.57597e-05
4.2005e-05
3.78382e-05
4.04367e-05
4.67106e-05
6.86973e-05
0.00011501
0.00017262
0.000133521
7.53e-05
5.94279e-05
5.68187e-05
4.63212e-05
4.3095e-05
4.42975e-05
4.61703e-05
4.63731e-05
4.70357e-05
4.53721e-05
4.52114e-05
4.64924e-05
4.92477e-05
4.90797e-05
4.80767e-05
4.94149e-05
5.16074e-05
4.90832e-05
4.82983e-05
4.88079e-05
4.41355e-05
3.77129e-05
2.63474e-05
1.11709e-05
1.35418e-06
1.00744e-08
1.94201e-10
2.85062e-07
5.11783e-06
1.75112e-05
2.89524e-05
3.68736e-05
4.48066e-05
4.71104e-05
4.58647e-05
4.74489e-05
4.74938e-05
4.80629e-05
4.62796e-05
4.71264e-05
4.70799e-05
4.60246e-05
4.63618e-05
4.63705e-05
4.76945e-05
5.09505e-05
4.74086e-05
4.24541e-05
4.70346e-05
6.12261e-05
7.4101e-05
9.75004e-05
0.000158929
0.000250048
0.000213366
0.000151285
0.000123985
0.00010339
6.65138e-05
4.7098e-05
4.45e-05
4.63038e-05
4.77403e-05
4.42114e-05
4.5131e-05
4.49836e-05
4.63379e-05
4.71529e-05
4.66355e-05
4.84619e-05
4.93777e-05
4.9735e-05
4.7607e-05
4.7424e-05
4.84847e-05
4.24772e-05
3.62512e-05
2.48354e-05
1.02548e-05
1.23111e-06
9.00638e-09
1.80631e-10
2.68074e-07
4.9109e-06
1.67542e-05
2.8144e-05
3.78243e-05
4.34204e-05
4.6894e-05
4.69328e-05
4.86153e-05
4.76466e-05
4.97278e-05
4.9361e-05
4.89415e-05
4.61583e-05
4.38135e-05
4.38778e-05
4.50919e-05
4.53967e-05
5.0269e-05
4.93632e-05
4.51445e-05
5.54215e-05
8.89149e-05
0.00011917
0.000141696
0.000220349
0.000347956
0.000317624
0.000289893
0.000252675
0.000178686
9.20015e-05
5.28184e-05
4.57991e-05
4.63061e-05
4.59961e-05
4.36609e-05
4.53358e-05
4.42313e-05
4.52605e-05
4.58088e-05
4.48608e-05
4.57693e-05
4.83236e-05
4.66377e-05
4.71657e-05
4.70951e-05
4.61181e-05
4.23543e-05
3.44537e-05
2.38147e-05
9.57572e-06
1.1279e-06
8.14778e-09
1.67298e-10
2.46904e-07
4.58293e-06
1.67278e-05
2.83315e-05
3.63643e-05
4.41491e-05
4.62943e-05
4.81047e-05
4.89762e-05
4.67991e-05
4.77439e-05
4.96655e-05
4.88647e-05
4.85712e-05
4.56352e-05
4.35643e-05
4.43237e-05
4.81487e-05
4.99106e-05
4.90327e-05
4.69874e-05
6.0737e-05
0.000118308
0.00018293
0.000213797
0.000310024
0.000473649
0.000444343
0.000489663
0.000463484
0.00027482
0.000122091
5.66209e-05
4.91214e-05
4.63432e-05
4.66795e-05
4.71996e-05
4.42406e-05
4.44283e-05
4.32095e-05
4.34618e-05
4.47518e-05
4.45984e-05
4.55678e-05
4.55179e-05
4.62197e-05
4.44636e-05
4.31208e-05
4.04103e-05
3.2102e-05
2.20936e-05
8.68663e-06
1.03566e-06
7.39495e-09
1.59221e-10
2.35899e-07
4.496e-06
1.59964e-05
2.95231e-05
3.62556e-05
4.18368e-05
4.64294e-05
4.86005e-05
4.8095e-05
4.704e-05
4.93963e-05
4.79774e-05
4.72812e-05
4.70891e-05
4.50087e-05
4.35509e-05
4.59847e-05
4.83192e-05
5.08695e-05
5.08225e-05
4.96941e-05
6.03897e-05
0.000125212
0.000264413
0.000338382
0.000445423
0.000644572
0.000579688
0.00071539
0.000780924
0.000424244
0.000139163
6.2251e-05
4.94026e-05
5.03288e-05
4.77842e-05
4.709e-05
4.49771e-05
4.34734e-05
4.37615e-05
4.29726e-05
4.34861e-05
4.3887e-05
4.63777e-05
4.56137e-05
4.43278e-05
4.53099e-05
4.13739e-05
3.76312e-05
3.16663e-05
2.10899e-05
8.51001e-06
9.57821e-07
6.77582e-09
1.51586e-10
2.20206e-07
4.22051e-06
1.57751e-05
2.94424e-05
3.78617e-05
4.1625e-05
4.43933e-05
4.67244e-05
4.71059e-05
5.08501e-05
4.77111e-05
4.75663e-05
4.68025e-05
4.64454e-05
4.77344e-05
4.59064e-05
4.6232e-05
4.82403e-05
4.93599e-05
4.92669e-05
4.89557e-05
6.23915e-05
0.000127319
0.000337471
0.000515784
0.000647698
0.000866502
0.000715014
0.00089836
0.00105021
0.000489049
0.000138651
6.32863e-05
4.95064e-05
4.94543e-05
4.80325e-05
4.63214e-05
4.46894e-05
4.33714e-05
4.33564e-05
4.36478e-05
4.38401e-05
4.73261e-05
4.45826e-05
4.42298e-05
4.34998e-05
4.39656e-05
4.10346e-05
3.75292e-05
3.1065e-05
2.12149e-05
7.97292e-06
8.98978e-07
6.35814e-09
1.50834e-10
2.19277e-07
4.18518e-06
1.57413e-05
2.91308e-05
3.68194e-05
4.11452e-05
4.40106e-05
4.81914e-05
4.67806e-05
5.0592e-05
4.87984e-05
5.03941e-05
5.12666e-05
4.69878e-05
4.69366e-05
4.59252e-05
4.58704e-05
4.86448e-05
5.18458e-05
5.23329e-05
4.99022e-05
6.42969e-05
0.000129252
0.000354
0.000707378
0.000907893
0.00111242
0.000859044
0.00103
0.00122428
0.000465372
0.00012775
6.2993e-05
5.05736e-05
4.99065e-05
4.97635e-05
4.55959e-05
4.48478e-05
4.70072e-05
4.45095e-05
4.42418e-05
4.60468e-05
4.5772e-05
4.4487e-05
4.33097e-05
4.27251e-05
4.2435e-05
3.95385e-05
3.71195e-05
3.01463e-05
2.1471e-05
8.23839e-06
8.96552e-07
6.28808e-09
1.52092e-10
2.22071e-07
4.20636e-06
1.64293e-05
2.96268e-05
3.63182e-05
4.53071e-05
4.33949e-05
4.61048e-05
4.67553e-05
4.9359e-05
5.10852e-05
5.12181e-05
5.05753e-05
4.89601e-05
4.66079e-05
4.56338e-05
4.58381e-05
4.74493e-05
5.10905e-05
5.18688e-05
5.10887e-05
6.58173e-05
0.000130376
0.000374751
0.000851145
0.00118307
0.00134908
0.00100627
0.00111924
0.0011891
0.000391949
0.000113877
6.37214e-05
5.24935e-05
4.98107e-05
4.81837e-05
4.53595e-05
4.91425e-05
4.64355e-05
4.74081e-05
4.57319e-05
4.76986e-05
4.99325e-05
4.56897e-05
4.34874e-05
4.46045e-05
4.20638e-05
3.87306e-05
3.67366e-05
3.10052e-05
2.06397e-05
7.94995e-06
8.72969e-07
6.08017e-09
1.52123e-10
2.21103e-07
4.32757e-06
1.71036e-05
2.97804e-05
3.60994e-05
4.22735e-05
4.34537e-05
4.63542e-05
5.00489e-05
4.91089e-05
5.08932e-05
5.30728e-05
5.08606e-05
4.89364e-05
4.71872e-05
4.85512e-05
4.64454e-05
4.84182e-05
4.98069e-05
5.11713e-05
5.18382e-05
6.32409e-05
0.000136509
0.000393373
0.00090089
0.0014006
0.00150948
0.00109863
0.00121447
0.00108527
0.000310651
0.000100785
6.22799e-05
5.40758e-05
5.39432e-05
4.86058e-05
4.58952e-05
4.69303e-05
4.68785e-05
4.76262e-05
4.72554e-05
4.78561e-05
5.02872e-05
4.58569e-05
4.51087e-05
4.51036e-05
4.32209e-05
4.25351e-05
3.43895e-05
2.9252e-05
2.0584e-05
7.95482e-06
8.54426e-07
5.90914e-09
1.60308e-10
2.40451e-07
5.06651e-06
1.94522e-05
3.066e-05
3.74829e-05
4.2977e-05
4.49557e-05
4.8336e-05
5.46757e-05
5.0385e-05
5.20134e-05
5.22344e-05
5.16232e-05
4.92549e-05
4.8617e-05
5.02208e-05
4.77458e-05
4.87627e-05
4.96798e-05
5.08636e-05
5.69207e-05
6.83053e-05
0.000133314
0.000379298
0.000950439
0.00148658
0.00155929
0.00115454
0.00125219
0.00089783
0.000242168
9.00461e-05
6.07247e-05
5.75475e-05
5.40925e-05
4.8695e-05
4.69487e-05
4.71243e-05
4.79921e-05
5.15622e-05
4.76643e-05
4.93177e-05
4.9603e-05
4.70512e-05
4.7206e-05
4.58407e-05
4.27912e-05
4.0375e-05
3.45086e-05
3.33941e-05
2.36614e-05
8.01578e-06
8.57794e-07
5.90165e-09
1.70758e-10
2.5577e-07
5.26435e-06
1.964e-05
3.28038e-05
3.9592e-05
4.50854e-05
4.56692e-05
4.94719e-05
5.56062e-05
5.25641e-05
5.23847e-05
5.21217e-05
5.20651e-05
5.14743e-05
5.06187e-05
5.19653e-05
5.00523e-05
5.0415e-05
5.00216e-05
5.18438e-05
5.43134e-05
6.59143e-05
0.000127405
0.000350022
0.000968792
0.00151768
0.00152322
0.00117259
0.00124007
0.000714106
0.000193631
8.33086e-05
5.99642e-05
5.66773e-05
5.50264e-05
4.92695e-05
5.01856e-05
4.86187e-05
5.19156e-05
5.00062e-05
5.06979e-05
5.08322e-05
5.25876e-05
4.84154e-05
4.89982e-05
4.75089e-05
4.52055e-05
4.07987e-05
3.79882e-05
3.53447e-05
2.37233e-05
9.18367e-06
9.48376e-07
6.22431e-09
1.77336e-10
2.61427e-07
5.34481e-06
2.22448e-05
3.37592e-05
4.09042e-05
4.57503e-05
4.68275e-05
5.65205e-05
5.33406e-05
5.59446e-05
5.36391e-05
5.24535e-05
5.30146e-05
5.24785e-05
5.43555e-05
5.27037e-05
5.32451e-05
5.2507e-05
5.04399e-05
5.2614e-05
5.50407e-05
7.07588e-05
0.000122069
0.00031819
0.000900976
0.00142039
0.00139475
0.00113888
0.00115855
0.000561914
0.000161829
7.85182e-05
6.11585e-05
5.61872e-05
5.44573e-05
5.12298e-05
5.45001e-05
4.98443e-05
5.08054e-05
5.087e-05
5.1297e-05
4.96689e-05
5.03342e-05
5.01574e-05
4.93671e-05
4.9215e-05
4.51131e-05
4.21496e-05
3.96626e-05
3.7826e-05
2.44315e-05
8.98218e-06
9.43374e-07
6.38509e-09
1.9287e-10
2.92416e-07
6.33779e-06
2.46867e-05
4.1473e-05
4.47806e-05
4.78251e-05
4.93059e-05
5.43368e-05
5.44453e-05
5.59384e-05
5.52915e-05
5.34166e-05
5.38596e-05
5.30697e-05
5.27586e-05
5.36252e-05
5.51035e-05
5.51067e-05
5.48635e-05
5.32048e-05
5.64592e-05
6.79041e-05
0.000117267
0.00028821
0.000803303
0.00124985
0.0012129
0.00107619
0.00102715
0.000450326
0.000142194
7.47072e-05
5.95394e-05
5.45064e-05
5.24245e-05
5.74711e-05
5.22939e-05
5.24603e-05
5.32054e-05
5.1409e-05
5.32498e-05
5.17364e-05
5.03473e-05
5.15459e-05
5.1377e-05
4.89593e-05
4.64069e-05
4.27429e-05
3.99311e-05
3.57178e-05
2.7723e-05
1.00072e-05
1.02893e-06
6.82601e-09
2.09533e-10
3.16137e-07
6.42658e-06
2.58241e-05
4.6742e-05
4.89449e-05
5.06309e-05
5.13225e-05
5.51432e-05
5.59684e-05
6.1699e-05
5.60143e-05
5.53564e-05
5.51959e-05
5.4401e-05
5.44476e-05
5.49911e-05
5.57334e-05
5.56354e-05
5.48475e-05
5.42472e-05
5.67034e-05
6.7196e-05
0.000112767
0.000262379
0.000699731
0.00105225
0.0010134
0.000993028
0.00087033
0.000369888
0.000130934
7.23568e-05
6.14385e-05
5.44503e-05
5.28506e-05
5.64533e-05
5.28278e-05
5.40542e-05
5.27703e-05
5.2346e-05
5.43399e-05
5.30672e-05
5.12956e-05
5.34012e-05
5.23171e-05
5.42979e-05
5.12596e-05
4.50836e-05
4.08784e-05
3.65341e-05
2.78473e-05
1.05044e-05
1.06071e-06
7.1834e-09
2.22967e-10
3.35179e-07
7.22827e-06
2.94292e-05
4.65831e-05
5.28634e-05
6.0732e-05
5.40013e-05
5.79858e-05
5.81566e-05
5.98971e-05
5.79357e-05
5.74743e-05
5.64423e-05
5.54353e-05
5.51281e-05
6.16544e-05
5.75328e-05
5.67063e-05
5.59748e-05
5.70937e-05
5.83983e-05
7.04051e-05
0.000109149
0.000240343
0.000601031
0.000862101
0.000836941
0.000876013
0.000725733
0.000317234
0.000120212
7.28838e-05
5.95808e-05
5.44073e-05
5.30371e-05
5.48046e-05
5.38428e-05
5.54734e-05
5.2533e-05
5.47749e-05
5.44816e-05
5.30843e-05
5.56032e-05
5.74837e-05
5.23064e-05
5.38114e-05
5.23015e-05
4.87588e-05
4.23622e-05
3.84918e-05
3.16269e-05
1.1322e-05
1.15001e-06
7.695e-09
2.37139e-10
3.60911e-07
7.62005e-06
2.92625e-05
4.80638e-05
5.93464e-05
5.84792e-05
5.75778e-05
6.04435e-05
5.98123e-05
5.99713e-05
5.94679e-05
6.08242e-05
5.83896e-05
5.75404e-05
5.57663e-05
5.99975e-05
5.78431e-05
5.78194e-05
5.88583e-05
5.72865e-05
5.86952e-05
7.01547e-05
0.000105861
0.000221354
0.000513213
0.000697787
0.000683998
0.00074173
0.000600749
0.000281199
0.00011463
6.97685e-05
6.27097e-05
5.81521e-05
5.40573e-05
5.63817e-05
5.54567e-05
5.42198e-05
5.5037e-05
5.62887e-05
5.495e-05
5.39841e-05
5.49302e-05
5.56863e-05
5.80986e-05
5.36349e-05
5.46859e-05
4.91481e-05
4.27864e-05
4.00489e-05
3.41736e-05
1.21458e-05
1.22146e-06
8.19099e-09
2.51186e-10
3.75408e-07
7.71464e-06
3.21387e-05
5.17111e-05
5.76286e-05
5.89575e-05
6.39747e-05
6.36757e-05
6.15583e-05
6.04538e-05
6.02058e-05
6.13655e-05
6.0715e-05
6.37614e-05
5.69112e-05
5.8093e-05
6.1694e-05
5.97218e-05
5.93711e-05
5.82703e-05
6.24093e-05
6.83135e-05
0.000102209
0.000204802
0.000438493
0.00056467
0.000555114
0.000611448
0.000499431
0.000254501
0.000111073
7.04723e-05
5.99444e-05
5.56546e-05
5.66704e-05
5.56077e-05
5.8124e-05
5.61984e-05
5.61464e-05
5.669e-05
5.54961e-05
5.81669e-05
5.69515e-05
5.55881e-05
5.53832e-05
5.34557e-05
5.2605e-05
4.80399e-05
4.76831e-05
4.3261e-05
3.62626e-05
1.24279e-05
1.27358e-06
8.76433e-09
2.61421e-10
3.89073e-07
8.32879e-06
3.22112e-05
5.32826e-05
5.9074e-05
6.86645e-05
6.85966e-05
6.4991e-05
6.8477e-05