/*--------------------------------*- C++ -*----------------------------------*\
  =========                 |
  \\      /  F ield         | OpenFOAM: The Open Source CFD Toolbox
   \\    /   O peration     | Website:  https://openfoam.org
    \\  /    A nd           | Version:  7
     \\/     M anipulation  |
\*---------------------------------------------------------------------------*/
FoamFile
{
    version     2.0;
    format      ascii;
    class       volScalarField;
    location    "35";
    object      p;
}
// * * * * * * * * * * * * * * * * * * * * * * * * * * * * * * * * * * * * * //

dimensions      [0 2 -2 0 0 0 0];

internalField   nonuniform List<scalar> 
17475
(
0.733017
0.418534
0.329266
0.290845
0.268444
0.253701
0.243343
0.235825
0.2303
0.226251
0.223339
0.221327
0.220041
0.219345
0.21913
0.219304
0.219785
0.2205
0.221381
0.222365
0.223393
0.22441
0.225361
0.226202
0.226891
0.227398
0.227694
0.227762
0.227596
0.227198
0.226583
0.225773
0.224798
0.223699
0.22252
0.221315
0.220138
0.219052
0.21812
0.217413
0.217006
0.216983
0.217438
0.21848
0.220245
0.222904
0.226685
0.231909
0.239039
0.248786
0.262284
0.281405
0.308991
0.351644
0.37353
0.294276
0.310205
0.295459
0.27698
0.261361
0.249488
0.240566
0.23386
0.228837
0.22512
0.222442
0.220603
0.21945
0.218863
0.21874
0.218994
0.219549
0.220331
0.221276
0.22232
0.223404
0.224471
0.225471
0.226354
0.227079
0.227611
0.227923
0.227998
0.227827
0.227415
0.226776
0.225933
0.224918
0.223771
0.222541
0.221278
0.22004
0.218888
0.217886
0.217105
0.216617
0.216501
0.216848
0.217759
0.219358
0.221796
0.225272
0.230053
0.236512
0.245191
0.256914
0.273006
0.295315
0.331215
0.340608
0.262552
0.258944
0.257375
0.251378
0.244745
0.238326
0.232711
0.228086
0.224435
0.221666
0.219673
0.218351
0.217606
0.217355
0.217519
0.218027
0.218813
0.219811
0.220958
0.222194
0.223458
0.224693
0.225843
0.226859
0.227692
0.228304
0.228666
0.228759
0.228575
0.228118
0.227401
0.226453
0.225309
0.224011
0.222612
0.221166
0.219732
0.218372
0.21715
0.216133
0.215388
0.214984
0.214997
0.215506
0.216599
0.218377
0.220953
0.224455
0.22902
0.234764
0.241702
0.249557
0.25697
0.261589
0.253141
0.215689
0.22447
0.229528
0.229615
0.227803
0.225201
0.222508
0.220058
0.218018
0.216459
0.215394
0.214807
0.214664
0.214921
0.215531
0.216443
0.217603
0.218954
0.22044
0.221998
0.22357
0.225092
0.226506
0.22775
0.228771
0.229525
0.229977
0.230104
0.229897
0.229361
0.228511
0.227381
0.226012
0.224455
0.222767
0.22101
0.219246
0.217539
0.215954
0.214555
0.2134
0.212546
0.212048
0.211958
0.212321
0.213179
0.214555
0.216446
0.21879
0.221416
0.223943
0.225619
0.225148
0.218921
0.203842
0.194149
0.200533
0.206881
0.210519
0.21194
0.212097
0.211667
0.211048
0.210483
0.210119
0.210033
0.210263
0.210821
0.211696
0.212867
0.214302
0.21596
0.217794
0.219749
0.221767
0.223781
0.225726
0.227526
0.22911
0.230414
0.231385
0.231976
0.232158
0.231918
0.231263
0.230215
0.228814
0.227113
0.225174
0.223066
0.220861
0.218629
0.216436
0.214357
0.212447
0.210757
0.209332
0.208207
0.207409
0.206949
0.20682
0.206987
0.207371
0.207825
0.208097
0.207763
0.206103
0.202259
0.19441
0.184141
0.180558
0.185141
0.191056
0.195474
0.198196
0.199893
0.200974
0.201727
0.20237
0.203057
0.20389
0.204932
0.206222
0.207773
0.209583
0.211635
0.213901
0.21634
0.218902
0.221523
0.224138
0.226656
0.228989
0.231052
0.232762
0.234044
0.234837
0.235101
0.234817
0.233994
0.232665
0.230881
0.228715
0.226248
0.223567
0.220762
0.21791
0.215093
0.212391
0.209855
0.20753
0.205451
0.203638
0.202096
0.200813
0.199754
0.198853
0.198005
0.197047
0.195741
0.193764
0.190619
0.18579
0.17887
0.172431
0.169983
0.173361
0.17847
0.182959
0.186239
0.188745
0.190742
0.192434
0.193988
0.195532
0.197165
0.198959
0.200964
0.203208
0.205704
0.208446
0.211417
0.214583
0.217892
0.221288
0.224674
0.227949
0.231005
0.233726
0.236001
0.237724
0.238807
0.23919
0.238848
0.23779
0.236067
0.233751
0.230946
0.227764
0.224322
0.220732
0.217088
0.213502
0.21005
0.206783
0.203744
0.200958
0.198433
0.196161
0.194112
0.192238
0.190464
0.188683
0.186756
0.184501
0.181703
0.178059
0.173216
0.167401
0.162996
0.160689
0.163186
0.167412
0.17175
0.175324
0.178305
0.180881
0.18321
0.185428
0.187644
0.189947
0.19241
0.195083
0.198006
0.201204
0.204685
0.208445
0.212457
0.216678
0.221023
0.225395
0.229663
0.233687
0.237313
0.240377
0.242726
0.244225
0.244785
0.244362
0.242972
0.24069
0.23763
0.233948
0.229801
0.225354
0.220751
0.216119
0.2116
0.207265
0.203171
0.199355
0.195833
0.192602
0.189641
0.186911
0.184355
0.181895
0.179441
0.176877
0.174068
0.170865
0.16708
0.162477
0.157492
0.154202
0.15199
0.153877
0.157351
0.161421
0.165087
0.168312
0.171233
0.173982
0.176669
0.179388
0.182222
0.185244
0.188516
0.192084
0.195986
0.200243
0.204856
0.209837
0.215118
0.220619
0.22624
0.23181
0.237141
0.242016
0.246198
0.249452
0.251562
0.252385
0.251848
0.249978
0.246891
0.242772
0.237867
0.232409
0.226631
0.22072
0.214873
0.209239
0.203889
0.198883
0.194247
0.189985
0.18608
0.182496
0.179183
0.176079
0.173109
0.170187
0.16722
0.164094
0.160705
0.156927
0.152695
0.14862
0.146129
0.143533
0.145016
0.147917
0.151662
0.155256
0.158539
0.161619
0.164607
0.167594
0.170664
0.173897
0.177364
0.181133
0.185269
0.189829
0.194853
0.200401
0.206446
0.212952
0.219849
0.227026
0.234309
0.241417
0.248048
0.25385
0.258448
0.261484
0.262713
0.262008
0.259415
0.255133
0.249469
0.242824
0.235561
0.228003
0.220422
0.213098
0.206149
0.199661
0.193679
0.188211
0.183237
0.178719
0.174601
0.17082
0.167306
0.163975
0.16075
0.157546
0.154281
0.15086
0.147195
0.143278
0.1398
0.137858
0.135092
0.136286
0.13874
0.142129
0.145546
0.148759
0.151853
0.154924
0.158055
0.161324
0.164807
0.168583
0.172733
0.177338
0.18248
0.188235
0.19468
0.201844
0.209722
0.218269
0.227382
0.236889
0.24644
0.255581
0.263789
0.270455
0.274952
0.276837
0.27587
0.272141
0.266004
0.258021
0.248845
0.239059
0.229113
0.219449
0.210333
0.201883
0.194167
0.187193
0.18093
0.17532
0.170288
0.165751
0.161633
0.157851
0.15433
0.150983
0.147722
0.144463
0.14112
0.137628
0.134067
0.131129
0.129558
0.126522
0.127485
0.12955
0.132566
0.135733
0.138782
0.141771
0.144791
0.147917
0.151226
0.154794
0.158711
0.163071
0.16798
0.173539
0.179905
0.187157
0.195394
0.204709
0.215114
0.226556
0.238888
0.251793
0.264594
0.276483
0.28646
0.293397
0.296393
0.295
0.289368
0.280214
0.268618
0.25569
0.24232
0.229246
0.21702
0.205824
0.195755
0.18681
0.178918
0.171973
0.165868
0.160479
0.155717
0.151468
0.147618
0.14407
0.140739
0.137543
0.134405
0.131243
0.127999
0.12481
0.122325
0.12106
0.117746
0.118525
0.120232
0.122841
0.125686
0.128484
0.131264
0.134102
0.137072
0.140249
0.143714
0.147563
0.151906
0.156875
0.16261
0.169298
0.177102
0.186215
0.196825
0.209137
0.223218
0.239024
0.256359
0.274515
0.292194
0.307738
0.318984
0.32402
0.321868
0.312846
0.298516
0.28106
0.262449
0.244089
0.227077
0.211821
0.19841
0.186784
0.176772
0.168172
0.160813
0.154517
0.149083
0.144346
0.140168
0.136431
0.133031
0.129876
0.126887
0.123988
0.121101
0.118178
0.115384
0.113314
0.112312
0.108718
0.109327
0.110697
0.112879
0.115345
0.117807
0.120268
0.122791
0.125448
0.128309
0.131458
0.134991
0.139032
0.143711
0.149253
0.155832
0.163697
0.173169
0.184611
0.198413
0.215039
0.234732
0.25758
0.2833
0.310246
0.335551
0.355008
0.364114
0.360475
0.344893
0.321098
0.293863
0.266645
0.241756
0.220124
0.201754
0.186378
0.173593
0.163025
0.154309
0.14706
0.140975
0.135825
0.131412
0.127568
0.124181
0.121131
0.118315
0.115676
0.113133
0.11062
0.1081
0.105745
0.10404
0.103209
0.099452
0.0999248
0.100972
0.102691
0.104696
0.106733
0.108771
0.110856
0.113046
0.115404
0.118008
0.120944
0.124327
0.128318
0.133131
0.138968
0.146136
0.155037
0.166218
0.180395
0.198397
0.221298
0.250107
0.285362
0.32665
0.369705
0.406138
0.424264
0.417362
0.387647
0.345467
0.301867
0.262688
0.230296
0.204261
0.183643
0.167454
0.154772
0.144736
0.136691
0.130208
0.124888
0.120499
0.116803
0.113628
0.110852
0.108366
0.106081
0.103932
0.101859
0.0998083
0.0977671
0.0959004
0.0946021
0.0939761
0.0899783
0.0903289
0.0910542
0.0922831
0.0937759
0.0953098
0.0968275
0.0983515
0.0999231
0.101591
0.103415
0.105465
0.107838
0.110689
0.114156
0.118457
0.12389
0.130869
0.139997
0.152161
0.168683
0.191441
0.223252
0.267305
0.327088
0.401865
0.475935
0.516219
0.501463
0.438243
0.359173
0.290387
0.238417
0.200554
0.173372
0.153863
0.139618
0.129031
0.121027
0.1149
0.110112
0.106307
0.103215
0.100619
0.0984363
0.096531
0.0948147
0.093209
0.0916733
0.0901777
0.0886775
0.0871819
0.0858431
0.0849386
0.0844923
0.0803356
0.0805678
0.0809641
0.0816883
0.0826357
0.0836175
0.0845456
0.085414
0.0862451
0.0870675
0.0879151
0.0888291
0.0898592
0.0910996
0.0926132
0.0945564
0.0970994
0.100492
0.105212
0.111911
0.121668
0.136621
0.160427
0.199819
0.267123
0.384916
0.543077
0.643767
0.608104
0.459363
0.312259
0.223078
0.171228
0.140477
0.121605
0.109553
0.101528
0.0959266
0.0920331
0.0892063
0.0870386
0.0854315
0.084167
0.0831141
0.0822239
0.0814161
0.0806476
0.0798822
0.0790913
0.0782513
0.0773549
0.076435
0.0756297
0.0751263
0.0748597
0.0702756
0.0703414
0.0704819
0.0708556
0.0713615
0.0718102
0.0721111
0.0722564
0.0722574
0.0721231
0.0718572
0.0714566
0.0709089
0.0702251
0.0693792
0.0683453
0.0670797
0.0655126
0.0635574
0.0610452
0.0577325
0.0535079
0.0476158
0.0395724
0.0280946
0.119172
0.386448
0.240487
0.0824148
0.0278819
0.0359044
0.0429097
0.0480692
0.0518766
0.0549469
0.0572874
0.0592155
0.0607914
0.0620996
0.063202
0.064115
0.0648625
0.0654548
0.0658968
0.0661927
0.0663443
0.0663501
0.066211
0.0659417
0.0655961
0.0653096
0.0652105
0.0651812
0.0586728
0.0588556
0.0594119
0.0600059
0.0602975
0.0602062
0.0598191
0.0591756
0.0582933
0.05716
0.0557271
0.0539453
0.0517464
0.0490429
0.0457047
0.0415384
0.0362576
0.0294138
0.0202799
0.00760692
-0.0108758
-0.0394539
-0.0875816
-0.177744
-0.305164
-0.433797
-0.267369
-0.135845
-0.0694814
-0.0322632
-0.00910921
0.00639118
0.0173557
0.0254837
0.0317221
0.0366406
0.04059
0.0437947
0.0464026
0.0485584
0.0503147
0.0517267
0.0528578
0.0536936
0.0542754
0.0546329
0.0547995
0.0548078
0.0546964
0.0545622
0.0520211
0.05164
0.0513628
0.0507363
0.0498869
0.0489343
0.0478215
0.0464672
0.0447831
0.0427165
0.0401869
0.0371226
0.0334172
0.0288846
0.0233199
0.0164373
0.00781317
-0.0031791
-0.0175032
-0.0366571
-0.0630482
-0.100699
-0.157893
-0.245117
-0.329014
-0.303892
-0.209049
-0.136488
-0.0902023
-0.0585036
-0.0357923
-0.0189512
-0.00607943
0.00400055
0.0120447
0.0185627
0.0239098
0.0283321
0.0319792
0.0350079
0.0375141
0.0395554
0.0412275
0.0425531
0.0435344
0.0441578
0.0443838
0.0442225
0.0440111
0.0409978
0.0410236
0.0406899
0.0401036
0.0392241
0.0379464
0.0362708
0.0342018
0.0317145
0.028742
0.0251929
0.020948
0.0158796
0.00975371
0.00233175
-0.00670418
-0.0178003
-0.0315702
-0.0488639
-0.0708137
-0.0988871
-0.134672
-0.179003
-0.226948
-0.248809
-0.260144
-0.272254
-0.251542
-0.215256
-0.166812
-0.126538
-0.094395
-0.0691766
-0.0492611
-0.0334034
-0.0206221
-0.0102047
-0.00163692
0.00546521
0.011393
0.0163645
0.0205392
0.024044
0.0269783
0.0294327
0.0314751
0.0331702
0.0345656
0.0356905
0.0364719
0.0366263
0.0322859
0.0324171
0.0319367
0.0307851
0.0291876
0.0272836
0.0250528
0.022412
0.0192799
0.015576
0.0112037
0.00604477
-3.64109e-05
-0.0072707
-0.0158717
-0.0261428
-0.0384455
-0.0532125
-0.0710192
-0.0924388
-0.117995
-0.148246
-0.182831
-0.214481
-0.227592
-0.22879
-0.226024
-0.225404
-0.232979
-0.240963
-0.241542
-0.237101
-0.214999
-0.178558
-0.145112
-0.116297
-0.0920239
-0.071657
-0.0547821
-0.0407268
-0.0289437
-0.0190984
-0.0108077
-0.00379142
0.00214701
0.00718197
0.0114573
0.0150889
0.018173
0.020797
0.0230414
0.0249447
0.0264228
0.0272817
0.0274454
0.0238587
0.0239336
0.0234082
0.0221419
0.0202644
0.0179499
0.0152405
0.01209
0.0084203
0.00414307
-0.000842103
-0.00666119
-0.0134508
-0.0214152
-0.0307262
-0.0416126
-0.0543458
-0.0692257
-0.0865692
-0.10667
-0.129814
-0.156326
-0.185376
-0.208222
-0.2169
-0.21967
-0.22206
-0.227643
-0.237086
-0.244627
-0.24526
-0.239322
-0.220208
-0.188653
-0.157895
-0.130988
-0.107786
-0.0878483
-0.0708071
-0.0562831
-0.043883
-0.0333172
-0.0242815
-0.0165218
-0.0099092
-0.00424344
0.000620814
0.00480995
0.00841133
0.0115009
0.0141415
0.0163301
0.017951
0.0188485
0.019004
0.0158212
0.0158682
0.015229
0.0138093
0.0117207
0.00910866
0.00603555
0.00248393
-0.00160952
-0.00632666
-0.0117599
-0.0180179
-0.0252436
-0.0335676
-0.0431979
-0.0542657
-0.0669699
-0.0814946
-0.0980183
-0.11668
-0.137498
-0.160495
-0.184325
-0.201222
-0.207015
-0.210249
-0.216334
-0.22676
-0.238604
-0.246083
-0.24676
-0.240595
-0.222634
-0.194164
-0.165614
-0.140602
-0.118719
-0.0995676
-0.0828896
-0.0683982
-0.055874
-0.0450233
-0.0356476
-0.0275308
-0.0205034
-0.0144173
-0.00914421
-0.00456943
-0.000600673
0.0028383
0.0057924
0.00822904
0.0100153
0.0109971
0.0111665
0.00839006
0.00848973
0.0078309
0.00626069
0.00393321
0.00105811
-0.00227791
-0.00609208
-0.0104478
-0.0154256
-0.0211088
-0.0275822
-0.0349553
-0.0433765
-0.0530258
-0.0639553
-0.0762973
-0.0901746
-0.105679
-0.122805
-0.141544
-0.161728
-0.181388
-0.193832
-0.1981
-0.202093
-0.209924
-0.222013
-0.23381
-0.240164
-0.240477
-0.234065
-0.21794
-0.19302
-0.167384
-0.144525
-0.124341
-0.106486
-0.0907262
-0.0768483
-0.0646543
-0.0539523
-0.0445869
-0.0363927
-0.0292185
-0.0229622
-0.0174972
-0.0127182
-0.00854681
-0.00490033
-0.00173813
0.000895297
0.00282852
0.00386982
0.00401416
0.00161786
0.00174332
0.001105
-0.000501437
-0.00293038
-0.0059462
-0.00942945
-0.0133811
-0.0178601
-0.0229422
-0.0287109
-0.0352498
-0.0426335
-0.0509558
-0.0603743
-0.0709579
-0.0827746
-0.0959123
-0.110393
-0.126252
-0.143423
-0.161609
-0.178744
-0.188831
-0.192194
-0.196062
-0.203404
-0.213947
-0.223067
-0.227063
-0.22657
-0.220632
-0.206536
-0.185738
-0.163807
-0.143758
-0.125613
-0.109364
-0.0948447
-0.0818908
-0.0703645
-0.0601358
-0.0510775
-0.0430707
-0.0360036
-0.0297741
-0.0242901
-0.0194627
-0.0152177
-0.0114838
-0.00823067
-0.00552557
-0.00356887
-0.00256735
-0.00248032
-0.00442461
-0.00426046
-0.00486421
-0.00644731
-0.00888778
-0.0119518
-0.0154895
-0.0194872
-0.023993
-0.029074
-0.0348023
-0.0412559
-0.0485013
-0.056608
-0.0656696
-0.0758142
-0.0870599
-0.0994711
-0.113117
-0.128007
-0.144083
-0.161142
-0.176926
-0.186081
-0.189036
-0.192231
-0.197413
-0.204037
-0.208453
-0.209161
-0.20762
-0.202477
-0.19131
-0.174781
-0.156692
-0.139509
-0.12374
-0.10928
-0.0961764
-0.0843404
-0.0736764
-0.0641034
-0.0555361
-0.0478893
-0.0410808
-0.035031
-0.0296644
-0.024909
-0.0206979
-0.0169747
-0.0137266
-0.0110394
-0.00912482
-0.00817023
-0.00812803
-0.00971131
-0.00951976
-0.0100802
-0.0115966
-0.0139831
-0.0170097
-0.0205188
-0.0244762
-0.0289171
-0.0338977
-0.0394801
-0.0457315
-0.0527191
-0.0604989
-0.0691391
-0.0787688
-0.0894353
-0.1012
-0.114135
-0.128268
-0.143674
-0.160111
-0.17538
-0.184584
-0.187687
-0.189927
-0.192289
-0.193967
-0.192654
-0.189624
-0.187038
-0.182842
-0.174524
-0.161958
-0.147491
-0.133095
-0.119528
-0.106963
-0.0953244
-0.0846829
-0.0749921
-0.0661973
-0.0582494
-0.051092
-0.0446665
-0.0389128
-0.0337718
-0.0291853
-0.0250982
-0.0214687
-0.0183004
-0.0156985
-0.01388
-0.0130117
-0.0130165
-0.0142293
-0.0139974
-0.014487
-0.0159121
-0.0181973
-0.0211253
-0.0245311
-0.0283654
-0.0326522
-0.0374385
-0.0427791
-0.0487319
-0.0553608
-0.0627261
-0.0708907
-0.0799466
-0.0900087
-0.101122
-0.113359
-0.126831
-0.141653
-0.157641
-0.172758
-0.182601
-0.186371
-0.187811
-0.187699
-0.184773
-0.177773
-0.170944
-0.167325
-0.164032
-0.158072
-0.148572
-0.137037
-0.125214
-0.113749
-0.102848
-0.0926946
-0.0832483
-0.0745741
-0.066634
-0.0593958
-0.0528249
-0.0468806
-0.0415195
-0.036696
-0.0323651
-0.0284836
-0.0250228
-0.0220018
-0.0195403
-0.0178483
-0.0170716
-0.017131
-0.0180069
-0.0177359
-0.0181432
-0.0194408
-0.0215728
-0.0243367
-0.0275659
-0.0311996
-0.0352505
-0.0397582
-0.0447713
-0.0503427
-0.05653
-0.0633984
-0.0710172
-0.0794571
-0.0887993
-0.099152
-0.110613
-0.123317
-0.137433
-0.152811
-0.167734
-0.178379
-0.183128
-0.184187
-0.182344
-0.176242
-0.164751
-0.154583
-0.150098
-0.147387
-0.143035
-0.135631
-0.126227
-0.116365
-0.106728
-0.0974352
-0.0886186
-0.080375
-0.0727177
-0.0656633
-0.0591847
-0.0532607
-0.0478649
-0.0429666
-0.0385322
-0.0345263
-0.030916
-0.0276851
-0.0248668
-0.022588
-0.0210515
-0.0203853
-0.020501
-0.0210825
-0.0207768
-0.0210907
-0.0222375
-0.0241704
-0.0267129
-0.0297019
-0.0330677
-0.036812
-0.0409692
-0.0455828
-0.0507018
-0.056376
-0.0626631
-0.0696217
-0.0773153
-0.0858214
-0.0952884
-0.105814
-0.11753
-0.130623
-0.144998
-0.159319
-0.170334
-0.17594
-0.177047
-0.174302
-0.166873
-0.152973
-0.140669
-0.135508
-0.133098
-0.129685
-0.123544
-0.115601
-0.107211
-0.0989976
-0.0911037
-0.0835373
-0.0764055
-0.0697397
-0.0635559
-0.0578517
-0.0526038
-0.0477952
-0.0434046
-0.0394073
-0.0357768
-0.0324885
-0.029536
-0.0269643
-0.0249044
-0.0235498
-0.023004
-0.0231711
-0.0234866
-0.0231532
-0.0233698
-0.024338
-0.0260456
-0.0283272
-0.0310268
-0.0340696
-0.0374506
-0.0411956
-0.0453436
-0.0499322
-0.0550055
-0.0606127
-0.0668103
-0.0736654
-0.0812497
-0.0896454
-0.0989839
-0.109406
-0.121062
-0.133915
-0.146953
-0.157553
-0.163552
-0.164923
-0.161934
-0.154751
-0.140749
-0.128092
-0.1227
-0.120431
-0.11754
-0.112136
-0.10519
-0.0979287
-0.0908608
-0.0841137
-0.0776973
-0.0715981
-0.0658779
-0.0605421
-0.0556024
-0.0510389
-0.0468366
-0.0429806
-0.0394525
-0.0362325
-0.0333031
-0.0306658
-0.0283746
-0.0265584
-0.0253989
-0.0249755
-0.0251913
-0.0252676
-0.0249134
-0.0250379
-0.0258251
-0.0272785
-0.0292598
-0.0316266
-0.0343003
-0.0372671
-0.0405466
-0.0441683
-0.0481663
-0.0525772
-0.0574415
-0.0628017
-0.0687053
-0.075211
-0.0823859
-0.0903145
-0.0991347
-0.108967
-0.119779
-0.130831
-0.140163
-0.145867
-0.147412
-0.144634
-0.13845
-0.126291
-0.11521
-0.110252
-0.108257
-0.105726
-0.100843
-0.0946921
-0.0883939
-0.0823455
-0.076621
-0.071224
-0.0661163
-0.0612996
-0.0567968
-0.0526038
-0.0487222
-0.0451334
-0.0418254
-0.0387859
-0.0359994
-0.0334551
-0.031161
-0.0291751
-0.0276266
-0.0266695
-0.0263678
-0.0266268
-0.0264803
-0.0261086
-0.0261426
-0.0267479
-0.0279379
-0.0295913
-0.0315891
-0.0338557
-0.0363711
-0.0391469
-0.0422058
-0.0455728
-0.0492727
-0.0533319
-0.0577781
-0.0626438
-0.0679643
-0.0737874
-0.0801679
-0.0871734
-0.0948943
-0.103295
-0.111852
-0.119228
-0.123939
-0.125322
-0.123066
-0.118168
-0.108859
-0.100493
-0.0967087
-0.0953439
-0.0932623
-0.0890208
-0.0837474
-0.0784412
-0.0734149
-0.0686936
-0.0642662
-0.0601031
-0.0561674
-0.0524673
-0.0490115
-0.0458005
-0.0428228
-0.0400671
-0.0375243
-0.0351844
-0.0330414
-0.0311087
-0.0294469
-0.0281749
-0.0274283
-0.0272455
-0.0275411
-0.0271749
-0.0267983
-0.02675
-0.0271696
-0.0280761
-0.0293897
-0.031001
-0.0328399
-0.0348831
-0.0371342
-0.0396065
-0.0423142
-0.0452706
-0.048489
-0.0519825
-0.0557645
-0.0598503
-0.0642569
-0.0690057
-0.0741207
-0.079619
-0.0854518
-0.091293
-0.0963219
-0.0995733
-0.100456
-0.0986756
-0.0950545
-0.0888553
-0.0836084
-0.0814078
-0.0809364
-0.0795641
-0.0762883
-0.0721474
-0.0679857
-0.0640597
-0.0603804
-0.056926
-0.0536788
-0.0506114
-0.0477054
-0.0449731
-0.042419
-0.0400405
-0.0378317
-0.0357852
-0.0338951
-0.0321609
-0.0306007
-0.0292733
-0.028286
-0.0277455
-0.0276745
-0.0280002
-0.0274234
-0.027038
-0.0269133
-0.0271572
-0.0277897
-0.028755
-0.0299668
-0.031366
-0.0329262
-0.0346427
-0.036519
-0.0385592
-0.0407658
-0.0431394
-0.0456781
-0.0483776
-0.0512314
-0.0542305
-0.0573608
-0.0606071
-0.0639415
-0.0672987
-0.0704584
-0.073066
-0.074632
-0.0747715
-0.0732937
-0.070788
-0.0674055
-0.0649782
-0.0644211
-0.0650342
-0.0646752
-0.0626855
-0.0599326
-0.0570872
-0.0543618
-0.0517771
-0.0493197
-0.046982
-0.0447585
-0.0426322
-0.0406077
-0.0387
-0.0369118
-0.0352365
-0.0336791
-0.032236
-0.0309109
-0.0297254
-0.0287343
-0.0280267
-0.0276872
-0.0277218
-0.0280698
-0.0272837
-0.0268993
-0.0267117
-0.0267878
-0.0271511
-0.0277689
-0.028582
-0.0295401
-0.0306174
-0.031803
-0.0330912
-0.034477
-0.0359523
-0.0375058
-0.0391224
-0.0407822
-0.0424602
-0.044125
-0.0457369
-0.0472475
-0.048596
-0.0497094
-0.0505225
-0.0508582
-0.0506718
-0.0499629
-0.0486744
-0.0470958
-0.0459457
-0.0456508
-0.0465685
-0.0482882
-0.0491123
-0.0486114
-0.047401
-0.0459737
-0.0445081
-0.0430434
-0.0415895
-0.0401546
-0.0387496
-0.0373785
-0.0360399
-0.034756
-0.0335415
-0.0323885
-0.0313059
-0.0303008
-0.0293801
-0.0285661
-0.0279073
-0.0274728
-0.0273186
-0.0274445
-0.0278072
-0.0268127
-0.0264358
-0.0261896
-0.0261137
-0.0262279
-0.0265109
-0.0269337
-0.0274618
-0.0280698
-0.0287424
-0.0294664
-0.0302283
-0.0310111
-0.0317942
-0.0325514
-0.0332511
-0.033854
-0.0343131
-0.0345703
-0.0345566
-0.034191
-0.0333944
-0.0321186
-0.03053
-0.0288854
-0.0273758
-0.0261534
-0.0253887
-0.0257131
-0.0268821
-0.0289805
-0.0316689
-0.0336935
-0.0346902
-0.0350161
-0.0349907
-0.0347639
-0.0343909
-0.033909
-0.0333469
-0.0327262
-0.0320704
-0.0313902
-0.0306957
-0.0300256
-0.0293793
-0.0287567
-0.0281749
-0.0276474
-0.0271954
-0.0268578
-0.0266827
-0.0267013
-0.026904
-0.0272775
-0.0260654
-0.025698
-0.0254087
-0.0251981
-0.0250803
-0.0250541
-0.0251086
-0.025227
-0.0253898
-0.0255786
-0.0257749
-0.0259586
-0.0261058
-0.0261888
-0.0261738
-0.0260209
-0.0256826
-0.0251018
-0.0242104
-0.0229274
-0.0211604
-0.018838
-0.0160053
-0.0129012
-0.0100057
-0.00782089
-0.00651445
-0.00637624
-0.00760489
-0.00972295
-0.0126583
-0.0161303
-0.0192304
-0.0215702
-0.0232732
-0.0245183
-0.0254234
-0.0260571
-0.0264735
-0.026718
-0.0268265
-0.0268341
-0.0267649
-0.026632
-0.026466
-0.0262956
-0.0261107
-0.0259334
-0.0257819
-0.0256781
-0.025646
-0.0257127
-0.0258866
-0.0261569
-0.0265324
-0.0250978
-0.0247444
-0.0244165
-0.0240974
-0.0237743
-0.0234653
-0.0231804
-0.022919
-0.0226697
-0.0224139
-0.02213
-0.0217938
-0.0213763
-0.0208449
-0.020162
-0.019283
-0.0181555
-0.0167187
-0.0148999
-0.012617
-0.00978578
-0.00635215
-0.00235971
0.00188952
0.00572628
0.00846733
0.0097909
0.00955128
0.00778823
0.00510445
0.0016556
-0.00239148
-0.00634376
-0.00976315
-0.0125892
-0.0148953
-0.0167592
-0.0182624
-0.0194662
-0.0204248
-0.0211858
-0.0217898
-0.0222684
-0.0226486
-0.0229468
-0.0232123
-0.0234402
-0.0236425
-0.023844
-0.0240585
-0.0242991
-0.0245718
-0.024874
-0.0252025
-0.0255804
-0.0239497
-0.0236147
-0.0232654
-0.0228544
-0.0223576
-0.0217991
-0.0212093
-0.0206056
-0.0199854
-0.0193334
-0.0186261
-0.0178366
-0.0169341
-0.0158837
-0.014645
-0.0131725
-0.0114124
-0.00930456
-0.00678014
-0.0037652
-0.000177041
0.0040389
0.00881071
0.0137595
0.018169
0.0212918
0.0227167
0.0222986
0.0203672
0.0173434
0.0135572
0.00914905
0.00461023
0.00041749
-0.00324266
-0.00635688
-0.00898147
-0.011187
-0.0130408
-0.0146011
-0.0159204
-0.017041
-0.0179984
-0.0188289
-0.0195493
-0.0202003
-0.0208075
-0.021361
-0.0218925
-0.0224146
-0.0229198
-0.0233928
-0.0238086
-0.0241729
-0.0245304
-0.0226688
-0.0223519
-0.0219894
-0.0215065
-0.0208705
-0.0200994
-0.0192452
-0.0183423
-0.0173991
-0.0164045
-0.0153363
-0.0141662
-0.0128625
-0.0113898
-0.00970777
-0.00777184
-0.00553148
-0.00293139
9.11459e-05
0.00360934
0.0076938
0.012378
0.0175576
0.0228779
0.0276264
0.030964
0.0324015
0.031893
0.0297948
0.0267751
0.0233074
0.0184074
0.0135356
0.0088533
0.00464203
0.000964102
-0.00221189
-0.00494815
-0.00730765
-0.00934769
-0.01112
-0.0126698
-0.0140321
-0.015245
-0.0163328
-0.0173137
-0.0182467
-0.019131
-0.0199599
-0.0207483
-0.0214783
-0.0221092
-0.0226203
-0.0230133
-0.0233634
-0.0212975
-0.0210012
-0.020631
-0.0200951
-0.0193442
-0.0184011
-0.0173268
-0.0161712
-0.0149561
-0.0136758
-0.0123104
-0.0108322
-0.00920986
-0.00740845
-0.00539027
-0.0031141
-0.000534825
0.00240013
0.00574765
0.00956754
0.0139128
0.0188033
0.0241463
0.0295838
0.0344106
0.037786
0.0392174
0.0387226
0.0367206
0.0337408
0.029821
0.0252225
0.0204842
0.0155568
0.0110565
0.00703929
0.00350436
0.000402044
-0.00232199
-0.00472242
-0.00684481
-0.00873302
-0.0104237
-0.0119515
-0.0133453
-0.0146275
-0.0158263
-0.0169903
-0.0180804
-0.0191028
-0.0200246
-0.0207963
-0.0213767
-0.0217902
-0.0221262
-0.0198626
-0.0195882
-0.0192177
-0.0186459
-0.0178111
-0.0167342
-0.0154829
-0.0141233
-0.0126879
-0.0111787
-0.00957868
-0.00786189
-0.00599841
-0.00395609
-0.0017007
0.00080567
0.00360506
0.00674147
0.0102608
0.0142109
0.0186372
0.0235492
0.0288428
0.0341775
0.0388944
0.0421897
0.0435829
0.0431348
0.0412939
0.0385401
0.0349003
0.0303234
0.0252931
0.0205504
0.016068
0.0119076
0.00818046
0.0048603
0.00189966
-0.000748058
-0.00312328
-0.00526421
-0.00720717
-0.00898254
-0.0106202
-0.0121482
-0.0135804
-0.0149644
-0.016284
-0.0175025
-0.0185836
-0.0194608
-0.0200933
-0.0205172
-0.0208323
-0.0183932
-0.0181432
-0.0177799
-0.0171886
-0.0162974
-0.015123
-0.013737
-0.01222
-0.0106148
-0.00893085
-0.00715517
-0.00526453
-0.00323152
-0.00102729
0.00138045
0.00402511
0.00694118
0.0101635
0.013732
0.0176862
0.0220571
0.0268407
0.0319319
0.037015
0.0414904
0.0446188
0.0459495
0.0455717
0.0439228
0.0414016
0.0380013
0.0337141
0.0289089
0.0240682
0.0195862
0.0156042
0.0118696
0.00846395
0.0053786
0.00258317
4.36816e-05
-0.00227134
-0.00439491
-0.00635556
-0.0081812
-0.00989702
-0.0115224
-0.0130723
-0.0145711
-0.0159586
-0.0171652
-0.0181209
-0.0187889
-0.0192128
-0.0195071
-0.0169171
-0.0166895
-0.0163378
-0.0157429
-0.0148198
-0.0135801
-0.0121024
-0.0104722
-0.00874464
-0.00693624
-0.00503877
-0.00303287
-0.000893378
0.00140686
0.00389483
0.00659762
0.00954415
0.0127653
0.0162913
0.0201503
0.024362
0.0289135
0.0337007
0.0384371
0.0425892
0.0454964
0.0467524
0.0464568
0.0450201
0.0427605
0.0396397
0.0356625
0.0311738
0.0265994
0.0222127
0.0181579
0.0145055
0.0112392
0.00815669
0.005303
0.00267683
0.000256631
-0.00198363
-0.00407086
-0.00603073
-0.00788487
-0.00965544
-0.0113491
-0.0129651
-0.0144818
-0.0157808
-0.016792
-0.0174765
-0.0178961
-0.0181689
-0.015459
-0.0152529
-0.014917
-0.0143271
-0.0133917
-0.0121196
-0.0105851
-0.00888284
-0.00707629
-0.00518919
-0.00321881
-0.00114752
0.00104614
0.00338482
0.00589115
0.00858924
0.0115027
0.0146543
0.0180664
0.0217589
0.0257415
0.0299945
0.0344173
0.0387544
0.0425412
0.0452024
0.0463812
0.046175
0.044953
0.0429626
0.0401461
0.0365139
0.0323742
0.0281123
0.0239836
0.0200987
0.0164894
0.013166
0.0101496
0.0074254
0.00480639
0.00234798
4.68417e-05
-0.00211513
-0.00416031
-0.00610787
-0.00797724
-0.00977615
-0.0114832
-0.0130711
-0.0144398
-0.0154804
-0.0161727
-0.0165775
-0.0168295
-0.0140255
-0.0138423
-0.0135254
-0.0129517
-0.0120249
-0.0107438
-0.00918648
-0.00744973
-0.00560366
-0.0036783
-0.00167489
0.000418885
0.0026209
0.00495088
0.0074289
0.0100736
0.0129031
0.0159345
0.0191831
0.0226614
0.0263719
0.0302893
0.0343201
0.0382399
0.0416501
0.04406
0.0451664
0.0450529
0.0440371
0.0423076
0.0397974
0.0365233
0.0327562
0.0288362
0.0249944
0.02134
0.0179083
0.0146982
0.0116983
0.00892193
0.00640313
0.0040234
0.00172017
-0.000467982
-0.00255458
-0.00455543
-0.00648475
-0.00834767
-0.0101202
-0.0117397
-0.0131413
-0.0141962
-0.0148793
-0.0152713
-0.0154978
-0.0126404
-0.0124766
-0.0121795
-0.0116291
-0.0107233
-0.00945632
-0.00790541
-0.00616622
-0.00431345
-0.00238364
-0.000383452
0.00169612
0.0038705
0.00615613
0.00856847
0.0111223
0.0138312
0.0167072
0.0197602
0.0229963
0.0264125
0.029981
0.0336159
0.0371229
0.0401658
0.0423352
0.0433732
0.0433495
0.0425262
0.0410413
0.0388269
0.0359029
0.0325076
0.0289383
0.0254023
0.0220011
0.0187729
0.0157254
0.0128522
0.0101439
0.00759425
0.00520807
0.00300506
0.000891022
-0.00119551
-0.00321574
-0.00516842
-0.00705858
-0.00885965
-0.0105003
-0.01189
-0.0129427
-0.0136123
-0.0139796
-0.0141854
-0.0113091
-0.0111652
-0.0108888
-0.0103646
-0.00949254
-0.00826247
-0.0067385
-0.0050233
-0.00319261
-0.00128755
0.000680749
0.00271831
0.00483654
0.00704879
0.00936749
0.0118037
0.0143671
0.0170655
0.0199046
0.022886
0.0260024
0.0292254
0.0324771
0.0355923
0.038291
0.0402347
0.0412103
0.0412703
0.0406227
0.0393613
0.0374236
0.0348293
0.0317888
0.0285626
0.0253351
0.0221995
0.0191938
0.0163293
0.0136095
0.0110311
0.00857852
0.00623788
0.00399958
0.00186056
-0.000184025
-0.00212785
-0.00402899
-0.00590199
-0.00770024
-0.00933631
-0.0107184
-0.0117333
-0.0123689
-0.012717
-0.0129012
-0.0100391
-0.00991253
-0.00965975
-0.0091694
-0.00834027
-0.0071575
-0.00568278
-0.00401223
-0.00222628
-0.00036892
0.00154494
0.00351741
0.0055573
0.00767492
0.00987992
0.0121806
0.0145833
0.0170927
0.0197109
0.0224363
0.025259
0.0281512
0.0310439
0.0337971
0.0361816
0.0379185
0.0388367
0.0389717
0.03848
0.0374203
0.0357341
0.0334438
0.0307333
0.0278311
0.0249014
0.0220304
0.0192548
0.0165901
0.0140389
0.0115953
0.00925718
0.00701787
0.00486722
0.00279175
0.000773819
-0.0011935
-0.00309745
-0.00494438
-0.00676332
-0.00823739
-0.009576
-0.0105559
-0.0111623
-0.0114865
-0.01165
-0.00884104
-0.00873268
-0.00850362
-0.00804679
-0.00726633
-0.00613972
-0.00472707
-0.00311915
-0.0013963
0.000394458
0.00223502
0.00412476
0.00606965
0.00807764
0.010156
0.0123105
0.014545
0.0168617
0.0192602
0.0217366
0.0242801
0.0268635
0.0294266
0.0318523
0.033952
0.0355022
0.0363658
0.0365642
0.0362088
0.0353291
0.033869
0.0318552
0.029446
0.0268437
0.0241953
0.0215793
0.0190341
0.0165722
0.014194
0.0119001
0.0096888
0.00755627
0.00549656
0.00350141
0.00156101
-0.000335095
-0.00219112
-0.00398839
-0.00567088
-0.007218
-0.00870359
-0.0094316
-0.00996099
-0.0102929
-0.0104422
-0.00771987
-0.00762524
-0.00741345
-0.00699295
-0.00626355
-0.00520407
-0.00386437
-0.0023327
-0.000688
0.00102133
0.00277472
0.00456875
0.00640723
0.00829606
0.0102403
0.0122438
0.0143086
0.016435
0.0186208
0.0208611
0.0231438
0.0254441
0.0277091
0.0298415
0.0316869
0.0330691
0.0338796
0.0341286
0.0338891
0.0331669
0.0319095
0.0301426
0.0280075
0.0256807
0.0232936
0.0209214
0.0185968
0.0163304
0.0141279
0.0119901
0.0099162
0.00790345
0.00594803
0.00404394
0.00218441
0.000362917
-0.00142142
-0.00315476
-0.00479199
-0.00624015
-0.00738353
-0.00821493
-0.00880539
-0.00922222
-0.00928263
-0.00667247
-0.00659366
-0.00640142
-0.0060135
-0.00533858
-0.00435032