/*--------------------------------*- C++ -*----------------------------------*\
  =========                 |
  \\      /  F ield         | OpenFOAM: The Open Source CFD Toolbox
   \\    /   O peration     | Website:  https://openfoam.org
    \\  /    A nd           | Version:  7
     \\/     M anipulation  |
\*---------------------------------------------------------------------------*/
FoamFile
{
    version     2.0;
    format      ascii;
    class       surfaceScalarField;
    location    "35";
    object      phi;
}
// * * * * * * * * * * * * * * * * * * * * * * * * * * * * * * * * * * * * * //

dimensions      [0 3 -1 0 0 0 0];

internalField   nonuniform List<scalar> 
34768
(
8.19219e-05
0.000969999
-0.000149624
-4.454e-05
2.58991e-05
0.000920941
-1.58367e-05
1.08665e-05
0.00090747
-8.26675e-06
6.71715e-06
0.000904249
-5.34308e-06
4.60839e-06
0.000903534
-4.28516e-06
3.90329e-06
0.000903181
-3.6183e-06
3.50485e-06
0.000903113
-3.44311e-06
3.4229e-06
0.00090312
-3.13305e-06
3.06976e-06
0.000903263
-3.22563e-06
2.99992e-06
0.000903326
-3.08684e-06
2.98743e-06
0.0009033
-2.99662e-06
3.21663e-06
0.00090328
-3.04269e-06
2.97774e-06
0.000903566
-3.21714e-06
3.1644e-06
0.000903554
-3.21486e-06
3.37248e-06
0.000903543
-3.33244e-06
3.29912e-06
0.000903834
-3.5676e-06
3.54251e-06
0.000903726
-3.51873e-06
3.70122e-06
0.000903819
-3.68472e-06
3.67434e-06
0.000903912
-3.86463e-06
3.76094e-06
0.000904106
-4.15766e-06
4.76024e-06
0.000904099
-5.56288e-06
6.37123e-06
0.000905194
-5.22942e-06
4.38306e-06
0.000904869
-3.62611e-06
4.09431e-06
0.000904604
-5.36122e-06
-3.46517e-07
0.000909281
-7.24354e-07
1.29908e-06
0.000908628
-1.20189e-06
8.58339e-07
0.000909437
-5.64431e-07
1.42152e-08
0.000909645
5.44012e-07
-8.29183e-07
0.000909378
1.18561e-06
-1.30022e-06
0.000909208
1.32852e-06
-1.37563e-06
0.000909151
1.37682e-06
-1.35742e-06
0.000909074
1.34237e-06
-1.32729e-06
0.000909078
1.26684e-06
-1.25685e-06
0.000909094
1.25164e-06
-1.24736e-06
0.000909099
1.24801e-06
-1.25e-06
0.000909105
1.25699e-06
-1.26572e-06
0.000909112
1.27952e-06
-1.39544e-06
0.000909219
1.71646e-06
-1.14028e-06
0.000909927
6.6955e-07
-5.01795e-07
0.000910335
4.39292e-07
-3.8021e-07
0.000910344
4.26682e-07
-4.77324e-07
0.000910253
5.34092e-07
-5.96098e-07
0.000910265
6.65205e-07
-6.41069e-07
0.000910078
7.25599e-07
-8.19141e-07
0.000910096
9.23827e-07
-1.04089e-06
0.000910019
1.17308e-06
-1.32292e-06
0.000909952
1.49434e-06
-1.69194e-06
0.00091
1.92186e-06
-2.29225e-06
0.000910072
2.51356e-06
-2.9001e-06
0.000910088
3.36984e-06
-4.04674e-06
0.000910279
4.65761e-06
-5.53009e-06
0.000910474
6.55809e-06
-7.67016e-06
0.000910614
8.68533e-06
-6.59242e-06
0.000907408
-4.10578e-06
-2.68561e-05
0.000940463
-0.000827795
0.000143869
0.000703823
-1.99118e-05
-0.000972489
-0.00014871
0.000116805
0.00100438
-0.000925068
-9.00959e-05
7.07071e-05
0.000944451
-0.000911566
-5.66026e-05
4.61486e-05
0.000922014
-0.000907172
-3.81804e-05
3.21532e-05
0.000913194
-0.000905452
-2.74551e-05
2.37219e-05
0.000909179
-0.000904505
-2.02094e-05
1.80418e-05
0.000906667
-0.000903974
-1.57948e-05
1.39749e-05
0.000905788
-0.000903847
-1.23202e-05
1.10765e-05
0.000905086
-0.000903731
-1.00104e-05
8.98779e-06
0.000904748
-0.000903779
-7.99034e-06
7.39645e-06
0.000904368
-0.000903666
-6.59502e-06
5.97157e-06
0.000904286
-0.000903579
-5.52005e-06
4.93006e-06
0.000904165
-0.000903808
-4.39795e-06
4.11706e-06
0.000904086
-0.000903748
-3.7847e-06
3.39651e-06
0.000904134
-0.000903696
-3.35045e-06
3.0441e-06
0.000904
-0.000903848
-2.77502e-06
2.643e-06
0.00090398
-0.000903805
-2.64468e-06
2.48151e-06
0.000903968
-0.000903864
-2.44908e-06
2.35065e-06
0.000903964
-0.000903926
-2.48016e-06
2.54268e-06
0.000903867
-0.00090419
-2.33037e-06
2.45007e-06
0.000904075
-0.000903957
-2.79177e-06
2.16446e-06
0.000904591
-0.000907007
-2.33663e-06
5.26721e-06
0.000904085
-0.000903344
-4.15958e-06
-1.32576e-06
0.00090884
-0.000907861
1.01016e-07
2.66326e-08
0.000907745
-0.000908326
-8.7206e-09
8.15953e-08
0.000908267
-0.000909607
-1.43796e-07
5.12315e-07
0.000909255
-0.0009101
-7.00203e-07
4.1417e-07
0.000910403
-0.00090953
-1.10488e-07
2.93952e-07
0.000909365
-0.000909337
-5.57051e-07
2.25178e-07
0.000909689
-0.000909123
-1.29205e-07
2.13624e-07
0.00090906
-0.000908994
-3.6892e-07
5.40845e-07
0.000908844
-0.00090901
-6.79324e-07
8.11095e-07
0.000908902
-0.00090906
-9.5558e-07
1.04038e-06
0.000908999
-0.000909094
-9.84747e-07
1.1169e-06
0.000908986
-0.000909131
-1.10597e-06
1.08066e-06
0.000909181
-0.000909171
-1.01016e-06
9.23209e-07
0.000909282
-0.000909612
-6.89248e-07
4.36972e-07
0.000909889
-0.000909858
2.63963e-07
-5.86487e-07
0.000910205
-0.000910207
5.60545e-07
-6.58811e-07
0.000910329
-0.000910459
7.11435e-07
-8.92323e-07
0.000910664
-0.000910518
1.23189e-06
-1.60557e-06
0.000910915
-0.000910487
2.04433e-06
-2.52589e-06
0.000910991
-0.00091047
3.08251e-06
-3.79499e-06
0.000911205
-0.000910477
4.49754e-06
-5.37555e-06
0.000911376
-0.000910519
6.26687e-06
-7.46367e-06
0.000911736
-0.000910716
8.60981e-06
-1.0008e-05
0.000912134
-0.000910903
1.15133e-05
-1.34459e-05
0.000912855
-0.000911339
1.54808e-05
-1.79674e-05
0.000913845
-0.000911936
2.08198e-05
-2.44435e-05
0.000915578
-0.000913104
2.8728e-05
-3.39907e-05
0.000918384
-0.000915126
4.05887e-05
-4.88841e-05
0.000923439
-0.000918916
5.99061e-05
-7.4233e-05
0.00093326
-0.000924603
9.39102e-05
-0.000124245
0.000954951
-0.000978499
0.000165393
-0.00014344
0.000956553
-0.000599888
8.48038e-05
0.000519252
-4.17852e-06
-0.00102195
-0.000134128
0.000131462
0.00102461
-0.000962774
-0.000111677
9.3433e-05
0.000981011
-0.000933209
-7.93606e-05
6.80463e-05
0.000944518
-0.000920424
-5.88162e-05
5.10933e-05
0.000928141
-0.00091415
-4.44809e-05
3.90563e-05
0.000919569
-0.000910569
-3.43417e-05
3.02911e-05
0.000914613
-0.000908046
-2.67946e-05
2.31502e-05
0.000911684
-0.000907019
-2.05977e-05
1.83666e-05
0.000909244
-0.000906147
-1.62107e-05
1.42881e-05
0.000908064
-0.000905651
-1.25707e-05
1.10282e-05
0.000907188
-0.000905129
-9.84417e-06
8.49564e-06
0.000906473
-0.00090502
-7.27263e-06
6.46133e-06
0.000905827
-0.000904685
-5.35285e-06
4.53851e-06
0.000905495
-0.0009045
-3.91325e-06
3.27016e-06
0.000905139
-0.000904448
-2.60542e-06
2.21579e-06
0.000904835
-0.000904119
-1.79736e-06
1.4489e-06
0.000904466
-0.000904107
-1.06615e-06
8.50134e-07
0.000904323
-0.000904009
-6.95678e-07
7.05485e-07
0.000904
-0.000904021
-3.72686e-07
4.01964e-07
0.000903994
-0.000903746
-6.84769e-07
1.27533e-07
0.000904308
-0.000904783
1.7895e-07
9.69433e-07
0.00090364
-0.000906052
1.06532e-06
-2.63733e-06
0.000907631
-0.000907909
2.09724e-06
-1.6768e-06
0.000907498
-0.000907766
1.05808e-06
-9.61379e-07
0.00090768
-0.00090802
8.34525e-07
-7.64047e-07
0.000907962
-0.000908574
3.63941e-07
1.49583e-07
0.000908075
-0.000910599
-7.36304e-07
6.73663e-07
0.000910677
-0.000909147
-5.93408e-07
9.03836e-07
0.000908853
-0.000909827
-1.32946e-06
1.62165e-06
0.000909554
-0.000908854
-1.66977e-06
1.8842e-06
0.00090866
-0.000908598
-2.23439e-06
2.58306e-06
0.00090827
-0.000908706
-2.87947e-06
3.14734e-06
0.000908459
-0.000908784
-3.40577e-06
3.47962e-06
0.000908732
-0.00090905
-3.68808e-06
3.75686e-06
0.000909003
-0.00090923
-3.75567e-06
3.71059e-06
0.000909298
-0.000909423
-3.59174e-06
3.32551e-06
0.000909712
-0.000910627
-2.58287e-06
1.29028e-06
0.000911942
-0.000910445
-1.31481e-06
1.28444e-06
0.000910498
-0.000910581
-8.70093e-07
3.9605e-07
0.000911077
-0.000911035
6.7166e-08
-6.97133e-07
0.000911687
-0.000911421
1.32361e-06
-2.12648e-06
0.000912245
-0.000911752
3.03703e-06
-4.03792e-06
0.000912774
-0.000912153
5.16296e-06
-6.39926e-06
0.00091341
-0.000912659
7.88477e-06
-9.41213e-06
0.000914206
-0.000913225
1.11251e-05
-1.31269e-05
0.000915246
-0.000914139
1.52697e-05
-1.77713e-05
0.00091666
-0.00091535
2.05995e-05
-2.36915e-05
0.00091846
-0.000917313
2.73442e-05
-3.14273e-05
0.000921414
-0.000920293
3.62806e-05
-4.19323e-05
0.000925962
-0.000925377
4.85906e-05
-5.64764e-05
0.00093328
-0.000934094
6.58088e-05
-7.71583e-05
0.00094546
-0.000950169
9.09576e-05
-0.000108065
0.000967292
-0.000985688
0.000130143
-0.000154705
0.00101026
-0.000906949
0.000157527
-9.16588e-05
0.000841091
-0.000458702
4.88728e-05
0.000412617
-2.79665e-06
-0.00101398
-0.000100504
0.000120094
0.000994383
-0.000997571
-0.000114205
0.000100679
0.00101109
-0.000955614
-8.78762e-05
7.72721e-05
0.000966209
-0.00093612
-6.81913e-05
6.04214e-05
0.000943881
-0.000925429
-5.36279e-05
4.76439e-05
0.000931404
-0.000919071
-4.23559e-05
3.76566e-05
0.000923763
-0.000915036
-3.3473e-05
2.9729e-05
0.000918772
-0.000912366
-2.64768e-05
2.34573e-05
0.000915378
-0.000910131
-2.06374e-05
1.76733e-05
0.000913088
-0.000908936
-1.56533e-05
1.35362e-05
0.000911046
-0.000907987
-1.15093e-05
9.953e-06
0.000909537
-0.000907068
-8.35403e-06
6.89723e-06
0.000908519
-0.000906404
-5.5762e-06
4.37949e-06
0.000907596
-0.000906045
-3.20257e-06
2.33843e-06
0.000906905
-0.000905355
-1.58368e-06
8.32911e-07
0.000906103
-0.000905015
-8.37096e-08
-5.66264e-07
0.000905663
-0.000904609
9.19299e-07
-1.27661e-06
0.000904965
-0.000904331
1.64178e-06
-1.91342e-06
0.000904603
-0.000903877
1.79651e-06
-2.48834e-06
0.00090457
-0.000904546
2.79275e-06
-1.81127e-06
0.000903567
-0.000905757
3.96409e-06
-5.59509e-06
0.000907393
-0.00090708
5.08203e-06
-4.89787e-06
0.000906902
-0.000906947
4.30957e-06
-3.79427e-06
0.000906439
-0.000907083
3.33922e-06
-2.50388e-06
0.000906257
-0.000908238
1.78086e-06
-1.6822e-06
0.00090815
-0.000907221
9.43736e-07
-1.73959e-07
0.000906464
-0.00091043
-4.63321e-07
8.81014e-07
0.000910026
-0.000908337
-1.10028e-06
1.72122e-06
0.000907731
-0.00090855
-2.54203e-06
3.3984e-06
0.00090771
-0.000908705
-3.43348e-06
3.78719e-06
0.000908369
-0.000907831
-4.33912e-06
4.89812e-06
0.000907291
-0.000908114
-5.3943e-06
5.83685e-06
0.00090769
-0.000908516
-6.11622e-06
6.50261e-06
0.00090815
-0.00090892
-6.69728e-06
6.82213e-06
0.000908816
-0.000909358
-6.84889e-06
6.90033e-06
0.000909327
-0.000909924
-6.6488e-06
6.21808e-06
0.000910375
-0.000913012
-5.28159e-06
4.86118e-06
0.000913452
-0.000910937
-4.32923e-06
3.70995e-06
0.000911576
-0.000911691
-3.07684e-06
2.35156e-06
0.000912436
-0.00091239
-1.5071e-06
4.6302e-07
0.000913454
-0.000913255
6.07784e-07
-1.68743e-06
0.000914354
-0.000914018
3.00656e-06
-4.4501e-06
0.000915481
-0.000915029
6.15102e-06
-7.79727e-06
0.000916693
-0.000916158
9.82768e-06
-1.1936e-05
0.000918285
-0.000917517
1.42646e-05
-1.69186e-05
0.000920189
-0.000919377
1.97463e-05
-2.29648e-05
0.000922613
-0.000922114
2.64343e-05
-3.03879e-05
0.000926085
-0.000926085
3.47018e-05
-3.96318e-05
0.000931032
-0.000932068
4.51787e-05
-5.13221e-05
0.000938228
-0.000941343
5.84044e-05
-6.64431e-05
0.000949397
-0.000956634
7.56213e-05
-8.59372e-05
0.000966965
-0.000983101
9.74085e-05
-0.00011158
0.000997288
-0.00102523
0.000126423
-0.000130652
0.00102947
-0.000772078
0.000102245
-3.93495e-05
0.000709192
-0.000376897
2.96539e-05
0.00034892
-1.68559e-06
-0.000969646
-7.16743e-05
9.91139e-05
0.000942199
-0.00102151
-0.000104542
9.76943e-05
0.00102835
-0.000976102
-8.78412e-05
7.83524e-05
0.000985584
-0.000951333
-7.01522e-05
6.2978e-05
0.0009585
-0.000937434
-5.6517e-05
5.07486e-05
0.000943196
-0.000928555
-4.54994e-05
4.07045e-05
0.000933344
-0.00092269
-3.63235e-05
3.24105e-05
0.000926597
-0.000918505
-2.87311e-05
2.53501e-05
0.00092188
-0.000915566
-2.23469e-05
1.95902e-05
0.000918317
-0.00091338
-1.70632e-05
1.46423e-05
0.000915796
-0.0009116
-1.20128e-05
9.8656e-06
0.000913742
-0.000910162
-8.09152e-06
6.37409e-06
0.000911875
-0.000909159
-4.50673e-06
3.18585e-06
0.000910476
-0.000907811
-1.9048e-06
5.56542e-07
0.000909155
-0.000906971
5.59011e-07
-1.64636e-06
0.000908056
-0.000906304
2.50602e-06
-3.03917e-06
0.000906835
-0.000905586
3.95012e-06
-4.33545e-06
0.000905971
-0.000904508
4.49872e-06
-5.63937e-06
0.000905649
-0.000904962
6.05481e-06
-5.14954e-06
0.000904058
-0.000905776
7.5513e-06
-9.46989e-06
0.000907697
-0.000906795
8.92239e-06
-8.85148e-06
0.000906728
-0.000906369
8.275e-06
-7.61359e-06
0.000905713
-0.000905892
7.04292e-06
-6.20465e-06
0.000905061
-0.000905478
5.32977e-06
-4.48474e-06
0.000904642
-0.000907398
3.59996e-06
-2.81972e-06
0.000906628
-0.000905602
1.71505e-06
-5.91055e-07
0.000904489
-0.000909494
-3.70919e-07
1.06489e-06
0.000908813
-0.000906993
-1.79054e-06
2.61429e-06
0.000906184
-0.00090693
-3.67809e-06
4.62638e-06
0.000905997
-0.000907778
-5.25927e-06
6.02088e-06
0.000907033
-0.000906617
-6.86823e-06
7.68906e-06
0.000905814
-0.00090716
-8.42094e-06
9.06029e-06
0.000906538
-0.000907805
-9.62718e-06
1.00606e-05
0.00090739
-0.000908564
-1.03704e-05
1.05768e-05
0.000908376
-0.00090938
-1.06533e-05
1.06218e-05
0.000909431
-0.00091164
-1.02562e-05
9.1781e-06
0.000912737
-0.000912944
-8.36494e-06
8.33162e-06
0.000912996
-0.000912093
-7.75809e-06
7.06845e-06
0.000912802
-0.000913288
-6.13689e-06
5.18716e-06
0.000914257
-0.00091445
-4.09186e-06
2.77211e-06
0.000915788
-0.000915812
-1.40307e-06
-9.80871e-08
0.000917332
-0.000917124
1.75784e-06
-3.66245e-06
0.000919047
-0.000918761
5.63927e-06
-7.77761e-06
0.000920917
-0.000920628
1.02109e-05
-1.273e-05
0.000923164
-0.000922984
1.54724e-05
-1.84356e-05
0.000925964
-0.000925964
2.16634e-05
-2.53648e-05
0.000929682
-0.000930242
2.91798e-05
-3.33237e-05
0.000934402
-0.000935981
3.78566e-05
-4.29009e-05
0.000941042
-0.000944437
4.84211e-05
-5.4455e-05
0.000950486
-0.000957099
6.05629e-05
-6.69016e-05
0.000963452
-0.000976056
7.47727e-05
-8.34794e-05
0.000984777
-0.00100948
9.33083e-05
-0.000103307
0.00101949
-0.00102481
0.000108538
-9.7543e-05
0.00101383
-0.000655442
6.21057e-05
-1.75676e-05
0.000610914
-0.000326619
1.90685e-05
0.0003086
-1.05557e-06
-0.000914176
-5.1109e-05
7.84791e-05
0.000886801
-0.001032
-9.06154e-05
8.98057e-05
0.00103281
-0.000993874
-8.32135e-05
7.56067e-05
0.00100148
-0.000965402
-6.8569e-05
6.22319e-05
0.000971736
-0.000949281
-5.64474e-05
5.14144e-05
0.00095431
-0.00093807
-4.60217e-05
4.0966e-05
0.000943123
-0.000930642
-3.61173e-05
3.20722e-05
0.000934683
-0.000925252
-2.82915e-05
2.47552e-05
0.000928784
-0.000921304
-2.1552e-05
1.85623e-05
0.00092429
-0.000918262
-1.57761e-05
1.31801e-05
0.000920855
-0.000915942
-1.08689e-05
8.62819e-06
0.000918179
-0.000913946
-6.75803e-06
4.64218e-06
0.000916059
-0.000912039
-2.58277e-06
7.78107e-07
0.000913841
-0.000910631
8.75047e-07
-2.37956e-06
0.000912134
-0.000909151
3.73551e-06
-4.84264e-06
0.000910256
-0.000907956
6.10382e-06
-7.01422e-06
0.000908865
-0.000906315
7.47353e-06
-8.98468e-06
0.000907826
-0.000906213
9.83471e-06
-9.1288e-06
0.000905507
-0.000906678
1.21131e-05
-1.41435e-05
0.00090871
-0.000907123
1.36839e-05
-1.38578e-05
0.000907299
-0.00090608
1.32772e-05
-1.28459e-05
0.000905652
-0.000905224
1.22776e-05
-1.13406e-05
0.000904292
-0.00090412
1.03662e-05
-9.35317e-06
0.000903114
-0.000903556
8.17e-06
-7.03513e-06
0.000902429
-0.000905604
6.11944e-06
-4.60106e-06
0.000904095
-0.000903148
3.049e-06
-1.47203e-06
0.000901582
-0.000907934
5.67813e-09
1.22988e-06
0.00090671
-0.000904987
-2.36706e-06
3.84481e-06
0.000903523
-0.000904863
-5.25717e-06
6.83847e-06
0.000903296
-0.000906145
-8.356e-06
9.02512e-06
0.000905492
-0.000904847
-1.00484e-05
1.11801e-05
0.000903731
-0.000905775
-1.22105e-05
1.31232e-05
0.000904879
-0.000906978
-1.38065e-05
1.4526e-05
0.000906276
-0.000908127
-1.49851e-05
1.54015e-05
0.000907728
-0.000909558
-1.54519e-05
1.51562e-05
0.000909871
-0.000914338
-1.38944e-05
1.26877e-05
0.000915563
-0.000912994
-1.31955e-05
1.30561e-05
0.000913151
-0.000913783
-1.22508e-05
1.14007e-05
0.000914651
-0.000915424
-1.03845e-05
9.12465e-06
0.000916702
-0.000917144
-7.69986e-06
6.23171e-06
0.000918629
-0.000918986
-4.59893e-06
2.82035e-06
0.000920782
-0.000921015
-7.71634e-07
-1.3273e-06
0.000923131
-0.000923224
3.60243e-06
-6.1409e-06
0.000925779
-0.000925949
8.76611e-06
-1.15684e-05
0.000928768
-0.000929177
1.46779e-05
-1.78842e-05
0.0009324
-0.00093329
2.14229e-05
-2.50844e-05
0.000936968
-0.000938592
2.90038e-05
-3.32869e-05
0.000942891
-0.000945925
3.77595e-05
-4.19295e-05
0.000950111
-0.000955284
4.62295e-05
-5.16685e-05
0.000960739
-0.000970227
5.76017e-05
-6.39393e-05
0.00097658
-0.000992822
7.06422e-05
-7.79938e-05
0.00100019
-0.00102724
8.55452e-05
-9.11378e-05
0.00103284
-0.000998808
8.89927e-05
-7.15815e-05
0.000981409
-0.000574504
3.99013e-05
-9.99986e-06
0.000544615
-0.000293697
1.31618e-05
0.000281245
-7.17242e-07
-0.000860607
-3.73239e-05
6.17332e-05
0.000836192
-0.00103121
-7.65381e-05
7.9959e-05
0.00102778
-0.00100837
-7.65012e-05
7.05415e-05
0.00101433
-0.00097764
-6.43858e-05
5.85486e-05
0.000983473
-0.000959448
-5.33639e-05
4.84112e-05
0.000964396
-0.00094755
-4.37391e-05
3.9415e-05
0.00095187
-0.000939228
-3.53157e-05
3.14237e-05
0.000943115
-0.000933184
-2.7732e-05
2.44356e-05
0.000936477
-0.000927459
-2.02912e-05
1.63255e-05
0.000931421
-0.000923555
-1.21235e-05
9.32377e-06
0.000926351
-0.000920337
-6.68671e-06
4.20723e-06
0.000922814
-0.000917796
-1.98586e-06
-8.24095e-08
0.000919861
-0.000915776
1.7938e-06
-3.25102e-06
0.000917231
-0.000913659
4.45346e-06
-6.10833e-06
0.000915313
-0.000911875
8.11032e-06
-9.64544e-06
0.00091341
-0.000909562
1.07111e-05
-1.27137e-05
0.000911564
-0.000908891
1.403e-05
-1.3656e-05
0.000908517
-0.000908784
1.71745e-05
-1.86692e-05
0.00091028
-0.000908897
1.89559e-05
-1.9825e-05
0.000909768
-0.000906817
1.96908e-05
-1.94616e-05
0.000906591
-0.000905035
1.90428e-05
-1.83158e-05
0.000904312
-0.000903249
1.72007e-05
-1.62452e-05
0.000902299
-0.00090186
1.49499e-05
-1.34892e-05
0.000900405
-0.000901558
1.18836e-05
-1.03818e-05
0.000900064
-0.000901665
9.20467e-06
-6.92647e-06
0.000899396
-0.000899646
4.69616e-06
-2.51838e-06
0.000897478
-0.000905208
4.47293e-07
1.38073e-06
0.000903392
-0.000901821
-3.21131e-06
5.29202e-06
0.000899753
-0.000900839
-7.38459e-06
9.55735e-06
0.00089868
-0.000905659
-1.18571e-05
1.27651e-05
0.000904765
-0.000902536
-1.41313e-05
1.56676e-05
0.000901015
-0.00090382
-1.70786e-05
1.83211e-05
0.000902593
-0.000905553
-1.93768e-05
2.02292e-05
0.000904717
-0.000907454
-2.08741e-05
2.13257e-05
0.000907018
-0.000910851
-2.15642e-05
2.11157e-05
0.000911316
-0.000915207
-1.99633e-05
2.01067e-05
0.00091508
-0.000913651
-1.97415e-05
1.90943e-05
0.000914314
-0.000915593
-1.81485e-05
1.70304e-05
0.000916727
-0.000917976
-1.58227e-05
1.43498e-05
0.000919465
-0.000920328
-1.27962e-05
1.0984e-05
0.000922156
-0.000922802
-9.09792e-06
6.95767e-06
0.000924958
-0.000925372
-4.74883e-06
2.28581e-06
0.000927851
-0.000928352
2.45409e-07
-2.92874e-06
0.000931052
-0.00093169
5.78494e-06
-8.90152e-06
0.000934822
-0.000935698
1.20949e-05
-1.55575e-05
0.000939176
-0.000940675
1.91053e-05
-2.29339e-05
0.000944519
-0.000946749
2.57342e-05
-2.92374e-05
0.000950268
-0.000954568
3.37716e-05
-3.83039e-05
0.000959116
-0.000966165
4.31718e-05
-4.8056e-05
0.000971064
-0.000982436
5.35203e-05
-5.90519e-05
0.000987982
-0.00100693
6.50263e-05
-7.10808e-05
0.001013
-0.00103638
7.65499e-05
-7.84737e-05
0.00103832
-0.000963127
7.20387e-05
-5.35896e-05
0.000944691
-0.00051979
2.76333e-05
-6.74699e-06
0.000498917
-0.000270682
9.61705e-06
0.000261575
-5.17015e-07
-0.000813626
-2.8002e-05
4.88234e-05
0.000792798
-0.00102286
-6.38284e-05
6.97446e-05
0.00101694
-0.00101958
-6.86201e-05
6.42516e-05
0.00102395
-0.00098894
-5.89311e-05
5.3584e-05
0.000994282
-0.000969183
-4.86581e-05
4.40045e-05
0.000973831
-0.000956201
-3.95715e-05
3.53179e-05
0.00096045
-0.000946867
-3.13352e-05
2.73972e-05
0.0009508
-0.000939893
-2.38173e-05
2.01682e-05
0.000943538
-0.000934521
-1.69729e-05
1.37057e-05
0.000937785
-0.000930381
-1.07836e-05
7.99616e-06
0.000933166
-0.000926844
-5.34504e-06
2.7276e-06
0.000929459
-0.000922052
8.76391e-07
-4.53961e-06
0.000925714
-0.000919018
8.0535e-06
-1.15161e-05
0.00092248
-0.000916383
1.44128e-05
-1.62304e-05
0.0009182
-0.000914257
1.75781e-05
-1.81455e-05
0.000914824
-0.000914072
1.74204e-05
-1.50177e-05
0.00091167
-0.000912412
2.27317e-05
-2.48495e-05
0.000914531
-0.000910804
2.56611e-05
-2.65233e-05
0.000911669
-0.000909627
2.62421e-05
-2.60249e-05
0.000909413
-0.000906517
2.67479e-05
-2.68081e-05
0.000906581
-0.000903476
2.622e-05
-2.5376e-05
0.000902636
-0.000901012
2.41732e-05
-2.26712e-05
0.000899515
-0.000898707
2.09536e-05
-1.90151e-05
0.000896774
-0.000898159
1.68883e-05
-1.46027e-05
0.00089588
-0.000897143
1.23762e-05
-9.7457e-06
0.00089452
-0.00089497
6.91648e-06
-3.99066e-06
0.000892054
-0.000901202
1.12017e-06
1.52134e-06
0.000898571
-0.000897304
-4.14715e-06
7.04365e-06
0.00089442
-0.000896271
-9.96272e-06
1.27724e-05
0.000893474
-0.000903087
-1.52913e-05
1.72276e-05
0.000901164
-0.000899202
-1.94198e-05
2.1528e-05
0.000897108
-0.000901164
-2.34078e-05
2.50706e-05
0.000899515
-0.000903739
-2.64606e-05
2.76905e-05
0.000902524
-0.000906499
-2.84461e-05
2.88484e-05
0.000906111
-0.000912442
-2.78945e-05
2.59066e-05
0.000914445
-0.000914581
-2.71162e-05
2.78777e-05
0.000913834
-0.000915038
-2.75018e-05
2.66099e-05
0.000915944
-0.00091795
-2.54873e-05
2.4162e-05
0.00091929
-0.000920963
-2.27298e-05
2.1111e-05
0.000922595
-0.000923904
-1.93011e-05
1.71187e-05
0.0009261
-0.000927037
-1.50621e-05
1.26467e-05
0.000929466
-0.00093035
-1.00654e-05
7.44163e-06
0.000932987
-0.000933963
-4.55688e-06
1.63659e-06
0.000936898
-0.00093794
1.53907e-06
-4.74551e-06
0.000941161
-0.000942711
7.89412e-06
-1.02452e-05
0.000945076
-0.000947245
1.36734e-05
-1.74386e-05
0.000951024
-0.000954353
2.13522e-05
-2.5507e-05
0.000958521
-0.000963656
2.97099e-05
-3.40503e-05
0.00096801
-0.000975989
3.86646e-05
-4.34294e-05
0.000980767
-0.000993366
4.83917e-05
-5.36616e-05
0.000998648
-0.00101866
5.95892e-05
-6.48623e-05
0.00102394
-0.0010389
6.84967e-05
-6.83799e-05
0.00103879
-0.000926657
6.0655e-05
-4.34168e-05
0.000909431
-0.000480893
2.19941e-05
-5.84568e-06
0.000464756
-0.000253757
7.20957e-06
0.000246926
-3.85444e-07
-0.000773871
-2.143e-05
3.86602e-05
0.000756636
-0.00100991
-5.27552e-05
6.00551e-05
0.00100261
-0.00102758
-6.10276e-05
5.79491e-05
0.00103066
-0.000999306
-5.34114e-05
4.84724e-05
0.00100424
-0.00097881
-4.37973e-05
3.9656e-05
0.000982947
-0.000964637
-3.51489e-05
3.08898e-05
0.000968893
-0.000954613
-2.66458e-05
2.25118e-05
0.000958744
-0.000947107
-1.81666e-05
1.4559e-05
0.000950712
-0.00094101
-1.10538e-05
7.65033e-06
0.000944411
-0.000936046
-4.45568e-06
1.36723e-06
0.000939133
-0.000931988
1.50841e-06
-4.2711e-06
0.00093475
-0.000928701
6.71036e-06
-8.82082e-06
0.000930811
-0.000924772
1.17293e-05
-1.48061e-05
0.000927849
-0.0009212
1.66083e-05
-1.88667e-05
0.00092346
-0.000918996
2.22861e-05
-2.36788e-05
0.000920391
-0.000913325
2.37055e-05
-3.33708e-05
0.000922993
-0.00091497
3.3686e-05
-3.52172e-05
0.000916505
-0.000911988
3.56878e-05
-3.61053e-05
0.000912409
-0.000909325
3.62493e-05
-3.56977e-05
0.000908777
-0.000906697
3.46461e-05
-3.52264e-05
0.000907281
-0.000901474
3.54718e-05
-3.46844e-05
0.000900691
-0.000897866
3.31606e-05
-3.12617e-05
0.000895972
-0.000894572
2.90668e-05
-2.64891e-05
0.000892
-0.000893265
2.36592e-05
-2.05854e-05
0.000890198
-0.000891489
1.74691e-05
-1.39091e-05
0.000887936
-0.000888639
1.00792e-05
-6.07414e-06
0.000884643
-0.000895432
2.08703e-06
1.65387e-06
0.000891701
-0.000891027
-5.39618e-06
9.37883e-06
0.000887055
-0.000890193
-1.33733e-05
1.72296e-05
0.000886348
-0.000898716
-2.07327e-05
2.38285e-05
0.000895632
-0.000894672
-2.65419e-05
2.93019e-05
0.000891925
-0.00089763
-3.17951e-05
3.39447e-05
0.000895493
-0.000901254
-3.57262e-05
3.71632e-05
0.00089983
-0.000905938
-3.79444e-05
3.70096e-05
0.000906885
-0.000915437
-3.52524e-05
3.69019e-05
0.000913799
-0.000913432
-3.82113e-05
3.79457e-05
0.000913709
-0.00091684
-3.71921e-05
3.59749e-05
0.000918069
-0.000920647
-3.46992e-05
3.30952e-05
0.000922262
-0.000924569
-3.13609e-05
2.94287e-05
0.000926513
-0.000928242
-2.71916e-05
2.47846e-05
0.000930661
-0.000931939
-2.22977e-05
1.95607e-05
0.000934688
-0.000935866
-1.67698e-05
1.37425e-05
0.000938906
-0.000940055
-1.06773e-05
8.01977e-06
0.000942725
-0.000943643
-5.65255e-06
2.3426e-06
0.000946966
-0.000948741
1.29386e-06
-4.92536e-06
0.000952385
-0.000954933
8.77427e-06
-1.27166e-05
0.000958888
-0.00096267
1.6982e-05
-2.16681e-05
0.000967368
-0.000972515
2.61462e-05
-3.12707e-05
0.000977652
-0.000985549
3.69747e-05
-4.20295e-05
0.000990616
-0.00100434
4.65588e-05
-5.04149e-05
0.00100821
-0.00102914
5.35519e-05
-5.69678e-05
0.00103256
-0.00103602
5.88315e-05
-5.60313e-05
0.00103323
-0.00089226
4.62352e-05
-3.08555e-05
0.000876892
-0.000451532
1.44899e-05
-3.19232e-06
0.000440245
-0.000241022
5.48326e-06
0.000235824
-2.9137e-07
-0.000740899
-1.65945e-05
3.06912e-05
0.000726797
-0.000994907
-4.34512e-05
5.1227e-05
0.000987128
-0.00103312
-5.33111e-05
5.1498e-05
0.00103493
-0.00100899
-4.76796e-05
4.3216e-05
0.00101345
-0.000987349
-3.89398e-05
3.44625e-05
0.000991823
-0.000973017
-3.01222e-05
2.57813e-05
0.000977356
-0.000962678
-2.15285e-05
1.70288e-05
0.000967176
-0.000954688
-1.32419e-05
9.52132e-06
0.000958408
-0.00094832
-5.86639e-06
2.38584e-06
0.0009518
-0.000943067
1.02484e-06
-4.25534e-06
0.000946298
-0.000937651
8.24329e-06
-1.2141e-05
0.00094155
-0.000933287
1.61529e-05
-2.04742e-05
0.000937611
-0.000929464
2.35423e-05
-2.59701e-05
0.000931894
-0.000927352
2.77563e-05
-2.78571e-05
0.000927457
-0.000920697
2.84505e-05
-3.92198e-05
0.000931471
-0.000922658
3.92304e-05
-4.1879e-05
0.000925312
-0.000918646
4.406e-05
-4.54656e-05
0.000920057
-0.000913371
4.69147e-05
-4.81606e-05
0.000914623
-0.000908391
4.91694e-05
-4.96128e-05
0.00090884
-0.000906065
4.90769e-05
-4.78184e-05
0.000904813
-0.000900184
4.74685e-05
-4.70485e-05
0.00089977
-0.000893936
4.53792e-05
-4.28977e-05
0.00089146
-0.000889112
4.00438e-05
-3.67183e-05
0.000885792
-0.000886673
3.29878e-05
-2.88666e-05
0.000882558
-0.000883801
2.45365e-05
-1.97622e-05
0.000879033
-0.000879962
1.45207e-05
-9.0512e-06
0.0008745
-0.000887243
3.52711e-06
1.78539e-06
0.000881939
-0.000882364
-7.0908e-06
1.2635e-05
0.000876829
-0.000881892
-1.8092e-05
2.33008e-05
0.000876693
-0.000891967
-2.80221e-05
3.23794e-05
0.00088762
-0.000889093
-3.64371e-05
4.00992e-05
0.000885441
-0.000893057
-4.30428e-05
4.57677e-05
0.000890342
-0.000898441
-4.79776e-05
4.9423e-05
0.000897006
-0.000908156
-4.91268e-05
4.79044e-05
0.000909388
-0.000911731
-4.97333e-05
5.10254e-05
0.000910448
-0.000914295
-5.09456e-05
5.02261e-05
0.000915023
-0.000919248
-4.90558e-05
4.76824e-05
0.00092063
-0.00092406
-4.59223e-05
4.39042e-05
0.000926087
-0.000928754
-4.16479e-05
3.92809e-05
0.00093113
-0.000933178
-3.66121e-05
3.38776e-05
0.000935922
-0.000937624
-3.08717e-05
2.78326e-05
0.000940673
-0.000941797
-2.54042e-05
2.27541e-05
0.000944457
-0.000945537
-1.92489e-05
1.56481e-05
0.000949149
-0.000950718
-1.17388e-05
7.33103e-06
0.000955137
-0.00095643
-3.03729e-06
-1.75241e-06
0.000961232
-0.000963116
7.27032e-06
-1.17943e-05
0.000967652
-0.00097307
1.49944e-05
-1.71571e-05
0.000975244
-0.00098103
2.04487e-05
-2.43308e-05
0.000984923
-0.00099425
2.80651e-05
-3.23084e-05
0.000998505
-0.0010127
3.67621e-05
-4.11392e-05
0.00101709
-0.00103614
4.54199e-05
-4.87302e-05
0.00103947
-0.00103011
4.95536e-05
-4.59115e-05
0.00102648
-0.000862654
3.67485e-05
-2.36913e-05
0.000849608
-0.000430555
1.07508e-05
-2.28294e-06
0.000422099
-0.000231319
4.2033e-06
0.000227333
-2.21514e-07
-0.000713775
-1.29403e-05
2.4555e-05
0.000702156
-0.000979486
-3.56272e-05
4.31969e-05
0.000971912
-0.00103639
-4.60917e-05
4.51495e-05
0.00103732
-0.00101808
-4.19582e-05
3.80493e-05
0.00102199
-0.00099627
-3.35742e-05
2.92466e-05
0.00100059
-0.00098138
-2.47883e-05
2.04072e-05
0.000985758
-0.000970861
-1.57581e-05
1.18039e-05
0.000974813
-0.000962634
-7.88447e-06
4.10441e-06
0.000966413
-0.000956132
-2.48413e-07
-3.36092e-06
0.000959742
-0.000949772
7.04203e-06
-1.13142e-05
0.000954045
-0.000944682
1.56453e-05
-2.0234e-05
0.000949273
-0.000940169
2.50759e-05
-2.86872e-05
0.000943784
-0.000936328
3.16998e-05
-3.39962e-05
0.00093863
-0.00093254
3.46408e-05
-3.58223e-05
0.000933729
-0.000932379
4.85166e-05
-5.08411e-05
0.000934712
-0.00092751
5.37507e-05
-5.53235e-05
0.000929091
-0.000922451
5.68974e-05
-5.87615e-05
0.000924324
-0.000915881
6.1043e-05
-6.29028e-05
0.00091775
-0.000909452
6.40782e-05
-6.47234e-05
0.000910106
-0.000903561
6.49002e-05
-6.39791e-05
0.000902648
-0.00089997
6.20195e-05
-6.1328e-05
0.000899286
-0.000889108
6.08765e-05
-5.87646e-05
0.000887002
-0.000881959
5.53912e-05
-5.12429e-05
0.000877816
-0.000877529
4.62113e-05
-3.95772e-05
0.0008709
-0.000874021
3.15358e-05
-2.67119e-05
0.000869202
-0.00086809
2.07684e-05
-1.33945e-05
0.000860721
-0.000875603
5.67651e-06
1.9295e-06
0.000868003
-0.00087031
-9.53257e-06
1.72616e-05
0.000862589
-0.000870901
-2.45981e-05
3.02837e-05
0.000865224
-0.00088179
-3.45485e-05
4.27571e-05
0.00087359
-0.00088119
-4.95822e-05
5.46169e-05
0.000876164
-0.000887475
-5.8725e-05
6.18067e-05
0.0008844
-0.000896214
-6.3592e-05
6.27668e-05
0.000897046
-0.000908767
-6.18118e-05
6.51973e-05
0.000905387
-0.000909688
-6.73118e-05
6.74705e-05
0.000909534
-0.000915965
-6.65772e-05
6.53547e-05
0.000917192
-0.000922358
-6.36435e-05
6.15972e-05
0.000924409
-0.000928277
-5.92376e-05
5.67196e-05
0.000930801
-0.000933773
-5.39563e-05
5.0891e-05
0.000936844
-0.000939027
-4.78509e-05
4.52098e-05
0.000941675
-0.000943101
-4.20983e-05
3.81344e-05
0.000947072
-0.000948275
-3.32424e-05
2.81501e-05
0.000953376
-0.000953365
-2.21393e-05
1.76012e-05
0.000957912
-0.000960978
-1.46588e-05
1.29404e-05
0.000962707
-0.000964156
-9.82653e-06
6.05689e-06
0.000967936
-0.000970751
-2.57201e-06
-1.35608e-06
0.00097469
-0.000978843
5.42422e-06
-9.61858e-06
0.000983048
-0.000989153
1.38457e-05
-1.80986e-05
0.000993417
-0.00100274
2.23966e-05
-2.67347e-05
0.00100709
-0.00102149
3.10006e-05
-3.53137e-05
0.00102581
-0.00104232
3.92156e-05
-4.18747e-05
0.00104499
-0.00102247
4.17942e-05
-3.77522e-05
0.00101844
-0.000837531
2.92093e-05
-1.81599e-05
0.000826492
-0.00041469
7.98514e-06
-1.5577e-06
0.000408273
-0.000223837
3.19867e-06
0.000220803
-1.69078e-07
-0.000691555
-1.01327e-05
1.96887e-05
0.000681994
-0.000964555
-2.93024e-05