/*--------------------------------*- C++ -*----------------------------------*\
  =========                 |
  \\      /  F ield         | OpenFOAM: The Open Source CFD Toolbox
   \\    /   O peration     | Website:  https://openfoam.org
    \\  /    A nd           | Version:  7
     \\/     M anipulation  |
\*---------------------------------------------------------------------------*/
FoamFile
{
    version     2.0;
    format      ascii;
    class       volVectorField;
    location    "35";
    object      U;
}
// * * * * * * * * * * * * * * * * * * * * * * * * * * * * * * * * * * * * * //

dimensions      [0 1 -1 0 0 0 0];

internalField   nonuniform List<vector> 
17475
(
(1.01818 0.205782 -1.63425e-20)
(0.995984 0.0223418 -2.58861e-20)
(0.999783 0.00972475 0)
(0.999942 0.0048646 0)
(0.99998 0.00302196 0)
(0.999992 0.00205968 0)
(0.999996 0.001472 0)
(0.999998 0.00107525 0)
(0.999998 0.000788891 -5.33776e-20)
(0.999999 0.000572364 0)
(0.999999 0.000403038 0)
(0.999999 0.000267587 0)
(0.999999 0.000157775 0)
(1 6.81703e-05 0)
(1 -4.66674e-06 0)
(1 -6.30961e-05 0)
(1 -0.000108648 0)
(1 -0.000142451 0)
(1 -0.000165297 0)
(1 -0.000177874 0)
(1 -0.000180731 -2.05829e-19)
(1 -0.000174626 4.53779e-22)
(1 -0.000160274 0)
(1 -0.000138558 -6.50372e-21)
(1 -0.000111002 0)
(1 -7.76056e-05 -1.30225e-20)
(1 -4.12725e-05 0)
(1 -2.99121e-06 0)
(1 3.56543e-05 -1.62917e-21)
(1 7.3007e-05 5.19971e-20)
(1 0.000107471 5.11148e-20)
(1 0.000137507 0)
(1 0.000161783 0)
(1 0.000179061 -5.11614e-20)
(1 0.000188335 -5.10271e-20)
(1 0.000188695 0)
(1 0.000179404 -3.93829e-22)
(1 0.000159739 0)
(1 0.000129 4.98429e-20)
(1 8.60363e-05 2.48431e-20)
(1 3.03008e-05 -2.47682e-20)
(0.999999 -3.94325e-05 0)
(0.999999 -0.000125261 -2.47738e-20)
(0.999999 -0.000230359 0)
(0.999999 -0.000359555 -1.24936e-20)
(0.999999 -0.000520198 0)
(0.999998 -0.000723759 2.57439e-20)
(0.999997 -0.000988609 0)
(0.999996 -0.00134504 0)
(0.999994 -0.00184466 0)
(0.99999 -0.00257716 0)
(0.999986 -0.00368342 -1.58416e-20)
(0.999949 -0.00537536 3.53331e-20)
(0.99896 -0.00293941 3.90452e-20)
(1.02901 -0.0897352 -3.8781e-20)
(0.871197 0.0791884 2.10607e-20)
(1.10022 0.0970614 0)
(1.03483 0.0583395 0)
(1.01505 0.03715 0)
(1.00788 0.0251229 -1.49422e-19)
(1.00473 0.0177785 -1.43665e-19)
(1.00314 0.0129559 1.36946e-19)
(1.00223 0.0095801 0)
(1.00166 0.00709369 0)
(1.00129 0.00519072 0)
(1.00102 0.00369194 0)
(1.00082 0.00248791 0)
(1.00067 0.00150908 0)
(1.00055 0.000710036 0)
(1.00044 6.09913e-05 0)
(1.00035 -0.00045821 0)
(1.00026 -0.00086125 0)
(1.00019 -0.00115768 0)
(1.00011 -0.00135461 0)
(1.00005 -0.00145799 0)
(0.999985 -0.0014734 0)
(0.999927 -0.00140708 0)
(0.999875 -0.00126541 2.59959e-19)
(0.99983 -0.00105777 -6.50329e-20)
(0.999794 -0.000791792 -1.30593e-19)
(0.999767 -0.000481908 2.57905e-23)
(0.999751 -0.000141214 -1.63178e-20)
(0.999745 0.000215713 0)
(0.999751 0.000574561 -8.13986e-21)
(0.999768 0.000919606 8.11519e-21)
(0.999795 0.00123607 -1.29575e-19)
(0.999833 0.00150994 1.31001e-19)
(0.999879 0.0017288 0)
(0.999932 0.00188173 -2.54625e-19)
(0.999992 0.00195943 1.97665e-21)
(1.00006 0.00195413 2.51362e-19)
(1.00013 0.0018592 0)
(1.0002 0.00166868 1.23989e-19)
(1.00028 0.00137681 0)
(1.00036 0.00097516 -1.23077e-19)
(1.00046 0.000455456 1.22656e-19)
(1.00056 -0.000194617 0)
(1.00068 -0.000993756 0)
(1.00083 -0.00197012 0)
(1.00102 -0.00316605 1.03539e-22)
(1.00127 -0.00464608 6.24444e-20)
(1.00161 -0.00650958 -6.34736e-20)
(1.00211 -0.00891377 -3.22678e-20)
(1.00287 -0.0121148 0)
(1.00407 -0.0165465 0)
(1.00609 -0.0229849 0)
(1.00962 -0.0328849 -3.63551e-20)
(1.0162 -0.0496088 3.78051e-20)
(1.02823 -0.0727648 2.39223e-21)
(1.07055 -0.178179 2.79712e-21)
(0.609745 0.0195571 1.10145e-20)
(1.13934 0.106403 -1.59305e-20)
(1.07851 0.0752484 -6.61872e-20)
(1.04105 0.0541199 0)
(1.02458 0.0399399 0)
(1.01599 0.0298938 -1.32635e-19)
(1.0111 0.0225305 0)
(1.0081 0.0169895 0)
(1.00615 0.0127101 0)
(1.00481 0.0093267 2.55751e-19)
(1.00385 0.00660025 0)
(1.00313 0.00437272 0)
(1.00256 0.00253831 0)
(1.00209 0.00102617 0)
(1.00169 -0.000211701 0)
(1.00133 -0.00120788 -2.52811e-19)
(1.00101 -0.00198431 0)
(1.00071 -0.00255649 0)
(1.00043 -0.00293576 0)
(1.00017 -0.00313176 0)
(0.999923 -0.00315388 5.16439e-19)
(0.999695 -0.00301212 0)
(0.999488 -0.0027203 1.95107e-19)
(0.99931 -0.00229097 -1.30474e-19)
(0.999165 -0.00174808 0)
(0.999057 -0.00111428 -3.27598e-20)
(0.99899 -0.000416352 0)
(0.998967 0.000316027 4.09109e-20)
(0.998987 0.00105333 2.4533e-20)
(0.999051 0.00176297 0)
(0.999158 0.00241552 -1.13601e-19)
(0.999303 0.00298212 4.03418e-21)
(0.999483 0.00343819 -2.00566e-21)
(0.999691 0.00376217 -1.27459e-19)
(0.999924 0.00393593 1.26522e-19)
(1.00018 0.00394477 0)
(1.00045 0.00377666 2.4115e-19)
(1.00073 0.00342128 -2.46788e-19)
(1.00104 0.00286863 2.6167e-19)
(1.00137 0.00210565 0)
(1.00172 0.00111844 3.06291e-20)
(1.00212 -0.000113909 -2.87692e-22)
(1.00258 -0.00162226 1.21189e-19)
(1.00314 -0.00345255 -4.18581e-22)
(1.00384 -0.00567342 -6.06199e-20)
(1.00476 -0.00838644 0)
(1.00602 -0.0117448 0)
(1.00781 -0.0159803 3.07826e-20)
(1.01047 -0.0214511 -3.1748e-20)
(1.01463 -0.0287203 -4.96995e-22)
(1.02142 -0.0386893 9.73361e-20)
(1.03307 -0.0528201 -6.66869e-20)
(1.05415 -0.0734134 6.53843e-20)
(1.10046 -0.105175 0)
(0.963366 -0.117778 3.39686e-20)
(0.48105 0.00950076 0)
(1.11576 0.089732 0)
(1.11478 0.0801044 2.88486e-20)
(1.06588 0.0608268 0)
(1.04251 0.0470617 1.23297e-19)
(1.02949 0.03659 0)
(1.02147 0.0283631 0)
(1.01622 0.0217911 0)
(1.01263 0.0164626 0)
(1.01007 0.0120855 0)
(1.00817 0.00845247 0)
(1.00671 0.0054141 0)
(1.00553 0.00286652 2.48064e-19)
(1.00455 0.000736016 0)
(1.00369 -0.00102768 0)
(1.00293 -0.00245875 0)
(1.00223 -0.00358016 0)
(1.00157 -0.00440747 0)
(1.00095 -0.00495192 0)
(1.00036 -0.005223 -2.55531e-19)
(0.999797 -0.00523013 0)
(0.999276 -0.00498739 0)
(0.998805 -0.00450684 -1.3019e-19)
(0.998395 -0.00381622 0)
(0.998058 -0.00294551 -1.97221e-19)
(0.997805 -0.00193049 3.27342e-20)
(0.997647 -0.000813017 -1.31763e-19)
(0.997589 0.000360467 2.56935e-22)
(0.997632 0.00154386 6.57005e-20)
(0.997777 0.00268201 4.91137e-20)
(0.998018 0.00373246 1.30336e-19)
(0.998348 0.00464678 4.03889e-21)
(0.998756 0.00538751 0)
(0.999228 0.00592243 -5.13058e-22)
(0.999754 0.00622514 0)
(1.00032 0.00627525 -1.16892e-19)
(1.00093 0.00605734 -1.2361e-19)
(1.00157 0.00555956 1.22807e-19)
(1.00224 0.00477097 2.43503e-19)
(1.00295 0.00367847 9.86332e-20)
(1.00372 0.00226817 -3.0208e-20)
(1.00457 0.000518097 -5.99355e-20)
(1.00555 -0.00160467 0)
(1.00671 -0.00414932 0)
(1.00814 -0.00718807 -5.92322e-20)
(1.00999 -0.0108252 5.91353e-20)
(1.01245 -0.0152107 1.47842e-19)
(1.01587 -0.0205581 2.994e-20)
(1.02079 -0.0271712 -1.5392e-22)
(1.02813 -0.0354777 -2.939e-20)
(1.03953 -0.0460754 1.17966e-19)
(1.05788 -0.0598539 -8.76974e-20)
(1.08996 -0.078058 8.29184e-20)
(1.13334 -0.100442 5.29487e-20)
(0.813211 -0.0597318 -1.51386e-20)
(0.401077 0.00537882 0)
(1.06133 0.0685815 -2.65312e-20)
(1.13821 0.0763261 5.16447e-20)
(1.08845 0.0611898 5.48158e-20)
(1.05954 0.0489233 5.69515e-20)
(1.0431 0.0390944 1.16119e-19)
(1.03255 0.0309213 -1.17401e-19)
(1.02536 0.0240518 -1.18483e-19)
(1.02024 0.0182348 0)
(1.01646 0.0132793 -2.39333e-19)
(1.01357 0.00903901 -4.80717e-19)
(1.01127 0.00540357 -2.41631e-19)
(1.00939 0.00229245 -2.42997e-19)
(1.00779 -0.000353187 0)
(1.00637 -0.00257272 0)
(1.00508 -0.0043925 0)
(1.00387 -0.00582812 -5.00619e-19)
(1.00273 -0.0068887 -1.94178e-21)
(1.00163 -0.00757932 -5.08194e-19)
(1.00057 -0.0079036 -2.55191e-19)
(0.999563 -0.0078701 -6.41888e-20)
(0.998618 -0.00748302 1.29289e-19)
(0.997756 -0.00676716 -1.30409e-19)
(0.997001 -0.00575213 1.31171e-19)
(0.996376 -0.00447799 0)
(0.995904 -0.00299312 -6.66802e-20)
(0.995605 -0.00135789 1.33055e-19)
(0.99549 0.000360607 0)
(0.995567 0.00209525 -3.31032e-20)
(0.995831 0.00376342 -1.65474e-20)
(0.996273 0.00530563 -1.31117e-19)
(0.996877 0.00665032 1.22052e-20)
(0.997621 0.00774548 0)
(0.99848 0.00854779 1.35708e-19)
(0.99943 0.00902356 0)
(1.00045 0.00914869 0)
(1.00153 0.00890766 -2.45517e-19)
(1.00266 0.00829227 -5.95516e-20)
(1.00383 0.00729174 1.27963e-19)
(1.00505 0.00590244 1.1238e-19)
(1.00636 0.0041159 -1.33334e-19)
(1.00779 0.00191749 -1.18127e-19)
(1.00939 -0.000717573 -1.46187e-19)
(1.01126 -0.00382786 8.70711e-20)
(1.01353 -0.00747105 1.15168e-19)
(1.01637 -0.0117291 -2.83499e-20)
(1.02006 -0.0167153 0)
(1.02502 -0.0225803 -5.63942e-20)
(1.03192 -0.0295212 -5.59075e-20)
(1.04181 -0.0377909 -2.80274e-20)
(1.05648 -0.047684 -2.6603e-20)
(1.07919 -0.059646 -7.90039e-20)
(1.11706 -0.0743178 -4.90913e-20)
(1.12308 -0.0823617 0)
(0.694432 -0.0290437 8.04649e-20)
(0.351668 0.00326506 0)
(0.999461 0.0511207 0)
(1.14673 0.068803 -9.66453e-20)
(1.10755 0.0585423 -1.01929e-19)
(1.07487 0.0477127 0)
(1.05592 0.0387416 0)
(1.04351 0.030987 1.10756e-19)
(1.0348 0.0241947 0)
(1.0284 0.0182243 0)
(1.02354 0.0129669 0)
(1.01971 0.00833657 -2.32971e-19)
(1.0166 0.00426726 -2.35333e-19)
(1.01398 0.000709301 0)
(1.0117 -0.00237153 0)
(1.00964 -0.00499517 -2.02306e-21)
(1.00773 -0.00717279 0)
(1.00591 -0.00890581 9.85501e-19)
(1.00416 -0.0101898 9.99409e-19)
(1.00245 -0.0110164 -5.04592e-19)
(1.00078 -0.0113824 2.52679e-19)
(0.999173 -0.0112743 3.20047e-19)
(0.997649 -0.0107045 -6.49341e-20)
(0.996247 -0.00969123 3.92951e-19)
(0.995008 -0.00826818 -6.56378e-20)
(0.993974 -0.00648447 1.7951e-22)
(0.993187 -0.00440301 -1.33685e-19)
(0.992683 -0.00210784 1.69204e-19)
(0.992486 0.000307603 1.34281e-19)
(0.992607 0.00274821 -4.84362e-22)
(0.99304 0.00509417 6.67231e-20)
(0.993767 0.00726314 6.60904e-20)
(0.994758 0.00915462 0)
(0.995972 0.0106988 -1.1699e-19)
(0.997365 0.0118412 0)
(0.998894 0.0125417 0)
(1.00052 0.0127762 1.55561e-19)
(1.00222 0.0125355 -1.23718e-19)
(1.00398 0.0118158 0)
(1.00578 0.0106165 7.46127e-21)
(1.00763 0.00894924 0)
(1.00958 0.00681802 0)
(1.01166 0.00422292 -1.30059e-19)
(1.01395 0.0011554 1.43635e-20)
(1.01657 -0.00240373 1.91961e-22)
(1.01966 -0.00648786 -1.38173e-20)
(1.02344 -0.011146 -1.37685e-19)
(1.02823 -0.0164456 -1.34421e-20)
(1.03448 -0.0224715 1.20378e-19)
(1.0429 -0.0293271 -1.05493e-19)
(1.0546 -0.0371289 0)
(1.07142 -0.0460097 4.95028e-20)
(1.09692 -0.0562415 8.57885e-22)
(1.13412 -0.0675784 -4.56282e-20)
(1.08997 -0.064507 -6.89495e-20)
(0.614183 -0.0165211 0)
(0.318693 0.00222512 9.94346e-21)
(0.9417 0.0382447 -2.55663e-20)
(1.14365 0.0600025 4.58849e-20)
(1.12307 0.0544285 0)
(1.08868 0.0449031 0)
(1.06779 0.0366623 -1.01908e-19)
(1.05403 0.0293563 0)
(1.04419 0.022754 -2.14189e-19)
(1.03679 0.0167655 -2.17878e-19)
(1.03103 0.0113383 0)
(1.02639 0.00643266 -1.1264e-19)
(1.02252 0.00202302 2.28657e-19)
(1.01919 -0.00191408 -4.62909e-19)
(1.01621 -0.00538806 0)
(1.01347 -0.00839793 0)
(1.01087 -0.0109338 0)
(1.00835 -0.0129752 -3.77019e-21)
(1.00587 -0.0144972 0)
(1.00341 -0.0154788 0)
(1.00097 -0.0158808 2.51107e-19)
(0.998582 -0.0156883 3.54813e-22)
(0.996295 -0.0148969 0)
(0.994164 -0.0135171 0)
(0.992259 -0.0115814 4.0125e-19)
(0.990654 -0.00914671 2.70341e-19)
(0.989422 -0.0062913 3.41173e-20)
(0.988625 -0.00313992 0)
(0.988307 0.000188374 2.74785e-19)
(0.988488 0.00355611 1.02518e-19)
(0.98916 0.00678641 -2.36612e-22)
(0.990285 0.00976769 0)
(0.991813 0.0123667 0)
(0.993672 0.0144816 7.24207e-21)
(0.995787 0.0160496 0)
(0.998085 0.0170275 0)
(1.0005 0.0173968 1.05089e-23)
(1.003 0.0171635 -2.41271e-19)
(1.00553 0.0163286 -1.20736e-19)
(1.00808 0.0149188 1.17691e-19)
(1.01067 0.0129638 7.17922e-21)
(1.01332 0.0104884 -1.13248e-19)
(1.01611 0.0075132 7.56184e-22)
(1.01912 0.00405133 6.82621e-22)
(1.02246 0.000107187 1.37849e-20)
(1.02632 -0.00432523 -9.42775e-20)
(1.03093 -0.00926282 0)
(1.03662 -0.0147326 -1.17123e-19)
(1.04387 -0.020764 0)
(1.05339 -0.0274018 -4.9664e-20)
(1.06631 -0.0346989 0)
(1.08455 -0.0427292 4.70618e-20)
(1.11175 -0.0516812 -2.1899e-22)
(1.14212 -0.0599266 -2.09923e-20)
(1.04969 -0.0501569 -6.6195e-20)
(0.559544 -0.0110144 3.24259e-20)
(0.295269 0.00161424 0)
(0.89176 0.0290321 -2.51608e-20)
(1.13299 0.0513036 0)
(1.135 0.0495651 0)
(1.1013 0.0412659 4.66073e-20)
(1.07889 0.0335655 7.17669e-22)
(1.06412 0.0266117 0)
(1.05345 0.0201768 -1.01257e-19)
(1.0453 0.0141923 -2.08137e-19)
(1.03883 0.00863306 0)
(1.0335 0.00348871 0)
(1.02896 -0.00124383 0)
(1.02496 -0.00555643 0)
(1.02131 -0.00943583 -3.38586e-19)
(1.01788 -0.0128575 -1.14085e-19)
(1.01454 -0.0157876 0)
(1.01124 -0.0181847 1.47784e-20)
(1.00791 -0.02001 3.59166e-19)
(1.00454 -0.0211895 -7.96487e-22)
(1.00115 -0.0216721 -1.25145e-19)
(0.99777 -0.0214083 0)
(0.994482 -0.0203741 1.29963e-19)
(0.991373 -0.0185594 -1.3472e-22)
(0.988555 -0.0159882 1.36916e-19)
(0.986152 -0.0127217 0)
(0.984287 -0.00885643 -6.95202e-20)
(0.983069 -0.0045673 -7.04711e-20)
(0.982572 -1.82936e-05 1.4222e-19)
(0.982834 0.00459132 7.07932e-20)
(0.983842 0.0090023 -1.38883e-19)
(0.985532 0.0130566 0)
(0.987812 0.0165682 -1.69161e-20)
(0.990558 0.019403 -1.32441e-19)
(0.993647 0.021489 1.6161e-20)
(0.996959 0.0227859 1.29815e-21)
(1.0004 0.023294 2.4176e-19)
(1.00388 0.0230381 1.21279e-19)
(1.00735 0.0220393 1.18073e-19)
(1.01078 0.0203646 -1.14335e-19)
(1.0142 0.0180693 0)
(1.01763 0.0152059 1.16847e-19)
(1.02114 0.0118211 0)
(1.02485 0.00795286 0)
(1.02887 0.00363007 -1.05795e-19)
(1.03341 -0.00112807 0)
(1.03871 -0.00630953 5.01039e-20)
(1.04511 -0.0119068 9.90788e-20)
(1.0531 -0.0179282 2.46984e-20)
(1.0634 -0.0243822 -9.41024e-20)
(1.07716 -0.0312927 0)
(1.0964 -0.0387247 4.46133e-20)
(1.12418 -0.04673 0)
(1.14311 -0.0521973 -1.94757e-20)
(1.0096 -0.0391002 4.2281e-20)
(0.519591 -0.00792282 0)
(0.277933 0.00119323 0)
(0.849888 0.0223549 -2.46722e-20)
(1.11812 0.043299 -4.17195e-20)
(1.14359 0.0443616 4.19373e-20)
(1.11296 0.0372263 -4.33822e-20)
(1.08947 0.0299042 -9.02554e-20)
(1.0739 0.0231658 0)
(1.06262 0.0168167 0)
(1.05392 0.0107876 0)
(1.04691 0.00506848 0)
(1.04104 -0.00033701 2.06351e-19)
(1.03595 -0.00541467 0)
(1.03136 -0.0101411 -4.26657e-19)
(1.02708 -0.0144841 0)
(1.02294 -0.0183958 0)
(1.01884 -0.0218222 4.22758e-19)
(1.01469 -0.0246952 3.43555e-19)
(1.01039 -0.0269228 -1.19331e-19)
(1.00596 -0.0284155 -1.20287e-19)
(1.0014 -0.0290785 1.23707e-19)
(0.99677 -0.0288126 5.10166e-19)
(0.992167 -0.0275507 2.62786e-19)
(0.987738 -0.0252513 -1.33687e-19)
(0.983654 -0.0219099 0)
(0.980118 -0.0175834 1.86656e-21)
(0.977335 -0.0123859 7.14343e-20)
(0.975497 -0.00656229 -7.15522e-20)
(0.974732 -0.000347136 -1.83747e-19)
(0.97511 0.00596244 4.50316e-22)
(0.976605 0.0119775 0)
(0.97911 0.0174647 -7.02164e-20)
(0.982462 0.0221618 -1.36628e-19)
(0.986446 0.025893 1.32871e-19)
(0.99086 0.0285835 -1.28983e-19)
(0.995515 0.0302104 -1.58167e-19)
(1.00027 0.0308167 -2.43938e-19)
(1.00498 0.0304414 5.92946e-20)
(1.00956 0.0291704 2.87195e-20)
(1.01401 0.0271148 0)
(1.01833 0.0243683 0)
(1.02257 0.0210183 -6.7199e-21)
(1.02682 0.0171422 2.09109e-19)
(1.03119 0.0128038 1.03021e-19)
(1.03583 0.00805539 0)
(1.04094 0.00294268 9.88427e-20)
(1.04679 -0.00250587 2.3723e-20)
(1.05373 -0.00827106 -2.40384e-20)
(1.06224 -0.01434 5.74427e-21)
(1.07308 -0.0207079 8.74332e-20)
(1.08746 -0.0273917 3.42278e-19)
(1.10743 -0.0344504 1.65449e-19)
(1.13456 -0.0416986 -3.87604e-20)
(1.1391 -0.0448705 -3.85384e-20)
(0.973257 -0.0307446 -6.27785e-20)
(0.490217 -0.00580253 1.25166e-19)
(0.264843 0.000887666 0)
(0.815284 0.0173851 -4.82537e-20)
(1.10151 0.0361887 3.99523e-20)
(1.14932 0.0390852 -3.9091e-20)
(1.12376 0.0330212 8.15075e-20)
(1.09974 0.0259684 8.56724e-20)
(1.08354 0.0193187 -1.76433e-19)
(1.07183 0.0129559 7.7513e-22)
(1.06275 0.00680776 -9.31843e-20)
(1.05536 0.000862733 -1.93122e-19)
(1.04909 -0.00486851 -1.95708e-19)
(1.04355 -0.0103637 0)
(1.03847 -0.0155884 2.02329e-19)
(1.03363 -0.0204925 0)
(1.02885 -0.0250132 -4.37331e-19)
(1.02399 -0.0290828 -5.30321e-20)
(1.01891 -0.0326029 -2.22309e-19)
(1.01355 -0.035438 3.44462e-19)
(1.00789 -0.0374502 -4.70708e-19)
(1.00193 -0.0384889 0)
(0.995715 -0.0383898 2.52806e-19)
(0.989379 -0.03699 -3.91714e-19)
(0.983146 -0.0342053 1.35046e-19)
(0.977278 -0.029967 0)
(0.972093 -0.0243006 -1.43978e-19)
(0.967942 -0.0173289 7.26769e-20)
(0.965159 -0.00939625 1.52791e-19)
(0.96398 -0.000850913 1.51176e-19)
(0.964528 0.00784602 -1.51522e-19)
(0.966757 0.0160878 0)
(0.970478 0.0235194 0)
(0.975399 0.0297557 1.74639e-19)
(0.981148 0.0345774 1.97859e-21)
(0.987392 0.0379233 -2.28592e-19)
(0.993847 0.0398293 -3.76713e-19)
(1.00028 0.0403911 6.05522e-20)
(1.00649 0.0397028 -2.90596e-20)
(1.01239 0.037959 0)
(1.01798 0.0353217 0)
(1.02327 0.0319389 9.30191e-20)
(1.02834 0.0279403 1.14775e-19)
(1.03329 0.0234354 -1.10658e-20)
(1.03826 0.0185183 0)
(1.04342 0.0132612 -9.53734e-20)
(1.04899 0.00771519 6.87839e-20)
(1.05526 0.00192057 1.81487e-19)
(1.06258 -0.00409203 0)
(1.07147 -0.0102944 0)
(1.08267 -0.0166749 5.19562e-21)
(1.09744 -0.0232614 -1.20334e-19)
(1.11785 -0.0301129 1.15875e-19)
(1.14297 -0.0367194 -1.88008e-20)
(1.13224 -0.0381396 1.63051e-19)
(0.942162 -0.0243189 -1.62448e-19)
(0.46885 -0.00441017 2.59058e-19)
(0.254866 0.000667761 0)
(0.78688 0.0135949 -2.32368e-20)
(1.08478 0.0299999 5.70014e-20)
(1.15281 0.0339377 -3.68034e-20)
(1.1338 0.0288074 -7.71568e-20)
(1.10987 0.0219564 -1.59813e-19)
(1.09321 0.0152942 -8.31733e-20)
(1.08121 0.00882597 -8.59053e-20)
(1.07191 0.00247727 0)
(1.06428 -0.00377075 0)
(1.05775 -0.00990967 0)
(1.05191 -0.0159147 0)
(1.04646 -0.021749 9.53249e-20)
(1.04117 -0.0273523 -1.95176e-19)
(1.03582 -0.0326533 0)
(1.03023 -0.0375933 1.56141e-19)
(1.02425 -0.0420062 -1.05538e-19)
(1.01777 -0.0457306 3.70113e-21)
(1.01072 -0.0485857 2.31878e-19)
(1.00309 -0.0503399 2.50352e-21)
(0.994903 -0.0507345 2.52952e-19)
(0.986301 -0.0494681 -2.62358e-19)
(0.977573 -0.0463118 0)
(0.969135 -0.0411087 -1.44966e-19)
(0.961487 -0.033784 -1.52133e-19)
(0.955214 -0.0244455 0)
(0.95093 -0.0135251 -1.60332e-19)
(0.949076 -0.00161814 2.0549e-19)
(0.949891 0.0105418 4.06123e-20)
(0.953284 0.0219683 -2.14735e-19)
(0.958903 0.032092 -7.64703e-20)
(0.966193 0.0403081 -1.25347e-19)
(0.974526 0.04639 1.36793e-19)
(0.983343 0.0503469 0)
(0.992223 0.0523427 2.49648e-19)
(1.00078 0.0525288 -2.99159e-20)
(1.0088 0.0511947 2.85298e-20)
(1.01622 0.048639 0)
(1.02305 0.0451073 2.63455e-20)
(1.02933 0.040814 1.26719e-19)
(1.03519 0.035936 0)
(1.04077 0.0306213 -9.47739e-20)
(1.04624 0.0249713 -9.08488e-20)
(1.05182 0.0190679 0)
(1.05772 0.0129791 8.63883e-20)
(1.06425 0.00675645 -4.221e-20)
(1.07179 0.000423394 0)
(1.08085 -0.00599809 -3.98997e-20)
(1.09224 -0.0124987 -7.83303e-20)
(1.10726 -0.0191071 -7.58743e-20)
(1.12779 -0.0258503 3.68029e-20)
(1.14976 -0.0318934 1.04174e-19)
(1.12391 -0.0321011 6.92059e-20)
(0.915777 -0.0193096 -1.3702e-19)
(0.452627 -0.0033661 -8.75931e-20)
(0.247203 0.000509428 0)
(0.763662 0.0106582 0)
(1.06891 0.0246979 0)
(1.15466 0.0290757 0)
(1.14315 0.0247119 0)
(1.11996 0.0180213 0)
(1.10303 0.0112769 0)
(1.09088 0.0046314 0)
(1.08149 -0.00198943 1.65333e-19)
(1.07379 -0.00861415 0)
(1.06716 -0.0152413 -1.70443e-19)
(1.06118 -0.0218557 0)
(1.05553 -0.0284184 0)
(1.04994 -0.0348805 3.70527e-19)
(1.04418 -0.0411909 0)
(1.03798 -0.0472452 0)
(1.03119 -0.0528877 0)
(1.02361 -0.0579292 2.12459e-19)
(1.01509 -0.0621113 -2.18489e-19)
(1.00554 -0.0651246 0)
(0.994956 -0.0665823 -1.22948e-19)
(0.983436 -0.0660149 -2.70809e-19)
(0.971253 -0.0628812 0)
(0.959029 -0.0568188 -1.46255e-19)
(0.947565 -0.0475447 3.95033e-21)
(0.937856 -0.0350234 -4.97605e-19)
(0.931043 -0.0197762 -1.75685e-19)
(0.92803 -0.00280797 -1.37415e-21)
(0.929287 0.0145863 -8.71354e-20)
(0.934649 0.0307329 1.04745e-20)
(0.943387 0.0446257 1.57175e-19)
(0.954413 0.0553513 1.85367e-20)
(0.966617 0.0627511 4.36007e-21)
(0.979119 0.0670598 -7.81192e-19)
(0.991207 0.0686117 1.8188e-19)
(1.0024 0.0678339 2.88973e-20)
(1.01256 0.0652829 5.48046e-20)
(1.02164 0.061389 2.57735e-20)
(1.02972 0.0565121 2.39876e-20)
(1.03695 0.0509416 -2.82294e-19)
(1.0435 0.0448878 -2.65918e-19)
(1.04957 0.0385224 -3.6089e-19)
(1.05539 0.0319585 -8.52135e-20)
(1.06119 0.0252758 0)
(1.06722 0.0185363 2.04759e-20)
(1.07383 0.0117871 0)
(1.08142 0.00504867 -3.80743e-20)
(1.09052 -0.00166674 -3.70751e-20)
(1.10197 -0.00836404 -1.8112e-20)
(1.11711 -0.0150767 7.01238e-20)
(1.1374 -0.0217774 0)
(1.15528 -0.0273429 0)
(1.11516 -0.0267976 0)
(0.89375 -0.0153601 1.81616e-20)
(0.44035 -0.00257331 8.41246e-20)
(0.241332 0.000389359 0)
(0.744834 0.0083708 0)
(1.05448 0.0202368 1.70319e-20)
(1.15543 0.0246315 3.21463e-20)
(1.15191 0.0208578 0)
(1.13009 0.0143012 0)
(1.1131 0.00743711 7.10515e-20)
(1.10093 0.000565966 0)
(1.0916 -0.00637702 1.52101e-19)
(1.08399 -0.0134323 0)
(1.07744 -0.0206119 -3.14768e-19)
(1.07152 -0.0279154 -7.98112e-20)
(1.06589 -0.0353177 3.2939e-19)
(1.06024 -0.0427891 7.0609e-19)
(1.05428 -0.0503309 -1.76492e-19)
(1.04773 -0.0578042 4.63701e-20)
(1.04035 -0.0650758 9.34644e-20)
(1.03184 -0.0719559 0)
(1.02193 -0.0781601 0)
(1.01037 -0.0832685 0)
(0.997006 -0.0867589 1.19002e-19)
(0.981816 -0.0879245 -1.36086e-19)
(0.964971 -0.0858303 -8.37984e-19)
(0.947118 -0.0794899 1.4947e-19)
(0.92955 -0.0682031 -3.32723e-19)
(0.913966 -0.0514505 -7.1305e-19)
(0.902592 -0.0297266 2.84663e-19)
(0.897428 -0.00470154 -1.97905e-19)
(0.89948 0.0209615 -1.92393e-19)
(0.908418 0.0444754 -2.49699e-20)
(0.922612 0.0637204 -8.56567e-20)
(0.939795 0.0774447 -1.57487e-19)
(0.957965 0.0858482 -2.88799e-19)
(0.975679 0.0896488 -5.30001e-19)
(0.991905 0.0896558 1.17917e-19)
(1.00628 0.0869049 -1.12728e-19)
(1.01878 0.0822197 7.9346e-20)
(1.02951 0.0762329 -2.9195e-19)
(1.03874 0.0694147 -9.4009e-20)
(1.04671 0.0621053 -8.66448e-20)
(1.0537 0.0545376 1.71013e-19)
(1.05999 0.0468633 0)
(1.06588 0.0391948 -5.93171e-20)
(1.07166 0.0315981 0)
(1.07763 0.024116 0)
(1.08414 0.0167693 3.71013e-20)
(1.09161 0.0095665 5.38789e-20)
(1.1006 0.00250247 3.39388e-20)
(1.11197 -0.0044438 3.28239e-20)
(1.12707 -0.0113085 3.15877e-20)
(1.14674 -0.0180003 0)
(1.15986 -0.0231714 -1.56614e-20)
(1.10663 -0.0222346 -3.08558e-20)
(0.875473 -0.0122543 7.09491e-20)
(0.431115 -0.00199654 -2.33429e-19)
(0.236776 0.000304781 0)
(0.729536 0.00661594 -1.98051e-20)
(1.04172 0.0165552 0)
(1.15559 0.0207075 0)
(1.16015 0.0173653 6.0523e-20)
(1.14024 0.0109252 6.34128e-20)
(1.12344 0.00392751 -3.28587e-20)
(1.11139 -0.00319086 0)
(1.10228 -0.0104731 3.44402e-20)
(1.09493 -0.0179756 -6.98093e-20)
(1.08868 -0.0257294 0)
(1.08305 -0.0337569 -7.22004e-20)
(1.07769 -0.0420725 -2.38229e-21)
(1.07229 -0.0506967 -5.73968e-20)
(1.06647 -0.059626 3.75352e-20)
(1.05998 -0.0687904 -3.57392e-21)
(1.05244 -0.0781125 1.73959e-19)
(1.04344 -0.0874321 0)
(1.03254 -0.0964948 3.79043e-19)
(1.01926 -0.10489 -7.5306e-22)
(1.00306 -0.111928 0)
(0.983592 -0.11667 -3.67796e-19)
(0.960698 -0.117701 -1.34831e-19)
(0.934652 -0.112995 6.02326e-19)
(0.907038 -0.100512 4.92041e-21)
(0.880859 -0.0785786 0)
(0.860549 -0.0468005 2.00601e-19)
(0.850951 -0.00809835 -1.18315e-19)
(0.854625 0.0319834 1.08663e-19)
(0.870702 0.0676131 -4.07227e-19)
(0.895152 0.0943523 1.76096e-19)
(0.922903 0.110943 3.2504e-19)
(0.950345 0.118899 5.61216e-19)
(0.975127 0.120033 -1.22761e-19)
(0.996412 0.116508 -1.24613e-19)
(1.01424 0.110079 1.01711e-19)
(1.02896 0.101928 -3.76032e-19)
(1.04104 0.0928633 2.76104e-19)
(1.05095 0.083393 8.58158e-20)
(1.05917 0.073835 0)
(1.06614 0.0644005 1.12089e-19)
(1.07228 0.0552008 -3.3918e-20)
(1.07793 0.0462899 0)
(1.08342 0.0376903 -6.85074e-20)
(1.08909 0.0294022 -6.89664e-20)
(1.09528 0.0214234 6.56681e-20)
(1.10244 0.0137316 -1.63663e-19)
(1.11117 0.00629956 -6.4224e-20)
(1.12232 -0.00091289 3.07036e-20)
(1.13722 -0.00794478 2.95613e-20)
(1.15587 -0.0146308 -1.42112e-20)
(1.16374 -0.0194697 -4.18275e-20)
(1.09851 -0.0183701 6.96273e-21)
(0.859863 -0.0097897 -8.14865e-21)
(0.42333 -0.00158576 0)
(0.233199 0.000247111 0)
(0.717099 0.00530582 0)
(1.03059 0.0136196 -2.92692e-20)
(1.15544 0.0173933 0)
(1.16798 0.0143572 -2.75426e-20)
(1.15046 0.00802928 2.84717e-20)
(1.13407 0.000915552 5.88766e-20)
(1.12228 -0.00642968 0)
(1.11353 -0.0140324 1.22253e-19)
(1.10662 -0.0219627 0)
(1.10086 -0.0302764 -2.55015e-19)
(1.09578 -0.0390242 -1.29694e-19)
(1.09101 -0.0482646 -4.12229e-21)
(1.08622 -0.0580289 -1.37553e-19)
(1.08104 -0.0684311 1.37112e-19)
(1.07515 -0.0794528 1.4381e-19)
(1.06814 -0.0911262 -7.13413e-20)
(1.05947 -0.103422 -2.34088e-19)
(1.04852 -0.116232 -7.75262e-20)
(1.03444 -0.129268 1.75762e-19)
(1.01627 -0.142001 0)
(0.992817 -0.153335 -1.07342e-20)
(0.962865 -0.161382 2.46973e-19)
(0.925716 -0.163063 0)
(0.88174 -0.153317 0)
(0.835263 -0.12659 4.27016e-19)
(0.795616 -0.0789928 -6.77755e-21)
(0.775753 -0.0147858 6.60723e-21)
(0.783175 0.052995 -5.29165e-19)
(0.815314 0.109874 4.63024e-19)
(0.860658 0.146417 3.87762e-19)
(0.907043 0.163196 6.51082e-19)
(0.948128 0.165988 4.57908e-19)
(0.981701 0.160044 2.38437e-19)
(1.00832 0.149539 0)
(1.02905 0.136932 0)
(1.04506 0.123619 2.13557e-19)
(1.05743 0.110336 1.52434e-21)
(1.06712 0.0975024 -8.03101e-20)
(1.07487 0.0852942 -6.72533e-20)
(1.08124 0.073773 -1.32245e-19)
(1.08673 0.0629317 9.75556e-20)
(1.0917 0.0527286 0)
(1.09654 0.0431203 3.13439e-20)
(1.1016 0.0340499 -2.98843e-20)
(1.10723 0.0254621 0)
(1.11389 0.017309 0)
(1.12217 0.00953297 -1.64903e-21)
(1.13297 0.00207575 0)
(1.14748 -0.0051069 0)
(1.16477 -0.0117797 -2.64114e-22)
(1.16714 -0.0163535 0)
(1.09121 -0.0152557 -3.77863e-20)
(0.846865 -0.00791509 0)
(0.416671 -0.00124264 -5.46938e-20)
(0.230323 0.0002172 0)
(0.706956 0.0043941 4.21828e-21)
(1.02108 0.011403 3.35225e-21)
(1.15525 0.0147596 0)
(1.17546 0.0119376 3.09725e-21)
(1.16066 0.00572372 0)
(1.14492 -0.00146903 0)
(1.13354 -0.00899504 0)
(1.12529 -0.016857 0)
(1.11898 -0.0251381 0)
(1.11392 -0.0339163 0)
(1.10965 -0.0432721 0)
(1.10579 -0.0532934 0)
(1.10202 -0.064135 1.73689e-19)
(1.09802 -0.0759172 -5.97645e-20)
(1.09345 -0.0887479 -1.21831e-19)
(1.08787 -0.102802 -1.22411e-19)
(1.08073 -0.118273 4.09519e-21)
(1.07129 -0.135362 -7.6376e-20)
(1.05847 -0.154215 -2.29881e-21)
(1.04074 -0.174815 3.29348e-19)
(1.01587 -0.196736 -2.0631e-19)
(0.980648 -0.218445 0)
(0.931077 -0.236374 2.46428e-19)
(0.862913 -0.242142 -1.37666e-18)
(0.776422 -0.219078 8.71692e-19)
(0.690182 -0.148131 5.62075e-19)
(0.643246 -0.0302255 2.22663e-18)
(0.660381 0.0991275 0)
(0.733699 0.195999 1.01263e-18)
(0.824853 0.240038 -1.41887e-18)
(0.903102 0.244873 -4.22881e-19)
(0.961501 0.23074 -1.17736e-19)
(1.00335 0.209649 -6.19081e-19)
(1.03293 0.187035 3.73003e-21)
(1.0539 0.165207 5.10547e-19)
(1.06891 0.145084 -3.98966e-20)
(1.07984 0.126789 2.00419e-19)
(1.08796 0.110269 6.34968e-20)
(1.09415 0.0953085 1.15898e-19)
(1.09908 0.0817172 0)
(1.10325 0.0693142 2.89026e-20)
(1.10708 0.057928 4.79781e-20)
(1.11093 0.0474154 4.98124e-20)
(1.11508 0.0376661 -2.65343e-20)
(1.11992 0.0285726 8.8985e-20)
(1.12589 0.0200448 -2.29234e-20)
(1.13359 0.0119942 -1.02181e-19)
(1.14391 0.00435628 -1.15619e-20)
(1.15788 -0.00292555 -2.37571e-20)
(1.17347 -0.00954495 -2.22869e-20)
(1.17019 -0.0138789 1.18138e-20)
(1.08464 -0.0128574 1.18812e-20)
(0.835861 -0.00658068 7.70593e-22)
(0.411171 -0.00105537 2.58532e-20)
(0.22759 0.000252099 8.56929e-20)
(0.698256 0.00387325 -1.22194e-19)
(1.01277 0.00988871 1.46847e-22)
(1.15506 0.0128504 4.43362e-20)
(1.18264 0.0101828 -4.3891e-20)
(1.17083 0.00410418 -4.48875e-20)
(1.15593 -0.00309961 0)
(1.14505 -0.0107203 8.75666e-23)
(1.13741 -0.0187374 -2.31977e-20)
(1.13185 -0.0272437 1.16584e-20)
(1.12766 -0.0363357 -1.16592e-20)
(1.12441 -0.0461141 -1.1613e-20)
(1.12176 -0.056713 5.9449e-21)
(1.11941 -0.0683294 2.24937e-20)
(1.11712 -0.0811405 3.87943e-20)
(1.11459 -0.0953775 7.56947e-20)
(1.11147 -0.111387 2.81019e-19)
(1.10734 -0.129598 5.13197e-20)
(1.10149 -0.1506 0)
(1.09296 -0.175258 0)
(1.08026 -0.204595 -1.05709e-19)
(1.06054 -0.24001 3.21803e-20)
(1.02889 -0.283022 -4.03141e-19)
(0.976152 -0.334192 1.90894e-19)
(0.884397 -0.389166 -2.55282e-19)
(0.724237 -0.412665 0)
(0.509821 -0.320983 3.64267e-18)
(0.382469 -0.0717256 -1.19241e-18)
(0.428165 0.219159 -5.15182e-18)
(0.626294 0.394832 2.02855e-18)
(0.81853 0.413389 0)
(0.940934 0.363813 -8.37087e-19)
(1.01013 0.309663 2.88583e-19)
(1.05079 0.262011 2.46962e-19)
(1.07565 0.222444 1.1741e-19)
(1.09139 0.189793 1.07203e-19)
(1.10166 0.162551 1.54354e-19)
(1.10863 0.139456 0)
(1.11336 0.11963 -3.51898e-20)
(1.11675 0.102358 2.73515e-19)
(1.11942 0.0871142 0)
(1.12166 0.0735097 -1.32169e-21)
(1.12386 0.0612571 -1.01254e-20)
(1.12632 0.0501177 -3.25031e-20)
(1.1293 0.039907 -1.06076e-20)
(1.13315 0.0304872 2.00667e-20)
(1.13828 0.021732 -1.04129e-20)
(1.14525 0.0135366 -1.07932e-20)
(1.15496 0.00580892 -8.1123e-22)
(1.16824 -0.00149186 7.96214e-21)
(1.18189 -0.00801023 7.03304e-21)
(1.17303 -0.0121231 -1.4285e-20)
(1.07896 -0.0111973 -2.04905e-20)
(0.826675 -0.00575205 -1.18121e-20)
(0.406575 -0.000992432 -2.19837e-20)
(0.220383 0.000338402 -1.21301e-18)
(0.687559 0.0036966 0)
(1.00384 0.00894475 -3.37042e-19)
(1.15443 0.0115997 3.0666e-19)
(1.18951 0.00911579 3.03718e-19)
(1.18093 0.00324787 0)
(1.167 -0.00386282 3.13948e-19)
(1.15668 -0.0114597 0)
(1.14971 -0.0194967 0)
(1.14498 -0.0280629 1.55752e-19)
(1.14179 -0.0372613 0)
(1.1397 -0.0472101 -1.4795e-19)
(1.13845 -0.0580641 -4.87039e-21)
(1.13778 -0.0700317 1.83359e-20)
(1.13756 -0.0833272 2.70962e-20)
(1.1376 -0.098254 2.62465e-20)
(1.13775 -0.115235 1.58389e-20)
(1.13783 -0.134865 -2.30816e-21)
(1.1376 -0.158003 -3.26526e-20)
(1.13675 -0.186019 2.48339e-20)
(1.13475 -0.221021 -1.19861e-19)
(1.13042 -0.266629 9.31503e-21)
(1.12173 -0.329447 0)
(1.10439 -0.425486 0)
(1.04438 -0.573793 1.05912e-19)
(0.794557 -0.657238 0)
(0.206894 -0.353159 6.52245e-17)
(0.355692 0.4502 -6.67473e-20)
(0.898069 0.658796 -3.36614e-21)
(1.09307 0.49415 -2.26323e-20)
(1.11892 0.373369 6.3532e-20)
(1.13142 0.296524 1.90048e-19)
(1.13769 0.24281 1.76758e-19)
(1.14069 0.202595 -3.12736e-20)
(1.14189 0.170914 -3.86584e-22)
(1.1422 0.145108 1.05496e-20)
(1.14201 0.123503 -3.7024e-23)
(1.14162 0.105051 -3.07203e-20)
(1.14125 0.089005 6.3646e-21)
(1.14111 0.0748548 -1.6033e-20)
(1.14137 0.0622308 -8.78303e-21)
(1.14221 0.0508475 -5.66489e-22)