/*--------------------------------*- C++ -*----------------------------------*\
  =========                 |
  \\      /  F ield         | OpenFOAM: The Open Source CFD Toolbox
   \\    /   O peration     | Website:  https://openfoam.org
    \\  /    A nd           | Version:  7
     \\/     M anipulation  |
\*---------------------------------------------------------------------------*/
FoamFile
{
    version     2.0;
    format      ascii;
    class       volScalarField;
    location    "45";
    object      k;
}
// * * * * * * * * * * * * * * * * * * * * * * * * * * * * * * * * * * * * * //

dimensions      [0 2 -2 0 0 0 0];

internalField   nonuniform List<scalar> 
17475
(
0.00763366
0.0124983
0.0125514
0.0125508
0.0125506
0.0125505
0.0125505
0.0125505
0.0125504
0.0125502
0.0125503
0.0125506
0.0125503
0.0125503
0.0125505
0.0125503
0.0125503
0.0125505
0.0125503
0.0125502
0.0125508
0.012551
0.0125495
0.0125515
0.0125469
0.0125588
0.0125588
0.012559
0.0125591
0.0125588
0.0125587
0.0125587
0.0125586
0.0125586
0.0125585
0.0125585
0.0125584
0.0125581
0.0125586
0.0125629
0.0125696
0.012576
0.0125821
0.0125878
0.0125928
0.0125975
0.0126018
0.0126057
0.0126092
0.0126126
0.0126156
0.0126185
0.0126207
0.0126101
0.0120188
0.000246156
0.00440848
0.00528564
0.00530437
0.00529493
0.00529059
0.00528855
0.00528726
0.00528653
0.005286
0.00528568
0.00528539
0.00528519
0.00528504
0.00528486
0.00528476
0.00528463
0.00528452
0.00528441
0.00528434
0.00528427
0.00528418
0.00528519
0.00528294
0.00528689
0.00529082
0.00529373
0.00529387
0.00529392
0.00529348
0.00529331
0.00529328
0.00529328
0.00529327
0.00529329
0.00529325
0.00529323
0.00529298
0.00529205
0.00529294
0.0052948
0.00529695
0.00529922
0.00530141
0.00530356
0.00530562
0.0053077
0.00530984
0.00531223
0.00531507
0.0053189
0.00532422
0.00532147
0.00502948
0.00162959
3.09301e-05
0.00184668
0.00307721
0.00319513
0.00318636
0.00317744
0.00317243
0.00316944
0.00316761
0.00316631
0.00316541
0.00316474
0.00316423
0.00316378
0.00316342
0.00316311
0.0031628
0.00316253
0.00316228
0.00316202
0.00316177
0.00316206
0.00316165
0.00316321
0.00316425
0.00316569
0.00316758
0.00316841
0.00316842
0.00316826
0.00316808
0.00316814
0.00316827
0.0031684
0.00316855
0.0031687
0.00316883
0.00316855
0.00316821
0.00316851
0.00316911
0.00316989
0.00317084
0.00317194
0.00317318
0.00317459
0.00317628
0.00317849
0.0031815
0.00318599
0.00319297
0.00320138
0.00315741
0.00249678
0.000283304
9.86772e-06
0.000848918
0.00201189
0.00223588
0.00224421
0.0022341
0.00222727
0.00222296
0.00222011
0.00221812
0.00221674
0.00221568
0.00221483
0.00221412
0.00221353
0.002213
0.00221251
0.00221205
0.00221162
0.0022112
0.00221107
0.00221068
0.00221136
0.00221209
0.00221284
0.00221341
0.0022141
0.00221486
0.00221513
0.00221517
0.00221502
0.00221517
0.00221542
0.00221571
0.002216
0.00221634
0.00221664
0.00221655
0.00221657
0.00221702
0.00221755
0.0022182
0.00221902
0.00222003
0.00222129
0.00222286
0.0022249
0.00222771
0.00223178
0.00223794
0.00224708
0.00224988
0.00213842
0.00133354
8.90789e-05
4.46948e-06
0.000439777
0.00138557
0.00168593
0.00171894
0.0017119
0.00170434
0.00169921
0.00169568
0.0016932
0.00169139
0.00169
0.00168888
0.00168794
0.00168712
0.0016864
0.00168573
0.00168508
0.00168446
0.00168406
0.00168349
0.00168366
0.00168385
0.00168407
0.00168437
0.00168472
0.00168505
0.00168537
0.00168573
0.00168589
0.00168589
0.00168614
0.00168653
0.00168695
0.0016874
0.00168791
0.0016883
0.00168838
0.00168886
0.00168948
0.00169015
0.00169092
0.00169185
0.001693
0.00169445
0.00169632
0.00169875
0.00170213
0.00170697
0.00171407
0.00172271
0.00171151
0.00153789
0.000772156
4.1935e-05
2.44744e-06
0.000256395
0.000986896
0.00132578
0.00138431
0.00138325
0.00137593
0.00137043
0.00136648
0.00136361
0.00136152
0.00135989
0.00135854
0.0013574
0.00135639
0.00135548
0.00135464
0.00135381
0.00135314
0.00135238
0.00135214
0.00135196
0.00135179
0.00135169
0.00135165
0.00135173
0.00135184
0.00135203
0.00135227
0.00135259
0.00135273
0.0013531
0.00135361
0.00135416
0.00135477
0.00135545
0.0013559
0.00135633
0.00135707
0.00135787
0.0013587
0.00135963
0.00136071
0.00136202
0.0013637
0.00136585
0.00136861
0.00137234
0.00137762
0.00138474
0.00139025
0.00136199
0.00114501
0.000485891
2.44664e-05
1.51888e-06
0.000164992
0.000724442
0.00107007
0.00115126
0.00115764
0.00115172
0.00114619
0.00114202
0.00113892
0.00113664
0.00113483
0.0011333
0.00113199
0.00113082
0.00112974
0.00112875
0.00112785
0.00112686
0.00112622
0.00112573
0.0011253
0.00112485
0.00112448
0.00112418
0.00112406
0.00112396
0.00112402
0.00112424
0.00112466
0.00112499
0.00112542
0.00112605
0.00112676
0.00112752
0.00112836
0.00112895
0.00112968
0.00113063
0.00113159
0.00113259
0.00113367
0.0011349
0.00113638
0.00113822
0.00114061
0.00114359
0.00114744
0.0011527
0.00115933
0.00116028
0.00111521
0.000875264
0.000330279
1.60745e-05
1.03141e-06
0.000114821
0.000547772
0.000879455
0.000978997
0.000993197
0.000989441
0.000984192
0.000980023
0.000976865
0.000974442
0.000972505
0.000970791
0.000969285
0.000968022
0.000966792
0.000965661
0.000964493
0.000963551
0.000962678
0.000961935
0.000961259
0.000960563
0.000959917
0.000959398
0.000959121
0.00095886
0.000958808
0.000958999
0.000959473
0.000959972
0.000960495
0.000961253
0.000962148
0.000963107
0.000964049
0.000964857
0.000965881
0.000967021
0.00096814
0.000969302
0.000970514
0.000971898
0.000973516
0.000975497
0.000977987
0.000980947
0.000984818
0.000990019
0.000995458
0.000991095
0.000931452
0.00068516
0.000238299
1.12792e-05
7.47842e-07
8.45624e-05
0.000426141
0.000733197
0.000846444
0.000868238
0.000867226
0.000862522
0.000858448
0.000855256
0.000852819
0.000850809
0.000848909
0.000847206
0.000845889
0.000844478
0.000843046
0.0008419
0.00084067
0.000839484
0.000838466
0.000837539
0.00083654
0.000835612
0.000834964
0.00083452
0.000834056
0.000833887
0.000834066
0.00083467
0.000835325
0.000835996
0.0008369
0.000838017
0.000839162
0.000840229
0.000841352
0.000842624
0.000843887
0.000845149
0.000846504
0.000847797
0.000849246
0.000850969
0.000852969
0.000855473
0.000858513
0.000862304
0.000867179
0.000870908
0.000861102
0.000789224
0.00054781
0.000180604
8.4216e-06
5.69275e-07
6.49987e-05
0.000340385
0.000619105
0.00074153
0.000770316
0.000772405
0.000768641
0.000764584
0.000761319
0.000758992
0.00075693
0.000754936
0.000753082
0.000751726
0.00075013
0.000748574
0.000747193
0.000745528
0.000743956
0.000742667
0.000741555
0.000740266
0.000739026
0.000738141
0.000737424
0.000736684
0.000736429
0.000736699
0.00073745
0.000738272
0.00073912
0.000740164
0.00074152
0.000742834
0.000744176
0.000745671
0.000747093
0.00074834
0.00074976
0.000751311
0.000752647
0.000754092
0.000755783
0.000757773
0.000760448
0.000763565
0.000767052
0.000771354
0.000773346
0.00075852
0.000677834
0.000448604
0.000142576
6.59451e-06
4.49412e-07
5.16598e-05
0.000278475
0.000529084
0.000656571
0.000691703
0.000696858
0.000694247
0.000690248
0.000686848
0.000684632
0.000682788
0.000680928
0.000678882
0.000677387
0.000675847
0.000674088
0.000672508
0.000670469
0.000668417
0.000666755
0.000665426
0.000663927
0.000662499
0.000661334
0.000660296
0.000659167
0.000658821
0.000659188
0.000660004
0.00066095
0.000662015
0.000663345
0.000665031
0.000666427
0.000668197
0.000669832
0.000671304
0.000672565
0.000674109
0.00067567
0.000677051
0.000678445
0.000680037
0.000682338
0.000685169
0.000688357
0.000691479
0.00069509
0.000695069
0.000675834
0.000588984
0.000375082
0.00011608
5.34606e-06
3.65397e-07
4.22058e-05
0.000232742
0.000457426
0.000586557
0.000627497
0.00063532
0.000633744
0.000629918
0.00062659
0.000624638
0.000623205
0.000621398
0.000619097
0.000617478
0.000615918
0.000613854
0.000612092
0.00060969
0.000607341
0.000605523
0.000603781
0.000601962
0.000600427
0.000599149
0.000597771
0.000596398
0.000595897
0.000596145
0.000597099
0.000598197
0.000599567
0.000601185
0.000603129
0.000604774
0.000606786
0.000608682
0.000610123
0.000611305
0.000612987
0.000614669
0.00061591
0.000617015
0.000618839
0.000621619
0.000624611
0.000627854
0.000630481
0.000633089
0.000631308
0.000608045
0.000517211
0.00031955
9.69322e-05
4.45951e-06
3.04556e-07
3.5317e-05
0.000198204
0.000399877
0.00052797
0.000574058
0.000584158
0.000583901
0.000580097
0.000576468
0.000574936
0.000574431
0.00057255
0.00057013
0.000568465
0.000566561
0.000564276
0.00056235
0.000559739
0.00055741
0.000555547
0.000553218
0.000550838
0.000549625
0.000548703
0.000546664
0.000544935
0.000544641
0.000545153
0.000545913
0.000546935
0.000548744
0.000550554
0.000552565
0.000554535
0.000556637
0.000558796
0.000560352
0.000561426
0.000562505
0.000564193
0.000565616
0.000566945
0.000568695
0.000571464
0.000575105
0.000578275
0.000580301
0.000582156
0.000578751
0.000551706
0.000458477
0.000276615
8.26201e-05
3.80997e-06
2.58754e-07
3.01004e-05
0.000171514
0.000353173
0.00047897
0.000528414
0.000540386
0.000541262
0.00053766
0.000534764
0.000533448
0.00053293
0.000531169
0.000528922
0.000527164
0.000524839
0.000522419
0.000519997
0.00051725
0.000514671
0.00051251
0.000510135
0.000507818
0.000506654
0.000506176
0.000504368
0.000502304
0.000501449
0.000501853
0.00050294
0.000504477
0.000506137
0.000507948
0.000509919
0.000511943
0.000514075
0.000516279
0.000517793
0.000519041
0.000520367
0.000521947
0.00052352
0.000524943
0.000526437
0.000529139
0.000533085
0.000535858
0.0005378
0.000538715
0.000533569
0.000503602
0.000409673
0.000242265
7.13364e-05
3.28073e-06
2.23316e-07
2.60421e-05
0.000150372
0.000314649
0.00043487
0.000486764
0.000500873
0.00050242
0.000499437
0.000496666
0.000495679
0.000495229
0.000493589
0.000491499
0.00048957
0.000487178
0.000484586
0.000481874
0.000478992
0.000476319
0.000473951
0.000471806
0.000470089
0.000469535
0.000470481
0.000470547
0.000468878
0.0004682
0.000468363
0.000469033
0.000470143
0.000469669
0.000470503
0.000472256
0.000473899
0.000475908
0.000477989
0.000479743
0.000481308
0.000482674
0.000484237
0.000485864
0.000487336
0.000488875
0.000491356
0.000494952
0.000497615
0.000499314
0.000499537
0.000492593
0.000460214
0.000368172
0.000214764
6.24479e-05
2.85535e-06
1.95281e-07
2.28353e-05
0.000133234
0.00028222
0.000395878
0.000449126
0.000464862
0.000467142
0.000464698
0.000462296
0.000461474
0.000460974
0.000459428
0.000457443
0.000455417
0.000453064
0.000450442
0.000447545
0.00044467
0.000442151
0.000439891
0.000438688
0.000438835
0.000440577
0.000446486
0.000459756
0.000468326
0.000472788
0.000471646
0.000464747
0.000453396
0.000441581
0.0004405
0.000439783
0.000440392
0.00044204
0.000443828
0.000445604
0.000447287
0.00044867
0.000450101
0.000451747
0.000453258
0.000454712
0.00045697
0.000460264
0.000462811
0.000464235
0.000463734
0.000455359
0.000421103
0.000332007
0.000191968
5.51566e-05
2.50873e-06
1.70771e-07
2.01452e-05
0.000118931
0.00025429
0.000361138
0.000414798
0.000431914
0.000434888
0.000432936
0.00043088
0.000430159
0.000429592
0.000428144
0.000426273
0.000424223
0.000421988
0.00041941
0.000416415
0.000413712
0.000411626
0.000410213
0.000411045
0.000415037
0.000431413
0.000466849
0.000477031
0.000436816
0.000394689
0.000396281
0.000469483
0.00048177
0.000447173
0.000420753
0.000413472
0.000411669
0.000411964
0.000413198
0.00041474
0.000416481
0.000417878
0.000419072
0.000420649
0.000422163
0.000423594
0.000425658
0.000428623
0.000431009
0.000432218
0.000431107
0.000421528
0.000386144
0.000300946
0.000172987
4.91722e-05
2.22547e-06
1.34305e-07
1.74006e-05
0.000105535
0.00022936
0.000329451
0.000383208
0.000401567
0.000405227
0.00040369
0.000401892
0.00040123
0.000400637
0.000399293
0.000397555
0.000395561
0.000393523
0.00039103
0.000388096
0.000385703
0.00038401
0.000384017
0.000388671
0.000406299
0.000436169
0.000371668
0.000118921
2.17009e-06
1.20248e-05
0.000311651
0.000431942
0.000428391
0.000395394
0.000386801
0.000385068
0.000385389
0.000386696
0.000388467
0.00038982
0.000390864
0.000392368
0.000393811
0.000395187
0.000397061
0.000399695
0.000401861
0.000402812
0.000401164
0.000390644
0.0003546
0.000273881
0.000156665
4.40211e-05
1.98052e-06
4.95461e-08
1.23472e-05
8.96629e-05
0.00020422
0.000298523
0.00035346
0.000373304
0.000377744
0.000376597
0.000374989
0.000374383
0.000373793
0.000372533
0.000370931
0.000369096
0.000367299
0.000364812
0.000362082
0.000359944
0.000358989
0.0003608
0.000372308
0.000394908
0.000322031
8.68932e-05
3.86166e-07
0.000186586
0.000398044
0.000384993
0.000365255
0.000360464
0.000360043
0.000360959
0.000362674
0.000364032
0.000364868
0.000366307
0.000367698
0.000369012
0.000370709
0.000373026
0.000374939
0.000375629
0.000373579
0.00036246
0.000326063
0.000250281
0.000142648
3.90691e-05
1.63238e-06
6.70919e-08
1.30548e-05
8.35577e-05
0.000187351
0.000274565
0.000325444
0.000345367
0.000350208
0.000349419
0.000347882
0.000347163
0.000346685
0.000345559
0.000343836
0.000342244
0.000340408
0.00033836
0.000336214
0.000334261
0.000333874
0.000338213
0.000353511
0.000337541
0.00014456
9.79164e-06
4.71482e-05
0.00027741
0.000359344
0.000343062
0.000334949
0.000333661
0.000334874
0.000336396
0.000337754
0.000338649
0.000340128
0.000341756
0.00034319
0.000344893
0.000346904
0.000348353
0.00034863
0.000346288
0.00033492
0.000300167
0.000228987
0.000130844
3.72556e-05
1.8197e-06
9.60162e-08
1.27975e-05
7.92569e-05
0.000174041
0.000252882
0.000300149
0.000319389
0.000324154
0.000323416
0.000322091
0.000321609
0.000320965
0.000319878
0.000318302
0.00031677
0.000315005
0.000313411
0.000311642
0.000309727
0.000309589
0.000315414
0.000320568
0.000253161
7.18247e-05
4.60601e-06
7.84829e-08
3.14949e-07
2.32963e-05
0.000175025
0.000309511
0.000319359
0.000310818
0.000308933
0.000310096
0.000311221
0.000312419
0.000313246
0.000314895
0.0003166
0.0003182
0.000319995
0.000321817
0.000323076
0.000323096
0.000320662
0.000309392
0.000275783
0.000209922
0.000119993
3.39055e-05
1.54662e-06
9.71975e-08
1.17205e-05
7.28319e-05
0.000159792
0.000231881
0.000276405
0.000295303
0.000300245
0.000299724
0.000298566
0.000298146
0.000297348
0.000296144
0.000294704
0.000293316
0.000291713
0.0002904
0.000289023
0.000287012
0.000286906
0.00029175
0.000281803
0.00018697
4.76735e-05
6.18863e-06
1.50286e-06
1.48517e-06
1.71842e-06
1.37703e-06
1.02918e-06
1.83224e-06
1.84097e-05
0.0001185
0.000255313
0.000291252
0.000287612
0.000285667
0.000287082
0.00028807
0.000289021
0.000289829
0.000291562
0.000293414
0.000295165
0.000297098
0.000298877
0.000299877
0.000299596
0.000297113
0.000286084
0.000253948
0.000192955
0.00011034
3.08071e-05
1.37585e-06
8.96716e-08
1.06637e-05
6.65448e-05
0.000146617
0.000212806
0.000254836
0.000273464
0.000278551
0.000278285
0.000277175
0.000276601
0.000275782
0.000274483
0.000273089
0.000271766
0.000270345
0.000269384
0.000268176
0.000266083
0.000265842
0.000267835
0.000243785
0.000144159
3.92321e-05
9.09088e-06
7.57464e-06
1.09541e-05
1.25346e-05
1.08586e-05
6.75991e-06
4.68035e-06
1.8055e-05
9.04925e-05
0.000210559
0.000262632
0.00026542
0.0002639
0.000265541
0.000266801
0.000267666
0.000268455
0.00027015
0.000272035
0.000273922
0.000275967
0.000277753
0.000278576
0.000278131
0.000275663
0.000264873
0.000234252
0.000177845
0.000101638
2.80279e-05
1.23931e-06
8.14979e-08
9.68797e-06
6.08281e-05
0.000134689
0.000195653
0.000235293
0.000253562
0.000258739
0.000258729
0.000257635
0.000256873
0.000256046
0.000254711
0.000253287
0.00025195
0.000250737
0.000250051
0.000248913
0.000246827
0.00024658
0.00024534
0.000211544
0.000118809
3.74302e-05
1.39134e-05
1.46705e-05
1.74142e-05
1.80323e-05
1.53233e-05
1.04244e-05
8.55136e-06
2.12635e-05
7.82717e-05
0.000177082
0.00023579
0.00024467
0.000244122
0.000245711
0.000247206
0.000248086
0.000248983
0.000250741
0.000252597
0.000254377
0.000256436
0.000258264
0.000258997
0.000258475
0.000255994
0.000245438
0.000216375
0.000164214
9.37267e-05
2.55605e-05
1.12331e-06
7.38202e-08
8.78906e-06
5.56187e-05
0.000123859
0.000180155
0.000217486
0.000235314
0.000240501
0.000240746
0.00023973
0.000238847
0.000237984
0.000236637
0.000235172
0.000233757
0.000232764
0.000232294
0.000231291
0.000229435
0.000229237
0.000225155
0.000187451
0.000106439
3.85131e-05
1.8917e-05
1.93783e-05
2.26382e-05
2.33414e-05
1.98116e-05
1.43165e-05
1.4435e-05
2.7009e-05
7.38602e-05
0.000154582
0.000212022
0.000225815
0.000226488
0.000227864
0.000229333
0.000230211
0.000231227
0.000233053
0.000234912
0.000236489
0.000238455
0.000240278
0.00024099
0.000240512
0.00023795
0.000227475
0.000199855
0.000151582
8.62817e-05
2.32601e-05
1.0171e-06
6.6717e-08
7.9593e-06
5.07953e-05
0.000113821
0.000165845
0.000200954
0.000218247
0.000223544
0.000224149
0.000223328
0.000222453
0.000221371
0.000219998
0.000218579
0.00021706
0.000216225
0.000216008
0.000215347
0.000213841
0.000213639
0.000207756
0.000170727
0.000102146
4.35141e-05
2.32025e-05
2.36674e-05
2.94089e-05
3.1509e-05
2.76869e-05
2.19752e-05
2.31278e-05
3.49448e-05
7.49365e-05
0.000139846
0.000192019
0.000208681
0.000210817
0.000211874
0.000213009
0.000213957
0.000215109
0.000216939
0.000218817
0.00022002
0.000221867
0.000223639
0.000224338
0.00022395
0.000221325
0.000210828
0.000184582
0.000139878
7.93098e-05
2.11271e-05
9.13315e-07
6.02058e-08
7.19733e-06
4.63422e-05
0.0001045
0.0001525
0.000185414
0.000201746
0.000207623
0.000208705
0.000208204
0.000206828
0.000205915
0.000204538
0.00020335
0.000201676
0.000200816
0.000201025
0.000200931
0.000199769
0.000199473
0.000192657
0.000159221
9.98014e-05
5.27499e-05
2.79029e-05
2.80938e-05
3.74361e-05
4.26391e-05
3.97667e-05
3.37456e-05
3.511e-05
4.69204e-05
7.94551e-05
0.000130349
0.000174978
0.000193475
0.00019677
0.000197517
0.000198204
0.000199268
0.000200586
0.00020234
0.000203701
0.000204604
0.000206489
0.000208202
0.000208941
0.000208519
0.000205854
0.000195343
0.00017039
0.000128904
7.26865e-05
1.90795e-05
8.12934e-07
5.42806e-08
6.50283e-06
4.222e-05
9.58041e-05
0.000139971
0.000170509
0.000186884
0.000192815
0.000194167
0.00019405
0.000193044
0.000191594
0.000190326
0.000189211
0.000187584
0.000186758
0.000187344
0.00018786
0.00018698
0.000186217
0.000178859
0.000150224
0.000103127
6.49697e-05
3.60788e-05
3.33752e-05
4.77679e-05
5.84219e-05
5.76828e-05
5.27391e-05
5.62896e-05
6.79735e-05
9.07056e-05
0.000124915
0.000160613
0.000179871
0.000183977
0.000184277
0.000184569
0.000185712
0.000187494
0.000189104
0.000190187
0.00019072
0.000192397
0.000193855
0.000194396
0.000194241
0.000191596
0.000181032
0.000157142
0.000118816
6.65485e-05
1.72165e-05
7.24236e-07
4.88925e-08
5.86784e-06
3.84113e-05
8.75979e-05
0.000128205
0.000157432
0.000173509
0.000179316
0.000181092
0.000181385
0.000180873
0.000178534
0.000177351
0.000176706
0.000174879
0.000174196
0.000175118
0.0001761
0.00017552
0.000173985
0.000166716
0.000142381
0.000108056
8.02487e-05
5.25323e-05
4.21121e-05
6.02771e-05
8.10944e-05
9.03023e-05
9.38709e-05
0.000101248
0.000107474
0.000111076
0.000120988
0.000147861
0.00016815
0.000172628
0.000172351
0.000173011
0.000174381
0.000175696
0.000177356
0.000178334
0.000178449
0.000179611
0.000180884
0.000181269
0.000181254
0.00017867
0.000167858
0.000145079
0.000109497
6.09989e-05
1.55501e-05
6.46582e-07
4.39915e-08
5.28893e-06
3.49159e-05
8.00602e-05
0.000117489
0.000145325
0.000161408
0.000167546
0.000169625
0.000170544
0.000169605
0.000167206
0.000165786
0.000165532
0.000163894
0.000163285
0.000164495
0.000165786
0.000165367
0.000163268
0.000155395
0.000134858
0.000112353
0.000100423
8.21677e-05
5.95761e-05
7.52392e-05
0.000107528
0.00013376
0.000164616
0.000188441
0.000179975
0.000140425
0.000120258
0.000137796
0.000158484
0.000162916
0.000161945
0.000162884
0.000163911
0.000165179
0.000166959
0.000167861
0.000167933
0.000168516
0.000169729
0.000169878
0.000169843
0.000167214
0.000156131
0.000134376
0.000101186
5.59739e-05
1.40706e-05
5.79088e-07
3.9587e-08
4.7677e-06
3.17728e-05
7.35413e-05
0.000108285
0.000134672
0.000150742
0.000157148
0.000159367
0.000160524
0.000159982
0.000157479
0.000155779
0.000155463
0.00015428
0.000153544
0.000154687
0.000156315
0.000156265
0.000153026
0.000144915
0.000128778
0.000121218
0.000130103
0.000133427
0.000104029
0.00010006
0.00014042
0.000178544
0.000250671
0.000336428
0.000308137
0.000183412
0.00012618
0.000129426
0.000150851
0.000154475
0.000152893
0.000153694
0.000154651
0.000155605
0.000157626
0.000158377
0.000158258
0.000158778
0.000159834
0.000160179
0.000159817
0.000156874
0.000145827
0.000125013
9.39373e-05
5.14554e-05
1.27572e-05
5.2014e-07
3.57052e-08
4.30876e-06
2.90266e-05
6.79212e-05
0.000100273
0.000125428
0.000141514
0.000147604
0.000149626
0.000151332
0.00015143
0.000149212
0.00014716
0.000146597
0.00014565
0.000144849
0.000145575
0.000147308
0.000147557
0.000142961
0.000134835
0.000123204
0.000133769
0.000177981
0.000226235
0.000204998
0.000159391
0.000192169
0.000230065
0.000328814
0.0005244
0.00050521
0.000243573
0.000134068
0.000123366
0.000143988
0.000146806
0.000144949
0.000145236
0.00014595
0.000146784
0.00014889
0.000149417
0.00014941
0.00015003
0.000151206
0.000151439
0.000150807
0.000147513
0.000136334
0.00011645
8.74887e-05
4.74776e-05
1.15942e-05
4.6883e-07
3.2367e-08
3.91272e-06
2.66237e-05
6.28372e-05
9.29416e-05
0.000116835
0.000132978
0.000139009
0.000140861
0.000142577
0.000143335
0.000141569
0.000139158
0.000138382
0.000137633
0.000136997
0.000137121
0.000138939
0.000139357
0.000134582
0.000127138
0.000119465
0.000151295
0.000254146
0.000391441
0.000398347
0.000302872
0.000284231
0.000306907
0.000391819
0.000696585
0.000775208
0.0003116
0.000140965
0.000118323
0.000138
0.000139624
0.000137563
0.000137472
0.000137779
0.000138924
0.000140775
0.00014094
0.000141213
0.00014198
0.000143292
0.000143348
0.000142582
0.000139054
0.000127748
0.000108678
8.16143e-05
4.39284e-05
1.05691e-05
4.24087e-07
2.94783e-08
3.56896e-06
2.44784e-05
5.82231e-05
8.6136e-05
0.000108839
0.00012468
0.000130685
0.000132722
0.000134186
0.000135499
0.000134512
0.000132068
0.00013057
0.000129693
0.000129658
0.000129459
0.000131323
0.000132187
0.000125218
0.000121039
0.000118918
0.000173798
0.000367109
0.000656276
0.000717988
0.000575194
0.000460668
0.000442195
0.000496012
0.000836925
0.00101947
0.00036798
0.000146467
0.000117794
0.000132342
0.000132897
0.000130704
0.000130148
0.000130047
0.000131705
0.000133075
0.000132943
0.000133473
0.000134378
0.000135562
0.000135623
0.000134717
0.000131103
0.000119905
0.000101623
7.62397e-05
4.06906e-05
9.66355e-06
3.85125e-07
2.69404e-08
3.26511e-06
2.2547e-05
5.41168e-05
8.02098e-05
0.000101529
0.000116376
0.000122528
0.000124436
0.000126303
0.00012799
0.000127694
0.000125263
0.000123064
0.000121665
0.000121994
0.000122481
0.000124432
0.000125385
0.000123276
0.000116114
0.000115322
0.000204415
0.000530697
0.00104144
0.00118285
0.000986471
0.000768039
0.000665094
0.00069127
0.0010662
0.001225
0.000444021
0.000153939
0.000119611
0.000127719
0.000126487
0.000124422
0.000122968
0.000122945
0.000124754
0.00012556
0.000125489
0.00012617
0.000127145
0.000128069
0.000128095
0.000127156
0.000123421
0.00011243
9.50603e-05
7.12689e-05
3.76999e-05
8.84964e-06
3.50787e-07
2.46536e-08
2.99056e-06
2.07604e-05
5.03959e-05
7.47383e-05
9.43877e-05
0.000108293
0.000114562
0.000116613
0.00011865
0.000120611
0.000120967
0.00011861
0.000116084
0.00011458
0.000114854
0.000115759
0.000117239
0.000118083
0.000118114
0.000111564
0.000113848
0.000230196
0.000735132
0.00158438
0.00179418
0.00151816
0.00118949
0.000957662
0.000948772
0.00143941
0.00150866
0.00042076
0.000151019
0.000121696
0.000122747
0.000120332
0.00011807
0.000116487
0.0001169
0.000118239
0.000118366
0.000118609
0.000119193
0.000120116
0.000121131
0.000120719
0.000119353
0.000115905
0.000105393
8.89181e-05
6.6534e-05
3.49229e-05
8.11103e-06
3.20035e-07
2.26526e-08
2.75047e-06
1.92436e-05
4.7161e-05
6.99077e-05
8.74092e-05
0.000100842
0.00010779
0.000110681
0.000112113
0.000113566
0.00011398
0.00011253
0.000109709
0.00010858
0.000108568
0.000109449
0.000110867
0.000111244
0.000112574
0.000105685
0.000116414
0.000252065
0.000915947
0.00213929
0.00245414
0.00207787
0.00162565
0.0012739
0.0012729
0.0018799
0.0013977
0.000363572
0.000142502
0.000117946
0.000116657
0.000113911
0.00011171
0.000110103
0.000111453
0.000112169
0.000111751
0.00011204
0.000112378
0.000113639
0.000114378
0.000113933
0.000111506
0.000108922
9.87929e-05
8.30498e-05
6.21669e-05
3.24251e-05
7.44741e-06
2.9256e-07
2.09535e-08
2.54562e-06
1.79069e-05
4.40723e-05
6.52784e-05
8.123e-05
9.38197e-05
0.000102153
0.000105948
0.00010596
0.000107143
0.000107737
0.000107398
0.000103455
0.000103081
0.000102665
0.000103964
0.000105344
0.000104603
0.000106443
0.000104549
0.000117216
0.00026296
0.000985617
0.00234717
0.00290756
0.00249762
0.00193825
0.00155152
0.00169934
0.00228448
0.00126728
0.000336689
0.000135155
0.000112404
0.000109864
0.0001068
0.000104507
0.00010347
0.000106051
0.000106191
0.000105273
0.000105565
0.000106197
0.000106858
0.00010814
0.000107284
0.000104943
0.000102423
9.25229e-05
7.79455e-05
5.84128e-05
3.02394e-05
6.88009e-06
2.68904e-07
1.9334e-08
2.35248e-06
1.66123e-05
4.14961e-05
6.13496e-05
7.62451e-05
8.84267e-05
9.7097e-05
9.98566e-05
9.99774e-05
0.000100921
0.000101866
0.000102403
9.82129e-05
9.82557e-05
9.7783e-05
9.94376e-05
0.000100007
9.90186e-05
0.000101197
0.00010152
0.000119382
0.00027379
0.00101294
0.00250961
0.00304989
0.00258336
0.00197897
0.00176475
0.00235954
0.00249878
0.00110586
0.000291964
0.000127049
0.000106032
0.000103351
0.000101002
9.8331e-05
9.75142e-05
0.00010095
0.000100253
9.96441e-05
9.89225e-05
9.94912e-05
0.000101266
0.000102441
0.000101448
9.97358e-05
9.626e-05
8.65351e-05
7.34002e-05
5.51467e-05
2.83482e-05
6.38995e-06
2.48537e-07
1.81398e-08
2.20475e-06
1.55801e-05
3.92815e-05
5.75745e-05
7.06376e-05
8.19909e-05
9.21398e-05
9.55537e-05
9.43884e-05
9.40272e-05
9.45208e-05
9.67943e-05
9.40543e-05
9.11805e-05
9.19728e-05
9.3182e-05
9.40391e-05
9.44861e-05
9.52427e-05
9.73217e-05
0.000122095
0.000268965
0.00104996
0.00269307
0.00304289
0.00245597
0.00198151
0.00211244
0.00283146
0.00246051
0.000982809
0.000274691
0.00012107
0.000101646
9.66905e-05
9.5942e-05
9.28226e-05
9.22899e-05
9.63908e-05
9.49043e-05
9.4515e-05
9.3445e-05
9.34822e-05
9.62772e-05
9.73454e-05
9.66745e-05
9.46201e-05
9.03665e-05
8.04514e-05
6.92247e-05
5.24968e-05
2.67296e-05
5.99254e-06
2.32984e-07
1.70076e-08
2.0499e-06
1.44289e-05
3.67186e-05
5.41664e-05
6.58707e-05
7.73438e-05
8.79383e-05
9.27693e-05
8.9601e-05
9.04964e-05
9.00847e-05
9.07803e-05
9.07996e-05
8.55721e-05
8.71174e-05
8.79229e-05
8.94957e-05
8.98987e-05
9.27459e-05
9.47381e-05
0.000119089
0.000252742
0.000991687
0.00259205
0.00283736
0.00222367
0.0020253
0.0025998
0.00305486
0.00232641
0.00094745
0.00026323
0.000116203
9.53099e-05
9.05999e-05
9.1656e-05
8.68367e-05
8.82238e-05
9.10702e-05
8.88294e-05
8.97186e-05
8.74882e-05
8.89119e-05
9.06162e-05
9.22456e-05
9.17559e-05
8.95921e-05
8.2997e-05
7.50993e-05
6.50873e-05
4.93962e-05
2.49499e-05
5.56723e-06
2.18615e-07
1.67959e-08
1.99244e-06
1.4022e-05
3.55044e-05
5.10732e-05
6.16139e-05
7.09418e-05
8.29712e-05
8.95259e-05
8.56908e-05
8.63434e-05
8.70704e-05
8.60002e-05
8.70405e-05
8.21891e-05
8.18591e-05
8.58272e-05
8.44664e-05
8.65017e-05
9.0119e-05
9.24082e-05
0.000114122
0.000230637
0.000882502
0.00235349
0.00254502
0.00203209
0.00209571
0.00295697
0.0031251
0.00214908
0.000874581
0.000261712
0.0001137
8.99722e-05
8.62468e-05
8.70784e-05
8.32566e-05
8.39551e-05
8.64846e-05
8.46115e-05
8.31807e-05
8.14956e-05
8.38422e-05
8.55338e-05
8.60662e-05
8.50065e-05
8.26265e-05
7.73937e-05
7.01461e-05
6.12198e-05
4.70733e-05
2.39423e-05
5.25733e-06
2.06859e-07
1.70678e-08
2.02378e-06
1.502e-05
3.60309e-05
5.24387e-05
6.39012e-05
6.86408e-05
7.85449e-05
8.58686e-05
8.3702e-05
8.39079e-05
8.21703e-05
8.47967e-05
8.16749e-05
8.16649e-05
8.23842e-05
8.338e-05
8.48732e-05
8.40451e-05
8.45023e-05
8.8603e-05
0.000110702
0.00020883
0.000757758
0.00207148
0.00228604
0.0019549
0.00227269
0.00308174
0.00310634
0.00206916
0.000827611
0.000254641
0.0001134
8.67726e-05
8.49545e-05
8.15901e-05
8.18557e-05
8.05795e-05
8.11443e-05
8.20245e-05
7.89725e-05
7.98944e-05
7.97202e-05
8.01691e-05
7.99417e-05
8.11931e-05
7.65537e-05
7.08417e-05
6.57029e-05
5.83428e-05
4.50123e-05
2.30133e-05
5.07986e-06
2.03622e-07
1.83852e-08
2.17498e-06
1.57119e-05
3.83106e-05
5.4192e-05
6.56992e-05
6.92596e-05
7.62043e-05
8.09353e-05
7.93706e-05
7.97275e-05
8.32143e-05
8.1059e-05
8.14882e-05
7.92658e-05
7.86329e-05
7.90888e-05
7.96598e-05
8.44462e-05
8.28782e-05
8.91456e-05
0.000106464
0.000187755
0.000635265
0.00178665
0.00208219
0.00190286
0.0024086
0.00309982
0.00310149
0.00204388
0.000758864
0.000244168
0.000110809
8.78907e-05
8.36527e-05
7.90642e-05
7.91056e-05
7.88991e-05
7.917e-05
7.64943e-05
7.73044e-05
7.73218e-05
7.9182e-05
7.86556e-05
7.88634e-05
7.57971e-05
7.2308e-05
6.86057e-05
6.14425e-05
5.56075e-05
4.46396e-05
2.32203e-05
5.11456e-06
2.05326e-07
1.99516e-08
2.34775e-06
1.69184e-05
4.22054e-05
5.96617e-05
6.76039e-05
7.35469e-05
7.80438e-05
7.60608e-05
7.97254e-05
8.13861e-05
8.01624e-05
8.25812e-05
8.01477e-05
7.72515e-05
7.74721e-05
7.82426e-05
7.93037e-05
8.43581e-05
8.36126e-05
8.8787e-05
0.000101645
0.00016903
0.000525967
0.00151299
0.00191121
0.00186466
0.00230993
0.00283386
0.00280189
0.00182628
0.000672436
0.00022957
0.000109926
8.75381e-05
7.98055e-05
7.86052e-05
7.56695e-05
7.47688e-05
7.71578e-05
7.60123e-05
7.50891e-05
7.55507e-05
7.62678e-05
7.73513e-05
7.49621e-05
7.39422e-05
7.25964e-05
6.46426e-05
6.46117e-05
5.53018e-05
4.51751e-05
2.41599e-05
5.52786e-06
2.17104e-07
2.11327e-08
2.44375e-06
1.7509e-05
4.2961e-05
6.04851e-05
6.76411e-05
7.56179e-05
7.8513e-05
7.93969e-05
7.58396e-05
7.74171e-05
7.90456e-05
8.08872e-05
7.73949e-05
7.71136e-05
7.9383e-05
7.70897e-05
7.74238e-05
7.91176e-05
8.26136e-05
8.47632e-05
9.91837e-05
0.000154459
0.000435464
0.00126531
0.00177995
0.00180106
0.00209483
0.0024643
0.00241938
0.00157257
0.000590032
0.000214006
0.000108478
8.56837e-05
7.81736e-05
7.59505e-05
7.83359e-05
7.22916e-05
7.32911e-05
7.40004e-05
7.17907e-05
7.26858e-05
7.52042e-05
7.69939e-05
7.42089e-05
7.12939e-05
6.96027e-05
6.36661e-05
6.27181e-05
5.94869e-05
5.07667e-05