/*--------------------------------*- C++ -*----------------------------------*\
  =========                 |
  \\      /  F ield         | OpenFOAM: The Open Source CFD Toolbox
   \\    /   O peration     | Website:  https://openfoam.org
    \\  /    A nd           | Version:  7
     \\/     M anipulation  |
\*---------------------------------------------------------------------------*/
FoamFile
{
    version     2.0;
    format      ascii;
    class       volScalarField;
    location    "45";
    object      nut;
}
// * * * * * * * * * * * * * * * * * * * * * * * * * * * * * * * * * * * * * //

dimensions      [0 2 -1 0 0 0 0];

internalField   nonuniform List<scalar> 
17475
(
3.12041e-05
0.00018885
0.000188081
0.000188027
0.000188026
0.000188026
0.000188025
0.000188025
0.000188025
0.000188025
0.000188025
0.000188025
0.000188025
0.000188025
0.000188025
0.000188025
0.000188025
0.000188025
0.000188025
0.000188025
0.000188025
0.000188025
0.000188025
0.000188025
0.000188023
0.000188027
0.000188027
0.000188027
0.000188027
0.000188027
0.000188027
0.000188027
0.000188027
0.000188027
0.000188027
0.000188027
0.000188027
0.000188027
0.000188027
0.000188028
0.00018803
0.000188032
0.000188033
0.000188035
0.000188036
0.000188037
0.000188038
0.000188039
0.00018804
0.000188041
0.000188042
0.000188043
0.000188054
0.000188285
0.000150676
9.21768e-07
0.000115392
0.000172095
0.000176594
0.000176756
0.00017676
0.000176758
0.000176755
0.000176753
0.000176751
0.00017675
0.000176749
0.000176748
0.000176748
0.000176747
0.000176747
0.000176746
0.000176745
0.000176744
0.000176744
0.000176743
0.000176742
0.000176745
0.000176738
0.000176747
0.00017675
0.000176755
0.000176754
0.000176754
0.000176754
0.000176753
0.000176753
0.000176753
0.000176753
0.000176753
0.000176753
0.000176753
0.000176753
0.00017675
0.00017675
0.00017675
0.00017675
0.00017675
0.000176751
0.000176752
0.000176754
0.000176755
0.000176757
0.00017676
0.000176763
0.000176762
0.000176699
0.000175361
0.000153949
1.68138e-05
1.20141e-07
5.92205e-05
0.00015114
0.000168231
0.000169908
0.000170017
0.00017002
0.000170015
0.000170008
0.00017
0.000169996
0.000169992
0.00016999
0.000169987
0.000169985
0.000169983
0.000169981
0.000169979
0.000169977
0.000169974
0.000169972
0.000169974
0.000169974
0.000169979
0.000169981
0.000169983
0.000169989
0.000169992
0.000169993
0.000169992
0.000169991
0.000169992
0.000169994
0.000169996
0.000169997
0.000169997
0.000169999
0.000169997
0.000169995
0.000169995
0.000169995
0.000169991
0.000169988
0.000169989
0.000169993
0.000169994
0.000169997
0.000170001
0.000170007
0.000170013
0.000169975
0.000169341
0.000161173
0.000102871
3.04326e-06
3.86227e-08
3.04569e-05
0.000127836
0.000159097
0.00016477
0.000165347
0.000165405
0.000165404
0.000165389
0.000165374
0.000165367
0.00016536
0.000165353
0.000165345
0.000165342
0.000165337
0.000165331
0.000165327
0.000165324
0.000165317
0.000165315
0.000165315
0.000165321
0.000165324
0.000165327
0.000165329
0.000165332
0.000165338
0.00016534
0.000165337
0.000165335
0.000165337
0.000165343
0.00016535
0.000165352
0.000165354
0.000165359
0.000165356
0.000165355
0.000165357
0.00016536
0.000165353
0.00016535
0.000165357
0.000165368
0.000165374
0.000165379
0.000165387
0.000165394
0.000165384
0.000165159
0.000162518
0.000144087
6.41629e-05
1.07974e-06
1.75658e-08
1.70718e-05
0.000104943
0.000148993
0.000159914
0.000161713
0.000161938
0.000161958
0.000161939
0.000161921
0.000161916
0.000161906
0.000161896
0.000161878
0.000161873
0.000161867
0.000161858
0.000161847
0.000161841
0.000161834
0.000161826
0.000161829
0.000161829
0.000161826
0.000161839
0.000161844
0.00016184
0.00016184
0.000161836
0.000161828
0.00016183
0.000161836
0.000161851
0.000161861
0.000161865
0.000161873
0.000161877
0.000161871
0.000161875
0.000161882
0.000161887
0.000161884
0.000161889
0.000161902
0.000161919
0.000161936
0.000161944
0.000161953
0.000161948
0.000161868
0.000161073
0.000154861
0.000126154
4.19621e-05
5.5075e-07
9.63497e-09
1.05304e-05
8.50525e-05
0.000138727
0.000154749
0.000158564
0.000159154
0.000159239
0.000159218
0.000159193
0.000159197
0.000159193
0.000159181
0.000159157
0.000159148
0.000159135
0.000159129
0.000159101
0.000159093
0.000159089
0.000159081
0.000159072
0.000159056
0.000159049
0.000159079
0.000159084
0.000159061
0.000159033
0.000159013
0.000159014
0.000159034
0.000159053
0.000159079
0.000159088
0.000159095
0.000159124
0.000159124
0.000159111
0.000159122
0.000159135
0.00015914
0.000159145
0.000159154
0.000159167
0.000159192
0.00015923
0.000159238
0.000159241
0.000159206
0.000158941
0.000157013
0.000146712
0.000109117
2.91374e-05
3.33451e-07
5.98456e-09
7.05722e-06
6.9002e-05
0.000128513
0.000149334
0.000155605
0.000156871
0.000157097
0.000157054
0.000156995
0.000157021
0.000157033
0.00015701
0.000156991
0.000156988
0.000156954
0.000156964
0.000156932
0.000156893
0.000156856
0.000156845
0.000156842
0.000156794
0.0001568
0.000156821
0.00015681
0.000156761
0.000156691
0.000156666
0.00015671
0.000156756
0.000156795
0.000156827
0.000156836
0.000156834
0.000156911
0.000156935
0.0001569
0.000156906
0.00015692
0.000156929
0.000156922
0.000156906
0.000156918
0.000156949
0.000157056
0.000157075
0.000157026
0.000156926
0.000156314
0.000152723
0.000138603
9.41129e-05
2.13357e-05
2.23308e-07
4.06555e-09
5.05721e-06
5.64949e-05
0.000118692
0.000144223
0.000152993
0.000155266
0.000155743
0.000155692
0.000155646
0.000155707
0.000155734
0.000155627
0.000155548
0.000155588
0.000155522
0.000155542
0.000155475
0.000155351
0.000155213
0.000155176
0.000155217
0.000155118
0.00015509
0.000155043
0.00015502
0.000154925
0.000154803
0.000154812
0.000154966
0.000155019
0.000155028
0.000155073
0.00015511
0.000155108
0.000155227
0.000155271
0.000155218
0.000155226
0.000155239
0.000155261
0.00015523
0.000155198
0.000155189
0.000155245
0.000155456
0.000155482
0.000155354
0.000155131
0.000153949
0.000148479
0.000130878
8.1475e-05
1.62392e-05
1.57704e-07
2.94816e-09
3.8061e-06
4.68381e-05
0.000109536
0.00013986
0.000151139
0.000154783
0.000155597
0.000155605
0.000155558
0.000155683
0.000155829
0.000155609
0.000155411
0.00015557
0.000155424
0.000155313
0.000155036
0.000154698
0.000154404
0.000154309
0.000154406
0.000154303
0.000154178
0.00015412
0.000154043
0.000153722
0.000153468
0.000153527
0.000153959
0.000154117
0.00015398
0.000154045
0.000154178
0.000154245
0.00015439
0.000154377
0.000154283
0.000154276
0.000154343
0.000154366
0.000154173
0.000154103
0.000154116
0.000154333
0.000154619
0.00015458
0.000154375
0.000153935
0.000151919
0.000144715
0.000123741
7.09188e-05
1.28191e-05
1.18983e-07
2.24391e-09
2.9757e-06
3.93726e-05
0.000101179
0.000136234
0.000149872
0.000155418
0.000156886
0.000156526
0.000156247
0.000156709
0.000157038
0.000156784
0.000156369
0.000156567
0.000156274
0.000155883
0.000155739
0.000155073
0.000154499
0.00015434
0.000154347
0.000154159
0.00015414
0.000154242
0.000153962
0.000153412
0.000153056
0.000153157
0.000153766
0.00015403
0.000153913
0.000153943
0.000154085
0.000154099
0.000154351
0.000154479
0.000154279
0.000153974
0.000154117
0.000154483
0.000154054
0.0001537
0.000153631
0.000154025
0.000154838
0.000154975
0.000154156
0.000153254
0.000150524
0.000141771
0.000117502
6.25282e-05
1.0458e-05
9.40987e-08
1.77123e-09
2.3968e-06
3.35793e-05
9.3639e-05
0.000133027
0.000148677
0.0001559
0.000158065
0.000157761
0.000157325
0.000157786
0.000158512
0.000158653
0.000158035
0.000158068
0.000158064
0.000157608
0.00015739
0.000156412
0.000155558
0.00015521
0.000155164
0.000155016
0.000154688
0.000154908
0.00015515
0.000154395
0.000153932
0.000153987
0.000154445
0.00015481
0.000154657
0.000154626
0.00015491
0.000154748
0.000155058
0.000154808
0.000154747
0.000154362
0.000154542
0.000154717
0.0001544
0.000154106
0.000154162
0.00015516
0.00015608
0.000156154
0.000155068
0.000153437
0.000149472
0.000139748
0.000112157
5.5682e-05
8.74284e-06
7.70205e-08
1.43998e-09
1.97862e-06
2.90417e-05
8.67066e-05
0.000129829
0.000147974
0.000156289
0.000158666
0.000158538
0.000158159
0.000159216
0.000160488
0.000162158
0.000159641
0.000159589
0.0001604
0.000158077
0.000158835
0.000157505
0.000156732
0.000156851
0.000156243
0.000156272
0.000157296
0.000157607
0.000156993
0.000155176
0.000156544
0.000156885
0.000155052
0.000154838
0.000155853
0.000154908
0.000156385
0.000156533
0.000156621
0.000156908
0.000156842
0.000155557
0.000155423
0.00015568
0.000155659
0.00015487
0.000154872
0.000156323
0.000156889
0.00015827
0.000155812
0.000154178
0.000148921
0.000137224
0.000107023
4.99854e-05
7.46162e-06
6.48609e-08
1.20018e-09
1.67069e-06
2.54268e-05
8.03167e-05
0.000125658
0.000148797
0.000156844
0.000161008
0.000160232
0.000156705
0.000158363
0.000164094
0.000163858
0.000162937
0.000162665
0.000161441
0.000160147
0.000159978
0.000159465
0.000158696
0.000158499
0.000157915
0.000156731
0.000157215
0.000159407
0.000158394
0.000157401
0.000157699
0.000158197
0.000157603
0.000156973
0.000158189
0.000159144
0.000158988
0.000158775
0.000158925
0.000159653
0.000159113
0.000158012
0.000156925
0.000156855
0.000157194
0.000157629
0.000157517
0.000158127
0.00016085
0.000161534
0.000159282
0.000156253
0.000151443
0.000137582
0.000101541
4.50009e-05
6.4741e-06
5.59427e-08
1.01958e-09
1.43327e-06
2.24911e-05
7.42412e-05
0.000122291
0.000143227
0.000151099
0.000155409
0.000154917
0.000156364
0.00015798
0.000159162
0.00015891
0.000158547
0.00015792
0.000156173
0.000154978
0.000153172
0.000151756
0.000150538
0.000149775
0.000149124
0.000149018
0.000149503
0.000150855
0.000151079
0.000150369
0.000149445
0.000149458
0.000149604
0.000149994
0.000150474
0.000151178
0.000150992
0.000151131
0.000151301
0.000151685
0.00015184
0.000152558
0.000152653
0.000152687
0.000153367
0.000154001
0.000153677
0.000154058
0.000156355
0.000155444
0.000154083
0.000151186
0.000145062
0.000131114
9.58613e-05
4.05877e-05
5.65738e-06
4.82973e-08
8.79906e-10
1.24608e-06
2.00843e-05
6.87121e-05
0.000112107
0.000133506
0.000142774
0.000146153
0.000146772
0.000147038
0.000148265
0.000148968
0.000148751
0.000148206
0.000147285
0.000146193
0.000144718
0.000142775
0.000141104
0.000139737
0.000138565
0.000137727
0.000137428
0.000137705
0.000138494
0.00013949
0.000139309
0.000139033
0.000139009
0.000138772
0.000138664
0.000138524
0.000138455
0.000139422
0.000139978
0.000140532
0.000140888
0.000141649
0.000143098
0.000143543
0.000143926
0.00014469
0.000145176
0.00014541
0.00014559
0.000146213
0.000146001
0.000144927
0.000142185
0.000135422
0.00012121
8.78213e-05
3.66384e-05
4.99908e-06
4.20808e-08
7.69334e-10
1.09809e-06
1.79971e-05
6.24829e-05
0.000103856
0.000124959
0.000133747
0.00013735
0.000138034
0.000138431
0.000139187
0.000139481
0.000139148
0.000138514
0.00013751
0.00013654
0.000135124
0.000132818
0.000130848
0.000129221
0.000127471
0.000126316
0.000125338
0.000124585
0.00012549
0.000129444
0.000111055
0.000104158
0.000105979
0.000117867
0.000127728
0.000125844
0.000126152
0.000126706
0.000128019
0.000129732
0.000130628
0.000131796
0.000133573
0.000134217
0.000134511
0.000135245
0.000135854
0.000136044
0.000136309
0.000136932
0.000136883
0.000135873
0.00013294
0.000126374
0.000112334
8.02591e-05
3.34966e-05
4.44412e-06
3.69812e-08
6.68345e-10
9.69664e-07
1.62429e-05
5.68494e-05
9.6252e-05
0.000116544
0.000125249
0.00012891
0.000129665
0.000129936
0.000130329
0.000130287
0.000129798
0.000129067
0.000128034
0.000127179
0.000125741
0.000123037
0.000121009
0.000118541
0.000115501
0.000114052
0.000111809
0.000111986
9.9253e-05
6.9744e-05
4.54425e-05
2.39179e-05
2.41315e-05
5.88154e-05
8.24778e-05
0.000116854
0.000112826
0.000113248
0.000115621
0.000117975
0.000119806
0.000122008
0.000124355
0.000125318
0.000125662
0.000126445
0.000126989
0.000127254
0.000127597
0.000128119
0.000128146
0.000127293
0.000124432
0.000117886
0.000104111
7.36467e-05
3.0417e-05
3.98376e-06
3.28122e-08
4.84155e-10
8.22131e-07
1.43076e-05
5.15263e-05
8.85016e-05
0.000108326
0.000117023
0.000120757
0.000121528
0.000121566
0.000121598
0.000121317
0.000120701
0.000119892
0.000118947
0.000118094
0.000116162
0.000113336
0.000110684
0.000107675
0.000104562
0.000102317
0.000102383
9.29622e-05
3.21293e-05
1.55246e-06
1.42316e-09
1.39634e-08
1.23269e-05
4.15326e-05
0.000102943
0.000101844
0.000103742
0.000106571
0.000109651
0.000112287
0.000114796
0.000116456
0.00011691
0.000117799
0.000118408
0.000118796
0.000119151
0.00011962
0.000119735
0.000119026
0.000116324
0.000109922
9.6358e-05
6.76895e-05
2.76614e-05
3.57841e-06
2.91947e-08
1.16993e-10
4.90616e-07
1.17074e-05
4.54482e-05
7.99147e-05
9.90148e-05
0.000107686
0.000111358
0.000112038
0.000111719
0.000111348
0.000110909
0.000110181
0.000109319
0.000108356
0.000107368
0.000105102
0.000102182
9.91227e-05
9.58471e-05
9.30167e-05
9.25289e-05
8.09856e-05
2.33482e-05
1.30757e-06
2.07222e-10
5.52931e-06
5.93329e-05
8.79633e-05
9.17825e-05
9.49684e-05
9.84449e-05
0.000101729
0.000104516
0.000106162
0.000106839
0.000107889
0.000108662
0.000109157
0.000109469
0.000109884
0.000110125
0.000109617
0.000107185
0.000101116
8.8074e-05
6.1993e-05
2.54637e-05
3.19716e-06
2.42139e-08
1.58725e-10
5.78981e-07
1.09273e-05
4.04878e-05
6.95739e-05
8.54314e-05
9.32939e-05
9.62001e-05
9.63751e-05
9.59272e-05
9.51842e-05
9.46133e-05
9.42523e-05
9.29512e-05
9.17769e-05
9.01354e-05
8.86237e-05
8.68403e-05
8.37897e-05
8.02824e-05
7.83493e-05
7.41138e-05
4.84126e-05
6.46322e-06
1.07285e-07
1.07607e-06
2.41141e-05
6.76974e-05
7.69234e-05
7.90358e-05
8.18351e-05
8.55408e-05
8.75744e-05
8.87269e-05
8.97783e-05
9.11081e-05
9.22274e-05
9.30284e-05
9.38066e-05
9.4505e-05
9.51557e-05
9.49111e-05
9.31998e-05
8.81069e-05
7.65925e-05
5.41428e-05
2.2867e-05
3.10791e-06
2.72559e-08
3.43675e-10
5.88213e-07
1.06916e-05
3.77529e-05
6.33304e-05
7.79512e-05
8.50414e-05
8.79288e-05
8.80236e-05
8.73256e-05
8.70907e-05
8.65e-05
8.5661e-05
8.4632e-05
8.32419e-05
8.14704e-05
8.05319e-05
7.90002e-05
7.56607e-05
7.28002e-05
7.06585e-05
6.17144e-05
2.94749e-05
3.49072e-06
1.36064e-07
3.84805e-10
3.97505e-09
8.08247e-07
1.33748e-05
4.89524e-05
6.81543e-05
7.15186e-05
7.38469e-05
7.71429e-05
7.85797e-05
8.02823e-05
8.09556e-05
8.20527e-05
8.36433e-05
8.49512e-05
8.5926e-05
8.67707e-05
8.7134e-05
8.68246e-05
8.52755e-05
8.0568e-05
6.99281e-05
4.9341e-05
2.08664e-05
2.80278e-06
2.28138e-08
3.80134e-10
5.58141e-07
9.90032e-06
3.46657e-05
5.77865e-05
7.13141e-05
7.80622e-05
8.07315e-05
8.09111e-05
8.04874e-05
8.02217e-05
7.94362e-05
7.84933e-05
7.7554e-05
7.63428e-05
7.4889e-05
7.37258e-05
7.25185e-05
6.96056e-05
6.66375e-05
6.40856e-05
5.26646e-05
2.13075e-05
2.88636e-06
3.73726e-07
1.00342e-07
6.24383e-08
6.16842e-08
4.98021e-08
6.39634e-08
1.29346e-07
1.00372e-06
9.467e-06
3.85268e-05
6.0285e-05
6.53926e-05
6.795e-05
7.09622e-05
7.24526e-05
7.33561e-05
7.39043e-05
7.52632e-05
7.68862e-05
7.81853e-05
7.93244e-05
8.03226e-05
8.06555e-05
8.01418e-05
7.86297e-05
7.41899e-05
6.41174e-05
4.49974e-05
1.91436e-05
2.52423e-06
2.02666e-08
3.53203e-10
5.13817e-07
9.03481e-06
3.16943e-05
5.28576e-05
6.56253e-05
7.22384e-05
7.47676e-05
7.50508e-05
7.45728e-05
7.41055e-05
7.36603e-05
7.27016e-05
7.15889e-05
7.03354e-05
6.88699e-05
6.79654e-05
6.69058e-05
6.44874e-05
6.1728e-05
5.84684e-05
4.49074e-05
1.72321e-05
3.03075e-06
8.32815e-07
1.22685e-06
2.51332e-06
3.25155e-06
2.7699e-06
1.452e-06
6.03256e-07
1.3792e-06
8.2467e-06
3.16653e-05
5.38075e-05
6.01348e-05
6.26281e-05
6.52446e-05
6.68866e-05
6.78072e-05
6.84562e-05
6.9531e-05
7.09554e-05
7.24532e-05
7.3714e-05
7.47261e-05
7.4976e-05
7.43516e-05
7.28889e-05
6.86327e-05
5.90398e-05
4.13782e-05
1.75858e-05
2.28562e-06
1.8258e-08
3.21051e-10
4.67731e-07
8.24754e-06
2.89734e-05
4.84649e-05
6.04633e-05
6.67702e-05
6.92288e-05
6.95984e-05
6.91298e-05
6.86737e-05
6.83196e-05
6.7404e-05
6.62342e-05
6.50083e-05
6.36853e-05
6.28559e-05
6.18871e-05
5.98848e-05
5.75971e-05
5.38348e-05
3.91339e-05
1.5707e-05
3.58827e-06
1.59292e-06
2.85248e-06
4.54049e-06
5.39299e-06
4.48953e-06
2.49041e-06
1.36145e-06
2.08032e-06
8.43428e-06
2.78829e-05
4.86734e-05
5.57893e-05
5.82034e-05
6.0328e-05
6.19091e-05
6.27791e-05
6.34436e-05
6.44458e-05
6.58174e-05
6.7256e-05
6.85846e-05
6.9603e-05
6.97443e-05
6.90106e-05
6.75402e-05
6.35537e-05
5.45029e-05
3.80989e-05
1.61599e-05
2.08026e-06
1.65577e-08
2.90842e-10
4.24326e-07
7.52282e-06
2.6495e-05
4.44251e-05
5.56199e-05
6.14281e-05
6.37393e-05
6.44031e-05
6.40671e-05
6.3632e-05
6.33015e-05
6.2403e-05
6.12529e-05
6.01102e-05
5.89305e-05
5.82283e-05
5.7415e-05
5.5758e-05
5.38886e-05
5.01884e-05
3.74447e-05
1.57595e-05
4.42043e-06
2.42705e-06
3.64981e-06
5.30886e-06
6.63372e-06
5.48526e-06
3.15564e-06
2.37314e-06
3.09879e-06
9.44676e-06
2.63812e-05
4.48046e-05
5.18987e-05
5.4189e-05
5.60032e-05
5.73445e-05
5.82306e-05
5.88634e-05
5.97468e-05
6.1168e-05
6.24916e-05
6.38067e-05
6.47366e-05
6.47834e-05
6.40481e-05
6.26119e-05
5.88146e-05
5.0261e-05
3.50576e-05
1.48138e-05
1.88911e-06
1.49902e-08
2.62911e-10
3.84147e-07
6.84474e-06
2.41251e-05
4.05656e-05
5.09205e-05
5.60454e-05
5.8603e-05
5.93218e-05
5.89928e-05
5.82959e-05
5.80698e-05
5.73489e-05
5.63934e-05
5.52067e-05
5.36353e-05
5.34632e-05
5.3218e-05
5.18313e-05
5.03118e-05
4.68365e-05
3.51242e-05
1.6824e-05
5.82037e-06
3.17685e-06
4.2942e-06
6.5029e-06
8.65903e-06
7.28965e-06
4.55128e-06
3.65823e-06
4.53709e-06
1.12139e-05
2.59844e-05
4.15586e-05
4.81931e-05
5.05458e-05
5.20434e-05
5.291e-05
5.3907e-05
5.45397e-05
5.5227e-05
5.6534e-05
5.74099e-05
5.8969e-05
5.99546e-05
5.99816e-05
5.91925e-05
5.77569e-05
5.41898e-05
4.61325e-05
3.21573e-05
1.35518e-05
1.71167e-06
1.33939e-08
2.37302e-10
3.47352e-07
6.21606e-06
2.18928e-05
3.6817e-05
4.63856e-05
5.10329e-05
5.36325e-05
5.43158e-05
5.40962e-05
5.30805e-05
5.29212e-05
5.20253e-05
5.13874e-05
5.07197e-05
4.88625e-05
4.90869e-05
4.91925e-05
4.81286e-05
4.66494e-05
4.35459e-05
3.29331e-05
1.79455e-05
8.06514e-06
4.11424e-06
4.80458e-06
7.73739e-06
1.13115e-05
9.87089e-06
6.43231e-06
5.3812e-06
6.90382e-06
1.35831e-05
2.66171e-05
3.84817e-05
4.47312e-05
4.66968e-05
4.78492e-05
4.86444e-05
4.97449e-05
5.02373e-05
5.09841e-05
5.20093e-05
5.24879e-05
5.43397e-05
5.50425e-05
5.50556e-05
5.41583e-05
5.27658e-05
4.96484e-05
4.21388e-05
2.93751e-05
1.23423e-05
1.53927e-06
1.18389e-08
2.13979e-10
3.13978e-07
5.63244e-06
1.98606e-05
3.31765e-05
3.99028e-05
4.5531e-05
4.89901e-05
4.97605e-05
4.94588e-05
4.77003e-05
4.85523e-05
4.83115e-05
4.78043e-05
4.68813e-05
4.61009e-05
4.44602e-05
4.5779e-05
4.50943e-05
4.35659e-05
3.94887e-05
3.16094e-05
1.99062e-05
1.11425e-05
5.75848e-06
5.55809e-06
9.45357e-06
1.52452e-05
1.36214e-05
9.42729e-06
9.00776e-06
1.13365e-05
1.73438e-05
2.62831e-05
3.50136e-05
4.03927e-05
4.3534e-05
4.434e-05
4.32486e-05
4.35964e-05
4.66234e-05
4.7854e-05
4.87067e-05
4.91045e-05
5.01629e-05
4.91141e-05
5.03476e-05
4.95766e-05
4.83934e-05
4.49249e-05
3.83015e-05
2.67838e-05
1.11587e-05
1.38434e-06
1.04818e-08
1.92799e-10
2.83595e-07
5.12931e-06
1.77927e-05
2.9716e-05
3.79623e-05
4.27061e-05
4.50505e-05
4.71931e-05
4.55088e-05
4.56082e-05
4.43865e-05
4.39959e-05
4.54368e-05
4.33635e-05
4.41737e-05
4.39049e-05
4.341e-05
4.27639e-05
4.07702e-05
3.83169e-05
3.1003e-05
2.21281e-05
1.52704e-05
9.22373e-06
7.29636e-06
1.1783e-05
2.10664e-05
2.07745e-05
1.67493e-05
1.74771e-05
1.99512e-05
2.25849e-05
2.61749e-05
3.24009e-05
3.88045e-05
4.06513e-05
4.20628e-05
4.22061e-05
4.22969e-05
4.31906e-05
4.52159e-05
4.63168e-05
4.56904e-05
4.63632e-05
4.77852e-05
4.57715e-05
4.5551e-05
4.50073e-05
4.14242e-05
3.48168e-05
2.41662e-05
1.02559e-05
1.24736e-06
9.30653e-09
1.73524e-10
2.55995e-07
4.68183e-06
1.65421e-05
2.76653e-05
3.53292e-05
4.05653e-05
4.37438e-05
4.38301e-05
4.4683e-05
4.35418e-05
4.30438e-05
4.25226e-05
4.2226e-05
4.22363e-05
4.20874e-05
4.21299e-05
4.19733e-05
4.13053e-05
4.06125e-05
3.75904e-05
3.11978e-05
2.48835e-05
2.09683e-05
1.59311e-05
1.10024e-05
1.50509e-05
2.82568e-05
3.04632e-05
3.08824e-05
3.57843e-05
3.69129e-05
3.03946e-05
2.65424e-05
3.19763e-05
3.74159e-05
4.04412e-05
4.03244e-05
4.14134e-05
4.19234e-05
4.25993e-05
4.3281e-05
4.43408e-05
4.55296e-05
4.57576e-05
4.56567e-05
4.42976e-05
4.41719e-05
4.41397e-05
3.94146e-05
3.36575e-05
2.28272e-05
9.39789e-06
1.12843e-06
8.29689e-09
1.56212e-10
2.31226e-07
4.29025e-06
1.57392e-05
2.68078e-05
3.48691e-05
3.99887e-05
4.22101e-05
4.34808e-05
4.39003e-05
4.39488e-05
4.28951e-05
4.24024e-05
4.19529e-05
4.13558e-05
4.00084e-05
4.00289e-05
3.98192e-05
3.96665e-05
3.86647e-05
3.62196e-05
3.2105e-05
2.96499e-05
2.99164e-05
2.83567e-05
2.06553e-05
2.09663e-05
3.76593e-05
4.12921e-05
5.02529e-05
6.97816e-05
6.89118e-05
4.27275e-05
2.9829e-05
3.08582e-05
3.73405e-05
3.91527e-05
3.85681e-05
4.00163e-05
4.06625e-05
4.11284e-05
4.19661e-05
4.26916e-05
4.32345e-05
4.39368e-05
4.39121e-05
4.4465e-05
4.38318e-05
4.21606e-05
3.87386e-05
3.20197e-05
2.19568e-05
8.71596e-06
1.02378e-06
7.42257e-09
1.40923e-10
2.09402e-07
3.93177e-06
1.47666e-05
2.58813e-05
3.3668e-05
3.88036e-05
4.06498e-05
4.1431e-05
4.2395e-05
4.24588e-05
4.1573e-05
4.09064e-05
4.05552e-05
3.99246e-05
3.8647e-05
3.82008e-05
3.84892e-05
3.8393e-05
3.69335e-05
3.47543e-05
3.14232e-05
3.38126e-05
4.385e-05
5.14545e-05
4.36004e-05
3.55369e-05
5.34587e-05
5.54029e-05
7.07886e-05
0.000117606
0.000120101
6.13902e-05
3.35594e-05
3.19821e-05
3.65082e-05
3.80619e-05
3.83715e-05
3.83988e-05
3.88586e-05
3.94051e-05
4.02976e-05
4.08013e-05
4.12628e-05
4.18134e-05
4.22606e-05
4.24582e-05
4.19141e-05
4.02581e-05
3.66062e-05
3.02972e-05
2.07427e-05
8.12161e-06
9.31639e-07
6.66833e-09
1.27785e-10
1.90616e-07
3.62154e-06
1.37047e-05
2.42175e-05
3.18681e-05
3.69139e-05
3.89862e-05
3.97092e-05
4.03701e-05
4.05732e-05
3.97938e-05
3.89273e-05
3.85666e-05
3.81484e-05
3.73871e-05
3.67264e-05
3.72008e-05
3.71282e-05
3.57847e-05
3.35345e-05
3.11707e-05
3.91917e-05
6.30202e-05
9.37964e-05
9.04963e-05
7.20809e-05
8.27571e-05
7.76754e-05
9.01009e-05
0.000166374
0.000197054
8.06874e-05
3.74721e-05
3.15986e-05
3.69594e-05
3.7135e-05
3.70539e-05
3.71183e-05
3.73855e-05
3.79575e-05
3.86897e-05
3.90092e-05
3.94477e-05
3.99618e-05
4.04849e-05
4.04094e-05
3.98768e-05
3.84824e-05
3.47525e-05
2.87028e-05
1.95105e-05
7.5443e-06
8.50689e-07
6.01463e-09
1.16412e-10
1.74326e-07
3.34474e-06
1.27695e-05
2.25668e-05
2.99361e-05
3.4964e-05
3.71201e-05
3.78923e-05
3.84008e-05
3.87294e-05
3.82369e-05
3.73405e-05
3.67897e-05
3.64175e-05
3.61164e-05
3.5683e-05
3.60363e-05
3.60534e-05
3.39168e-05
3.25351e-05
3.16921e-05
4.57434e-05
9.46619e-05
0.00016677
0.00017213
0.000145718
0.000140591
0.000117579
0.000120517
0.000208359
0.000265063
9.78592e-05
3.94714e-05
3.1993e-05
3.62209e-05
3.64854e-05
3.60509e-05
3.5994e-05
3.60917e-05
3.66727e-05
3.71238e-05
3.72469e-05
3.7657e-05
3.81302e-05
3.85712e-05
3.85069e-05
3.79997e-05
3.66273e-05
3.29501e-05
2.7181e-05
1.83755e-05
7.01488e-06
7.79506e-07
5.449e-09
1.06419e-10
1.59908e-07
3.09551e-06
1.19332e-05
2.11681e-05
2.81587e-05
3.29148e-05
3.50972e-05
3.58308e-05
3.64421e-05
3.68588e-05
3.65871e-05
3.57121e-05
3.49804e-05
3.45018e-05
3.44723e-05
3.44487e-05
3.48284e-05
3.48283e-05
3.38318e-05
3.16102e-05
3.12738e-05
5.5176e-05
0.000143436
0.000270253
0.000299539
0.000264417
0.000241626
0.000186092
0.000176542
0.000277839
0.000328185
0.000121166
4.25471e-05
3.3278e-05
3.56265e-05
3.53559e-05
3.4887e-05
3.45601e-05
3.46367e-05
3.52174e-05
3.54741e-05
3.55286e-05
3.58668e-05
3.6289e-05
3.66296e-05
3.65789e-05
3.61185e-05
3.47384e-05
3.11624e-05
2.56569e-05
1.73044e-05
6.52943e-06
7.15672e-07
4.9531e-09
9.74179e-11
1.46857e-07
2.86414e-06
1.1171e-05
1.9848e-05
2.63563e-05
3.08209e-05
3.29975e-05
3.377e-05
3.44286e-05
3.49135e-05
3.48363e-05
3.40224e-05
3.32409e-05
3.27726e-05
3.27996e-05
3.29614e-05
3.32639e-05
3.33298e-05
3.30745e-05
3.10573e-05
3.14896e-05
6.33294e-05
0.000203577
0.000432791
0.000470702
0.000425375
0.000384235
0.000282338
0.000252587
0.000385202
0.000413416
0.000117142
4.24173e-05
3.43338e-05
3.46979e-05
3.40636e-05
3.34958e-05
3.31081e-05
3.33074e-05
3.37479e-05
3.37951e-05
3.38767e-05
3.4077e-05
3.44161e-05
3.47732e-05
3.46365e-05
3.41058e-05
3.28286e-05
2.94152e-05
2.41789e-05
1.62533e-05
6.07733e-06
6.5782e-07
4.51074e-09
8.9546e-11
1.35449e-07
2.66876e-06
1.05103e-05
1.86743e-05
2.45547e-05
2.88503e-05
3.11803e-05
3.21837e-05
3.26653e-05
3.30061e-05
3.29668e-05
3.24578e-05
3.16278e-05
3.1305e-05
3.1295e-05
3.14882e-05
3.17964e-05
3.17722e-05
3.19938e-05
2.99162e-05
3.28129e-05
7.09238e-05
0.0002583
0.000594555
0.000673014
0.00060576
0.000533436
0.000385091
0.00035501
0.000524823
0.000391455
0.000102826
4.05333e-05
3.36379e-05
3.33099e-05
3.25868e-05
3.2004e-05
3.1585e-05
3.20387e-05
3.22877e-05
3.21647e-05
3.22159e-05
3.22809e-05
3.26611e-05
3.29359e-05
3.28352e-05
3.20429e-05
3.10236e-05
2.77314e-05
2.27203e-05
1.52671e-05
5.6707e-06
6.05877e-07
4.11752e-09
8.28607e-11
1.25702e-07
2.49707e-06
9.87855e-06
1.75408e-05
2.29542e-05
2.69795e-05
2.96762e-05
3.09255e-05
3.09872e-05
3.12715e-05
3.13224e-05
3.11624e-05
3.00159e-05
2.99344e-05
2.98353e-05
3.01737e-05
3.04926e-05
3.01701e-05
3.05902e-05
2.99781e-05
3.35966e-05
7.55323e-05
0.000283119
0.000665776
0.000815518
0.000745025
0.000643417
0.000480782
0.000486437
0.000650436
0.000363074
9.6606e-05
3.88446e-05
3.2342e-05
3.16528e-05
3.08304e-05
3.01955e-05
2.99254e-05
3.07204e-05
3.07831e-05
3.04895e-05
3.05109e-05
3.06291e-05
3.08125e-05
3.12457e-05
3.10585e-05
3.032e-05
2.93239e-05
2.61003e-05
2.14314e-05
1.44159e-05
5.31493e-06
5.61396e-07
3.77918e-09
7.64804e-11
1.16472e-07
2.32969e-06
9.35597e-06
1.65814e-05
2.16725e-05
2.5568e-05
2.8351e-05
2.92809e-05
2.93618e-05
2.96018e-05
2.97979e-05
2.99083e-05
2.86705e-05
2.87109e-05
2.86082e-05
2.90635e-05
2.91601e-05
2.87908e-05
2.93481e-05
2.94075e-05
3.46559e-05
7.97712e-05
0.000295085
0.000724868
0.000876086
0.00078767
0.000661618
0.000557241
0.000692621
0.00072738
0.000322561
8.48413e-05
3.68631e-05
3.07665e-05
2.99991e-05
2.93572e-05
2.86094e-05
2.84005e-05
2.94432e-05
2.92484e-05
2.90151e-05
2.87168e-05
2.88113e-05
2.93113e-05
2.97154e-05
2.95016e-05
2.89574e-05
2.76919e-05
2.45213e-05
2.02709e-05
1.36736e-05
5.00892e-06
5.22962e-07
3.48906e-09
7.17749e-11
1.09413e-07
2.20001e-06
8.905e-06
1.56409e-05
2.01841e-05
2.3835e-05
2.70588e-05
2.81722e-05
2.78538e-05
2.77227e-05
2.78239e-05
2.846e-05
2.76187e-05
2.67869e-05
2.70548e-05
2.7385e-05
2.75749e-05
2.76549e-05
2.78354e-05
2.8444e-05
3.58054e-05
7.91836e-05
0.000309371
0.000789214
0.000890431
0.000760331
0.000664787
0.000675382
0.000846441
0.000727828
0.000290266
8.06551e-05
3.54375e-05
2.97208e-05
2.82514e-05
2.80478e-05
2.71564e-05
2.70306e-05
2.82753e-05
2.78474e-05
2.76614e-05
2.72438e-05
2.71874e-05
2.79873e-05
2.83579e-05
2.82305e-05
2.75878e-05
2.61094e-05
2.28944e-05
1.9197e-05
1.30789e-05
4.75082e-06
4.92645e-07
3.27805e-09
6.73076e-11
1.01952e-07
2.04498e-06
8.3608e-06
1.47706e-05
1.88946e-05
2.25854e-05
2.59682e-05
2.75066e-05
2.65682e-05
2.68034e-05
2.66618e-05
2.68565e-05
2.68211e-05
2.52737e-05
2.57574e-05
2.59707e-05
2.63884e-05
2.64841e-05
2.73071e-05
2.79082e-05
3.51865e-05
7.49613e-05
0.000294918
0.000768788
0.000843481
0.000696647
0.000679806
0.000837275
0.000926038
0.000696485
0.000282538
7.79654e-05
3.42766e-05
2.80424e-05
2.66259e-05
2.69455e-05
2.55325e-05
2.59583e-05
2.68374e-05
2.61913e-05
2.63837e-05
2.56217e-05
2.59795e-05
2.64692e-05
2.69881e-05
2.68974e-05
2.62145e-05
2.40727e-05
2.14598e-05
1.81259e-05
1.23666e-05
4.46159e-06
4.60009e-07
3.08956e-09
6.64736e-11
9.93046e-08
1.99689e-06
8.11284e-06
1.39584e-05
1.77115e-05
2.0782e-05
2.46152e-05
2.6683e-05
2.55171e-05
2.5661e-05
2.58696e-05
2.5575e-05
2.58719e-05
2.44252e-05
2.43398e-05
2.54887e-05
2.50515e-05
2.56516e-05
2.67181e-05
2.74014e-05
3.38865e-05
6.8716e-05
0.000264379
0.000705479
0.000766684
0.00064217
0.000702342
0.000956486
0.00095727
0.000649249
0.000262748
7.80604e-05
3.37477e-05
2.6596e-05
2.54662e-05
2.57314e-05
2.45927e-05
2.4796e-05
2.55774e-05
2.50465e-05
2.45682e-05
2.39775e-05
2.46221e-05
2.51148e-05
2.52926e-05
2.50097e-05
2.42528e-05
2.25231e-05
2.01236e-05
1.71239e-05
1.18445e-05
4.30879e-06
4.3661e-07
2.9364e-09
6.7562e-11
1.01049e-07
2.14803e-06
8.25748e-06
1.435e-05
1.83886e-05
2.01556e-05
2.3397e-05
2.57143e-05
2.50206e-05
2.50034e-05
2.44801e-05
2.5331e-05
2.44404e-05
2.44462e-05
2.46505e-05
2.48985e-05
2.53108e-05
2.50661e-05
2.51948e-05
2.64042e-05
3.2973e-05
6.23862e-05
0.000228287
0.000626551
0.000696282
0.00062137
0.000759259
0.000998694
0.000959005
0.000629011
0.000249849
7.63244e-05
3.38214e-05
2.57436e-05
2.51773e-05
2.42149e-05
2.42758e-05
2.38731e-05
2.40672e-05
2.43602e-05
2.34163e-05
2.36124e-05
2.3532e-05
2.36656e-05
2.35997e-05
2.39666e-05
2.25384e-05
2.06787e-05
1.89199e-05
1.63919e-05
1.13826e-05
4.16553e-06
4.23773e-07
2.90259e-09
7.27999e-11
1.0877e-07
2.25544e-06
8.80405e-06
1.48474e-05
1.89271e-05
2.03879e-05
2.27941e-05
2.43549e-05
2.38268e-05
2.38328e-05
2.4865e-05
2.43263e-05
2.45548e-05
2.39109e-05
2.36762e-05
2.37306e-05
2.38554e-05
2.5287e-05
2.48056e-05
2.66541e-05
3.17837e-05
5.62221e-05
0.000192229
0.000544265
0.000639821
0.000607203
0.000801434
0.00100502
0.000962947
0.000624293
0.00022995
7.3469e-05
3.31465e-05
2.61366e-05
2.48668e-05
2.35491e-05
2.35413e-05
2.34404e-05
2.35435e-05
2.2785e-05
2.29988e-05
2.29441e-05
2.34849e-05
2.33379e-05
2.33832e-05
2.24486e-05
2.13497e-05
2.008e-05
1.77522e-05
1.56868e-05
1.13403e-05
4.22551e-06
4.28413e-07
2.93957e-09
7.90252e-11
1.1757e-07
2.43686e-06
9.72565e-06
1.63705e-05
1.95102e-05
2.17163e-05
2.34497e-05
2.30105e-05
2.40636e-05
2.44461e-05
2.40603e-05
2.49119e-05
2.43126e-05
2.3467e-05
2.34529e-05
2.35563e-05
2.38055e-05
2.53168e-05
2.50803e-05
2.66013e-05
3.04143e-05
5.0757e-05
0.000159715
0.000463404
0.000591239
0.000596471
0.000765261
0.000918083
0.000873155
0.000559522
0.000204277
6.92693e-05
3.29644e-05
2.60978e-05
2.37698e-05
2.34732e-05
2.25867e-05
2.22782e-05
2.3011e-05
2.27067e-05
2.24052e-05
2.24953e-05
2.27143e-05
2.30556e-05
2.23184e-05
2.19705e-05
2.14907e-05
1.89691e-05
1.87192e-05
1.56517e-05
1.1521e-05
4.4172e-06
4.64768e-07
3.12162e-09
8.37232e-11
1.22523e-07
2.53041e-06
9.92754e-06
1.66247e-05
1.95637e-05
2.24002e-05