/*--------------------------------*- C++ -*----------------------------------*\
  =========                 |
  \\      /  F ield         | OpenFOAM: The Open Source CFD Toolbox
   \\    /   O peration     | Website:  https://openfoam.org
    \\  /    A nd           | Version:  7
     \\/     M anipulation  |
\*---------------------------------------------------------------------------*/
FoamFile
{
    version     2.0;
    format      ascii;
    class       volScalarField;
    location    "45";
    object      p;
}
// * * * * * * * * * * * * * * * * * * * * * * * * * * * * * * * * * * * * * //

dimensions      [0 2 -2 0 0 0 0];

internalField   nonuniform List<scalar> 
17475
(
0.740864
0.42634
0.33703
0.29859
0.276166
0.261399
0.251014
0.243465
0.237905
0.233817
0.230863
0.228804
0.227468
0.226719
0.226449
0.226564
0.226985
0.227637
0.228454
0.229373
0.230335
0.231284
0.232169
0.232943
0.233566
0.234008
0.23424
0.234246
0.234019
0.233563
0.232892
0.232029
0.231004
0.229858
0.228636
0.227391
0.226178
0.225058
0.224097
0.223363
0.222933
0.222889
0.223326
0.224353
0.226105
0.228752
0.232524
0.23774
0.244863
0.254604
0.268096
0.287214
0.314789
0.35746
0.379308
0.302562
0.317557
0.303226
0.284693
0.269075
0.257184
0.248236
0.2415
0.236442
0.232687
0.229965
0.22808
0.226877
0.226236
0.226057
0.226252
0.226745
0.227465
0.228345
0.229323
0.23034
0.231339
0.232271
0.233086
0.233745
0.234211
0.234458
0.234469
0.234238
0.233767
0.233072
0.232176
0.231111
0.229917
0.228643
0.22734
0.226065
0.22488
0.223849
0.223042
0.22253
0.222395
0.222725
0.223621
0.225207
0.227635
0.231102
0.235875
0.242327
0.251001
0.262717
0.278806
0.30113
0.336877
0.346389
0.270176
0.267162
0.265299
0.259181
0.252516
0.246054
0.240406
0.235748
0.232061
0.229252
0.227214
0.225844
0.225048
0.224741
0.224846
0.225293
0.226015
0.226947
0.228027
0.229194
0.230387
0.231551
0.23263
0.233575
0.234338
0.23488
0.235174
0.235201
0.234953
0.234434
0.233659
0.232656
0.231459
0.230113
0.228669
0.227182
0.225711
0.224318
0.223066
0.222023
0.221256
0.220834
0.22083
0.221325
0.222408
0.224176
0.226744
0.230241
0.2348
0.240541
0.247478
0.255305
0.262857
0.267298
0.258935
0.22329
0.23188
0.236934
0.237331
0.235559
0.232959
0.230248
0.227768
0.225692
0.224091
0.222981
0.222343
0.222145
0.222344
0.222892
0.223739
0.224831
0.226112
0.227525
0.229009
0.230504
0.231949
0.233286
0.234452
0.235396
0.236075
0.236453
0.236508
0.236231
0.235628
0.234715
0.233524
0.232099
0.23049
0.228754
0.226953
0.225151
0.22341
0.221794
0.22037
0.219194
0.218322
0.217809
0.217707
0.218061
0.218912
0.220283
0.222169
0.224508
0.227131
0.229662
0.231305
0.230795
0.224717
0.209516
0.202333
0.208668
0.214989
0.218512
0.219816
0.219943
0.219486
0.218833
0.21823
0.217822
0.217687
0.217865
0.218365
0.219178
0.220284
0.221649
0.223234
0.224991
0.226867
0.228802
0.230732
0.232591
0.234303
0.2358
0.237019
0.237904
0.238411
0.238513
0.238194
0.237465
0.236346
0.234878
0.233114
0.231118
0.228958
0.226706
0.224433
0.222204
0.220095
0.21816
0.21645
0.215009
0.213873
0.213066
0.2126
0.212468
0.212633
0.213017
0.213471
0.213741
0.213411
0.211761
0.207786
0.199975
0.189788
0.188634
0.193324
0.199317
0.203596
0.206229
0.207877
0.208907
0.209614
0.210214
0.210854
0.211635
0.212623
0.213852
0.215337
0.217077
0.219054
0.22124
0.223594
0.226067
0.228596
0.231116
0.233536
0.23577
0.237734
0.239345
0.240529
0.241227
0.241398
0.241025
0.240117
0.238707
0.236847
0.234611
0.232079
0.22934
0.226483
0.223588
0.220733
0.218001
0.21544
0.213096
0.211004
0.209181
0.207635
0.20635
0.205291
0.204394
0.203551
0.202601
0.201305
0.199344
0.196274
0.19145
0.184482
0.178018
0.178063
0.181398
0.186467
0.190959
0.194297
0.196812
0.198785
0.200442
0.201955
0.20345
0.20503
0.206765
0.208705
0.210878
0.213296
0.215956
0.218837
0.221908
0.225118
0.228409
0.231687
0.23485
0.237793
0.240401
0.242562
0.244173
0.245145
0.245422
0.244977
0.243821
0.242005
0.239602
0.236717
0.233462
0.229956
0.22631
0.222618
0.218994
0.215511
0.212221
0.209166
0.206369
0.20384
0.201567
0.199522
0.197654
0.195889
0.194119
0.192204
0.189962
0.187167
0.183561
0.178771
0.172938
0.168514
0.168907
0.171354
0.175519
0.179882
0.183503
0.186488
0.189048
0.191352
0.193532
0.195701
0.197949
0.200349
0.202952
0.205798
0.208911
0.212299
0.21596
0.219867
0.223974
0.228201
0.23245
0.236591
0.240486
0.243981
0.246914
0.249133
0.250505
0.250942
0.2504
0.248898
0.246509
0.243349
0.239576
0.235348
0.230829
0.226166
0.221485
0.216927
0.212563
0.20845
0.204623
0.201098
0.19787
0.194917
0.192199
0.189658
0.187215
0.184778
0.18223
0.179433
0.176224
0.172432
0.167869
0.162922
0.159656
0.160394
0.162291
0.16577
0.169847
0.173487
0.176669
0.179555
0.182269
0.184914
0.187584
0.190362
0.193319
0.196517
0.200003
0.203815
0.207973
0.212478
0.217342
0.222497
0.227865
0.233347
0.238774
0.243956
0.248681
0.252713
0.255817
0.25778
0.258461
0.257786
0.255786
0.252574
0.248341
0.243332
0.237783
0.231926
0.225951
0.220054
0.214383
0.20901
0.203991
0.199353
0.195098
0.191206
0.187642
0.184353
0.181274
0.178332
0.175437
0.172497
0.169399
0.166027
0.162246
0.158042
0.154009
0.15154
0.152113
0.153623
0.156562
0.160299
0.163841
0.167069
0.170105
0.173049
0.175989
0.179008
0.182183
0.185583
0.189278
0.193329
0.197795
0.202713
0.208145
0.214063
0.220432
0.227181
0.234202
0.241323
0.248262
0.254721
0.260349
0.264772
0.267638
0.268701
0.267835
0.26509
0.260663
0.254865
0.248101
0.240734
0.23309
0.225441
0.218067
0.211085
0.204581
0.198597
0.193138
0.188185
0.183694
0.17961
0.175867
0.172393
0.169102
0.165919
0.162757
0.159539
0.156165
0.152524
0.148625
0.145169
0.143233
0.143836
0.14504
0.147511
0.150886
0.154265
0.157443
0.160503
0.163536
0.166622
0.16984
0.173265
0.176975
0.181049
0.185567
0.190612
0.196257
0.202577
0.209604
0.217331
0.225715
0.234653
0.243976
0.253334
0.262277
0.270282
0.276745
0.281042
0.282731
0.281575
0.277664
0.271354
0.263214
0.253897
0.243992
0.233951
0.224216
0.215053
0.206578
0.198858
0.191896
0.185661
0.180089
0.175104
0.170618
0.166556
0.162832
0.159367
0.156075
0.152869
0.149667
0.146386
0.142939
0.139401
0.136475
0.134904
0.135437
0.136393
0.138447
0.141444
0.144593
0.14763
0.150601
0.153592
0.15668
0.159943
0.163457
0.167309
0.171594
0.176416
0.181875
0.188125
0.195247
0.203337
0.21249
0.222714
0.233961
0.246081
0.258766
0.271335
0.282988
0.292726
0.299425
0.302188
0.300568
0.294716
0.285351
0.273562
0.260466
0.246958
0.23378
0.221482
0.210246
0.200167
0.191238
0.183382
0.176489
0.170449
0.165131
0.160446
0.156275
0.152502
0.149028
0.145766
0.142634
0.139557
0.136458
0.133272
0.130117
0.127648
0.126389
0.126838
0.127607
0.129295
0.131885
0.134725
0.137522
0.140292
0.143109
0.14605
0.149188
0.152605
0.156395
0.160668
0.165553
0.17119
0.177762
0.185432
0.194392
0.204827
0.216943
0.230805
0.246372
0.263451
0.281338
0.298737
0.313997
0.324959
0.329713
0.327285
0.317988
0.303392
0.285693
0.266875
0.248352
0.231225
0.215901
0.202468
0.190857
0.180893
0.172365
0.165095
0.1589
0.153571
0.148941
0.144868
0.141231
0.137925
0.134855
0.131941
0.129106
0.126281
0.12342
0.120674
0.118633
0.117642
0.117999
0.118603
0.119959
0.12213
0.124597
0.12706
0.129513
0.13202
0.134654
0.137485
0.140595
0.14408
0.148059
0.152666
0.158117
0.164587
0.172322
0.181639
0.192901
0.206493
0.22288
0.242305
0.264857
0.29026
0.316874
0.341837
0.360952
0.369717
0.365734
0.349795
0.32565
0.298094
0.270609
0.245524
0.223769
0.205347
0.189982
0.177258
0.166789
0.158197
0.151087
0.145148
0.140147
0.135879
0.132173
0.128914
0.125981
0.123269
0.120718
0.11825
0.115799
0.113343
0.111045
0.109378
0.108561
0.108936
0.10941
0.110457
0.112175
0.114182
0.116217
0.118247
0.12032
0.122495
0.124833
0.12741
0.130312
0.133649
0.137582
0.14232
0.148063
0.155115
0.163873
0.174877
0.188844
0.206595
0.229198
0.257671
0.292547
0.333438
0.376082
0.4121
0.429812
0.422475
0.392276
0.349596
0.305541
0.266005
0.233377
0.207231
0.186607
0.170494
0.157948
0.148086
0.140238
0.133963
0.128852
0.124665
0.12116
0.118161
0.115545
0.113202
0.111042
0.109
0.107014
0.105033
0.103055
0.101245
0.0999867
0.0993769
0.0996611
0.100018
0.100756
0.101996
0.103495
0.105027
0.10654
0.10806
0.109626
0.111287
0.113099
0.115133
0.11748
0.120295
0.123712
0.127946
0.133288
0.14015
0.149126
0.161093
0.177369
0.199827
0.231258
0.274867
0.334156
0.408442
0.482006
0.521799
0.506488
0.442548
0.362698
0.293203
0.240748
0.20265
0.175422
0.156009
0.14196
0.131632
0.123921
0.118096
0.113607
0.110087
0.107259
0.104904
0.102939
0.101227
0.0996787
0.0982185
0.0968076
0.0954143
0.0939935
0.092561
0.0912742
0.0904039
0.0899691
0.0902135
0.0904522
0.0908682
0.0916135
0.0925745
0.0935632
0.0944981
0.0953756
0.0962165
0.0970477
0.0979018
0.0988184
0.0998445
0.101075
0.102572
0.104484
0.106978
0.110296
0.11491
0.121457
0.131006
0.145693
0.169148
0.208024
0.274667
0.39187
0.549464
0.649463
0.613239
0.463197
0.314694
0.224284
0.171928
0.141105
0.122373
0.110654
0.103055
0.0979096
0.09447
0.0920772
0.0903169
0.0890828
0.0881521
0.0873952
0.0867631
0.0861785
0.0856008
0.0849971
0.084342
0.083613
0.0828012
0.0819413
0.0811774
0.0806987
0.0804411
0.0803422
0.0804125
0.0805727
0.0809754
0.0815072
0.0819779
0.0823021
0.0824733
0.0825012
0.0823937
0.0821525
0.0817756
0.0812543
0.0805954
0.0797675
0.0787437
0.0774776
0.0758955
0.0739013
0.0713158
0.0678705
0.0634617
0.0573981
0.0488464
0.0368333
0.126497
0.394111
0.242501
0.0825397
0.0254637
0.0338501
0.0413519
0.0471525
0.0517628
0.0556041
0.0586652
0.0612517
0.0634228
0.0652608
0.0668261
0.0681401
0.0692299
0.0701125
0.0707994
0.0712994
0.0716193
0.071763
0.0717349
0.0715481
0.0712555
0.0709983
0.0709154
0.0708955
0.0688903
0.0690709
0.0696432
0.0702752
0.0706056
0.0705531
0.0702074
0.0696073
0.0687682
0.0676832
0.0663007
0.0645711
0.0624311
0.0597859
0.0565029
0.0523938
0.0471711
0.0403815
0.031295
0.0186557
0.000162852
-0.028515
-0.0766383
-0.16696
-0.294786
-0.443829
-0.276302
-0.142071
-0.0739883
-0.0350446
-0.0104294
0.00625918
0.018248
0.027259
0.0342539
0.0398133
0.044305
0.0479632
0.0509464
0.0534111
0.0554211
0.0570398
0.0583353
0.0593018
0.0599854
0.0604144
0.0606201
0.0606426
0.0605415
0.0604244
0.0625671
0.0622161
0.0619513
0.0613268
0.0605046
0.0596011
0.0585485
0.0572562
0.0556399
0.0536475
0.0512086
0.0482413
0.044635
0.0402197
0.0347922
0.0280647
0.019613
0.00881065
-0.00529799
-0.0242064
-0.0503302
-0.0877789
-0.144828
-0.232229
-0.315908
-0.321789
-0.222679
-0.145313
-0.0957072
-0.0616385
-0.0370744
-0.018727
-0.004628
0.00645216
0.0153112
0.0224896
0.0283701
0.0332229
0.0372191
0.0405221
0.0432407
0.0454425
0.0472331
0.0486431
0.0496892
0.0503594
0.0506147
0.0504623
0.0502357
0.0516433
0.0516702
0.0513373
0.0507467
0.049889
0.0486758
0.0470925
0.0451277
0.0427459
0.0398837
0.0364574
0.0323548
0.0274352
0.021475
0.0142434
0.0054171
-0.00544785
-0.0189619
-0.0359681
-0.0575832
-0.0852266
-0.120533
-0.164216
-0.211862
-0.234778
-0.246445
-0.291791
-0.270563
-0.2287
-0.175529
-0.131878
-0.0972349
-0.0700504
-0.0485658
-0.0314621
-0.0176894
-0.00648359
0.00271
0.0103106
0.0166318
0.0219039
0.0263059
0.0299818
0.0330418
0.0355812
0.0376756
0.0394036
0.0408357
0.0420107
0.042831
0.0430032
0.0430135
0.0431282
0.0427161
0.0417076
0.0402566
0.0384756
0.0363537
0.0338285
0.0308262
0.027264
0.023046
0.0180574
0.0121508
0.00509182
-0.00332645
-0.0134072
-0.025509
-0.0400626
-0.0576444
-0.0788137
-0.104012
-0.133758
-0.167752
-0.198461
-0.211159
-0.215011
-0.218642
-0.226874
-0.243352
-0.256989
-0.25959
-0.254423
-0.227467
-0.186309
-0.149181
-0.117768
-0.0914915
-0.0695929
-0.0515463
-0.0365868
-0.0241053
-0.0137209
-0.0050174
0.00231041
0.0084795
0.0136852
0.018083
0.0217979
0.0249336
0.0275809
0.0298129
0.0316577
0.033046
0.0338434
0.0340286
0.034756
0.0348291
0.0343131
0.0331174
0.0313641
0.0291804
0.0265973
0.023577
0.0200477
0.0159198
0.01109
0.00544198
-0.00116618
-0.0089656
-0.0181371
-0.0288958
-0.041506
-0.0562643
-0.0734847
-0.0934475
-0.116337
-0.142228
-0.170088
-0.190957
-0.198233
-0.204262
-0.21435
-0.229695
-0.247931
-0.260008
-0.261268
-0.253206
-0.229287
-0.193181
-0.159239
-0.130127
-0.105232
-0.0840454
-0.0660826
-0.0508703
-0.0379608
-0.0270189
-0.0177115
-0.00975986
-0.00301201
0.00274324
0.00765615
0.011861
0.0154516
0.018511
0.0211073
0.0232426
0.024824
0.0257158
0.0258791
0.0268123
0.0268877
0.0262936
0.0249161
0.022903
0.0204101
0.0174896
0.0141078
0.0101923
0.00565529
0.000396553
-0.00569004
-0.0127365
-0.0208898
-0.0303736
-0.0413155
-0.0539118
-0.0683493
-0.0848045
-0.103417
-0.124168
-0.146877
-0.169859
-0.184919
-0.189816
-0.196834
-0.21059
-0.229565
-0.247993
-0.257667
-0.257356
-0.24775
-0.224625
-0.192339
-0.161712
-0.135336
-0.112481
-0.0926934
-0.0756014
-0.0608448
-0.0481576
-0.0372197
-0.0278103
-0.0196993
-0.0127055
-0.00667663
-0.00148123
0.00299895
0.00686175
0.010193
0.0130522
0.0154239
0.0171843
0.0181588
0.0183219
0.0194282
0.0195336
0.0189441
0.0174848
0.0152964
0.0125881
0.00944059
0.00582606
0.0016746
-0.00309748
-0.00858274
-0.0148767
-0.0220832
-0.0303423
-0.0398366
-0.0506414
-0.0629112
-0.0767881
-0.0923851
-0.109743
-0.128924
-0.149745
-0.169935
-0.181917
-0.186153
-0.193359
-0.206672
-0.224107
-0.239119
-0.244842
-0.242247
-0.231558
-0.210861
-0.183631
-0.157271
-0.13407
-0.113772
-0.0959836
-0.0803818
-0.0667137
-0.0547541
-0.0442957
-0.0351704
-0.02721
-0.0202626
-0.0142256
-0.00897292
-0.00439763
-0.000421752
0.00303682
0.00602402
0.00850831
0.0103319
0.011311
0.0114463
0.0126821
0.0127999
0.0122187
0.0107562
0.00852634
0.0057287
0.00246495
-0.00126932
-0.0055311
-0.0103942
-0.0159434
-0.022273
-0.0294633
-0.0376075
-0.0468724
-0.0573537
-0.0691568
-0.0824101
-0.0971936
-0.113629
-0.131807
-0.15162
-0.170908
-0.18239
-0.186442
-0.192158
-0.202025
-0.213949
-0.222236
-0.222205
-0.216796
-0.206742
-0.189766
-0.168453
-0.147237
-0.128008
-0.110717
-0.0952795
-0.0815084
-0.0692431
-0.0583461
-0.048688
-0.0401441
-0.0326014
-0.0259546
-0.0201054
-0.0149638
-0.0104459
-0.00648371
-0.0030159
-1.76225e-05
0.00245547
0.00423409
0.00514709
0.0052309
0.00664711
0.00680402
0.00625133
0.00480969
0.00258353
-0.000236172
-0.00352633
-0.00727737
-0.0115349
-0.0163629
-0.0218315
-0.0280218
-0.0350128
-0.0428876
-0.0517591
-0.0617778
-0.0730026
-0.0855568
-0.0995849
-0.115225
-0.132642
-0.151917
-0.170899
-0.183043
-0.187426
-0.191048
-0.19624
-0.200983
-0.200808
-0.194141
-0.185809
-0.176802
-0.164611
-0.149357
-0.133463
-0.11836
-0.104443
-0.0915908
-0.0798632
-0.0692227
-0.0596019
-0.05094
-0.0431703
-0.0362237
-0.03003
-0.0245206
-0.0196303
-0.0152978
-0.0114662
-0.00809026
-0.00516243
-0.00275454
-0.00104257
-0.000183612
-0.000148353
0.0013431
0.00152797
0.00102048
-0.000355656
-0.00252079
-0.00528147
-0.00850731
-0.0121719
-0.0163103
-0.0209786
-0.0262384
-0.0321576
-0.0388114
-0.0462707
-0.0546244
-0.0640209
-0.0745455
-0.0863166
-0.0994905
-0.114237
-0.130828
-0.149354
-0.168007
-0.181031
-0.186186
-0.187976
-0.188832
-0.186991
-0.178711
-0.165623
-0.154372
-0.146337
-0.138422
-0.128684
-0.117788
-0.106724
-0.0959712
-0.0857694
-0.0761381
-0.0671962
-0.0589585
-0.05141
-0.0445343
-0.0383023
-0.0326781
-0.0276211
-0.0230888
-0.0190385
-0.0154277
-0.0122244
-0.00943458
-0.00714654
-0.00554606
-0.00478284
-0.0047995
-0.00322571
-0.0030047
-0.0034394
-0.00471543
-0.00676292
-0.00939565
-0.0124763
-0.015966
-0.0198902
-0.0242965
-0.0292394
-0.0347761
-0.0409719
-0.047893
-0.0556137
-0.0642431
-0.0739163
-0.0847281
-0.0968282
-0.110426
-0.125795
-0.143091
-0.160833
-0.174293
-0.180335
-0.181112
-0.178965
-0.172626
-0.158333
-0.139801
-0.126011
-0.11867
-0.114158
-0.108695
-0.101888
-0.0943641
-0.086544
-0.0786738
-0.0710659
-0.0637619
-0.0568897
-0.0504798
-0.0445452
-0.0390894
-0.0341034
-0.0295699
-0.0254662
-0.021766
-0.0184412
-0.0154728
-0.0128799
-0.0107643
-0.00930871
-0.00864791
-0.00872235
-0.00707259
-0.0068183
-0.00717441
-0.00831705
-0.010194
-0.0126338
-0.0154993
-0.0187421
-0.0223766
-0.0264406
-0.0309795
-0.0360418
-0.0416801
-0.0479548
-0.0549321
-0.0626853
-0.0713098
-0.0809352
-0.0916973
-0.10378
-0.117441
-0.132799
-0.148772
-0.161835
-0.168667
-0.169433
-0.165896
-0.157295
-0.139967
-0.11835
-0.102811
-0.0956642
-0.0935474
-0.0911207
-0.0872844
-0.0824006
-0.0769435
-0.0711671
-0.0652776
-0.0594965
-0.053894
-0.0485731
-0.0435627
-0.0388868
-0.0345573
-0.0305756
-0.0269348
-0.023622
-0.0206213
-0.0179265
-0.0155697
-0.01366
-0.0123732
-0.0118271
-0.0119552
-0.0102256
-0.00994015
-0.0102079
-0.0112004
-0.0128692
-0.015068
-0.0176649
-0.0206049
-0.0238908
-0.0275509
-0.0316209
-0.0361394
-0.0411439
-0.0466778
-0.052787
-0.0595275
-0.0669729
-0.0752468
-0.0844392
-0.094677
-0.10615
-0.118941
-0.132335
-0.143965
-0.15107
-0.15267
-0.149131
-0.140216
-0.123006
-0.10117
-0.0848766
-0.0777026
-0.0770936
-0.0766009
-0.0747069
-0.0716776
-0.0679375
-0.0637916
-0.0593732
-0.0548594
-0.050393
-0.0460446
-0.041891
-0.0379575
-0.0342676
-0.030835
-0.027664
-0.0247524
-0.0220947
-0.019695
-0.0175961
-0.0159106
-0.0148048
-0.0143755
-0.014551
-0.0127246
-0.0124141
-0.0125887
-0.0134039
-0.014844
-0.0167723
-0.0190634
-0.0216587
-0.0245529
-0.0277619
-0.0313109
-0.035223
-0.039526
-0.04425
-0.0494291
-0.0551019
-0.0613055
-0.0680781
-0.0755076
-0.0836683
-0.0926467
-0.102483
-0.112756
-0.12213
-0.128772
-0.131441
-0.129225
-0.121448
-0.106045
-0.0867455
-0.0714582
-0.0643871
-0.0644859
-0.0650472
-0.064261
-0.0624119
-0.0598678
-0.0568832
-0.0536215
-0.0501599
-0.0466405
-0.0431474
-0.0397549
-0.0365014
-0.0334115
-0.0305049
-0.0277932
-0.025281
-0.0229706
-0.0208744
-0.0190428
-0.0175868
-0.0166626
-0.0163456
-0.0165662
-0.0146165
-0.0142879
-0.0143758
-0.0150164
-0.016208
-0.0178378
-0.0197936
-0.0220134
-0.0244826
-0.0272084
-0.0302043
-0.0334859
-0.0370679
-0.0409632
-0.0451818
-0.0497326
-0.0546261
-0.0598725
-0.0654812
-0.0714854
-0.0778945
-0.084688
-0.0916903
-0.098386
-0.103889
-0.107233
-0.106772
-0.101267
-0.0888526
-0.0734958
-0.0604963
-0.0542467
-0.0548644
-0.0559403
-0.0557029
-0.0545332
-0.0527758
-0.0506178
-0.0481874
-0.0455687
-0.0428241
-0.0400626
-0.0373293
-0.0346793
-0.0321358
-0.0297186
-0.0274424
-0.0253158
-0.0233465
-0.021553
-0.0199898
-0.0187675
-0.0180201
-0.0178101
-0.0180697
-0.0159558
-0.0156104
-0.0156142
-0.0160874
-0.0170351
-0.0183563
-0.0199606
-0.0217895
-0.0238212
-0.0260542
-0.0284925
-0.0311387
-0.0339925
-0.0370508
-0.0403066
-0.0437486
-0.0473579
-0.0511124
-0.0549797
-0.0589144
-0.0628827
-0.0668309
-0.0707624
-0.074752
-0.0787595
-0.0823654
-0.0834676
-0.0804376
-0.0717424
-0.0606522
-0.0508086
-0.0462656
-0.0473609
-0.0486552
-0.0486534
-0.047848
-0.0465814
-0.0449942
-0.0431715
-0.0411867
-0.0390835
-0.0369141
-0.0347468
-0.0326198
-0.0305636
-0.0285921
-0.0267198
-0.0249574
-0.0233153
-0.021816
-0.0205161
-0.019519
-0.0189442
-0.0188334
-0.0191252
-0.0167999
-0.0164507
-0.0163808
-0.0166884
-0.0173863
-0.0184073
-0.0196664
-0.0211075
-0.0227056
-0.0244512
-0.0263392
-0.0283619
-0.0305084
-0.0327629
-0.0351034
-0.0374991
-0.0399105
-0.0422853
-0.0445591
-0.0466537
-0.0484801
-0.0499732
-0.0512752
-0.0528263
-0.055248
-0.0587555
-0.0612177
-0.0605563
-0.0555554
-0.0485284
-0.0421933
-0.0398266
-0.0413573
-0.0426546
-0.0427043
-0.0420775
-0.0411098
-0.0399147
-0.0385422
-0.0370372
-0.0354408
-0.0337773
-0.0320904
-0.0304181
-0.0287882
-0.027217
-0.0257146
-0.0242912
-0.0229584
-0.0217412
-0.0206947
-0.0199153
-0.0195006
-0.0194781
-0.019795
-0.0172206
-0.0168632
-0.0167287
-0.01689
-0.0173611
-0.0180919
-0.0190144
-0.0200791
-0.0212577
-0.0225353
-0.0238995
-0.0253352
-0.0268225
-0.0283352
-0.0298389
-0.0312899
-0.0326329
-0.0337993
-0.0347042
-0.0352479
-0.0353253
-0.0348938
-0.0341177
-0.0337266
-0.0347195
-0.0379185
-0.0413897
-0.0428454
-0.0413051
-0.0378913
-0.0348467
-0.0345265
-0.0363371
-0.0374634
-0.0374579
-0.0369221
-0.0361569
-0.0352481
-0.0342243
-0.0331043
-0.0319139
-0.0306722
-0.0293982
-0.0281252
-0.0268751
-0.0256611
-0.0244956
-0.0233858
-0.0223433
-0.0213928
-0.0205877
-0.0200105
-0.0197447
-0.0198036
-0.0201388
-0.0172777
-0.0169199
-0.0167344
-0.0167617
-0.0170219
-0.0174825
-0.0180909
-0.0188016
-0.0195884
-0.0204323
-0.0213157
-0.0222177
-0.0231116
-0.0239641
-0.0247335
-0.0253681
-0.0258052
-0.0259689
-0.025768
-0.0250958
-0.0238449
-0.0219852
-0.0198378
-0.0180222
-0.017804
-0.0205971
-0.0249932
-0.0283044
-0.0294895
-0.0291668
-0.0287922
-0.0299297
-0.0317639
-0.0326494
-0.0325777
-0.032121
-0.0315306
-0.0308632
-0.0301311
-0.0293391
-0.0284946
-0.0276118
-0.0266992
-0.0257763
-0.0248666
-0.0239771
-0.0231172
-0.0222966
-0.0215257
-0.0208279
-0.0202513
-0.0198654
-0.0197321
-0.0198586
-0.0202056
-0.0170338
-0.0166806
-0.0164472
-0.016359
-0.0164366
-0.0166519
-0.0169725
-0.0173629
-0.0177958
-0.0182508
-0.0187067
-0.0191387
-0.0195167
-0.0198037
-0.0199547
-0.0199164
-0.0196249
-0.0190048
-0.0179676
-0.0164121
-0.0142414
-0.0114389
-0.00825968
-0.00556362
-0.00467551
-0.00722213
-0.0122025
-0.0169987
-0.0203227
-0.0222243
-0.0237141
-0.0255858
-0.0272336
-0.0278885
-0.0278081
-0.0274738
-0.0270778
-0.0266494
-0.0261886
-0.0256944
-0.0251619
-0.0245972
-0.0240091
-0.0234004
-0.0227953
-0.0222032
-0.0216248
-0.021071
-0.0205534
-0.0200934
-0.0197316
-0.0195235
-0.0195129
-0.0196952
-0.0200514
-0.0165494
-0.0162018
-0.0159346
-0.0157463
-0.0156611
-0.0156651
-0.015733
-0.0158396
-0.0159615
-0.0160773
-0.0161644
-0.0161962
-0.0161415
-0.0159628
-0.0156162
-0.0150501
-0.014205
-0.0130117
-0.0113908
-0.00925335
-0.00651627
-0.00317721
0.000459303
0.0036585
0.00503976
0.00266266
-0.00276574
-0.0086305
-0.0133056
-0.0166342
-0.0190961
-0.0211223
-0.0224763
-0.0229864
-0.0229942
-0.0228568
-0.0226994
-0.0225327
-0.022348
-0.022138
-0.0218984
-0.0216294
-0.0213345
-0.0210194
-0.0206918
-0.0203717
-0.0200537
-0.0197477
-0.0194661
-0.0192303
-0.0190704
-0.0190283
-0.0191276
-0.0193595
-0.0197178
-0.01588
-0.0155401
-0.0152406
-0.0149787
-0.0147571
-0.0145786
-0.0144298
-0.0142926
-0.0141484
-0.0139768
-0.0137552
-0.0134576
-0.0130531
-0.0125065
-0.0117775
-0.0108198
-0.00958072
-0.00800098
-0.00601413
-0.0035483
-0.000542693
0.00298764
0.00679798
0.0102238
0.0118216
0.00954502
0.00392434
-0.00244825
-0.00784842
-0.0117511
-0.0144727
-0.0163031
-0.0173814
-0.0178805
-0.0180885
-0.0182274
-0.0183571
-0.0184806
-0.0185836
-0.0186581
-0.0187015
-0.0187131
-0.0186919
-0.0186466
-0.0185778
-0.0185078
-0.0184347
-0.0183603
-0.0182987
-0.0182638
-0.0182808
-0.0183752
-0.0185638
-0.0188394
-0.0192018
-0.0150724
-0.014744
-0.0144276
-0.0141028
-0.0137718
-0.013442
-0.0131107
-0.0127693
-0.0124031
-0.0119946
-0.0115222
-0.0109615
-0.0102846
-0.00945976
-0.00845173
-0.00722108
-0.00572421
-0.00391329
-0.00173668
0.000860332
0.0039258
0.00744115
0.0111914
0.0145539
0.0161969
0.0141051
0.00856644
0.00217191
-0.003167
-0.00707972
-0.00960332
-0.0110936
-0.0120074
-0.0126334
-0.0131387
-0.0136107
-0.0140704
-0.0145047
-0.0149042
-0.0152633
-0.0155823
-0.015861
-0.0160987
-0.0163042
-0.0164806
-0.0166396
-0.0167955
-0.016939
-0.0170877
-0.0172558
-0.0174527
-0.0176894
-0.0179599
-0.0182611
-0.0186053
-0.0141813
-0.0138638
-0.0135365
-0.0131635
-0.0127494
-0.0122964
-0.0118158
-0.0113067
-0.0107597
-0.0101603
-0.00948991
-0.00872629
-0.00784517
-0.00681958
-0.0056201
-0.00421522
-0.00257093
-0.000650809
0.00158544
0.00417831
0.00715394
0.0104845
0.0139817
0.0171759
0.0188387
0.0169858
0.0118955
0.00598702
0.000959202
-0.00248535
-0.00411108
-0.00564708
-0.00651759
-0.00739179
-0.00825154
-0.00909095
-0.0098945
-0.0106481
-0.0113443
-0.0119821
-0.0125641
-0.0130954
-0.0135768
-0.0140157
-0.0144183
-0.0147865
-0.0151469
-0.0155046
-0.0158477
-0.0161922
-0.0165431
-0.016891
-0.0172345
-0.0175589
-0.017899
-0.0132464
-0.0129416
-0.0126073
-0.012202
-0.0117203
-0.0111727
-0.0105735
-0.00992922
-0.00923798
-0.00848868
-0.00766579
-0.00675037
-0.00572238
-0.00455978
-0.0032396
-0.00173786
-2.8768e-05
0.00191575
0.00412169
0.00661153
0.0093956
0.012453
0.0156649
0.0186424
0.0203003
0.0188818
0.0145099
0.00936886
0.00515206
0.00237574
0.000634222
-0.000470276
-0.00113656
-0.00235351
-0.00356226
-0.00476806
-0.00590848
-0.00696983
-0.0079486
-0.00885087
-0.00968079
-0.0104455
-0.0111523
-0.0118065
-0.0124153
-0.0129898
-0.0135339
-0.0140791
-0.0146013
-0.0151098
-0.0155979
-0.0160527
-0.0164493
-0.016791
-0.0171216
-0.0122979
-0.0120074
-0.0116722
-0.0112458
-0.0107165
-0.0100951
-0.00940211
-0.00865217
-0.00784803
-0.00698339
-0.00604624
-0.00502138
-0.00389266
-0.00264335
-0.00125617
0.00028771
0.0020065
0.00391674
0.00603256
0.008367
0.0109262
0.0136918
0.0165815
0.0193202
0.02102
0.0201208
0.0166567
0.0125725
0.00933452
0.00730163
0.00607253
0.00493051
0.0034868
0.0022086
0.000807906
-0.000747471
-0.00219498
-0.00353468
-0.00477117
-0.0059129
-0.00696729
-0.0079443
-0.00885322
-0.00970111
-0.0104961
-0.0112519
-0.0119723
-0.0126783
-0.0133688
-0.0140231
-0.0146334
-0.0151709
-0.0156119
-0.0159658
-0.0162806
-0.0113622
-0.0110878
-0.0107574
-0.0103198
-0.00975849
-0.00908304
-0.00831716
-0.00748482
-0.0065939
-0.00564248
-0.00462206
-0.00352129
-0.00232772
-0.00102879
0.000389259
0.00193829
0.0036288
0.00547022
0.00747191
0.00963807
0.0119651
0.014439
0.0170207
0.0195377
0.0212961
0.020985
0.0185707
0.015638
0.0133636
0.0119264
0.0108919
0.00975279
0.00821345
0.00632614
0.00444845
0.00282185
0.00116947
-0.000398621
-0.00185675
-0.00320631
-0.00445717
-0.00561954
-0.00670535
-0.00772411
-0.00868539
-0.00959849
-0.0104763
-0.0113197
-0.0121498
-0.0129414
-0.0136567
-0.0142628
-0.0147397
-0.015097
-0.0153966
-0.0104711
-0.01021
-0.00988622
-0.00944578
-0.00886275
-0.00814647
-0.00732752
-0.00643147
-0.00547415
-0.00445825
-0.00337858
-0.00222734
-0.000994414
0.000329708
0.00175331
0.00328324
0.0049268
0.00668927
0.0085721
0.0105721
0.0126826
0.0148958
0.0172054
0.0195261
0.0213482
0.0216312
0.0202594
0.0184236
0.01701
0.0160579
0.0151477
0.0138832
0.012145
0.0100917
0.00794674
0.00587304
0.00399623
0.00234911
0.000753401
-0.000762369
-0.00217701
-0.00349607
-0.00473136
-0.00589503
-0.00699783
-0.00804743
-0.00905853
-0.010036
-0.0109713
-0.0118771
-0.0126793
-0.0133436
-0.0138412
-0.0142005
-0.0144841
-0.0096389
-0.00939309
-0.00907877
-0.00863816
-0.00804107
-0.00729801
-0.00643628
-0.00549094
-0.00448324
-0.00342005
-0.00229961
-0.00111511
0.000139873
0.00147136
0.00288505
0.00438636
0.00597807
0.00766043
0.00943107
0.0112836
0.0132092
0.0152044
0.0172847
0.0194305
0.0212952
0.0220958
0.0216475
0.0207701
0.0200755
0.0195163
0.0186954
0.017327
0.0154018
0.0131587
0.0108658
0.0086632
0.00658964
0.00465778
0.0029073
0.00136051
-0.000151247
-0.00158925
-0.00294573
-0.00422755
-0.00544583
-0.00660981
-0.00773064
-0.00881736
-0.00985445
-0.0108333
-0.011713
-0.0124169
-0.0129331
-0.0132852
-0.0135536
-0.00886633
-0.00863599
-0.00833318
-0.00789895
-0.00729793
-0.00653482
-0.00564265
-0.00465992
-0.00361454
-0.00251675
-0.00136708
-0.000162485
0.00110192
0.00243109
0.00382925
0.00529817
0.00683836
0.00844781
0.010122
0.0118523
0.0136292
0.0154509
0.0173443
0.0193291
0.0211915
0.0223745
0.0226634
0.0225663
0.0224718
0.0222297
0.0214877
0.0200569
0.0180167
0.0156481
0.013232
0.0109229
0.00876705
0.00675922
0.00487477
0.00311539
0.00154535
7.67781e-05
-0.00136056
-0.00273026
-0.00403881
-0.00529426
-0.00650472
-0.00767625
-0.00879989
-0.00983085
-0.0107602
-0.0114964
-0.0120174
-0.0123651
-0.0126139
-0.00815853
-0.00794182
-0.00765066
-0.00722859
-0.00662952
-0.00585519
-0.00494206
-0.00393191
-0.00285731
-0.00173408
-0.000565448
0.000650622
0.0019183
0.00324082
0.00462023
0.00605735
0.00755127
0.00909896
0.0106945
0.0123289
0.0139919
0.0156818
0.017425
0.0192576
0.0210633
0.0224777
0.0232985
0.0238062
0.0241859
0.0242117
0.0235509
0.0220993
0.0200091
0.0175859
0.0151107
0.0127369
0.0105164
0.00845272
0.00653114
0.00472819
0.00302183
0.00142032
-3.14297e-05
-0.00140976
-0.00278009
-0.00410847
-0.00538492
-0.00661969
-0.00780214
-0.00888912
-0.00983063
-0.0105872
-0.0111111
-0.0114439
-0.0116778
-0.00751008
-0.0073094
-0.00703259
-0.00662301
-0.00603279
-0.00525863
-0.00432916
-0.00329934
-0.00220341
-0.00106147
0.00012045
0.00134365
0.00261032
0.00392308
0.00528352
0.00669164
0.00814603
0.009643
0.0111769
0.0127386
0.0143183
0.0159118
0.0175376
0.0192301
0.0209364
0.022445
0.0236045
0.0245356
0.025275
0.0255195
0.0249465
0.0235118
0.0214273
0.0190104
0.0165341
0.014148
0.0119053
0.00981235
0.00786201
0.00604123
0.00432627
0.00269532
0.00113252
-0.000356249
-0.00177292
-0.00309958
-0.00438419
-0.00565004
-0.00687261
-0.00799375
-0.00896406
-0.00970798
-0.0102146
-0.0105381
-0.0107552
-0.00693066
-0.0067426
-0.00648172
-0.00608926
-0.00550923
-0.00473456
-0.00379903
-0.00275375
-0.00164194
-0.0004863
0.000704561
0.00193022
0.00319284
0.00449446
0.00583644
0.00721865
0.00863953
0.0100958
0.011582
0.0130902
0.0146102
0.0161353
0.0176731
0.0192427
0.0208252
0.0223195
0.0236477
0.0248447
0.0258347
0.0262443
0.0257564
0.0243687
0.0223324
0.0199695
0.0175394
0.015185
0.0129599
0.0108752
0.00892289
0.00708883
0.0053616
0.0037278
0.00217198
0.000679218
-0.000764849
-0.00217106
-0.00352477
-0.0048309
-0.00615482
-0.00714142
-0.00811046
-0.00884757
-0.00934314
-0.00965215
-0.0098536
-0.0064079
-0.00623529
-0.0059906
-0.00561355
-0.00504742
-0.00427586
-0.00333732
-0.00228363
-0.00116116
2.79174e-06
0.00119777
0.0024224
0.00367836
0.0049676
0.00629152
0.00765006
0.00904214
0.010465
0.0119141
0.0133824
0.0148609
0.0163391
0.0178123
0.0192804
0.0207311
0.0221404
0.0235087
0.0248347
0.0259642
0.0264872
0.0260725
0.0247499
0.0227915
0.0205173
0.0181702
0.0158832
0.0137112
0.0116641
0.00973419
0.00791346
0.00619117
0.00455611
0.00299684
0.00150202
6.31708e-05
-0.00133013
-0.00268711
-0.00399489
-0.0052052
-0.00633913
-0.00754044
-0.00802938
-0.00846512
-0.00879314
-0.00898474
-0.00593088
-0.00577222
-0.0055415
-0.00518465
-0.00463401
-0.00387517
-0.00293934
-0.00188271
-0.000755176
0.000412549
0.00160787
0.00282822
0.0040751
0.00535055
0.00665609
0.00799213
0.00935816
0.0107523
0.0121711
0.0136089
0.0150571
0.016503
0.01793
0.0193183
0.020647
0.0219338
0.0232482
0.0245875
0.0257663
0.0263435
0.0259851
0.0247328
0.0228724
0.0207113
0.0184724
0.0162814
0.0141877
0.0122
0.0103167