/*--------------------------------*- C++ -*----------------------------------*\
  =========                 |
  \\      /  F ield         | OpenFOAM: The Open Source CFD Toolbox
   \\    /   O peration     | Website:  https://openfoam.org
    \\  /    A nd           | Version:  7
     \\/     M anipulation  |
\*---------------------------------------------------------------------------*/
FoamFile
{
    version     2.0;
    format      ascii;
    class       surfaceScalarField;
    location    "45";
    object      phi;
}
// * * * * * * * * * * * * * * * * * * * * * * * * * * * * * * * * * * * * * //

dimensions      [0 3 -1 0 0 0 0];

internalField   nonuniform List<scalar> 
34768
(
8.19205e-05
0.000970009
-0.000149633
-4.45711e-05
2.59186e-05
0.00092095
-1.58381e-05
1.08679e-05
0.000907468
-8.26977e-06
6.71997e-06
0.000904248
-5.34439e-06
4.60992e-06
0.000903533
-4.28583e-06
3.90447e-06
0.000903181
-3.61861e-06
3.5058e-06
0.000903112
-3.44317e-06
3.42369e-06
0.000903119
-3.13291e-06
3.07044e-06
0.000903263
-3.22529e-06
3.00045e-06
0.000903326
-3.08627e-06
2.9878e-06
0.0009033
-2.99578e-06
3.21679e-06
0.000903281
-3.04155e-06
2.97768e-06
0.000903566
-3.21565e-06
3.16404e-06
0.000903554
-3.213e-06
3.37181e-06
0.000903545
-3.33016e-06
3.29807e-06
0.000903836
-3.56488e-06
3.54108e-06
0.000903728
-3.51552e-06
3.69936e-06
0.000903821
-3.68103e-06
3.67204e-06
0.000903915
-3.86043e-06
3.75815e-06
0.000904109
-4.15297e-06
4.75699e-06
0.000904103
-5.55766e-06
6.36746e-06
0.000905198
-5.22372e-06
4.37883e-06
0.000904873
-3.61991e-06
4.08956e-06
0.000904609
-5.35449e-06
-3.51844e-07
0.000909286
-7.17149e-07
1.29332e-06
0.000908634
-1.19431e-06
8.52188e-07
0.000909443
-5.56475e-07
7.65502e-09
0.000909651
5.52289e-07
-8.36067e-07
0.000909384
1.19415e-06
-1.30741e-06
0.000909215
1.33727e-06
-1.38305e-06
0.000909158
1.38574e-06
-1.36505e-06
0.000909082
1.35138e-06
-1.33505e-06
0.000909086
1.27589e-06
-1.26471e-06
0.000909101
1.26067e-06
-1.25525e-06
0.000909107
1.25697e-06
-1.25788e-06
0.000909113
1.2658e-06
-1.27351e-06
0.00090912
1.28814e-06
-1.40311e-06
0.000909227
1.72483e-06
-1.14775e-06
0.000909934
6.77626e-07
-5.09047e-07
0.000910343
4.47001e-07
-3.87156e-07
0.000910351
4.3398e-07
-4.83933e-07
0.00091026
5.40939e-07
-6.02323e-07
0.000910271
6.71577e-07
-6.46889e-07
0.000910085
7.31474e-07
-8.24525e-07
0.000910102
9.29193e-07
-1.04583e-06
0.000910025
1.17792e-06
-1.32739e-06
0.000909958
1.49865e-06
-1.69594e-06
0.000910005
1.92564e-06
-2.29575e-06
0.000910078
2.51677e-06
-2.90308e-06
0.000910093
3.37248e-06
-4.04932e-06
0.000910284
4.66006e-06
-5.53186e-06
0.000910478
6.55715e-06
-7.67053e-06
0.000910619
8.69569e-06
-6.5955e-06
0.000907405
-4.12169e-06
-2.68594e-05
0.000940484
-0.000827722
0.000143785
0.000703807
-1.98942e-05
-0.00097252
-0.000148688
0.000116844
0.00100433
-0.000925032
-9.01748e-05
7.07892e-05
0.00094439
-0.000911552
-5.66976e-05
4.62525e-05
0.000921971
-0.000907153
-3.8306e-05
3.22899e-05
0.000913143
-0.000905432
-2.76115e-05
2.38892e-05
0.00090913
-0.000904485
-2.03961e-05
1.824e-05
0.000906618
-0.000903954
-1.6012e-05
1.42041e-05
0.00090574
-0.000903827
-1.25681e-05
1.1337e-05
0.000905038
-0.000903711
-1.02889e-05
9.27915e-06
0.000904702
-0.000903759
-8.29915e-06
7.71852e-06
0.000904323
-0.000903647
-6.93372e-06
6.32373e-06
0.000904242
-0.00090356
-5.88799e-06
5.31169e-06
0.000904123
-0.00090379
-4.79427e-06
4.52709e-06
0.000904046
-0.000903731
-4.20828e-06
3.83393e-06
0.000904097
-0.00090368
-3.8e-06
3.5074e-06
0.000903967
-0.000903834
-3.249e-06
3.13078e-06
0.00090395
-0.000903792
-3.14134e-06
2.99181e-06
0.000903943
-0.000903853
-2.96642e-06
2.8816e-06
0.000903944
-0.000903917
-3.01598e-06
3.09188e-06
0.000903852
-0.000904184
-2.88226e-06
3.01523e-06
0.000904067
-0.000903954
-3.35714e-06
2.74274e-06
0.000904589
-0.000907006
-2.91234e-06
5.85543e-06
0.00090409
-0.000903346
-4.74361e-06
-7.29585e-07
0.000908852
-0.000907866
-4.86981e-07
6.26199e-07
0.000907765
-0.000908334
-5.97422e-07
6.81271e-07
0.000908295
-0.000909618
-7.29807e-07
1.10893e-06
0.000909289
-0.000910114
-1.28093e-06
1.00492e-06
0.000910445
-0.000909546
-6.82851e-07
8.75851e-07
0.000909413
-0.000909356
-1.11816e-06
7.95112e-07
0.000909744
-0.000909144
-6.76187e-07
7.68766e-07
0.000909121
-0.000909018
-8.98947e-07
1.07821e-06
0.000908911
-0.000909036
-1.18975e-06
1.32822e-06
0.000908973
-0.000909088
-1.44412e-06
1.5349e-06
0.000909075
-0.000909124
-1.44935e-06
1.58693e-06
0.000909066
-0.000909162
-1.54497e-06
1.52452e-06
0.000909264
-0.000909203
-1.42222e-06
1.33975e-06
0.000909368
-0.000909645
-1.07345e-06
8.253e-07
0.000909976
-0.000909891
-9.18598e-08
-2.26651e-07
0.000910293
-0.00091024
2.33155e-07
-3.27548e-07
0.000910418
-0.000910493
4.12272e-07
-5.8924e-07
0.000910752
-0.000910551
9.60379e-07
-1.33009e-06
0.000911002
-0.000910519
1.79966e-06
-2.27706e-06
0.000911077
-0.000910503
2.86359e-06
-3.57175e-06
0.00091129
-0.000910508
4.30315e-06
-5.17654e-06
0.000911459
-0.00091055
6.09559e-06
-7.28751e-06
0.000911817
-0.000910746
8.46016e-06
-9.85306e-06
0.000912212
-0.000910932
1.13837e-05
-1.33106e-05
0.00091293
-0.000911367
1.53695e-05
-1.78501e-05
0.000913917
-0.000911963
2.0725e-05
-2.43424e-05
0.000915648
-0.000913129
2.86478e-05
-3.39037e-05
0.00091845
-0.000915152
4.05219e-05
-4.88144e-05
0.000923507
-0.000918926
5.98592e-05
-7.41759e-05
0.000933301
-0.000924659
9.38624e-05
-0.000124204
0.000955048
-0.000978529
0.000165374
-0.00014343
0.000956617
-0.000599773
8.4843e-05
0.000519076
-4.17334e-06
-0.00102187
-0.000134212
0.000131561
0.0010245
-0.000962695
-0.000111777
9.35298e-05
0.000980914
-0.000933133
-7.94785e-05
6.81743e-05
0.00094441
-0.000920347
-5.89633e-05
5.12487e-05
0.000928036
-0.000914075
-4.46565e-05
3.92429e-05
0.000919463
-0.000910495
-3.45496e-05
3.05113e-05
0.000914508
-0.000907972
-2.70358e-05
2.34042e-05
0.00091158
-0.000906946
-2.08724e-05
1.86546e-05
0.000909141
-0.000906075
-1.65187e-05
1.46095e-05
0.000907963
-0.000905581
-1.29114e-05
1.13826e-05
0.00090709
-0.000905061
-1.0217e-05
8.88202e-06
0.000906377
-0.000904955
-7.67644e-06
6.87872e-06
0.000905735
-0.000904622
-5.78642e-06
4.98547e-06
0.000905408
-0.000904441
-4.37509e-06
3.74528e-06
0.000905058
-0.000904393
-3.09384e-06
2.71721e-06
0.00090476
-0.00090407
-2.31042e-06
1.97484e-06
0.000904399
-0.000904064
-1.6018e-06
1.39834e-06
0.000904265
-0.000903972
-1.25153e-06
1.27368e-06
0.000903952
-0.000903992
-9.46121e-07
9.87297e-07
0.000903958
-0.000903726
-1.2729e-06
7.27253e-07
0.000904283
-0.000904771
-4.20653e-07
1.58008e-06
0.000903629
-0.000906049
4.56858e-07
-2.01963e-06
0.000907634
-0.000907917
1.48524e-06
-1.05497e-06
0.000907515
-0.000907784
4.4511e-07
-3.38591e-07
0.000907712
-0.000908049
2.22943e-07
-1.43357e-07
0.000908009
-0.000908613
-2.42446e-07
7.64307e-07
0.000908137
-0.000910648
-1.33354e-06
1.27849e-06
0.000910753
-0.000909204
-1.17859e-06
1.49626e-06
0.000908943
-0.000909895
-1.89984e-06
2.19851e-06
0.000909656
-0.00090893
-2.22225e-06
2.44251e-06
0.000908774
-0.000908682
-2.7662e-06
3.12002e-06
0.000908396
-0.000908797
-3.38813e-06
3.66061e-06
0.000908596
-0.000908882
-3.88912e-06
3.96693e-06
0.000908878
-0.000909153
-4.14418e-06
4.21654e-06
0.000909157
-0.000909338
-4.18309e-06
4.14118e-06
0.000909457
-0.000909534
-3.98943e-06
3.72622e-06
0.000909876
-0.000910741
-2.95025e-06
1.66036e-06
0.00091211
-0.000910561
-1.65145e-06
1.624e-06
0.000910668
-0.000910697
-1.17647e-06
7.05437e-07
0.000911247
-0.000911151
-2.09581e-07
-4.17131e-07
0.000911857
-0.000911536
1.07551e-06
-1.87481e-06
0.000912413
-0.000911866
2.81625e-06
-3.81313e-06
0.000912939
-0.000912264
4.96792e-06
-6.19978e-06
0.000913572
-0.000912768
7.71377e-06
-9.2362e-06
0.000914364
-0.00091333
1.09762e-05
-1.29727e-05
0.000915399
-0.000914241
1.51412e-05
-1.76369e-05
0.000916807
-0.000915448
2.04893e-05
-2.3575e-05
0.000918602
-0.000917408
2.72504e-05
-3.13267e-05
0.00092155
-0.000920383
3.62011e-05
-4.18458e-05
0.000926092
-0.000925462
4.85236e-05
-5.64014e-05
0.000933401
-0.000934181
6.57487e-05
-7.70863e-05
0.000945577
-0.000950234
9.09018e-05
-0.000108012
0.000967398
-0.000985795
0.000130108
-0.000154662
0.00101039
-0.000906999
0.00015751
-9.16349e-05
0.000841157
-0.000458496
4.89149e-05
0.00041237
-2.81884e-06
-0.00101384
-0.000100578
0.000120161
0.00099423
-0.000997455
-0.000114283
0.000100772
0.00101094
-0.00095549
-8.79951e-05
7.74023e-05
0.000966055
-0.000935997
-6.83404e-05
6.05812e-05
0.000943729
-0.000925301
-5.3808e-05
4.78359e-05
0.000931246
-0.000918942
-4.25686e-05
3.78818e-05
0.000923603
-0.000914907
-3.3719e-05
2.9988e-05
0.000918612
-0.000912238
-2.67565e-05
2.37502e-05
0.000915219
-0.000910005
-2.09507e-05
1.79998e-05
0.000912932
-0.000908812
-1.59995e-05
1.38955e-05
0.000910893
-0.000907867
-1.18875e-05
1.0344e-05
0.000909388
-0.000906952
-8.76298e-06
7.31877e-06
0.000908376
-0.000906293
-6.01448e-06
4.83e-06
0.000907459
-0.000905941
-3.66853e-06
2.81641e-06
0.000906777
-0.000905259
-2.07549e-06
1.3364e-06
0.000905985
-0.000904928
-5.99295e-07
-3.94086e-08
0.000905556
-0.000904533
3.82676e-07
-7.29344e-07
0.000904873
-0.000904266
1.08697e-06
-1.34826e-06
0.000904526
-0.000903826
1.22631e-06
-1.90843e-06
0.00090451
-0.00090451
2.21053e-06
-1.21974e-06
0.000903526
-0.000905736
3.37249e-06
-4.99624e-06
0.000907372
-0.000907077
4.48637e-06
-4.29391e-06
0.000906903
-0.000906961
3.71201e-06
-3.18914e-06
0.000906462
-0.000907114
2.74322e-06
-1.90102e-06
0.000906302
-0.000908287
1.19044e-06
-1.0855e-06
0.000908217
-0.000907288
3.61918e-07
4.13731e-07
0.000906553
-0.000910514
-1.03319e-06
1.45562e-06
0.000910137
-0.000908436
-1.65411e-06
2.2794e-06
0.000907862
-0.000908666
-3.0772e-06
3.93718e-06
0.000907861
-0.000908835
-3.94686e-06
4.30362e-06
0.000908538
-0.000907975
-4.82824e-06
5.3897e-06
0.000907477
-0.00090827
-5.85685e-06
6.3014e-06
0.000907892
-0.000908684
-6.55018e-06
6.93809e-06
0.000908364
-0.000909097
-7.10104e-06
7.22716e-06
0.000909042
-0.000909543
-7.22138e-06
7.27389e-06
0.000909562
-0.000910114
-6.98932e-06
6.5596e-06
0.000910617
-0.000913206
-5.58965e-06
5.17038e-06
0.0009137
-0.000911134
-4.60567e-06
3.98816e-06
0.000911825
-0.000911889
-3.32275e-06
2.59957e-06
0.000912686
-0.000912587
-1.72358e-06
6.8214e-07
0.000913702
-0.00091345
4.19223e-07
-1.49564e-06
0.000914599
-0.000914209
2.84403e-06
-4.2836e-06
0.000915721
-0.000915215
6.01233e-06
-7.65386e-06
0.000916927
-0.000916339
9.71048e-06
-1.18134e-05
0.000918512
-0.000917692
1.41665e-05
-1.68145e-05
0.000920408
-0.000919546
1.96651e-05
-2.28768e-05
0.000922823
-0.000922277
2.63676e-05
-3.03139e-05
0.000926287
-0.00092624
3.46475e-05
-3.95697e-05
0.000931224
-0.000932216
4.51348e-05
-5.12704e-05
0.000938411
-0.000941481
5.83702e-05
-6.64022e-05
0.00094957
-0.000956762
7.55967e-05
-8.5903e-05
0.000967122
-0.000983229
9.73857e-05
-0.000111554
0.000997447
-0.00102536
0.000126412
-0.000130624
0.00102961
-0.000772181
0.000102226
-3.93516e-05
0.000709341
-0.000376631
2.96159e-05
0.000348649
-1.66854e-06
-0.00096948
-7.16846e-05
9.91509e-05
0.000941981
-0.00102133
-0.000104606
9.77675e-05
0.00102815
-0.000975923
-8.79321e-05
7.84527e-05
0.000985374
-0.000951152
-7.0276e-05
6.31161e-05
0.000958284
-0.000937249
-5.66802e-05
5.09257e-05
0.000942975
-0.000928369
-4.57002e-05
4.09182e-05
0.000933123
-0.000922503
-3.65598e-05
3.26591e-05
0.000926377
-0.00091832
-2.90015e-05
2.56325e-05
0.000921662
-0.000915383
-2.26503e-05
1.99053e-05
0.000918102
-0.000913201
-1.73986e-05
1.49892e-05
0.000915585
-0.000911425
-1.23791e-05
1.02432e-05
0.000913537
-0.000909994
-8.4874e-06
6.78102e-06
0.000911678
-0.000908999
-4.93075e-06
3.62059e-06
0.000910288
-0.00090766
-2.35525e-06
1.01763e-06
0.000908979
-0.000906831
8.41528e-08
-1.16161e-06
0.000907893
-0.000906177
2.0096e-06
-2.53323e-06
0.000906689
-0.000905476
3.43475e-06
-3.81106e-06
0.000905844
-0.000904415
3.96727e-06
-5.09926e-06
0.000905543
-0.000904888
5.51042e-06
-4.59714e-06
0.000903975
-0.000905723
6.99669e-06
-8.909e-06
0.000907641
-0.000906766
8.36279e-06
-8.28491e-06
0.000906699
-0.000906364
7.71278e-06
-7.04496e-06
0.000905712
-0.000905912
6.48161e-06
-5.6377e-06
0.000905089
-0.000905523
4.77329e-06
-3.92321e-06
0.000904701
-0.000907468
3.05206e-06
-2.26774e-06
0.000906717
-0.000905697
1.17986e-06
-5.24223e-08
0.000904608
-0.000909614
-8.89948e-07
1.58649e-06
0.000908961
-0.000907136
-2.28974e-06
3.11537e-06
0.000906359
-0.000907095
-4.15433e-06
5.10385e-06
0.000906199
-0.000907965
-5.7094e-06
6.47159e-06
0.00090726
-0.000906822
-7.28965e-06
8.11055e-06
0.000906062
-0.000907382
-8.81156e-06
9.45061e-06
0.000906807
-0.000908042
-9.98528e-06
1.0418e-05
0.000907676
-0.000908814
-1.06947e-05
1.09005e-05
0.000908677
-0.000909641
-1.09432e-05
1.09111e-05
0.000909742
-0.000911908
-1.05116e-05
9.43266e-06
0.000913058
-0.000913218
-8.5857e-06
8.55285e-06
0.000913322
-0.000912369
-7.94662e-06
7.25796e-06
0.000913129
-0.000913564
-6.29457e-06
5.34658e-06
0.000914583
-0.000914723
-4.22075e-06
2.90368e-06
0.000916111
-0.000916082
-1.50558e-06
8.04066e-09
0.00091765
-0.000917388
1.67915e-06
-3.57912e-06
0.000919357
-0.000919017
5.58146e-06
-7.71406e-06
0.000921218
-0.000920876
1.01709e-05
-1.26831e-05
0.000923454
-0.000923223
1.54471e-05
-1.84024e-05
0.000926242
-0.000926193
2.16499e-05
-2.53426e-05
0.000929949
-0.000930461
2.91752e-05
-3.33097e-05
0.000934656
-0.000936191
3.78584e-05
-4.28925e-05
0.000941283
-0.000944636
4.84269e-05
-5.44498e-05
0.000950715
-0.000957287
6.05701e-05
-6.68978e-05
0.000963668
-0.000976226
7.47812e-05
-8.34781e-05
0.000984974
-0.00100965
9.33174e-05
-0.000103307
0.00101969
-0.00102496
0.000108551
-9.7547e-05
0.001014
-0.000655605
6.21104e-05
-1.756e-05
0.000611091
-0.000326352
1.90556e-05
0.000308306
-1.0469e-06
-0.000913908
-5.11048e-05
7.84935e-05
0.000886484
-0.00103177
-9.06691e-05
8.98774e-05
0.00103253
-0.000993641
-8.33113e-05
7.57156e-05
0.00100121
-0.00096516
-6.87011e-05
6.23725e-05
0.00097146
-0.000949034
-5.66091e-05
5.15839e-05
0.00095403
-0.000937823
-4.62126e-05
4.11659e-05
0.000942841
-0.000930395
-3.6339e-05
3.23032e-05
0.000934402
-0.000925007
-2.85442e-05
2.50174e-05
0.000928505
-0.000921063
-2.18354e-05
1.8855e-05
0.000924015
-0.000918026
-1.60893e-05
1.35028e-05
0.000920585
-0.000915712
-1.12109e-05
8.97959e-06
0.000917917
-0.000913724
-7.12782e-06
5.02142e-06
0.000915806
-0.000911827
-2.97928e-06
1.1839e-06
0.0009136
-0.000910432
4.53752e-07
-1.94949e-06
0.000911908
-0.000908967
3.29212e-06
-4.39092e-06
0.00091005
-0.000907791
5.64078e-06
-6.54304e-06
0.00090868
-0.00090617
6.99344e-06
-8.49692e-06
0.000907664
-0.000906091
9.34056e-06
-8.62752e-06
0.000905373
-0.000906582
1.16075e-05
-1.36322e-05
0.000908606
-0.000907056
1.31718e-05
-1.33392e-05
0.000907228
-0.000906042
1.2761e-05
-1.2324e-05
0.000905615
-0.000905219
1.17611e-05
-1.08191e-05
0.000904292
-0.000904147
9.85349e-06
-8.83631e-06
0.000903151
-0.000903616
7.66516e-06
-6.52684e-06
0.000902505
-0.000905698
5.62671e-06
-4.10605e-06
0.00090421
-0.000903274
2.57282e-06
-9.94275e-07
0.000901734
-0.000908093
-4.49942e-07
1.68582e-06
0.0009069
-0.000905176
-2.79775e-06
4.27537e-06
0.000903748
-0.000905081
-5.65991e-06
7.24022e-06
0.000903554
-0.000906391
-8.72759e-06
9.39467e-06
0.000905782
-0.000905117
-1.03855e-05
1.15148e-05
0.000904048
-0.000906067
-1.25111e-05
1.34213e-05
0.000905221
-0.000907289
-1.40694e-05
1.47861e-05
0.000906639
-0.000908454
-1.52093e-05
1.56231e-05
0.000908108
-0.000909897
-1.56374e-05
1.53392e-05
0.000910264
-0.000914687
-1.40411e-05
1.28321e-05
0.000915967
-0.000913346
-1.33054e-05
1.31656e-05
0.000913557
-0.000914137
-1.23268e-05
1.14772e-05
0.000915057
-0.000915777
-1.04292e-05
9.1711e-06
0.000917105
-0.000917492
-7.71639e-06
6.25155e-06
0.000919026
-0.000919328
-4.59102e-06
2.81723e-06
0.00092117
-0.000921347
-7.42954e-07
-1.34987e-06
0.000923507
-0.000923545
3.64818e-06
-6.1791e-06
0.000926141
-0.000926257
8.82491e-06
-1.16181e-05
0.000929115
-0.000929472
1.47458e-05
-1.79417e-05
0.00093273
-0.000933572
2.14961e-05
-2.51461e-05
0.000937282
-0.00093886
2.90789e-05
-3.33497e-05
0.000943189
-0.000946179
3.78336e-05
-4.19903e-05
0.000950391
-0.000955523
4.62996e-05
-5.17248e-05
0.000961002
-0.000970452
5.76656e-05
-6.39892e-05
0.000976827
-0.000993029
7.06998e-05
-7.80407e-05
0.00100042
-0.00102744
8.56004e-05
-9.11783e-05
0.00103307
-0.000998984
8.90315e-05
-7.16007e-05
0.000981593
-0.000574681
3.99173e-05
-1.00017e-05
0.000544804
-0.000293365
1.31862e-05
0.000280856
-7.17003e-07
-0.000860267
-3.73687e-05
6.17762e-05
0.000835822
-0.00103091
-7.65971e-05
8.00219e-05
0.00102745
-0.00100807
-7.65847e-05
7.06348e-05
0.00101399
-0.00097734
-6.45021e-05
5.86736e-05
0.000983139
-0.000959144
-5.35097e-05
4.85641e-05
0.00096406
-0.000947244
-4.39123e-05
3.95954e-05
0.000951531
-0.000938921
-3.55163e-05
3.16317e-05
0.000942776
-0.000932879
-2.79602e-05
2.46714e-05
0.000936139
-0.000927158
-2.05472e-05
1.65895e-05
0.000931087
-0.00092326
-1.24075e-05
9.61571e-06
0.000926024
-0.00092005
-6.99753e-06
4.52611e-06
0.000922495
-0.000917518
-2.32294e-06
2.6279e-07
0.000919553
-0.000915511
1.43213e-06
-2.88195e-06
0.000916938
-0.000913412
4.06974e-06
-5.71724e-06
0.000915039
-0.000911648
7.70626e-06
-9.23425e-06
0.000913158
-0.000909357
1.0289e-05
-1.22844e-05
0.000911339
-0.000908712
1.3592e-05
-1.32116e-05
0.000908321
-0.000908634
1.67231e-05
-1.82122e-05
0.000910117
-0.00090878
1.84956e-05
-1.93587e-05
0.000909642
-0.000906735
1.9224e-05
-1.89893e-05
0.000906504
-0.000904991
1.85732e-05
-1.78415e-05
0.000904267
-0.000903244
1.67326e-05
-1.5773e-05
0.000902299
-0.000901896
1.44876e-05
-1.30241e-05
0.000900453
-0.000901636
1.14321e-05
-9.9283e-06
0.000900159
-0.000901785
8.76874e-06
-6.48973e-06
0.000899539
-0.000899807
4.28057e-06
-2.10309e-06
0.000897668
-0.000905412
5.70214e-08
1.7692e-06
0.00090363
-0.000902062
-3.57113e-06
5.6492e-06
0.000900034
-0.000901116
-7.71009e-06
9.87909e-06
0.000899002
-0.000905972
-1.21446e-05
1.30471e-05
0.000905128
-0.000902878
-1.43764e-05
1.59074e-05
0.00090141
-0.000904188
-1.72799e-05
1.85167e-05
0.000903017
-0.000905945
-1.95329e-05
2.03794e-05
0.000905165
-0.000907863
-2.09843e-05
2.14304e-05
0.000907486
-0.000911275
-2.16289e-05
2.11751e-05
0.000911798
-0.000915641
-1.99828e-05
2.01229e-05
0.000915571
-0.000914085
-1.97207e-05
1.90718e-05
0.000914805
-0.000916026
-1.80909e-05
1.69728e-05
0.000917214
-0.000918405
-1.57325e-05
1.42615e-05
0.000919945
-0.000920749
-1.26781e-05
1.087e-05
0.000922626
-0.000923212
-8.95729e-06
6.82321e-06
0.000925414
-0.000925769
-4.59083e-06
2.13606e-06
0.00092829
-0.000928733
4.15683e-07
-3.08895e-06
0.00093147
-0.000932052
5.96256e-06
-9.06722e-06
0.000935219
-0.000936042
1.22749e-05
-1.57239e-05
0.000939551
-0.000941001
1.92831e-05
-2.30966e-05
0.000944872
-0.000947055
2.59055e-05
-2.93926e-05
0.000950598
-0.000954856
3.39336e-05
-3.84492e-05
0.000959426
-0.000966434
4.3322e-05
-4.81891e-05
0.000971353
-0.000982688
5.36565e-05
-5.91705e-05
0.000988251
-0.00100717
6.51471e-05
-7.11854e-05
0.00101325
-0.0010366
7.66554e-05
-7.85558e-05
0.00103854
-0.0009633
7.21066e-05
-5.3626e-05
0.00094486
-0.000519974
2.76576e-05
-6.74895e-06
0.000499104
-0.000270253
9.62366e-06
0.000261101
-5.1595e-07
-0.000813236
-2.80436e-05
4.8869e-05
0.000792369
-0.00102252
-6.38886e-05
6.98029e-05
0.00101657
-0.00101923
-6.86928e-05
6.43276e-05
0.00102356
-0.000988583
-5.90257e-05
5.36842e-05
0.000993893
-0.000968823
-4.87777e-05
4.41304e-05
0.000973439
-0.000955839
-3.97173e-05
3.54703e-05
0.000960054
-0.000946503
-3.15073e-05
2.75759e-05
0.000950404
-0.000939531
-2.40153e-05
2.03728e-05
0.000943143
-0.000934162
-1.71966e-05
1.39359e-05
0.000937393
-0.000930028
-1.10326e-05
8.25179e-06
0.00093278
-0.0009265
-5.61895e-06
3.00839e-06
0.000929083
-0.00092172
5.77789e-07
-4.23402e-06
0.000925351
-0.000918703
7.7318e-06
-1.11877e-05
0.000922135
-0.000916088
1.40696e-05
-1.58807e-05
0.000917878
-0.000913985
1.72153e-05
-1.77762e-05
0.000914527
-0.000913826
1.70398e-05
-1.46314e-05
0.000911403
-0.000912197
2.23348e-05
-2.44474e-05
0.000914299
-0.000910626
2.52524e-05
-2.61086e-05
0.000911475
-0.000909487
2.58234e-05
-2.56007e-05
0.000909262
-0.000906419
2.63224e-05
-2.63772e-05
0.000906476
-0.000903424
2.57915e-05
-2.49431e-05
0.000902583
-0.000901008
2.37464e-05
-2.22408e-05
0.000899516
-0.000898753
2.05334e-05
-1.85928e-05
0.000896832
-0.000898257
1.64806e-05
-1.41939e-05
0.000895996
-0.000897293
1.19866e-05
-9.35686e-06
0.000894695
-0.000895171
6.5513e-06
-3.62776e-06
0.000892287
-0.000901456
7.85534e-07
1.85163e-06
0.000898864
-0.000897605
-4.44467e-06
7.33554e-06
0.000894765
-0.000896616
-1.02182e-05
1.30205e-05
0.000893869
-0.000903477
-1.54994e-05
1.74263e-05
0.00090161
-0.000899626
-1.95755e-05
2.16739e-05
0.000897592
-0.000901619
-2.3509e-05
2.51614e-05
0.000900034
-0.000904221
-2.65054e-05
2.7725e-05
0.00090307
-0.000907001
-2.84344e-05
2.88269e-05
0.000906679
-0.00091296
-2.78266e-05
2.58281e-05
0.000915029
-0.000915105
-2.69946e-05
2.77504e-05
0.00091442
-0.00091556
-2.73338e-05
2.64376e-05
0.000916527
-0.000918468
-2.52772e-05
2.39504e-05
0.000919864
-0.00092147
-2.24843e-05
2.0867e-05
0.000923156
-0.000924398
-1.90272e-05
1.68493e-05
0.000926643
-0.000927513
-1.47672e-05
1.23594e-05
0.000929986
-0.000930806
-9.75672e-06
7.14358e-06
0.000933483
-0.000934397
-4.24147e-06
1.33442e-06
0.000937367
-0.00093835
1.85493e-06
-5.04575e-06
0.000941601
-0.000943095
8.20418e-06
-1.05373e-05
0.000945487
-0.000947605
1.3972e-05
-1.77175e-05
0.000951406
-0.000954688
2.16344e-05
-2.57681e-05
0.000958875
-0.000963968
2.99719e-05
-3.42901e-05
0.000968338
-0.000976278
3.89032e-05
-4.36456e-05
0.00098107
-0.000993634
4.86052e-05
-5.38526e-05
0.000998928
-0.00101891
5.97769e-05
-6.50277e-05
0.0010242
-0.00103911
6.86551e-05
-6.85077e-05
0.00103901
-0.000926807
6.07613e-05
-4.34829e-05
0.000909568
-0.000481065
2.20382e-05
-5.8566e-06
0.000464922
-0.000253265
7.18999e-06
0.000246409
-3.80939e-07
-0.000773412
-2.14401e-05
3.86787e-05
0.000756129
-0.00100953
-5.27964e-05
6.00978e-05
0.00100219
-0.00102718
-6.1086e-05
5.80088e-05
0.00103023
-0.000998896
-5.34878e-05
4.85517e-05
0.0010038
-0.000978395
-4.38945e-05
3.97568e-05
0.000982501
-0.000964219
-3.52684e-05
3.10134e-05
0.000968442
-0.000954193
-2.67883e-05
2.26587e-05
0.000958291
-0.000946688
-1.83326e-05
1.47297e-05
0.000950259
-0.000940594
-1.12432e-05
7.84475e-06
0.000943962
-0.000935636
-4.66891e-06
1.58596e-06
0.00093869
-0.000931588
1.27161e-06
-4.02931e-06
0.000934318
-0.000928314
6.45173e-06
-8.55719e-06
0.000930394
-0.000924404
1.14496e-05
-1.45207e-05
0.000927451
-0.000920855
1.63081e-05
-1.85607e-05
0.000923086
-0.000918678
2.19658e-05
-2.33527e-05
0.000920046
-0.000913038
2.33672e-05
-3.30242e-05
0.00092268
-0.000914718
3.33294e-05
-3.48543e-05
0.000916231
-0.000911777
3.53165e-05
-3.57274e-05
0.00091218
-0.000909159
3.58655e-05
-3.53077e-05
0.000908597
-0.00090658
3.42532e-05
-3.48273e-05
0.000907154
-0.000901411
3.50731e-05
-3.42805e-05
0.000900624
-0.000897861
3.27612e-05
-3.08583e-05
0.000895969
-0.000894628
2.86729e-05
-2.60929e-05
0.000892065
-0.000893384
2.32774e-05
-2.02031e-05
0.000890334
-0.000891672
1.71068e-05
-1.35487e-05
0.000888145
-0.000888886
9.74453e-06
-5.74363e-06
0.000884923
-0.000895743
1.78821e-06
1.9455e-06
0.000892055
-0.000891396
-5.65015e-06
9.62335e-06
0.000887475
-0.000890617
-1.35753e-05
1.74194e-05
0.00088683
-0.000899195
-2.08751e-05
2.39557e-05
0.000896176
-0.000895192
-2.66178e-05
2.93616e-05
0.000892514
-0.000898187
-3.18012e-05
3.39336e-05
0.000896123
-0.000901841
-3.56601e-05
3.70798e-05
0.000900491
-0.000906547
-3.78058e-05
3.6853e-05
0.000907571
-0.000916063
-3.50396e-05
3.66754e-05
0.000914499
-0.000914056
-3.79358e-05
3.7659e-05
0.000914403
-0.000917458
-3.6859e-05
3.56335e-05
0.000918753
-0.000921253
-3.43163e-05
3.27081e-05
0.000922929
-0.000925158
-3.09377e-05
2.90057e-05
0.000927157
-0.000928809
-2.67382e-05
2.43359e-05
0.000931276
-0.000932479
-2.18246e-05
1.90967e-05
0.00093527
-0.000936377
-1.62869e-05
1.32728e-05
0.000939453
-0.000940535
-1.01943e-05
7.55374e-06
0.000943236
-0.000944091
-5.17795e-06
1.88809e-06
0.000947439
-0.000949156
1.75287e-06
-5.3616e-06
0.00095282
-0.000955316
9.21079e-06
-1.31278e-05
0.000959286
-0.000963022
1.73899e-05
-2.20491e-05
0.000967732
-0.000972839
2.65209e-05
-3.16172e-05
0.000977984
-0.000985846
3.73133e-05
-4.23396e-05
0.000990919
-0.00100462
4.68592e-05
-5.06868e-05
0.00100849
-0.00102939
5.38123e-05
-5.7198e-05
0.00103282
-0.00103622
5.90439e-05
-5.62025e-05
0.00103342
-0.000892368
4.63744e-05
-3.09448e-05
0.000876977
-0.000451673
1.45463e-05
-3.20647e-06
0.000440369
-0.000240499
5.45632e-06
0.000235281
-2.85323e-07
-0.00074036
-1.65863e-05
3.06878e-05
0.000726213
-0.00099447
-4.34725e-05
5.12514e-05
0.000986657
-0.00103268
-5.33522e-05
5.15395e-05
0.00103446
-0.00100853
-4.77374e-05
4.32748e-05
0.00101296
-0.000986882
-3.90154e-05
3.45395e-05
0.000991325
-0.000972545
-3.02163e-05
2.58769e-05
0.000976852
-0.000962202
-2.16415e-05
1.71438e-05
0.000966668
-0.000954213
-1.33746e-05
9.65641e-06
0.0009579
-0.000947847
-6.01964e-06
2.54222e-06
0.000951293
-0.000942599
8.50275e-07
-4.07769e-06
0.000945797
-0.000937195
8.04795e-06
-1.19421e-05
0.000941061
-0.000932847
1.59367e-05
-2.02536e-05
0.000937137
-0.000929043
2.3305e-05
-2.57283e-05
0.000931442
-0.000926955
2.74983e-05
-2.75945e-05
0.00092703
-0.000920329
2.81734e-05
-3.89339e-05
0.00093107
-0.000922323
3.89309e-05
-4.15721e-05
0.000924948
-0.00091835
4.37395e-05
-4.51375e-05
0.000919735
-0.000913121
4.65745e-05
-4.78121e-05
0.000914349
-0.000908192
4.88109e-05
-4.9246e-05
0.000908621
-0.000905923
4.87031e-05
-4.74367e-05
0.000904654
-0.000900104
4.70831e-05
-4.66556e-05
0.00089968
-0.000893924
4.49871e-05
-4.24997e-05
0.000891445
-0.000889174
3.96522e-05
-3.63229e-05
0.000885859
-0.000886811
3.26051e-05
-2.84827e-05
0.00088271
-0.000884018
2.41722e-05
-1.93999e-05
0.000879274
-0.000880257
1.41854e-05
-8.72147e-06
0.000874831
-0.000887619
3.23245e-06
2.06978e-06
0.000882362
-0.000882812
-7.33188e-06
1.2862e-05
0.000877335
-0.000882409
-1.82687e-05
2.34587e-05
0.000877278
-0.000892553
-2.81225e-05
3.24563e-05
0.000888283
-0.000889728
-3.64514e-05
4.00879e-05
0.000886159
-0.000893737
-4.29653e-05
4.56628e-05
0.000891109
-0.000899154
-4.78046e-05
4.92217e-05
0.000897808
-0.000908895
-4.88559e-05
4.76037e-05
0.000910219
-0.000912477
-4.93687e-05
5.0639e-05
0.000911278
-0.000915034
-5.04996e-05
4.97607e-05
0.000915843
-0.000919973
-4.85363e-05
4.71489e-05
0.000921428
-0.000924763
-4.53418e-05
4.33155e-05
0.000926856
-0.000929428
-4.10199e-05
3.86513e-05
0.00093186
-0.000933816
-3.59513e-05
3.32215e-05
0.000936608
-0.000938224
-3.01924e-05
2.7164e-05
0.000941313
-0.000942356
-2.47199e-05
2.20861e-05
0.000945048
-0.000946054
-1.85721e-05
1.49927e-05
0.00094969
-0.000951193
-1.10808e-05
6.69795e-06
0.000955631
-0.000956864
-2.40684e-06
-2.35458e-06
0.000961678
-0.000963508
7.86625e-06
-1.23585e-05
0.000968051
-0.000973426
1.55461e-05
-1.76732e-05
0.000975601
-0.00098135
2.09491e-05
-2.47953e-05
0.000985241
-0.00099454
2.85119e-05
-3.27192e-05
0.000998791
-0.00101296
3.71546e-05
-4.14961e-05
0.00101735
-0.00103638
4.57562e-05
-4.90263e-05
0.00103969
-0.00103026
4.98186e-05
-4.61229e-05
0.00102661
-0.000862699
3.6916e-05
-2.37992e-05
0.000849619
-0.000430647
1.08159e-05
-2.29953e-06
0.000422165
-0.00023077
4.17902e-06
0.000226758
-2.1498e-07
-0.000713164
-1.29301e-05
2.45436e-05
0.000701504
-0.000978994
-3.56382e-05
4.32085e-05
0.00097139
-0.00103589
-4.61182e-05
4.51739e-05
0.0010368
-0.00101757
-4.19967e-05
3.80865e-05
0.00102145
-0.000995753
-3.36267e-05
2.92983e-05
0.00100005
-0.000980856
-2.48554e-05
2.04737e-05
0.000985205
-0.000970333
-1.58405e-05
1.18858e-05
0.000974255
-0.000962104
-7.98273e-06
4.20315e-06
0.000965852
-0.000955603
-3.64224e-07
-3.24438e-06
0.00095918
-0.000949249
6.90868e-06
-1.11794e-05
0.000953489
-0.00094417
1.54933e-05
-2.00797e-05
0.000948728
-0.000939672
2.49036e-05
-2.8512e-05
0.000943253
-0.000935851
3.15068e-05
-3.37994e-05
0.000938118
-0.000932087
3.44267e-05
-3.56038e-05
0.000933241
-0.000931954
4.82753e-05
-5.05937e-05
0.000934251
-0.00092712
5.34849e-05
-5.50497e-05
0.000928667
-0.000922103
5.66057e-05
-5.84601e-05
0.000923942
-0.000915581
6.07239e-05
-6.25723e-05
0.000917418
-0.000909208
6.37315e-05
-6.43647e-05
0.000909833
-0.00090338
6.45275e-05
-6.35942e-05
0.000902442
-0.000899861
6.16246e-05
-6.09211e-05
0.000899157
-0.000889079
6.04631e-05
-5.83401e-05
0.000886961
-0.000882017
5.49666e-05
-5.08103e-05
0.000877871
-0.00087768
4.57861e-05
-3.9147e-05
0.000871058
-0.000874269
3.11218e-05
-2.62992e-05
0.000869471
-0.000868435
2.03833e-05
-1.30157e-05
0.000861103
-0.000876051
5.33575e-06
2.25708e-06
0.000868504
-0.000870851
-9.81055e-06
1.752e-05
0.000863196
-0.00087153
-2.47965e-05
3.04537e-05
0.000865934
-0.000882506
-3.46453e-05
4.28208e-05
0.000874398
-0.000881968
-4.95678e-05
5.45626e-05
0.000877044
-0.000888306
-5.85861e-05
6.16245e-05
0.00088534
-0.000897085
-6.33222e-05
6.24488e-05
0.00089803
-0.000909665
-6.14037e-05
6.47505e-05
0.00090639
-0.000910578
-6.67867e-05
6.6909e-05
0.000910525
-0.000916841
-6.59417e-05
6.46888e-05
0.000918161
-0.000923206
-6.29128e-05
6.08439e-05
0.00092534
-0.000929087
-5.843e-05
5.58983e-05
0.000931682
-0.000934536
-5.3092e-05
5.0022e-05
0.000937666
-0.000939738
-4.695e-05
4.4313e-05
0.000942434
-0.000943756
-4.11802e-05
3.7229e-05
0.000947764
-0.000948874
-3.23242e-05
2.72509e-05
0.000954003
-0.000953908
-2.1235e-05
1.67234e-05
0.000958473
-0.000961469
-1.37873e-05
1.21041e-05
0.000963204
-0.000964591
-9.00317e-06
5.2711e-06
0.000968372
-0.000971135
-1.80414e-06
-2.08352e-06
0.00097507
-0.000979181
6.13014e-06
-1.02816e-05
0.000983377
-0.00098945
1.44836e-05
-1.86921e-05
0.000993701
-0.001003
2.29625e-05
-2.72556e-05
0.00100734
-0.00102172
3.14926e-05
-3.57605e-05
0.00102603
-0.00104251
3.963e-05
-4.22371e-05
0.00104515
-0.00102255
4.21119e-05
-3.80042e-05
0.00101848
-0.000837492
2.94057e-05
-1.82869e-05
0.000826407
-0.000414716
8.05967e-06
-1.57676e-06
0.000408266
-0.000223253
3.17594e-06
0.000220192
-1.62327e-07
-0.000690881
-1.01236e-05
1.96753e-05