/*--------------------------------*- C++ -*----------------------------------*\
  =========                 |
  \\      /  F ield         | OpenFOAM: The Open Source CFD Toolbox
   \\    /   O peration     | Website:  https://openfoam.org
    \\  /    A nd           | Version:  7
     \\/     M anipulation  |
\*---------------------------------------------------------------------------*/
FoamFile
{
    version     2.0;
    format      ascii;
    class       volVectorField;
    location    "45";
    object      U;
}
// * * * * * * * * * * * * * * * * * * * * * * * * * * * * * * * * * * * * * //

dimensions      [0 1 -1 0 0 0 0];

internalField   nonuniform List<vector> 
17475
(
(1.01825 0.205788 -1.65568e-20)
(0.995996 0.0223584 -2.63383e-20)
(0.99979 0.00972611 0)
(0.999945 0.00486672 0)
(0.999982 0.00302304 0)
(0.999994 0.00206037 0)
(0.999997 0.00147247 0)
(0.999999 0.00107556 0)
(0.999999 0.000789092 -5.51531e-20)
(1 0.000572428 0)
(1 0.000402961 0)
(1 0.000267327 0)
(1 0.000157318 0)
(1 6.74694e-05 0)
(1 -5.61837e-06 0)
(1 -6.43503e-05 0)
(1 -0.000110206 0)
(1 -0.000144353 0)
(1 -0.000167542 0)
(1 -0.000180499 0)
(1 -0.000183711 -2.1222e-19)
(1 -0.000177987 4.19468e-22)
(1 -0.000163992 0)
(1 -0.000142652 -6.69744e-21)
(1 -0.00011559 0)
(1 -8.24727e-05 -1.33999e-20)
(1 -4.64361e-05 0)
(1 -8.45047e-06 0)
(1 2.99555e-05 -1.67483e-21)
(1 6.70919e-05 5.34395e-20)
(1 0.000101392 5.25276e-20)
(1 0.000131286 0)
(0.999999 0.000155477 0)
(0.999999 0.000172699 -5.25508e-20)
(0.999999 0.000181976 -5.24108e-20)
(0.999999 0.000182366 0)
(0.999999 0.000173162 -4.04453e-22)
(0.999999 0.000153614 0)
(0.999999 0.000123047 5.11828e-20)
(0.999999 8.02653e-05 2.55098e-20)
(0.999999 2.4773e-05 -2.5431e-20)
(0.999999 -4.46905e-05 0)
(0.999998 -0.000130213 -2.54303e-20)
(0.999998 -0.000234987 0)
(0.999998 -0.000363836 -1.28195e-20)
(0.999998 -0.000524121 0)
(0.999997 -0.00072731 2.63913e-20)
(0.999996 -0.00099178 0)
(0.999995 -0.00134782 0)
(0.999993 -0.00184703 0)
(0.99999 -0.00257918 0)
(0.999986 -0.00368495 -1.61617e-20)
(0.99995 -0.0053757 3.59707e-20)
(0.998952 -0.0029432 3.96869e-20)
(1.02903 -0.089733 -3.90962e-20)
(0.871146 0.0789232 2.21667e-20)
(1.10026 0.0971406 0)
(1.03479 0.0583748 0)
(1.01502 0.0372314 0)
(1.00784 0.0252203 -1.5815e-19)
(1.0047 0.0179 -1.52377e-19)
(1.0031 0.0131003 1.45534e-19)
(1.00219 0.0097475 0)
(1.00163 0.00728429 0)
(1.00125 0.0054044 0)
(1.00099 0.00392852 0)
(1.00079 0.00274699 0)
(1.00064 0.00179017 0)
(1.00051 0.00101243 0)
(1.00041 0.000383882 0)
(1.00032 -0.000115892 0)
(1.00024 -0.000500578 0)
(1.00017 -0.000780069 0)
(1.0001 -0.000961506 0)
(1.00004 -0.00105112 0)
(0.999977 -0.00105449 0)
(0.999925 -0.000978209 0)
(0.999878 -0.000828878 2.67743e-19)
(0.999838 -0.000615253 -6.69436e-20)
(0.999807 -0.000345866 -1.33972e-19)
(0.999786 -3.54921e-05 -7.82711e-23)
(0.999775 0.000303571 -1.66366e-20)
(0.999775 0.000656384 0)
(0.999785 0.00100875 -8.24788e-21)
(0.999807 0.00134504 8.19802e-21)
(0.999839 0.00165057 -1.30594e-19)
(0.99988 0.00191136 1.31641e-19)
(0.99993 0.00211524 0)
(0.999987 0.00225141 -2.54239e-19)
(1.00005 0.0023109 1.9678e-21)
(1.00012 0.00228611 2.49647e-19)
(1.00019 0.00217076 0)
(1.00026 0.0019591 1.22471e-19)
(1.00034 0.00164577 0)
(1.00043 0.00122265 -1.21207e-19)
(1.00052 0.00068168 1.20598e-19)
(1.00062 1.07933e-05 0)
(1.00074 -0.000808466 0)
(1.00089 -0.00180412 0)
(1.00108 -0.00301837 1.12935e-22)
(1.00133 -0.00451567 6.09551e-20)
(1.00167 -0.00639528 -6.19068e-20)
(1.00217 -0.00881434 -3.14576e-20)
(1.00292 -0.012029 0)
(1.00413 -0.016473 0)
(1.00614 -0.0229216 0)
(1.00967 -0.0328383 -3.55011e-20)
(1.01624 -0.0495494 3.69707e-20)
(1.02831 -0.0727664 2.3853e-21)
(1.07061 -0.178139 2.80467e-21)
(0.609597 0.0196253 1.16782e-20)
(1.13915 0.106449 -1.69011e-20)
(1.07837 0.0753431 -7.02452e-20)
(1.04094 0.054207 0)
(1.02448 0.0400518 0)
(1.01589 0.0300299 -1.41255e-19)
(1.011 0.022691 0)
(1.008 0.0171752 0)
(1.00605 0.0129211 0)
(1.00472 0.00956281 2.72411e-19)
(1.00376 0.00686102 0)
(1.00304 0.00465748 0)
(1.00247 0.00284634 0)
(1.00201 0.00135645 0)
(1.00161 0.000139715 0)
(1.00126 -0.000836624 -2.66665e-19)
(1.00095 -0.00159465 0)
(1.00066 -0.00215002 0)
(1.00039 -0.00251425 0)
(1.00014 -0.00269721 0)
(0.999899 -0.00270846 5.37089e-19)
(0.999683 -0.00255817 0)
(0.999489 -0.00226017 2.01467e-19)
(0.999325 -0.00182735 -1.34212e-19)
(0.999193 -0.00128354 0)
(0.999099 -0.000651339 -3.34791e-20)
(0.999046 4.25086e-05 0)
(0.999034 0.000768194 4.15874e-20)
(0.999067 0.00149627 2.48706e-20)
(0.999144 0.00219452 0)
(0.999262 0.0028333 -1.14438e-19)
(0.999418 0.00338409 4.04674e-21)
(0.999607 0.00382254 -2.00475e-21)
(0.999824 0.00412723 -1.27238e-19)
(1.00006 0.00428034 1.25946e-19)
(1.00032 0.00426744 0)
(1.0006 0.00407686 2.38626e-19)
(1.00089 0.00369846 -2.43458e-19)
(1.00119 0.00312274 2.5784e-19)
(1.00152 0.00233714 0)
(1.00188 0.00132773 3.00814e-20)
(1.00227 7.39108e-05 -3.38e-22)
(1.00273 -0.00145484 1.18424e-19)
(1.00329 -0.00330433 -4.67592e-22)
(1.00398 -0.00554309 -5.91265e-20)
(1.0049 -0.00827261 0)
(1.00615 -0.011646 0)
(1.00794 -0.0158951 2.99403e-20)
(1.0106 -0.0213781 -3.09127e-20)
(1.01475 -0.0286584 -4.91543e-22)
(1.02153 -0.0386331 9.47849e-20)
(1.03318 -0.0527812 -6.49852e-20)
(1.05423 -0.0733427 6.37213e-20)
(1.10061 -0.105207 0)
(0.963422 -0.11774 3.30805e-20)
(0.480832 0.00951162 0)
(1.11568 0.0897331 0)
(1.11469 0.0802078 3.0895e-20)
(1.06574 0.0609018 0)
(1.04236 0.0471829 1.31916e-19)
(1.02933 0.0367295 0)
(1.02131 0.0285272 0)
(1.01606 0.0219806 0)
(1.01247 0.0166775 0)
(1.00992 0.0123256 0)
(1.00802 0.0087172 0)
(1.00656 0.00570274 0)
(1.00539 0.00317814 2.63619e-19)
(1.00441 0.00106948 0)
(1.00357 -0.000673544 0)
(1.00281 -0.00208538 0)
(1.00212 -0.00318909 0)
(1.00148 -0.00400094 0)
(1.00087 -0.0045319 0)
(1.0003 -0.00479166 -2.67281e-19)
(0.999755 -0.00478987 0)
(0.999254 -0.00454072 0)
(0.998804 -0.0040563 -1.34495e-19)
(0.998415 -0.00336443 0)
(0.9981 -0.00249514 -2.02265e-19)
(0.997869 -0.00148414 3.34458e-20)
(0.997732 -0.000373486 -1.34207e-19)
(0.997695 0.000790802 2.60694e-22)
(0.997758 0.00196208 6.64407e-20)
(0.997922 0.00308593 4.96032e-20)
(0.998182 0.00411981 1.31161e-19)
(0.998529 0.00501565 4.04952e-21)
(0.998951 0.00573622 0)
(0.999437 0.00624946 -6.99945e-22)
(0.999974 0.00652935 0)
(1.00055 0.00655583 -1.15694e-19)
(1.00116 0.00631381 -1.22026e-19)
(1.00181 0.00579151 1.21061e-19)
(1.00248 0.00497951 2.39211e-19)
(1.00319 0.00386424 9.67952e-20)
(1.00396 0.00243205 -2.95821e-20)
(1.00481 0.000661165 -5.85415e-20)
(1.00579 -0.00148092 0)
(1.00694 -0.00404323 0)
(1.00837 -0.00709788 -5.76104e-20)
(1.01021 -0.0107492 5.74764e-20)
(1.01266 -0.015147 1.43538e-19)
(1.01607 -0.0205052 2.90787e-20)
(1.02098 -0.0271272 -1.43912e-22)
(1.02832 -0.0354424 -2.84843e-20)
(1.0397 -0.0460464 1.14433e-19)
(1.05804 -0.0598224 -8.51012e-20)
(1.09012 -0.0780641 8.03046e-20)
(1.13347 -0.100417 5.12794e-20)
(0.813353 -0.059715 -1.46031e-20)
(0.400722 0.00533386 0)
(1.06109 0.0686146 -2.87823e-20)
(1.13799 0.0763659 5.59154e-20)
(1.08823 0.0612546 5.91786e-20)
(1.05932 0.0490282 6.13329e-20)
(1.04288 0.0392214 1.24997e-19)
(1.03233 0.0310772 -1.26219e-19)
(1.02514 0.0242341 -1.27327e-19)
(1.02002 0.0184425 0)
(1.01624 0.0135116 -2.56639e-19)
(1.01335 0.00929522 -5.14524e-19)
(1.01107 0.00568288 -2.58288e-19)
(1.00919 0.00259383 -2.59236e-19)
(1.00759 -3.08312e-05 0)
(1.00619 -0.00223057 0)
(1.00491 -0.00403237 0)
(1.00372 -0.00545203 -5.27713e-19)
(1.0026 -0.00649866 -1.18477e-21)
(1.00152 -0.00717736 -5.32186e-19)
(1.00049 -0.00749219 -2.66775e-19)
(0.999503 -0.00745159 -6.6792e-20)
(0.998586 -0.00706012 1.34055e-19)
(0.997753 -0.00634243 -1.3488e-19)
(0.997027 -0.00532837 1.35027e-19)
(0.996433 -0.0040581 0)
(0.995992 -0.00257984 -6.80723e-20)
(0.995722 -0.000954383 1.35431e-19)
(0.995636 0.000751985 0)
(0.995741 0.0024713 -3.33924e-20)
(0.996031 0.00412206 -1.66735e-20)
(0.996498 0.00564443 -1.31833e-19)
(0.997126 0.00696737 1.22172e-20)
(0.99789 0.00803924 0)
(0.998767 0.00881695 1.35083e-19)
(0.999732 0.00926731 0)
(1.00077 0.00936656 0)
(1.00185 0.00909944 -2.41879e-19)
(1.00298 0.00845839 -5.82016e-20)
(1.00416 0.00743397 1.25428e-19)
(1.00538 0.00602182 1.10016e-19)
(1.00669 0.00421399 -1.30125e-19)
(1.00811 0.00199614 -1.15137e-19)
(1.00971 -0.000656513 -1.42124e-19)
(1.01157 -0.0037821 8.45235e-20)
(1.01382 -0.00743827 1.11712e-19)
(1.01665 -0.011707 -2.7439e-20)
(1.02033 -0.0167017 0)
(1.02528 -0.0225733 -5.45455e-20)
(1.03216 -0.0295185 -5.40482e-20)
(1.04204 -0.0377911 -2.71111e-20)
(1.0567 -0.0476908 -2.56695e-20)
(1.0794 -0.0596291 -7.63321e-20)
(1.11728 -0.0743467 -4.73259e-20)
(1.12327 -0.0823585 0)
(0.69462 -0.0290398 7.73722e-20)
(0.351378 0.00326046 0)
(0.99912 0.051135 0)
(1.14642 0.0688387 -1.05088e-19)
(1.10725 0.0586293 -1.10579e-19)
(1.07457 0.0478156 0)
(1.05562 0.0388637 0)
(1.04322 0.0311339 1.19814e-19)
(1.03451 0.0243648 0)
(1.02811 0.0184177 0)
(1.02325 0.0131833 0)
(1.01943 0.00857544 -2.50246e-19)
(1.01633 0.00452779 -2.52238e-19)
(1.01372 0.000990699 0)
(1.01145 -0.00207012 0)
(1.00941 -0.00467544 -1.38963e-21)
(1.00751 -0.00683673 0)
(1.00572 -0.00855517 1.04184e-18)
(1.00399 -0.00982659 1.05287e-18)
(1.00231 -0.0106429 -5.29172e-19)
(1.00067 -0.0110009 2.64487e-19)
(0.999097 -0.0108874 3.335e-19)
(0.997609 -0.0103147 -6.73134e-20)
(0.996244 -0.00930145 4.06145e-19)
(0.995043 -0.00788153 -6.74945e-20)
(0.994048 -0.00610404 5.19e-23)
(0.993301 -0.00403188 -1.36572e-19)
(0.992836 -0.00174965 1.72204e-19)
(0.992677 0.000650395 1.36194e-19)
(0.992833 0.0030719 -4.60954e-22)
(0.993301 0.00539664 6.71279e-20)
(0.99406 0.00754183 6.61767e-20)
(0.99508 0.00940727 0)
(0.99632 0.010924 -1.16463e-19)
(0.997735 0.0120379 0)
(0.999282 0.0127094 0)
(1.00092 0.0129148 1.53574e-19)
(1.00263 0.0126452 -1.21991e-19)
(1.00439 0.0118984 0)
(1.00619 0.0106741 7.30409e-21)
(1.00805 0.00898375 0)
(1.00999 0.00683196 0)
(1.01206 0.00421904 -1.26437e-19)
(1.01434 0.00113644 1.39373e-20)
(1.01694 -0.00243506 2.07711e-22)
(1.02002 -0.00652844 -1.33424e-20)
(1.02378 -0.0111929 -1.32905e-19)
(1.02855 -0.0164961 -1.29517e-20)
(1.03479 -0.0225232 1.15985e-19)
(1.04319 -0.0293776 -1.01593e-19)
(1.05488 -0.0371751 0)
(1.07168 -0.0460596 4.75567e-20)
(1.09716 -0.05627 8.8624e-22)
(1.13434 -0.0676186 -4.38286e-20)
(1.09017 -0.0645326 -6.61585e-20)
(0.614384 -0.016528 0)
(0.318302 0.00223014 1.09485e-20)
(0.941322 0.0382665 -2.81107e-20)
(1.14332 0.0600465 5.02178e-20)
(1.12274 0.0545051 0)
(1.08833 0.0449909 0)
(1.06743 0.0367737 -1.11108e-19)
(1.05367 0.0294896 0)
(1.04383 0.0229076 -2.32553e-19)
(1.03644 0.0169401 -2.36116e-19)
(1.03068 0.0115339 0)
(1.02604 0.00664911 -1.21542e-19)
(1.02218 0.00225965 2.46111e-19)
(1.01886 -0.00165751 -4.97169e-19)
(1.0159 -0.0051133 0)
(1.01318 -0.00810653 0)
(1.01061 -0.0106274 0)
(1.00811 -0.0126553 -3.99823e-21)
(1.00566 -0.0141658 0)
(1.00324 -0.0151378 0)
(1.00083 -0.0155328 2.63141e-19)
(0.998489 -0.0153357 1.88672e-22)
(0.996246 -0.0145424 0)
(0.994162 -0.0131639 0)
(0.992305 -0.0112331 4.13148e-19)
(0.990749 -0.00880684 2.77192e-19)
(0.989567 -0.00596348 3.48033e-20)
(0.988819 -0.00282792 0)
(0.988548 0.000481384 2.78463e-19)
(0.988774 0.0038255 1.03577e-19)
(0.989488 0.00702973 -1.54754e-22)
(0.990653 0.00998191 0)
(0.992217 0.0125491 0)
(0.994107 0.0146311 6.97556e-21)
(0.996249 0.0161649 0)
(0.998567 0.0171085 0)
(1.001 0.0174436 -5.53865e-23)
(1.00351 0.0171772 -2.36646e-19)
(1.00604 0.0163127 -1.18413e-19)
(1.00859 0.014876 1.14926e-19)
(1.01117 0.0128971 6.98202e-21)
(1.01381 0.0104016 -1.0989e-19)
(1.01659 0.00741018 8.44821e-22)
(1.01958 0.0039361 7.58082e-22)
(1.0229 -1.6648e-05 1.33063e-20)
(1.02674 -0.00445394 -9.08234e-20)
(1.03132 -0.00939267 0)
(1.03699 -0.0148602 -1.12573e-19)
(1.04422 -0.0208866 0)
(1.05372 -0.0275173 -4.76215e-20)
(1.06662 -0.0348031 0)
(1.08484 -0.0428286 4.50649e-20)
(1.11202 -0.0517675 -2.18688e-22)
(1.14236 -0.0599934 -2.00272e-20)
(1.04988 -0.0501966 -6.31527e-20)
(0.55975 -0.0110246 3.09079e-20)
(0.294766 0.00159994 0)
(0.891312 0.0290636 -2.79244e-20)
(1.1326 0.0513501 0)
(1.1346 0.0496218 0)
(1.10089 0.0413352 5.12648e-20)
(1.07847 0.033659 6.62817e-22)
(1.0637 0.0267247 0)
(1.05303 0.0203091 -1.10741e-19)
(1.04488 0.0143441 -2.26863e-19)
(1.03841 0.00880427 0)
(1.03309 0.00367909 0)
(1.02856 -0.0010344 0)
(1.02458 -0.00532862 0)
(1.02095 -0.00919133 -3.64065e-19)
(1.01753 -0.0125972 -1.22308e-19)
(1.01423 -0.0155125 0)
(1.01096 -0.017896 1.57178e-20)
(1.00766 -0.01971 3.80434e-19)
(1.00434 -0.0208802 -6.20077e-22)
(1.00099 -0.0213555 -1.31082e-19)
(0.997659 -0.0210866 0)
(0.994424 -0.0200504 1.35029e-19)
(0.991372 -0.0182373 3.63284e-23)
(0.988613 -0.0156716 1.40861e-19)
(0.98627 -0.012415 0)
(0.984466 -0.00856389 -7.10387e-20)
(0.983308 -0.00429376 -7.15532e-20)
(0.98287 0.000232326 1.43999e-19)
(0.983188 0.00481299 7.14214e-20)
(0.984248 0.0091918 -1.39677e-19)
(0.985988 0.0132101 0)
(0.98831 0.016682 -1.68635e-20)
(0.991093 0.0194757 -1.31699e-19)
(0.994212 0.0215193 1.59873e-20)
(0.997546 0.0227738 1.50408e-21)
(1.001 0.0232403 2.36935e-19)
(1.00449 0.0229452 1.18897e-19)
(1.00796 0.0219121 1.15348e-19)
(1.01138 0.0202068 -1.1119e-19)
(1.01478 0.0178859 0)
(1.0182 0.0150023 1.13036e-19)
(1.02169 0.0116027 0)
(1.02537 0.00772534 0)
(1.02937 0.00339858 -1.01814e-19)
(1.03388 -0.00135911 0)
(1.03915 -0.00653547 4.79655e-20)
(1.04552 -0.0121234 9.48316e-20)
(1.05348 -0.0181322 2.36551e-20)
(1.06375 -0.0245709 -8.98913e-20)
(1.07749 -0.0314617 0)
(1.0967 -0.0388758 4.25797e-20)
(1.12447 -0.0468683 0)
(1.14336 -0.0523016 -1.84906e-20)
(1.00976 -0.0391611 4.01352e-20)
(0.51978 -0.00794214 0)
(0.277369 0.00117554 0)
(0.849347 0.0223738 -2.76275e-20)
(1.11767 0.0433331 -4.65823e-20)
(1.14313 0.0444018 4.66718e-20)
(1.11248 0.0372826 -4.81958e-20)
(1.08899 0.0299806 -9.99487e-20)
(1.07341 0.023258 0)
(1.06214 0.0169259 0)
(1.05344 0.0109146 0)
(1.04643 0.00521335 0)
(1.04057 -0.000173897 2.25405e-19)
(1.03549 -0.00523384 0)
(1.03091 -0.00994367 -4.6287e-19)
(1.02665 -0.0142707 0)
(1.02255 -0.0181669 0)
(1.01848 -0.0215787 4.52225e-19)
(1.01435 -0.0244374 3.66745e-19)
(1.0101 -0.0266527 -1.26246e-19)
(1.00572 -0.0281341 -1.27122e-19)
(1.00121 -0.028788 1.30069e-19)
(0.996638 -0.0285151 5.33184e-19)
(0.992096 -0.0272492 2.7304e-19)
(0.987734 -0.0249496 -1.38355e-19)
(0.983722 -0.0216129 0)
(0.980258 -0.0172963 1.91564e-21)
(0.977551 -0.0121143 7.29728e-20)
(0.975787 -0.00631227 -7.27796e-20)
(0.975096 -0.000124109 -1.85956e-19)
(0.975543 0.00615014 3.62575e-22)
(0.977102 0.0121252 0)
(0.979667 0.0175668 -7.02856e-20)
(0.983071 0.0222133 -1.35926e-19)
(0.987098 0.0258918 1.31656e-19)
(0.991546 0.0285279 -1.27296e-19)
(0.996224 0.0301004 -1.55781e-19)
(1.00099 0.0306536 -2.39282e-19)
(1.0057 0.0302308 5.79129e-20)
(1.01028 0.0289176 2.79309e-20)
(1.01471 0.0268261 0)
(1.01901 0.0240509 0)
(1.02322 0.0206799 -6.48837e-21)
(1.02744 0.0167906 2.01228e-19)
(1.03177 0.0124464 9.89706e-20)
(1.03638 0.00769929 0)
(1.04145 0.00259403 9.45583e-20)
(1.04726 -0.00284187 2.25949e-20)
(1.05416 -0.0085892 -2.29532e-20)
(1.06264 -0.0146358 5.47062e-21)
(1.07345 -0.0209785 8.3069e-20)
(1.08779 -0.0276334 3.25305e-19)
(1.10774 -0.0346608 1.57166e-19)
(1.13484 -0.0418866 -3.67365e-20)
(1.13932 -0.0450146 -3.65389e-20)
(0.973365 -0.0308282 -5.94224e-20)
(0.490364 -0.00582651 1.18308e-19)
(0.26425 0.000878685 0)
(0.814655 0.0173852 -5.44877e-20)
(1.101 0.0362071 4.49789e-20)
(1.1488 0.0391132 -4.39369e-20)
(1.12323 0.0330654 9.12979e-20)
(1.0992 0.0260274 9.55306e-20)
(1.083 0.0193903 -1.96314e-19)
(1.07129 0.0130419 7.10676e-22)
(1.06221 0.0069089 -1.03155e-19)
(1.05482 0.000979813 -2.12784e-19)
(1.04855 -0.00473513 -2.15201e-19)
(1.04303 -0.0102147 0)
(1.03796 -0.0154239 2.20857e-19)
(1.03315 -0.0203122 0)
(1.0284 -0.0248167 -4.72289e-19)
(1.02357 -0.0288706 -5.72978e-20)
(1.01852 -0.032375 -2.38026e-19)
(1.01321 -0.0351945 3.66657e-19)
(1.0076 -0.0371916 -4.98938e-19)
(1.0017 -0.0382169 0)
(0.995551 -0.0381068 2.64962e-19)
(0.989287 -0.0366983 -4.08212e-19)
(0.983133 -0.0339088 1.39862e-19)
(0.977349 -0.0296715 0)
(0.972254 -0.0240128 -1.47779e-19)
(0.968194 -0.017056 7.4232e-20)
(0.965504 -0.00914648 1.55009e-19)
(0.964416 -0.000631969 1.52892e-19)
(0.965051 0.00802218 -1.52518e-19)
(0.967361 0.0162139 0)
(0.971157 0.0235868 0)
(0.976141 0.0297573 1.73506e-19)
(0.981942 0.0345093 2.25035e-21)
(0.988223 0.037783 -2.25361e-19)
(0.994701 0.0396166 -3.69671e-19)
(1.00114 0.0401098 5.93314e-20)
(1.00734 0.039361 -2.82682e-20)
(1.01323 0.0375639 0)
(1.01879 0.0348829 0)
(1.02404 0.0314669 8.96982e-20)
(1.02907 0.0274459 1.10219e-19)
(1.03397 0.0229293 -1.04708e-20)
(1.03889 0.0180106 0)
(1.044 0.0127612 -9.09895e-20)
(1.04953 0.00723108 6.53834e-20)
(1.05574 0.00145911 1.72331e-19)
(1.06302 -0.00452514 0)
(1.07186 -0.0106937 0)
(1.08302 -0.0170371 4.91675e-21)
(1.09776 -0.0235838 -1.13754e-19)
(1.11814 -0.030391 1.09511e-19)
(1.14322 -0.0369583 -1.77786e-20)
(1.1324 -0.0383201 1.53787e-19)
(0.942193 -0.0244216 -1.53063e-19)
(0.468937 -0.00443762 2.43841e-19)
(0.254242 0.000661023 0)
(0.786178 0.0135847 -2.65064e-20)
(1.08422 0.0300078 6.47939e-20)
(1.15224 0.0339561 -4.17414e-20)
(1.13322 0.0288379 -8.70995e-20)
(1.10928 0.0219967 -1.80027e-19)
(1.09261 0.0153444 -9.33511e-20)
(1.08061 0.00888795 -9.6118e-20)
(1.0713 0.00255182 0)
(1.06368 -0.00368254 0)
(1.05715 -0.00980798 0)
(1.05132 -0.015799 0)
(1.04589 -0.0216182 1.04849e-19)
(1.04062 -0.0272054 -2.13701e-19)
(1.0353 -0.0324891 0)
(1.02974 -0.0374112 1.68732e-19)
(1.0238 -0.0418042 -1.13773e-19)
(1.01737 -0.0455084 3.26587e-21)
(1.01038 -0.0483421 2.46186e-19)
(1.0028 -0.0500753 2.22485e-21)
(0.994693 -0.0504508 2.65194e-19)
(0.986173 -0.049168 -2.73917e-19)
(0.977536 -0.0459978 0)
(0.969199 -0.0407873 -1.49243e-19)
(0.961659 -0.0334637 -1.56179e-19)
(0.955499 -0.0241358 0)
(0.951331 -0.0132386 -1.62661e-19)
(0.949593 -0.00136535 2.07613e-19)
(0.950519 0.0107435 4.07652e-20)
(0.954016 0.0221074 -2.14629e-19)
(0.959731 0.0321546 -7.62123e-20)
(0.967102 0.0402827 -1.24241e-19)
(0.975497 0.0462698 1.34961e-19)
(0.984356 0.0501276 0)
(0.993255 0.0520247 2.44492e-19)
(1.00181 0.0521209 -2.92276e-20)
(1.00981 0.0507061 2.76994e-20)
(1.0172 0.0480816 0)
(1.02397 0.0444955 2.53824e-20)
(1.0302 0.0401628 1.21563e-19)
(1.036 0.0352607 0)
(1.04151 0.0299365 -9.03851e-20)
(1.04691 0.0242906 -8.62608e-20)
(1.05242 0.0184031 0)
(1.05827 0.0123405 8.17023e-20)
(1.06473 0.00615341 -3.98575e-20)
(1.07221 -0.00013766 0)
(1.08122 -0.00651171 -3.75349e-20)
(1.09256 -0.0129609 -7.37258e-20)
(1.10754 -0.0195161 -7.13891e-20)
(1.12804 -0.0262012 3.46307e-20)
(1.14996 -0.0321848 9.78427e-20)
(1.12398 -0.032316 6.49356e-20)
(0.915708 -0.0194302 -1.28442e-19)
(0.452638 -0.00339813 -8.20159e-20)
(0.246539 0.000497272 0)
(0.762892 0.0106458 0)
(1.06829 0.0247003 0)
(1.15405 0.0290864 0)
(1.14253 0.0247283 0)
(1.11932 0.0180425 0)
(1.10239 0.0113051 0)
(1.09023 0.00466838 0)
(1.08083 -0.00194236 1.86332e-19)
(1.07313 -0.0085566 0)
(1.0665 -0.0151723 -1.90948e-19)
(1.06053 -0.0217737 0)
(1.0549 -0.0283215 0)
(1.04933 -0.0347664 4.08278e-19)
(1.04359 -0.0410571 0)
(1.03742 -0.0470895 0)
(1.03066 -0.052707 0)
(1.02313 -0.0577208 2.28331e-19)
(1.01467 -0.0618728 -2.33936e-19)
(1.00518 -0.0648537 0)
(0.994675 -0.0662787 -1.29419e-19)
(0.983247 -0.0656813 -2.81823e-19)
(0.971169 -0.0625195 0)
(0.959063 -0.0564348 -1.50876e-19)
(0.947729 -0.0471489 4.07177e-21)
(0.938161 -0.0346282 -5.07457e-19)
(0.931496 -0.0193983 -1.78084e-19)
(0.928634 -0.00246346 -1.38526e-21)
(0.930039 0.014871 -8.76817e-20)
(0.935541 0.0309379 1.04761e-20)
(0.944406 0.0447281 1.56224e-19)
(0.955537 0.0553339 1.83642e-20)
(0.967817 0.062601 4.2976e-21)
(0.980364 0.0667695 -7.64425e-19)
(0.992467 0.0681873 1.77028e-19)
(1.00365 0.0672866 2.79774e-20)
(1.01376 0.0646271 5.28734e-20)
(1.02278 0.0606437 2.47111e-20)
(1.03079 0.0556985 2.28166e-20)
(1.03792 0.0500815 -2.68681e-19)
(1.04439 0.0440017 -2.51668e-19)
(1.05037 0.0376305 -3.4235e-19)
(1.05609 0.0310783 -8.04584e-20)
(1.0618 0.0244232 0)
(1.06775 0.0177241 1.92761e-20)
(1.07429 0.0110259 0)
(1.0818 0.00434637 -3.56567e-20)
(1.09084 -0.00230455 -3.46365e-20)
(1.10224 -0.00893324 -1.69312e-20)
(1.11733 -0.0155762 6.55031e-20)
(1.13758 -0.0222032 0)
(1.1554 -0.027688 0)
(1.11511 -0.0270468 0)
(0.893559 -0.0154998 1.6854e-20)
(0.440265 -0.00261198 7.83788e-20)
(0.24063 0.000373915 0)
(0.744002 0.00835859 0)
(1.05382 0.0202357 1.98512e-20)
(1.1548 0.024635 3.74057e-20)
(1.15125 0.0208605 0)
(1.12941 0.0143035 0)
(1.11241 0.00744274 8.18552e-20)
(1.10023 0.000577007 0)
(1.09089 -0.00635951 1.73611e-19)
(1.08327 -0.0134073 0)
(1.07673 -0.0205774 -3.56688e-19)
(1.07081 -0.0278689 -9.0131e-20)
(1.06518 -0.0352561 3.69647e-19)
(1.05954 -0.0427091 7.86815e-19)
(1.0536 -0.0502282 -1.95199e-19)
(1.04708 -0.0576738 5.08323e-20)
(1.03973 -0.0649134 1.02315e-19)
(1.03126 -0.0717557 0)
(1.02141 -0.0779175 0)
(1.00991 -0.0829787 0)
(0.99662 -0.086417 1.25824e-19)
(0.981528 -0.0875301 -1.41914e-19)
(0.964801 -0.0853859 -8.7077e-19)
(0.947085 -0.0789978 1.5438e-19)
(0.929676 -0.0676747 -3.41074e-19)
(0.91427 -0.0509019 -7.26735e-19)
(0.903088 -0.0291804 2.88289e-19)
(0.898124 -0.00418172 -1.99795e-19)
(0.900377 0.0214159 -1.93346e-19)
(0.90951 0.0448276 -2.5163e-20)
(0.92388 0.063933 -8.50038e-20)
(0.941205 0.0774871 -1.55242e-19)
(0.959471 0.0856977 -2.83842e-19)
(0.977235 0.0892989 -5.17699e-19)
(0.993461 0.089118 1.14111e-19)
(1.0078 0.0861959 -1.08669e-19)
(1.02021 0.0813648 7.6111e-20)
(1.03085 0.0752622 -2.78168e-19)
(1.03995 0.0683583 -8.9393e-20)
(1.0478 0.0609944 -8.16529e-20)
(1.05466 0.0534024 1.61171e-19)
(1.06082 0.0457299 0)
(1.06659 0.0380857 -5.55669e-20)
(1.07225 0.0305324 0)
(1.07812 0.023109 0)
(1.08454 0.0158331 3.46506e-20)
(1.09192 0.00870981 5.02193e-20)
(1.10084 0.0017312 3.14687e-20)
(1.11215 -0.00512603 3.03899e-20)
(1.12721 -0.011901 2.92256e-20)
(1.14682 -0.0185008 0)
(1.15986 -0.02357 -1.45539e-20)
(1.10644 -0.0225176 -2.86074e-20)
(0.875137 -0.012414 6.57096e-20)
(0.430913 -0.00204092 -2.15756e-19)
(0.236046 0.000288921 0)
(0.728649 0.00660163 -2.35381e-20)
(1.04102 0.0165489 0)
(1.15493 0.020702 0)
(1.15946 0.0173534 7.13638e-20)
(1.13953 0.0109081 7.43691e-20)
(1.12271 0.00390947 -3.83974e-20)
(1.11064 -0.00320776 0)
(1.10152 -0.0104879 3.99369e-20)
(1.09417 -0.0179861 -8.07047e-20)
(1.08791 -0.0257328 0)
(1.08228 -0.0337498 -8.28177e-20)
(1.07692 -0.0420504 -2.70365e-21)
(1.07151 -0.050654 -6.49821e-20)
(1.06571 -0.0595573 4.25754e-20)
(1.05922 -0.0686886 -3.29542e-21)
(1.0517 -0.0779696 1.9206e-19)
(1.04273 -0.0872406 0)
(1.03187 -0.0962446 4.1274e-19)
(1.01865 -0.104573 -8.03263e-22)
(1.00252 -0.111535 0)
(0.983149 -0.116193 -3.88386e-19)
(0.960379 -0.117137 -1.41162e-19)
(0.934491 -0.112346 6.2343e-19)
(0.907067 -0.0997812 5.17862e-21)
(0.881115 -0.0777857 0)
(0.861057 -0.0459761 2.03836e-19)
(0.85173 -0.00727607 -1.19149e-19)
(0.855689 0.0327412 1.08747e-19)
(0.872051 0.0682412 -4.06382e-19)
(0.896761 0.0947805 1.74481e-19)
(0.924712 0.111117 3.20224e-19)
(0.952282 0.118782 5.47688e-19)
(0.977109 0.119628 -1.18684e-19)
(0.998363 0.115832 -1.19495e-19)
(1.0161 0.109166 9.6771e-20)
(1.03068 0.100819 -3.56009e-19)
(1.0426 0.0916061 2.61082e-19)
(1.05234 0.0820356 8.07445e-20)
(1.06037 0.0724212 0)
(1.06716 0.0629688 1.04014e-19)
(1.07313 0.0537844 -3.11107e-20)
(1.07862 0.0449166 0)
(1.08396 0.0363825 -6.32927e-20)
(1.08951 0.0281773 -6.38482e-20)
(1.09559 0.0202949 6.05497e-20)
(1.10265 0.0127082 -1.51075e-19)
(1.1113 0.0053871 -5.93011e-20)
(1.12239 -0.00171181 2.82276e-20)
(1.13723 -0.00863059 2.71715e-20)
(1.15583 -0.015203 -1.30574e-20)
(1.16359 -0.0199189 -3.84672e-20)
(1.09816 -0.0186852 6.39307e-21)
(0.859361 -0.00996886 -7.48179e-21)
(0.42299 -0.00163489 0)
(0.232453 0.000230325 0)
(0.71616 0.00528454 0)
(1.02985 0.0136046 -3.53621e-20)
(1.15476 0.0173756 0)
(1.16728 0.0143288 -3.31052e-20)
(1.14973 0.00799134 3.41002e-20)
(1.13331 0.000871811 7.02671e-20)
(1.12151 -0.00647756 0)
(1.11274 -0.0140827 1.44854e-19)
(1.10582 -0.0220127 0)
(1.10004 -0.0303228 -2.99209e-19)
(1.09495 -0.0390625 -1.51464e-19)
(1.09017 -0.048289 -4.78895e-21)
(1.08536 -0.0580337 -1.58185e-19)
(1.08018 -0.0684063 1.5755e-19)
(1.07429 -0.0793896 1.63592e-19)
(1.06727 -0.0910135 -8.11399e-20)
(1.05861 -0.103248 -2.61898e-19)
(1.04767 -0.115982 -8.67586e-20)
(1.03363 -0.128928 1.92805e-19)
(1.01551 -0.141555 0)
(0.992145 -0.152769 -9.87502e-21)
(0.962309 -0.160675 2.60837e-19)
(0.925325 -0.162209 0)
(0.88157 -0.152311 0)
(0.835374 -0.125446 4.35871e-19)
(0.796062 -0.0777452 -7.6667e-21)
(0.776573 -0.0134708 5.86037e-21)
(0.78442 0.0542665 -5.3023e-19)
(0.817012 0.110978 4.5999e-19)
(0.862766 0.147221 3.83265e-19)
(0.909449 0.163596 6.37952e-19)
(0.950692 0.165939 4.42632e-19)
(0.984281 0.159559 2.29055e-19)
(1.01081 0.14866 0)
(1.03136 0.135727 0)
(1.04714 0.122166 1.99659e-19)
(1.05926 0.108707 1.71658e-21)
(1.06868 0.0957635 -7.47197e-20)
(1.07618 0.0835036 -6.13784e-20)
(1.0823 0.0719808 -1.20915e-19)
(1.08756 0.061179 8.91796e-20)
(1.09233 0.0510487 0)
(1.09699 0.0415381 2.86554e-20)
(1.10189 0.0325843 -2.7193e-20)
(1.1074 0.0241259 0)
(1.11395 0.0161101 0)
(1.12214 0.00847541 -1.67349e-21)
(1.13287 0.00116006 0)
(1.14733 -0.00588268 0)
(1.16456 -0.0124174 -2.39255e-22)
(1.16682 -0.0168468 0)
(1.09068 -0.0155986 -3.43323e-20)
(0.846178 -0.00811112 0)
(0.416174 -0.00129527 -4.96693e-20)
(0.229578 0.000207391 0)
(0.705977 0.00436461 5.21612e-21)
(1.02031 0.0113766 4.13699e-21)
(1.15455 0.0147268 0)
(1.17475 0.0118903 3.80709e-21)
(1.15992 0.00566252 0)
(1.14416 -0.0015413 0)
(1.13274 -0.00907687 0)
(1.12447 -0.0169461 0)
(1.11815 -0.025232 0)
(1.11307 -0.0340113 0)
(1.10877 -0.0433635 0)
(1.10489 -0.0533752 0)
(1.10109 -0.0641982 2.06046e-19)
(1.09706 -0.0759517 -7.03118e-20)
(1.09246 -0.0887417 -1.42373e-19)
(1.08685 -0.102741 -1.42563e-19)
(1.07969 -0.11814 3.85183e-21)
(1.07023 -0.135138 -8.52573e-20)
(1.05741 -0.15388 -2.12533e-21)
(1.0397 -0.174346 3.62667e-19)
(1.01487 -0.196106 -2.2102e-19)
(0.979736 -0.217622 0)
(0.930302 -0.235313 2.59854e-19)
(0.862355 -0.240819 -1.42155e-18)
(0.776194 -0.217471 8.93514e-19)
(0.690401 -0.146277 5.71018e-19)
(0.643973 -0.0281209 2.24167e-18)
(0.661793 0.101265 0)
(0.735926 0.197926 1.00172e-18)
(0.827761 0.241459 -1.38494e-18)
(0.906456 0.245608 -4.08612e-19)
(0.965013 0.230736 -1.12602e-19)
(1.00678 0.208975 -5.85095e-19)
(1.03613 0.185814 3.75519e-21)
(1.05677 0.163563 4.65942e-19)
(1.07141 0.143139 -3.70747e-20)
(1.08195 0.124649 1.81568e-19)
(1.08969 0.10803 5.74084e-20)
(1.09552 0.0930441 1.03589e-19)
(1.10013 0.0794879 0)
(1.10401 0.0671671 2.59468e-20)
(1.10759 0.0558982 4.21061e-20)
(1.11122 0.0455278 4.41201e-20)
(1.1152 0.0359389 -2.38111e-20)
(1.11989 0.0270167 7.95404e-20)
(1.12575 0.0186653 -2.04759e-20)
(1.13336 0.0107917 -9.2154e-20)
(1.14361 0.00332889 -1.0333e-20)
(1.15753 -0.00378273 -2.13594e-20)
(1.17306 -0.0102366 -1.99982e-20)
(1.16966 -0.0144047 1.06915e-20)
(1.0839 -0.0132195 1.07295e-20)
(0.834973 -0.00678815 7.64641e-22)
(0.410502 -0.00111039 2.3334e-20)
(0.226868 0.000243827 1.08725e-19)
(0.697255 0.00383418 -1.54944e-19)
(1.01198 0.0098469 1.50096e-22)
(1.15436 0.0127985 5.60372e-20)
(1.18194 0.0101134 -5.54146e-20)
(1.17009 0.00401648 -5.65527e-20)
(1.15516 -0.00320376 0)
(1.14425 -0.010839 8.95862e-23)
(1.13658 -0.0188683 -2.90821e-20)
(1.131 -0.0273848 1.45866e-20)
(1.12679 -0.036484 -1.45672e-20)
(1.1235 -0.046266 -1.44984e-20)
(1.12081 -0.0568625 7.36466e-21)
(1.11841 -0.0684673 2.8136e-20)
(1.11607 -0.0812553 4.68581e-20)
(1.11348 -0.0954559 9.15892e-20)
(1.1103 -0.11141 3.44332e-19)
(1.10611 -0.129546 6.13952e-20)
(1.10021 -0.15045 0)
(1.09163 -0.174981 0)
(1.07888 -0.204168 -1.23929e-19)
(1.05914 -0.239403 3.10437e-20)
(1.02751 -0.282195 -4.52239e-19)
(0.974834 -0.33309 2.05211e-19)
(0.883243 -0.387657 -2.68722e-19)
(0.72309 -0.410398 0)
(0.509256 -0.318182 3.71738e-18)
(0.382746 -0.0681049 -1.20003e-18)
(0.429743 0.222923 -5.13449e-18)
(0.629836 0.398328 2.0006e-18)
(0.822667 0.415647 0)
(0.945851 0.364829 -7.84618e-19)
(1.01508 0.309481 2.59613e-19)
(1.0554 0.260874 2.17595e-19)
(1.07976 0.220596 1.02648e-19)
(1.09491 0.187445 9.26107e-20)
(1.10459 0.159886 1.33175e-19)
(1.11099 0.136618 0)
(1.1152 0.116738 -3.0164e-20)
(1.11812 0.0994985 2.34686e-19)
(1.12038 0.0843548 0)
(1.12227 0.0709006 -1.35985e-21)
(1.12417 0.0588318 -8.62434e-21)
(1.12638 0.0478982 -2.82007e-20)
(1.12917 0.0379059 -9.20437e-21)
(1.13286 0.0287096 1.73659e-20)
(1.13786 0.0201778 -9.12546e-21)
(1.14476 0.012201 -9.5344e-21)
(1.15441 0.00468468 -8.08524e-22)
(1.16764 -0.00241343 7.071e-21)
(1.18124 -0.00873764 6.18975e-21)
(1.17226 -0.012664 -1.2644e-20)
(1.078 -0.011565 -1.82131e-20)
(0.82558 -0.00596202 -1.04701e-20)
(0.405725 -0.00104732 -1.94988e-20)
(0.219701 0.000329655 -1.58781e-18)
(0.686547 0.00364804 0)
(1.00304 0.00888486 -4.40793e-19)
(1.15374 0.0115255 4.00626e-19)
(1.18881 0.00902107 3.9608e-19)
(1.1802 0.00313079 0)
(1.16624 -0.00400128 4.09388e-19)
(1.15589 -0.0116168 0)
(1.14889 -0.0196706 0)
(1.14412 -0.0282531 2.0374e-19)
(1.1409 -0.0374672 0)
(1.13877 -0.04743 -1.94724e-19)
(1.13746 -0.0582928 -6.32783e-21)
(1.13674 -0.070262 2.41168e-20)
(1.13644 -0.083548 3.56326e-20)
(1.1364 -0.0984508 3.46338e-20)
(1.13645 -0.115389 2.13808e-20)
(1.13642 -0.134953 -2.23213e-21)
(1.13608 -0.157999 -4.28853e-20)
(1.13512 -0.185887 3.48254e-20)
(1.13302 -0.220732 -1.67547e-19)
(1.12862 -0.266172 1.87037e-20)
(1.1199 -0.328817 0)
(1.10251 -0.424763 0)
(1.0428 -0.572929 6.15642e-20)
(0.79402 -0.656548 0)
(0.206257 -0.352922 6.80312e-17)
(0.357294 0.452658 -4.81123e-20)
(0.902798 0.66166 1.4429e-20)
(1.10101 0.495204 2.93148e-20)
(1.12585 0.372306 2.44245e-20)
(1.13748 0.294319 1.12236e-19)
(1.14283 0.239817 1.27319e-19)
(1.14489 0.199127 -2.114e-20)
(1.14522 0.1672 -6.32105e-22)
(1.14475 0.141321 8.80898e-21)
(1.14386 0.119772 -9.19701e-23)
(1.14287 0.101464 -2.38347e-20)
(1.142 0.0856258 4.69886e-21)
(1.14144 0.0717265 -1.28749e-20)
(1.14136 0.0593786 -7.27879e-21)
(1.14194 0.0482832 -5.51331e-22)