/*--------------------------------*- C++ -*----------------------------------*\
  =========                 |
  \\      /  F ield         | OpenFOAM: The Open Source CFD Toolbox
   \\    /   O peration     | Website:  https://openfoam.org
    \\  /    A nd           | Version:  7
     \\/     M anipulation  |
\*---------------------------------------------------------------------------*/
FoamFile
{
    version     2.0;
    format      ascii;
    class       volScalarField;
    location    "90";
    object      k;
}
// * * * * * * * * * * * * * * * * * * * * * * * * * * * * * * * * * * * * * //

dimensions      [0 2 -2 0 0 0 0];

internalField   nonuniform List<scalar> 
17475
(
0.00763364
0.0124983
0.0125514
0.0125508
0.0125505
0.0125505
0.0125505
0.0125505
0.0125504
0.0125502
0.0125503
0.0125506
0.0125503
0.0125503
0.0125505
0.0125503
0.0125503
0.0125505
0.0125503
0.0125503
0.0125509
0.012551
0.0125496
0.0125516
0.012547
0.0125589
0.012559
0.0125591
0.0125592
0.012559
0.0125589
0.0125588
0.0125588
0.0125587
0.0125587
0.0125586
0.0125585
0.0125582
0.0125587
0.012563
0.0125697
0.0125761
0.0125822
0.0125879
0.0125929
0.0125976
0.0126018
0.0126058
0.0126093
0.0126127
0.0126157
0.0126186
0.0126208
0.0126101
0.0120188
0.00024618
0.00440854
0.00528545
0.00530418
0.00529474
0.00529041
0.00528838
0.0052871
0.00528639
0.00528587
0.00528557
0.0052853
0.00528511
0.00528498
0.00528482
0.00528474
0.00528465
0.00528457
0.00528449
0.00528446
0.00528443
0.00528439
0.00528544
0.00528324
0.00528724
0.00529121
0.00529416
0.00529434
0.00529442
0.00529401
0.00529388
0.00529386
0.00529388
0.00529389
0.00529392
0.00529388
0.00529386
0.00529361
0.00529267
0.00529355
0.0052954
0.00529754
0.00529979
0.00530196
0.0053041
0.00530614
0.0053082
0.00531031
0.00531268
0.0053155
0.00531931
0.00532461
0.00532177
0.00502943
0.00162913
3.09345e-05
0.00184664
0.00307716
0.00319511
0.00318635
0.00317743
0.00317243
0.00316945
0.00316763
0.00316634
0.00316545
0.00316479
0.0031643
0.00316386
0.00316351
0.00316321
0.00316293
0.00316267
0.00316244
0.0031622
0.00316197
0.00316228
0.0031619
0.00316348
0.00316454
0.00316599
0.00316789
0.00316873
0.00316875
0.00316859
0.0031684
0.00316846
0.00316857
0.00316869
0.00316882
0.00316895
0.00316907
0.00316876
0.0031684
0.00316868
0.00316925
0.00317002
0.00317095
0.00317202
0.00317324
0.00317463
0.00317631
0.00317849
0.00318149
0.00318595
0.00319291
0.00320129
0.00315715
0.00249595
0.000282986
9.86557e-06
0.000848544
0.00201157
0.00223576
0.00224415
0.00223404
0.00222722
0.00222292
0.00222008
0.0022181
0.00221673
0.00221568
0.00221485
0.00221415
0.00221358
0.00221306
0.00221259
0.00221216
0.00221175
0.00221135
0.00221124
0.00221087
0.00221158
0.00221232
0.00221309
0.00221368
0.00221438
0.00221515
0.00221542
0.00221546
0.0022153
0.00221544
0.00221568
0.00221595
0.00221622
0.00221653
0.0022168
0.00221668
0.00221668
0.00221709
0.00221759
0.00221821
0.00221899
0.00221998
0.00222121
0.00222275
0.00222477
0.00222755
0.0022316
0.00223773
0.00224684
0.0022496
0.0021379
0.00133261
8.89019e-05
4.46416e-06
0.000439175
0.00138476
0.00168556
0.0017187
0.00171169
0.00170414
0.00169902
0.0016955
0.00169303
0.00169124
0.00168986
0.00168877
0.00168784
0.00168705
0.00168635
0.00168572
0.0016851
0.00168452
0.00168415
0.00168361
0.00168382
0.00168405
0.00168431
0.00168463
0.00168501
0.00168537
0.00168571
0.00168609
0.00168625
0.00168626
0.00168651
0.00168689
0.0016873
0.00168774
0.00168822
0.00168859
0.00168863
0.00168908
0.00168966
0.00169029
0.00169102
0.00169192
0.00169303
0.00169444
0.00169627
0.00169867
0.00170201
0.00170683
0.0017139
0.0017225
0.00171122
0.00153733
0.000771388
4.18279e-05
2.44054e-06
0.000255689
0.000985669
0.0013251
0.00138389
0.00138289
0.00137559
0.00137009
0.00136616
0.00136331
0.00136124
0.00135963
0.00135832
0.0013572
0.00135623
0.00135535
0.00135457
0.00135377
0.00135315
0.00135243
0.00135225
0.00135212
0.00135201
0.00135194
0.00135195
0.00135208
0.00135223
0.00135244
0.00135272
0.00135306
0.00135321
0.0013536
0.0013541
0.00135465
0.00135524
0.00135591
0.00135633
0.00135672
0.00135743
0.00135818
0.00135897
0.00135985
0.00136089
0.00136216
0.00136379
0.0013659
0.00136861
0.00137231
0.00137755
0.00138463
0.00139009
0.00136171
0.00114443
0.000485262
2.43971e-05
1.51177e-06
0.000164286
0.000722954
0.00106909
0.0011507
0.00115719
0.00115129
0.00114578
0.00114163
0.00113855
0.00113629
0.00113451
0.00113302
0.00113175
0.00113063
0.00112959
0.00112865
0.0011278
0.00112687
0.00112629
0.00112586
0.00112548
0.00112509
0.00112478
0.00112454
0.00112447
0.00112441
0.00112451
0.00112477
0.00112521
0.00112556
0.001126
0.00112664
0.00112734
0.00112808
0.0011289
0.00112946
0.00113016
0.00113106
0.00113197
0.00113293
0.00113395
0.00113513
0.00113656
0.00113835
0.00114069
0.00114362
0.00114743
0.00115265
0.00115924
0.00116011
0.00111486
0.000874553
0.000329688
1.60223e-05
1.02476e-06
0.000114158
0.000546148
0.000878199
0.000978291
0.000992675
0.000988971
0.000983738
0.00097959
0.000976459
0.000974068
0.000972168
0.000970496
0.000969035
0.000967821
0.000966643
0.000965571
0.000964462
0.000963584
0.000962776
0.000962098
0.000961486
0.000960855
0.00096027
0.00095981
0.000959587
0.000959373
0.000959362
0.000959588
0.000960087
0.000960601
0.000961135
0.000961892
0.000962776
0.000963715
0.000964627
0.000965397
0.000966379
0.000967469
0.000968534
0.000969638
0.00097079
0.000972114
0.000973673
0.000975599
0.000978036
0.000980947
0.000984771
0.000989928
0.000995312
0.000990851
0.000930933
0.000684242
0.000237678
1.12334e-05
7.41647e-07
8.39383e-05
0.000424454
0.000731683
0.000845585
0.000867652
0.000866724
0.000862044
0.000857995
0.000854832
0.000852431
0.000850463
0.00084861
0.000846957
0.000845694
0.000844344
0.000842974
0.000841896
0.000840736
0.000839618
0.00083867
0.000837812
0.000836881
0.000836017
0.00083543
0.000835041
0.000834627
0.000834499
0.000834712
0.000835339
0.000836008
0.000836686
0.000837584
0.000838684
0.000839801
0.000840828
0.000841907
0.000843127
0.000844332
0.000845531
0.000846818
0.000848043
0.000849424
0.00085108
0.00085302
0.000855469
0.000858456
0.000862196
0.000867026
0.000870689
0.000860736
0.000788475
0.000546668
0.000179934
8.37751e-06
5.63444e-07
6.44048e-05
0.000338665
0.00061735
0.000740488
0.000769648
0.000771859
0.000768136
0.000764109
0.000760876
0.000758587
0.000756571
0.000754629
0.000752831
0.000751534
0.000750006
0.000748521
0.000747213
0.000745625
0.000744125
0.000742909
0.00074187
0.000740655
0.000739481
0.00073866
0.000738001
0.000737312
0.000737098
0.000737403
0.000738177
0.000739012
0.000739864
0.000740898
0.000742231
0.000743509
0.000744804
0.000746245
0.000747606
0.000748785
0.000750133
0.000751607
0.000752865
0.000754234
0.000755851
0.000757775
0.000760391
0.000763451
0.000766885
0.000771138
0.000773046
0.000758009
0.00067683
0.000447261
0.000141858
6.55021e-06
4.43864e-07
5.10888e-05
0.000276732
0.000527112
0.00065532
0.000690934
0.000696255
0.000693708
0.000689745
0.000686377
0.000684202
0.000682408
0.000680608
0.000678622
0.000677194
0.00067573
0.000674049
0.00067255
0.000670594
0.000668617
0.000667029
0.000665777
0.000664356
0.000662998
0.000661902
0.000660925
0.000659848
0.000659545
0.000659945
0.000660787
0.000661749
0.000662818
0.000664135
0.000665795
0.000667146
0.000668861
0.000670434
0.000671838
0.000673021
0.00067448
0.000675954
0.000677249
0.000678559
0.000680071
0.0006823
0.000685066
0.000688194
0.000691259
0.000694814
0.000694682
0.000675157
0.000587712
0.000373572
0.000115322
5.30099e-06
3.60064e-07
4.16519e-05
0.000230979
0.000455263
0.000585078
0.000626607
0.000634653
0.000633166
0.000629383
0.000626086
0.000624177
0.0006228
0.000621061
0.000618825
0.000617279
0.000615803
0.000613824
0.000612153
0.000609843
0.000607574
0.000605827
0.000604164
0.000602425
0.00060096
0.000599753
0.000598443
0.000597122
0.000596666
0.000596943
0.000597926
0.000599048
0.000600423
0.000602029
0.000603945
0.00060554
0.000607491
0.000609319
0.000610682
0.000611772
0.00061336
0.000614942
0.000616086
0.000617102
0.00061884
0.000621543
0.000624466
0.000627641
0.000630208
0.000632747
0.000630821
0.000607176
0.000515669
0.000317901
9.61382e-05
4.41339e-06
2.9939e-07
3.47762e-05
0.000196423
0.000397553
0.000526251
0.000573027
0.000583416
0.000583272
0.000579527
0.00057593
0.000574438
0.000573997
0.000572194
0.000569848
0.000568259
0.00056645
0.000564257
0.000562425
0.000559918
0.000557659
0.000555874
0.000553625
0.00055133
0.000550178
0.000549326
0.000547365
0.000545689
0.000545425
0.000545963
0.000546749
0.000547814
0.00054964
0.000551433
0.000553425
0.000555339
0.000557371
0.000559468
0.000560923
0.000561898
0.000562872
0.000564446
0.000565765
0.000566998
0.00056866
0.000571347
0.000574911
0.000578008
0.000579969
0.00058174
0.000578146
0.000550619
0.000456669
0.00027485
8.17929e-05
3.76258e-06
2.53735e-07
2.95712e-05
0.00016972
0.00035072
0.000477012
0.000527231
0.000539563
0.000540584
0.000537058
0.000534188
0.000532914
0.000532454
0.000530784
0.000528619
0.000526941
0.00052472
0.000522396
0.000520079
0.000517444
0.000514956
0.000512873
0.000510572
0.000508328
0.000507206
0.000506807
0.00050507
0.00050304
0.000502207
0.000502632
0.000503753
0.000505347
0.000507062
0.000508832
0.000510812
0.000512786
0.000514845
0.000516968
0.000518371
0.000519491
0.000520708
0.000522174
0.000523634
0.000524952
0.000526352
0.00052897
0.000532831
0.000535524
0.000537397
0.000538211
0.000532823
0.00050227
0.000407615
0.000240405
7.04798e-05
3.23236e-06
2.18425e-07
2.55236e-05
0.000148571
0.000312101
0.000432694
0.000485429
0.000499974
0.000501702
0.000498804
0.000496068
0.000495102
0.000494721
0.000493179
0.000491176
0.000489343
0.000487064
0.000484576
0.00048197
0.000479205
0.000476632
0.000474347
0.000472273
0.00047063
0.000470096
0.000471176
0.000471149
0.000469498
0.000468855
0.000469078
0.000469813
0.000470947
0.000470563
0.000471407
0.000473209
0.000474794
0.00047672
0.000478692
0.000480313
0.000481747
0.000482991
0.000484428
0.000485929
0.000487289
0.00048873
0.000491129
0.000494634
0.000497211
0.000498835
0.000498941
0.000491695
0.000458634
0.000365892
0.000212824
6.15639e-05
2.80616e-06
1.90519e-07
2.23276e-05
0.000131434
0.000279613
0.000393524
0.000447658
0.000463907
0.000466414
0.000464078
0.000461702
0.000460891
0.000460453
0.000459004
0.000457114
0.000455197
0.000452971
0.000450466
0.00044768
0.000444903
0.000442481
0.000440344
0.000439177
0.000439378
0.000441154
0.000447945
0.000461013
0.000469292
0.000473354
0.00047198
0.00046485
0.000453505
0.000442438
0.000441481
0.000440847
0.00044138
0.000442908
0.000444559
0.00044618
0.000447723
0.000448967
0.000450254
0.000451752
0.000453137
0.000454494
0.000456676
0.000459879
0.000462334
0.000463678
0.000463041
0.000454299
0.000419266
0.000329528
0.000189959
5.4247e-05
2.45877e-06
1.662e-07
1.96493e-05
0.000117143
0.000251654
0.000358653
0.000413235
0.000430943
0.000434209
0.000432408
0.000430384
0.000429649
0.000429112
0.000427739
0.000425965
0.000424042
0.000421949
0.000419499
0.000416617
0.000414002
0.000411998
0.000410696
0.000411607
0.000415861
0.000433305
0.000469608
0.000479795
0.000438912
0.000396383
0.000397537
0.000470192
0.000482254
0.000447288
0.000421317
0.000414783
0.000412859
0.000413002
0.00041403
0.000415403
0.000416953
0.000418168
0.00041919
0.000420577
0.000421939
0.000423272
0.000425264
0.000428147
0.000430448
0.00043158
0.000430308
0.000420282
0.000384021
0.000298258
0.000170894
4.8233e-05
2.17458e-06
1.30121e-07
1.69077e-05
0.000103756
0.000226684
0.000326833
0.000381567
0.000400619
0.000404651
0.000403344
0.000401601
0.000400883
0.000400262
0.000398951
0.000397311
0.000395466
0.000393564
0.000391183
0.000388349
0.000386066
0.000384523
0.000384651
0.000389484
0.000407916
0.000440816
0.000378169
0.000130028
2.23684e-06
1.20969e-05
0.000318292
0.000432472
0.000428743
0.000397261
0.000388343
0.000386407
0.000386542
0.000387538
0.000389009
0.000390138
0.000390974
0.000392218
0.000393451
0.000394702
0.000396496
0.000399065
0.000401193
0.000402103
0.000400251
0.000389159
0.000352103
0.000270916
0.000154437
4.30359e-05
1.92995e-06
4.80535e-08
1.19191e-05
8.79104e-05
0.000201481
0.000295687
0.000351721
0.00037241
0.000377339
0.00037653
0.000374996
0.000374273
0.000373588
0.000372325
0.00037082
0.000369134
0.000367439
0.000365021
0.00036234
0.00036039
0.000359681
0.000361796
0.00037353
0.000397182
0.000333292
9.27499e-05
3.92457e-07
0.000189648
0.000398351
0.000387578
0.000367254
0.000362052
0.000361368
0.00036194
0.000363281
0.000364396
0.00036499
0.000366087
0.000367172
0.000368291
0.000369873
0.000372154
0.000374126
0.000374857
0.000372526
0.000360624
0.000322982
0.000246891
0.000140155
3.80313e-05
1.59148e-06
6.42992e-08
1.26236e-05
8.16113e-05
0.000184284
0.000271535
0.000323693
0.000344829
0.000350406
0.000350112
0.000348693
0.000347691
0.000346978
0.000345865
0.000344259
0.000342721
0.000340874
0.000338654
0.000336331
0.000334489
0.00033439
0.000338988
0.000355594
0.000346414
0.000157773
1.1464e-05
4.87284e-05
0.000285502
0.000363899
0.000345842
0.000336819
0.000335074
0.000335803
0.000336954
0.000338046
0.000338642
0.000339595
0.00034071
0.00034179
0.000343284
0.000345351
0.00034718
0.000347742
0.000344945
0.000332197
0.000296003
0.000224558
0.00012756
3.59987e-05
1.74927e-06
9.18035e-08
1.23026e-05
7.69988e-05
0.000170505
0.000249423
0.000298111
0.000318854
0.000324587
0.00032441
0.000323155
0.000322305
0.000321381
0.000320363
0.000318933
0.000317368
0.000315489
0.000313554
0.000311471
0.000309675
0.000309879
0.000315928
0.000324889
0.000269955
8.69309e-05
5.79813e-06
9.17537e-08
3.73885e-07
2.48197e-05
0.000182974
0.000315507
0.000322806
0.000312944
0.000310384
0.000311026
0.000311806
0.000312748
0.000313268
0.000314271
0.00031533
0.000316441
0.000317907
0.000319814
0.000321635
0.000322101
0.000319
0.000305829
0.000270455
0.000204403
0.000115995
3.24439e-05
1.47369e-06
9.25655e-08
1.11858e-05
7.02436e-05
0.000155647
0.000227762
0.000273826
0.000294504
0.000300647
0.000300732
0.000299642
0.000298862
0.00029781
0.000296771
0.000295451
0.000293907
0.000292008
0.000290169
0.000288331
0.000286491
0.000286743
0.000292535
0.000289309
0.000208749
6.33752e-05
8.74852e-06
9.70303e-07
4.74471e-07
5.83457e-07
5.0599e-07
6.80621e-07
2.7948e-06
2.10586e-05
0.000126527
0.000263662
0.000295741
0.000290471
0.000287595
0.000288196
0.000288709
0.000289437
0.000289858
0.000290867
0.000291985
0.000293136
0.000294582
0.000296426
0.000298116
0.000298376
0.000294952
0.000281468
0.00024719
0.000186136
0.000105497
2.91139e-05
1.29593e-06
8.46724e-08
1.00893e-05
6.36244e-05
0.00014178
0.000207833
0.000251425
0.000272068
0.000278608
0.000279029
0.000278042
0.000277225
0.000276231
0.00027518
0.000273883
0.00027229
0.000270373
0.000268701
0.000267017
0.000265234
0.000265372
0.000268795
0.000253949
0.000167636
5.67764e-05
1.39839e-05
4.53288e-06
4.09417e-06
5.1339e-06
4.72147e-06
3.60545e-06
4.33206e-06
2.05441e-05
9.93701e-05
0.00022221
0.000269147
0.000269252
0.000266526
0.000266992
0.000267501
0.000268054
0.000268366
0.000269252
0.000270392
0.000271664
0.000273132
0.000274921
0.000276458
0.000276518
0.000272792
0.00025906
0.000226005
0.000169665
9.59317e-05
2.6106e-05
1.15093e-06
7.62362e-08
9.08001e-06
5.76041e-05
0.000129156
0.00018971
0.000230828
0.000251305
0.000258222
0.000258999
0.000258102
0.000257271
0.000256353
0.000255303
0.000254012
0.000252394
0.000250519
0.000248979
0.000247439
0.000245747
0.000245692
0.000246146
0.000222547
0.000140885
5.80325e-05
2.17436e-05
1.26983e-05
1.09985e-05
9.73711e-06
7.56729e-06
5.82434e-06
6.19376e-06
2.23833e-05
8.83321e-05
0.000192815
0.000244552
0.000248882
0.000246968
0.000247327
0.000247861
0.000248315
0.000248579
0.00024941
0.000250581
0.000251889
0.000253407
0.000255167
0.000256534
0.000256334
0.000252279
0.000238441
0.000206765
0.000154821
8.72684e-05
2.34448e-05
1.02706e-06
6.83785e-08
8.15654e-06
5.21431e-05
0.000117695
0.000173234
0.000211863
0.000232069
0.000239285
0.000240419
0.000239652
0.000238832
0.000237989
0.000236946
0.00023568
0.000234043
0.000232244
0.000230807
0.000229417
0.000227838
0.000227484
0.000225205
0.000197027
0.000124743
5.94555e-05
3.2597e-05
2.47627e-05
1.91619e-05
1.24498e-05
8.51722e-06
7.51443e-06
9.70272e-06
3.08461e-05
8.51283e-05
0.00017381
0.000222496
0.000229591
0.000228674
0.000229054
0.000229634
0.000230032
0.000230268
0.000231051
0.000232311
0.000233666
0.000235252
0.000236963
0.000238141
0.000237688
0.000233314
0.000219421
0.000189164
0.00014128
7.92896e-05
2.10206e-05
9.15658e-07
6.11888e-08
7.31322e-06
4.71364e-05
0.000107165
0.000158113
0.000194264
0.000214014
0.000221541
0.00022309
0.000222496
0.000221721
0.000220899
0.000219848
0.000218621
0.000217006
0.000215238
0.000213922
0.000212732
0.000211258
0.000210592
0.000206434
0.000177118
0.000116878
6.89546e-05
4.8854e-05
3.71679e-05
2.25675e-05
1.30554e-05
1.00482e-05
1.06342e-05
1.85016e-05
4.16291e-05
8.98976e-05
0.000160016
0.000203124
0.000211368
0.000211506
0.000212018
0.000212588
0.00021305
0.000213291
0.000214014
0.000215443
0.000216763
0.000218429
0.000220052
0.000221061
0.000220355
0.0002157
0.00020184
0.00017308
0.00012897
7.20063e-05
1.88371e-05
8.10591e-07
5.46769e-08
6.54769e-06
4.25591e-05
9.75018e-05
0.000144217
0.000177893
0.000196636
0.000204811
0.0002068
0.000206326
0.00020501
0.000204702
0.000203686
0.000202616
0.000200989
0.000199042
0.000197987
0.000197129
0.000195771
0.000194829
0.000189654
0.000162218
0.000117806
9.3677e-05
7.42137e-05
4.55213e-05
2.06017e-05
1.27813e-05
1.34642e-05
1.77536e-05
3.01755e-05
5.21702e-05
9.4373e-05
0.000148957
0.000185428
0.000194352
0.000195341
0.000196042
0.000196578
0.000197131
0.000197436
0.000198173
0.000199325
0.000200745
0.000202707
0.000204243
0.000205142
0.00020402
0.000199069
0.000185389
0.000158205
0.000117577
6.52348e-05
1.68051e-05
7.12449e-07
4.88049e-08
5.85642e-06
3.83662e-05
8.86003e-05
0.000131362
0.000162305
0.00018089
0.000189157
0.000191237
0.00019074
0.00018975
0.000189374
0.000188484
0.000187379
0.000186003
0.000184011
0.000182984
0.000182408
0.000181246
0.000180087
0.000174465
0.000150913
0.000124561
0.000133038
9.39092e-05
4.06213e-05
1.74015e-05
1.62089e-05
2.0554e-05
2.94289e-05
4.39769e-05
6.47809e-05
9.80328e-05
0.000139342
0.000169157
0.000178327
0.000180036
0.000180889
0.000181222
0.000181767
0.000182549
0.000183311
0.000184497
0.000185918
0.000187981
0.000189295
0.000189844
0.000188568
0.000183426
0.00017002
0.000144314
0.000107124
5.90122e-05
1.49882e-05
6.27434e-07
4.35387e-08
5.23383e-06
3.45671e-05
8.03579e-05
0.000119405
0.00014849
0.00016641
0.000174537
0.000176865
0.000176389
0.00017585
0.000175088
0.000174362
0.000173419
0.000172001
0.000170317
0.000169223
0.000168778
0.000167836
0.000166374
0.000161223
0.000141945
0.000139417
0.000187024
8.13687e-05
2.35612e-05
1.84207e-05
2.43281e-05
3.32715e-05
4.65294e-05
6.58258e-05
8.30263e-05
0.000102793
0.000130986
0.000154446
0.000163939
0.000165939
0.000166852
0.000167491
0.000168176
0.000168725
0.000169653
0.000170979
0.000172327
0.00017411
0.000175343
0.000175552
0.000174165
0.000169018
0.000155761
0.000131573
9.74294e-05
5.33841e-05
1.3376e-05
5.53849e-07
3.8857e-08
4.67945e-06
3.11666e-05
7.29096e-05
0.000108564
0.000135582
0.00015291
0.00016123
0.00016374
0.000163684
0.000162701
0.000162166
0.000161434
0.00016056
0.000159293
0.000157957
0.00015701
0.000156508
0.000155509
0.000154169
0.000149286
0.000133585
0.000133788
0.00017506
5.5124e-05
2.25622e-05
2.79998e-05
3.83514e-05
5.28982e-05
7.44913e-05
0.000102958
0.000117516
0.000114926
0.000123244
0.000142014
0.000150833
0.000153312
0.00015422
0.000155019
0.000155389
0.000156233
0.000157246
0.000158681
0.000160269
0.000161703
0.000162837
0.00016263
0.000161212
0.000156096
0.000142943
0.000120178
8.87589e-05
4.83072e-05
1.19555e-05
4.90386e-07
3.47237e-08
4.18857e-06
2.81438e-05
6.65179e-05
9.92893e-05
0.000124107
0.000140726
0.000149207
0.000152054
0.000152055
0.000151244
0.000150571
0.000149924
0.000148938
0.0001478
0.000146518
0.000145617
0.000145079
0.00014416
0.000142871
0.000138399
0.000125999
0.000150072
0.000180557
5.43198e-05
2.8951e-05
3.92656e-05
5.87143e-05
7.91139e-05
0.000112408
0.000147951
0.000164439
0.000137111
0.000118287
0.000131059
0.000139371
0.00014196
0.00014278
0.000143701
0.000144264
0.000145015
0.00014603
0.000147508
0.000149101
0.000150534
0.000151358
0.000151274
0.000149647
0.000144304
0.000131555
0.000110144
8.11974e-05
4.37938e-05
1.07114e-05
4.35612e-07
3.10926e-08
3.75726e-06
2.54849e-05
6.09616e-05
9.11681e-05
0.000114115
0.000129977
0.000138298
0.000141297
0.000141587
0.000140919
0.000140204
0.000139586
0.000138589
0.00013749
0.000136108
0.000135091
0.000134418
0.00013373
0.000132421
0.000128481
0.000118251
0.000127471
0.000174693
7.70416e-05
3.68401e-05
5.00721e-05
7.47212e-05
0.000107198
0.000149871
0.000203239
0.000223367
0.000169136
0.000118822
0.000121973
0.000128904
0.000131525
0.000132615
0.000133376
0.000133972
0.000134709
0.000135771
0.000137257
0.000138832
0.000140201
0.000140962
0.000140859
0.000139084
0.00013348
0.000121077
0.000101108
7.45556e-05
3.98685e-05
9.62717e-06
3.8863e-07
2.79444e-08
3.38255e-06
2.3145e-05
5.59487e-05
8.38666e-05
0.000105079
0.000120135
0.000128366
0.00013149
0.000131942
0.000131399
0.000130639
0.000130001
0.00012905
0.000127967
0.000126596
0.000125446
0.000124798
0.000124136
0.000122862
0.000119366
0.000110833
0.000111452
0.000153617
0.000125238
5.40155e-05
5.47107e-05
8.10108e-05
0.000119697
0.000169333
0.000228231
0.000260629
0.000202742
0.000115807
0.00011425
0.000119773
0.000122186
0.000123309
0.000123972
0.000124571
0.000125302
0.000126372
0.000127847
0.000129389
0.000130696
0.000131412
0.000131211
0.000129288
0.000123599
0.000111578
9.29931e-05
6.85776e-05
3.63983e-05
8.68546e-06
3.48335e-07
2.52105e-08
3.05667e-06
2.10835e-05
5.14634e-05
7.72771e-05
9.6849e-05
0.000111105
0.000119236
0.000122475
0.000123055
0.000122609
0.000121848
0.000121175
0.000120276
0.000119231
0.000117903
0.000116677
0.000115959
0.000115357
0.00011414
0.000111012
0.000104404
0.000104128
0.000139756
0.000170289
9.91398e-05
6.4869e-05
7.69083e-05
0.000114274
0.000168907
0.000238316
0.000281021
0.00020088
0.00011669
0.000107599
0.000111533
0.000113778
0.000114802
0.000115409
0.000116035
0.000116759
0.000117786
0.000119189
0.000120681
0.000121921
0.000122574
0.000122293
0.000120245
0.000114508
0.000102929
8.57182e-05
6.32268e-05
3.33015e-05
7.8649e-06
3.13684e-07
2.28366e-08
2.77256e-06
1.92587e-05
4.74334e-05
7.13375e-05
8.93714e-05
0.000102821
0.000110806
0.000114137
0.000114833
0.000114464
0.00011372
0.00011302
0.000112165
0.000111166
0.000109923
0.000108721
0.000107934
0.000107272
0.000106082
0.000103293
9.8606e-05
9.68173e-05
0.000134477
0.000180902
0.000147646
9.1052e-05
7.72218e-05
9.73082e-05
0.000144004
0.000217705
0.000289986
0.000216248
0.000119366
0.000101606
0.000104042
0.000106098
0.000107051
0.000107624
0.000108228
0.000108929
0.000109898
0.000111218
0.000112627
0.000113792
0.000114376
0.000114023
0.000111872
0.000106125
9.5043e-05
7.91553e-05
5.84286e-05
3.05504e-05
7.1478e-06
2.83797e-07
2.07767e-08
2.52497e-06
1.76456e-05
4.3821e-05
6.59837e-05
8.25691e-05
9.5204e-05
0.000102994
0.000106395
0.000107196
0.000106889
0.000106169
0.000105456
0.000104641
0.000103693
0.000102539
0.000101394
0.000100584
9.98813e-05
9.86663e-05
9.62246e-05
9.3586e-05
9.29037e-05
0.000122944
0.000174079
0.000167663
0.00012159
8.13295e-05
8.35204e-05
0.000116075
0.000190732
0.000274369
0.000231136
0.000119714
9.60006e-05
9.71629e-05
9.90181e-05
9.99035e-05
0.00010045
0.000101027
0.000101706
0.000102623
0.000103848
0.000105158
0.000106245
0.000106758
0.000106343
0.000104107
9.83869e-05
8.78443e-05
7.32267e-05
5.41207e-05
2.81075e-05
6.52032e-06
2.5786e-07
1.89903e-08
2.30947e-06
1.6222e-05
4.05801e-05
6.11498e-05
7.63767e-05
8.81904e-05
9.57406e-05
9.91868e-05
0.000100081
9.98318e-05
9.91381e-05
9.84294e-05
9.76561e-05
9.67629e-05
9.56965e-05
9.46195e-05
9.38084e-05
9.30903e-05
9.18939e-05
8.97916e-05
8.9037e-05
9.06423e-05
0.000117386
0.000165705
0.000177752
0.000135676
9.59209e-05
7.46423e-05
9.47545e-05
0.000154372
0.000239806
0.000218367
0.000116261
9.06102e-05
9.08024e-05
9.24583e-05
9.32851e-05
9.38078e-05
9.43617e-05
9.50182e-05
9.58925e-05
9.70195e-05
9.8218e-05
9.92222e-05
9.9676e-05
9.92041e-05
9.69025e-05
9.12475e-05
8.12707e-05
6.78629e-05
5.02371e-05
2.59277e-05
5.97017e-06
2.35304e-07
1.74308e-08
2.12106e-06
1.49633e-05
3.7672e-05
5.67828e-05
7.07378e-05
8.1735e-05
8.90088e-05
9.24719e-05
9.34468e-05
9.32553e-05
9.2596e-05
9.19022e-05
9.11695e-05
9.03347e-05
8.93523e-05
8.83476e-05
8.75495e-05
8.68229e-05
8.56605e-05
8.39431e-05
8.49288e-05
8.93126e-05
0.000120714
0.000172363
0.000174038
0.000138266
0.000100318
7.17344e-05
7.78204e-05
0.000125941
0.000200924
0.000195281
0.000109899
8.5435e-05
8.48999e-05
8.63672e-05
8.71447e-05
8.76461e-05
8.81788e-05
8.88119e-05
8.96429e-05
9.06857e-05
9.17707e-05
9.26861e-05
9.30887e-05
9.25731e-05
9.02217e-05
8.46644e-05
7.52727e-05
6.30103e-05
4.67364e-05
2.398e-05
5.48441e-06
2.1548e-07
1.6069e-08
1.95649e-06
1.38472e-05
3.50534e-05
5.28378e-05
6.561e-05
7.58019e-05
8.27698e-05
8.62227e-05
8.72645e-05
8.71318e-05
8.65156e-05
8.58426e-05
8.51459e-05
8.43681e-05
8.34661e-05
8.25342e-05
8.17595e-05
8.10331e-05
7.99165e-05
7.86764e-05
8.14927e-05
8.86169e-05
0.000129105
0.000172121
0.000161325
0.000126242
9.64971e-05
7.40164e-05
7.0675e-05
0.000105647
0.000168435
0.000170005
0.000102296
8.04957e-05
7.94136e-05
8.06997e-05
8.14354e-05
8.19223e-05
8.24349e-05
8.30453e-05
8.38318e-05
8.47954e-05
8.5787e-05
8.66095e-05
8.69617e-05
8.64094e-05
8.40307e-05
7.86041e-05
6.98042e-05
5.86186e-05
4.35774e-05
2.2239e-05
5.0543e-06
1.98022e-07
1.4866e-08
1.81082e-06
1.2856e-05
3.26967e-05
4.92721e-05
6.09484e-05
7.03581e-05
7.6999e-05
8.04167e-05
8.15108e-05
8.14344e-05
8.08671e-05
8.02196e-05
7.95524e-05
7.8826e-05
7.8e-05
7.71388e-05
7.63944e-05
7.56773e-05
7.46216e-05
7.3912e-05
7.85962e-05
9.0709e-05
0.000141115
0.000167273
0.000144743
0.000109902
8.58437e-05
7.07629e-05
6.72121e-05
9.23021e-05
0.000146495
0.000149605
9.45923e-05
7.57845e-05
7.43112e-05
7.54156e-05
7.61156e-05
7.65924e-05
7.70917e-05
7.76825e-05
7.84249e-05
7.93143e-05
8.02257e-05
8.09642e-05
8.12636e-05
8.06802e-05
7.82893e-05
7.30327e-05
6.48372e-05
5.46617e-05
4.07477e-05
2.07039e-05
4.68663e-06
1.83782e-07
1.38053e-08
1.6823e-06
1.19651e-05
3.0571e-05
4.60404e-05
5.67086e-05
6.53647e-05
7.16669e-05
7.50281e-05
7.61599e-05
7.61333e-05
7.56165e-05
7.4999e-05
7.43583e-05
7.36771e-05
7.29211e-05
7.21286e-05
7.14214e-05
7.07242e-05
6.97515e-05
6.9549e-05
7.61328e-05
9.92348e-05
0.000144922
0.000157815
0.000126576
9.41317e-05
7.52371e-05
6.67971e-05
6.90846e-05
9.42072e-05
0.000137226
0.000131569
8.657e-05
7.13171e-05
6.9568e-05
7.04911e-05
7.11568e-05
7.16261e-05
7.2116e-05
7.26915e-05
7.33922e-05
7.42132e-05
7.50534e-05
7.57269e-05
7.59698e-05
7.53503e-05
7.29677e-05
6.79168e-05
6.03269e-05
5.10955e-05
3.82064e-05
1.93448e-05
4.36603e-06
1.71931e-07
1.28612e-08
1.56798e-06
1.11668e-05
2.86405e-05
4.31052e-05
5.28491e-05
6.07868e-05
6.67435e-05
7.00321e-05
7.11878e-05
7.12025e-05
7.07336e-05
7.0151e-05
6.95404e-05
6.89009e-05
6.82084e-05
6.74822e-05
6.68191e-05
6.61521e-05
6.52801e-05
6.55336e-05
7.3799e-05
0.000100579
0.000144526
0.000142961
0.000109279
8.11797e-05
6.69884e-05
6.21268e-05
6.67824e-05
0.000102008
0.000137137
0.000116926
7.98427e-05
6.71367e-05
6.51624e-05
6.59073e-05
6.65387e-05
6.69993e-05
6.74814e-05
6.80431e-05
6.87078e-05
6.94686e-05
7.0245e-05
7.08616e-05
7.10508e-05
7.03962e-05
6.80423e-05
6.32221e-05
5.62274e-05
4.78709e-05
3.59111e-05
1.81239e-05
4.08002e-06
1.61324e-07
1.20209e-08
1.4659e-06
1.04464e-05
2.6881e-05
4.0432e-05
4.93322e-05
5.65909e-05
6.22009e-05
6.54032e-05
6.65708e-05
6.66174e-05
6.61915e-05
6.56487e-05
6.50757e-05
6.44784e-05
6.38423e-05
6.3178e-05
6.25617e-05
6.19323e-05
6.11724e-05
6.18095e-05
7.10749e-05
0.000102096
0.000134613
0.000125761
9.4097e-05
7.06811e-05
6.09972e-05
6.12525e-05
7.37201e-05
0.000100635
0.000134024
0.000106315
7.43327e-05
6.32512e-05
6.10764e-05
6.16455e-05
6.22413e-05
6.26906e-05
6.31662e-05
6.37164e-05
6.43482e-05
6.50574e-05
6.57766e-05
6.63417e-05
6.64882e-05
6.58041e-05
6.3487e-05
5.89141e-05
5.25025e-05
4.49553e-05
3.38353e-05
1.70266e-05
3.82467e-06
1.5178e-07
1.12602e-08
1.37317e-06
9.79103e-06
2.52728e-05
3.79924e-05
4.61267e-05
5.27492e-05
5.80148e-05
6.112e-05
6.22905e-05
6.23614e-05
6.19729e-05
6.14726e-05
6.0944e-05
6.03902e-05
5.98021e-05
5.91921e-05
5.86225e-05
5.80367e-05
5.74003e-05
5.83506e-05
6.7904e-05
9.71877e-05
0.000122872
0.000111036
8.22202e-05
6.23887e-05
5.62099e-05
5.9437e-05
7.43882e-05
0.00010939
0.000129399
9.97178e-05
6.9358e-05
5.96575e-05
5.72948e-05
5.76934e-05
5.82505e-05
5.86862e-05
5.91549e-05
5.96936e-05
6.02955e-05
6.09571e-05
6.16251e-05
6.2144e-05
6.22537e-05
6.15468e-05
5.92854e-05
5.49656e-05
4.91166e-05
4.23149e-05
3.19533e-05
1.6037e-05
3.59383e-06
1.4323e-07
1.05704e-08
1.28916e-06
9.19293e-06
2.37984e-05
3.5764e-05
4.32079e-05
4.9237e-05
5.41663e-05
5.71667e-05
5.83352e-05
5.84268e-05
5.80708e-05
5.76107e-05
5.71276e-05
5.66155e-05
5.60673e-05
5.55032e-05
5.49785e-05
5.44414e-05
5.39356e-05
5.51659e-05
6.45682e-05
9.10962e-05
0.000112495
9.92469e-05
7.36459e-05
5.64959e-05
5.20565e-05
5.79048e-05
7.6012e-05
0.000106443
0.000120989
9.71438e-05
6.67466e-05
5.6268e-05
5.38109e-05
5.40397e-05
5.45568e-05
5.49748e-05
5.54358e-05
5.59622e-05
5.65329e-05
5.71496e-05
5.77716e-05
5.82506e-05
5.83243e-05
5.76016e-05
5.54112e-05
5.13548e-05
4.60374e-05
3.99165e-05
3.02387e-05
1.51376e-05
3.38603e-06
1.35516e-07
9.93819e-09
1.2123e-06
8.64536e-06
2.24426e-05
3.37245e-05
4.05494e-05
4.60299e-05
5.06316e-05
5.35245e-05
5.46913e-05
5.48034e-05
5.44756e-05
5.40491e-05
5.36061e-05
5.31316e-05
5.26172e-05
5.20912e-05
5.16093e-05
5.11266e-05
5.07583e-05
5.22461e-05
6.1325e-05
8.54451e-05
0.00010376
9.05145e-05
6.74125e-05
5.22304e-05
4.89905e-05
5.52224e-05
7.29158e-05
9.89937e-05
0.000111301
9.10271e-05
6.46063e-05
5.31976e-05
5.05995e-05
5.07154e-05
5.11656e-05
5.15493e-05
5.19996e-05
5.25107e-05