/*--------------------------------*- C++ -*----------------------------------*\
  =========                 |
  \\      /  F ield         | OpenFOAM: The Open Source CFD Toolbox
   \\    /   O peration     | Website:  https://openfoam.org
    \\  /    A nd           | Version:  7
     \\/     M anipulation  |
\*---------------------------------------------------------------------------*/
FoamFile
{
    version     2.0;
    format      ascii;
    class       volScalarField;
    location    "90";
    object      nut;
}
// * * * * * * * * * * * * * * * * * * * * * * * * * * * * * * * * * * * * * //

dimensions      [0 2 -1 0 0 0 0];

internalField   nonuniform List<scalar> 
17475
(
3.12041e-05
0.000188849
0.000188081
0.000188027
0.000188026
0.000188025
0.000188025
0.000188025
0.000188025
0.000188025
0.000188025
0.000188026
0.000188026
0.000188026
0.000188026
0.000188026
0.000188026
0.000188026
0.000188026
0.000188026
0.000188026
0.000188026
0.000188026
0.000188027
0.000188025
0.000188029
0.000188029
0.000188029
0.000188029
0.000188029
0.000188029
0.000188029
0.000188029
0.000188029
0.000188029
0.000188029
0.000188029
0.000188029
0.000188029
0.00018803
0.000188032
0.000188033
0.000188035
0.000188036
0.000188037
0.000188038
0.000188039
0.00018804
0.000188041
0.000188042
0.000188043
0.000188044
0.000188054
0.000188286
0.000150676
9.21856e-07
0.000115393
0.000172089
0.000176588
0.00017675
0.000176754
0.000176752
0.00017675
0.000176749
0.000176747
0.000176746
0.000176746
0.000176746
0.000176746
0.000176746
0.000176746
0.000176746
0.000176747
0.000176747
0.000176748
0.000176748
0.000176749
0.000176753
0.000176748
0.000176758
0.000176763
0.000176769
0.00017677
0.000176771
0.000176772
0.000176772
0.000176772
0.000176773
0.000176774
0.000176774
0.000176774
0.000176774
0.000176774
0.000176771
0.00017677
0.00017677
0.000176769
0.000176769
0.000176769
0.00017677
0.000176771
0.000176772
0.000176773
0.000176775
0.000176777
0.000176775
0.000176712
0.000175371
0.000153947
1.68091e-05
1.20158e-07
5.92192e-05
0.000151138
0.000168229
0.000169908
0.000170016
0.00017002
0.000170015
0.000170009
0.000170002
0.000169998
0.000169995
0.000169993
0.000169991
0.00016999
0.000169989
0.000169987
0.000169986
0.000169986
0.000169984
0.000169983
0.000169986
0.000169987
0.000169994
0.000169996
0.000169999
0.000170005
0.000170009
0.00017001
0.00017001
0.000170009
0.000170009
0.00017001
0.000170012
0.000170012
0.000170011
0.000170012
0.000170009
0.000170006
0.000170004
0.000170003
0.000169997
0.000169994
0.000169994
0.000169996
0.000169997
0.000169998
0.000170001
0.000170006
0.000170011
0.000169972
0.000169336
0.00016116
0.000102837
3.03985e-06
3.86143e-08
3.04435e-05
0.000127815
0.000159089
0.000164765
0.000165342
0.000165402
0.000165401
0.000165386
0.000165372
0.000165366
0.00016536
0.000165355
0.000165347
0.000165345
0.000165342
0.000165338
0.000165335
0.000165334
0.000165328
0.000165328
0.000165329
0.000165338
0.000165342
0.000165346
0.000165349
0.000165353
0.000165359
0.000165361
0.000165358
0.000165356
0.000165358
0.000165363
0.000165368
0.000165368
0.000165368
0.000165371
0.000165366
0.000165362
0.000165362
0.000165363
0.000165353
0.000165349
0.000165354
0.000165362
0.000165367
0.00016537
0.000165375
0.00016538
0.000165369
0.000165142
0.000162497
0.000144052
6.41182e-05
1.07759e-06
1.75449e-08
1.70484e-05
0.000104882
0.000148959
0.000159892
0.000161693
0.000161918
0.00016194
0.000161922
0.000161905
0.000161901
0.000161893
0.000161884
0.000161869
0.000161867
0.000161863
0.000161857
0.000161849
0.000161846
0.000161843
0.000161839
0.000161844
0.000161848
0.000161848
0.000161865
0.000161872
0.00016187
0.000161872
0.00016187
0.000161863
0.000161865
0.000161872
0.000161887
0.000161895
0.000161897
0.000161903
0.000161904
0.000161895
0.000161896
0.000161899
0.0001619
0.000161894
0.000161895
0.000161904
0.000161919
0.000161932
0.000161937
0.000161942
0.000161935
0.000161851
0.000161053
0.000154834
0.000126108
4.19204e-05
5.49343e-07
9.60781e-09
1.05014e-05
8.49467e-05
0.000138655
0.000154702
0.000158524
0.000159114
0.000159201
0.000159181
0.000159158
0.000159164
0.000159163
0.000159155
0.000159134
0.000159129
0.000159121
0.00015912
0.000159097
0.000159094
0.000159096
0.000159094
0.000159091
0.000159081
0.000159079
0.000159115
0.000159125
0.000159106
0.000159082
0.000159066
0.000159069
0.000159091
0.000159111
0.000159137
0.000159145
0.000159151
0.000159177
0.000159174
0.000159157
0.000159164
0.000159172
0.000159171
0.000159172
0.000159175
0.000159183
0.000159203
0.000159236
0.000159239
0.000159237
0.000159197
0.000158929
0.000156996
0.000146682
0.000109062
2.90997e-05
3.32507e-07
5.95653e-09
7.02703e-06
6.88603e-05
0.000128395
0.00014926
0.000155544
0.000156812
0.00015704
0.000156999
0.000156943
0.000156973
0.000156989
0.000156971
0.000156957
0.00015696
0.000156933
0.00015695
0.000156925
0.000156895
0.000156866
0.000156862
0.000156868
0.000156828
0.000156842
0.000156871
0.000156867
0.000156824
0.00015676
0.00015674
0.000156786
0.000156835
0.000156876
0.000156908
0.000156916
0.000156913
0.000156986
0.000157006
0.000156966
0.000156966
0.000156973
0.000156975
0.000156961
0.000156937
0.000156943
0.000156967
0.000157067
0.000157079
0.000157025
0.000156919
0.000156301
0.000152701
0.000138559
9.40365e-05
2.12975e-05
2.22583e-07
4.03935e-09
5.02802e-06
5.63274e-05
0.000118523
0.000144119
0.000152912
0.000155192
0.000155671
0.000155624
0.000155581
0.000155647
0.00015568
0.000155579
0.000155508
0.000155556
0.000155498
0.000155527
0.00015547
0.000155357
0.000155229
0.000155202
0.000155253
0.000155165
0.000155147
0.000155109
0.000155095
0.000155008
0.000154892
0.000154907
0.000155065
0.00015512
0.000155131
0.000155176
0.000155211
0.000155206
0.00015532
0.000155358
0.000155298
0.000155298
0.000155302
0.000155315
0.000155274
0.000155232
0.000155214
0.000155262
0.000155464
0.000155482
0.000155347
0.000155117
0.000153926
0.000148443
0.000130805
8.13658e-05
1.61969e-05
1.57063e-07
2.92374e-09
3.77801e-06
4.66526e-05
0.00010931
0.000139718
0.000151037
0.000154693
0.000155511
0.000155523
0.000155481
0.000155612
0.000155766
0.000155554
0.000155365
0.000155534
0.0001554
0.0001553
0.000155035
0.00015471
0.000154429
0.000154347
0.000154456
0.000154366
0.000154252
0.000154206
0.00015414
0.000153828
0.00015358
0.000153646
0.000154082
0.000154244
0.000154107
0.000154171
0.000154301
0.000154362
0.0001545
0.000154479
0.000154375
0.000154358
0.000154413
0.000154423
0.000154217
0.000154135
0.000154137
0.000154342
0.000154619
0.00015457
0.000154356
0.000153908
0.00015188
0.000144653
0.000123623
7.07709e-05
1.27715e-05
1.1836e-07
2.22092e-09
2.94851e-06
3.91737e-05
0.000100892
0.000136042
0.000149742
0.000155308
0.000156782
0.000156428
0.000156156
0.000156625
0.000156963
0.000156721
0.000156317
0.000156527
0.000156248
0.000155872
0.000155743
0.000155093
0.000154534
0.00015439
0.000154412
0.00015424
0.000154235
0.000154351
0.000154083
0.000153542
0.000153195
0.000153303
0.000153918
0.000154185
0.000154068
0.000154096
0.000154233
0.000154239
0.000154481
0.000154598
0.000154385
0.000154066
0.000154193
0.000154543
0.000154098
0.000153729
0.000153645
0.000154025
0.000154827
0.000154952
0.000154122
0.000153211
0.000150465
0.000141675
0.000117328
6.2341e-05
1.04053e-05
9.34666e-08
1.74936e-09
2.37031e-06
3.33692e-05
9.329e-05
0.000132773
0.000148512
0.000155765
0.000157942
0.000157646
0.000157217
0.000157687
0.000158424
0.000158579
0.000157974
0.000158023
0.000158037
0.000157598
0.0001574
0.000156441
0.000155605
0.000155274
0.000155246
0.000155116
0.000154805
0.000155041
0.000155298
0.000154554
0.000154101
0.000154164
0.000154629
0.000154997
0.000154845
0.00015481
0.000155088
0.000154915
0.000155212
0.000154947
0.00015487
0.000154467
0.000154627
0.000154782
0.000154445
0.000154132
0.00015417
0.000155151
0.000156056
0.000156117
0.000155019
0.000153376
0.000149389
0.000139608
0.000111915
5.54578e-05
8.68573e-06
7.63711e-08
1.41897e-09
1.95265e-06
2.88217e-05
8.62967e-05
0.000129502
0.000147764
0.000156125
0.000158521
0.000158404
0.000158032
0.000159099
0.000160384
0.00016207
0.000159571
0.000159537
0.00016037
0.00015807
0.000158851
0.000157544
0.000156792
0.00015693
0.000156342
0.000156392
0.000157436
0.000157766
0.00015717
0.000155364
0.000156746
0.000157095
0.000155267
0.000155058
0.000156076
0.000155125
0.000156597
0.000156732
0.000156803
0.000157072
0.000156986
0.000155676
0.000155517
0.000155749
0.000155704
0.000154892
0.000154872
0.000156304
0.000156852
0.000158216
0.000155744
0.000154095
0.000148806
0.000137028
0.000106704
4.97274e-05
7.40051e-06
6.41901e-08
1.17983e-09
1.64511e-06
2.51983e-05
7.985e-05
0.000125249
0.00014853
0.000156644
0.000160835
0.000160075
0.000156559
0.000158226
0.00016397
0.000163756
0.000162857
0.000162606
0.000161409
0.000160141
0.000159999
0.000159516
0.000158767
0.000158592
0.000158032
0.000156871
0.000157373
0.000159588
0.000158597
0.000157618
0.000157926
0.000158432
0.000157844
0.000157225
0.000158448
0.000159398
0.000159235
0.000159005
0.000159135
0.000159845
0.000159275
0.000158145
0.000157028
0.000156926
0.000157235
0.000157644
0.000157507
0.000158095
0.000160796
0.000161459
0.000159191
0.000156141
0.000151284
0.000137311
0.00010114
4.47137e-05
6.40928e-06
5.52468e-08
9.99807e-10
1.40808e-06
2.22558e-05
7.37255e-05
0.000121791
0.000142907
0.000150869
0.000155214
0.000154743
0.000156196
0.000157822
0.00015902
0.000158795
0.000158456
0.000157854
0.000156138
0.000154972
0.000153197
0.000151813
0.000150622
0.000149882
0.000149252
0.000149168
0.000149666
0.000151043
0.000151289
0.000150589
0.000149671
0.00014969
0.000149846
0.000150253
0.000150749
0.000151441
0.000151257
0.00015138
0.000151527
0.000151887
0.00015201
0.00015269
0.000152753
0.000152754
0.0001534
0.000154004
0.000153652
0.000154008
0.000156281
0.000155348
0.000153967
0.000151045
0.00014486
0.000130767
9.53797e-05
4.0276e-05
5.58945e-06
4.75852e-08
8.60633e-10
1.22127e-06
1.98437e-05
6.81557e-05
0.000111546
0.00013314
0.000142518
0.000145944
0.000146586
0.00014686
0.000148092
0.000148815
0.000148628
0.000148109
0.000147216
0.000146159
0.000144715
0.000142804
0.000141167
0.000139829
0.000138681
0.000137864
0.000137586
0.00013787
0.000138699
0.000139668
0.000139493
0.000139228
0.000139221
0.000139003
0.000138901
0.000138787
0.00013872
0.000139703
0.000140242
0.000140772
0.000141095
0.000141817
0.000143228
0.000143637
0.000143983
0.00014471
0.000145162
0.000145367
0.000145523
0.000146119
0.000145883
0.000144788
0.000142015
0.000135175
0.000120793
8.72774e-05
3.63076e-05
4.92832e-06
4.13558e-08
7.50572e-10
1.07368e-06
1.7754e-05
6.19058e-05
0.000103239
0.00012455
0.000133473
0.000137136
0.00013785
0.000138253
0.000139011
0.000139323
0.00013902
0.000138415
0.000137444
0.000136512
0.000135132
0.000132858
0.000130917
0.000129317
0.000127603
0.000126457
0.000125493
0.000124749
0.0001259
0.000128047
0.000110109
0.000104138
0.000106334
0.000118882
0.000127759
0.000126088
0.000126433
0.000127012
0.000128306
0.000129987
0.000130843
0.000131967
0.000133704
0.000134305
0.000134556
0.000135247
0.000135818
0.000135978
0.000136221
0.000136817
0.000136742
0.00013571
0.000132741
0.000126079
0.000111844
7.966e-05
3.31461e-05
4.37083e-06
3.62448e-08
6.50457e-10
9.45794e-07
1.59987e-05
5.626e-05
9.55895e-05
0.000116104
0.000124967
0.000128709
0.000129507
0.000129786
0.000130175
0.000130141
0.000129676
0.000128974
0.00012798
0.000127168
0.000125768
0.000123096
0.000121093
0.000118648
0.000115637
0.000114208
0.000112031
0.000112477
9.59329e-05
6.89962e-05
4.56605e-05
2.40206e-05
2.4208e-05
5.85374e-05
8.34799e-05
0.000118474
0.000112977
0.000113607
0.000115955
0.000118272
0.000120048
0.000122203
0.000124496
0.000125405
0.000125697
0.000126423
0.000126921
0.000127157
0.000127479
0.000127977
0.000127979
0.000127105
0.000124201
0.000117538
0.000103538
7.2989e-05
3.00491e-05
3.90767e-06
3.20619e-08
4.69072e-10
7.98842e-07
1.40664e-05
5.09251e-05
8.77982e-05
0.000107862
0.000116747
0.000120585
0.000121423
0.000121477
0.000121493
0.000121203
0.000120598
0.000119818
0.000118919
0.000118107
0.000116207
0.00011341
0.000110788
0.000107819
0.000104735
0.000102531
0.00010279
9.39527e-05
3.26913e-05
1.69747e-06
1.46694e-09
1.40472e-08
1.25895e-05
4.15836e-05
0.000103028
0.000102325
0.000104156
0.000106942
0.000109979
0.000112531
0.000114956
0.000116551
0.000116943
0.000117754
0.000118299
0.00011865
0.000118981
0.000119432
0.000119536
0.000118817
0.000116059
0.000109505
9.56796e-05
6.69568e-05
2.72679e-05
3.49832e-06
2.84494e-08
1.13469e-10
4.73604e-07
1.14786e-05
4.48387e-05
7.91555e-05
9.85275e-05
0.000107428
0.000111238
0.000112017
0.000111721
0.000111316
0.000110848
0.000110119
0.000109286
0.000108367
0.000107409
0.000105162
0.000102255
9.92456e-05
9.60317e-05
9.32736e-05
9.28326e-05
8.1452e-05
2.41647e-05
1.3957e-06
2.10597e-10
5.62005e-06
5.93787e-05
8.85539e-05
9.22849e-05
9.53868e-05
9.88071e-05
0.000102006
0.000104691
0.000106268
0.000106874
0.000107824
0.000108506
0.000108944
0.000109222
0.000109627
0.000109886
0.000109392
0.000106883
0.000100604
8.72418e-05
6.11531e-05
2.50187e-05
3.11223e-06
2.36071e-08
1.52118e-10
5.59857e-07
1.06728e-05
3.98251e-05
6.88061e-05
8.49717e-05
9.31486e-05
9.62545e-05
9.65662e-05
9.61509e-05
9.53289e-05
9.46931e-05
9.43358e-05
9.30655e-05
9.19047e-05
9.0259e-05
8.87004e-05
8.68705e-05
8.38467e-05
8.04064e-05
7.85287e-05
7.45504e-05
4.96853e-05
7.05399e-06
1.25609e-07
1.11213e-06
2.48176e-05
6.85556e-05
7.75467e-05
7.94771e-05
8.21815e-05
8.57781e-05
8.77197e-05
8.88038e-05
8.97765e-05
9.09653e-05
9.19452e-05
9.26487e-05
9.33689e-05
9.4082e-05
9.48354e-05
9.46692e-05
9.28384e-05
8.73904e-05
7.55299e-05
5.30955e-05
2.22931e-05
3.00307e-06
2.6201e-08
3.28597e-10
5.65467e-07
1.0387e-05
3.6986e-05
6.24641e-05
7.74219e-05
8.4899e-05
8.80462e-05
8.82943e-05
8.76142e-05
8.72792e-05
8.66122e-05
8.5791e-05
8.47997e-05
8.33991e-05
8.15955e-05
8.05688e-05
7.89568e-05
7.5648e-05
7.28683e-05
7.07737e-05
6.25463e-05
3.14301e-05
4.22489e-06
1.7128e-07
4.49873e-10
4.71889e-09
8.61101e-07
1.39822e-05
4.99007e-05
6.889e-05
7.20077e-05
7.41939e-05
7.73743e-05
7.87273e-05
8.03669e-05
8.09612e-05
8.18902e-05
8.33076e-05
8.44817e-05
8.53652e-05
8.62306e-05
8.67453e-05
8.65571e-05
8.48336e-05
7.96401e-05
6.85772e-05
4.80438e-05
2.01711e-05
2.68196e-06
2.1738e-08
3.62018e-10
5.32676e-07
9.54847e-06
3.37664e-05
5.67601e-05
7.06488e-05
7.7851e-05
8.08395e-05
8.11833e-05
8.07775e-05
8.04143e-05
7.95594e-05
7.86595e-05
7.77504e-05
7.64967e-05
7.49649e-05
7.36671e-05
7.23448e-05
6.94794e-05
6.65997e-05
6.42579e-05
5.40675e-05
2.37895e-05
3.83701e-06
5.28316e-07
6.47846e-08
1.99473e-08
2.09438e-08
1.82998e-08
4.23005e-08
1.97297e-07
1.14814e-06
1.01083e-05
3.97867e-05
6.12141e-05
6.60427e-05
6.84087e-05
7.12374e-05
7.26135e-05
7.34617e-05
7.39117e-05
7.50837e-05
7.65119e-05
7.76476e-05
7.86527e-05
7.96638e-05
8.01816e-05
7.98154e-05
7.80578e-05
7.2993e-05
6.2411e-05
4.34071e-05
1.83033e-05
2.3855e-06
1.90894e-08
3.33512e-10
4.8614e-07
8.63831e-06
3.06487e-05
5.16224e-05
6.4747e-05
7.18697e-05
7.47828e-05
7.52513e-05
7.48061e-05
7.42729e-05
7.37802e-05
7.28863e-05
7.17972e-05
7.04709e-05
6.88769e-05
6.7793e-05
6.66168e-05
6.42816e-05
6.16188e-05
5.86779e-05
4.67796e-05
2.00384e-05
4.38608e-06
1.28106e-06
7.34178e-07
9.39367e-07
1.33177e-06
1.20439e-06
7.74432e-07
5.58365e-07
1.56934e-06
9.05573e-06
3.34175e-05
5.51422e-05
6.10031e-05
6.32511e-05
6.5601e-05
6.70623e-05
6.79056e-05
6.84333e-05
6.92999e-05
7.05268e-05
7.18559e-05
7.29567e-05
7.39643e-05
7.44058e-05
7.39204e-05
7.21299e-05
6.71266e-05
5.69612e-05
3.94752e-05
1.65985e-05
2.12889e-06
1.6956e-08
3.00323e-10
4.38379e-07
7.8104e-06
2.77832e-05
4.69929e-05
5.93157e-05
6.61758e-05
6.90905e-05
6.96711e-05
6.9255e-05
6.87803e-05
6.84014e-05
6.75606e-05
6.64238e-05
6.51229e-05
6.363e-05
6.25863e-05
6.15207e-05
5.96228e-05
5.73897e-05
5.40116e-05
4.11692e-05
1.86256e-05
5.56332e-06
2.48939e-06
2.46901e-06
2.86769e-06
2.91211e-06
2.21712e-06
1.39145e-06
9.86099e-07
2.18988e-06
9.51836e-06
3.03603e-05
5.04822e-05
5.67498e-05
5.8882e-05
6.07248e-05
6.20731e-05
6.28372e-05
6.33405e-05
6.41039e-05
6.5292e-05
6.65982e-05
6.77745e-05
6.87686e-05
6.90811e-05
6.84388e-05
6.65602e-05
6.17417e-05
5.20822e-05
3.59197e-05
1.50464e-05
1.90807e-06
1.5139e-08
2.69402e-10
3.93788e-07
7.05271e-06
2.51764e-05
4.27183e-05
5.41818e-05
6.0581e-05
6.3417e-05
6.43154e-05
6.40463e-05
6.36282e-05
6.33031e-05
6.24845e-05
6.13852e-05
6.01838e-05
5.8799e-05
5.78555e-05
5.69499e-05
5.537e-05
5.34764e-05
5.01996e-05
3.93574e-05
1.84696e-05
6.82414e-06
4.1822e-06
4.66394e-06
4.49363e-06
3.53827e-06
2.35817e-06
1.65633e-06
1.59515e-06
3.53902e-06
1.08879e-05
2.96627e-05
4.70179e-05
5.27664e-05
5.47121e-05
5.62957e-05
5.74196e-05
5.81851e-05
5.86194e-05
5.92335e-05
6.04907e-05
6.17455e-05
6.29494e-05
6.38435e-05
6.40175e-05
6.32961e-05
6.13921e-05
5.67322e-05
4.75724e-05
3.26751e-05
1.36133e-05
1.70722e-06
1.34951e-08
2.41127e-10
3.52965e-07
6.35169e-06
2.27142e-05
3.86742e-05
4.92253e-05
5.49584e-05
5.8078e-05
5.90414e-05
5.8773e-05
5.81041e-05
5.79459e-05
5.73099e-05
5.64043e-05
5.5193e-05
5.33904e-05
5.29468e-05
5.25717e-05
5.12053e-05
4.95942e-05
4.65384e-05
3.6439e-05
1.92504e-05
9.22324e-06
6.68902e-06
6.74372e-06
4.99012e-06
3.58778e-06
2.64559e-06
2.20245e-06
2.92649e-06
5.40496e-06
1.34527e-05
2.97322e-05
4.39621e-05
4.88136e-05
5.07111e-05
5.20787e-05
5.28055e-05
5.36784e-05
5.40786e-05
5.44826e-05
5.56621e-05
5.65602e-05
5.80554e-05
5.89931e-05
5.91054e-05
5.82421e-05
5.62891e-05
5.18796e-05
4.32578e-05
2.96495e-05
1.23038e-05
1.52614e-06
1.18875e-08
2.1551e-10
3.16e-07
5.70861e-06
2.04266e-05
3.48172e-05
4.45041e-05
4.97402e-05
5.2906e-05
5.38202e-05
5.36085e-05
5.26139e-05
5.26095e-05
5.18088e-05
5.12019e-05
5.05469e-05
4.8431e-05
4.83452e-05
4.82618e-05
4.71655e-05
4.55633e-05
4.28673e-05
3.35532e-05
2.11829e-05
1.43226e-05
1.09427e-05
7.78501e-06
4.25801e-06
3.39065e-06
3.34209e-06
3.38405e-06
4.62491e-06
7.67627e-06
1.61333e-05
3.04169e-05
4.07797e-05
4.4934e-05
4.63577e-05
4.74921e-05
4.82455e-05
4.92115e-05
4.94483e-05
4.99342e-05
5.08921e-05
5.14979e-05
5.33445e-05
5.39957e-05
5.40547e-05
5.29897e-05
5.10268e-05
4.71186e-05
3.91253e-05
2.67939e-05
1.1077e-05
1.35577e-06
1.03756e-08
1.92393e-10
2.82768e-07
5.11832e-06
1.83673e-05
3.11359e-05
3.79829e-05
4.40705e-05
4.80608e-05
4.90097e-05
4.86151e-05
4.68865e-05
4.79897e-05
4.78438e-05
4.73415e-05
4.64864e-05
4.54227e-05
4.34256e-05
4.44506e-05
4.37115e-05
4.21317e-05
3.85186e-05
3.17544e-05
2.40436e-05
2.28165e-05
1.49887e-05
6.7648e-06
3.44386e-06
4.22973e-06
4.85367e-06
5.26051e-06
7.03741e-06
1.0804e-05
1.87448e-05
2.93187e-05
3.68763e-05
4.0046e-05
4.26015e-05
4.35247e-05
4.24642e-05
4.26701e-05
4.53936e-05
4.63881e-05
4.72496e-05
4.78683e-05
4.90114e-05
4.7959e-05
4.91687e-05
4.81288e-05
4.63298e-05
4.21922e-05
3.51748e-05
2.41481e-05
9.89508e-06
1.20516e-06
9.08077e-09
1.71688e-10
2.52953e-07
4.61598e-06
1.63222e-05
2.76764e-05
3.5806e-05
4.09588e-05
4.38499e-05
4.60917e-05
4.42555e-05
4.43418e-05
4.35297e-05
4.32542e-05
4.45915e-05
4.26498e-05
4.319e-05
4.24269e-05
4.16052e-05
4.08916e-05
3.89866e-05
3.70544e-05
3.09081e-05
2.85502e-05
3.55885e-05
1.42869e-05
4.08223e-06
3.6009e-06
6.31989e-06
7.65429e-06
8.30219e-06
1.13626e-05
1.54129e-05
2.09008e-05
2.8338e-05
3.38438e-05
3.78327e-05
3.90761e-05
4.07206e-05
4.08596e-05
4.0792e-05
4.14769e-05
4.32523e-05
4.44066e-05
4.41231e-05
4.4943e-05
4.63214e-05
4.43279e-05
4.37696e-05
4.25758e-05
3.8439e-05
3.15756e-05
2.15029e-05
8.97562e-06
1.07297e-06
7.97179e-09
1.53271e-10
2.26495e-07
4.17909e-06
1.50646e-05
2.55638e-05
3.29606e-05
3.84297e-05
4.2095e-05
4.23096e-05
4.28856e-05
4.17693e-05
4.17462e-05
4.14064e-05
4.09576e-05
4.10504e-05
4.0714e-05
4.0213e-05
3.96241e-05
3.88431e-05
3.83493e-05
3.61127e-05
3.09032e-05
2.96307e-05
3.65523e-05
1.06877e-05
4.16672e-06
5.60109e-06
1.00782e-05
1.20473e-05
1.39748e-05
1.95514e-05
2.41026e-05
2.48755e-05
2.72013e-05
3.29551e-05
3.56098e-05
3.80574e-05
3.84009e-05
3.94138e-05
3.97436e-05
4.02922e-05
4.07631e-05
4.19158e-05
4.34519e-05
4.39077e-05
4.38028e-05
4.24076e-05
4.19273e-05
4.12048e-05
3.60853e-05
3.01014e-05
2.00236e-05
8.11066e-06
9.58806e-07
7.02601e-09
1.37021e-10
2.03139e-07
3.80023e-06
1.42361e-05
2.45808e-05
3.21336e-05
3.73316e-05
4.00769e-05
4.14856e-05
4.15841e-05
4.15485e-05
4.10135e-05
4.08085e-05
4.0192e-05
3.96187e-05
3.81777e-05
3.76818e-05
3.69571e-05
3.65937e-05
3.60987e-05
3.45911e-05
3.14123e-05
3.67074e-05
4.1518e-05
1.15443e-05
5.7483e-06
8.22756e-06
1.57467e-05
1.82968e-05
2.25349e-05
3.0688e-05
3.67751e-05
3.19414e-05
2.7963e-05
3.12475e-05
3.4499e-05
3.59805e-05
3.60169e-05
3.74146e-05
3.79315e-05
3.83292e-05
3.88789e-05
3.97616e-05
4.0733e-05
4.16555e-05
4.15836e-05
4.19929e-05
4.10425e-05
3.87823e-05
3.49473e-05
2.82113e-05
1.8979e-05
7.41818e-06
8.59608e-07
6.21633e-09
1.22718e-10
1.82599e-07
3.45203e-06
1.32535e-05
2.35312e-05
3.06314e-05
3.56401e-05
3.8087e-05
3.91247e-05
3.9665e-05
3.95117e-05
3.90634e-05
3.88013e-05
3.83398e-05
3.76878e-05
3.63148e-05
3.54495e-05
3.51212e-05
3.47953e-05
3.42105e-05
3.31165e-05
3.01598e-05
3.22205e-05
4.30398e-05
1.75222e-05
7.83541e-06
1.11638e-05
2.07864e-05
2.58149e-05
3.22649e-05
4.55798e-05
5.30999e-05
4.2629e-05
2.97432e-05
3.16211e-05
3.26836e-05
3.41001e-05
3.51065e-05
3.52631e-05
3.56695e-05
3.61636e-05
3.67469e-05
3.74808e-05
3.83415e-05
3.9074e-05
3.93974e-05
3.9492e-05
3.86559e-05
3.64285e-05
3.25097e-05
2.63055e-05
1.76764e-05
6.81999e-06
7.7358e-07
5.52761e-09
1.10324e-10
1.64788e-07
3.14835e-06
1.22023e-05
2.18528e-05
2.86615e-05
3.33487e-05
3.60011e-05
3.70675e-05
3.7359e-05
3.71943e-05
3.67216e-05
3.63657e-05
3.59659e-05
3.54692e-05
3.45486e-05
3.35994e-05
3.34147e-05
3.3073e-05
3.26683e-05
3.14845e-05
2.89185e-05
2.88708e-05
3.80922e-05
3.00094e-05
1.22712e-05
1.30207e-05
2.35872e-05
3.02943e-05
3.8939e-05
5.45113e-05
6.62507e-05
5.24991e-05
3.07845e-05
3.05109e-05
3.20777e-05
3.24971e-05
3.32144e-05
3.34732e-05
3.38016e-05
3.42358e-05
3.47313e-05
3.53855e-05
3.61447e-05
3.6786e-05
3.71284e-05
3.6988e-05
3.61588e-05
3.42053e-05
3.03538e-05
2.45604e-05
1.6394e-05
6.25108e-06
6.99075e-07
4.94027e-09
9.95584e-11
1.49303e-07
2.88086e-06
1.1287e-05
2.02459e-05
2.66384e-05
3.1157e-05
3.38683e-05
3.49668e-05
3.52155e-05
3.50453e-05
3.46369e-05
3.42609e-05
3.38892e-05
3.34798e-05
3.2842e-05
3.216e-05
3.18205e-05
3.14631e-05
3.09163e-05
2.98399e-05
2.7824e-05
2.74062e-05
3.60372e-05
4.32731e-05
2.37677e-05
1.64337e-05
2.34716e-05
3.03853e-05
4.10394e-05
5.93306e-05
7.30659e-05
5.34213e-05
3.14467e-05
2.9224e-05
3.05256e-05
3.12365e-05
3.16649e-05
3.19178e-05
3.22031e-05
3.25109e-05
3.28585e-05
3.33935e-05
3.40477e-05
3.45953e-05
3.48757e-05
3.4722e-05
3.39176e-05
3.1991e-05
2.82853e-05
2.29269e-05
1.52391e-05
5.74102e-06
6.34418e-07
4.4382e-09
9.02085e-11
1.35786e-07
2.64405e-06
1.04595e-05
1.88266e-05
2.47869e-05
2.90811e-05
3.17395e-05
3.28653e-05
3.31329e-05
3.29635e-05
3.25833e-05
3.22215e-05
3.18824e-05
3.15244e-05
3.10614e-05
3.05785e-05
3.02104e-05
2.97969e-05
2.9113e-05
2.81198e-05
2.67407e-05
2.61331e-05
3.63462e-05
4.69438e-05
3.73891e-05
2.44058e-05
2.4294e-05
2.72266e-05
3.67769e-05
5.67313e-05
7.76892e-05
5.90107e-05
3.29914e-05
2.82687e-05
2.90221e-05
2.96566e-05
3.00161e-05
3.02479e-05
3.04907e-05
3.07503e-05
3.10494e-05
3.14881e-05
3.20169e-05
3.24779e-05
3.27133e-05
3.25606e-05
3.17771e-05
2.98701e-05
2.63433e-05
2.13641e-05
1.41867e-05
5.29118e-06
5.78044e-07
4.00719e-09
8.20986e-11
1.23993e-07
2.43442e-06
9.7136e-06
1.75231e-05
2.30562e-05
2.70957e-05
2.96655e-05
3.08108e-05
3.11051e-05
3.09414e-05
3.05746e-05
3.02493e-05
2.99644e-05
2.96587e-05
2.92829e-05
2.88712e-05
2.85384e-05
2.81923e-05
2.76286e-05
2.67871e-05
2.58853e-05
2.55588e-05
3.40464e-05
4.75515e-05
4.39864e-05
3.40686e-05
2.62715e-05
2.46235e-05
3.09022e-05
5.10419e-05
7.51851e-05
6.43497e-05
3.36246e-05
2.70844e-05
2.74657e-05
2.803e-05
2.83422e-05
2.855e-05
2.87848e-05
2.9029e-05
2.93001e-05
2.96606e-05
3.00644e-05
3.04417e-05
3.06469e-05
3.05117e-05
2.9749e-05
2.78668e-05
2.45173e-05
1.9912e-05
1.32209e-05
4.8913e-06
5.28811e-07
3.63443e-09
7.50687e-11
1.13731e-07
2.24972e-06
9.04363e-06
1.63348e-05
2.14555e-05
2.52308e-05
2.76948e-05
2.88415e-05
2.91596e-05
2.90145e-05
2.8674e-05
2.83907e-05
2.81531e-05
2.78981e-05
2.75846e-05
2.72217e-05
2.69041e-05
2.65874e-05
2.61166e-05
2.54172e-05
2.50964e-05
2.55041e-05
3.31034e-05
4.6053e-05
4.87461e-05
3.95534e-05
3.14751e-05
2.25639e-05
2.64269e-05
4.30968e-05
6.71629e-05
6.17587e-05
3.30692e-05
2.58417e-05
2.59275e-05
2.64499e-05
2.67253e-05
2.69105e-05
2.71256e-05
2.73508e-05
2.76001e-05
2.78969e-05
2.82135e-05
2.85175e-05
2.87023e-05
2.85902e-05
2.78465e-05
2.59896e-05
2.28129e-05
1.85655e-05
1.23373e-05
4.53439e-06
4.85698e-07
3.31169e-09
6.89302e-11
1.04737e-07
2.08659e-06
8.44396e-06
1.5258e-05
1.99893e-05
2.35043e-05
2.58577e-05
2.69919e-05
2.73278e-05
2.7218e-05
2.69204e-05
2.66662e-05
2.64515e-05
2.62329e-05
2.59665e-05
2.56414e-05
2.53418e-05
2.50418e-05
2.46177e-05
2.40696e-05
2.43423e-05
2.56541e-05
3.46753e-05
4.88907e-05
4.88145e-05
4.1244e-05
3.33015e-05
2.22289e-05
2.22761e-05
3.58578e-05
5.75644e-05
5.60319e-05
3.15859e-05
2.45823e-05
2.44604e-05
2.49321e-05
2.51789e-05
2.53488e-05
2.55432e-05
2.57452e-05
2.59626e-05
2.62103e-05
2.64684e-05
2.6726e-05
2.68967e-05
2.67998e-05
2.60669e-05
2.42396e-05
2.12341e-05
1.73249e-05
1.15342e-05
4.21476e-06
4.47512e-07
3.02835e-09
6.35651e-11
9.68664e-08
1.94191e-06
7.90336e-06
1.42809e-05
1.86495e-05
2.19176e-05
2.41677e-05
2.52831e-05
2.56282e-05
2.55572e-05
2.53076e-05
2.50716e-05
2.48559e-05
2.46529e-05
2.44196e-05
2.4123e-05
2.38394e-05
2.35613e-05
2.31764e-05
2.27904e-05
2.36569e-05
2.58193e-05
3.76104e-05
4.97149e-05
4.63408e-05
3.84912e-05
3.22614e-05
2.33716e-05
2.0746e-05
3.07533e-05
4.91297e-05
4.94014e-05
2.96812e-05
2.33569e-05
2.30509e-05
2.34561e-05
2.36936e-05
2.38594e-05
2.40429e-05
2.42281e-05
2.44107e-05
2.46157e-05
2.48427e-05
2.5069e-05
2.52252e-05
2.51284e-05
2.43976e-05
2.26127e-05
1.97803e-05
1.61887e-05
1.0805e-05
3.92947e-06
4.13651e-07
2.77992e-09
5.88212e-11
8.98641e-08
1.81535e-06
7.41225e-06
1.33855e-05
1.74155e-05
2.04533e-05
2.26124e-05
2.37093e-05
2.40536e-05
2.40099e-05
2.38047e-05
2.35866e-05
2.33603e-05
2.31574e-05
2.29446e-05
2.26702e-05
2.24009e-05
2.21498e-05
2.18087e-05
2.16021e-05
2.3049e-05
2.67048e-05
4.15797e-05
4.902e-05
4.23556e-05
3.40241e-05
2.88002e-05
2.2624e-05
2.00925e-05
2.73034e-05
4.32663e-05
4.39272e-05
2.76874e-05
2.21591e-05
2.17125e-05
2.20471e-05
2.22685e-05
2.2433e-05
2.26141e-05
2.2794e-05
2.29524e-05
2.3124e-05
2.3332e-05
2.35359e-05
2.36731e-05
2.35599e-05
2.28264e-05
2.11011e-05
1.8451e-05
1.51585e-05
1.01518e-05
3.67983e-06
3.85286e-07
2.58579e-09
5.46345e-11
8.36699e-08
1.69579e-06
6.96099e-06
1.25547e-05
1.62665e-05
1.90873e-05
2.11633e-05
2.22463e-05
2.25827e-05
2.25493e-05
2.23797e-05
2.21877e-05
2.19646e-05
2.17606e-05
2.15601e-05
2.13054e-05
2.10591e-05
2.08353e-05
2.05369e-05
2.0488e-05
2.24944e-05
2.94322e-05
4.30984e-05
4.68071e-05
3.7628e-05
2.94902e-05
2.52538e-05
2.15122e-05
2.0942e-05
2.82039e-05
4.0922e-05
3.89689e-05
2.55356e-05
2.09832e-05
2.04449e-05
2.07233e-05
2.09222e-05
2.10747e-05
2.12518e-05
2.1433e-05
2.15825e-05
2.1734e-05
2.19301e-05
2.212e-05
2.22263e-05
2.20882e-05
2.13502e-05
1.96988e-05
1.72386e-05
1.42293e-05
9.56519e-06
3.45928e-06
3.60755e-07
2.4298e-09
5.09012e-11
7.81495e-08
1.59028e-06
6.54442e-06
1.17807e-05
1.5192e-05
1.78071e-05
1.98009e-05
2.08729e-05
2.11984e-05
2.11611e-05
2.10158e-05
2.08617e-05
2.06702e-05
2.04762e-05
2.0281e-05
2.00407e-05
1.98175e-05
1.9617e-05
1.9354e-05
1.94324e-05
2.19132e-05
2.99665e-05
4.32968e-05
4.28538e-05
3.29202e-05
2.5654e-05
2.245e-05
2.00961e-05
2.04566e-05
3.08173e-05
4.11996e-05
3.48754e-05
2.36985e-05
1.98458e-05
1.92406e-05
1.94754e-05
1.96545e-05
1.97881e-05
1.99573e-05
2.0142e-05
2.02935e-05
2.04389e-05
2.0629e-05
2.08067e-05
2.088e-05
2.07112e-05
1.9972e-05
1.83989e-05
1.61306e-05
1.33901e-05
9.03592e-06
3.26168e-06
3.38837e-07
2.29003e-09
4.75844e-11
7.31935e-08
1.49396e-06
6.16053e-06
1.10643e-05
1.41961e-05
1.66173e-05
1.85285e-05
1.95857e-05
1.98996e-05
1.98511e-05
1.97197e-05
1.96109e-05
1.94733e-05
1.93014e-05
1.91025e-05
1.88659e-05
1.86571e-05
1.84711e-05
1.82389e-05
1.84196e-05
2.11699e-05
3.05004e-05
4.05543e-05
3.80383e-05
2.866e-05
2.24661e-05
2.03779e-05
1.985e-05
2.27592e-05
3.05922e-05
4.04606e-05
3.18662e-05
2.21696e-05
1.87653e-05
1.81007e-05
1.82956e-05
1.84588e-05
1.85732e-05
1.87349e-05
1.8923e-05
1.908e-05
1.92274e-05
1.94161e-05
1.95838e-05
1.96281e-05
1.9424e-05
1.86914e-05
1.7197e-05
1.51187e-05
1.26306e-05
8.55617e-06
3.08189e-06
3.19063e-07
2.1636e-09
4.45871e-11
6.86717e-08
1.4055e-06
5.80786e-06
1.04091e-05
1.32885e-05
1.55277e-05
1.73533e-05
1.83921e-05
1.86994e-05
1.86416e-05
1.85179e-05
1.84483e-05
1.83642e-05
1.8217e-05
1.80063e-05
1.77606e-05
1.75555e-05
1.73788e-05
1.718e-05
1.74465e-05
2.02719e-05
2.91022e-05
3.71806e-05
3.38249e-05
2.52649e-05
1.99082e-05
1.87032e-05
1.92706e-05
2.30959e-05
3.34126e-05
3.92103e-05
3.00046e-05
2.07471e-05
1.77408e-05
1.70316e-05
1.71838e-05
1.7335e-05
1.74353e-05
1.75914e-05
1.77806e-05
1.79385e-05
1.80881e-05
1.82776e-05
1.84387e-05
1.84584e-05
1.82282e-05
1.75046e-05
1.60877e-05
1.41909e-05
1.1937e-05
8.11747e-06
2.91833e-06
3.01031e-07
2.05057e-09
4.18678e-11
6.45583e-08
1.32411e-06
5.48402e-06
9.81325e-06
1.24696e-05
1.45383e-05
1.62753e-05
1.72945e-05
1.76073e-05
1.75498e-05
1.74296e-05
1.73792e-05
1.73295e-05
1.71983e-05
1.69731e-05
1.67102e-05
1.65036e-05
1.63385e-05
1.61784e-05
1.65281e-05
1.93201e-05
2.73547e-05
3.41602e-05
3.03977e-05
2.27827e-05
1.8072e-05
1.72459e-05
1.87594e-05
2.36877e-05
3.26113e-05
3.67548e-05
2.93117e-05
2.00159e-05
1.67752e-05
1.60274e-05
1.61374e-05
1.62847e-05
1.63803e-05
1.65328e-05
1.67172e-05
1.68684e-05
1.70164e-05
1.72057e-05
1.73624e-05
1.73648e-05
1.71152e-05
1.64033e-05
1.50698e-05
1.33379e-05
1.12973e-05
7.71179e-06
2.76763e-06
2.84689e-07
1.94851e-09
3.9373e-11
6.07813e-08
1.24943e-06
5.1861e-06
9.2694e-06
1.1728e-05