/*--------------------------------*- C++ -*----------------------------------*\
  =========                 |
  \\      /  F ield         | OpenFOAM: The Open Source CFD Toolbox
   \\    /   O peration     | Website:  https://openfoam.org
    \\  /    A nd           | Version:  7
     \\/     M anipulation  |
\*---------------------------------------------------------------------------*/
FoamFile
{
    version     2.0;
    format      ascii;
    class       volScalarField;
    location    "90";
    object      p;
}
// * * * * * * * * * * * * * * * * * * * * * * * * * * * * * * * * * * * * * //

dimensions      [0 2 -2 0 0 0 0];

internalField   nonuniform List<scalar> 
17475
(
0.73349
0.418918
0.329562
0.29108
0.268612
0.2538
0.243369
0.235774
0.23017
0.22604
0.223048
0.220957
0.219594
0.218826
0.218545
0.218659
0.219089
0.219763
0.220616
0.221584
0.222612
0.223644
0.224631
0.225526
0.226291
0.226894
0.227309
0.22752
0.227518
0.227308
0.226902
0.22632
0.225594
0.22476
0.223862
0.22295
0.222077
0.221302
0.220686
0.220296
0.220206
0.220495
0.221256
0.222596
0.224647
0.227578
0.231617
0.23708
0.244431
0.254376
0.268049
0.287322
0.315023
0.357797
0.379687
0.295484
0.309903
0.295779
0.277157
0.261509
0.249573
0.240579
0.233797
0.228695
0.224898
0.222139
0.22022
0.218991
0.21833
0.21814
0.218334
0.218837
0.219578
0.220494
0.221522
0.222606
0.22369
0.224724
0.225663
0.226464
0.227094
0.227526
0.227745
0.227741
0.227519
0.227091
0.22648
0.225716
0.224838
0.22389
0.222924
0.221993
0.221155
0.220472
0.220011
0.219841
0.220041
0.220696
0.221907
0.223793
0.226506
0.23024
0.235262
0.241942
0.250821
0.26272
0.278959
0.301452
0.337159
0.346863
0.262468
0.259835
0.257706
0.251621
0.244887
0.238373
0.232675
0.227969
0.224234
0.221382
0.219304
0.217899
0.217074
0.216746
0.21684
0.217286
0.218018
0.218973
0.220092
0.221313
0.222579
0.223833
0.225023
0.2261
0.227015
0.227732
0.228223
0.228469
0.228461
0.228204
0.22771
0.227006
0.226125
0.225109
0.224006
0.222869
0.221754
0.22072
0.219827
0.219141
0.218725
0.218645
0.218974
0.219789
0.221176
0.223233
0.226072
0.229819
0.234608
0.240557
0.247683
0.255661
0.263381
0.267982
0.259649
0.215849
0.224178
0.229208
0.229607
0.22777
0.225133
0.22237
0.219837
0.217709
0.216059
0.214904
0.214227
0.213996
0.214172
0.214707
0.215552
0.216657
0.217966
0.219423
0.220971
0.22255
0.2241
0.225564
0.22688
0.227997
0.228872
0.229469
0.229766
0.229756
0.22944
0.228835
0.227971
0.226888
0.225636
0.224267
0.222842
0.22142
0.22006
0.218824
0.217774
0.216964
0.216449
0.216281
0.216508
0.217175
0.218321
0.219967
0.222109
0.224683
0.227518
0.230237
0.232077
0.231614
0.22575
0.21066
0.194676
0.201105
0.207388
0.210681
0.211889
0.21193
0.211397
0.210677
0.210011
0.209544
0.209356
0.209487
0.209948
0.210733
0.211822
0.213186
0.214787
0.216578
0.218508
0.22052
0.222551
0.224536
0.226401
0.228075
0.229497
0.23061
0.231371
0.231751
0.231736
0.231333
0.230562
0.229461
0.22808
0.22648
0.224726
0.222887
0.221029
0.219212
0.217511
0.215976
0.214655
0.21359
0.212814
0.21235
0.212208
0.212379
0.212827
0.213471
0.214164
0.214652
0.214511
0.213065
0.209272
0.201566
0.191503
0.180699
0.185326
0.191205
0.195443
0.198042
0.199607
0.200554
0.201179
0.201699
0.202265
0.202978
0.203905
0.205084
0.206533
0.20825
0.210223
0.212426
0.214821
0.21736
0.219983
0.222626
0.225199
0.227617
0.229795
0.231648
0.233103
0.234099
0.234596
0.234575
0.234045
0.233035
0.231595
0.229795
0.227711
0.225429
0.223032
0.220594
0.218193
0.215905
0.213777
0.21185
0.210156
0.208713
0.207524
0.206575
0.205828
0.205219
0.204641
0.203933
0.202859
0.201095
0.198198
0.193586
0.186769
0.180363
0.170012
0.173307
0.17824
0.182629
0.185856
0.188262
0.190133
0.191689
0.193101
0.1945
0.19599
0.197646
0.199518
0.201639
0.204024
0.206673
0.209569
0.212685
0.215971
0.219374
0.2228
0.226148
0.229312
0.232176
0.234627
0.23656
0.237886
0.238546
0.238513
0.237798
0.236447
0.234529
0.232145
0.229402
0.226413
0.223285
0.220105
0.216983
0.213988
0.211168
0.208562
0.206191
0.204062
0.202162
0.200464
0.198917
0.197446
0.195943
0.19427
0.192246
0.189645
0.186192
0.18156
0.175893
0.171553
0.1607
0.163145
0.167215
0.17142
0.174862
0.177689
0.180105
0.18227
0.184317
0.186358
0.188487
0.190778
0.193287
0.196057
0.199119
0.202484
0.206152
0.210102
0.214295
0.21865
0.223071
0.22743
0.231588
0.235388
0.238667
0.24127
0.24306
0.243948
0.243891
0.242904
0.241056
0.23846
0.235265
0.231624
0.227696
0.223619
0.21951
0.215511
0.211685
0.208083
0.20474
0.201667
0.198859
0.196295
0.193934
0.191719
0.189573
0.187404
0.185098
0.182519
0.179511
0.175892
0.17148
0.166667
0.163454
0.152027
0.153906
0.157265
0.161159
0.164613
0.167619
0.170329
0.172866
0.175338
0.17784
0.180458
0.183267
0.186333
0.189709
0.193436
0.197544
0.202038
0.206938
0.212179
0.217687
0.223364
0.229043
0.234535
0.239622
0.244066
0.247626
0.250085
0.251297
0.251192
0.249794
0.247215
0.243637
0.239298
0.234425
0.229243
0.22393
0.218678
0.213627
0.208844
0.204381
0.20026
0.196482
0.193029
0.189864
0.186938
0.184189
0.181543
0.178916
0.176215
0.173332
0.170159
0.166559
0.162506
0.158584
0.156144
0.143621
0.1451
0.147889
0.151424
0.154767
0.157796
0.160622
0.16335
0.166073
0.168875
0.171838
0.175036
0.178545
0.182434
0.186767
0.19159
0.196975
0.202904
0.209346
0.216239
0.223474
0.230882
0.238183
0.245072
0.251192
0.256161
0.259617
0.261309
0.261113
0.259076
0.255389
0.250356
0.244369
0.237784
0.230912
0.224014
0.217365
0.211071
0.205212
0.199825
0.194915
0.19046
0.18642
0.182743
0.179364
0.176217
0.173219
0.170296
0.167368
0.164356
0.161167
0.157698
0.15395
0.150601
0.14869
0.135282
0.136457
0.138774
0.141929
0.145079
0.148017
0.150822
0.153589
0.156403
0.159342
0.162489
0.165926
0.16974
0.17402
0.178859
0.18434
0.190555
0.197543
0.205311
0.213827
0.222992
0.232639
0.24242
0.251878
0.260479
0.267602
0.27261
0.275049
0.274687
0.271611
0.266171
0.258926
0.250518
0.241519
0.232362
0.223482
0.215132
0.207418
0.200396
0.194071
0.188408
0.183349
0.17882
0.174738
0.171033
0.167627
0.164445
0.161404
0.15842
0.155414
0.152306
0.149023
0.145634
0.142812
0.141263
0.126898
0.127833
0.129739
0.132502
0.135383
0.138131
0.140795
0.143463
0.146212
0.149122
0.152274
0.155762
0.159688
0.164169
0.169315
0.1753
0.182219
0.190187
0.199317
0.209637
0.22111
0.233594
0.246774
0.259973
0.272363
0.282921
0.290494
0.294164
0.293489
0.288626
0.280291
0.269558
0.257529
0.245075
0.232917
0.221594
0.211266
0.202018
0.193835
0.186643
0.180335
0.174806
0.169937
0.165643
0.161813
0.158339
0.155129
0.152102
0.14918
0.14629
0.143358
0.140327
0.137315
0.134944
0.1337
0.118407
0.119159
0.120702
0.123044
0.125582
0.128046
0.130455
0.132886
0.135413
0.138111
0.141065
0.144377
0.148165
0.15257
0.157747
0.163903
0.17122
0.179921
0.190219
0.20235
0.216408
0.232372
0.250046
0.268717
0.287065
0.303382
0.315453
0.321326
0.32003
0.311907
0.29853
0.282085
0.264528
0.24724
0.2313
0.217083
0.204654
0.193934
0.184746
0.17689
0.170198
0.164497
0.159589
0.155319
0.151556
0.14819
0.145121
0.142263
0.139541
0.13688
0.134214
0.131501
0.12889
0.126936
0.125951
0.10979
0.110377
0.111588
0.113497
0.115634
0.117724
0.119766
0.121823
0.123964
0.126259
0.128791
0.13166
0.134997
0.138944
0.143737
0.149576
0.156737
0.165576
0.176502
0.189953
0.206441
0.226259
0.249526
0.275949
0.303845
0.330254
0.350844
0.361022
0.358393
0.343835
0.321124
0.295064
0.269085
0.245473
0.2251
0.207922
0.19364
0.181838
0.172151
0.16421
0.157638
0.152145
0.147514
0.143557
0.140114
0.137082
0.134348
0.131816
0.129432
0.127119
0.124815
0.122497
0.120322
0.118729
0.11791
0.101083
0.101541
0.102442
0.103888
0.105543
0.107172
0.108746
0.110308
0.11191
0.113611
0.115484
0.117617
0.120127
0.123183
0.127008
0.131831
0.137991
0.145936
0.15627
0.169789
0.187415
0.210312
0.239589
0.275826
0.318557
0.363346
0.401495
0.421053
0.415294
0.386639
0.345618
0.303363
0.265679
0.234833
0.210279
0.19101
0.176028
0.164398
0.155264
0.147992
0.142172
0.137424
0.133527
0.130257
0.127455
0.125008
0.122814
0.120794
0.118884
0.117028
0.115175
0.113321
0.11162
0.110421
0.1098
0.0923125
0.0926577
0.0932538
0.0942192
0.0953519
0.0964532
0.0974726
0.0984283
0.0993511
0.10028
0.101265
0.102374
0.103695
0.10538
0.107578
0.110527
0.114549
0.120106
0.127872
0.138838
0.154471
0.176846
0.208983
0.254301
0.316374
0.394209
0.47126
0.513606
0.499956
0.437466
0.359445
0.292248
0.242212
0.206276
0.180851
0.162858
0.149889
0.140366
0.13325
0.12786
0.123686
0.120397
0.117743
0.115527
0.113674
0.112059
0.110601
0.109232
0.107914
0.106618
0.1053
0.103974
0.10278
0.101952
0.101496
0.08354
0.0837732
0.0840592
0.0845368
0.0851277
0.0856715
0.086088
0.0863641
0.0865072
0.086531
0.0864549
0.0863035
0.0861089
0.0859533
0.0859026
0.0861052
0.0867425
0.0880935
0.0906919
0.0952949
0.103151
0.116693
0.140006
0.180371
0.250902
0.374563
0.539152
0.642951
0.607868
0.45825
0.311756
0.225068
0.176185
0.147983
0.131127
0.12071
0.113971
0.109375
0.106279
0.10409
0.102447
0.10127
0.100368
0.0996275
0.0990063
0.0984367
0.0978822
0.0973134
0.0967067
0.0960398
0.0953041
0.0945295
0.0938384
0.0933836
0.0930932
0.0745359
0.0746098
0.074652
0.0748019
0.074976
0.0750069
0.0748089
0.0743661
0.073672
0.0727145
0.0714731
0.0699199
0.0680221
0.0657564
0.0630675
0.0599039
0.0561965
0.051858
0.0467957
0.0408722
0.0339246
0.0260556
0.0170404
0.00682509
-0.00428663
0.0970967
0.378811
0.231612
0.0764125
0.0291439
0.0426652
0.0528867
0.0603402
0.0658296
0.070064
0.0732518
0.0758131
0.0778772
0.0795667
0.0809764
0.0821479
0.0831168
0.0839024
0.0845166
0.0849686
0.0852661
0.0854132
0.0854123
0.0852752
0.0850477
0.0848439
0.0847628
0.0846905
0.0641528
0.064337
0.0647835
0.0651934
0.065213
0.0647599
0.0639213
0.0627292
0.0611803
0.0592464
0.0568431
0.0538885
0.050282
0.0458825
0.0405067
0.0338998
0.0257004
0.0153745
0.00207799
-0.0155689
-0.040007
-0.0758151
-0.132648
-0.233865
-0.370491
-0.448617
-0.266677
-0.126434
-0.0561845
-0.0163625
0.0082774
0.0246675
0.036207
0.0447236
0.0512349
0.0563525
0.0604578
0.0637928
0.0665181
0.0687761
0.0706244
0.0721218
0.0733341
0.0742556
0.0749291
0.0753827
0.0756368
0.0756982
0.0755908
0.0754153
0.0591042
0.0587899
0.0584559
0.0576691
0.0565966
0.0553518
0.05386
0.0520182
0.0497254
0.0468979
0.0434327
0.0392067
0.0340541
0.0277314
0.0199465
0.0103014
-0.00177352
-0.0171
-0.0369008
-0.0630558
-0.0985631
-0.148471
-0.222693
-0.335604
-0.439617
-0.286382
-0.184991
-0.110871
-0.0649045
-0.0337375
-0.0115476
0.00484002
0.0173255
0.0270877
0.0348835
0.0412109
0.0464173
0.0507408
0.0543209
0.057301
0.0597765
0.061806
0.0634793
0.0648203
0.0658437
0.0665382
0.0668454
0.0667394
0.0665135
0.049534
0.0495748
0.0492256
0.0485553
0.0475207
0.0460398
0.0440964
0.0416698
0.0387038
0.0351086
0.0307636
0.025521
0.0191887
0.0114605
0.00200835
-0.0096066
-0.0239915
-0.0419822
-0.0647344
-0.0938327
-0.131432
-0.180414
-0.243501
-0.318822
-0.36334
-0.375073
-0.244286
-0.22117
-0.181813
-0.135469
-0.0966547
-0.0656042
-0.0411948
-0.0219524
-0.00667497
0.00560556
0.0155929
0.0237951
0.0305873
0.036248
0.0409835
0.044955
0.0482887
0.0510814
0.053418
0.0553703
0.0570078
0.0583858
0.0595081
0.0602467
0.0603418
0.0424139
0.0425545
0.0421501
0.0411176
0.0395791
0.0376276
0.035252
0.0323872
0.0289472
0.0248286
0.0199086
0.0140327
0.00701773
-0.00142891
-0.0116036
-0.0239094
-0.0388513
-0.0570623
-0.0793929
-0.106849
-0.140578
-0.182196
-0.233648
-0.289657
-0.322
-0.324357
-0.307268
-0.276172
-0.24856
-0.224235
-0.205707
-0.197679
-0.177331
-0.144181
-0.112588
-0.0848847
-0.0612954
-0.0414873
-0.0251078
-0.0115207
-0.000185469
0.00924555
0.0171452
0.023791
0.0293885
0.0341171
0.0381177
0.0415031
0.0443707
0.0468058
0.0488715
0.0505775
0.0518365
0.0525129
0.0525937
0.0357538
0.035857
0.0353567
0.0341461
0.0323491
0.0300955
0.0274097
0.0242388
0.0205
0.016092
0.0108958
0.00476967
-0.00245117
-0.0110157
-0.0211543
-0.033153
-0.0473741
-0.0642397
-0.0842439
-0.107951
-0.136022
-0.169327
-0.208734
-0.249246
-0.276317
-0.289145
-0.290135
-0.273878
-0.251825
-0.227593
-0.207924
-0.199779
-0.183884
-0.154411
-0.124915
-0.0985009
-0.0755119
-0.0558
-0.0390393
-0.0248518
-0.0128366
-0.00268287
0.00591948
0.0132361
0.0194241
0.0246835
0.0291595
0.0329799
0.0362387
0.0390178
0.0413853
0.0433407
0.0447755
0.0455337
0.0455822
0.029484
0.0295846
0.0290617
0.0277889
0.0258757
0.0234711
0.0206298
0.0173194
0.0134684
0.00899284
0.00379071
-0.00225683
-0.00928363
-0.0174255
-0.0268993
-0.0378553
-0.0505087
-0.0650721
-0.081764
-0.100784
-0.122271
-0.146459
-0.173459
-0.200215
-0.221691
-0.241807
-0.258829
-0.261537
-0.253174
-0.237193
-0.22258
-0.214067
-0.19497
-0.163547
-0.133401
-0.107219
-0.0846327
-0.0651907
-0.0485125
-0.0342315
-0.0220526
-0.0116463
-0.0027709
0.00481236
0.0112955
0.0168397
0.0215849
0.0256534
0.0291436
0.0321395
0.0346955
0.0367881
0.038292
0.039059
0.0390975
0.0238492
0.0239771
0.0234764
0.0221985
0.0202449
0.0177937
0.0149221
0.0116145
0.00781471
0.00345573
-0.00153455
-0.00723887
-0.0137468
-0.0211708
-0.0296261
-0.0391594
-0.0498573
-0.0617765
-0.0749203
-0.0891932
-0.104416
-0.120326
-0.136383
-0.150823
-0.16706
-0.192542
-0.221829
-0.241639
-0.248468
-0.244108
-0.235451
-0.224887
-0.20153
-0.168208
-0.137128
-0.11092
-0.0888079
-0.0699552
-0.0538133
-0.0399644
-0.0280667
-0.0178374
-0.00904972
-0.00149366
0.00501215
0.0106019
0.0154151
0.0195648
0.0231359
0.026212
0.0288358
0.0309723
0.0324805
0.033224
0.0332337
0.0188702
0.0190239
0.018567
0.0173426
0.0154441
0.0130485
0.0102539
0.00706686
0.00344931
-0.000648695
-0.00527888
-0.0104944
-0.0163421
-0.0228628
-0.0301287
-0.0381333
-0.0468469
-0.0562125
-0.0660773
-0.0762006
-0.086156
-0.0953658
-0.103148
-0.108957
-0.12218
-0.151738
-0.189397
-0.219775
-0.236886
-0.241152
-0.235982
-0.222892
-0.196573
-0.163428
-0.133695
-0.108808
-0.0879706
-0.0703306
-0.055228
-0.0422422
-0.0310442
-0.0213713
-0.0130072
-0.00576927
0.000496745
0.00592185
0.0106168
0.0146799
0.0181941
0.0212286
0.0238107
0.0258911
0.0273286
0.0280003
0.0279647
0.0145594
0.0147583
0.0143718
0.0132444
0.0114594
0.00918778
0.0065508
0.00357094
0.000224813
-0.00352047
-0.00769648
-0.0123342
-0.0174505
-0.0230504
-0.0291396
-0.035693
-0.0426107
-0.0497587
-0.056942
-0.0638246
-0.0699128
-0.0746191
-0.0771064
-0.0777857
-0.0907036
-0.123088
-0.163728
-0.196232
-0.21686
-0.224847
-0.220071
-0.203882
-0.177996
-0.148592
-0.122336
-0.100481
-0.0820726
-0.0664321
-0.0529984
-0.0413705
-0.0312737
-0.0224871
-0.0148314
-0.00815764
-0.00234105
0.00272516
0.00713476
0.0109703
0.014303
0.0171874
0.0196383
0.021598
0.0229302
0.0235321
0.0234548
0.0108866
0.0111157
0.010806
0.00981402
0.00819501
0.0061146
0.00369857
0.000987125
-0.002029
-0.00536955
-0.00905134
-0.0130852
-0.017474
-0.0221975
-0.0272223
-0.0325174
-0.0379586
-0.0433911
-0.0486002
-0.0532621
-0.0569736
-0.0591801
-0.0591043
-0.0579097
-0.0716173
-0.10339
-0.139928
-0.168975
-0.188345
-0.195651
-0.188873
-0.171106
-0.148532
-0.125375
-0.104599
-0.0869229
-0.071879
-0.0589074
-0.047636
-0.0377734
-0.0291107
-0.0214928
-0.0147896
-0.00889138
-0.00370562
0.00084796
0.00483992
0.008333
0.0113822
0.014027
0.0162691
0.018044
0.019222
0.0197193
0.0196052
0.00780878
0.00807427
0.00785859
0.00701717
0.00559432
0.0037418
0.00158526
-0.00082326
-0.00348175
-0.00640031
-0.00958589
-0.0130378
-0.0167472
-0.0206875
-0.0248135
-0.0290757
-0.0333819
-0.0375684
-0.0414442
-0.0447677
-0.047241
-0.0484298
-0.04744
-0.045647
-0.0581814
-0.0849301
-0.114152
-0.137768
-0.152512
-0.156173
-0.147386
-0.130661
-0.113402
-0.0972833
-0.0826685
-0.0698605
-0.058622
-0.0486936
-0.0398981
-0.0320545
-0.0250454
-0.0187859
-0.0131994
-0.00822065
-0.00379269
0.000134304
0.00360625
0.00666521
0.00934838
0.0116795
0.0136485
0.0151877
0.0161851
0.0165775
0.0164219
0.00527275
0.00557066
0.0054458
0.00476609
0.00356072
0.00196147
8.83695e-05
-0.00200074
-0.00429423
-0.00679488
-0.00950385
-0.0124153
-0.0155152
-0.0187801
-0.0221692
-0.0256198
-0.0290489
-0.0323444
-0.0353677
-0.0379521
-0.03991
-0.0408811
-0.0398394
-0.0378844
-0.0466742
-0.0659086
-0.0868557
-0.103805
-0.112942
-0.112616
-0.103317
-0.0893077
-0.0775745
-0.068032
-0.0592401
-0.051174
-0.0437482
-0.0369278
-0.0306534
-0.0249108
-0.0196403
-0.0148153
-0.0104208
-0.00643607
-0.0028391
0.000391155
0.00327679
0.0058399
0.00809999
0.0100656
0.011717
0.012989
0.0137881
0.0140668
0.0138741
0.00322627
0.00354979
0.00351308
0.00299095
0.00201114
0.000676722
-0.000903071
-0.00266894
-0.00460235
-0.00670113
-0.00896363
-0.0113827
-0.013942
-0.0166181
-0.0193747
-0.0221629
-0.0249209
-0.0275948
-0.0300829
-0.0322924
-0.0341287
-0.0352896
-0.0347382
-0.0326011
-0.0367782
-0.0483766
-0.0614918
-0.0713274
-0.0753075
-0.0723884
-0.0630076
-0.0516184
-0.0445321
-0.0404195
-0.0365755
-0.0326629
-0.0286673
-0.024695
-0.0208182
-0.0170567
-0.013464
-0.0100494
-0.00683972
-0.00385635
-0.00110816
0.00140115
0.00367239
0.00570901
0.00751474
0.00908537
0.0103947
0.0113838
0.0119762
0.0121396
0.0119151
0.00161668
0.0019558
0.00199875
0.00164038
0.000879971
-0.000192108
-0.00147928
-0.00292512
-0.00450878
-0.00622331
-0.00806576
-0.0100272
-0.0120942
-0.014248
-0.0164644
-0.0187115
-0.0209515
-0.0231433
-0.0252584
-0.0272609
-0.0291251
-0.0306272
-0.0308032
-0.0289345
-0.0294704
-0.0344791
-0.0405618
-0.0445296
-0.0441574
-0.0386192
-0.0291699
-0.0199135
-0.0163033
-0.0162047
-0.0161788
-0.0156172
-0.0144783
-0.0129244
-0.0111115
-0.00913197
-0.00704502
-0.00492977
-0.0028304
-0.000796615
0.00113568
0.00294227
0.00460644
0.00611652
0.00746301
0.00863229
0.00959487
0.0103019
0.0106909
0.0107456
0.0104915
0.000397482
0.000743919
0.000851248
0.000636419
9.18566e-05
-0.000716507
-0.0017129
-0.00284413
-0.00408807
-0.00543625
-0.00688344
-0.00842239
-0.0100424
-0.0117294
-0.0134665
-0.0152351
-0.0170207
-0.0188139
-0.0206113
-0.02244
-0.0243166
-0.0261065
-0.0269994
-0.0257461
-0.0243899
-0.0248128
-0.025632
-0.0245758
-0.0204912
-0.0130629
-0.00331913
0.00483266
0.0063893
0.00379902
0.00111472
-0.000813025
-0.00188561
-0.00226527
-0.00212971
-0.00162273
-0.000829705
0.000162409
0.00127866
0.00245888
0.00364658
0.00480264
0.00589727
0.00690727
0.00781325
0.00859483
0.00922299
0.0096565
0.00985663
0.00981123
0.00953356
-0.000482416
-0.000130674
3.4066e-05
-5.36688e-05
-0.000400769
-0.000953635
-0.00166405
-0.00248966
-0.00340682
-0.0044055
-0.00547981
-0.00662262
-0.00782564
-0.00907932
-0.0103746
-0.0117047
-0.0130685
-0.0144763
-0.0159532
-0.0175462
-0.0193158
-0.0212
-0.0226121
-0.0222592
-0.0204192
-0.0182093
-0.0154749
-0.0111573
-0.00438805
0.00495599
0.0153919
0.0230839
0.0235457
0.0194002
0.0149934
0.0113747
0.00872338
0.00690987
0.0057592
0.00511978
0.00487326
0.00493828
0.00522885
0.00567735
0.00621693
0.00679796
0.00738199
0.00793834
0.00844084
0.00886582
0.00918639
0.0093727
0.00940014
0.00926716
0.00897188
-0.00106777
-0.00072391
-0.000513123
-0.000478047
-0.000627592
-0.000940278
-0.00137873
-0.00191012
-0.00251444
-0.00318034
-0.00390154
-0.00467111
-0.00548224
-0.0063284
-0.00720553
-0.00811373
-0.0090617
-0.0100693
-0.0111731
-0.0124322
-0.0139221
-0.0156287
-0.0171945
-0.0175895
-0.0162949
-0.0132507
-0.00876183
-0.00232808
0.00623722
0.0166665
0.0275808
0.0353471
0.0356063
0.0307889
0.0254749
0.0208689
0.017213
0.0144296
0.0123705
0.0108896
0.00986755
0.00920796
0.00884
0.0086865
0.00868708
0.00878143
0.00892688
0.00908845
0.00923687
0.00934693
0.00939675
0.00936588
0.00924597
0.00904104
0.00873445
-0.00139779
-0.0010566
-0.000807822
-0.000669758
-0.000644688
-0.000727545
-0.00090297
-0.00115162
-0.00145701
-0.00180749
-0.00219496
-0.00261222
-0.00305282
-0.00351196
-0.00398781
-0.00448382
-0.00501131
-0.00559269
-0.00626411
-0.00708123
-0.00811198
-0.0094083
-0.0107342
-0.0115162
-0.011022
-0.00831675
-0.00338316
0.00362629
0.012853
0.023901
0.0350911
0.0428817
0.0432314
0.0383912
0.0328069
0.0277803
0.0236104
0.0202678
0.0176393
0.0155995
0.0140362
0.0128592
0.0119929
0.0113742
0.0109436
0.0106446
0.0104291
0.0102614
0.0101115
0.00995597
0.00977726
0.00956801
0.00932658
0.00906106
0.00874861
-0.00149464
-0.00116416
-0.000890564
-0.000659605
-0.000473897
-0.000343902
-0.00027331
-0.000254381
-0.000277365
-0.000330741
-0.000405006
-0.000491944
-0.00058454
-0.000677643
-0.00076942
-0.000862734
-0.000967218
-0.0011013
-0.00129377
-0.00158746
-0.00203703
-0.00269047
-0.00355412
-0.00424537
-0.00431698
-0.00261326
0.00164566
0.00847343
0.0175206
0.0282039
0.0390261
0.0466236
0.0472359
0.0427233
0.0373289
0.0323342
0.0280523
0.0244971
0.0215931
0.0192423
0.0173492
0.0158318
0.014624
0.0136705
0.0129158
0.0123124
0.0118139
0.0113838
0.0109932
0.0106218
0.0102588
0.00990538
0.00957192
0.00926389
0.00895073
-0.00139123
-0.00107596
-0.000779192
-0.000470347
-0.000147249
0.000178282
0.000478079
0.000744706
0.000984242
0.00120643
0.00142217
0.00164123
0.00187216
0.00212157
0.0023935
0.00268787
0.00300006
0.00331941
0.00362845
0.00390085
0.00410007
0.00417942
0.00411784
0.00380695
0.00344793
0.00430193
0.00731808
0.0129349
0.0210551
0.0309313
0.0408547
0.0477683
0.048414
0.044401
0.0394891
0.0348471
0.0307588
0.0272661
0.0243278
0.0218729
0.0198293
0.0181284
0.0167148
0.0155438
0.0145642
0.0137405
0.0130319
0.0124028
0.0118277
0.0112899
0.010785
0.010322
0.00991808
0.00958236
0.00926961
-0.00110949
-0.00080998
-0.000501518
-0.000125842
0.000319782
0.000813243
0.00131761
0.00181019
0.00228904
0.00276272
0.00324279
0.00374112
0.00426812
0.00483286
0.00544254
0.00610174
0.0068121
0.00757208
0.00837605
0.00921472
0.0100717
0.0108935
0.0115316
0.0118001
0.0115823
0.0118253
0.0136925
0.0178169
0.0243299
0.0326298
0.0411874
0.0470836
0.0475546
0.0440412
0.0397687
0.0356882
0.0320099
0.0287818
0.0259906
0.0235953
0.0215448
0.0197878
0.0182804
0.0169886
0.0158768
0.0149077
0.0140544
0.0132852
0.0125772
0.0119168
0.0113078
0.010764
0.0103112
0.0099562
0.00964895
-0.000677301
-0.000394091
-7.24206e-05
0.00034772
0.000895026
0.00153481
0.00221744
0.00290985
0.00360204
0.0043003
0.0050167
0.0057644
0.00655661
0.00740512
0.00832061
0.00931256
0.0103894
0.0115582
0.0128246
0.0141914
0.0156429
0.017114
0.0184617
0.0193099
0.0193521
0.0193425
0.0203062
0.0229934
0.0277235
0.0340845
0.0407085
0.0451908
0.0452873
0.0422323
0.0386582
0.03525
0.03211
0.0292797
0.0267629
0.0245434
0.0225927
0.0208767
0.0193659
0.0180334
0.0168602
0.0158124
0.0148697
0.0140101
0.013215
0.01248
0.0118105
0.0112279
0.010752
0.0103848
0.0100798
-0.000117429
0.000146153
0.000469234
0.000930226
0.00155806
0.00231711
0.00315094
0.00401424
0.00489107
0.00578412
0.00670576
0.00767071
0.00869387
0.00979001
0.0109733
0.0122576
0.0136576
0.0151873
0.0168594
0.0186796
0.0206422
0.022691
0.0246164
0.0259296
0.0261976
0.0259989
0.0263007
0.0278328
0.0309746
0.035308
0.0399009
0.0427406
0.042228
0.0395354
0.036637
0.0339235
0.0313751
0.0290071
0.026836
0.0248648
0.0230846
0.0214791
0.02003
0.0187197
0.0175373
0.0164633
0.0154785
0.0145687
0.0137191
0.0129267
0.0122078
0.0115867
0.011098
0.0107354
0.0104532
0.000549414
0.000795801
0.00111623
0.00160366
0.00228683
0.00313949
0.00409299
0.00509611
0.00612581
0.00718174
0.00827506
0.00942198
0.0106389
0.0119428
0.0133509
0.0148809
0.0165513
0.0183798
0.020382
0.0225715
0.0249421
0.0274143
0.0297217
0.031332
0.0317286
0.0313814
0.0311649
0.0317324
0.0333838
0.0360044
0.0387607
0.0398136
0.0387585
0.036382
0.034126
0.0320733
0.0301033
0.0282064
0.0264042
0.0247138
0.0231426
0.0216879
0.0203423
0.0190971
0.0179474
0.0168908
0.0159009
0.0149669
0.014094
0.0132804
0.0125431
0.0119184
0.011425
0.0110695
0.0107953
0.00129451
0.00152348
0.00183927
0.00233915
0.00306163
0.00397762
0.00501968
0.00613038
0.00727981
0.00846448
0.00969445
0.0109863
0.0123575
0.0138268
0.0154133
0.0171367
0.0190165
0.0210735
0.0233261
0.0257871
0.0284367
0.0311831
0.0337511
0.0355097
0.0358886
0.0352905
0.0345133
0.0342026
0.0346953
0.035803
0.0367835
0.0366653
0.0352515
0.0331255
0.0314934
0.03002
0.0285638
0.0271
0.0256504
0.0242402
0.0228872
0.0215999
0.0203795
0.0192242
0.0181335
0.0171083
0.0161445
0.0152169
0.0143411
0.0135219
0.012783
0.0121562
0.0116757
0.0113316
0.0110692
0.00209176
0.00230249
0.00260964
0.00311329
0.00385466
0.00480974
0.00591053
0.00709528
0.00833054
0.00960921
0.0109399
0.0123386
0.0138237
0.0154142
0.0171298
0.0189905
0.0210176
0.0232317
0.0256499
0.0282795
0.0310992
0.0339947
0.0366376
0.0383657
0.038582
0.0376341
0.0363485
0.0352815
0.0347197
0.0346389
0.0345658
0.0337016
0.0317284
0.0301284
0.0291153
0.0280062
0.0269689
0.0258726
0.0247331
0.023578
0.0224315
0.0213089
0.0202179
0.0191624
0.0181448
0.017169
0.0162385
0.0153385
0.0144702
0.0136591
0.0129278
0.0123157
0.0118513
0.011521
0.0112767
0.00291206
0.00310567
0.00340159
0.00390158
0.00464644
0.0056157
0.00674606
0.00797283
0.00926026
0.0105982
0.0119936
0.0134614
0.0150195
0.0166864
0.0184816
0.0204252
0.0225374
0.0248362
0.0273372
0.0300444
0.0329228
0.0358365
0.038435
0.0400188
0.0399845
0.0386626
0.0368039
0.0350282
0.0336688
0.0327279
0.031842
0.0305975
0.0290199
0.0275866
0.0266142
0.0261304
0.0254557
0.0246639
0.0237797
0.0228403
0.0218734
0.0208993
0.0199295
0.018971
0.018029
0.0171092
0.0162166
0.0153538
0.0145087
0.0137057
0.0129881
0.0123953
0.0119488
0.011639
0.0114111
0.00373436
0.00391345
0.00419772
0.00468457
0.00541783
0.00637996
0.00750997
0.00874842
0.0100559
0.0114198
0.0128452
0.0143452
0.0159364
0.0176368
0.0194644
0.0214374
0.0235735
0.0258892
0.0283957
0.0310906
0.0339307
0.0367658
0.0392224
0.0405825
0.0402354
0.0385028
0.0361709
0.0338532
0.0318984
0.030369
0.0290878
0.0277741
0.0264965
0.0256098
0.0250589
0.0245367
0.0240291
0.0235247
0.0228758
0.0221122
0.0212913
0.0204409
0.0195754
0.0187038
0.0178316
0.0169655
0.0161122
0.0152764
0.0144665
0.0136773
0.0129758
0.0124004
0.0119803
0.0116876
0.0114762
0.00454108
0.00470859
0.00497917
0.00544593
0.00615226
0.00708349
0.00819054
0.0094123
0.0107099
0.012069
0.0134916
0.0149895
0.0165774
0.018271
0.0200862
0.022039
0.0241442
0.0264147
0.0288577
0.031466
0.0341877
0.0368673
0.0391219
0.0402301
0.0395939
0.0375333
0.0348396
0.0321425
0.0298141
0.0279954
0.0265824
0.0254335
0.0245781
0.0240645
0.0237675
0.0234737
0.0230723
0.0225626
0.0219944
0.0214206
0.0207365
0.0199872
0.0192051
0.0184037
0.0175903
0.0167714
0.0159537
0.0151438
0.014354
0.0135968
0.0129051
0.0123515
0.0119493
0.0116801
0.0114839
0.00530699
0.00546267
0.00571894
0.00615909
0.00682651
0.00771401
0.00877523
0.00995641
0.0112183
0.0125452
0.013937
0.0154025
0.0169539
0.0186046
0.020368
0.0222569
0.0242827
0.0264547
0.0287761
0.0312341
0.0337751
0.0362465
0.0382825
0.0391602
0.0382991
0.0360205
0.0331003
0.0302186
0.0277912
0.0259337
0.0246137
0.0237689
0.0233063
0.0230871
0.0229371
0.0227141
0.0223753
0.0219292
0.0213932
0.0207929
0.0201914
0.0195614
0.0188474
0.018102
0.0173345
0.0165525
0.0157633
0.0149744
0.0141976
0.0134696
0.0127966
0.0122581
0.0118787
0.0116261
0.0114485
0.00599579
0.00614186
0.00638331
0.00679363
0.00741754
0.00825099
0.00925237
0.0103752
0.0115816
0.0128541
0.0141906
0.0155974
0.0170842
0.0186615
0.0203394
0.0221275
0.0240337
0.0260636
0.0282169
0.0304774
0.0327924
0.0350268
0.0368403
0.0375384
0.0365587
0.0342176
0.0312986
0.0284449
0.0260555
0.0243245
0.0232716
0.0227855
0.0226309
0.0225837
0.0224952
0.0222861
0.0219503
0.0215074
0.0209813
0.020398
0.0197744
0.0191226
0.0184796
0.0178181
0.0170856
0.0163232
0.0155568
0.0147848
0.0140216
0.0132999
0.0126624
0.0121386
0.0117759
0.0115456
0.011382
0.00658484
0.00672168
0.00694905
0.00733285
0.00791019
0.00868108
0.00961674
0.0106674
0.0118023
0.013003
0.0142652
0.0155929
0.0169924
0.0184715
0.0200371
0.0216955
0.023451
0.0253059
0.0272566
0.0292848
0.0313465
0.0333328
0.0349506
0.0355542
0.0345973
0.0323577
0.0295711
0.0268983
0.0247496
0.0233207
0.0226101
0.0224236
0.022461
0.0224766
0.0223679
0.022116
0.0217412
0.0212713
0.0207287
0.0201339
0.0195036
0.0188497
0.0181718
0.0174761
0.0167646
0.0160612
0.015339
0.0145852
0.0138315
0.0131188
0.0124841
0.0119947
0.0116614
0.011445
0.0112959
0.00706217
0.0071935
0.00740701
0.00776096
0.00829203
0.0090006
0.00986007
0.0108327
0.0118859
0.0130027
0.014177
0.0154101
0.0167059
0.0180689
0.0195031
0.0210115
0.0225952
0.0242532
0.0259789
0.0277548
0.029549
0.031287
0.0327346
0.0333051
0.0324759
0.0304775
0.0280015
0.0256742
0.0239159
0.0228885
0.0225146
0.02255
0.0226663
0.0226541
0.0224684
0.0221338
0.0216904
0.021168
0.0205885
0.0199654
0.0193131
0.0186421
0.0179593
0.0172648
0.0165543
0.0158243
0.015086
0.0143401
0.0135162
0.0129431
0.0123247
0.0118553
0.0115394
0.0113389
0.0112034
0.00741993
0.00754269
0.00774143
0.00806725
0.00855024
0.00919737
0.00998201
0.0108722
0.0118391
0.0128652
0.0139432
0.0150725
0.0162542
0.0174903
0.0187819
0.0201289
0.0215295
0.0229797
0.0244712
0.0259892
0.027517
0.0290172
0.0303148
0.0309
0.0302906
0.0286634
0.0266535
0.0248338
0.0235485
0.0229091
0.0228143
0.0229856
0.0231032
0.0230064
0.0227077
0.0222657
0.0217343
0.0211465
0.0205146
0.0198518
0.0191691
0.0184747
0.0177726
0.0170645
0.0163485
0.0156239
0.0148898
0.0141552
0.0134662
0.0127903
0.0119384
0.0117137
0.0114577
0.0112359
0.0111074
0.00764201
0.00775861
0.00794631
0.00824288
0.00868278
0.00926836
0.00998115
0.0107908
0.0116708
0.0126043
0.0135832
0.0146048
0.0156685
0.0167736
0.0179189
0.0191017
0.0203174
0.02156
0.0228203
0.0240877
0.0253612
0.0266425
0.0278206
0.0284722
0.0281591
0.0270086
0.02554
0.0242598
0.0234634
0.0232057
0.0233368
0.0235725
0.0236373
0.0234274
0.0229969
0.0224363
0.0218117
0.0211467
0.0204579
0.0197527
0.0190372
0.0183169
0.0175957
0.016874
0.0161492
0.0154183
0.0146824
0.0139471
0.0132278
0.0125826
0.0121072
0.0117373
0.0113818
0.0110558
0.0110111
0.00773795
0.00784805
0.00802253
0.00829452
0.00869179
0.00922053
0.00986564
0.0105989
0.0113947
0.0122375
0.0131184
0.0140335
0.0149803
0.0159563
0.0169582
0.0179812
0.0190188
0.0200634
0.0211058
0.0221408
0.0231821
0.024266
0.0253477
0.0260905
0.0261032
0.0254503
0.0245553
0.0238194
0.0234733
0.023538
0.0238429
0.0241207
0.0241274
0.0238051
0.0232518
0.022583
0.0218592
0.0211185
0.0203733
0.0196274
0.0188825
0.0181405
0.0174029
0.0166699
0.0159387
0.0152066
0.0144735
0.0137459
0.0130425
0.0123904
0.0118273
0.0114122
0.0111642
0.0110363
0.0109346