/*--------------------------------*- C++ -*----------------------------------*\
  =========                 |
  \\      /  F ield         | OpenFOAM: The Open Source CFD Toolbox
   \\    /   O peration     | Website:  https://openfoam.org
    \\  /    A nd           | Version:  7
     \\/     M anipulation  |
\*---------------------------------------------------------------------------*/
FoamFile
{
    version     2.0;
    format      ascii;
    class       surfaceScalarField;
    location    "90";
    object      phi;
}
// * * * * * * * * * * * * * * * * * * * * * * * * * * * * * * * * * * * * * //

dimensions      [0 3 -1 0 0 0 0];

internalField   nonuniform List<scalar> 
34768
(
8.19249e-05
0.000970032
-0.000149647
-4.45962e-05
2.59373e-05
0.000920968
-1.58524e-05
1.08837e-05
0.000907476
-8.29105e-06
6.74021e-06
0.000904256
-5.36921e-06
4.63387e-06
0.00090354
-4.31522e-06
3.93237e-06
0.000903186
-3.65228e-06
3.53734e-06
0.000903117
-3.48101e-06
3.45881e-06
0.000903123
-3.17468e-06
3.10878e-06
0.000903265
-3.27082e-06
3.04192e-06
0.000903326
-3.13525e-06
3.03198e-06
0.000903299
-3.04799e-06
3.26353e-06
0.000903279
-3.09662e-06
3.02649e-06
0.000903563
-3.27328e-06
3.21476e-06
0.00090355
-3.27276e-06
3.42388e-06
0.000903538
-3.39173e-06
3.35131e-06
0.000903828
-3.62772e-06
3.59486e-06
0.000903719
-3.5793e-06
3.75346e-06
0.00090381
-3.74516e-06
3.72581e-06
0.000903901
-3.92453e-06
3.81138e-06
0.000904093
-4.21642e-06
4.809e-06
0.000904085
-5.62012e-06
6.41809e-06
0.000905177
-5.28456e-06
4.4273e-06
0.00090485
-3.67878e-06
4.13586e-06
0.000904584
-5.41119e-06
-3.07811e-07
0.000909257
-7.71014e-07
1.33431e-06
0.000908603
-1.24489e-06
8.89793e-07
0.00090941
-6.03641e-07
4.18839e-08
0.000909616
5.08937e-07
-8.05688e-07
0.000909348
1.1548e-06
-1.28083e-06
0.000909177
1.30218e-06
-1.36053e-06
0.000909118
1.3549e-06
-1.34641e-06
0.000909041
1.32493e-06
-1.32047e-06
0.000909044
1.25376e-06
-1.25393e-06
0.000909059
1.24287e-06
-1.24833e-06
0.000909064
1.24334e-06
-1.25449e-06
0.000909071
1.25625e-06
-1.27358e-06
0.000909077
1.2824e-06
-1.40629e-06
0.000909185
1.7227e-06
-1.15376e-06
0.000909893
6.78585e-07
-5.17256e-07
0.000910302
4.50722e-07
-3.97374e-07
0.000910312
4.40096e-07
-4.95727e-07
0.000910222
5.49122e-07
-6.15431e-07
0.000910234
6.81425e-07
-6.6089e-07
0.000910049
7.42637e-07
-8.3914e-07
0.000910068
9.41277e-07
-1.06065e-06
0.000909993
1.19058e-06
-1.34215e-06
0.000909926
1.51151e-06
-1.71027e-06
0.000909975
1.93835e-06
-2.30937e-06
0.000910049
2.529e-06
-2.91563e-06
0.000910066
3.38381e-06
-4.06043e-06
0.000910258
4.67045e-06
-5.54163e-06
0.000910453
6.56471e-06
-7.6768e-06
0.000910596
8.70676e-06
-6.60224e-06
0.000907382
-4.1244e-06
-2.68622e-05
0.000940477
-0.000827807
0.000143743
0.000704047
-1.9908e-05
-0.000972636
-0.000148602
0.000116783
0.00100455
-0.000925117
-9.00512e-05
7.06492e-05
0.00094461
-0.000911651
-5.64824e-05
4.60253e-05
0.000922197
-0.00090725
-3.80066e-05
3.19711e-05
0.000913373
-0.000905532
-2.72173e-05
2.34711e-05
0.000909364
-0.000904587
-1.99016e-05
1.7717e-05
0.000906854
-0.000904057
-1.54125e-05
1.35716e-05
0.000905977
-0.000903931
-1.18587e-05
1.05897e-05
0.000905276
-0.000903816
-9.4654e-06
8.41361e-06
0.00090494
-0.000903865
-7.3577e-06
6.73044e-06
0.000904561
-0.000903753
-5.87122e-06
5.21093e-06
0.000904478
-0.000903666
-4.70206e-06
4.07119e-06
0.000904356
-0.000903895
-3.48319e-06
3.15828e-06
0.000904275
-0.000903834
-2.77139e-06
2.3352e-06
0.000904318
-0.000903779
-2.23724e-06
1.87966e-06
0.000904178
-0.000903929
-1.56111e-06
1.37363e-06
0.000904149
-0.000903881
-1.32985e-06
1.10782e-06
0.000904126
-0.000903935
-1.0339e-06
8.72117e-07
0.000904107
-0.00090399
-9.65739e-07
9.61373e-07
0.000903992
-0.000904247
-7.18711e-07
7.67108e-07
0.00090418
-0.000904005
-1.08571e-06
3.83976e-07
0.000904674
-0.000907046
-5.41167e-07
3.39432e-06
0.000904142
-0.000903371
-2.27729e-06
-3.28906e-06
0.00090887
-0.000907875
2.06197e-06
-2.01733e-06
0.000907745
-0.000908328
2.02314e-06
-2.03454e-06
0.000908237
-0.000909598
1.95091e-06
-1.66854e-06
0.000909195
-0.000910078
1.45036e-06
-1.82233e-06
0.000910314
-0.000909495
2.08594e-06
-1.9884e-06
0.000909245
-0.00090929
1.6752e-06
-2.09073e-06
0.00090954
-0.000909064
2.12711e-06
-2.12426e-06
0.000908882
-0.000908924
1.89965e-06
-1.80549e-06
0.000908639
-0.000908929
1.58878e-06
-1.53105e-06
0.00090867
-0.000908969
1.29932e-06
-1.28338e-06
0.000908744
-0.000908993
1.24375e-06
-1.17557e-06
0.000908709
-0.000909022
1.08358e-06
-1.16691e-06
0.000908885
-0.000909054
1.12805e-06
-1.26741e-06
0.000908969
-0.00090949
1.38603e-06
-1.68445e-06
0.000909563
-0.000909731
2.26582e-06
-2.62946e-06
0.000909868
-0.000910076
2.48053e-06
-2.61426e-06
0.000909984
-0.000910325
2.54148e-06
-2.75278e-06
0.000910313
-0.000910382
2.96517e-06
-3.36401e-06
0.000910562
-0.000910351
3.67496e-06
-4.17717e-06
0.000910637
-0.000910335
4.60607e-06
-5.33476e-06
0.000910853
-0.000910343
5.91056e-06
-6.80095e-06
0.000911029
-0.000910387
7.56703e-06
-8.77239e-06
0.000911394
-0.000910587
9.79543e-06
-1.11988e-05
0.000911799
-0.000910776
1.25835e-05
-1.45179e-05
0.000912527
-0.000911216
1.6435e-05
-1.89205e-05
0.000913526
-0.000911817
2.16579e-05
-2.52778e-05
0.000915268
-0.000912987
2.94501e-05
-3.4706e-05
0.000918081
-0.000915017
4.11941e-05
-4.9486e-05
0.000923154
-0.000918784
6.04097e-05
-7.47163e-05
0.000932946
-0.000924541
9.42673e-05
-0.000124572
0.000954727
-0.000978368
0.000165586
-0.000143511
0.000956211
-0.000600041
8.48753e-05
0.000519461
-4.20921e-06
-0.00102216
-0.000134247
0.000131644
0.00102485
-0.00096299
-0.0001118
9.35587e-05
0.000981321
-0.000933432
-7.94562e-05
6.81547e-05
0.000944823
-0.000920663
-5.88823e-05
5.11648e-05
0.000928469
-0.0009144
-4.45114e-05
3.90915e-05
0.000919909
-0.000910826
-3.43344e-05
3.02841e-05
0.000914964
-0.00090831
-2.67432e-05
2.30947e-05
0.000912045
-0.00090729
-2.04956e-05
1.82558e-05
0.000909614
-0.000906423
-1.60516e-05
1.41158e-05
0.000908441
-0.000905932
-1.23482e-05
1.07874e-05
0.000907572
-0.000905413
-9.55209e-06
8.18059e-06
0.000906862
-0.000905306
-6.90473e-06
6.06508e-06
0.000906219
-0.000904971
-4.90321e-06
4.05562e-06
0.000905887
-0.000904783
-3.37637e-06
2.69404e-06
0.000905528
-0.000904726
-1.97565e-06
1.54148e-06
0.000905217
-0.000904389
-1.06971e-06
6.70057e-07
0.000904836
-0.000904366
-2.35579e-07
-3.74935e-08
0.000904676
-0.000904251
2.42e-07
-2.96319e-07
0.000904331
-0.000904244
6.7607e-07
-7.169e-07
0.000904298
-0.000903946
4.77517e-07
-1.11202e-06
0.000904578
-0.000904955
1.4571e-06
-3.91263e-07
0.000903872
-0.000906194
2.46002e-06
-4.11952e-06
0.000907818
-0.000908016
3.60607e-06
-3.27909e-06
0.000907637
-0.000907836
2.68001e-06
-2.68236e-06
0.000907768
-0.000908051
2.56901e-06
-2.60075e-06
0.000907996
-0.000908567
2.20587e-06
-1.79695e-06
0.000908053
-0.000910553
1.20564e-06
-1.37363e-06
0.000910601
-0.00090906
1.44176e-06
-1.23793e-06
0.000908719
-0.0009097
7.9082e-07
-6.03501e-07
0.000909362
-0.000908687
5.24351e-07
-4.12567e-07
0.000908411
-0.000908392
2.13642e-08
2.28601e-07
0.000907967
-0.000908462
-5.75394e-07
7.48833e-07
0.000908103
-0.000908505
-1.06744e-06
1.05298e-06
0.000908326
-0.000908737
-1.33079e-06
1.3174e-06
0.00090855
-0.000908887
-1.39469e-06
1.27494e-06
0.000908801
-0.000909053
-1.2428e-06
9.08978e-07
0.000909177
-0.000910233
-2.60832e-07
-1.09112e-06
0.000911373
-0.000910033
9.6465e-07
-1.04625e-06
0.000909901
-0.000910151
1.35212e-06
-1.86875e-06
0.000910456
-0.000910594
2.21813e-06
-2.88282e-06
0.000911048
-0.000910971
3.39126e-06
-4.22131e-06
0.000911594
-0.000911298
5.01064e-06
-6.03172e-06
0.000912115
-0.000911696
7.03306e-06
-8.28259e-06
0.000912748
-0.000912203
9.64266e-06
-1.11769e-05
0.000913545
-0.000912772
1.27634e-05
-1.4766e-05
0.000914588
-0.000913691
1.6782e-05
-1.92786e-05
0.000916008
-0.000914909
2.19798e-05
-2.50614e-05
0.000917818
-0.00091688
2.85876e-05
-3.26552e-05
0.000920783
-0.000919869
3.73828e-05
-4.30142e-05
0.000925343
-0.000924959
4.9548e-05
-5.74095e-05
0.000932671
-0.000933692
6.66157e-05
-7.79286e-05
0.000944863
-0.000949754
9.1603e-05
-0.000108691
0.000966711
-0.00098533
0.000130656
-0.000155143
0.00100971
-0.000906366
0.000157802
-9.17586e-05
0.000840238
-0.000458949
4.89851e-05
0.000412901
-2.84211e-06
-0.0010142
-0.000100692
0.000120375
0.000994612
-0.000997912
-0.000114492
0.000101014
0.00101148
-0.000955965
-8.81997e-05
7.76319e-05
0.000966623
-0.000936496
-6.85356e-05
6.08007e-05
0.000944323
-0.000925818
-5.39885e-05
4.80335e-05
0.000931866
-0.000919477
-4.27219e-05
3.80463e-05
0.000924245
-0.000915457
-3.38359e-05
3.01109e-05
0.000919275
-0.000912801
-2.68284e-05
2.38222e-05
0.000915899
-0.000910579
-2.09687e-05
1.80124e-05
0.000913628
-0.000909396
-1.5955e-05
1.38395e-05
0.000911603
-0.000908458
-1.17718e-05
1.02111e-05
0.000910108
-0.000907547
-8.56768e-06
7.09887e-06
0.000909102
-0.000906888
-5.73051e-06
4.51478e-06
0.000908187
-0.000906531
-3.28712e-06
2.39552e-06
0.000907499
-0.000905838
-1.58793e-06
8.01622e-07
0.000906695
-0.000905489
3.12198e-09
-6.98286e-07
0.000906246
-0.000905069
1.10788e-06
-1.51892e-06
0.000905532
-0.00090477
1.94167e-06
-2.27677e-06
0.000905145
-0.000904289
2.2165e-06
-2.98025e-06
0.00090508
-0.000904925
3.34098e-06
-2.44084e-06
0.000904036
-0.000906095
4.64653e-06
-6.36816e-06
0.000907812
-0.00090737
5.90561e-06
-5.8204e-06
0.000907263
-0.000907185
5.2792e-06
-4.86938e-06
0.000906737
-0.000907265
4.45713e-06
-3.73395e-06
0.000906486
-0.000908361
3.04781e-06
-3.06657e-06
0.000908307
-0.000907281
2.35975e-06
-1.71207e-06
0.000906543
-0.000910424
1.09908e-06
-8.05309e-07
0.000910025
-0.000908265
6.02424e-07
-1.0694e-07
0.000907647
-0.000908411
-7.06019e-07
1.43811e-06
0.000907543
-0.000908498
-1.47437e-06
1.70526e-06
0.000908117
-0.000907558
-2.26774e-06
2.70806e-06
0.000906957
-0.000907775
-3.22456e-06
3.5533e-06
0.000907275
-0.000908115
-3.86346e-06
4.14313e-06
0.000907656
-0.000908459
-4.3788e-06
4.40432e-06
0.000908247
-0.000908841
-4.48249e-06
4.44372e-06
0.000908689
-0.000909356
-4.25365e-06
3.74225e-06
0.000909672
-0.000912398
-2.87771e-06
2.38631e-06
0.000912692
-0.000910285
-1.93358e-06
1.25261e-06
0.000910767
-0.000911004
-7.07684e-07
-6.82222e-08
0.000911583
-0.000911675
8.16574e-07
-1.90056e-06
0.000912563
-0.000912519
2.86754e-06
-3.97652e-06
0.000913436
-0.000913268
5.18629e-06
-6.64998e-06
0.000914543
-0.000914268
8.23672e-06
-9.8941e-06
0.000915742
-0.000915393
1.18065e-05
-1.39174e-05
0.000917326
-0.00091675
1.61247e-05
-1.87731e-05
0.000919227
-0.000918613
2.14769e-05
-2.46822e-05
0.000921654
-0.000921357
2.80259e-05
-3.19591e-05
0.000925132
-0.000925336
3.61458e-05
-4.10489e-05
0.000930088
-0.000931329
4.64679e-05
-5.2579e-05
0.000937297
-0.000940614
5.95338e-05
-6.75371e-05
0.000948482
-0.000955912
7.65918e-05
-8.68679e-05
0.00096606
-0.000982411
9.82128e-05
-0.000112341
0.000996422
-0.00102451
0.000127055
-0.000131166
0.00102852
-0.000771032
0.00010253
-3.94756e-05
0.000707891
-0.000377166
2.9731e-05
0.000349234
-1.68933e-06
-0.0009698
-7.1886e-05
9.95439e-05
0.000942248
-0.0010219
-0.000105071
9.83051e-05
0.00102876
-0.000976531
-8.84486e-05
7.90108e-05
0.000986062
-0.000951786
-7.08163e-05
6.37022e-05
0.000958995
-0.000937918
-5.72481e-05
5.15365e-05
0.000943726
-0.000929068
-4.62894e-05
4.15454e-05
0.00093391
-0.00092323
-3.71612e-05
3.32931e-05
0.000927198
-0.000919073
-2.96047e-05
2.62615e-05
0.000922516
-0.000916159
-2.32439e-05
2.05183e-05
0.000918986
-0.000913998
-1.7971e-05
1.55729e-05
0.000916497
-0.00091224
-1.2917e-05
1.07842e-05
0.000914473
-0.000910823
-8.9778e-06
7.26506e-06
0.000912632
-0.000909836
-5.35932e-06
4.03338e-06
0.000911255
-0.000908498
-2.70796e-06
1.34278e-06
0.00090995
-0.000907663
-1.7734e-07
-9.38323e-07
0.000908859
-0.000906993
1.85334e-06
-2.42684e-06
0.000907638
-0.000906265
3.3966e-06
-3.83388e-06
0.000906763
-0.000905166
4.05946e-06
-5.26554e-06
0.000906419
-0.000905591
5.74649e-06
-4.91793e-06
0.000904797
-0.000906364
7.38468e-06
-9.39778e-06
0.000908396
-0.000907336
8.91613e-06
-8.94691e-06
0.000907369
-0.000906852
8.43825e-06
-7.88982e-06
0.000906289
-0.00090631
7.38479e-06
-6.6685e-06
0.000905562
-0.000905824
5.85711e-06
-5.14314e-06
0.000905059
-0.000907668
4.31774e-06
-3.67527e-06
0.000906957
-0.000905788
2.62517e-06
-1.64464e-06
0.000904721
-0.000909593
7.31376e-07
-1.85041e-07
0.000908944
-0.000907
-4.98159e-07
1.17173e-06
0.000906207
-0.000906844
-2.20168e-06
3.00076e-06
0.000905911
-0.000907597
-3.60868e-06
4.22275e-06
0.000906834
-0.000906341
-5.05508e-06
5.73281e-06
0.000905504
-0.000906789
-6.45961e-06
6.96135e-06
0.000906117
-0.000907342
-7.53424e-06
7.83806e-06
0.00090686
-0.000908013
-8.16491e-06
8.25059e-06
0.000907742
-0.000908745
-8.35573e-06
8.21433e-06
0.000908697
-0.000910926
-7.88917e-06
6.71347e-06
0.000911909
-0.000912159
-5.95137e-06
5.83015e-06
0.000912085
-0.000911246
-5.3179e-06
4.55362e-06
0.000911816
-0.000912384
-3.69413e-06
2.6827e-06
0.000913203
-0.000913497
-1.66893e-06
3.00187e-07
0.000914675
-0.00091482
9.78241e-07
-2.5148e-06
0.00091617
-0.000916103
4.07517e-06
-6.00308e-06
0.00091785
-0.000917718
7.87404e-06
-1.00246e-05
0.000919693
-0.00091957
1.23464e-05
-1.48672e-05
0.000921922
-0.000921917
1.74933e-05
-2.0448e-05
0.00092471
-0.000924894
2.35555e-05
-2.72389e-05
0.000928423
-0.000929173
3.09299e-05
-3.50472e-05
0.000933144
-0.000934919
3.94533e-05
-4.44627e-05
0.000939789
-0.000943384
4.98539e-05
-5.58457e-05
0.000949244
-0.00095606
6.1824e-05
-6.81162e-05
0.000962229
-0.00097503
7.58578e-05
-8.45147e-05
0.000983571
-0.00100849
9.42159e-05
-0.000104152
0.00101832
-0.00102368
0.000109233
-9.81054e-05
0.00101246
-0.0006539
6.24141e-05
-1.76778e-05
0.000609077
-0.000326897
1.92545e-05
0.000308847
-1.08236e-06
-0.000914046
-5.14317e-05
7.90654e-05
0.000886528
-0.00103235
-9.13751e-05
9.07208e-05
0.0010331
-0.000994351
-8.4177e-05
7.66514e-05
0.00100197
-0.000965895
-6.96399e-05
6.33822e-05
0.000972251
-0.000949811
-5.76246e-05
5.2671e-05
0.000954866
-0.000938643
-4.73026e-05
4.23225e-05
0.000943727
-0.000931258
-3.74937e-05
3.35195e-05
0.000935338
-0.000925911
-2.97531e-05
2.62804e-05
0.000929491
-0.000922007
-2.30847e-05
2.01505e-05
0.00092505
-0.000919007
-1.73636e-05
1.48131e-05
0.000921666
-0.000916727
-1.24929e-05
1.0287e-05
0.000919041
-0.000914768
-8.39872e-06
6.30453e-06
0.000916967
-0.000912893
-4.21761e-06
2.42143e-06
0.000914791
-0.000911513
-7.31058e-07
-7.80266e-07
0.00091312
-0.000910052
2.18188e-06
-3.30965e-06
0.000911268
-0.000908865
4.62439e-06
-5.57152e-06
0.000909891
-0.000907221
6.09122e-06
-7.65515e-06
0.000908853
-0.000907107
8.57475e-06
-7.93753e-06
0.000906525
-0.000907545
1.09925e-05
-1.31172e-05
0.00090971
-0.000907955
1.27352e-05
-1.30119e-05
0.000908255
-0.000906861
1.25148e-05
-1.22003e-05
0.000906554
-0.000905942
1.17172e-05
-1.09114e-05
0.000905125
-0.000904764
1.00228e-05
-9.15206e-06
0.000903863
-0.000904115
8.05387e-06
-7.07337e-06
0.000903084
-0.000906071
6.24037e-06
-4.88408e-06
0.000904646
-0.000903512
3.40994e-06
-2.00289e-06
0.000902015
-0.000908191
6.0896e-07
4.51534e-07
0.000907024
-0.000905128
-1.52204e-06
2.82162e-06
0.000903703
-0.000904884
-4.17549e-06
5.57895e-06
0.000903341
-0.000906042
-7.04659e-06
7.54012e-06
0.000905393
-0.000904619
-8.5253e-06
9.48642e-06
0.000903491
-0.000905422
-1.04889e-05
1.12372e-05
0.000904496
-0.000906503
-1.19046e-05
1.24693e-05
0.000905752
-0.000907531
-1.29246e-05
1.31967e-05
0.000907067
-0.000908847
-1.3256e-05
1.28289e-05
0.000909078
-0.000913516
-1.15899e-05
1.0265e-05
0.000914642
-0.000912075
-1.0806e-05
1.05622e-05
0.00091212
-0.000912774
-9.8032e-06
8.86383e-06
0.000913517
-0.000914332
-7.90562e-06
6.57198e-06
0.000915473
-0.00091598
-5.21609e-06
3.68912e-06
0.000917318
-0.00091776
-2.13561e-06
3.12994e-07
0.000919399
-0.00091974
1.64619e-06
-3.7735e-06
0.00092169
-0.000921913
5.9495e-06
-8.50251e-06
0.000924296
-0.000924611
1.10222e-05
-1.38268e-05
0.000927254
-0.00092782
1.68245e-05
-2.00214e-05
0.000930863
-0.000931921
2.34431e-05
-2.70843e-05
0.000935417
-0.000937218
3.08822e-05
-3.51348e-05
0.000941334
-0.000944552
3.94822e-05
-4.36148e-05
0.000948556
-0.00095392
4.77888e-05
-5.31804e-05
0.00095919
-0.000968876
5.8983e-05
-6.52661e-05
0.000975045
-0.00099149
7.18384e-05
-7.91326e-05
0.000998678
-0.00102592
8.65527e-05
-9.20616e-05
0.00103134
-0.000997232
8.97294e-05
-7.2141e-05
0.000979557
-0.000572427
4.01898e-05
-1.01073e-05
0.000542259
-0.000293818
1.34148e-05
0.000281281
-7.49966e-07
-0.000860132
-3.77917e-05
6.25136e-05
0.000835533
-0.00103138
-7.7541e-05
8.1178e-05
0.00102785
-0.00100883
-7.78164e-05
7.19731e-05
0.00101477
-0.000978128
-6.58688e-05
6.01406e-05
0.000983959
-0.000959979
-5.50108e-05
5.01701e-05
0.000964926
-0.000948135
-4.55511e-05
4.13352e-05
0.00095246
-0.000939872
-3.72837e-05
3.34935e-05
0.000943774
-0.000933891
-2.98419e-05
2.66388e-05
0.000937208
-0.000928229
-2.25252e-05
1.86417e-05
0.000932227
-0.000924389
-1.44594e-05
1.17299e-05
0.000927234
-0.000921235
-9.10242e-06
6.67924e-06
0.000923773
-0.000918755
-4.45462e-06
2.42599e-06
0.000920896
-0.000916792
-6.98425e-07
-7.35746e-07
0.000918335
-0.000914725
1.96635e-06
-3.61566e-06
0.000916478
-0.00091298
5.65765e-06
-7.20589e-06
0.000914625
-0.000910694
8.32425e-06
-1.0362e-05
0.000912819
-0.00091004
1.17454e-05
-1.14259e-05
0.000909797
-0.000909931
1.50167e-05
-1.65997e-05
0.000911577
-0.00091004
1.69707e-05
-1.7939e-05
0.000911056
-0.000907928
1.79032e-05
-1.77927e-05
0.000907848
-0.000906096
1.74765e-05
-1.68858e-05
0.000905519
-0.000904247
1.58788e-05
-1.50763e-05
0.000903437
-0.000902776
1.38908e-05
-1.25971e-05
0.000901456
-0.000902381
1.11014e-05
-9.78095e-06
0.000901011
-0.00090238
8.71348e-06
-6.62622e-06
0.000900222
-0.00090024
4.49978e-06
-2.52172e-06
0.000898169
-0.000905676
5.49008e-07
1.0728e-06
0.000903942
-0.000902146
-2.8112e-06
4.68254e-06
0.000900141
-0.000901017
-6.69256e-06
8.65682e-06
0.000898903
-0.000905682
-1.08836e-05
1.15863e-05
0.000904813
-0.000902404
-1.28912e-05
1.4227e-05
0.000900889
-0.000903529
-1.55884e-05
1.66387e-05
0.000902289
-0.000905105
-1.76584e-05
1.83301e-05
0.000904236
-0.000906852
-1.89526e-05
1.92366e-05
0.000906365
-0.000910099
-1.94674e-05
1.88674e-05
0.000910493
-0.00091431
-1.77216e-05
1.77264e-05
0.000914099
-0.000912626
-1.73792e-05
1.66111e-05
0.000913191
-0.000914448
-1.56977e-05
1.44767e-05
0.000915468
-0.000916721
-1.33144e-05
1.17567e-05
0.000918084
-0.000918975
-1.02608e-05
8.38111e-06
0.000920666
-0.000921363
-6.56425e-06
4.37369e-06
0.000923373
-0.000923861
-2.24441e-06
-2.52156e-07
0.000926185
-0.000926787
2.69217e-06
-5.39188e-06
0.000929322
-0.000930084
8.14805e-06
-1.12668e-05
0.000933047
-0.000934061
1.43537e-05
-1.78055e-05
0.000937367
-0.000939017
2.12408e-05
-2.50468e-05
0.000942686
-0.000945078
2.77333e-05
-3.12053e-05
0.000948422
-0.000952894
3.56166e-05
-4.01058e-05
0.000957263
-0.000964492
4.48476e-05
-4.96804e-05
0.000969213
-0.000980773
5.50157e-05
-6.04878e-05
0.000986141
-0.00100529
6.63313e-05
-7.23192e-05
0.00101118
-0.00103471
7.76491e-05
-7.94684e-05
0.00103644
-0.000961023
7.28202e-05
-5.41618e-05
0.000942283
-0.000517204
2.792e-05
-6.85046e-06
0.000496055
-0.000270569
9.8895e-06
0.000261371
-5.52405e-07
-0.000812701
-2.85454e-05
4.97524e-05
0.000791628
-0.00102274
-6.5055e-05
7.12701e-05
0.00101663
-0.00101996
-7.03081e-05
6.61047e-05
0.00102427
-0.000989372
-6.08677e-05
5.56597e-05
0.000994686
-0.000969656
-5.08166e-05
4.63078e-05
0.000974275
-0.000956741
-4.1959e-05
3.78482e-05
0.000960964
-0.000947484
-3.39447e-05
3.01428e-05
0.000951402
-0.000940595
-2.66331e-05
2.31095e-05
0.000944236
-0.000935312
-1.99736e-05
1.68195e-05
0.000938586
-0.000931265
-1.39434e-05
1.12536e-05
0.000934075
-0.000927822
-8.63394e-06
6.09689e-06
0.00093048
-0.000923122
-2.50652e-06
-1.09787e-06
0.000926846
-0.000920176
4.61428e-06
-8.03765e-06
0.000923716
-0.000917619
1.09538e-05
-1.27544e-05
0.000919532
-0.000915561
1.41391e-05
-1.47136e-05
0.000916242
-0.000915439
1.40435e-05
-1.16662e-05
0.000913159
-0.000913816
1.94578e-05
-2.16515e-05
0.000916097
-0.000912244
2.25492e-05
-2.34997e-05
0.000913269
-0.00091108
2.33247e-05
-2.32203e-05
0.000911036
-0.000907952
2.40665e-05
-2.42685e-05
0.000908195
-0.000904872
2.38114e-05
-2.31278e-05
0.000904211
-0.000902345
2.20628e-05
-2.07422e-05
0.000901025
-0.000899956
1.91656e-05
-1.74249e-05
0.000898194
-0.000899306
1.54396e-05
-1.33683e-05
0.000897188
-0.000898166
1.12824e-05
-8.87701e-06
0.000895689
-0.000895852
6.182e-06
-3.48995e-06
0.000893063
-0.000901938
7.46331e-07
1.65452e-06
0.000899417
-0.000897868
-4.16043e-06
6.81376e-06
0.000895071
-0.000896656
-9.62467e-06
1.21931e-05
0.000893926
-0.000903282
-1.46152e-05
1.63137e-05
0.000901404
-0.000899207
-1.84229e-05
2.0301e-05
0.000897136
-0.000900974
-2.21116e-05
2.35547e-05
0.000899326
-0.000903354
-2.48905e-05
2.59146e-05
0.000902118
-0.000905922
-2.66312e-05
2.68431e-05
0.000905493
-0.000911674
-2.58668e-05
2.37082e-05
0.000913615
-0.000913639
-2.49085e-05
2.55147e-05
0.000912816
-0.000913933
-2.51452e-05
2.41192e-05
0.000914748
-0.000916692
-2.30177e-05
2.15787e-05
0.000917927
-0.000919565
-2.01813e-05
1.84691e-05
0.000921081
-0.000922381
-1.67068e-05
1.44509e-05
0.00092445
-0.000925403
-1.24541e-05
9.98423e-06
0.000927695
-0.00092862
-7.47421e-06
4.81366e-06
0.000931113
-0.000932157
-2.01088e-06
-9.27815e-07
0.000934937
-0.000936078
4.00978e-06
-7.21698e-06
0.000939137
-0.000940805
1.02654e-05
-1.26082e-05
0.00094301
-0.000945311
1.59298e-05
-1.96694e-05
0.000948923
-0.000952395
2.34693e-05
-2.75868e-05
0.000956394
-0.000961685
3.16715e-05
-3.59644e-05
0.000965868
-0.000974014
4.04562e-05
-4.51646e-05
0.000978621
-0.000991398
5.00017e-05
-5.52078e-05
0.00099651
-0.00101671
6.10074e-05
-6.62072e-05
0.00102182
-0.00103685
6.96961e-05
-6.94514e-05
0.00103653
-0.000923973
6.14874e-05
-4.40092e-05
0.00090642
-0.000477796
2.22869e-05
-5.94742e-06
0.000461383
-0.00025339
7.5087e-06
0.000246453
-4.227e-07
-0.000772371
-2.20419e-05
3.97222e-05
0.000754832
-0.00100932
-5.41883e-05
6.18708e-05
0.00100175
-0.00102777
-6.30851e-05
6.02365e-05
0.00103073
-0.000999623
-5.58306e-05
5.10695e-05
0.00100449
-0.000979164
-4.65122e-05
4.25511e-05
0.000983236
-0.000965066
-3.81637e-05
3.40838e-05
0.00096926
-0.000955139
-2.99545e-05
2.59927e-05
0.000959218
-0.000947742
-2.17518e-05
1.8305e-05
0.000951309
-0.000941765
-1.48913e-05
1.16339e-05
0.000945145
-0.000936928
-8.51425e-06
5.55308e-06
0.000940014
-0.000933003
-2.73345e-06
7.69946e-08
0.000935786
-0.000929849
2.32588e-06
-4.35103e-06
0.000932
-0.000926046
7.24324e-06
-1.02614e-05
0.000929189
-0.000922594
1.20708e-05
-1.42996e-05
0.000924945
-0.000920505
1.77541e-05
-1.915e-05
0.000922019
-0.000914928
1.92281e-05
-2.89524e-05
0.000924764
-0.000916674
2.93436e-05
-3.09479e-05
0.000918381
-0.000913758
3.15327e-05
-3.2055e-05
0.000914371
-0.000911136
3.23324e-05
-3.19148e-05
0.000910795
-0.000908525
3.10132e-05
-3.17667e-05
0.000909337
-0.000903273
3.21852e-05
-3.15934e-05
0.00090272
-0.000899611
3.02475e-05
-2.85669e-05
0.000897943
-0.00089623
2.65539e-05
-2.42128e-05
0.000893877
-0.000894813
2.15651e-05
-1.87456e-05
0.000891953
-0.000892895
1.58092e-05
-1.25143e-05
0.00088953
-0.000889878
8.85466e-06
-5.12256e-06
0.000886046
-0.000896499
1.29548e-06
2.16615e-06
0.00089291
-0.000891886
-5.75856e-06
9.461e-06
0.000888028
-0.000890837
-1.33213e-05
1.6902e-05
0.00088708
-0.000899131
-2.02851e-05
2.31108e-05
0.000896109
-0.000894854
-2.57199e-05
2.82196e-05
0.000892143
-0.000897575
-3.06259e-05
3.25291e-05
0.000895449
-0.000900961
-3.42411e-05
3.5449e-05
0.000899525
-0.00090541
-3.61781e-05
3.50343e-05
0.000906322
-0.000914677
-3.32442e-05
3.47032e-05
0.000912987
-0.000912464
-3.59924e-05
3.55591e-05
0.000912672
-0.000915672
-3.48028e-05
3.3442e-05
0.000916816
-0.000919293
-3.21788e-05
3.04538e-05
0.000920811
-0.000923045
-2.87461e-05
2.67155e-05
0.00092488
-0.000926565
-2.45183e-05
2.20343e-05
0.000928866
-0.000930126
-1.95996e-05
1.68066e-05
0.000932748
-0.000933935
-1.40789e-05
1.10148e-05
0.00093684
-0.000938024
-8.02389e-06
5.34512e-06
0.000940555
-0.000941539
-3.0582e-06
-2.52425e-07
0.000944712
-0.00094658
3.79271e-06
-7.4077e-06
0.000950068
-0.000952729
1.11537e-05
-1.50669e-05
0.000956526
-0.000960433
1.92235e-05
-2.38685e-05
0.000964971
-0.000970258
2.8233e-05
-3.33059e-05
0.000975232
-0.000983283
3.88908e-05
-4.38861e-05
0.000988186
-0.00100208
4.82953e-05
-5.20872e-05
0.00100579
-0.00102688
5.51025e-05
-5.84385e-05
0.00103014
-0.00103356
6.01457e-05
-5.71911e-05
0.00103054
-0.000888951
4.71318e-05
-3.14857e-05
0.000873237
-0.000447918
1.48066e-05
-3.30421e-06
0.00043635
-0.000240352
5.8207e-06
0.000235009
-3.2952e-07
-0.000738707
-1.72914e-05
3.18951e-05
0.000724246
-0.000993694
-4.50929e-05
5.33295e-05
0.000985564
-0.00103299
-5.57362e-05
5.42259e-05
0.00103461
-0.00100911
-5.05982e-05
4.63601e-05
0.00101345
-0.000987509
-4.22435e-05
3.79867e-05
0.000991877
-0.000973259
-3.38062e-05
2.96854e-05
0.000977494
-0.000963036
-2.55878e-05
2.1301e-05
0.00096744
-0.000955185
-1.76583e-05
1.4138e-05
0.000958826
-0.000948972
-1.0612e-05
7.31485e-06
0.000952394
-0.000943889
-4.01306e-06
9.44625e-07
0.000947085
-0.000938651
2.95576e-06
-6.71369e-06
0.000942539
-0.000934466
1.06618e-05
-1.48723e-05
0.000938808
-0.000930822
1.79047e-05
-2.02527e-05
0.000933303
-0.000928893
2.20355e-05
-2.20904e-05
0.000929081
-0.000922405
2.27062e-05
-3.34978e-05
0.000933329
-0.00092455
3.35702e-05
-3.62597e-05
0.000927367
-0.000920685
3.85492e-05
-4.0041e-05
0.000922298
-0.00091553
4.16315e-05
-4.30042e-05
0.000917014
-0.000910636
4.41858e-05
-4.4796e-05
0.000911346
-0.000908376
4.44569e-05
-4.34013e-05
0.000907401
-0.000902491
4.3279e-05
-4.31066e-05
0.000902379
-0.000896194
4.16759e-05
-3.94628e-05
0.000894014
-0.000891283
3.68483e-05
-3.38093e-05
0.000888249
-0.000888721
3.03156e-05
-2.64983e-05
0.000884874
-0.000885681
2.23987e-05
-1.7939e-05
0.000881157
-0.00088164
1.29123e-05
-7.76107e-06
0.000876387
-0.000888714
2.43499e-06
2.55469e-06
0.00088359
-0.00088358
-7.67775e-06
1.29023e-05
0.000878188
-0.000882846
-1.81991e-05
2.30966e-05
0.000877756
-0.000892644
-2.76774e-05
3.17317e-05
0.000888374
-0.000889488
-3.56678e-05
3.90405e-05
0.000885883
-0.000893165
-4.1883e-05
4.43376e-05
0.000890467
-0.000898263
-4.64678e-05
4.76652e-05
0.000896818
-0.000907693
-4.73106e-05
4.58646e-05
0.00090889
-0.000910999
-4.76502e-05
4.87397e-05
0.000909666
-0.000913312
-4.86351e-05
4.7741e-05
0.000913974
-0.000918028
-4.65634e-05
4.50422e-05
0.000919329
-0.000922622
-4.329e-05
4.11494e-05
0.000924556
-0.000927116
-3.89148e-05
3.64497e-05
0.00092939
-0.00093136
-3.38155e-05
3.10054e-05
0.000933993
-0.000935646
-2.8046e-05
2.49525e-05
0.000938578
-0.00093968
-2.25777e-05
1.989e-05
0.000942219
-0.000943304
-1.64524e-05
1.28355e-05
0.000946785
-0.000948386
-9.00439e-06
4.59867e-06
0.000952667
-0.000954023
-3.94605e-07
-4.37546e-06
0.000958678
-0.000960654
9.79442e-06
-1.42854e-05
0.000965041
-0.000970565
1.7382e-05
-1.9503e-05
0.00097259
-0.000978499
2.26861e-05
-2.65148e-05
0.000982239
-0.000991705
3.01371e-05
-3.43196e-05
0.000995806
-0.00101016
3.86585e-05
-4.29693e-05
0.00101439
-0.00103359
4.71291e-05
-5.03487e-05
0.00103674
-0.00102719
5.09998e-05
-4.71719e-05
0.0010233
-0.000858674
3.77152e-05
-2.43617e-05
0.000845259
-0.00042641
1.10904e-05
-2.40166e-06
0.000417664
-0.000230265
4.58334e-06
0.000226091
-2.62465e-07
-0.000710779
-1.37345e-05
2.59131e-05
0.00069874
-0.000977492
-3.74876e-05
4.55902e-05
0.000969494
-0.00103578
-4.88866e-05
4.83226e-05
0.00103645
-0.0010179
-4.53881e-05
4.17595e-05
0.00102163
-0.00099615
-3.74924e-05
3.34307e-05
0.00100032
-0.000981347
-2.91776e-05
2.50625e-05
0.000985574
-0.000970965
-2.06145e-05
1.69196e-05
0.000974776
-0.000962908
-1.31898e-05
9.65556e-06
0.000966563
-0.000956603
-5.97186e-06
2.58975e-06
0.00096011
-0.00095046
9.40237e-07
-5.00658e-06
0.000954655
-0.000945598
9.21039e-06
-1.36206e-05
0.000950142
-0.000941325
1.8367e-05
-2.18341e-05
0.000944929
-0.000937736
2.47869e-05
-2.69778e-05
0.000940068
-0.00093421
2.76019e-05
-2.87154e-05
0.000935468
-0.000934334
4.14579e-05
-4.3768e-05
0.000936791
-0.000929704
4.6762e-05
-4.83836e-05
0.000931473
-0.000924883
5.00858e-05
-5.20588e-05
0.000927001
-0.000918509
5.45276e-05
-5.655e-05
0.000920669
-0.000912236
5.79535e-05
-5.88123e-05
0.000913224
-0.000906459
5.92567e-05
-5.85936e-05
0.000905907
-0.000902936
5.69225e-05
-5.65439e-05
0.000902649
-0.000892025
5.64223e-05
-5.46526e-05
0.000890317
-0.000884782
5.16017e-05
-4.78101e-05
0.00088102
-0.000880206
4.30923e-05
-3.68239e-05
0.000873926
-0.000876498
2.90722e-05
-2.4631e-05
0.000872003
-0.000870305
1.896e-05
-1.19572e-05
0.000863202
-0.000877562
4.47991e-06
2.75625e-06
0.000870184
-0.00087195
-1.01431e-05
1.751e-05
0.0008644
-0.000872215
-2.46605e-05
2.99944e-05
0.000866668
-0.000882768
-3.40986e-05
4.1976e-05
0.00087465
-0.000881826
-4.86721e-05
5.33956e-05
0.000876845
-0.000887763
-5.73976e-05
6.01905e-05
0.000884702
-0.000896159
-6.18932e-05
6.08076e-05
0.000896973
-0.000908376
-5.97922e-05
6.29427e-05
0.000904958
-0.000908987
-6.50158e-05
6.49721e-05
0.000908777
-0.000914971
-6.40565e-05
6.26617e-05
0.000916127
-0.000921091
-6.09444e-05
5.87545e-05
0.00092306
-0.000926759
-5.6403e-05
5.37681e-05
0.000929192
-0.000932028
-5.10256e-05
4.78687e-05
0.000935001
-0.000937078
-4.48603e-05
4.21466e-05
0.000939626
-0.000940974
-3.90754e-05
3.50625e-05
0.000944838
-0.000945988
-3.02237e-05
2.51027e-05
0.000950974
-0.000950938
-1.9156e-05
1.46076e-05
0.000955364
-0.000958431
-1.17391e-05
1.00256e-05
0.000960034
-0.000961515
-6.99399e-06
3.24613e-06
0.000965162
-0.000968043
1.46016e-07
-4.03662e-06
0.000971841
-0.000976085
8.00424e-06
-1.21504e-05
0.000980147
-0.00098636
1.6272e-05
-2.04683e-05
0.000990478
-0.000999931
2.46576e-05
-2.89329e-05
0.00100413
-0.00101868
3.30887e-05
-3.73328e-05
0.00102285
-0.00103945
4.11132e-05
-4.3667e-05
0.00104194
-0.00101905
4.33935e-05
-3.91303e-05
0.00101472
-0.00083283
3.02603e-05
-1.88816e-05
0.000821396
-0.000409991
8.35308e-06
-1.68522e-06
0.000403273
-0.000222314
3.62113e-06
0.000219057
-2.14713e-07
-0.000687633
-1.10253e-05
2.12061e-05