/*--------------------------------*- C++ -*----------------------------------*\
  =========                 |
  \\      /  F ield         | OpenFOAM: The Open Source CFD Toolbox
   \\    /   O peration     | Website:  https://openfoam.org
    \\  /    A nd           | Version:  7
     \\/     M anipulation  |
\*---------------------------------------------------------------------------*/
FoamFile
{
    version     2.0;
    format      ascii;
    class       volVectorField;
    location    "90";
    object      U;
}
// * * * * * * * * * * * * * * * * * * * * * * * * * * * * * * * * * * * * * //

dimensions      [0 1 -1 0 0 0 0];

internalField   nonuniform List<vector> 
17475
(
(1.01828 0.205798 -1.63189e-20)
(0.995996 0.0223737 -2.58596e-20)
(0.999788 0.00973746 0)
(0.999943 0.00488229 0)
(0.999979 0.00304132 0)
(0.999991 0.00208186 0)
(0.999994 0.00149693 0)
(0.999996 0.00110293 0)
(0.999997 0.000819143 -5.31789e-20)
(0.999997 0.000605075 0)
(0.999997 0.000437911 0)
(0.999997 0.000304444 0)
(0.999998 0.000196288 0)
(0.999998 0.000108125 0)
(0.999998 3.63239e-05 0)
(0.999998 -2.12836e-05 0)
(0.999998 -6.64617e-05 0)
(0.999998 -0.000100152 0)
(0.999998 -0.000123332 0)
(0.999999 -0.000136491 0)
(0.999999 -0.000140426 -2.04684e-19)
(0.999999 -0.000135624 4.80729e-22)
(1 -0.000123029 0)
(1 -0.000103275 -6.47353e-21)
(1 -7.75312e-05 0)
(1 -4.68588e-05 -1.29767e-20)
(1 -1.328e-05 0)
(1 2.2153e-05 0)
(1 5.76643e-05 -1.62732e-21)
(1 9.18735e-05 5.2003e-20)
(1 0.000123047 5.11479e-20)
(1 0.000149889 0)
(1 0.000170905 0)
(1 0.000185078 -5.14203e-20)
(1 0.00019127 -5.13216e-20)
(1 0.000188772 0)
(1 0.000176729 -3.97448e-22)
(1 0.000154593 0)
(1 0.000121566 5.04798e-20)
(1 7.68122e-05 2.5191e-20)
(1 1.95038e-05 -2.51543e-20)
(1 -5.14688e-05 0)
(1 -0.000138288 -2.52333e-20)
(1 -0.000244048 0)
(1 -0.000373646 -1.27536e-20)
(1 -0.000534377 0)
(1 -0.000737775 2.63345e-20)
(1 -0.00100217 0)
(1 -0.00135789 0)
(0.999998 -0.00185652 0)
(0.999994 -0.00258779 0)
(0.99999 -0.00369265 -1.61941e-20)
(0.999954 -0.00538117 3.60517e-20)
(0.998953 -0.0029492 3.97776e-20)
(1.02905 -0.0897343 -3.91461e-20)
(0.871315 0.0788179 1.67387e-20)
(1.10046 0.0971265 0)
(1.03496 0.0582622 0)
(1.0152 0.0370686 0)
(1.00802 0.0249878 -1.14876e-19)
(1.00488 0.0175955 -1.09059e-19)
(1.00328 0.0127187 1.02641e-19)
(1.00237 0.00928552 0)
(1.00181 0.00673802 0)
(1.00143 0.00477104 0)
(1.00117 0.00320495 0)
(1.00097 0.00193125 0)
(1.00082 0.000880276 0)
(1.00069 7.45547e-06 0)
(1.00058 -0.000717016 0)
(1.00048 -0.00131228 0)
(1.00039 -0.0017925 0)
(1.00031 -0.00216582 0)
(1.00022 -0.00243975 0)
(1.00014 -0.00261879 0)
(1.00006 -0.00270894 0)
(0.999988 -0.00271453 0)
(0.999916 -0.00264124 2.24829e-19)
(0.999853 -0.00249946 -5.64404e-20)
(0.999795 -0.00229559 -1.15012e-19)
(0.999746 -0.00204002 4.57557e-22)
(0.999708 -0.00174909 -1.48081e-20)
(0.99968 -0.00143456 0)
(0.999663 -0.00110989 -7.6034e-21)
(0.999658 -0.000791066 7.6914e-21)
(0.999664 -0.000491548 -1.24109e-19)
(0.999681 -0.000225426 1.27292e-19)
(0.999707 -4.82643e-06 0)
(0.999742 0.000159978 -2.55179e-19)
(0.999785 0.000259427 2.00875e-21)
(0.999835 0.000285663 2.58372e-19)
(0.999892 0.000231478 0)
(0.999956 9.08754e-05 1.30719e-19)
(1.00003 -0.00014325 0)
(1.00011 -0.000481046 -1.31685e-19)
(1.00019 -0.000930823 1.32249e-19)
(1.0003 -0.00150587 0)
(1.00042 -0.002226 0)
(1.00057 -0.00312015 0)
(1.00076 -0.00423156 6.07299e-23)
(1.00101 -0.00562537 6.98505e-20)
(1.00136 -0.00740159 -7.13406e-20)
(1.00187 -0.00971785 -3.63646e-20)
(1.00263 -0.0128306 0)
(1.00385 -0.0171743 0)
(1.00587 -0.0235233 0)
(1.00941 -0.0333461 -4.07595e-20)
(1.01597 -0.0499486 4.21711e-20)
(1.02808 -0.0730771 2.41e-21)
(1.07033 -0.178237 2.79639e-21)
(0.609991 0.0196747 8.34829e-21)
(1.13947 0.106471 -1.2064e-20)
(1.07875 0.0753892 -5.00029e-20)
(1.04133 0.0541795 0)
(1.02489 0.0399921 0)
(1.01632 0.0299183 -9.83626e-20)
(1.01143 0.022525 0)
(1.00844 0.0169494 0)
(1.0065 0.0126303 0)
(1.00517 0.00920247 1.88444e-19)
(1.00422 0.00642648 0)
(1.0035 0.00414506 0)
(1.00293 0.00225171 0)
(1.00246 0.000676434 0)
(1.00206 -0.000629096 0)
(1.0017 -0.00169697 -1.94626e-19)
(1.00136 -0.00254924 0)
(1.00105 -0.00320084 0)
(1.00075 -0.00366304 0)
(1.00046 -0.0039447 0)
(1.00018 -0.00405449 4.25883e-19)
(0.999911 -0.00400166 0)
(0.999666 -0.00379983 1.66872e-19)
(0.999442 -0.00345992 -1.13666e-19)
(0.999249 -0.00300458 0)
(0.99909 -0.00245577 -2.94357e-20)
(0.998972 -0.00183997 0)
(0.998897 -0.00118442 3.76435e-20)
(0.998865 -0.000517451 2.28695e-20)
(0.998876 0.000128636 0)
(0.99893 0.000726723 -1.09123e-19)
(0.999024 0.0012485 3.95293e-21)
(0.999154 0.00166976 -1.99814e-21)
(0.999316 0.00197026 -1.27808e-19)
(0.999505 0.00213205 1.28575e-19)
(0.999718 0.00214093 0)
(0.999953 0.00198471 2.52087e-19)
(1.00021 0.0016536 -2.61774e-19)
(1.00049 0.00113612 2.79125e-19)
(1.00079 0.000418811 0)
(1.00113 -0.000511589 3.31863e-20)
(1.00152 -0.00167819 -5.67306e-23)
(1.00197 -0.00311297 1.3446e-19)
(1.00253 -0.00486264 -1.91341e-22)
(1.00323 -0.00699667 -6.79038e-20)
(1.00415 -0.00961748 0)
(1.00542 -0.0128788 0)
(1.00722 -0.0170132 3.50059e-20)
(1.0099 -0.0223793 -3.59739e-20)
(1.01406 -0.0295412 -5.36166e-22)
(1.02086 -0.0393969 1.104e-19)
(1.03252 -0.0534218 -7.54139e-20)
(1.05359 -0.0738636 7.40058e-20)
(1.09999 -0.105613 0)
(0.962582 -0.117893 3.8603e-20)
(0.481353 0.00953658 0)
(1.11613 0.0898518 0)
(1.11527 0.0803821 2.08319e-20)
(1.06632 0.0610599 0)
(1.04297 0.0473416 8.92147e-20)
(1.02997 0.0368704 0)
(1.02196 0.0286464 0)
(1.01673 0.0220703 0)
(1.01316 0.0167312 0)
(1.01062 0.0123367 0)
(1.00873 0.00867922 0)
(1.00728 0.00560911 0)
(1.00611 0.00302205 1.83851e-19)
(1.00514 0.000844399 0)
(1.00429 -0.000974863 0)
(1.00352 -0.00246913 0)
(1.00281 -0.00366256 0)
(1.00213 -0.00456933 0)
(1.00149 -0.00520096 0)
(1.00086 -0.00556531 -2.05192e-19)
(1.00026 -0.00567187 0)
(0.999688 -0.00553322 0)
(0.999158 -0.00516218 -1.11029e-19)
(0.998684 -0.00458395 0)
(0.998279 -0.00382743 -1.74169e-19)
(0.997954 -0.0029274 2.94435e-20)
(0.997719 -0.00192331 -1.20144e-19)
(0.997582 -0.000861291 2.38385e-22)
(0.997545 0.000216228 6.19279e-20)
(0.997607 0.0012544 4.65823e-20)
(0.997766 0.0022128 1.25744e-19)
(0.998014 0.00304425 3.96537e-21)
(0.998341 0.00371269 0)
(0.998736 0.00418775 3.76634e-22)
(0.999189 0.00444373 0)
(0.999689 0.0044612 -1.21975e-19)
(1.00023 0.00422554 -1.3058e-19)
(1.00081 0.003726 1.30647e-19)
(1.00144 0.00294637 2.63295e-19)
(1.00211 0.00187762 1.0718e-19)
(1.00284 0.000505479 -3.31641e-20)
(1.00367 -0.00119218 -6.64998e-20)
(1.00463 -0.00325109 0)
(1.00577 -0.00572146 0)
(1.0072 -0.00867643 -6.71309e-20)
(1.00904 -0.0122211 6.72738e-20)
(1.01151 -0.0165064 1.69194e-19)
(1.01494 -0.0217466 3.4248e-20)
(1.01986 -0.0282462 -2.20499e-22)
(1.02722 -0.0364343 -3.40036e-20)
(1.03863 -0.0469149 1.3606e-19)
(1.05699 -0.0605445 -1.01107e-19)
(1.08912 -0.0786972 9.61787e-20)
(1.13241 -0.100849 6.15078e-20)
(0.81193 -0.0598832 -1.79628e-20)
(0.401347 0.00538747 0)
(1.06139 0.0688565 -1.79598e-20)
(1.13862 0.0767339 3.55234e-20)
(1.08894 0.0616671 3.80256e-20)
(1.06007 0.0494463 3.97561e-20)
(1.04366 0.0396631 8.11578e-20)
(1.03315 0.0315331 -8.23481e-20)
(1.02599 0.0246969 -8.32167e-20)
(1.02091 0.0189039 0)
(1.01716 0.0139634 -1.6949e-19)
(1.0143 0.00972789 -3.43183e-19)
(1.01203 0.00608654 -1.73511e-19)
(1.01017 0.00295827 -1.76113e-19)
(1.00859 0.00028357 0)
(1.00718 -0.00197751 0)
(1.0059 -0.00385174 0)
(1.00469 -0.00535487 -3.86261e-19)
(1.00353 -0.00649396 -4.69511e-21)
(1.00241 -0.00727545 -4.05145e-19)
(1.00132 -0.00770136 -2.05188e-19)
(1.00027 -0.00778042 -5.28265e-20)
(0.999262 -0.00751592 1.08267e-19)
(0.998332 -0.00693163 -1.10439e-19)
(0.9975 -0.00605457 1.13741e-19)
(0.99679 -0.00492331 0)
(0.996226 -0.00358497 -6.01107e-20)
(0.995829 -0.00209633 1.21578e-19)
(0.995611 -0.000524765 0)
(0.995581 0.00106678 -3.15471e-20)
(0.995735 0.00259673 -1.58533e-20)
(0.996063 0.00400855 -1.2694e-19)
(0.996554 0.00523241 1.2067e-20)
(0.997185 0.00621793 0)
(0.997934 0.0069242 1.37787e-19)
(0.998778 0.00731848 0)
(0.999699 0.0073785 0)
(1.00068 0.0070905 -2.61686e-19)
(1.00173 0.00644481 -6.58604e-20)
(1.00282 0.00542797 1.39717e-19)
(1.00398 0.00404126 1.23442e-19)
(1.00523 0.00227449 -1.48651e-19)
(1.00661 0.000112284 -1.32326e-19)
(1.00818 -0.0024695 -1.65579e-19)
(1.01002 -0.00551343 9.93769e-20)
(1.01227 -0.00907781 1.31945e-19)
(1.01509 -0.0132458 -3.28293e-20)
(1.01878 -0.0181313 0)
(1.02375 -0.0238863 -6.56404e-20)
(1.03065 -0.0307087 -6.52869e-20)
(1.04055 -0.0388516 -3.26844e-20)
(1.05524 -0.0486216 -3.13897e-20)
(1.07797 -0.0604194 -9.30581e-20)
(1.11588 -0.0750025 -5.83271e-20)
(1.12173 -0.0828285 0)
(0.692573 -0.0292027 9.6862e-20)
(0.351997 0.00334973 0)
(0.999248 0.0514618 0)
(1.14709 0.0694348 -6.3281e-20)
(1.10808 0.0593099 -6.77658e-20)
(1.07542 0.0485413 0)
(1.05652 0.0396522 0)
(1.04417 0.0319753 7.491e-20)
(1.03551 0.025253 0)
(1.02916 0.0193437 0)
(1.02435 0.0141364 0)
(1.02058 0.00954324 -1.62571e-19)
(1.01751 0.00549708 -1.659e-19)
(1.01494 0.00194644 0)
(1.0127 -0.00114388 0)
(1.01067 -0.00379509 -4.11977e-21)
(1.00878 -0.00601751 0)
(1.00698 -0.00781209 7.47275e-19)
(1.00522 -0.00917505 7.71223e-19)
(1.0035 -0.0100979 -3.98411e-19)
(1.00181 -0.0105772 2.0139e-19)
(1.00015 -0.0105997 2.60809e-19)
(0.998566 -0.0101749 -5.43125e-20)
(0.997092 -0.0093194 3.33458e-19)
(0.995766 -0.00806375 -5.72231e-20)
(0.994633 -0.00645564 7.12452e-22)
(0.993737 -0.00455591 -1.20063e-19)
(0.993115 -0.00244407 1.54504e-19)
(0.992792 -0.000213786 1.24454e-19)
(0.99278 0.0020449 -5.55523e-22)
(0.993074 0.0042128 6.43468e-20)
(0.993655 0.0062112 6.51802e-20)
(0.994499 0.00794372 0)
(0.995566 0.00934059 -1.18645e-19)
(0.996814 0.0103508 0)
(0.998202 0.0109358 0)
(0.999695 0.0110737 1.64121e-19)
(1.00127 0.0107578 -1.31274e-19)
(1.00291 0.00997881 0)
(1.0046 0.00874021 8.19327e-21)
(1.00636 0.00705507 0)
(1.00822 0.00492585 0)
(1.01022 0.00235174 -1.47614e-19)
(1.01246 -0.000675597 1.64237e-20)
(1.01503 -0.00417575 1.05292e-22)
(1.01809 -0.00818655 -1.61423e-20)
(1.02185 -0.0127579 -1.61276e-19)
(1.02662 -0.017958 -1.58878e-20)
(1.03287 -0.0238733 1.42425e-19)
(1.04129 -0.0306081 -1.25215e-19)
(1.053 -0.0382789 0)
(1.06983 -0.0470299 5.94818e-20)
(1.09535 -0.0571127 7.48903e-22)
(1.13255 -0.0683054 -5.52296e-20)
(1.08808 -0.0650001 -8.3912e-20)
(0.611741 -0.0166665 0)
(0.318785 0.0023156 6.05389e-21)
(0.941094 0.0386958 -1.56583e-20)
(1.14382 0.0608515 2.87302e-20)
(1.1236 0.0554687 0)
(1.08923 0.0460517 0)
(1.06838 0.037939 -6.57025e-20)
(1.05469 0.0307556 0)
(1.04491 0.0242675 -1.4101e-19)
(1.03759 0.018382 -1.4469e-19)
(1.03191 0.0130439 0)
(1.02734 0.0082102 -7.63359e-20)
(1.02355 0.00385502 1.56841e-19)
(1.02029 -4.89463e-05 -3.20791e-19)
(1.01739 -0.00351219 0)
(1.0147 -0.00653339 0)
(1.01215 -0.0091018 0)
(1.00967 -0.011201 -2.7974e-21)
(1.0072 -0.0128048 0)
(1.00475 -0.0138936 0)
(1.00229 -0.0144259 1.98205e-19)
(0.999873 -0.0143881 1.11021e-21)
(0.997533 -0.0137704 0)
(0.995328 -0.0125809 0)
(0.993331 -0.0108483 3.46045e-19)
(0.991616 -0.00862754 2.38021e-19)
(0.990259 -0.0059944 3.07944e-20)
(0.989323 -0.00306905 0)
(0.988854 3.17758e-05 2.55201e-19)
(0.988874 0.00317544 9.67645e-20)
(0.989375 0.00618616 -5.88333e-22)
(0.990322 0.00895649 0)
(0.991669 0.0113573 0)
(0.993343 0.0132867 8.46151e-21)
(0.995274 0.0146871 0)
(0.997392 0.015517 0)
(0.999637 0.015761 3.33212e-22)
(1.00197 0.0154253 -2.62398e-19)
(1.00435 0.0145044 -1.31383e-19)
(1.00676 0.0130342 1.30722e-19)
(1.00922 0.0110427 8.12881e-21)
(1.01176 0.00855342 -1.29624e-19)
(1.01445 0.00558593 2.35744e-22)
(1.01737 0.00215245 2.24078e-22)
(1.02065 -0.0017415 1.61115e-20)
(1.02446 -0.00610519 -1.11268e-19)
(1.02903 -0.0109591 0)
(1.0347 -0.0163313 -1.39936e-19)
(1.04193 -0.022253 0)
(1.05145 -0.0287695 -6.01172e-20)
(1.06437 -0.0359347 0)
(1.08262 -0.0438285 5.73736e-20)
(1.10985 -0.0526401 -1.9898e-22)
(1.14017 -0.0607123 -2.60534e-20)
(1.04721 -0.0506664 -8.24454e-20)
(0.556547 -0.0111505 4.06719e-20)
(0.295092 0.00169863 0)
(0.890606 0.0295779 -1.46676e-20)
(1.13276 0.0523529 0)
(1.1354 0.0508989 0)
(1.10178 0.0427672 2.85465e-20)
(1.07941 0.0352395 7.70905e-22)
(1.06471 0.0284565 0)
(1.05413 0.0221853 -6.36736e-20)
(1.04608 0.0163514 -1.33016e-19)
(1.03971 0.010926 0)
(1.03449 0.00589482 0)
(1.03007 0.00125204 0)
(1.02618 -0.00299841 0)
(1.02264 -0.00684191 -2.32793e-19)
(1.0193 -0.0102564 -7.96398e-20)
(1.01605 -0.0132111 0)
(1.01282 -0.015666 1.07355e-20)
(1.00954 -0.017581 2.669e-19)
(1.0062 -0.0188828 -1.58813e-21)
(1.00282 -0.0195203 -9.90107e-20)
(0.999432 -0.0194438 0)
(0.996103 -0.0186213 1.06909e-19)
(0.992925 -0.0170393 -9.37029e-22)
(0.990011 -0.0147168 1.18076e-19)
(0.987487 -0.011712 0)
(0.985479 -0.00811779 -6.20806e-20)
(0.984099 -0.00410328 -6.4911e-20)
(0.983424 0.000170983 1.32315e-19)
(0.983494 0.00451061 6.71261e-20)
(0.984296 0.00865798 -1.33821e-19)
(0.98577 0.0124584 0)
(0.987827 0.0157327 -1.70056e-20)
(0.990347 0.0183455 -1.34816e-19)
(0.993209 0.0202305 1.68615e-20)
(0.996299 0.0213491 2.48993e-22)
(0.99952 0.0217056 2.63765e-19)
(1.00281 0.0213208 1.32174e-19)
(1.00608 0.0202154 1.3086e-19)
(1.00934 0.0184628 -1.29471e-19)
(1.01259 0.0161156 0)
(1.01588 0.0132253 1.35706e-19)
(1.01927 0.0098372 0)
(1.02286 0.0059883 0)
(1.0268 0.00170624 -1.26034e-19)
(1.03127 -0.00298786 0)
(1.03652 -0.0080882 6.09217e-20)
(1.04288 -0.0135895 1.20704e-19)
(1.05085 -0.0195015 3.00292e-20)
(1.06113 -0.0258348 -1.15954e-19)
(1.07489 -0.0326131 0)
(1.09414 -0.0399045 5.52902e-20)
(1.12195 -0.0477721 0)
(1.14074 -0.0530538 -2.47948e-20)
(1.00647 -0.0396398 5.40205e-20)
(0.516033 -0.00805954 0)
(0.277464 0.00128746 0)
(0.848056 0.0229807 -1.36104e-20)
(1.11733 0.0445319 -2.35228e-20)
(1.14374 0.0459984 2.40266e-20)
(1.11328 0.0391076 -2.50328e-20)
(1.08983 0.0320094 -5.27929e-20)
(1.07435 0.0254952 0)
(1.06318 0.0193642 0)
(1.05461 0.0135385 0)
(1.04774 0.00800315 0)
(1.04203 0.00275627 1.28792e-19)
(1.03709 -0.00219234 0)
(1.03266 -0.00682065 -2.77534e-19)
(1.02853 -0.0110973 0)
(1.02454 -0.0149821 0)
(1.02058 -0.0184231 2.96308e-19)
(1.01655 -0.0213561 2.4358e-19)
(1.01235 -0.0236859 -8.88825e-20)
(1.008 -0.0253276 -8.97863e-20)
(1.00349 -0.0261804 9.49147e-20)
(0.998878 -0.0261444 4.04514e-19)
(0.994256 -0.0251476 2.15003e-19)
(0.989766 -0.023138 -1.11756e-19)
(0.985585 -0.0201048 0)
(0.981915 -0.0160999 1.42373e-21)
(0.978968 -0.0112332 6.37e-20)
(0.976938 -0.0057409 -6.52414e-20)
(0.975961 0.00014424 -1.70985e-19)
(0.976108 0.00613403 8.17818e-22)
(0.977354 0.0118391 0)
(0.979596 0.0170291 -6.90968e-20)
(0.98268 0.0214504 -1.3853e-19)
(0.986389 0.0249245 1.37397e-19)
(0.990528 0.0273837 -1.35972e-19)
(0.994914 0.0288077 -1.68434e-19)
(0.999407 0.0292414 -2.64956e-19)
(1.00387 0.0287128 6.57276e-20)
(1.00823 0.0273211 3.24806e-20)
(1.01246 0.0251748 0)
(1.01659 0.0223655 0)
(1.02066 0.0189794 -7.87404e-21)
(1.02475 0.0150923 2.48951e-19)
(1.02899 0.0107665 1.23673e-19)
(1.03351 0.00605327 0)
(1.03854 0.000997271 1.21168e-19)
(1.04432 -0.00437223 2.94935e-20)
(1.05121 -0.0100428 -2.96072e-20)
(1.05969 -0.0160037 7.16696e-21)
(1.0705 -0.0222523 1.10512e-19)
(1.08487 -0.0288057 4.32934e-19)
(1.10485 -0.0357245 2.10247e-19)
(1.13198 -0.0428341 -4.99261e-20)
(1.13626 -0.045806 -4.94934e-20)
(0.969425 -0.0313179 -8.14834e-20)
(0.486086 -0.00594055 1.63733e-19)
(0.264019 0.000989826 0)
(0.812653 0.0180922 -2.50619e-20)
(1.09998 0.0376042 2.11291e-20)
(1.14907 0.0410297 -2.08437e-20)
(1.12383 0.0352992 4.42257e-20)
(1.09986 0.028531 4.7602e-20)
(1.08376 0.0221662 -9.91015e-20)
(1.07219 0.016083 8.26269e-22)
(1.06327 0.0101985 -5.36723e-20)
(1.05606 0.0044944 -1.13853e-19)
(1.04999 -0.00102591 -1.16809e-19)
(1.04466 -0.00634213 0)
(1.03979 -0.0114242 1.2602e-19)
(1.03517 -0.0162297 0)
(1.03061 -0.0207023 -2.88451e-19)
(1.02596 -0.024777 -3.46704e-20)
(1.02107 -0.028361 -1.53637e-19)
(1.01589 -0.0313215 2.45705e-19)
(1.01038 -0.0335195 -3.43805e-19)
(1.00452 -0.0347987 0)
(0.998375 -0.0349888 1.96033e-19)
(0.992052 -0.0339276 -3.13815e-19)
(0.985774 -0.0315136 1.11995e-19)
(0.979805 -0.0276642 0)
(0.974469 -0.0223977 -1.24903e-19)
(0.970122 -0.0158321 6.47345e-20)
(0.967106 -0.00829944 1.40493e-19)
(0.965667 -0.000148316 1.4098e-19)
(0.965933 0.00817522 -1.44639e-19)
(0.96786 0.0160593 0)
(0.971259 0.0231523 0)
(0.975855 0.029076 1.77875e-19)
(0.981274 0.0336105 6.01227e-22)
(0.987189 0.0367016 -2.41829e-19)
(0.993323 0.0383888 -4.07443e-19)
(0.999449 0.0387578 6.60942e-20)
(1.00537 0.0379046 -3.27699e-20)
(1.011 0.0360333 0)
(1.01634 0.0332998 0)
(1.02141 0.0298499 1.09472e-19)
(1.02628 0.0258117 1.37799e-19)
(1.03105 0.0212926 -1.4217e-20)
(1.03586 0.0163855 0)
(1.04088 0.0111606 -1.18254e-19)
(1.04635 0.00566785 8.67668e-20)
(1.05252 -5.1599e-05 2.29531e-19)
(1.05979 -0.00597046 0)
(1.06862 -0.0120659 0)
(1.0798 -0.0183293 6.68705e-21)
(1.09455 -0.0247889 -1.55927e-19)
(1.11497 -0.0315032 1.50919e-19)
(1.14005 -0.037967 -2.44953e-20)
(1.12889 -0.039163 2.15319e-19)
(0.937581 -0.0249316 -2.15819e-19)
(0.464131 -0.00455693 3.46154e-19)
(0.253591 0.000773419 0)
(0.783323 0.0143928 -1.11786e-20)
(1.08234 0.0316036 2.79103e-20)
(1.15199 0.0361912 -1.82326e-20)
(1.13351 0.0314924 -3.93509e-20)
(1.10965 0.0249975 -8.2584e-20)
(1.0931 0.0186888 -4.38865e-20)
(1.08126 0.0125694 -4.60682e-20)
(1.07215 0.00655312 0)
(1.06475 0.000612052 0)
(1.05848 -0.00525128 0)
(1.0529 -0.011016 0)
(1.04774 -0.016657 5.6232e-20)
(1.04275 -0.0221223 -1.17959e-19)
(1.03771 -0.0273476 0)
(1.03244 -0.032282 1.01848e-19)
(1.02676 -0.0367696 -6.92119e-20)
(1.02056 -0.0406471 5.58089e-21)
(1.01376 -0.0437402 1.66324e-19)
(1.00631 -0.0458069 3.5621e-21)
(0.998264 -0.0465803 1.94749e-19)
(0.989721 -0.0457502 -2.06204e-19)
(0.980973 -0.0430815 0)
(0.972428 -0.0383842 -1.2325e-19)
(0.964596 -0.0315684 -1.30936e-19)
(0.958075 -0.0227348 0)
(0.953497 -0.0122947 -1.46977e-19)
(0.951314 -0.000855773 1.91915e-19)
(0.951776 0.0108752 3.91475e-20)
(0.954795 0.0218956 -2.11553e-19)
(0.960023 0.0316412 -7.64087e-20)
(0.966914 0.0395172 -1.28768e-19)
(0.974849 0.0452923 1.43735e-19)
(0.983277 0.0489841 0)
(0.991779 0.0507528 2.72167e-19)
(0.999974 0.0507351 -3.30545e-20)
(1.00766 0.0492411 3.24345e-20)
(1.01478 0.0465611 0)
(1.02132 0.0429372 3.1081e-20)
(1.02736 0.0385806 1.52457e-19)
(1.03299 0.0336668 0)
(1.03836 0.0283397 -1.17392e-19)
(1.04366 0.0227011 -1.1479e-19)
(1.04908 0.0168311 0)
(1.05485 0.0107967 1.1141e-19)
(1.06127 0.00464439 -5.49062e-20)
(1.06872 -0.00159666 0)
(1.07773 -0.00790965 -5.25388e-20)
(1.08908 -0.0142919 -1.03155e-19)
(1.10408 -0.0207746 -1.00318e-19)
(1.12461 -0.0273842 4.87866e-20)
(1.1465 -0.0332766 1.39817e-19)
(1.11998 -0.0332258 9.35119e-20)
(0.910389 -0.0199699 -1.86528e-19)
(0.447294 -0.00352493 -1.20083e-19)
(0.245385 0.000616951 0)
(0.75904 0.0115534 0)
(1.06539 0.0264945 0)
(1.1531 0.0316383 0)
(1.14236 0.027812 0)
(1.1193 0.0215596 0)
(1.10247 0.0152451 0)
(1.0905 0.00902665 0)
(1.08134 0.0028172 8.34764e-20)
(1.07392 -0.00342121 0)
(1.06761 -0.00969289 -8.94283e-20)
(1.06197 -0.0159948 0)
(1.05669 -0.0223004 0)
(1.05152 -0.028572 2.1221e-19)
(1.04618 -0.0347718 0)
(1.04043 -0.0408043 0)
(1.03407 -0.0465274 0)
(1.02692 -0.0517577 1.40778e-19)
(1.01879 -0.0562411 -1.46662e-19)
(1.00957 -0.0596683 0)
(0.999224 -0.0616355 -9.18297e-20)
(0.987835 -0.0616501 -2.15458e-19)
(0.975664 -0.0591665 0)
(0.963325 -0.053781 -1.22409e-19)
(0.951625 -0.045169 2.94357e-21)
(0.941583 -0.0332821 -4.42156e-19)
(0.934369 -0.0186211 -1.61053e-19)
(0.930916 -0.00220277 -1.29405e-21)
(0.931719 0.0147105 -8.2716e-20)
(0.936607 0.0304143 1.02533e-20)
(0.944856 0.0439051 1.58652e-19)
(0.9554 0.0542707 1.90339e-20)
(0.967129 0.0613603 4.59008e-21)
(0.979171 0.0654112 -8.50641e-19)
(0.990821 0.0667316 2.03342e-19)
(1.00161 0.065766 3.30868e-20)
(1.0114 0.0630716 6.38953e-20)
(1.02014 0.0590692 3.09025e-20)
(1.02791 0.054114 2.97602e-20)
(1.03486 0.0484926 -3.50876e-19)
(1.04117 0.0424147 -3.39192e-19)
(1.04701 0.0360449 -4.56715e-19)
(1.05263 0.0294985 -1.10282e-19)
(1.05825 0.0228513 0)
(1.06413 0.0161681 2.69214e-20)
(1.07062 0.00949338 0)
(1.0781 0.00284823 -5.14232e-20)
(1.08713 -0.00375617 -5.02694e-20)
(1.09854 -0.0103319 -2.45718e-20)
(1.11365 -0.0169177 9.56063e-20)
(1.13394 -0.0234859 0)
(1.15165 -0.0288871 0)
(1.11059 -0.0280379 0)
(0.887489 -0.016076 2.58617e-20)
(0.434369 -0.00274762 1.18261e-19)
(0.238883 0.000492959 0)
(0.739005 0.00936282 0)
(1.04973 0.0222265 6.87946e-21)
(1.15295 0.0275012 1.31088e-20)
(1.15046 0.0243771 0)
(1.12884 0.0183512 0)
(1.11197 0.0120027 3.08857e-20)
(1.09999 0.00564677 0)
(1.09093 -0.000792873 6.97819e-20)
(1.08365 -0.00736509 0)
(1.07748 -0.0140942 -1.50352e-19)
(1.07198 -0.0209943 -3.87955e-20)
(1.06683 -0.0280554 1.65468e-19)
(1.06171 -0.0352619 3.68609e-19)
(1.05633 -0.0426371 -9.693e-20)
(1.0504 -0.0500583 2.65697e-20)
(1.04365 -0.0574067 5.44992e-20)
(1.03577 -0.0645125 0)
(1.02646 -0.0710958 0)
(1.01542 -0.0767413 0)
(1.00246 -0.0809254 8.54185e-20)
(0.987527 -0.0828986 -1.05444e-19)
(0.970745 -0.0816894 -6.67713e-19)
(0.952758 -0.0762877 1.23332e-19)
(0.934859 -0.0658996 -2.85992e-19)
(0.918792 -0.0499653 -6.33085e-19)
(0.906836 -0.028955 2.61625e-19)
(0.901062 -0.00456288 -1.84393e-19)
(0.902503 0.0205838 -1.83195e-19)
(0.910833 0.0436426 -2.34603e-20)
(0.924419 0.062483 -8.6743e-20)
(0.941016 0.0758556 -1.64788e-19)
(0.958621 0.0839737 -3.06711e-19)
(0.975799 0.087536 -5.79682e-19)
(0.991534 0.0873393 1.34689e-19)
(1.00547 0.0844402 -1.31085e-19)
(1.01755 0.079644 9.44597e-20)
(1.02793 0.0735767 -3.58701e-19)
(1.03683 0.0667083 -1.16851e-19)
(1.0445 0.0593687 -1.11797e-19)
(1.05123 0.0517856 2.21322e-19)
(1.05728 0.0441178 0)
(1.06295 0.0364768 -7.91381e-20)
(1.06853 0.0289268 0)
(1.07433 0.0215091 0)
(1.0807 0.014244 5.05855e-20)
(1.08804 0.00713972 7.42981e-20)
(1.09695 0.000191142 4.77531e-20)
(1.10827 -0.00662777 4.63956e-20)
(1.12335 -0.0133612 4.49385e-20)
(1.14299 -0.0199165 0)
(1.15582 -0.0249016 -2.19582e-20)
(1.10133 -0.0236044 -4.40392e-20)
(0.86826 -0.0130318 1.02387e-19)
(0.424448 -0.00218487 -3.41376e-19)
(0.233599 0.000405931 0)
(0.722348 0.00770025 -6.79815e-21)
(1.03557 0.0187336 0)
(1.15201 0.0238775 0)
(1.15789 0.0213017 2.19958e-20)
(1.13828 0.0154948 2.38105e-20)
(1.12159 0.00910869 -1.25726e-20)
(1.10974 0.00260566 0)
(1.10093 -0.00406528 1.38102e-20)
(1.09395 -0.0109708 -2.8406e-20)
(1.08814 -0.018158 0)
(1.08303 -0.0256657 -3.05038e-20)
(1.07827 -0.0335268 -1.08263e-21)
(1.07355 -0.0417851 -2.57836e-20)
(1.06849 -0.050458 1.64269e-20)
(1.06283 -0.0595035 -3.60123e-21)
(1.05617 -0.0688747 9.13214e-20)
(1.04808 -0.0784334 0)
(1.03807 -0.0879581 2.167e-19)
(1.0256 -0.0970417 5.24685e-22)
(1.01008 -0.105003 0)
(0.991085 -0.110883 -2.58349e-19)
(0.968374 -0.113188 -1.00333e-19)
(0.942164 -0.109813 4.86244e-19)
(0.914053 -0.0986295 3.03171e-21)
(0.8871 -0.0778083 0)
(0.865885 -0.0469036 1.80561e-19)
(0.855386 -0.00889847 -1.11499e-19)
(0.858227 0.0306902 1.05322e-19)
(0.873519 0.0659096 -4.00408e-19)
(0.897217 0.0923043 1.79164e-19)
(0.924264 0.108606 3.39613e-19)
(0.951039 0.11634 6.12369e-19)
(0.975218 0.117279 -1.39815e-19)
(0.995973 0.113623 -1.47197e-19)
(1.01333 0.107106 1.24255e-19)
(1.02764 0.0988962 -4.70955e-19)
(1.03934 0.089789 3.4837e-19)
(1.04891 0.0802863 1.10952e-19)
(1.05682 0.0707159 0)
(1.06352 0.0612889 1.53711e-19)
(1.06941 0.052115 -4.86339e-20)
(1.07482 0.0432466 0)
(1.0801 0.0347063 -9.68376e-20)
(1.08558 0.0264953 -9.70618e-20)
(1.0916 0.0186091 9.42514e-20)
(1.09863 0.0110267 -2.3465e-19)
(1.10725 0.00371782 -9.24354e-20)
(1.11835 -0.00335865 4.46689e-20)
(1.13323 -0.0102504 4.32775e-20)
(1.15183 -0.0167889 -2.09345e-20)
(1.15923 -0.0214095 -6.16651e-20)
(1.09238 -0.0198817 1.04326e-20)
(0.851607 -0.0106333 -1.22894e-20)
(0.415942 -0.00178602 0)
(0.229208 0.000357125 0)
(0.708395 0.00647301 0)
(1.02287 0.015977 -8.46534e-21)
(1.15056 0.0208506 0)
(1.16472 0.0186995 -8.28009e-21)
(1.14761 0.0131147 8.7426e-21)
(1.13134 0.00671797 1.8401e-20)
(1.11976 0.000101192 0)
(1.11131 -0.00676518 3.97903e-20)
(1.10481 -0.0139646 0)
(1.09954 -0.0215692 -8.60076e-20)
(1.09507 -0.0296488 -4.45311e-20)
(1.09101 -0.038284 -1.44758e-21)
(1.08707 -0.0475269 -5.28449e-20)
(1.08287 -0.057535 5.0857e-20)
(1.07807 -0.0683179 5.67561e-20)
(1.07224 -0.0799552 -2.70179e-20)
(1.06485 -0.0924601 -1.04583e-19)
(1.0552 -0.105774 -3.31515e-20)
(1.04239 -0.11965 9.02281e-20)
(1.02535 -0.133595 0)
(1.00277 -0.146493 -1.71002e-20)
(0.973265 -0.156436 1.68298e-19)
(0.935999 -0.160148 0)
(0.891244 -0.152382 0)
(0.84343 -0.127278 3.73595e-19)
(0.802217 -0.0807616 -1.99516e-21)
(0.78093 -0.0172584 1.0431e-20)
(0.787178 0.0502444 -5.09503e-19)
(0.818325 0.106923 4.63847e-19)
(0.862769 0.143273 3.9736e-19)
(0.908335 0.159893 6.93417e-19)
(0.948678 0.162558 5.17393e-19)
(0.98163 0.156537 2.77052e-19)
(1.00772 0.146005 0)
(1.02798 0.133381 0)
(1.04358 0.120042 2.79154e-19)
(1.05558 0.106746 7.09384e-22)
(1.06494 0.0939158 -1.07593e-19)
(1.07238 0.0817238 -9.71078e-20)
(1.07846 0.0702309 -1.91174e-19)
(1.08368 0.0594304 1.41763e-19)
(1.08841 0.0492842 0)
(1.09302 0.0397511 4.60344e-20)
(1.09787 0.0307721 -4.4817e-20)
(1.10332 0.0222929 0)
(1.10982 0.014264 0)
(1.11799 0.0066262 -1.34853e-21)
(1.12871 -0.000680228 0)
(1.14321 -0.00770826 0)
(1.1604 -0.0142139 -3.04847e-22)
(1.16208 -0.018525 0)
(1.08414 -0.0169204 -5.96231e-20)
(0.837467 -0.00882768 0)
(0.408526 -0.00145401 -8.7431e-20)
(0.225456 0.000320481 0)
(0.696607 0.00562796 9.06185e-22)
(1.01164 0.0139183 7.37113e-22)
(1.1489 0.0184806 0)
(1.17103 0.0166623 7.00598e-22)
(1.15676 0.0113069 0)
(1.14115 0.00494452 0)
(1.12994 -0.00172912 0)
(1.12199 -0.00871607 0)
(1.1161 -0.0161115 0)
(1.11158 -0.024009 0)
(1.10798 -0.0325085 0)
(1.10496 -0.0417219 0)
(1.10219 -0.0518321 4.20986e-20)
(1.09938 -0.0630021 -1.62894e-20)
(1.09618 -0.0753861 -3.21231e-20)
(1.09217 -0.0892184 -3.11827e-20)
(1.08677 -0.104762 4.83155e-21)
(1.0792 -0.122301 -3.21839e-20)
(1.06831 -0.14207 -2.04343e-21)
(1.05246 -0.164141 1.45574e-19)
(1.02921 -0.188161 -1.22453e-19)
(0.995085 -0.212604 0)
(0.945711 -0.233817 1.67741e-19)
(0.87647 -0.242936 -1.10663e-18)
(0.787513 -0.222603 7.4218e-19)
(0.698148 -0.153024 5.09136e-19)
(0.648792 -0.0356319 2.11848e-18)
(0.664266 0.0942342 0)
(0.736428 0.191489 1.03e-18)
(0.826633 0.235652 -1.52035e-18)
(0.903988 0.240486 -4.73e-19)
(0.96165 0.226416 -1.3784e-19)
(1.00292 0.205405 -7.6038e-19)
(1.03204 0.182829 3.18542e-21)
(1.05259 0.161033 7.17749e-19)
(1.06724 0.140924 -5.32904e-20)
(1.07783 0.122653 2.92064e-19)
(1.08562 0.106143 9.39947e-20)
(1.0915 0.0912054 1.78988e-19)
(1.09614 0.0776525 0)
(1.10003 0.0653062 4.44972e-20)
(1.10359 0.053997 8.03894e-20)
(1.10718 0.0435805 8.16369e-20)
(1.11111 0.0339446 -4.19437e-20)
(1.11575 0.024982 1.43357e-19)
(1.12155 0.0166007 -3.8134e-20)
(1.12912 0.00871069 -1.62256e-19)
(1.13936 0.00124025 -1.91507e-20)
(1.1533 -0.00586634 -3.8336e-20)
(1.16873 -0.0122883 -3.66686e-20)
(1.16449 -0.0163013 1.88408e-20)
(1.0765 -0.0146837 1.93465e-20)
(0.825208 -0.00756351 6.4963e-22)
(0.402228 -0.00127866 4.2652e-20)
(0.221756 0.000342729 1.13227e-20)
(0.686125 0.00515186 -1.64001e-20)
(1.00146 0.0125283 5.68436e-23)
(1.14706 0.016794 6.06424e-21)
(1.17685 0.0152449 -6.00975e-21)
(1.16569 0.010141 -6.12034e-21)
(1.15091 0.00388589 0)
(1.14016 -0.00275103 -7.42885e-23)
(1.13278 -0.00974225 -2.82446e-21)
(1.12762 -0.0171888 1.22116e-21)
(1.12398 -0.0252002 -1.05191e-21)
(1.12145 -0.0338923 -9.52886e-22)
(1.11971 -0.0434231 5.13241e-22)
(1.1185 -0.0540192 1.31497e-22)
(1.1176 -0.0659001 5.41284e-21)
(1.11674 -0.0793515 6.8897e-21)
(1.11559 -0.0947997 -5.7764e-21)
(1.11374 -0.11276 3.44096e-21)
(1.11047 -0.133946 0)
(1.10478 -0.159385 0)
(1.09507 -0.190258 -3.4451e-21)
(1.07831 -0.228168 4.25277e-20)
(1.04918 -0.274864 -9.36869e-20)
(0.997833 -0.331076 1.01084e-19)
(0.905135 -0.392357 -1.7221e-19)
(0.741612 -0.422389 0)
(0.51988 -0.3329 3.25455e-18)
(0.387533 -0.0835509 -1.14947e-18)
(0.430509 0.210763 -5.09888e-18)
(0.626684 0.388766 2.07802e-18)
(0.820124 0.408396 0)
(0.941136 0.358866 -1.02324e-18)
(1.00969 0.304874 4.07648e-19)
(1.04992 0.257273 3.74846e-19)
(1.07446 0.217718 1.83484e-19)
(1.08987 0.185063 1.75194e-19)
(1.09982 0.157817 2.56324e-19)
(1.10644 0.134725 0)
(1.11086 0.114904 -6.07378e-20)
(1.11394 0.0976586 4.76044e-19)
(1.1163 0.0824531 0)
(1.11824 0.0689104 -1.04361e-21)
(1.12015 0.0567483 -1.85304e-20)
(1.12233 0.0457221 -5.69861e-20)
(1.12507 0.0356497 -1.87489e-20)
(1.12869 0.0263897 3.62725e-20)
(1.13363 0.0178121 -1.83126e-20)
(1.14046 0.0098073 -1.85734e-20)
(1.15009 0.0022789 -6.99092e-22)
(1.16332 -0.00481698 1.3539e-20)
(1.17671 -0.0110956 1.25909e-20)
(1.16656 -0.0148147 -2.53163e-20)
(1.0696 -0.0131917 -3.60344e-20)
(0.814649 -0.00680393 -2.12268e-20)
(0.396789 -0.00122583 -3.95078e-20)
(0.213661 0.000412092 -3.92347e-20)
(0.673559 0.00498657 0)
(0.990506 0.0116523 -1.09234e-20)
(1.14459 0.0156925 9.52062e-21)
(1.18215 0.0144324 7.89078e-21)
(1.17436 0.0096528 0)
(1.16052 0.00361031 1.60704e-21)
(1.15026 -0.00286722 0)
(1.14347 -0.00971973 0)
(1.13908 -0.0170369 -8.01817e-21)
(1.1364 -0.0249244 0)
(1.13503 -0.0335139 2.05885e-20)
(1.13471 -0.0429842 5.84962e-22)
(1.13526 -0.0535645 -4.10505e-21)
(1.13657 -0.0655046 -7.44279e-21)
(1.13852 -0.0791592 -9.36472e-21)
(1.14101 -0.0950276 -8.47805e-21)
(1.14392 -0.113808 -3.07632e-21)
(1.14707 -0.136501 1.93679e-20)
(1.15017 -0.164694 -3.13406e-20)
(1.15266 -0.200739 1.67326e-19)
(1.15327 -0.248659 -5.31083e-20)
(1.14963 -0.315415 0)
(1.13693 -0.417509 0)
(1.07818 -0.577295 4.27973e-19)
(0.814096 -0.667713 0)
(0.212932 -0.361126 5.04472e-17)
(0.360675 0.454367 -8.9711e-20)
(0.907249 0.660723 -5.75963e-20)
(1.09133 0.489497 -2.13901e-19)
(1.11818 0.369056 2.22897e-19)
(1.13043 0.291832 5.26832e-19)
(1.13633 0.237821 4.04724e-19)
(1.13902 0.19739 -8.01014e-20)
(1.1399 0.165613 3.67996e-22)
(1.1399 0.139734 1.92423e-20)
(1.13937 0.118086 1.31735e-22)
(1.13864 0.0996331 -6.72886e-20)
(1.13794 0.0836222 1.55777e-20)
(1.13746 0.0695425 -3.36726e-20)
(1.13739 0.0570245 -1.73441e-20)