/*--------------------------------*- C++ -*----------------------------------*\
  =========                 |
  \\      /  F ield         | OpenFOAM: The Open Source CFD Toolbox
   \\    /   O peration     | Website:  https://openfoam.org
    \\  /    A nd           | Version:  7
     \\/     M anipulation  |
\*---------------------------------------------------------------------------*/
FoamFile
{
    version     2.0;
    format      ascii;
    class       volSymmTensorField;
    location    "200";
    object      devReff;
}
// * * * * * * * * * * * * * * * * * * * * * * * * * * * * * * * * * * * * * //

dimensions      [0 2 -2 0 0 0 0];

internalField   nonuniform List<symmTensor> 
180
(
(2.91537e-21 -0.0515079 -0 -5.83073e-21 -0 2.91537e-21)
(-2.22973e-22 -0.0894295 -0 4.45946e-22 -0 -2.22973e-22)
(-3.21557e-20 -0.0296112 -0 6.43115e-20 -0 -3.21557e-20)
(1.68944e-20 -0.0459248 -0 -3.37887e-20 -0 1.68944e-20)
(2.49247e-20 -0.0265728 -0 -4.98495e-20 -0 2.49247e-20)
(-2.61223e-20 -0.0366097 -0 5.22445e-20 -0 -2.61223e-20)
(-6.57736e-19 -0.0251795 -0 2.87753e-19 -0 3.69983e-19)
(8.60678e-19 -0.0296477 -0 -4.5958e-19 -0 -4.01098e-19)
(-6.06439e-19 -0.023115 -0 4.07699e-19 -0 1.98741e-19)
(7.21054e-19 -0.0242627 -0 -5.28601e-19 -0 -1.92453e-19)
(-1.20875e-19 -0.0199829 -0 2.41749e-19 -0 -1.20875e-19)
(-7.63179e-21 -0.0196297 -0 1.52636e-20 -0 -7.63179e-21)
(-1.4675e-19 -0.0160977 -0 2.935e-19 -0 -1.4675e-19)
(-1.26211e-19 -0.0153009 -0 2.52421e-19 -0 -1.26211e-19)
(-8.38294e-20 -0.0117094 -0 1.67659e-19 -0 -8.38294e-20)
(-1.11746e-19 -0.0109529 -0 2.23492e-19 -0 -1.11746e-19)
(1.06582e-20 -0.0069726 -0 -2.13165e-20 -0 1.06582e-20)
(-8.95986e-20 -0.0064 -0 1.79197e-19 -0 -8.95986e-20)
(-2.87119e-20 -0.00195873 -0 5.74237e-20 -0 -2.87119e-20)
(-2.95336e-20 -0.00155934 -0 5.90672e-20 -0 -2.95336e-20)
(1.35541e-19 0.00330828 -0 -2.71081e-19 -0 1.35541e-19)
(8.79572e-20 0.00359141 -0 -1.75914e-19 -0 8.79572e-20)
(4.05895e-19 0.00882313 -0 -8.11791e-19 -0 4.05895e-19)
(1.09951e-19 0.00904564 -0 -2.19901e-19 -0 1.09951e-19)
(3.08631e-19 0.0145832 -0 -6.17262e-19 -0 3.08631e-19)
(-1.15639e-19 0.0147854 -0 2.31278e-19 -0 -1.15639e-19)
(4.27939e-19 0.0205822 -0 -8.55878e-19 -0 4.27939e-19)
(-5.81174e-19 0.0207892 -0 1.16235e-18 -0 -5.81174e-19)
(4.42931e-19 0.0268089 -0 -8.85861e-19 -0 4.42931e-19)
(-6.3294e-19 0.0270354 -0 1.26588e-18 -0 -6.3294e-19)
(-1.96169e-19 0.0332482 -0 3.92339e-19 -0 -1.96169e-19)
(3.55729e-20 0.0335022 -0 -7.11459e-20 -0 3.55729e-20)
(-4.94731e-19 0.039882 -0 9.89462e-19 -0 -4.94731e-19)
(4.47097e-19 0.0401679 -0 -8.94194e-19 -0 4.47097e-19)
(1.25879e-19 0.0466901 -0 -2.51759e-19 -0 1.25879e-19)
(3.3615e-19 0.0470108 -0 -6.72299e-19 -0 3.3615e-19)
(7.31627e-19 0.0536514 -0 -1.46325e-18 -0 7.31627e-19)
(-2.55818e-19 0.0540088 -0 5.11636e-19 -0 -2.55818e-19)
(3.17508e-19 0.0607445 -0 -6.35017e-19 -0 3.17508e-19)
(-7.80122e-19 0.06114 -0 1.56024e-18 -0 -7.80122e-19)
(-1.43012e-19 0.0679472 -0 2.86024e-19 -0 -1.43012e-19)
(-3.92998e-19 0.0683822 -0 7.85996e-19 -0 -3.92998e-19)
(-1.04617e-19 0.0752378 -0 2.09233e-19 -0 -1.04617e-19)
(4.62626e-19 0.0757135 -0 -9.25251e-19 -0 4.62626e-19)
(-5.91358e-20 0.0825947 -0 1.18272e-19 -0 -5.91358e-20)
(9.10094e-19 0.0831122 -0 -1.82019e-18 -0 9.10094e-19)
(-1.70256e-20 0.0899966 -0 3.40512e-20 -0 -1.70256e-20)
(3.99325e-19 0.0905567 -0 -7.9865e-19 -0 3.99325e-19)
(2.49767e-20 0.0974226 -0 -4.99534e-20 -0 2.49767e-20)
(-1.68519e-19 0.0980262 -0 3.37037e-19 -0 -1.68519e-19)
(8.74597e-20 0.104852 -0 -1.74919e-19 -0 8.74597e-20)
(-2.89651e-19 0.1055 -0 5.79301e-19 -0 -2.89651e-19)
(-4.63261e-19 0.112266 -0 9.26523e-19 -0 -4.63261e-19)
(-2.6186e-19 0.112959 -0 5.23721e-19 -0 -2.6186e-19)
(-1.12418e-18 0.119645 -0 2.24837e-18 -0 -1.12418e-18)
(-1.35873e-19 0.120383 -0 2.71746e-19 -0 -1.35873e-19)
(-5.3656e-19 0.12697 -0 1.07312e-18 -0 -5.3656e-19)
(-6.85351e-20 0.127753 -0 1.3707e-19 -0 -6.85351e-20)
(2.37124e-19 0.134224 -0 -4.74249e-19 -0 2.37124e-19)
(-2.57292e-20 0.135053 -0 5.14584e-20 -0 -2.57292e-20)
(4.74808e-19 0.141389 -0 -9.49617e-19 -0 4.74808e-19)
(2.98484e-21 0.142265 -0 -5.96969e-21 -0 2.98484e-21)
(6.17345e-19 0.148451 -0 -1.23469e-18 -0 6.17345e-19)
(2.3619e-20 0.149372 -0 -4.7238e-20 -0 2.3619e-20)
(5.42672e-19 0.155392 -0 -1.08534e-18 -0 5.42672e-19)
(4.28165e-20 0.156359 -0 -8.5633e-20 -0 4.28165e-20)
(3.67558e-19 0.162199 -0 -7.35117e-19 -0 3.67558e-19)
(6.7026e-20 0.163211 -0 -1.34052e-19 -0 6.7026e-20)
(2.08363e-19 0.168858 -0 -4.16727e-19 -0 2.08363e-19)
(1.05736e-19 0.169914 -0 -2.11472e-19 -0 1.05736e-19)
(7.83837e-20 0.175355 -0 -1.56767e-19 -0 7.83837e-20)
(1.72564e-19 0.176456 -0 -3.45128e-19 -0 1.72564e-19)
(3.58001e-21 0.181677 -0 -7.16002e-21 -0 3.58001e-21)
(3.07853e-19 0.182824 -0 -6.15706e-19 -0 3.07853e-19)
(-3.58801e-20 0.187812 -0 7.17602e-20 -0 -3.58801e-20)
(4.52083e-19 0.189144 -0 -9.04166e-19 -0 4.52083e-19)
(-5.969e-20 0.195347 -0 1.1938e-19 -0 -5.969e-20)
(-2.15193e-19 0.19712 -0 4.30387e-19 -0 -2.15193e-19)
(-7.21808e-20 0.200645 -0 1.44362e-19 -0 -7.21808e-20)
(-9.93538e-19 0.201772 -0 1.98708e-18 -0 -9.93538e-19)
(-7.20238e-20 0.20467 -0 1.44048e-19 -0 -7.20238e-20)
(-5.11719e-19 0.205852 -0 1.02344e-18 -0 -5.11719e-19)
(-6.39253e-20 0.208632 -0 1.27851e-19 -0 -6.39253e-20)
(-4.906e-20 0.209865 -0 9.812e-20 -0 -4.906e-20)
(-6.88883e-20 0.212458 -0 1.37777e-19 -0 -6.88883e-20)
(5.31292e-19 0.213737 -0 -1.06258e-18 -0 5.31292e-19)
(-7.15207e-20 0.216096 -0 1.43041e-19 -0 -7.15207e-20)
(1.0892e-18 0.217417 -0 -2.17841e-18 -0 1.0892e-18)
(-5.55315e-20 0.219514 -0 1.11063e-19 -0 -5.55315e-20)
(3.20408e-19 0.220876 -0 -6.40817e-19 -0 3.20408e-19)
(-3.78746e-20 0.2227 -0 7.57491e-20 -0 -3.78746e-20)
(-3.36273e-19 0.224101 -0 6.72545e-19 -0 -3.36273e-19)
(-1.728e-20 0.225648 -0 3.45599e-20 -0 -1.728e-20)
(-2.24379e-19 0.227088 -0 4.48757e-19 -0 -2.24379e-19)
(7.09529e-21 0.228355 -0 -1.41906e-20 -0 7.09529e-21)
(-1.24084e-19 0.229833 -0 2.48169e-19 -0 -1.24084e-19)
(3.62721e-20 0.23082 -0 -7.25442e-20 -0 3.62721e-20)
(-1.1388e-19 0.232336 -0 2.27759e-19 -0 -1.1388e-19)
(7.0864e-20 0.233042 -0 -1.41728e-19 -0 7.0864e-20)
(-1.37892e-19 0.234595 -0 2.75784e-19 -0 -1.37892e-19)
(1.09819e-19 0.235016 -0 -2.19638e-19 -0 1.09819e-19)
(2.28389e-19 0.236605 -0 -4.56777e-19 -0 2.28389e-19)
(1.22705e-19 0.236739 -0 -2.45409e-19 -0 1.22705e-19)
(6.25444e-19 0.238363 -0 -1.25089e-18 -0 6.25444e-19)
(1.44025e-19 0.238204 -0 -2.88049e-19 -0 1.44025e-19)
(3.38193e-19 0.239864 -0 -6.76386e-19 -0 3.38193e-19)
(1.50167e-19 0.239409 -0 -3.00334e-19 -0 1.50167e-19)
(5.399e-20 0.241102 -0 -1.0798e-19 -0 5.399e-20)
(-1.57283e-20 0.240351 -0 3.14566e-20 -0 -1.57283e-20)
(3.55016e-21 0.242076 -0 -7.10033e-21 -0 3.55016e-21)
(-1.80919e-19 0.241033 -0 3.61839e-19 -0 -1.80919e-19)
(-1.34354e-19 0.242787 -0 2.68708e-19 -0 -1.34354e-19)
(-1.65245e-19 0.241468 -0 3.30489e-19 -0 -1.65245e-19)
(-2.17854e-19 0.243248 -0 4.35708e-19 -0 -2.17854e-19)
(-1.18957e-19 0.24168 -0 2.37914e-19 -0 -1.18957e-19)
(-1.77483e-19 0.24348 -0 3.54966e-19 -0 -1.77483e-19)
(-6.4173e-20 0.2417 -0 1.28346e-19 -0 -6.4173e-20)
(-7.88643e-20 0.243514 -0 1.57729e-19 -0 -7.88643e-20)
(-3.27946e-20 0.239768 -0 6.55892e-20 -0 -3.27946e-20)
(2.12909e-20 0.242095 -0 -4.25818e-20 -0 2.12909e-20)
(-8.68279e-20 0.237189 -0 1.73656e-19 -0 -8.68279e-20)
(4.50215e-20 0.239221 -0 -9.0043e-20 -0 4.50215e-20)
(-3.82091e-20 0.235286 -0 7.64183e-20 -0 -3.82091e-20)
(-5.64499e-20 0.237326 -0 1.129e-19 -0 -5.64499e-20)
(1.3257e-19 0.233119 -0 -2.65141e-19 -0 1.3257e-19)
(-1.04755e-19 0.235162 -0 2.0951e-19 -0 -1.04755e-19)
(-1.91683e-19 0.230691 -0 3.83365e-19 -0 -1.91683e-19)
(-6.23033e-20 0.232732 -0 1.24607e-19 -0 -6.23033e-20)
(-5.82592e-19 0.228004 -0 1.16518e-18 -0 -5.82592e-19)
(-2.63815e-20 0.230038 -0 5.27631e-20 -0 -2.63815e-20)
(-1.57647e-19 0.225062 -0 3.15295e-19 -0 -1.57647e-19)
(3.37171e-21 0.227085 -0 -6.74342e-21 -0 3.37171e-21)
(1.96197e-19 0.221867 -0 -3.92394e-19 -0 1.96197e-19)
(2.68894e-20 0.223877 -0 -5.37787e-20 -0 2.68894e-20)
(8.09075e-20 0.218424 -0 -1.61815e-19 -0 8.09075e-20)
(4.35914e-20 0.220417 -0 -8.71828e-20 -0 4.35914e-20)
(-2.79723e-20 0.214735 -0 5.59446e-20 -0 -2.79723e-20)
(5.41407e-20 0.21671 -0 -1.08281e-19 -0 5.41407e-20)
(-1.18448e-19 0.210807 -0 2.36896e-19 -0 -1.18448e-19)
(5.99079e-20 0.21276 -0 -1.19816e-19 -0 5.99079e-20)
(-2.09914e-19 0.206642 -0 4.19828e-19 -0 -2.09914e-19)
(6.2527e-20 0.208571 -0 -1.25054e-19 -0 6.2527e-20)
(1.67403e-19 0.202248 -0 -3.34806e-19 -0 1.67403e-19)
(6.3061e-20 0.204148 -0 -1.26122e-19 -0 6.3061e-20)
(5.36156e-19 0.197628 -0 -1.07231e-18 -0 5.36156e-19)
(6.18872e-20 0.199498 -0 -1.23774e-19 -0 6.18872e-20)
(3.34467e-20 0.192789 -0 -6.68934e-20 -0 3.34467e-20)
(5.86787e-20 0.194625 -0 -1.17357e-19 -0 5.86787e-20)
(-3.70969e-19 0.187737 -0 7.41939e-19 -0 -3.70969e-19)
(5.20135e-20 0.189537 -0 -1.04027e-19 -0 5.20135e-20)
(-8.89788e-20 0.182479 -0 1.77958e-19 -0 -8.89788e-20)
(3.95766e-20 0.184239 -0 -7.91532e-20 -0 3.95766e-20)
(1.55933e-19 0.177022 -0 -3.11867e-19 -0 1.55933e-19)
(-7.49286e-22 0.178739 -0 1.49857e-21 -0 -7.49286e-22)
(-3.60637e-20 0.171373 -0 7.21274e-20 -0 -3.60637e-20)
(1.77348e-19 0.173045 -0 -3.54697e-19 -0 1.77348e-19)
(-1.61784e-19 0.165541 -0 3.23568e-19 -0 -1.61784e-19)
(3.75888e-19 0.167165 -0 -7.51775e-19 -0 3.75888e-19)
(-2.58167e-20 0.159534 -0 5.16334e-20 -0 -2.58167e-20)
(9.08583e-20 0.161107 -0 -1.81717e-19 -0 9.08583e-20)
(6.5022e-20 0.153362 -0 -1.30044e-19 -0 6.5022e-20)
(-1.78363e-19 0.154882 -0 3.56726e-19 -0 -1.78363e-19)
(8.33387e-20 0.147037 -0 -1.66677e-19 -0 8.33387e-20)
(-1.49301e-19 0.148501 -0 2.98603e-19 -0 -1.49301e-19)
(5.35766e-20 0.14057 -0 -1.07153e-19 -0 5.35766e-20)
(-8.95043e-20 0.141976 -0 1.79009e-19 -0 -8.95043e-20)
(3.73886e-21 0.13398 -0 -7.47772e-21 -0 3.73886e-21)
(-2.19756e-20 0.135326 -0 4.39511e-20 -0 -2.19756e-20)
(-4.09637e-20 0.127287 -0 8.19273e-20 -0 -4.09637e-20)
(2.99221e-20 0.128571 -0 -5.98442e-20 -0 2.99221e-20)
(-6.94031e-20 0.120519 -0 1.38806e-19 -0 -6.94031e-20)
(6.09434e-20 0.121739 -0 -1.21887e-19 -0 6.09434e-20)
(-8.62654e-20 0.113711 -0 1.72531e-19 -0 -8.62654e-20)
(7.98793e-20 0.114867 -0 -1.59759e-19 -0 7.98793e-20)
(-9.48135e-20 0.106902 -0 1.89627e-19 -0 -9.48135e-20)
(9.00317e-20 0.107993 -0 -1.80063e-19 -0 9.00317e-20)
(-9.84239e-20 0.100146 -0 1.96848e-19 -0 -9.84239e-20)
(9.47599e-20 0.101173 -0 -1.8952e-19 -0 9.47599e-20)
(-9.31636e-20 0.0483922 -0 1.86327e-19 -0 -9.31636e-20)
(9.09722e-20 0.0488896 -0 -1.81944e-19 -0 9.09722e-20)
)
;

boundaryField
{
    inlet
    {
        type            cyclic;
    }
    outlet
    {
        type            cyclic;
    }
    bottom
    {
        type            symmetry;
    }
    top
    {
        type            calculated;
        value           nonuniform List<symmTensor> 2((8.83829e-21 -0.0345551 -0 -1.76766e-20 -0 8.83829e-21) (-3.53711e-21 -0.0402226 -0 7.07421e-21 -0 -3.53711e-21));
    }
    frontAndBack
    {
        type            empty;
    }
}


// ************************************************************************* //
