/*--------------------------------*- C++ -*----------------------------------*\
  =========                 |
  \\      /  F ield         | OpenFOAM: The Open Source CFD Toolbox
   \\    /   O peration     | Website:  https://openfoam.org
    \\  /    A nd           | Version:  7
     \\/     M anipulation  |
\*---------------------------------------------------------------------------*/
FoamFile
{
    version     2.0;
    format      ascii;
    class       volScalarField;
    location    "200";
    object      k;
}
// * * * * * * * * * * * * * * * * * * * * * * * * * * * * * * * * * * * * * //

dimensions      [0 2 -2 0 0 0 0];

internalField   nonuniform List<scalar> 
180
(
0.10345
0.226479
0.112005
0.13723
0.117296
0.124702
0.12768
0.13076
0.140796
0.142603
0.154959
0.156292
0.169427
0.170512
0.183892
0.184828
0.198256
0.19911
0.212507
0.213332
0.226673
0.227506
0.24079
0.241658
0.254895
0.255814
0.269021
0.270001
0.283196
0.284243
0.297441
0.298559
0.311772
0.312964
0.3262
0.327468
0.340731
0.342079
0.355367
0.356796
0.370106
0.371619
0.384941
0.386541
0.399865
0.401554
0.414863
0.416644
0.42992
0.431796
0.445019
0.446991
0.460138
0.46221
0.475254
0.477428
0.490342
0.492621
0.505376
0.507761
0.520326
0.522821
0.535164
0.53777
0.549858
0.552577
0.564376
0.567211
0.578687
0.581639
0.592758
0.595828
0.606555
0.609745
0.620045
0.623357
0.633195
0.636648
0.646159
0.649784
0.659088
0.662893
0.671825
0.675796
0.684138
0.688258
0.695852
0.700109
0.706866
0.711253
0.717132
0.721647
0.726632
0.731271
0.735358
0.74012
0.743304
0.748187
0.750463
0.755466
0.756826
0.761945
0.762379
0.767613
0.767107
0.772453
0.770999
0.776453
0.774051
0.779607
0.776277
0.781925
0.777717
0.783446
0.778445
0.784238
0.778552
0.784393
0.77812
0.784
0.777202
0.783113
0.775825
0.781765
0.774013
0.779978
0.77179
0.777777
0.769182
0.775187
0.766215
0.772234
0.762916
0.768947
0.759317
0.765355
0.755446
0.76149
0.751338
0.757383
0.747024
0.753068
0.742541
0.748581
0.737923
0.743956
0.733208
0.739232
0.728434
0.734447
0.723641
0.72964
0.718867
0.724852
0.714154
0.720122
0.709543
0.715494
0.705075
0.711008
0.700793
0.706706
0.696737
0.702632
0.692949
0.698825
0.68947
0.695329
0.68634
0.692182
0.683598
0.689424
0.681281
0.687093
0.679424
0.685224
0.678059
0.683849
0.677215
0.682998
)
;

boundaryField
{
    inlet
    {
        type            cyclic;
    }
    outlet
    {
        type            cyclic;
    }
    bottom
    {
        type            symmetry;
    }
    top
    {
        type            kqRWallFunction;
        value           nonuniform List<scalar> 2(0.10345 0.226479);
    }
    frontAndBack
    {
        type            empty;
    }
}


// ************************************************************************* //
