/*--------------------------------*- C++ -*----------------------------------*\
  =========                 |
  \\      /  F ield         | OpenFOAM: The Open Source CFD Toolbox
   \\    /   O peration     | Website:  https://openfoam.org
    \\  /    A nd           | Version:  7
     \\/     M anipulation  |
\*---------------------------------------------------------------------------*/
FoamFile
{
    version     2.0;
    format      ascii;
    class       volScalarField;
    location    "200";
    object      nut;
}
// * * * * * * * * * * * * * * * * * * * * * * * * * * * * * * * * * * * * * //

dimensions      [0 2 -1 0 0 0 0];

internalField   nonuniform List<scalar> 
180
(
1.64981e-05
3.65267e-05
8.6178e-05
0.000125732
0.000179399
0.000247794
0.000319133
0.000394091
0.000505727
0.000575112
0.00072789
0.000782806
0.000972339
0.00101075
0.00122842
0.00125315
0.00148904
0.00150453
0.0017498
0.00176
0.00200782
0.00201552
0.00226108
0.00226792
0.00250802
0.00251487
0.00274747
0.00275471
0.00297851
0.00298629
0.0032005
0.00320886
0.00341304
0.00342196
0.00361589
0.00362535
0.00380901
0.00381898
0.00399246
0.00400293
0.00416643
0.00417735
0.00433115
0.00434252
0.00448695
0.00449874
0.00463417
0.00464636
0.00477319
0.00478577
0.00490439
0.00491734
0.00502819
0.00504148
0.00514497
0.0051586
0.00525512
0.00526906
0.00535902
0.00537326
0.00545703
0.00547156
0.00554951
0.0055643
0.00563678
0.00565182
0.00571915
0.00573443
0.00579692
0.00581241
0.00587036
0.00588605
0.00593972
0.00595559
0.00600525
0.00602129
0.00606717
0.00608344
0.00596226
0.00594898
0.0057972
0.00578668
0.00569177
0.00568813
0.00565127
0.00565333
0.00565492
0.0056606
0.00568161
0.00568925
0.0057169
0.00572548
0.00575278
0.00576181
0.00578565
0.00579492
0.00581453
0.00582391
0.00584015
0.00584945
0.00586476
0.00587362
0.00589263
0.00590036
0.00593067
0.0059362
0.00598901
0.00599084
0.00608087
0.00607719
0.00622078
0.00620982
0.00641901
0.00640047
0.00666835
0.00664684
0.00691854
0.00690825
0.00704337
0.00706795
0.00707193
0.00709696
0.00709853
0.00712399
0.00712316
0.00714904
0.00714585
0.00717212
0.00716663
0.00719328
0.00718552
0.00721254
0.00720257
0.00722992
0.00721779
0.00724547
0.00723124
0.00725922
0.00724296
0.00727123
0.007253
0.00728154
0.00726143
0.00729022
0.0072683
0.00729733
0.0072737
0.00730294
0.00727772
0.00730716
0.00728044
0.00731006
0.00728197
0.00731176
0.00728242
0.00731236
0.00728192
0.007312
0.00728061
0.00731081
0.00727862
0.00730892
0.00727611
0.00730651
0.00727324
0.00730371
0.00727018
0.00730072
0.00726711
0.00729769
0.0072642
0.00729483
0.00726164
0.0072923
0.00725964
0.00729032
0.0072584
0.00728909
0.00725817
0.00728886
)
;

boundaryField
{
    inlet
    {
        type            cyclic;
    }
    outlet
    {
        type            cyclic;
    }
    bottom
    {
        type            symmetry;
    }
    top
    {
        type            nutkWallFunction;
        Cmu             0.09;
        kappa           0.41;
        E               9.8;
        value           nonuniform List<scalar> 2(0 1.9818e-06);
    }
    frontAndBack
    {
        type            empty;
    }
}


// ************************************************************************* //
