/*--------------------------------*- C++ -*----------------------------------*\
  =========                 |
  \\      /  F ield         | OpenFOAM: The Open Source CFD Toolbox
   \\    /   O peration     | Website:  https://openfoam.org
    \\  /    A nd           | Version:  7
     \\/     M anipulation  |
\*---------------------------------------------------------------------------*/
FoamFile
{
    version     2.0;
    format      ascii;
    class       volScalarField;
    location    "200";
    object      omega;
}
// * * * * * * * * * * * * * * * * * * * * * * * * * * * * * * * * * * * * * //

dimensions      [0 0 -1 0 0 0 0];

internalField   nonuniform List<scalar> 
180
(
3820.92
2592
1299.7
949.318
653.827
503.25
400.083
331.802
278.402
247.958
212.889
199.657
174.247
168.698
149.699
147.49
133.143
132.34
121.447
121.211
112.895
112.877
106.493
106.555
101.632
101.72
97.9162
98.0142
95.08
95.1825
92.9359
93.042
91.3475
91.4575
90.213
90.3273
89.454
89.5732
89.0095
89.1339
88.8305
88.9604
88.8773
89.0131
89.1172
89.2591
89.5225
89.6709
90.0698
90.225
90.7388
90.901
91.5116
91.6813
92.3726
92.55
93.3076
93.4931
94.3038
94.4978
95.3497
95.5524
96.4344
96.6464
97.5482
97.7697
98.6818
98.9132
99.8267
100.068
100.975
101.227
102.118
102.382
103.251
103.526
104.364
104.653
105.468
105.772
106.563
106.883
107.625
107.958
108.622
108.966
109.534
109.888
110.35
110.714
111.065
111.438
111.677
112.06
112.186
112.578
112.592
112.993
112.893
113.303
113.086
113.506
113.171
113.6
113.147
113.584
113.012
113.457
112.772
113.223
112.436
112.891
112.018
112.475
111.54
111.995
111.023
111.474
110.476
110.923
109.899
110.345
109.294
109.737
108.662
109.103
108.005
108.444
107.328
107.765
106.633
107.068
105.923
106.356
105.201
105.632
104.47
104.9
103.734
104.162
102.995
103.422
102.258
102.683
101.526
101.949
100.803
101.224
100.091
100.511
99.3952
99.8132
98.7188
99.1351
98.0655
98.4801
97.4389
97.852
96.8429
97.2544
96.2809
96.6909
95.7567
96.1652
95.2737
95.6808
94.8353
95.2411
94.4448
94.8494
94.1052
94.5087
93.8192
94.2217
93.5893
93.991
93.4172
93.8182
93.3039
93.7043
)
;

boundaryField
{
    inlet
    {
        type            cyclic;
    }
    outlet
    {
        type            cyclic;
    }
    bottom
    {
        type            symmetry;
    }
    top
    {
        beta1           0.075;
        blended         0;
        type            omegaWallFunction;
        value           nonuniform List<scalar> 2(3820.92 2592);
    }
    frontAndBack
    {
        type            empty;
    }
}


// ************************************************************************* //
