/*--------------------------------*- C++ -*----------------------------------*\
  =========                 |
  \\      /  F ield         | OpenFOAM: The Open Source CFD Toolbox
   \\    /   O peration     | Website:  https://openfoam.org
    \\  /    A nd           | Version:  7
     \\/     M anipulation  |
\*---------------------------------------------------------------------------*/
FoamFile
{
    version     2.0;
    format      ascii;
    class       volScalarField;
    location    "200";
    object      p;
}
// * * * * * * * * * * * * * * * * * * * * * * * * * * * * * * * * * * * * * //

dimensions      [0 2 -2 0 0 0 0];

internalField   nonuniform List<scalar> 
180
(
-2.6743e-20
-9.77305e-16
-4.15382e-20
-9.77283e-16
-6.56257e-21
-9.77283e-16
6.57812e-20
-9.7733e-16
1.88863e-19
-9.7741e-16
2.51612e-19
-9.77423e-16
5.00116e-19
-9.77595e-16
6.25437e-19
-9.7763e-16
1.02471e-18
-9.77679e-16
1.50576e-18
-9.77743e-16
1.74215e-18
-9.77497e-16
2.39029e-18
-9.77596e-16
3.12069e-18
-9.78128e-16
4.39129e-18
-9.79181e-16
3.2981e-18
-9.77844e-16
3.20086e-18
-9.77485e-16
3.67815e-18
-9.7711e-16
4.19539e-18
-9.77331e-16
4.74975e-18
-9.77574e-16
4.66524e-18
-9.77159e-16
4.58528e-18
-9.76734e-16
4.51189e-18
-9.763e-16
4.44445e-18
-9.75859e-16
4.38457e-18
-9.75411e-16
4.33177e-18
-9.74959e-16
4.28731e-18
-9.75344e-16
4.2508e-18
-9.74885e-16
4.22328e-18
-9.74424e-16
4.20443e-18
-9.73962e-16
5.11553e-18
-9.73499e-16
6.05337e-18
-9.73037e-16
7.01738e-18
-9.72576e-16
7.03663e-18
-9.72117e-16
7.06574e-18
-9.7166e-16
7.10494e-18
-9.71206e-16
7.15413e-18
-9.70755e-16
7.21362e-18
-9.70307e-16
7.28323e-18
-9.69864e-16
7.36294e-18
-9.69428e-16
7.45141e-18
-9.69005e-16
7.54765e-18
-9.68599e-16
7.65137e-18
-9.6821e-16
7.76349e-18
-9.66852e-16
7.88478e-18
-9.66486e-16
8.01599e-18
-9.66129e-16
8.15742e-18
-9.65779e-16
8.30933e-18
-9.65436e-16
8.47164e-18
-9.65101e-16
8.64443e-18
-9.64772e-16
8.82752e-18
-9.64452e-16
9.02102e-18
-9.6414e-16
9.22489e-18
-9.63836e-16
9.43954e-18
-9.63539e-16
9.66548e-18
-9.6325e-16
9.38018e-18
-9.6349e-16
9.09905e-18
-9.63745e-16
9.36802e-18
-9.64015e-16
9.65574e-18
-9.63739e-16
9.96328e-18
-9.63462e-16
1.02888e-17
-9.63187e-16
1.00176e-17
-9.62917e-16
1.03689e-17
-9.63272e-16
1.0731e-17
-9.63018e-16
1.11038e-17
-9.62773e-16
1.14873e-17
-9.62537e-16
1.18814e-17
-9.6231e-16
1.2286e-17
-9.62091e-16
1.27012e-17
-9.61882e-16
1.31266e-17
-9.61682e-16
1.35624e-17
-9.61491e-16
1.40084e-17
-9.61309e-16
1.44646e-17
-9.61137e-16
1.49308e-17
-9.60973e-16
1.47765e-17
-9.6082e-16
1.52626e-17
-9.60676e-16
1.54429e-17
-9.60541e-16
1.56328e-17
-9.60416e-16
1.55166e-17
-9.603e-16
1.57257e-17
-9.60194e-16
1.59444e-17
-9.60414e-16
1.61727e-17
-9.60644e-16
1.6095e-17
-9.60566e-16
1.60269e-17
-9.60499e-16
1.59684e-17
-9.6044e-16
1.59196e-17
-9.60392e-16
1.58804e-17
-9.60353e-16
1.58509e-17
-9.60323e-16
1.58309e-17
-9.60303e-16
1.58206e-17
-9.60293e-16
1.58193e-17
-9.60291e-16
)
;

boundaryField
{
    inlet
    {
        type            cyclic;
    }
    outlet
    {
        type            cyclic;
    }
    bottom
    {
        type            symmetry;
    }
    top
    {
        type            zeroGradient;
    }
    frontAndBack
    {
        type            empty;
    }
}


// ************************************************************************* //
