/*--------------------------------*- C++ -*----------------------------------*\
  =========                 |
  \\      /  F ield         | OpenFOAM: The Open Source CFD Toolbox
   \\    /   O peration     | Website:  https://openfoam.org
    \\  /    A nd           | Version:  7
     \\/     M anipulation  |
\*---------------------------------------------------------------------------*/
FoamFile
{
    version     2.0;
    format      ascii;
    class       surfaceScalarField;
    location    "200";
    object      phi;
}
// * * * * * * * * * * * * * * * * * * * * * * * * * * * * * * * * * * * * * //

dimensions      [0 3 -1 0 0 0 0];

internalField   nonuniform List<scalar> 
268
(
0.00210281
1.84105e-19
-1.38122e-19
0.00267023
-2.31466e-19
2.01594e-19
0.00290047
-1.9768e-19
1.53907e-22
0.00301871
1.21432e-20
5.88239e-20
0.00308547
-8.81888e-20
2.16186e-19
0.00312523
-1.94038e-19
2.20558e-19
0.00314947
-4.43152e-19
1.01143e-19
0.00316396
-4.58383e-19
3.13358e-20
0.00317184
-4.4985e-19
-5.97652e-21
0.00317492
-4.27926e-19
-5.40612e-20
0.0031743
-5.06645e-19
2.88325e-21
0.0031707
-1.39252e-19
4.27718e-20
0.0031646
-2.08481e-19
7.4108e-20
0.00315632
-3.51688e-20
-1.44437e-19
0.0031461
1.97352e-19
-4.18708e-19
0.00313411
5.29731e-20
-3.48271e-19
0.00312047
-5.76917e-20
-2.18017e-19
0.00310527
-1.38812e-19
-1.39604e-19
0.0030886
2.37124e-19
-1.18785e-19
0.00307052
1.98291e-19
-4.63872e-19
0.00305106
1.69139e-19
-4.48126e-19
0.00303027
1.49498e-19
-4.57119e-19
0.00300819
1.3817e-19
-9.53055e-20
0.00298484
1.35323e-19
-1.2944e-19
0.00296025
1.39537e-19
-1.26532e-19
0.00293446
1.54397e-19
-2.07561e-19
0.00290748
1.76173e-19
-2.40606e-19
0.00287934
-1.89279e-19
-2.61971e-19
0.00285007
-1.99964e-19
-2.73121e-19
0.00281969
-1.52334e-19
-2.76911e-19
0.00278823
-9.09722e-20
-2.76519e-19
0.00275572
2.35626e-20
-2.72951e-19
0.00272219
9.28246e-20
-2.66658e-19
0.00268765
1.46152e-19
-2.56873e-19
0.00265216
1.76192e-19
-2.4183e-19
0.00261573
1.87149e-19
-2.17351e-19
0.00257839
1.87612e-19
-1.74819e-19
0.00254019
1.82214e-19
-1.12733e-19
0.00250113
1.74271e-19
-4.64106e-20
0.00246057
1.64495e-19
-3.77525e-19
0.00241785
1.54614e-19
-3.40978e-19
0.00237322
1.45046e-19
-3.82383e-19
0.00232721
1.35004e-19
-3.68105e-19
0.00228029
1.24206e-19
-2.55148e-20
0.00223278
1.16149e-19
-7.57793e-20
0.00218483
1.10532e-19
-1.24815e-19
0.00213653
1.08028e-19
-1.57147e-19
0.00208792
1.09134e-19
-1.75003e-19
0.00203901
1.14171e-19
-1.91249e-19
0.00198983
1.24516e-19
-2.10805e-19
0.0019404
1.39849e-19
-2.27267e-19
0.00189079
1.57485e-19
-4.16587e-20
0.0018411
1.71897e-19
-4.84536e-20
0.00179149
2.04103e-19
-2.97727e-20
0.00174222
2.02053e-19
-3.48445e-20
0.00169367
1.66671e-19
-4.7031e-20
0.00164628
1.50644e-19
-8.67543e-20
0.00160046
1.35377e-19
-1.03545e-19
0.00155644
1.22123e-19
-1.13262e-19
0.00151393
1.34773e-19
-1.16128e-19
0.00147225
1.08436e-19
-9.42479e-20
0.00143103
1.09317e-19
-1.17253e-19
0.00139031
1.24989e-19
-1.23965e-19
0.00135013
1.51307e-19
-1.31216e-19
0.00131051
-1.36821e-20
-1.34219e-19
0.00127148
1.66647e-20
-1.33902e-19
0.00123308
3.93246e-20
-1.30721e-19
0.00119533
4.86934e-20
-1.25792e-19
0.00115826
4.54132e-20
-1.19519e-19
0.00112191
3.18741e-20
-1.12707e-19
0.00108631
7.71902e-21
-1.05537e-19
0.00105147
-2.72616e-20
-9.83386e-20
0.00101744
1.48001e-19
-9.12997e-20
0.000984247
8.39319e-20
-8.45792e-20
0.00095191
5.24814e-20
-7.86978e-20
0.000920464
1.24798e-20
-7.41508e-20
0.000889936
8.72462e-20
-7.42721e-20
0.000860355
5.05335e-20
-8.11642e-20
0.000831748
3.47837e-20
1.58118e-20
0.000804142
2.90933e-20
1.80458e-21
0.000777564
4.20191e-20
-2.40029e-20
0.000752039
4.88137e-20
-3.82687e-20
0.000727592
5.49266e-20
-4.84492e-20
0.000704246
5.53686e-20
-5.09691e-20
0.00068202
5.06679e-20
-4.75464e-20
0.000660931
4.27224e-20
-4.05996e-20
0.000640991
3.28343e-20
-3.14817e-20
0.000622205
2.19749e-20
-2.12145e-20
0.000604573
1.07942e-20
-1.04997e-20
0.000588082
)
;

boundaryField
{
    inlet
    {
        type            cyclic;
        value           nonuniform List<scalar> 
90
(
-0.00210281
-0.00267023
-0.00290047
-0.00301871
-0.00308547
-0.00312523
-0.00314947
-0.00316396
-0.00317184
-0.00317492
-0.0031743
-0.0031707
-0.0031646
-0.00315632
-0.0031461
-0.00313411
-0.00312047
-0.00310527
-0.0030886
-0.00307052
-0.00305106
-0.00303027
-0.00300819
-0.00298484
-0.00296025
-0.00293446
-0.00290748
-0.00287934
-0.00285007
-0.00281969
-0.00278823
-0.00275572
-0.00272219
-0.00268765
-0.00265216
-0.00261573
-0.00257839
-0.00254019
-0.00250113
-0.00246057
-0.00241785
-0.00237322
-0.00232721
-0.00228029
-0.00223278
-0.00218483
-0.00213653
-0.00208792
-0.00203901
-0.00198983
-0.0019404
-0.00189079
-0.0018411
-0.00179149
-0.00174222
-0.00169367
-0.00164628
-0.00160046
-0.00155644
-0.00151393
-0.00147225
-0.00143103
-0.00139031
-0.00135013
-0.00131051
-0.00127148
-0.00123308
-0.00119533
-0.00115826
-0.00112191
-0.00108631
-0.00105147
-0.00101744
-0.000984247
-0.00095191
-0.000920464
-0.000889936
-0.000860355
-0.000831748
-0.000804142
-0.000777564
-0.000752039
-0.000727592
-0.000704246
-0.00068202
-0.000660931
-0.000640991
-0.000622205
-0.000604573
-0.000588082
)
;
    }
    outlet
    {
        type            cyclic;
        value           nonuniform List<scalar> 
90
(
0.00210281
0.00267023
0.00290047
0.00301871
0.00308547
0.00312523
0.00314947
0.00316396
0.00317184
0.00317492
0.0031743
0.0031707
0.0031646
0.00315632
0.0031461
0.00313411
0.00312047
0.00310527
0.0030886
0.00307052
0.00305106
0.00303027
0.00300819
0.00298484
0.00296025
0.00293446
0.00290748
0.00287934
0.00285007
0.00281969
0.00278823
0.00275572
0.00272219
0.00268765
0.00265216
0.00261573
0.00257839
0.00254019
0.00250113
0.00246057
0.00241785
0.00237322
0.00232721
0.00228029
0.00223278
0.00218483
0.00213653
0.00208792
0.00203901
0.00198983
0.0019404
0.00189079
0.0018411
0.00179149
0.00174222
0.00169367
0.00164628
0.00160046
0.00155644
0.00151393
0.00147225
0.00143103
0.00139031
0.00135013
0.00131051
0.00127148
0.00123308
0.00119533
0.00115826
0.00112191
0.00108631
0.00105147
0.00101744
0.000984247
0.00095191
0.000920464
0.000889936
0.000860355
0.000831748
0.000804142
0.000777564
0.000752039
0.000727592
0.000704246
0.00068202
0.000660931
0.000640991
0.000622205
0.000604573
0.000588082
)
;
    }
    bottom
    {
        type            symmetry;
        value           uniform 0;
    }
    top
    {
        type            calculated;
        value           uniform 0;
    }
    frontAndBack
    {
        type            empty;
        value           nonuniform 0();
    }
}


// ************************************************************************* //
