/*--------------------------------*- C++ -*----------------------------------*\
  =========                 |
  \\      /  F ield         | OpenFOAM: The Open Source CFD Toolbox
   \\    /   O peration     | Website:  https://openfoam.org
    \\  /    A nd           | Version:  7
     \\/     M anipulation  |
\*---------------------------------------------------------------------------*/
FoamFile
{
    version     2.0;
    format      ascii;
    class       volVectorField;
    location    "200";
    object      U;
}
// * * * * * * * * * * * * * * * * * * * * * * * * * * * * * * * * * * * * * //

dimensions      [0 1 -1 0 0 0 0];

internalField   nonuniform List<vector> 
180
(
(1.91973 7.36524e-19 0)
(1.86498 -2.46006e-19 0)
(2.3999 -3.69785e-19 0)
(2.40638 2.30031e-19 0)
(2.6039 -3.77928e-19 0)
(2.61687 1.68888e-19 0)
(2.71168 6.88784e-20 0)
(2.72196 -1.07736e-19 0)
(2.77391 -1.00329e-19 0)
(2.77991 3.29693e-19 0)
(2.81128 -3.81312e-19 0)
(2.81411 5.306e-19 0)
(2.83409 -6.46366e-19 0)
(2.83493 2.97605e-19 0)
(2.8477 -8.79273e-19 0)
(2.84742 1.18451e-19 0)
(2.8551 -8.72002e-19 0)
(2.8542 2.71895e-21 0)
(2.85804 -8.55573e-19 0)
(2.85681 -7.87467e-20 0)
(2.85757 -9.26387e-19 0)
(2.85616 -5.28998e-20 0)
(2.85439 -6.31667e-19 0)
(2.85287 6.60019e-20 0)
(2.84894 -3.30642e-19 0)
(2.84734 1.07994e-19 0)
(2.84152 -2.23105e-19 0)
(2.83985 -8.66646e-20 0)
(2.83235 1.86668e-19 0)
(2.83063 -5.92712e-19 0)
(2.82159 2.70933e-19 0)
(2.8198 -7.90801e-19 0)
(2.80934 -1.70066e-20 0)
(2.8075 -5.55874e-19 0)
(2.7957 -2.10833e-19 0)
(2.79379 -3.56553e-19 0)
(2.78072 9.8716e-20 0)
(2.77876 -2.47651e-19 0)
(2.76448 4.2775e-19 0)
(2.76245 -5.79256e-19 0)
(2.747 3.63143e-19 0)
(2.7449 -8.95659e-19 0)
(2.72832 3.13608e-19 0)
(2.72616 -8.92101e-19 0)
(2.70848 2.82814e-19 0)
(2.70625 -5.41362e-19 0)
(2.68751 2.69774e-19 0)
(2.68519 -2.19265e-19 0)
(2.66542 2.70594e-19 0)
(2.66303 -2.55498e-19 0)
(2.64225 2.8718e-19 0)
(2.63977 -3.36395e-19 0)
(2.61801 3.29916e-19 0)
(2.61545 -4.51446e-19 0)
(2.59273 -1.93199e-20 0)
(2.59008 -5.09189e-19 0)
(2.56643 -3.9701e-19 0)
(2.56369 -5.39074e-19 0)
(2.53914 -3.59015e-19 0)
(2.5363 -5.52464e-19 0)
(2.51088 -2.49793e-19 0)
(2.50794 -5.55005e-19 0)
(2.48167 -6.95166e-20 0)
(2.47863 -5.50649e-19 0)
(2.45154 1.20351e-19 0)
(2.44839 -5.40882e-19 0)
(2.42052 2.50826e-19 0)
(2.41726 -5.25441e-19 0)
(2.38863 3.34204e-19 0)
(2.38525 -5.01988e-19 0)
(2.3559 3.70432e-19 0)
(2.35241 -4.64907e-19 0)
(2.32236 3.78636e-19 0)
(2.31875 -4.04429e-19 0)
(2.28804 3.72438e-19 0)
(2.2843 -2.92891e-19 0)
(2.25297 3.58753e-19 0)
(2.24906 -1.54575e-19 0)
(2.21661 3.39698e-19 0)
(2.21242 -4.1061e-19 0)
(2.17832 3.18467e-19 0)
(2.17381 -7.1034e-19 0)
(2.13829 2.98356e-19 0)
(2.1335 -7.0487e-19 0)
(2.097 2.81095e-19 0)
(2.09197 -7.3904e-19 0)
(2.05489 2.57795e-19 0)
(2.04963 -3.92161e-19 0)
(2.01223 2.39011e-19 0)
(2.00676 -9.87762e-20 0)
(1.96918 2.25273e-19 0)
(1.96351 -2.04763e-19 0)
(1.92582 2.16966e-19 0)
(1.91994 -2.9421e-19 0)
(1.88217 2.15278e-19 0)
(1.87608 -3.34346e-19 0)
(1.83826 2.21047e-19 0)
(1.83195 -3.65463e-19 0)
(1.79411 2.36036e-19 0)
(1.78758 -3.99414e-19 0)
(1.74974 2.61424e-19 0)
(1.74298 -4.43907e-19 0)
(1.70521 2.98347e-19 0)
(1.69821 -2.70021e-19 0)
(1.66061 3.30718e-19 0)
(1.65336 -9.11683e-20 0)
(1.6161 3.7916e-19 0)
(1.60857 -8.04365e-20 0)
(1.57193 4.14158e-19 0)
(1.56408 -6.11781e-20 0)
(1.52841 3.70552e-19 0)
(1.5202 -7.84924e-20 0)
(1.48596 3.1737e-19 0)
(1.47733 -1.33181e-19 0)
(1.44495 2.84876e-19 0)
(1.43587 -1.91773e-19 0)
(1.40554 2.57996e-19 0)
(1.39605 -2.22054e-19 0)
(1.36743 2.54002e-19 0)
(1.35765 -2.29771e-19 0)
(1.33 2.42497e-19 0)
(1.32004 -2.12027e-19 0)
(1.293 2.13134e-19 0)
(1.28285 -2.08655e-19 0)
(1.25645 2.2458e-19 0)
(1.24612 -2.38403e-19 0)
(1.22037 2.75084e-19 0)
(1.20986 -2.5743e-19 0)
(1.18481 1.35291e-19 0)
(1.17411 -2.67319e-19 0)
(1.14977 4.48706e-21 0)
(1.13889 -2.69638e-19 0)
(1.1153 6.22604e-20 0)
(1.10424 -2.65763e-19 0)
(1.08142 9.51608e-20 0)
(1.07017 -2.57258e-19 0)
(1.04815 9.95736e-20 0)
(1.03673 -2.45736e-19 0)
(1.01552 8.22844e-20 0)
(1.00393 -2.32431e-19 0)
(0.983556 4.51369e-20 0)
(0.971793 -2.1831e-19 0)
(0.952291 -1.40551e-20 0)
(0.94036 -2.03847e-19 0)
(0.921747 1.21877e-19 0)
(0.90965 -1.89516e-19 0)
(0.891951 2.31495e-19 0)
(0.87969 -1.75616e-19 0)
(0.862929 1.37184e-19 0)
(0.850508 -1.62769e-19 0)
(0.834705 6.1817e-20 0)
(0.822128 -1.51922e-19 0)
(0.807307 9.65007e-20 0)
(0.794577 -1.44747e-19 0)
(0.780758 1.33098e-19 0)
(0.767879 -1.52263e-19 0)
(0.755084 8.00161e-20 0)
(0.74206 -6.40137e-20 0)
(0.730309 5.91422e-20 0)
(0.717145 1.88595e-20 0)
(0.706457 6.82125e-20 0)
(0.693156 -2.26438e-20 0)
(0.683551 8.88789e-20 0)
(0.670118 -6.23741e-20 0)
(0.661612 1.06339e-19 0)
(0.648052 -9.06642e-20 0)
(0.64066 1.13399e-19 0)
(0.62698 -1.03167e-19 0)
(0.620715 1.08051e-19 0)
(0.606918 -1.00684e-19 0)
(0.601791 9.46357e-20 0)
(0.587882 -8.95184e-20 0)
(0.583897 7.62478e-20 0)
(0.569883 -7.28744e-20 0)
(0.56704 5.50915e-20 0)
(0.552926 -5.30553e-20 0)
(0.551219 3.27731e-20 0)
(0.53701 -3.17658e-20 0)
(0.536422 9.95368e-21 0)
(0.522124 -9.78051e-21 0)
)
;

boundaryField
{
    inlet
    {
        type            cyclic;
    }
    outlet
    {
        type            cyclic;
    }
    bottom
    {
        type            symmetry;
    }
    top
    {
        type            noSlip;
    }
    frontAndBack
    {
        type            empty;
    }
}


// ************************************************************************* //
