/*--------------------------------*- C++ -*----------------------------------*\
  =========                 |
  \\      /  F ield         | OpenFOAM: The Open Source CFD Toolbox
   \\    /   O peration     | Website:  https://openfoam.org
    \\  /    A nd           | Version:  7
     \\/     M anipulation  |
\*---------------------------------------------------------------------------*/
FoamFile
{
    version     2.0;
    format      ascii;
    class       volScalarField;
    location    "0.44";
    object      p;
}
// * * * * * * * * * * * * * * * * * * * * * * * * * * * * * * * * * * * * * //

dimensions      [0 2 -2 0 0 0 0];

internalField   nonuniform List<scalar> 
1600
(
8.47858e-06
-0.00117641
-0.00390673
-0.00758114
-0.0115265
-0.0152473
-0.0183856
-0.0206891
-0.0219902
-0.0221891
-0.0212403
-0.0191417
-0.0159269
-0.0116588
-0.00642463
-0.000332204
0.00649354
0.0139132
0.0217754
0.0299192
0.0381764
0.0463744
0.0543387
0.0618965
0.06888
0.0751309
0.0805043
0.0848744
0.0881394
0.090228
0.0911053
0.0907799
0.0893121
0.0868231
0.0835062
0.0796405
0.0756062
0.0719121
0.0692261
0.0681107
0.00120253
1.26322e-05
-0.002204
-0.00505536
-0.00809812
-0.0109671
-0.0133776
-0.0151166
-0.016034
-0.0160337
-0.0150656
-0.0131184
-0.0102127
-0.00639683
-0.00174182
0.00366162
0.00970632
0.0162713
0.0232241
0.0304235
0.0377213
0.0449658
0.0520036
0.0586835
0.0648595
0.070395
0.0751665
0.0790684
0.0820177
0.0839594
0.0848715
0.0847709
0.0837197
0.0818308
0.0792748
0.0762858
0.0731657
0.0702906
0.0681072
0.0669973
0.00394814
0.00222062
-2.65126e-05
-0.00258612
-0.00521513
-0.00764369
-0.00964821
-0.011057
-0.0117444
-0.0116267
-0.0106578
-0.00882467
-0.00614248
-0.00265104
0.00158875
0.00649791
0.011982
0.0179335
0.0242342
0.0307572
0.0373697
0.0439349
0.050315
0.0563742
0.0619818
0.0670157
0.0713666
0.0749418
0.0776692
0.0795024
0.0804249
0.0804543
0.079647
0.078102
0.0759634
0.0734221
0.0707182
0.0681334
0.0659261
0.0643088
0.0077123
0.00510067
0.00245938
-0.000169888
-0.00272529
-0.00500692
-0.00684055
-0.00809443
-0.00867015
-0.00850092
-0.00755007
-0.00580822
-0.00329019
-3.2192e-05
0.00391079
0.00846739
0.0135521
0.0190671
0.0249047
0.0309488
0.0370777
0.0431658
0.0490864
0.0547144
0.0599293
0.0646189
0.0686821
0.0720333
0.0746061
0.0763567
0.0772685
0.0773545
0.0766613
0.0752706
0.0732993
0.0708994
0.0682633
0.0656061
0.0630149
0.060546
0.0119014
0.00826085
0.00505202
0.00217111
-0.000486905
-0.00277809
-0.00456989
-0.00576766
-0.00630024
-0.00611928
-0.00519979
-0.00353883
-0.00115349
0.00192095
0.00563295
0.00991646
0.0146926
0.0198713
0.0253532
0.031031
0.0367917
0.0425185
0.0480934
0.0533994
0.0583234
0.0627596
0.0666123
0.0697998
0.0722574
0.0739413
0.0748312
0.074933
0.0742811
0.0729393
0.0709983
0.068575
0.0658231
0.0629057
0.0597523
0.0562817
0.0160893
0.0113769
0.00750786
0.0042575
0.00137461
-0.00103976
-0.00288665
-0.0041041
-0.00464635
-0.00448331
-0.00360266
-0.00200938
0.000275283
0.00321505
0.00675978
0.0108467
0.0154017
0.0203403
0.0255696
0.0309889
0.036492
0.0419687
0.0473072
0.0523961
0.0571271
0.0613981
0.065116
0.0681999
0.0705844
0.0722224
0.0730878
0.0731777
0.0725135
0.0711411
0.0691277
0.0665602
0.0635624
0.0602597
0.0564443
0.0519216
0.0199667
0.0141876
0.00961175
0.00591598
0.0027235
0.000104002
-0.00186951
-0.00316287
-0.00375298
-0.00362703
-0.00278537
-0.00124174
0.000977306
0.00383296
0.00727483
0.0112417
0.0156624
0.0204564
0.025535
0.0308026
0.0361576
0.0414943
0.0467049
0.0516812
0.0563173
0.0605123
0.0641731
0.0672171
0.0695756
0.0711959
0.0720446
0.0721083
0.0713953
0.0699348
0.0677734
0.0649734
0.0616371
0.0578645
0.0533314
0.0477524
0.0233006
0.016479
0.0111786
0.00699383
0.00343918
0.000561837
-0.00158486
-0.00298997
-0.00365027
-0.00356876
-0.00275802
-0.00124074
0.000950473
0.00377325
0.00717574
0.0110969
0.0154669
0.0202076
0.0252332
0.0304511
0.0357627
0.041065
0.0462521
0.051217
0.0558542
0.0600617
0.063744
0.0668147
0.0691996
0.0708389
0.0716898
0.0717279
0.0709484
0.0693652
0.0670067
0.0639159
0.0601807
0.0558851
0.0506055
0.0439824
0.0259088
0.0180718
0.0120438
0.0073477
0.0034012
0.00023556
-0.00211066
-0.00364594
-0.00438442
-0.00434339
-0.00354697
-0.00202676
0.000178194
0.00302129
0.00644826
0.0103972
0.0147984
0.0195748
0.0246421
0.0299092
0.0352791
0.0406499
0.0459158
0.0509695
0.0557036
0.0600133
0.0637986
0.0669675
0.0694384
0.0711425
0.0720267
0.0720547
0.0712083
0.0694874
0.066905
0.0634883
0.0593164
0.0544648
0.0484227
0.0407672
0.0276409
0.0188105
0.0120577
0.00684052
0.00248801
-0.000980046
-0.00353629
-0.00520573
-0.00601781
-0.0060028
-0.00519569
-0.0036368
-0.00137183
0.00154789
0.005065
0.00911581
0.01363
0.0185304
0.023733
0.0291471
0.0346761
0.0402175
0.0456648
0.0509082
0.0558372
0.0603422
0.0643172
0.0676625
0.0702874
0.0721129
0.0730738
0.0731213
0.0722239
0.0703677
0.0675522
0.0637921
0.0591614
0.0537328
0.0469155
0.0382298
0.0283638
0.0185534
0.0110796
0.00533915
0.000577129
-0.00319523
-0.00595933
-0.0077547
-0.0086246
-0.00861133
-0.00776025
-0.00612023
-0.00374372
-0.000687183
0.00298843
0.00721701
0.0119268
0.0170397
0.0224714
0.0281305
0.0339196
0.0397348
0.0454673
0.051004
0.0562295
0.0610281
0.0652861
0.0688944
0.0717514
0.0737662
0.0748604
0.0749715
0.0740541
0.0720808
0.0690383
0.0649308
0.0598304
0.0538102
0.0462033
0.0364762
0.027952
0.0171653
0.00897267
0.002711
-0.00245658
-0.00652569
-0.00948502
-0.0113875
-0.0122892
-0.0122441
-0.0113076
-0.00953701
-0.00699177
-0.00373372
0.000172149
0.00465686
0.00964663
0.0150621
0.0208175
0.0268207
0.0329722
0.0391663
0.0452907
0.0512279
0.0568567
0.0620538
0.0666961
0.0706636
0.0738423
0.0761271
0.0774252
0.0776587
0.0767674
0.0747099
0.0714604
0.0670133
0.0614402
0.0548174
0.0464021
0.0356074
0.0262801
0.0145112
0.00559904
-0.00117944
-0.00674309
-0.0110937
-0.0142266
-0.0162077
-0.0171057
-0.0169861
-0.0159143
-0.0139565
-0.0111792
-0.00764989
-0.00343795
0.00138441
0.00674106
0.0125509
0.0187267
0.0251745
0.0317932
0.0384739
0.0451006
0.0515507
0.0576958
0.0634039
0.0685413
0.0729754
0.0765778
0.0792276
0.0808152
0.0812457
0.0804424
0.0783486
0.0749252
0.0701565
0.0641149
0.0568803
0.0476322
0.0357287
0.0232172
0.0104511
0.00081554
-0.00647386
-0.0124196
-0.0170296
-0.020306
-0.0223279
-0.0231772
-0.0229311
-0.0216656
-0.0194561
-0.0163766
-0.0125007
-0.00790225
-0.002657
0.00315642
0.00945497
0.0161499
0.0231456
0.0303386
0.0376172
0.0448611
0.0519417
0.0587233
0.0650639
0.0708179
0.0758385
0.0799808
0.0831061
0.0850856
0.0858049
0.0851682
0.0831017
0.0795512
0.0744898
0.0679901
0.0601362
0.050025
0.0369568
0.0186229
0.00483625
-0.00553009
-0.0133233
-0.0196327
-0.0244733
-0.0278546
-0.0298698
-0.0306152
-0.0301806
-0.0286537
-0.0261196
-0.0226604
-0.0183561
-0.0132855
-0.00752792
-0.00116445
0.00572006
0.0130354
0.0206846
0.0285621
0.0365534
0.044534
0.0523692
0.0599152
0.0670196
0.0735234
0.0792641
0.0840784
0.0878071
0.0902995
0.0914184
0.0910459
0.0890879
0.0854722
0.0801584
0.0732183
0.0647396
0.0537296
0.0394266
0.0123439
-0.00249533
-0.0136029
-0.0218914
-0.0285414
-0.0335761
-0.037014
-0.0389644
-0.0395394
-0.0388433
-0.0369765
-0.0340351
-0.0301102
-0.0252886
-0.0196545
-0.0132904
-0.00627997
0.00129069
0.0093304
0.0177412
0.0264162
0.0352386
0.0440801
0.0528002
0.0612468
0.0692564
0.076656
0.0832655
0.0889013
0.0933808
0.0965279
0.0981788
0.0981896
0.0964413
0.0928398
0.0873279
0.079974
0.0708678
0.0589185
0.0432971
0.00421037
-0.0117221
-0.0235843
-0.0323575
-0.0393192
-0.0445026
-0.0479376
-0.0497522
-0.050077
-0.049033
-0.0467355
-0.0432929
-0.0388065
-0.0333707
-0.0270749
-0.0200051
-0.0122468
-0.00388689
0.00498339
0.0142661
0.0238541
0.0336291
0.0434599
0.0532011
0.0626926
0.0717595
0.0802141
0.0878575
0.0944832
0.0998825
0.10385
0.10619
0.106728
0.105315
0.101828
0.0961886
0.0884587
0.0787274
0.0657946
0.0487581
-0.00596739
-0.0230433
-0.0356768
-0.044921
-0.0521575
-0.0574328
-0.0607911
-0.062383
-0.0623614
-0.0608673
-0.0580333
-0.0539824
-0.0488272
-0.0426707
-0.0356075
-0.0277272
-0.0191162
-0.00986115
-5.22281e-05
0.0102141
0.020832
0.0316834
0.0426356
0.0535392
0.0642272
0.074514
0.0841965
0.0930558
0.100861
0.107373
0.112352
0.115568
0.116807
0.115881
0.112635
0.106961
0.0989078
0.0885609
0.0745979
0.0560361
-0.0184028
-0.036684
-0.0501085
-0.0598054
-0.0672695
-0.0725646
-0.075754
-0.0770163
-0.0765315
-0.0744649
-0.0709703
-0.0661877
-0.0602428
-0.0532478
-0.0453033
-0.0365014
-0.0269288
-0.0166706
-0.00581392
0.00554824
0.0173133
0.0293655
0.0415728
0.0537841
0.0658267
0.0775055
0.0886022
0.0988774
0.108073
0.115917
0.122132
0.126443
0.128589
0.12834
0.125492
0.119901
0.111597
0.100655
0.0856138
0.0654028
-0.0333381
-0.0529012
-0.0671398
-0.077264
-0.084894
-0.0901165
-0.0930205
-0.0938199
-0.0927287
-0.0899424
-0.0856403
-0.0799827
-0.0731108
-0.0651468
-0.0561972
-0.0463562
-0.0357094
-0.0243382
-0.0123247
0.000244206
0.013272
0.0266483
0.0402446
0.0539105
0.0674704
0.0807214
0.0934313
0.10534
0.11616
0.125585
0.133292
0.138955
0.14226
0.142915
0.140664
0.135308
0.126851
0.115349
0.0991831
0.0771836
-0.0510517
-0.0719923
-0.0870718
-0.0975876
-0.105301
-0.110331
-0.112801
-0.11297
-0.111095
-0.10741
-0.102125
-0.0954247
-0.0874686
-0.0783899
-0.0683009
-0.0572963
-0.045459
-0.0328646
-0.0195868
-0.00570337
0.00869887
0.0235185
0.0386345
0.053901
0.0691428
0.0841521
0.0986851
0.112462
0.125166
0.136451
0.145945
0.153263
0.158023
0.159864
0.158455
0.153533
0.145056
0.13305
0.115714
0.0917696
-0.0718672
-0.0943066
-0.110258
-0.121114
-0.128801
-0.133479
-0.135321
-0.134646
-0.131767
-0.126963
-0.120484
-0.112546
-0.103325
-0.0929685
-0.0815934
-0.069294
-0.0561474
-0.0422202
-0.0275744
-0.0122744
0.00360691
0.019982
0.0367417
0.0537497
0.0708362
0.0877926
0.104367
0.120262
0.135133
0.14859
0.160209
0.169536
0.176109
0.179478
0.179221
0.174985
0.166666
0.154242
0.135698
0.109632
-0.096168
-0.120262
-0.137119
-0.148241
-0.155748
-0.159863
-0.160826
-0.159034
-0.154871
-0.148678
-0.140752
-0.131342
-0.120649
-0.108832
-0.0960118
-0.0822795
-0.0677034
-0.0523369
-0.0362259
-0.0194164
-0.00196203
0.0160689
0.0345853
0.0534664
0.0725538
0.0916442
0.110483
0.128759
0.146101
0.162079
0.176208
0.187956
0.196769
0.202088
0.203371
0.200149
0.192228
0.179513
0.159731
0.13134
-0.124417
-0.150367
-0.168166
-0.179444
-0.186558
-0.189823
-0.189573
-0.186311
-0.180513
-0.172597
-0.162916
-0.151761
-0.139357
-0.125876
-0.111439
-0.0961304
-0.0800055
-0.0630992
-0.0454357
-0.027037
-0.00793097
0.0118397
0.0322092
0.0530795
0.0743114
0.0957149
0.11704
0.137969
0.158109
0.17699
0.194064
0.208715
0.220278
0.228062
0.231377
0.229596
0.222396
0.209574
0.188541
0.157589
-0.157186
-0.185256
-0.204031
-0.215297
-0.221718
-0.223741
-0.221836
-0.216645
-0.208767
-0.198714
-0.186909
-0.173687
-0.1593
-0.143928
-0.127691
-0.110661
-0.0928724
-0.0743359
-0.0550474
-0.0349977
-0.0141824
0.00738947
0.0296853
0.0526388
0.0761392
0.10002
0.124046
0.147902
0.171182
0.193382
0.213892
0.232004
0.246928
0.257814
0.26378
0.263998
0.25796
0.245299
0.223027
0.189235
-0.195199
-0.225736
-0.245509
-0.256507
-0.261805
-0.262045
-0.257891
-0.250177
-0.239656
-0.226957
-0.212584
-0.19692
-0.180243
-0.162735
-0.144508
-0.125612
-0.106054
-0.085813
-0.0648476
-0.04311
-0.0205549
0.00285039
0.0271155
0.0522159
0.0780807
0.104579
0.131503
0.158555
0.185329
0.211294
0.235787
0.258006
0.27702
0.29179
0.301201
0.304153
0.299881
0.287769
0.264314
0.227344
-0.239403
-0.272864
-0.293621
-0.303953
-0.307501
-0.305207
-0.29801
-0.286998
-0.273124
-0.257158
-0.239691
-0.221157
-0.20185
-0.181947
-0.161537
-0.140641
-0.119227
-0.0972302
-0.0745643
-0.0511334
-0.0268429
-0.00160919
0.0246296
0.0519018
0.0801888
0.10941
0.139402
0.169902
0.200522
0.230725
0.259806
0.286871
0.310843
0.330467
0.344337
0.351
0.34933
0.338343
0.313832
0.273271
-0.291064
-0.328048
-0.3497
-0.358736
-0.359618
-0.353739
-0.342429
-0.327117
-0.309004
-0.28902
-0.267849
-0.245965
-0.223664
-0.201102
-0.17833
-0.155321
-0.131992
-0.108222
-0.0838692
-0.0587805
-0.0328022
-0.00579039
0.022379
0.0517989
0.0825172
0.114519
0.147708
0.181878
0.216685
0.251612
0.285935
0.31869
0.348652
0.374326
0.393959
0.405643
0.407752
0.398746
0.373434
0.328769
-0.35194
-0.393222
-0.415518
-0.42225
-0.419106
-0.408164
-0.391308
-0.370407
-0.346961
-0.322071
-0.296505
-0.270753
-0.245089
-0.219619
-0.194334
-0.169137
-0.143877
-0.118364
-0.0923873
-0.0657267
-0.0381608
-0.00947603
0.0205239
0.0520082
0.0851056
0.119887
0.156343
0.194355
0.233656
0.273789
0.314051
0.353441
0.390607
0.423808
0.450886
0.469363
0.476922
0.471199
0.445573
0.39617
-0.424555
-0.471105
-0.493457
-0.496249
-0.487048
-0.468969
-0.444654
-0.416528
-0.386425
-0.35561
-0.324896
-0.294749
-0.265374
-0.236792
-0.208896
-0.181498
-0.154354
-0.12719
-0.0997143
-0.0716299
-0.0426388
-0.0124503
0.0192133
0.0526083
0.0879587
0.12544
0.165156
0.207109
0.251153
0.296943
0.343857
0.390919
0.4367
0.479237
0.515933
0.54361
0.559027
0.558604
0.533576
0.478683
-0.512671
-0.56561
-0.586753
-0.582921
-0.564618
-0.536493
-0.502197
-0.464809
-0.426497
-0.388634
-0.352004
-0.316972
-0.28361
-0.251794
-0.221281
-0.191755
-0.162859
-0.134216
-0.105444
-0.076157
-0.0459758
-0.0145258
0.0185582
0.0536288
0.0910177
0.131023
0.173891
0.219781
0.268721
0.320545
0.3748
0.430628
0.486629
0.540691
0.589792
0.629953
0.656731
0.664788
0.642082
0.580906
-0.622159
-0.682508
-0.69981
-0.684919
-0.652945
-0.610734
-0.56319
-0.514082
-0.465823
-0.419759
-0.37651
-0.336218
-0.298726
-0.263695
-0.230691
-0.199235
-0.168829
-0.138981
-0.109203
-0.0790202
-0.0479652
-0.0155779
0.0185983
0.0550171
0.0941275
0.136367
0.182148
0.231828
0.28567
0.34377
0.405956
0.471638
0.53961
0.607781
0.672823
0.729929
0.773198
0.794817
0.777721
0.709753
-0.762635
-0.830477
-0.838565
-0.805274
-0.752821
-0.691007
-0.626114
-0.56246
-0.502452
-0.447144
-0.396765
-0.351064
-0.309524
-0.271503
-0.236317
-0.203285
-0.171749
-0.141085
-0.110698
-0.0800178
-0.0484935
-0.0155801
0.0192681
0.0566061
0.0970043
0.14105
0.189342
0.242477
0.301011
0.365403
0.435903
0.512391
0.594116
0.679323
0.76468
0.844732
0.91199
0.955369
0.950212
0.876208
-0.950785
-1.02278
-1.01075
-0.946961
-0.864055
-0.775342
-0.688214
-0.607032
-0.53366
-0.468409
-0.410781
-0.359895
-0.314722
-0.27422
-0.237396
-0.203336
-0.171206
-0.140247
-0.109756
-0.0790758
-0.047577
-0.0146388
0.0203656
0.0580857
0.0992087
0.144473
0.194678
0.250685
0.313403
0.38375
0.462567
0.550459
0.647509
0.752808
0.86364
0.974488
1.07658
1.15496
1.17409
1.09889
-1.21712
-1.27971
-1.22549
-1.11153
-0.984069
-0.859369
-0.744752
-0.643426
-0.555738
-0.480566
-0.416235
-0.360955
-0.313023
-0.270909
-0.233274
-0.198954
-0.16694
-0.136342
-0.106366
-0.0762798
-0.0453899
-0.0130164
0.0215326
0.0589849
0.10013
0.145847
0.197129
0.255113
0.321097
0.396545
0.483052
0.58224
0.695512
0.823562
0.965373
1.11672
1.26884
1.40346
1.47114
1.41116
-1.61765
-1.63094
-1.49151
-1.29671
-1.10589
-0.935006
-0.788313
-0.665546
-0.563982
-0.480139
-0.410639
-0.352514
-0.303265
-0.260829
-0.223515
-0.189928
-0.158905
-0.129454
-0.10071
-0.0718937
-0.0422721
-0.011129
0.0222673
0.058697
0.0990243
0.144238
0.195501
0.254202
0.322027
0.401024
0.493661
0.602853
0.731867
0.883984
1.06156
1.26423
1.4865
1.71007
1.87238
1.87266
-2.25441
-2.11586
-1.81359
-1.49443
-1.21742
-0.990513
-0.809415
-0.666452
-0.553624
-0.464011
-0.392065
-0.333468
-0.2849
-0.243802
-0.208186
-0.176482
-0.147427
-0.119971
-0.0932218
-0.0663821
-0.038713
-0.00949334
0.0220166
0.0566138
0.0951962
0.138816
0.188746
0.246568
0.314292
0.394505
0.49057
0.606862
0.748996
0.923952
1.13978
1.40422
1.72096
2.0794
2.41783
2.58903
-3.35614
-2.78296
-2.17273
-1.67591
-1.2926
-1.00574
-0.794155
-0.637278
-0.519331
-0.429174
-0.358973
-0.303182
-0.257837
-0.220058
-0.187701
-0.159135
-0.133078
-0.108493
-0.0845058
-0.0603491
-0.0353146
-0.00871246
0.0201667
0.0520931
0.087945
0.128769
0.175861
0.230879
0.296003
0.374177
0.469462
0.587558
0.736543
0.92791
1.17799
1.50837
1.94106
2.49113
3.15773
3.79467
-5.52259
-3.65931
-2.43085
-1.71435
-1.24188
-0.921868
-0.704909
-0.553999
-0.445514
-0.365224
-0.304197
-0.256578
-0.218408
-0.186924
-0.160131
-0.136538
-0.11499
-0.09456
-0.074474
-0.0540534
-0.0326734
-0.00972607
0.0154148
0.0434307
0.075103
0.111369
0.153402
0.202723
0.261378
0.332207
0.419294
0.528701
0.669716
0.857122
1.11547
1.484
2.01615
2.8053
4.12187
6.09344
-9.21004
-4.51834
-2.30603
-1.42124
-0.958915
-0.682864
-0.51222
-0.400558
-0.322896
-0.2664
-0.22388
-0.190903
-0.164563
-0.142849
-0.124306
-0.107835
-0.0925779
-0.0778354
-0.0630175
-0.047603
-0.0311091
-0.0130647
0.00701515
0.0296562
0.055457
0.0851304
0.11956
0.159885
0.207625
0.264891
0.334742
0.421843
0.533741
0.683721
0.897414
1.22408
1.75395
2.73304
5.0602
9.87241
)
;

boundaryField
{
    movingWall
    {
        type            zeroGradient;
    }
    fixedWalls
    {
        type            zeroGradient;
    }
    frontAndBack
    {
        type            empty;
    }
}


// ************************************************************************* //
