/*--------------------------------*- C++ -*----------------------------------*\
  =========                 |
  \\      /  F ield         | OpenFOAM: The Open Source CFD Toolbox
   \\    /   O peration     | Website:  https://openfoam.org
    \\  /    A nd           | Version:  7
     \\/     M anipulation  |
\*---------------------------------------------------------------------------*/
FoamFile
{
    version     2.0;
    format      ascii;
    class       surfaceScalarField;
    location    "0.44";
    object      phi;
}
// * * * * * * * * * * * * * * * * * * * * * * * * * * * * * * * * * * * * * //

dimensions      [0 3 -1 0 0 0 0];

internalField   nonuniform List<scalar> 
3120
(
2.53341e-09
-2.55178e-09
4.09667e-09
-1.56327e-09
2.25359e-09
1.84308e-09
-3.55402e-09
5.80761e-09
-1.31371e-08
9.58311e-09
-2.5987e-08
1.28499e-08
-4.14639e-08
1.5477e-08
-5.88915e-08
1.74276e-08
-7.76018e-08
1.87103e-08
-9.6958e-08
1.93563e-08
-1.16366e-07
1.94078e-08
-1.35279e-07
1.89132e-08
-1.53203e-07
1.79238e-08
-1.69695e-07
1.64921e-08
-1.84366e-07
1.46716e-08
-1.96882e-07
1.2516e-08
-2.06962e-07
1.00795e-08
-2.14379e-07
7.41727e-09
-2.18965e-07
4.58547e-09
-2.20606e-07
1.64197e-09
-2.19253e-07
-1.3534e-09
-2.14914e-07
-4.33854e-09
-2.07666e-07
-7.24901e-09
-1.97647e-07
-1.00181e-08
-1.8507e-07
-1.25775e-08
-1.70213e-07
-1.48576e-08
-1.53424e-07
-1.67889e-08
-1.35121e-07
-1.8303e-08
-1.15786e-07
-1.93344e-08
-9.59644e-08
-1.98219e-08
-7.62534e-08
-1.97112e-08
-5.72958e-08
-1.89577e-08
-3.97663e-08
-1.75295e-08
-2.43526e-08
-1.54136e-08
-1.17271e-08
-1.26255e-08
-2.49576e-09
-9.23136e-09
2.89782e-09
-5.39366e-09
4.35945e-09
-1.46173e-09
2.56199e-09
1.79741e-09
2.56198e-09
1.6145e-09
-4.16628e-09
-1.17459e-09
1.22581e-09
-1.17192e-08
1.23877e-08
-3.10801e-08
2.51685e-08
-5.90557e-08
3.75587e-08
-9.47022e-08
4.84964e-08
-1.3667e-07
5.74451e-08
-1.8342e-07
6.41775e-08
-2.33352e-07
6.86421e-08
-2.84884e-07
7.08884e-08
-3.36502e-07
7.1026e-08
-3.86789e-07
6.92002e-08
-4.34444e-07
6.55781e-08
-4.78292e-07
6.03401e-08
-5.17295e-07
5.36747e-08
-5.50555e-07
4.57764e-08
-5.7732e-07
3.68444e-08
-5.96985e-07
2.70828e-08
-6.09101e-07
1.67013e-08
-6.13375e-07
5.91551e-09
-6.09677e-07
-5.05161e-09
-5.98045e-07
-1.59698e-08
-5.78693e-07
-2.66013e-08
-5.52009e-07
-3.67021e-08
-5.18563e-07
-4.60232e-08
-4.79107e-07
-5.43142e-08
-4.34569e-07
-6.13266e-08
-3.86053e-07
-6.68193e-08
-3.34822e-07
-7.0565e-08
-2.82286e-07
-7.23576e-08
-2.29976e-07
-7.20218e-08
-1.79509e-07
-6.94246e-08
-1.32547e-07
-6.44919e-08
-9.07291e-08
-5.72314e-08
-5.55833e-08
-4.77713e-08
-2.83865e-08
-3.64281e-08
-9.94978e-09
-2.38303e-08
-2.92408e-10
-1.11191e-08
1.85489e-09
-3.499e-10
4.41681e-09
-1.66921e-09
-2.49708e-09
-1.21206e-08
1.16772e-08
-3.40976e-08
3.43647e-08
-6.84631e-08
5.9534e-08
-1.14804e-07
8.38993e-08
-1.71834e-07
1.05526e-07
-2.37719e-07
1.23331e-07
-3.10323e-07
1.36782e-07
-3.87377e-07
1.45695e-07
-4.66594e-07
1.50106e-07
-5.45756e-07
1.50188e-07
-6.22759e-07
1.46204e-07
-6.95658e-07
1.38477e-07
-7.62684e-07
1.27367e-07
-8.22268e-07
1.13259e-07
-8.73048e-07
9.65564e-08
-9.13882e-07
7.76781e-08
-9.43854e-07
5.70547e-08
-9.62283e-07
3.51304e-08
-9.6873e-07
1.23631e-08
-9.63007e-07
-1.07747e-08
-9.45182e-07
-3.37956e-08
-9.15584e-07
-5.61988e-08
-8.74815e-07
-7.74716e-08
-8.23744e-07
-9.70941e-08
-7.63512e-07
-1.14546e-07
-6.95524e-07
-1.29315e-07
-6.21437e-07
-1.40907e-07
-5.43139e-07
-1.48863e-07
-4.62723e-07
-1.52774e-07
-3.82442e-07
-1.52302e-07
-3.04657e-07
-1.4721e-07
-2.31759e-07
-1.3739e-07
-1.66074e-07
-1.22917e-07
-1.09726e-07
-1.04119e-07
-6.44583e-08
-8.1696e-08
-3.13877e-08
-5.69008e-08
-1.06924e-08
-3.18143e-08
-1.23902e-09
-9.80327e-09
3.17772e-09
-5.57038e-09
3.07329e-09
-2.49839e-08
3.10907e-08
-5.96984e-08
6.90792e-08
-1.0989e-07
1.09725e-07
-1.74668e-07
1.48677e-07
-2.52325e-07
1.83184e-07
-3.40589e-07
2.11595e-07
-4.36842e-07
2.33034e-07
-5.38293e-07
2.47147e-07
-6.42114e-07
2.53927e-07
-7.45533e-07
2.53607e-07
-8.4591e-07
2.4658e-07
-9.40783e-07
2.3335e-07
-1.02791e-06
2.14493e-07
-1.10529e-06
1.90638e-07
-1.17118e-06
1.62452e-07
-1.22414e-06
1.30629e-07
-1.26297e-06
9.58926e-08
-1.28683e-06
5.89863e-08
-1.29515e-06
2.06798e-08
-1.28769e-06
-1.82339e-08
-1.26455e-06
-5.6938e-08
-1.22615e-06
-9.45946e-08
-1.17327e-06
-1.30349e-07
-1.10703e-06
-1.63339e-07
-1.02887e-06
-1.92701e-07
-9.40592e-07
-2.17594e-07
-8.4429e-07
-2.37209e-07
-7.42351e-07
-2.50802e-07
-6.37407e-07
-2.57718e-07
-5.32281e-07
-2.57429e-07
-4.2991e-07
-2.4958e-07
-3.33259e-07
-2.34041e-07
-2.45189e-07
-2.10986e-07
-1.68315e-07
-1.80993e-07
-1.04815e-07
-1.45196e-07
-5.6207e-08
-1.05509e-07
-2.31043e-08
-6.49168e-08
-4.98709e-09
-2.79205e-08
-1.80941e-09
-9.47093e-09
1.25442e-08
-3.81833e-08
5.98031e-08
-8.60959e-08
1.16992e-07
-1.52423e-07
1.76052e-07
-2.35594e-07
2.31848e-07
-3.33371e-07
2.80961e-07
-4.43016e-07
3.2124e-07
-5.61462e-07
3.5148e-07
-6.8547e-07
3.71155e-07
-8.11763e-07
3.80219e-07
-9.37124e-07
3.78968e-07
-1.05848e-06
3.67935e-07
-1.17295e-06
3.47827e-07
-1.27793e-06
3.19466e-07
-1.37105e-06
2.83763e-07
-1.45029e-06
2.41688e-07
-1.51392e-06
1.94262e-07
-1.56057e-06
1.42547e-07
-1.58923e-06
8.76418e-08
-1.59923e-06
3.06826e-08
-1.59031e-06
-2.71604e-08
-1.56256e-06
-8.46831e-08
-1.5165e-06
-1.40652e-07
-1.45304e-06
-1.93813e-07
-1.37348e-06
-2.42899e-07
-1.27953e-06
-2.86652e-07
-1.17328e-06
-3.23844e-07
-1.05718e-06
-3.53304e-07
-9.34027e-07
-3.73958e-07
-8.06876e-07
-3.84869e-07
-6.7901e-07
-3.85294e-07
-5.53845e-07
-3.74745e-07
-4.3482e-07
-3.53066e-07
-3.25272e-07
-3.20535e-07
-2.28281e-07
-2.77984e-07
-1.46498e-07
-2.26979e-07
-8.19594e-08
-1.70048e-07
-3.59222e-08
-1.10954e-07
-8.75743e-09
-5.50851e-08
-1.05668e-08
-1.31659e-08
2.57101e-08
-5.10398e-08
9.7677e-08
-1.12119e-07
1.78071e-07
-1.94545e-07
2.58478e-07
-2.95942e-07
3.33245e-07
-4.13443e-07
3.98463e-07
-5.43791e-07
4.51587e-07
-6.8346e-07
4.91149e-07
-8.2879e-07
5.16485e-07
-9.76103e-07
5.27532e-07
-1.1218e-06
5.24667e-07
-1.26245e-06
5.08588e-07
-1.39485e-06
4.80223e-07
-1.51606e-06
4.40674e-07
-1.62345e-06
3.91158e-07
-1.71476e-06
3.3299e-07
-1.78805e-06
2.6755e-07
-1.84178e-06
1.96283e-07
-1.87482e-06
1.20682e-07
-1.88643e-06
4.22917e-08
-1.8763e-06
-3.72948e-08
-1.84454e-06
-1.16441e-07
-1.79172e-06
-1.93474e-07
-1.71884e-06
-2.66689e-07
-1.62736e-06
-3.34374e-07
-1.51919e-06
-3.94826e-07
-1.39665e-06
-4.46386e-07
-1.26248e-06
-4.87477e-07
-1.11978e-06
-5.16655e-07
-9.71983e-07
-5.32667e-07
-8.22755e-07
-5.34522e-07
-6.75926e-07
-5.21574e-07
-5.35372e-07
-4.9362e-07
-4.04888e-07
-4.51019e-07
-2.88041e-07
-3.94831e-07
-1.88018e-07
-3.27002e-07
-1.07482e-07
-2.50584e-07
-4.84628e-08
-1.69973e-07
-1.23388e-08
-9.1209e-08
-2.29056e-08
-1.6615e-08
4.2325e-08
-6.33269e-08
1.44389e-07
-1.37305e-07
2.52049e-07
-2.35605e-07
3.56777e-07
-3.54983e-07
4.52623e-07
-4.91873e-07
5.35354e-07
-6.42444e-07
6.02158e-07
-8.02685e-07
6.51389e-07
-9.68512e-07
6.82312e-07
-1.13587e-06
6.94889e-07
-1.30081e-06
6.89614e-07
-1.45961e-06
6.67379e-07
-1.60875e-06
6.29369e-07
-1.74506e-06
5.76986e-07
-1.8657e-06
5.11792e-07
-1.96818e-06
4.35468e-07
-2.05042e-06
3.49791e-07
-2.11075e-06
2.56614e-07
-2.14793e-06
1.5786e-07
-2.16115e-06
5.55139e-08
-2.15007e-06
-4.83768e-08
-2.1148e-06
-1.5171e-07
-2.05594e-06
-2.52334e-07
-1.97456e-06
-3.48064e-07
-1.87224e-06
-4.367e-07
-1.75101e-06
-5.16057e-07
-1.61338e-06
-5.84007e-07
-1.46234e-06
-6.38525e-07
-1.30124e-06
-6.77756e-07
-1.13381e-06
-7.00091e-07
-9.64083e-07
-7.04251e-07
-7.96264e-07
-6.89394e-07
-6.34658e-07
-6.55227e-07
-4.83532e-07
-6.02144e-07
-3.46982e-07
-5.3138e-07
-2.28799e-07
-4.45185e-07
-1.32351e-07
-3.47033e-07
-6.05141e-08
-2.4181e-07
-1.56925e-08
-1.36031e-07
-3.85979e-08
-1.98472e-08
6.21722e-08
-7.50485e-08
1.9959e-07
-1.6159e-07
3.38591e-07
-2.75474e-07
4.70662e-07
-4.12567e-07
5.89715e-07
-5.6856e-07
6.91347e-07
-7.39003e-07
7.72602e-07
-9.19371e-07
8.31757e-07
-1.10514e-06
8.68083e-07
-1.29189e-06
8.81632e-07
-1.47534e-06
8.73067e-07
-1.65147e-06
8.43515e-07
-1.81656e-06
7.94454e-07
-1.96719e-06
7.27621e-07
-2.10035e-06
6.44948e-07
-2.2134e-06
5.48516e-07
-2.30412e-06
4.40517e-07
-2.37075e-06
3.23241e-07
-2.41195e-06
1.99061e-07
-2.42687e-06
7.04278e-08
-2.41511e-06
-6.01357e-08
-2.37678e-06
-1.90037e-07
-2.31249e-06
-3.16622e-07
-2.22336e-06
-4.37197e-07
-2.11101e-06
-5.49044e-07
-1.97761e-06
-6.49464e-07
-1.8258e-06
-7.35819e-07
-1.65872e-06
-8.05599e-07
-1.47998e-06
-8.56494e-07
-1.29358e-06
-8.86491e-07
-1.10386e-06
-8.93971e-07
-9.15416e-07
-8.77842e-07
-7.32979e-07
-8.37663e-07
-5.61323e-07
-7.738e-07
-4.05121e-07
-6.87583e-07
-2.68824e-07
-5.81481e-07
-1.56568e-07
-4.59289e-07
-7.21104e-08
-3.26267e-07
-1.88551e-08
-1.89286e-07
-5.74529e-08
-2.29148e-08
8.50869e-08
-8.63101e-08
2.62986e-07
-1.85106e-07
4.37387e-07
-3.14302e-07
5.99858e-07
-4.6887e-07
7.44283e-07
-6.43734e-07
8.6621e-07
-8.33794e-07
9.62661e-07
-1.03398e-06
1.03194e-06
-1.23931e-06
1.07342e-06
-1.44499e-06
1.08731e-06
-1.64644e-06
1.07451e-06
-1.83936e-06
1.03644e-06
-2.01981e-06
9.74906e-07
-2.18421e-06
8.92024e-07
-2.32939e-06
7.90126e-07
-2.45259e-06
6.71715e-07
-2.5515e-06
5.39424e-07
-2.62425e-06
3.95995e-07
-2.66946e-06
2.44268e-07
-2.6862e-06
8.71706e-08
-2.67406e-06
-7.22814e-08
-2.6331e-06
-2.30991e-07
-2.56393e-06
-3.85789e-07
-2.46768e-06
-5.33447e-07
-2.34602e-06
-6.7071e-07
-2.20115e-06
-7.94331e-07
-2.03584e-06
-9.01132e-07
-1.85336e-06
-9.88071e-07
-1.65752e-06
-1.05234e-06
-1.45256e-06
-1.09145e-06
-1.24313e-06
-1.1034e-06
-1.0342e-06
-1.08677e-06
-8.30978e-07
-1.04089e-06
-6.38756e-07
-9.66022e-07
-4.62836e-07
-8.63503e-07
-3.08387e-07
-7.3593e-07
-1.80356e-07
-5.87321e-07
-8.34002e-08
-4.23223e-07
-2.1891e-08
-2.50795e-07
-7.93439e-08
-2.58736e-08
1.1096e-07
-9.72528e-08
3.34365e-07
-2.08076e-07
5.4821e-07
-3.52375e-07
7.44157e-07
-5.24236e-07
9.16144e-07
-7.17798e-07
1.05977e-06
-9.27286e-07
1.17215e-06
-1.14706e-06
1.25172e-06
-1.37169e-06
1.29804e-06
-1.59596e-06
1.31159e-06
-1.81501e-06
1.29356e-06
-2.0243e-06
1.24573e-06
-2.21968e-06
1.17029e-06
-2.39743e-06
1.06977e-06
-2.55425e-06
9.46948e-07
-2.6873e-06
8.04762e-07
-2.79418e-06
6.46307e-07
-2.87298e-06
4.7479e-07
-2.92223e-06
2.93526e-07
-2.94099e-06
1.05926e-07
-2.92877e-06
-8.44979e-08
-2.88563e-06
-2.74138e-07
-2.81211e-06
-4.593e-07
-2.70935e-06
-6.36211e-07
-2.579e-06
-8.01058e-07
-2.42331e-06
-9.50024e-07
-2.24509e-06
-1.07935e-06
-2.04774e-06
-1.18542e-06
-1.8352e-06
-1.26487e-06
-1.61196e-06
-1.31469e-06
-1.38297e-06
-1.33239e-06
-1.15358e-06
-1.31615e-06
-9.29476e-07
-1.265e-06
-7.16526e-07
-1.17897e-06
-5.20702e-07
-1.05933e-06
-3.47941e-07
-9.08691e-07
-2.0404e-07
-7.31221e-07
-9.45773e-08
-5.32686e-07
-2.48713e-08
-3.20501e-07
-1.04215e-07
-2.87757e-08
1.39736e-07
-1.08023e-07
4.13612e-07
-2.30744e-07
6.7093e-07
-3.90027e-07
9.03441e-07
-5.79071e-07
1.10519e-06
-7.91217e-07
1.27192e-06
-1.02e-06
1.40093e-06
-1.25919e-06
1.49091e-06
-1.50286e-06
1.54171e-06
-1.74545e-06
1.55417e-06
-1.98175e-06
1.52987e-06
-2.20703e-06
1.471e-06
-2.41695e-06
1.38021e-06
-2.60767e-06
1.26049e-06
-2.7758e-06
1.11508e-06
-2.91843e-06
9.47396e-07
-3.03313e-06
7.61001e-07
-3.11792e-06
5.59578e-07
-3.17131e-06
3.46917e-07
-3.19229e-06
1.2691e-07
-3.18035e-06
-9.64383e-08
-3.13547e-06
-3.19014e-07
-3.05818e-06
-5.36596e-07
-2.94952e-06
-7.44866e-07
-2.81114e-06
-9.39437e-07
-2.64527e-06
-1.1159e-06
-2.45474e-06
-1.26988e-06
-2.24301e-06
-1.39715e-06
-2.01416e-06
-1.49372e-06
-1.77289e-06
-1.55597e-06
-1.52443e-06
-1.58086e-06
-1.27453e-06
-1.56605e-06
-1.02936e-06
-1.51016e-06
-7.95417e-07
-1.41292e-06
-5.7938e-07
-1.27536e-06
-3.88005e-07
-1.10007e-06
-2.27985e-07
-8.91241e-07
-1.05848e-07
-6.54823e-07
-2.78654e-08
-3.98484e-07
-1.32081e-07
-3.16674e-08
1.71403e-07
-1.1876e-07
5.00705e-07
-2.53353e-07
8.05523e-07
-4.27594e-07
1.07768e-06
-6.33786e-07
1.31138e-06
-8.64454e-07
1.50259e-06
-1.11242e-06
1.64889e-06
-1.37085e-06
1.74934e-06
-1.63334e-06
1.8042e-06
-1.89392e-06
1.81475e-06
-2.14712e-06
1.78307e-06
-2.38796e-06
1.71184e-06
-2.612e-06
1.60425e-06
-2.81527e-06
1.46377e-06
-2.99435e-06
1.29416e-06
-3.14628e-06
1.09933e-06
-3.26861e-06
8.83325e-07
-3.35934e-06
6.50306e-07
-3.41695e-06
4.04529e-07
-3.4404e-06
1.50359e-07
-3.42911e-06
-1.07723e-07
-3.38302e-06
-3.65109e-07
-3.30255e-06
-6.17062e-07
-3.1887e-06
-8.58719e-07
-3.04302e-06
-1.08512e-06
-2.86768e-06
-1.29124e-06
-2.66551e-06
-1.47206e-06
-2.43998e-06
-1.62268e-06
-2.19527e-06
-1.73842e-06
-1.93625e-06
-1.815e-06
-1.66843e-06
-1.84868e-06
-1.39795e-06
-1.83653e-06
-1.1315e-06
-1.77661e-06
-8.7622e-07
-1.6682e-06
-6.39548e-07
-1.51204e-06
-4.29112e-07
-1.3105e-06
-2.5256e-07
-1.06779e-06
-1.17414e-07
-7.89969e-07
-3.09385e-08
-4.84959e-07
-1.63019e-07
-3.45888e-08
2.05992e-07
-1.29589e-07
5.95706e-07
-2.76128e-07
9.52062e-07
-4.65393e-07
1.26695e-06
-6.88764e-07
1.53475e-06
-9.37928e-07
1.75175e-06
-1.20497e-06
1.91593e-06
-1.48245e-06
2.02682e-06
-1.76345e-06
2.0852e-06
-2.04163e-06
2.09294e-06
-2.31126e-06
2.05269e-06
-2.56716e-06
1.96774e-06
-2.80476e-06
1.84185e-06
-3.02008e-06
1.67908e-06
-3.20963e-06
1.48372e-06
-3.37049e-06
1.26018e-06
-3.50019e-06
1.01303e-06
-3.59675e-06
7.46869e-07
-3.65865e-06
4.66426e-07
-3.6848e-06
1.76512e-07
-3.67458e-06
-1.17939e-07
-3.62784e-06
-4.11851e-07
-3.54491e-06
-6.99989e-07
-3.42667e-06
-9.76963e-07
-3.27455e-06
-1.23723e-06
-3.09063e-06
-1.47516e-06
-2.87764e-06
-1.68505e-06
-2.63905e-06
-1.86127e-06
-2.37907e-06
-1.9984e-06
-2.1027e-06
-2.09136e-06
-1.81571e-06
-2.13566e-06
-1.52464e-06
-2.1276e-06
-1.2367e-06
-2.06455e-06
-9.59684e-07
-1.94521e-06
-7.01859e-07
-1.76986e-06
-4.7178e-07
-1.54058e-06
-2.78121e-07
-1.26145e-06
-1.29471e-07
-9.38619e-07
-3.41509e-08
-5.80279e-07
-1.9717e-07
-3.75753e-08
2.43567e-07
-1.40622e-07
6.98753e-07
-2.99274e-07
1.11071e-06
-5.03708e-07
1.47138e-06
-7.44346e-07
1.77539e-06
-1.012e-06
2.0194e-06
-1.29798e-06
2.20192e-06
-1.59423e-06
2.32307e-06
-1.89334e-06
2.38431e-06
-2.1886e-06
2.3882e-06
-2.47401e-06
2.3381e-06
-2.74426e-06
2.23799e-06
-2.99472e-06
2.09231e-06
-3.22136e-06
1.90572e-06
-3.42075e-06
1.68311e-06
-3.58999e-06
1.42943e-06
-3.72669e-06
1.14972e-06
-3.82889e-06
8.49069e-07
-3.89508e-06
5.32614e-07
-3.92416e-06
2.05591e-07
-3.91545e-06
-1.26649e-07
-3.8687e-06
-4.58596e-07
-3.78413e-06
-7.84557e-07
-3.66246e-06
-1.09864e-06
-3.50496e-06
-1.39473e-06
-3.31354e-06
-1.66658e-06
-3.0908e-06
-1.90779e-06
-2.84011e-06
-2.11196e-06
-2.56567e-06
-2.27284e-06
-2.27257e-06
-2.38447e-06
-1.9668e-06
-2.44144e-06
-1.65524e-06
-2.43916e-06
-1.34563e-06
-2.37416e-06
-1.04648e-06
-2.24436e-06
-7.66919e-07
-2.04943e-06
-5.165e-07
-1.791e-06
-3.05008e-07
-1.47294e-06
-1.422e-07
-1.10143e-06
-3.7559e-08
-6.8492e-07
-2.34729e-07
-4.06588e-08
2.84226e-07
-1.51964e-07
8.10057e-07
-3.22976e-07
1.28173e-06
-5.42798e-07
1.6912e-06
-8.00824e-07
2.03341e-06
-1.08694e-06
2.30552e-06
-1.39168e-06
2.50666e-06
-1.70632e-06
2.63771e-06
-2.02296e-06
2.70095e-06
-2.33455e-06
2.69979e-06
-2.63487e-06
2.63842e-06
-2.91851e-06
2.52163e-06
-3.18081e-06
2.35461e-06
-3.4178e-06
2.14271e-06
-3.62614e-06
1.89144e-06
-3.80302e-06
1.60631e-06
-3.94614e-06
1.29284e-06
-4.05363e-06
9.56561e-07
-4.12402e-06
6.03004e-07
-4.15621e-06
2.37781e-07
-4.14947e-06
-1.33391e-07
-4.10344e-06
-5.04621e-07
-4.0182e-06
-8.69804e-07
-3.89425e-06
-1.22258e-06
-3.73267e-06
-1.55632e-06
-3.53513e-06
-1.86412e-06
-3.30401e-06
-2.13891e-06
-3.04251e-06
-2.37346e-06
-2.75476e-06
-2.5606e-06
-2.44583e-06
-2.69339e-06
-2.12188e-06
-2.76539e-06
-1.79012e-06
-2.77092e-06
-1.45882e-06
-2.70546e-06
-1.13719e-06
-2.56599e-06
-8.35273e-07
-2.35134e-06
-5.63723e-07
-2.06255e-06
-3.33539e-07
-1.70313e-06
-1.55776e-07
-1.27919e-06
-4.12164e-08
-7.99479e-07
-2.75945e-07
-4.38699e-08
3.28096e-07
-1.63712e-07
9.29899e-07
-3.47413e-07
1.46543e-06
-5.82897e-07
1.92669e-06
-8.58454e-07
2.30897e-06
-1.16298e-06
2.61004e-06
-1.48617e-06
2.82985e-06
-1.81864e-06
2.97018e-06
-2.152e-06
3.03432e-06
-2.47889e-06
3.02668e-06
-2.79292e-06
2.95245e-06
-3.08864e-06
2.81735e-06
-3.36143e-06
2.6274e-06
-3.60745e-06
2.38873e-06
-3.82351e-06
2.1075e-06
-4.00697e-06
1.78978e-06
-4.1557e-06
1.44157e-06
-4.26794e-06
1.0688e-06
-4.34231e-06
6.77373e-07
-4.37773e-06
2.73197e-07
-4.37342e-06
-1.37701e-07
-4.32892e-06
-5.49122e-07
-4.24411e-06
-9.54613e-07
-4.11928e-06
-1.34741e-06
-3.9552e-06
-1.72039e-06
-3.75326e-06
-2.06607e-06
-3.51553e-06
-2.37664e-06
-3.24494e-06
-2.64404e-06
-2.94541e-06
-2.86013e-06
-2.62196e-06
-3.01685e-06
-2.2808e-06
-3.10654e-06
-1.92943e-06
-3.12229e-06
-1.5766e-06
-3.0583e-06
-1.23225e-06
-2.91034e-06
-9.07394e-07
-2.6762e-06
-6.13866e-07
-2.35608e-06
-3.64019e-07
-1.95298e-06
-1.70366e-07
-1.47284e-06
-4.51753e-08
-9.2467e-07
-3.2112e-07
-4.72403e-08
3.75336e-07
-1.75969e-07
1.05863e-06
-3.72761e-07
1.66222e-06
-6.24236e-07
2.17816e-06
-9.17461e-07
2.6022e-06
-1.24026e-06
2.93284e-06
-1.58144e-06
3.17103e-06
-1.93095e-06
3.31968e-06
-2.27992e-06
3.38329e-06
-2.62071e-06
3.36747e-06
-2.94684e-06
3.27857e-06
-3.25287e-06
3.12338e-06
-3.53435e-06
2.90888e-06
-3.78764e-06
2.64202e-06
-4.00978e-06
2.32964e-06
-4.1984e-06
1.9784e-06
-4.35159e-06
1.59476e-06
-4.46779e-06
1.185e-06
-4.54573e-06
7.55314e-07
-4.58439e-06
3.11858e-07
-4.58296e-06
-1.39126e-07
-4.54087e-06
-5.91216e-07
-4.45779e-06
-1.0377e-06
-4.33372e-06
-1.47148e-06
-4.16909e-06
-1.88502e-06
-3.96488e-06
-2.27028e-06
-3.72277e-06
-2.61875e-06
-3.44531e-06
-2.92151e-06
-3.13609e-06
-3.16935e-06
-2.79992e-06
-3.35301e-06
-2.443e-06
-3.46346e-06
-2.073e-06
-3.49229e-06
-1.6991e-06
-3.4322e-06
-1.33198e-06
-3.27745e-06
-9.8368e-07
-3.0245e-06
-6.67309e-07
-2.67245e-06
-3.96738e-07
-2.22355e-06
-1.86137e-07
-1.68344e-06
-4.94883e-08
-1.06132e-06
-3.70609e-07
-5.08056e-08
4.26142e-07
-1.88848e-07
1.19667e-06
-3.99216e-07
1.87259e-06
-6.67053e-07
2.446e-06
-9.78064e-07
2.91321e-06
-1.31889e-06
3.27367e-06
-1.6774e-06
3.52954e-06
-2.04284e-06
3.68512e-06
-2.4059e-06
3.74636e-06
-2.75873e-06
3.72029e-06
-3.09481e-06
3.61465e-06
-3.40886e-06
3.43744e-06
-3.69667e-06
3.19669e-06
-3.95491e-06
2.90026e-06
-4.181e-06
2.55572e-06
-4.37289e-06
2.1703e-06
-4.52901e-06
1.75087e-06
-4.64804e-06
1.30404e-06
-4.72892e-06
8.3619e-07
-4.7707e-06
3.53642e-07
-4.77258e-06
-1.37252e-07
-4.73384e-06
-6.29951e-07
-4.65395e-06
-1.11759e-06
-4.53257e-06
-1.59286e-06
-4.36971e-06
-2.04788e-06
-4.16586e-06
-2.47413e-06
-3.92217e-06
-2.86244e-06
-3.64066e-06
-3.20301e-06
-3.32447e-06
-3.48554e-06
-2.97805e-06
-3.69944e-06
-2.6074e-06
-3.83411e-06
-2.22026e-06
-3.87943e-06
-1.82618e-06
-3.82627e-06
-1.43655e-06
-3.66709e-06
-1.06445e-06
-3.3966e-06
-7.24403e-07
-3.01249e-06
-4.31982e-07
-2.51597e-06
-2.03258e-07
-1.91217e-06
-5.42109e-08
-1.21037e-06
-4.2482e-07
-5.46096e-08
4.80751e-07
-2.02486e-07
1.34455e-06
-4.27007e-07
2.09711e-06
-7.11623e-07
2.73061e-06
-1.04049e-06
3.24208e-06
-1.39895e-06
3.63213e-06
-1.77384e-06
3.90443e-06
-2.1537e-06
4.06498e-06
-2.52882e-06
4.12148e-06
-2.89123e-06
4.0827e-06
-3.23449e-06
3.95791e-06
-3.55359e-06
3.75654e-06
-3.84469e-06
3.4878e-06
-4.10495e-06
3.16051e-06
-4.33223e-06
2.783e-06
-4.52498e-06
2.36305e-06
-4.68201e-06
1.90791e-06
-4.80239e-06
1.42441e-06
-4.88528e-06
9.19076e-07
-4.92988e-06
3.98246e-07
-4.9354e-06
-1.31729e-07
-4.90103e-06
-6.64325e-07
-4.82596e-06
-1.19266e-06
-4.7095e-06
-1.70932e-06
-4.55116e-06
-2.20622e-06
-4.35083e-06
-2.67446e-06
-4.109e-06
-3.10426e-06
-3.82702e-06
-3.485e-06
-3.50735e-06
-3.80521e-06
-3.1539e-06
-4.05288e-06
-2.77232e-06
-4.21569e-06
-2.37023e-06
-4.28153e-06
-1.95742e-06
-4.23908e-06
-1.54593e-06
-4.07858e-06
-1.14993e-06
-3.7926e-06
-7.85473e-07
-3.37695e-06
-4.70043e-07
-2.8314e-06
-2.21911e-07
-2.1603e-06
-5.94039e-08
-1.37287e-06
-4.84223e-07
-5.87084e-08
5.3946e-07
-2.17057e-07
1.5029e-06
-4.56424e-07
2.33648e-06
-7.58282e-07
3.03247e-06
-1.10501e-06
3.5888e-06
-1.48048e-06
4.0076e-06
-1.87043e-06
4.29438e-06
-2.26269e-06
4.45725e-06
-2.64723e-06
4.50602e-06
-3.01603e-06
4.4515e-06
-3.36292e-06
4.3048e-06
-3.6833e-06
4.07691e-06
-3.97389e-06
3.77839e-06
-4.23244e-06
3.41907e-06
-4.45747e-06
3.00804e-06
-4.64802e-06
2.55359e-06
-4.80343e-06
2.06332e-06
-4.9232e-06
1.54419e-06
-5.00683e-06
1.00271e-06
-5.05373e-06
4.45142e-07
-5.06314e-06
-1.22315e-07
-5.03416e-06
-6.93307e-07
-4.96573e-06
-1.26109e-06
-4.85673e-06
-1.81832e-06
-4.70611e-06
-2.35684e-06
-4.51306e-06
-2.86751e-06
-4.27726e-06
-3.34006e-06
-3.99918e-06
-3.76307e-06
-3.68044e-06
-4.12395e-06
-3.32416e-06
-4.40916e-06
-2.93537e-06
-4.60448e-06
-2.52137e-06
-4.69553e-06
-2.09202e-06
-4.66843e-06
-1.65989e-06
-4.5107e-06
-1.24026e-06
-4.21223e-06
-8.50828e-07
-3.76638e-06
-5.11231e-07
-3.171e-06
-2.42299e-07
-2.42923e-06
-6.51372e-08
-1.55003e-06
-5.49361e-07
-6.31776e-08
6.02637e-07
-2.32793e-07
1.67251e-06
-4.87844e-07
2.59153e-06
-8.07462e-07
3.35209e-06
-1.17195e-06
3.9533e-06
-1.56352e-06
4.39917e-06
-1.96674e-06
4.69759e-06
-2.36874e-06
4.85925e-06
-2.75926e-06
4.89654e-06
-3.1304e-06
4.82264e-06
-3.47642e-06
4.65082e-06
-3.79337e-06
4.39386e-06
-4.0787e-06
4.06372e-06
-4.33098e-06
3.67135e-06
-4.54952e-06
3.22657e-06
-4.73409e-06
2.73817e-06
-4.88472e-06
2.21395e-06
-5.00144e-06
1.6609e-06
-5.08415e-06
1.08542e-06
-5.13254e-06
4.93527e-07
-5.14594e-06
-1.0891e-07
-5.12338e-06
-7.15871e-07
-5.06353e-06
-1.32094e-06
-4.96483e-06
-1.91702e-06
-4.8256e-06
-2.49607e-06
-4.64422e-06
-3.04889e-06
-4.41941e-06
-3.56487e-06
-4.15058e-06
-4.03189e-06
-3.83824e-06
-4.4363e-06
-3.48444e-06
-4.76296e-06
-3.0933e-06
-4.99562e-06
-2.67152e-06
-5.11731e-06
-2.22876e-06
-5.11119e-06
-1.77798e-06
-4.96148e-06
-1.33549e-06
-4.65472e-06
-9.2077e-07
-4.1811e-06
-5.55888e-07
-3.53588e-06
-2.64658e-07
-2.72046e-06
-7.14949e-08
-1.7432e-06
-6.20856e-07
-6.81207e-08
6.70758e-07
-2.50006e-07
1.8544e-06
-5.21772e-07
2.86329e-06
-8.59731e-07
3.69005e-06
-1.24174e-06
4.33531e-06
-1.64813e-06
4.80555e-06
-2.06219e-06
5.11166e-06
-2.47044e-06
5.2675e-06
-2.86251e-06
5.2886e-06
-3.23087e-06
5.191e-06
-3.57044e-06
4.99039e-06
-3.87814e-06
4.70156e-06
-4.15243e-06
4.33801e-06
-4.39288e-06
3.9118e-06
-4.5998e-06
3.43349e-06
-4.77386e-06
2.91223e-06
-4.91587e-06
2.35596e-06
-5.02652e-06
1.77155e-06
-5.10622e-06
1.16513e-06
-5.15497e-06
5.42281e-07
-5.17228e-06
-9.16018e-08
-5.15711e-06
-7.31042e-07
-5.1079e-06
-1.37015e-06
-5.02262e-06
-2.0023e-06
-4.8989e-06
-2.61979e-06
-4.73423e-06
-3.21356e-06
-4.52622e-06
-3.77288e-06
-4.27302e-06
-4.2851e-06
-3.97374e-06
-4.73558e-06
-3.62905e-06
-5.10766e-06
-3.2418e-06
-5.38286e-06
-2.81769e-06
-5.54142e-06
-2.36586e-06
-5.56302e-06
-1.89939e-06
-5.42796e-06
-1.43553e-06
-5.11858e-06
-9.956e-07
-4.62103e-06
-6.04413e-07
-3.92706e-06
-2.89276e-07
-3.0356e-06
-7.8582e-08
-1.95389e-06
-6.99438e-07
-7.36809e-08
7.44439e-07
-2.69125e-07
2.04984e-06
-5.58887e-07
3.15305e-06
-9.15833e-07
4.047e-06
-1.31491e-06
4.73439e-06
-1.7343e-06
5.22493e-06
-2.15598e-06
5.53334e-06
-2.56593e-06
5.67746e-06
-2.95393e-06
5.6766e-06
-3.31308e-06
5.55015e-06
-3.6393e-06
5.3166e-06
-3.93069e-06
4.99295e-06
-4.18698e-06
4.5943e-06
-4.40899e-06
4.13382e-06
-4.59821e-06
3.6227e-06
-4.75638e-06
3.07041e-06
-4.88524e-06
2.48481e-06
-4.98623e-06
1.87254e-06
-5.06035e-06
1.23925e-06
-5.108e-06
5.8993e-07
-5.12889e-06
-7.07109e-08
-5.122e-06
-7.37941e-07
-5.08553e-06
-1.40662e-06
-5.017e-06
-2.07082e-06
-4.91334e-06
-2.72345e-06
-4.77105e-06
-3.35585e-06
-4.58652e-06
-3.95741e-06
-4.35641e-06
-4.51521e-06
-4.07818e-06
-5.01381e-06
-3.75074e-06
-5.4351e-06
-3.37523e-06
-5.75837e-06
-2.95588e-06
-5.96077e-06
-2.50084e-06
-6.01806e-06
-2.02293e-06
-5.90586e-06
-1.54014e-06
-5.60137e-06
-1.07563e-06
-5.08554e-06
-6.57287e-07
-4.34541e-06
-3.16518e-07
-3.37637e-06
-8.6535e-08
-2.18387e-06
-7.85973e-07
-8.00584e-08
8.24497e-07
-2.90734e-07
2.26052e-06
-6.00097e-07
3.46242e-06
-9.76734e-07
4.42363e-06
-1.3921e-06
5.14976e-06
-1.82195e-06
5.65477e-06
-2.24693e-06
5.95832e-06
-2.65271e-06
6.08324e-06
-3.02952e-06
6.05341e-06
-3.37151e-06
5.89214e-06
-3.67597e-06
5.62107e-06
-3.94256e-06
5.25954e-06
-4.1726e-06
4.82434e-06
-4.36843e-06
4.32964e-06
-4.5329e-06
3.78718e-06
-4.669e-06
3.2065e-06
-4.77947e-06
2.59529e-06
-4.86664e-06
1.9597e-06
-4.93213e-06
1.30475e-06
-4.97684e-06
6.34633e-07
-5.00072e-06
-4.6825e-08
-5.00282e-06
-7.35845e-07
-4.98117e-06
-1.42826e-06
-4.93287e-06
-2.11912e-06
-4.85414e-06
-2.80219e-06
-4.74048e-06
-3.46952e-06
-4.58693e-06
-4.11095e-06
-4.38851e-06
-4.71363e-06
-4.14073e-06
-5.2616e-06
-3.84035e-06
-5.73548e-06
-3.48631e-06
-6.11241e-06
-3.08078e-06
-6.36631e-06
-2.6303e-06
-6.46854e-06
-2.14689e-06
-6.38927e-06
-1.64886e-06
-6.0994e-06
-1.16119e-06
-5.57321e-06
-7.1511e-07
-4.79149e-06
-3.46861e-07
-3.74462e-06
-9.55361e-08
-2.4352e-06
-8.81509e-07
-8.75346e-08
9.12032e-07
-3.1564e-07
2.48862e-06
-6.46617e-07
3.79339e-06
-1.04367e-06
4.82068e-06
-1.47404e-06
5.58014e-06
-1.91078e-06
6.09151e-06
-2.33331e-06
6.38085e-06
-2.72731e-06
6.47724e-06
-3.08396e-06
6.41007e-06
-3.39899e-06
6.20717e-06
-3.67157e-06
5.89365e-06
-3.90334e-06
5.49131e-06
-4.09755e-06
5.01854e-06
-4.2583e-06
4.4904e-06
-4.39004e-06
3.91892e-06
-4.49709e-06
3.31355e-06
-4.58333e-06
2.68153e-06
-4.65197e-06
2.02835e-06
-4.70537e-06
1.35815e-06
-4.74493e-06
6.74185e-07
-4.77093e-06
-2.0826e-08
-4.78252e-06
-7.24251e-07
-4.77766e-06
-1.43313e-06
-4.75307e-06
-2.1437e-06
-4.70434e-06
-2.85092e-06
-4.62596e-06
-3.54789e-06
-4.51163e-06
-4.22528e-06
-4.35457e-06
-4.8707e-06
-4.14809e-06
-5.46807e-06
-3.88642e-06
-5.99715e-06
-3.56571e-06
-6.43312e-06
-3.18538e-06
-6.74664e-06
-2.74958e-06
-6.90434e-06
-2.26875e-06
-6.8701e-06
-1.76093e-06
-6.60722e-06
-1.25262e-06
-6.08152e-06
-7.7865e-07
-5.26546e-06
-3.80945e-07
-4.14232e-06
-1.05836e-07
-2.71031e-06
-9.87345e-07
-9.65091e-08
1.00854e-06
-3.44953e-07
2.73707e-06
-7.00052e-07
4.14849e-06
-1.11815e-06
5.23878e-06
-1.56145e-06
6.02343e-06
-2.00004e-06
6.5301e-06
-2.4124e-06
6.79321e-06
-2.7848e-06
6.84963e-06
-3.11007e-06
6.73534e-06
-3.3862e-06
6.48329e-06
-3.61485e-06
6.1223e-06
-3.80014e-06
5.6766e-06
-3.94759e-06
5.166e-06
-4.06334e-06
4.60615e-06
-4.15355e-06
4.00913e-06
-4.22396e-06
3.38396e-06
-4.27961e-06
2.73718e-06
-4.32464e-06
2.07338e-06
-4.36214e-06
1.39565e-06
-4.39402e-06
7.06067e-07
-4.42095e-06
6.10582e-09
-4.44227e-06
-7.02933e-07
-4.45591e-06
-1.41948e-06
-4.45838e-06
-2.14124e-06
-4.44469e-06
-2.8646e-06
-4.40849e-06
-3.58409e-06
-4.34212e-06
-4.29165e-06
-4.23699e-06
-4.97583e-06
-4.08403e-06
-5.62103e-06
-3.87457e-06
-6.20661e-06
-3.60141e-06
-6.70628e-06
-3.26041e-06
-7.08764e-06
-2.85232e-06
-7.31243e-06
-2.38492e-06
-7.3375e-06
-1.87507e-06
-7.11707e-06
-1.35021e-06
-6.60638e-06
-8.48896e-07
-5.76677e-06
-4.19648e-07
-4.57157e-06
-1.1779e-07
-3.01217e-06
-1.10513e-06
-1.07556e-07
1.1161e-06
-3.80205e-07
3.00972e-06
-7.62502e-07
4.53079e-06
-1.20197e-06
5.67825e-06
-1.65479e-06
6.47626e-06
-2.08807e-06
6.96338e-06
-2.4799e-06
7.18504e-06
-2.81804e-06
7.18777e-06
-3.09795e-06
7.01526e-06
-3.32078e-06
6.70612e-06
-3.4914e-06
6.29292e-06
-3.61693e-06
5.80213e-06
-3.70551e-06
5.25458e-06
-3.76548e-06
4.66612e-06
-3.80478e-06
4.04843e-06
-3.83059e-06
3.40976e-06
-3.84907e-06
2.75566e-06
-3.86523e-06
2.08954e-06
-3.88283e-06
1.41325e-06
-3.90431e-06
7.27545e-07
-3.93072e-06
3.25169e-08
-3.96165e-06
-6.71999e-07
-3.99515e-06
-1.38598e-06
-4.02763e-06
-2.10876e-06
-4.05376e-06
-2.83847e-06
-4.06649e-06
-3.57137e-06
-4.057e-06
-4.30114e-06
-4.01496e-06
-5.01787e-06
-3.9289e-06
-5.70709e-06
-3.78695e-06
-6.34856e-06
-3.57804e-06
-6.91519e-06
-3.29356e-06
-7.37212e-06
-2.9297e-06
-7.67629e-06
-2.49016e-06
-7.77704e-06
-1.98918e-06
-7.61805e-06
-1.45415e-06
-7.14141e-06
-9.27121e-07
-6.2938e-06
-4.64189e-07
-5.0345e-06
-1.3191e-07
-3.34444e-06
-1.23705e-06
-1.21517e-07
1.23762e-06
-4.23527e-07
3.31172e-06
-8.36663e-07
4.94393e-06
-1.29706e-06
6.13865e-06
-1.75389e-06
6.93309e-06
-2.17158e-06
7.38107e-06
-2.52891e-06
7.54236e-06
-2.8165e-06
7.47536e-06
-3.03382e-06
7.23258e-06
-3.18625e-06
6.85854e-06
-3.28268e-06
6.38935e-06
-3.33372e-06
5.85318e-06
-3.35042e-06
5.27127e-06
-3.34336e-06
4.65907e-06
-3.32225e-06
4.02732e-06
-3.29557e-06
3.38308e-06
-3.27044e-06
2.73053e-06
-3.2526e-06
2.0717e-06
-3.24638e-06
1.40703e-06
-3.25467e-06
7.35837e-07
-3.2789e-06
5.67467e-08
-3.31897e-06
-6.31928e-07
-3.37316e-06
-1.3318e-06
-3.43798e-06
-2.04394e-06
-3.50804e-06
-2.76841e-06
-3.57587e-06
-3.50354e-06
-3.63183e-06
-4.24517e-06
-3.66413e-06
-4.98558e-06
-3.65901e-06
-5.7122e-06
-3.60137e-06
-6.4062e-06
-3.47581e-06
-7.04075e-06
-3.26843e-06
-7.5795e-06
-2.96945e-06
-7.97527e-06
-2.57669e-06
-8.16979e-06
-2.09977e-06
-8.09498e-06
-1.56427e-06
-7.67692e-06
-1.01493e-06
-6.84313e-06
-5.16284e-07
-5.53315e-06
-1.4896e-07
-3.71177e-06
-1.386e-06
-1.39652e-07
1.37727e-06
-4.77885e-07
3.64996e-06
-9.25904e-07
5.39194e-06
-1.40516e-06
6.6179e-06
-1.85704e-06
7.38497e-06
-2.24431e-06
7.76834e-06
-2.54831e-06
7.84637e-06
-2.76459e-06
7.69165e-06
-2.89833e-06
7.36632e-06
-2.96045e-06
6.92067e-06
-2.96469e-06
6.39359e-06
-2.92554e-06
5.81403e-06
-2.85702e-06
5.20275e-06
-2.7719e-06
4.57395e-06
-2.68138e-06
3.9368e-06
-2.59496e-06
3.29666e-06
-2.52047e-06
2.65604e-06
-2.46412e-06
2.01535e-06
-2.4306e-06
1.3735e-06
-2.42311e-06
7.28346e-07
-2.4434e-06
7.70437e-08
-2.49174e-06
-5.83592e-07
-2.56676e-06
-1.25678e-06
-2.66532e-06
-1.94538e-06
-2.78229e-06
-2.65144e-06
-2.91023e-06
-3.3756e-06
-3.03916e-06
-4.11625e-06
-3.15631e-06
-4.86842e-06
-3.24611e-06
-5.62241e-06
-3.29041e-06
-6.3619e-06
-3.26936e-06
-7.0618e-06
-3.16305e-06
-7.68581e-06
-2.95432e-06
-8.18401e-06
-2.63289e-06
-8.49121e-06
-2.20098e-06
-8.52689e-06
-1.67956e-06
-8.19833e-06
-1.11425e-06
-7.40844e-06
-5.78368e-07
-6.06904e-06
-1.70105e-07
-4.12003e-06
-1.55611e-06
-1.63901e-07
1.54117e-06
-5.4743e-07
4.03349e-06
-1.03421e-06
5.87872e-06
-1.52701e-06
7.11071e-06
-1.95945e-06
7.8174e-06
-2.29489e-06
8.10378e-06
-2.52034e-06
8.07182e-06
-2.63912e-06
7.81042e-06
-2.66428e-06
7.39148e-06
-2.61367e-06
6.87005e-06
-2.50649e-06
6.28641e-06
-2.36131e-06
5.66885e-06
-2.19491e-06
5.03635e-06
-2.02184e-06
4.40087e-06
-1.85433e-06
3.7693e-06
-1.70245e-06
3.14478e-06
-1.57425e-06
2.52784e-06