/*--------------------------------*- C++ -*----------------------------------*\
  =========                 |
  \\      /  F ield         | OpenFOAM: The Open Source CFD Toolbox
   \\    /   O peration     | Website:  https://openfoam.org
    \\  /    A nd           | Version:  7
     \\/     M anipulation  |
\*---------------------------------------------------------------------------*/
FoamFile
{
    version     2.0;
    format      ascii;
    class       volVectorField;
    location    "0.44";
    object      U;
}
// * * * * * * * * * * * * * * * * * * * * * * * * * * * * * * * * * * * * * //

dimensions      [0 1 -1 0 0 0 0];

internalField   nonuniform List<vector> 
1600
(
(6.04251e-05 -6.0588e-05 0)
(0.000155834 -5.71681e-05 0)
(0.000156909 -7.06219e-06 0)
(6.64667e-06 5.24104e-05 0)
(-0.000303323 0.000107925 0)
(-0.000756588 0.000154772 0)
(-0.00132868 0.000191588 0)
(-0.00199262 0.000218418 0)
(-0.00272119 0.000235837 0)
(-0.00348809 0.000244594 0)
(-0.0042686 0.000245478 0)
(-0.00503982 0.000239274 0)
(-0.00578092 0.000226743 0)
(-0.00647311 0.000208619 0)
(-0.00709977 0.00018561 0)
(-0.00764641 0.000158408 0)
(-0.00810069 0.000127694 0)
(-0.00845247 9.41487e-05 0)
(-0.00869383 5.84612e-05 0)
(-0.00881913 2.13388e-05 0)
(-0.00882507 -1.64849e-05 0)
(-0.00871081 -5.42434e-05 0)
(-0.00847803 -9.1134e-05 0)
(-0.00813102 -0.000126317 0)
(-0.00767681 -0.00015892 0)
(-0.00712518 -0.000188047 0)
(-0.00648868 -0.000212784 0)
(-0.00578267 -0.00023222 0)
(-0.00502519 -0.000245455 0)
(-0.00423684 -0.000251621 0)
(-0.00344054 -0.000249905 0)
(-0.00266124 -0.000239568 0)
(-0.00192545 -0.000219974 0)
(-0.00126068 -0.000190642 0)
(-0.000694506 -0.000151373 0)
(-0.000253164 -0.000102588 0)
(4.08369e-05 -4.61703e-05 0)
(0.000174366 1.26479e-05 0)
(0.00016036 6.01801e-05 0)
(6.02524e-05 6.00163e-05 0)
(5.86065e-05 -0.000157103 0)
(7.24379e-05 -6.9559e-05 0)
(-0.000178533 0.000182293 0)
(-0.000772842 0.000476925 0)
(-0.00172497 0.000761018 0)
(-0.00300837 0.00100942 0)
(-0.00457447 0.00121082 0)
(-0.00636386 0.00136131 0)
(-0.00831277 0.00146081 0)
(-0.010357 0.00151121 0)
(-0.0124341 0.00151549 0)
(-0.0144854 0.0014772 0)
(-0.0164562 0.00140023 0)
(-0.018297 0.00128861 0)
(-0.0199635 0.00114649 0)
(-0.0214168 0.000978074 0)
(-0.0226239 0.000787611 0)
(-0.0235576 0.00057944 0)
(-0.0241968 0.000357995 0)
(-0.0245266 0.000127837 0)
(-0.0245386 -0.000106319 0)
(-0.0242308 -0.000339587 0)
(-0.0236081 -0.000566909 0)
(-0.0226827 -0.000783061 0)
(-0.0214737 -0.000982696 0)
(-0.0200075 -0.0011604 0)
(-0.0183177 -0.00131075 0)
(-0.0164452 -0.00142848 0)
(-0.0144373 -0.00150851 0)
(-0.0123478 -0.0015462 0)
(-0.0102357 -0.00153745 0)
(-0.00816434 -0.00147898 0)
(-0.00619992 -0.00136863 0)
(-0.00440916 -0.00120584 0)
(-0.00285648 -0.000992513 0)
(-0.00159962 -0.000734701 0)
(-0.000683044 -0.000445964 0)
(-0.000126882 -0.000153462 0)
(9.19996e-05 8.83753e-05 0)
(6.17311e-05 0.000160746 0)
(1.1434e-05 -0.000162907 0)
(-0.000171971 0.000178372 0)
(-0.000804144 0.000813918 0)
(-0.00193126 0.00153644 0)
(-0.00355422 0.00223892 0)
(-0.00563707 0.00286185 0)
(-0.00811499 0.00337364 0)
(-0.0109065 0.0037599 0)
(-0.013922 0.00401645 0)
(-0.0170696 0.00414526 0)
(-0.0202584 0.004152 0)
(-0.0234016 0.00404468 0)
(-0.0264179 0.00383271 0)
(-0.0292328 0.00352643 0)
(-0.0317795 0.00313674 0)
(-0.0339991 0.00267495 0)
(-0.0358414 0.00215271 0)
(-0.0372654 0.00158196 0)
(-0.0382389 0.000975012 0)
(-0.0387395 0.00034452 0)
(-0.0387546 -0.000296441 0)
(-0.0382817 -0.000934373 0)
(-0.0373286 -0.00155537 0)
(-0.035914 -0.00214516 0)
(-0.0340673 -0.00268925 0)
(-0.0318287 -0.00317305 0)
(-0.0292493 -0.00358217 0)
(-0.0263904 -0.00390266 0)
(-0.0233231 -0.00412145 0)
(-0.0201275 -0.00422678 0)
(-0.0168909 -0.00420876 0)
(-0.0137062 -0.00406014 0)
(-0.0106694 -0.0037772 0)
(-0.00787585 -0.00336123 0)
(-0.00541606 -0.00282067 0)
(-0.00336954 -0.00217486 0)
(-0.00179593 -0.00146045 0)
(-0.00072316 -0.000741232 0)
(-0.000138869 -0.000126458 0)
(1.7669e-05 0.000180108 0)
(-4.54029e-05 -2.20866e-05 0)
(-0.000464425 0.000768037 0)
(-0.00153559 0.00194156 0)
(-0.00324222 0.00322697 0)
(-0.00555522 0.0044686 0)
(-0.00842364 0.00557155 0)
(-0.0117665 0.00648079 0)
(-0.0154837 0.00716822 0)
(-0.0194657 0.00762321 0)
(-0.0235989 0.00784644 0)
(-0.0277705 0.00784604 0)
(-0.0318717 0.00763506 0)
(-0.0358 0.00722973 0)
(-0.039461 0.00664848 0)
(-0.0427696 0.00591117 0)
(-0.0456509 0.00503873 0)
(-0.0480408 0.00405291 0)
(-0.0498867 0.00297619 0)
(-0.0511476 0.00183174 0)
(-0.051795 0.000643503 0)
(-0.0518128 -0.000563855 0)
(-0.0511982 -0.00176491 0)
(-0.0499615 -0.00293353 0)
(-0.0481267 -0.00404305 0)
(-0.0457315 -0.00506645 0)
(-0.0428275 -0.00597673 0)
(-0.0394796 -0.00674736 0)
(-0.0357657 -0.0073529 0)
(-0.0317761 -0.00776973 0)
(-0.0276115 -0.00797697 0)
(-0.0233815 -0.00795759 0)
(-0.0192024 -0.00769981 0)
(-0.015193 -0.00719891 0)
(-0.0114713 -0.00645968 0)
(-0.00814853 -0.0055 0)
(-0.00532271 -0.00435636 0)
(-0.00306925 -0.0030923 0)
(-0.00143003 -0.00181007 0)
(-0.000420075 -0.00066963 0)
(-3.66786e-05 5.98387e-05 0)
(-0.000100467 0.000278573 0)
(-0.000761272 0.00172935 0)
(-0.00229015 0.00359238 0)
(-0.00459424 0.00555667 0)
(-0.00760406 0.00742949 0)
(-0.0112476 0.00908571 0)
(-0.0154251 0.0104484 0)
(-0.0200184 0.0114754 0)
(-0.0249 0.0121489 0)
(-0.0299384 0.0124677 0)
(-0.0350027 0.0124424 0)
(-0.0399666 0.0120912 0)
(-0.0447106 0.011438 0)
(-0.0491242 0.0105108 0)
(-0.0531079 0.00933974 0)
(-0.0565738 0.00795735 0)
(-0.0594465 0.0063975 0)
(-0.0616641 0.00469541 0)
(-0.0631785 0.00288749 0)
(-0.0639563 0.00101134 0)
(-0.0639787 -0.000894243 0)
(-0.0632422 -0.00278937 0)
(-0.0617591 -0.00463314 0)
(-0.0595577 -0.00638387 0)
(-0.0566823 -0.0079995 0)
(-0.0531932 -0.00943815 0)
(-0.0491666 -0.0106589 0)
(-0.0446937 -0.0116225 0)
(-0.0398796 -0.0122932 0)
(-0.0348419 -0.0126394 0)
(-0.0297083 -0.0126359 0)
(-0.0246136 -0.0122662 0)
(-0.019696 -0.0115246 0)
(-0.0150924 -0.0104203 0)
(-0.010933 -0.00898155 0)
(-0.00733433 -0.0072628 0)
(-0.00439061 -0.0053536 0)
(-0.00216393 -0.00339039 0)
(-0.000707302 -0.00157356 0)
(-8.9601e-05 -0.000214691 0)
(-0.000150701 0.00073269 0)
(-0.00104603 0.00306306 0)
(-0.00303014 0.00577368 0)
(-0.00593154 0.00853291 0)
(-0.00963519 0.0111226 0)
(-0.0140432 0.0133944 0)
(-0.0190342 0.0152533 0)
(-0.0244705 0.0166448 0)
(-0.0302072 0.0175449 0)
(-0.0360964 0.0179509 0)
(-0.0419917 0.0178759 0)
(-0.0477518 0.0173443 0)
(-0.0532434 0.0163887 0)
(-0.0583431 0.0150471 0)
(-0.0629396 0.0133618 0)
(-0.0669344 0.0113782 0)
(-0.0702434 0.00914396 0)
(-0.0727973 0.00670888 0)
(-0.0745421 0.00412445 0)
(-0.0754403 0.00144389 0)
(-0.0754707 -0.00127793 0)
(-0.0746295 -0.00398458 0)
(-0.0729301 -0.00661832 0)
(-0.0704038 -0.00912041 0)
(-0.0671001 -0.0114317 0)
(-0.0630861 -0.0134933 0)
(-0.0584466 -0.015248 0)
(-0.0532833 -0.0166413 0)
(-0.0477134 -0.0176231 0)
(-0.0418682 -0.01815 0)
(-0.0358903 -0.0181878 0)
(-0.0299307 -0.017714 0)
(-0.0241448 -0.0167218 0)
(-0.0186871 -0.0152243 0)
(-0.0137066 -0.0132598 0)
(-0.00934049 -0.0108992 0)
(-0.00570488 -0.0082551 0)
(-0.00288718 -0.00549207 0)
(-0.000983772 -0.00284077 0)
(-0.000137874 -0.000637816 0)
(-0.000196003 0.00132994 0)
(-0.00131432 0.00475778 0)
(-0.00374173 0.0084778 0)
(-0.00723092 0.0121501 0)
(-0.0116197 0.0155408 0)
(-0.0167812 0.0184855 0)
(-0.0225697 0.0208758 0)
(-0.0288265 0.0226485 0)
(-0.0353886 0.0237748 0)
(-0.0420923 0.0242523 0)
(-0.0487767 0.0240978 0)
(-0.0552876 0.0233428 0)
(-0.0614797 0.0220293 0)
(-0.0672189 0.0202069 0)
(-0.0723843 0.017931 0)
(-0.0768693 0.0152611 0)
(-0.0805823 0.0122603 0)
(-0.0834483 0.00899411 0)
(-0.0854087 0.00553059 0)
(-0.0864224 0.00194011 0)
(-0.0864663 -0.00170485 0)
(-0.0855357 -0.00532979 0)
(-0.0836448 -0.0088585 0)
(-0.080827 -0.0122135 0)
(-0.077135 -0.015317 0)
(-0.0726411 -0.0180914 0)
(-0.0674368 -0.0204616 0)
(-0.0616318 -0.0223557 0)
(-0.0553535 -0.0237083 0)
(-0.0487443 -0.0244626 0)
(-0.0419602 -0.0245736 0)
(-0.0351667 -0.024012 0)
(-0.0285353 -0.0227685 0)
(-0.0222387 -0.0208586 0)
(-0.0164458 -0.0183288 0)
(-0.011316 -0.0152641 0)
(-0.00699103 -0.0117958 0)
(-0.00358689 -0.00811094 0)
(-0.00124532 -0.00446195 0)
(-0.000181371 -0.00119984 0)
(-0.000237303 0.00206061 0)
(-0.00156737 0.00679894 0)
(-0.00442384 0.0116913 0)
(-0.00848815 0.0163966 0)
(-0.0135512 0.0206728 0)
(-0.0194557 0.0243459 0)
(-0.0260294 0.0272993 0)
(-0.033091 0.0294646 0)
(-0.0404586 0.0308116 0)
(-0.0479524 0.0313399 0)
(-0.0553977 0.0310721 0)
(-0.0626283 0.0300481 0)
(-0.0694883 0.0283208 0)
(-0.0758348 0.0259525 0)
(-0.0815388 0.0230128 0)
(-0.086487 0.0195768 0)
(-0.0905823 0.0157235 0)
(-0.0937448 0.0115356 0)
(-0.0959123 0.00709889 0)
(-0.0970408 0.00250179 0)
(-0.0971052 -0.00216442 0)
(-0.0961 -0.00680603 0)
(-0.0940391 -0.0113272 0)
(-0.0909569 -0.0156305 0)
(-0.0869085 -0.019618 0)
(-0.0819696 -0.0231921 0)
(-0.0762363 -0.026258 0)
(-0.069825 -0.0287255 0)
(-0.0628709 -0.0305116 0)
(-0.0555265 -0.0315444 0)
(-0.0479595 -0.0317666 0)
(-0.0403495 -0.03114 0)
(-0.0328842 -0.0296508 0)
(-0.025755 -0.0273147 0)
(-0.0191522 -0.024184 0)
(-0.0132602 -0.0203539 0)
(-0.00824836 -0.0159707 0)
(-0.00426382 -0.0112383 0)
(-0.00149378 -0.00642539 0)
(-0.000221107 -0.00189189 0)
(-0.000275738 0.00291692 0)
(-0.0018085 0.00917315 0)
(-0.0050814 0.0154006 0)
(-0.00970892 0.0212606 0)
(-0.0154363 0.0265082 0)
(-0.0220746 0.0309651 0)
(-0.0294239 0.0345117 0)
(-0.0372792 0.0370784 0)
(-0.0454386 0.038637 0)
(-0.0537058 0.0391923 0)
(-0.0618926 0.0387746 0)
(-0.0698211 0.0374342 0)
(-0.0773262 0.0352365 0)
(-0.084257 0.0322581 0)
(-0.0904782 0.0285839 0)
(-0.095871 0.0243053 0)
(-0.100334 0.0195187 0)
(-0.103783 0.0143245 0)
(-0.106154 0.00882693 0)
(-0.1074 0.00313336 0)
(-0.107493 -0.00264548 0)
(-0.106428 -0.00839591 0)
(-0.104217 -0.0140016 0)
(-0.100895 -0.0193443 0)
(-0.0965169 -0.0243047 0)
(-0.0911614 -0.0287642 0)
(-0.0849277 -0.0326068 0)
(-0.0779367 -0.035722 0)
(-0.0703303 -0.0380078 0)
(-0.0622698 -0.039375 0)
(-0.0539339 -0.0397517 0)
(-0.045516 -0.0390884 0)
(-0.0372204 -0.0373638 0)
(-0.0292583 -0.0345914 0)
(-0.0218431 -0.0308253 0)
(-0.0151862 -0.0261678 0)
(-0.00948711 -0.0207761 0)
(-0.00492539 -0.0148671 0)
(-0.00173341 -0.00872164 0)
(-0.000258378 -0.00270742 0)
(-0.000312362 0.00389336 0)
(-0.00204161 0.0118701 0)
(-0.00572169 0.0195947 0)
(-0.0109034 0.0267322 0)
(-0.0172872 0.0330383 0)
(-0.0246525 0.0383351 0)
(-0.0327705 0.0425043 0)
(-0.0414114 0.0454797 0)
(-0.0503527 0.0472387 0)
(-0.059381 0.0477945 0)
(-0.0682946 0.0471881 0)
(-0.0769047 0.0454824 0)
(-0.0850374 0.0427573 0)
(-0.0925351 0.0391051 0)
(-0.0992572 0.0346274 0)
(-0.105081 0.029433 0)
(-0.109901 0.0236363 0)
(-0.113631 0.0173562 0)
(-0.116204 0.0107156 0)
(-0.117572 0.00384136 0)
(-0.117704 -0.00313598 0)
(-0.116594 -0.0100824 0)
(-0.114253 -0.0168605 0)
(-0.110713 -0.0233306 0)
(-0.106031 -0.0293513 0)
(-0.100285 -0.0347817 0)
(-0.0935762 -0.0394833 0)
(-0.0860282 -0.0433235 0)
(-0.0777884 -0.0461793 0)
(-0.0690258 -0.0479416 0)
(-0.0599296 -0.0485213 0)
(-0.0507069 -0.0478544 0)
(-0.0415793 -0.0459092 0)
(-0.0327788 -0.0426927 0)
(-0.0245438 -0.0382578 0)
(-0.0171147 -0.0327098 0)
(-0.0107229 -0.0262131 0)
(-0.0055819 -0.0189945 0)
(-0.00196929 -0.0113457 0)
(-0.000294447 -0.00364274 0)
(-0.000348077 0.00498662 0)
(-0.00227046 0.0148833 0)
(-0.00635257 0.0242663 0)
(-0.0120833 0.0328046 0)
(-0.0191192 0.0402572 0)
(-0.0272071 0.0464502 0)
(-0.036089 0.051271 0)
(-0.0455094 0.0546608 0)
(-0.0552242 0.0566071 0)
(-0.0650032 0.0571347 0)
(-0.0746308 0.0562987 0)
(-0.0839078 0.0541775 0)
(-0.0926525 0.0508675 0)
(-0.100701 0.0464784 0)
(-0.10791 0.0411299 0)
(-0.114152 0.0349493 0)
(-0.11932 0.0280695 0)
(-0.123327 0.0206283 0)
(-0.126103 0.0127677 0)
(-0.127598 0.00463392 0)
(-0.127782 -0.00362269 0)
(-0.126643 -0.0118476 0)
(-0.124192 -0.0198824 0)
(-0.120459 -0.0275654 0)
(-0.115499 -0.0347326 0)
(-0.109389 -0.0412197 0)
(-0.102229 -0.0468645 0)
(-0.0941464 -0.0515104 0)
(-0.0852913 -0.0550109 0)
(-0.0758394 -0.0572345 0)
(-0.0659897 -0.0580714 0)
(-0.0559629 -0.0574396 0)
(-0.0459983 -0.0552927 0)
(-0.0363501 -0.0516276 0)
(-0.0272834 -0.0464914 0)
(-0.0190693 -0.0399889 0)
(-0.0119734 -0.0322883 0)
(-0.00624463 -0.0236241 0)
(-0.00220652 -0.014298 0)
(-0.000330454 -0.004697 0)
(-0.000383632 0.00619541 0)
(-0.00249849 0.0182099 0)
(-0.00698161 0.0294124 0)
(-0.0132605 0.0394749 0)
(-0.0209472 0.048162 0)
(-0.029756 0.055307 0)
(-0.0393986 0.0608069 0)
(-0.049593 0.0646151 0)
(-0.0600733 0.066733 0)
(-0.0705919 0.0672015 0)
(-0.0809197 0.066093 0)
(-0.0908477 0.0635045 0)
(-0.100187 0.0595514 0)
(-0.10877 0.0543629 0)
(-0.116449 0.0480782 0)
(-0.123096 0.0408439 0)
(-0.128604 0.032812 0)
(-0.132882 0.0241394 0)
(-0.135862 0.014987 0)
(-0.137491 0.00552022 0)
(-0.137737 -0.0040911 0)
(-0.136588 -0.0136724 0)
(-0.13405 -0.0230442 0)
(-0.130151 -0.0320229 0)
(-0.124941 -0.0404216 0)
(-0.118496 -0.0480518 0)
(-0.110915 -0.054726 0)
(-0.102322 -0.0602619 0)
(-0.0928727 -0.0644869 0)
(-0.0827463 -0.067244 0)
(-0.0721511 -0.0683986 0)
(-0.0613211 -0.0678467 0)
(-0.0505135 -0.0655228 0)
(-0.0400059 -0.0614085 0)
(-0.0300915 -0.055541 0)
(-0.0210746 -0.0480201 0)
(-0.0132567 -0.0390149 0)
(-0.00692482 -0.0287657 0)
(-0.00244998 -0.0175844 0)
(-0.000367415 -0.00587207 0)
(-0.000419654 0.00752014 0)
(-0.00272875 0.0218509 0)
(-0.00761578 0.0350339 0)
(-0.0144458 0.0467441 0)
(-0.0227856 0.0567527 0)
(-0.0323157 0.0649039 0)
(-0.0427165 0.0711083 0)
(-0.0536789 0.0753357 0)
(-0.0649148 0.0776063 0)
(-0.076159 0.0779814 0)
(-0.0871697 0.0765549 0)
(-0.0977287 0.0734454 0)
(-0.107642 0.0687905 0)
(-0.116737 0.0627407 0)
(-0.124867 0.0554564 0)
(-0.131902 0.0471041 0)
(-0.137735 0.0378557 0)
(-0.142278 0.0278867 0)
(-0.14546 0.0173768 0)
(-0.147229 0.00650994 0)
(-0.147552 -0.00452535 0)
(-0.146411 -0.0155351 0)
(-0.143812 -0.0263196 0)
(-0.139777 -0.0366736 0)
(-0.134352 -0.046387 0)
(-0.127608 -0.0552466 0)
(-0.119639 -0.0630386 0)
(-0.110569 -0.0695527 0)
(-0.100551 -0.0745876 0)
(-0.0897706 -0.0779569 0)
(-0.0784422 -0.0794974 0)
(-0.0668126 -0.079078 0)
(-0.0551572 -0.0766087 0)
(-0.0437776 -0.0720506 0)
(-0.0329967 -0.0654255 0)
(-0.0231542 -0.0568241 0)
(-0.0145907 -0.0464128 0)
(-0.00763332 -0.0344361 0)
(-0.00270428 -0.0212164 0)
(-0.000406241 -0.00717236 0)
(-0.000456674 0.00896274 0)
(-0.00296392 0.0258102 0)
(-0.00826136 0.0411358 0)
(-0.0156492 0.0546164 0)
(-0.0246472 0.066032 0)
(-0.0349004 0.0752405 0)
(-0.0460568 0.0821705 0)
(-0.0577793 0.0868135 0)
(-0.0697571 0.0892134 0)
(-0.081708 0.0894567 0)
(-0.0933779 0.0876629 0)
(-0.104541 0.0839767 0)
(-0.114998 0.0785602 0)
(-0.124577 0.071588 0)
(-0.133129 0.0632429 0)
(-0.140528 0.0537125 0)
(-0.146669 0.0431882 0)
(-0.151464 0.0318646 0)
(-0.154844 0.0199389 0)
(-0.156759 0.00761252 0)
(-0.157171 -0.00490836 0)
(-0.156062 -0.0174116 0)
(-0.153431 -0.0296783 0)
(-0.149296 -0.0414824 0)
(-0.143697 -0.052591 0)
(-0.136696 -0.0627656 0)
(-0.128383 -0.0717651 0)
(-0.118877 -0.0793495 0)
(-0.108328 -0.0852855 0)
(-0.096922 -0.0893537 0)
(-0.0848802 -0.0913575 0)
(-0.0724605 -0.0911326 0)
(-0.059956 -0.0885587 0)
(-0.0476927 -0.0835702 0)
(-0.0360251 -0.0761675 0)
(-0.0253307 -0.0664268 0)
(-0.015992 -0.0545082 0)
(-0.00838041 -0.0406583 0)
(-0.00297372 -0.0252106 0)
(-0.000447766 -0.00860459 0)
(-0.000495167 0.0105265 0)
(-0.00320647 0.030095 0)
(-0.00892414 0.0477264 0)
(-0.0168799 0.0630992 0)
(-0.0265434 0.0760041 0)
(-0.0375222 0.0863163 0)
(-0.0494302 0.0939876 0)
(-0.0619011 0.0990361 0)
(-0.0746016 0.101535 0)
(-0.0872326 0.101602 0)
(-0.0995288 0.0993878 0)
(-0.111258 0.0950657 0)
(-0.12222 0.0888268 0)
(-0.132242 0.0808719 0)
(-0.141179 0.0714078 0)
(-0.148909 0.0606439 0)
(-0.15533 0.0487914 0)
(-0.160359 0.0360627 0)
(-0.163929 0.0226719 0)
(-0.16599 0.00883632 0)
(-0.166504 -0.00522204 0)
(-0.16545 -0.0192747 0)
(-0.162821 -0.033085 0)
(-0.15863 -0.0464074 0)
(-0.152906 -0.0589869 0)
(-0.145703 -0.0705602 0)
(-0.137102 -0.0808578 0)
(-0.127214 -0.089608 0)
(-0.116183 -0.0965427 0)
(-0.104193 -0.101405 0)
(-0.0914689 -0.10396 0)
(-0.0782776 -0.104003 0)
(-0.0649291 -0.101378 0)
(-0.051774 -0.0959829 0)
(-0.0391998 -0.0877913 0)
(-0.0276243 -0.0768583 0)
(-0.0174763 -0.0633329 0)
(-0.00917585 -0.0474614 0)
(-0.0032624 -0.0295884 0)
(-0.000492783 -0.0101777 0)
(-0.000535585 0.0122158 0)
(-0.00345876 0.0347151 0)
(-0.00960967 0.0548173 0)
(-0.0181465 0.0722026 0)
(-0.0284846 0.0866745 0)
(-0.0401911 0.0981303 0)
(-0.0528438 0.10655 0)
(-0.066046 0.111985 0)
(-0.0794416 0.114545 0)
(-0.0927155 0.114384 0)
(-0.105593 0.111689 0)
(-0.117838 0.106668 0)
(-0.12925 0.0995442 0)
(-0.139662 0.0905474 0)
(-0.148932 0.0799096 0)
(-0.156946 0.0678629 0)
(-0.163609 0.0546379 0)
(-0.168844 0.0404639 0)
(-0.172588 0.0255701 0)
(-0.174793 0.0101877 0)
(-0.175421 -0.00544775 0)
(-0.174448 -0.0210936 0)
(-0.171861 -0.0364981 0)
(-0.167663 -0.0513979 0)
(-0.161874 -0.0655175 0)
(-0.154537 -0.0785692 0)
(-0.145718 -0.0902546 0)
(-0.135518 -0.100269 0)
(-0.124071 -0.108306 0)
(-0.111556 -0.114068 0)
(-0.0981956 -0.117274 0)
(-0.0842642 -0.117673 0)
(-0.0700868 -0.115063 0)
(-0.0560382 -0.109301 0)
(-0.04254 -0.100321 0)
(-0.0300537 -0.0881516 0)
(-0.0190584 -0.0729237 0)
(-0.010029 -0.0548803 0)
(-0.00357434 -0.0343763 0)
(-0.000542073 -0.0119027 0)
(-0.000578398 0.0140366 0)
(-0.00372323 0.039683 0)
(-0.0103236 0.0624231 0)
(-0.0194574 0.0819386 0)
(-0.0304805 0.0980491 0)
(-0.0429155 0.110679 0)
(-0.0563014 0.119843 0)
(-0.07021 0.125634 0)
(-0.0842621 0.128205 0)
(-0.098128 0.127754 0)
(-0.111526 0.12451 0)
(-0.124218 0.118723 0)
(-0.136009 0.11065 0)
(-0.146737 0.100553 0)
(-0.156272 0.0886921 0)
(-0.164508 0.0753209 0)
(-0.171361 0.0606893 0)
(-0.176763 0.045042 0)
(-0.180657 0.0286212 0)
(-0.182998 0.0116695 0)
(-0.183749 -0.00556695 0)
(-0.182884 -0.0228348 0)
(-0.180382 -0.0398698 0)
(-0.176236 -0.0563937 0)
(-0.170455 -0.0721127 0)
(-0.163066 -0.0867159 0)
(-0.154119 -0.0998765 0)
(-0.143697 -0.111255 0)
(-0.131921 -0.120505 0)
(-0.118959 -0.127282 0)
(-0.105029 -0.131252 0)
(-0.0904062 -0.132113 0)
(-0.0754289 -0.129605 0)
(-0.0604951 -0.123531 0)
(-0.0460611 -0.11378 0)
(-0.0326352 -0.100342 0)
(-0.0207523 -0.0833217 0)
(-0.0109492 -0.0629548 0)
(-0.00391356 -0.0396048 0)
(-0.000596442 -0.0137926 0)
(-0.000624146 0.0159957 0)
(-0.00400266 0.0450142 0)
(-0.0110723 0.0705615 0)
(-0.0208218 0.0923213 0)
(-0.0325409 0.110133 0)
(-0.0457028 0.123955 0)
(-0.059804 0.133845 0)
(-0.0743835 0.139946 0)
(-0.0890393 0.142463 0)
(-0.103429 0.141647 0)
(-0.117266 0.137779 0)
(-0.130316 0.131151 0)
(-0.14239 0.122062 0)
(-0.15334 0.11081 0)
(-0.16305 0.0976806 0)
(-0.171427 0.0829525 0)
(-0.178402 0.0668926 0)
(-0.183916 0.0497593 0)
(-0.187924 0.0318051 0)
(-0.190386 0.0132803 0)
(-0.191267 -0.005562 0)
(-0.190536 -0.0244613 0)
(-0.188167 -0.043145 0)
(-0.184143 -0.0613236 0)
(-0.178456 -0.0786878 0)
(-0.171114 -0.0949058 0)
(-0.162148 -0.109623 0)
(-0.151619 -0.122466 0)
(-0.139627 -0.133044 0)
(-0.126323 -0.140961 0)
(-0.111913 -0.145828 0)
(-0.0966718 -0.147274 0)
(-0.0809431 -0.144976 0)
(-0.0651465 -0.138671 0)
(-0.049774 -0.128187 0)
(-0.0353833 -0.113462 0)
(-0.0225716 -0.0945707 0)
(-0.0119456 -0.0717297 0)
(-0.00428429 -0.0453095 0)
(-0.000656759 -0.0158628 0)
(-0.000673495 0.0181017 0)
(-0.00430041 0.0507274 0)
(-0.0118632 0.0792536 0)
(-0.0222507 0.103366 0)
(-0.0346772 0.122931 0)
(-0.0485601 0.137946 0)
(-0.0633501 0.148524 0)
(-0.0785512 0.154869 0)
(-0.0937394 0.15725 0)
(-0.108562 0.15598 0)
(-0.122732 0.151396 0)
(-0.136023 0.143847 0)
(-0.14826 0.133674 0)
(-0.159312 0.121212 0)
(-0.169081 0.106778 0)
(-0.177495 0.0906724 0)
(-0.184501 0.0731779 0)
(-0.190058 0.0545643 0)
(-0.194131 0.0350908 0)
(-0.196688 0.0150118 0)
(-0.197699 -0.00541733 0)
(-0.19713 -0.0259339 0)
(-0.194948 -0.0462616 0)
(-0.191124 -0.0661044 0)
(-0.185631 -0.0851416 0)
(-0.178455 -0.103024 0)
(-0.169603 -0.119372 0)
(-0.159109 -0.133775 0)
(-0.147044 -0.145801 0)
(-0.133535 -0.154996 0)
(-0.118769 -0.160904 0)
(-0.103009 -0.163085 0)
(-0.0866021 -0.161132 0)
(-0.0699851 -0.154703 0)
(-0.0536844 -0.14355 0)
(-0.0383107 -0.127546 0)
(-0.0245295 -0.106717 0)
(-0.0130283 -0.0812543 0)
(-0.00469116 -0.0515303 0)
(-0.000724006 -0.0181309 0)
(-0.000727318 0.0203653 0)
(-0.00462083 0.0568456 0)
(-0.0127059 0.0885245 0)
(-0.0237573 0.115092 0)
(-0.0369025 0.136444 0)
(-0.0514955 0.152632 0)
(-0.0669359 0.163836 0)
(-0.0826915 0.170335 0)
(-0.0983178 0.172473 0)
(-0.113455 0.170639 0)
(-0.127822 0.165239 0)
(-0.141207 0.156678 0)
(-0.153453 0.14535 0)
(-0.164454 0.131629 0)
(-0.174138 0.115862 0)
(-0.182457 0.0983717 0)
(-0.189382 0.0794549 0)
(-0.19489 0.0593888 0)
(-0.198963 0.0384353 0)
(-0.20158 0.016848 0)
(-0.202715 -0.00512072 0)
(-0.202333 -0.0272117 0)
(-0.200395 -0.0491506 0)
(-0.196858 -0.0706407 0)
(-0.191675 -0.0913554 0)
(-0.184807 -0.110932 0)
(-0.176229 -0.12897 0)
(-0.165942 -0.145025 0)
(-0.153983 -0.158618 0)
(-0.140443 -0.169237 0)
(-0.12548 -0.176354 0)
(-0.10934 -0.179442 0)
(-0.0923611 -0.178001 0)
(-0.0749925 -0.171591 0)
(-0.0577929 -0.159868 0)
(-0.0414281 -0.14262 0)
(-0.0266399 -0.119807 0)
(-0.014208 -0.0915823 0)
(-0.00513944 -0.0583122 0)
(-0.000799348 -0.0206168 0)
(-0.000786801 0.0227995 0)
(-0.00496971 0.063397 0)
(-0.0136132 0.0984046 0)
(-0.0253593 0.127517 0)
(-0.0392341 0.15067 0)
(-0.0545184 0.167984 0)
(-0.0705554 0.179721 0)
(-0.0867757 0.186251 0)
(-0.102717 0.188013 0)
(-0.118017 0.185483 0)
(-0.132409 0.179147 0)
(-0.1457 0.169476 0)
(-0.157765 0.156921 0)
(-0.168528 0.141896 0)
(-0.177948 0.12478 0)
(-0.186011 0.105915 0)
(-0.192714 0.0856099 0)
(-0.198061 0.0641452 0)
(-0.202051 0.0417805 0)
(-0.204678 0.0187627 0)
(-0.205922 -0.00466489 0)
(-0.20575 -0.028253 0)
(-0.204116 -0.0517366 0)
(-0.200961 -0.0748248 0)
(-0.196219 -0.0971917 0)
(-0.189821 -0.118468 0)
(-0.181707 -0.138236 0)
(-0.171836 -0.156021 0)
(-0.1602 -0.1713 0)
(-0.146847 -0.183498 0)
(-0.131896 -0.192008 0)
(-0.115557 -0.196205 0)
(-0.0981536 -0.19548 0)
(-0.0801367 -0.189274 0)
(-0.0620931 -0.177122 0)
(-0.0447449 -0.158703 0)
(-0.0289175 -0.133887 0)
(-0.0154972 -0.102771 0)
(-0.00563549 -0.0657059 0)
(-0.000884217 -0.0233438 0)
(-0.000853593 0.025421 0)
(-0.00535499 0.070417 0)
(-0.014602 0.108931 0)
(-0.0270796 0.140663 0)
(-0.0416938 0.165605 0)
(-0.0576403 0.183959 0)
(-0.0742 0.196094 0)
(-0.0907656 0.202495 0)
(-0.106861 0.203714 0)
(-0.122132 0.20033 0)
(-0.136331 0.19292 0)
(-0.149299 0.182032 0)
(-0.160948 0.168176 0)
(-0.171243 0.15181 0)
(-0.180185 0.133344 0)
(-0.187797 0.113136 0)
(-0.19411 0.0915037 0)
(-0.199157 0.0687248 0)
(-0.202962 0.0450516 0)
(-0.205533 0.0207178 0)
(-0.206862 -0.00404919 0)
(-0.206917 -0.0290176 0)
(-0.205647 -0.0539391 0)
(-0.202979 -0.078537 0)
(-0.198824 -0.102494 0)
(-0.193081 -0.125443 0)
(-0.185649 -0.146954 0)
(-0.176439 -0.166531 0)
(-0.165391 -0.183605 0)
(-0.152495 -0.197541 0)
(-0.137815 -0.207645 0)
(-0.121515 -0.213185 0)
(-0.103886 -0.213423 0)
(-0.0853691 -0.207655 0)
(-0.0665707 -0.195268 0)
(-0.0482685 -0.1758 0)
(-0.0313789 -0.149 0)
(-0.0169111 -0.114884 0)
(-0.00618719 -0.0737686 0)
(-0.000980447 -0.0263389 0)
(-0.000930012 0.0282512 0)
(-0.00578761 0.0779507 0)
(-0.0156955 0.120149 0)
(-0.0289493 0.154556 0)
(-0.0443104 0.181233 0)
(-0.0608752 0.200496 0)
(-0.0778561 0.212846 0)
(-0.09461 0.218911 0)
(-0.110654 0.219378 0)
(-0.125651 0.214951 0)
(-0.139388 0.206311 0)
(-0.15175 0.194091 0)
(-0.1627 0.178862 0)
(-0.172254 0.161131 0)
(-0.180462 0.141331 0)
(-0.187392 0.119838 0)
(-0.193117 0.096969 0)
(-0.197701 0.0729957 0)
(-0.201196 0.0481553 0)
(-0.203631 0.0226618 0)
(-0.205008 -0.00328136 0)
(-0.205301 -0.0294676 0)
(-0.204455 -0.0556742 0)
(-0.202382 -0.0816477 0)
(-0.198971 -0.10709 0)
(-0.194088 -0.131642 0)
(-0.187587 -0.154876 0)
(-0.179324 -0.176278 0)
(-0.169176 -0.195242 0)
(-0.157063 -0.211073 0)
(-0.142979 -0.222988 0)
(-0.127022 -0.230135 0)
(-0.109431 -0.231628 0)
(-0.0906192 -0.226593 0)
(-0.0712008 -0.214232 0)
(-0.0520042 -0.1939 0)
(-0.0340434 -0.165185 0)
(-0.0184685 -0.127986 0)
(-0.00680475 -0.0825655 0)
(-0.00109046 -0.0296335 0)
(-0.00101936 0.0313182 0)
(-0.00628279 0.0860564 0)
(-0.0169251 0.132115 0)
(-0.031009 0.169222 0)
(-0.0471199 0.197533 0)
(-0.0642379 0.217511 0)
(-0.081502 0.229829 0)
(-0.0982374 0.235291 0)
(-0.113966 0.234753 0)
(-0.128384 0.229061 0)
(-0.141327 0.219015 0)
(-0.152743 0.205341 0)
(-0.162657 0.188677 0)
(-0.171148 0.169569 0)
(-0.178324 0.148479 0)
(-0.184306 0.125789 0)
(-0.189212 0.10181 0)
(-0.193145 0.0768024 0)
(-0.196185 0.0509796 0)
(-0.198385 0.0245283 0)
(-0.199761 -0.00237918 0)
(-0.200295 -0.0295706 0)
(-0.199928 -0.0568575 0)
(-0.198562 -0.0840196 0)
(-0.196062 -0.110788 0)
(-0.192261 -0.136826 0)
(-0.186967 -0.161717 0)
(-0.179975 -0.18494 0)
(-0.171091 -0.205864 0)
(-0.160151 -0.223736 0)
(-0.147059 -0.237686 0)
(-0.131826 -0.246733 0)
(-0.114615 -0.249827 0)
(-0.0957873 -0.245889 0)
(-0.0759441 -0.233894 0)
(-0.0559548 -0.212964 0)
(-0.0369342 -0.182472 0)
(-0.0201937 -0.14215 0)
(-0.00750179 -0.0921725 0)
(-0.00121757 -0.0332657 0)
(-0.0011264 0.0346597 0)
(-0.00686184 0.0948102 0)
(-0.0183336 0.144903 0)
(-0.0333125 0.184691 0)
(-0.050167 0.214466 0)
(-0.0677419 0.234885 0)
(-0.0851003 0.246845 0)
(-0.101546 0.251372 0)
(-0.116623 0.249521 0)
(-0.130081 0.242308 0)
(-0.141828 0.230665 0)
(-0.15189 0.215416 0)
(-0.160372 0.197263 0)
(-0.167428 0.176794 0)
(-0.173234 0.154487 0)
(-0.177968 0.130724 0)
(-0.181798 0.105805 0)
(-0.184868 0.0799667 0)
(-0.18729 0.0533935 0)
(-0.18914 0.0262364 0)
(-0.190454 -0.00137186 0)
(-0.191219 -0.0293012 0)
(-0.19138 -0.0574069 0)
(-0.190829 -0.0855121 0)
(-0.189412 -0.113388 0)
(-0.186928 -0.140736 0)
(-0.183139 -0.16716 0)
(-0.177779 -0.192151 0)
(-0.170571 -0.215064 0)
(-0.161257 -0.235103 0)
(-0.149634 -0.25131 0)
(-0.135598 -0.262577 0)
(-0.119206 -0.267666 0)
(-0.100733 -0.265267 0)
(-0.0807407 -0.254077 0)
(-0.0601181 -0.232917 0)
(-0.0400797 -0.200877 0)
(-0.022119 -0.157453 0)
(-0.00829694 -0.102679 0)
(-0.00136643 -0.0372817 0)
(-0.00125807 0.0383265 0)
(-0.00755475 0.104313 0)
(-0.0199793 0.158601 0)
(-0.0359288 0.200991 0)
(-0.0535031 0.231967 0)
(-0.0713919 0.252451 0)
(-0.0885852 0.263631 0)
(-0.104383 0.26681 0)
(-0.118381 0.263283 0)
(-0.130409 0.25426 0)
(-0.140475 0.240819 0)
(-0.148705 0.22388 0)
(-0.155301 0.20421 0)
(-0.160503 0.182427 0)
(-0.164563 0.159016 0)
(-0.167721 0.13435 0)
(-0.170196 0.108707 0)
(-0.172174 0.0822915 0)
(-0.173799 0.0552501 0)
(-0.175173 0.0276909 0)
(-0.176349 -0.000300634 0)
(-0.177327 -0.0286442 0)
(-0.178054 -0.0572474 0)
(-0.178417 -0.0859868 0)
(-0.178249 -0.114687 0)
(-0.17732 -0.143096 0)
(-0.17535 -0.170863 0)
(-0.172008 -0.197504 0)
(-0.166935 -0.222381 0)
(-0.159767 -0.244669 0)
(-0.150174 -0.263341 0)
(-0.13791 -0.277159 0)
(-0.12289 -0.28469 0)
(-0.105261 -0.284356 0)
(-0.0854987 -0.274522 0)
(-0.0644829 -0.253634 0)
(-0.0435145 -0.220396 0)
(-0.0242877 -0.173975 0)
(-0.00921635 -0.114191 0)
(-0.00154374 -0.0417397 0)
(-0.00142473 0.0423885 0)
(-0.00840426 0.114697 0)
(-0.021941 0.173321 0)
(-0.0389454 0.218146 0)
(-0.0571829 0.249933 0)
(-0.0751711 0.269973 0)
(-0.0918408 0.279833 0)
(-0.106522 0.281161 0)
(-0.118897 0.275539 0)
(-0.12892 0.264394 0)
(-0.136728 0.248953 0)
(-0.142575 0.230235 0)
(-0.146774 0.209056 0)
(-0.149664 0.186051 0)
(-0.151574 0.1617 0)
(-0.15281 0.136353 0)
(-0.15364 0.110255 0)
(-0.154289 0.0835673 0)
(-0.154933 0.0563915 0)
(-0.155696 0.0287855 0)
(-0.156651 0.000781468 0)
(-0.157809 -0.0275967 0)
(-0.159124 -0.0563161 0)
(-0.160487 -0.0853154 0)
(-0.16172 -0.114483 0)
(-0.162576 -0.143632 0)
(-0.162735 -0.172468 0)
(-0.161813 -0.20056 0)
(-0.159367 -0.227299 0)
(-0.154923 -0.251858 0)
(-0.148006 -0.273161 0)
(-0.138203 -0.289855 0)
(-0.125242 -0.300312 0)
(-0.10909 -0.302659 0)
(-0.0900776 -0.294867 0)
(-0.0690215 -0.274911 0)
(-0.0472796 -0.240991 0)
(-0.0267586 -0.191804 0)
(-0.0102975 -0.12684 0)
(-0.00175954 -0.0467149 0)
(-0.00164225 0.0469432 0)
(-0.00947206 0.126141 0)
(-0.0243252 0.189198 0)
(-0.0424684 0.236158 0)
(-0.0612529 0.268197 0)
(-0.0790168 0.287114 0)
(-0.0946651 0.294975 0)
(-0.10761 0.293856 0)
(-0.117681 0.285671 0)
(-0.125003 0.272081 0)
(-0.129882 0.254463 0)
(-0.132723 0.233917 0)
(-0.13397 0.211292 0)
(-0.134062 0.187221 0)
(-0.133408 0.162157 0)
(-0.132375 0.136412 0)
(-0.131274 0.110183 0)
(-0.130365 0.0835824 0)
(-0.129848 0.0566566 0)
(-0.129868 0.029408 0)
(-0.130511 0.00181139 0)
(-0.131805 -0.02617 0)
(-0.133716 -0.0545676 0)
(-0.136139 -0.0833887 0)
(-0.138899 -0.112595 0)
(-0.141741 -0.142078 0)
(-0.144322 -0.17162 0)
(-0.146214 -0.200865 0)
(-0.1469 -0.229263 0)
(-0.145798 -0.256022 0)
(-0.142282 -0.280051 0)
(-0.135745 -0.299913 0)
(-0.125683 -0.313796 0)
(-0.111818 -0.319518 0)
(-0.0942579 -0.314602 0)
(-0.0736729 -0.296442 0)
(-0.0514203 -0.262569 0)
(-0.029612 -0.211025 0)
(-0.0115954 -0.140792 0)
(-0.00202934 -0.052307 0)
(-0.00193571 0.052129 0)
(-0.0108487 0.138882 0)
(-0.0272753 0.206391 0)
(-0.0466194 0.254989 0)
(-0.0657282 0.286484 0)
(-0.0827762 0.303387 0)
(-0.0967101 0.308414 0)
(-0.107108 0.304162 0)
(-0.114025 0.292918 0)
(-0.117818 0.276581 0)
(-0.119003 0.256661 0)
(-0.118163 0.234313 0)
(-0.115877 0.210386 0)
(-0.112685 0.185483 0)
(-0.10907 0.160008 0)
(-0.105445 0.134216 0)
(-0.102158 0.108243 0)
(-0.0994868 0.0821391 0)
(-0.09765 0.0558932 0)
(-0.0968048 0.0294482 0)
(-0.0970505 0.0027196 0)
(-0.098428 -0.024391 0)
(-0.100917 -0.0519807 0)
(-0.104428 -0.0801289 0)
(-0.1088 -0.108877 0)
(-0.113783 -0.138204 0)
(-0.119032 -0.167989 0)
(-0.124093 -0.197974 0)
(-0.128398 -0.227704 0)
(-0.131269 -0.256464 0)
(-0.131933 -0.2832 0)
(-0.129574 -0.30644 0)
(-0.123416 -0.324226 0)
(-0.112862 -0.334075 0)
(-0.0976922 -0.333021 0)
(-0.0783139 -0.317757 0)
(-0.0559773 -0.28495 0)
(-0.0329562 -0.231717 0)
(-0.0131923 -0.156254 0)
(-0.00237796 -0.0586536 0)
(-0.00234622 0.0581465 0)
(-0.0126693 0.153237 0)
(-0.0309802 0.225066 0)
(-0.0515198 0.274512 0)
(-0.0705438 0.30435 0)
(-0.0861292 0.318091 0)
(-0.097386 0.319287 0)