/*--------------------------------*- C++ -*----------------------------------*\
  =========                 |
  \\      /  F ield         | OpenFOAM: The Open Source CFD Toolbox
   \\    /   O peration     | Website:  https://openfoam.org
    \\  /    A nd           | Version:  7
     \\/     M anipulation  |
\*---------------------------------------------------------------------------*/
FoamFile
{
    version     2.0;
    format      ascii;
    class       volScalarField;
    location    "2000";
    object      alphat;
}
// * * * * * * * * * * * * * * * * * * * * * * * * * * * * * * * * * * * * * //

dimensions      [1 -1 -1 0 0 0 0];

internalField   nonuniform List<scalar> 
40
(
6.69215e-05
3.95681e-05
0.000121058
9.70829e-05
0.000221764
0.00021032
0.000357731
0.000352108
0.00052347
0.000522541
0.000712229
0.000711833
0.000913827
0.000912306
0.00111387
0.00111207
0.00129004
0.00128848
0.00139723
0.00139594
0.00135863
0.00135735
0.00130233
0.00130096
0.00121982
0.0012182
0.00112093
0.001119
0.0010128
0.00101055
0.000896176
0.000893669
0.000766138
0.000763516
0.000615748
0.000613246
0.000399024
0.000398213
6.21004e-05
6.20102e-05
)
;

boundaryField
{
    inlet
    {
        type            zeroGradient;
    }
    outlet
    {
        type            zeroGradient;
    }
    fixedWalls-bottom
    {
        type            compressible::alphatJayatillekeWallFunction;
        Prt             0.85;
        value           nonuniform List<scalar> 2(1.88974e-05 1.88284e-05);
    }
    fixedWalls-top
    {
        type            compressible::alphatJayatillekeWallFunction;
        Prt             0.85;
        value           uniform 0;
    }
    frontAndBack
    {
        type            empty;
    }
}


// ************************************************************************* //
