/*--------------------------------*- C++ -*----------------------------------*\
  =========                 |
  \\      /  F ield         | OpenFOAM: The Open Source CFD Toolbox
   \\    /   O peration     | Website:  https://openfoam.org
    \\  /    A nd           | Version:  7
     \\/     M anipulation  |
\*---------------------------------------------------------------------------*/
FoamFile
{
    version     2.0;
    format      ascii;
    class       volScalarField;
    location    "2000";
    object      k;
}
// * * * * * * * * * * * * * * * * * * * * * * * * * * * * * * * * * * * * * //

dimensions      [0 2 -2 0 0 0 0];

internalField   nonuniform List<scalar> 
140
(
3.29332e-05
3.28919e-05
0.00105118
0.0010499
0.00558131
0.00557612
0.00945055
0.00944422
0.0114891
0.0114824
0.0125532
0.0125464
0.0131192
0.0131123
0.0134172
0.0134102
0.013558
0.0135512
0.0135985
0.0135917
0.0135669
0.0135603
0.0134804
0.0134741
0.0133499
0.0133438
0.0131822
0.0131763
0.0129815
0.0129758
0.0127508
0.0127453
0.0124914
0.012486
0.0122028
0.0121976
0.0118837
0.0118787
0.0115329
0.011528
0.0111505
0.0111458
0.010739
0.0107345
0.0103025
0.0102981
0.00984274
0.0098385
0.00936185
0.00935777
0.00886368
0.00885977
0.00835348
0.00834975
0.00783826
0.0078347
0.00732711
0.00732375
0.00683155
0.0068284
0.00636582
0.00636287
0.00594701
0.00594426
0.0055952
0.00559263
0.00533347
0.00533104
0.00518795
0.00518561
0.00518804
0.0051857
0.00533372
0.0053313
0.00559559
0.00559304
0.00594751
0.00594478
0.00636642
0.00636348
0.00683222
0.00682908
0.00732782
0.00732447
0.00783899
0.00783545
0.00835423
0.00835049
0.00886442
0.00886051
0.00936257
0.00935849
0.00984343
0.00983919
0.0103032
0.0102988
0.0107396
0.0107351
0.0111511
0.0111463
0.0115334
0.0115285
0.0118842
0.0118791
0.0122031
0.0121979
0.0124917
0.0124863
0.012751
0.0127455
0.0129817
0.0129759
0.0131823
0.0131763
0.01335
0.0133438
0.0134804
0.0134741
0.0135668
0.0135602
0.0135983
0.0135916
0.0135578
0.013551
0.013417
0.01341
0.0131189
0.013112
0.012553
0.0125461
0.0114888
0.0114821
0.00945025
0.00944391
0.00558106
0.00557586
0.00105112
0.00104984
3.29312e-05
3.28899e-05
)
;

boundaryField
{
    inlet
    {
        type            zeroGradient;
    }
    outlet
    {
        type            zeroGradient;
    }
    fixedWalls-bottom
    {
        Ceps2           1.9;
        type            kLowReWallFunction;
        value           nonuniform List<scalar> 2(7.69146e-09 7.67219e-09);
    }
    fixedWalls-top
    {
        Ceps2           1.9;
        type            kLowReWallFunction;
        value           nonuniform List<scalar> 2(7.69237e-09 7.67312e-09);
    }
    frontAndBack
    {
        type            empty;
    }
}


// ************************************************************************* //
