/*--------------------------------*- C++ -*----------------------------------*\
  =========                 |
  \\      /  F ield         | OpenFOAM: The Open Source CFD Toolbox
   \\    /   O peration     | Website:  https://openfoam.org
    \\  /    A nd           | Version:  7
     \\/     M anipulation  |
\*---------------------------------------------------------------------------*/
FoamFile
{
    version     2.0;
    format      ascii;
    class       volScalarField;
    location    "2000";
    object      nut;
}
// * * * * * * * * * * * * * * * * * * * * * * * * * * * * * * * * * * * * * //

dimensions      [0 2 -1 0 0 0 0];

internalField   nonuniform List<scalar> 
40
(
5.46298e-05
3.23005e-05
9.8823e-05
7.92514e-05
0.000181032
0.00017169
0.000292025
0.000287435
0.000427322
0.000426564
0.000581411
0.000581088
0.000745981
0.000744739
0.000909282
0.000907814
0.00105309
0.00105182
0.00114059
0.00113955
0.00110908
0.00110804
0.00106313
0.001062
0.000995767
0.000994452
0.000915042
0.000913466
0.000826779
0.000824939
0.000731572
0.000729526
0.000625419
0.000623279
0.000502651
0.000500609
0.000325733
0.000325072
5.06942e-05
5.06206e-05
)
;

boundaryField
{
    inlet
    {
        type            calculated;
        value           nonuniform List<scalar> 
20
(
5.8739e-05
9.8823e-05
0.000181032
0.000292025
0.000427322
0.000581411
0.000745981
0.000909282
0.00105309
0.00114059
0.00110908
0.00106313
0.000995767
0.000915042
0.000826779
0.000731572
0.000625419
0.000502651
0.000356396
0.000151108
)
;
    }
    outlet
    {
        type            calculated;
        value           nonuniform List<scalar> 
20
(
3.48172e-05
7.92514e-05
0.000172158
0.000291011
0.000427935
0.000581088
0.000744739
0.000907814
0.00105182
0.00113955
0.00110804
0.001062
0.000994452
0.000913466
0.000824939
0.000729526
0.000623279
0.000500609
0.0003549
0.000150813
)
;
    }
    fixedWalls-bottom
    {
        type            nutkWallFunction;
        Cmu             0.09;
        kappa           0.41;
        E               9.8;
        value           nonuniform List<scalar> 2(1.25895e-05 1.25458e-05);
    }
    fixedWalls-top
    {
        type            nutkWallFunction;
        Cmu             0.09;
        kappa           0.41;
        E               9.8;
        value           uniform 0;
    }
    frontAndBack
    {
        type            empty;
    }
}


// ************************************************************************* //
