/*--------------------------------*- C++ -*----------------------------------*\
  =========                 |
  \\      /  F ield         | OpenFOAM: The Open Source CFD Toolbox
   \\    /   O peration     | Website:  https://openfoam.org
    \\  /    A nd           | Version:  7
     \\/     M anipulation  |
\*---------------------------------------------------------------------------*/
FoamFile
{
    version     2.0;
    format      ascii;
    class       volScalarField;
    location    "2000";
    object      omega;
}
// * * * * * * * * * * * * * * * * * * * * * * * * * * * * * * * * * * * * * //

dimensions      [0 0 -1 0 0 0 0];

internalField   nonuniform List<scalar> 
40
(
798.917
798.917
244.395
222.644
118.857
110.883
68.9363
67.1171
43.9484
43.7668
29.6
29.6622
20.4669
20.4978
14.1922
14.1874
9.69439
9.6822
6.63113
6.62489
5.96641
5.96318
6.03545
6.03307
6.61904
6.61717
7.83243
7.83106
9.86866
9.86803
13.0816
13.0821
18.2624
18.2647
27.624
27.6289
49.6791
49.6752
119.845
119.614
)
;

boundaryField
{
    inlet
    {
        type            zeroGradient;
    }
    outlet
    {
        type            zeroGradient;
    }
    fixedWalls-bottom
    {
        beta1           0.075;
        blended         0;
        type            omegaWallFunction;
        value           nonuniform List<scalar> 2(119.845 119.614);
    }
    fixedWalls-top
    {
        beta1           0.075;
        blended         0;
        type            omegaWallFunction;
        value           nonuniform List<scalar> 2(798.917 798.917);
    }
    frontAndBack
    {
        type            empty;
    }
}


// ************************************************************************* //
