/*--------------------------------*- C++ -*----------------------------------*\
  =========                 |
  \\      /  F ield         | OpenFOAM: The Open Source CFD Toolbox
   \\    /   O peration     | Website:  https://openfoam.org
    \\  /    A nd           | Version:  7
     \\/     M anipulation  |
\*---------------------------------------------------------------------------*/
FoamFile
{
    version     2.0;
    format      ascii;
    class       volScalarField;
    location    "2000";
    object      omega;
}
// * * * * * * * * * * * * * * * * * * * * * * * * * * * * * * * * * * * * * //

dimensions      [0 0 -1 0 0 0 0];

internalField   nonuniform List<scalar> 
140
(
9167.61
9167.61
1699.67
1699.57
737.586
737.499
434.425
434.379
288.98
288.95
207.541
207.517
157.409
157.387
124.278
124.259
101.068
101.051
84.0321
84.0173
71.0755
71.0624
60.9378
60.9262
52.8203
52.81
46.195
46.1858
40.6998
40.6914
36.0788
36.0712
32.1441
32.1371
28.7491
28.7428
25.7806
25.7748
23.1556
23.1504
20.8167
20.8119
18.7258
18.7215
16.8554
16.8515
15.173
15.1694
13.6491
13.6457
12.2652
12.2621
11.0078
11.0049
9.86784
9.86524
8.84058
8.83823
7.92534
7.92324
7.12561
7.12375
6.44918
6.44754
5.90835
5.9069
5.52062
5.51932
5.3101
5.3089
5.31017
5.30896
5.52081
5.51951
5.90863
5.90719
6.44955
6.44792
7.12604
7.12419
7.92581
7.92372
8.84107
8.83873
9.86833
9.86575
11.0083
11.0054
12.2657
12.2625
13.6495
13.6462
15.1735
15.1698
16.8558
16.8518
18.7262
18.7218
20.817
20.8122
23.1559
23.1507
25.7807
25.775
28.7491
28.7428
32.144
32.1369
36.0785
36.0709
40.6994
40.691
46.1945
46.1852
52.8196
52.8093
60.9369
60.9253
71.0744
71.0614
84.0308
84.016
101.066
101.05
124.276
124.258
157.406
157.385
207.538
207.514
288.977
288.947
434.42
434.374
737.58
737.493
1699.66
1699.56
9167.61
9167.61
)
;

boundaryField
{
    inlet
    {
        type            zeroGradient;
    }
    outlet
    {
        type            zeroGradient;
    }
    fixedWalls-bottom
    {
        beta1           0.075;
        blended         0;
        type            omegaWallFunction;
        value           uniform 9167.61;
    }
    fixedWalls-top
    {
        beta1           0.075;
        blended         0;
        type            omegaWallFunction;
        value           uniform 9167.61;
    }
    frontAndBack
    {
        type            empty;
    }
}


// ************************************************************************* //
