/*--------------------------------*- C++ -*----------------------------------*\
  =========                 |
  \\      /  F ield         | OpenFOAM: The Open Source CFD Toolbox
   \\    /   O peration     | Website:  https://openfoam.org
    \\  /    A nd           | Version:  7
     \\/     M anipulation  |
\*---------------------------------------------------------------------------*/
FoamFile
{
    version     2.0;
    format      ascii;
    class       volScalarField;
    location    "2000";
    object      p;
}
// * * * * * * * * * * * * * * * * * * * * * * * * * * * * * * * * * * * * * //

dimensions      [1 -1 -2 0 0 0 0];

internalField   nonuniform List<scalar> 
140
(
0.00570776
-0.118682
0.00570776
-0.118682
0.00570776
-0.118682
0.00570776
-0.118682
0.00570776
-0.118682
0.00570777
-0.118682
0.00570778
-0.118682
0.00570779
-0.118682
0.0057078
-0.118682
0.0057078
-0.118682
0.00570781
-0.118682
0.00570782
-0.118682
0.00570783
-0.118682
0.00570784
-0.118682
0.00570784
-0.118682
0.00570785
-0.118682
0.00570785
-0.118682
0.00570785
-0.118682
0.00570785
-0.118682
0.00570785
-0.118682
0.00570784
-0.118682
0.00570783
-0.118682
0.00570782
-0.118682
0.0057078
-0.118682
0.00570777
-0.118682
0.00570774
-0.118682
0.0057077
-0.118682
0.00570765
-0.118682
0.00570759
-0.118682
0.00570752
-0.118682
0.00570744
-0.118682
0.00570735
-0.118682
0.00570726
-0.118682
0.00570716
-0.118681
0.00570706
-0.118681
0.00570706
-0.118681
0.00570716
-0.118681
0.00570726
-0.118682
0.00570735
-0.118682
0.00570744
-0.118682
0.00570752
-0.118682
0.00570759
-0.118682
0.00570765
-0.118682
0.0057077
-0.118682
0.00570774
-0.118682
0.00570777
-0.118682
0.0057078
-0.118682
0.00570782
-0.118682
0.00570783
-0.118682
0.00570784
-0.118682
0.00570785
-0.118682
0.00570785
-0.118682
0.00570785
-0.118682
0.00570785
-0.118682
0.00570785
-0.118682
0.00570784
-0.118682
0.00570784
-0.118682
0.00570783
-0.118682
0.00570782
-0.118682
0.00570781
-0.118682
0.0057078
-0.118682
0.0057078
-0.118682
0.00570779
-0.118682
0.00570778
-0.118682
0.00570777
-0.118682
0.00570776
-0.118682
0.00570776
-0.118682
0.00570776
-0.118682
0.00570776
-0.118682
0.00570776
-0.118682
)
;

boundaryField
{
    inlet
    {
        type            zeroGradient;
    }
    outlet
    {
        type            zeroGradient;
    }
    fixedWalls-bottom
    {
        type            calculated;
        value           nonuniform List<scalar> 2(0.00570776 -0.118682);
    }
    fixedWalls-top
    {
        type            calculated;
        value           nonuniform List<scalar> 2(0.00570776 -0.118682);
    }
    frontAndBack
    {
        type            empty;
    }
}


// ************************************************************************* //
