/*--------------------------------*- C++ -*----------------------------------*\
  =========                 |
  \\      /  F ield         | OpenFOAM: The Open Source CFD Toolbox
   \\    /   O peration     | Website:  https://openfoam.org
    \\  /    A nd           | Version:  7
     \\/     M anipulation  |
\*---------------------------------------------------------------------------*/
FoamFile
{
    version     2.0;
    format      ascii;
    class       surfaceScalarField;
    location    "2000";
    object      phi;
}
// * * * * * * * * * * * * * * * * * * * * * * * * * * * * * * * * * * * * * //

dimensions      [1 0 -1 0 0 0 0];

internalField   nonuniform List<scalar> 
58
(
0.00167094
7.79975e-05
3.42915e-06
0.00301647
6.07621e-05
-6.38021e-06
0.00469457
3.93056e-05
-5.00508e-06
0.00684264
2.80917e-05
-5.81727e-06
0.0096559
2.7245e-05
-1.40021e-05
0.0133839
3.21404e-05
-2.69761e-05
0.018337
3.8126e-05
-3.96128e-05
0.024899
3.8199e-05
-4.08304e-05
0.0335166
2.04821e-05
-8.6057e-06
0.0446096
-1.75106e-05
6.10351e-05
0.0183356
-5.02255e-06
3.36715e-05
0.0183433
9.52278e-06
2.15181e-06
0.0182815
2.33354e-05
-2.79341e-05
0.0181371
3.60656e-05
-5.5858e-05
0.0178935
4.72766e-05
-8.07466e-05
0.0175266
5.63475e-05
-0.000101381
0.016998
6.22516e-05
-0.000115765
0.0162358
6.29203e-05
-0.000119821
0.0150377
5.1633e-05
-0.00010028
0.0121582
)
;

boundaryField
{
    inlet
    {
        type            calculated;
        value           nonuniform List<scalar> 
20
(
-0.00174909
-0.00299924
-0.00467311
-0.00683143
-0.00965505
-0.0133888
-0.018343
-0.0248991
-0.0334989
-0.0445716
-0.0183481
-0.0183578
-0.0182953
-0.0181498
-0.0179047
-0.0175357
-0.0170039
-0.0162364
-0.0150263
-0.0121066
)
;
    }
    outlet
    {
        type            calculated;
        value           nonuniform List<scalar> 
20
(
0.00166751
0.00302628
0.00469319
0.00684345
0.00966409
0.0133969
0.0183497
0.0249002
0.0334844
0.04454
0.018363
0.0183748
0.0183116
0.018165
0.0179184
0.0175473
0.0170124
0.0162398
0.0150181
0.0120579
)
;
    }
    fixedWalls-bottom
    {
        type            calculated;
        value           uniform 0;
    }
    fixedWalls-top
    {
        type            calculated;
        value           uniform 0;
    }
    frontAndBack
    {
        type            empty;
        value           nonuniform 0();
    }
}


// ************************************************************************* //
