/*--------------------------------*- C++ -*----------------------------------*\
  =========                 |
  \\      /  F ield         | OpenFOAM: The Open Source CFD Toolbox
   \\    /   O peration     | Website:  https://openfoam.org
    \\  /    A nd           | Version:  7
     \\/     M anipulation  |
\*---------------------------------------------------------------------------*/
FoamFile
{
    version     2.0;
    format      ascii;
    class       surfaceScalarField;
    location    "2000";
    object      phi;
}
// * * * * * * * * * * * * * * * * * * * * * * * * * * * * * * * * * * * * * //

dimensions      [1 0 -1 0 0 0 0];

internalField   nonuniform List<scalar> 
58
(
0.00166591
8.26317e-05
-1.1526e-06
0.00301761
6.42791e-05
-9.85893e-06
0.00469663
4.08834e-05
-6.58141e-06
0.00684342
2.88162e-05
-6.60534e-06
0.00965565
2.80462e-05
-1.49017e-05
0.0133835
3.33108e-05
-2.82332e-05
0.0183368
3.95161e-05
-4.10697e-05
0.0248991
3.95911e-05
-4.22843e-05
0.0335168
2.17474e-05
-9.9412e-06
0.0446098
-1.64526e-05
5.98792e-05
0.0183356
-4.10347e-06
3.26313e-05
0.0183433
1.02991e-05
1.23065e-06
0.0182815
2.39765e-05
-2.87392e-05
0.0181371
3.65794e-05
-5.65529e-05
0.0178935
4.76735e-05
-8.13413e-05
0.0175267
5.66433e-05
-0.000101892
0.0169981
6.2469e-05
-0.000116214
0.016236
6.30869e-05
-0.000120232
0.0150379
5.17976e-05
-0.000100731
0.0121591
)
;

boundaryField
{
    inlet
    {
        type            calculated;
        value           nonuniform List<scalar> 
20
(
-0.00174869
-0.00299926
-0.00467324
-0.00683135
-0.00965487
-0.0133887
-0.018343
-0.0248992
-0.0334989
-0.0445715
-0.0183479
-0.0183577
-0.0182952
-0.0181497
-0.0179046
-0.0175357
-0.0170039
-0.0162366
-0.0150266
-0.0121073
)
;
    }
    outlet
    {
        type            calculated;
        value           nonuniform List<scalar> 
20
(
0.00166707
0.00302632
0.00469336
0.00684345
0.00966394
0.0133968
0.0183497
0.0249003
0.0334845
0.0445399
0.0183629
0.0183747
0.0183115
0.0181649
0.0179183
0.0175473
0.0170124
0.01624
0.0150184
0.0120584
)
;
    }
    fixedWalls-bottom
    {
        type            calculated;
        value           uniform 0;
    }
    fixedWalls-top
    {
        type            calculated;
        value           uniform 0;
    }
    frontAndBack
    {
        type            empty;
        value           nonuniform 0();
    }
}


// ************************************************************************* //
