/*--------------------------------*- C++ -*----------------------------------*\
  =========                 |
  \\      /  F ield         | OpenFOAM: The Open Source CFD Toolbox
   \\    /   O peration     | Website:  https://openfoam.org
    \\  /    A nd           | Version:  7
     \\/     M anipulation  |
\*---------------------------------------------------------------------------*/
FoamFile
{
    version     2.0;
    format      ascii;
    class       surfaceScalarField;
    location    "2000";
    object      phi;
}
// * * * * * * * * * * * * * * * * * * * * * * * * * * * * * * * * * * * * * //

dimensions      [1 0 -1 0 0 0 0];

internalField   nonuniform List<scalar> 
208
(
0.000107308
-1.52332e-07
2.9411e-07
0.000345883
-3.84749e-07
7.27542e-07
0.000581523
-5.54033e-07
1.03161e-06
0.000778514
-6.42645e-07
1.18181e-06
0.00094878
-6.69819e-07
1.21588e-06
0.00110709
-6.52375e-07
1.1648e-06
0.00126195
-6.01792e-07
1.0484e-06
0.00141858
-5.24694e-07
8.7852e-07
0.00158054
-4.24894e-07
6.62062e-07
0.0017503
-3.04899e-07
4.03107e-07
0.00192968
-1.66125e-07
1.03895e-07
0.00212029
-9.54208e-09
-2.34055e-07
0.00232361
1.64121e-07
-6.09575e-07
0.00254109
3.54266e-07
-1.02161e-06
0.00277415
5.60327e-07
-1.46896e-06
0.00302427
7.81626e-07
-1.95004e-06
0.003293
1.01605e-06
-2.46156e-06
0.00358202
1.2609e-06
-2.99883e-06
0.00389312
1.51496e-06
-3.55721e-06
0.00422801
1.77824e-06
-4.13243e-06
0.00458831
2.05162e-06
-4.72041e-06
0.00497557
2.33546e-06
-5.31628e-06
0.00539138
2.6248e-06
-5.91024e-06
0.00583785
2.90968e-06
-6.48511e-06
0.00631722
3.17971e-06
-7.02001e-06
0.00683149
3.42313e-06
-7.49102e-06
0.00738266
3.625e-06
-7.8679e-06
0.00797265
3.76654e-06
-8.11267e-06
0.00860329
3.82402e-06
-8.17758e-06
0.00927621
3.76735e-06
-8.00252e-06
0.00999277
3.55829e-06
-7.51124e-06
0.0107539
3.14757e-06
-6.60575e-06
0.01156
2.47075e-06
-5.15782e-06
0.0124107
1.44162e-06
-2.99576e-06
0.0133041
-8.01977e-10
1.66238e-09
0.0133041
-1.44321e-06
2.99905e-06
0.0124107
-2.4723e-06
5.16101e-06
0.01156
-3.14905e-06
6.60878e-06
0.0107539
-3.55966e-06
7.51407e-06
0.0099927
-3.76859e-06
8.00512e-06
0.00927614
-3.82508e-06
8.1799e-06
0.00860321
-3.7674e-06
8.11468e-06
0.00797257
-3.62563e-06
7.86958e-06
0.00738257
-3.42351e-06
7.49235e-06
0.00683141
-3.17982e-06
7.021e-06
0.00631714
-2.90949e-06
6.48575e-06
0.00583777
-2.62428e-06
5.91054e-06
0.0053913
-2.33467e-06
5.31625e-06
0.00497549
-2.05065e-06
4.72006e-06
0.00458824
-1.7771e-06
4.13183e-06
0.00422794
-1.5137e-06
3.55644e-06
0.00389305
-1.25959e-06
2.99795e-06
0.00358196
-1.01474e-06
2.46064e-06
0.00329294
-7.80385e-07
1.94914e-06
0.00302422
-5.59162e-07
1.46809e-06
0.0027741
-3.5317e-07
1.02076e-06
0.00254104
-1.63091e-07
6.08764e-07
0.00232357
1.05091e-08
2.33274e-07
0.00212025
1.67031e-07
-1.04644e-07
0.00192965
3.05746e-07
-4.03823e-07
0.00175027
4.25685e-07
-6.62745e-07
0.00158052
5.25428e-07
-8.79168e-07
0.00141856
6.02465e-07
-1.04901e-06
0.00126193
6.52974e-07
-1.16535e-06
0.00110708
6.70312e-07
-1.21633e-06
0.000948763
6.43013e-07
-1.18215e-06
0.0007785
5.5427e-07
-1.03183e-06
0.000581511
3.84864e-07
-7.27648e-07
0.000345875
1.52361e-07
-2.94136e-07
0.000107305
)
;

boundaryField
{
    inlet
    {
        type            calculated;
        value           nonuniform List<scalar> 
70
(
-0.000107156
-0.00034565
-0.000581354
-0.000778426
-0.000948753
-0.00110711
-0.001262
-0.00141866
-0.00158064
-0.00175042
-0.00192982
-0.00212045
-0.00232379
-0.00254128
-0.00277436
-0.00302449
-0.00329323
-0.00358227
-0.00389337
-0.00422827
-0.00458859
-0.00497585
-0.00539167
-0.00583813
-0.00631749
-0.00683173
-0.00738286
-0.00797279
-0.00860335
-0.00927616
-0.00999256
-0.0107535
-0.0115594
-0.0124097
-0.0133027
-0.0133027
-0.0124096
-0.0115593
-0.0107534
-0.00999249
-0.00927608
-0.00860327
-0.00797271
-0.00738278
-0.00683165
-0.00631741
-0.00583805
-0.00539159
-0.00497578
-0.00458851
-0.0042282
-0.00389331
-0.00358221
-0.00329317
-0.00302444
-0.00277431
-0.00254123
-0.00232375
-0.00212041
-0.00192978
-0.00175039
-0.00158062
-0.00141864
-0.00126198
-0.00110709
-0.000948736
-0.000778411
-0.000581342
-0.000345642
-0.000107153
)
;
    }
    outlet
    {
        type            calculated;
        value           nonuniform List<scalar> 
70
(
0.000107014
0.000345449
0.000581219
0.000778364
0.000948746
0.00110715
0.00126207
0.00141875
0.00158076
0.00175056
0.00192998
0.00212063
0.00232399
0.0025415
0.0027746
0.00302475
0.00329351
0.00358256
0.00389368
0.00422858
0.0045889
0.00497616
0.00539197
0.00583842
0.00631775
0.00683196
0.00738303
0.0079729
0.00860336
0.00927604
0.00999228
0.010753
0.0115586
0.0124085
0.0133011
0.0133011
0.0124085
0.0115585
0.0107529
0.00999221
0.00927596
0.00860328
0.00797281
0.00738295
0.00683188
0.00631767
0.00583834
0.0053919
0.00497609
0.00458883
0.00422852
0.00389361
0.0035825
0.00329345
0.0030247
0.00277455
0.00254145
0.00232395
0.00212059
0.00192994
0.00175053
0.00158073
0.00141873
0.00126205
0.00110713
0.000948729
0.00077835
0.000581207
0.000345441
0.000107011
)
;
    }
    fixedWalls-bottom
    {
        type            calculated;
        value           uniform 0;
    }
    fixedWalls-top
    {
        type            calculated;
        value           uniform 0;
    }
    frontAndBack
    {
        type            empty;
        value           nonuniform 0();
    }
}


// ************************************************************************* //
