/*--------------------------------*- C++ -*----------------------------------*\
  =========                 |
  \\      /  F ield         | OpenFOAM: The Open Source CFD Toolbox
   \\    /   O peration     | Website:  https://openfoam.org
    \\  /    A nd           | Version:  7
     \\/     M anipulation  |
\*---------------------------------------------------------------------------*/
FoamFile
{
    version     2.0;
    format      ascii;
    class       volScalarField;
    location    "2000";
    object      T;
}
// * * * * * * * * * * * * * * * * * * * * * * * * * * * * * * * * * * * * * //

dimensions      [0 0 0 1 0 0 0];

internalField   nonuniform List<scalar> 
140
(
341.393
341.394
338.115
338.119
335.123
335.13
332.848
332.856
331.162
331.172
329.862
329.872
328.814
328.825
327.939
327.95
327.185
327.196
326.519
326.531
325.923
325.934
325.382
325.394
324.887
324.898
324.43
324.441
324.004
324.016
323.607
323.618
323.232
323.243
322.878
322.888
322.54
322.55
322.216
322.226
321.905
321.915
321.607
321.616
321.322
321.331
321.046
321.055
320.778
320.786
320.516
320.523
320.258
320.264
320.002
320.008
319.748
319.754
319.494
319.499
319.238
319.242
318.978
318.981
318.712
318.714
318.436
318.438
318.148
318.149
317.852
317.852
317.564
317.562
317.288
317.286
317.022
317.019
316.762
316.758
316.506
316.501
316.252
316.247
315.998
315.992
315.743
315.736
315.484
315.477
315.222
315.214
314.954
314.946
314.678
314.67
314.393
314.384
314.095
314.086
313.785
313.775
313.461
313.45
313.122
313.112
312.768
312.757
312.393
312.383
311.996
311.985
311.57
311.559
311.113
311.102
310.618
310.607
310.077
310.066
309.481
309.47
308.815
308.804
308.061
308.05
307.186
307.175
306.139
306.129
304.838
304.828
303.153
303.144
300.877
300.87
297.885
297.881
294.607
294.606
)
;

boundaryField
{
    inlet
    {
        type            zeroGradient;
    }
    outlet
    {
        type            zeroGradient;
    }
    fixedWalls-bottom
    {
        type            fixedValue;
        value           uniform 293;
    }
    fixedWalls-top
    {
        type            fixedValue;
        value           uniform 343;
    }
    frontAndBack
    {
        type            empty;
    }
}


// ************************************************************************* //
