/*--------------------------------*- C++ -*----------------------------------*\
  =========                 |
  \\      /  F ield         | OpenFOAM: The Open Source CFD Toolbox
   \\    /   O peration     | Website:  https://openfoam.org
    \\  /    A nd           | Version:  7
     \\/     M anipulation  |
\*---------------------------------------------------------------------------*/
FoamFile
{
    version     2.0;
    format      ascii;
    class       volVectorField;
    location    "2000";
    object      U;
}
// * * * * * * * * * * * * * * * * * * * * * * * * * * * * * * * * * * * * * //

dimensions      [0 1 -1 0 0 0 0];

internalField   nonuniform List<vector> 
40
(
(0.554072 2.28554e-05 0)
(0.55526 -3.71173e-05 0)
(0.777492 3.118e-05 0)
(0.779703 -5.39842e-05 0)
(0.941152 3.91255e-05 0)
(0.935894 -1.25294e-05 0)
(1.0614 2.37639e-05 0)
(1.05644 -8.72331e-06 0)
(1.15849 1.93534e-05 0)
(1.15508 -1.23153e-05 0)
(1.24263 2.31804e-05 0)
(1.23994 -2.19312e-05 0)
(1.31785 2.91332e-05 0)
(1.31522 -3.35852e-05 0)
(1.38516 3.32228e-05 0)
(1.38228 -4.14067e-05 0)
(1.44307 2.67837e-05 0)
(1.4399 -2.97166e-05 0)
(1.48676 -6.82565e-06 0)
(1.48336 4.03545e-05 0)
(1.49754 -1.03399e-05 0)
(1.49408 3.72605e-05 0)
(1.49834 1.0222e-06 0)
(1.49487 1.33209e-05 0)
(1.49324 1.3446e-05 0)
(1.48978 -1.28537e-05 0)
(1.48137 2.42544e-05 0)
(1.47793 -3.62112e-05 0)
(1.46137 3.37907e-05 0)
(1.45798 -5.72732e-05 0)
(1.43127 4.25018e-05 0)
(1.42793 -7.61221e-05 0)
(1.3879 5.42577e-05 0)
(1.38463 -9.60334e-05 0)
(1.32531 5.42495e-05 0)
(1.32214 -0.000100856 0)
(1.22661 -0.000233553 0)
(1.22362 0.000186914 0)
(0.988336 0.00110223 0)
(0.985916 -0.00113453 0)
)
;

boundaryField
{
    inlet
    {
        type            mapped;
        field           U;
        setAverage      1;
        average         (1.3452 0 0);
        interpolationScheme cell;
        value           nonuniform List<vector> 
20
(
(0.583415 6.04907e-05 0)
(0.774758 -7.91017e-05 0)
(0.934672 -2.75643e-05 0)
(1.05788 -2.09871e-05 0)
(1.15762 -2.36767e-05 0)
(1.24293 -3.32794e-05 0)
(1.31846 -4.45618e-05 0)
(1.3857 -5.15373e-05 0)
(1.44346 -3.8912e-05 0)
(1.48703 3.03838e-05 0)
(1.49779 3.2211e-05 0)
(1.49858 8.64903e-06 0)
(1.49348 -1.68849e-05 0)
(1.48161 -3.93468e-05 0)
(1.4616 -5.95337e-05 0)
(1.43148 -7.75426e-05 0)
(1.38808 -9.66648e-05 0)
(1.32543 -0.000100753 0)
(1.22666 0.00018765 0)
(0.988354 -0.0011251 0)
)
;
    }
    outlet
    {
        type            zeroGradient;
    }
    fixedWalls-bottom
    {
        type            fixedValue;
        value           uniform (0 0 0);
    }
    fixedWalls-top
    {
        type            fixedValue;
        value           uniform (0 0 0);
    }
    frontAndBack
    {
        type            empty;
    }
}


// ************************************************************************* //
