/*--------------------------------*- C++ -*----------------------------------*\
  =========                 |
  \\      /  F ield         | OpenFOAM: The Open Source CFD Toolbox
   \\    /   O peration     | Website:  https://openfoam.org
    \\  /    A nd           | Version:  7
     \\/     M anipulation  |
\*---------------------------------------------------------------------------*/
FoamFile
{
    version     2.0;
    format      ascii;
    class       volVectorField;
    location    "2000";
    object      U;
}
// * * * * * * * * * * * * * * * * * * * * * * * * * * * * * * * * * * * * * //

dimensions      [0 1 -1 0 0 0 0];

internalField   nonuniform List<vector> 
40
(
(0.5573 3.27084e-05 0)
(0.555404 -5.09485e-05 0)
(0.776932 2.29544e-05 0)
(0.779688 -3.65231e-05 0)
(0.940371 3.74477e-05 0)
(0.935854 -1.21845e-05 0)
(1.06117 2.31008e-05 0)
(1.05643 -8.1383e-06 0)
(1.15855 1.88612e-05 0)
(1.15509 -1.1611e-05 0)
(1.24272 2.23579e-05 0)
(1.23994 -2.09581e-05 0)
(1.31789 2.80334e-05 0)
(1.31521 -3.24087e-05 0)
(1.38516 3.20573e-05 0)
(1.38227 -4.01904e-05 0)
(1.44306 2.57018e-05 0)
(1.43988 -2.85848e-05 0)
(1.48676 -7.74509e-06 0)
(1.48335 4.13802e-05 0)
(1.49754 -1.1138e-05 0)
(1.49407 3.81436e-05 0)
(1.49834 3.52741e-07 0)
(1.49487 1.40958e-05 0)
(1.49324 1.28911e-05 0)
(1.48978 -1.21738e-05 0)
(1.48137 2.38154e-05 0)
(1.47793 -3.56411e-05 0)
(1.46137 3.36731e-05 0)
(1.45797 -5.70178e-05 0)
(1.43127 4.20954e-05 0)
(1.42792 -7.55752e-05 0)
(1.38789 4.86436e-05 0)
(1.38462 -9.0268e-05 0)
(1.3253 5.21033e-05 0)
(1.32212 -9.85347e-05 0)
(1.22659 4.723e-05 0)
(1.22359 -9.30802e-05 0)
(0.988279 3.20505e-05 0)
(0.985854 -6.72667e-05 0)
)
;

boundaryField
{
    inlet
    {
        type            mapped;
        field           U;
        setAverage      1;
        average         (1.3452 0 0);
        interpolationScheme cell;
        value           nonuniform List<vector> 
20
(
(0.583546 2.46047e-05 0)
(0.774752 -6.0285e-05 0)
(0.934646 -2.72969e-05 0)
(1.05789 -2.05076e-05 0)
(1.15764 -2.28094e-05 0)
(1.24294 -3.20465e-05 0)
(1.31846 -4.31464e-05 0)
(1.3857 -5.01483e-05 0)
(1.44346 -3.76564e-05 0)
(1.48704 3.15069e-05 0)
(1.4978 3.30877e-05 0)
(1.4986 9.40102e-06 0)
(1.4935 -1.62421e-05 0)
(1.48162 -3.88321e-05 0)
(1.46161 -5.93513e-05 0)
(1.43149 -7.70878e-05 0)
(1.38807 -9.10346e-05 0)
(1.32542 -9.86013e-05 0)
(1.22664 -9.27996e-05 0)
(0.988293 -6.64648e-05 0)
)
;
    }
    outlet
    {
        type            zeroGradient;
    }
    fixedWalls-bottom
    {
        type            fixedValue;
        value           uniform (0 0 0);
    }
    fixedWalls-top
    {
        type            fixedValue;
        value           uniform (0 0 0);
    }
    frontAndBack
    {
        type            empty;
    }
}


// ************************************************************************* //
