/*--------------------------------*- C++ -*----------------------------------*\
  =========                 |
  \\      /  F ield         | OpenFOAM: The Open Source CFD Toolbox
   \\    /   O peration     | Website:  https://openfoam.org
    \\  /    A nd           | Version:  7
     \\/     M anipulation  |
\*---------------------------------------------------------------------------*/
FoamFile
{
    version     2.0;
    format      ascii;
    class       volVectorField;
    location    "2000";
    object      U;
}
// * * * * * * * * * * * * * * * * * * * * * * * * * * * * * * * * * * * * * //

dimensions      [0 1 -1 0 0 0 0];

internalField   nonuniform List<vector> 
140
(
(0.121125 -5.89911e-08 0)
(0.12107 1.02732e-07 0)
(0.365122 -2.18584e-07 0)
(0.364961 4.21951e-07 0)
(0.573854 -4.036e-07 0)
(0.573639 7.56461e-07 0)
(0.718034 -5.0334e-07 0)
(0.7178 9.32725e-07 0)
(0.817818 -5.45816e-07 0)
(0.817576 9.98094e-07 0)
(0.891819 -5.46618e-07 0)
(0.891569 9.85312e-07 0)
(0.950015 -5.16916e-07 0)
(0.949757 9.13409e-07 0)
(0.99801 -4.63699e-07 0)
(0.997743 7.94095e-07 0)
(1.03915 -3.90536e-07 0)
(1.03887 6.34799e-07 0)
(1.07541 -3.00157e-07 0)
(1.07512 4.39554e-07 0)
(1.10799 -1.94018e-07 0)
(1.1077 2.10795e-07 0)
(1.13772 -7.30575e-08 0)
(1.13742 -5.00588e-08 0)
(1.16518 6.20961e-08 0)
(1.16487 -3.42002e-07 0)
(1.19079 2.10922e-07 0)
(1.19048 -6.64168e-07 0)
(1.21488 3.73021e-07 0)
(1.21457 -1.01571e-06 0)
(1.23769 5.47922e-07 0)
(1.23737 -1.3957e-06 0)
(1.25942 7.34614e-07 0)
(1.25909 -1.80193e-06 0)
(1.28025 9.3068e-07 0)
(1.27992 -2.23131e-06 0)
(1.30032 1.13459e-06 0)
(1.29999 -2.67974e-06 0)
(1.3197 1.34578e-06 0)
(1.31936 -3.14351e-06 0)
(1.33838 1.5649e-06 0)
(1.33803 -3.6194e-06 0)
(1.3563 1.79315e-06 0)
(1.35595 -4.10425e-06 0)
(1.3734 2.02837e-06 0)
(1.37305 -4.59248e-06 0)
(1.38975 2.26461e-06 0)
(1.38939 -5.07306e-06 0)
(1.40538 2.49339e-06 0)
(1.40502 -5.53012e-06 0)
(1.42027 2.70523e-06 0)
(1.4199 -5.94526e-06 0)
(1.43434 2.88976e-06 0)
(1.43397 -6.2969e-06 0)
(1.44752 3.03335e-06 0)
(1.44715 -6.55743e-06 0)
(1.45972 3.1188e-06 0)
(1.45935 -6.69219e-06 0)
(1.47082 3.12435e-06 0)
(1.47044 -6.65757e-06 0)
(1.48066 3.02242e-06 0)
(1.48028 -6.39854e-06 0)
(1.48908 2.77809e-06 0)
(1.48869 -5.84559e-06 0)
(1.49586 2.34631e-06 0)
(1.49547 -4.90929e-06 0)
(1.50074 1.6589e-06 0)
(1.50034 -3.45411e-06 0)
(1.50339 6.22812e-07 0)
(1.503 -1.29292e-06 0)
(1.50339 -6.24122e-07 0)
(1.503 1.29563e-06 0)
(1.50073 -1.66019e-06 0)
(1.50034 3.45676e-06 0)
(1.49585 -2.34755e-06 0)
(1.49546 4.91184e-06 0)
(1.48907 -2.77926e-06 0)
(1.48868 5.848e-06 0)
(1.48065 -3.0235e-06 0)
(1.48027 6.40077e-06 0)
(1.47081 -3.1253e-06 0)
(1.47043 6.65959e-06 0)
(1.45971 -3.11959e-06 0)
(1.45933 6.69397e-06 0)
(1.44751 -3.03397e-06 0)
(1.44713 6.55895e-06 0)
(1.43432 -2.89018e-06 0)
(1.43395 6.29814e-06 0)
(1.42025 -2.70544e-06 0)
(1.41988 5.94621e-06 0)
(1.40537 -2.49337e-06 0)
(1.405 5.53079e-06 0)
(1.38973 -2.26432e-06 0)
(1.38937 5.07344e-06 0)
(1.37339 -2.02783e-06 0)
(1.37303 4.59259e-06 0)
(1.35628 -1.79242e-06 0)
(1.35593 4.1041e-06 0)
(1.33836 -1.56404e-06 0)
(1.33801 3.61901e-06 0)
(1.31968 -1.34479e-06 0)
(1.31934 3.14294e-06 0)
(1.3003 -1.13352e-06 0)
(1.29996 2.67905e-06 0)
(1.28023 -9.29601e-07 0)
(1.2799 2.23057e-06 0)
(1.2594 -7.33568e-07 0)
(1.25907 1.80118e-06 0)
(1.23767 -5.46939e-07 0)
(1.23735 1.39497e-06 0)
(1.21486 -3.72097e-07 0)
(1.21455 1.01501e-06 0)
(1.19077 -2.10055e-07 0)
(1.19046 6.63492e-07 0)
(1.16516 -6.12809e-08 0)
(1.16485 3.41352e-07 0)
(1.1377 7.38225e-08 0)
(1.1374 4.94336e-08 0)
(1.10797 1.94734e-07 0)
(1.10768 -2.11394e-07 0)
(1.07539 3.00827e-07 0)
(1.07511 -4.40125e-07 0)
(1.03913 3.9116e-07 0)
(1.03886 -6.35344e-07 0)
(0.997993 4.64277e-07 0)
(0.997726 -7.94611e-07 0)
(0.949999 5.17436e-07 0)
(0.94974 -9.13881e-07 0)
(0.891804 5.47074e-07 0)
(0.891554 -9.85733e-07 0)
(0.817804 5.46172e-07 0)
(0.817561 -9.98426e-07 0)
(0.718021 5.0359e-07 0)
(0.717787 -9.32959e-07 0)
(0.573843 4.03743e-07 0)
(0.573627 -7.56593e-07 0)
(0.365113 2.18631e-07 0)
(0.364953 -4.21996e-07 0)
(0.121122 5.90016e-08 0)
(0.121067 -1.02733e-07 0)
)
;

boundaryField
{
    inlet
    {
        type            mapped;
        field           U;
        setAverage      1;
        average         (1.3452 0 0);
        interpolationScheme cell;
        value           nonuniform List<vector> 
70
(
(0.121103 1.0277e-07 0)
(0.365061 4.22121e-07 0)
(0.573796 7.56783e-07 0)
(0.717997 9.33148e-07 0)
(0.8178 9.9858e-07 0)
(0.891813 9.85834e-07 0)
(0.950015 9.13936e-07 0)
(0.998015 7.94612e-07 0)
(1.03916 6.35293e-07 0)
(1.07542 4.40014e-07 0)
(1.108 2.11217e-07 0)
(1.13773 -4.96784e-08 0)
(1.16519 -3.41668e-07 0)
(1.1908 -6.63883e-07 0)
(1.21489 -1.01548e-06 0)
(1.2377 -1.39553e-06 0)
(1.25943 -1.80183e-06 0)
(1.28026 -2.23129e-06 0)
(1.30033 -2.67978e-06 0)
(1.31972 -3.14363e-06 0)
(1.3384 -3.61957e-06 0)
(1.35632 -4.1045e-06 0)
(1.37343 -4.59283e-06 0)
(1.38977 -5.07352e-06 0)
(1.40541 -5.5307e-06 0)
(1.42029 -5.94596e-06 0)
(1.43436 -6.29771e-06 0)
(1.44755 -6.55835e-06 0)
(1.45975 -6.69319e-06 0)
(1.47085 -6.65862e-06 0)
(1.48069 -6.3996e-06 0)
(1.48911 -5.84661e-06 0)
(1.49588 -4.91019e-06 0)
(1.50076 -3.45476e-06 0)
(1.50342 -1.29316e-06 0)
(1.50342 1.29589e-06 0)
(1.50076 3.45743e-06 0)
(1.49588 4.91275e-06 0)
(1.4891 5.84903e-06 0)
(1.48068 6.40184e-06 0)
(1.47084 6.66065e-06 0)
(1.45974 6.69498e-06 0)
(1.44754 6.55988e-06 0)
(1.43435 6.29896e-06 0)
(1.42027 5.94693e-06 0)
(1.40539 5.53138e-06 0)
(1.38976 5.07392e-06 0)
(1.37341 4.59295e-06 0)
(1.3563 4.10435e-06 0)
(1.33837 3.61918e-06 0)
(1.31969 3.14305e-06 0)
(1.30031 2.67909e-06 0)
(1.28024 2.23054e-06 0)
(1.25941 1.80107e-06 0)
(1.23768 1.39479e-06 0)
(1.21487 1.01477e-06 0)
(1.19078 6.63205e-07 0)
(1.16517 3.41014e-07 0)
(1.13771 4.90507e-08 0)
(1.10798 -2.11819e-07 0)
(1.0754 -4.40588e-07 0)
(1.03914 -6.3584e-07 0)
(0.997997 -7.95131e-07 0)
(0.949999 -9.1441e-07 0)
(0.891797 -9.86257e-07 0)
(0.817785 -9.98914e-07 0)
(0.717984 -9.33383e-07 0)
(0.573785 -7.56916e-07 0)
(0.365053 -4.22166e-07 0)
(0.1211 -1.02771e-07 0)
)
;
    }
    outlet
    {
        type            zeroGradient;
    }
    fixedWalls-bottom
    {
        type            fixedValue;
        value           uniform (0 0 0);
    }
    fixedWalls-top
    {
        type            fixedValue;
        value           uniform (0 0 0);
    }
    frontAndBack
    {
        type            empty;
    }
}


// ************************************************************************* //
