/*--------------------------------*- C++ -*----------------------------------*\
  =========                 |
  \\      /  F ield         | OpenFOAM: The Open Source CFD Toolbox
   \\    /   O peration     | Website:  https://openfoam.org
    \\  /    A nd           | Version:  7
     \\/     M anipulation  |
\*---------------------------------------------------------------------------*/
FoamFile
{
    version     2.0;
    format      ascii;
    class       volScalarField;
    location    "0.3";
    object      p;
}
// * * * * * * * * * * * * * * * * * * * * * * * * * * * * * * * * * * * * * //

dimensions      [0 2 -2 0 0 0 0];

internalField   nonuniform List<scalar> 
100
(
2.22916e-06
-0.0142982
-0.0161233
-0.00210269
0.0238809
0.0549726
0.0826308
0.098415
0.0968855
0.0815596
0.0140104
-0.0025822
-0.00458212
0.00685572
0.0271217
0.0513167
0.0733365
0.0866509
0.0848883
0.0669113
0.0187614
-0.00423455
-0.00716249
0.00473168
0.0250293
0.0494069
0.0725117
0.0877118
0.0856368
0.0604073
0.00545233
-0.0237934
-0.0255767
-0.00933769
0.0163289
0.0472096
0.0780368
0.101057
0.102395
0.0702391
-0.0355601
-0.0672408
-0.0627634
-0.0371275
-0.000921498
0.0423233
0.0879237
0.127075
0.1403
0.106893
-0.119499
-0.143729
-0.123284
-0.0811495
-0.028632
0.0330767
0.101572
0.168427
0.208854
0.189489
-0.271066
-0.263331
-0.209094
-0.140406
-0.0651094
0.0208444
0.120434
0.229113
0.321532
0.351114
-0.542124
-0.432766
-0.311464
-0.203641
-0.0999796
0.0133881
0.14915
0.313394
0.498202
0.662428
-1.07596
-0.643932
-0.387337
-0.234369
-0.110561
0.0184695
0.180459
0.406068
0.757572
1.29461
-1.99465
-0.850959
-0.363008
-0.185643
-0.079344
0.0262654
0.176014
0.443454
1.04955
2.30862
)
;

boundaryField
{
    movingWall
    {
        type            zeroGradient;
    }
    fixedWalls
    {
        type            zeroGradient;
    }
    frontAndBack
    {
        type            empty;
    }
}


// ************************************************************************* //
