/*--------------------------------*- C++ -*----------------------------------*\
  =========                 |
  \\      /  F ield         | OpenFOAM: The Open Source CFD Toolbox
   \\    /   O peration     | Website:  https://openfoam.org
    \\  /    A nd           | Version:  7
     \\/     M anipulation  |
\*---------------------------------------------------------------------------*/
FoamFile
{
    version     2.0;
    format      ascii;
    class       surfaceScalarField;
    location    "0.3";
    object      phi;
}
// * * * * * * * * * * * * * * * * * * * * * * * * * * * * * * * * * * * * * //

dimensions      [0 3 -1 0 0 0 0];

internalField   nonuniform List<scalar> 
180
(
-2.01764e-07
2.01704e-07
-1.11807e-06
9.16312e-07
-2.27655e-06
1.15848e-06
-3.19419e-06
9.17641e-07
-3.5668e-06
3.72616e-07
-3.26799e-06
-2.98819e-07
-2.36549e-06
-9.02501e-07
-1.16122e-06
-1.20427e-06
-1.98897e-07
-9.62317e-07
-1.98893e-07
-9.86028e-07
1.18773e-06
-3.21615e-06
3.14644e-06
-5.7109e-06
3.65322e-06
-7.61845e-06
2.8252e-06
-8.37774e-06
1.13191e-06
-7.75703e-06
-9.1953e-07
-5.88875e-06
-2.77079e-06
-3.31985e-06
-3.77317e-06
-9.95661e-07
-3.28651e-06
-1.19455e-06
-1.71741e-06
2.90514e-06
-5.09676e-06
6.52579e-06
-8.63385e-06
7.1903e-06
-1.12513e-05
5.44263e-06
-1.22948e-05
2.17548e-06
-1.14921e-05
-1.72229e-06
-8.96684e-06
-5.29602e-06
-5.32818e-06
-7.41184e-06
-1.77119e-06
-6.8435e-06
-2.96573e-06
-2.45167e-06
5.35681e-06
-6.90894e-06
1.09831e-05
-1.13127e-05
1.1594e-05
-1.44684e-05
8.59832e-06
-1.57531e-05
3.46016e-06
-1.48995e-05
-2.57579e-06
-1.19538e-05
-8.24176e-06
-7.42819e-06
-1.19374e-05
-2.63622e-06
-1.16355e-05
-5.60195e-06
-3.29983e-06
8.65664e-06
-8.69426e-06
1.63775e-05
-1.36088e-05
1.65086e-05
-1.69684e-05
1.19579e-05
-1.83782e-05
4.87001e-06
-1.76558e-05
-3.29824e-06
-1.46989e-05
-1.11986e-05
-9.69182e-06
-1.69446e-05
-3.75177e-06
-1.75755e-05
-9.35372e-06
-4.31956e-06
1.29762e-05
-1.0213e-05
2.22709e-05
-1.48188e-05
2.11144e-05
-1.76627e-05
1.48018e-05
-1.88875e-05
6.09474e-06
-1.85265e-05
-3.65919e-06
-1.62862e-05
-1.34389e-05
-1.17228e-05
-2.15079e-05
-5.14954e-06
-2.41488e-05
-1.45033e-05
-5.43786e-06
1.84141e-05
-1.06444e-05
2.74775e-05
-1.33021e-05
2.3772e-05
-1.43463e-05
1.5846e-05
-1.4788e-05
6.53649e-06
-1.50099e-05
-3.4373e-06
-1.4572e-05
-1.38768e-05
-1.2193e-05
-2.38869e-05
-6.51183e-06
-2.983e-05
-2.10151e-05
-6.09997e-06
2.4514e-05
-7.66886e-06
2.90464e-05
-5.66031e-06
2.17635e-05
-3.2016e-06
1.33873e-05
-2.09357e-06
5.42847e-06
-3.00247e-06
-2.5284e-06
-5.56915e-06
-1.13101e-05
-7.98549e-06
-2.14706e-05
-6.67042e-06
-3.11451e-05
-2.76855e-05
-2.14135e-06
2.66554e-05
5.54262e-06
2.13624e-05
1.49557e-05
1.23505e-05
2.16912e-05
6.65174e-06
2.45494e-05
2.57029e-06
2.31292e-05
-1.10822e-06
1.72891e-05
-5.47001e-06
7.88618e-06
-1.20676e-05
-7.42155e-07
-2.25168e-05
-2.84277e-05
2.66554e-05
4.80178e-05
6.03682e-05
6.702e-05
6.95903e-05
6.8482e-05
6.3012e-05
5.09444e-05
2.84277e-05
)
;

boundaryField
{
    movingWall
    {
        type            calculated;
        value           uniform 0;
    }
    fixedWalls
    {
        type            calculated;
        value           uniform 0;
    }
    frontAndBack
    {
        type            empty;
        value           nonuniform 0();
    }
}


// ************************************************************************* //
