/*--------------------------------*- C++ -*----------------------------------*\
  =========                 |
  \\      /  F ield         | OpenFOAM: The Open Source CFD Toolbox
   \\    /   O peration     | Website:  https://openfoam.org
    \\  /    A nd           | Version:  7
     \\/     M anipulation  |
\*---------------------------------------------------------------------------*/
FoamFile
{
    version     2.0;
    format      ascii;
    class       volVectorField;
    location    "0.3";
    object      U;
}
// * * * * * * * * * * * * * * * * * * * * * * * * * * * * * * * * * * * * * //

dimensions      [0 1 -1 0 0 0 0];

internalField   nonuniform List<vector> 
100
(
(-0.000373296 0.000306304 0)
(-0.00571698 0.00331254 0)
(-0.0169795 0.0045036 0)
(-0.0281644 0.0036594 0)
(-0.0350367 0.00153207 0)
(-0.0354493 -0.00113471 0)
(-0.0290708 -0.00353379 0)
(-0.0176975 -0.00466008 0)
(-0.00587644 -0.00347657 0)
(-0.00030801 -0.000270342 0)
(-0.00367097 0.00553164 0)
(-0.0192887 0.0176669 0)
(-0.0448901 0.0214177 0)
(-0.0687531 0.0168447 0)
(-0.0830048 0.00684746 0)
(-0.0837888 -0.00540666 0)
(-0.0705378 -0.0164108 0)
(-0.0464434 -0.0220609 0)
(-0.0198116 -0.0183893 0)
(-0.00363685 -0.00546762 0)
(-0.00693488 0.0190906 0)
(-0.031946 0.0458265 0)
(-0.0693356 0.0518605 0)
(-0.102541 0.0397671 0)
(-0.121945 0.0159495 0)
(-0.123284 -0.0127314 0)
(-0.10573 -0.0387408 0)
(-0.072439 -0.053335 0)
(-0.0333922 -0.0477477 0)
(-0.00710972 -0.0192316 0)
(-0.0104106 0.0399702 0)
(-0.0446325 0.0854349 0)
(-0.0923712 0.0923124 0)
(-0.132811 0.0693072 0)
(-0.156031 0.0278021 0)
(-0.158373 -0.0214155 0)
(-0.138651 -0.0669315 0)
(-0.0986973 -0.0949503 0)
(-0.0483972 -0.0897629 0)
(-0.0112845 -0.0411244 0)
(-0.0148585 0.0686797 0)
(-0.0584193 0.135367 0)
(-0.113601 0.140138 0)
(-0.157255 0.102973 0)
(-0.181672 0.0416395 0)
(-0.185308 -0.0298918 0)
(-0.166708 -0.0978288 0)
(-0.124846 -0.144131 0)
(-0.0664195 -0.144132 0)
(-0.0172538 -0.0728138 0)
(-0.0209677 0.106909 0)
(-0.0730222 0.193439 0)
(-0.128384 0.190278 0)
(-0.166582 0.13606 0)
(-0.186524 0.0555492 0)
(-0.190925 -0.0362446 0)
(-0.178553 -0.126324 0)
(-0.144087 -0.19526 0)
(-0.0862357 -0.209059 0)
(-0.0256317 -0.117546 0)
(-0.0287155 0.15776 0)
(-0.084762 0.252818 0)
(-0.124157 0.23092 0)
(-0.140905 0.158573 0)
(-0.146525 0.0650556 0)
(-0.149607 -0.0379031 0)
(-0.150023 -0.143033 0)
(-0.138266 -0.235431 0)
(-0.0998406 -0.276394 0)
(-0.0348515 -0.179518 0)
(-0.03339 0.224633 0)
(-0.0790721 0.295721 0)
(-0.0711593 0.239169 0)
(-0.0432059 0.153819 0)
(-0.0225366 0.0628692 0)
(-0.0208918 -0.0318063 0)
(-0.0399138 -0.133596 0)
(-0.0704837 -0.24041 0)
(-0.0841631 -0.32254 0)
(-0.0353858 -0.257632 0)
(0.000652476 0.277736 0)
(0.00199905 0.279501 0)
(0.100214 0.186983 0)
(0.189731 0.108121 0)
(0.239817 0.0435332 0)
(0.247716 -0.0175484 0)
(0.211052 -0.0878621 0)
(0.127032 -0.181114 0)
(0.0234047 -0.294132 0)
(0.0155738 -0.302147 0)
(0.29391 0.147401 0)
(0.386012 0.12727 0)
(0.54031 0.074268 0)
(0.643289 0.0388854 0)
(0.690087 0.0156227 0)
(0.697241 -0.00350689 0)
(0.66506 -0.0262231 0)
(0.573237 -0.063029 0)
(0.414599 -0.12315 0)
(0.309559 -0.151143 0)
)
;

boundaryField
{
    movingWall
    {
        type            fixedValue;
        value           uniform (1 0 0);
    }
    fixedWalls
    {
        type            noSlip;
    }
    frontAndBack
    {
        type            empty;
    }
}


// ************************************************************************* //
