/*--------------------------------*- C++ -*----------------------------------*\
  =========                 |
  \\      /  F ield         | OpenFOAM: The Open Source CFD Toolbox
   \\    /   O peration     | Website:  https://openfoam.org
    \\  /    A nd           | Version:  7
     \\/     M anipulation  |
\*---------------------------------------------------------------------------*/
FoamFile
{
    version     2.0;
    format      ascii;
    class       volScalarField;
    location    "83";
    object      k;
}
// * * * * * * * * * * * * * * * * * * * * * * * * * * * * * * * * * * * * * //

dimensions      [0 2 -2 0 0 0 0];

internalField   nonuniform List<scalar> 
12842
(
0.00567909
0.00510112
0.00472588
0.00447334
0.00431732
0.00418194
0.00410628
0.00402606
0.00399222
0.00395962
0.00396361
0.00398421
0.00403358
0.004107
0.00418468
0.00423455
0.00429961
0.00434389
0.00438025
0.00440298
0.00442
0.00442111
0.00443147
0.00564342
0.00502824
0.0046856
0.00442789
0.00429919
0.00417476
0.00410285
0.00402439
0.00398983
0.00395784
0.00396186
0.00398412
0.00403744
0.00411329
0.00418972
0.00424194
0.00430639
0.00434724
0.00438047
0.00439628
0.00443392
0.00442376
0.00443422
0.00560749
0.00497092
0.00461859
0.00438032
0.00424531
0.0041388
0.00407836
0.00400792
0.00397723
0.00395144
0.00395975
0.00398864
0.0040542
0.00413593
0.00420506
0.00425053
0.00431596
0.00435507
0.00437857
0.00439814
0.00441704
0.00443848
0.00443797
0.00554264
0.00490303
0.00455426
0.00432433
0.00421377
0.00411877
0.00406514
0.00399923
0.00397079
0.00394858
0.00395835
0.00399154
0.00406525
0.00415447
0.00422618
0.00426911
0.00432578
0.00436251
0.00438104
0.00439651
0.00441601
0.00443172
0.0044274
0.00548818
0.00484002
0.00449771
0.00427525
0.00416268
0.00408246
0.00403497
0.00397799
0.0039566
0.00394283
0.00395716
0.00399861
0.00408637
0.00417774
0.00424138
0.00428237
0.00433966
0.00437371
0.00438832
0.0043998
0.00441932
0.00443372
0.00442684
0.00541504
0.00476906
0.00443909
0.00423067
0.0041295
0.00405386
0.00401948
0.00396793
0.00394776
0.0039392
0.00395639
0.00400335
0.00410403
0.00420283
0.00426184
0.00429949
0.00435165
0.0043804
0.00439309
0.0044144
0.0044376
0.00443209
0.00444051
0.00535706
0.00470751
0.00438904
0.00419101
0.00409289
0.00402681
0.00399114
0.00394836
0.0039347
0.00393412
0.00395558
0.00401199
0.00412691
0.00422587
0.00428002
0.00431331
0.00436521
0.00438863
0.00439965
0.00441739
0.00443418
0.00443253
0.004432
0.00528668
0.0046448
0.00433931
0.004156
0.00406262
0.00400134
0.00397605
0.00393739
0.00392616
0.00393053
0.00395531
0.00401528
0.00414689
0.00424568
0.00429792
0.00432795
0.00437778
0.00439744
0.00440766
0.00442019
0.00443064
0.0044422
0.0044377
0.00522809
0.00459349
0.00429807
0.00412777
0.00403856
0.00398129
0.00395501
0.00392316
0.00391688
0.00392563
0.00395685
0.00402606
0.0041713
0.00426484
0.0043123
0.00433939
0.00438398
0.00440553
0.00442165
0.00443461
0.00442744
0.0044436
0.00444156
0.00515151
0.00453026
0.00425499
0.00409971
0.00401608
0.0039646
0.00394338
0.00391403
0.00391145
0.00392246
0.00395747
0.00403195
0.00418961
0.00427881
0.00432705
0.00434782
0.0043924
0.00442291
0.00444005
0.00444434
0.00443298
0.00444122
0.00444562
0.0050863
0.00448334
0.00421735
0.00407723
0.00399683
0.00395017
0.00392955
0.00390448
0.00390511
0.00391884
0.00395776
0.00403958
0.00420663
0.00428985
0.00433723
0.00435353
0.00441111
0.00442745
0.00444524
0.0044465
0.00443463
0.0044545
0.00445386
0.00501101
0.00442642
0.00418205
0.0040528
0.00397781
0.00393684
0.00391894
0.00389677
0.00390087
0.00391602
0.00395844
0.00404636
0.0042217
0.00429924
0.00435025
0.00435967
0.00441547
0.00443642
0.00444624
0.00445228
0.00445461
0.00445864
0.00447098
0.00494764
0.00438531
0.00414767
0.0040337
0.00396083
0.00392536
0.0039085
0.00388934
0.00389557
0.00391337
0.00396063
0.00405429
0.00423486
0.00430746
0.00436138
0.00436366
0.00441681
0.00443924
0.00446476
0.00445647
0.00445842
0.00445492
0.00447582
0.00487759
0.00433618
0.00412024
0.00401248
0.00394467
0.00391478
0.00389878
0.00388359
0.00389202
0.00391046
0.003963
0.00406361
0.00424584
0.00431242
0.00437813
0.00436821
0.00443766
0.00444708
0.00445015
0.00444996
0.00445685
0.00446611
0.0044765
0.00481909
0.00430095
0.00408977
0.0039956
0.00393014
0.00390542
0.00389008
0.00387759
0.00388756
0.00390807
0.00396748
0.00407148
0.00425531
0.00431925
0.00438936
0.0043732
0.00443066
0.00445133
0.0044677
0.00445443
0.00446506
0.00448419
0.00450653
0.00475998
0.00426003
0.00406874
0.00397689
0.00391672
0.00389667
0.00388174
0.00387384
0.00388436
0.00390577
0.00397154
0.00408561
0.00426245
0.00432319
0.00439897
0.00437918
0.00444311
0.00444436
0.00446347
0.00447543
0.00449719
0.00451081
0.00453755
0.00471553
0.00423076
0.00404245
0.00396128
0.0039044
0.00388869
0.003874
0.00386893
0.00388042
0.00390328
0.00397611
0.00409717
0.00426886
0.00433117
0.00441733
0.00438758
0.00443761
0.0044502
0.00447226
0.00449394
0.00452342
0.00456918
0.00462076
0.00467012
0.00419758
0.00402542
0.00394432
0.00389334
0.00388061
0.00386717
0.00386628
0.00387743
0.00390141
0.00397939
0.00411103
0.00427377
0.00433694
0.00442349
0.00440675
0.00444932
0.00447692
0.00451002
0.00454753
0.00460027
0.0046575
0.00473352
0.00463516
0.0041741
0.00400385
0.00392965
0.00388288
0.00387296
0.00386099
0.00386202
0.0038741
0.00390247
0.00398412
0.00413156
0.00428196
0.00435048
0.00442561
0.00442055
0.00446843
0.00450197
0.00454332
0.00459049
0.0046665
0.00479627
0.00489586
0.00459969
0.0041476
0.0039879
0.00391435
0.00387315
0.00386533
0.00385493
0.00385955
0.00387166
0.00390181
0.00398915
0.00415141
0.00428953
0.00436152
0.00443779
0.00446226
0.00452416
0.00456925
0.00462836
0.00469452
0.00482876
0.00496272
0.0051569
0.00457124
0.00412907
0.00397164
0.00390094
0.00386392
0.00385742
0.0038503
0.00385532
0.003869
0.00390139
0.00399581
0.00417119
0.00430826
0.0043876
0.00444485
0.0044961
0.00456881
0.00462461
0.00470973
0.00480931
0.00498357
0.00530383
0.00550217
0.00454276
0.00410749
0.0039552
0.00388723
0.00385465
0.00385018
0.00384463
0.00385283
0.0038675
0.00390416
0.00400427
0.00418355
0.00432407
0.00440825
0.00448847
0.00457139
0.0046687
0.00475942
0.00484471
0.00498299
0.00531875
0.00556332
0.00575199
0.0045195
0.00409256
0.0039431
0.0038755
0.0038459
0.00384223
0.00384045
0.00384856
0.00386523
0.00390237
0.00400826
0.00420384
0.00436127
0.00446065
0.00453087
0.00464355
0.00475333
0.00483932
0.00498596
0.0052486
0.00552796
0.00593312
0.00627433
0.0044995
0.00407864
0.00393092
0.00386612
0.00383924
0.00383708
0.00383665
0.00384693
0.00386441
0.00390443
0.00402548
0.00422168
0.0043918
0.00449778
0.004621
0.00476018
0.00488635
0.00503513
0.00520414
0.00544257
0.00599711
0.00652679
0.00677983
0.00448501
0.00406974
0.00392441
0.00386026
0.00383443
0.00383282
0.00383472
0.00384548
0.0038635
0.00390538
0.00402841
0.00425478
0.00444958
0.00458682
0.00471108
0.00486935
0.00502636
0.00515015
0.00537231
0.00592541
0.00655176
0.00690936
0.00720421
0.00446997
0.00406083
0.00391765
0.00385569
0.00383058
0.00383009
0.00383209
0.00384457
0.00386254
0.00390586
0.00402847
0.00428408
0.00450993
0.004644
0.0048219
0.0050331
0.00520038
0.0054142
0.00581624
0.0063481
0.00695172
0.00745359
0.00849808
0.00445725
0.00405144
0.00391143
0.00385049
0.00382579
0.00382584
0.00383015
0.00384304
0.00386127
0.00390881
0.00404776
0.0043428
0.00459409
0.00477885
0.00496915
0.00517168
0.00540032
0.0056713
0.00610347
0.00671693
0.00801529
0.0111871
0.023251
0.00444247
0.00404346
0.00390634
0.00384706
0.00382238
0.00382335
0.00382774
0.00384147
0.00385993
0.00391062
0.00407836
0.00440456
0.00469908
0.00486919
0.00509845
0.0053672
0.0056357
0.00598513
0.0065716
0.00847776
0.0190948
0.0723456
0.180059
0.00443169
0.00403314
0.00390026
0.00384196
0.00381818
0.00381909
0.00382593
0.00383948
0.00385946
0.00392376
0.00413427
0.00449028
0.00480904
0.00503739
0.00527271
0.00556384
0.00590178
0.00642645
0.00827404
0.0197189
0.0772216
0.198674
0.403129
0.004417
0.00402635
0.00389644
0.0038393
0.00381522
0.00381691
0.00382327
0.00383794
0.00386001
0.00394919
0.00419089
0.00458432
0.00494791
0.00517611
0.0054486
0.00576792
0.00618946
0.0071793
0.0121753
0.0365275
0.10813
0.261807
0.402899
0.00440806
0.00401485
0.00389036
0.00383432
0.00381132
0.00381259
0.00382065
0.003835
0.00386674
0.00399487
0.00427307
0.00470035
0.0050871
0.0053449
0.00561694
0.00599353
0.00659473
0.00827361
0.0161208
0.0461452
0.118477
0.243946
0.430703
0.00439373
0.00400911
0.00388724
0.0038318
0.00380913
0.00381025
0.00381758
0.00383272
0.00388338
0.00404474
0.00435503
0.00482667
0.00525096
0.00552431
0.00584213
0.00624895
0.00688623
0.00908766
0.0204363
0.0627298
0.142626
0.281805
0.454008
0.00438542
0.00399703
0.00388143
0.00382702
0.00380527
0.00380533
0.00381418
0.00383399
0.00391306
0.00411276
0.00446098
0.00496952
0.00541236
0.00570441
0.00602045
0.00644966
0.00740472
0.0112884
0.0331141
0.0715499
0.176601
0.30295
0.440462
0.00437276
0.00399096
0.00387854
0.00382446
0.00380296
0.0038028
0.00380985
0.00384282
0.00395292
0.00418652
0.00456899
0.00512675
0.00560126
0.00590096
0.0062463
0.00675738
0.00778915
0.0120151
0.0378842
0.0997138
0.185737
0.308759
0.504904
0.00436367
0.0039793
0.00387296
0.00381917
0.00379813
0.00379788
0.00380884
0.00386178
0.00400419
0.00427115
0.0046935
0.0052894
0.00577072
0.00610153
0.0064631
0.00695415
0.0082351
0.0159936
0.0420374
0.0983467
0.193198
0.303781
0.511939
0.00435303
0.0039722
0.00386996
0.00381625
0.00379487
0.00379583
0.00381448
0.0038934
0.00406867
0.0043675
0.00482689
0.0054691
0.00597824
0.00630665
0.00667206
0.00721572
0.00852935
0.0162734
0.0420168
0.0992249
0.198855
0.343768
0.568086
0.00434348
0.0039612
0.00386367
0.00380997
0.00379077
0.00379194
0.00383012
0.00393388
0.00413917
0.00446455
0.00496342
0.00564571
0.00615267
0.00650829
0.00690092
0.00746794
0.00882092
0.0155118
0.0443853
0.0911284
0.210947
0.3832
0.73732
0.00433419
0.00395194
0.00386016
0.00380681
0.0037849
0.00379833
0.003859
0.00398965
0.00422462
0.00458009
0.00511782
0.00583401
0.00635991
0.00673908
0.00712733
0.00765717
0.00917506
0.0183853
0.0394797
0.111833
0.205706
0.465217
0.855168
0.0043243
0.00394201
0.00385242
0.00380144
0.00378384
0.00381275
0.00389727
0.00405329
0.00431089
0.00468735
0.00525932
0.00601528
0.00653996
0.00690885
0.0073227
0.00795991
0.00934896
0.0156252
0.0419168
0.109009
0.248513
0.56069
1.05978
0.00431647
0.00393042
0.00384847
0.00379585
0.00378989
0.00384247
0.00394996
0.00413076
0.00441121
0.00481528
0.00542685
0.00620552
0.00673794
0.00716877
0.00759873
0.00811472
0.00948299
0.017226
0.0431453
0.124764
0.328834
0.670292
1.06543
0.00430488
0.00391989
0.00384032
0.00379726
0.00380784
0.00387871
0.00401177
0.00421383
0.00450964
0.00493001
0.00556626
0.00637409
0.00691059
0.00732361
0.00774757
0.00835834
0.00959955
0.014943
0.0428736
0.115511
0.294775
0.560952
0.90866
0.00429848
0.0039096
0.00384098
0.00380737
0.00383807
0.00393086
0.00408604
0.00430679
0.00461827
0.00506247
0.0057377
0.00656745
0.00710511
0.00755136
0.00803341
0.00863761
0.00971526
0.0136392
0.0332323
0.0899206
0.250381
0.529744
0.939568
0.0042854
0.00390128
0.00383649
0.00382991
0.00387779
0.00399022
0.00416688
0.00440295
0.00472353
0.00517904
0.00586885
0.00671
0.00725808
0.00776178
0.00822893
0.00880235
0.0100551
0.0140079
0.0365324
0.104314
0.271566
0.479971
0.969172
0.00427886
0.00389167
0.00384922
0.0038624
0.00393233
0.00406276
0.00425649
0.00450444
0.00483469
0.00530977
0.0060354
0.00690073
0.00745476
0.00791129
0.00843118
0.0091596
0.0104806
0.0135763
0.0296093
0.101879
0.217414
0.502118
0.819738
0.00426616
0.00388399
0.00387106
0.00390495
0.0039934
0.00414115
0.00434941
0.00460627
0.00494
0.00542086
0.00615375
0.00701899
0.0075797
0.00816927
0.00878056
0.00946616
0.0112342
0.0140422
0.0272939
0.0779852
0.18967
0.422133
0.82542
0.00425993
0.00388536
0.0039088
0.00395895
0.00406935
0.00422839
0.00444737
0.00470957
0.00504834
0.00554479
0.0063086
0.00719544
0.00778685
0.00834706
0.00897689
0.0101378
0.0126044
0.0154705
0.026568
0.0874515
0.196209
0.376978
0.740787
0.00424776
0.00389467
0.00394853
0.00402053
0.00414696
0.00431893
0.00454503
0.00481006
0.00514779
0.00564527
0.00641111
0.00729578
0.00789361
0.00854194
0.00953611
0.0111671
0.0149165
0.018514
0.0276704
0.0735881
0.210868
0.339561
0.571045
0.00424022
0.00391541
0.00400486
0.00409299
0.00423725
0.00441447
0.0046452
0.00490941
0.00524843
0.00575759
0.00655089
0.00745584
0.00810919
0.00894964
0.0101733
0.0130556
0.0180408
0.0218811
0.0316298
0.0670777
0.166969
0.281696
0.537484
0.00423267
0.0039434
0.00406323
0.00417134
0.00432782
0.00451304
0.00474467
0.0050064
0.0053413
0.00584844
0.00663843
0.00754004
0.00823683
0.00920165
0.0114013
0.0160578
0.0220911
0.0262844
0.035174
0.0658314
0.121885
0.258189
0.442281
0.00422224
0.0039845
0.00413795
0.00426095
0.00442971
0.00461604
0.00484691
0.00510206
0.00543402
0.00594628
0.00675633
0.00767603
0.00849066
0.00986475
0.0132544
0.0199307
0.0264799
0.0307201
0.0381092
0.0615057
0.122967
0.122445
0.179919
0.00422068
0.00403398
0.00421372
0.00435196
0.00452713
0.0047155
0.00494231
0.00518963
0.00551469
0.00602161
0.00682423
0.00774005
0.00865065
0.0106035
0.0162269
0.024434
0.030948
0.0340151
0.0407439
0.061869
0.108359
0.122801
0.208949
0.00422649
0.00409498
0.00429631
0.00444631
0.00462626
0.00481175
0.00503317
0.00526983
0.005589
0.00609491
0.00690659
0.00784174
0.00900005
0.0119349
0.0198966
0.0286711
0.0342648
0.0366394
0.043502
0.0659075
0.111908
0.164027
0.253575
0.00424433
0.00416154
0.00437922
0.00453927
0.00471942
0.00490255
0.00511712
0.00534248
0.00565345
0.00615194
0.00695572
0.00789929
0.00927842
0.0133872
0.0240087
0.0322457
0.0368189
0.0391736
0.0477567
0.07686
0.133732
0.183005
0.295719
0.00427518
0.00423758
0.00446421
0.00463288
0.00481146
0.00498871
0.0051953
0.00540815
0.00571213
0.00620726
0.00701589
0.00799498
0.00984106
0.0160582
0.0283789
0.0357561
0.0386483
0.042469
0.0559645
0.0945063
0.148163
0.208473
0.379176
0.00431259
0.0043162
0.00454817
0.00472226
0.00489613
0.00506803
0.00526636
0.00546697
0.00576236
0.00625056
0.00705554
0.00807423
0.0104453
0.0186519
0.0324695
0.0388955
0.0415575
0.0527783
0.0900487
0.116173
0.165335
0.270207
0.491077
0.00435923
0.00440038
0.00463116
0.00481013
0.00497812
0.00514235
0.00533166
0.00552022
0.00580817
0.00629279
0.00710391
0.00820289
0.0114705
0.0222191
0.0366383
0.0422483
0.0462785
0.0687907
0.122587
0.165455
0.236888
0.379955
0.582145
0.00440989
0.00448123
0.0047076
0.00488716
0.00504724
0.00520433
0.005385
0.00556376
0.00584371
0.00632429
0.0071428
0.00835873
0.0124428
0.0253734
0.0401661
0.0451879
0.050197
0.0761731
0.136393
0.223037
0.323864
0.480942
0.658983
0.00446484
0.00455941
0.00477839
0.00495869
0.00511181
0.00526076
0.00543299
0.00560304
0.0058756
0.00635358
0.00718351
0.00854909
0.0135096
0.028649
0.043714
0.0481598
0.0539065
0.0803572
0.147486
0.255046
0.400168
0.565379
0.715158
0.00452233
0.00463812
0.00484852
0.00502638
0.00517112
0.00531262
0.00547643
0.00563972
0.00590443
0.00638095
0.00722567
0.00876194
0.0146253
0.0318836
0.0471197
0.0510648
0.0569422
0.0834834
0.146995
0.27023
0.448364
0.606928
0.736745
0.00458454
0.00471405
0.00491389
0.00508942
0.00522691
0.00535947
0.00551534
0.00567288
0.00593031
0.00640672
0.00726925
0.0089922
0.0157509
0.0348703
0.0502382
0.0537063
0.059231
0.085016
0.148885
0.269378
0.470994
0.626588
0.714941
0.00464587
0.00478818
0.00497774
0.00514771
0.00527739
0.00540203
0.00554999
0.00570366
0.00595362
0.00643122
0.0073129
0.0092265
0.0168254
0.0376371
0.0530231
0.0560587
0.061006
0.0853578
0.151564
0.268251
0.485605
0.62715
0.687764
0.00470873
0.00485745
0.00503529
0.00520082
0.00532372
0.0054394
0.00558057
0.00573143
0.00597452
0.00645431
0.00735596
0.00946077
0.0178604
0.0399599
0.0552371
0.0580517
0.061995
0.0846355
0.150593
0.266801
0.481254
0.639437
0.6584
0.00476984
0.00492259
0.00509118
0.00524891
0.00536578
0.00547309
0.00560779
0.00575678
0.00599333
0.00647669
0.00739831
0.00968639
0.0187686
0.0418928
0.056963
0.0595467
0.0634469
0.0817558
0.142778
0.26461
0.476413
0.569538
0.562728
0.00482842
0.00498316
0.00514027
0.00529211
0.00540343
0.00550224
0.00563136
0.00577988
0.00601025
0.00649795
0.00743717
0.00989695
0.0195514
0.0433476
0.0581187
0.0605532
0.0640199
0.0777092
0.128304
0.249381
0.439263
0.448649
0.455771
0.00488609
0.00503721
0.00518756
0.00533082
0.00543778
0.00552826
0.00565265
0.00580014
0.00602545
0.00651865
0.00747599
0.0100886
0.0201686
0.044296
0.0587891
0.0612858
0.0646169
0.0734169
0.11212
0.21783
0.385521
0.361609
0.371922
0.00493853
0.00508865
0.0052288
0.00536508
0.00546883
0.0055508
0.00567107
0.00581916
0.00603927
0.00653868
0.00750761
0.0102524
0.020593
0.0448495
0.0590695
0.0619482
0.0640568
0.0688029
0.0963343
0.184046
0.314548
0.28524
0.243988
0.0049906
0.00513209
0.00526839
0.00539604
0.0054965
0.00557112
0.00568747
0.00583482
0.00605157
0.0065583
0.00754162
0.0103827
0.0208607
0.0449638
0.0591447
0.0615742
0.0630349
0.0640448
0.0824603
0.148199
0.243091
0.211613
0.169282
0.00503716
0.00517508
0.00530298
0.00542354
0.00552297
0.00558879
0.00570272
0.00585021
0.00606304
0.00657755
0.00756695
0.0104774
0.0209649
0.0449789
0.0587034
0.0600969
0.0612903
0.0592108
0.0707673
0.118011
0.179618
0.151754
0.11604
0.00508353
0.00521046
0.0053368
0.00544842
0.00554591
0.00560533
0.00571534
0.00586213
0.00607308
0.00659666
0.00759247
0.0105433
0.0209944
0.0445241
0.0572079
0.0576997
0.0588245
0.0543081
0.0609047
0.0923769
0.129036
0.106955
0.0796725
0.00512486
0.00524585
0.00536635
0.00547133
0.00556875
0.00562003
0.00572853
0.00587411
0.00608276
0.0066157
0.00761611
0.010593
0.0208368
0.0431772
0.0548501
0.0544081
0.0555868
0.0497788
0.0530421
0.0712793
0.094474
0.0787928
0.0558243
0.00516661
0.00527707
0.00539627
0.00549273
0.005589
0.00563426
0.00573893
0.00588356
0.0060912
0.00663481
0.00763193
0.0105813
0.02037
0.0411868
0.0516362
0.0505558
0.0517823
0.0451119
0.0463774
0.0573742
0.069048
0.0579432
0.047878
0.00520421
0.00530568
0.00542245
0.00551182
0.00560903
0.00564746
0.00575061
0.00589207
0.00609943
0.0066538
0.00764686
0.0105143
0.0196756
0.0386472
0.0478317
0.0461446
0.0473487
0.0404874
0.0409832
0.0470324
0.053501
0.0465454
0.0436508
0.00524098
0.00533539
0.00544935
0.00553212
0.00562776
0.00566055
0.00575973
0.00590043
0.00610661
0.0066719
0.0076637
0.0103948
0.018801
0.0357243
0.0435694
0.0416381
0.0428159
0.0364685
0.0365752
0.0400024
0.0461215
0.042352
0.0396959
0.00527774
0.00536034
0.00547478
0.00554917
0.00564479
0.00567351
0.00577048
0.00590552
0.00611373
0.00668817
0.00768011
0.010234
0.0177856
0.0325684
0.0390867
0.03709
0.0380438
0.0323909
0.032666
0.0350644
0.0410755
0.0393196
0.0381208
0.00530865
0.00538751
0.00549685
0.00556775
0.00566394
0.00568545
0.00577945
0.00591334
0.0061197
0.00670225
0.00767386
0.0100397
0.0167039
0.0293975
0.0347223
0.0328126
0.033601
0.0290862
0.0296194
0.0324287
0.0389121
0.038441
0.0369401
0.00534451
0.0054128
0.00552472
0.00558528
0.00567814
0.00569947
0.00578814
0.00591676
0.00612546
0.00671264
0.00766381
0.00982301
0.0155962
0.0263023
0.0304785
0.0288543
0.0292714
0.0258889
0.0271041
0.0308066
0.0388179
0.0373223
0.0367347
0.00537365
0.00543774
0.00554285
0.00560208
0.0056956
0.00571075
0.00579902
0.00592275
0.00613073
0.0067206
0.00764943
0.00959032
0.0145027
0.0234732
0.0267651
0.0254585
0.025762
0.023343
0.0250547
0.0293111
0.0368268
0.0366938
0.0360858
0.00540555
0.00546183
0.00556885
0.00562127
0.00571361
0.00572506
0.00580608
0.00592294
0.00613493
0.00672704
0.00762943
0.00936068
0.0134953
0.0209095
0.0233803
0.0223125
0.0225141
0.0213396
0.0234604
0.0288561
0.0344964
0.0387037
0.0367798
0.00543298
0.00548997
0.00559232
0.00563533
0.00572717
0.0057383
0.00581563
0.0059238
0.00613777
0.00673254
0.00760355
0.00913061
0.0125534
0.0187379
0.0207259
0.020093
0.0201713
0.0197135
0.0224206
0.0286244
0.0344917
0.0379024
0.0384438
0.00546725
0.00551098
0.00561157
0.00565907
0.00573693
0.00575119
0.0058268
0.00592666
0.00614015
0.0067313
0.00757244
0.00891144
0.0117059
0.0168975
0.0183698
0.0179388
0.0185633
0.0196558
0.0222224
0.02866
0.0346235
0.0380074
0.041613
0.00548825
0.00554092
0.00563532
0.00567416
0.00574752
0.00576928
0.00583385
0.00592749
0.00614108
0.00672734
0.00753538
0.00872204
0.0110566
0.0153929
0.0166552
0.0171074
0.0177201
0.0194207
0.0219722
0.0305115
0.0384778
0.0442494
0.0512478
0.00550204
0.00556293
0.00565139
0.00568432
0.00574673
0.0057751
0.00584062
0.00593046
0.0061415
0.00672116
0.0074982
0.00851561
0.0104049
0.0142561
0.0154098
0.0167318
0.0173606
0.0191744
0.022053
0.0306992
0.0445579
0.0511225
0.0678101
0.00549942
0.00557926
0.00564929
0.00568287
0.00575305
0.00577804
0.00584624
0.0059287
0.00614177
0.00671304
0.00745124
0.00837454
0.00991906
0.0132995
0.0147289
0.0162443
0.0168982
0.0190441
0.0220811
0.0324198
0.057966
0.0744432
0.0940708
0.00550863
0.0055876
0.0056494
0.00568372
0.00574948
0.00578255
0.00584369
0.00592789
0.00614182
0.00670319
0.00741676
0.00821544
0.00961837
0.0125991
0.0145378
0.015627
0.0169817
0.0189437
0.022545
0.0348113
0.0688149
0.104615
0.151957
0.00550232
0.00559335
0.00565131
0.00568678
0.0057495
0.00578541
0.00584286
0.00592738
0.00614192
0.00669296
0.00737127
0.00807609
0.009465
0.0121672
0.0141838
0.0157922
0.0169913
0.0186296
0.0230652
0.0365593
0.0783204
0.13327
0.199573
0.00550207
0.00558774
0.00565094
0.00569623
0.00574919
0.0057869
0.00584315
0.00592684
0.00614182
0.00668046
0.00733095
0.00798011
0.00927539
0.0118506
0.0142633
0.0156162
0.0166252
0.018884
0.0237855
0.043447
0.0840158
0.13516
0.214937
0.00550993
0.00559385
0.00565205
0.00569313
0.00574906
0.00578806
0.00584603
0.0059274
0.00614169
0.00667148
0.00730446
0.00798678
0.00920102
0.0118609
0.0140278
0.0156118
0.0168809
0.0189451
0.0253233
0.0451796
0.0961617
0.152367
0.254023
0.00550219
0.00558667
0.00565759
0.00569354
0.0057537
0.00579251
0.00584191
0.00592681
0.00614121
0.00665721
0.00731066
0.00798078
0.00914754
0.0117433
0.0141884
0.0156609
0.0167181
0.0190349
0.0339812
0.0686876
0.133203
0.196986
0.31579
0.00550353
0.00558677
0.00565111
0.00569472
0.00574859
0.00578826
0.00584596
0.00592618
0.00614097
0.00665852
0.00730942
0.0079555
0.00907635
0.0117966
0.0141299
0.015672
0.0168813
0.0198254
0.0523255
0.0964202
0.167674
0.267046
0.378552
0.00550162
0.00558424
0.0056503
0.00569354
0.00574837
0.00578607
0.0058495
0.00592586
0.00614065
0.00665754
0.00729895
0.00794018
0.00911167
0.0117931
0.0141145
0.0160547
0.0168798
0.0234137
0.0771697
0.139411
0.222442
0.346773
0.417796
0.00550293
0.00559301
0.00564929
0.00569403
0.00575038
0.00578508
0.00584464
0.00592672
0.00614021
0.00665661
0.00728017
0.00792251
0.00911022
0.0117947
0.0138419
0.0161436
0.0171165
0.0324946
0.103275
0.189509
0.273277
0.379935
0.470294
0.005501
0.00558754
0.00564936
0.00569642
0.00574369
0.00578845
0.00584518
0.00592271
0.00613948
0.00665613
0.00728901
0.00788279
0.00904072
0.0117924
0.0135065
0.0161952
0.0173944
0.0423869
0.132081
0.226421
0.303299
0.389304
0.496645
0.00549982
0.00558535
0.00564668
0.00569688
0.00574314
0.00578214
0.00584069
0.00592258
0.006138
0.00664982
0.00728518
0.00784972
0.00907358
0.0117517
0.0135736
0.0160944
0.0183226
0.0516842
0.151546
0.263201
0.330811
0.413108
0.511077
0.00549784
0.00558408
0.00564728
0.00569772
0.00574681
0.00578249
0.00583691
0.0059244
0.0061367
0.00665116
0.00726899
0.00788221
0.00904922
0.0117773
0.0134923
0.0160631
0.0188391
0.0660282
0.160108
0.270423
0.349488
0.420132
0.506024
0.0054962
0.00558803
0.00564504
0.00568869
0.00574707
0.00578073
0.00583591
0.00592146
0.00613576
0.00664582
0.00728394
0.00789875
0.00904285
0.011765
0.0134519
0.0160063
0.0201881
0.078741
0.164546
0.275135
0.350571
0.423315
0.512939
0.0054906
0.00558576
0.00564467
0.00568721
0.00574522
0.0057803
0.00583337
0.00592369
0.00613791
0.00664908
0.00726957
0.00788598
0.00900049
0.0117572
0.0134757
0.0159818
0.0209394
0.0775702
0.174874
0.281716
0.358453
0.425109
0.500791
0.00548888
0.00558108
0.00564792
0.00568674
0.00574244
0.00578284
0.0058311
0.00592215
0.00612996
0.00662694
0.00722997
0.00782314
0.00888125
0.0115052
0.0133796
0.0158359
0.021743
0.0747169
0.175751
0.28267
0.345226
0.425911
0.496347
0.00549098
0.0055765
0.00564928
0.00568638
0.00573588
0.00578168
0.00583314
0.00591861
0.006122
0.00660612
0.00719309
0.0077639
0.00878212
0.0113447
0.0134013
0.015733
0.0215761
0.0740832
0.160795
0.279436
0.342759
0.42928
0.491041
0.00547448
0.00556923
0.00564286
0.00567262
0.00573011
0.00577724
0.00582927
0.0059153
0.00611208
0.00658574
0.00716528
0.00770847
0.00868477
0.0110952
0.0136308
0.0161203
0.0219401
0.063883
0.159652
0.262568
0.341601
0.410997
0.487621
0.00547
0.00555978
0.00563715
0.00566858
0.00571271
0.00577045
0.0058221
0.00590686
0.006101
0.0065654
0.00713495
0.00765938
0.00860203
0.010981
0.0140652
0.0163411
0.0221196
0.0627734
0.143081
0.258767
0.324643
0.406958
0.494936
0.00547306
0.00555061
0.00562107
0.00567145
0.00570733
0.00575497
0.00581114
0.00589948
0.00608753
0.00654242
0.00711068
0.00761511
0.00853068
0.0107048
0.0146131
0.0171359
0.0238137
0.0671779
0.141552
0.25808
0.321185
0.413859
0.481389
0.00547066
0.00553761
0.00559504
0.00566335
0.00571077
0.00573163
0.00579246
0.00588348
0.00607192
0.00651962
0.00708338
0.00757528
0.00847527
0.0106823
0.0151577
0.0183504
0.0256892
0.06269
0.147556
0.24657
0.325035
0.40001
0.455016
0.00545408
0.00551367
0.00558612
0.00564803
0.00570401
0.00572271
0.00576632
0.00586577
0.00605253
0.00649189
0.00705595
0.00753691
0.00842197
0.0106392
0.0159697
0.0191611
0.0271325
0.0601502
0.139362
0.229697
0.313396
0.381558
0.427112
0.0054364
0.00550162
0.00558765
0.00562058
0.00569138
0.00572033
0.00575696
0.00584775
0.00603171
0.00646375
0.00702568
0.00749705
0.0083824
0.0107338
0.017025
0.0198663
0.0306783
0.0520856
0.13188
0.213671
0.292926
0.353703
0.392599
0.00541769
0.00548743
0.00557416
0.00558164
0.00567449
0.00570461
0.00575781
0.00582448
0.00600582
0.00643258
0.0069935
0.0074562
0.00833018
0.0106158
0.0166026
0.0202917
0.0327328
0.0518671
0.105728
0.204246
0.282326
0.333699
0.362993
0.00539811
0.00545546
0.00554874
0.00556703
0.00565005
0.00567875
0.00574371
0.00580425
0.0059795
0.00639638
0.00694854
0.00740938
0.00826865
0.0108033
0.0163757
0.0244599
0.0388755
0.058357
0.110501
0.17354
0.261267
0.311903
0.334151
0.00537262
0.00542705
0.00552002
0.00556648
0.00562224
0.00564947
0.00571631
0.00578221
0.00594667
0.00635447
0.00690161
0.00736106
0.00820805
0.0108347
0.0163268
0.0241513
0.0421627
0.0661667
0.122818
0.166731
0.246261
0.288732
0.303285
0.0053436
0.00541566
0.00549104
0.00554719
0.00559071
0.00562196
0.00568438
0.00575435
0.00591155
0.00630446
0.00683949
0.00730137
0.00818084
0.0107782
0.0174618
0.031952
0.0504094
0.0769561
0.142753
0.162583
0.233295
0.271123
0.275008
0.00530387
0.00537319
0.00545366
0.00551411
0.0055557
0.00558837
0.00564446
0.00571607
0.00586716
0.00624409
0.00677087
0.00724637
0.00799287
0.0108285
0.0163448
0.0391551
0.0558566
0.0851223
0.139968
0.172208
0.215392
0.247162
0.247763
0.0052608
0.00532175
0.00541335
0.00547519
0.0055191
0.00555302
0.00560465
0.00567626
0.00582124
0.00617914
0.00669053
0.0071711
0.00793008
0.0102801
0.0183436
0.0471006
0.0651229
0.0983572
0.141787
0.1645
0.194572
0.229289
0.226566
0.0052078
0.0052631
0.00536311
0.00542363
0.005471
0.00550589
0.00555571
0.00562552
0.00576367
0.00610551
0.00661142
0.00710204
0.00797499
0.0103463
0.0245541
0.061033
0.0739062
0.11709
0.150547
0.164333
0.193661
0.217955
0.22843
0.00515272
0.00520346
0.00531165
0.00536934
0.00542003
0.00545586
0.00550601
0.00557359
0.00570453
0.00602751
0.00652643
0.00700686
0.00794731
0.0102588
0.0253023
0.0684824
0.0846289
0.129417
0.160603
0.171282
0.202677
0.222995
0.226194
0.00508473
0.00515108
0.00524724
0.00530155
0.00535182
0.00538994
0.00544096
0.00550563
0.00562902
0.00593518
0.00643096
0.00691815
0.00790055
0.0102252
0.0343631
0.0977275
0.099606
0.141466
0.169356
0.185875
0.205794
0.206413
0.183556
0.00501247
0.00509851
0.00518085
0.0052329
0.0052773
0.00532095
0.00537351
0.00543589
0.00555216
0.00583805
0.00632697
0.00680359
0.00782191
0.0102656
0.0431855
0.0964332
0.112952
0.155563
0.177019
0.196598
0.181469
0.181466
0.182482
0.00492056
0.00502431
0.00509582
0.0051462
0.00517991
0.00522973
0.00528354
0.00534351
0.00545268
0.005719
0.00619952
0.00667835
0.00773988
0.0104512
0.0565867
0.112007
0.130661
0.162722
0.177254
0.167862
0.175016
0.194029
0.171748
0.00482713
0.00494566
0.00500896
0.00505927
0.00508215
0.00513667
0.00519251
0.00525111
0.00535414
0.00559936
0.00606682
0.00654285
0.00761887
0.0113677
0.0676076
0.124982
0.133331
0.170921
0.156832
0.166871
0.192488
0.177494
0.12595
0.00471414
0.00483969
0.00489697
0.00494694
0.00496073
0.00501563
0.00507176
0.00512826
0.00522468
0.00544812
0.00589782
0.00637823
0.00756268
0.0131947
0.0922335
0.121433
0.13716
0.164023
0.155192
0.183323
0.173168
0.1319
0.0872305
0.0046058
0.00473386
0.0047862
0.00483753
0.00484715
0.0048996
0.00495553
0.00501114
0.00510169
0.00530404
0.00573228
0.00621868
0.00739666
0.0181136
0.0953167
0.12406
0.141878
0.144111
0.168807
0.172568
0.133222
0.0956673
0.0608518
0.00447164
0.00459445
0.00464257
0.00469383
0.00470187
0.004748
0.00480034
0.00485324
0.00493599
0.00511638
0.00551184
0.00603037
0.0071425
0.0249191
0.112011
0.13103
0.141329
0.150628
0.163693
0.129381
0.0965729
0.0717971
0.0377021
0.00434686
0.00446397
0.00450803
0.00456061
0.0045714
0.00461149
0.00466039
0.00471186
0.00478777
0.00494926
0.00531745
0.00583995
0.00714829
0.0347934
0.113828
0.126368
0.132593
0.159907
0.12849
0.0948589
0.0760885
0.0525748
0.0186741
0.00418411
0.00429027
0.00432969
0.00438009
0.00439276
0.00442468
0.00446665
0.00451336
0.00458013
0.00472068
0.00505062
0.0056131
0.00744255
0.0464783
0.117645
0.110117
0.135636
0.140673
0.0953655
0.0745124
0.0626766
0.028563
0.0105407
0.004042
0.0041411
0.00417586
0.00422569
0.00424283
0.00426927
0.00430711
0.004351
0.00441118
0.00453653
0.00483419
0.00543089
0.00853161
0.0584611
0.10849
0.109988
0.139593
0.108514
0.0752376
0.061851
0.042859
0.0133243
0.00708451
0.00384556
0.00393102
0.00395891