/*--------------------------------*- C++ -*----------------------------------*\
  =========                 |
  \\      /  F ield         | OpenFOAM: The Open Source CFD Toolbox
   \\    /   O peration     | Website:  https://openfoam.org
    \\  /    A nd           | Version:  7
     \\/     M anipulation  |
\*---------------------------------------------------------------------------*/
FoamFile
{
    version     2.0;
    format      ascii;
    class       volScalarField;
    location    "83";
    object      nut;
}
// * * * * * * * * * * * * * * * * * * * * * * * * * * * * * * * * * * * * * //

dimensions      [0 2 -1 0 0 0 0];

internalField   nonuniform List<scalar> 
12842
(
0.00181009
0.00179837
0.00178514
0.00177088
0.0017772
0.00176681
0.00177289
0.00175877
0.00176249
0.0017566
0.00176627
0.00177362
0.0017882
0.00107914
0.000547412
0.000319105
0.000211111
0.000153129
0.000117204
9.37499e-05
7.7514e-05
6.59496e-05
5.83764e-05
0.0018077
0.00178747
0.00178827
0.00176469
0.00177528
0.00176658
0.00177353
0.00176045
0.00176341
0.00175766
0.00176638
0.00177422
0.00178969
0.00105876
0.000540491
0.000316225
0.000210035
0.000152479
0.000116781
9.33574e-05
7.75853e-05
6.61023e-05
5.84128e-05
0.00181218
0.00178878
0.00178575
0.00176582
0.00176785
0.00176311
0.00177284
0.00176204
0.00176449
0.00176029
0.00176779
0.001777
0.0017958
0.00102788
0.000529535
0.000311628
0.00020805
0.000151098
0.000115738
9.28106e-05
7.6856e-05
6.62554e-05
5.82704e-05
0.0018052
0.00178592
0.00178041
0.00176371
0.00177232
0.00176539
0.00177272
0.00176227
0.00176455
0.0017615
0.0017683
0.00177886
0.00179948
0.00099243
0.000517141
0.000307003
0.000205879
0.000149519
0.000114548
9.18752e-05
7.62144e-05
6.59787e-05
5.78455e-05
0.00180816
0.00178923
0.00178115
0.00175991
0.00176233
0.00176073
0.00177028
0.00176173
0.00176463
0.00176395
0.00176985
0.00178255
0.00180692
0.000962571
0.000506585
0.00030282
0.000203953
0.000148056
0.000113631
9.10841e-05
7.56085e-05
6.57922e-05
5.75063e-05
0.00180049
0.00178567
0.0017794
0.00176173
0.00176596
0.00176015
0.0017703
0.00176191
0.00176385
0.00176494
0.00177079
0.00178484
0.00181304
0.00093899
0.000498803
0.000300401
0.000202988
0.0001469
0.000112588
9.04981e-05
7.51913e-05
6.54497e-05
5.72567e-05
0.00180298
0.00178651
0.00177833
0.00175933
0.00176011
0.00175794
0.00176648
0.00176008
0.00176327
0.00176645
0.00177279
0.00178887
0.00182068
0.000939184
0.000503349
0.000303921
0.00020516
0.000147902
0.00011316
9.06029e-05
7.50481e-05
6.55789e-05
5.6986e-05
0.00179621
0.00178384
0.00177777
0.00176136
0.00176178
0.00175651
0.00176658
0.00175996
0.00176273
0.00176709
0.00177415
0.00179029
0.00182809
0.000916544
0.000495684
0.000302081
0.000204592
0.00014667
0.000111715
8.9254e-05
7.36953e-05
6.48009e-05
5.62179e-05
0.00179843
0.00178352
0.00177489
0.00176072
0.00175906
0.00175508
0.00176311
0.00175788
0.00176224
0.00176733
0.0017764
0.00179471
0.00183505
0.000902999
0.000495305
0.000303807
0.000206038
0.000147588
0.000112294
8.92883e-05
7.31438e-05
6.43852e-05
5.57116e-05
0.00179179
0.00178124
0.00177497
0.00176193
0.00175936
0.00175435
0.00176283
0.00175695
0.00176211
0.00176742
0.00177753
0.00179726
0.0018412
0.000920473
0.000507483
0.000313096
0.00021233
0.000151908
0.000115016
9.10726e-05
7.41297e-05
6.51222e-05
5.61154e-05
0.00179364
0.00178006
0.00177062
0.00176197
0.0017575
0.00175385
0.00176082
0.00175545
0.0017617
0.00176733
0.00177853
0.00180002
0.00184613
0.000911228
0.000507549
0.000314328
0.00021412
0.000152471
0.000115239
9.07882e-05
7.3647e-05
6.48783e-05
5.55856e-05
0.00178811
0.00177791
0.00177169
0.00176284
0.00175713
0.00175355
0.00175987
0.00175472
0.00176188
0.00176731
0.00177949
0.00180229
0.00181558
0.000901799
0.000506518
0.000316341
0.00021616
0.000153727
0.000115305
9.07993e-05
7.35866e-05
6.45427e-05
5.51574e-05
0.0017894
0.00177617
0.00176655
0.00176318
0.00175569
0.00175384
0.0017586
0.00175357
0.00176134
0.00176735
0.00178102
0.00180472
0.00178265
0.000894181
0.000508596
0.000320438
0.000219188
0.00015544
0.000116523
9.08683e-05
7.32301e-05
6.40403e-05
5.45478e-05
0.00178511
0.00177379
0.00176831
0.00176368
0.00175502
0.00175414
0.00175709
0.00175342
0.00176158
0.0017671
0.00178238
0.00180788
0.00174919
0.000883677
0.000508631
0.000323891
0.000223513
0.000158249
0.000117144
9.10695e-05
7.28554e-05
6.37212e-05
5.37679e-05
0.00178589
0.00177197
0.0017635
0.00176384
0.00175422
0.00175503
0.00175611
0.00175274
0.00176098
0.00176719
0.00178452
0.00181016
0.00171183
0.0008745
0.000511139
0.000330062
0.000228639
0.000161286
0.000118953
9.13962e-05
7.26936e-05
6.32415e-05
5.34609e-05
0.00178277
0.0017694
0.00176522
0.0017638
0.00175389
0.00175562
0.00175476
0.00175322
0.001761
0.00176721
0.00178642
0.00181539
0.0016764
0.000863116
0.000511462
0.000335611
0.000235355
0.000165761
0.000121295
9.27955e-05
7.35738e-05
6.29215e-05
5.32621e-05
0.00178333
0.00176818
0.00176161
0.00176325
0.00175369
0.00175678
0.00175414
0.00175318
0.00176047
0.00176736
0.0017889
0.00181883
0.00164482
0.000854412
0.000515832
0.000345955
0.000245039
0.000172373
0.000124687
9.40917e-05
7.4319e-05
6.27384e-05
5.38574e-05
0.00178115
0.00176578
0.0017626
0.00176264
0.00175406
0.00175704
0.00175336
0.00175394
0.00176027
0.0017677
0.00178962
0.00182343
0.0016119
0.000845381
0.000519429
0.00035651
0.000257244
0.000182206
0.000130442
9.70609e-05
7.61993e-05
6.31325e-05
5.44546e-05
0.00178124
0.00176566
0.00176057
0.00176123
0.0017542
0.00175788
0.00175358
0.00175427
0.00176016
0.00176958
0.00179167
0.00183063
0.00158406
0.000834555
0.000522882
0.000372525
0.000276639
0.000197076
0.000138194
0.000100006
7.77584e-05
6.42087e-05
5.59085e-05
0.00177959
0.00176373
0.00176026
0.00176045
0.00175497
0.00175775
0.00175323
0.00175497
0.00176021
0.00177053
0.00179428
0.00183718
0.0015548
0.000826758
0.000528906
0.000390121
0.000303441
0.000221853
0.000150644
0.000105815
8.12386e-05
6.61347e-05
5.76398e-05
0.00177919
0.00176453
0.00175981
0.00175867
0.00175504
0.00175803
0.00175403
0.00175526
0.00176059
0.00177172
0.00179598
0.00184418
0.00152246
0.000812034
0.000529938
0.000413539
0.000346241
0.000257967
0.000167126
0.000112452
8.48884e-05
7.05592e-05
6.11128e-05
0.00177778
0.00176323
0.00175832
0.0017581
0.00175568
0.00175768
0.00175403
0.0017559
0.00176138
0.00177412
0.00179959
0.00184578
0.00150706
0.00080859
0.000541689
0.000446175
0.000412706
0.000327067
0.0001944
0.00012353
9.33453e-05
7.5438e-05
6.33156e-05
0.00177727
0.00176409
0.00175872
0.00175667
0.00175545
0.00175763
0.00175464
0.00175612
0.001762
0.00177445
0.00180145
0.00185097
0.00143091
0.00077498
0.000528946
0.000466477
0.000520838
0.000445216
0.0002294
0.000136244
9.889e-05
8.11075e-05
6.92198e-05
0.00177608
0.00176387
0.00175743
0.00175627
0.00175583
0.00175747
0.00175501
0.00175685
0.00176318
0.00177627
0.0018067
0.00185428
0.00135814
0.000738623
0.000519331
0.000486183
0.000678109
0.000798734
0.000283761
0.00015119
0.000113002
9.77386e-05
8.99874e-05
0.00177589
0.00176404
0.00175727
0.00175594
0.00175551
0.00175725
0.00175522
0.00175751
0.00176391
0.00177715
0.001808
0.00186557
0.00136057
0.000736225
0.000516812
0.000494015
0.000805642
0.00125675
0.000309174
0.000166797
0.00013796
0.000136973
0.000119752
0.00177483
0.00176413
0.00175692
0.001756
0.00175569
0.00175729
0.00175519
0.00175817
0.00176445
0.00177799
0.00180902
0.00187139
0.00131999
0.000711428
0.000507199
0.00048744
0.000730282
0.000931083
0.000321974
0.000209551
0.00018852
0.000174746
0.000163603
0.00177509
0.00176352
0.00175661
0.00175611
0.0017551
0.00175692
0.00175517
0.00175879
0.00176459
0.00177935
0.00181742
0.00189359
0.00128225
0.000694413
0.000487951
0.000455843
0.000563859
0.000521369
0.000298528
0.000228141
0.000221303
0.00024262
0.000359181
0.00177375
0.00176399
0.00175697
0.00175622
0.00175519
0.00175686
0.00175507
0.00175906
0.00176466
0.00178056
0.00183029
0.0019154
0.0012436
0.000671321
0.000476794
0.000433209
0.000467576
0.000417563
0.000330635
0.000316236
0.00047062
0.00155656
0.0023475
0.00177448
0.00176253
0.00175658
0.00175633
0.00175461
0.00175622
0.00175502
0.00175932
0.00176481
0.0017872
0.00185399
0.00194755
0.00119793
0.000656599
0.000454022
0.000398133
0.000384331
0.000350652
0.000347124
0.000541927
0.00164512
0.00300449
0.00324316
0.00177268
0.00176358
0.00175758
0.00175642
0.00175464
0.00175609
0.00175478
0.00175935
0.00176557
0.00179862
0.00187737
0.00198437
0.00115985
0.000634943
0.000444492
0.000374589
0.000351981
0.000376229
0.000596233
0.00128829
0.00156694
0.00190175
0.00177988
0.00177375
0.00176121
0.00175722
0.00175638
0.001754
0.00175519
0.00175437
0.00175922
0.00176904
0.00181933
0.00191055
0.00203301
0.00113423
0.000624363
0.000420014
0.000345881
0.000337692
0.000416417
0.00079294
0.00114873
0.00120753
0.00136632
0.00182597
0.00177161
0.0017628
0.00175865
0.00175638
0.00175419
0.00175478
0.00175387
0.00175891
0.0017774
0.00184199
0.00194627
0.00208037
0.00111233
0.000606911
0.000414893
0.000341079
0.00034709
0.00049325
0.000849418
0.00104618
0.00126777
0.00151627
0.00179875
0.00177245
0.00175997
0.00175853
0.00175621
0.00175349
0.00175338
0.00175331
0.0017611
0.00179171
0.0018732
0.00199376
0.00214119
0.00110078
0.000602422
0.000397449
0.000330107
0.000353952
0.000534261
0.00112013
0.00110152
0.00147323
0.00150723
0.00170502
0.00177054
0.00176121
0.0017602
0.00175618
0.00175335
0.00175279
0.00175231
0.00176631
0.00181093
0.0019064
0.00203915
0.00219766
0.00109965
0.000595765
0.000402706
0.000335978
0.000339022
0.00054163
0.00105289
0.00119215
0.00136057
0.00160233
0.00198413
0.00177062
0.00175886
0.00176026
0.00175555
0.00175225
0.00175153
0.00175338
0.00177633
0.00183512
0.00194389
0.00208227
0.0022368
0.00110505
0.000599462
0.000393172
0.000319465
0.000319224
0.000649295
0.000919145
0.0011721
0.00142866
0.00166671
0.00200347
0.00176913
0.00175894
0.0017619
0.00175548
0.00175157
0.00175158
0.00175723
0.00179249
0.00186453
0.00198109
0.00212022
0.00227561
0.001117
0.000602993
0.000402114
0.000310929
0.000297004
0.000652937
0.000925187
0.00116359
0.00146374
0.00187133
0.00221551
0.00176866
0.00175741
0.00176167
0.00175425
0.0017511
0.00175133
0.00176614
0.00181164
0.00189565
0.00201516
0.00215421
0.00230171
0.00114254
0.000615985
0.000390279
0.000289264
0.000286466
0.000686922
0.000959322
0.0011336
0.00156115
0.00188133
0.00282367
0.00176747
0.00175592
0.00176301
0.00175424
0.0017498
0.00175577
0.00178104
0.00183631
0.00192784
0.00204649
0.00218111
0.00231852
0.00116895
0.000625397
0.000396511
0.000277791
0.000282836
0.000793036
0.000889613
0.00138343
0.00152032
0.00232393
0.00325867
0.0017666
0.00175495
0.00176216
0.00175375
0.0017513
0.0017645
0.00180009
0.00186139
0.00195684
0.00207275
0.00220441
0.00233535
0.0012058
0.000643436
0.000385808
0.000270324
0.000288568
0.000668798
0.000963456
0.00149983
0.00171777
0.00271397
0.00400956
0.00176591
0.00175212
0.00176327
0.0017534
0.0017559
0.00178004
0.00182341
0.00188681
0.00198241
0.00209405
0.00221732
0.00232999
0.00125487
0.000658206
0.000392741
0.000268426
0.000301383
0.0008794
0.000984884
0.00147619
0.0022923
0.00320863
0.00391484
0.00176426
0.00175119
0.00176259
0.00175568
0.00176657
0.00179717
0.00184826
0.00191038
0.00200407
0.00210995
0.00222991
0.0023385
0.00129064
0.000680803
0.0003928
0.000276311
0.000326499
0.000741554
0.00114922
0.00143997
0.00220178
0.00254062
0.00314517
0.00176418
0.00174859
0.00176587
0.00176335
0.00178252
0.00181973
0.00187261
0.0019313
0.00201965
0.00211935
0.00222879
0.00231769
0.00136911
0.000704034
0.0004066
0.000288988
0.000368255
0.000674994
0.000790073
0.00108767
0.001703
0.00247162
0.00331654
0.00176198
0.00174925
0.00176752
0.00177502
0.00180109
0.00184223
0.00189541
0.00194888
0.00203094
0.00212422
0.00223174
0.00231668
0.00140101
0.000734889
0.000424418
0.000306622
0.000425787
0.000802467
0.000919741
0.00133848
0.00200042
0.00234749
0.00342634
0.0017621
0.00174712
0.00177597
0.00179265
0.00182409
0.0018652
0.00191529
0.00196198
0.0020363
0.00212342
0.00222047
0.00229043
0.00150528
0.000776926
0.000442001
0.000330776
0.000500607
0.000724528
0.00075881
0.0013092
0.00158734
0.00237166
0.00298336
0.00176047
0.00174816
0.00178985
0.00181266
0.00184565
0.00188675
0.00193135
0.00197149
0.00203733
0.00211847
0.00221581
0.00228021
0.00154931
0.000811914
0.000483128
0.000353305
0.000593092
0.000792653
0.000719836
0.00102271
0.00147816
0.00201528
0.00289415
0.00176136
0.00175127
0.00180878
0.00183523
0.00186882
0.00190558
0.00194346
0.00197619
0.00203451
0.00211073
0.00219863
0.00225261
0.00167145
0.000891244
0.000507281
0.00039387
0.000716497
0.000900876
0.000773061
0.00121935
0.00139398
0.001608
0.00263588
0.00176073
0.0017599
0.00182935
0.00185766
0.00188748
0.00192193
0.0019513
0.00197801
0.00202804
0.00209925
0.00219018
0.00223946
0.00173384
0.000928632
0.000567627
0.00045118
0.000906164
0.000938002
0.000737632
0.000952211
0.00138652
0.00161814
0.00230442
0.00176181
0.00177151
0.0018547
0.00187854
0.00190636
0.00193395
0.00195569
0.00197589
0.00201986
0.00208768
0.00217062
0.0022107
0.00189035
0.00104695
0.000633874
0.000584979
0.00122954
0.000911181
0.000714179
0.000773293
0.00105116
0.00136179
0.00189083
0.00176441
0.00178796
0.00187942
0.00189923
0.00191992
0.00194363
0.00195674
0.00197195
0.00200923
0.00207311
0.00215992
0.00219624
0.00196835
0.00112295
0.000773298
0.000814207
0.00121254
0.000842709
0.000660333
0.000717534
0.000781846
0.00134669
0.00171876
0.00176471
0.00180753
0.00190404
0.00191588
0.00193198
0.00194855
0.00195462
0.00196458
0.00199712
0.00205844
0.00214045
0.0021682
0.0020359
0.00129406
0.000995958
0.00131419
0.00111836
0.000773006
0.000599469
0.000661979
0.000889169
0.00091987
0.00122971
0.00177028
0.00183072
0.00192489
0.00193069
0.00193852
0.0019501
0.00194988
0.00195589
0.00198393
0.00204233
0.00212622
0.0021536
0.00202404
0.00142682
0.00137743
0.001412
0.00101446
0.00068171
0.000553941
0.000624245
0.000840328
0.000930101
0.00141308
0.00177747
0.00185697
0.00193991
0.00193972
0.00194211
0.00194773
0.00194312
0.00194563
0.00197095
0.00202759
0.00210963
0.00212942
0.00200799
0.00178907
0.00175642
0.00131788
0.000882766
0.000606506
0.000524728
0.000644396
0.00088586
0.00121402
0.0017027
0.0017887
0.00188336
0.00195295
0.0019472
0.00194235
0.00194334
0.00193572
0.00193529
0.00195806
0.00201276
0.002096
0.00211664
0.00200527
0.00191539
0.00175854
0.00114459
0.000777399
0.000566319
0.000527753
0.000716959
0.00106288
0.00133861
0.00193429
0.00180419
0.00190681
0.00195947
0.00195019
0.00194047
0.00193671
0.00192738
0.00192464
0.00194617
0.00199992
0.00208357
0.00209787
0.00199998
0.00193538
0.00160896
0.00104688
0.000713558
0.000567099
0.000592752
0.000866671
0.00116788
0.00148442
0.00237994
0.00182121
0.00192645
0.00196406
0.00195182
0.00193664
0.0019293
0.00191943
0.00191476
0.00193495
0.00198768
0.0020724
0.00208632
0.00200774
0.00190151
0.00150654
0.000965129
0.000683547
0.000662521
0.000921507
0.00102634
0.00128943
0.00184646
0.00296384
0.00184102
0.00194132
0.00196333
0.00195022
0.00193159
0.00192077
0.00191114
0.00190522
0.00192486
0.0019773
0.00206281
0.00207148
0.00199758
0.0018379
0.00138692
0.000914942
0.000720688
0.000849502
0.00123231
0.00139038
0.00173609
0.00245822
0.003381
0.00186008
0.00195125
0.00196069
0.00194737
0.00192552
0.00191262
0.00190388
0.0018975
0.00191651
0.00196887
0.00205519
0.00205879
0.00195937
0.00178682
0.00131043
0.000909441
0.000759705
0.00093627
0.00137151
0.00185474
0.00224982
0.00296307
0.00367533
0.00187611
0.00195635
0.00195528
0.00194267
0.00191953
0.00190453
0.00189689
0.00189049
0.00190911
0.00196169
0.00204841
0.00204376
0.00191368
0.00174509
0.0012671
0.000921114
0.000811219
0.000984107
0.00148002
0.00211175
0.00269426
0.003384
0.00388619
0.00188788
0.00195845
0.001949
0.00193738
0.00191257
0.0018965
0.00189022
0.00188444
0.00190252
0.00195562
0.00204215
0.00202539
0.00186872
0.00170221
0.00124014
0.000946262
0.000851307
0.00101855
0.00147842
0.00222787
0.00298546
0.00358492
0.0039817
0.0018983
0.00195645
0.00194071
0.00193019
0.00190577
0.00188844
0.00188377
0.00187893
0.00189669
0.00195058
0.00203638
0.00200569
0.0018231
0.00166104
0.00123072
0.000975935
0.000882588
0.00104822
0.00150621
0.0022213
0.00312052
0.00370523
0.00398065
0.00190369
0.00195215
0.00193206
0.00192282
0.0018983
0.00188066
0.0018777
0.00187426
0.00189151
0.00194656
0.00203075
0.00198438
0.00178123
0.00162394
0.00123473
0.00100896
0.000915113
0.00108024
0.00156714
0.0022152
0.00321133
0.00372202
0.00398557
0.0019077
0.00194494
0.00192216
0.00191383
0.00189107
0.00187301
0.00187185
0.00187001
0.00188704
0.00194333
0.0020253
0.00196314
0.00174308
0.00158358
0.00124898
0.00104334
0.00094631
0.00111133
0.0016206
0.00223266
0.00317805
0.00403646
0.00423485
0.00190757
0.00193621
0.00191259
0.00190523
0.00188383
0.0018658
0.00186673
0.00186646
0.00188299
0.00194103
0.00202001
0.00194057
0.00170464
0.00155255
0.00126312
0.00106883
0.000993418
0.00112093
0.00162013
0.00223777
0.00322373
0.00383958
0.00387217
0.00190613
0.00192636
0.00190248
0.0018955
0.00187688
0.00185902
0.00186172
0.00186321
0.00187964
0.00193935
0.00201437
0.00191779
0.00166777
0.00151538
0.00128401
0.00109068
0.00103243
0.0011182
0.00155442
0.00219068
0.00312922
0.00327361
0.00289361
0.0019024
0.00191536
0.00189329
0.00188681
0.00187036
0.00185282
0.00185771
0.00186048
0.00187652
0.00193842
0.00200916
0.00189295
0.00163055
0.00149074
0.00129581
0.00111864
0.0010784
0.00111206
0.00145992
0.00205381
0.00297929
0.00296182
0.00265749
0.00189789
0.0019053
0.00188427
0.00187755
0.00186466
0.00184725
0.00185392
0.00185808
0.00187405
0.00193802
0.0020025
0.00186729
0.00159125
0.00147118
0.00129847
0.0011552
0.00110895
0.00109882
0.00135257
0.00190065
0.00272713
0.00274128
0.00185372
0.00189259
0.00189397
0.00187663
0.0018698
0.00185914
0.00184248
0.00185081
0.00185584
0.00187172
0.0019382
0.00199695
0.00184088
0.00155847
0.00146233
0.00129914
0.00118227
0.00113713
0.00108138
0.00125152
0.00169789
0.0024325
0.00238462
0.0013777
0.00188729
0.00188536
0.00186947
0.00186228
0.00185521
0.00183827
0.0018485
0.00185424
0.00186996
0.00193887
0.00198965
0.00181484
0.00152622
0.00145903
0.00129991
0.00119685
0.00115663
0.00105819
0.00116008
0.001496
0.00214596
0.00191046
0.00104383
0.00188243
0.00187539
0.00186419
0.00185608
0.00185112
0.00183508
0.00184612
0.00185232
0.00186825
0.00193996
0.00198341
0.00179232
0.001505
0.00144056
0.00129288
0.00120191
0.001169
0.00103343
0.00108278
0.00132782
0.00183081
0.00145613
0.000836645
0.00187747
0.00186857
0.00185907
0.00185092
0.00184866
0.00183221
0.00184496
0.00185133
0.00186713
0.00194154
0.0019779
0.00177704
0.00148347
0.00139572
0.00128055
0.0011946
0.00117083
0.00101319
0.00102344
0.00116237
0.00156878
0.00119527
0.00070803
0.00187431
0.0018614
0.0018561
0.00184675
0.0018464
0.00183041
0.00184344
0.00184985
0.00186584
0.00194343
0.00197199
0.0017591
0.00144721
0.00134815
0.00125994
0.00118146
0.00116751
0.00098932
0.000974449
0.00105869
0.00129761
0.00106522
0.000679857
0.0018705
0.001856
0.00185308
0.00184357
0.00184489
0.00182871
0.00184287
0.00184906
0.00186506
0.00194566
0.0019682
0.00173872
0.00139867
0.00130426
0.00123546
0.00115696
0.00115205
0.000961037
0.000936725
0.000961408
0.00111714
0.000950123
0.000710011
0.0018683
0.00185177
0.00185141
0.00184145
0.00184433
0.0018278
0.00184209
0.0018482
0.00186397
0.00194787
0.00196683
0.0017159
0.0013538
0.00126262
0.00120562
0.00113023
0.0011358
0.000942781
0.000904981
0.000898726
0.00102911
0.000977153
0.000761652
0.00186705
0.00184812
0.00185076
0.0018399
0.00184319
0.00182728
0.0018419
0.00184741
0.00186346
0.00194977
0.0019662
0.00169394
0.00131274
0.00122174
0.00117283
0.00109852
0.00110739
0.000918605
0.000864802
0.000841546
0.000952788
0.00093399
0.000793864
0.00186414
0.00184546
0.0018489
0.00183882
0.00184415
0.00182648
0.00184154
0.00184681
0.00186304
0.00195124
0.0019634
0.00167998
0.001284
0.00118481
0.00114012
0.00106877
0.0010805
0.000908909
0.000835082
0.000816373
0.000928143
0.000930741
0.000885086
0.00186531
0.00184387
0.0018504
0.00183863
0.00184314
0.00182707
0.00184134
0.00184653
0.00186444
0.0019519
0.00196212
0.00167304
0.00125848
0.00114924
0.0011067
0.00103965
0.00104377
0.000894903
0.0008035
0.000803319
0.00093834
0.000892367
0.000894907
0.00186259
0.00184238
0.00184873
0.00183784
0.00184427
0.00182632
0.0018415
0.00184561
0.00186567
0.00195215
0.00196297
0.00167266
0.00124429
0.00111959
0.00108203
0.00102026
0.00102119
0.000889238
0.000778023
0.000788763
0.000909192
0.000874633
0.000870237
0.00186393
0.00184107
0.00184971
0.00183883
0.00184509
0.00182715
0.00184111
0.00184456
0.0018664
0.00195241
0.00196513
0.00168139
0.00123632
0.00109267
0.00105541
0.000998197
0.000994283
0.000895775
0.000764538
0.000795525
0.000858529
0.000926344
0.000893046
0.00186202
0.00184264
0.0018512
0.00183748
0.00184541
0.00182762
0.00184109
0.0018434
0.00186679
0.00195282
0.00196835
0.00169248
0.0012401
0.0010724
0.00104309
0.000999561
0.000988068
0.000899971
0.000762847
0.000804994
0.000857526
0.000921864
0.000934444
0.00186476
0.00184028
0.00185015
0.00184032
0.0018442
0.00182745
0.00184153
0.00184242
0.00186692
0.00195174
0.00197194
0.00171167
0.00124715
0.00105617
0.00102547
0.000990355
0.0010035
0.000968293
0.000791575
0.000821651
0.000862794
0.000919829
0.000991464
0.00186143
0.00184331
0.0018521
0.00183935
0.00184305
0.00183009
0.00184149
0.00184089
0.00186735
0.00194996
0.00197575
0.0017366
0.00127376
0.0010429
0.00102184
0.00103595
0.00104237
0.00101322
0.000816607
0.000879743
0.000948658
0.00104626
0.00115194
0.00185781
0.00184247
0.00185024
0.00183805
0.00183949
0.00182767
0.00183967
0.00184089
0.00186748
0.00194806
0.00197972
0.00175487
0.00129804
0.00103608
0.00102708
0.00110114
0.00109557
0.00104253
0.000853001
0.000898834
0.00101819
0.00107395
0.001278
0.00184679
0.00183694
0.00184338
0.00182938
0.00183596
0.00182303
0.00183849
0.00183994
0.00186751
0.00194547
0.00198224
0.00179013
0.00132016
0.00102665
0.00105154
0.00114876
0.00112529
0.00107196
0.000873819
0.000966456
0.00128717
0.00134576
0.00151841
0.00183766
0.00183515
0.00183387
0.00182781
0.00183025
0.00182391
0.00183579
0.0018391
0.0018673
0.00194298
0.00198661
0.00181119
0.00135016
0.00101714
0.00110004
0.00116257
0.00117198
0.0010841
0.000924438
0.00105341
0.00155347
0.00177208
0.00228623
0.00183401
0.00183521
0.0018328
0.00182687
0.00182727
0.001824
0.00183369
0.00183966
0.00186783
0.00194072
0.00198877
0.00183381
0.00137276
0.00102006
0.00112053
0.00122724
0.00119991
0.00108124
0.000984592
0.00108639
0.00173194
0.00218143
0.00271178
0.001832
0.00182995
0.00183139
0.00182714
0.00182514
0.00182347
0.00183282
0.00183925
0.00186784
0.00193808
0.00198995
0.00185204
0.00139282
0.00101958
0.00117128
0.00124144
0.00118887
0.00110809
0.000995634
0.00121712
0.00182818
0.00212797
0.00269833
0.00182848
0.00182731
0.00182952
0.00182235
0.00182382
0.00182353
0.00183216
0.00184048
0.00186754
0.00193681
0.00199456
0.00187734
0.00141262
0.0010434
0.00118841
0.00125365
0.00120837
0.00111355
0.00104719
0.00119276
0.00199148
0.00228076
0.00306401
0.00182671
0.00182588
0.00182979
0.00182295
0.00182435
0.00182455
0.00183126
0.00184023
0.00186737
0.001934
0.00200535
0.00189197
0.00142003
0.00105309
0.00123367
0.00126412
0.00119788
0.00110984
0.0013117
0.0016308
0.00240075
0.00281833
0.00369264
0.00182493
0.00182375
0.00182508
0.00182297
0.00182251
0.00182204
0.00183101
0.00184033
0.00186761
0.0019361
0.00201666
0.00189843
0.00142977
0.00107725
0.00125338
0.00127085
0.00120975
0.00111097
0.00184428
0.00210324
0.00286516
0.00372013
0.00446103
0.00182602
0.00182128
0.00182583
0.0018217
0.00182143
0.00182052
0.00183282
0.00184039
0.00186787
0.00193744
0.00201345
0.0018929
0.00145088
0.00110124
0.00126066
0.00129764
0.00120583
0.00123159
0.0025061
0.00290013
0.00367485
0.00486863
0.00488903
0.0018273
0.0018267
0.00182423
0.00182182
0.00182364
0.00182183
0.00183146
0.00184083
0.0018686
0.00193875
0.00201169
0.00188997
0.0014636
0.00112447
0.00124781
0.00131303
0.00121172
0.00159404
0.00294806
0.00389348
0.00456864
0.00509661
0.00561053
0.00182705
0.00182513
0.00182351
0.00182256
0.00182143
0.00182282
0.00183025
0.00183946
0.00186859
0.00194061
0.00201875
0.00188365
0.00145282
0.00115134
0.00122795
0.00132387
0.00121699
0.00188842
0.00348049
0.0045896
0.00494767
0.00525422
0.00579192
0.00182563
0.00182247
0.00182506
0.00182118
0.00182126
0.00182138
0.00183022
0.00183962
0.00186795
0.00193987
0.00201638
0.00188037
0.0014651
0.00117095
0.00124184
0.001323
0.00125196
0.00214651
0.00382909
0.00519131
0.00548363
0.00546081
0.00599204
0.00182405
0.00182501
0.00182541
0.00182352
0.00182464
0.00182189
0.00182846
0.00183982
0.00186774
0.00194264
0.00201389
0.00189281
0.0014584
0.00117978
0.00123894
0.00131761
0.00127642
0.00262697
0.00391506
0.00519581
0.00570545
0.00569322
0.00597812
0.00182722
0.00182412
0.00182568
0.00181833
0.0018252
0.00182143
0.00183
0.00183845
0.00186852
0.00194156
0.00201607
0.00189141
0.00145758
0.00118481
0.001234
0.00131784
0.00132624
0.00293815
0.00394127
0.00532669
0.00570197
0.00572049
0.0059361
0.00182579
0.00182364
0.00182556
0.00181974
0.001824
0.00182067
0.00182948
0.00183895
0.0018691
0.00194237
0.00201258
0.00188808
0.0014439
0.00118634
0.00123597
0.00131327
0.00135009
0.00293738
0.00418966
0.00534946
0.00563954
0.0056876
0.00593709
0.00182441
0.00182297
0.00182755
0.001819
0.00182368
0.00182413
0.00182883
0.00183949
0.00186851
0.00193974
0.00200911
0.00189299
0.00146106
0.00118401
0.00124213
0.00130869
0.00140778
0.00289729
0.00423643
0.00558471
0.00544994
0.00561474
0.00582455
0.00182937
0.00182302
0.00182585
0.00182235
0.0018222
0.00182462
0.00183258
0.00183955
0.00186796
0.00193736
0.00200604
0.00189927
0.00148564
0.00119381
0.00125038
0.00130927
0.0014458
0.00291744
0.00407893
0.00556136
0.00555692
0.0058428
0.00563774
0.00182447
0.00182195
0.00182731
0.00181862
0.0018225
0.00182444
0.00183228
0.00184033
0.00186699
0.00193571
0.00200566
0.00190643
0.00151488
0.00119533
0.00128962
0.00132335
0.0014374
0.00272462
0.00397061
0.00522744
0.00561205
0.00591406
0.00567675
0.00182177
0.00181823
0.00182408
0.00181583
0.00181894
0.00182301
0.00182961
0.00184227
0.00186608
0.00193406
0.00200433
0.00191552
0.0015501
0.00121845
0.00133489
0.00134663
0.00143279
0.00269575
0.00371345
0.00538572
0.00560561
0.00595393
0.00593766
0.00182453
0.00181704
0.00181986
0.00181764
0.00182299
0.001823
0.00182776
0.00184203
0.00186486
0.00193246
0.00200482
0.00192548
0.00158899
0.00122796
0.00138153
0.00135282
0.00149598
0.00280286
0.00360923
0.00539763
0.0055692
0.0061082
0.00599725
0.00182631
0.0018187
0.00181448
0.00181794
0.00182619
0.00181704
0.0018232
0.00184172
0.00186327
0.00193116
0.00200496
0.00193708
0.00163177
0.00127188
0.00146322
0.00143756
0.00155436
0.00263252
0.00390635
0.00514279
0.00554816
0.00586717
0.0059274
0.0018254
0.00182009
0.00181514
0.00181845
0.00182376
0.00181287
0.00181933
0.00183675
0.00186161
0.00192923
0.00200509
0.00194829
0.0016735
0.00131733
0.00154172
0.00143864
0.00160566
0.00266559
0.00393181
0.00502575
0.00552912
0.0058116
0.00586932
0.00182516
0.0018191
0.00182202
0.0018179
0.00182384
0.00181561
0.00182345
0.00183592
0.00186024
0.00192756
0.00200566
0.0019594
0.00171652
0.00137903
0.00171274
0.00143125
0.00166629
0.00231258
0.00387811
0.00497797
0.00542882
0.0056783
0.00574268
0.00182469
0.00181365
0.0018276
0.00181672
0.00182367
0.00181492
0.00183374
0.00183312
0.00185839
0.00192662
0.0020059
0.00196859
0.0017532
0.0014235
0.00168112
0.00147699
0.00177519
0.00232577
0.00326633
0.00511988
0.00557141
0.00567276
0.00564981
0.00183256
0.00180776
0.00183315
0.00181628
0.00182409
0.00181269
0.00183288
0.00183414
0.00185721
0.00192442
0.00200421
0.00197673
0.00178435
0.00150368
0.00166935
0.00177197
0.00209395
0.00262308
0.00349256
0.0047321
0.005384
0.00563476
0.00555724
0.0018285
0.00180624
0.00182889
0.00181663
0.00182224
0.00181134
0.00182417
0.00183701
0.0018558
0.00192284
0.00200308
0.00198386
0.00181216
0.00156855
0.00164584
0.00172403
0.00221874
0.00300949
0.00414162
0.00462366
0.00531412
0.00549072
0.00537123
0.00181923
0.00181025
0.00181948
0.00181679
0.00181805
0.00181142
0.00181936
0.00183635
0.0018535
0.00191911
0.00199892
0.00198903
0.00184529
0.00160415
0.00188967
0.00216196
0.00266385
0.00333724
0.00509094
0.0044259
0.00522759
0.00548729
0.00519268
0.00181215
0.00180711
0.00181771
0.00181606
0.00181576
0.00181352
0.00181635
0.00182939
0.00185113
0.00191518
0.00199522
0.00199675
0.00184053
0.00165821
0.00176813
0.00270934
0.00293143
0.00379888
0.00502877
0.00484386
0.00511077
0.00530883
0.00498828
0.00181767
0.00180248
0.00181711
0.00181484
0.00181401
0.00181492
0.0018147
0.00182657
0.00184914
0.00191061
0.00198889
0.00199929
0.00186285
0.00161283
0.00201649
0.00328069
0.00338984
0.00429883
0.00554092
0.00482694
0.00490051
0.00523493
0.00481506
0.00182134
0.0017979
0.00181598
0.00181388
0.00181222
0.00181446
0.00181417
0.00182472
0.0018475
0.00190756
0.00198684
0.00200575
0.00191091
0.00165629
0.00269761
0.00391948
0.00401437
0.0052358
0.00595101
0.00506658
0.00514863
0.00517799
0.0050047
0.0018242
0.00179399
0.00181434
0.00181322
0.00181022
0.00181258
0.0018144
0.00182326
0.0018457
0.00190337
0.00198378
0.00200558
0.00194261
0.00169079
0.00269446
0.00471376
0.00453419
0.00592379
0.00653542
0.00547137
0.00557647
0.00541533
0.00521191
0.00182573
0.00179718
0.00181239
0.00181241
0.00180721
0.00181011
0.0018148
0.00182176
0.00184358
0.00189981
0.00198266
0.00201047
0.00197216
0.00170932
0.00390607
0.00698262
0.00584582
0.00655967
0.00690839
0.00605883
0.00574978
0.00550689
0.00496465
0.00182773
0.00180255
0.00181008
0.00181099
0.00180263
0.00180743
0.00181452
0.00181983
0.00184055
0.00189402
0.0019792
0.0020091
0.00199739
0.0017569
0.00481731
0.00656583
0.00629462
0.00777055
0.00698661
0.00650296
0.00566886
0.0056269
0.00514222
0.00181284
0.00180836
0.00180721
0.00180876
0.00179687
0.00180434
0.00181306
0.00181721
0.00183703
0.00188835
0.00197618
0.00201125
0.0020256
0.00179716
0.00629663
0.00811999
0.00784273
0.00809138
0.00700943
0.00612018
0.00607139
0.00605667
0.00542654
0.00180271
0.0018123