/*--------------------------------*- C++ -*----------------------------------*\
  =========                 |
  \\      /  F ield         | OpenFOAM: The Open Source CFD Toolbox
   \\    /   O peration     | Website:  https://openfoam.org
    \\  /    A nd           | Version:  7
     \\/     M anipulation  |
\*---------------------------------------------------------------------------*/
FoamFile
{
    version     2.0;
    format      ascii;
    class       volScalarField;
    location    "83";
    object      omega;
}
// * * * * * * * * * * * * * * * * * * * * * * * * * * * * * * * * * * * * * //

dimensions      [0 0 -1 0 0 0 0];

internalField   nonuniform List<scalar> 
12842
(
3.13746
2.83652
2.64734
2.52605
2.42928
2.36694
2.31615
2.28913
2.2651
2.25414
2.24405
2.24638
2.25566
2.27624
2.31899
2.38645
2.49921
2.65856
2.79857
3.00278
3.15032
3.37017
3.48975
3.12187
2.81305
2.62018
2.50915
2.4217
2.36319
2.31338
2.286
2.26256
2.25176
2.24293
2.24556
2.25595
2.27909
2.32289
2.39546
2.5096
2.6792
2.8242
3.02882
3.16885
3.37559
3.5154
3.09433
2.77895
2.58636
2.48061
2.4014
2.34745
2.30046
2.2746
2.25404
2.24477
2.23995
2.24459
2.2576
2.28416
2.33161
2.40935
2.52751
2.69429
2.84303
3.07205
3.20628
3.39754
3.51933
3.07038
2.74539
2.55798
2.45183
2.37755
2.33307
2.29317
2.26936
2.25032
2.2416
2.23851
2.24388
2.25912
2.28964
2.34273
2.42877
2.56008
2.72838
2.8756
3.09052
3.24103
3.44884
3.56482
3.03522
2.70508
2.52517
2.42924
2.36203
2.31861
2.27929
2.25799
2.24218
2.23523
2.23587
2.24319
2.26151
2.29586
2.35427
2.44623
2.58649
2.74686
2.93151
3.1267
3.27695
3.48059
3.58387
3.00754
2.67074
2.49472
2.40143
2.33838
2.30313
2.2705
2.25206
2.23815
2.23192
2.23425
2.24297
2.26362
2.30251
2.3661
2.46701
2.62441
2.78064
2.96284
3.16934
3.33545
3.54269
3.65972
2.97123
2.63503
2.46807
2.38216
2.32536
2.29064
2.25938
2.24328
2.23148
2.22714
2.23127
2.24275
2.26668
2.30956
2.38156
2.48844
2.65114
2.80921
3.02514
3.19808
3.39012
3.59554
3.69422
2.94325
2.60382
2.44087
2.35954
2.30598
2.278
2.2507
2.23721
2.22732
2.22429
2.2294
2.24281
2.26842
2.31501
2.38883
2.50686
2.68872
2.84542
3.05412
3.26052
3.45142
3.67631
3.80043
2.90702
2.57552
2.4216
2.34436
2.29587
2.26844
2.2432
2.23177
2.22268
2.22122
2.22746
2.2433
2.27313
2.32406
2.40821
2.52944
2.71286
2.87612
3.11455
3.2885
3.50991
3.71864
3.84721
2.87507
2.54331
2.39721
2.32682
2.2827
2.25987
2.23696
2.22774
2.21976
2.21931
2.22639
2.24339
2.27548
2.33078
2.41745
2.54825
2.74003
2.90723
3.13935
3.34224
3.57432
3.78793
3.93101
2.83574
2.51864
2.38185
2.31402
2.27416
2.25228
2.23167
2.22421
2.21668
2.21738
2.2253
2.24419
2.27862
2.33873
2.43507
2.56996
2.76748
2.93505
3.193
3.37008
3.61588
3.82371
3.97472
2.8024
2.48967
2.36048
2.29902
2.26382
2.24507
2.22683
2.22073
2.21404
2.2158
2.22448
2.24512
2.28206
2.3452
2.44494
2.58624
2.78994
2.97585
3.23052
3.4425
3.71184
3.91735
4.08201
2.76497
2.46897
2.34789
2.28774
2.256
2.23816
2.22251
2.21796
2.2117
2.21426
2.2238
2.24649
2.28448
2.35439
2.46367
2.61299
2.82545
3.00188
3.28303
3.47822
3.7605
3.96731
4.16675
2.73238
2.44458
2.33005
2.27506
2.24765
2.23173
2.21888
2.21486
2.20939
2.21292
2.22343
2.24772
2.28792
2.36015
2.47291
2.62607
2.84331
3.05053
3.34107
3.56969
3.87893
4.09031
4.27626
2.69843
2.42721
2.31912
2.26528
2.24039
2.22527
2.21517
2.21231
2.20761
2.21146
2.22327
2.24924
2.29052
2.36985
2.49196
2.65558
2.88148
3.08008
3.38724
3.61597
3.94601
4.1715
4.45562
2.67
2.40761
2.30495
2.25473
2.23316
2.21954
2.21212
2.20955
2.20577
2.21014
2.22319
2.25054
2.29317
2.37714
2.50128
2.6695
2.89935
3.12626
3.46162
3.7314
4.08975
4.31825
4.55463
2.64423
2.39272
2.29475
2.24658
2.22639
2.21353
2.20849
2.20681
2.2042
2.20854
2.22266
2.25264
2.29805
2.38573
2.52121
2.7025
2.94108
3.17245
3.5142
3.79142
4.17264
4.43495
4.82163
2.62196
2.37718
2.28379
2.23774
2.21961
2.2086
2.20558
2.20434
2.20274
2.20705
2.2236
2.25456
2.30126
2.39609
2.53329
2.71907
2.9626
3.22536
3.59479
3.93532
4.33178
4.61895
4.97575
2.60221
2.36404
2.27418
2.2312
2.21348
2.2032
2.20178
2.20149
2.201
2.2053
2.22369
2.2569
2.30773
2.403
2.55233
2.75684
3.0146
3.29331
3.67798
4.01676
4.44875
4.80867
5.36518
2.58469
2.35161
2.26552
2.2235
2.20696
2.19902
2.19875
2.19921
2.19954
2.20376
2.22326
2.25966
2.31464
2.41612
2.57468
2.7814
3.04633
3.41886
3.80627
4.186
4.65499
5.07991
5.61677
2.56927
2.34003
2.25686
2.21812
2.20161
2.19417
2.19512
2.19644
2.19755
2.20203
2.22486
2.26181
2.32093
2.42475
2.58914
2.8204
3.12182
3.52027
3.89526
4.27821
4.81414
5.41505
6.20939
2.5553
2.32952
2.24943
2.21104
2.19554
2.19049
2.19188
2.19422
2.19571
2.20061
2.2251
2.26655
2.33188
2.43833
2.62676
2.87175
3.17927
3.71805
4.06561
4.49324
5.21902
5.97474
6.80491
2.54294
2.31993
2.24203
2.20616
2.19083
2.18603
2.18874
2.19152
2.19366
2.19921
2.22502
2.27116
2.34093
2.45382
2.64436
2.90601
3.27798
3.80196
4.15645
4.65612
5.52525
6.45836
7.47225
2.53339
2.31233
2.23675
2.20133
2.18657
2.18329
2.18612
2.18967
2.19174
2.1981
2.22809
2.27673
2.34803
2.46574
2.69317
2.99804
3.39363
3.98734
4.38859
5.0617
6.19293
7.3931
9.18176
2.5255
2.30705
2.23324
2.1984
2.18423
2.18115
2.18475
2.18803
2.19031
2.19756
2.2281
2.28069
2.36351
2.48879
2.7207
3.05191
3.49569
4.09799
4.59504
5.50932
7.15449
9.39503
11.0279
2.51853
2.30189
2.22984
2.19573
2.1818
2.17954
2.18329
2.18669
2.18909
2.19678
2.22688
2.28925
2.37324
2.50281
2.78436
3.17859
3.72074
4.41602
5.28538
6.82215
9.08285
11.1928
13.9467
2.511
2.29736
2.22669
2.19262
2.17982
2.17759
2.18222
2.18505
2.1882
2.19676
2.2272
2.29342
2.37952
2.5328
2.82287
3.26778
3.87616
4.71248
5.89608
7.90725
10.7838
14.5653
22.3997
2.50456
2.29223
2.22334
2.19054
2.17776
2.17623
2.18096
2.18381
2.18735
2.19629
2.22827
2.29956
2.39685
2.55213
2.9091
3.45285
4.26654
5.5348
7.55459
11.1098
19.1107
38.5306
76.7022
2.49746
2.28827
2.22037
2.1875
2.17609
2.17461
2.17999
2.18237
2.1869
2.19547
2.22993
2.3056
2.40177
2.59323
2.96304
3.59538
4.58664
6.16383
8.9472
15.0382
30.8203
66.1258
124.301
2.4917
2.28306
2.21694
2.18587
2.17435
2.17353
2.17878
2.18145
2.18627
2.19568
2.23232
2.31021
2.40015
2.62168
3.08299
3.84725
5.13396
7.54236
12.9375
28.3536
69.0068
137.666
226.364
2.48516
2.27959
2.21394
2.18308
2.17293
2.17218
2.17779
2.17994
2.18578
2.19579
2.23656
2.31201
2.41178
2.68024
3.15629
4.04398
5.64444
8.74245
16.5617
40.1708
98.1153
178.543
235.876
2.48007
2.27429
2.21036
2.18165
2.17145
2.17136
2.17666
2.17903
2.18487
2.19586
2.23762
2.3201
2.43143
2.72485
3.31632
4.36318
6.31408
10.9209
24.0591
59.9605
112.502
185.854
252.402
2.47422
2.27107
2.2072
2.17913
2.17011
2.17028
2.17542
2.17704
2.18398
2.19558
2.23747
2.32091
2.46266
2.80029
3.40913
4.59062
6.99439
12.7375
29.5627
64.9558
119.873
200.998
258.331
2.46973
2.26603
2.20346
2.17771
2.16897
2.16958
2.17419
2.17562
2.18281
2.19603
2.24064
2.33282
2.50498
2.87371
3.60566
4.94984
7.66123
14.9125
35.9812
83.6421
136.513
192.694
254.471
2.46448
2.26243
2.20023
2.17548
2.16757
2.16832
2.17228
2.17402
2.18198
2.19723
2.25403
2.36472
2.55961
2.97018
3.71343
5.18621
8.34356
16.8786
45.7354
83.9061
135.23
182.264
255.527
2.46056
2.2583
2.19646
2.17391
2.16656
2.16709
2.17073
2.17207
2.18214
2.20459
2.2766
2.40335
2.61823
3.06397
3.93504
5.54131
9.04157
20.0832
45.4144
85.2746
135.854
183.703
256.413
2.4558
2.25399
2.19319
2.17185
2.1648
2.16518
2.16863
2.17145
2.18351
2.21548
2.30405
2.45283
2.69449
3.18602
4.05636
5.79411
9.71843
22.5815
46.2674
80.3888
135.123
203.686
261.121
2.4522
2.25063
2.18953
2.17006
2.16304
2.16334
2.16671
2.17265
2.19137
2.23802
2.34643
2.51627
2.77361
3.29479
4.2867
6.07474
10.043
23.1834
44.3784
80.8376
135.304
200.185
262.428
2.44781
2.24623
2.18619
2.16761
2.16059
2.16082
2.16504
2.17756
2.20298
2.26141
2.38582
2.57575
2.8575
3.43384
4.43276
6.33223
10.2676
23.363
43.5067
72.6804
144.672
206.594
264.313
2.44434
2.24324
2.18257
2.16485
2.15837
2.15864
2.16625
2.18928
2.22518
2.2995
2.44749
2.66332
2.96529
3.56231
4.65361
6.54091
10.2609
19.5884
43.8075
84.5181
143.451
208.903
272.152
2.44006
2.23842
2.1788
2.16285
2.1555
2.15823
2.17057
2.20575
2.25024
2.33655
2.49619
2.72571
3.04293
3.70743
4.8279
6.7841
10.199
20.151
37.3067
80.2178
133.88
220.794
288.906
2.43653
2.23586
2.17512
2.15917
2.15318
2.16014
2.182
2.23
2.28667
2.38869
2.57436
2.83362
3.18055
3.86078
5.04353
7.00775
10.2462
20.2063
42.0623
82.6726
147.023
214.331
283.298
2.43216
2.23025
2.17055
2.15767
2.15303
2.16598
2.19841
2.25921
2.32578
2.43809
2.62972
2.89638
3.25226
4.00611
5.27513
7.20997
10.1779
17.456
39.7203
77.9342
135.754
204.462
282.859
2.42827
2.22748
2.16739
2.15457
2.15577
2.17819
2.22238
2.29587
2.37425
2.50057
2.71807
3.01285
3.40389
4.19853
5.46055
7.49415
10.2999
18.7382
39.0207
77.818
136.968
211.716
274.77
2.42331
2.22176
2.16279
2.15427
2.16369
2.19485
2.252
2.33644
2.42474
2.55885
2.77721
3.07822
3.48242
4.33084
5.77506
7.67344
10.4815
17.7155
37.9169
76.2536
128.315
209.466
285.203
2.41854
2.21859
2.16101
2.1572
2.1775
2.21896
2.28838
2.38316
2.48135
2.62695
2.86933
3.19427
3.642
4.57808
5.95361
8.04771
11.0031
17.1727
34.3672
71.7196
140.754
234.439
281.04
2.4125
2.213
2.15843
2.1643
2.19709
2.24719
2.32923
2.43177
2.53831
2.68918
2.9272
3.25783
3.72243
4.71035
6.30572
8.46137
12.1783
19.7377
37.5125
77.2813
152.084
209.847
247.805
2.40675
2.21021
2.1593
2.17882
2.22269
2.28262
2.37522
2.48466
2.59841
2.75789
3.01799
3.37262
3.89357
4.9893
6.60746
9.46563
14.6728
24.014
44.2883
86.7429
158.842
206.857
284.259
2.39891
2.20553
2.16196
2.19633
2.25417
2.32196
2.42478
2.53881
2.65838
2.82109
3.07347
3.43316
3.98638
5.15853
7.12558
10.906
18.2188
31.1904
53.2671
91.7467
155.894
191.721
257.325
2.39259
2.20438
2.17324
2.22401
2.29284
2.36896
2.47972
2.59703
2.72092
2.88874
3.1565
3.54027
4.17047
5.53241
7.98605
13.3472
23.6774
39.7412
63.5717
92.9119
138.294
133.111
146.31
2.38419
2.2035
2.18907
2.25409
2.33535
2.41808
2.53468
2.65333
2.77969
2.9484
3.20956
3.594
4.27396
5.77127
9.02581
17.3046
30.507
49.8967
73.5528
99.11
128.948
132.03
147.868
2.37782
2.20519
2.21469
2.29224
2.38208
2.47044
2.59026
2.70855
2.83569
3.00599
3.27384
3.68258
4.48213
6.38158
11.3279
21.7554
38.8153
60.4105
82.9039
102.278
126.327
135.111
148.925
2.37286
2.20963
2.24237
2.33118
2.42975
2.52275
2.64352
2.76056
2.88728
3.05647
3.31856
3.732
4.62702
6.98929
13.6526
28.1723
47.3617
69.1723
90.4908
107.203
125.821
136.713
152.882
2.36958
2.22234
2.27827
2.3756
2.47954
2.57587
2.69552
2.80995
2.93506
3.10376
3.36724
3.811
4.92057
8.29718
17.638
34.1549
54.1628
74.8882
94.4147
109.045
126.865
140.441
159.322
2.36798
2.24049
2.3157
2.41941
2.52815
2.62687
2.74371
2.85517
2.97804
3.14465
3.40452
3.87008
5.20251
9.80899
21.5524
40.3008
60.7969
79.6629
97.719
113.191
128.223
146.338
165.69
2.36783
2.26669
2.35883
2.46646
2.57722
2.67723
2.78979
2.89741
3.01744
3.18252
3.4438
3.95993
5.74219
12.0894
26.417
46.1759
64.2143
80.9778
99.4776
119
136.449
154.565
172.181
2.37081
2.2966
2.40099
2.50962
2.62123
2.72105
2.82844
2.93215
3.04914
3.21214
3.47549
4.06002
6.35041
14.2004
30.6512
49.6875
66.0744
81.3581
99.4469
120.252
143.951
162.312
179.299
2.37984
2.33057
2.44384
2.55252
2.66305
2.76224
2.86415
2.9638
3.07766
3.23883
3.50688
4.18302
7.05948
16.4169
34.4992
52.2843
66.4513
81.655
99.651
120.775
148.527
167.074
184.025
2.39545
2.36826
2.48769
2.59442
2.70375
2.80128
2.89724
2.99278
3.10348
3.26288
3.53826
4.32604
7.82637
18.7307
37.9953
53.9648
66.8879
81.9632
99.4265
121.295
150.183
169.3
185.033
2.41508
2.40949
2.532
2.63675
2.74267
2.83804
2.92783
3.0192
3.12666
3.28453
3.56969
4.48335
8.6396
20.993
40.8201
55.0306
67.1107
81.1053
98.847
121.27
150.935
169.109
179.604
2.44045
2.45278
2.57638
2.67717
2.78006
2.87241
2.95574
3.04315
3.14754
3.30389
3.60109
4.64955
9.44594
23.1765
42.9429
55.5609
66.665
79.0177
96.7135
121.096
151.216
168.497
172.564
2.46827
2.49748
2.6196
2.71749
2.81519
2.90411
2.98131
3.06491
3.16608
3.32126
3.63203
4.8192
10.2465
25.2339
44.2259
55.6402
65.5124
76.1571
92.9244
119.499
151.431
158.415
155.472
2.50047
2.54238
2.66192
2.75499
2.84834
2.93337
3.00406
3.08433
3.18288
3.33673
3.66252
4.99153
11.0103
26.9832
45.0972
55.7122
63.8672
72.9355
88.1276
118.247
147.783
148.333
145.326
2.5331
2.58683
2.70188
2.79194
2.87895
2.95976
3.02481
3.1021
3.19755
3.35059
3.69205
5.1606
11.7231
28.6051
45.2634
55.519
62.009
69.4947
82.5413
113.837
140.375
137.05
134.719
2.56837
2.6299
2.73997
2.82531
2.90734
2.98371
3.0428
3.11755
3.21097
3.36288
3.72095
5.32959
12.3692
29.7141
45.3687
54.7861
59.919
66.0191
76.7989
106.062
129.4
122.09
121.318
2.60212
2.67078
2.77497
2.85749
2.93289
3.0049
3.05896
3.13182
3.22258
3.3739
3.74913
5.49054
12.9414
30.4853
45.4916
53.6254
57.7636
62.615
71.2234
96.8333
115.341
104.053
108.783
2.63691
2.70971
2.80736
2.88589
2.95648
3.02372
3.07296
3.14402
3.23316
3.3837
3.77657
5.64007
13.3853
30.748
45.5261
52.0811
55.4334
59.2253
65.8879
87.284
99.9347
88.7406
90.5596
2.66898
2.74488
2.83662
2.91231
2.977
3.04024
3.08506
3.15505
3.24234
3.39247
3.80316
5.77319
13.7364
30.828
45.1595
50.2124
52.9906
55.9548
61.0022
78.8844
83.7006
74.3226
73.3369
2.70052
2.77833
2.8628
2.93545
2.99597
3.05454
3.09587
3.16475
3.25067
3.40041
3.82799
5.88249
13.9498
30.9074
44.2484
48.0068
50.3204
52.5515
56.2487
69.5702
70.4807
62.3376
60.6057
2.72967
2.80741
2.88657
2.95601
3.01231
3.06736
3.10496
3.17292
3.2578
3.40744
3.85061
5.96104
14.046
30.9355
42.8331
45.5449
47.4763
49.1306
51.8271
61.3225
60.2213
53.7575
51.5687
2.75654
2.835
2.90732
2.97427
3.02697
3.07814
3.11317
3.18057
3.2646
3.41398
3.87016
6.01515
14.0754
30.5506
40.9831
42.7908
44.3527
45.5989
47.5935
54.1936
53.2118
47.9996
49.5792
2.78226
2.85866
2.92618
2.98974
3.04031
3.08822
3.12046
3.18653
3.27036
3.41981
3.88521
6.04715
14.0674
29.6315
38.7158
39.8843
41.0996
42.1288
43.7516
48.9203
47.8911
43.972
45.9572
2.80521
2.88124
2.94335
3.00422
3.05138
3.09692
3.12673
3.19253
3.27613
3.42524
3.89647
6.05794
13.8876
28.2938
36.1384
36.8403
37.6967
38.6819
40.4154
44.5101
44.8168
42.6425
43.36
2.82678
2.90043
2.95813
3.01602
3.06251
3.10489
3.1329
3.19664
3.28086
3.43023
3.90606
6.04151
13.5485
26.6574
33.3268
33.7638
34.3545
35.261
37.7728
41.6666
43.1109
42.0985
41.7048
2.84777
2.91933
2.97303
3.0279
3.0713
3.11279
3.13838
3.20192
3.28479
3.43487
3.90846
5.97607
13.0093
24.8119
30.4551
30.7014
31.0977
32.0012
35.4689
39.723
41.9247
41.3015
41.7362
2.8652
2.93557
2.9857
3.03774
3.08069
3.11945
3.14345
3.20425
3.28542
3.43903
3.90588
5.87135
12.3929
22.8867
27.5399
27.7539
28.044
28.9293
33.7325
38.3492
41.3687
41.8239
41.0486
2.88504
2.95148
2.99819
3.04818
3.08827
3.12691
3.14908
3.20911
3.28608
3.44267
3.89686
5.73359
11.6554
20.966
24.7361
24.953
25.2274
26.2505
32.203
37.1608
40.505
41.9534
41.4666
2.90008
2.96666
3.01065
3.05698
3.09665
3.13333
3.15357
3.21103
3.28704
3.44551
3.88241
5.56723
10.9158
19.1361
22.1527
22.3528
22.6435
23.8225
30.6858
36.2731
40.1808
41.7812
41.1847
2.91779
2.97941
3.02092
3.06687
3.10346
3.13976
3.1588
3.21352
3.28788
3.4476
3.86291
5.39483
10.1229
17.4729
19.8698
20.1018
20.4149
21.9046
29.3907
35.5586
40.2224
41.115
41.1408
2.93188
2.99464
3.03304
3.07504
3.1108
3.14712
3.16411
3.21678
3.28891
3.44886
3.84009
5.20629
9.38617
15.9989
17.9136
18.1135
18.4986
20.2995
28.0737
34.881
40.1295
41.3201
41.9713
2.9484
3.00597
3.04267
3.08487
3.11848
3.15246
3.168
3.2199
3.28865
3.44998
3.81394
5.02247
8.68023
14.7596
16.2992
16.5137
16.9999
19.1673
26.9067
34.6823
40.5602
42.2928
44.4882
2.96157
3.01927
3.05442
3.09258
3.1241
3.15981
3.17482
3.22152
3.28865
3.45018
3.78751
4.85255
8.01586
13.7597
15.0036
15.195
15.8462
18.3922
25.8535
34.1545
43.7618
47.6022
53.0595
2.97784
3.03725
3.06464
3.10645
3.13353
3.16948
3.17991
3.22222
3.28875
3.45059
3.759
4.67817
7.51353
12.9542
14.0069
14.1408
15.0167
17.7657
25.2696
33.545
45.0338
55.3168
61.9534
2.99764
3.04476
3.08058
3.10958
3.14136
3.17041
3.1832
3.22326
3.28914
3.44996
3.73337
4.53594
7.12385
12.3868
13.2157
13.4417
14.4897
17.4742
24.3877
33.0462
44.2975
59.035
66.466
3.00016
3.04781
3.08344
3.11286
3.1465
3.17183
3.18639
3.222
3.28827
3.4487
3.70645
4.40401
6.89487
11.928
12.6581
12.8681
14.1606
17.2298
23.4262
33.652
45.2212
61.093
73.5949
3.00331
3.0535
3.0856
3.11756
3.15
3.17357
3.18806
3.22243
3.2882
3.44696
3.68399
4.30883
6.65946
11.623
12.1775
12.5791
13.984
17.042
23.8898
35.6967
45.9561
63.5158
79.6555
3.01339
3.06125
3.08936
3.12406
3.15221
3.17409
3.19078
3.22057
3.28866
3.44457
3.66218
4.2543
6.51343
11.3675
11.8039
12.4531
13.9699
17.0133
24.1822
37.8782
48.2865
66.8054
82.9055
3.01207
3.05971
3.09193
3.12325
3.15384
3.17476
3.19011
3.22068
3.28869
3.44219
3.64558
4.21824
6.44181
11.1513
11.501
12.3888
13.9564
17.151
25.9061
42.119
55.484
69.8947
85.5188
3.01575
3.06334
3.09636
3.12387
3.15421
3.17679
3.19275
3.22017
3.28813
3.43914
3.62452
4.19056
6.34813
10.9507
11.2734
12.3318
13.9544
17.8451
28.3718
45.8437
58.5216
71.7841
84.8574
3.0129
3.06611
3.09465
3.12539
3.15597
3.17825
3.19153
3.2199
3.28751
3.43626
3.62509
4.19471
6.28012
10.7089
11.1961
12.3723
13.9985
19.0109
30.7927
48.0707
60.5308
71.226
85.456
3.01152
3.06181
3.0968
3.12546
3.15324
3.17543
3.19125
3.21958
3.28599
3.43345
3.61894
4.19186
6.22452
10.4891
11.0929
12.2949
14.1258
20.3851
35.0316
48.6735
59.8159
74.5466
83.8234
3.01087
3.06145
3.09808
3.12551
3.1534
3.17554
3.19364
3.21982
3.28562
3.42992
3.61065
4.18486
6.22289
10.2423
10.9992
12.2332
14.2929
22.4457
37.9491
49.3334
61.3014
74.0937
85.7479
3.01256
3.06471
3.09397
3.12812
3.15338
3.17459
3.19125
3.21945
3.28596
3.42797
3.61301
4.17457
6.19313
10.036
10.9302
12.1651
14.6352
24.0782
39.5774
50.7002
60.327
75.6496
85.2927
3.01408
3.05975
3.0937
3.12457
3.14956
3.1739
3.19226
3.2201
3.28563
3.42377
3.60942
4.1643
6.20487
9.98264
10.8902
12.191
14.7594
25.1347
40.8954
52.0463
61.255
73.7951
84.646
3.00795
3.06341
3.09201
3.12852
3.14874
3.17373
3.18902
3.22089
3.28375
3.42294
3.61294
4.17613
6.204
9.92985
10.901
12.1459
15.2221
26.7995
41.7495
51.6522
61.4824
73.9998
86.4101
3.00725
3.06297
3.09202
3.12528
3.1498
3.17481
3.18855
3.22124
3.28389
3.42318
3.61206
4.17672
6.23346
9.91056
10.9029
12.1695
15.5096
26.4079
41.7394
52.6624
63.5607
74.7432
84.3495
3.00857
3.06153
3.09043
3.1263
3.14881
3.17019
3.18843
3.21946
3.28067
3.41642
3.59859
4.13268
6.07865
9.71714
10.7715
12.1006
15.4449
25.7886
41.4856
50.6149
63.345
75.8559
85.2164
3.00157
3.05894
3.09405
3.12036
3.14777
3.16871
3.18302
3.21743
3.27737
3.40985
3.58572
4.08783
5.91134
9.503
10.7178
12.0166
14.9233
25.3932
39.4208
50.246
61.6814
73.4716
87.0988
3.00058
3.05674
3.08808
3.11919
3.14409
3.16659
3.18144
3.21426
3.27375
3.40224
3.57253
4.04341
5.73298
9.28209
10.5696
12.1814
15.2637
23.4466
40.2083
50.2288
60.8692
69.495
85.898
3.00258
3.05779
3.0904
3.12176
3.14067
3.16534
3.18216
3.20629
3.26942
3.39461
3.55976
3.99859
5.54933
9.01224
10.5366
12.1348
15.4381
23.286
38.5305
48.0469
57.9139
68.3512
83.3553
2.99972
3.05475
3.08874
3.12023
3.13075
3.15687
3.17937
3.20271
3.26433
3.38554
3.5468
3.95491
5.36861
8.71756
10.5775
12.6668
15.9185
23.9677
39.2194
47.8135
57.6716
67.7546
80.2682
2.99547
3.04481
3.08354
3.11525
3.12715
3.15437
3.17707
3.19456
3.25875
3.376
3.53293
3.91067
5.19391
8.39885
10.3591
12.765
16.5272
23.8137
37.7734
47.9448
58.5843
68.1778
76.7649
2.98788
3.02934
3.07752
3.10596
3.12761
3.15671
3.16947
3.19356
3.25124
3.36502
3.51902
3.86848
5.03256
8.07639
10.3584
13.3189
16.898
22.5655
35.4447
45.7039
56.681
65.6545
72.7702
2.97858
3.02437
3.06673
3.0918
3.12054
3.15063
3.15719
3.18519
3.24244
3.35333
3.50292
3.8262
4.88338
7.78361
9.9402
13.8804
18.4111
22.5228
34.0063
42.9233
53.9576
62.2904
68.3651
2.9691
3.02562
3.04999
3.07237
3.11158
3.14318
3.13994
3.17736
3.23174
3.33878
3.48647
3.78758
4.75142
7.45753
9.87591
13.7385
18.4391
22.3011
32.369
39.8927
50.674
58.8249
64.2486
2.94566
3.01781
3.02689
3.06507
3.09746
3.13277
3.13371
3.16457
3.21962
3.32379
3.46698
3.74829
4.63398
7.18455
9.80963
13.8038
18.5656
22.2475
31.639
36.6729
48.5265
55.3535
60.1289
2.93827
3.00462
3.01824
3.06418
3.08535
3.11894
3.13365
3.14763
3.20436
3.30474
3.44549
3.71047
4.52944
6.90747
9.92004
14.0087
19.003
21.986
29.6545
36.0603
46.341
52.5854
56.4646
2.93729
2.99166
3.01792
3.05329
3.07512
3.10362
3.12439
3.13359
3.18939
3.2851
3.42159
3.67082
4.43336
6.71893
9.24065
14.7791
18.9236
23.0598
28.0406
36.7343
44.6276
49.4093
52.9608
2.92684
2.97336
3.00029
3.0363
3.05971
3.0815
3.10758
3.12457
3.1695
3.26032
3.39355
3.62909
4.34269
6.53024
9.24412
14.4519
19.0544
22.4072
27.8335
35.5517
42.1447
46.5566
49.6691
2.89425
2.95247
2.9791
3.01689
3.04249
3.05964
3.08847
3.10761
3.14807
3.23412
3.36394
3.58683
4.25695
6.37395
9.09682
14.3569
19.2112
22.88
25.589
34.0796
39.7044
43.7998
47.0536
2.85933
2.92736
2.95329
2.99008
3.01895
3.03445
3.0624
3.08295
3.11971
3.20069
3.32761
3.54084
4.1734
6.24667
9.10218
15.5717
18.4104
22.3633
25.2978
32.4347
37.6141
42.0926
45.6432
2.82464
2.9005
2.92759
2.96122
2.99413
3.00999
3.03462
3.05695
3.09071
3.16676
3.28989
3.49368
4.09105
6.06748
9.39051
14.5282
18.6646
21.847
24.5742
31.3052
36.3451
41.1785
43.3994
2.78503
2.8662
2.89521
2.92513
2.96137
2.97768
2.9981
3.02215
3.0533
3.12408
3.24361
3.44107
4.00605
5.98204
8.79735
13.9958
17.0389
21.5661
24.5145
30.6783
35.7916
37.4826
36.9725
2.74246
2.8285
2.86222
2.88952
2.92756
2.94394
2.9614
2.98704
3.01657
3.08236
3.19673
3.38639
3.91607
5.84302
8.96465
14.6871
17.9442
20.0195
25.3369
30.2321
32.0116
32.2498
35.4869
2.71429
2.77837
2.81972
2.84516
2.88275
2.89841
2.91416
2.9405
2.96821
3.02857
3.13712
3.3205
3.82104
5.81537
8.98682
13.794
16.6602
20.1106
25.2879
27.4276
28.8263
32.0356
31.6496
2.6777
2.72894
2.77723
2.80158
2.83735
2.8527
2.86857
2.89519
2.92158
2.97681
3.07816
3.25336
3.72581
5.42847
9.79506
13.4746
17.4242
20.579
23.391
25.6216
28.161
27.7813
23.6969
2.6231
2.67027
2.72173
2.74461
2.77719
2.79222
2.8086
2.83399
2.85837
2.90776
3.00023
3.16709
3.62361
5.50725
10.5605
13.3687
17.105
19.2849
21.7176
24.243
24.2894
21.1051
16.8448
2.56679
2.61748
2.66755
2.68923
2.71886
2.73463
2.75244
2.77641
2.79955
2.84404
2.92706
3.08396
3.52745
5.68505
9.89205
13.8207
15.8264
17.7902
20.2663
21.2388
18.8573
15.683
12.1197
2.49528
2.55065
2.5955
2.61517
2.64137
2.65735
2.67544
2.69679
2.71769
2.75682
2.82985
2.97705
3.42755
5.99194
10.11
13.0981
14.3394
16.5623
18.2895
16.8144
14.3786
11.8362
8.65562
2.43009
2.49049
2.5284
2.54686
2.57081
2.58774
2.60655
2.62613
2.64578
2.68126
2.74697
2.88425
3.36597
5.91585
9.30968
11.7433
13.1655
15.1516
15.0706
13.0425
11.2357
8.84985
5.68911
2.34608
2.40714
2.43708
2.4533
2.47425
2.49038
2.50785
2.52441
2.54149
2.57239
2.63085
2.76683
3.2286
6.31495
9.32884
10.3103
12.0797
13.2327
11.8365
10.3526
8.75681
6.17509
3.80687
2.27483
2.33545
2.35866
2.37404
2.39348
2.40961
2.42672
2.4419
2.45781
2.48618
2.54095
2.66363
3.2192
6.1414
8.66439
9.23601
10.8768
10.8469
9.4119
8.34616
6.60285
4.06111
3.04914
2.17554
2.22888
2.24594
2.25868
2.2748
2.2882
2.30231
2.3142
2.32716
2.35121
2.40126
2.54445
3.32514
6.21791
7.57782
8.386
9.4057
8.58346
7.59268
6.54461
4.50382
2.98683
2.6439
2.1
2.14925
2.16137
2.1731
2.18775
2.20024
2.21371
2.22475
2.23706
2.25871
2.3078
2.42517
3.457
5.7051
6.7327
7.67448
7.98851
6.98211
6.24166
4.89229
3.10047
2.56097
2.45345
1.98103
2.01613
2.02406
2.03291
2.04329
2.05121
2.0597
2.06685
2.07473
2.09437
2.13796
2.34035
3.68828
5.37554
5.81227
6.53639
6.30254
5.56039
4.84635
3.32403
2.41784
2.24991
2.21858
1.9088
1.94229
1.94377
1.94926
1.95769
1.96454
1.97414
1.9811
1.99181
2.0037
2.05633
2.24779
3.62845
4.96697
5.43762
5.92629
5.48979
4.82565
3.73682
2.50348
2.18838
2.13255
2.11613
1.74817
1.75634
1.75624
1.75955
1.76211
1.76267
1.76276
1.76407
1.76405
1.78546
1.83821
2.26385
3.4312
3.97293
4.41711
4.34575
3.7275
3.10112
2.25673
1.91698
1.85038
1.84137
1.8412
3.09477
2.78294
2.58966
2.47283
2.38644
2.33982
2.29916
2.27705
2.25332
2.24183
2.23398
2.23707
2.24784
2.27197
2.3169
2.39193
2.50478
2.67609
2.8096
3.01181
3.13811
3.33391
3.43553
3.10355
2.79121
2.5959
2.48205
2.39804
2.34948
2.30379
2.28009
2.25675
2.24471
2.2356
2.23838
2.24857
2.27143
2.31604
2.3896
2.50184
2.67057
2.80471
3.00654
3.13586
3.33005
3.43699
3.11523
2.81214
2.61571
2.49627
2.40727
2.35531
2.31074
2.28626
2.26028
2.24787
2.23739
2.23971
2.24885
2.27172
2.3149
2.38537
2.49689
2.66254
2.79836
3.00182
3.13446
3.3313
3.43674
3.12792
2.82229
2.62252
2.50624
2.41911
2.36645
2.31722
2.28912
2.26273
2.24974
2.23839
2.24047
2.24925
2.27038
2.31344
2.37949
2.49292
2.65336
2.78585
2.98287
3.11483
3.31446
3.42254
3.13706
2.83757
2.64623
2.52631
2.43234
2.3742
2.32351
2.29429
2.26675
2.25322
2.2403
2.24147
2.24963
2.26914
2.3145
2.37943
2.49308
2.6455
2.77859
2.9721
3.10546
3.304
3.41625
3.14548
2.85259
2.65629
2.53076
2.4351
2.37629
2.32518
2.2954
2.26762
2.25406
2.24093
2.24177
2.25037
2.26684
2.32024
2.38017
2.49234
2.63721
2.77169
2.96581
3.10319
3.30312
3.41808
3.15049
2.85941
2.66232
2.53809
2.44275
2.38255
2.33132
2.30141
2.27321
2.2601
2.24625
2.24765
2.25586
2.27307
2.32053
2.38313
2.49401
2.63967
2.77351
2.9681
3.10251
3.30422
3.42104
3.14674
2.85713
2.65776
2.53227
2.43535
2.37506
2.3276
2.29964
2.27247
2.25973
2.24634
2.24765
2.25615
2.27347
2.32114
2.38274
2.49932
2.64884
2.79352
2.99884
3.14754
3.35564
3.47969
2.95393
2.61654
2.45234
2.36253
2.30437
2.26918
2.24589
2.23236
2.22015
2.21629
2.21543
2.2226
2.24278
2.2828
2.35356
2.47147
2.65163
2.92876
3.15525
3.4958
3.74734
4.0698
4.37848
2.96467
2.62333
2.45808
2.36689
2.30846
2.27262
2.24894
2.23502
2.22192
2.21774
2.21643
2.22333
2.24282
2.28283
2.35174
2.46528
2.63811
2.90421
3.1163
3.43709
3.6858
3.97972
4.28681
2.96608
2.62867
2.46387
2.37132
2.31256
2.27512
2.25194
2.23756
2.2236
2.21954
2.21731
2.22382
2.24292
2.28128
2.34734
2.45607
2.62144
2.87335
3.07869
3.37748
3.62202
3.89009
4.19309
2.97775
2.63649
2.47094
2.37556
2.31709
2.27931
2.25478
2.24023
2.22517
2.22081
2.21829
2.22461
2.24296
2.28073
2.34563
2.45074
2.60921
2.84961
3.04458
3.31418
3.55937
3.79945
4.08736
2.98052
2.64273
2.47731
2.38171
2.32143
2.28261
2.25767
2.24286
2.22707
2.22256
2.21934
2.22529
2.24306
2.27966
2.34202
2.44294
2.59514
2.82255
3.01569
3.25635
3.50866
3.72167
3.99845
2.99341
2.65212
2.48559
2.38614
2.32625
2.2873
2.26037
2.24535
2.22878
2.22388
2.22039
2.22616
2.24318
2.27838
2.33964
2.43838
2.58643
2.80284
2.99173
3.19478
3.4563
3.6445
3.91783
2.99731
2.65957
2.49287
2.39393
2.33103
2.2915
2.2633
2.24802
2.23088
2.22554
2.22157
2.22697
2.24357
2.27703
2.33607
2.43155
2.57641
2.78037
2.96654
3.14073
3.4057
3.57133
3.83145
3.01154
2.67136
2.50203
2.3993
2.33596
2.29624
2.26597
2.25052
2.23308
2.22698
2.22275
2.22799
2.24375
2.27615
2.33385
2.42773
2.57236
2.76628
2.94871
3.10658
3.36257
3.53282
3.77742
3.01629
2.68013
2.51034
2.40818
2.34148
2.30095
2.2694
2.25318
2.23537
2.22879
2.22415
2.22906
2.24412
2.27575
2.33159
2.42188
2.56297
2.74971
2.92222
3.07023
3.3118
3.47664
3.70101
3.03186
2.69501
2.52062
2.41482
2.34648
2.30575
2.2723
2.25604
2.23804
2.23023
2.22538
2.23012
2.24456
2.27521
2.32975
2.41879
2.55651
2.74302
2.90471
3.05704
3.29367
3.45577
3.65612
3.03709
2.70488
2.52951
2.42471
2.35326
2.31063
2.27643
2.25889
2.24059
2.23233
2.22699
2.23141
2.24509
2.27478
2.3277
2.41393
2.54442
2.72994
2.87342
3.04879
3.27041
3.41763
3.59866
3.0537
2.72282
2.54169
2.43242
2.35807
2.31594
2.28006
2.26221
2.24336
2.23375
2.22823
2.23249
2.24581
2.27405
2.32603
2.41086
2.53331
2.72119
2.85673
3.05334
3.24641
3.39279
3.55584
3.05925
2.73311
2.55064
2.44336
2.36692
2.32141
2.28446
2.26542
2.24619
2.23604
2.22998
2.23395
2.24657
2.27375
2.32434
2.40671
2.52813
2.70855
2.84022
3.04354
3.20448
3.37003
3.52016
3.07589
2.75353
2.5651
2.45189
2.37141
2.3272
2.28912
2.26913
2.24853
2.23759
2.23122
2.23504
2.24718
2.27369
2.32242
2.40245
2.51887
2.69555
2.832
3.04028
3.16874
3.3676
3.48849
3.08175
2.76268
2.57369
2.46335
2.38152
2.33407
2.29326
2.27244
2.25149
2.23988
2.23278
2.23626
2.24739
2.27308
2.31966
2.39569
2.51003
2.68652
2.82324
3.0303
3.16113
3.36576
3.46584
2.87706
2.54529
2.3932
2.30323
2.25623
2.22897
2.21244
2.21515
2.21819
2.25305
2.31516
2.40553
2.51512
2.66152
2.86044
3.16128
3.50438
3.95251
4.52482
5.05904
5.678
6.29858
6.87139
2.88096
2.54679
2.39754
2.30812
2.25987
2.22942
2.21213
2.21134
2.20752
2.225
2.27232
2.3485
2.44409
2.58078
2.77792
3.06291
3.41642
3.8765
4.43945
4.99401
5.5974
6.20576
6.79031
2.88238
2.54769
2.40001
2.31162
2.26177
2.23148
2.2114
2.20435
2.19753
2.20811
2.24078
2.31224
2.4045
2.53546
2.72166
3.0075
3.35834
3.78644
4.37151
4.90952
5.51777
6.13684
6.70464
2.88638
2.54965
2.40225
2.31599
2.26506
2.2333
2.21367
2.2049
2.19733
2.19748
2.21968
2.27198
2.34895
2.47323
2.65253
2.92098
3.27996
3.70336
4.2853
4.83654
5.42747
6.02792
6.62769
2.88768
2.55079
2.40428
2.31915
2.26764
2.23485
2.21492
2.20683
2.19808
2.19543
2.20806
2.25222
2.32347
2.43461
2.60324
2.86443
3.2152
3.6204
4.20695
4.73453
5.34858
5.95055
6.54078
2.89145
2.5529
2.40544
2.3219
2.26954
2.23597
2.21649
2.2076
2.19861
2.19307
2.2013
2.23002
2.28749
2.39242
2.55237
2.79447
3.1499
3.53823
4.13179
4.66399
5.26717
5.83985
6.46296
2.89264
2.55485
2.40732
2.32443
2.27201
2.23774
2.21844
2.20913
2.20067
2.19452
2.20117
2.22499
2.27619
2.36563
2.51361
2.74605
3.08652
3.4717
4.04808
4.54902
5.17867
5.74388
6.3669
2.89613
2.55708
2.40828
2.32651
2.27365
2.23876
2.21949
2.21024
2.20179
2.19589
2.20158
2.21812
2.25881
2.34301
2.48335
2.69895
3.03722
3.40176
3.98358
4.48102
5.10941
5.63523
6.27791
2.89726
2.55977
2.41026
2.32815
2.27531
2.24014
2.22131
2.21106
2.20404
2.19699
2.20199
2.21762
2.25552
2.32709
2.45682
2.66236
2.9817
3.35094
3.90944
4.37366
5.01684
5.5283
6.17382
2.90073
2.56228
2.41161
2.32989
2.2774
2.24159
2.22221
2.21215
2.205
2.19904
2.20369
2.21803
2.25091
2.31981
2.44222
2.63749
2.94969
3.29897
3.85402
4.3078
4.94818
5.41904
6.06477
2.90192
2.56543
2.41375
2.33123
2.27857
2.24272
2.2239
2.21269
2.20634
2.20024
2.20453
2.21827
2.2506
2.31273
2.42785
2.61302
2.90852
3.26128
3.79654
4.22392
4.85945
5.31553
5.95621
2.90558
2.56809
2.41561
2.33257
2.2806
2.24463
2.22475
2.21364
2.20695
2.20203
2.20607
2.21949
2.24986
2.31144
2.42093