/*--------------------------------*- C++ -*----------------------------------*\
  =========                 |
  \\      /  F ield         | OpenFOAM: The Open Source CFD Toolbox
   \\    /   O peration     | Website:  https://openfoam.org
    \\  /    A nd           | Version:  7
     \\/     M anipulation  |
\*---------------------------------------------------------------------------*/
FoamFile
{
    version     2.0;
    format      ascii;
    class       volScalarField;
    location    "83";
    object      p;
}
// * * * * * * * * * * * * * * * * * * * * * * * * * * * * * * * * * * * * * //

dimensions      [0 2 -2 0 0 0 0];

internalField   nonuniform List<scalar> 
12842
(
1.08313
1.1421
1.18142
1.25285
1.36113
1.49817
1.66156
1.86199
2.12625
2.49582
3.02038
3.74656
4.70537
5.90022
7.30052
8.84638
10.4606
12.0643
13.5916
14.9969
16.2567
17.3594
18.3156
0.853204
0.910853
0.920633
0.941586
0.97406
1.0031
1.01963
1.03028
1.06295
1.16568
1.39971
1.82659
2.49316
3.4159
4.57217
5.90587
7.3431
8.81039
10.2481
11.6134
12.8811
14.0262
15.0542
0.673626
0.71918
0.703212
0.678487
0.641775
0.570101
0.446965
0.276351
0.088972
-0.0596622
-0.0963708
0.0547998
0.454848
1.12947
2.05832
3.18374
4.43213
5.73544
7.04329
8.31915
9.54018
10.6685
11.7121
0.529997
0.563282
0.521499
0.453497
0.353375
0.186562
-0.0710508
-0.416397
-0.814827
-1.203
-1.4954
-1.60182
-1.44832
-1.00331
-0.289875
0.628061
1.67467
2.78827
3.93098
5.07528
6.20397
7.26628
8.27894
0.410948
0.43892
0.367815
0.260211
0.103581
-0.152928
-0.539055
-1.05135
-1.65114
-2.26795
-2.80358
-3.15409
-3.23331
-3.00648
-2.50319
-1.79761
-0.969252
-0.0721407
0.871605
1.84566
2.8414
3.79536
4.73972
0.310649
0.340973
0.235794
0.0958617
-0.109192
-0.449007
-0.95445
-1.62209
-2.41006
-3.24251
-4.00844
-4.59169
-4.89416
-4.87989
-4.58739
-4.10378
-3.51306
-2.86034
-2.14894
-1.38233
-0.557371
0.250248
1.09415
0.225944
0.263928
0.12118
-0.0403462
-0.285736
-0.701273
-1.31297
-2.12076
-3.08018
-4.11278
-5.09448
-5.8997
-6.41789
-6.61337
-6.53426
-6.28263
-5.94804
-5.56635
-5.11954
-4.59738
-3.98059
-3.35827
-2.6459
0.15509
0.202554
0.0215649
-0.149645
-0.428675
-0.910677
-1.61205
-2.54229
-3.65422
-4.87097
-6.05534
-7.07646
-7.80919
-8.21821
-8.35866
-8.34822
-8.28343
-8.19315
-8.03721
-7.79334
-7.41981
-7.0257
-6.47533
0.0897199
0.152802
-0.0608733
-0.227145
-0.530952
-1.063
-1.82787
-2.85068
-4.0778
-5.43715
-6.77739
-7.96736
-8.86641
-9.44213
-9.75456
-9.93899
-10.1011
-10.2674
-10.3761
-10.3986
-10.2578
-10.1075
-9.71722
0.0269931
0.108484
-0.133869
-0.287481
-0.614479
-1.18662
-2.00018
-3.09761
-4.41581
-5.88726
-7.34676
-8.66426
-9.68487
-10.3815
-10.8186
-11.1499
-11.4914
-11.8704
-12.2089
-12.4728
-12.555
-12.6264
-12.4189
-0.0244845
0.0708912
-0.194472
-0.334051
-0.68743
-1.29506
-2.15337
-3.32156
-4.72662
-6.30525
-7.88035
-9.32302
-10.4648
-11.2842
-11.8485
-12.3297
-12.8554
-13.4573
-14.0442
-14.5778
-14.9201
-15.2494
-15.2661
-0.0660875
0.0387111
-0.240688
-0.367817
-0.748889
-1.3855
-2.28513
-3.5191
-5.00691
-6.68792
-8.37736
-9.94623
-11.2144
-12.164
-12.8627
-13.5003
-14.217
-15.053
-15.9077
-16.7402
-17.3792
-18.0062
-18.2796
-0.10109
0.010389
-0.273371
-0.392565
-0.800411
-1.45939
-2.39814
-3.69281
-5.26016
-7.03956
-8.84416
-10.5424
-11.9448
-13.0336
-13.8745
-14.6734
-15.585
-16.6634
-17.8022
-18.9595
-19.9277
-20.8902
-21.4554
-0.132057
-0.0145232
-0.294577
-0.412488
-0.844252
-1.52041
-2.49752
-3.84858
-5.49365
-7.36904
-9.29144
-11.1236
-12.6696
-13.9064
-14.8952
-15.8564
-16.9616
-18.2849
-19.7189
-21.2219
-22.5473
-23.8808
-24.7734
-0.160592
-0.0354654
-0.306992
-0.430562
-0.881893
-1.5719
-2.58724
-3.99106
-5.71273
-7.68245
-9.72568
-11.6964
-13.3944
-14.7866
-15.9264
-17.0465
-18.3385
-19.9021
-21.6351
-23.4952
-25.2006
-26.9285
-28.1877
-0.188468
-0.0515188
-0.313813
-0.448209
-0.913917
-1.61606
-2.66914
-4.12255
-5.91946
-7.98216
-10.1486
-12.2615
-14.119
-15.6715
-16.962
-18.2324
-19.6977
-21.4892
-23.5167
-25.7336
-27.8368
-29.9638
-31.6284
-0.216449
-0.0620359
-0.318199
-0.465549
-0.940477
-1.6541
-2.74333
-4.24338
-6.1133
-8.26751
-10.5582
-12.8164
-14.8394
-16.5561
-17.9953
-19.4044
-21.025
-23.0256
-25.3363
-27.9026
-30.4158
-32.9439
-35.0454
-0.24415
-0.0670247
-0.322519
-0.481827
-0.961618
-1.68651
-2.80907
-4.35294
-6.29267
-8.5369
-10.9522
-13.3589
-15.554
-17.4401
-19.0273
-20.5634
-22.317
-24.4994
-27.0695
-29.9639
-32.8825
-35.8069
-38.3548
-0.270526
-0.0672178
-0.32813
-0.496079
-0.977705
-1.71365
-2.8658
-4.45078
-6.45632
-8.78896
-11.3285
-13.8877
-16.2629
-18.3265
-20.0634
-21.714
-23.5716
-25.8952
-28.6802
-31.8584
-35.1475
-38.4476
-41.4253
-0.294617
-0.0638534
-0.335434
-0.507538
-0.989352
-1.73591
-2.91361
-4.53738
-6.60459
-9.0245
-11.6882
-14.4057
-16.971
-19.2236
-21.1142
-22.8656
-24.7893
-27.1946
-30.1221
-33.5059
-37.0927
-40.7205
-44.0846
-0.315407
-0.0585031
-0.344107
-0.516089
-0.997579
-1.75397
-2.95315
-4.61353
-6.7382
-9.2443
-12.0323
-14.9145
-17.682
-20.1379
-22.1885
-24.0254
-25.9664
-28.3707
-31.332
-34.7997
-38.5599
-42.4184
-46.0818
-0.332706
-0.0525058
-0.353493
-0.521523
-1.00273
-1.76814
-2.98551
-4.68129
-6.86008
-9.45202
-12.3648
-15.4188
-18.4009
-21.0759
-23.2933
-25.1968
-27.0937
-29.3873
-32.2331
-35.6089
-39.3537
-43.2789
-47.0838
-0.34554
-0.0471466
-0.362541
-0.525016
-1.00619
-1.7791
-3.01108
-4.73997
-6.96932
-9.64626
-12.6847
-15.9182
-19.1296
-22.0436
-24.4392
-26.3908
-28.1714
-30.2159
-32.7491
-35.7952
-39.265
-42.9949
-46.6744
-0.353854
-0.0429615
-0.369237
-0.523365
-1.00513
-1.78612
-3.03188
-4.79366
-7.06807
-9.82218
-12.9734
-16.3745
-19.8088
-22.9666
-25.5507
-27.5441
-29.1544
-30.8186
-32.8263
-35.2716
-38.1644
-41.3647
-44.5131
-0.36771
-0.0439228
-0.376703
-0.522097
-1.00491
-1.79405
-3.05263
-4.84427
-7.15669
-9.97732
-13.2259
-16.78
-20.4274
-23.8321
-26.6179
-28.6546
-30.0498
-31.1996
-32.4398
-33.9668
-35.9492
-38.2724
-40.4827
-0.37523
-0.0437522
-0.380453
-0.519074
-1.00522
-1.80556
-3.08063
-4.90609
-7.25937
-10.1486
-13.494
-17.2009
-21.0625
-24.7215
-27.7189
-29.7906
-30.9184
-31.4199
-31.6663
-32.0239
-32.8761
-34.1058
-35.1593
-0.37568
-0.041631
-0.379588
-0.514276
-1.00553
-1.81874
-3.11166
-4.97072
-7.36336
-10.3179
-13.7551
-17.6117
-21.6877
-25.6125
-28.8422
-30.9624
-31.8057
-31.5811
-30.6964
-29.7674
-29.3952
-29.3995
-29.2172
-0.372982
-0.038755
-0.376121
-0.509531
-1.00679
-1.83318
-3.14344
-5.03303
-7.46099
-10.4746
-13.9976
-18.0005
-22.2943
-26.5021
-29.9986
-32.2074
-32.7941
-31.8401
-29.8051
-27.6083
-25.9956
-24.7041
-23.2713
-0.369809
-0.0360482
-0.372236
-0.506926
-1.01076
-1.85009
-3.17674
-5.09307
-7.55266
-10.6195
-14.2237
-18.3714
-22.8892
-27.4025
-31.2136
-33.5824
-33.9942
-32.3956
-29.3101
-25.9367
-23.1035
-20.544
-17.9065
-0.367567
-0.0338848
-0.369456
-0.507621
-1.01844
-1.8702
-3.21241
-5.15214
-7.64109
-10.7568
-14.4402
-18.7321
-23.4822
-28.326
-32.5118
-35.1457
-35.5245
-33.4574
-29.5112
-25.0743
-21.1294
-17.4908
-13.7875
-0.367251
-0.0324829
-0.368607
-0.511562
-1.02933
-1.89257
-3.24941
-5.20943
-7.72628
-10.8873
-14.6485
-19.0835
-24.0731
-29.2731
-33.903
-36.9397
-37.4908
-35.2207
-30.668
-25.3476
-20.5757
-16.1556
-11.5579
-0.369399
-0.0318409
-0.369739
-0.517706
-1.0418
-1.91503
-3.28523
-5.26258
-7.80598
-11.0089
-14.8464
-19.4222
-24.6571
-30.2387
-35.3892
-38.996
-39.9928
-37.8666
-33.0437
-27.2177
-22.051
-17.1164
-11.7312
-0.373795
-0.0316727
-0.372262
-0.524495
-1.05387
-1.93527
-3.31734
-5.30933
-7.8778
-11.1193
-15.0305
-19.7432
-25.2269
-31.2143
-36.9661
-41.3354
-43.1181
-41.567
-36.9739
-31.3222
-26.3284
-21.1648
-15.2261
-0.379564
-0.0314547
-0.37524
-0.530422
-1.0639
-1.95173
-3.34433
-5.34892
-7.94109
-11.2184
-15.2
-20.0448
-25.7788
-32.1943
-38.6302
-43.9727
-46.9396
-46.5067
-42.8881
-38.3754
-34.3467
-29.596
-23.8024
-0.385628
-0.0307315
-0.377838
-0.534492
-1.07109
-1.96405
-3.36629
-5.38232
-7.99705
-11.3078
-15.3559
-20.3267
-26.3098
-33.1723
-40.3736
-46.9089
-51.4984
-52.8549
-51.1785
-48.8324
-46.565
-43.0208
-38.204
-0.391099
-0.0292558
-0.37955
-0.536409
-1.07555
-1.97298
-3.38452
-5.41176
-8.04822
-11.3906
-15.501
-20.5907
-26.8183
-34.1417
-42.1844
-50.129
-56.7931
-60.6999
-61.9683
-62.5402
-62.419
-60.3761
-56.8004
-0.395504
-0.0270805
-0.380288
-0.536472
-1.07803
-1.97991
-3.4009
-5.43976
-8.09727
-11.4697
-15.6372
-20.8372
-27.3008
-35.0912
-44.0394
-53.5914
-62.7586
-69.9794
-75.0049
-78.7453
-80.648
-79.9358
-77.3431
-0.398728
-0.0244172
-0.380223
-0.535311
-1.07954
-1.98632
-3.41717
-5.4684
-8.14621
-11.5469
-15.7659
-21.0657
-27.7522
-36.0063
-45.904
-57.2253
-69.2638
-80.4467
-89.6971
-96.4424
-99.9546
-100.186
-98.1556
-0.400936
-0.0215697
-0.379664
-0.533609
-1.08101
-1.99334
-3.43445
-5.4987
-8.19573
-11.6224
-15.8862
-21.2735
-28.1643
-36.867
-47.7287
-60.9274
-76.1245
-91.6932
-105.235
-114.594
-119.347
-120.288
-118.633
-0.402391
-0.018774
-0.378875
-0.53191
-1.083
-2.00154
-3.45309
-5.53063
-8.24535
-11.6953
-15.9964
-21.4568
-28.5284
-37.6509
-49.4544
-64.5699
-83.1126
-103.216
-120.775
-132.281
-138.026
-139.626
-138.508
-0.403396
-0.0162028
-0.378047
-0.530525
-1.08575
-2.01095
-3.47275
-5.56335
-8.29373
-11.7633
-16.0936
-21.6112
-28.8343
-38.3335
-51.015
-68.001
-89.9394
-114.5
-135.559
-148.744
-155.316
-157.597
-157.103
-0.40418
-0.0138943
-0.377236
-0.529553
-1.08916
-2.02121
-3.4927
-5.5956
-8.33928
-11.8246
-16.1754
-21.7329
-29.0733
-38.8908
-52.3437
-71.0609
-96.2619
-125.028
-148.937
-163.283
-170.39
-173.195
-173.343
-0.404934
-0.0118323
-0.37644
-0.528924
-1.09296
-2.03177
-3.51213
-5.62617
-8.3806
-11.8772
-16.2399
-21.8189
-29.2371
-39.2993
-53.3742
-73.6068
-101.759
-134.231
-160.339
-175.344
-182.613
-185.635
-186.079
-0.405741
-0.00991428
-0.375581
-0.528494
-1.09682
-2.04208
-3.53034
-5.65415
-8.4168
-11.9204
-16.2862
-21.8675
-29.32
-39.5379
-54.0484
-75.4951
-106.147
-141.594
-169.312
-184.62
-191.723
-194.761
-195.523
-0.40666
-0.00805149
-0.374596
-0.528084
-1.10043
-2.05172
-3.54688
-5.67905
-8.44764
-11.954
-16.3143
-21.8782
-29.3169
-39.5891
-54.3183
-76.5647
-109.148
-146.751
-175.56
-190.971
-197.81
-200.803
-201.602
-0.407671
-0.00611807
-0.373408
-0.527552
-1.10358
-2.06043
-3.56162
-5.70081
-8.47332
-11.9783
-16.3248
-21.8512
-29.2249
-39.4417
-54.1351
-76.6996
-110.545
-149.514
-179.029
-194.554
-201.181
-204.064
-204.726
-0.408764
-0.00406907
-0.372001
-0.526788
-1.10616
-2.06814
-3.57467
-5.71978
-8.4946
-11.9946
-16.3192
-21.7879
-29.0437
-39.0862
-53.4527
-75.8477
-110.173
-149.772
-179.658
-195.252
-201.632
-204.257
-204.86
-0.409801
-0.00175679
-0.370297
-0.525704
-1.10813
-2.07492
-3.58634
-5.73653
-8.5124
-12.0041
-16.2993
-21.6903
-28.7747
-38.5193
-52.2587
-73.9817
-107.897
-147.464
-177.404
-192.885
-198.875
-200.775
-200.61
-0.410544
0.000651982
-0.368321
-0.524228
-1.10951
-2.08102
-3.59748
-5.75285
-8.5302
-12.013
-16.2761
-21.5785
-28.4553
-37.8118
-50.6863
-71.2405
-103.938
-142.976
-172.836
-188.022
-193.411
-194.668
-194.227
-0.413144
0.00243943
-0.366853
-0.52267
-1.11066
-2.08722
-3.61
-5.77277
-8.55586
-12.0364
-16.2782
-21.5074
-28.1903
-37.153
-49.1115
-68.2073
-99.2445
-137.424
-167.099
-181.826
-186.601
-187.401
-186.59
-0.414982
0.00498755
-0.364613
-0.520069
-1.11113
-2.09377
-3.62536
-5.79959
-8.59542
-12.0846
-16.3243
-21.5133
-28.055
-36.69
-47.8706
-65.531
-94.8577
-131.899
-161.113
-175.285
-179.756
-180.181
-178.745
-0.415808
0.008413
-0.361357
-0.516221
-1.11088
-2.1009
-3.64414
-5.83406
-8.64939
-12.1572
-16.4126
-21.5936
-28.0541
-36.4627
-47.0558
-63.45
-91.2071
-126.94
-155.371
-169.021
-173.118
-172.815
-170.867
-0.415929
0.0123542
-0.35728
-0.511381
-1.11031
-2.10909
-3.66671
-5.87596
-8.71605
-12.2495
-16.5334
-21.7299
-28.1635
-36.4573
-46.6444
-62.0171
-88.429
-122.819
-150.187
-163.191
-166.444
-165.307
-162.817
-0.415366
0.0166045
-0.352536
-0.505926
-1.10994
-2.11898
-3.69357
-5.92522
-8.79378
-12.357
-16.6769
-21.9032
-28.3516
-36.621
-46.5584
-61.1912
-86.4639
-119.534
-145.632
-157.633
-159.737
-157.895
-155.001
-0.414166
0.0209783
-0.347409
-0.500352
-1.11035
-2.131
-3.72455
-5.98046
-8.87905
-12.4729
-16.8301
-22.0919
-28.5799
-36.8755
-46.6967
-60.8606
-85.1492
-116.922
-141.626
-152.321
-153.361
-151.015
-147.805
-0.412388
0.0253044
-0.342131
-0.495078
-1.11204
-2.14566
-3.75998
-6.04174
-8.97118
-12.5957
-16.989
-22.2903
-28.8334
-37.1906
-47.0189
-60.9581
-84.4129
-114.93
-138.234
-147.502
-147.626
-144.868
-141.406
-0.410529
0.0294628
-0.337098
-0.490438
-1.11525
-2.16295
-3.79923
-6.10763
-9.06739
-12.721
-17.1458
-22.4854
-29.0805
-37.5112
-47.4178
-61.2384
-83.8547
-112.901
-134.567
-142.381
-141.755
-138.657
-135.06
-0.407754
0.0340043
-0.331339
-0.485489
-1.11851
-2.1804
-3.83803
-6.17099
-9.1561
-12.8306
-17.2715
-22.6335
-29.2515
-37.7363
-47.7456
-61.4545
-83.2449
-110.785
-130.766
-137.287
-136.123
-132.851
-129.239
-0.405175
0.0379029
-0.326427
-0.481964
-1.12366
-2.19983
-3.87789
-6.23299
-9.23802
-12.9252
-17.3655
-22.7309
-29.3298
-37.8377
-47.9235
-61.4521
-82.356
-108.287
-126.546
-132.028
-130.549
-127.339
-123.797
-0.402945
0.0410614
-0.322579
-0.480057
-1.13069
-2.22095
-3.9183
-6.29324
-9.31349
-13.0068
-17.4327
-22.7841
-29.3221
-37.8172
-47.9063
-61.1545
-81.0642
-105.215
-121.729
-126.375
-124.686
-121.567
-118.054
-0.400953
0.043797
-0.319415
-0.479069
-1.13853
-2.24227
-3.95732
-6.34967
-9.38079
-13.0746
-17.4753
-22.798
-29.2416
-37.6799
-47.693
-60.5535
-79.3349
-101.559
-116.344
-120.337
-118.45
-115.348
-111.757
-0.399148
0.0463635
-0.316621
-0.478458
-1.14634
-2.26264
-3.99368
-6.40113
-9.43948
-13.1293
-17.4972
-22.7795
-29.111
-37.4364
-47.3108
-59.6843
-77.2122
-97.4308
-110.526
-113.928
-111.803
-108.659
-104.925
-0.397585
0.04885
-0.314035
-0.477837
-1.15361
-2.28154
-4.02704
-6.44781
-9.49108
-13.1743
-17.5056
-22.738
-28.954
-37.1035
-46.791
-58.5815
-74.7789
-92.9616
-104.407
-107.176
-104.79
-101.551
-97.7816
-0.396193
0.0514013
-0.311412
-0.476905
-1.16001
-2.29875
-4.05757
-6.49049
-9.53768
-13.213
-17.507
-22.6821
-28.7797
-36.7
-46.1632
-57.3023
-72.1325
-88.2712
-98.1012
-100.181
-97.5384
-94.1764
-90.4811
-0.394896
0.0541079
-0.308551
-0.475387
-1.16531
-2.31422
-4.08565
-6.53014
-9.58121
-13.2486
-17.507
-22.6192
-28.5915
-36.253
-45.4546
-55.9329
-69.3768
-83.4825
-91.7326
-93.0666
-90.2055
-86.7095
-83.0667
-0.393561
0.0570592
-0.3053
-0.473223
-1.16958
-2.32826
-4.11196
-6.5678
-9.62332
-13.2828
-17.5088
-22.5551
-28.3976
-35.7922
-44.6846
-54.5359
-66.5988
-78.7055
-85.4128
-85.9454
-82.9028
-79.2359
-75.5888
-0.392173
0.0602025
-0.3017
-0.47051
-1.17308
-2.34136
-4.13732
-6.60455
-9.66537
-13.3173
-17.5147
-22.4945
-28.2152
-35.3467
-43.8736
-53.131
-63.8499
-74.0197
-79.2684
-78.9362
-75.7053
-71.8404
-68.1571
-0.390699
0.0634873
-0.297848
-0.467517
-1.17622
-2.35414
-4.16252
-6.64127
-9.70811
-13.3526
-17.5246
-22.4394
-28.0552
-34.9374
-43.0443
-51.7092
-61.1409
-69.451
-73.3068
-72.1043
-68.6745
-64.6375
-60.8651
-0.389201
0.0667879
-0.293929
-0.464484
-1.17937
-2.36706
-4.18806
-6.67832
-9.75156
-13.3882
-17.537
-22.3882
-27.9128
-34.563
-42.2116
-50.2537
-58.4491
-65.002
-67.5546
-65.5553
-61.7657
-57.6548
-53.8342
-0.387672
0.0700611
-0.290052
-0.461639
-1.18281
-2.38038
-4.21406
-6.71553
-9.79487
-13.4227
-17.5481
-22.3349
-27.7691
-34.1933
-41.3667
-48.7414
-55.7346
-60.6116
-62.0877
-59.3486
-54.9651
-50.8289
-47.1305
-0.38617
0.0732305
-0.286331
-0.459066
-1.18661
-2.39408
-4.24027
-6.75227
-9.8367
-13.4539
-17.5531
-22.2723
-27.6022
-33.7885
-40.484
-47.1485
-52.9736
-56.3074
-56.7615
-53.2001
-48.3548
-44.2265
-40.7743
-0.384668
0.0763163
-0.282772
-0.456814
-1.19076
-2.408
-4.26622
-6.78769
-9.87549
-13.4794
-17.5474
-22.192
-27.3932
-33.3177
-39.5346
-45.4521
-50.143
-52.0923
-51.4326
-47.1509
-42.1169
-37.9855
-34.5885
-0.383209
0.0792919
-0.2794
-0.454813
-1.19511
-2.42183
-4.29139
-6.821
-9.90989
-13.4975
-17.5272
-22.0877
-27.1304
-32.7674
-38.4987
-43.6366
-47.2202
-47.8802
-46.1846
-41.4136
-36.3754
-32.3363
-28.7722
-0.381749
0.0822119
-0.276154
-0.453023
-1.19954
-2.43533
-4.31532
-6.85153
-9.93896
-13.5067
-17.4901
-21.9551
-26.8086
-32.135
-37.366
-41.6937
-44.2007
-43.6255
-41.0427
-35.9741
-30.9778
-27.1934
-23.8568
-0.380327
0.0850624
-0.273031
-0.451337
-1.20387
-2.44824
-4.33766
-6.87894
-9.96226
-13.5067
-17.4356
-21.7932
-26.4294
-31.4256
-36.1361
-39.6296
-41.1057
-39.3883
-36.007
-30.7859
-25.8309
-22.1989
-19.2304
-0.37889
0.0878988
-0.269962
-0.449721
-1.20803
-2.46044
-4.35826
-6.90309
-9.97975
-13.4975
-17.3641
-21.603
-25.9993
-30.6461
-34.8124
-37.4627
-37.9742
-35.2806
-31.15
-25.8906
-21.0373
-17.3778
-14.5226
-0.377478
0.0906969
-0.266956
-0.448098
-1.21193
-2.47182
-4.37704
-6.92404
-9.99171
-13.4798
-17.2772
-21.388
-25.5282
-29.8063
-33.4076
-35.2228
-34.8519
-31.4201
-26.6198
-21.3485
-16.7028
-13.0161
-10.0528
-0.376038
0.0935014
-0.263961
-0.446477
-1.21556
-2.48242
-4.39408
-6.94196
-9.9985
-13.4542
-17.1763
-21.1515
-25.0257
-28.9129
-31.9358
-32.941
-31.7738
-27.8632
-22.5792
-17.2453
-12.8296
-9.21351
-6.21826
-0.374616
0.0962741
-0.261005
-0.444819
-1.21889
-2.49222
-4.40946
-6.95702
-10.0005
-13.4211
-17.0631
-20.8973
-24.5008
-27.9712
-30.4052
-30.6528
-28.7706
-24.5482
-19.0056
-13.6437
-9.41267
-5.88216
-2.94172
-0.373153
0.0990502
-0.258053
-0.443165
-1.22199
-2.50132
-4.42328
-6.96934
-9.99778
-13.3806
-16.938
-20.627
-23.9599
-26.9949
-28.8319
-28.3963
-25.8753
-21.4281
-15.768
-10.481
-6.3427
-2.88511
-0.0786028
-0.371701
0.101782
-0.255147
-0.441496
-1.22483
-2.50973
-4.4356
-6.97898
-9.99048
-13.3326
-16.8014
-20.3412
-23.4069
-26.002
-27.2512
-26.207
-23.1215
-18.5211
-12.8338
-7.69196
-3.65385
-0.294726
2.31582
-0.3702
0.104502
-0.252259
-0.439868
-1.22749
-2.51751
-4.44646
-6.98585
-9.97832
-13.2766
-16.6524
-20.0387
-22.8401
-24.9942
-25.6939
-24.1071
-20.5373
-15.8435
-10.264
-5.27486
-1.38239
1.79195
4.16405
-0.368707
0.10716
-0.249434
-0.438262
-1.22995
-2.52465
-4.45582
-6.98979
-9.96094
-13.2117
-16.4903
-19.7182
-22.2563
-23.9648
-24.1714
-22.108
-18.1501
-13.405
-8.04053
-3.25005
0.494684
3.44305
5.59689
-0.367156
0.109789
-0.246643
-0.436733
-1.23227
-2.53118
-4.46362
-6.99054
-9.93781
-13.1371
-16.3134
-19.3769
-21.6524
-22.9123
-22.6776
-20.2087
-15.9818
-11.2285
-6.0907
-1.54729
2.04247
4.75327
6.71209
-0.365607
0.112338
-0.243932
-0.435254
-1.2344
-2.53702
-4.46971
-6.98779
-9.90837
-13.0518
-16.1204
-19.0124
-21.0282
-21.8478
-21.2103
-18.4063
-14.0143
-9.31899
-4.35941
-0.0840951
3.26969
5.75561
7.53758
-0.363992
0.114847
-0.241264
-0.433873
-1.23639
-2.54215
-4.47397
-6.98118
-9.87198
-12.9548
-15.9099
-18.6223
-20.3838
-20.7849
-19.775
-16.7051
-12.1938
-7.63843
-2.84065
1.14172
4.20945
6.47391
8.08268
-0.362376
0.117265
-0.238684
-0.43255
-1.23816
-2.54647
-4.47618
-6.97038
-9.82809
-12.8454
-15.6811
-18.2059
-19.7206
-19.7364
-18.3846
-15.1205
-10.526
-6.1211
-1.53442
2.12247
4.91576
6.96562
8.40487
-0.360684
0.119634
-0.23615
-0.431326
-1.23975
-2.54993
-4.47619
-6.95502
-9.77617
-12.723
-15.4335
-17.7628
-19.0391
-18.71
-17.0506
-13.6608
-9.04058
-4.74331
-0.42896
2.90211
5.43427
7.26878
8.55839
-0.358988
0.121906
-0.233704
-0.430153
-1.24106
-2.55239
-4.47377
-6.9348
-9.71581
-12.5873
-15.1675
-17.2949
-18.3416
-17.71
-15.7831
-12.3223
-7.73073
-3.53707
0.485561
3.50624
5.78147
7.42134
8.57446
-0.357204
0.124126
-0.231301
-0.429066
-1.2421
-2.5538
-4.46875
-6.90941
-9.64662
-12.4379
-14.8833
-16.8039
-17.6296
-16.7347
-14.586
-11.0924
-6.5818
-2.52686
1.20901
3.93675
5.9763
7.44381
8.4722
-0.355411
0.126245
-0.22898
-0.428008
-1.24279
-2.55401
-4.46092
-6.87859
-9.56839
-12.2752
-14.5822
-16.293
-16.9058
-15.7787
-13.46
-9.96407
-5.59264
-1.70258
1.7468
4.20117
6.03719
7.35469
8.27285
-0.353518
0.12831
-0.226692
-0.42701
-1.24312
-2.55296
-4.45014
-6.84212
-9.48089
-12.099
-14.2652
-15.7647
-16.1729
-14.8367
-12.3973
-8.938
-4.76117
-1.04325
2.11639
4.33041
5.98136
7.16176
7.99416
-0.351606
0.130271
-0.224477
-0.426012
-1.24301
-2.55051
-4.43618
-6.79978
-9.384
-11.9098
-13.9341
-15.2223
-15.4366
-13.913
-11.3878
-8.01573
-4.06747
-0.539151
2.34402
4.34514
5.83625
6.90073
7.65468
-0.349584
0.13217
-0.222282
-0.425046
-1.24245
-2.54663
-4.41899
-6.75148
-9.27775
-11.7078
-13.5904
-14.6688
-14.7006
-13.0188
-10.4307
-7.19801
-3.494
-0.17408
2.45347
4.26745
5.62174
6.58842
7.26961
-0.347527
0.133991
-0.220143
-0.424048
-1.24135
-2.54111
-4.39821
-6.69676
-9.16169
-11.4931
-13.2353
-14.1083
-13.9654
-12.1648
-9.52686
-6.45546
-3.00648
0.0842183
2.46825
4.11548
5.35352
6.23053
6.84708
-0.345439
0.135702
-0.21804
-0.423165
-1.24006
-2.53467
-4.375
-6.63721
-9.03783
-11.2678
-12.8734
-13.5534
-13.238
-11.3553
-8.69883
-5.8379
-2.62776
0.239269
2.39015
3.89512
5.03331
5.83995
6.40696
-0.343548
0.137694
-0.215975
-0.422453
-1.23864
-2.52649
-4.34632
-6.56592
-8.89463
-11.0175
-12.4807
-12.9666
-12.4855
-10.5668
-7.86446
-5.08984
-2.1379
0.440561
2.34521
3.70461
4.73711
5.48008
6.00706
-0.338614
0.141546
-0.211054
-0.419024
-1.23199
-2.50788
-4.29818
-6.46276
-8.70575
-10.7139
-12.0498
-12.3824
-11.7864
-9.92195
-7.31333
-4.71314
-2.05113
0.290719
2.06697
3.35337
4.32051
5.0252
5.53047
-0.33499
0.144037
-0.207283
-0.416561
-1.22355
-2.48148
-4.23177
-6.32717
-8.46775
-10.3438
-11.5552
-11.7577
-11.0759
-9.30181
-6.86055
-4.44289
-2.06117
0.0513287
1.71046
2.9287
3.84355
4.51897
5.0067
-0.332986
0.144296
-0.205779
-0.416637
-1.21527
-2.44975
-4.15008
-6.16244
-8.1842
-9.90726
-10.9817
-11.0587
-10.3032
-8.6117
-6.34689
-4.09855
-1.97806
-0.11528
1.37926
2.49606
3.34852
3.98123
4.44648
-0.331289
0.143142
-0.205591
-0.418001
-1.20536
-2.41011
-4.04945
-5.9633
-7.84997
-9.40429
-10.3292
-10.2908
-9.47501
-7.8563
-5.76216
-3.69697
-1.83226
-0.220089
1.08306
2.07934
2.8493
3.42596
3.86103
-0.328957
0.141261
-0.205797
-0.419347
-1.19167
-2.35913
-3.92498
-5.72324
-7.45839
-8.83322
-9.60051
-9.46477
-8.61012
-7.07649
-5.15972
-3.2995
-1.67825
-0.299182
0.817347
1.6869
2.36383
2.87762
3.27064
-0.326037
0.138685
-0.206166
-0.419842
-1.17267
-2.29439
-3.7736
-5.43917
-7.00671
-8.19214
-8.79439
-8.57661
-7.71388
-6.29609
-4.58075
-2.93569
-1.53339
-0.362703
0.583091
1.32535
1.90847
2.35431
2.70015
-0.322302
0.135537
-0.206354
-0.418893
-1.1472
-2.21412
-3.59351
-5.11039
-6.49532
-7.48203
-7.91476
-7.62542
-6.79145
-5.52037
-4.02898
-2.60215
-1.4001
-0.410777
0.382065
1.00758
1.50168
1.88319
2.18271
-0.317729
0.131931
-0.205969
-0.415624
-1.11384
-2.11647
-3.38313
-4.73707
-5.92745
-6.71166
-6.98113
-6.63321
-5.85637
-4.75204
-3.48765
-2.27739
-1.26195
-0.432597
0.228071
0.752471
1.16753
1.48973
1.7445
-0.312066
0.128034
-0.204529
-0.409335
-1.07138
-1.99992
-3.14159
-4.32084
-5.31034
-5.89839
-6.02399
-5.63739
-4.92878
-3.99283
-2.94535
-1.94013
-1.09495
-0.4063
0.140137
0.574602
0.920381
1.19177
1.40677
-0.305619
0.123665
-0.20194
-0.399434
-1.01892
-1.86374
-2.86982
-3.86684
-4.657
-5.06577
-5.07444
-4.67052
-4.03347
-3.24972
-2.39909
-1.57967
-0.88605
-0.320082
0.128713
0.488067
0.774476
1.00015
1.17996
-0.298403
0.11872
-0.19806
-0.385612
-0.956066
-1.70844
-2.57129
-3.38449
-3.98533
-4.23912
-4.15932
-3.75592
-3.19072
-2.5392
-1.85511
-1.19756
-0.635046
-0.172704
0.195356
0.490236
0.726538
0.914322
1.06369
-0.290719
0.11295
-0.192867
-0.36736
-0.882641
-1.5356
-2.25204
-2.88713
-3.31622
-3.44295
-3.30151
-2.91312
-2.41785
-1.87893
-1.3313
-0.808713
-0.357317
0.0171943
0.318087
0.561961
0.756993
0.912815
1.03716
-0.282287
0.106553
-0.185884
-0.344094
-0.798756
-1.34802
-1.92035
-2.39048
-2.67119
-2.69978
-2.52145
-2.15953
-1.73158
-1.28863
-0.851516
-0.438344
-0.0784518
0.223381
0.468104
0.667735
0.828253
0.957841
1.06225
-0.273118
0.0996051
-0.176647
-0.315
-0.70488
-1.14973
-1.58623
-1.91119
-2.07057
-2.02923
-1.83581
-1.50948
-1.14478
-0.78353
-0.436404
-0.110209
0.175538
0.417935
0.617304
0.780315
0.91153
1.01896
1.10759
-0.26271
0.0927615
-0.164331
-0.279549
-0.602383
-0.946266
-1.26078
-1.46519
-1.53177
-1.44585
-1.25492
-0.970235
-0.664252
-0.371601
-0.0971562
0.158731
0.385175
0.579791
0.742466
0.877536
0.986894
1.07701
1.15245
-0.251078
0.0863221
-0.148453
-0.237596
-0.493749
-0.744533
-0.955358
-1.06612
-1.06741
-0.957823
-0.781275
-0.54096
-0.289103
-0.0544828
0.161147
0.360731
0.53934
0.695191
0.826699
0.936894
1.02732
1.10295
1.16654
-0.23766
0.0811
-0.128513
-0.189974
-0.382844
-0.552338
-0.68024
-0.723851
-0.684222
-0.566781
-0.410929
-0.214177
-0.0113357
0.173757
0.34121
0.49526
0.635517
0.759584
0.864396
0.952104
1.02474
1.08628
1.13763
-0.222613
0.0773454
-0.104801
-0.138415
-0.274531
-0.377388
-0.44345
-0.443413
-0.38275
-0.268664
-0.135896
0.0209858
0.18073
0.323946
0.452065
0.569231
0.677647
0.774402
0.856438
0.924954
0.982144
1.03091
1.07112
-0.205488
0.0756432
-0.0779313
-0.0857261
-0.174139
-0.226211
-0.249691
-0.225057
-0.158172
-0.0549031
0.0547443
0.176626
0.299653
0.408181
0.504242
0.591348
0.672969
0.745659
0.807237
0.858728
0.902017
0.938784
0.968468
-0.186616
0.0758344
-0.0494535
-0.0352621
-0.0864968
-0.103088
-0.100101
-0.0647488
-0.00161694
0.0865801
0.174614
0.267112
0.359947
0.440866
0.512032
0.575589
0.635351
0.688353
0.733563
0.771523
0.803403
0.830215
0.85149
-0.165966
0.0778256
-0.0211969
0.0095425
-0.0152055
-0.00953315
0.00758412
0.044653
0.0985187
0.169924
0.238774
0.307684
0.376613
0.436068
0.488512
0.533946
0.576329
0.613818
0.646121
0.673119
0.695598
0.714281
0.728805
-0.144135
0.0807949
0.00461729
0.0457913
0.0380546
0.0555244
0.07832
0.112014
0.154705
0.209508
0.26173
0.312036
0.362523
0.40559
0.443982
0.475495
0.504704
0.530707
0.552953
0.571121
0.586103
0.598377
0.607904
-0.121787
0.0838965
0.0259685
0.0718129
0.0733477
0.0953477
0.118474
0.146665
0.178571
0.218548
0.25661
0.2923
0.328747
0.359812
0.387611
0.408675
0.428458
0.446093
0.460555
0.472079
0.481556
0.489446
0.495772
-0.0997903
0.0858179
0.0416017
0.0869397
0.0924212
0.114309
0.13491
0.157142
0.179955
0.207747
0.234302
0.258621
0.284469
0.307138
0.326703
0.340379
0.354123
0.36571
0.374663
0.381559
0.387405
0.392901
0.397648
-0.0795041
0.085748
0.0506644
0.0919358
0.0976775
0.117155
0.133906
0.150676
0.166289
0.18469
0.202181
0.217695
0.235136
0.251322
0.264005
0.272465
0.281402
0.287942
0.292513
0.295846
0.299182
0.302844
0.306262
-0.0615338
0.0828151
0.0532709
0.0880232
0.0919829
0.107952
0.12071
0.132815
0.143211
0.154868
0.165847
0.175046
0.186331
0.197547
0.205198
0.210735
0.216278
0.21961
0.221715
0.223332
0.225387
0.228033
0.230806
-0.0469761
0.076697
0.0497189
0.0765599
0.0775571
0.0895438
0.0983193
0.106319
0.112685
0.119403
0.125553
0.130108
0.136842
0.143899
0.147644
0.150852
0.153792
0.155162
0.155764
0.156222
0.157206
0.158946
0.161068
-0.0356843
0.068353
0.0417746
0.0601121
0.0575718
0.0654458
0.0704209
0.0748511
0.0781336
0.0814034
0.0842414
0.0858767
0.0895554
0.0934896
0.0953789
0.0977505
0.099611
0.100495
0.100975
0.101324
0.102208
0.103869
0.105982
-0.0309967
0.0538952
0.0267968
0.0376213
0.0316723
0.0353227
0.0359402
0.0357678
0.0345266
0.0329909
0.0306162
0.026758
0.024409
0.0209134
0.0145143
0.00814125
0.00305279
0.000173849
-0.00132778
-0.00210229
-0.00201906
-0.00104209
0.00044926
-0.0187865
0.0461255
0.0221985
0.0257824
0.0190841
0.0222964
0.0236542
0.0255529
0.0275198
0.029869
0.0327597
0.036019
0.0413847
0.0485765
0.0569715
0.0647496
0.0678742
0.0661358
0.0624117
0.0595813
0.0580759
0.05755
0.0575765
2.051
2.08783
2.314
2.72961
3.25955
3.92435
4.76105
5.81779
7.13795
8.7535
10.6875
12.9443
15.5204
18.3862
21.4852
24.7214
27.9742
31.1096
34.006
36.57
38.7573
40.5513
42.0206
2.01514
2.0896
2.29286
2.67996
3.18635
3.82566
4.63322
5.65255
6.92638
8.48889
10.3636
12.5549
15.0521
17.818
20.7862
23.8575
26.9121
29.8233
32.4797
34.8012
36.7537
38.3344
39.6124
1.96721
2.06788
2.25128
2.60499
3.08002
3.68338
4.44767
5.41228
6.61817
8.10098
9.88564
11.978
14.3638
17.0006
19.8161
22.7086
25.5595
28.2489
30.6749
32.7693
34.5071
35.8958
37.0025
1.90566
2.01603
2.18184
2.49774
2.93317
3.48989
4.19628
5.08797
6.20344
7.57878
9.24069
11.1976
13.4353
15.9103
18.5478
21.2461
23.8894
26.3634
28.5748
30.4646
32.0153
33.2417
34.2078
1.8274
1.92835
2.07696
2.35148
2.7386
3.2376
3.87124
4.67108
5.67307
6.91287
8.41927
10.2042
12.2566
14.5356
16.9687
19.4565
21.8884
24.1558
26.1722
27.8852
29.2816
30.3806
31.2419
1.72276
1.80024
1.92901
2.15908
2.48899
2.91839
3.46365
4.15183
5.01591
6.09117
7.40817
8.98372
10.8123
12.8599
15.0609
17.3236
19.5444
21.621
23.4716
25.0473
26.3354
27.3533
28.153
1.57121
1.62701
1.73096
1.91289
2.17716
2.524
2.96373
3.51794
4.21662
5.09471
6.18569
7.51249
9.07821
10.8589
12.7996
14.8204
16.8281
18.7284
20.4446
21.9292
23.1668
24.1684
24.973
1.34872
1.40134
1.47596
1.60559
1.79681
2.04767
2.36246
2.75708
3.25904
3.90477
4.73345
5.77722
7.05076
8.54227
10.2091
11.983
13.7806
15.5163
17.1189
18.5417
19.7656
20.7923
21.6483
1.99108
1.71279
2.37817
2.85395
3.45343
4.2099
5.09759
6.26318
7.68714
9.34978
11.3007
13.4646
15.9481
18.7526
21.9023
25.2977
28.7936
32.2086
35.3806
38.1947
40.5883
42.5657
44.1432
2.00591
1.72951
2.38859
2.86343
3.45843
4.21298
5.10025
6.26415
7.6888
9.36198
11.3331
13.5453
16.0975
18.9991
22.2666
25.8048
29.4698
33.0837
36.4829
39.5436
42.1917
44.4167
46.2208
2.02159
1.74598
2.39925
2.87551
3.46701
4.21957
5.10689
6.26797
7.69118
9.37097
11.3553
13.6053
16.2118
19.1914
22.5538
26.2069
30.0084
33.7841
37.371
40.639
43.5064
45.9476
47.9573
2.03789
1.76139
2.40716
2.88729
3.47667
4.22727
5.11566
6.27374
7.69466
9.37819
11.3699
13.6473
16.2937
19.3321
22.7661
26.506
30.411
34.3099
38.0416
41.4723
44.5154
47.1324
49.3147
2.05497
1.77643
2.41043
2.8959
3.48387
4.23229
5.12218
6.27734
7.69576
9.38148
11.3768
13.6729
16.3465
19.4253
22.9081
26.7071
30.6825
34.6659
38.498
42.0433
45.2134
47.9589
50.2723
2.07231
1.79237
2.40834
2.89938
3.48661
4.23288
5.1251
6.27795
7.69454
9.38205
11.3788
13.6862
16.375
19.476
22.985
26.8153
30.8288
34.8586
38.7474
42.359
45.6051
48.4287
50.8261
2.08936
1.81132
2.40228
2.89775
3.48379
4.22743
5.12216
6.27305
7.68847
9.37831
11.3764
13.6914
16.3875
19.4967
23.012
26.8484
30.8691
34.9091
38.8125
42.443
45.7141
48.5645
50.9966
2.10522
1.83427
2.39353
2.89195
3.4756
4.21492
5.11094
6.25898
7.67278
9.36478
11.3647