/*--------------------------------*- C++ -*----------------------------------*\
  =========                 |
  \\      /  F ield         | OpenFOAM: The Open Source CFD Toolbox
   \\    /   O peration     | Website:  https://openfoam.org
    \\  /    A nd           | Version:  7
     \\/     M anipulation  |
\*---------------------------------------------------------------------------*/
FoamFile
{
    version     2.0;
    format      ascii;
    class       surfaceScalarField;
    location    "83";
    object      phi;
}
// * * * * * * * * * * * * * * * * * * * * * * * * * * * * * * * * * * * * * //

dimensions      [0 3 -1 0 0 0 0];

internalField   nonuniform List<scalar> 
25449
(
66.3823
55.7625
-32.173
49.2638
41.5785
-24.46
36.7284
31.1448
-18.6095
27.4828
23.4156
-14.17
20.624
17.6621
-10.8034
15.5122
13.363
-8.25118
11.6883
10.1397
-6.31588
8.81968
7.71567
-4.84703
6.66303
5.88718
-3.73054
5.03929
4.50382
-2.88009
3.8158
3.45402
-2.23054
2.89375
2.65489
-1.73285
2.19918
2.04468
-1.35011
1.67644
1.57732
-1.05458
1.28352
1.21833
-0.825418
0.988641
0.941797
-0.646916
0.767678
0.728199
-0.507237
0.602352
0.562811
-0.397486
0.478812
0.434532
-0.310992
0.386578
0.334967
-0.242731
0.317742
0.257724
-0.188888
0.266353
0.197874
-0.146484
0.151653
-0.113288
0.227988
50.8812
73.4911
37.9157
54.5439
28.3629
40.6975
21.2826
30.4959
16.0094
22.9353
12.067
17.3055
9.11026
13.0964
6.88756
9.93838
5.21373
7.56101
3.95191
5.76564
3.00038
4.40556
2.28311
3.37216
1.74301
2.58478
1.33694
1.98338
1.03221
1.52306
0.803981
1.17003
0.633375
0.898806
0.506076
0.690111
0.411239
0.52937
0.340664
0.405541
0.288173
0.310216
0.249118
0.236929
0.18071
0.220061
38.0751
86.3603
28.5487
64.0702
21.4629
47.7833
16.1715
35.7872
12.2073
26.8995
9.22939
20.2834
6.98758
15.3383
5.29706
11.6289
4.02082
8.83725
3.05689
6.72957
2.32907
5.13337
1.78015
3.92106
1.36694
2.99799
1.05662
2.29371
0.824133
1.75554
0.650379
1.34378
0.520801
1.02838
0.424356
0.786554
0.35269
0.601034
0.299497
0.458734
0.260035
0.349676
0.230746
0.266218
0.202452
0.209003
28.1289
95.4017
21.2977
70.9013
16.1355
52.9455
12.2336
39.689
9.28283
29.8503
7.04976
22.5165
5.35875
17.0293
4.07751
12.9101
3.10654
9.80822
2.37099
7.46513
1.81445
5.68992
1.39425
4.34127
1.07791
3.31433
0.840553
2.53107
0.663013
1.93308
0.530574
1.47622
0.431996
1.12696
0.358758
0.859792
0.30443
0.655363
0.264169
0.498994
0.234344
0.379502
0.212235
0.288325
0.21885
0.195837
20.6731
101.51
15.8905
75.6838
12.179
56.6569
9.3187
42.5494
7.12353
32.0455
5.44344
24.1966
4.15997
18.3127
3.18067
13.8894
2.43434
10.5545
1.86644
8.03304
1.43534
6.12102
1.10918
4.66742
0.863465
3.56004
0.679162
2.71537
0.54146
2.07078
0.438871
1.57881
0.362592
1.20324
0.305958
0.916424
0.263959
0.69736
0.232837
0.530115
0.209777
0.40256
0.192682
0.30542
0.231541
0.179991
15.2106
105.406
11.957
78.9372
9.31725
59.2966
7.21978
44.6469
5.57407
33.6912
4.29373
25.4769
3.30347
19.303
2.54051
14.6524
1.95454
11.1405
1.50587
8.48172
1.16366
6.46323
0.903904
4.92718
0.70786
3.75609
0.560744
2.86249
0.450857
2.18067
0.369013
1.66065
0.308137
1.26411
0.262886
0.961675
0.229267
0.730979
0.204299
0.555081
0.185754
0.421104
0.171975
0.319197
0.241797
0.161718
11.2766
107.645
9.15075
81.063
7.29101
61.1563
5.74259
46.1953
4.48846
34.9453
3.4908
26.4745
2.70658
20.0872
2.09479
15.2642
1.62032
11.615
1.25414
8.84789
0.973095
6.74427
0.758739
5.14154
0.596452
3.91837
0.474451
2.98449
0.38324
2.27188
0.315234
1.72866
0.264547
1.31479
0.226746
0.999473
0.19854
0.759181
0.177492
0.576128
0.161779
0.436815
0.15005
0.330927
0.250572
0.141275
8.48084
108.652
7.18064
82.3631
5.8828
62.4541
4.72421
47.3539
3.74448
35.925
2.94281
27.2762
2.3001
20.7299
1.79129
15.773
1.39219
12.0141
1.08135
9.15874
0.841038
6.9846
0.656682
5.3259
0.516535
4.05853
0.410886
3.09015
0.331743
2.35103
0.272586
1.78782
0.228319
1.35906
0.195112
1.03268
0.170163
0.78413
0.151402
0.594889
0.137304
0.450913
0.126698
0.341532
0.258553
0.118718
6.00284
110.671
4.51618
83.8497
3.40939
63.5609
2.58555
48.1777
1.9682
36.5424
1.50384
27.7406
1.15298
21.0808
0.886555
16.0394
0.683605
12.2171
0.52873
9.31361
0.410736
7.10259
0.321251
5.41538
0.253953
4.12583
0.203796
3.1403
0.166681
2.38814
0.139252
1.81524
0.118894
1.37942
0.103674
1.0479
0.0922238
0.795577
0.083574
0.603537
0.0770281
0.457458
0.0720915
0.34647
0.262296
0.0683471
4.04781
112.043
3.04537
84.8521
2.30107
64.3052
1.74939
48.7294
1.33667
36.9551
1.02658
28.0507
0.792112
21.3153
0.6136
16.218
0.477074
12.3536
0.372383
9.41831
0.292257
7.18272
0.23129
5.47636
0.185424
4.17171
0.151333
3.1744
0.126233
2.41325
0.107752
1.83373
0.094016
1.39316
0.0836541
1.05826
0.0757386
0.803494
0.0696409
0.609635
0.0649284
0.462171
0.0613028
0.350094
0.265097
0.0585019
2.60219
112.932
1.95858
85.4956
1.48244
64.7813
1.13159
49.0802
0.869672
37.217
0.673167
28.2472
0.524292
21.4641
0.410387
16.3319
0.322636
12.4414
0.254764
9.48617
0.202373
7.23511
0.162248
5.51648
0.131991
4.20196
0.109558
3.19683
0.0931405
2.42966
0.0810925
1.84578
0.0720816
1.40217
0.0651507
1.06519
0.0596955
0.808946
0.055344
0.613984
0.0518589
0.465655
0.0490951
0.352858
0.267294
0.0468963
1.54605
113.466
1.16525
85.8764
0.884994
65.0616
0.680358
49.2849
0.528083
37.3693
0.414051
28.3612
0.327245
21.551
0.260154
16.3989
0.2077
12.4938
0.166429
9.52745
0.134016
7.26753
0.10884
5.54166
0.0897137
4.2211
0.0755433
3.21101
0.0652421
2.43997
0.0576975
1.85333
0.0519647
1.4079
0.0473779
1.06978
0.0435651
0.81276
0.0403426
0.617207
0.0376199
0.468377
0.0353645
0.355112
0.269159
0.0335
0.785718
113.743
0.594532
86.0675
0.455031
65.2011
0.355012
49.3849
0.281047
37.4432
0.225807
28.4164
0.183176
21.5936
0.149369
16.4328
0.121965
12.5212
0.0995283
9.54988
0.0811978
7.28585
0.0664928
5.55636
0.0550983
4.23249
0.0466208
3.21948
0.0405074
2.44608
0.0360304
1.85781
0.0325128
1.41142
0.0294847
1.0728
0.0267311
0.815511
0.0242013
0.619734
0.0219158
0.470661
0.0199222
0.357105
0.270873
0.0182065
0.249262
113.835
0.192245
86.1245
0.151721
65.2416
0.124856
49.4117
0.105508
37.4626
0.091148
28.4308
0.0791681
21.6056
0.0684086
16.4435
0.0583006
12.5313
0.0488102
9.55937
0.0400852
7.29459
0.0324453
5.56401
0.0261927
4.23875
0.0214501
3.22423
0.0180585
2.44948
0.0155651
1.86031
0.0134673
1.41352
0.0114142
1.07486
0.00928513
0.817641
0.00712193
0.621898
0.00501982
0.472763
0.00309939
0.359024
0.272581
0.00139056
-0.121197
113.799
-0.0852338
86.0885
-0.0578272
65.2142
-0.0348748
49.3888
-0.0171762
37.4449
-0.00393357
28.4175
0.00472948
21.5969
0.00944903
16.4388
0.0109107
12.5299
0.0100192
9.56026
0.00759333
7.29701
0.00449502
5.5671
0.00145674
4.24179
-0.0010144
3.22669
-0.00277942
2.45124
-0.0040925
1.86162
-0.00535105
1.41478
-0.00684539
1.07635
-0.0086531
0.819446
-0.0106696
0.623912
-0.0127488
0.474841
-0.0147123
0.360987
0.274375
-0.0165079
-0.367179
113.676
-0.269213
85.9905
-0.197197
65.1421
-0.141907
49.3335
-0.100332
37.4033
-0.0694292
28.3866
-0.0476169
21.5751
-0.0330941
16.4243
-0.0243624
12.5211
-0.0199256
9.55582
-0.0185401
7.29563
-0.0189935
5.56756
-0.0202603
4.24306
-0.0215479
3.22799
-0.0224894
2.45219
-0.023192
1.86233
-0.023999
1.41559
-0.0251906
1.07755
-0.0268454
0.821102
-0.0288325
0.625899
-0.0309728
0.476981
-0.033059
0.363071
0.276305
-0.0349904
-0.522775
113.495
-0.38533
85.8531
-0.285606
65.0424
-0.21062
49.2585
-0.154699
37.3474
-0.113319
28.3453
-0.0837643
21.5455
-0.0635317
16.404
-0.0506265
12.5082
-0.0432187
9.54841
-0.039819
7.29222
-0.0390078
5.56674
-0.0395641
4.24361
-0.0404745
3.22889
-0.0411833
2.45289
-0.0416828
1.86283
-0.0422969
1.41621
-0.0433386
1.07859
-0.0449241
0.822685
-0.0469327
0.627907
-0.0491662
0.479213
-0.0514079
0.365312
0.278388
-0.0534911
-0.611357
113.278
-0.45114
85.6929
-0.336207
64.9275
-0.250864
49.1732
-0.187634
37.2842
-0.141073
28.2987
-0.107757
21.5122
-0.0848261
16.3811
-0.0700225
12.4934
-0.0613752
9.53976
-0.0572806
7.28813
-0.056222
5.56569
-0.0568539
4.24425
-0.0579868
3.23003
-0.058896
2.45381
-0.0594723
1.86341
-0.0600404
1.41678
-0.0609815
1.07953
-0.0624839
0.824188
-0.0644745
0.629897
-0.066755
0.481494
-0.0691138
0.36767
0.280589
-0.0713155
-0.652389
113.043
-0.481264
85.5217
-0.359957
64.8062
-0.270851
49.084
-0.205278
37.2186
-0.157258
28.2507
-0.122982
21.4779
-0.0994696
16.3576
-0.0843688
12.4783
-0.0757033
9.53109
-0.0718485
7.28426
-0.0712701
5.5651
-0.0725481
4.24552
-0.0743443
3.23182
-0.0757666
2.45523
-0.0765999
1.86424
-0.0771765
1.41735
-0.0779722
1.08032
-0.0792812
0.825495
-0.0811154
0.631731
-0.0833113
0.483688
-0.0856624
0.370021
0.282813
-0.087887
-0.659812
112.8
-0.486181
85.3481
-0.364733
64.6847
-0.276513
48.9958
-0.21209
37.1542
-0.165226
28.2038
-0.131948
21.4447
-0.109335
16.335
-0.0950554
12.4641
-0.0872265
9.52326
-0.0842704
7.28131
-0.0846954
5.56553
-0.0870433
4.24787
-0.0898417
3.23462
-0.0920175
2.45741
-0.093227
1.86545
-0.0938018
1.41793
-0.0943297
1.08085
-0.0952449
0.826411
-0.0966839
0.633169
-0.0985472
0.485552
-0.100646
0.372119
0.284864
-0.102697
-0.646831
112.555
-0.475838
85.1771
-0.358033
64.5669
-0.273507
48.9113
-0.212331
37.093
-0.168183
28.1597
-0.137078
21.4136
-0.116253
16.3141
-0.10347
12.4513
-0.0969969
9.51678
-0.0953422
7.27965
-0.0970978
5.56727
-0.100792
4.25155
-0.104823
3.23864
-0.107912
2.46049
-0.109548
1.86708
-0.11004
1.41842
-0.110091
1.0809
-0.110301
0.826619
-0.11096
0.633827
-0.112075
0.486665
-0.11351
0.373554
0.2864
-0.115047
-0.617003
112.315
-0.452896
85.013
-0.34187
64.4559
-0.263388
48.8328
-0.20721
37.0368
-0.167068
28.1195
-0.139087
21.3856
-0.120751
16.2958
-0.109986
12.4405
-0.105265
9.51206
-0.105223
7.27961
-0.108577
5.57063
-0.113866
4.25684
-0.119366
3.24414
-0.123557
2.46468
-0.125703
1.86923
-0.126041
1.41876
-0.125375
1.08024
-0.12449
0.825733
-0.123883
0.63322
-0.123716
0.486498
-0.12394
0.373776
0.286885
-0.124426
-0.575244
112.084
-0.421024
84.8588
-0.318957
64.3538
-0.248116
48.762
-0.198136
36.9868
-0.162928
28.0843
-0.138807
21.3615
-0.123544
16.2805
-0.115246
12.4322
-0.112616
9.50942
-0.114444
7.28142
-0.119604
5.57578
-0.126683
4.26391
-0.133844
3.25129
-0.139303
2.47013
-0.142038
1.87196
-0.14215
1.41887
-0.14053
1.07861
-0.13817
0.823372
-0.135791
0.630838
-0.133703
0.48441
-0.131987
0.372059
0.285539
-0.130642
-0.674454
111.882
-0.524978
84.7093
-0.415316
64.2441
-0.333557
48.6802
-0.272374
36.9256
-0.22677
28.0387
-0.193184
21.3279
-0.16923
16.2566
-0.153138
12.4161
-0.143721
9.5
-0.14005
7.27775
-0.141284
5.57701
-0.146236
4.26886
-0.153038
3.2581
-0.15939
2.47649
-0.163352
1.87593
-0.164153
1.41967
-0.162228
1.07669
-0.158547
0.819688
-0.154024
0.626318
-0.14932
0.479706
-0.144915
0.367653
0.28167
-0.141047
-0.65577
111.691
-0.514201
84.5677
-0.410186
64.1401
-0.33252
48.6025
-0.27431
36.8674
-0.230863
27.9952
-0.198837
21.2958
-0.176011
16.2338
-0.160737
12.4009
-0.151936
9.49119
-0.14877
7.27458
-0.150512
5.57874
-0.156073
4.27441
-0.163603
3.26561
-0.170645
2.48352
-0.174936
1.88021
-0.175371
1.4201
-0.172167
1.07348
-0.166323
0.813842
-0.159124
0.619117
-0.151747
0.472328
-0.144889
0.360794
0.275494
-0.138714
-0.637452
111.511
-0.503324
84.4336
-0.404607
64.0414
-0.330778
48.5287
-0.275349
36.812
-0.233918
27.9538
-0.203348
21.2653
-0.18157
16.212
-0.167052
12.3863
-0.158813
9.48295
-0.156103
7.27187
-0.158311
5.58095
-0.16446
4.28056
-0.17275
3.2739
-0.180624
2.49139
-0.185516
1.8851
-0.185909
1.42049
-0.181713
1.06928
-0.174133
0.806259
-0.165009
0.609994
-0.155732
0.463051
-0.146896
0.351956
0.26733
-0.138734
-0.619544
111.34
-0.49245
84.3065
-0.398733
63.9477
-0.328521
48.4585
-0.275709
36.7592
-0.236171
27.9143
-0.206962
21.2361
-0.186157
16.1912
-0.172335
12.3725
-0.164601
9.4752
-0.162296
7.26955
-0.164924
5.58357
-0.17164
4.28726
-0.180744
3.283
-0.189631
2.50027
-0.195444
1.89091
-0.196185
1.42123
-0.191516
1.06461
-0.18287
0.797611
-0.17223
0.599352
-0.160976
0.451796
-0.150173
0.341151
0.257606
-0.140451
-0.602075
111.179
-0.48165
84.186
-0.392668
63.8587
-0.325879
48.3917
-0.27554
36.7088
-0.237785
27.8765
-0.209854
21.2081
-0.189955
16.1713
-0.176772
12.3593
-0.169491
9.46792
-0.16754
7.2676
-0.170539
5.58656
-0.177803
4.29452
-0.187773
3.29296
-0.197858
2.51035
-0.204944
1.89799
-0.206609
1.42289
-0.202235
1.06023
-0.193046
0.788419
-0.181072
0.587379
-0.168522
0.439245
-0.15709
0.329718
0.24766
-0.147147
-0.585061
111.027
-0.470975
84.072
-0.38649
63.7742
-0.322949
48.3282
-0.274954
36.6608
-0.238885
27.8404
-0.212158
21.1814
-0.193103
16.1522
-0.180508
12.3467
-0.173631
9.46104
-0.171984
7.26594
-0.175306
5.58988
-0.18309
4.3023
-0.193967
3.30383
-0.205432
2.52181
-0.214255
1.90681
-0.217665
1.4263
-0.214435
1.05699
-0.205492
0.779472
-0.193793
0.575679
-0.182277
0.427727
-0.171843
0.319282
0.238168
-0.162354
-0.568509
110.883
-0.46046
83.9639
-0.380256
63.694
-0.319803
48.2677
-0.274035
36.6151
-0.239563
27.806
-0.213973
21.1558
-0.195707
16.1339
-0.183653
12.3347
-0.177133
9.45451
-0.175743
7.26455
-0.179335
5.59346
-0.187601
4.31056
-0.199411
3.31564
-0.212475
2.53487
-0.223627
1.91796
-0.229615
1.43228
-0.2284
1.05577
-0.221224
0.772292
-0.211642
0.566098
-0.201413
0.417497
-0.190643
0.308511
0.227423
-0.179902
-0.552422
110.747
-0.450131
83.8616
-0.374008
63.6179
-0.316498
48.2102
-0.272848
36.5714
-0.239893
27.773
-0.215378
21.1313
-0.197851
16.1164
-0.186295
12.3231
-0.180089
9.4483
-0.178908
7.26336
-0.182715
5.59726
-0.191413
4.31925
-0.204178
3.32839
-0.219083
2.54976
-0.233061
1.93193
-0.242167
1.44138
-0.243914
1.05751
-0.239856
0.76823
-0.231838
0.55808
-0.220048
0.405706
-0.20636
0.294822
0.213796
-0.192737
-0.536796
110.62
-0.440005
83.7648
-0.36778
63.5457
-0.313076
48.1555
-0.271447
36.5298
-0.239934
27.7415
-0.216437
21.1078
-0.199604
16.0996
-0.188505
12.312
-0.182572
9.44236
-0.181552
7.26233
-0.185513
5.60122
-0.194584
4.32831
-0.208315
3.34212
-0.225216
2.56666
-0.242181
1.94889
-0.254796
1.454
-0.260947
1.06366
-0.261247
0.768526
-0.254329
0.551163
-0.240801
0.392177
-0.2249
0.27892
0.198105
-0.209213
-0.521628
110.499
-0.430097
83.6733
-0.361597
63.4772
-0.309575
48.1035
-0.269873
36.4901
-0.239735
27.7114
-0.217203
21.0853
-0.201022
16.0834
-0.190342
12.3014
-0.184644
9.43666
-0.183738
7.26142
-0.187787
5.60526
-0.19716
4.33767
-0.211822
3.35677
-0.230669
2.5855
-0.250568
1.96878
-0.267699
1.47112
-0.280888
1.07684
-0.28795
0.775583
-0.284929
0.548143
-0.273844
0.381091
-0.258934
0.264008
0.182365
-0.243199
-0.506912
110.386
-0.420417
83.5868
-0.35548
63.4122
-0.306022
48.054
-0.268163
36.4522
-0.239337
27.6825
-0.217721
21.0636
-0.202153
16.0678
-0.191856
12.2911
-0.186357
9.43115
-0.185516
7.26057
-0.189588
5.60932
-0.199173
4.34725
-0.214648
3.37224
-0.23521
2.60605
-0.258224
1.99179
-0.28191
1.4948
-0.305037
1.09996
-0.320445
0.790986
-0.322922
0.55062
-0.31586
0.374028
-0.30322
0.251367
0.168368
-0.289227
-0.49264
110.28
-0.410972
83.5051
-0.349449
63.3507
-0.302446
48.007
-0.26635
36.4161
-0.238777
27.655
-0.218031
21.0429
-0.20304
16.0528
-0.193095
12.2811
-0.187758
9.42581
-0.186936
7.25974
-0.190957
5.61334
-0.200643
4.35693
-0.216717
3.38831
-0.238725
2.62805
-0.265503
2.01857
-0.297821
1.52712
-0.331154
1.13329
-0.351757
0.811585
-0.355098
0.553962
-0.346912
0.365841
-0.33271
0.237162
0.153827
-0.318174
-0.478805
110.18
-0.401767
83.4281
-0.343517
63.2924
-0.298866
47.9624
-0.264458
36.3817
-0.238084
27.6286
-0.218167
21.023
-0.20372
16.0384
-0.194095
12.2715
-0.188889
9.4206
-0.188038
7.25889
-0.191932
5.61722
-0.201577
4.36657
-0.217966
3.40469
-0.241231
2.65131
-0.272574
2.0499
-0.314027
1.56857
-0.354027
1.17328
-0.373366
0.83092
-0.371492
0.552088
-0.357967
0.352315
-0.340204
0.219397
0.13757
-0.323952
-0.465399
110.087
-0.392807
83.3555
-0.337697
63.2373
-0.295303
47.92
-0.262515
36.3489
-0.237288
27.6034
-0.218162
21.0039
-0.204228
16.0244
-0.194894
12.2622
-0.189787
9.41549
-0.188861
7.25796
-0.192548
5.62091
-0.20198
4.37599
-0.218371
3.42107
-0.24278
2.67571
-0.279046
2.08617
-0.327909
1.61743
-0.369063
1.21443
-0.381793
0.843647
-0.372544
0.54284
-0.354454
0.334225
-0.33473
0.199672
0.120546
-0.317712
-0.452415
110
-0.384095
83.2872
-0.332
63.1852
-0.291775
47.8797
-0.260541
36.3177
-0.236415
27.5792
-0.218043
20.9855
-0.204593
16.011
-0.195524
12.2531
-0.190486
9.41045
-0.18944
7.2569
-0.192836
5.62429
-0.201862
4.38501
-0.21794
3.43714
-0.243345
2.7011
-0.284006
2.12682
-0.336912
1.67033
-0.374185
1.2517
-0.378084
0.847541
-0.362828
0.527582
-0.343197
0.314593
-0.323798
0.180271
0.103698
-0.306955
-0.439845
109.918
-0.375634
83.223
-0.326438
63.136
-0.288297
47.8416
-0.258558
36.288
-0.235488
27.5562
-0.217836
20.9678
-0.204844
15.998
-0.196016
12.2443
-0.191019
9.40544
-0.189809
7.25569
-0.192825
5.6273
-0.201243
4.39342
-0.216701
3.45259
-0.242773
2.72717
-0.28635
2.1704
-0.339323
1.7233
-0.369402
1.28177
-0.36469
0.842823
-0.345603
0.508498
-0.326774
0.295762
-0.309137
0.162632
0.0874162
-0.292861
-0.427681
109.842
-0.367425
83.1627
-0.321019
63.0896
-0.284885
47.8055
-0.256583
36.2597
-0.234528
27.5341
-0.217566
20.9509
-0.205008
15.9854
-0.196396
12.2356
-0.191415
9.40046
-0.189999
7.25426
-0.192545
5.62984
-0.200153
4.40102
-0.214679
3.46711
-0.240821
2.75331
-0.285111
2.21468
-0.334408
1.77259
-0.355656
1.30301
-0.343266
0.830431
-0.321084
0.486314
-0.303259
0.277936
-0.288045
0.147417
0.0725305
-0.273165
-0.415915
109.772
-0.35947
83.1063
-0.315752
63.0459
-0.28155
47.7713
-0.254634
36.2327
-0.233556
27.513
-0.217255
20.9346
-0.205107
15.9733
-0.196692
12.2272
-0.191703
9.39546
-0.190041
7.2526
-0.19203
5.63183
-0.198632
4.40762
-0.211896
3.48037
-0.237225
2.77863
-0.279665
2.25712
-0.322229
1.81516
-0.334245
1.31503
-0.315123
0.811304
-0.289006
0.4602
-0.270193
0.259121
-0.256939
0.134162
0.0601947
-0.244609
-0.404539
109.707
-0.351769
83.0535
-0.310644
63.0048
-0.278307
47.7389
-0.252727
36.2072
-0.232591
27.4929
-0.216925
20.9189
-0.205166
15.9615
-0.196929
12.219
-0.191908
9.39044
-0.189964
7.25064
-0.191314
5.63317
-0.196728
4.41302
-0.20837
3.492
-0.231781
2.80204
-0.269798
2.29513
-0.30346
1.84881
-0.306801
1.31836
-0.282135
0.786637
-0.250947
0.429008
-0.228738
0.236909
-0.217045
0.122469
0.0502826
-0.207138
-0.393546
109.646
-0.344325
83.0043
-0.305702
62.9662
-0.275167
47.7084
-0.250878
36.1829
-0.23165
27.4737
-0.216595
20.9038
-0.205206
15.9501
-0.197129
12.2109
-0.192057
9.38536
-0.189798
7.24838
-0.190433
5.6338
-0.194496
4.41708
-0.204132
3.50164
-0.224411
2.82231
-0.255679
2.3264
-0.27915
1.87229
-0.275228
1.31444
-0.247622
0.759027
-0.212751
0.39414
-0.186328
0.210484
-0.175774
0.111916
0.0425012
-0.167998
-0.382927
109.591
-0.337137
82.9585
-0.300934
62.9299
-0.272141
47.6796
-0.249101
36.1598
-0.230752
27.4553
-0.216284
20.8894
-0.205247
15.9391
-0.197314
12.203
-0.192175
9.38022
-0.189571
7.24577
-0.189428
5.63365
-0.191995
4.41964
-0.199232
3.50886
-0.215175
2.83825
-0.237772
2.34899
-0.250425
1.88493
-0.241004
1.30501
-0.21399
0.732013
-0.178704
0.35885
-0.147681
0.179461
-0.136044
0.100278
0.0365043
-0.130051
-0.372676
109.54
-0.330206
82.916
-0.296347
62.8961
-0.269241
47.6525
-0.24741
36.138
-0.229911
27.4378
-0.216011
20.8755
-0.205311
15.9284
-0.197509
12.1952
-0.192287
9.37499
-0.189314
7.24279
-0.188341
5.63267
-0.18929
4.42059
-0.193752
3.51333
-0.204281
2.84878
-0.21674
2.36145
-0.218256
1.88645
-0.204498
1.29126
-0.180551
0.708063
-0.147791
0.326093
-0.111572
0.14324
-0.0978413
0.0865483
0.0220014
-0.0833437
-0.362785
109.494
-0.323533
82.8767
-0.291945
62.8645
-0.266476
47.627
-0.245819
36.1173
-0.229145
27.4211
-0.215794
20.8621
-0.205415
15.918
-0.197733
12.1875
-0.192416
9.36967
-0.189055
7.23942
-0.187213
5.63082
-0.186451
4.41982
-0.187809
3.51467
-0.192054
2.85302
-0.193395
2.36279
-0.183644
1.8767
-0.166116
1.27372
-0.146187
0.688133
-0.118122
0.298025
-0.0789251
0.104044
-0.0658473
0.0734713
0.0173022
-0.061149
-0.353248
109.453
-0.317119
82.8406
-0.287735
62.8351
-0.263857
47.6031
-0.244341
36.0978
-0.228469
27.4053
-0.215651
20.8493
-0.205581
15.9079
-0.198008
12.1799
-0.192585
9.36424
-0.188821
7.23565
-0.186086
5.62809
-0.18355
4.41728
-0.181561
3.51269
-0.178955
2.85041
-0.168751
2.35258
-0.147858
1.8558
-0.126976
1.25284
-0.112311
0.673466
-0.0961142
0.281833
-0.0701752
0.0781046
-0.0552165
0.0585166
0.0303011
-0.0682143
-0.344058
109.415
-0.310963
82.8075
-0.283723
62.8079
-0.26139
47.5808
-0.242984
36.0794
-0.227893
27.3902
-0.215593
20.837
-0.205822
15.8982
-0.198351
12.1725
-0.192817
9.3587
-0.188644
7.23147
-0.185006
5.62444
-0.18067
4.41293
-0.175179
3.50719
-0.165399
2.84062
-0.14351
2.33069
-0.111627
1.82392
-0.0872606
1.22847
-0.0783615
0.664566
-0.0785173
0.281981
-0.0738877
0.0734787
-0.0491008
0.0337339
0.0197318
-0.0385299
-0.323758
109.367
-0.286589
82.7703
-0.258662
62.7799
-0.237233
47.5594
-0.220368
36.0625
-0.206947
27.3768
-0.196186
20.8262
-0.187683
15.8897
-0.181147
12.1659
-0.176189
9.35374
-0.172187
7.22747
-0.168221
5.62047
-0.162821
4.40753
-0.154732
3.4991
-0.139545
2.82544
-0.109655
2.3008
-0.0704906
1.78475
-0.0413152
1.1993
-0.029527
0.652776
-0.0290509
0.281513
-0.0319325
0.0763501
-0.0126466
0.0144374
-0.0065542
0.013645
-0.257497
109.329
-0.228204
82.741
-0.206191
62.7579
-0.189306
47.5425
-0.176
36.0492
-0.165385
27.3661
-0.15683
20.8177
-0.150014
15.8828
-0.144695
12.1606
-0.140545
9.34959
-0.137011
7.22393
-0.133253
5.61671
-0.127899
4.40217
-0.119327
3.49052
-0.103382
2.80949
-0.074073
2.27149
-0.0364945
1.74717
-0.0063783
1.16918
0.00808594
0.638309
0.0118817
0.277704
0.0118296
0.076406
0.0232799
0.00297038
-0.0221028
0.0388062
-0.204774
109.299
-0.181671
82.7179
-0.164309
62.7406
-0.150998
47.5292
-0.140497
36.0387
-0.132101
27.3577
-0.125305
20.8109
-0.11985
15.8774
-0.115536
12.1563
-0.112095
9.34614
-0.109051
7.22088
-0.105675
5.61333
-0.100762
4.39726
-0.0926514
3.48241
-0.0777677
2.79461
-0.0515033
2.24523
-0.0179792
1.71365
0.00991556
1.14128
0.0238103
0.624416
0.027675
0.273849
0.027542
0.0765219
0.0338524
-0.00334437
-0.030046
0.0417799
-0.162804
109.275
-0.144554
82.6997
-0.130839
62.7268
-0.12033
47.5187
-0.112033
36.0304
-0.105387
27.3511
-0.0999863
20.8055
-0.0956213
15.873
-0.092131
12.1528
-0.0892949
9.3433
-0.086716
7.2183
-0.0837757
5.61038
-0.0794558
4.39293
-0.0722187
3.47517
-0.0591073
2.78149
-0.0366725
2.22278
-0.00808594
1.68505
0.0162576
1.11693
0.0286376
0.612031
0.031912
0.270565
0.0313338
0.0771112
0.0351324
-0.00716074
-0.0363161
0.0413935
-0.129408
109.256
-0.114971
82.6853
-0.104123
62.716
-0.0958158
47.5103
-0.089253
36.0239
-0.083988
27.3458
-0.0796952
20.8012
-0.0762043
15.8695
-0.0733847
12.15
-0.0710578
9.34098
-0.068896
7.21614
-0.0663859
5.60787
-0.0626843
4.38923
-0.0564431
3.46893
-0.0452683
2.77032
-0.0266298
2.20415
-0.00290939
1.66134
0.0176661
1.09636
0.0284371
0.601264
0.0313075
0.267704
0.0307255
0.0776839
0.0332673
-0.00969208
-0.0417985
0.0387415
-0.102798
109.241
-0.0913308
82.6738
-0.0827137
62.7074
-0.0761194
47.5038
-0.0709089
36.0187
-0.0667249
27.3416
-0.0633043
20.7978
-0.0605084
15.8667
-0.0582301
12.1477
-0.0563251
9.33906
-0.0545261
7.21433
-0.0524129
5.60575
-0.0492991
4.38611
-0.044046
3.46367
-0.0347549
2.76102
-0.0196076
2.18899
-0.000359558
1.64208
0.0166535
1.07934
0.0259177
0.591993
0.0286122
0.265003
0.0282728
0.0780352
0.0299941
-0.0114238
-0.0462793
0.034479
-0.0818528
109.229
-0.0728909
82.6648
-0.0661583
62.7007
-0.0610095
47.4986
-0.0569371
36.0146
-0.0536592
27.3384
-0.050967
20.7951
-0.0487509
15.8645
-0.0469263
12.1459
-0.0453783
9.33752
-0.0438895
7.21284
-0.0421145
5.60398
-0.0394903
4.38349
-0.0350603
3.45924
-0.0272982
2.75326
-0.0148639
2.17657
0.000895879
1.62632
0.0150271
1.06521
0.0229957
0.584029
0.025578
0.262428
0.0255333
0.0780735
0.026737
-0.0126141
-0.0495816
0.0300331
-0.0648259
109.22
-0.0575596
82.6575
-0.0520996
62.6952
-0.0479276
47.4944
-0.0446319
36.0113
-0.0419824
27.3357
-0.0398071
20.7929
-0.0380132
15.8627
-0.0365288
12.1444
-0.0352598
9.33624
-0.034032
7.2116
-0.0325702
5.60251
-0.0304304
4.38134
-0.0268501
3.45565
-0.020672
2.74708
-0.0109687
2.16685
0.0012943
1.61405
0.0125227
1.05398
0.0191764
0.57737
0.0216242
0.259975
0.021811
0.0778974
0.0224309
-0.0132414
-0.0514407
0.0242978
-0.055224
109.207
-0.0454503
82.6478
-0.0378742
62.6876
-0.0319416
47.4885
-0.0271708
36.0065
-0.0232611
27.3318
-0.0199671
20.7896
-0.0171312
15.8599
-0.0146271
12.1419
-0.012309
9.33392
-0.00994663
7.20924
-0.00719255
5.59976
-0.0034986
4.37765
0.00197439
3.45018
0.0102064
2.73885
0.0211265
2.15594
0.0318077
1.60338
0.0377223
1.04807
0.0369577
0.578141
0.0319942
0.264948
0.0256394
0.0842468
0.0206556
-0.00824458
-0.0490291
0.0182406
-0.0579696
109.194
-0.0477124
82.6375
-0.0397623
62.6797
-0.0335395
47.4823
-0.0285359
36.0015
-0.0244333
27.3277
-0.0209713
20.7862
-0.0179818
15.8569
-0.0153299
12.1392
-0.0128609
9.33145
-0.010329
7.2067
-0.00736685
5.59679
-0.0033942
4.37367
0.00246572
3.44431
0.011221
2.73009
0.0227978
2.14436
0.0341454
1.59202
0.0404734
1.04174
0.0398754
0.578735
0.0350511
0.269768
0.0288085
0.0905
0.0236281
-0.00306983
-0.0456666
0.0202721
-0.060851
109.181
-0.0500865
82.6268
-0.0417437
62.6713
-0.0352167
47.4757
-0.029969
35.9963
-0.0256642
27.3234
-0.0220261
20.7825
-0.0188752
15.8537
-0.0160675
12.1364
-0.0134388
9.32882
-0.0107272
7.20399
-0.00754508
5.59361
-0.0032791
4.3694
0.00298462
3.43806
0.0122764
2.7208
0.0245144
2.13212
0.0365154
1.58002
0.0432486
1.03501
0.0428451
0.579145
0.0381601
0.274463
0.0319874
0.0966684
0.0264575
0.00247168
-0.0412248
0.0220151
-0.0638753
109.166
-0.0525781
82.6154
-0.0438232
62.6625
-0.0369772
47.4689
-0.0314735
35.9908
-0.0269568
27.3189
-0.0231338
20.7787
-0.0198133
15.8504
-0.0168415
12.1335
-0.0140439
9.32602
-0.0111418
7.20108
-0.00772665
5.59019
-0.00315168
4.36482
0.00353337
3.43136
0.0133745
2.71095
0.0262707
2.11922
0.0388966
1.56739
0.0460169
1.02789
0.0458243
0.579334
0.0412608
0.279024
0.0350937
0.102846
0.0291528
0.00840871
-0.0358139
0.0237468
-0.067049
109.151
-0.0551934
82.6036
-0.046006
62.6534
-0.0388252
47.4617
-0.0330531
35.985
-0.028314
27.3141
-0.0242972
20.7747
-0.0207985
15.8469
-0.0176534
12.1303
-0.0146771
9.32304
-0.011573
7.19798
-0.00791056
5.58653
-0.00301054
4.35993
0.0041134
3.42424
0.0145154
2.70056
0.0280607
2.10568
0.0412769
1.55418
0.0487633
1.0204
0.0487828
0.579322
0.0443148
0.283502
0.0380976
0.10906
0.0317941
0.0147228
-0.0297222
0.0257038
-0.0703804
109.135
-0.0579382
82.5911
-0.0482969
62.6437
-0.0407649
47.4542
-0.0347114
35.979
-0.0297392
27.3092
-0.025519
20.7705
-0.0218328
15.8432
-0.0185052
12.127
-0.0153395
9.31987
-0.0120211
7.19465
-0.00809574
5.58259
-0.00285437
4.35468
0.00472578
3.41666
0.0156984
2.68958
0.0298782
2.09149
0.0436472
1.54041
0.0514792
1.01257
0.0516959
0.579103
0.0472967
0.287901
0.0410103
0.115357
0.0344724
0.0212586
-0.0232713
0.0280249
-0.0738764
109.118
-0.0608191
82.5781
-0.0507015
62.6336
-0.0428009
47.4463
-0.0364522
35.9726
-0.0312357
27.304
-0.026802
20.766
-0.0229188
15.8393
-0.0193985
12.1235
-0.0160321
9.31651
-0.0124862
7.19111
-0.00828125
5.57839
-0.00268165
4.34908
0.00537167
3.40861
0.016923
2.67803
0.0317192
2.0767
0.0460006
1.52613
0.0541555
1.00442
0.0545446
0.57872
0.0502009
0.292255
0.0438462
0.12171
0.0371798
0.0279341
-0.0168211
0.0307319
-0.0775459
109.101
-0.0638428
82.5644
-0.053225
62.623
-0.044938
47.438
-0.0382798
35.9659
-0.032807
27.2985
-0.0281492
20.7614
-0.0240588
15.8353
-0.0203351
12.1198
-0.0167558
9.31292
-0.0129685
7.18732
-0.00846654
5.57388
-0.00249057
4.3431
0.00605211
3.40006
0.0181897
2.66589
0.0335806
2.06131
0.0483299
1.51137
0.0567783
0.995968
0.0573132
0.578183
0.0530213
0.296547
0.0466268
0.128114
0.039902
0.0346581
-0.0106267
0.0337104
-0.081397
109.082
-0.0670164
82.55
-0.0558737
62.6118
-0.0471812
47.4293
-0.0401984
35.959
-0.0344567
27.2927
-0.0295638
20.7565
-0.0252552
15.8309
-0.0213168
12.1158
-0.0175116
9.30912
-0.0134681
7.18328
-0.00865107
5.56907
-0.00227892
4.33673
0.006768
3.39102
0.019499
2.65316
0.0354592
2.04535
0.0506271
1.49621
0.0593335
0.987268
0.0599893
0.577533
0.0557499
0.300796
0.0493517
0.134511
0.0425805
0.041437
-0.00451036
0.0364671
-0.0854389
109.063
-0.0703471
82.5349
-0.0586536
62.6001
-0.0495356
47.4202
-0.0422124
35.9516
-0.0361887
27.2867
-0.0310488
20.7513
-0.0265107
15.8264
-0.0223456
12.1117
-0.0183008
9.30507
-0.0139851
7.17895
-0.00883398
5.56391
-0.00204409
4.32993
0.00752051
3.38145
0.0208491
2.63983
0.0373497
2.02885
0.052883
1.48067
0.0618069
0.978342
0.0625618
0.576776
0.0583685
0.30499
0.0519793
0.14091
0.0451504
0.0482663
0.00176401
0.0388788
-0.0896809
109.043
-0.0738429
82.5191
-0.0615713
62.5879
-0.0520068
47.4106
-0.0443264
35.944
-0.0380068
27.2804
-0.0326076
20.7459
-0.0278279
15.8216
-0.0234234
12.1073
-0.0191244
9.30077
-0.0145197
7.17435
-0.00901425
5.55841
-0.00178371
4.32271
0.00831124
3.37136
0.0222359
2.62591
0.0392433
2.01185
0.0550842
1.46484
0.0641798
0.969251
0.0650167
0.575944
0.0608542
0.309161
0.0544688
0.147295
0.0475868
0.0551548
0.00827044
0.0410834
-0.0941334
109.021
-0.077512
82.5024
-0.0646333
62.575
-0.0546005
47.4006
-0.0465453
35.9359
-0.0399153
27.2738
-0.0342437
20.7403
-0.0292097
15.8166
-0.0245525
12.1026
-0.0199841
9.2962
-0.0150724
7.16943
-0.00919129
5.55252
-0.00149667
4.315
0.00914128
3.36071
0.0236532
2.61139
0.041128
1.99437
0.0572142
1.44875
0.0664297
0.960034
0.0673348
0.575037
0.063174
0.313323
0.0567874
0.15369
0.049832
0.0621113
0.0150057
0.0430996
-0.098806
108.999
-0.0813629
82.485
-0.0678472
62.5615
-0.0573226
47.3901
-0.0488743
35.9275
-0.0419185
27.2668
-0.0359608
20.7343
-0.0306592
15.8113
-0.0257352
12.0977
-0.0208813
9.29135
-0.0156438
7.1642
-0.0093656
5.54625
-0.00118405
4.30683
0.0100096
3.34953
0.0250926
2.59632
0.0429881
1.97648
0.0592522
1.43249
0.0685318
0.95076
0.0694971
0.574076
0.0653026
0.317525
0.0588914
0.160102
0.0518553
0.069153
0.0218747
0.0449891
-0.10371
108.975
-0.0854043
82.4667
-0.0712199
62.5473
-0.0601794
47.379
-0.0513186
35.9186
-0.0440208
27.2595
-0.0377627
20.7281
-0.0321794
15.8057
-0.0269738
12.0925
-0.0218178
9.28618
-0.0162351
7.15861
-0.0095385
5.53955
-0.000848966
4.29813
0.0109121
3.33776
0.0265437
2.58068
0.0448058
1.95821
0.0611763
1.41612
0.0704551
0.941481
0.0714559
0.573074
0.067219