/*--------------------------------*- C++ -*----------------------------------*\
  =========                 |
  \\      /  F ield         | OpenFOAM: The Open Source CFD Toolbox
   \\    /   O peration     | Website:  https://openfoam.org
    \\  /    A nd           | Version:  7
     \\/     M anipulation  |
\*---------------------------------------------------------------------------*/
FoamFile
{
    version     2.0;
    format      ascii;
    class       volVectorField;
    location    "83";
    object      U;
}
// * * * * * * * * * * * * * * * * * * * * * * * * * * * * * * * * * * * * * //

dimensions      [0 1 -1 0 0 0 0];

internalField   nonuniform List<vector> 
12842
(
(15.0867 4.05379 -3.77669e-18)
(15.0843 4.07487 -5.79146e-19)
(15.0803 4.09905 -1.34764e-19)
(15.0725 4.12722 3.78383e-19)
(15.0602 4.16164 -1.20321e-18)
(15.0429 4.2049 0)
(15.0191 4.25949 0)
(14.9865 4.32778 -1.39584e-19)
(14.9421 4.41195 6.65279e-19)
(14.8828 4.51383 -9.9109e-21)
(14.8053 4.63482 3.03236e-19)
(14.707 4.77575 -8.43303e-20)
(14.5862 4.93666 4.00089e-19)
(14.443 5.11675 1.1929e-19)
(14.2786 5.31415 -1.56067e-19)
(14.0963 5.52555 -4.31688e-19)
(13.9007 5.74599 -3.73141e-19)
(13.6976 5.96916 0)
(13.4937 6.18812 2.91327e-20)
(13.2958 6.39632 2.15421e-19)
(13.1106 6.58851 2.81906e-20)
(12.9415 6.76054 -1.3561e-19)
(12.7976 6.91434 9.64693e-20)
(15.0874 4.05501 2.87423e-18)
(15.089 4.07772 0)
(15.0897 4.10334 -8.26272e-19)
(15.0872 4.13296 1.83378e-19)
(15.0814 4.16925 8.92987e-19)
(15.0719 4.2152 0)
(15.0575 4.27377 4.74404e-20)
(15.0358 4.34784 0)
(15.0036 4.43997 -3.11779e-19)
(14.9572 4.55216 -8.9047e-21)
(14.8929 4.68565 -5.4641e-19)
(14.8076 4.84081 -4.0639e-19)
(14.6996 5.01699 -3.92281e-19)
(14.5687 5.21258 4.92531e-19)
(14.4163 5.42501 0)
(14.2452 5.65033 4.71261e-19)
(14.0596 5.88302 5.47528e-19)
(13.8646 6.11623 -6.9108e-19)
(13.6665 6.34258 0)
(13.4717 6.55535 -2.80037e-19)
(13.2873 6.74924 -4.35246e-19)
(13.1171 6.92124 3.75821e-19)
(12.9723 7.07056 -3.90618e-19)
(15.0881 4.05621 0)
(15.0938 4.07968 0)
(15.0984 4.10579 6.25891e-19)
(15.1005 4.13585 -9.78741e-19)
(15.1006 4.17294 0)
(15.0986 4.2204 0)
(15.0934 4.28168 7.93867e-19)
(15.0825 4.36022 -7.92473e-19)
(15.0623 4.45901 -1.31186e-20)
(15.0287 4.5803 -1.19576e-19)
(14.9772 4.72519 -2.89199e-19)
(14.9045 4.89355 4.03058e-19)
(14.8084 5.08395 1.26147e-19)
(14.6888 5.29399 -6.52412e-19)
(14.5475 5.52043 0)
(14.3873 5.7589 -1.89469e-19)
(14.212 6.00351 2.43843e-19)
(14.0261 6.24705 4.50883e-19)
(13.8352 6.48171 5.54974e-19)
(13.6458 6.70057 -4.05225e-19)
(13.4651 6.89807 3.3311e-19)
(13.297 7.07228 0)
(13.1548 7.21912 1.48049e-19)
(15.0892 4.05764 3.87802e-19)
(15.0986 4.08099 -3.05521e-19)
(15.1063 4.10694 5.81476e-19)
(15.1123 4.13674 -5.01654e-19)
(15.1178 4.17374 1.24177e-19)
(15.123 4.22167 -1.33613e-18)
(15.1267 4.28446 4.94159e-19)
(15.1264 4.36616 7.89607e-19)
(15.1183 4.47028 1.98274e-18)
(15.0975 4.59938 -1.08012e-18)
(15.0588 4.75446 9.86928e-19)
(14.9983 4.93489 6.53072e-21)
(14.9137 5.13842 -8.52051e-21)
(14.805 5.36177 -3.01972e-19)
(14.6745 5.60108 1.66621e-19)
(14.5254 5.8517 -2.15528e-19)
(14.3611 6.10765 -1.17894e-19)
(14.1854 6.3615 -3.19391e-19)
(14.0035 6.60509 -1.82327e-19)
(13.8213 6.83131 -1.0049e-19)
(13.6466 7.03404 -1.40782e-19)
(13.4829 7.21249 -1.85488e-19)
(13.3457 7.35883 3.57235e-19)
(15.0906 4.05929 2.52279e-18)
(15.1029 4.08178 0)
(15.1133 4.10715 7.47615e-20)
(15.1227 4.13614 3.58813e-19)
(15.133 4.17229 1.96981e-20)
(15.1449 4.21971 4.20702e-18)
(15.1573 4.28281 6.8876e-19)
(15.1675 4.36631 -3.96242e-18)
(15.1714 4.47434 -2.18139e-18)
(15.1635 4.60989 1.25737e-18)
(15.1378 4.77393 -1.7291e-18)
(15.0896 4.96541 -8.68457e-19)
(15.0165 5.18111 1.01187e-19)
(14.9187 5.41677 3.16387e-19)
(14.7993 5.66788 2.1788e-19)
(14.6617 5.92963 -2.67418e-19)
(14.5094 6.19616 0)
(14.3453 6.46014 2.86492e-19)
(14.174 6.71311 0)
(14.0009 6.94775 7.29939e-20)
(13.8341 7.15718 -7.45517e-20)
(13.6764 7.34176 1.59205e-19)
(13.5458 7.48935 -2.81771e-20)
(15.0923 4.06102 -2.05647e-18)
(15.1066 4.08217 0)
(15.1195 4.10667 0)
(15.1316 4.13442 2.27803e-18)
(15.1462 4.16909 -2.30848e-18)
(15.1643 4.2151 -2.83276e-18)
(15.1849 4.27732 -5.50825e-18)
(15.2055 4.36124 4.43563e-18)
(15.2213 4.47164 0)
(15.2263 4.61212 2.42922e-18)
(15.2137 4.78373 1.8264e-18)
(15.1779 4.98504 4.26166e-19)
(15.1162 5.21181 0)
(15.0294 5.45867 -1.63637e-20)
(14.9213 5.72036 -1.87498e-19)
(14.7961 5.99203 2.2853e-19)
(14.6569 6.26823 5.93575e-20)
(14.5061 6.54199 -3.4163e-19)
(14.3472 6.80471 0)
(14.185 7.04883 3.83745e-19)
(14.0279 7.2664 -1.38457e-20)
(13.8775 7.45901 -4.8953e-19)
(13.7547 7.60959 4.49002e-20)
(15.0942 4.06269 1.13884e-19)
(15.1096 4.08231 0)
(15.1248 4.10572 0)
(15.1389 4.13195 -2.27486e-18)
(15.1572 4.16462 2.71291e-18)
(15.1808 4.20841 -5.17784e-19)
(15.2088 4.2686 3.5303e-18)
(15.2392 4.3515 3.74671e-19)
(15.2667 4.46265 -4.91227e-19)
(15.2849 4.60643 -2.69033e-18)
(15.286 4.7842 -2.13718e-19)
(15.2636 4.99427 1.45143e-18)
(15.2142 5.23136 0)
(15.139 5.48878 -4.71888e-19)
(15.0425 5.76024 -4.50643e-21)
(14.9301 6.04083 5.85391e-21)
(14.805 6.32576 -4.49138e-20)
(14.6689 6.60877 2.05627e-19)
(14.5243 6.88128 1.43083e-19)
(14.375 7.13561 6.61838e-20)
(14.2295 7.36246 1.07478e-20)
(14.088 7.56481 1.75499e-19)
(13.9741 7.71972 1.29344e-19)
(15.0962 4.06431 0)
(15.1119 4.0823 -1.03489e-19)
(15.1292 4.10443 1.59962e-18)
(15.1449 4.12888 -1.15652e-19)
(15.1666 4.15916 -3.71573e-18)
(15.1952 4.20011 6.95984e-19)
(15.2303 4.2574 -1.25789e-19)
(15.2697 4.33818 -3.6343e-18)
(15.3082 4.44871 0)
(15.3384 4.59421 -3.88241e-18)
(15.3519 4.77632 2.77592e-19)
(15.3415 4.99324 2.30658e-19)
(15.3033 5.23862 0)
(15.239 5.50447 4.66054e-19)
(15.1542 5.78349 -2.84378e-19)
(15.0555 6.07092 0)
(14.9461 6.36295 4.46768e-20)
(14.8267 6.65448 0)
(14.6982 6.93695 -1.19517e-19)
(14.5638 7.20265 0)
(14.4314 7.44019 8.09878e-20)
(14.3006 7.65474 -3.6846e-20)
(14.197 7.81598 -5.68013e-20)
(15.0983 4.06559 0)
(15.1137 4.08215 0)
(15.1326 4.10324 2.04686e-19)
(15.1486 4.12642 -1.58688e-19)
(15.172 4.15464 4.10016e-18)
(15.2036 4.1928 4.5064e-18)
(15.2438 4.24662 0)
(15.2913 4.32398 3.40946e-18)
(15.3405 4.4319 0)
(15.3839 4.57679 8.10183e-18)
(15.4116 4.76111 2.54837e-18)
(15.4152 4.98357 -1.36059e-18)
(15.3891 5.23714 -1.10362e-19)
(15.3346 5.51232 0)
(15.2587 5.79988 2.98502e-19)
(15.1701 6.09411 1.92383e-19)
(15.0734 6.39163 -8.20606e-21)
(14.9694 6.68876 7.20689e-20)
(14.8575 6.97772 4.98316e-20)
(14.7386 7.25166 0)
(14.6201 7.49708 -1.92529e-20)
(14.4998 7.72198 8.16305e-21)
(14.4048 7.8891 3.69163e-20)
(15.1007 4.06702 2.04933e-20)
(15.1154 4.08227 1.40661e-18)
(15.1357 4.10229 -1.73945e-18)
(15.1519 4.12436 0)
(15.1769 4.1508 9.42505e-20)
(15.211 4.18676 3.83288e-19)
(15.2553 4.23807 -4.85332e-18)
(15.3087 4.31318 0)
(15.3654 4.41963 0)
(15.4177 4.56457 -4.18122e-18)
(15.4549 4.75089 -2.72351e-18)
(15.4676 4.97752 -4.70078e-20)
(15.4494 5.2368 1.0607e-18)
(15.4018 5.51804 -3.9697e-20)
(15.3327 5.81074 -5.47836e-20)
(15.2522 6.10878 9.61924e-20)
(15.1664 6.40941 -1.43856e-19)
(15.0754 6.71028 -7.95944e-20)
(14.9778 7.00405 -5.42892e-20)
(14.873 7.28467 -6.79566e-20)
(14.768 7.53642 1.07138e-21)
(14.6584 7.76988 7.77463e-21)
(14.5733 7.94206 -5.82206e-21)
(15.1032 4.06829 4.30346e-19)
(15.1169 4.08249 -1.57731e-18)
(15.1384 4.10145 5.14737e-20)
(15.1547 4.12253 2.09909e-18)
(15.1812 4.14716 -1.21275e-19)
(15.2176 4.18093 -4.88027e-18)
(15.2655 4.22973 9.45642e-18)
(15.3244 4.3026 2.60957e-19)
(15.3881 4.40762 -1.89515e-19)
(15.4488 4.55265 -4.84789e-18)
(15.4951 4.74104 9.13871e-20)
(15.517 4.97191 -2.03807e-18)
(15.5069 5.23689 -9.557e-19)
(15.4665 5.52404 0)
(15.4044 5.82138 5.48598e-19)
(15.3327 6.12237 -5.68337e-19)
(15.2583 6.42503 -7.92743e-20)
(15.1817 6.72862 1.65746e-19)
(15.1002 7.02638 9.83195e-22)
(15.0118 7.31327 9.41949e-20)
(14.9227 7.57113 0)
(14.8261 7.81329 1.24167e-20)
(14.7536 7.99044 0)
(15.1055 4.06935 -8.3997e-19)
(15.1183 4.08275 -1.87958e-18)
(15.1408 4.10065 9.59302e-20)
(15.157 4.1209 -4.1541e-18)
(15.1849 4.14372 2.6907e-18)
(15.2232 4.17531 -1.40527e-19)
(15.2745 4.22156 -4.93512e-18)
(15.3384 4.29211 7.69702e-20)
(15.4088 4.39555 -2.16051e-19)
(15.4776 4.54049 5.02153e-18)
(15.533 4.73076 0)
(15.564 4.96574 1.87081e-18)
(15.5623 5.2364 1.04743e-19)
(15.5295 5.52941 -3.99121e-20)
(15.4748 5.83115 -5.67355e-19)
(15.4122 6.13444 -4.49055e-20)
(15.3501 6.4381 1.55681e-19)
(15.2892 6.74325 -3.10017e-19)
(15.2259 7.04387 0)
(15.1563 7.33632 -1.37183e-19)
(15.0858 7.59975 1.78682e-19)
(15.0047 7.85084 0)
(14.9472 8.03264 -7.5451e-20)
(15.1077 4.07025 4.01856e-19)
(15.1194 4.08302 -1.12603e-19)
(15.1429 4.09991 9.8145e-20)
(15.159 4.11943 2.03397e-18)
(15.1881 4.14048 -5.35321e-18)
(15.2281 4.16992 1.84761e-20)
(15.2825 4.21358 7.24813e-20)
(15.351 4.28167 4.82341e-18)
(15.4278 4.38335 -1.06684e-19)
(15.5045 4.52793 0)
(15.5688 4.7198 3.60752e-18)
(15.6091 4.95867 6.96118e-20)
(15.6161 5.23492 3.36676e-20)
(15.591 5.53377 -7.87915e-21)
(15.5438 5.83971 -6.90491e-20)
(15.4906 6.14468 4.01146e-19)
(15.4416 6.44818 -2.56764e-19)
(15.3979 6.75345 -7.39193e-20)
(15.3549 7.0554 -8.30672e-20)
(15.3066 7.35232 2.31376e-19)
(15.2575 7.62033 -1.32977e-19)
(15.1947 7.88027 3.37258e-19)
(15.1548 8.0665 -2.20666e-19)
(15.1098 4.07102 7.58488e-19)
(15.1205 4.0833 1.92825e-18)
(15.1447 4.0992 5.59945e-21)
(15.1608 4.11811 2.25548e-18)
(15.1909 4.13741 5.57644e-18)
(15.2323 4.16472 -1.90176e-20)
(15.2896 4.20576 -7.56731e-20)
(15.3625 4.27128 2.03619e-19)
(15.4454 4.37101 -3.96297e-18)
(15.5298 4.51496 2.93979e-18)
(15.603 4.70816 -3.79177e-18)
(15.6528 4.9507 -2.32632e-18)
(15.6688 5.23249 1.36961e-18)
(15.6517 5.53721 0)
(15.6122 5.84719 4.19106e-19)
(15.5685 6.15314 0)
(15.533 6.45511 3.39424e-19)
(15.5076 6.75868 2.18605e-19)
(15.4869 7.05997 -6.56631e-21)
(15.4626 7.35985 -3.20625e-19)
(15.4378 7.63078 -7.28676e-21)
(15.3959 7.89981 1.88995e-20)
(15.3765 8.08915 -1.26624e-19)
(15.1118 4.07171 1.7561e-19)
(15.1214 4.08357 2.08613e-20)
(15.1463 4.09854 -5.04063e-21)
(15.1623 4.11692 -2.25986e-18)
(15.1932 4.1345 -2.81188e-18)
(15.2359 4.15971 0)
(15.2959 4.19807 5.42323e-20)
(15.373 4.2609 -5.05564e-18)
(15.4618 4.35846 -1.71209e-19)
(15.5537 4.50148 -2.95354e-18)
(15.636 4.69571 2.12263e-18)
(15.6955 4.94172 3.69242e-18)
(15.7209 5.22905 -1.33614e-18)
(15.7121 5.53978 7.60198e-19)
(15.6803 5.85372 6.65536e-20)
(15.646 6.1599 2.39361e-21)
(15.6243 6.45868 -2.08629e-20)
(15.6184 6.7582 -8.50553e-20)
(15.6221 7.05607 6.05346e-20)
(15.6248 7.35617 -1.4269e-19)
(15.628 7.62769 -2.15203e-20)
(15.6113 7.90236 1.10979e-19)
(15.6157 8.09555 0)
(15.1136 4.07235 1.5886e-19)
(15.1223 4.08385 0)
(15.1476 4.09791 0)
(15.1636 4.11584 -2.3611e-18)
(15.1952 4.13176 -2.98818e-18)
(15.239 4.15487 3.11875e-18)
(15.3015 4.19051 4.05211e-20)
(15.3826 4.25049 -4.65582e-20)
(15.4771 4.34566 4.20664e-18)
(15.5765 4.48744 -4.96701e-20)
(15.668 4.68234 1.69749e-19)
(15.7376 4.93156 -1.27881e-18)
(15.773 5.22436 0)
(15.7729 5.54121 -8.08097e-19)
(15.7489 5.85913 -9.48283e-19)
(15.7238 6.16488 -3.41026e-19)
(15.7157 6.4587 -2.15986e-19)
(15.7298 6.75119 0)
(15.7597 7.04218 0)
(15.7921 7.33827 2.08136e-19)
(15.826 7.60818 1.4313e-19)
(15.8386 7.88311 -3.30839e-19)
(15.8688 8.08243 0)
(15.1153 4.07288 -1.12964e-18)
(15.123 4.08412 1.02746e-20)
(15.1488 4.09733 -1.84541e-21)
(15.1648 4.11483 2.34485e-18)
(15.1969 4.12913 5.97231e-18)
(15.2417 4.15016 -6.26113e-18)
(15.3065 4.18303 -4.16805e-20)
(15.3913 4.24001 -4.82179e-20)
(15.4914 4.33255 6.32076e-20)
(15.5983 4.47273 0)
(15.6992 4.66796 -2.15739e-18)
(15.7794 4.92012 1.42203e-18)
(15.8253 5.2184 0)
(15.8343 5.54162 0)
(15.818 5.86362 4.55995e-19)
(15.8014 6.1682 2.18646e-20)
(15.8062 6.45498 2.40296e-19)
(15.8403 6.73682 2.16477e-19)
(15.8976 7.01671 -3.56495e-19)
(15.9621 7.30346 -1.41548e-19)
(16.0297 7.56861 5.60928e-19)
(16.0762 7.83795 -5.43433e-19)
(16.1347 8.0431 3.56713e-19)
(15.1168 4.07332 7.06307e-19)
(15.1236 4.08438 8.40595e-19)
(15.1499 4.09677 1.1995e-20)
(15.1659 4.11388 -1.58387e-20)
(15.1983 4.12662 -3.03393e-18)
(15.244 4.14555 3.2081e-18)
(15.3109 4.17558 -2.98457e-20)
(15.3993 4.22941 -1.06533e-20)
(15.5048 4.31906 6.53051e-20)
(15.6192 4.45729 2.70388e-20)
(15.7297 4.65245 -3.5308e-20)
(15.8209 4.90727 -1.41778e-18)
(15.8781 5.21104 8.96725e-19)
(15.8968 5.54099 -3.15587e-20)
(15.8879 5.8673 0)
(15.8788 6.17001 -3.76466e-20)
(15.8952 6.44741 3.07876e-20)
(15.9486 6.71428 -2.1292e-19)
(16.0335 6.97756 4.38716e-19)
(16.1324 7.24825 2.9546e-19)
(16.2366 7.50311 -2.04262e-19)
(16.3218 7.7605 -3.25253e-19)
(16.4112 7.96732 4.0446e-19)
(15.1182 4.07369 5.05544e-20)
(15.1241 4.08462 -8.48677e-19)
(15.1509 4.09624 0)
(15.1668 4.11299 0)
(15.1995 4.1242 0)
(15.2459 4.14103 0)
(15.3148 4.16814 3.07013e-20)
(15.4065 4.21866 -1.45863e-20)
(15.5174 4.30514 -3.36734e-20)
(15.6393 4.44104 2.81311e-20)
(15.7597 4.6357 -3.67035e-20)
(15.8625 4.89287 0)
(15.9316 5.20215 -1.78596e-18)
(15.9605 5.53925 2.79973e-20)
(15.9588 5.8703 -5.34181e-20)
(15.9558 6.17059 3.89753e-19)
(15.9818 6.43611 -3.16721e-20)
(16.0525 6.68299 7.01094e-20)
(16.1642 6.92271 -7.15677e-20)
(16.2982 7.1687 1.70981e-19)
(16.4415 7.40476 -2.60554e-19)
(16.5692 7.64259 0)
(16.6926 7.84312 2.46818e-19)
(15.1195 4.07399 -1.52977e-18)
(15.1245 4.08483 -3.73969e-19)
(15.1518 4.09573 -6.91079e-21)
(15.1676 4.11214 1.27882e-18)
(15.2004 4.12186 1.58213e-18)
(15.2475 4.13658 1.70662e-20)
(15.3181 4.16069 -3.39197e-18)
(15.413 4.20771 3.03797e-18)
(15.5291 4.29072 2.41303e-18)
(15.6585 4.42386 0)
(15.7891 4.61754 3.85867e-20)
(15.9042 4.87666 -1.68234e-18)
(15.9864 5.19148 9.39881e-19)
(16.0262 5.53631 4.90236e-19)
(16.0315 5.87281 2.82989e-19)
(16.0327 6.17045 0)
(16.0648 6.42158 0)
(16.1491 6.64285 -2.47141e-19)
(16.2846 6.85055 -3.30918e-19)
(16.4525 7.06133 1.90193e-19)
(16.6358 7.26667 1.46513e-19)
(16.8081 7.47412 2.06898e-19)
(16.9683 7.65643 -2.78726e-19)
(15.1207 4.07427 7.82045e-19)
(15.1249 4.08503 3.76602e-19)
(15.1527 4.09524 -6.38777e-21)
(15.1683 4.11131 2.01423e-20)
(15.2011 4.11954 -1.58476e-18)
(15.2489 4.1321 -1.71922e-18)
(15.3211 4.15311 1.62937e-18)
(15.4192 4.19647 -3.01437e-18)
(15.5403 4.27571 -2.40663e-18)
(15.6773 4.40569 -5.51648e-20)
(15.8183 4.5979 0)
(15.9463 4.85857 1.62846e-18)
(16.0424 5.17891 1.00961e-18)
(16.0939 5.53214 -5.22023e-19)
(16.1057 5.87516 -2.46589e-19)
(16.1086 6.1704 -9.3175e-20)
(16.1423 6.40502 -6.99041e-20)
(16.2344 6.59504 4.87744e-19)
(16.3881 6.76138 0)
(16.5853 6.9242 0)
(16.806 7.0826 1.74871e-19)
(17.0207 7.24398 -4.00124e-19)
(17.2185 7.39273 -3.13321e-19)
(15.1217 4.07443 -7.9293e-19)
(15.1252 4.08516 0)
(15.1534 4.09474 0)
(15.1688 4.11057 -2.5989e-18)
(15.2015 4.11746 1.60643e-18)
(15.2495 4.12791 1.76232e-18)
(15.3229 4.14573 -3.28361e-20)
(15.4239 4.1851 1.5564e-18)
(15.55 4.26006 5.84533e-20)
(15.6948 4.38616 -1.99286e-18)
(15.8468 4.57609 4.20531e-20)
(15.989 4.83766 -5.46167e-20)
(16.1009 5.16349 -1.00584e-18)
(16.1655 5.52612 5.70725e-19)
(16.1837 5.87749 2.7268e-19)
(16.1851 6.17177 -1.63473e-19)
(16.2136 6.38884 1.61114e-19)
(16.3044 6.54243 -2.40795e-19)
(16.4658 6.65714 0)
(16.682 6.75712 0)
(16.931 6.84976 -1.48765e-19)
(17.1807 6.94647 1.18916e-19)
(17.4139 7.04379 -3.48479e-19)
(15.1225 4.07477 1.16253e-20)
(15.1256 4.08531 -3.64381e-19)
(15.1542 4.0942 0)
(15.1694 4.10943 6.49136e-19)
(15.2026 4.11457 -3.27277e-18)
(15.2517 4.12266 1.81288e-20)
(15.327 4.13723 -6.14667e-20)
(15.4313 4.17293 -1.61416e-18)
(15.5622 4.24401 3.75819e-20)
(15.7143 4.36655 1.99595e-18)
(15.8767 4.55423 -4.24522e-20)
(16.0325 4.81642 -9.08664e-19)
(16.1595 5.14757 -6.56992e-20)
(16.237 5.52011 -5.27688e-19)
(16.2605 5.88126 -3.03581e-19)
(16.2572 6.17625 3.43986e-20)
(16.2741 6.37579 0)
(16.353 6.4893 -3.55631e-20)
(16.5081 6.54428 4.51784e-20)
(16.7276 6.56949 0)
(16.9886 6.57893 1.55661e-19)
(17.2556 6.5897 -1.16964e-19)
(17.5077 6.61271 0)
(15.1232 4.07458 7.84536e-19)
(15.1256 4.08564 3.64452e-19)
(15.1544 4.09439 0)
(15.1692 4.11033 6.56072e-19)
(15.2014 4.11535 3.30493e-18)
(15.2499 4.12208 1.82765e-18)
(15.3254 4.13356 3.6096e-18)
(15.4317 4.1642 0)
(15.5672 4.22899 2.7149e-18)
(15.7271 4.34489 -2.07677e-18)
(15.9015 4.527 1.46423e-18)
(16.0739 4.78693 9.37979e-19)
(16.2209 5.12199 -7.93038e-21)
(16.3162 5.50627 1.02715e-20)
(16.3474 5.88308 -2.8307e-19)
(16.3353 6.18675 1.4551e-19)
(16.3279 6.37449 0)
(16.3759 6.44791 7.55021e-20)
(16.5023 6.43594 0)
(16.7006 6.37035 0)
(16.945 6.27276 -1.52068e-19)
(17.1985 6.17615 -3.79621e-19)
(17.4426 6.1087 3.23568e-19)
(15.1237 4.07445 0)
(15.1258 4.08576 -2.23393e-23)
(15.1548 4.09431 8.17592e-23)
(15.1695 4.1104 -6.66874e-19)
(15.2017 4.11508 -8.18857e-19)
(15.2503 4.12087 -1.82802e-18)
(15.3266 4.13041 -1.82033e-18)
(15.4345 4.15801 -1.87432e-21)
(15.5732 4.21872 -1.32698e-18)
(15.7389 4.32989 -5.05233e-20)
(15.9224 4.50752 4.51086e-20)
(16.1084 4.76499 0)
(16.2731 5.10248 8.20156e-21)
(16.386 5.49648 -1.06037e-20)
(16.4265 5.88843 4.11764e-19)
(16.4063 6.20389 8.87174e-21)
(16.3701 6.38719 0)
(16.3731 6.4297 -1.05824e-20)
(16.4456 6.35563 -2.85954e-20)
(16.586 6.19847 0)
(16.7742 5.99956 0)
(16.9809 5.81348 2.10536e-19)
(17.1846 5.66862 -1.83348e-19)
(15.1244 4.07431 7.27323e-19)
(15.1261 4.08585 3.85204e-19)
(15.1553 4.09418 0)
(15.1698 4.11036 6.67844e-19)
(15.2019 4.1146 -8.44821e-19)
(15.2508 4.11939 -1.90068e-18)
(15.3277 4.12699 1.89464e-18)
(15.4373 4.1516 -1.72355e-18)
(15.5792 4.20833 -1.38927e-18)
(15.7504 4.31485 3.22057e-18)
(15.9432 4.48793 -1.50947e-18)
(16.1433 4.74266 -1.03372e-18)
(16.3267 5.08232 -6.27632e-19)
(16.459 5.48655 0)
(16.5102 5.89635 -1.36653e-19)
(16.4804 6.23034 6.85932e-20)
(16.4076 6.42018 1.86092e-21)
(16.3481 6.44283 -4.39723e-20)
(16.3397 6.31602 0)
(16.3968 6.08543 0)
(16.5139 5.81614 0)
(16.6557 5.56586 -2.6832e-19)
(16.7859 5.35219 2.80324e-19)
(15.1249 4.07414 -7.28583e-19)
(15.1263 4.08591 6.38935e-21)
(15.1556 4.09401 0)
(15.1701 4.11028 -6.90451e-19)
(15.2021 4.11408 -8.48019e-23)
(15.2511 4.11785 2.87447e-18)
(15.3286 4.12349 -3.83205e-18)
(15.4398 4.14509 5.24574e-18)
(15.5847 4.19778 -1.5503e-21)
(15.7616 4.29947 -1.08785e-18)
(15.9636 4.46763 -8.02126e-19)
(16.1782 4.71903 1.03397e-18)
(16.3816 5.06031 6.1838e-19)
(16.5352 5.4752 -3.34549e-19)
(16.5994 5.90633 1.23783e-21)
(16.5603 6.26732 -6.96252e-20)
(16.4449 6.4762 0)
(16.3067 6.49339 0)
(16.1986 6.33393 -3.20389e-20)
(16.1585 6.05361 0)
(16.1794 5.72279 0)
(16.2146 5.40437 3.5993e-20)
(16.2376 5.12611 7.29618e-20)
(15.1253 4.07392 0)
(15.1265 4.08594 -3.92844e-19)
(15.1559 4.09383 1.74795e-23)
(15.1703 4.11018 -1.59356e-20)
(15.2022 4.11356 -7.57077e-23)
(15.2513 4.11632 -1.96406e-18)
(15.3293 4.11999 1.9373e-18)
(15.442 4.13852 -3.52342e-18)
(15.5899 4.18705 -1.47913e-18)
(15.7722 4.28368 0)
(15.9835 4.44647 7.98044e-19)
(16.2129 4.69378 2.06395e-21)
(16.4371 5.03591 -1.78502e-22)
(16.6144 5.46174 3.31498e-19)
(16.6948 5.91765 0)
(16.6486 6.31417 -6.42215e-22)
(16.4869 6.55665 6.06482e-22)
(16.2602 6.59193 0)
(16.0382 6.426 3.18356e-20)
(15.8705 6.10642 0)
(15.7523 5.72356 0)
(15.6689 5.37557 0)
(15.5989 5.08456 -3.2438e-20)
(15.1258 4.07366 0)
(15.1267 4.08595 2.0525e-19)
(15.1563 4.09362 -3.49786e-24)
(15.1705 4.11007 7.08388e-19)
(15.2023 4.11304 9.21256e-19)
(15.2515 4.1148 2.00597e-18)
(15.3299 4.11649 0)
(15.444 4.13193 -1.82372e-18)
(15.5947 4.17618 2.98605e-18)
(15.7824 4.26748 -1.84286e-23)
(16.0028 4.42439 8.39244e-19)
(16.2472 4.66677 -5.67789e-19)
(16.4934 5.00877 0)
(16.6969 5.44545 0)
(16.798 5.92898 1.25305e-19)
(16.749 6.36994 1.68447e-22)
(16.5428 6.66687 0)
(16.223 6.7521 1.85561e-19)
(15.8677 6.60351 1.59759e-19)
(15.5485 6.27505 0)
(15.3083 5.91652 -1.34728e-21)
(15.1501 5.6162 4.5356e-22)
(15.0089 5.34801 2.38281e-21)
(15.1262 4.07336 2.48512e-24)
(15.127 4.08593 -4.16468e-19)
(15.1566 4.09339 -7.90503e-24)
(15.1707 4.10996 0)
(15.2024 4.11253 2.09186e-20)
(15.2516 4.11331 -2.04642e-18)
(15.3305 4.11301 -4.25461e-22)
(15.4459 4.12531 1.82499e-18)
(15.5993 4.16517 -1.50636e-18)
(15.7922 4.25088 1.18363e-18)
(16.0216 4.40137 1.99633e-20)
(16.2813 4.6379 1.1531e-18)
(16.5506 4.97858 -7.30563e-19)
(16.7832 5.42545 1.58547e-21)
(16.9104 5.93889 -2.51689e-19)
(16.8668 6.43546 -3.31557e-20)
(16.624 6.81283 6.2435e-21)
(16.2097 6.97639 -1.89475e-19)
(15.713 6.87408 -1.56807e-19)
(15.2662 6.60371 0)
(14.9418 6.32525 -1.22285e-19)
(14.6832 6.04635 0)
(14.41 5.74763 5.7466e-20)
(15.1266 4.07302 0)
(15.1272 4.08588 2.11214e-19)
(15.1569 4.09314 3.58326e-19)
(15.171 4.10983 3.892e-23)
(15.2024 4.11203 -1.90886e-18)
(15.2517 4.11185 1.03394e-18)
(15.331 4.10956 0)
(15.4475 4.11868 0)
(15.6036 4.15402 -8.36845e-22)
(15.8015 4.23388 -1.18295e-18)
(16.04 4.3774 2.00715e-20)
(16.3151 4.60705 -5.8449e-19)
(16.6086 4.94495 7.26087e-19)
(16.8736 5.40081 0)
(17.034 5.94636 1.26085e-19)
(17.008 6.51078 3.16316e-20)
(16.7404 6.98859 -1.24922e-19)
(16.2352 7.24752 -1.46668e-20)
(15.6119 7.23248 0)
(15.0493 7.06325 0)
(14.5711 6.80484 4.55508e-20)
(14.1009 6.4365 2.07569e-19)
(13.6123 6.05019 -8.64561e-20)
(15.1271 4.07264 0)
(15.1274 4.08581 -1.26378e-23)
(15.1572 4.09287 -3.58776e-19)
(15.1712 4.1097 3.94502e-19)
(15.2025 4.11155 9.65242e-19)
(15.2518 4.11041 2.1599e-22)
(15.3313 4.10614 1.05639e-18)
(15.449 4.11203 9.51902e-19)
(15.6076 4.14275 -1.57845e-18)
(15.8104 4.21648 0)
(16.0578 4.35248 2.02301e-20)
(16.3484 4.57415 -6.22561e-19)
(16.6671 4.90749 0)
(16.968 5.37066 -4.6589e-21)
(17.1702 5.94997 1.48199e-19)
(17.1761 6.5897 0)
(16.8969 7.17349 3.59648e-21)
(16.3178 7.54809 2.25945e-20)
(15.5903 7.68425 -4.65332e-19)
(14.8608 7.63851 0)
(14.1118 7.37012 0)
(13.3922 6.926 -1.11473e-19)
(12.7007 6.47221 4.35376e-19)
(15.1275 4.07222 -5.36863e-24)
(15.1276 4.08571 7.08408e-24)
(15.1575 4.09259 0)
(15.1715 4.10956 4.11098e-19)
(15.2026 4.11107 -5.28417e-22)
(15.2518 4.10899 4.38781e-22)
(15.3316 4.10274 -1.05684e-18)
(15.4503 4.10538 -9.53599e-19)
(15.6113 4.13135 1.57956e-18)
(15.8189 4.19869 -1.24256e-18)
(16.0749 4.32657 -9.01587e-19)
(16.381 4.53909 6.26815e-19)
(16.7259 4.86588 4.09368e-19)
(17.0664 5.33411 2.22119e-19)
(17.3196 5.94652 -1.35292e-19)
(17.3713 6.65944 6.40083e-22)
(17.1 7.35051 1.89374e-19)
(16.489 7.89668 1.88027e-19)
(15.687 8.28585 1.45626e-19)
(14.7467 8.43528 -1.95333e-19)
(13.7036 8.2782 2.41894e-19)
(12.7454 7.90652 0)
(11.8529 7.43396 -2.23871e-19)
(15.1279 4.07176 0)
(15.1278 4.08558 2.32269e-19)
(15.1578 4.09228 3.84864e-19)
(15.1717 4.10941 -3.96721e-19)
(15.2026 4.11061 5.07944e-19)
(15.2517 4.10761 0)
(15.3318 4.09938 1.28065e-21)
(15.4514 4.09872 -1.67524e-21)
(15.6147 4.11984 8.11449e-19)
(15.8267 4.18053 1.87854e-18)
(16.0913 4.2997 -9.35734e-19)
(16.4127 4.50182 -4.90625e-21)
(16.7846 4.8198 2.10029e-20)
(17.1684 5.29004 -2.26077e-19)
(17.481 5.93069 0)
(17.5931 6.70761 -4.30043e-20)
(17.3675 7.52385 1.81672e-19)
(16.7977 8.33547 -2.21903e-19)
(15.9538 9.06423 -1.82975e-19)
(14.7819 9.45412 -5.11411e-20)
(13.423 9.48232 2.90162e-19)
(12.1073 9.23905 -2.3359e-19)
(10.8642 8.80782 -3.11626e-19)
(15.1283 4.07127 1.92512e-19)
(15.128 4.08542 3.54544e-21)
(15.1581 4.09195 -3.8533e-19)
(15.1719 4.10925 -4.10304e-19)
(15.2027 4.11015 -1.02341e-18)
(15.2516 4.10625 -1.10848e-18)
(15.3318 4.09604 -1.29582e-21)
(15.4523 4.09206 1.6949e-21)
(15.6177 4.10823 -8.11984e-19)
(15.8341 4.162 -6.33159e-19)
(16.1068 4.27188 1.90051e-18)
(16.4434 4.4623 -6.8438e-19)
(16.8429 4.76897 -4.34799e-19)
(17.2731 5.2369 2.63671e-19)
(17.6526 5.89653 -1.53655e-21)
(17.8448 6.72853 3.30355e-20)
(17.7268 7.70876 -2.01882e-19)
(17.2755 8.85766 3.89993e-19)
(16.3747 9.88567 1.38785e-19)
(14.9048 10.3927 0)
(13.1564 10.4563 -3.84254e-19)
(11.4072 10.1979 4.54427e-19)
(9.84268 9.76232 -6.62053e-19)
(15.1287 4.07073 -1.92704e-19)
(15.1282 4.08524 -3.56091e-19)
(15.1584 4.09159 -3.98745e-19)
(15.1721 4.10907 4.21865e-19)
(15.2026 4.10971 5.15302e-19)
(15.2515 4.10491 1.10928e-18)
(15.3317 4.09274 1.11021e-18)
(15.453 4.08541 0)
(15.6204 4.09651 8.34333e-19)
(15.8408 4.14312 -6.54657e-19)
(16.1214 4.24311 -9.61009e-19)
(16.4728 4.4205 6.83866e-19)
(16.9003 4.71313 0)
(17.3793 5.17294 -2.48749e-19)
(17.8324 5.83929 1.06898e-19)
(18.1335 6.72245 -3.06438e-21)
(18.1962 7.90502 -7.6423e-20)
(17.8955 9.37612 -1.52502e-19)
(16.838 10.5313 5.96928e-19)
(14.9553 10.952 -4.26051e-19)
(12.7599 10.8841 0)
(10.6176 10.5119 1.10239e-18)
(8.85618 10.036 -1.50113e-18)
(15.1291 4.07016 0)
(15.1284 4.08503 1.19866e-19)
(15.1587 4.09122 3.99022e-19)
(15.1723 4.10889 -4.22393e-19)
(15.2026 4.10927 -1.44607e-22)
(15.2513 4.10361 4.61178e-22)
(15.3316 4.08947 -5.48855e-19)
(15.4535 4.07876 0)
(15.6227 4.08471 -8.34858e-19)
(15.847 4.12391 -1.11348e-20)
(16.135 4.21344 0)
(16.5008 4.37646 -3.65019e-19)
(16.9562 4.65201 0)
(17.4852 5.09649 1.56657e-20)
(18.0193 5.7563 -2.82085e-19)
(18.4651 6.68986 -7.60075e-21)
(18.7687 8.08398 -6.93018e-20)
(18.5803 9.77198 2.99498e-19)
(17.2143 10.856 -2.63857e-19)
(14.8259 11.0673 -5.28295e-19)
(12.1931 10.8492 8.69402e-19)
(9.73593 10.4038 -8.14877e-19)
(7.84396 9.91018 2.87298e-18)
(15.1294 4.06955 -1.9456e-19)
(15.1286 4.08479 1.23308e-19)
(15.159 4.09083 -2.05235e-19)
(15.1725 4.1087 -2.47139e-22)
(15.2026 4.10884 5.63841e-22)
(15.251 4.10233 -1.18865e-21)
(15.3313 4.08625 -5.62245e-19)
(15.4538 4.07213 4.07399e-21)
(15.6247 4.07284 -3.01641e-21)
(15.8525 4.1044 -1.13002e-20)
(16.1477 4.18291 -5.14452e-19)
(16.5272 4.3302 3.5262e-19)
(17.0099 4.58537 1.55599e-20)
(17.5892 5.00634 -1.79159e-20)
(18.2124 5.6466 1.69148e-19)
(18.8392 6.62623 0)
(19.412 8.19718 -3.07597e-20)
(19.2418 9.95374 -2.10514e-19)
(17.425 10.8299 2.84279e-19)
(14.5178 10.8235 -8.76604e-19)
(11.5433 10.5329 4.66454e-19)
(8.86383 10.0982 -1.13931e-19)
(6.8734 9.60944 -1.51219e-18)
(15.1298 4.0689 3.88892e-19)
(15.1287 4.08452 -1.23441e-19)
(15.1592 4.09041 -2.769e-21)
(15.1727 4.10849 0)
(15.2025 4.10842 0)
(15.2507 4.10108 -5.82514e-19)
(15.331 4.08306 -5.75546e-19)
(15.4539 4.06552 0)
(15.6264 4.06091 -3.8049e-21)
(15.8575 4.08461 6.82895e-19)
(16.1592 4.15156 5.23376e-19)
(16.5517 4.28179 -1.12932e-20)
(17.0605 4.51307 -1.73437e-20)
(17.6895 4.90195 4.22824e-20)
(18.4099 5.51 -2.53794e-20)
(19.2462 6.52077 0)
(20.0793 8.1946 -1.07545e-20)
(19.8122 9.87776 -6.69065e-20)
(17.4547 10.4904 5.40564e-19)
(14.0896 10.317 -3.31483e-19)
(10.9011 10.028 -6.58519e-19)
(8.04553 9.66951 1.07914e-18)
(5.90557 9.19836 0)
(15.1301 4.06821 -3.88154e-19)
(15.1289 4.08422 1.55245e-23)
(15.1595 4.08998 2.08443e-19)
(15.1729 4.10828 0)
(15.2024 4.10801 0)
(15.2504 4.09986 -6.56926e-21)
(15.3306 4.07991 1.15773e-18)
(15.4539 4.05894 0)
(15.6277 4.04893 4.41422e-19)
(15.8619 4.06457 0)
(16.1695 4.11946 0)
(16.5741 4.23134 -1.3324e-20)
(17.1073 4.43514 1.69237e-20)
(17.7844 4.78341 1.78006e-19)
(18.6086 5.34627 2.8916e-20)
(19.6689 6.3589 -1.7532e-20)
(20.7226 8.0389 2.56839e-20)
(20.2523 9.53991 0)
(17.3152 9.88668 -1.62142e-19)
(13.5708 9.58627 0)
(10.2926 9.30399 -9.57876e-20)
(7.30669 9.03665 -1.84197e-19)
(4.95312 8.61974 0)
(15.1304 4.06748 2.90822e-19)
(15.1291 4.0839 -6.5138e-20)
(15.1598 4.08952 0)
(15.1731 4.10805 2.26141e-19)
(15.2024 4.10761 -2.78726e-19)
(15.2501 4.09867 5.90688e-19)
(15.3301 4.07681 -5.83144e-19)
(15.4537 4.05239 -5.3476e-19)
(15.6287 4.03691 -4.38559e-19)
(15.8655 4.04431 -6.13198e-21)
(16.1786 4.08667 7.89623e-21)
(16.594 4.17896 4.13284e-19)
(17.1494 4.35176 2.00077e-20)
(17.8723 4.65138 -2.52776e-19)
(18.8033 5.15483 3.28047e-20)
(20.0848 6.12661 0)
(21.3002 7.71141 0)
(20.545 8.96094 0)
(17.0227 9.06695 0)
(12.9555 8.65167 1.85068e-20)
(9.67543 8.31677 4.36884e-19)
(6.6283 8.09788 -3.88269e-19)
(4.02554 7.77265 0)
(15.1307 4.06671 -9.69246e-20)
(15.1293 4.08354 1.31625e-19)
(15.16 4.08904 0)
(15.1732 4.1078 -2.2646e-19)
(15.2023 4.10722 5.61999e-19)
(15.2497 4.09751 0)
(15.3295 4.07376 0)
(15.4533 4.04588 5.32705e-19)
(15.6293 4.02487 0)
(15.8686 4.02386 -3.54872e-19)
(16.1864 4.05328 -2.87705e-19)
(16.6113 4.12483 -2.00687e-19)
(17.1861 4.26333 3.21456e-19)
(17.9512 4.50696 0)
(18.9869 4.93511 0)
(20.4694 5.81439 5.21756e-20)
(21.7797 7.21192 -6.17867e-20)
(20.6914 8.17788 0)
(16.5954 8.08922 -5.30593e-20)
(12.2008 7.5705 -2.02489e-20)
(8.95372 7.10503 -5.58842e-20)
(6.02361 6.88262 1.28073e-19)
(3.35999 6.62945 0)
(15.131 4.06591 1.21809e-23)
(15.1294 4.08316 -1.34247e-19)
(15.1603 4.08853 -7.22707e-23)
(15.1734 4.10755 -1.16469e-19)
(15.2022 4.10683 -2.83269e-19)
(15.2493 4.09638 3.05827e-19)
(15.3288 4.07076 1.0068e-21)
(15.4527 4.03941 -2.74751e-19)
(15.6296 4.01283 4.65463e-19)
(15.8709 4.00325 3.56101e-19)
(16.1928 4.01936 2.79796e-19)
(16.6258 4.06916 -2.12725e-19)
(17.2167 4.17043 -3.21378e-19)
(18.0193 4.35157 -3.38207e-20)
(19.1513 4.68722 4.13664e-20)
(20.8 5.41961 7.22059e-20)
(22.1396 6.55491 -8.60132e-20)
(20.7073 7.23579 0)
(16.0751 7.02618 5.58257e-20)
(11.3265 6.47596 0)
(8.14303 5.88068 -1.26377e-20)
(5.60812 5.61258 0)
(2.94984 5.38887 -1.89619e-20)
(15.1313 4.06507 4.88177e-20)
(15.1296 4.08275 6.77561e-20)
(15.1605 4.08801 1.11753e-19)
(15.1736 4.10728 -1.3861e-21)
(15.2021 4.10645 -4.53988e-22)
(15.2489 4.09528 4.18478e-21)
(15.3281 4.0678 -3.04362e-19)
(15.452 4.03299 -4.55733e-21)
(15.6295 4.00078 -4.58507e-19)
(15.8725 3.98252 -6.46143e-21)
(16.1978 3.98501 2.98432e-19)
(16.6372 4.0122 0)
(17.2407 4.07379 -2.43535e-20)
(18.0745 4.18693 3.0419e-20)
(19.2878 4.41253 1.05345e-19)
(21.057 4.94676 0)
(22.3687 5.76395 0)
(20.62 6.17556 -1.16429e-19)
(15.5388 5.93159 0)
(10.4387 5.46209 4.13332e-19)
(7.26009 4.80012 -6.12381e-19)
(5.26648 4.41861 7.84213e-20)
(2.54272 4.23176 1.18098e-18)
(15.1315 4.06419 -9.79079e-20)
(15.1298 4.08231 -3.50964e-20)
(15.1607 4.08746 -1.68375e-19)
(15.1738 4.10699 1.18946e-19)
(15.202 4.10608 1.46613e-19)
(15.2484 4.09422 -4.67193e-19)
(15.3272 4.0649 3.04975e-19)
(15.451 4.02663 2.72774e-19)
(15.629 3.98876 7.42665e-21)
(15.8733 3.96171 -5.36002e-21)
(16.2013 3.95032 -2.90289e-19)
(16.6454 3.95422 -1.15119e-19)
(17.2575 3.9743 1.56186e-19)
(18.1148 4.01504 1.78619e-19)
(19.3886 4.1142 -1.05512e-19)
(21.2248 4.40645 0)
(22.4604 4.86577 0)
(20.4472 5.02304 -3.04538e-19)
(15.0268 4.80311 4.39314e-19)
(9.54104 4.50245 0)