/*--------------------------------*- C++ -*----------------------------------*\
  =========                 |
  \\      /  F ield         | OpenFOAM: The Open Source CFD Toolbox
   \\    /   O peration     | Website:  https://openfoam.org
    \\  /    A nd           | Version:  7
     \\/     M anipulation  |
\*---------------------------------------------------------------------------*/
FoamFile
{
    version     2.0;
    format      ascii;
    class       volScalarField;
    location    "83";
    object      yPlus;
}
// * * * * * * * * * * * * * * * * * * * * * * * * * * * * * * * * * * * * * //

dimensions      [0 0 0 0 0 0 0];

internalField   uniform 0;

boundaryField
{
    inlet
    {
        type            calculated;
        value           uniform 0;
    }
    outlet
    {
        type            calculated;
        value           uniform 0;
    }
    suction_side
    {
        type            calculated;
        value           nonuniform List<scalar> 
56
(
17.4428
18.0886
21.2684
22.4613
27.3093
32.9096
38.6694
43.4943
45.8274
39.2347
23.0068
28.4693
30.9469
29.5881
29.9309
30.5371
34.6252
40.7416
47.04
43.9707
45.7697
41.8246
38.4304
44.9864
43.5422
39.9425
36.1524
33.0941
30.8734
29.2717
28.2724
28.8878
28.1265
29.7443
31.2141
34.4481
37.352
41.6934
45.0346
44.6154
33.0269
22.0713
24.0216
30.0012
32.7959
33.8798
33.2709
30.9531
26.4767
20.7272
17.2152
19.4715
19.5868
21.5329
21.6887
21.8809
)
;
    }
    pressure_side
    {
        type            calculated;
        value           nonuniform List<scalar> 
56
(
53.3075
50.4985
48.352
47.3806
46.0618
44.9696
43.674
42.3925
41.3376
40.5822
39.9694
39.4705
39.0603
38.7031
38.4027
38.1325
37.8978
37.6783
37.4669
37.2425
36.995
36.7158
36.4158
36.1202
35.869
35.7056
35.6704
35.7793
36.02
36.3328
36.61
36.7241
36.3472
35.1928
33.4692
31.101
28.0257
24.2719
20.0628
15.8364
12.2118
10.0741
5.76324
5.06591
5.4333
6.10693
7.92968
8.41641
10.76
10.9031
11.5581
13.7859
13.7288
14.958
15.1859
16.5787
)
;
    }
    trailing_edge
    {
        type            calculated;
        value           nonuniform List<scalar> 2(160.799 95.6163);
    }
    defaultFaces
    {
        type            empty;
    }
}


// ************************************************************************* //
