/*--------------------------------*- C++ -*----------------------------------*\
  =========                 |
  \\      /  F ield         | OpenFOAM: The Open Source CFD Toolbox
   \\    /   O peration     | Website:  https://openfoam.org
    \\  /    A nd           | Version:  7
     \\/     M anipulation  |
\*---------------------------------------------------------------------------*/
FoamFile
{
    version     2.0;
    format      ascii;
    class       volScalarField;
    location    "0.12";
    object      p;
}
// * * * * * * * * * * * * * * * * * * * * * * * * * * * * * * * * * * * * * //

dimensions      [0 2 -2 0 0 0 0];

internalField   nonuniform List<scalar> 
1600
(
-5.29376e-06
-0.0011874
-0.00389647
-0.00754282
-0.0114594
-0.0151523
-0.0182654
-0.0205473
-0.0218314
-0.0220181
-0.0210621
-0.0189613
-0.0157492
-0.0114882
-0.00626526
-0.000187668
0.00662013
0.0140193
0.0218592
0.0299798
0.0382137
0.0463889
0.0543314
0.0618691
0.0688352
0.0750719
0.0804354
0.0848002
0.0880647
0.0901574
0.0910433
0.0907307
0.0892797
0.0868107
0.0835163
0.0796742
0.0756627
0.0719882
0.0693153
0.0682047
0.00117932
-8.70009e-07
-0.00219895
-0.00502819
-0.00804771
-0.0108937
-0.0132832
-0.0150038
-0.0159062
-0.0158949
-0.0149198
-0.0129695
-0.0100648
-0.00625355
-0.00160653
0.00378592
0.00981698
0.0163662
0.0233018
0.0304832
0.037763
0.0449897
0.0520105
0.0586747
0.0648372
0.0703621
0.0751265
0.0790251
0.081975
0.0839209
0.0848408
0.0847514
0.0837143
0.081842
0.0793044
0.0763345
0.0732327
0.0703732
0.068201
0.067096
0.00391547
0.00220019
-3.02399e-05
-0.00257062
-0.00517939
-0.00758798
-0.00957401
-0.0109665
-0.0116404
-0.0115123
-0.0105365
-0.0086997
-0.00601705
-0.00252821
0.00170607
0.00660709
0.0120808
0.0180201
0.0243075
0.0308166
0.0374149
0.043966
0.0503327
0.0563795
0.0619765
0.0670025
0.0713484
0.0749218
0.0776506
0.0794883
0.080418
0.0804574
0.0796627
0.0781323
0.0760097
0.0734851
0.0707973
0.0682267
0.0660306
0.0644205
0.00766443
0.00506815
0.00244396
-0.000166797
-0.00270324
-0.00496653
-0.00678309
-0.00802178
-0.00858482
-0.00840569
-0.00744777
-0.00570159
-0.00318191
7.50397e-05
0.00401442
0.00856516
0.0136421
0.0191478
0.0249751
0.0310083
0.037126
0.0432029
0.0491127
0.0547308
0.0599376
0.0646211
0.0686809
0.0720315
0.0746062
0.0763616
0.0772804
0.0773759
0.0766944
0.0753172
0.0733608
0.0709766
0.068356
0.0657131
0.0631346
0.0606769
0.011833
0.00821297
0.00502329
0.00216097
-0.000478521
-0.002752
-0.00452752
-0.00571089
-0.00623135
-0.00604063
-0.00511376
-0.00344774
-0.00105972
0.00201504
0.00572518
0.0100049
0.0147757
0.0199477
0.0254218
0.0310912
0.0368431
0.0425613
0.0481278
0.0534261
0.0583439
0.0627756
0.0666262
0.0698139
0.0722741
0.0739629
0.0748598
0.0749708
0.0743301
0.0730012
0.0710746
0.0686666
0.0659303
0.0630281
0.0598898
0.056435
0.0159992
0.0113127
0.00746536
0.00423445
0.00137025
-0.00102658
-0.0028576
-0.00406111
-0.00459146
-0.00441858
-0.00353014
-0.00193114
0.000357168
0.00329853
0.00684301
0.0109281
0.0154797
0.0204138
0.0256375
0.0310506
0.0365471
0.0420172
0.0473493
0.0524324
0.0571588
0.0614267
0.0651434
0.0682282
0.0706158
0.0722589
0.0731314
0.0732303
0.072577
0.0712173
0.0692181
0.0666661
0.0636844
0.0603981
0.0566004
0.0520982
0.0198563
0.0141078
0.00955633
0.00588124
0.002708
0.000106114
-0.00185168
-0.00313124
-0.00370945
-0.00357344
-0.00272356
-0.00117354
0.00105005
0.00390849
0.00735156
0.0113182
0.0157373
0.0205286
0.0256036
0.0308668
0.036217
0.0415488
0.0467547
0.0517267
0.0563594
0.0605524
0.0642127
0.0672581
0.0696199
0.0712456
0.0721014
0.0721741
0.0714719
0.070024
0.0678768
0.0650926
0.0617733
0.0580185
0.0535057
0.0479514
0.0231731
0.016386
0.0111123
0.00694944
0.00341463
0.000555108
-0.00157585
-0.00296712
-0.00361539
-0.00352355
-0.00270415
-0.00117984
0.0010168
0.00384348
0.00724849
0.0111709
0.0155408
0.0202804
0.0253039
0.030519
0.0358273
0.0411261
0.0463098
0.0512716
0.0559064
0.0601126
0.063795
0.0668674
0.0692558
0.0709004
0.0717584
0.0718056
0.0710368
0.0694661
0.0671221
0.0640475
0.0603299
0.0560533
0.0507964
0.0442016
0.0257687
0.0179693
0.0119698
0.00729642
0.0033702
0.000222574
-0.0021078
-0.00362915
-0.00435543
-0.00430381
-0.00349834
-0.0019705
0.000240723
0.00308877
0.00651946
0.0104708
0.0148733
0.0196499
0.0247164
0.0299821
0.03535
0.0407184
0.0459819
0.0510334
0.0557658
0.0600747
0.0638604
0.0670312
0.0695055
0.0712149
0.0721061
0.0721429
0.0713073
0.0695989
0.067031
0.0636308
0.0594772
0.0546457
0.048628
0.0410035
0.0274937
0.0187029
0.0119796
0.00678567
0.00245366
-0.000996303
-0.00353664
-0.00519211
-0.00599188
-0.00596609
-0.00514958
-0.00358251
-0.00131049
0.00161515
0.00513704
0.00919141
0.0137079
0.0186095
0.0238125
0.0292263
0.0347543
0.0402943
0.0457399
0.0509817
0.0559095
0.060414
0.0643896
0.0677368
0.0703651
0.0721954
0.0731631
0.0732191
0.0723322
0.0704885
0.0676875
0.063944
0.059332
0.0539242
0.0471324
0.0384796
0.0282159
0.0184457
0.0110017
0.00528454
0.000542917
-0.00321148
-0.00595981
-0.00774131
-0.00859893
-0.00857476
-0.00771395
-0.00606522
-0.00368096
-0.000617658
0.00306364
0.0072967
0.0120097
0.0171248
0.0225578
0.0282175
0.0340064
0.0398209
0.0455522
0.0510878
0.0563124
0.0611107
0.0653692
0.0689791
0.0718392
0.0738585
0.074959
0.0750781
0.0741708
0.0722096
0.0691815
0.0650906
0.0600089
0.0540098
0.046429
0.0367356
0.0278098
0.0170628
0.00889961
0.0026607
-0.00248694
-0.00653853
-0.00948251
-0.0113714
-0.012261
-0.012205
-0.0112584
-0.00947867
-0.00692506
-0.00365953
0.000252775
0.00474272
0.00973651
0.0151549
0.0209124
0.0269168
0.0330688
0.0392627
0.0453864
0.0513227
0.0569508
0.0621474
0.06679
0.0707587
0.0739399
0.0762287
0.0775324
0.0777734
0.0768916
0.0748457
0.0716101
0.0671792
0.0616247
0.0550226
0.0466333
0.0358723
0.0261502
0.0144195
0.00553551
-0.00122122
-0.00676585
-0.0110998
-0.014218
-0.016186
-0.0170723
-0.0169417
-0.0158597
-0.0138923
-0.0111061
-0.00756876
-0.0033498
0.0014784
0.0068397
0.0126531
0.0188316
0.0252812
0.0319008
0.0385817
0.045208
0.0516573
0.0578016
0.0635091
0.0686463
0.073081
0.0766852
0.0793382
0.0809307
0.0813679
0.0805732
0.0784902
0.07508
0.0703268
0.064303
0.0570885
0.0478656
0.0359949
0.0231062
0.0103756
0.000766186
-0.00650305
-0.0124311
-0.0170256
-0.0202884
-0.0222979
-0.0231357
-0.0228787
-0.021603
-0.0193836
-0.0162949
-0.0124105
-0.00780462
-0.00255307
0.0032655
0.00956819
0.0162663
0.0232643
0.0304586
0.0377376
0.0449811
0.0520609
0.0588415
0.0651812
0.0709344
0.0759548
0.080098
0.0832256
0.085209
0.0859339
0.0853049
0.0832482
0.0797097
0.0746626
0.0681795
0.0603447
0.0502572
0.03722
0.018537
0.004782
-0.00556096
-0.0133362
-0.0196298
-0.0244563
-0.027825
-0.0298287
-0.0305631
-0.0301179
-0.0285808
-0.0260367
-0.022568
-0.018255
-0.0131766
-0.00741237
-0.00104335
0.00584575
0.0131648
0.0208166
0.0286957
0.0366874
0.0446676
0.0525019
0.0600466
0.0671495
0.0736519
0.0793915
0.0842057
0.0879355
0.0904305
0.0915538
0.0911877
0.0892381
0.0856329
0.080332
0.073407
0.0649455
0.0539573
0.0396828
0.0122884
-0.00252383
-0.0136114
-0.0218845
-0.0285208
-0.0335432
-0.0369699
-0.0389097
-0.0394743
-0.0387681
-0.0368912
-0.0339399
-0.0300054
-0.025175
-0.0195328
-0.0131618
-0.00614547
0.00143013
0.00947387
0.0178876
0.0265643
0.0353872
0.0442281
0.052947
0.0613918
0.0693993
0.0767967
0.0834042
0.0890386
0.093518
0.0966663
0.0983202
0.0983358
0.0965943
0.0930016
0.0875006
0.0801597
0.0710687
0.0591387
0.0435428
0.00418995
-0.011721
-0.0235672
-0.0323279
-0.0392783
-0.0444514
-0.0478766
-0.0496817
-0.049997
-0.0489434
-0.0466363
-0.0431841
-0.0386882
-0.0332434
-0.0269394
-0.0198624
-0.012098
-0.00373283
0.00514173
0.0144275
0.0240173
0.0337927
0.0436228
0.0533623
0.0628514
0.0719156
0.0803671
0.0880074
0.0946306
0.100028
0.103995
0.106337
0.106878
0.105469
0.101989
0.0963589
0.0886398
0.0789211
0.0660047
0.0489899
-0.00594892
-0.0230094
-0.0356313
-0.0448663
-0.0520941
-0.0573612
-0.0607114
-0.0622952
-0.0622652
-0.0607623
-0.0579192
-0.053859
-0.0486946
-0.0425291
-0.0354577
-0.02757
-0.0189526
-0.00969211
0.000121261
0.0103908
0.0210105
0.0318621
0.0428132
0.0537148
0.0643998
0.074683
0.0843615
0.0932167
0.101018
0.107527
0.112505
0.11572
0.11696
0.116037
0.112796
0.107128
0.0990827
0.0887456
0.0747957
0.0562515
-0.0183427
-0.036615
-0.0500327
-0.0597237
-0.0671821
-0.0724712
-0.0756545
-0.0769102
-0.0764182
-0.0743439
-0.0708409
-0.0660495
-0.0600957
-0.0530919
-0.0451391
-0.0363297
-0.0267506
-0.0164868
-0.00562552
0.00573986
0.0175065
0.0295588
0.0417647
0.0539735
0.0660126
0.077687
0.0887788
0.0990487
0.108239
0.116079
0.12229
0.126599
0.128745
0.128496
0.125651
0.120063
0.111764
0.100829
0.0857976
0.0655995
-0.0332349
-0.052796
-0.0670326
-0.0771545
-0.0847818
-0.090001
-0.092901
-0.0936955
-0.0925985
-0.0898056
-0.0854959
-0.0798302
-0.0729496
-0.064977
-0.0560192
-0.0461706
-0.0355171
-0.0241402
-0.0121221
0.000450035
0.0134793
0.0268554
0.0404499
0.0541128
0.0676687
0.0809146
0.0936186
0.105521
0.116335
0.125754
0.133456
0.139115
0.142417
0.143071
0.140819
0.135465
0.12701
0.115512
0.0993512
0.0773599
-0.0509051
-0.0718507
-0.0869333
-0.0974506
-0.105165
-0.110194
-0.112662
-0.112827
-0.110948
-0.107258
-0.101966
-0.0952586
-0.0872944
-0.0782073
-0.06811
-0.0570979
-0.0452538
-0.0326535
-0.019371
-0.00548443
0.00891917
0.0237383
0.0388522
0.0541152
0.0693524
0.0843559
0.0988822
0.112652
0.125349
0.136626
0.146114
0.153426
0.158181
0.160019
0.158607
0.153683
0.145205
0.1332
0.115865
0.0919238
-0.0716785
-0.0941299
-0.110089
-0.120951
-0.128641
-0.133321
-0.135164
-0.134488
-0.131605
-0.126797
-0.120313
-0.112367
-0.103139
-0.0927745
-0.0813914
-0.0690844
-0.0559309
-0.0419977
-0.0273471
-0.012044
0.00383864
0.020213
0.0369702
0.0539744
0.0710556
0.0880056
0.104572
0.120459
0.135321
0.148771
0.160381
0.169701
0.176267
0.179631
0.179369
0.175128
0.166805
0.154378
0.135831
0.109763
-0.0959398
-0.120052
-0.136922
-0.148053
-0.155567
-0.159686
-0.160652
-0.15886
-0.154696
-0.148501
-0.14057
-0.131154
-0.120454
-0.108629
-0.0958008
-0.0820609
-0.0674778
-0.0521051
-0.0359892
-0.0191765
-0.00172095
0.016309
0.0348227
0.0536995
0.0727811
0.0918643
0.110695
0.128962
0.146294
0.162263
0.176382
0.188122
0.196926
0.202237
0.203513
0.200284
0.192356
0.179634
0.159845
0.131447
-0.124153
-0.150128
-0.167945
-0.179234
-0.186359
-0.18963
-0.189386
-0.186126
-0.180329
-0.172411
-0.162727
-0.151566
-0.139156
-0.125667
-0.111222
-0.0959056
-0.0797735
-0.0628609
-0.0451923
-0.0267903
-0.00768312
0.0120865
0.032453
0.0533185
0.0745441
0.0959398
0.117256
0.138175
0.158304
0.177174
0.194238
0.208879
0.220433
0.228207
0.231512
0.229721
0.222512
0.20968
0.188636
0.157672
-0.156892
-0.184992
-0.203789
-0.21507
-0.221504
-0.223536
-0.221638
-0.216452
-0.208576
-0.198523
-0.186716
-0.173489
-0.159095
-0.143716
-0.127472
-0.110433
-0.0926371
-0.0740939
-0.0548002
-0.0347471
-0.0139306
0.00764017
0.0299327
0.0528811
0.0763747
0.100247
0.124263
0.148108
0.171377
0.193565
0.214064
0.232165
0.247078
0.257953
0.263908
0.264114
0.258064
0.24539
0.223104
0.189295
-0.194882
-0.225454
-0.245251
-0.256267
-0.26158
-0.261832
-0.257687
-0.249979
-0.239462
-0.226765
-0.21239
-0.196723
-0.180039
-0.162525
-0.144289
-0.125384
-0.105819
-0.0855707
-0.0645996
-0.0428584
-0.020302
0.00310215
0.0273638
0.0524588
0.0783163
0.104805
0.131719
0.158759
0.185521
0.211474
0.235955
0.258162
0.277164
0.291922
0.301321
0.304259
0.299973
0.287846
0.264373
0.227381
-0.239069
-0.272569
-0.293353
-0.303705
-0.307271
-0.304991
-0.297805
-0.286801
-0.272933
-0.256969
-0.239502
-0.220965
-0.201651
-0.181741
-0.161323
-0.140418
-0.118995
-0.0969908
-0.0743187
-0.0508838
-0.0265918
-0.00135911
0.0248762
0.0521427
0.0804219
0.109633
0.139614
0.170102
0.200709
0.2309
0.259967
0.287021
0.31098
0.330591
0.344448
0.351096
0.34941
0.338406
0.313874
0.273287
-0.290722
-0.327747
-0.349429
-0.358487
-0.359388
-0.353524
-0.342228
-0.326926
-0.30882
-0.288839
-0.267669
-0.245782
-0.223475
-0.200905
-0.178124
-0.155105
-0.131767
-0.107988
-0.083629
-0.0585357
-0.0325555
-0.00554467
0.0226212
0.0520352
0.0827453
0.114737
0.147915
0.182072
0.216865
0.251778
0.286088
0.318831
0.34878
0.374441
0.39406
0.405728
0.40782
0.398794
0.373459
0.328765
-0.3516
-0.392923
-0.415249
-0.422005
-0.418881
-0.407957
-0.391116
-0.370227
-0.346788
-0.321904
-0.296338
-0.270584
-0.244913
-0.219435
-0.19414
-0.168932
-0.143662
-0.118139
-0.0921554
-0.0654897
-0.0379213
-0.00923715
0.0207594
0.0522377
0.0853266
0.120097
0.156541
0.19454
0.233827
0.273946
0.314194
0.353571
0.390724
0.423912
0.450976
0.469437
0.476978
0.471235
0.445583
0.396148
-0.424223
-0.470815
-0.493198
-0.496014
-0.486834
-0.468774
-0.444477
-0.416364
-0.38627
-0.35546
-0.324747
-0.294597
-0.265216
-0.236624
-0.208718
-0.181307
-0.154152
-0.126977
-0.0994933
-0.0714029
-0.0424088
-0.0122203
0.0194402
0.0528293
0.088171
0.125641
0.165345
0.207283
0.251313
0.297089
0.343989
0.391037
0.436806
0.47933
0.516012
0.543674
0.559072
0.558629
0.533574
0.478646
-0.512357
-0.565337
-0.58651
-0.582702
-0.564421
-0.536317
-0.502039
-0.464665
-0.426363
-0.388505
-0.351877
-0.316841
-0.283471
-0.251645
-0.22112
-0.191581
-0.162672
-0.134018
-0.105236
-0.075942
-0.0457568
-0.0143062
0.0187753
0.0538402
0.0912205
0.131215
0.174069
0.219945
0.26887
0.320679
0.37492
0.430734
0.486723
0.540771
0.58986
0.630005
0.656767
0.664802
0.642069
0.580858
-0.621871
-0.682257
-0.699588
-0.684721
-0.652771
-0.610581
-0.563056
-0.513962
-0.465714
-0.419655
-0.376406
-0.33611
-0.29861
-0.263567
-0.23055
-0.199079
-0.16866
-0.138798
-0.109009
-0.0788184
-0.0477585
-0.0153695
0.018805
0.0552186
0.0943208
0.136549
0.182316
0.231982
0.285808
0.343893
0.406064
0.471733
0.539692
0.60785
0.67288
0.729972
0.773225
0.794824
0.777701
0.709697
-0.762379
-0.830254
-0.838369
-0.805101
-0.752672
-0.690881
-0.626007
-0.562368
-0.50237
-0.447066
-0.396687
-0.350981
-0.309431
-0.271398
-0.236197
-0.203149
-0.171598
-0.140919
-0.110519
-0.0798299
-0.0482992
-0.015383
0.0194645
0.0567983
0.0971889
0.141224
0.189503
0.242623
0.301142
0.365517
0.436003
0.512476
0.594188
0.679382
0.764728
0.844766
0.912009
0.95537
0.950188
0.876149
-0.950567
-1.02259
-1.01058
-0.946817
-0.863935
-0.775244
-0.688135
-0.606969
-0.533606
-0.468359
-0.41073
-0.359837
-0.314654
-0.274137
-0.237297
-0.20322
-0.171073
-0.140097
-0.109593
-0.0789017
-0.047395
-0.0144523
0.0205528
0.0582699
0.0993864
0.144641
0.194834
0.250826
0.313528
0.383859
0.462661
0.550537
0.647574
0.752859
0.86368
0.974516
1.07659
1.15496
1.17406
1.09884
-1.21694
-1.27955
-1.22536
-1.11142
-0.983977
-0.8593
-0.744702
-0.643391
-0.555712
-0.480543
-0.41621
-0.360922
-0.312978
-0.270849
-0.233196
-0.198858
-0.166825
-0.13621
-0.106218
-0.0761188
-0.0452191
-0.0128392
0.0217123
0.0591634
0.100304
0.146012
0.197283
0.255253
0.321222
0.396654
0.483145
0.582316
0.695573
0.82361
0.965409
1.11674
1.26885
1.40346
1.47112
1.41111
-1.6175
-1.63082
-1.4914
-1.29662
-1.10583
-0.934964
-0.78829
-0.665537
-0.563982
-0.480141
-0.410638
-0.352505
-0.303243
-0.260791
-0.223459
-0.189852
-0.158808
-0.129338
-0.100576
-0.0717448
-0.042111
-0.0109593
0.0224419
0.0588727
0.0991972
0.144405
0.195657
0.254346
0.322157
0.401137
0.493759
0.602934
0.731932
0.884034
1.0616
1.26425
1.48651
1.71007
1.87236
1.87262
-2.2543
-2.11576
-1.81351
-1.49437
-1.21738
-0.990496
-0.809417
-0.666468
-0.553647
-0.464037
-0.392087
-0.333483
-0.284901
-0.243786
-0.20815
-0.176425
-0.147348
-0.119871
-0.0931011
-0.0662436
-0.0385598
-0.00932868
0.022189
0.0567901
0.0953723
0.138988
0.18891
0.246722
0.314433
0.39463
0.490679
0.606953
0.749071
0.92401
1.13983
1.40425
1.72097
2.07941
2.41783
2.589
-3.35606
-2.78288
-2.17267
-1.67587
-1.29258
-1.00574
-0.794177
-0.637314
-0.519377
-0.429223
-0.359018
-0.303219
-0.257861
-0.220064
-0.187687
-0.159097
-0.133016
-0.108407
-0.0843967
-0.0602193
-0.0351668
-0.00855
0.0203402
0.0522736
0.0881283
0.128951
0.176038
0.231047
0.296159
0.374319
0.469588
0.587667
0.736633
0.927983
1.17805
1.50841
1.94109
2.49114
3.15773
3.79466
-5.52253
-3.65925
-2.4308
-1.71432
-1.24187
-0.921889
-0.704952
-0.554059
-0.445584
-0.365299
-0.304271
-0.256644
-0.218459
-0.186957
-0.160141
-0.136521
-0.114946
-0.0944883
-0.0743757
-0.0539303
-0.0325281
-0.00956182
0.0155941
0.0436209
0.0752994
0.111567
0.153597
0.202912
0.261557
0.332373
0.419444
0.528834
0.66983
0.857216
1.11555
1.48406
2.01619
2.80532
4.12188
6.09345
-9.20998
-4.51828
-2.30598
-1.42122
-0.958924
-0.682903
-0.512288
-0.400647
-0.323001
-0.266512
-0.223991
-0.191006
-0.16465
-0.142915
-0.124346
-0.107845
-0.0925552
-0.0777798
-0.0629296
-0.0474846
-0.0309628
-0.012894
0.00720613
0.0298626
0.0556738
0.0853526
0.119783
0.160104
0.207835
0.265088
0.334923
0.422007
0.533885
0.683843
0.897513
1.22416
1.754
2.73308
5.06022
9.87242
)
;

boundaryField
{
    movingWall
    {
        type            zeroGradient;
    }
    fixedWalls
    {
        type            zeroGradient;
    }
    frontAndBack
    {
        type            empty;
    }
}


// ************************************************************************* //
