/*--------------------------------*- C++ -*----------------------------------*\
  =========                 |
  \\      /  F ield         | OpenFOAM: The Open Source CFD Toolbox
   \\    /   O peration     | Website:  https://openfoam.org
    \\  /    A nd           | Version:  7
     \\/     M anipulation  |
\*---------------------------------------------------------------------------*/
FoamFile
{
    version     2.0;
    format      ascii;
    class       surfaceScalarField;
    location    "0.12";
    object      phi;
}
// * * * * * * * * * * * * * * * * * * * * * * * * * * * * * * * * * * * * * //

dimensions      [0 3 -1 0 0 0 0];

internalField   nonuniform List<scalar> 
3120
(
2.5334e-09
-2.52262e-09
4.07702e-09
-1.54319e-09
2.23738e-09
1.83922e-09
-3.54442e-09
5.7817e-09
-1.30812e-08
9.53674e-09
-2.5867e-08
1.27858e-08
-4.12655e-08
1.53987e-08
-5.86039e-08
1.73386e-08
-7.72183e-08
1.86141e-08
-9.64749e-08
1.92565e-08
-1.15783e-07
1.93077e-08
-1.34598e-07
1.88157e-08
-1.5243e-07
1.78316e-08
-1.68838e-07
1.64078e-08
-1.83435e-07
1.45972e-08
-1.95888e-07
1.24533e-08
-2.05919e-07
1.00302e-08
-2.13301e-07
7.38259e-09
-2.17867e-07
4.56626e-09
-2.19506e-07
1.6386e-09
-2.18165e-07
-1.34087e-09
-2.13855e-07
-4.31031e-09
-2.06649e-07
-7.20561e-09
-1.96689e-07
-9.96058e-09
-1.84181e-07
-1.25073e-08
-1.69405e-07
-1.47767e-08
-1.52705e-07
-1.66995e-08
-1.34498e-07
-1.82076e-08
-1.15262e-07
-1.92356e-08
-9.55396e-08
-1.97225e-08
-7.59251e-08
-1.96145e-08
-5.70583e-08
-1.88667e-08
-3.96108e-08
-1.74476e-08
-2.4267e-08
-1.53438e-08
-1.16964e-08
-1.25707e-08
-2.50246e-09
-9.19401e-09
2.87255e-09
-5.37504e-09
4.33371e-09
-1.46113e-09
2.549e-09
1.78479e-09
2.54911e-09
1.61136e-09
-4.13351e-09
-1.16897e-09
1.2369e-09
-1.16651e-08
1.23364e-08
-3.09301e-08
2.50467e-08
-5.87628e-08
3.73689e-08
-9.42238e-08
4.82467e-08
-1.35971e-07
5.71462e-08
-1.82474e-07
6.38414e-08
-2.32141e-07
6.82809e-08
-2.83399e-07
7.05144e-08
-3.34742e-07
7.06511e-08
-3.84762e-07
6.88354e-08
-4.32164e-07
6.52334e-08
-4.7578e-07
6.00246e-08
-5.1458e-07
5.33965e-08
-5.47669e-07
4.55425e-08
-5.74299e-07
3.66607e-08
-5.9387e-07
2.69538e-08
-6.05934e-07
1.663e-08
-6.10199e-07
5.90376e-09
-6.06537e-07
-5.00354e-09
-5.94984e-07
-1.58629e-08
-5.75751e-07
-2.64381e-08
-5.49225e-07
-3.64866e-08
-5.15972e-07
-4.5761e-08
-4.76736e-07
-5.4012e-08
-4.32443e-07
-6.09926e-08
-3.84188e-07
-6.64627e-08
-3.33228e-07
-7.01957e-08
-2.80964e-07
-7.19862e-08
-2.28919e-07
-7.16594e-08
-1.78703e-07
-6.90826e-08
-1.31969e-07
-6.41816e-08
-9.0349e-08
-5.69636e-08
-5.53645e-08
-4.75553e-08
-2.82874e-08
-3.62712e-08
-9.92643e-09
-2.37359e-08
-3.03202e-10
-1.10843e-08
1.84244e-09
-3.60706e-10
4.39167e-09
-1.66151e-09
-2.47255e-09
-1.2061e-08
1.16362e-08
-3.39261e-08
3.42017e-08
-6.81128e-08
5.92334e-08
-1.14209e-07
8.3465e-08
-1.70935e-07
1.04973e-07
-2.36468e-07
1.22679e-07
-3.08681e-07
1.36055e-07
-3.85319e-07
1.44918e-07
-4.64109e-07
1.49304e-07
-5.42843e-07
1.49385e-07
-6.19431e-07
1.45424e-07
-6.91938e-07
1.3774e-07
-7.58607e-07
1.26693e-07
-8.17875e-07
1.12665e-07
-8.68391e-07
9.60582e-08
-9.09018e-07
7.72872e-08
-9.38844e-07
5.67807e-08
-9.57194e-07
3.49798e-08
-9.6363e-07
1.23397e-08
-9.57964e-07
-1.06703e-08
-9.4026e-07
-3.3566e-08
-9.10849e-07
-5.58495e-08
-8.70324e-07
-7.70112e-08
-8.19551e-07
-9.65345e-08
-7.59661e-07
-1.13901e-07
-6.92052e-07
-1.28602e-07
-6.18369e-07
-1.40146e-07
-5.4049e-07
-1.48074e-07
-4.60496e-07
-1.5198e-07
-3.80629e-07
-1.51526e-07
-3.03237e-07
-1.46475e-07
-2.307e-07
-1.36719e-07
-1.65333e-07
-1.22331e-07
-1.09251e-07
-1.03638e-07
-6.41902e-08
-8.13319e-08
-3.12652e-08
-5.66608e-08
-1.0656e-08
-3.16933e-08
-1.23771e-09
-9.77888e-09
3.15407e-09
-5.54129e-09
3.06947e-09
-2.48532e-08
3.09478e-08
-5.93852e-08
6.8733e-08
-1.0931e-07
1.09159e-07
-1.73742e-07
1.47898e-07
-2.50983e-07
1.82214e-07
-3.38773e-07
2.10468e-07
-4.34506e-07
2.31788e-07
-5.3541e-07
2.45822e-07
-6.38669e-07
2.52564e-07
-7.4153e-07
2.52246e-07
-8.41366e-07
2.45259e-07
-9.3573e-07
2.32105e-07
-1.02239e-06
2.13355e-07
-1.09936e-06
1.89637e-07
-1.16492e-06
1.61612e-07
-1.2176e-06
1.29971e-07
-1.25625e-06
9.5432e-08
-1.28001e-06
5.87346e-08
-1.28831e-06
2.06429e-08
-1.28093e-06
-1.8055e-08
-1.25794e-06
-5.65478e-08
-1.21979e-06
-9.40028e-08
-1.16723e-06
-1.29571e-07
-1.10137e-06
-1.62393e-07
-1.02366e-06
-1.91612e-07
-9.35874e-07
-2.1639e-07
-8.40097e-07
-2.35923e-07
-7.38704e-07
-2.49467e-07
-6.34311e-07
-2.56372e-07
-5.29727e-07
-2.56111e-07
-4.27875e-07
-2.48327e-07
-3.31703e-07
-2.32891e-07
-2.44062e-07
-2.09972e-07
-1.67555e-07
-1.80145e-07
-1.04351e-07
-1.44536e-07
-5.59633e-08
-1.05048e-07
-2.3007e-08
-6.46494e-08
-4.96718e-09
-2.78185e-08
-1.81302e-09
-9.41961e-09
1.24891e-08
-3.79783e-08
5.95065e-08
-8.56361e-08
1.16391e-07
-1.5161e-07
1.75133e-07
-2.34339e-07
2.30626e-07
-3.31596e-07
2.79471e-07
-4.40656e-07
3.19528e-07
-5.58469e-07
3.49601e-07
-6.81815e-07
3.69168e-07
-8.07433e-07
3.78182e-07
-9.32125e-07
3.76938e-07
-1.05283e-06
3.65968e-07
-1.1667e-06
3.45974e-07
-1.27112e-06
3.17776e-07
-1.36376e-06
2.82277e-07
-1.4426e-06
2.40442e-07
-1.50591e-06
1.93287e-07
-1.55235e-06
1.41866e-07
-1.58088e-06
8.72718e-08
-1.59087e-06
3.06316e-08
-1.58204e-06
-2.68914e-08
-1.55448e-06
-8.41009e-08
-1.50871e-06
-1.39771e-07
-1.44563e-06
-1.92655e-07
-1.36653e-06
-2.41493e-07
-1.27311e-06
-2.85034e-07
-1.16744e-06
-3.22056e-07
-1.05197e-06
-3.51392e-07
-9.29468e-07
-3.71972e-07
-8.02977e-07
-3.82864e-07
-6.75763e-07
-3.83325e-07
-5.51224e-07
-3.72866e-07
-4.32784e-07
-3.5133e-07
-3.23765e-07
-3.18991e-07
-2.27235e-07
-2.76675e-07
-1.45833e-07
-2.25937e-07
-8.15906e-08
-1.69291e-07
-3.57615e-08
-1.10478e-07
-8.71835e-09
-5.48615e-08
-1.05313e-08
-1.3094e-08
2.55829e-08
-5.07651e-08
9.7178e-08
-1.11522e-07
1.77148e-07
-1.93515e-07
2.57126e-07
-2.94382e-07
3.31493e-07
-4.11269e-07
3.96359e-07
-5.40936e-07
4.49195e-07
-6.79875e-07
4.88541e-07
-8.24446e-07
5.13738e-07
-9.70989e-07
5.24726e-07
-1.11593e-06
5.21878e-07
-1.25585e-06
5.05889e-07
-1.38756e-06
4.77686e-07
-1.50815e-06
4.38361e-07
-1.615e-06
3.89128e-07
-1.70585e-06
3.3129e-07
-1.77878e-06
2.66222e-07
-1.83227e-06
1.95357e-07
-1.86518e-06
1.20181e-07
-1.87677e-06
4.22266e-08
-1.86674e-06
-3.69229e-08
-1.8352e-06
-1.15642e-07
-1.78271e-06
-1.92266e-07
-1.71026e-06
-2.65103e-07
-1.6193e-06
-3.3245e-07
-1.51173e-06
-3.92611e-07
-1.38984e-06
-4.43937e-07
-1.25638e-06
-4.84857e-07
-1.11442e-06
-5.13932e-07
-9.67372e-07
-5.29912e-07
-8.18887e-07
-5.31809e-07
-6.72776e-07
-5.18977e-07
-5.32898e-07
-4.91209e-07
-4.03031e-07
-4.48858e-07
-2.86728e-07
-3.92978e-07
-1.87166e-07
-3.255e-07
-1.06995e-07
-2.49461e-07
-4.82428e-08
-1.69231e-07
-1.22821e-08
-9.0822e-08
-2.28134e-08
-1.65251e-08
4.2108e-08
-6.29915e-08
1.43645e-07
-1.36588e-07
2.50744e-07
-2.34386e-07
3.54924e-07
-3.53157e-07
4.50264e-07
-4.89354e-07
5.32556e-07
-6.39163e-07
5.99004e-07
-7.98594e-07
6.47972e-07
-9.63583e-07
6.78728e-07
-1.1301e-06
6.91238e-07
-1.29421e-06
6.85994e-07
-1.45221e-06
6.63883e-07
-1.60061e-06
6.26087e-07
-1.73624e-06
5.73998e-07
-1.85629e-06
5.09171e-07
-1.95827e-06
4.33277e-07
-2.04013e-06
3.48081e-07
-2.1002e-06
2.55425e-07
-2.13724e-06
1.57219e-07
-2.15045e-06
5.54352e-08
-2.13948e-06
-4.78919e-08
-2.10445e-06
-1.50673e-07
-2.04594e-06
-2.50772e-07
-1.96503e-06
-3.46014e-07
-1.86327e-06
-4.34213e-07
-1.74268e-06
-5.13195e-07
-1.60578e-06
-5.80841e-07
-1.4555e-06
-6.35134e-07
-1.2952e-06
-6.74228e-07
-1.1286e-06
-6.96516e-07
-9.59687e-07
-7.00722e-07
-7.92661e-07
-6.86003e-07
-6.31805e-07
-6.52064e-07
-4.81371e-07
-5.99292e-07
-3.45438e-07
-5.28911e-07
-2.27782e-07
-4.43156e-07
-1.31761e-07
-3.45482e-07
-6.02426e-08
-2.4075e-07
-1.56208e-08
-1.35444e-07
-3.84341e-08
-1.97429e-08
6.18508e-08
-7.4664e-08
1.98566e-07
-1.60775e-07
3.36855e-07
-2.741e-07
4.68249e-07
-4.10525e-07
5.86689e-07
-5.65761e-07
6.87793e-07
-7.35381e-07
7.68624e-07
-9.14878e-07
8.27469e-07
-1.09975e-06
8.63603e-07
-1.2856e-06
8.77081e-07
-1.46817e-06
8.68564e-07
-1.64346e-06
8.39175e-07
-1.80776e-06
7.90384e-07
-1.95768e-06
7.2392e-07
-2.09021e-06
6.41706e-07
-2.20274e-06
5.45807e-07
-2.29307e-06
4.38406e-07
-2.35942e-06
3.21775e-07
-2.40047e-06
1.98274e-07
-2.41538e-06
7.03361e-08
-2.40374e-06
-5.95307e-08
-2.36566e-06
-1.8875e-07
-2.30175e-06
-3.14686e-07
-2.2131e-06
-4.34658e-07
-2.10135e-06
-5.45964e-07
-1.96863e-06
-6.45918e-07
-1.81757e-06
-7.31895e-07
-1.65131e-06
-8.01394e-07
-1.47343e-06
-8.52114e-07
-1.2879e-06
-8.82044e-07
-1.09905e-06
-8.89572e-07
-9.11449e-07
-8.73603e-07
-7.29821e-07
-8.33692e-07
-5.58915e-07
-7.70198e-07
-4.03386e-07
-6.84439e-07
-2.67673e-07
-5.78869e-07
-1.55894e-07
-4.5726e-07
-7.17971e-08
-3.24847e-07
-1.87713e-08
-1.88469e-07
-5.72055e-08
-2.27998e-08
8.46507e-08
-8.58892e-08
2.61655e-07
-1.84219e-07
4.35186e-07
-3.12815e-07
5.96844e-07
-4.66671e-07
7.40544e-07
-6.40733e-07
8.61856e-07
-8.29926e-07
9.57816e-07
-1.0292e-06
1.02674e-06
-1.2336e-06
1.068e-06
-1.43834e-06
1.08182e-06
-1.63887e-06
1.06909e-06
-1.83092e-06
1.03123e-06
-2.01056e-06
9.70025e-07
-2.17423e-06
8.87591e-07
-2.31877e-06
7.86245e-07
-2.44144e-06
6.68476e-07
-2.53994e-06
5.36901e-07
-2.61241e-06
3.94246e-07
-2.65747e-06
2.43331e-07
-2.6742e-06
8.70665e-08
-2.66217e-06
-7.15525e-08
-2.62148e-06
-2.29448e-07
-2.55269e-06
-3.83469e-07
-2.45695e-06
-5.30406e-07
-2.33589e-06
-6.67021e-07
-2.19173e-06
-7.90083e-07
-2.02719e-06
-8.96428e-07
-1.84556e-06
-9.83027e-07
-1.6506e-06
-1.04707e-06
-1.44654e-06
-1.0861e-06
-1.23801e-06
-1.0981e-06
-1.02997e-06
-1.08164e-06
-8.27596e-07
-1.03607e-06
-6.36165e-07
-9.61629e-07
-4.6096e-07
-8.59644e-07
-3.07135e-07
-7.32694e-07
-1.79619e-07
-5.84776e-07
-8.30556e-08
-4.2141e-07
-2.17984e-08
-2.49727e-07
-7.90039e-08
-2.5752e-08
1.10403e-07
-9.6809e-08
3.32712e-07
-2.07144e-07
5.4552e-07
-3.50817e-07
7.40518e-07
-5.21941e-07
9.11668e-07
-7.14677e-07
1.05459e-06
-9.23275e-07
1.16641e-06
-1.14212e-06
1.24559e-06
-1.36579e-06
1.29167e-06
-1.58912e-06
1.30515e-06
-1.80724e-06
1.28722e-06
-2.01565e-06
1.23963e-06
-2.21021e-06
1.16459e-06
-2.38722e-06
1.0646e-06
-2.5434e-06
9.42425e-07
-2.67591e-06
8.0099e-07
-2.78238e-06
6.43371e-07
-2.8609e-06
4.72757e-07
-2.91e-06
2.92439e-07
-2.92875e-06
1.05809e-07
-2.91665e-06
-8.36447e-08
-2.87376e-06
-2.72337e-07
-2.80064e-06
-4.56594e-07
-2.69838e-06
-6.32665e-07
-2.56864e-06
-7.96757e-07
-2.41366e-06
-9.45069e-07
-2.23622e-06
-1.07386e-06
-2.03972e-06
-1.17953e-06
-1.82808e-06
-1.25872e-06
-1.60575e-06
-1.30843e-06
-1.37768e-06
-1.32617e-06
-1.14919e-06
-1.31012e-06
-9.25956e-07
-1.25931e-06
-7.1382e-07
-1.17377e-06
-5.18736e-07
-1.05473e-06
-3.46624e-07
-9.04806e-07
-2.03263e-07
-7.28137e-07
-9.42123e-08
-5.30461e-07
-2.47729e-08
-3.19166e-07
-1.03777e-07
-2.86514e-08
1.39054e-07
-1.0757e-07
4.11632e-07
-2.29795e-07
6.67744e-07
-3.88444e-07
8.99167e-07
-5.76744e-07
1.09997e-06
-7.88061e-07
1.26591e-06
-1.01595e-06
1.3943e-06
-1.25421e-06
1.48385e-06
-1.49694e-06
1.5344e-06
-1.73858e-06
1.54679e-06
-1.97397e-06
1.52261e-06
-2.19837e-06
1.46403e-06
-2.40748e-06
1.3737e-06
-2.59747e-06
1.25459e-06
-2.76497e-06
1.10992e-06
-2.90708e-06
9.43098e-07
-3.02137e-06
7.57659e-07
-3.10588e-06
5.57265e-07
-3.15912e-06
3.45682e-07
-3.18009e-06
1.2678e-07
-3.16827e-06
-9.5464e-08
-3.12365e-06
-3.16961e-07
-3.04673e-06
-5.33512e-07
-2.93857e-06
-7.40825e-07
-2.80079e-06
-9.34534e-07
-2.63561e-06
-1.11025e-06
-2.44585e-06
-1.26362e-06
-2.23496e-06
-1.39042e-06
-2.007e-06
-1.48668e-06
-1.76663e-06
-1.5488e-06
-1.51908e-06
-1.57372e-06
-1.27009e-06
-1.55912e-06
-1.02579e-06
-1.50361e-06
-7.92665e-07
-1.40689e-06
-5.77376e-07
-1.27002e-06
-3.86659e-07
-1.09552e-06
-2.27189e-07
-8.87607e-07
-1.05473e-07
-6.52177e-07
-2.77643e-08
-3.96875e-07
-1.31541e-07
-3.15441e-08
1.70598e-07
-1.18312e-07
4.984e-07
-2.52415e-07
8.01847e-07
-4.26032e-07
1.07278e-06
-6.31493e-07
1.30543e-06
-8.61348e-07
1.49576e-06
-1.10844e-06
1.6414e-06
-1.36597e-06
1.74137e-06
-1.62753e-06
1.79597e-06
-1.8872e-06
1.80646e-06
-2.13951e-06
1.77492e-06
-2.37951e-06
1.70403e-06
-2.60276e-06
1.59695e-06
-2.80533e-06
1.45716e-06
-2.9838e-06
1.28839e-06
-3.13522e-06
1.09452e-06
-3.25716e-06
8.7959e-07
-3.34761e-06
6.47722e-07
-3.40508e-06
4.03151e-07
-3.42851e-06
1.50214e-07
-3.41734e-06
-1.06634e-07
-3.37149e-06
-3.62814e-07
-3.29139e-06
-6.13616e-07
-3.17801e-06
-8.54203e-07
-3.03291e-06
-1.07964e-06
-2.85824e-06
-1.28492e-06
-2.65681e-06
-1.46505e-06
-2.43209e-06
-1.61514e-06
-2.18824e-06
-1.73053e-06
-1.93009e-06
-1.80694e-06
-1.66316e-06
-1.84065e-06
-1.39356e-06
-1.82872e-06
-1.12797e-06
-1.7692e-06
-8.73492e-07
-1.66137e-06
-6.37557e-07
-1.50595e-06
-4.27772e-07
-1.30531e-06
-2.51765e-07
-1.06361e-06
-1.1704e-07
-7.86902e-07
-3.08374e-08
-4.83077e-07
-1.62379e-07
-3.44702e-08
2.05068e-07
-1.29158e-07
5.93088e-07
-2.75228e-07
9.47917e-07
-4.63895e-07
1.26145e-06
-6.86568e-07
1.5281e-06
-9.34958e-07
1.74415e-06
-1.20117e-06
1.90761e-06
-1.47779e-06
2.01799e-06
-1.75791e-06
2.0761e-06
-2.03523e-06
2.08378e-06
-2.30401e-06
2.0437e-06
-2.55911e-06
1.95913e-06
-2.79598e-06
1.83382e-06
-3.01063e-06
1.67181e-06
-3.1996e-06
1.47737e-06
-3.35998e-06
1.2549e-06
-3.48931e-06
1.00892e-06
-3.58561e-06
7.44027e-07
-3.64737e-06
4.64909e-07
-3.67351e-06
1.76349e-07
-3.66339e-06
-1.16747e-07
-3.61687e-06
-4.09333e-07
-3.53428e-06
-6.96207e-07
-3.41648e-06
-9.72003e-07
-3.26491e-06
-1.23121e-06
-3.08161e-06
-1.46821e-06
-2.86933e-06
-1.67733e-06
-2.6315e-06
-1.85297e-06
-2.37232e-06
-1.98971e-06
-2.09679e-06
-2.08248e-06
-1.81065e-06
-2.12679e-06
-1.52042e-06
-2.11895e-06
-1.23329e-06
-2.05633e-06
-9.57046e-07
-1.93761e-06
-6.9993e-07
-1.76307e-06
-4.70481e-07
-1.53476e-06
-2.77349e-07
-1.25674e-06
-1.29107e-07
-9.35145e-07
-3.40525e-08
-5.78132e-07
-1.96431e-07
-3.74649e-08
2.42533e-07
-1.40222e-07
6.95845e-07
-2.98437e-07
1.10613e-06
-5.02318e-07
1.46533e-06
-7.42308e-07
1.76809e-06
-1.00924e-06
2.01109e-06
-1.29446e-06
2.19283e-06
-1.58992e-06
2.31344e-06
-1.88822e-06
2.3744e-06
-2.18268e-06
2.37824e-06
-2.46731e-06
2.32833e-06
-2.73683e-06
2.22865e-06
-2.9866e-06
2.08359e-06
-3.21262e-06
1.89784e-06
-3.41148e-06
1.67622e-06
-3.58028e-06
1.4237e-06
-3.71663e-06
1.14527e-06
-3.81859e-06
8.45985e-07
-3.88465e-06
5.30965e-07
-3.9137e-06
2.05408e-07
-3.90509e-06
-1.25365e-07
-3.85854e-06
-4.55879e-07
-3.77428e-06
-7.8047e-07
-3.65301e-06
-1.09327e-06
-3.496e-06
-1.38822e-06
-3.30516e-06
-1.65906e-06
-3.08306e-06
-1.89943e-06
-2.83307e-06
-2.10296e-06
-2.55937e-06
-2.2634e-06
-2.26704e-06
-2.37481e-06
-1.96205e-06
-2.43178e-06
-1.65127e-06
-2.42973e-06
-1.34242e-06
-2.36518e-06
-1.044e-06
-2.23604e-06
-7.65099e-07
-2.04197e-06
-5.15272e-07
-1.78459e-06
-3.04277e-07
-1.46774e-06
-1.41855e-07
-1.09757e-06
-3.74658e-08
-6.82521e-07
-2.33897e-07
-4.056e-08
2.83093e-07
-1.51605e-07
8.0689e-07
-3.22228e-07
1.27675e-06
-5.41554e-07
1.68466e-06
-7.99002e-07
2.02554e-06
-1.08448e-06
2.29656e-06
-1.38853e-06
2.49688e-06
-1.70246e-06
2.62737e-06
-2.01838e-06
2.69032e-06
-2.32926e-06
2.68911e-06
-2.62888e-06
2.62795e-06
-2.91186e-06
2.51163e-06
-3.17355e-06
2.34528e-06
-3.40999e-06
2.13428e-06
-3.61785e-06
1.88408e-06
-3.79433e-06
1.60018e-06
-3.93713e-06
1.28808e-06
-4.04441e-06
9.53257e-07
-4.11467e-06
6.01232e-07
-4.14684e-06
2.37573e-07
-4.14017e-06
-1.32033e-07
-4.09432e-06
-5.01733e-07
-4.00933e-06
-8.65453e-07
-3.88574e-06
-1.21686e-06
-3.72459e-06
-1.54937e-06
-3.52756e-06
-1.85609e-06
-3.29701e-06
-2.12998e-06
-3.03614e-06
-2.36383e-06
-2.74904e-06
-2.5505e-06
-2.4408e-06
-2.68304e-06
-2.11756e-06
-2.75503e-06
-1.7865e-06
-2.76078e-06
-1.45589e-06
-2.69579e-06
-1.13491e-06
-2.55701e-06
-8.33605e-07
-2.34327e-06
-5.62595e-07
-2.0556e-06
-3.32868e-07
-1.69747e-06
-1.55458e-07
-1.27498e-06
-4.11306e-08
-7.96849e-07
-2.75027e-07
-4.37856e-08
3.26879e-07
-1.63406e-07
9.2651e-07
-3.46774e-07
1.46012e-06
-5.81836e-07
1.91972e-06
-8.56898e-07
2.3006e-06
-1.16088e-06
2.60054e-06
-1.48348e-06
2.81948e-06
-1.81534e-06
2.95923e-06
-2.14809e-06
3.02307e-06
-2.47436e-06
3.01539e-06
-2.7878e-06
2.94139e-06
-3.08295e-06
2.80677e-06
-3.35521e-06
2.61755e-06
-3.60075e-06
2.37982e-06
-3.81639e-06
2.09972e-06
-3.99951e-06
1.7833e-06
-4.14796e-06
1.43653e-06
-4.26001e-06
1.0653e-06
-4.33426e-06
6.75486e-07
-4.36965e-06
2.7296e-07
-4.36539e-06
-1.36289e-07
-4.32103e-06
-5.46096e-07
-4.23644e-06
-9.50044e-07
-4.1119e-06
-1.3414e-06
-3.94819e-06
-1.71307e-06
-3.74668e-06
-2.05761e-06
-3.50943e-06
-2.36723e-06
-3.23937e-06
-2.63389e-06
-2.94041e-06
-2.84946e-06
-2.61755e-06
-3.0059e-06
-2.27701e-06
-3.09557e-06
-1.92625e-06
-3.11154e-06
-1.57401e-06
-3.04803e-06
-1.23024e-06
-2.90079e-06
-9.05915e-07
-2.6676e-06
-6.12864e-07
-2.34865e-06
-3.63422e-07
-1.94691e-06
-1.70083e-07
-1.46831e-06
-4.50988e-08
-9.21834e-07
-3.20126e-07
-4.7173e-08
3.74052e-07
-1.75725e-07
1.05506e-06
-3.72251e-07
1.65665e-06
-6.23388e-07
2.17086e-06
-9.16217e-07
2.59343e-06
-1.23858e-06
2.9229e-06
-1.57929e-06
3.1602e-06
-1.9283e-06
3.30825e-06
-2.27677e-06
3.37154e-06
-2.61707e-06
3.35568e-06
-2.94271e-06
3.26703e-06
-3.24828e-06
3.11234e-06
-3.52932e-06
2.89859e-06
-3.78222e-06
2.63271e-06
-4.00401e-06
2.32151e-06
-4.19234e-06
1.97163e-06
-4.3453e-06
1.58948e-06
-4.46132e-06
1.18133e-06
-4.53916e-06
7.53324e-07
-4.57779e-06
3.11585e-07
-4.5764e-06
-1.37681e-07
-4.5344e-06
-5.8809e-07
-4.45148e-06
-1.03296e-06
-4.32764e-06
-1.46524e-06
-4.1633e-06
-1.87741e-06
-3.95943e-06
-2.26148e-06
-3.71771e-06
-2.60895e-06
-3.44067e-06
-2.91093e-06
-3.13191e-06
-3.15822e-06
-2.79623e-06
-3.34158e-06
-2.43981e-06
-3.45199e-06
-2.07031e-06
-3.48104e-06
-1.69691e-06
-3.42143e-06
-1.33028e-06
-3.26742e-06
-9.82422e-07
-3.01545e-06
-6.66455e-07
-2.66461e-06
-3.96228e-07
-2.21714e-06
-1.85895e-07
-1.67865e-06
-4.94229e-08
-1.05831e-06
-3.69549e-07
-5.07575e-08
4.24809e-07
-1.88673e-07
1.19298e-06
-3.98851e-07
1.86683e-06
-6.66444e-07
2.43845e-06
-9.77168e-07
2.90416e-06
-1.31768e-06
3.26341e-06
-1.67584e-06
3.51836e-06
-2.04092e-06
3.67332e-06
-2.40361e-06
3.73423e-06
-2.75606e-06
3.70814e-06
-3.09178e-06
3.60274e-06
-3.40548e-06
3.42605e-06
-3.69296e-06
3.18607e-06
-3.9509e-06
2.89065e-06
-4.17671e-06
2.54733e-06
-4.36838e-06
2.1633e-06
-4.52431e-06
1.74541e-06
-4.64321e-06
1.30023e-06
-4.72399e-06
8.34109e-07
-4.76574e-06
3.53328e-07
-4.76762e-06
-1.35797e-07
-4.72895e-06
-6.26765e-07
-4.64916e-06
-1.11275e-06
-4.52794e-06
-1.58647e-06
-4.36528e-06
-2.04007e-06
-4.16167e-06
-2.46509e-06
-3.91826e-06
-2.85236e-06
-3.63707e-06
-3.19212e-06
-3.32122e-06
-3.47407e-06
-2.97516e-06
-3.68764e-06
-2.60489e-06
-3.82226e-06
-2.21814e-06
-3.8678e-06
-1.82445e-06
-3.81512e-06
-1.43519e-06
-3.65668e-06
-1.06344e-06
-3.3872e-06
-7.23716e-07
-3.00434e-06
-4.3157e-07
-2.50928e-06
-2.03062e-07
-1.90716e-06
-5.41578e-08
-1.20721e-06
-4.23707e-07
-5.45823e-08
4.79391e-07
-2.02387e-07
1.34078e-06
-4.26798e-07
2.09124e-06
-7.11272e-07
2.72292e-06
-1.03997e-06
3.23286e-06
-1.39824e-06
3.62168e-06
-1.77292e-06
3.89304e-06
-2.15255e-06
4.05296e-06
-2.52745e-06
4.10913e-06
-2.88961e-06
4.0703e-06
-3.23264e-06
3.94577e-06
-3.55151e-06
3.74492e-06
-3.8424e-06
3.47696e-06
-4.10245e-06
3.1507e-06
-4.32954e-06
2.77442e-06
-4.52213e-06
2.35589e-06
-4.67903e-06
1.90231e-06
-4.7993e-06
1.4205e-06
-4.88211e-06
9.16918e-07
-4.92667e-06
3.97887e-07
-4.93218e-06
-1.30288e-07
-4.89782e-06
-6.6112e-07
-4.8228e-06
-1.18776e-06
-4.70642e-06
-1.70285e-06
-4.54819e-06
-2.1983e-06
-4.348e-06
-2.66528e-06
-4.10635e-06
-3.09402e-06
-3.82455e-06
-3.47391e-06
-3.5051e-06
-3.79353e-06
-3.15188e-06
-4.04086e-06
-2.77055e-06
-4.20359e-06
-2.36872e-06
-4.26963e-06
-1.95617e-06
-4.22766e-06
-1.54494e-06
-4.06791e-06
-1.14919e-06
-3.78295e-06
-7.84968e-07
-3.36856e-06
-4.69738e-07
-2.82451e-06
-2.21766e-07
-2.15513e-06
-5.93641e-08
-1.36961e-06
-4.83071e-07
-5.8703e-08
5.38094e-07
-2.17037e-07
1.49912e-06
-4.56379e-07
2.33058e-06
-7.58203e-07
3.02475e-06
-1.10489e-06
3.57954e-06
-1.48029e-06
3.99709e-06
-1.87018e-06
4.28292e-06
-2.26236e-06
4.44514e-06
-2.64682e-06
4.49358e-06
-3.01552e-06
4.43901e-06
-3.36231e-06
4.29255e-06
-3.68258e-06
4.06519e-06
-3.97307e-06
3.76745e-06
-4.23152e-06
3.40915e-06
-4.45645e-06
2.99936e-06
-4.64691e-06
2.54634e-06
-4.80223e-06
2.05764e-06
-4.92193e-06
1.5402e-06
-5.0055e-06
1.00049e-06
-5.05235e-06
4.44732e-07
-5.06173e-06
-1.20912e-07
-5.03272e-06
-6.90126e-07
-4.96428e-06
-1.25621e-06
-4.85528e-06
-1.81184e-06
-4.70468e-06
-2.34891e-06
-4.51166e-06
-2.85829e-06
-4.27591e-06
-3.32977e-06
-3.99791e-06
-3.75192e-06
-3.67925e-06
-4.11219e-06
-3.32307e-06
-4.39704e-06
-2.93439e-06
-4.59227e-06
-2.52051e-06
-4.68351e-06
-2.0913e-06
-4.65688e-06
-1.65931e-06
-4.4999e-06
-1.23982e-06
-4.20244e-06
-8.50517e-07
-3.75786e-06
-5.1104e-07
-3.16399e-06
-2.42207e-07
-2.42396e-06
-6.51115e-08
-1.54671e-06
-5.48183e-07
-6.31947e-08
6.01289e-07
-2.32854e-07
1.66877e-06
-4.87967e-07
2.58569e-06
-8.0766e-07
3.34444e-06
-1.17223e-06
3.94411e-06
-1.56388e-06
4.38874e-06
-1.96717e-06
4.68621e-06
-2.36925e-06
4.84722e-06
-2.75982e-06
4.88415e-06
-3.13101e-06
4.8102e-06
-3.47707e-06
4.63861e-06
-3.79404e-06
4.38216e-06
-4.07939e-06
4.0528e-06
-4.33167e-06
3.66143e-06
-4.5502e-06
3.21788e-06
-4.73475e-06
2.7309e-06
-4.88535e-06
2.20824e-06
-5.00203e-06
1.65687e-06
-5.0847e-06
1.08316e-06
-5.13303e-06
4.93064e-07
-5.14638e-06
-1.07566e-07
-5.12375e-06
-7.12756e-07
-5.06383e-06
-1.31612e-06
-4.96506e-06
-1.91061e-06
-4.82575e-06
-2.48822e-06
-4.64429e-06
-3.03975e-06
-4.41942e-06
-3.55464e-06
-4.15053e-06
-4.0208e-06
-3.83814e-06
-4.42458e-06
-3.48429e-06
-4.75088e-06
-3.09313e-06
-4.98343e-06
-2.67133e-06
-5.10531e-06
-2.22857e-06
-5.09964e-06
-1.7778e-06
-4.95066e-06
-1.33535e-06
-4.6449e-06
-9.2066e-07
-4.17255e-06
-5.55816e-07
-3.52883e-06
-2.64621e-07
-2.71516e-06
-7.14838e-08
-1.73984e-06
-6.19666e-07
-6.816e-08
6.69449e-07
-2.50147e-07
1.85076e-06
-5.22062e-07
2.85761e-06
-8.60203e-07
3.68258e-06
-1.24242e-06
4.32633e-06
-1.64902e-06
4.79534e-06
-2.0633e-06
5.10049e-06
-2.47177e-06
5.25568e-06
-2.86404e-06
5.27642e-06
-3.23259e-06
5.17875e-06
-3.57233e-06
4.97835e-06
-3.88018e-06
4.69001e-06
-4.15461e-06
4.32722e-06
-4.39517e-06
3.90199e-06
-4.60216e-06
3.42488e-06
-4.77628e-06
2.90501e-06
-4.91832e-06
2.35027e-06
-5.02897e-06
1.76752e-06
-5.10864e-06
1.16283e-06
-5.15734e-06
5.41763e-07
-5.17457e-06
-9.0339e-08
-5.15929e-06
-7.28033e-07
-5.10995e-06
-1.36546e-06
-5.02453e-06
-1.99604e-06
-4.90064e-06
-2.6121e-06
-4.73579e-06
-3.2046e-06
-4.5276e-06
-3.76284e-06
-4.2742e-06
-4.2742e-06
-3.97473e-06
-4.72405e-06
-3.62986e-06
-5.09575e-06
-3.24245e-06
-5.37085e-06
-2.81818e-06
-5.52957e-06
-2.36622e-06
-5.55161e-06
-1.89964e-06
-5.41725e-06
-1.43569e-06
-5.10885e-06
-9.95695e-07
-4.61254e-06
-6.04461e-07
-3.92007e-06
-2.89294e-07
-3.03032e-06
-7.85858e-08
-1.95055e-06
-6.98252e-07
-7.37417e-08
7.43191e-07
-2.69343e-07
2.04636e-06
-5.59336e-07
3.1476e-06
-9.16568e-07
4.03981e-06
-1.31597e-06
4.72573e-06
-1.7357e-06
5.21506e-06
-2.15774e-06
5.52253e-06
-2.56805e-06
5.666e-06
-2.95639e-06
5.66477e-06
-3.31588e-06
5.53823e-06
-3.6424e-06
5.30488e-06
-3.93407e-06
4.98168e-06
-4.1906e-06
4.58375e-06
-4.41282e-06
4.12422e-06
-4.60221e-06
3.61427e-06
-4.76052e-06
3.06332e-06
-4.88946e-06
2.47922e-06
-4.99049e-06
1.86855e-06
-5.0646e-06
1.23695e-06
-5.1122e-06
5.8936e-07
-5.13299e-06
-6.95463e-08
-5.12595e-06
-7.35073e-07
-5.0893e-06
-1.40212e-06
-5.02056e-06
-2.06478e-06
-4.91664e-06
-2.71601e-06
-4.77407e-06
-3.34717e-06
-4.58924e-06
-3.94767e-06
-4.35882e-06
-4.50462e-06
-4.08026e-06
-5.00261e-06
-3.7525e-06
-5.42351e-06
-3.37669e-06
-5.74666e-06
-2.95705e-06
-5.94921e-06
-2.50174e-06
-6.00691e-06
-2.0236e-06
-5.89539e-06
-1.5406e-06
-5.59185e-06
-1.07593e-06
-5.07722e-06
-6.57454e-07
-4.33854e-06
-3.16592e-07
-3.37118e-06
-8.65538e-08
-2.18059e-06
-7.84806e-07
-8.01392e-08
8.2333e-07
-2.91024e-07
2.25725e-06
-6.00695e-07
3.45727e-06
-9.77714e-07
4.41683e-06
-1.39352e-06
5.14154e-06
-1.82383e-06
5.64537e-06
-2.2493e-06
5.948e-06
-2.65556e-06
6.07226e-06
-3.03285e-06
6.04206e-06
-3.3753e-06
5.88068e-06
-3.6802e-06
5.60977e-06
-3.94719e-06
5.24867e-06
-4.17759e-06
4.81415e-06
-4.37372e-06
4.32035e-06
-4.53845e-06
3.779e-06
-4.67475e-06
3.19961e-06
-4.78537e-06
2.58984e-06
-4.87261e-06
1.9558e-06
-4.93812e-06
1.30246e-06
-4.98278e-06
6.34015e-07
-5.00655e-06
-4.57723e-08
-5.00847e-06
-7.33151e-07
-4.98659e-06
-1.42399e-06
-4.93801e-06
-2.11337e-06
-4.85895e-06
-2.79508e-06
-4.74491e-06
-3.46121e-06
-4.59095e-06
-4.10162e-06
-4.3921e-06
-4.70348e-06
-4.14387e-06
-5.25083e-06
-3.84305e-06
-5.72434e-06
-3.48857e-06
-6.10115e-06
-3.08261e-06
-6.35517e-06
-2.63174e-06
-6.45778e-06
-2.14797e-06
-6.37916e-06
-1.64963e-06
-6.09019e-06
-1.16169e-06
-5.56515e-06
-7.15395e-07
-4.78484e-06
-3.4699e-07
-3.73959e-06
-9.55696e-08
-2.43201e-06
-8.80376e-07
-8.76332e-08
9.10963e-07
-3.15994e-07
2.48561e-06
-6.47347e-07
3.78863e-06
-1.04487e-06
4.81435e-06
-1.47578e-06
5.57245e-06
-1.91309e-06
6.08268e-06
-2.33622e-06
6.37113e-06
-2.73082e-06
6.46687e-06
-3.08808e-06
6.39931e-06
-3.40369e-06
6.19629e-06
-3.67682e-06
5.8829e-06
-3.9091e-06
5.48096e-06
-4.10377e-06
5.00881e-06
-4.26493e-06
4.48151e-06
-4.39701e-06
3.91108e-06
-4.50433e-06
3.30693e-06
-4.59076e-06
2.67627e-06
-4.65952e-06
2.02455e-06
-4.71297e-06
1.35591e-06
-4.75248e-06
6.73525e-07
-4.77836e-06
-1.98945e-08
-4.78975e-06
-7.21757e-07
-4.78461e-06
-1.42913e-06
-4.75969e-06
-2.13829e-06
-4.71055e-06
-2.84422e-06
-4.63171e-06
-3.54004e-06
-4.51688e-06
-4.21645e-06
-4.35927e-06
-4.86108e-06
-4.15223e-06
-5.45787e-06
-3.88999e-06
-5.98658e-06
-3.56871e-06
-6.42242e-06
-3.18784e-06
-6.73604e-06
-2.75153e-06
-6.8941e-06
-2.27022e-06
-6.86046e-06
-1.76198e-06
-6.59843e-06
-1.2533e-06
-6.07383e-06
-7.79048e-07
-5.25909e-06
-3.81128e-07
-4.13751e-06
-1.05884e-07
-2.70726e-06
-9.8626e-07
-9.66227e-08
1.00759e-06
-3.4536e-07
2.73435e-06
-7.00894e-07
4.14416e-06
-1.11953e-06
5.23299e-06
-1.56345e-06
6.01636e-06
-2.00271e-06
6.52195e-06
-2.41577e-06
6.78419e-06
-2.78888e-06
6.83998e-06
-3.11487e-06
6.7253e-06
-3.39168e-06
6.4731e-06
-3.62099e-06
6.11221e-06
-3.80689e-06
5.66686e-06
-3.9549e-06
5.15682e-06
-4.07114e-06
4.59776e-06
-4.16177e-06
4.00171e-06
-4.23251e-06
3.37767e-06
-4.28841e-06
2.73217e-06
-4.3336e-06
2.06975e-06
-4.37117e-06
1.39347e-06
-4.40302e-06
7.05377e-07
-4.42982e-06
6.91171e-09
-4.45092e-06
-7.00658e-07
-4.46426e-06
-1.4158e-06
-4.46633e-06
-2.13622e-06
-4.45218e-06
-2.85837e-06
-4.41544e-06
-3.57678e-06
-4.34848e-06
-4.28341e-06
-4.24271e-06
-4.96685e-06
-4.08909e-06
-5.61149e-06
-3.87895e-06
-6.19672e-06
-3.60512e-06
-6.69625e-06
-3.26345e-06
-7.07771e-06
-2.85473e-06
-7.30281e-06
-2.38676e-06
-7.32844e-06
-1.87638e-06
-7.1088e-06
-1.35108e-06
-6.59914e-06
-8.494e-07
-5.76077e-06
-4.1988e-07
-4.56703e-06
-1.17851e-07
-3.00929e-06
-1.10411e-06
-1.07681e-07
1.11527e-06
-3.80654e-07
3.00732e-06
-7.63429e-07
4.52693e-06
-1.2035e-06
5.67306e-06
-1.657e-06
6.46987e-06
-2.09103e-06
6.95597e-06
-2.48365e-06
7.1768e-06
-2.82258e-06
7.17891e-06
-3.1033e-06
7.00601e-06
-3.3269e-06
6.69671e-06
-3.49827e-06
6.28358e-06
-3.6245e-06
5.79308e-06
-3.71372e-06
5.24604e-06
-3.77426e-06
4.65829e-06
-3.81405e-06
4.0415e-06
-3.84025e-06
3.40388e-06
-3.85904e-06
2.75095e-06
-3.87539e-06
2.0861e-06
-3.89308e-06
1.41116e-06
-3.91455e-06
7.26839e-07
-3.94083e-06
3.31981e-08
-3.97153e-06
-6.69954e-07
-4.0047e-06
-1.38263e-06
-4.03675e-06
-2.10418e-06
-4.06237e-06
-2.83275e-06
-4.07449e-06
-3.56466e-06
-4.06434e-06
-4.29357e-06
-4.02158e-06
-5.00961e-06
-3.93477e-06
-5.6983e-06
-3.79205e-06
-6.33944e-06
-3.58236e-06
-6.90594e-06
-3.29712e-06
-7.36294e-06
-2.93253e-06
-7.6674e-06
-2.49232e-06
-7.76865e-06
-1.99073e-06
-7.61039e-06
-1.45518e-06
-7.13469e-06
-9.27722e-07
-6.28823e-06
-4.64466e-07
-5.03029e-06
-1.31983e-07
-3.34177e-06
-1.23609e-06
-1.2165e-07
1.23692e-06
-4.24003e-07
3.30967e-06
-8.37648e-07
4.94058e-06
-1.29868e-06
6.13409e-06
-1.75625e-06
6.92744e-06
-2.17474e-06
7.37447e-06
-2.53291e-06
7.53498e-06
-2.82137e-06
7.46738e-06
-3.03956e-06
7.2242e-06
-3.19284e-06
6.84999e-06
-3.2901e-06
6.38083e-06
-3.34192e-06
5.8449e-06
-3.35932e-06
5.26344e-06
-3.3529e-06
4.65188e-06
-3.33234e-06
4.02094e-06
-3.30611e-06
3.37764e-06
-3.28133e-06
2.72617e-06
-3.26373e-06
2.0685e-06
-3.25763e-06
1.40506e-06
-3.26592e-06
7.35131e-07
-3.29003e-06
5.7309e-08
-3.32986e-06
-6.30121e-07
-3.3837e-06
-1.32879e-06
-3.44807e-06
-2.03981e-06
-3.51757e-06
-2.76325e-06
-3.58475e-06
-3.49747e-06
-3.63999e-06
-4.23832e-06
-3.67151e-06
-4.97809e-06
-3.66557e-06
-5.70424e-06
-3.60708e-06
-6.39793e-06
-3.48066e-06
-7.03236e-06
-3.27244e-06
-7.57117e-06
-2.97265e-06
-7.96719e-06
-2.57914e-06
-8.16216e-06
-2.10154e-06
-8.088e-06
-1.56544e-06
-7.67079e-06
-1.01562e-06
-6.83805e-06
-5.16602e-07
-5.5293e-06
-1.49044e-07
-3.70933e-06
-1.38514e-06
-1.39788e-07
1.3767e-06
-4.78372e-07
3.64826e-06
-9.26913e-07
5.38912e-06
-1.40682e-06
6.614e-06
-1.85947e-06
7.38008e-06
-2.24757e-06
7.76257e-06
-2.55246e-06
7.83986e-06
-2.76965e-06
7.68457e-06
-2.90431e-06
7.35886e-06
-2.96734e-06
6.91302e-06
-2.97245e-06
6.38594e-06
-2.93414e-06
5.80659e-06
-2.86639e-06
5.19569e-06
-2.78196e-06
4.56745e-06
-2.69204e-06
3.93102e-06
-2.60613e-06
3.29173e-06
-2.53202e-06
2.65207e-06
-2.47595e-06
2.01243e-06
-2.44257e-06
1.37168e-06
-2.43509e-06
7.27659e-07
-2.45528e-06
7.74971e-08
-2.50338e-06
-5.8202e-07
-2.57804e-06
-1.25413e-06
-2.67614e-06
-1.94172e-06
-2.79252e-06
-2.64687e-06
-2.91978e-06
-3.37021e-06
-3.04795e-06
-4.11015e-06
-3.16428e-06
-4.86176e-06
-3.2532e-06
-5.61532e-06
-3.2966e-06
-6.35454e-06
-3.27463e-06
-7.05432e-06
-3.16742e-06
-7.67838e-06
-2.95781e-06
-8.1768e-06
-2.63557e-06
-8.4844e-06
-2.20292e-06
-8.52065e-06
-1.68085e-06
-8.19285e-06
-1.11501e-06
-7.40389e-06
-5.7872e-07
-6.06559e-06
-1.70198e-07
-4.11785e-06
-1.55534e-06
-1.64034e-07
1.54074e-06
-5.47911e-07
4.03213e-06
-1.03521e-06
5.87641e-06
-1.52867e-06
7.10746e-06
-1.96187e-06
7.81328e-06
-2.29815e-06
8.09885e-06
-2.52451e-06
8.06622e-06
-2.64422e-06
7.80429e-06
-2.67033e-06
7.38497e-06
-2.62065e-06
6.86334e-06
-2.5144e-06
6.27968e-06
-2.37009e-06
5.66228e-06
-2.2045e-06
5.0301e-06
-2.03216e-06
4.39511e-06
-1.8653e-06
3.76416e-06