/*--------------------------------*- C++ -*----------------------------------*\
  =========                 |
  \\      /  F ield         | OpenFOAM: The Open Source CFD Toolbox
   \\    /   O peration     | Website:  https://openfoam.org
    \\  /    A nd           | Version:  7
     \\/     M anipulation  |
\*---------------------------------------------------------------------------*/
FoamFile
{
    version     2.0;
    format      ascii;
    class       volVectorField;
    location    "0.12";
    object      U;
}
// * * * * * * * * * * * * * * * * * * * * * * * * * * * * * * * * * * * * * //

dimensions      [0 1 -1 0 0 0 0];

internalField   nonuniform List<vector> 
1600
(
(6.04792e-05 -5.98607e-05 0)
(0.000155373 -5.654e-05 0)
(0.00015609 -6.87925e-06 0)
(6.3209e-06 5.22424e-05 0)
(-0.000302186 0.000107461 0)
(-0.000753214 0.000154059 0)
(-0.00132242 0.000190681 0)
(-0.00198298 0.00021737 0)
(-0.00270782 0.000234694 0)
(-0.00347078 0.000243404 0)
(-0.00424726 0.000244282 0)
(-0.00501451 0.000238106 0)
(-0.00575179 0.000225639 0)
(-0.00644043 0.00020761 0)
(-0.0070639 0.000184719 0)
(-0.00760778 0.000157655 0)
(-0.00805981 0.000127098 0)
(-0.00840991 9.37274e-05 0)
(-0.00865018 5.82256e-05 0)
(-0.00877502 2.12929e-05 0)
(-0.00878115 -1.6341e-05 0)
(-0.00866771 -5.39118e-05 0)
(-0.00843637 -9.06201e-05 0)
(-0.00809139 -0.000125632 0)
(-0.00763975 -0.000158081 0)
(-0.00709115 -0.000187077 0)
(-0.00645808 -0.000211711 0)
(-0.0057558 -0.000231074 0)
(-0.00500223 -0.000244268 0)
(-0.00421787 -0.000250429 0)
(-0.00342551 -0.000248748 0)
(-0.00264999 -0.000238486 0)
(-0.00191769 -0.000219011 0)
(-0.00125598 -0.000189842 0)
(-0.000692323 -0.000150777 0)
(-0.000252842 -0.000102234 0)
(4.00402e-05 -4.6084e-05 0)
(0.000173218 1.24728e-05 0)
(0.0001595 5.98253e-05 0)
(5.99642e-05 5.97265e-05 0)
(5.85051e-05 -0.0001557 0)
(7.22556e-05 -6.851e-05 0)
(-0.000177741 0.000181778 0)
(-0.000769224 0.000474755 0)
(-0.00171655 0.000757293 0)
(-0.00299332 0.00100434 0)
(-0.00455122 0.00120465 0)
(-0.00633116 0.00135431 0)
(-0.00826975 0.00145326 0)
(-0.0103031 0.00150337 0)
(-0.0123692 0.00150762 0)
(-0.0144095 0.00146954 0)
(-0.0163699 0.00139298 0)
(-0.018201 0.00128198 0)
(-0.0198586 0.00114064 0)
(-0.0213044 0.000973146 0)
(-0.0225053 0.000783735 0)
(-0.0234345 0.000576713 0)
(-0.0240708 0.000356483 0)
(-0.0243994 0.000127574 0)
(-0.0244118 -0.000105326 0)
(-0.0241063 -0.000337358 0)
(-0.0234877 -0.000563491 0)
(-0.0225679 -0.000778536 0)
(-0.0213659 -0.000977181 0)
(-0.019908 -0.00115404 0)
(-0.0182276 -0.00130373 0)
(-0.0163652 -0.00142097 0)
(-0.0143681 -0.00150075 0)
(-0.0122895 -0.00153839 0)
(-0.0101882 -0.00152984 0)
(-0.00812725 -0.00147182 0)
(-0.00617249 -0.00136217 0)
(-0.00439032 -0.00120033 0)
(-0.00284488 -0.000988155 0)
(-0.00159367 -0.000731672 0)
(-0.000681006 -0.000444351 0)
(-0.00012699 -0.000153199 0)
(9.1277e-05 8.76435e-05 0)
(6.13867e-05 0.000159895 0)
(1.13785e-05 -0.000161545 0)
(-0.000171133 0.000178234 0)
(-0.000800155 0.000810313 0)
(-0.00192148 0.00152887 0)
(-0.00353593 0.00222749 0)
(-0.00560773 0.002847 0)
(-0.00807242 0.00335596 0)
(-0.0108489 0.00374007 0)
(-0.0138482 0.00399519 0)
(-0.0169788 0.00412326 0)
(-0.0201503 0.00412996 0)
(-0.0232766 0.00402323 0)
(-0.0262767 0.00381245 0)
(-0.0290765 0.00350789 0)
(-0.0316096 0.0031204 0)
(-0.0338175 0.00266122 0)
(-0.0356504 0.00214192 0)
(-0.0370673 0.00157439 0)
(-0.0380363 0.000970836 0)
(-0.0385351 0.000343842 0)
(-0.0385511 -0.000293601 0)
(-0.0380817 -0.00092808 0)
(-0.0371349 -0.00154577 0)
(-0.035729 -0.0021325 0)
(-0.0338932 -0.00267384 0)
(-0.0316675 -0.0031553 0)
(-0.0291025 -0.00356255 0)
(-0.0262594 -0.00388171 0)
(-0.0232087 -0.00409976 0)
(-0.02003 -0.00420495 0)
(-0.0168103 -0.00418746 0)
(-0.0136419 -0.00404001 0)
(-0.0106202 -0.00375891 0)
(-0.00784031 -0.00334538 0)
(-0.00539227 -0.00280779 0)
(-0.00335526 -0.00216536 0)
(-0.00178872 -0.00145451 0)
(-0.000720536 -0.000738677 0)
(-0.000138554 -0.000126552 0)
(1.75139e-05 0.000179 0)
(-4.51693e-05 -2.1499e-05 0)
(-0.000462 0.00076484 0)
(-0.00152755 0.00193209 0)
(-0.00322517 0.00321049 0)
(-0.00552587 0.00444531 0)
(-0.00837894 0.00554218 0)
(-0.0117038 0.00644638 0)
(-0.0154011 0.00712998 0)
(-0.0193615 0.00758241 0)
(-0.0234724 0.00780438 0)
(-0.0276215 0.00780399 0)
(-0.0317005 0.00759419 0)
(-0.0356076 0.00719117 0)
(-0.039249 0.00661322 0)
(-0.0425401 0.00588013 0)
(-0.0454063 0.00501267 0)
(-0.047784 0.00403247 0)
(-0.0496207 0.00296186 0)
(-0.0508758 0.00182389 0)
(-0.0515209 0.000642306 0)
(-0.05154 -0.000558365 0)
(-0.0509301 -0.00175286 0)
(-0.0497015 -0.00291523 0)
(-0.047878 -0.00401894 0)
(-0.045497 -0.00503715 0)
(-0.0426097 -0.00594299 0)
(-0.0392806 -0.00671008 0)
(-0.0355872 -0.00731307 0)
(-0.0316192 -0.00772844 0)
(-0.0274766 -0.00793538 0)
(-0.0232687 -0.0079169 0)
(-0.0191109 -0.00766123 0)
(-0.0151216 -0.00716361 0)
(-0.0114182 -0.00642874 0)
(-0.00811144 -0.00547438 0)
(-0.00529892 -0.00433675 0)
(-0.00305583 -0.00307903 0)
(-0.00142395 -0.00180291 0)
(-0.000418372 -0.000667521 0)
(-3.6562e-05 5.91321e-05 0)
(-9.99192e-05 0.000277578 0)
(-0.000757158 0.00172104 0)
(-0.00227789 0.00357413 0)
(-0.00456974 0.00552778 0)
(-0.00756356 0.00739038 0)
(-0.0111877 0.0090375 0)
(-0.0153429 0.0103926 0)
(-0.0199118 0.0114139 0)
(-0.0247673 0.0120837 0)
(-0.0297787 0.0124008 0)
(-0.034816 0.0123756 0)
(-0.0397534 0.0120263 0)
(-0.0444722 0.011377 0)
(-0.0488625 0.010455 0)
(-0.0528254 0.00929067 0)
(-0.0562733 0.0079162 0)
(-0.0591315 0.00636527 0)
(-0.0613383 0.00467288 0)
(-0.062846 0.0028752 0)
(-0.0636211 0.00100958 0)
(-0.063645 -0.000885433 0)
(-0.0629142 -0.00277021 0)
(-0.0614408 -0.0046041 0)
(-0.0592528 -0.00634568 0)
(-0.0563943 -0.00795313 0)
(-0.0529251 -0.00938477 0)
(-0.048921 -0.0105999 0)
(-0.0444724 -0.0115595 0)
(-0.0396841 -0.0122277 0)
(-0.0346728 -0.0125734 0)
(-0.0295655 -0.0125712 0)
(-0.0244966 -0.0122046 0)
(-0.0196034 -0.0114679 0)
(-0.0150222 -0.0103701 0)
(-0.0108826 -0.0089393 0)
(-0.00730092 -0.00722958 0)
(-0.00437081 -0.00532996 0)
(-0.00215425 -0.00337612 0)
(-0.000704154 -0.00156746 0)
(-8.92072e-05 -0.000214214 0)
(-0.000149861 0.000729216 0)
(-0.00104034 0.00304759 0)
(-0.00301391 0.00574382 0)
(-0.00590005 0.00848824 0)
(-0.0095843 0.011064 0)
(-0.0139693 0.0133234 0)
(-0.0189342 0.0151721 0)
(-0.0243421 0.016556 0)
(-0.0300488 0.0174511 0)
(-0.0359072 0.0178548 0)
(-0.0417718 0.0177803 0)
(-0.0475019 0.0172518 0)
(-0.052965 0.0163016 0)
(-0.0580384 0.0149676 0)
(-0.0626114 0.013292 0)
(-0.0665861 0.0113197 0)
(-0.0698789 0.00909823 0)
(-0.0724206 0.00667698 0)
(-0.0741579 0.00410713 0)
(-0.0750532 0.00144156 0)
(-0.0750854 -0.00126523 0)
(-0.0742506 -0.00395717 0)
(-0.0725621 -0.00657688 0)
(-0.0700511 -0.00906597 0)
(-0.0667664 -0.0113656 0)
(-0.0627749 -0.0134173 0)
(-0.0581606 -0.015164 0)
(-0.0530248 -0.0165514 0)
(-0.047484 -0.0175297 0)
(-0.0416687 -0.0180556 0)
(-0.0357209 -0.018095 0)
(-0.0297907 -0.0176253 0)
(-0.0240328 -0.0166397 0)
(-0.0186011 -0.0151511 0)
(-0.013644 -0.0131974 0)
(-0.00929809 -0.0108491 0)
(-0.00567907 -0.00821813 0)
(-0.00287411 -0.00546826 0)
(-0.000979283 -0.00282893 0)
(-0.000137231 -0.000635408 0)
(-0.000194912 0.0013232 0)
(-0.00130727 0.00473329 0)
(-0.00372203 0.00843376 0)
(-0.00719331 0.0120866 0)
(-0.0115597 0.0154592 0)
(-0.0166951 0.0183881 0)
(-0.0224543 0.0207656 0)
(-0.0286795 0.0225287 0)
(-0.0352084 0.0236489 0)
(-0.0418782 0.0241238 0)
(-0.048529 0.0239702 0)
(-0.0550071 0.0232195 0)
(-0.0611681 0.0219134 0)
(-0.0668788 0.0201013 0)
(-0.0720188 0.0178383 0)
(-0.0764819 0.0151836 0)
(-0.0801774 0.0121998 0)
(-0.0830304 0.00895196 0)
(-0.0849826 0.00550782 0)
(-0.0859933 0.00193722 0)
(-0.0860392 -0.0016878 0)
(-0.0851157 -0.00529323 0)
(-0.0832367 -0.00880334 0)
(-0.0804353 -0.0121411 0)
(-0.0767639 -0.0152291 0)
(-0.0722944 -0.0179904 0)
(-0.0671176 -0.0203498 0)
(-0.0613425 -0.022236 0)
(-0.0550959 -0.0235839 0)
(-0.0485194 -0.0243366 0)
(-0.0417682 -0.0244494 0)
(-0.035007 -0.0238929 0)
(-0.0284067 -0.0226577 0)
(-0.0221391 -0.020759 0)
(-0.0163725 -0.018243 0)
(-0.0112657 -0.0151941 0)
(-0.00695996 -0.0117429 0)
(-0.00357087 -0.00807535 0)
(-0.00123968 -0.00444279 0)
(-0.000180521 -0.00119484 0)
(-0.000236011 0.00204996 0)
(-0.00155921 0.00676385 0)
(-0.00440133 0.0116309 0)
(-0.00844557 0.0163118 0)
(-0.0134839 0.0205656 0)
(-0.0193597 0.0242194 0)
(-0.0259015 0.0271572 0)
(-0.032929 0.0293109 0)
(-0.0402611 0.0306508 0)
(-0.0477187 0.0311763 0)
(-0.0551283 0.0309101 0)
(-0.0623241 0.0298918 0)
(-0.0691513 0.0281741 0)
(-0.0754676 0.025819 0)
(-0.0811448 0.0228958 0)
(-0.0860701 0.019479 0)
(-0.090147 0.0156472 0)
(-0.0932958 0.0114826 0)
(-0.0954548 0.00707036 0)
(-0.0965801 0.00249838 0)
(-0.0966467 -0.00214268 0)
(-0.0956489 -0.00675968 0)
(-0.0936006 -0.0112574 0)
(-0.0905358 -0.0155389 0)
(-0.0865092 -0.0195069 0)
(-0.0815959 -0.0230642 0)
(-0.0758916 -0.0261166 0)
(-0.0695119 -0.0285739 0)
(-0.0625913 -0.0303538 0)
(-0.0552815 -0.0313844 0)
(-0.0477496 -0.0316085 0)
(-0.0401741 -0.0309879 0)
(-0.0327422 -0.0295086 0)
(-0.0256444 -0.0271861 0)
(-0.0190702 -0.0240722 0)
(-0.0132035 -0.0202615 0)
(-0.00821298 -0.0158995 0)
(-0.00424539 -0.0111891 0)
(-0.00148721 -0.00639756 0)
(-0.000220096 -0.00188376 0)
(-0.0002743 0.00290185 0)
(-0.00179953 0.00912626 0)
(-0.00505681 0.0153222 0)
(-0.00966266 0.0211524 0)
(-0.0153635 0.0263732 0)
(-0.0219713 0.0308073 0)
(-0.0292871 0.0343355 0)
(-0.0371065 0.0368889 0)
(-0.0452288 0.0384394 0)
(-0.0534584 0.0389918 0)
(-0.061608 0.0385764 0)
(-0.0695006 0.0372434 0)
(-0.0769718 0.0350577 0)
(-0.0838716 0.0320955 0)
(-0.0900652 0.0284415 0)
(-0.0954345 0.0241864 0)
(-0.0998785 0.0194261 0)
(-0.103314 0.0142603 0)
(-0.105676 0.00879246 0)
(-0.106918 0.00312944 0)
(-0.107014 -0.00261882 0)
(-0.105956 -0.00833936 0)
(-0.103758 -0.0139165 0)
(-0.100454 -0.0192328 0)
(-0.0960986 -0.0241694 0)
(-0.0907695 -0.0286085 0)
(-0.0845656 -0.0324344 0)
(-0.0776072 -0.0355372 0)
(-0.0700354 -0.0378152 0)
(-0.0620108 -0.0391794 0)
(-0.0537112 -0.0395579 0)
(-0.0453293 -0.0389014 0)
(-0.0370686 -0.0371883 0)
(-0.0291394 -0.0344318 0)
(-0.0217546 -0.0306856 0)
(-0.0151247 -0.0260512 0)
(-0.0094485 -0.020685 0)
(-0.00490516 -0.0148027 0)
(-0.00172616 -0.00868411 0)
(-0.00025725 -0.00269574 0)
(-0.000310834 0.00387352 0)
(-0.00203212 0.0118106 0)
(-0.00569579 0.019497 0)
(-0.0108549 0.0265993 0)
(-0.0172112 0.0328741 0)
(-0.0245449 0.0381446 0)
(-0.0326284 0.0422928 0)
(-0.0412327 0.0452531 0)
(-0.050136 0.0470032 0)
(-0.0591261 0.0475561 0)
(-0.068002 0.0469529 0)
(-0.0765757 0.0452563 0)
(-0.0846743 0.0425457 0)
(-0.0921407 0.038913 0)
(-0.098835 0.0344593 0)
(-0.104635 0.0292928 0)
(-0.109436 0.0235271 0)
(-0.113152 0.0172805 0)
(-0.115717 0.0106751 0)
(-0.117081 0.00383695 0)
(-0.117216 -0.00310432 0)
(-0.116113 -0.0100154 0)
(-0.113785 -0.01676 0)
(-0.110263 -0.0231988 0)
(-0.105604 -0.0291915 0)
(-0.0998844 -0.0345976 0)
(-0.0932052 -0.0392794 0)
(-0.08569 -0.0431048 0)
(-0.0774851 -0.045951 0)
(-0.0687589 -0.0477094 0)
(-0.0596996 -0.0482908 0)
(-0.0505136 -0.0476314 0)
(-0.0414216 -0.0456992 0)
(-0.0326549 -0.0425009 0)
(-0.0244512 -0.0380888 0)
(-0.01705 -0.0325675 0)
(-0.0106822 -0.0261007 0)
(-0.00556049 -0.0189139 0)
(-0.00196158 -0.0112977 0)
(-0.000293242 -0.00362722 0)
(-0.000346511 0.00496183 0)
(-0.00226076 0.0148106 0)
(-0.00632615 0.0241488 0)
(-0.012034 0.0326463 0)
(-0.0190419 0.0400632 0)
(-0.0270982 0.0462264 0)
(-0.0359455 0.0510236 0)
(-0.0453291 0.0543968 0)
(-0.0550063 0.0563334 0)
(-0.0647473 0.0568583 0)
(-0.0743375 0.0560265 0)
(-0.0835784 0.0539161 0)
(-0.0922893 0.0506231 0)
(-0.100307 0.0462567 0)
(-0.107488 0.0409362 0)
(-0.113707 0.0347878 0)
(-0.118857 0.0279439 0)
(-0.12285 0.0205413 0)
(-0.125617 0.0127213 0)
(-0.127109 0.004629 0)
(-0.127295 -0.00358609 0)
(-0.126163 -0.0117704 0)
(-0.123725 -0.0197665 0)
(-0.12001 -0.0274135 0)
(-0.115072 -0.0345484 0)
(-0.108988 -0.0410074 0)
(-0.101858 -0.0466292 0)
(-0.0938073 -0.0512578 0)
(-0.0849868 -0.0547469 0)
(-0.0755708 -0.0569656 0)
(-0.0657578 -0.057804 0)
(-0.0557675 -0.0571802 0)
(-0.0458385 -0.0550478 0)
(-0.0362243 -0.0514029 0)
(-0.0271891 -0.0462925 0)
(-0.0190033 -0.0398203 0)
(-0.0119317 -0.0321539 0)
(-0.00622266 -0.0235267 0)
(-0.00219859 -0.0142391 0)
(-0.000329212 -0.00467746 0)
(-0.000382075 0.00616563 0)
(-0.00248887 0.0181241 0)
(-0.00695547 0.029275 0)
(-0.0132117 0.0392913 0)
(-0.020871 0.0479383 0)
(-0.0296488 0.0550501 0)
(-0.0392575 0.0605241 0)
(-0.049416 0.0643141 0)
(-0.0598596 0.0664217 0)
(-0.0703413 0.0668877 0)
(-0.0806328 0.0657845 0)
(-0.090526 0.0632086 0)
(-0.0998328 0.059275 0)
(-0.108386 0.0541125 0)
(-0.116039 0.0478594 0)
(-0.122663 0.0406616 0)
(-0.128152 0.0326703 0)
(-0.132417 0.0240414 0)
(-0.135389 0.0149347 0)
(-0.137015 0.00551475 0)
(-0.137263 -0.00404975 0)
(-0.136121 -0.0135852 0)
(-0.133595 -0.0229134 0)
(-0.129712 -0.0318515 0)
(-0.124524 -0.0402136 0)
(-0.118104 -0.047812 0)
(-0.110551 -0.0544602 0)
(-0.10199 -0.0599762 0)
(-0.0925739 -0.0641881 0)
(-0.0824823 -0.0669391 0)
(-0.0719228 -0.0680949 0)
(-0.0611283 -0.0675515 0)
(-0.0503556 -0.0652432 0)
(-0.0398813 -0.0611512 0)
(-0.0299979 -0.0553122 0)
(-0.0210089 -0.0478252 0)
(-0.0132152 -0.0388585 0)
(-0.00690289 -0.0286514 0)
(-0.00244206 -0.0175146 0)
(-0.000366172 -0.00584846 0)
(-0.000418154 0.00748549 0)
(-0.0027195 0.0217522 0)
(-0.00759067 0.0348772 0)
(-0.014399 0.0465359 0)
(-0.0227126 0.0565003 0)
(-0.032213 0.0646151 0)
(-0.0425816 0.0707913 0)
(-0.0535099 0.0749991 0)
(-0.0647109 0.0772589 0)
(-0.0759201 0.0776318 0)
(-0.0868964 0.0762115 0)
(-0.0974225 0.0731164 0)
(-0.107304 0.0684835 0)
(-0.116372 0.0624628 0)
(-0.124476 0.0552136 0)
(-0.13149 0.046902 0)
(-0.137306 0.0376986 0)
(-0.141836 0.027778 0)
(-0.14501 0.0173189 0)
(-0.146776 0.00650383 0)
(-0.147101 -0.0044796 0)
(-0.145967 -0.0154386 0)
(-0.143379 -0.0261747 0)
(-0.13936 -0.0364837 0)
(-0.133955 -0.0461565 0)
(-0.127234 -0.0549808 0)
(-0.119291 -0.0627436 0)
(-0.110251 -0.0692354 0)
(-0.100265 -0.0742553 0)
(-0.0895173 -0.0776175 0)
(-0.0782227 -0.0791589 0)
(-0.066627 -0.0787483 0)
(-0.0550049 -0.0762956 0)
(-0.0436571 -0.0717617 0)
(-0.0329061 -0.0651676 0)
(-0.0230906 -0.0566035 0)
(-0.0145504 -0.0462348 0)
(-0.007612 -0.0343051 0)
(-0.00269657 -0.0211357 0)
(-0.000405029 -0.00714474 0)
(-0.000455278 0.00892349 0)
(-0.00295532 0.0256994 0)
(-0.00823802 0.0409609 0)
(-0.0156057 0.054385 0)
(-0.0245795 0.0657525 0)
(-0.0348051 0.0749216 0)
(-0.0459318 0.0818215 0)
(-0.0576227 0.0864436 0)
(-0.0695684 0.0888322 0)
(-0.081487 0.0890735 0)
(-0.0931251 0.087287 0)
(-0.104258 0.0836168 0)
(-0.114686 0.0782246 0)
(-0.124239 0.0712843 0)
(-0.132768 0.0629777 0)
(-0.140148 0.0534917 0)
(-0.146272 0.0430167 0)
(-0.151055 0.0317459 0)
(-0.154429 0.0198755 0)
(-0.15634 0.00760566 0)
(-0.156753 -0.00485868 0)
(-0.15565 -0.0173067 0)
(-0.153029 -0.0295206 0)
(-0.148909 -0.0412755 0)
(-0.143327 -0.0523397 0)
(-0.136348 -0.0624756 0)
(-0.12806 -0.0714431 0)
(-0.11858 -0.0790028 0)
(-0.108061 -0.0849221 0)
(-0.0966852 -0.088982 0)
(-0.0846747 -0.0909861 0)
(-0.0722864 -0.0907703 0)
(-0.0598128 -0.0882139 0)
(-0.0475793 -0.0832512 0)
(-0.0359397 -0.0758819 0)
(-0.0252705 -0.0661817 0)
(-0.0159538 -0.0543095 0)
(-0.00836022 -0.0405113 0)
(-0.00296641 -0.0251195 0)
(-0.000446617 -0.00857312 0)
(-0.000493916 0.010483 0)
(-0.00319877 0.0299732 0)
(-0.00890326 0.0475349 0)
(-0.016841 0.0628467 0)
(-0.0264828 0.0756999 0)
(-0.037437 0.0859701 0)
(-0.0493184 0.0936093 0)
(-0.0617612 0.0986359 0)
(-0.0744329 0.101123 0)
(-0.087035 0.101189 0)
(-0.0993029 0.0989823 0)
(-0.111005 0.0946778 0)
(-0.121941 0.0884652 0)
(-0.13194 0.0805448 0)
(-0.140857 0.0711222 0)
(-0.148569 0.0604062 0)
(-0.154975 0.0486066 0)
(-0.159993 0.0359347 0)
(-0.163556 0.0226034 0)
(-0.165614 0.00882856 0)
(-0.166129 -0.00516904 0)
(-0.16508 -0.0191622 0)
(-0.162461 -0.0329158 0)
(-0.158281 -0.0461853 0)
(-0.152573 -0.0587169 0)
(-0.145389 -0.0702485 0)
(-0.13681 -0.0805114 0)
(-0.126945 -0.0892347 0)
(-0.11594 -0.096151 0)
(-0.103978 -0.101004 0)
(-0.0912819 -0.103559 0)
(-0.0781189 -0.103611 0)
(-0.0647984 -0.101004 0)
(-0.0516703 -0.0956362 0)
(-0.0391215 -0.0874801 0)
(-0.0275691 -0.0765904 0)
(-0.0174412 -0.063115 0)
(-0.00915728 -0.0472996 0)
(-0.00325567 -0.0294876 0)
(-0.000491724 -0.0101426 0)
(-0.000534517 0.0121687 0)
(-0.00345218 0.0345836 0)
(-0.00959185 0.0546112 0)
(-0.0181133 0.0719316 0)
(-0.0284329 0.0863488 0)
(-0.0401184 0.0977602 0)
(-0.0527483 0.106146 0)
(-0.0659265 0.111558 0)
(-0.0792974 0.114106 0)
(-0.0925465 0.113944 0)
(-0.1054 0.111257 0)
(-0.117621 0.106255 0)
(-0.129012 0.0991597 0)
(-0.139403 0.0901995 0)
(-0.148655 0.079606 0)
(-0.156654 0.0676102 0)
(-0.163304 0.0544413 0)
(-0.16853 0.0403275 0)
(-0.172268 0.0254968 0)
(-0.17447 0.0101788 0)
(-0.175098 -0.00539216 0)
(-0.174129 -0.020975 0)
(-0.171549 -0.0363192 0)
(-0.167361 -0.0511628 0)
(-0.161586 -0.0652315 0)
(-0.154264 -0.0782386 0)
(-0.145464 -0.089887 0)
(-0.135284 -0.0998725 0)
(-0.12386 -0.10789 0)
(-0.111368 -0.113641 0)
(-0.0980314 -0.116846 0)
(-0.0841246 -0.117255 0)
(-0.0699715 -0.114664 0)
(-0.0559465 -0.10893 0)
(-0.0424707 -0.0999873 0)
(-0.0300047 -0.0878632 0)
(-0.0190272 -0.0726886 0)
(-0.0100125 -0.054705 0)
(-0.00356834 -0.0342666 0)
(-0.00054113 -0.0118643 0)
(-0.000577545 0.0139864 0)
(-0.00371799 0.0395435 0)
(-0.0103094 0.0622049 0)
(-0.0194309 0.0816523 0)
(-0.0304391 0.0977055 0)
(-0.0428573 0.110289 0)
(-0.0562249 0.119418 0)
(-0.0701141 0.125185 0)
(-0.0841463 0.127743 0)
(-0.0979921 0.127291 0)
(-0.11137 0.124057 0)
(-0.124043 0.118289 0)
(-0.135816 0.110246 0)
(-0.146527 0.100188 0)
(-0.156047 0.0883732 0)
(-0.164271 0.0750553 0)
(-0.171114 0.0604824 0)
(-0.176507 0.0448983 0)
(-0.180396 0.0285436 0)
(-0.182734 0.0116594 0)
(-0.183485 -0.00550958 0)
(-0.182622 -0.0227114 0)
(-0.180126 -0.0396831 0)
(-0.175988 -0.0561481 0)
(-0.170218 -0.0718136 0)
(-0.16284 -0.0863699 0)
(-0.153908 -0.0994913 0)
(-0.143502 -0.110839 0)
(-0.131745 -0.120068 0)
(-0.118802 -0.126833 0)
(-0.104891 -0.130802 0)
(-0.0902887 -0.131672 0)
(-0.0753317 -0.129183 0)
(-0.0604175 -0.123139 0)
(-0.0460022 -0.113427 0)
(-0.0325935 -0.100035 0)
(-0.0207257 -0.0830714 0)
(-0.010935 -0.0627678 0)
(-0.00390843 -0.0394876 0)
(-0.000595633 -0.0137515 0)
(-0.000623537 0.0159431 0)
(-0.00399892 0.0448685 0)
(-0.0110621 0.0703341 0)
(-0.0208028 0.0920233 0)
(-0.0325112 0.109776 0)
(-0.0456609 0.12355 0)
(-0.0597487 0.133403 0)
(-0.074314 0.13948 0)
(-0.088955 0.141984 0)
(-0.103329 0.141167 0)
(-0.117152 0.137308 0)
(-0.130187 0.130701 0)
(-0.142248 0.121643 0)
(-0.153186 0.110431 0)
(-0.162883 0.0973494 0)
(-0.171251 0.0826763 0)
(-0.178217 0.0666774 0)
(-0.183725 0.0496094 0)
(-0.187729 0.0317235 0)
(-0.190188 0.0132686 0)
(-0.191068 -0.00550377 0)
(-0.190338 -0.0243347 0)
(-0.187973 -0.0429528 0)
(-0.183954 -0.0610702 0)
(-0.178275 -0.0783788 0)
(-0.170941 -0.0945481 0)
(-0.161985 -0.109225 0)
(-0.151468 -0.122035 0)
(-0.13949 -0.132591 0)
(-0.1262 -0.140496 0)
(-0.111805 -0.14536 0)
(-0.0965792 -0.146815 0)
(-0.0808661 -0.144536 0)
(-0.0650848 -0.138261 0)
(-0.0497269 -0.127817 0)
(-0.0353498 -0.113142 0)
(-0.0225501 -0.094308 0)
(-0.0119342 -0.071533 0)
(-0.00428012 -0.0451858 0)
(-0.000656098 -0.0158193 0)
(-0.000673151 0.0180477 0)
(-0.00429829 0.0505777 0)
(-0.0118574 0.0790201 0)
(-0.0222398 0.103061 0)
(-0.03466 0.122564 0)
(-0.0485358 0.13753 0)
(-0.0633177 0.148072 0)
(-0.07851 0.154391 0)
(-0.093689 0.156759 0)
(-0.108502 0.155487 0)
(-0.122663 0.150914 0)
(-0.135944 0.143385 0)
(-0.148173 0.133244 0)
(-0.159216 0.120823 0)
(-0.168977 0.106438 0)
(-0.177384 0.0903883 0)
(-0.184384 0.0729562 0)
(-0.189936 0.0544094 0)
(-0.194005 0.0350059 0)
(-0.19656 0.0149984 0)
(-0.197569 -0.00535917 0)
(-0.197 -0.0258057 0)
(-0.19482 -0.0460662 0)
(-0.190999 -0.0658462 0)
(-0.185509 -0.0848264 0)
(-0.178339 -0.102658 0)
(-0.169494 -0.118964 0)
(-0.159006 -0.133335 0)
(-0.14695 -0.145336 0)
(-0.133449 -0.154518 0)
(-0.118693 -0.160424 0)
(-0.102943 -0.162613 0)
(-0.086547 -0.160679 0)
(-0.0699406 -0.15428 0)
(-0.0536502 -0.143168 0)
(-0.0382861 -0.127215 0)
(-0.0245137 -0.106445 0)
(-0.0130198 -0.0810501 0)
(-0.00468804 -0.0514016 0)
(-0.000723506 -0.0180854 0)
(-0.000727253 0.0203106 0)
(-0.00462041 0.0566941 0)
(-0.0127047 0.0882884 0)
(-0.023755 0.114782 0)
(-0.0368986 0.136073 0)
(-0.0514895 0.152212 0)
(-0.0669274 0.163378 0)
(-0.08268 0.169851 0)
(-0.0983029 0.171976 0)
(-0.113437 0.17014 0)
(-0.1278 0.16475 0)
(-0.14118 0.15621 0)
(-0.153423 0.144914 0)
(-0.16442 0.131234 0)
(-0.174099 0.115516 0)
(-0.182414 0.0980826 0)
(-0.189335 0.0792287 0)
(-0.194841 0.0592302 0)
(-0.198911 0.0383476 0)
(-0.201526 0.0168327 0)
(-0.202659 -0.00506359 0)
(-0.202276 -0.0270835 0)
(-0.200337 -0.0489544 0)
(-0.196799 -0.0703808 0)
(-0.191617 -0.0910375 0)
(-0.18475 -0.110563 0)
(-0.176175 -0.128558 0)
(-0.16589 -0.144579 0)
(-0.153933 -0.158147 0)
(-0.140397 -0.168753 0)
(-0.125439 -0.175867 0)
(-0.109303 -0.178962 0)
(-0.0923293 -0.177541 0)
(-0.0749663 -0.171161 0)
(-0.0577723 -0.159478 0)
(-0.0414131 -0.142281 0)
(-0.02663 -0.119528 0)
(-0.0142026 -0.0913728 0)
(-0.00513743 -0.0581801 0)
(-0.000799016 -0.02057 0)
(-0.000787023 0.0227451 0)
(-0.00497104 0.0632461 0)
(-0.0136167 0.0981692 0)
(-0.0253656 0.127208 0)
(-0.0392435 0.1503 0)
(-0.0545311 0.167564 0)
(-0.0705713 0.179263 0)
(-0.0867944 0.185766 0)
(-0.102738 0.187515 0)
(-0.118041 0.184983 0)
(-0.132434 0.178656 0)
(-0.145726 0.169006 0)
(-0.157792 0.156482 0)
(-0.168555 0.141498 0)
(-0.177975 0.124432 0)
(-0.186038 0.105624 0)
(-0.19274 0.0853815 0)
(-0.198086 0.0639845 0)
(-0.202074 0.0416906 0)
(-0.204699 0.0187453 0)
(-0.20594 -0.00460973 0)
(-0.205766 -0.0281267 0)
(-0.204129 -0.051542 0)
(-0.200972 -0.0745663 0)
(-0.196227 -0.0968749 0)
(-0.189826 -0.1181 0)
(-0.181709 -0.137824 0)
(-0.171835 -0.155575 0)
(-0.160197 -0.170829 0)
(-0.146842 -0.183013 0)
(-0.131889 -0.191519 0)
(-0.115549 -0.195723 0)
(-0.0981459 -0.195017 0)
(-0.0801295 -0.18884 0)
(-0.0620867 -0.176729 0)
(-0.0447398 -0.15836 0)
(-0.0289139 -0.133605 0)
(-0.0154951 -0.102559 0)
(-0.00563463 -0.0655719 0)
(-0.000884061 -0.0232963 0)
(-0.000854099 0.0253677 0)
(-0.00535805 0.070269 0)
(-0.0146102 0.1087 0)
(-0.0270946 0.14036 0)
(-0.0417166 0.16524 0)
(-0.0576716 0.183545 0)
(-0.0742399 0.195642 0)
(-0.0908143 0.202017 0)
(-0.106918 0.203221 0)
(-0.122197 0.199835 0)
(-0.136403 0.192434 0)
(-0.149378 0.181566 0)
(-0.161032 0.16774 0)
(-0.171332 0.151415 0)
(-0.180278 0.132997 0)
(-0.187893 0.112846 0)
(-0.194208 0.0912753 0)
(-0.199256 0.0685633 0)
(-0.20306 0.0449602 0)
(-0.205629 0.0206982 0)
(-0.206955 -0.00399687 0)
(-0.207007 -0.0288947 0)
(-0.205732 -0.0537485 0)
(-0.203059 -0.078283 0)
(-0.198897 -0.102182 0)
(-0.193147 -0.12508 0)
(-0.185707 -0.146548 0)
(-0.17649 -0.16609 0)
(-0.165434 -0.183139 0)
(-0.152531 -0.19706 0)
(-0.137844 -0.20716 0)
(-0.121537 -0.212707 0)
(-0.103903 -0.212962 0)
(-0.0853811 -0.207223 0)
(-0.0665786 -0.194876 0)
(-0.0482733 -0.175458 0)
(-0.0313816 -0.148719 0)
(-0.0169123 -0.114672 0)
(-0.00618751 -0.0736343 0)
(-0.000980472 -0.0262912 0)
(-0.000930794 0.0281998 0)
(-0.00579234 0.0778079 0)
(-0.0157081 0.119925 0)
(-0.0289725 0.154262 0)
(-0.0443459 0.180879 0)
(-0.0609242 0.200093 0)
(-0.0779193 0.212406 0)
(-0.0946875 0.218444 0)
(-0.110746 0.218896 0)
(-0.125756 0.214466 0)
(-0.139506 0.205834 0)
(-0.15188 0.193633 0)
(-0.162841 0.178434 0)
(-0.172404 0.160741 0)
(-0.180619 0.14099 0)
(-0.187555 0.119551 0)
(-0.193284 0.0967429 0)
(-0.197871 0.072835 0)
(-0.201367 0.0480632 0)
(-0.2038 0.02264 0)
(-0.205174 -0.00323264 0)
(-0.205463 -0.0293498 0)
(-0.20461 -0.0554899 0)
(-0.202529 -0.0814011 0)
(-0.199109 -0.106786 0)
(-0.194215 -0.131288 0)
(-0.187702 -0.154479 0)
(-0.179426 -0.175847 0)
(-0.169266 -0.194786 0)
(-0.15714 -0.210602 0)
(-0.143043 -0.222512 0)
(-0.127074 -0.229665 0)
(-0.109472 -0.231175 0)
(-0.0906504 -0.226168 0)
(-0.0712231 -0.213846 0)
(-0.0520191 -0.193563 0)
(-0.0340523 -0.164907 0)
(-0.0184729 -0.127777 0)
(-0.00680625 -0.0824327 0)
(-0.00109067 -0.0295863 0)
(-0.0010204 0.0312697 0)
(-0.00628908 0.085921 0)
(-0.0169419 0.131903 0)
(-0.0310399 0.168941 0)
(-0.0471674 0.197195 0)
(-0.0643036 0.217124 0)
(-0.0815869 0.229405 0)
(-0.0983418 0.234841 0)
(-0.11409 0.234288 0)
(-0.128527 0.228592 0)
(-0.141488 0.218554 0)
(-0.15292 0.204898 0)
(-0.162849 0.188261 0)
(-0.171354 0.169191 0)
(-0.178541 0.148146 0)
(-0.184533 0.125508 0)
(-0.189446 0.101589 0)
(-0.193383 0.076644 0)
(-0.196425 0.0508876 0)
(-0.198624 0.0245045 0)
(-0.199997 -0.00233472 0)
(-0.200525 -0.029459 0)
(-0.20015 -0.0566815 0)
(-0.198773 -0.0837832 0)
(-0.196261 -0.110496 0)
(-0.192446 -0.136486 0)
(-0.187136 -0.161334 0)
(-0.180128 -0.184524 0)
(-0.171226 -0.205423 0)
(-0.160267 -0.223281 0)
(-0.147157 -0.237225 0)
(-0.131907 -0.246278 0)
(-0.11468 -0.249387 0)
(-0.0958372 -0.245476 0)
(-0.0759805 -0.233519 0)
(-0.0559795 -0.212636 0)
(-0.0369493 -0.182201 0)
(-0.0202014 -0.141946 0)
(-0.00750444 -0.0920427 0)
(-0.00121796 -0.0332196 0)
(-0.00112767 0.0346148 0)
(-0.0068695 0.0946841 0)
(-0.0183541 0.144704 0)
(-0.0333503 0.184427 0)
(-0.050225 0.214146 0)
(-0.0678224 0.234519 0)
(-0.0852045 0.246443 0)
(-0.101674 0.250944 0)
(-0.116776 0.249078 0)
(-0.130258 0.24186 0)
(-0.142027 0.230223 0)
(-0.15211 0.21499 0)
(-0.160612 0.196863 0)
(-0.167686 0.17643 0)
(-0.173506 0.154166 0)
(-0.178253 0.130453 0)
(-0.182093 0.10559 0)
(-0.185169 0.0798123 0)
(-0.187594 0.0533026 0)
(-0.189444 0.0262108 0)
(-0.190754 -0.00133211 0)
(-0.191513 -0.0291972 0)
(-0.191665 -0.0572411 0)
(-0.191101 -0.0852884 0)
(-0.189669 -0.113112 0)
(-0.187168 -0.140412 0)
(-0.183359 -0.166795 0)
(-0.177978 -0.191754 0)
(-0.170748 -0.214644 0)
(-0.161412 -0.234668 0)
(-0.149765 -0.25087 0)
(-0.135707 -0.262141 0)
(-0.119293 -0.267245 0)
(-0.100801 -0.264871 0)
(-0.0807904 -0.253716 0)
(-0.0601522 -0.232602 0)
(-0.0401007 -0.200616 0)
(-0.0221298 -0.157255 0)
(-0.0083007 -0.102553 0)
(-0.00136698 -0.0372372 0)
(-0.00125953 0.0382859 0)
(-0.00756358 0.104198 0)
(-0.020003 0.158418 0)
(-0.0359724 0.200748 0)
(-0.0535701 0.231671 0)
(-0.071485 0.25211 0)
(-0.0887059 0.263255 0)
(-0.104532 0.266408 0)
(-0.118559 0.262866 0)
(-0.130615 0.253838 0)
(-0.140708 0.240401 0)
(-0.148963 0.223477 0)
(-0.155583 0.203831 0)
(-0.160806 0.18208 0)
(-0.164884 0.15871 0)
(-0.168057 0.134091 0)
(-0.170544 0.108501 0)
(-0.17253 0.0821427 0)
(-0.17416 0.0551614 0)
(-0.175535 0.0276638 0)
(-0.176708 -0.000265871 0)
(-0.177679 -0.0285486 0)
(-0.178394 -0.0570934 0)
(-0.178744 -0.0857779 0)
(-0.178558 -0.114428 0)
(-0.17761 -0.142792 0)
(-0.175616 -0.170521 0)
(-0.17225 -0.197131 0)
(-0.167151 -0.221985 0)
(-0.159956 -0.244259 0)
(-0.150335 -0.262926 0)
(-0.138045 -0.276747 0)
(-0.122999 -0.284292 0)
(-0.105345 -0.283981 0)
(-0.085561 -0.27418 0)
(-0.0645258 -0.253334 0)
(-0.043541 -0.220148 0)
(-0.0243014 -0.173788 0)
(-0.00922116 -0.114072 0)
(-0.00154445 -0.0416974 0)
(-0.00142634 0.0423527 0)
(-0.00841398 0.114594 0)
(-0.021967 0.173156 0)
(-0.0389934 0.217925 0)
(-0.0572569 0.249664 0)
(-0.0752741 0.269661 0)
(-0.0919746 0.279487 0)
(-0.106687 0.28079 0)
(-0.119095 0.275153 0)
(-0.12915 0.264001 0)
(-0.136989 0.248564 0)
(-0.142864 0.229858 0)
(-0.14709 0.2087 0)
(-0.150004 0.185726 0)
(-0.151936 0.161412 0)
(-0.153189 0.136109 0)
(-0.154033 0.11006 0)
(-0.154692 0.0834256 0)
(-0.155342 0.0563059 0)
(-0.156107 0.0287574 0)
(-0.157059 0.000811175 0)
(-0.15821 -0.0275102 0)
(-0.159514 -0.056175 0)
(-0.160862 -0.085123 0)
(-0.162076 -0.114244 0)
(-0.162909 -0.143351 0)
(-0.163042 -0.172151 0)
(-0.162092 -0.200215 0)
(-0.159617 -0.226932 0)
(-0.155142 -0.251477 0)
(-0.148194 -0.272774 0)
(-0.138361 -0.289472 0)
(-0.12537 -0.299941 0)
(-0.109189 -0.302309 0)
(-0.0901512 -0.294548 0)
(-0.0690723 -0.274631 0)
(-0.0473112 -0.240759 0)
(-0.026775 -0.191629 0)
(-0.0103033 -0.126729 0)
(-0.00176041 -0.0466753 0)
(-0.00164395 0.0469126 0)
(-0.00948236 0.126052 0)
(-0.0243529 0.189054 0)
(-0.0425194 0.235963 0)
(-0.0613317 0.267956 0)
(-0.0791265 0.286833 0)
(-0.094808 0.294662 0)
(-0.107787 0.293519 0)
(-0.117894 0.285318 0)
(-0.12525 0.271721 0)
(-0.130163 0.254105 0)
(-0.133036 0.23357 0)
(-0.134312 0.210964 0)
(-0.134431 0.18692 0)
(-0.133802 0.16189 0)
(-0.132788 0.136185 0)
(-0.131704 0.110001 0)
(-0.130806 0.0834495 0)
(-0.130296 0.0565752 0)
(-0.130319 0.0293796 0)
(-0.130959 0.00183618 0)
(-0.132247 -0.0260929 0)
(-0.134145 -0.0544403 0)
(-0.136552 -0.0832143 0)
(-0.139292 -0.112378 0)
(-0.14211 -0.141821 0)
(-0.144664 -0.171331 0)
(-0.146525 -0.20055 0)
(-0.14718 -0.228928 0)
(-0.146043 -0.255674 0)
(-0.142493 -0.279697 0)
(-0.135922 -0.299562 0)
(-0.125827 -0.313456 0)
(-0.111931 -0.319197 0)
(-0.0943413 -0.314309 0)
(-0.0737308 -0.296184 0)
(-0.0514564 -0.262355 0)
(-0.0296308 -0.210864 0)
(-0.0116021 -0.140689 0)
(-0.00203035 -0.0522706 0)
(-0.00193744 0.0521038 0)
(-0.0108592 0.138807 0)
(-0.0273035 0.206267 0)
(-0.0466717 0.25482 0)
(-0.0658092 0.286273 0)
(-0.0828893 0.303139 0)
(-0.0968578 0.308136 0)
(-0.107292 0.303861 0)
(-0.114246 0.2926 0)
(-0.118075 0.276256 0)
(-0.119297 0.256337 0)
(-0.118491 0.233998 0)
(-0.116237 0.210088 0)
(-0.113075 0.185208 0)
(-0.109485 0.159765 0)
(-0.105883 0.134008 0)
(-0.102613 0.108076 0)
(-0.0999555 0.0820163 0)
(-0.0981271 0.0558171 0)
(-0.0972852 0.0294202 0)
(-0.0975291 0.00273978 0)
(-0.0988997 -0.0243235 0)
(-0.101376 -0.0518677 0)
(-0.104871 -0.0799732 0)
(-0.109222 -0.108682 0)
(-0.11418 -0.137974 0)
(-0.119399 -0.16773 0)
(-0.124429 -0.197691 0)
(-0.1287 -0.227403 0)
(-0.131534 -0.256151 0)
(-0.132162 -0.282882 0)
(-0.129766 -0.306124 0)
(-0.123573 -0.323919 0)
(-0.112985 -0.333786 0)
(-0.0977837 -0.332756 0)
(-0.0783774 -0.317524 0)
(-0.056017 -0.284757 0)
(-0.0329769 -0.231571 0)
(-0.0131996 -0.156161 0)
(-0.00237908 -0.0586207 0)
(-0.00234792 0.0581267 0)
(-0.0126797 0.153176 0)
(-0.0310082 0.224964 0)
(-0.0515717 0.274369 0)
(-0.0706245 0.30417 0)
(-0.0862422 0.317877 0)
(-0.0975342 0.319044 0)
(-0.104369 0.310884 0)