# Wall heat-flux
# Time        	patch         	min           	max           	integral      
2.000000e+03	fixedWalls-bottom	-1.160727e+02	-1.160005e+02	-2.320732e+02
2.000000e+03	fixedWalls-top	1.160001e+02	1.160723e+02	2.320725e+02
