/*--------------------------------*- C++ -*----------------------------------*\
  =========                 |
  \\      /  F ield         | OpenFOAM: The Open Source CFD Toolbox
   \\    /   O peration     | Website:  https://openfoam.org
    \\  /    A nd           | Version:  7
     \\/     M anipulation  |
\*---------------------------------------------------------------------------*/
FoamFile
{
    version     2.0;
    format      ascii;
    class       volSymmTensorField;
    location    "1800";
    object      devReff;
}
// * * * * * * * * * * * * * * * * * * * * * * * * * * * * * * * * * * * * * //

dimensions      [0 2 -2 0 0 0 0];

internalField   nonuniform List<symmTensor> 
180
(
(-1.74212e-21 -0.00815402 -0 3.48424e-21 -0 -1.74212e-21)
(9.42566e-22 -0.00815398 -0 -1.88513e-21 -0 9.42566e-22)
(-2.43524e-21 -0.0102403 -0 4.87048e-21 -0 -2.43524e-21)
(2.98512e-21 -0.0102403 -0 -5.97024e-21 -0 2.98512e-21)
(-2.53351e-20 -0.0097748 -0 -3.31153e-21 -0 2.86466e-20)
(3.21891e-20 -0.00977477 -0 -1.03967e-20 -0 -2.17924e-20)
(2.2919e-20 -0.00936091 -0 -4.58381e-20 -0 2.2919e-20)
(-1.03585e-20 -0.00936087 -0 2.0717e-20 -0 -1.03585e-20)
(9.19931e-21 -0.00913328 -0 -1.83986e-20 -0 9.19931e-21)
(-1.44466e-21 -0.00913324 -0 2.88932e-21 -0 -1.44466e-21)
(-4.57526e-21 -0.00895402 -0 9.15052e-21 -0 -4.57526e-21)
(3.19059e-21 -0.00895397 -0 -6.38119e-21 -0 3.19059e-21)
(-9.24119e-21 -0.00879618 -0 1.84824e-20 -0 -9.24119e-21)
(1.97681e-21 -0.00879613 -0 -3.95363e-21 -0 1.97681e-21)
(-5.94735e-21 -0.008649 -0 1.18947e-20 -0 -5.94735e-21)
(-3.08325e-21 -0.00864895 -0 6.1665e-21 -0 -3.08325e-21)
(3.13071e-21 -0.0085074 -0 -6.26143e-21 -0 3.13071e-21)
(-5.43602e-21 -0.00850735 -0 1.0872e-20 -0 -5.43602e-21)
(3.71259e-21 -0.0083688 -0 -7.42518e-21 -0 3.71259e-21)
(3.37937e-21 -0.00836875 -0 -6.75873e-21 -0 3.37937e-21)
(-2.45625e-21 -0.0082318 -0 4.9125e-21 -0 -2.45625e-21)
(1.13028e-20 -0.00823175 -0 -2.26056e-20 -0 1.13028e-20)
(-1.17803e-21 -0.00809563 -0 2.35607e-21 -0 -1.17803e-21)
(7.6747e-21 -0.00809557 -0 -1.53494e-20 -0 7.6747e-21)
(1.3351e-20 -0.00795984 -0 -2.67021e-20 -0 1.3351e-20)
(-5.58138e-21 -0.00795977 -0 1.11628e-20 -0 -5.58138e-21)
(1.51144e-20 -0.00782415 -0 -3.02288e-20 -0 1.51144e-20)
(4.7397e-22 -0.00782409 -0 -9.4794e-22 -0 4.7397e-22)
(-3.59466e-21 -0.00768844 -0 7.18932e-21 -0 -3.59466e-21)
(2.28018e-20 -0.00768837 -0 -4.56035e-20 -0 2.28018e-20)
(-6.56536e-21 -0.00755262 -0 1.31307e-20 -0 -6.56536e-21)
(-9.70149e-21 -0.00755255 -0 1.9403e-20 -0 -9.70149e-21)
(-5.23481e-21 -0.00741667 -0 1.04696e-20 -0 -5.23481e-21)
(-5.35172e-20 -0.00741659 -0 1.07034e-19 -0 -5.35172e-20)
(-1.78616e-20 -0.00728059 -0 3.57233e-20 -0 -1.78616e-20)
(-2.19602e-20 -0.00728051 -0 4.39204e-20 -0 -2.19602e-20)
(-2.29502e-20 -0.00714441 -0 4.59003e-20 -0 -2.29502e-20)
(1.19216e-20 -0.00714433 -0 -2.38433e-20 -0 1.19216e-20)
(-2.08291e-20 -0.00700817 -0 4.16583e-20 -0 -2.08291e-20)
(1.13446e-20 -0.00700809 -0 -2.26891e-20 -0 1.13446e-20)
(-2.03357e-20 -0.00687192 -0 4.06714e-20 -0 -2.03357e-20)
(1.03929e-20 -0.00687184 -0 -2.07858e-20 -0 1.03929e-20)
(-1.99376e-20 -0.00673573 -0 3.98753e-20 -0 -1.99376e-20)
(9.63995e-21 -0.00673564 -0 -1.92799e-20 -0 9.63995e-21)
(-1.87374e-20 -0.00659965 -0 3.74748e-20 -0 -1.87374e-20)
(8.79215e-21 -0.00659956 -0 -1.75843e-20 -0 8.79215e-21)
(-1.69764e-20 -0.00646376 -0 3.39528e-20 -0 -1.69764e-20)
(7.91285e-21 -0.00646367 -0 -1.58257e-20 -0 7.91285e-21)
(-1.52983e-20 -0.00632812 -0 3.05967e-20 -0 -1.52983e-20)
(7.17462e-21 -0.00632803 -0 -1.43492e-20 -0 7.17462e-21)
(-1.38033e-20 -0.00619281 -0 2.76066e-20 -0 -1.38033e-20)
(6.17666e-21 -0.00619272 -0 -1.23533e-20 -0 6.17666e-21)
(-1.2457e-20 -0.0060579 -0 2.4914e-20 -0 -1.2457e-20)
(5.42845e-21 -0.00605781 -0 -1.08569e-20 -0 5.42845e-21)
(-1.13874e-20 -0.00592346 -0 2.27748e-20 -0 -1.13874e-20)
(5.37319e-21 -0.00592337 -0 -1.07464e-20 -0 5.37319e-21)
(-9.97028e-21 -0.00578956 -0 1.99406e-20 -0 -9.97028e-21)
(5.5335e-21 -0.00578947 -0 -1.1067e-20 -0 5.5335e-21)
(-8.64078e-21 -0.00565628 -0 1.72816e-20 -0 -8.64078e-21)
(5.45078e-21 -0.00565619 -0 -1.09016e-20 -0 5.45078e-21)
(-7.93277e-21 -0.00552368 -0 1.58655e-20 -0 -7.93277e-21)
(5.18486e-21 -0.00552359 -0 -1.03697e-20 -0 5.18486e-21)
(-7.29812e-21 -0.00539183 -0 1.45962e-20 -0 -7.29812e-21)
(5.10936e-21 -0.00539174 -0 -1.02187e-20 -0 5.10936e-21)
(-6.11925e-21 -0.00526079 -0 1.22385e-20 -0 -6.11925e-21)
(5.64894e-21 -0.00526071 -0 -1.12979e-20 -0 5.64894e-21)
(-4.93493e-21 -0.00513062 -0 9.86985e-21 -0 -4.93493e-21)
(6.17359e-21 -0.00513054 -0 -1.23472e-20 -0 6.17359e-21)
(-4.28558e-21 -0.00500138 -0 8.57115e-21 -0 -4.28558e-21)
(6.62825e-21 -0.00500131 -0 -1.32565e-20 -0 6.62825e-21)
(-3.6353e-21 -0.00487314 -0 7.27061e-21 -0 -3.6353e-21)
(7.05579e-21 -0.00487307 -0 -1.41116e-20 -0 7.05579e-21)
(-2.38719e-21 -0.00474593 -0 4.77437e-21 -0 -2.38719e-21)
(7.50135e-21 -0.00474586 -0 -1.50027e-20 -0 7.50135e-21)
(-1.64694e-21 -0.00461981 -0 3.29387e-21 -0 -1.64694e-21)
(7.36187e-21 -0.00461975 -0 -1.47237e-20 -0 7.36187e-21)
(-9.86534e-22 -0.00449482 -0 1.97307e-21 -0 -9.86534e-22)
(7.04652e-21 -0.00449476 -0 -1.4093e-20 -0 7.04652e-21)
(1.65121e-22 -0.00437101 -0 -3.30243e-22 -0 1.65121e-22)
(7.01521e-21 -0.00437095 -0 -1.40304e-20 -0 7.01521e-21)
(1.3329e-21 -0.00424841 -0 -2.66579e-21 -0 1.3329e-21)
(7.24003e-21 -0.00424836 -0 -1.44801e-20 -0 7.24003e-21)
(1.93749e-21 -0.00412705 -0 -3.87498e-21 -0 1.93749e-21)
(7.28119e-21 -0.004127 -0 -1.45624e-20 -0 7.28119e-21)
(2.49428e-21 -0.00400697 -0 -4.98855e-21 -0 2.49428e-21)
(6.68446e-21 -0.00400693 -0 -1.33689e-20 -0 6.68446e-21)
(3.5685e-21 -0.00388819 -0 -7.137e-21 -0 3.5685e-21)
(5.94681e-21 -0.00388815 -0 -1.18936e-20 -0 5.94681e-21)
(4.57595e-21 -0.00377074 -0 -9.15189e-21 -0 4.57595e-21)
(4.99706e-21 -0.0037707 -0 -9.99412e-21 -0 4.99706e-21)
(4.95237e-21 -0.00365462 -0 -9.90474e-21 -0 4.95237e-21)
(4.41053e-21 -0.00365459 -0 -8.82106e-21 -0 4.41053e-21)
(5.22871e-21 -0.00353987 -0 -1.04574e-20 -0 5.22871e-21)
(3.77955e-21 -0.00353984 -0 -7.55911e-21 -0 3.77955e-21)
(5.69965e-21 -0.00342648 -0 -1.13993e-20 -0 5.69965e-21)
(2.56067e-21 -0.00342645 -0 -5.12134e-21 -0 2.56067e-21)
(6.06352e-21 -0.00331447 -0 -1.2127e-20 -0 6.06352e-21)
(1.52664e-21 -0.00331444 -0 -3.05327e-21 -0 1.52664e-21)
(6.613e-21 -0.00320383 -0 -1.3226e-20 -0 6.613e-21)
(7.23311e-22 -0.00320381 -0 -1.44662e-21 -0 7.23311e-22)
(7.06501e-21 -0.00309458 -0 -1.413e-20 -0 7.06501e-21)
(-3.73646e-22 -0.00309456 -0 7.47291e-22 -0 -3.73646e-22)
(7.43022e-21 -0.0029867 -0 -1.48604e-20 -0 7.43022e-21)
(-1.4615e-21 -0.00298669 -0 2.92299e-21 -0 -1.4615e-21)
(7.73208e-21 -0.0028802 -0 -1.54642e-20 -0 7.73208e-21)
(-2.22116e-21 -0.00288019 -0 4.44231e-21 -0 -2.22116e-21)
(7.72032e-21 -0.00277506 -0 -1.54406e-20 -0 7.72032e-21)
(-3.19053e-21 -0.00277505 -0 6.38105e-21 -0 -3.19053e-21)
(7.63252e-21 -0.00267127 -0 -1.5265e-20 -0 7.63252e-21)
(-4.08261e-21 -0.00267126 -0 8.16521e-21 -0 -4.08261e-21)
(7.71252e-21 -0.00256881 -0 -1.5425e-20 -0 7.71252e-21)
(-4.87698e-21 -0.00256881 -0 9.75395e-21 -0 -4.87698e-21)
(7.95341e-21 -0.00246768 -0 -1.59068e-20 -0 7.95341e-21)
(-5.57409e-21 -0.00246768 -0 1.11482e-20 -0 -5.57409e-21)
(8.17586e-21 -0.00236784 -0 -1.63517e-20 -0 8.17586e-21)
(-6.16435e-21 -0.00236784 -0 1.23287e-20 -0 -6.16435e-21)
(7.91322e-21 -0.00226929 -0 -1.58264e-20 -0 7.91322e-21)
(-6.94186e-21 -0.00226929 -0 1.38837e-20 -0 -6.94186e-21)
(7.62416e-21 -0.00217198 -0 -1.52483e-20 -0 7.62416e-21)
(-7.35535e-21 -0.00217198 -0 1.47107e-20 -0 -7.35535e-21)
(7.78177e-21 -0.00207591 -0 -1.55635e-20 -0 7.78177e-21)
(-7.63945e-21 -0.00207591 -0 1.52789e-20 -0 -7.63945e-21)
(7.89515e-21 -0.00198103 -0 -1.57903e-20 -0 7.89515e-21)
(-8.09047e-21 -0.00198103 -0 1.61809e-20 -0 -8.09047e-21)
(7.73347e-21 -0.00188732 -0 -1.54669e-20 -0 7.73347e-21)
(-8.48076e-21 -0.00188733 -0 1.69615e-20 -0 -8.48076e-21)
(7.57734e-21 -0.00179475 -0 -1.51547e-20 -0 7.57734e-21)
(-8.80968e-21 -0.00179475 -0 1.76194e-20 -0 -8.80968e-21)
(7.42556e-21 -0.00170328 -0 -1.48511e-20 -0 7.42556e-21)
(-9.07822e-21 -0.00170329 -0 1.81564e-20 -0 -9.07822e-21)
(7.27859e-21 -0.00161289 -0 -1.45572e-20 -0 7.27859e-21)
(-9.28443e-21 -0.00161289 -0 1.85689e-20 -0 -9.28443e-21)
(7.13448e-21 -0.00152352 -0 -1.4269e-20 -0 7.13448e-21)
(-9.44966e-21 -0.00152353 -0 1.88993e-20 -0 -9.44966e-21)
(6.99093e-21 -0.00143515 -0 -1.39819e-20 -0 6.99093e-21)
(-9.59536e-21 -0.00143516 -0 1.91907e-20 -0 -9.59536e-21)
(6.85068e-21 -0.00134774 -0 -1.37014e-20 -0 6.85068e-21)
(-9.72075e-21 -0.00134774 -0 1.94415e-20 -0 -9.72075e-21)
(6.69522e-21 -0.00126124 -0 -1.33904e-20 -0 6.69522e-21)
(-9.8317e-21 -0.00126125 -0 1.96634e-20 -0 -9.8317e-21)
(6.64274e-21 -0.00117563 -0 -1.32855e-20 -0 6.64274e-21)
(-9.93609e-21 -0.00117563 -0 1.98722e-20 -0 -9.93609e-21)
(6.58476e-21 -0.00109085 -0 -1.31695e-20 -0 6.58476e-21)
(-1.00415e-20 -0.00109085 -0 2.00829e-20 -0 -1.00415e-20)
(6.40591e-21 -0.00100686 -0 -1.28118e-20 -0 6.40591e-21)
(-1.00162e-20 -0.00100686 -0 2.00324e-20 -0 -1.00162e-20)
(6.25086e-21 -0.00092362 -0 -1.25017e-20 -0 6.25086e-21)
(-9.98089e-21 -0.000923619 -0 1.99618e-20 -0 -9.98089e-21)
(6.10241e-21 -0.00084109 -0 -1.22048e-20 -0 6.10241e-21)
(-1.00579e-20 -0.000841088 -0 2.01158e-20 -0 -1.00579e-20)
(6.00222e-21 -0.000759223 -0 -1.20044e-20 -0 6.00222e-21)
(-1.01131e-20 -0.00075922 -0 2.02262e-20 -0 -1.01131e-20)
(5.88776e-21 -0.000677975 -0 -1.17755e-20 -0 5.88776e-21)
(-1.01519e-20 -0.00067797 -0 2.03038e-20 -0 -1.01519e-20)
(5.77398e-21 -0.0005973 -0 -1.1548e-20 -0 5.77398e-21)
(-1.01791e-20 -0.000597293 -0 2.03582e-20 -0 -1.01791e-20)
(5.67497e-21 -0.000517151 -0 -1.13499e-20 -0 5.67497e-21)
(-1.01979e-20 -0.000517142 -0 2.03957e-20 -0 -1.01979e-20)
(5.51901e-21 -0.00043748 -0 -1.1038e-20 -0 5.51901e-21)
(-1.02077e-20 -0.000437469 -0 2.04154e-20 -0 -1.02077e-20)
(5.39907e-21 -0.000358235 -0 -1.07981e-20 -0 5.39907e-21)
(-1.02077e-20 -0.000358221 -0 2.04154e-20 -0 -1.02077e-20)
(5.28226e-21 -0.000279358 -0 -1.05645e-20 -0 5.28226e-21)
(-1.01977e-20 -0.000279342 -0 2.03953e-20 -0 -1.01977e-20)
(5.16678e-21 -0.000200783 -0 -1.03336e-20 -0 5.16678e-21)
(-1.01771e-20 -0.000200765 -0 2.03542e-20 -0 -1.01771e-20)
(5.07299e-21 -0.000122428 -0 -1.0146e-20 -0 5.07299e-21)
(-1.01456e-20 -0.000122408 -0 2.02912e-20 -0 -1.01456e-20)
(4.96603e-21 -4.41916e-05 -0 -9.93206e-21 -0 4.96603e-21)
(-1.01068e-20 -4.41687e-05 -0 2.02136e-20 -0 -1.01068e-20)
(4.8616e-21 3.40592e-05 -0 -9.7232e-21 -0 4.8616e-21)
(-1.00635e-20 3.40842e-05 -0 2.0127e-20 -0 -1.00635e-20)
(4.76188e-21 0.00011249 -0 -9.52377e-21 -0 4.76188e-21)
(-1.00192e-20 0.000112516 -0 2.00383e-20 -0 -1.00192e-20)
(4.66307e-21 0.000191287 -0 -9.32614e-21 -0 4.66307e-21)
(-9.9566e-21 0.000191312 -0 1.99132e-20 -0 -9.9566e-21)
(4.58469e-21 0.000270712 -0 -9.16938e-21 -0 4.58469e-21)
(-9.87791e-21 0.000270732 -0 1.97558e-20 -0 -9.87791e-21)
(4.35815e-21 0.000155307 -0 -8.71629e-21 -0 4.35815e-21)
(-9.67963e-21 0.000155315 -0 1.93593e-20 -0 -9.67963e-21)
)
;

boundaryField
{
    inlet
    {
        type            cyclic;
    }
    outlet
    {
        type            cyclic;
    }
    bottom
    {
        type            symmetry;
    }
    top
    {
        type            calculated;
        value           nonuniform List<symmTensor> 2((-1.41827e-21 -0.0095373 -0 2.83653e-21 -0 -1.41827e-21) (3.54303e-22 -0.00953728 -0 -7.08605e-22 -0 3.54303e-22));
    }
    frontAndBack
    {
        type            empty;
    }
}


// ************************************************************************* //
