/*--------------------------------*- C++ -*----------------------------------*\
  =========                 |
  \\      /  F ield         | OpenFOAM: The Open Source CFD Toolbox
   \\    /   O peration     | Website:  https://openfoam.org
    \\  /    A nd           | Version:  7
     \\/     M anipulation  |
\*---------------------------------------------------------------------------*/
FoamFile
{
    version     2.0;
    format      ascii;
    class       volScalarField;
    location    "1800";
    object      k;
}
// * * * * * * * * * * * * * * * * * * * * * * * * * * * * * * * * * * * * * //

dimensions      [0 2 -2 0 0 0 0];

internalField   nonuniform List<scalar> 
180
(
0.00554846
0.00554837
0.0239048
0.0239047
0.0269719
0.0269717
0.0276063
0.0276062
0.0276928
0.0276927
0.0275604
0.0275602
0.0273202
0.0273201
0.0270202
0.0270201
0.0266844
0.0266843
0.0263266
0.0263264
0.0259552
0.025955
0.0255759
0.0255757
0.0251927
0.0251926
0.0248088
0.0248086
0.0244263
0.0244262
0.0240473
0.0240471
0.0236732
0.023673
0.0233053
0.0233051
0.0229448
0.0229446
0.0225927
0.0225925
0.0222496
0.0222494
0.0219164
0.0219162
0.0215937
0.0215935
0.0212819
0.0212816
0.0209814
0.0209812
0.0206927
0.0206924
0.0204158
0.0204156
0.0201511
0.0201508
0.0198986
0.0198983
0.0196583
0.0196579
0.0194302
0.0194298
0.0192142
0.0192138
0.0190101
0.0190098
0.0188179
0.0188175
0.0186373
0.0186369
0.0184679
0.0184675
0.0183095
0.0183091
0.0181618
0.0181614
0.0180245
0.018024
0.017897
0.0178966
0.0177792
0.0177787
0.0176705
0.01767
0.0175706
0.0175701
0.0174791
0.0174786
0.0173955
0.017395
0.0173195
0.017319
0.0172506
0.0172501
0.0171885
0.0171879
0.0171327
0.0171321
0.0170829
0.0170823
0.0170387
0.0170381
0.0169998
0.0169991
0.0169656
0.016965
0.0169361
0.0169354
0.0169107
0.01691
0.0168892
0.0168885
0.0168713
0.0168706
0.0168566
0.0168559
0.016845
0.0168443
0.0168361
0.0168354
0.0168297
0.0168289
0.0168255
0.0168247
0.0168233
0.0168225
0.0168228
0.016822
0.016824
0.0168232
0.0168265
0.0168257
0.0168301
0.0168293
0.0168348
0.016834
0.0168403
0.0168395
0.0168464
0.0168456
0.0168531
0.0168523
0.0168601
0.0168593
0.0168674
0.0168666
0.0168748
0.016874
0.0168822
0.0168813
0.0168895
0.0168886
0.0168965
0.0168956
0.0169033
0.0169024
0.0169096
0.0169087
0.0169155
0.0169146
0.0169207
0.0169198
0.0169254
0.0169245
0.0169294
0.0169284
0.0169326
0.0169316
0.016935
0.016934
0.0169365
0.0169356
0.0169371
0.0169362
0.0169367
0.0169358
0.0169353
0.0169344
0.0169328
0.0169319
)
;

boundaryField
{
    inlet
    {
        type            cyclic;
    }
    outlet
    {
        type            cyclic;
    }
    bottom
    {
        type            symmetry;
    }
    top
    {
        type            kqRWallFunction;
        value           nonuniform List<scalar> 2(0.00554846 0.00554837);
    }
    frontAndBack
    {
        type            empty;
    }
}


// ************************************************************************* //
