/*--------------------------------*- C++ -*----------------------------------*\
  =========                 |
  \\      /  F ield         | OpenFOAM: The Open Source CFD Toolbox
   \\    /   O peration     | Website:  https://openfoam.org
    \\  /    A nd           | Version:  7
     \\/     M anipulation  |
\*---------------------------------------------------------------------------*/
FoamFile
{
    version     2.0;
    format      ascii;
    class       volScalarField;
    location    "1800";
    object      nut;
}
// * * * * * * * * * * * * * * * * * * * * * * * * * * * * * * * * * * * * * //

dimensions      [0 2 -1 0 0 0 0];

internalField   nonuniform List<scalar> 
180
(
2.14061e-06
2.14058e-06
2.61902e-05
2.619e-05
5.91518e-05
5.91516e-05
9.32778e-05
9.32776e-05
0.000127985
0.000127985
0.000162538
0.000162538
0.0001966
0.0001966
0.000230041
0.000230041
0.000262825
0.000262824
0.000294963
0.000294962
0.000326494
0.000326492
0.000357468
0.000357466
0.000387946
0.000387943
0.000417988
0.000417984
0.000447659
0.000447654
0.000477021
0.000477014
0.000506136
0.000506128
0.000535064
0.000535055
0.000563862
0.000563851
0.000592585
0.000592572
0.000621284
0.000621269
0.000650007
0.00064999
0.000678797
0.000678778
0.000707695
0.000707674
0.000736737
0.000736714
0.000765955
0.000765929
0.000795377
0.000795349
0.000825025
0.000824995
0.000854918
0.000854886
0.000885071
0.000885036
0.000915493
0.000915456
0.000946189
0.00094615
0.000977159
0.000977118
0.0010084
0.00100836
0.0010399
0.00103986
0.00107166
0.00107161
0.00110364
0.0011036
0.00113585
0.0011358
0.00116824
0.00116819
0.00120079
0.00120074
0.00123349
0.00123343
0.00126628
0.00126623
0.00129915
0.00129909
0.00133204
0.00133199
0.00136494
0.00136488
0.00139778
0.00139773
0.00143055
0.00143049
0.00146319
0.00146313
0.00149566
0.00149561
0.00152792
0.00152787
0.00155994
0.00155988
0.00159166
0.00159161
0.00162305
0.001623
0.00165407
0.00165402
0.00168468
0.00168462
0.00171483
0.00171478
0.0017445
0.00174445
0.00177364
0.00177359
0.00180222
0.00180217
0.0018302
0.00183016
0.00185756
0.00185752
0.00188426
0.00188422
0.00191027
0.00191023
0.00193556
0.00193552
0.00196011
0.00196007
0.00198389
0.00198385
0.00200687
0.00200684
0.00202904
0.00202901
0.00205037
0.00205034
0.00207084
0.00207081
0.00209043
0.0020904
0.00210912
0.0021091
0.00212691
0.00212688
0.00214376
0.00214374
0.00215967
0.00215965
0.00217463
0.00217461
0.00218862
0.00218861
0.00220163
0.00220162
0.00221366
0.00221364
0.00222468
0.00222467
0.0022347
0.00223469
0.00224371
0.00224369
0.00225169
0.00225168
0.00225865
0.00225864
0.00226457
0.00226456
0.00226946
0.00226945
0.0022733
0.00227329
0.0022761
0.00227609
0.00227784
0.00227784
0.00227853
0.00227852
)
;

boundaryField
{
    inlet
    {
        type            cyclic;
    }
    outlet
    {
        type            cyclic;
    }
    bottom
    {
        type            symmetry;
    }
    top
    {
        type            nutkWallFunction;
        Cmu             0.09;
        kappa           0.41;
        E               9.8;
        value           uniform 0;
    }
    frontAndBack
    {
        type            empty;
    }
}


// ************************************************************************* //
