/*--------------------------------*- C++ -*----------------------------------*\
  =========                 |
  \\      /  F ield         | OpenFOAM: The Open Source CFD Toolbox
   \\    /   O peration     | Website:  https://openfoam.org
    \\  /    A nd           | Version:  7
     \\/     M anipulation  |
\*---------------------------------------------------------------------------*/
FoamFile
{
    version     2.0;
    format      ascii;
    class       volScalarField;
    location    "1800";
    object      omega;
}
// * * * * * * * * * * * * * * * * * * * * * * * * * * * * * * * * * * * * * //

dimensions      [0 0 -1 0 0 0 0];

internalField   nonuniform List<scalar> 
180
(
2592
2592
875.98
875.979
455.454
455.453
295.958
295.957
216.375
216.374
169.563
169.562
138.963
138.963
117.458
117.458
101.529
101.529
89.2538
89.2537
79.4967
79.4966
71.5472
71.5473
64.9388
64.939
59.3529
59.3531
54.5646
54.5649
50.4114
50.4117
46.7724
46.7728
43.5561
43.5566
40.6922
40.6927
38.1256
38.1261
35.8123
35.8128
33.7172
33.7178
31.8117
31.8123
30.0721
30.0727
28.4789
28.4794
27.0155
27.0161
25.6681
25.6687
24.4249
24.4254
23.2754
23.2759
22.2109
22.2115
21.2237
21.2242
20.3069
20.3074
19.4545
19.455
18.6612
18.6616
17.9221
17.9225
17.233
17.2334
16.5901
16.5904
15.9897
15.99
15.4288
15.429
14.9043
14.9046
14.4138
14.414
13.9547
13.9549
13.5247
13.5249
13.122
13.1222
12.7446
12.7447
12.3907
12.3908
12.0588
12.0588
11.7473
11.7473
11.455
11.455
11.1805
11.1805
10.9227
10.9227
10.6805
10.6805
10.4529
10.4529
10.239
10.2389
10.0379
10.0378
9.8489
9.84878
9.67115
9.67101
9.504
9.50385
9.34683
9.34666
9.19904
9.19886
9.0601
9.0599
8.92949
8.92928
8.80675
8.80653
8.69145
8.69121
8.58317
8.58292
8.48155
8.48129
8.38624
8.38598
8.29692
8.29665
8.2133
8.21301
8.13508
8.13479
8.06203
8.06173
7.99391
7.9936
7.9305
7.93018
7.87159
7.87127
7.81701
7.81668
7.76659
7.76625
7.72017
7.71982
7.6776
7.67725
7.63876
7.63841
7.60354
7.60318
7.57182
7.57145
7.5435
7.54314
7.51852
7.51815
7.49678
7.4964
7.47822
7.47784
7.46279
7.46241
7.45044
7.45005
7.44112
7.44073
7.43481
7.43442
7.43147
7.43108
)
;

boundaryField
{
    inlet
    {
        type            cyclic;
    }
    outlet
    {
        type            cyclic;
    }
    bottom
    {
        type            symmetry;
    }
    top
    {
        beta1           0.075;
        blended         0;
        type            omegaWallFunction;
        value           uniform 2592;
    }
    frontAndBack
    {
        type            empty;
    }
}


// ************************************************************************* //
