/*--------------------------------*- C++ -*----------------------------------*\
  =========                 |
  \\      /  F ield         | OpenFOAM: The Open Source CFD Toolbox
   \\    /   O peration     | Website:  https://openfoam.org
    \\  /    A nd           | Version:  7
     \\/     M anipulation  |
\*---------------------------------------------------------------------------*/
FoamFile
{
    version     2.0;
    format      ascii;
    class       volScalarField;
    location    "1800";
    object      p;
}
// * * * * * * * * * * * * * * * * * * * * * * * * * * * * * * * * * * * * * //

dimensions      [0 2 -2 0 0 0 0];

internalField   nonuniform List<scalar> 
180
(
2.00753e-21
2.27529e-17
3.87967e-21
2.27576e-17
9.46164e-21
2.27483e-17
4.79134e-20
2.27033e-17
5.01129e-20
2.27018e-17
1.2446e-20
2.27267e-17
-3.38207e-20
2.27407e-17
-1.09302e-20
2.2699e-17
1.52546e-20
2.26733e-17
1.94429e-20
2.26696e-17
-3.93061e-21
2.26655e-17
8.58018e-22
2.26304e-17
3.9258e-20
2.25591e-17
8.04943e-20
2.25182e-17
-2.96164e-20
2.25901e-17
1.71926e-20
2.25025e-17
2.30819e-20
2.24533e-17
-1.70819e-20
2.24476e-17
-1.09052e-20
2.24417e-17
-4.62391e-21
2.24357e-17
1.78073e-21
2.24296e-17
8.26933e-21
2.24234e-17
1.48549e-20
2.24171e-17
2.15069e-20
2.24107e-17
2.82342e-20
2.24042e-17
3.50139e-20
2.23977e-17
4.18512e-20
2.23911e-17
4.87284e-20
2.23845e-17
5.5648e-20
2.23778e-17
6.25969e-20
2.23711e-17
6.95751e-20
2.23643e-17
7.65725e-20
2.23576e-17
8.35873e-20
2.23508e-17
9.0612e-20
2.2344e-17
9.7643e-20
2.23372e-17
1.04675e-19
2.23303e-17
1.11702e-19
2.23235e-17
1.18721e-19
2.23167e-17
1.25725e-19
2.23099e-17
1.32712e-19
2.23031e-17
1.39673e-19
2.22963e-17
1.46608e-19
2.22896e-17
1.53506e-19
2.22829e-17
1.60368e-19
2.22762e-17
1.67184e-19
2.22696e-17
1.73953e-19
2.2263e-17
1.80665e-19
2.22564e-17
1.87319e-19
2.22499e-17
1.93907e-19
2.22435e-17
2.00425e-19
2.22372e-17
2.06867e-19
2.22309e-17
2.13228e-19
2.22247e-17
2.19501e-19
2.22185e-17
2.25682e-19
2.22125e-17
2.31766e-19
2.22065e-17
2.37746e-19
2.22007e-17
2.43618e-19
2.21949e-17
2.49375e-19
2.21893e-17
2.55014e-19
2.21838e-17
2.60527e-19
2.21784e-17
2.65913e-19
2.21731e-17
2.71162e-19
2.2168e-17
2.76274e-19
2.21629e-17
2.8124e-19
2.21581e-17
2.86059e-19
2.21533e-17
2.90723e-19
2.21488e-17
2.9523e-19
2.21443e-17
2.99574e-19
2.21401e-17
3.03753e-19
2.2136e-17
3.07759e-19
2.2132e-17
3.11593e-19
2.21283e-17
3.15247e-19
2.21247e-17
3.18721e-19
2.21212e-17
3.22008e-19
2.2118e-17
3.25109e-19
2.21149e-17
3.28017e-19
2.21121e-17
3.30732e-19
2.21094e-17
3.33249e-19
2.21069e-17
3.35568e-19
2.21046e-17
3.37685e-19
2.21025e-17
3.39598e-19
2.21007e-17
3.41305e-19
2.2099e-17
3.42805e-19
2.20975e-17
3.44096e-19
2.20962e-17
3.45177e-19
2.20951e-17
3.46046e-19
2.20943e-17
3.46703e-19
2.20936e-17
3.47147e-19
2.20932e-17
3.47377e-19
2.2093e-17
3.47407e-19
2.20929e-17
)
;

boundaryField
{
    inlet
    {
        type            cyclic;
    }
    outlet
    {
        type            cyclic;
    }
    bottom
    {
        type            symmetry;
    }
    top
    {
        type            zeroGradient;
    }
    frontAndBack
    {
        type            empty;
    }
}


// ************************************************************************* //
