/*--------------------------------*- C++ -*----------------------------------*\
  =========                 |
  \\      /  F ield         | OpenFOAM: The Open Source CFD Toolbox
   \\    /   O peration     | Website:  https://openfoam.org
    \\  /    A nd           | Version:  7
     \\/     M anipulation  |
\*---------------------------------------------------------------------------*/
FoamFile
{
    version     2.0;
    format      ascii;
    class       surfaceScalarField;
    location    "1800";
    object      phi;
}
// * * * * * * * * * * * * * * * * * * * * * * * * * * * * * * * * * * * * * //

dimensions      [0 3 -1 0 0 0 0];

internalField   nonuniform List<scalar> 
268
(
0.000588723
-1.21076e-19
1.52795e-20
0.00106963
-1.50497e-19
1.35624e-19
0.00128738
-1.5587e-19
1.45341e-19
0.00141865
2.42749e-19
-6.72119e-20
0.00151118
1.64224e-19
2.58042e-20
0.00158208
1.97253e-19
-2.6785e-21
0.00163932
1.12791e-19
4.25883e-20
0.0016872
1.08573e-19
8.03928e-21
0.00172829
1.21609e-19
-1.1786e-20
0.0017642
1.44249e-19
-5.50969e-21
0.00179604
1.27106e-19
2.92689e-20
0.0018246
1.19029e-19
5.68242e-20
0.00185044
1.29712e-19
4.64998e-20
0.00187399
2.24704e-19
-2.58371e-21
0.00189558
1.4858e-19
1.03586e-19
0.00191547
1.63258e-19
1.10934e-19
0.00193387
1.6627e-19
-7.89148e-20
0.00195095
1.22519e-19
-5.96221e-20
0.00196685
9.48358e-20
-4.25759e-20
0.00198169
6.56451e-20
-2.66016e-20
0.00199557
3.91871e-20
-1.31766e-20
0.00200857
1.36361e-20
-7.15175e-22
0.00202077
-8.66172e-21
9.63619e-21
0.00203223
-2.87284e-20
1.90923e-20
0.00204301
-4.54579e-20
2.68437e-20
0.00205315
-6.06092e-20
3.37148e-20
0.00206271
-7.31832e-20
3.91071e-20
0.00207172
-8.48443e-20
4.46738e-20
0.00208023
-9.41685e-20
4.98163e-20
0.00208825
-1.0248e-19
5.50643e-20
0.00209583
-1.09369e-19
5.95723e-20
0.00210299
-1.15967e-19
6.41698e-20
0.00210975
-1.20908e-19
6.88067e-20
0.00211615
-1.25158e-19
7.39785e-20
0.00212219
-1.28359e-19
7.91294e-20
0.00212791
-1.31346e-19
8.46642e-20
0.00213332
-1.32958e-19
9.01883e-20
0.00213843
-1.3432e-19
9.56234e-20
0.00214327
-1.34862e-19
1.00533e-19
0.00214785
-1.34893e-19
1.05428e-19
0.00215219
-1.33865e-19
1.1022e-19
0.00215629
-1.32726e-19
1.15029e-19
0.00216017
-1.31019e-19
1.19235e-19
0.00216385
-1.28914e-19
1.22972e-19
0.00216732
-1.26037e-19
1.2596e-19
0.00217062
-1.23203e-19
1.28608e-19
0.00217373
-1.20086e-19
1.3076e-19
0.00217669
-1.16948e-19
1.3224e-19
0.00217948
-1.13512e-19
1.33056e-19
0.00218212
-1.10004e-19
1.33475e-19
0.00218462
-1.06182e-19
1.33252e-19
0.00218699
-1.02383e-19
1.32514e-19
0.00218923
-9.83753e-20
1.31359e-19
0.00219134
-9.45676e-20
1.29781e-19
0.00219334
-9.07593e-20
1.27755e-19
0.00219523
-8.70841e-20
1.25416e-19
0.00219702
-8.3259e-20
1.22752e-19
0.00219871
-7.94837e-20
1.19887e-19
0.0022003
-7.5803e-20
1.16681e-19
0.0022018
-7.23889e-20
1.13363e-19
0.00220321
-6.8881e-20
1.09942e-19
0.00220454
-6.54411e-20
1.06394e-19
0.0022058
-6.20537e-20
1.02703e-19
0.00220697
-5.88369e-20
9.89398e-20
0.00220807
-5.56695e-20
9.50896e-20
0.00220911
-5.26522e-20
9.12188e-20
0.00221007
-4.96813e-20
8.73052e-20
0.00221097
-4.68451e-20
8.3392e-20
0.00221181
-4.40553e-20
7.94526e-20
0.00221259
-4.13915e-20
7.55223e-20
0.00221331
-3.87399e-20
7.15736e-20
0.00221397
-3.6165e-20
6.76308e-20
0.00221458
-3.36539e-20
6.37193e-20
0.00221513
-3.12471e-20
5.98625e-20
0.00221564
-2.88926e-20
5.59946e-20
0.00221609
-2.66125e-20
5.21413e-20
0.00221649
-2.43724e-20
4.82895e-20
0.00221685
-2.22044e-20
4.44577e-20
0.00221716
-2.00708e-20
4.06326e-20
0.00221742
-1.80184e-20
3.68289e-20
0.00221764
-1.60095e-20
3.3037e-20
0.00221782
-1.406e-20
2.92681e-20
0.00221795
-1.21532e-20
2.55168e-20
0.00221804
-1.02923e-20
2.17911e-20
0.00221808
-8.47056e-21
1.80876e-20
0.00221809
-6.69494e-21
1.44089e-20
0.00221805
-4.95645e-21
1.07521e-20
0.00221796
-3.25507e-21
7.12242e-21
0.00221784
-1.58416e-21
3.52373e-21
0.00221767
)
;

boundaryField
{
    inlet
    {
        type            cyclic;
        value           nonuniform List<scalar> 
90
(
-0.000588723
-0.00106963
-0.00128738
-0.00141865
-0.00151118
-0.00158208
-0.00163932
-0.0016872
-0.00172829
-0.0017642
-0.00179604
-0.0018246
-0.00185044
-0.00187399
-0.00189558
-0.00191547
-0.00193387
-0.00195095
-0.00196685
-0.00198169
-0.00199557
-0.00200857
-0.00202077
-0.00203223
-0.00204301
-0.00205315
-0.00206271
-0.00207172
-0.00208023
-0.00208825
-0.00209583
-0.00210299
-0.00210975
-0.00211615
-0.00212219
-0.00212791
-0.00213332
-0.00213843
-0.00214327
-0.00214785
-0.00215219
-0.00215629
-0.00216017
-0.00216385
-0.00216732
-0.00217062
-0.00217373
-0.00217669
-0.00217948
-0.00218212
-0.00218462
-0.00218699
-0.00218923
-0.00219134
-0.00219334
-0.00219523
-0.00219702
-0.00219871
-0.0022003
-0.0022018
-0.00220321
-0.00220454
-0.0022058
-0.00220697
-0.00220807
-0.00220911
-0.00221007
-0.00221097
-0.00221181
-0.00221259
-0.00221331
-0.00221397
-0.00221458
-0.00221513
-0.00221564
-0.00221609
-0.00221649
-0.00221685
-0.00221716
-0.00221742
-0.00221764
-0.00221782
-0.00221795
-0.00221804
-0.00221808
-0.00221809
-0.00221805
-0.00221796
-0.00221784
-0.00221767
)
;
    }
    outlet
    {
        type            cyclic;
        value           nonuniform List<scalar> 
90
(
0.000588723
0.00106963
0.00128738
0.00141865
0.00151118
0.00158208
0.00163932
0.0016872
0.00172829
0.0017642
0.00179604
0.0018246
0.00185044
0.00187399
0.00189558
0.00191547
0.00193387
0.00195095
0.00196685
0.00198169
0.00199557
0.00200857
0.00202077
0.00203223
0.00204301
0.00205315
0.00206271
0.00207172
0.00208023
0.00208825
0.00209583
0.00210299
0.00210975
0.00211615
0.00212219
0.00212791
0.00213332
0.00213843
0.00214327
0.00214785
0.00215219
0.00215629
0.00216017
0.00216385
0.00216732
0.00217062
0.00217373
0.00217669
0.00217948
0.00218212
0.00218462
0.00218699
0.00218923
0.00219134
0.00219334
0.00219523
0.00219702
0.00219871
0.0022003
0.0022018
0.00220321
0.00220454
0.0022058
0.00220697
0.00220807
0.00220911
0.00221007
0.00221097
0.00221181
0.00221259
0.00221331
0.00221397
0.00221458
0.00221513
0.00221564
0.00221609
0.00221649
0.00221685
0.00221716
0.00221742
0.00221764
0.00221782
0.00221795
0.00221804
0.00221808
0.00221809
0.00221805
0.00221796
0.00221784
0.00221767
)
;
    }
    bottom
    {
        type            symmetry;
        value           uniform 0;
    }
    top
    {
        type            calculated;
        value           uniform 0;
    }
    frontAndBack
    {
        type            empty;
        value           nonuniform 0();
    }
}


// ************************************************************************* //
