/*--------------------------------*- C++ -*----------------------------------*\
  =========                 |
  \\      /  F ield         | OpenFOAM: The Open Source CFD Toolbox
   \\    /   O peration     | Website:  https://openfoam.org
    \\  /    A nd           | Version:  7
     \\/     M anipulation  |
\*---------------------------------------------------------------------------*/
FoamFile
{
    version     2.0;
    format      ascii;
    class       volVectorField;
    location    "1800";
    object      U;
}
// * * * * * * * * * * * * * * * * * * * * * * * * * * * * * * * * * * * * * //

dimensions      [0 1 -1 0 0 0 0];

internalField   nonuniform List<vector> 
180
(
(0.52985 -1.18189e-19 0)
(0.529849 2.95252e-20 0)
(0.962665 -3.60128e-19 0)
(0.962663 2.29267e-19 0)
(1.15865 -3.42489e-19 0)
(1.15864 3.04474e-19 0)
(1.27678 1.53365e-19 0)
(1.27678 4.61633e-20 0)
(1.36007 3.97232e-19 0)
(1.36006 -2.98519e-20 0)
(1.42387 3.75595e-19 0)
(1.42387 1.12642e-20 0)
(1.47539 3.0884e-19 0)
(1.47539 3.17886e-20 0)
(1.51849 2.26496e-19 0)
(1.51848 4.31586e-20 0)
(1.55546 2.26253e-19 0)
(1.55546 -1.1027e-20 0)
(1.58778 2.64746e-19 0)
(1.58778 -2.32581e-20 0)
(1.61644 2.66832e-19 0)
(1.61644 2.59106e-20 0)
(1.64214 2.40414e-19 0)
(1.64214 8.87089e-20 0)
(1.6654 2.56146e-19 0)
(1.6654 9.55289e-20 0)
(1.68659 3.52247e-19 0)
(1.68659 4.19569e-20 0)
(1.70602 3.73863e-19 0)
(1.70602 9.92204e-20 0)
(1.72392 3.26066e-19 0)
(1.72392 2.08034e-19 0)
(1.74049 3.28927e-19 0)
(1.74048 3.28192e-20 0)
(1.75586 2.92258e-19 0)
(1.75585 -1.37599e-19 0)
(1.77017 2.19695e-19 0)
(1.77017 -1.01481e-19 0)
(1.78352 1.5895e-19 0)
(1.78352 -6.83492e-20 0)
(1.79601 1.04474e-19 0)
(1.79601 -3.87243e-20 0)
(1.80771 5.15727e-20 0)
(1.80771 -1.34708e-20 0)
(1.81869 3.77984e-21 0)
(1.81869 9.96312e-21 0)
(1.82901 -3.91042e-20 0)
(1.829 2.90787e-20 0)
(1.83871 -7.5067e-20 0)
(1.8387 4.67154e-20 0)
(1.84784 -1.07394e-19 0)
(1.84784 6.11062e-20 0)
(1.85644 -1.34363e-19 0)
(1.85644 7.32499e-20 0)
(1.86455 -1.58951e-19 0)
(1.86455 8.35746e-20 0)
(1.87221 -1.7982e-19 0)
(1.8722 9.46999e-20 0)
(1.87943 -1.97376e-19 0)
(1.87943 1.04901e-19 0)
(1.88625 -2.11999e-19 0)
(1.88625 1.15e-19 0)
(1.89269 -2.25948e-19 0)
(1.89269 1.23576e-19 0)
(1.89878 -2.37441e-19 0)
(1.89878 1.32812e-19 0)
(1.90453 -2.4661e-19 0)
(1.90453 1.42652e-19 0)
(1.90997 -2.53594e-19 0)
(1.90997 1.5302e-19 0)
(1.91512 -2.60217e-19 0)
(1.91512 1.63696e-19 0)
(1.91999 -2.64797e-19 0)
(1.91999 1.74765e-19 0)
(1.92459 -2.67362e-19 0)
(1.92459 1.8615e-19 0)
(1.92895 -2.69588e-19 0)
(1.92895 1.96182e-19 0)
(1.93307 -2.70153e-19 0)
(1.93307 2.06086e-19 0)
(1.93697 -2.69133e-19 0)
(1.93697 2.15496e-19 0)
(1.94066 -2.6658e-19 0)
(1.94066 2.25495e-19 0)
(1.94415 -2.64073e-19 0)
(1.94415 2.34513e-19 0)
(1.94746 -2.60229e-19 0)
(1.94746 2.42516e-19 0)
(1.95059 -2.55209e-19 0)
(1.95059 2.49284e-19 0)
(1.95356 -2.49135e-19 0)
(1.95356 2.54631e-19 0)
(1.95636 -2.43483e-19 0)
(1.95636 2.59728e-19 0)
(1.95902 -2.37036e-19 0)
(1.95902 2.63377e-19 0)
(1.96153 -2.30587e-19 0)
(1.96153 2.65522e-19 0)
(1.96391 -2.23613e-19 0)
(1.96391 2.66757e-19 0)
(1.96616 -2.16254e-19 0)
(1.96616 2.6709e-19 0)
(1.96829 -2.08612e-19 0)
(1.96829 2.65963e-19 0)
(1.9703 -2.0079e-19 0)
(1.9703 2.64048e-19 0)
(1.97221 -1.92829e-19 0)
(1.97221 2.61429e-19 0)
(1.97401 -1.85325e-19 0)
(1.97401 2.57657e-19 0)
(1.97571 -1.77817e-19 0)
(1.97571 2.53399e-19 0)
(1.97732 -1.70421e-19 0)
(1.97732 2.48231e-19 0)
(1.97884 -1.62706e-19 0)
(1.97884 2.42809e-19 0)
(1.98027 -1.55141e-19 0)
(1.98027 2.36711e-19 0)
(1.98162 -1.48151e-19 0)
(1.98162 2.3004e-19 0)
(1.98289 -1.41331e-19 0)
(1.98289 2.23387e-19 0)
(1.98409 -1.34261e-19 0)
(1.98409 2.16404e-19 0)
(1.98522 -1.27438e-19 0)
(1.98522 2.0915e-19 0)
(1.98627 -1.20837e-19 0)
(1.98627 2.01682e-19 0)
(1.98727 -1.14455e-19 0)
(1.98727 1.94056e-19 0)
(1.98819 -1.08273e-19 0)
(1.9882 1.86322e-19 0)
(1.98906 -1.02287e-19 0)
(1.98906 1.78534e-19 0)
(1.98987 -9.64821e-20 0)
(1.98987 1.70704e-19 0)
(1.99063 -9.08588e-20 0)
(1.99063 1.62848e-19 0)
(1.99133 -8.53989e-20 0)
(1.99133 1.54977e-19 0)
(1.99197 -8.01336e-20 0)
(1.99198 1.47098e-19 0)
(1.99257 -7.4857e-20 0)
(1.99257 1.39209e-19 0)
(1.99312 -6.97759e-20 0)
(1.99312 1.31303e-19 0)
(1.99362 -6.48645e-20 0)
(1.99362 1.23584e-19 0)
(1.99407 -6.01016e-20 0)
(1.99407 1.15856e-19 0)
(1.99448 -5.54892e-20 0)
(1.99448 1.08132e-19 0)
(1.99484 -5.09433e-20 0)
(1.99484 1.00425e-19 0)
(1.99516 -4.65628e-20 0)
(1.99517 9.27405e-20 0)
(1.99544 -4.22409e-20 0)
(1.99545 8.50831e-20 0)
(1.99568 -3.80558e-20 0)
(1.99568 7.74535e-20 0)
(1.99588 -3.40085e-20 0)
(1.99588 6.98568e-20 0)
(1.99604 -3.00383e-20 0)
(1.99604 6.22952e-20 0)
(1.99615 -2.61958e-20 0)
(1.99616 5.4774e-20 0)
(1.99623 -2.24234e-20 0)
(1.99623 4.72959e-20 0)
(1.99627 -1.8742e-20 0)
(1.99628 3.98669e-20 0)
(1.99628 -1.51458e-20 0)
(1.99628 3.24845e-20 0)
(1.99624 -1.16327e-20 0)
(1.99624 2.51506e-20 0)
(1.99617 -8.19401e-21 0)
(1.99617 1.78578e-20 0)
(1.99605 -4.83359e-21 0)
(1.99606 1.0633e-20 0)
(1.9959 -1.51422e-21 0)
(1.99591 3.46583e-21 0)
)
;

boundaryField
{
    inlet
    {
        type            cyclic;
    }
    outlet
    {
        type            cyclic;
    }
    bottom
    {
        type            symmetry;
    }
    top
    {
        type            noSlip;
    }
    frontAndBack
    {
        type            empty;
    }
}


// ************************************************************************* //
