/*--------------------------------*- C++ -*----------------------------------*\
  =========                 |
  \\      /  F ield         | OpenFOAM: The Open Source CFD Toolbox
   \\    /   O peration     | Website:  https://openfoam.org
    \\  /    A nd           | Version:  7
     \\/     M anipulation  |
\*---------------------------------------------------------------------------*/
FoamFile
{
    version     2.0;
    format      ascii;
    class       volScalarField;
    location    "73";
    object      k;
}
// * * * * * * * * * * * * * * * * * * * * * * * * * * * * * * * * * * * * * //

dimensions      [0 2 -2 0 0 0 0];

internalField   nonuniform List<scalar> 
12842
(
0.00568823
0.00511196
0.00473862
0.00448354
0.00430597
0.00418409
0.00409483
0.0040387
0.00399043
0.00396786
0.00394282
0.00394504
0.00395982
0.00398936
0.00403177
0.00405359
0.00408243
0.00410924
0.0041388
0.00415159
0.00416107
0.00417041
0.00417579
0.00566271
0.00505831
0.00471827
0.00447589
0.00430262
0.00418028
0.00409082
0.00403411
0.00398652
0.00396412
0.00394023
0.00394349
0.00395922
0.00398808
0.00402719
0.00405908
0.00409127
0.00410804
0.00413611
0.00415583
0.00416385
0.00417011
0.00417526
0.00562976
0.00499393
0.00463969
0.00441546
0.0042617
0.00414826
0.00406664
0.00401353
0.00397117
0.0039513
0.00393234
0.00393781
0.00395689
0.00399026
0.00403248
0.00406192
0.00408818
0.00410874
0.00413941
0.00415608
0.00416725
0.00417263
0.00417753
0.00558585
0.00495206
0.00459448
0.00438732
0.00424258
0.00413359
0.00405584
0.00400448
0.00396448
0.00394559
0.00392882
0.0039352
0.00395564
0.00399163
0.00403148
0.00406362
0.00408867
0.00411139
0.00413847
0.00415381
0.00416688
0.00417128
0.00417736
0.00552636
0.00487641
0.00453603
0.00432418
0.00419519
0.00409703
0.00402921
0.00398291
0.00394891
0.00393268
0.00392162
0.00393051
0.00395571
0.00399857
0.00403024
0.00406689
0.00409132
0.0041134
0.00413906
0.00415504
0.00416568
0.00417292
0.00417755
0.0054815
0.00482266
0.00448068
0.00429514
0.00417477
0.00408118
0.0040173
0.00397311
0.00394182
0.00392656
0.00391831
0.00392829
0.00395679
0.00400199
0.00403175
0.00406833
0.00409542
0.00411661
0.00414129
0.00415812
0.00416777
0.00417747
0.00418307
0.0054224
0.00475617
0.00443583
0.00424347
0.00413318
0.00404857
0.0039926
0.00395291
0.00392734
0.0039139
0.00391201
0.00392467
0.00396006
0.00400755
0.00403878
0.00407142
0.00409877
0.00412102
0.00414506
0.00416391
0.004176
0.00419474
0.00420406
0.00537513
0.00470537
0.00438136
0.00421459
0.00411596
0.00403576
0.00398242
0.00394411
0.00392111
0.00390794
0.0039085
0.00392144
0.00396022
0.00401153
0.00404282
0.00407362
0.00410541
0.00413314
0.00415184
0.00417518
0.004191
0.00421332
0.00423024
0.0053211
0.00465575
0.00434836
0.00417954
0.00408516
0.00401184
0.00396335
0.0039281
0.00390994
0.00389881
0.00390255
0.00391737
0.00395832
0.00401236
0.004046
0.00407936
0.00411057
0.0041429
0.00416899
0.00419591
0.0042177
0.00424399
0.00426377
0.00526407
0.00460188
0.00429816
0.00414935
0.00406884
0.00400242
0.00395586
0.00392136
0.00390541
0.00389472
0.0038997
0.00391711
0.0039585
0.00401388
0.00404814
0.00408465
0.00412217
0.00416107
0.00418471
0.00422426
0.00424844
0.00428194
0.00430852
0.00520645
0.0045596
0.0042689
0.00412392
0.00404777
0.00398489
0.00394118
0.00390946
0.00389718
0.00388885
0.00389523
0.00391667
0.00396012
0.00401707
0.00405284
0.00409464
0.00413154
0.00417914
0.00421313
0.0042564
0.00429028
0.00432702
0.00435677
0.00514806
0.00451021
0.0042265
0.00409576
0.0040294
0.00397561
0.00393414
0.00390383
0.00389345
0.00388585
0.00389301
0.00391596
0.0039618
0.00402026
0.00406023
0.00410879
0.00415468
0.00421
0.00424205
0.00429966
0.00434127
0.00439131
0.00442963
0.00509241
0.00447432
0.00420035
0.00407468
0.00401339
0.00396215
0.00392151
0.00389409
0.00388675
0.00388133
0.00388957
0.00391584
0.00396344
0.00402436
0.0040661
0.00412447
0.00417673
0.00424091
0.00428614
0.00435281
0.00440257
0.0044583
0.00450504
0.00503662
0.00443057
0.00416631
0.00405122
0.00399571
0.00395145
0.0039145
0.00388952
0.00388369
0.00387918
0.0038879
0.00391352
0.00396658
0.00403378
0.00408354
0.00414824
0.00421363
0.00429076
0.00433582
0.00441616
0.00448301
0.00455185
0.00460723
0.0049861
0.00439927
0.00414383
0.00403395
0.0039816
0.00394118
0.00390377
0.00388136
0.00387791
0.00387533
0.00388526
0.00391539
0.00396929
0.00404104
0.00409498
0.00417675
0.00425884
0.00433939
0.00439866
0.00449098
0.00456276
0.00464487
0.00471168
0.00493512
0.0043618
0.00411673
0.00401372
0.00396688
0.00392976
0.00389604
0.00387756
0.00387514
0.00387347
0.00388371
0.00391512
0.0039749
0.0040592
0.00412657
0.00421626
0.00430669
0.00441199
0.00447598
0.00458238
0.00467252
0.00476311
0.00484141
0.00489093
0.00433434
0.00409836
0.00400031
0.00395406
0.00392004
0.00388777
0.00387047
0.00386997
0.00386991
0.00388177
0.00391617
0.00398033
0.004073
0.00414717
0.00426245
0.00437911
0.00448315
0.00455947
0.00467875
0.00477538
0.00488216
0.0049703
0.00484611
0.00430262
0.00407557
0.00398271
0.00394109
0.00391009
0.00387928
0.00386691
0.00386675
0.00386813
0.00388023
0.00391811
0.00399388
0.00410784
0.00420163
0.00432735
0.00444455
0.00458116
0.00466466
0.00479769
0.00490748
0.00501975
0.00512039
0.00480823
0.00427889
0.00406125
0.00397067
0.00393069
0.00389978
0.00387278
0.00386086
0.00386266
0.00386451
0.003879
0.00392132
0.00400672
0.00413564
0.00423717
0.00439232
0.00454395
0.00467562
0.00477206
0.00491663
0.00503275
0.00515828
0.00526596
0.00477284
0.00425202
0.00404098
0.00395612
0.00391897
0.00389045
0.00386551
0.00385626
0.00385853
0.00386276
0.00388009
0.00393437
0.00403801
0.00419344
0.00432119
0.00448985
0.00463465
0.00479826
0.00489617
0.00505396
0.00517931
0.00530869
0.00542834
0.00474363
0.00423156
0.00402965
0.00394448
0.00390913
0.00388174
0.00385871
0.00385212
0.00385406
0.00385879
0.00387999
0.00394988
0.00407308
0.00424774
0.00438019
0.00457271
0.00475511
0.00491343
0.00503051
0.00519802
0.00532716
0.00546954
0.00559776
0.00471583
0.00420834
0.00401091
0.00393152
0.00389932
0.00387192
0.00385303
0.00384583
0.00385163
0.0038573
0.00388971
0.00398969
0.00412986
0.00432266
0.00449074
0.00470348
0.00487514
0.00505656
0.00516963
0.00535201
0.00549345
0.00564304
0.00578306
0.00469308
0.00419029
0.00400111
0.00392006
0.00389009
0.00386361
0.00384729
0.00384146
0.00384588
0.00385993
0.00390531
0.00403322
0.00419373
0.00441091
0.00458282
0.0048049
0.0050117
0.00519459
0.00533072
0.00552328
0.00566366
0.00582317
0.00596795
0.00467506
0.00417315
0.00398748
0.00391088
0.00388191
0.00385715
0.00384213
0.00383847
0.00384153
0.0038674
0.00394311
0.00409557
0.00427195
0.0045088
0.00471209
0.00496524
0.00516134
0.00534911
0.00548452
0.00568671
0.0058434
0.00601672
0.0061809
0.00466084
0.00416034
0.00398216
0.00390421
0.00387717
0.00385229
0.00383895
0.00383409
0.00384326
0.00388521
0.00399485
0.00416676
0.00436662
0.0046299
0.00484694
0.00508936
0.00530897
0.00551341
0.00566727
0.00588822
0.00604496
0.00622985
0.00638546
0.00464884
0.00414815
0.00397272
0.00389757
0.00387298
0.00384699
0.00383705
0.00383034
0.00385454
0.00392229
0.0040547
0.00424056
0.00446019
0.00474718
0.00498331
0.00526242
0.00547947
0.0056724
0.00584461
0.00606681
0.00624085
0.00643199
0.00661046
0.00463563
0.00413539
0.00396574
0.00389097
0.00386716
0.00384347
0.00383297
0.0038353
0.0038824
0.00397467
0.00412594
0.00433276
0.00457761
0.00488823
0.00514695
0.00540194
0.00562442
0.00584858
0.0060239
0.00626728
0.00644312
0.00666135
0.00683428
0.00462479
0.00412303
0.00395836
0.00388554
0.00386191
0.00384025
0.00382862
0.00385814
0.00392422
0.00403815
0.00420438
0.00442519
0.00469107
0.00503057
0.00529259
0.00557177
0.00580236
0.00600573
0.00621492
0.00645924
0.00666105
0.00687001
0.00704033
0.00461286
0.00411001
0.00394849
0.00387735
0.00385866
0.00383387
0.00383199
0.00389866
0.00397754
0.00411366
0.00429368
0.00453564
0.00482589
0.00518082
0.00546594
0.00572782
0.00594439
0.00618315
0.00639506
0.00665196
0.00684311
0.007068
0.00723614
0.00460261
0.00409847
0.00394212
0.00387195
0.00385339
0.00383176
0.00385472
0.00395091
0.00404368
0.00419715
0.00438886
0.00464284
0.00495279
0.00533974
0.00562103
0.00587706
0.00611254
0.0063243
0.00655805
0.00681483
0.00703605
0.00726057
0.00740683
0.00459154
0.0040852
0.00393292
0.00386722
0.00384639
0.00384019
0.00389227
0.00401396
0.00411879
0.00428969
0.00449357
0.00476602
0.00509909
0.00549255
0.00578291
0.00603988
0.00624667
0.00648359
0.00673147
0.00699541
0.00720442
0.00740957
0.00754784
0.0045818
0.00407284
0.00392455
0.00385979
0.00384785
0.00386706
0.00394659
0.00408624
0.00420437
0.00438772
0.00460079
0.00488219
0.0052311
0.00565422
0.00594361
0.00617084
0.00639954
0.00662598
0.00687016
0.00712047
0.00734259
0.00756299
0.00768438
0.00457141
0.00406123
0.00391586
0.00385288
0.00386416
0.00390909
0.0040063
0.00416752
0.00429523
0.00449159
0.0047153
0.00500931
0.00538016
0.00580466
0.00608412
0.00631481
0.00651727
0.00674025
0.00700337
0.00726922
0.00749157
0.00767089
0.00778256
0.00456017
0.00404973
0.00391049
0.00385814
0.00389858
0.00396175
0.00408055
0.00425441
0.00439362
0.00459871
0.00482799
0.00512962
0.0055117
0.00595771
0.00623739
0.00644481
0.00665335
0.00688281
0.00713707
0.00737739
0.00759755
0.00779435
0.00788932
0.00455212
0.0040367
0.00390133
0.00387827
0.00394115
0.00402425
0.00415971
0.00434731
0.00449385
0.00470743
0.00494435
0.00525061
0.00565345
0.00609853
0.00635972
0.00654879
0.00675233
0.00697999
0.00724297
0.00749439
0.00770637
0.00785156
0.00795241
0.00453852
0.00402587
0.00389423
0.00391838
0.00399575
0.00409734
0.00424842
0.00444361
0.00459857
0.00481745
0.00505622
0.00537141
0.00578124
0.00623767
0.00649161
0.00667959
0.00686837
0.00708068
0.0073328
0.00757301
0.0077929
0.00796178
0.00808731
0.00453032
0.00401785
0.00389732
0.00396504
0.0040571
0.00417699
0.00433995
0.00454143
0.00470192
0.00492394
0.00516619
0.00547959
0.00590934
0.00636431
0.00660116
0.00676101
0.00696438
0.0071938
0.00745486
0.00769131
0.00788817
0.00803559
0.00820378
0.00451673
0.00400608
0.00392017
0.00402377
0.00412815
0.00426503
0.00443696
0.00464119
0.00480691
0.00503057
0.00527251
0.00559603
0.00602939
0.00648404
0.00670918
0.00686447
0.00703974
0.00725744
0.00751747
0.00775983
0.00798597
0.00819994
0.00846649
0.00450771
0.00399587
0.00395045
0.00409058
0.00420505
0.00435586
0.00453352
0.00473832
0.00490729
0.00512859
0.00536986
0.00569089
0.00614233
0.00659935
0.00680643
0.00695192
0.00715568
0.00737542
0.00763958
0.00789903
0.00813121
0.00837386
0.00880493
0.00449393
0.00400083
0.00399652
0.00416295
0.00428808
0.0044515
0.00463169
0.00483583
0.00500703
0.00522631
0.00546747
0.00579755
0.00625324
0.0066981
0.00689592
0.00703185
0.00722115
0.00745097
0.00771716
0.0079968
0.00828864
0.00883989
0.0100813
0.00448175
0.00402045
0.00404366
0.00424414
0.00437394
0.00454701
0.00472726
0.0049269
0.00509928
0.00531203
0.00554944
0.00588132
0.00634871
0.00679983
0.00698871
0.00711872
0.00730839
0.00754918
0.00788099
0.00823624
0.0086911
0.00974784
0.0129196
0.0044743
0.00405774
0.00410334
0.00432591
0.00446341
0.00464265
0.00482065
0.0050174
0.00518924
0.00539677
0.00563617
0.00597666
0.00645471
0.00688531
0.00706371
0.00720199
0.00743644
0.0077034
0.00803943
0.00846704
0.00941117
0.0124519
0.0185077
0.00446326
0.00409891
0.00416701
0.00441371
0.00455167
0.00473649
0.00490987
0.00509887
0.00526988
0.00546886
0.00570321
0.00604936
0.00652991
0.00696396
0.00715435
0.00728967
0.007501
0.00779995
0.00824887
0.00910073
0.0109445
0.015685
0.0281768
0.00444837
0.00415369
0.00423587
0.00450006
0.00464166
0.00482645
0.00499457
0.0051784
0.00534712
0.00553897
0.00577824
0.0061368
0.0066349
0.00706185
0.00724796
0.00741108
0.00768409
0.00804747
0.00874315
0.00985901
0.0129541
0.0237364
0.0479332
0.00444622
0.00420867
0.00431266
0.0045874
0.00472707
0.00491343
0.00507362
0.00524824
0.00541446
0.00559746
0.00583215
0.00619776
0.00669462
0.00711551
0.00731129
0.00748766
0.00781558
0.00837255
0.00920908
0.0111536
0.0181804
0.0377257
0.0644013
0.00446052
0.00427876
0.00438731
0.00467344
0.00481267
0.00499386
0.00514745
0.00531521
0.00547811
0.00565401
0.0058963
0.00628026
0.00679551
0.00722823
0.00745346
0.00769799
0.00807593
0.00859792
0.00996192
0.0142754
0.0265889
0.050375
0.0866255
0.0044842
0.00434363
0.00447091
0.00475565
0.00489185
0.00507073
0.00521429
0.00537242
0.00553208
0.00569985
0.00593965
0.00633289
0.00684972
0.00728526
0.00751627
0.00779155
0.00829127
0.00945138
0.0119649
0.018719
0.0340603
0.0672798
0.124355
0.00451852
0.00442415
0.00454946
0.00483707
0.00496984
0.00514017
0.00527675
0.00542724
0.00558303
0.00574524
0.00599434
0.00641069
0.0069467
0.00739758
0.00766011
0.00806327
0.00886142
0.0102814
0.0143732
0.0241264
0.0500166
0.105497
0.183718
0.00455471
0.00449807
0.00463606
0.00491478
0.00504364
0.00520797
0.00533341
0.00547425
0.00562726
0.00578252
0.00603221
0.00646234
0.00699946
0.00746186
0.00776929
0.00825348
0.00928073
0.0121103
0.0181223
0.0351954
0.0754028
0.149125
0.238407
0.00460348
0.00458656
0.00472226
0.00499364
0.0051175
0.00527131
0.0053887
0.00552118
0.00566974
0.00582081
0.00607972
0.0065365
0.00709496
0.00760592
0.00798949
0.00870169
0.0104887
0.0143873
0.0254729
0.0507633
0.104656
0.193769
0.291898
0.00465387
0.00467114
0.00480858
0.00506591
0.00518407
0.00532854
0.00543519
0.00555904
0.00570579
0.0058515
0.00611307
0.00658738
0.00714894
0.00767449
0.00809261
0.00901552
0.0115588
0.0191799
0.0342105
0.0662779
0.131273
0.228544
0.33259
0.00471082
0.00475394
0.00488997
0.00513221
0.00524513
0.00537925
0.00547742
0.00559394
0.00573731
0.00588083
0.00615079
0.00665303
0.00723179
0.00780448
0.00838377
0.0098902
0.0140349
0.0238583
0.0433367
0.0824666
0.15853
0.26794
0.36909
0.00476766
0.00483391
0.00496679
0.00519281
0.00529951
0.00542378
0.0055127
0.00562233
0.00576482
0.00590478
0.00617798
0.00669993
0.0072849
0.00790594
0.00859977
0.0104652
0.0160026
0.0296062
0.0530263
0.0977523
0.182255
0.290824
0.388267
0.00482727
0.00490727
0.00503865
0.00524672
0.00534806
0.00546282
0.00554353
0.00564793
0.00578853
0.00592809
0.00620874
0.00675796
0.00735552
0.00805135
0.00893729
0.0116828
0.0197023
0.0367379
0.0625716
0.112541
0.203737
0.313009
0.410683
0.00488573
0.00497652
0.00510348
0.00529493
0.00539037
0.00549683
0.00556982
0.00566924
0.00580933
0.0059472
0.00623182
0.00680348
0.00740768
0.00815517
0.00923756
0.012744
0.0224962
0.0413871
0.0719784
0.125323
0.221549
0.326657
0.41996
0.00494402
0.00503833
0.00516345
0.00533785
0.00542803
0.00552643
0.0055924
0.00568838
0.00582744
0.00596591
0.00625685
0.00685406
0.00746749
0.00830065
0.00969127
0.0143098
0.0263923
0.0480467
0.0763188
0.132691
0.232568
0.334424
0.431738
0.00499661
0.00509227
0.0052125
0.00537238
0.00545755
0.00555047
0.00561057
0.00570339
0.00584175
0.00598008
0.00627496
0.00689304
0.0075116
0.00840975
0.0100435
0.0154999
0.0288672
0.0512174
0.0785703
0.13319
0.232173
0.321694
0.427334
0.00504516
0.00513725
0.00525577
0.00540296
0.00548384
0.0055711
0.00562654
0.00571679
0.00585394
0.00599289
0.0062917
0.00693068
0.0075535
0.00852494
0.0103959
0.0165661
0.0307914
0.0535577
0.0785993
0.131478
0.22522
0.300867
0.41367
0.00509145
0.00518133
0.00529476
0.00543006
0.00550699
0.0055911
0.00564181
0.00572932
0.00586526
0.00600499
0.00630773
0.00696711
0.00759356
0.00863042
0.010745
0.017564
0.0327466
0.0541564
0.0781034
0.124504
0.209936
0.275717
0.392239
0.00513595
0.00521913
0.00533027
0.0054558
0.00552889
0.00560858
0.00565616
0.00574117
0.00587513
0.00601546
0.00632241
0.00700232
0.00763135
0.00874178
0.0110977
0.0183957
0.0341646
0.0544095
0.0756468
0.115014
0.190204
0.247545
0.36362
0.00517887
0.00525772
0.00536351
0.00547906
0.0055491
0.00562664
0.00567005
0.00575212
0.00588415
0.0060259
0.00633641
0.00703586
0.00766663
0.00884269
0.0113491
0.0191806
0.0346809
0.0544837
0.072348
0.104804
0.16843
0.218225
0.327276
0.00521917
0.00529121
0.00539333
0.00550191
0.00556846
0.00564259
0.00568406
0.00576342
0.00589244
0.00603428
0.00634955
0.00706751
0.00769989
0.00892833
0.011673
0.0197603
0.0349408
0.0548076
0.0687468
0.0946444
0.146385
0.189194
0.285997
0.00525809
0.00532512
0.00542255
0.00552298
0.0055879
0.00565941
0.00569685
0.00577368
0.00589964
0.00604304
0.00636125
0.00709712
0.00772995
0.00901232
0.011863
0.0198187
0.035153
0.054701
0.0652509
0.0853529
0.125656
0.16148
0.242906
0.00529551
0.00535681
0.00544899
0.00554469
0.00560577
0.00567452
0.00571125
0.00578441
0.00590687
0.00604992
0.006373
0.00712439
0.00775484
0.00908898
0.0120071
0.0199803
0.0350979
0.0540044
0.0617239
0.0772772
0.107365
0.136342
0.201398
0.00533066
0.00538666
0.00547575
0.00556457
0.00562559
0.00569081
0.00572322
0.00579504
0.00591265
0.00605648
0.00638306
0.0071495
0.00777772
0.00911952
0.0120112
0.0199601
0.0352063
0.0523859
0.0584398
0.0701226
0.0918368
0.114328
0.163804
0.00536426
0.00541747
0.00550045
0.00558573
0.00564297
0.0057047
0.00573771
0.00580518
0.00591915
0.00606214
0.00639291
0.00717179
0.00779872
0.00912126
0.0120184
0.0198737
0.0351638
0.0501398
0.054999
0.0641155
0.0789005
0.0954587
0.13144
0.00539903
0.00544436
0.00552556
0.00560534
0.00566198
0.0057211
0.00575006
0.00581589
0.00592405
0.00606775
0.00640188
0.00719012
0.00780751
0.00912063
0.0119636
0.0193992
0.03463
0.0474584
0.051544
0.0587467
0.0683804
0.0800062
0.105015
0.00542658
0.00547426
0.00555078
0.005626
0.00568074
0.00573395
0.00576373
0.00582667
0.00592946
0.00606809
0.00641001
0.00720641
0.00780807
0.00907933
0.0117578
0.0186786
0.033428
0.0442797
0.0478353
0.053677
0.0596361
0.0673866
0.0841165
0.00546182
0.00549933
0.00557336
0.00564542
0.00569745
0.00574956
0.00577676
0.00583599
0.00593476
0.00607069
0.00641789
0.00722085
0.00780603
0.00898924
0.0114471
0.0177938
0.0318934
0.0408474
0.0439663
0.049112
0.052391
0.0571931
0.0683208
0.00548625
0.00552733
0.00560002
0.0056653
0.00571668
0.00576303
0.00579067
0.00584791
0.00593859
0.00606979
0.00642417
0.00722676
0.0077907
0.00886883
0.0110919
0.0168094
0.0300567
0.0371672
0.0399556
0.044566
0.0462081
0.0490178
0.056473
0.0055172
0.00555332
0.0056223
0.0056859
0.00573359
0.0057764
0.00580216
0.00585667
0.00594329
0.00607074
0.00642996
0.00722694
0.00776022
0.00873166
0.0106859
0.0157698
0.0280324
0.0334643
0.0359116
0.0401074
0.0407568
0.0422581
0.0481507
0.00554281
0.00557645
0.00564546
0.00570222
0.0057493
0.00579128
0.00581782
0.00586684
0.00594875
0.00607218
0.00643623
0.00722472
0.00772249
0.00857766
0.0102819
0.0147393
0.0258825
0.0298436
0.0319765
0.035928
0.035943
0.0369003
0.0420624
0.00556754
0.00560427
0.00567106
0.00572472
0.00576802
0.00580237
0.00582751
0.00587787
0.00594809
0.00607096
0.00643729
0.00721206
0.00767689
0.00842261
0.00987211
0.0137237
0.023719
0.0264678
0.0283118
0.0319157
0.0317677
0.0323825
0.0376553
0.00559095
0.00562592
0.00569057
0.00574017
0.00578143
0.00581615
0.00584058
0.00588456
0.00594811
0.00607034
0.00643911
0.00719073
0.00762565
0.00826706
0.00949469
0.01279
0.0215886
0.0234092
0.0249842
0.0281082
0.0281788
0.0289884
0.0343883
0.00561592
0.00564538
0.00571019
0.00575559
0.00579639
0.00582758
0.00585248
0.00589493
0.00594817
0.00607106
0.00644081
0.00716398
0.00757201
0.00812006
0.00913949
0.0119391
0.0195712
0.0207552
0.0220979
0.0247706
0.025218
0.0262906
0.0317831
0.00561876
0.00567226
0.00573178
0.00577732
0.00581314
0.00583543
0.00585923
0.00590258
0.00594977
0.00607055
0.00643991
0.00713256
0.00751427
0.00798342
0.0088337
0.0111939
0.0177275
0.0185226
0.0197098
0.0219709
0.0228187
0.0243961
0.0301556
0.00562268
0.00568179
0.00574495
0.00578083
0.00581451
0.00584045
0.00586526
0.00590714
0.00595107
0.00607018
0.00644023
0.00709852
0.00745989
0.00786405
0.00857532
0.0105624
0.0160875
0.0166979
0.0178136
0.0197985
0.0210821
0.0230478
0.0286544
0.00563188
0.00568632
0.00575377
0.00578301
0.00581653
0.00584363
0.00586469
0.00591141
0.00594858
0.00607014
0.00643955
0.00706281
0.00740475
0.00776362
0.00835886
0.01005
0.0146824
0.0152473
0.0164244
0.018174
0.019748
0.0219747
0.0279345
0.0056372
0.00569213
0.00575087
0.00578405
0.00582006
0.0058405
0.00586503
0.00590989
0.00594914
0.00607114
0.00643808
0.00702729
0.00735522
0.00767841
0.00819
0.00964808
0.01352
0.0141464
0.0154303
0.0170276
0.0188245
0.0215023
0.027255
0.00563539
0.00569076
0.00575389
0.00578882
0.00582485
0.0058399
0.00586613
0.00591276
0.00595158
0.00606974
0.00643467
0.00699312
0.0073103
0.00761152
0.0080762
0.00934901
0.0126073
0.0133561
0.0147953
0.0163077
0.0182702
0.0214577
0.0271425
0.0056336
0.00569142
0.00574919
0.00579485
0.0058247
0.00583953
0.00586846
0.00590981
0.00595404
0.00606925
0.00643065
0.0069614
0.007273
0.00757012
0.00800274
0.00914313
0.0119058
0.0127845
0.0143618
0.015809
0.0178538
0.021807
0.0283681
0.00563613
0.00569121
0.00574968
0.00579609
0.00582465
0.00584057
0.00586922
0.00591021
0.00595135
0.00606812
0.00642596
0.00693295
0.00724226
0.00753813
0.00796167
0.00900906
0.0114113
0.0124484
0.0141158
0.0155283
0.0176456
0.0225151
0.0290191
0.00563521
0.00569449
0.00575315
0.0057936
0.00582829
0.00584082
0.00586978
0.00590954
0.00595149
0.00606775
0.00642125
0.00690815
0.00721646
0.00751878
0.00793719
0.00892002
0.0110366
0.012218
0.013973
0.0153552
0.017634
0.022634
0.029302
0.00563915
0.00569369
0.00574781
0.00579321
0.00582752
0.00584294
0.00586552
0.00590929
0.00594991
0.00606679
0.00641661
0.00688687
0.00720295
0.00750889
0.0079253
0.00888064
0.010812
0.0121175
0.0138299
0.0152692
0.0176036
0.0228502
0.0293287
0.00563953
0.00569209
0.00574738
0.00579316
0.00583129
0.00584561
0.00586525
0.00591017
0.00594791
0.00606641
0.00641193
0.00686935
0.00719337
0.00750333
0.00791736
0.00884218
0.0106325
0.0120172
0.0137742
0.0151305
0.0176103
0.0233741
0.0294091
0.00563373
0.0056926
0.00574669
0.00578685
0.00582613
0.00584352
0.0058667
0.0059108
0.00594689
0.00606769
0.00640797
0.00685461
0.0071877
0.00749902
0.00791193
0.0088298
0.0105433
0.0120036
0.0136735
0.0150983
0.0179609
0.023995
0.0297551
0.00563633
0.00569098
0.00574688
0.00578523
0.00582603
0.00584695
0.00586205
0.00590603
0.00594587
0.00606694
0.0064037
0.00684279
0.00718345
0.00749734
0.00790775
0.00882102
0.010471
0.0120802
0.0137034
0.0152117
0.0187123
0.0237758
0.030417
0.00562689
0.00569034
0.00574985
0.00578813
0.00582431
0.00584607
0.00586131
0.00590495
0.00594506
0.00606586
0.00640046
0.00683305
0.00718066
0.00749278
0.00790213
0.00885348
0.0103932
0.0121983
0.0138449
0.0155189
0.0192471
0.0239301
0.0303912
0.00562622
0.00569116
0.00574295
0.0057817
0.00582328
0.00584638
0.00586202
0.00590492
0.00594436
0.00606373
0.00639668
0.00682509
0.00717814
0.00749003
0.00790118
0.00896962
0.0104249
0.0123601
0.0139987
0.0157232
0.01992
0.0240002
0.0310222
0.00563163
0.00569123
0.00574249
0.00578041
0.00582514
0.00584342
0.00585648
0.00590097
0.0059442
0.00606197
0.00639402
0.00681853
0.00717431
0.00748897
0.00789029
0.00908141
0.0104536
0.0124972
0.0142049
0.0162404
0.0205228
0.0246552
0.0305462
0.00562934
0.00568589
0.0057436
0.00577837
0.00582619
0.00584238
0.00585547
0.00589975
0.00594522
0.00605935
0.00639044
0.0068132
0.00717366
0.00748706
0.00788938
0.0094254
0.0106606
0.0126945
0.0144675
0.016681
0.0213305
0.024537
0.0307927
0.00562878
0.00568715
0.00574258
0.00577702
0.0058185
0.00583631
0.00585455
0.0058936
0.00594538
0.00605731
0.00638828
0.00680866
0.00717452
0.00748625
0.00788622
0.00957705
0.0108783
0.0128519
0.0146033
0.0171524
0.0215033
0.0245807
0.030689
0.00561605
0.00568468
0.00574378
0.00577778
0.00581653
0.00583561
0.00585379
0.00589229
0.00594321
0.00605389
0.00638467
0.00680439
0.00717451
0.00748934
0.0078871
0.0101456
0.0111763
0.013119
0.0146531
0.0178372
0.0217432
0.0249717
0.031625
0.00561295
0.00568247
0.00573586
0.00577041
0.0058164
0.00583311
0.00585482
0.00589189
0.00594013
0.00605257
0.00638264
0.00680237
0.00717395
0.00748432
0.0078899
0.0103845
0.0115964
0.0131621
0.014897
0.0179266
0.0223177
0.0249335
0.0309937
0.00561322
0.0056748
0.0057346
0.00577394
0.00580775
0.0058315
0.00585011
0.00589213
0.00593323
0.0060471
0.00637832
0.00679686
0.00717035
0.00748053
0.00790633
0.0110287
0.0119602
0.0135169
0.0148836
0.018068
0.0227625
0.0250684
0.0306387
0.00559897
0.00567138
0.0057256
0.00576478
0.00580599
0.00583409
0.00584877
0.00588524
0.00593196
0.0060504
0.00638233
0.00680131
0.00717824
0.00748901
0.00796494
0.0112151
0.012362
0.0134896
0.0148939
0.0187348
0.0225582
0.0253675
0.0312017
0.00560747
0.0056579
0.00572302
0.00577102
0.00580785
0.00583346
0.0058394
0.0058836
0.00593175
0.00604576
0.00636744
0.0067878
0.00716754
0.00747118
0.00795145
0.011312
0.0130394
0.0137784
0.0150482
0.018565
0.0224819
0.0248731
0.029844
0.00559558
0.00565444
0.00570903
0.00576067
0.00580741
0.0058275
0.00583698
0.00588501
0.00592763
0.00603902
0.00635011
0.00677074
0.00715191
0.0074477
0.00793268
0.0109726
0.0129409
0.0142121
0.0154165
0.0179555
0.0226335
0.0247413
0.0291624
0.00560086
0.00565568
0.00570458
0.00576428
0.00580253
0.00582128
0.00583928
0.00588448
0.00592226
0.0060297
0.00633024
0.00675125
0.00713755
0.0074236
0.00790617
0.0109225
0.0129242
0.0143067
0.0159309
0.0181734
0.0219724
0.0248597
0.0286377
0.00559737
0.00565568
0.00570556
0.00576026
0.0057922
0.00581423
0.00583846
0.00587746
0.00590952
0.00601922
0.00630831
0.00672987
0.00711782
0.0073968
0.00784119
0.0109789
0.0129608
0.0147017
0.0158614
0.0187068
0.0216682
0.0241835
0.0272506
0.00558369
0.0056478
0.00570487
0.00574929
0.00578358
0.00579906
0.00583184
0.00586765
0.00589112
0.0060068
0.0062826
0.00670387
0.00709733
0.00737128
0.00774632
0.0107873
0.013095
0.0145423
0.0157938
0.0192153
0.0220331
0.0240918
0.0274965
0.00556772
0.00563376
0.00569841
0.00572854
0.00577094
0.00577598
0.00581721
0.00585907
0.00588408
0.00599432
0.006255
0.00667451
0.00707447
0.00734207
0.00770898
0.0104872
0.0130141
0.0146953
0.0163014
0.0199962
0.0218997
0.0237018
0.026789
0.00554293
0.00561799
0.00567804
0.00569906
0.0057479
0.00576792
0.00580664
0.00584519
0.0058837
0.00597901
0.0062233
0.00663868
0.00704153
0.00730457
0.00771301
0.010031
0.0128102
0.0146726
0.0161013
0.0211469
0.0229343
0.023834
0.0262762
0.00552996
0.00560293
0.00565998
0.0056884
0.00571541
0.00577082
0.00579653
0.00582913
0.00587376
0.00596256
0.00619028
0.0065956
0.00701148
0.00726585
0.00766677
0.00964427
0.0125986
0.014522
0.0158825
0.0216636
0.0244004
0.0254568
0.0265639
0.00550253
0.00558193
0.00563887
0.00569145
0.00570378
0.00576178
0.00578072
0.00580887
0.00585563
0.00594073
0.00615179
0.00654644
0.0069631
0.00721799
0.00760063
0.00929732
0.0122465
0.014219
0.0157452
0.0229754
0.0259657
0.0272479
0.029464
0.00548222
0.00555617
0.00561728
0.00568182
0.00570645
0.00574305
0.00576113
0.00578659
0.00583495
0.00591721
0.00611143
0.00648663
0.00691762
0.00716865
0.00751957
0.00887163
0.0117794
0.0139118
0.0153858
0.0239943
0.0276879
0.0277507
0.0313807
0.00546605
0.00553298
0.00559375
0.00565873
0.00568882
0.00571327
0.00573518
0.00576255
0.00580903
0.00588637
0.00606365
0.00641842
0.00685271
0.00710974
0.00743188
0.00846421
0.0111503
0.0131214
0.0150468
0.0228591
0.0295398
0.0302808
0.033067
0.00543487
0.00550554
0.0055506
0.00563026
0.00566331
0.00568373
0.00570743
0.00573866
0.00578197
0.00585381
0.00601411
0.00634137
0.00678148
0.00704891
0.00734364
0.00812232
0.0102394
0.0124865
0.0152706
0.0230389
0.0289147
0.0321942
0.0379335
0.00538961
0.00546809
0.00550313
0.00559229
0.00562727
0.00564395
0.00566945
0.00570562
0.00574599
0.00581242
0.00595576
0.00625198
0.00669618
0.00697018
0.00724443
0.00784967
0.00939322
0.0118913
0.0145855
0.0226727
0.0332299
0.0355373
0.0418998
0.00534426
0.00542556
0.00547345
0.00555102
0.00558777
0.0056019
0.00562921
0.00566932
0.00570783
0.00576946
0.00589639
0.00615796
0.00659693
0.00688916
0.0071479
0.00763017
0.00873419
0.0113056
0.0130699
0.0212984
0.0312566
0.0406054
0.0468312
0.00528767
0.00537339
0.00543327
0.00549826
0.00553678
0.00555179
0.00558046
0.00562073
0.00565743
0.00571451
0.00582554
0.00605203
0.00647192
0.00678681
0.00703288
0.00744169
0.00826618
0.0102504
0.012841
0.0188363
0.0300328
0.0414874
0.0493459
0.0052256
0.00531786
0.005382
0.00544214
0.00548208
0.00550215
0.00553193
0.00556992
0.00560516
0.00565789
0.00575449
0.00594681
0.00633343
0.0066691
0.00691936
0.00727495
0.00791714
0.00934851
0.012478
0.0182315
0.0337283
0.0423943
0.0489478
0.00515368
0.00524702
0.00531384
0.00537148
0.0054122
0.00543923
0.00546921
0.00550355
0.00553682
0.00558509
0.00566836
0.00582751
0.00616888
0.00652466
0.00677414
0.00710114
0.0076278
0.00867658
0.0111928
0.0184577
0.0314895
0.0455105
0.0579592
0.00508361
0.0051726
0.00524128
0.00529809
0.00533884
0.00537348
0.0054045
0.0054356
0.00546748
0.00551138
0.00558346
0.00571367
0.00598183
0.00638159
0.0066423
0.00693179
0.00737655
0.0081804
0.0100781
0.016324
0.030462
0.044798
0.0642478
0.00499932
0.00507961
0.00515063
0.00520636
0.00524614
0.00528639
0.00531798
0.00534629
0.00537637
0.00541588
0.00547754
0.0055829
0.00578586
0.00616236
0.00645642
0.00677938
0.00713732
0.00774652
0.00911443
0.0140755
0.0275342
0.0459666
0.071636
0.00491342
0.00498486
0.00505888
0.005114
0.00515223
0.00519683
0.00522975
0.00525672
0.00528582
0.0053219
0.00537454
0.00546059
0.00561463
0.00593421
0.00624957
0.00659259
0.00695352
0.00743381
0.00839357
0.0119066
0.0238665
0.042844
0.0678522
0.00480463
0.00486722
0.00494454
0.00499809
0.00503357
0.00507922
0.00511232
0.00513792
0.00516543
0.0051982
0.00524213
0.00531135
0.00542843
0.00566092
0.00600239
0.00630107
0.00677152
0.00713561
0.00779496
0.0100315
0.0206239
0.0416776
0.0640403
0.00469563
0.00475315
0.00483234
0.00488528
0.00491833
0.00496397
0.00499737
0.00502301
0.00504948
0.00508008
0.00511824
0.0051742
0.0052656
0.00543141
0.00575031
0.00602547
0.00650789
0.00692242
0.00739316
0.00872253
0.0155254
0.0430644
0.063235
0.00455759
0.00461103
0.00468931
0.00474019
0.00476969
0.00481228
0.00484418
0.00486839
0.00489293
0.00492024
0.00495261
0.00499677
0.00506614
0.0051854
0.00544098
0.00571431
0.00612395
0.00668477
0.00702331
0.00777801
0.0118234
0.0323984
0.0658018
0.00442665
0.00448056
0.00455482
0.00460516
0.00463262
0.00467216
0.00470277
0.00472695
0.00475033
0.00477554