/*--------------------------------*- C++ -*----------------------------------*\
  =========                 |
  \\      /  F ield         | OpenFOAM: The Open Source CFD Toolbox
   \\    /   O peration     | Website:  https://openfoam.org
    \\  /    A nd           | Version:  7
     \\/     M anipulation  |
\*---------------------------------------------------------------------------*/
FoamFile
{
    version     2.0;
    format      ascii;
    class       volScalarField;
    location    "73";
    object      nut;
}
// * * * * * * * * * * * * * * * * * * * * * * * * * * * * * * * * * * * * * //

dimensions      [0 2 -1 0 0 0 0];

internalField   nonuniform List<scalar> 
12842
(
0.00180824
0.00179789
0.00178465
0.00177622
0.0017675
0.00176574
0.00175976
0.00176378
0.00175814
0.00176379
0.00175981
0.00176676
0.00177202
0.00141525
0.000676833
0.000375796
0.000239269
0.000169131
0.000127726
0.000100613
8.22771e-05
6.98532e-05
6.01481e-05
0.00180909
0.00178979
0.0017909
0.00177969
0.00176923
0.00176575
0.00175926
0.00176276
0.00175752
0.00176317
0.00175961
0.0017669
0.00177215
0.0013833
0.000661837
0.000367346
0.000234864
0.000165973
0.00012562
9.93697e-05
8.14162e-05
6.94366e-05
5.96514e-05
0.00181106
0.00178492
0.00177756
0.00177744
0.00177042
0.00176479
0.00175841
0.00176054
0.00175635
0.00176189
0.00175941
0.00176663
0.0017728
0.00133044
0.000640185
0.00035642
0.000228537
0.000162117
0.000123142
9.76426e-05
8.02783e-05
6.88464e-05
5.90098e-05
0.001809
0.00179259
0.00177845
0.00177628
0.00177043
0.00176448
0.00175829
0.00175974
0.00175589
0.00176113
0.00175916
0.00176638
0.00177284
0.00127176
0.000615184
0.000344469
0.000221911
0.000158076
0.000120347
9.5699e-05
7.89203e-05
6.80351e-05
5.82112e-05
0.00180606
0.00178492
0.00177861
0.00177231
0.00176943
0.00176322
0.00175786
0.0017581
0.00175512
0.00175956
0.00175894
0.0017661
0.00177414
0.00122118
0.000592921
0.000333963
0.000216004
0.00015426
0.000117728
9.38842e-05
7.75353e-05
6.71983e-05
5.73734e-05
0.00180599
0.00178662
0.00177544
0.00177464
0.00176944
0.00176289
0.00175767
0.00175729
0.00175471
0.00175863
0.00175879
0.00176588
0.00177461
0.00118524
0.000576949
0.000326158
0.000211675
0.000151404
0.000115701
9.24441e-05
7.6394e-05
6.64761e-05
5.66743e-05
0.00180393
0.00178136
0.00177621
0.00176926
0.00176879
0.00176169
0.00175701
0.00175552
0.0017539
0.00175665
0.00175869
0.00176565
0.00177695
0.0011604
0.000565497
0.000319882
0.00020772
0.000148677
0.000113673
9.09929e-05
7.52628e-05
6.57862e-05
5.60927e-05
0.00180298
0.00178094
0.00177158
0.00177311
0.00176931
0.00176285
0.00175713
0.00175478
0.00175352
0.0017555
0.00175839
0.00176495
0.00177742
0.00116996
0.000569733
0.000321663
0.000208546
0.000149129
0.000113443
9.07319e-05
7.48874e-05
6.54897e-05
5.58684e-05
0.00180191
0.00177925
0.00177096
0.00176785
0.00176943
0.00176117
0.00175616
0.00175263
0.00175252
0.0017541
0.00175795
0.0017644
0.00177694
0.00117689
0.000572416
0.000322335
0.000208368
0.00014895
0.000113272
9.05868e-05
7.47278e-05
6.53799e-05
5.57814e-05
0.00180012
0.0017777
0.00176681
0.00176898
0.00176944
0.00176422
0.00175723
0.00175234
0.00175236
0.00175339
0.00175757
0.00176489
0.00177708
0.00114859
0.00055874
0.000315102
0.000204227
0.000146385
0.000111422
8.95885e-05
7.40335e-05
6.49774e-05
5.54797e-05
0.00179829
0.00177825
0.00176513
0.00176513
0.00177045
0.00176252
0.00175596
0.00175054
0.00175132
0.00175271
0.0017573
0.00176579
0.00177835
0.00113174
0.000551757
0.000311857
0.000202358
0.00014559
0.000111116
8.94713e-05
7.40974e-05
6.50875e-05
5.55751e-05
0.00179731
0.00177606
0.00176176
0.0017649
0.00176879
0.00176589
0.0017576
0.00175098
0.00175151
0.00175263
0.00175716
0.00176611
0.00177849
0.00111805
0.00054611
0.000309665
0.000201623
0.000145254
0.000110858
8.9597e-05
7.43063e-05
6.5465e-05
5.60428e-05
0.00179468
0.00177776
0.00175984
0.00176193
0.00176958
0.00176467
0.00175626
0.00174955
0.00175059
0.00175227
0.00175712
0.00176716
0.00177962
0.00110331
0.000540273
0.000307142
0.000200388
0.0001449
0.000110895
8.98338e-05
7.46372e-05
6.58196e-05
5.65377e-05
0.00179402
0.00177488
0.00175758
0.0017613
0.00176743
0.00176666
0.00175776
0.00175065
0.00175104
0.00175253
0.00175712
0.00176674
0.00178112
0.00108961
0.000534366
0.000305128
0.000199964
0.000144946
0.000111039
9.02871e-05
7.53143e-05
6.65694e-05
5.74119e-05
0.00179175
0.00177657
0.00175613
0.0017595
0.00176683
0.00176613
0.00175642
0.00174952
0.00175021
0.00175215
0.00175721
0.00176859
0.00178218
0.00107567
0.000529016
0.000303064
0.000199573
0.000145163
0.000111594
9.104e-05
7.6059e-05
6.7363e-05
5.84087e-05
0.0017909
0.00177345
0.00175507
0.00175826
0.00176545
0.00176657
0.00175688
0.00175098
0.00175095
0.00175245
0.00175727
0.00176904
0.00178444
0.00106312
0.000524861
0.00030217
0.000199735
0.000146069
0.000112586
9.2238e-05
7.74376e-05
6.86304e-05
5.98648e-05
0.00178925
0.00177416
0.00175454
0.00175773
0.00176394
0.00176583
0.0017561
0.0017503
0.00175028
0.00175197
0.00175755
0.00177042
0.00178647
0.00105159
0.000521207
0.000301163
0.00020058
0.000147182
0.000113909
9.36829e-05
7.88824e-05
7.00758e-05
6.14962e-05
0.00178841
0.00177149
0.00175402
0.00175627
0.001763
0.00176577
0.00175548
0.00175166
0.00175104
0.00175259
0.0017578
0.00177175
0.00179273
0.00104209
0.000519136
0.00030197
0.00020192
0.000149298
0.000115921
9.58159e-05
8.10845e-05
7.20642e-05
6.36879e-05
0.00178718
0.00177085
0.00175434
0.00175587
0.00176207
0.00176439
0.00175519
0.00175163
0.00175091
0.00175217
0.00175835
0.00177403
0.00179672
0.00103687
0.000516913
0.000302337
0.000204238
0.00015156
0.0001184
9.83066e-05
8.36464e-05
7.44853e-05
6.63052e-05
0.00178655
0.0017689
0.00175381
0.00175502
0.00176126
0.00176368
0.00175472
0.00175215
0.00175128
0.00175309
0.00175988
0.00178017
0.0018121
0.00102629
0.000521413
0.000305448
0.000207417
0.000155206
0.000121668
0.00010163
8.71721e-05
7.75869e-05
6.96273e-05
0.00178575
0.00176747
0.00175432
0.00175425
0.00176078
0.00176268
0.00175405
0.00175301
0.00175114
0.00175278
0.00176091
0.00178796
0.00182648
0.00102617
0.000522044
0.000308006
0.000211636
0.000159076
0.000125809
0.000105561
9.12594e-05
8.14204e-05
7.35738e-05
0.00178529
0.00176571
0.00175354
0.00175374
0.00176025
0.0017612
0.00175415
0.00175236
0.00175207
0.00175385
0.0017663
0.00180588
0.00185251
0.00101851
0.000525419
0.00031374
0.000217026
0.00016423
0.000130568
0.000110365
9.63936e-05
8.63371e-05
7.86203e-05
0.00178485
0.00176421
0.00175364
0.00175272
0.0017603
0.00176005
0.00175378
0.0017528
0.00175126
0.00175666
0.00177437
0.00182612
0.00188141
0.00102802
0.000529254
0.000319702
0.000223535
0.000170271
0.000136732
0.00011641
0.000102429
9.22988e-05
8.46923e-05
0.00178518
0.00176245
0.00175267
0.00175225
0.00175921
0.00175897
0.00175335
0.0017529
0.00175074
0.00176159
0.00179247
0.00185508
0.00191624
0.00103095
0.000538585
0.000328864
0.000231728
0.000177269
0.000143587
0.000123194
0.000109563
9.96176e-05
9.25817e-05
0.00178454
0.0017608
0.00175274
0.00175175
0.0017593
0.00175765
0.00175278
0.00175157
0.00175226
0.00177065
0.00181675
0.00188713
0.0019579
0.00102281
0.000538288
0.000334356
0.000239016
0.000185626
0.000152192
0.000132376
0.000118694
0.000108968
0.000101984
0.00178511
0.00175955
0.00175162
0.00175085
0.00175878
0.00175599
0.00175285
0.0017503
0.00175814
0.00178853
0.00184489
0.0019209
0.00199883
0.0010242
0.000543882
0.000345349
0.00024952
0.00019485
0.000161922
0.00014185
0.000128488
0.000118886
0.000113064
0.00178482
0.00175783
0.0017511
0.00175034
0.00175809
0.0017552
0.00175156
0.00175288
0.00177168
0.00181339
0.00187835
0.00196214
0.00205019
0.00103274
0.000555544
0.000355499
0.000259105
0.00020595
0.000172727
0.000153456
0.000140036
0.000131738
0.000126421
0.00178527
0.00175625
0.00175081
0.00174954
0.00175673
0.00175419
0.00175024
0.00176351
0.00179157
0.00184352
0.00191523
0.00200392
0.00210023
0.001044
0.000568166
0.000369855
0.000272685
0.000217375
0.000185211
0.000165939
0.000153445
0.000144921
0.000141046
0.00178505
0.00175411
0.00174934
0.00174823
0.00175686
0.00175224
0.00175234
0.00178244
0.00181719
0.00187947
0.00195703
0.00205398
0.00215975
0.00106256
0.000587544
0.000385727
0.000284484
0.000231197
0.000198822
0.000180032
0.000167235
0.000160791
0.000157529
0.00178543
0.00175236
0.00174927
0.00174706
0.00175526
0.00175193
0.00176359
0.00180678
0.00184872
0.00191902
0.00200132
0.00210307
0.00221452
0.00108444
0.000612224
0.000402494
0.00030147
0.000244102
0.000212386
0.000194536
0.000183312
0.000176595
0.000174491
0.00178507
0.00174989
0.00174838
0.00174729
0.00175359
0.00175719
0.00178197
0.00183675
0.00188473
0.00196288
0.00204962
0.00215846
0.0022765
0.00112402
0.000640467
0.000426994
0.000316709
0.000260923
0.000228854
0.000210365
0.000198998
0.000194202
0.000192445
0.00178531
0.00174717
0.00174687
0.00174527
0.00175511
0.00177049
0.00180831
0.00187109
0.0019255
0.00200897
0.00209863
0.00220925
0.00232148
0.00117412
0.000678656
0.000446618
0.000336538
0.000275701
0.000243463
0.000226716
0.000216792
0.000211686
0.000209441
0.00178497
0.00174526
0.00174588
0.00174453
0.00176437
0.00179202
0.0018378
0.00191004
0.00196899
0.00205684
0.00214972
0.00226013
0.00236265
0.00123854
0.000715462
0.000478263
0.000356373
0.000294663
0.000261097
0.000242604
0.00023294
0.000228238
0.000226822
0.00178422
0.0017422
0.00174522
0.00174895
0.00178134
0.00181786
0.00187395
0.00195151
0.00201472
0.0021047
0.00219383
0.00229252
0.00237659
0.00131783
0.000766092
0.000502772
0.000377274
0.000311308
0.000277517
0.000261196
0.000251488
0.000245902
0.000241721
0.00178478
0.00173949
0.0017432
0.00176097
0.00180336
0.0018496
0.00191265
0.00199617
0.00206084
0.00214897
0.00223106
0.00231787
0.0023908
0.00140042
0.000812448
0.000539677
0.000402859
0.000332823
0.000296419
0.000276267
0.000266318
0.000259513
0.000255962
0.00178261
0.00173617
0.00174137
0.00178226
0.00183076
0.00188483
0.00195555
0.00204088
0.00210553
0.00218446
0.00225466
0.00232568
0.00237693
0.00150942
0.00087529
0.000571169
0.00042475
0.000350219
0.000312381
0.000295049
0.00028442
0.000275353
0.000269957
0.00178339
0.00173531
0.00174445
0.00180782
0.00186155
0.00192372
0.00199947
0.00208553
0.00214352
0.00221079
0.00226953
0.00232441
0.00237059
0.00160716
0.000929563
0.000611499
0.000454379
0.000374294
0.000333339
0.000310759
0.000299599
0.000289247
0.000283906
0.00178056
0.00173155
0.0017561
0.00183809
0.00189632
0.00196621
0.00204391
0.00212551
0.00217204
0.00222634
0.00227057
0.00231043
0.00233816
0.00174444
0.0010075
0.000653269
0.000481747
0.000394316
0.000350157
0.000332171
0.000322082
0.000311325
0.000304888
0.00178138
0.00172996
0.00177208
0.00187351
0.00193483
0.00200827
0.00208515
0.00215692
0.00219086
0.00223132
0.00226343
0.002291
0.00232159
0.00185448
0.00106656
0.000692599
0.000510579
0.000418094
0.000374125
0.00035211
0.000343968
0.000335159
0.000333289
0.0017781
0.00173375
0.00179528
0.00191023
0.00197402
0.00204932
0.00211901
0.00217726
0.00219919
0.0022269
0.00224668
0.00226298
0.00228262
0.00201601
0.00115975
0.000750224
0.000550248
0.00044859
0.000394783
0.000385629
0.000387217
0.000388775
0.000402735
0.00177772
0.0017459
0.00181951
0.00195089
0.00201544
0.00208412
0.00214284
0.00218703
0.00219815
0.00221365
0.00222394
0.0022363
0.00226237
0.00213808
0.00122854
0.000792914
0.000579935
0.00047381
0.000432656
0.000423193
0.000441213
0.000494302
0.000661651
0.00177713
0.00176459
0.00185004
0.00199134
0.00205464
0.0021103
0.00215599
0.00218648
0.0021887
0.00219431
0.00219747
0.00220368
0.00222722
0.00219411
0.0013352
0.000861385
0.000633132
0.000521487
0.000471452
0.000502721
0.000612799
0.000863332
0.000925766
0.00177749
0.0017878
0.00188182
0.0020341
0.0020897
0.00212776
0.00215927
0.0021768
0.00217267
0.00216961
0.00216746
0.00217705
0.00220642
0.00218041
0.00141516
0.000916541
0.000675715
0.000566121
0.000571063
0.00066447
0.000832508
0.000766297
0.000748578
0.00177455
0.00181521
0.00191672
0.00207321
0.00211418
0.00213563
0.00215308
0.00216039
0.00215149
0.0021424
0.00213874
0.00214756
0.00217946
0.00214634
0.00154807
0.00101447
0.000757404
0.000654392
0.000677445
0.000882721
0.00071925
0.000679396
0.000774783
0.00177868
0.001845
0.00195185
0.0021087
0.00213133
0.00213584
0.00214017
0.00213858
0.0021272
0.00211314
0.00210821
0.00212455
0.00216164
0.00213119
0.00164597
0.00108624
0.000827336
0.000762016
0.00096884
0.000780472
0.000691223
0.000700681
0.000727839
0.00178881
0.00187883
0.00198543
0.00213623
0.00213703
0.00212829
0.0021215
0.0021143
0.00210088
0.00208437
0.00208217
0.00210181
0.00214138
0.00210751
0.0018157
0.00123334
0.00098344
0.000960217
0.000940891
0.000776408
0.000685546
0.000647234
0.000735546
0.00180338
0.00191198
0.00201827
0.00215377
0.00213696
0.00211635
0.00209985
0.00208802
0.00207431
0.00205573
0.00205537
0.00208445
0.00212949
0.00209679
0.00193725
0.00135122
0.00111401
0.00116474
0.000923423
0.000763398
0.000615119
0.000658142
0.000880393
0.00182332
0.00194934
0.0020428
0.00216482
0.00212811
0.00209983
0.00207694
0.002063
0.00204836
0.00202976
0.00203435
0.002069
0.00211426
0.00207538
0.00189985
0.0015753
0.00139215
0.00113214
0.000936997
0.000703883
0.00066094
0.000831438
0.00118603
0.00184353
0.00198483
0.00206679
0.0021663
0.00211678
0.00208192
0.00205287
0.00203722
0.00202328
0.00200443
0.00201301
0.00205759
0.00210692
0.00206628
0.00188587
0.00163974
0.00137154
0.00113917
0.000921494
0.000755198
0.000793951
0.00103382
0.00146579
0.00186889
0.00202337
0.00208149
0.00216285
0.00209934
0.00206094
0.00202974
0.00201369
0.00199928
0.00198162
0.00199607
0.00204835
0.00209597
0.00205432
0.00185447
0.00159861
0.00137617
0.00120542
0.00100761
0.000838535
0.000923334
0.0012607
0.00175591
0.00189406
0.00205787
0.00209286
0.00215104
0.00208065
0.00204022
0.00200705
0.00199112
0.00197758
0.00196096
0.00198032
0.00204138
0.00209128
0.00204418
0.0018308
0.00158593
0.00141724
0.0013659
0.00104588
0.000903258
0.00104032
0.00143381
0.00196738
0.00192088
0.0020841
0.00209567
0.00213509
0.00205993
0.00201897
0.00198711
0.00197163
0.00195818
0.00194363
0.00196863
0.00203775
0.00208342
0.00202744
0.00180762
0.00160945
0.00153029
0.00144242
0.00107424
0.000956672
0.00115527
0.00164542
0.00218563
0.0019461
0.00210242
0.00209524
0.00211534
0.00203963
0.00199916
0.00196842
0.00195348
0.00194105
0.00192846
0.00195788
0.00203446
0.00207985
0.00202217
0.00180122
0.00163109
0.00163138
0.0015169
0.00105989
0.00100126
0.00126276
0.00175243
0.00227527
0.00197075
0.00210921
0.00208898
0.00209274
0.00201855
0.00197957
0.00195131
0.00193737
0.00192594
0.00191616
0.0019504
0.00203419
0.00207324
0.00200707
0.00178613
0.00169343
0.00175495
0.00143775
0.00104296
0.00104301
0.00135335
0.00184311
0.0023787
0.00199343
0.00210897
0.00207932
0.00206909
0.00199828
0.00196179
0.00193566
0.00192249
0.00191295
0.00190563
0.0019436
0.00203399
0.00206876
0.00199771
0.0017908
0.00175094
0.00179403
0.00133389
0.00102061
0.00108182
0.00144387
0.00189705
0.00242267
0.0020111
0.0020986
0.00206523
0.00204401
0.00197764
0.00194415
0.00192055
0.00190887
0.00190163
0.00189712
0.00193887
0.00203517
0.00206242
0.00198483
0.00179632
0.00180723
0.00169516
0.00121377
0.000935479
0.00109441
0.00149527
0.0019383
0.00247641
0.00201828
0.00208289
0.00204863
0.00202055
0.0019594
0.00192935
0.00190796
0.00189748
0.00189305
0.00189057
0.00193502
0.00203616
0.00205714
0.00197269
0.0017954
0.00178866
0.00156552
0.00111545
0.000899088
0.00109242
0.00149294
0.00185467
0.00243088
0.00202027
0.00206329
0.00203085
0.0019988
0.00194278
0.0019155
0.00189641
0.00188756
0.00188563
0.001885
0.00193184
0.00203742
0.00205139
0.00196068
0.00177829
0.00174409
0.00142835
0.00103984
0.00086884
0.00107682
0.00145053
0.00174648
0.00235025
0.00201679
0.00204258
0.00201216
0.00197827
0.00192779
0.00190356
0.00188631
0.00187866
0.00187957
0.00188047
0.0019293
0.0020388
0.00204489
0.0019431
0.0017524
0.00165567
0.00133086
0.000956951
0.000845872
0.00102222
0.00135891
0.00160118
0.0022129
0.0020106
0.00202016
0.00199288
0.00195971
0.00191459
0.00189253
0.00187745
0.00187143
0.00187442
0.00187639
0.00192711
0.00204023
0.00203777
0.00192654
0.00171633
0.0015738
0.00124229
0.000906186
0.000819876
0.000941921
0.00124864
0.00143646
0.00206537
0.00200195
0.00199963
0.00197465
0.00194329
0.00190357
0.00188377
0.00186997
0.00186501
0.00187028
0.00187337
0.00192533
0.0020415
0.0020297
0.00190621
0.00167065
0.00148426
0.00114656
0.00087467
0.000782708
0.000865485
0.0011335
0.00127235
0.00185973
0.00199224
0.00197936
0.00195665
0.00192901
0.00189414
0.00187608
0.00186405
0.00186046
0.00186683
0.00187031
0.00192378
0.0020426
0.00202152
0.00188272
0.00162615
0.0013965
0.00107179
0.000867783
0.000741988
0.000801144
0.00102047
0.0011334
0.00162255
0.00198273
0.00196227
0.00194115
0.00191709
0.00188719
0.00187047
0.00185903
0.00185644
0.00186409
0.00186828
0.00192239
0.00204345
0.00201272
0.00185901
0.00156967
0.00128694
0.00101504
0.000862052
0.000700988
0.000747151
0.000919285
0.00101302
0.00139194
0.0019735
0.00194712
0.00192667
0.00190717
0.00188095
0.0018659
0.00185581
0.00185398
0.0018618
0.00186615
0.00192124
0.00204414
0.00200322
0.00183208
0.00150011
0.00118811
0.000951409
0.000843719
0.000671442
0.000707059
0.000829758
0.000908956
0.00120058
0.00196567
0.0019345
0.00191537
0.00189915
0.00187741
0.00186302
0.0018529
0.00185208
0.00186002
0.00186443
0.0019202
0.00204467
0.00199364
0.00179394
0.00140781
0.00110016
0.000918321
0.000811555
0.000652833
0.000672582
0.000756055
0.000818237
0.00103576
0.00195803
0.00192506
0.00190542
0.00189288
0.00187366
0.00186062
0.00185153
0.00185107
0.00185849
0.0018631
0.00191928
0.00204495
0.00198354
0.0017458
0.00132504
0.00101103
0.000902025
0.000778284
0.000635182
0.000646999
0.000692418
0.000736988
0.000895559
0.00195346
0.0019167
0.00189867
0.00188807
0.00187216
0.00185998
0.0018506
0.00185053
0.00185727
0.00186185
0.00191853
0.0020445
0.00197007
0.00169594
0.0012299
0.000924509
0.000870862
0.000736425
0.000616413
0.000622386
0.000639282
0.000668636
0.000779457
0.00194662
0.00191177
0.00189356
0.00188456
0.0018708
0.00185892
0.00185019
0.0018508
0.00185617
0.00185956
0.00191787
0.00204385
0.00195379
0.00163561
0.00113804
0.000850508
0.000836432
0.000686459
0.000591837
0.000595174
0.000591244
0.000605904
0.000681092
0.00194499
0.00190704
0.00189024
0.00188229
0.00187015
0.00185964
0.00185072
0.00185062
0.00185542
0.00185805
0.00191723
0.00204271
0.00193683
0.00157073
0.00105027
0.000785979
0.000795091
0.000630633
0.000561885
0.000568309
0.000549038
0.000551513
0.000600572
0.00193934
0.00190466
0.0018892
0.0018808
0.00187032
0.00185985
0.00185131
0.00185188
0.00185451
0.00185565
0.0019164
0.0020396
0.00191622
0.00150579
0.000983448
0.000730876
0.000743262
0.000576433
0.000527122
0.000536217
0.000508895
0.000503554
0.000535174
0.00193853
0.00190305
0.00188876
0.00188085
0.00187083
0.00186077
0.00185196
0.00185188
0.00185368
0.00185367
0.00191513
0.00203454
0.00189361
0.00144694
0.000925187
0.00067877
0.00069383
0.000526226
0.000490514
0.000502355
0.000470574
0.000462279
0.000490565
0.00193484
0.00190136
0.00188882
0.00187996
0.00187071
0.00186229
0.00185389
0.00185294
0.00185382
0.00185249
0.00191451
0.00202979
0.00187088
0.00139519
0.000882493
0.000635211
0.000639703
0.000480357
0.000454026
0.000469319
0.000436046
0.000429271
0.000459272
0.00193388
0.00190127
0.00189105
0.00188176
0.00187243
0.00186267
0.00185409
0.00185368
0.00185153
0.00185094
0.00191295
0.00202184
0.00184935
0.00135277
0.000843988
0.000588639
0.000584684
0.000440298
0.000421514
0.000437577
0.000407476
0.000403227
0.000442843
0.00193065
0.001901
0.00189107
0.00188155
0.00187197
0.00186419
0.00185572
0.00185369
0.00185006
0.00185085
0.00191248
0.00201275
0.0018288
0.00132524
0.000808629
0.000550656
0.000528488
0.000406892
0.000393522
0.000407735
0.000386362
0.000389017
0.000436519
0.00193083
0.00189796
0.00189158
0.00188155
0.00187259
0.00186476
0.00185643
0.00185416
0.00184856
0.00185092
0.00191264
0.00200288
0.0018146
0.00129661
0.000779598
0.000514851
0.000479464
0.000381373
0.000372125
0.000384334
0.000373779
0.000383022
0.000435381
0.00192199
0.00189983
0.00189279
0.00188349
0.00187325
0.00186376
0.00185627
0.00185408
0.00184728
0.00185005
0.00191222
0.00199329
0.00179911
0.00127483
0.000754488
0.000494274
0.000437647
0.000363669
0.000358871
0.000369388
0.000369967
0.000387775
0.000442555
0.00191473
0.00189449
0.00189066
0.00187948
0.00186946
0.00186254
0.00185488
0.00185302
0.00184651
0.00185008
0.00191203
0.00198344
0.00178548
0.00125609
0.000745397
0.000486403
0.000408711
0.000354462
0.000354189
0.000365835
0.000377295
0.000399911
0.000450884
0.00190958
0.00188756
0.0018879
0.00187542
0.00186521
0.0018594
0.00185246
0.00185129
0.00184428
0.00184952
0.00191226
0.00197307
0.00177181
0.00125053
0.000752248
0.000490702
0.000389982
0.000352852
0.000359909
0.000373777
0.000392263
0.000413643
0.000468953
0.00190286
0.0018823
0.00188043
0.00186978
0.0018625
0.0018551
0.00184932
0.00184828
0.00184218
0.00185038
0.0019114
0.00196346
0.00176319
0.00125714
0.000772817
0.00050532
0.000380981
0.00035995
0.00037519
0.000392027
0.000415221
0.000435237
0.000490193
0.0018939
0.00187281
0.00187545
0.00186666
0.00185869
0.00185035
0.00184657
0.00184634
0.00184292
0.00184971
0.00191086
0.00195381
0.00176083
0.00127587
0.000807295
0.000530641
0.000380763
0.000375488
0.000401669
0.000421588
0.000444294
0.00046255
0.000521303
0.00188594
0.00186325
0.00186814
0.00186172
0.00185516
0.00184559
0.00184401
0.00184064
0.00184222
0.0018497
0.0019096
0.00194589
0.00176454
0.00130513
0.000852777
0.000566399
0.000388891
0.000397923
0.000435946
0.000455518
0.000473174
0.000496336
0.000578104
0.00187613
0.00185523
0.00186079
0.00185475
0.00184876
0.0018396
0.0018387
0.00183885
0.00184003
0.00184907
0.00190833
0.00194043
0.00177301
0.00134241
0.000908501
0.000610426
0.000404926
0.000429016
0.000478564
0.000495339
0.000501585
0.000536616
0.000622135
0.00186672
0.00184616
0.00185494
0.00184641
0.00184449
0.00183559
0.00183508
0.00183729
0.00183896
0.00184975
0.00190684
0.00193711
0.00178539
0.0013847
0.000970208
0.000661551
0.000426795
0.000464737
0.000524896
0.000532988
0.000528333
0.000561102
0.00065635
0.00185668
0.00184424
0.0018441
0.00184114
0.0018398
0.00183452
0.00183378
0.00183704
0.00183909
0.00184961
0.00190557
0.00193556
0.00180229
0.00143242
0.0010373
0.00071674
0.000454834
0.000507065
0.000570164
0.000567755
0.000547122
0.000584192
0.000678157
0.00184701
0.00184182
0.00184283
0.00184046
0.00184091
0.00183347
0.00183324
0.001837
0.00183858
0.00184918
0.00190426
0.00193549
0.00182076
0.00147987
0.00110546
0.000769863
0.00048548
0.000549238
0.000613252
0.000592642
0.00056242
0.000612229
0.000698163
0.0018448
0.00183815
0.0018412
0.00183772
0.0018386
0.00183075
0.00183292
0.00183515
0.00183833
0.00184955
0.00190285
0.00193637
0.00184016
0.00152888
0.00117097
0.000819799
0.000520045
0.000593885
0.00064899
0.000614746
0.000584945
0.000637926
0.000718868
0.00184451
0.0018352
0.00183865
0.00183667
0.00183666
0.00183217
0.00182934
0.00183417
0.00183811
0.00184952
0.00190156
0.0019381
0.00185879
0.00157466
0.00123128
0.00086309
0.000555785
0.000639347
0.000682432
0.000638836
0.000617828
0.000640284
0.000751916
0.00183945
0.00183518
0.00183724
0.00183432
0.00183406
0.00183166
0.00182958
0.00183284
0.00183795
0.00184945
0.00190075
0.00193999
0.00187625
0.00161558
0.00128209
0.000904131
0.000588654
0.000682184
0.000714865
0.000662312
0.000642027
0.000652147
0.000762594
0.00183561
0.00183556
0.00183672
0.00183303
0.00183459
0.00183133
0.00182948
0.00183399
0.00183678
0.00184939
0.00190028
0.00194238
0.00189178
0.00165039
0.0013247
0.000945869
0.000627692
0.000720453
0.000739902
0.000685867
0.000672475
0.000667321
0.000789545
0.00183906
0.00183446
0.00183439
0.00183278
0.00183501
0.00183018
0.00182682
0.00183126
0.00183786
0.00184931
0.00189982
0.00194432
0.00190413
0.00167884
0.00135452
0.000984349
0.00066206
0.000752594
0.000763771
0.000717237
0.000700481
0.000703316
0.000785213
0.00183657
0.00183033
0.00183599
0.00183224
0.00183501
0.00182966
0.00182601
0.001832
0.00183828
0.00184923
0.00189999
0.0019467
0.0019149
0.0017001
0.00137907
0.00103921
0.000706712
0.000782292
0.000787864
0.000748893
0.000735098
0.0007214
0.000804042
0.00183482
0.00182896
0.00183598
0.0018321
0.00183294
0.00182691
0.00182731
0.00182908
0.00183853
0.00184938
0.00189874
0.00194821
0.0019232
0.0017161
0.00139399
0.0010726
0.00074525
0.000804504
0.000800177
0.000776126
0.000748019
0.000740048
0.000816201
0.0018339
0.00183038
0.00183634
0.00183183
0.00183202
0.00182849
0.00182572
0.0018304
0.00183799
0.00184909
0.00189878
0.00195006
0.00192929
0.00172768
0.00140576
0.00114582
0.000786991
0.000831206
0.000812323
0.000817948
0.000763004
0.000773574
0.000873124
0.00183048
0.00183092
0.00183193
0.0018276
0.00183234
0.00182795
0.00182761
0.00183062
0.001837
0.00185036
0.00189764
0.00195134
0.00193282
0.00173442
0.00141245
0.00118402
0.000831754
0.000839665
0.000828931
0.000826169
0.000786267
0.000783529
0.000877078
0.00183377
0.00182879
0.00183406
0.00183077
0.00182743
0.00182747
0.0018268
0.00183113
0.00183533
0.00184838
0.00189779
0.00195206
0.00193437
0.0017375
0.00142048
0.00126603
0.000868185
0.000870154
0.000835521
0.000838133
0.000816897
0.00080671
0.00090044
0.00182878
0.00182889
0.00183136
0.00182735
0.0018286
0.00182887
0.00182668
0.00182921
0.00183512
0.00184881
0.00189818
0.00195305
0.00193477
0.00173459
0.00142133
0.00127106
0.000898711
0.000865383
0.000827932
0.000860764
0.000805064
0.000820729
0.000933092
0.00183127
0.00182527
0.00182987
0.00183237
0.00182868
0.00182968
0.00182367
0.00182845
0.0018357
0.00184847
0.00189629
0.00195354
0.00193975
0.00175064
0.00144663
0.0013144
0.00097197
0.000891875
0.000843317
0.000869924
0.000822071
0.000820401
0.000919185
0.00183181
0.00182416
0.00182908
0.00182991
0.0018303
0.00182907
0.00182584
0.001831
0.00183638
0.00184797
0.00189423
0.00195314
0.00194344
0.00176494
0.00147016
0.00131694
0.00099072
0.00092867
0.000876018
0.00085808
0.000843175
0.000830749
0.000917475
0.00183482
0.00182927
0.00182845
0.00183184
0.00182962
0.00182769
0.00182721
0.00183069
0.00183573
0.00184688
0.00189215
0.00195274
0.00194849
0.00178017
0.00149349
0.00134595
0.0010104
0.000951608
0.000919505
0.000884947
0.000842736
0.00085655
0.000924476
0.0018323
0.00182683
0.00182713
0.00182962
0.00182853
0.00182986
0.00182601
0.00183009
0.00183587
0.00184551
0.00189001
0.00195218
0.00195286
0.00179617
0.00151064
0.00140287
0.00104393
0.000996066
0.000943631
0.000959543
0.00085871
0.000864706
0.00091202
0.00182925
0.00182959
0.00182796
0.00182784
0.00182895
0.00182629
0.00182497
0.00183081
0.00183161
0.00184494
0.00188796
0.00195141
0.00195853
0.00181476
0.00152624
0.00141948
0.00107777
0.00102312
0.000964353
0.000994048
0.000909472
0.000904405
0.000967226
0.00182808
0.0018233
0.00182929
0.0018255
0.00183171
0.00181815
0.00182288
0.00183406
0.00182889
0.00184415
0.0018857
0.00195028
0.00196448
0.00183424
0.00155808
0.00146319
0.00111917
0.00107064
0.00101922
0.00102361
0.000945983
0.000939815
0.000997813
0.00182577
0.00182078
0.00182956
0.00182297
0.00182659
0.00181893
0.00182438
0.00183182
0.00183133
0.00184661
0.00188404
0.00194866
0.00196936
0.00185394
0.00160237
0.00147075
0.00114233
0.00109114
0.00105639
0.00110542
0.00103975
0.00099953
0.00103768
0.00182698
0.00181956
0.00183395
0.00182944
0.00181548
0.00182558
0.00182853
0.00182623
0.00183253
0.00184798
0.00188169
0.00194547
0.00197584
0.00187426
0.00164129
0.00149859
0.00122144
0.00110803
0.00104767
0.00116295
0.00116084
0.00112882
0.00110608
0.00182533
0.00182556
0.00183071
0.0018341
0.00181517
0.00183341
0.00183387
0.0018238
0.00183221
0.00184778
0.00187864
0.0019423
0.00197918
0.00189369
0.00168155
0.0015041
0.00125646
0.00113296
0.00102159
0.00126555
0.00129056
0.00126994
0.00129002
0.00183357
0.00182263
0.0018227
0.00183098
0.0018214
0.001833
0.0018314
0.00182297
0.00183133
0.00184891
0.00187472
0.00193644
0.00198398
0.00191267
0.00171984
0.00152743
0.00129977
0.00112291
0.00100617
0.00136003
0.00143481
0.00135693
0.00143706
0.00183352
0.00183238
0.00182153
0.00183094
0.00182346
0.00183223
0.0018236
0.00182382
0.00183123
0.00184483
0.00186944
0.00193021
0.00198549
0.00193041
0.00175981
0.00152702
0.00133143
0.00110792
0.00101372
0.00133204
0.0015879
0.0015449
0.00158288
0.00182198
0.0018309
0.0018165
0.00183005
0.00182462
0.00182388
0.0018201
0.00182613
0.00183158
0.00184066
0.00186415
0.00192168
0.0019855
0.00194677
0.00180246
0.00153683
0.00129063
0.00111936
0.00107432
0.00138867
0.00160216
0.00170149
0.00190197
0.00181569
0.00182104
0.00181209
0.00182743
0.00182544
0.00181978
0.00181772
0.00182568
0.00183055
0.00183817
0.00185943
0.00191237
0.00198439
0.00196008
0.00184161
0.00160086
0.00129791
0.00116218
0.00110277
0.00141996
0.00189374
0.00192424
0.00216184
0.00181637
0.00181683
0.00181467
0.00182401
0.00182535
0.00181679
0.00181664
0.00182396
0.00182867
0.0018357
0.00185477
0.00190183
0.00197943
0.00197238
0.00187808
0.00167447
0.00138621
0.00123253
0.00109006
0.00141744
0.00183697
0.00226602
0.0025112
0.00181693
0.00181408
0.00181745
0.00182076
0.00182406
0.00181491
0.00181701
0.0018225
0.00182632
0.00183312
0.00185006
0.00189107
0.00197056
0.00198221
0.00191013
0.00174966
0.0014965
0.00128481
0.00121827
0.00135474
0.0018723
0.00240552
0.0027327
0.00181825
0.00181196
0.00181901
0.00181818
0.00182135
0.00181371
0.00181771
0.00182143
0.00182378
0.00183023
0.00184501
0.00187983
0.00195689
0.00198697
0.00193953
0.00181926
0.00161366
0.00137686
0.00138562
0.00145026
0.00225781
0.00261939
0.00286479
0.00181446
0.00180994
0.0018204
0.00181625
0.00181776
0.00181283
0.00181784
0.00182014
0.00182116
0.00182711
0.00183994
0.00186841
0.0019395
0.00198852
0.00196259
0.00188092
0.00172685
0.00151319
0.00147576
0.00169771
0.00227193
0.0029962
0.00361683
0.00180894
0.00180771
0.00182011
0.00181427
0.00181335
0.00181156
0.00181696
0.00181811
0.0018185
0.00182363
0.00183472
0.00185767
0.0019124
0.00198792
0.00198543
0.00193233
0.00182508
0.00166044
0.00158007
0.00178942
0.00243669
0.00314553
0.00424843
0.00180395