/*--------------------------------*- C++ -*----------------------------------*\
  =========                 |
  \\      /  F ield         | OpenFOAM: The Open Source CFD Toolbox
   \\    /   O peration     | Website:  https://openfoam.org
    \\  /    A nd           | Version:  7
     \\/     M anipulation  |
\*---------------------------------------------------------------------------*/
FoamFile
{
    version     2.0;
    format      ascii;
    class       volScalarField;
    location    "73";
    object      omega;
}
// * * * * * * * * * * * * * * * * * * * * * * * * * * * * * * * * * * * * * //

dimensions      [0 0 -1 0 0 0 0];

internalField   nonuniform List<scalar> 
12842
(
3.14572
2.84332
2.65521
2.52421
2.43619
2.3696
2.32693
2.2898
2.26968
2.24963
2.24047
2.23293
2.23463
2.24045
2.26299
2.29143
2.35987
2.43163
2.54331
2.63175
2.76495
2.85461
2.97888
3.13015
2.82619
2.63457
2.51499
2.43192
2.36743
2.32531
2.28851
2.26826
2.24829
2.23926
2.23187
2.23414
2.24143
2.26089
2.29248
2.35353
2.43133
2.54903
2.63891
2.77247
2.85397
2.97845
3.10854
2.79785
2.61014
2.48416
2.40717
2.35057
2.31269
2.27971
2.26103
2.24265
2.23503
2.229
2.232
2.24161
2.26238
2.29706
2.35832
2.44034
2.56127
2.64984
2.78312
2.85945
2.9734
3.08782
2.76251
2.58342
2.46994
2.39635
2.34266
2.30669
2.27561
2.25782
2.24037
2.23335
2.22783
2.23125
2.24167
2.26338
2.30206
2.36599
2.45335
2.58026
2.67455
2.81754
2.88592
2.98905
3.05989
2.73201
2.55031
2.43986
2.37093
2.32361
2.29211
2.26546
2.24994
2.23503
2.22954
2.22553
2.22965
2.24172
2.2662
2.30877
2.37738
2.46603
2.59837
2.69243
2.83468
2.91995
2.99333
3.03519
2.69932
2.5237
2.42029
2.35938
2.31505
2.28559
2.26093
2.24642
2.23274
2.22784
2.22455
2.22966
2.24183
2.26821
2.31412
2.38848
2.48105
2.61921
2.71385
2.84637
2.94929
3.01351
3.00589
2.66997
2.49735
2.39845
2.33672
2.29812
2.27238
2.25171
2.2392
2.22805
2.22438
2.2228
2.22857
2.24485
2.27252
2.32189
2.40162
2.4946
2.63393
2.74361
2.85894
2.97768
3.03999
2.98125
2.64208
2.47314
2.37695
2.32631
2.28934
2.26643
2.24764
2.23614
2.22611
2.22278
2.22184
2.22808
2.24375
2.27363
2.32637
2.41195
2.51958
2.63885
2.77157
2.87355
3.00268
3.07371
2.95303
2.61669
2.45536
2.36419
2.30875
2.27794
2.25683
2.24126
2.23103
2.22269
2.21995
2.22023
2.2276
2.24356
2.27557
2.32942
2.41459
2.53363
2.65175
2.78771
2.89118
3.03065
3.1006
2.92428
2.58867
2.43272
2.34563
2.29951
2.26866
2.25119
2.23778
2.22865
2.22125
2.21881
2.21946
2.22753
2.24413
2.27733
2.33439
2.42471
2.5453
2.65634
2.80965
2.90578
3.05079
3.13329
2.89522
2.56409
2.41846
2.33633
2.28629
2.26091
2.24446
2.23328
2.22529
2.21877
2.2166
2.21808
2.22684
2.24486
2.28021
2.33881
2.42944
2.56278
2.67453
2.82633
2.93613
3.08194
3.15953
2.86431
2.53944
2.39903
2.32068
2.27805
2.25134
2.23836
2.22951
2.2229
2.21715
2.21552
2.21728
2.22762
2.24613
2.28249
2.34505
2.44353
2.57231
2.68729
2.85345
2.96291
3.13001
3.22355
2.8375
2.51683
2.38678
2.31261
2.26799
2.24527
2.23287
2.22576
2.22025
2.21502
2.21361
2.21589
2.22712
2.24679
2.28558
2.34973
2.44977
2.59354
2.71064
2.88112
3.00102
3.16128
3.25711
2.80744
2.49626
2.37048
2.30013
2.26074
2.23668
2.22698
2.22176
2.21793
2.21348
2.21266
2.21511
2.22702
2.24848
2.28809
2.3578
2.46657
2.60528
2.73139
2.9174
3.05499
3.2427
3.35231
2.78281
2.47628
2.35963
2.29268
2.25352
2.23154
2.22258
2.21853
2.21568
2.21176
2.21104
2.21385
2.22721
2.24994
2.29191
2.36323
2.47483
2.62995
2.76278
2.95576
3.09344
3.28577
3.4017
2.75567
2.4595
2.34562
2.28278
2.24695
2.22451
2.21759
2.2145
2.21316
2.21032
2.21008
2.21313
2.22754
2.25242
2.29716
2.375
2.49579
2.64979
2.79237
3.00972
3.17902
3.39408
3.53197
2.73351
2.44304
2.33587
2.27584
2.24161
2.21994
2.21386
2.21133
2.21106
2.20889
2.20862
2.21201
2.22804
2.25546
2.30384
2.38231
2.50655
2.67631
2.8376
3.05757
3.22969
3.45324
3.60136
2.70973
2.42881
2.32356
2.2677
2.23545
2.21438
2.20982
2.20757
2.20827
2.20709
2.20743
2.21144
2.22782
2.25681
2.31103
2.39639
2.53313
2.70921
2.87374
3.12798
3.33103
3.58948
3.76543
2.69041
2.41629
2.31498
2.26138
2.23072
2.21028
2.20648
2.20416
2.20609
2.20556
2.20605
2.2104
2.23002
2.26557
2.31745
2.40447
2.54742
2.73974
2.93518
3.1942
3.41298
3.68116
3.87363
2.67154
2.40377
2.30411
2.25417
2.22509
2.20587
2.20293
2.20087
2.20327
2.2034
2.20475
2.21011
2.22835
2.26769
2.33428
2.42034
2.58079
2.78079
2.97762
3.27092
3.5148
3.82845
4.06148
2.65638
2.39414
2.29699
2.24853
2.22011
2.20217
2.19989
2.19743
2.20089
2.20153
2.2034
2.20916
2.23001
2.27122
2.34025
2.42886
2.59839
2.82153
3.04819
3.36978
3.64855
3.98494
4.24457
2.64149
2.38337
2.28733
2.24179
2.2152
2.19846
2.19652
2.19466
2.19833
2.19933
2.20218
2.20928
2.22933
2.26938
2.36093
2.44831
2.63955
2.86302
3.1099
3.45363
3.75771
4.1492
4.48039
2.6294
2.37517
2.2816
2.23656
2.2099
2.19517
2.19371
2.19162
2.19606
2.19731
2.20096
2.20863
2.22903
2.26785
2.36402
2.45587
2.65818
2.91474
3.18816
3.59835
3.9615
4.40159
4.78372
2.61881
2.36782
2.27509
2.23192
2.20662
2.19284
2.1913
2.18979
2.19424
2.1954
2.19982
2.20776
2.22934
2.26871
2.37035
2.4753
2.70384
2.96383
3.29409
3.71984
4.12786
4.63383
5.13968
2.61178
2.36275
2.27196
2.22874
2.20381
2.19172
2.19021
2.18895
2.19331
2.19423
2.1989
2.20798
2.23025
2.26905
2.37308
2.48643
2.7289
3.03659
3.40682
3.92833
4.414
5.02289
5.58244
2.60423
2.35751
2.26802
2.2261
2.20209
2.19078
2.18903
2.18839
2.1924
2.19302
2.1978
2.20759
2.2314
2.27045
2.36956
2.51152
2.78298
3.11741
3.56392
4.11591
4.68398
5.33393
6.06317
2.59726
2.35256
2.26472
2.22298
2.19964
2.18976
2.18832
2.18801
2.19137
2.19185
2.19658
2.20818
2.23277
2.27371
2.36734
2.5301
2.81694
3.22899
3.73715
4.38214
5.02881
5.84092
6.62243
2.59053
2.34763
2.26088
2.2209
2.19836
2.18919
2.18748
2.18777
2.19038
2.19045
2.19524
2.20826
2.23359
2.27729
2.37425
2.56333
2.89344
3.33599
3.93031
4.64553
5.40466
6.2242
7.12521
2.58417
2.34308
2.25713
2.21786
2.19634
2.18798
2.18678
2.18726
2.18884
2.18873
2.19398
2.20822
2.23446
2.2858
2.39188
2.61346
2.94381
3.48664
4.1476
4.91981
5.7379
6.70726
7.62762
2.57787
2.33882
2.25358
2.21626
2.19534
2.18717
2.18573
2.18671
2.18728
2.18713
2.19298
2.20765
2.23651
2.29497
2.42945
2.65265
3.05035
3.59143
4.31824
5.19168
6.11238
7.07809
8.06207
2.57219
2.33455
2.24946
2.21326
2.19344
2.18542
2.18425
2.18536
2.18534
2.18541
2.19239
2.20807
2.23988
2.31741
2.4709
2.75082
3.13715
3.77442
4.54719
5.42773
6.399
7.4853
8.49111
2.56639
2.33111
2.24662
2.21157
2.19237
2.18418
2.18248
2.18388
2.18352
2.18406
2.19229
2.20989
2.25334
2.35439
2.54136
2.80404
3.25226
3.87478
4.70401
5.70014
6.74743
7.83322
8.81261
2.56105
2.327
2.24291
2.20854
2.1901
2.18139
2.17995
2.1819
2.18144
2.18373
2.19345
2.21638
2.27717
2.40369
2.60269
2.92812
3.38141
4.06526
4.91278
5.88099
6.97699
8.11941
9.13518
2.55583
2.32449
2.24069
2.20598
2.18857
2.17934
2.17751
2.18006
2.18076
2.18497
2.20071
2.23755
2.31917
2.47221
2.69622
2.99596
3.47949
4.16779
5.06558
6.1506
7.27634
8.40482
9.33735
2.55052
2.32063
2.23803
2.20234
2.18545
2.17574
2.17484
2.17782
2.1806
2.19055
2.21614
2.26527
2.36467
2.53499
2.7703
3.1286
3.63434
4.34965
5.25975
6.28679
7.44019
8.57776
9.51812
2.54599
2.31882
2.2363
2.19855
2.18256
2.17386
2.17249
2.17731
2.18404
2.20533
2.24256
2.3096
2.43223
2.62668
2.88003
3.21751
3.72976
4.45624
5.38925
6.51675
7.67378
8.76872
9.65642
2.54029
2.31535
2.23412
2.19327
2.17942
2.17131
2.17055
2.1776
2.19356
2.22723
2.27633
2.35741
2.49278
2.6942
2.95387
3.32955
3.86399
4.61477
5.56954
6.62626
7.79896
8.88747
9.75949
2.53669
2.31359
2.23232
2.1891
2.17693
2.16917
2.17082
2.18357
2.21309
2.25957
2.32211
2.42207
2.57869
2.79941
3.07677
3.4512
3.99636
4.74474
5.68394
6.85156
8.05708
9.1279
9.94849
2.53046
2.3098
2.22928
2.18338
2.17335
2.16896
2.1742
2.1968
2.23989
2.29845
2.37244
2.48402
2.64575
2.86573
3.1427
3.52671
4.08234
4.85505
5.87264
6.99458
8.25646
9.38369
10.2935
2.52737
2.30762
2.22612
2.17929
2.17225
2.17219
2.18578
2.22107
2.27676
2.3469
2.43358
2.56191
2.7395
2.97322
3.26742
3.67207
4.24916
5.0414
5.99674
7.30667
8.72687
9.96612
11.0148
2.52107
2.3028
2.22239
2.17549
2.17021
2.18174
2.20607
2.25278
2.31981
2.39967
2.49532
2.62993
2.80622
3.03561
3.33101
3.74273
4.33365
5.15617
6.28207
7.62954
9.25554
11.0747
13.5065
2.51771
2.29954
2.21798
2.17236
2.17235
2.2
2.23593
2.29474
2.37092
2.45944
2.56484
2.71212
2.8981
3.13809
3.45031
3.88218
4.50947
5.39319
6.50579
8.2285
10.7271
14.4231
19.9917
2.51099
2.29272
2.21435
2.16986
2.17815
2.22605
2.27386
2.34236
2.42553
2.52066
2.63129
2.7787
2.95951
3.19388
3.50849
3.95539
4.6162
5.59296
7.20923
9.53767
13.1465
20.4685
37.6404
2.50676
2.28827
2.20995
2.17057
2.19549
2.25996
2.31974
2.39698
2.48531
2.58541
2.7017
2.85757
3.04429
3.29018
3.62745
4.12298
4.87336
6.02703
7.78449
11.1689
18.0106
34.9375
61.8667
2.49973
2.28112
2.20953
2.17546
2.2179
2.30046
2.37067
2.45407
2.54534
2.64888
2.7664
2.91721
3.097
3.33875
3.68764
4.21068
5.03088
6.44602
9.37472
14.2909
26.3018
53.8415
88.4829
2.49357
2.27735
2.20976
2.1877
2.25204
2.34642
2.42633
2.51394
2.60754
2.71257
2.83181
2.98802
3.17343
3.42974
3.8138
4.41636
5.43145
7.23054
10.5878
18.3865
38.7849
77.8313
117.77
2.48656
2.27179
2.21522
2.20806
2.28916
2.39598
2.48317
2.57297
2.66695
2.77266
2.88982
3.03815
3.2166
3.47448
3.87986
4.54187
5.71447
8.11461
12.9571
24.5206
55.3718
102.227
141.249
2.47819
2.26956
2.22708
2.2344
2.33533
2.44789
2.54064
2.63075
2.72561
2.8305
2.94656
3.09845
3.28564
3.56444
4.03196
4.84793
6.33912
9.08142
15.3396
34.2761
75.6749
126.885
154.901
2.47065
2.26622
2.24312
2.26875
2.3827
2.50152
2.59803
2.68711
2.78126
2.88487
2.99661
3.14072
3.32213
3.61126
4.11973
5.03341
6.76664
10.6308
19.6662
46.6043
94.9716
144.247
162.647
2.46321
2.2668
2.26869
2.30882
2.43767
2.55773
2.65487
2.74183
2.83589
2.9374
3.04585
3.1911
3.38506
3.7024
4.30823
5.44329
7.62166
11.9355
25.2806
60.5381
113.346
153.7
166.238
2.45709
2.26989
2.29761
2.3551
2.49156
2.61175
2.70804
2.79191
2.88524
2.98399
3.08691
3.22692
3.41846
3.75431
4.42027
5.68469
8.15584
14.0419
32.7098
73.3765
126.185
159.396
169.053
2.45244
2.28105
2.33337
2.40375
2.54626
2.66435
2.75647
2.83722
2.92992
3.0257
3.1244
3.2649
3.47111
3.84943
4.63802
6.14509
9.17142
16.5405
40.3417
86.2015
137.223
162.84
168.871
2.44985
2.29921
2.37051
2.45483
2.59827
2.71303
2.80057
2.8781
2.96995
3.06191
3.15544
3.29323
3.5026
3.90963
4.77442
6.41611
9.80926
19.5175
50.0301
97.6295
144.331
165.955
170.646
2.44945
2.32659
2.41202
2.50711
2.64946
2.7596
2.84092
2.91526
3.00556
3.09373
3.18332
3.32219
3.54784
4.0115
5.0037
6.89887
11.2267
25.5523
59.994
107.9
150.543
169.827
172.65
2.45092
2.35969
2.4544
2.55906
2.6975
2.80195
2.87747
2.9489
3.03683
3.12085
3.20633
3.3449
3.58074
4.08226
5.15833
7.27837
12.5395
31.0273
70.525
115.845
153.441
172.192
173.346
2.45837
2.4008
2.50018
2.61146
2.74471
2.84259
2.91188
2.97998
3.06444
3.14471
3.22705
3.3678
3.62074
4.18204
5.39507
7.91807
15.5692
39.5847
81.5826
121.245
155.536
172.535
174.341
2.47568
2.44481
2.54438
2.65887
2.78532
2.87685
2.94061
3.00577
3.08589
3.16311
3.24284
3.38532
3.65148
4.26308
5.594
8.66562
18.4394
45.9163
87.3889
121.922
155.513
173.45
175.794
2.49727
2.48984
2.58797
2.7031
2.82268
2.90843
2.96695
3.02867
3.1045
3.17926
3.25684
3.40169
3.68213
4.34795
5.84598
9.49838
21.5573
51.5057
90.4646
122.098
155.268
172.271
176.011
2.52454
2.53666
2.63139
2.74485
2.85664
2.93718
2.99093
3.04969
3.12052
3.19335
3.26944
3.41726
3.71343
4.44158
6.13161
10.6084
24.6057
56.5926
92.3348
121.798
154.488
172.196
177.251
2.55444
2.58352
2.67466
2.78398
2.88777
2.96354
3.01269
3.06779
3.13437
3.20587
3.28077
3.43212
3.74496
4.53756
6.46594
11.6887
27.5013
60.0423
92.2662
122.106
152.329
172.33
176.055
2.58691
2.62935
2.71618
2.81947
2.91511
2.9869
3.03217
3.08423
3.14613
3.21661
3.29108
3.44642
3.77722
4.63889
6.79322
12.9227
30.2479
62.2906
92.433
121.093
148.594
171.513
175.981
2.61975
2.6732
2.7564
2.8522
2.93983
3.00765
3.0493
3.09784
3.15638
3.22635
3.30055
3.46005
3.80896
4.74226
7.17831
14.1499
32.6003
63.1582
92.6522
118.137
143.449
166.926
176.264
2.65195
2.71376
2.79347
2.88092
2.96096
3.02566
3.06443
3.11009
3.16488
3.23455
3.30904
3.47311
3.84055
4.84792
7.55765
15.4
34.6322
63.4545
93.0842
114.238
136.689
159.405
174.508
2.68331
2.75114
2.8282
2.90728
2.98029
3.04118
3.07751
3.11999
3.17266
3.24193
3.31712
3.48527
3.87118
4.96101
8.00417
16.8169
36.8905
64.0076
91.9274
109.294
129.393
149.998
167.751
2.71188
2.78453
2.85884
2.93003
2.99647
3.05462
3.0888
3.12895
3.17881
3.24843
3.32416
3.49665
3.90126
5.08351
8.53187
18.1429
38.3377
64.55
89.5172
104.259
121.468
139.725
158.149
2.73962
2.81418
2.88674
2.95092
3.01173
3.06601
3.0989
3.13612
3.18492
3.25378
3.3309
3.50708
3.93173
5.22468
9.07022
19.657
38.9832
64.4236
86.5878
99.0969
113.949
129.525
146.768
2.76382
2.84048
2.91023
2.96882
3.0243
3.0759
3.10713
3.14282
3.18966
3.25899
3.33686
3.51681
3.96307
5.37793
9.72728
20.9832
39.7652
64.4443
83.6192
94.3895
106.964
119.656
134.729
2.78769
2.86345
2.9314
2.98532
3.03653
3.08455
3.11522
3.14818
3.19447
3.26319
3.34225
3.52591
3.99636
5.55104
10.3316
21.9617
39.965
64.5045
80.8252
90.1872
100.866
111.217
123.502
2.80815
2.8837
2.9485
2.99922
3.04653
3.09176
3.12136
3.15354
3.19861
3.26724
3.34748
3.53494
4.03031
5.72298
10.8993
22.6391
40.113
64.772
78.2478
86.4178
95.4233
103.702
113.76
2.82892
2.90201
2.96423
3.01217
3.05652
3.09865
3.12788
3.15782
3.20224
3.27098
3.35221
3.54322
4.06566
5.88983
11.2786
22.9989
40.439
64.4778
75.7996
83.1119
90.8009
97.3436
105.523
2.84608
2.91811
2.97671
3.02305
3.06472
3.1043
3.13299
3.16255
3.20622
3.27499
3.35745
3.55213
4.09811
6.03458
11.55
23.2329
40.4024
63.5929
73.2123
79.8389
86.6107
91.4125
98.1536
2.86473
2.93287
2.98889
3.03316
3.07332
3.10976
3.13817
3.16624
3.20891
3.27784
3.36182
3.55935
4.12774
6.14802
11.651
23.2038
40.4602
62.1279
70.4288
76.5535
82.4294
85.9604
91.5849
2.87894
2.94764
2.9989
3.04222
3.0805
3.11508
3.14306
3.17092
3.21253
3.27994
3.36511
3.56707
4.15112
6.22619
11.697
23.3143
40.5672
60.1135
67.167
72.9374
77.9622
80.3083
85.0308
2.89589
2.95945
3.00918
3.05076
3.08841
3.11993
3.14733
3.17452
3.21509
3.27975
3.36688
3.57259
4.16976
6.23816
11.7417
23.2269
40.8497
57.5316
63.4887
68.9373
72.9337
74.517
78.7784
2.90855
2.97445
3.01874
3.05896
3.09539
3.1251
3.15256
3.1793
3.21773
3.28003
3.36749
3.57683
4.17283
6.26255
11.7233
23.1894
40.819
54.4223
59.383
64.4506
67.4677
68.6399
73.0006
2.9234
2.98567
3.02821
3.06734
3.10323
3.131
3.15645
3.18356
3.22082
3.28129
3.36776
3.57828
4.17665
6.26233
11.7082
22.6472
40.5063
50.9324
54.9218
59.4791
61.6777
62.913
68.1398
2.93654
2.99911
3.0386
3.07575
3.11027
3.13574
3.16207
3.18785
3.22287
3.28103
3.36827
3.57889
4.17808
6.26074
11.5044
21.7153
39.3616
47.1078
50.2941
54.1186
55.8769
57.6324
63.5516
2.94928
3.01252
3.0477
3.08358
3.11843
3.14275
3.1659
3.19312
3.22541
3.28201
3.36751
3.57959
4.17921
6.20827
11.1118
20.4808
37.6488
43.2115
45.6348
48.6225
50.3436
53.1247
59.5679
2.96248
3.02402
3.05828
3.09344
3.12487
3.14836
3.17145
3.1975
3.22941
3.28102
3.36826
3.57903
4.17155
6.10785
10.5976
19.093
35.4873
39.3012
41.1267
43.4348
45.3362
49.4036
55.6005
2.97555
3.03861
3.068
3.10117
3.13384
3.15611
3.17678
3.20242
3.22944
3.28145
3.36741
3.57923
4.15162
5.96577
10.004
17.6183
33.1107
35.5698
36.8345
38.6817
41.1219
46.3899
52.0666
2.98717
3.05457
3.07749
3.11264
3.13972
3.16404
3.18244
3.21074
3.23199
3.28121
3.36754
3.57749
4.12175
5.8003
9.38433
16.1426
30.6148
32.1281
32.9439
34.7055
37.7321
43.936
49.0709
3.00412
3.06766
3.08991
3.125
3.15058
3.17491
3.19204
3.21408
3.23437
3.28171
3.36732
3.57289
4.08474
5.61536
8.76353
14.7586
28.1813
29.0162
29.4962
31.3488
35.1796
41.9575
46.6444
3.01879
3.08451
3.10153
3.13777
3.15984
3.18199
3.19865
3.21645
3.23634
3.2803
3.36748
3.56622
4.04194
5.42988
8.18092
13.4835
25.8593
26.2902
26.6206
28.8095
33.3766
40.3384
44.6439
3.03722
3.08729
3.11688
3.14653
3.16747
3.185
3.19859
3.21674
3.23525
3.28004
3.36728
3.55807
3.99655
5.24209
7.64034
12.3903
23.7713
23.8973
24.256
26.894
32.1749
39.1142
43.2476
3.05334
3.09047
3.11877
3.14767
3.16761
3.18827
3.19939
3.2173
3.23505
3.2806
3.36715
3.54916
3.95076
5.07025
7.16202
11.4854
21.901
21.8798
22.461
25.5306
31.3116
38.1786
42.1235
3.05384
3.09692
3.12117
3.14893
3.16879
3.19188
3.20074
3.22088
3.23494
3.28062
3.36756
3.53994
3.90602
4.90491
6.75674
10.7707
20.2738
20.2119
21.0689
24.5602
30.7052
37.6141
41.3916
3.05574
3.10102
3.1256
3.14984
3.17208
3.19128
3.20445
3.22
3.23478
3.28027
3.3676
3.53068
3.86459
4.76124
6.42236
10.2203
18.84
18.8945
20.0802
23.8116
30.2872
37.1333
40.4527
3.05901
3.1007
3.12962
3.15546
3.17563
3.19169
3.20363
3.22175
3.23461
3.27982
3.36733
3.52221
3.82712
4.63782
6.16348
9.79225
17.6559
17.8813
19.3671
23.4314
29.9787
36.6944
39.8524
3.06503
3.1005
3.12673
3.15417
3.17415
3.19243
3.20421
3.21971
3.23629
3.27878
3.36618
3.51377
3.79439
4.53834
5.96452
9.48295
16.6083
17.1561
18.9197
22.9246
29.6219
35.9649
39.2913
3.06224
3.10241
3.13046
3.1539
3.17444
3.19281
3.20583
3.22236
3.2343
3.27797
3.3656
3.5069
3.76776
4.4608
5.82517
9.2258
15.7895
16.6055
18.5984
22.6429
29.2982
35.0556
38.9019
3.06514
3.10649
3.12833
3.15372
3.17503
3.19315
3.2067
3.22039
3.23412
3.27668
3.3634
3.49987
3.74622
4.40391
5.72081
9.06976
15.0848
16.2273
18.3629
22.2742
29.0172
34.0131
38.2973
3.06776
3.10949
3.1278
3.15323
3.17441
3.19464
3.20392
3.22217
3.23378
3.27532
3.36448
3.49482
3.7305
4.36235
5.65728
8.92886
14.5969
15.9749
18.2501
22.1
28.747
33.215
37.5998
3.06236
3.10574
3.12784
3.15411
3.17493
3.19149
3.20629
3.21913
3.23354
3.27398
3.36251
3.48932
3.71873
4.33492
5.61057
8.85444
14.2013
15.7831
18.0385
21.8073
28.4969
32.2809
36.2205
3.06638
3.10361
3.13105
3.15737
3.17431
3.19106
3.20355
3.21852
3.23361
3.27103
3.36346
3.48599
3.71165
4.31517
5.58596
8.77053
13.9421
15.6754
17.9714
21.6985
28.3844
31.822
35.3375
3.06102
3.10303
3.12672
3.15382
3.1781
3.19103
3.20237
3.21775
3.23279
3.27157
3.36092
3.4819
3.70681
4.30535
5.56595
8.71127
13.7761
15.5339
17.8136
21.5575
27.8646
31.0748
34.0263
3.06158
3.10099
3.12642
3.15472
3.1751
3.19
3.20186
3.21737
3.23246
3.2726
3.36234
3.4824
3.71012
4.31745
5.60387
8.82343
13.7553
15.588
17.9893
21.7654
28.0204
30.9086
33.439
3.06207
3.09976
3.12756
3.14948
3.17598
3.18823
3.202
3.21781
3.23132
3.27069
3.35784
3.47461
3.69509
4.26769
5.49653
8.60621
13.4154
15.4488
17.8441
21.341
27.3479
30.3182
32.4679
3.05467
3.09975
3.12125
3.14807
3.17293
3.18604
3.19687
3.2141
3.22789
3.26793
3.35234
3.4666
3.68003
4.21982
5.3958
8.3319
13.0622
15.3037
17.5983
20.9252
26.8431
29.7819
31.7855
3.05254
3.09177
3.1199
3.14672
3.17143
3.18505
3.19574
3.21435
3.2261
3.2648
3.34553
3.45732
3.66312
4.17017
5.29377
8.11503
12.7911
15.0343
17.3255
20.5361
26.0727
29.0231
30.9772
3.05483
3.0959
3.12269
3.14833
3.16768
3.17741
3.19739
3.21157
3.21893
3.26154
3.33771
3.44736
3.64482
4.11809
5.19066
7.82603
12.4154
14.7598
16.8089
19.4956
25.2334
27.9673
29.8794
3.05245
3.08693
3.12089
3.1454
3.16223
3.17531
3.19557
3.20494
3.21636
3.25582
3.32772
3.4354
3.6238
4.06184
5.07544
7.59945
12.1501
14.2136
16.3776
19.3303
24.2263
26.6383
28.4282
3.04566
3.08986
3.11509
3.13807
3.15057
3.17684
3.19121
3.19459
3.21729
3.25045
3.31708
3.42233
3.60119
4.00278
4.94775
7.16738
11.6283
13.7257
15.994
19.5349
23.1502
25.2197
26.8477
3.03594
3.08549
3.10351
3.12625
3.14679
3.17105
3.18281
3.19092
3.2128
3.23782
3.30317
3.40679
3.57555
3.94002
4.81351
6.82032
11.2142
13.4471
15.2418
19.1302
22.0575
23.8452
25.3222
3.02684
3.07928
3.08622
3.10937
3.14816
3.1611
3.17004
3.1919
3.20528
3.22653
3.28975
3.39024
3.5486
3.87665
4.67119
6.43555
10.3145
13.1061
15.1599
18.6282
21.0196
22.5517
24.0162
3.01454
3.05766
3.08016
3.10313
3.14228
3.14265
3.1522
3.18504
3.19594
3.21506
3.2746
3.37045
3.51818
3.81159
4.52001
6.18132
9.74685
12.5502
15.4124
18.1545
20.1197
21.456
22.8401
2.98992
3.04843
3.08185
3.10316
3.133
3.13315
3.14576
3.17427
3.18618
3.20038
3.25991
3.34978
3.48675
3.74798
4.37224
5.8082
9.06272
12.389
15.2914
17.6425
19.2973
20.4512
21.8367
2.98117
3.01956
3.0709
3.09061
3.1198
3.11821
3.14498
3.1596
3.1722
3.19073
3.24357
3.32525
3.45139
3.68302
4.22312
5.54296
8.37469
11.8433
14.8432
17.161
18.6031
19.6004
20.8904
2.98294
3.00702
3.05565
3.07655
3.10384
3.11628
3.13578
3.14252
3.15682
3.18028
3.2262
3.29992
3.41551
3.62083
4.07424
5.28513
7.93362
11.155
14.2142
16.5907
18.0473
18.9211
19.9443
2.96836
3.00272
3.03689
3.06019
3.08269
3.10145
3.11899
3.12521
3.13894
3.16207
3.203
3.26923
3.37443
3.55606
3.93375
4.90341
7.2372
10.2319
13.2263
15.9672
17.5473
18.4682
19.3816
2.94227
2.98629
3.01622
3.0433
3.0612
3.0834
3.09869
3.10824
3.1213
3.14293
3.17904
3.23792
3.33274
3.49281
3.80597
4.55677
6.30077
9.17266
11.9901
15.026
17.0152
17.9192
18.6489
2.91022
2.96204
2.9895
3.01976
3.03542
3.059
3.07123
3.08408
3.09772
3.11736
3.14883
3.20032
3.2843
3.42386
3.68189
4.25322
5.52367
7.97811
10.5403
13.904
16.0406
17.2468
18.0576
2.87398
2.93486
2.95876
2.99318
3.0099
3.03364
3.04335
3.05799
3.07338
3.09135
3.11895
3.16347
3.23647
3.35642
3.56755
3.99885
4.90632
6.78974
9.00537
12.5712
14.9385
16.1848
17.086
2.84035
2.89899
2.91905
2.95745
2.9774
3.0004
3.00863
3.02369
3.04027
3.0568
3.08073
3.11896
3.18066
3.28117
3.45163
3.77536
4.41717
5.73396
7.58443
10.8721
13.8602
15.1894
16.0248
2.81027
2.8614
2.87965
2.92024
2.94418
2.96621
2.97447
2.9897
3.00659
3.0222
3.04322
3.07573
3.12792
3.21018
3.34552
3.58726
4.04176
4.92665
6.37826
9.12255
12.5014
14.2418
15.1227
2.77132
2.81436
2.83341
2.87341
2.90053
2.9211
2.93031
2.94509
2.96113
2.97577
2.99408
3.02126
3.06335
3.13015
3.23557
3.41452
3.73474
4.33209
5.38871
7.37034
11.023
13.2273
14.2615
2.72932
2.76789
2.78976
2.82706
2.85639
2.87571
2.88662
2.90095
2.91608
2.93016
2.94653
2.96984
3.0039
3.05563
3.13656
3.26956
3.4962
3.90055
4.6354
6.07737
9.37466
12.1842
13.2404
2.67303
2.71008
2.73502
2.76806
2.79812
2.8158
2.82802
2.84148
2.85509
2.86815
2.88245
2.90166
2.92958
2.96922
3.02768
3.12341
3.28362
3.5591
4.05337
5.05241
7.60477
11.0713
12.4246
2.61554
2.65478
2.68218
2.71116
2.74105
2.75774
2.77112
2.7843
2.79692
2.8094
2.82255
2.83856
2.86137
2.89416
2.93723
3.00391
3.11484
3.30214
3.63163
4.29392
6.0388
9.75567
11.4894
2.54232
2.5836
2.61174
2.63676
2.66494
2.68014
2.69371
2.706
2.71709
2.72802
2.7396
2.7527
2.7695
2.79546
2.8299
2.87481
2.94961
3.07742
3.29326
3.71508
4.86505
8.29892
10.1662
2.47329
2.51787
2.54558
2.56794
2.59418
2.60876
2.62248
2.63476
2.64527
2.65559
2.6659
2.6779
2.69105
2.71108
2.73858
2.77478
2.82396
2.91162
3.05307
3.31847
4.01552
6.49715
9.03473
2.38527
2.42962
2.45513
2.47459
2.49742
2.51032
2.52296
2.53405
2.54306
2.55167
2.56001
2.56937
2.57941
2.59289
2.6139
2.6402
2.67676
2.73495
2.83421
3.00045
3.39847
4.89501
8.2497
2.30848
2.35375
2.37663
2.39458
2.41484
2.42698
2.43907
2.45018
2.45911
2.46716
2.47484
2.483
2.49237
2.5018
2.51791
2.53781
2.56466
2.60683
2.68626
2.79382
3.02176
3.85654
6.57379
2.20482
2.2454
2.26401
2.2789
2.29485
2.30455
2.31408
2.32306
2.33044
2.33663
2.34204
2.34693
2.35438
2.36051
2.37101
2.38434
2.40236
2.43106
2.4861
2.5752
2.70756
3.12468
4.75622
2.12426
2.164
2.17901
2.19257
2.20631
2.21507
2.22367
2.23201
2.23924
2.24569
2.25152
2.25532
2.26137
2.26677
2.27485
2.28496
2.29772
2.3174
2.3534
2.42538
2.52667
2.7552
3.62864
2.00238
2.03235
2.04136
2.04987
2.05843
2.06375
2.06858
2.07357
2.07774
2.08157
2.0855
2.0877
2.09076
2.09372
2.0983
2.10456
2.11215
2.12344
2.14371
2.18415
2.26247
2.39446
2.82235
1.92392
1.95276
1.95934
1.96868
1.97656
1.98138
1.98543
1.98975
1.99338
1.99676
2.00041
2.00268
2.00528
2.00777
2.01147
2.01659
2.02274
2.03216
2.04592
2.08047
2.14102
2.25568
2.5053
1.76596
1.77822
1.77558
1.77265
1.77169
1.77097
1.77001
1.76981
1.76966
1.76943
1.76991
1.77028
1.77064
1.77103
1.77188
1.77356
1.7763
1.77956
1.787
1.79338
1.82545
1.87884
1.99021
3.08215
2.75854
2.57244
2.45338
2.38054
2.32915
2.29283
2.26397
2.24821
2.23447
2.22962
2.22563
2.22823
2.23683
2.25605
2.29209
2.35071
2.42948
2.55372
2.63929
2.77101
2.84554
2.94382
3.09263
2.768
2.5821
2.46914
2.39526
2.33926
2.30056
2.26941
2.25355
2.23832
2.23358
2.22863
2.23113
2.23935
2.25824
2.29285
2.34962
2.4322
2.55614
2.63978
2.76631
2.84425
2.94209
3.10713
2.79208
2.60575
2.48515
2.40474
2.34667
2.30648
2.275
2.25846
2.24214
2.23666
2.23027
2.23246
2.24038
2.2589
2.29096
2.34453
2.42527
2.54524
2.63355
2.77134
2.85065
2.95147
3.1211
2.804
2.61536
2.49558
2.41668
2.35366
2.31268
2.27875
2.26237
2.24582
2.23976
2.23246
2.23451
2.24173
2.25909
2.28948
2.34769
2.42516
2.55005
2.63807
2.77103
2.85435
2.95824
3.13162
2.82631
2.6449
2.5177
2.42999
2.36267
2.32141
2.28723
2.27052
2.25151
2.24326
2.23415
2.23578
2.24178
2.26055
2.28808
2.35529
2.42995
2.54664
2.63224
2.76863
2.84328
2.9636
3.14298
2.84621
2.6534
2.52222
2.43259
2.36661
2.32645
2.29205
2.27346
2.25333
2.24424
2.23486
2.2362
2.24079
2.26324
2.29109
2.36
2.43245
2.5527
2.64098
2.77848
2.85464
2.97099
3.1523
2.85351
2.66497
2.53234
2.4468
2.37953
2.33732
2.2991
2.27804
2.25661
2.24626
2.23654
2.23795
2.24172
2.26905
2.29545
2.36686
2.4398
2.55621
2.64946
2.78767
2.87385
3.00043
3.15206
2.8547
2.66469
2.53295
2.44632
2.37846
2.33622
2.29813
2.2772
2.25598
2.24577
2.23635
2.23798
2.24196
2.26983
2.29681
2.37214
2.44105
2.55483
2.64511
2.78044
2.86279
2.98184
2.90947
2.57637
2.42322
2.33667
2.28735
2.25557
2.23996
2.22261
2.21667
2.20859
2.20715
2.2079
2.2139
2.22979
2.26111
2.31735
2.41064
2.56414
2.74265
2.99708
3.19213
3.39963
3.68123
2.9229
2.58351
2.42731
2.34059
2.29154
2.25841
2.24224
2.22488
2.21828
2.2097
2.20836
2.20851
2.21432
2.2304
2.2602
2.31443
2.40449
2.55081
2.72235
2.96142
3.13371
3.33648
3.58622
2.92473
2.58988
2.43513
2.34653
2.29703
2.26259
2.24578
2.22741
2.21994
2.21131
2.20925
2.20898
2.2146
2.22979
2.25848
2.30972
2.39512
2.53168
2.70385
2.92261
3.0827
3.2913
3.51743
2.93863
2.59824
2.44016
2.35024
2.3011
2.26603
2.248
2.22974
2.22152
2.21248
2.21033
2.20976
2.2151
2.23036
2.25782
2.30736
2.38916
2.51746
2.68442
2.881
3.02945
3.23409
3.42577
2.94207
2.60567
2.44927
2.35769
2.30708
2.27067
2.25124
2.23211
2.22278
2.21366
2.21115
2.21037
2.21551
2.22982
2.25663
2.30425
2.382
2.50217
2.67406
2.84363
2.99026
3.18438
3.35168
2.95739
2.61576
2.45512
2.36187
2.31129
2.27445
2.25391
2.23466
2.22468
2.21503
2.21219
2.21116
2.21603
2.23038
2.2568
2.30537
2.37653
2.48893
2.65719
2.80177
2.95165
3.13499
3.28532
2.96219
2.62453
2.4656
2.37086
2.31781
2.27968
2.25706
2.23685
2.22584
2.21623
2.21303
2.21209
2.21675
2.23033
2.25743
2.30501
2.37387
2.47985
2.64219
2.75883
2.9168
3.07638
3.20776
2.97915
2.63701
2.47262
2.37581
2.32219
2.28357
2.25995
2.23945
2.22776
2.21757
2.21424
2.21313
2.21757
2.23072
2.2573
2.30379
2.37169
2.47335
2.62526
2.7349
2.90191
3.03273
3.16336
2.98508
2.6473
2.4842
2.38653
2.32982
2.28922
2.26369
2.24211
2.22961
2.21928
2.21544
2.21429
2.21849
2.23097
2.25545
2.2985
2.36953
2.46508
2.60632
2.70877
2.86735
2.98017
3.10386
3.00379
2.66254
2.49296
2.39221
2.33432
2.29361
2.26652
2.24447
2.23129
2.22056
2.21678
2.21564
2.21963
2.23119
2.25565
2.29571
2.3691
2.45952
2.59516
2.69504
2.85142
2.93625
3.06605
3.01046
2.67423
2.50586
2.40472
2.34326
2.2993
2.27108
2.24799
2.23402
2.22275
2.21867
2.21717
2.22095
2.23143
2.25558
2.29455
2.3573
2.45012
2.58426
2.67788
2.82024
2.90977
3.03905
3.03071
2.69234
2.51639
2.41095
2.34803
2.30465
2.27422
2.25024
2.23595
2.22434
2.22026
2.21872
2.22234
2.23277
2.2549
2.29319
2.3533
2.44266
2.57693
2.66683
2.80152
2.88678
3.0119
3.03769
2.70436
2.53095
2.42481
2.35827
2.31074
2.27932
2.25426
2.23895
2.22667
2.22277
2.22052
2.22388
2.23387
2.25608
2.29176
2.35084
2.43827
2.56919
2.65849
2.79062
2.88092
2.98685
3.05843
2.72591
2.54298
2.43144
2.36326
2.31626
2.28304
2.25666
2.24155
2.22882
2.22462
2.22203
2.22516
2.23459
2.25583
2.29096
2.34901
2.43351
2.56116
2.64802
2.77926
2.86201
2.96983
3.06561
2.73603
2.55785
2.44616
2.37474
2.32391
2.28866
2.26089
2.24476
2.23137
2.22763
2.22411
2.22692
2.23589
2.25626
2.29123
2.34827
2.43079
2.55672
2.64614
2.77841
2.86002
2.96232
2.81582
2.48231
2.35135
2.28919
2.27905
2.31184
2.38907
2.43588
2.52462
2.63053
2.72019
2.7886
2.88002
2.99559
3.13113
3.29136
3.48557
3.76239
4.07848
4.42698
4.83812
5.29009
5.69027
2.82015
2.48828
2.35556
2.28714
2.26313
2.28257
2.33881
2.37917
2.45681
2.56515
2.65497
2.72627
2.81818
2.93537
3.0761
3.24376
3.44639
3.72856
4.05441
4.38696
4.80875
5.25891
5.65451
2.82115
2.49432
2.35892
2.28126
2.24883
2.25589
2.29453
2.32757
2.39377
2.50067
2.59093
2.66099
2.75507
2.8761
3.02274
3.19408
3.39889
3.68153
4.00898
4.35071
4.76191
5.22508
5.62301
2.82532
2.49939
2.36328
2.2838
2.24571
2.23873
2.25869
2.28218
2.33717
2.43683
2.52523
2.59177
2.68577
2.80659
2.95816
3.13569
3.34391
3.62951
3.96903
4.30709
4.72515
5.19019
5.58756
2.82717
2.50441
2.36768
2.28662
2.24639
2.22948
2.23508
2.24922
2.28978
2.3782
2.46224
2.52759
2.61676
2.73812
2.8932
3.07332
3.28743
3.5737
3.9202
4.25522
4.67372
5.1458
5.54084
2.83156
2.50762
2.37052
2.28897
2.24666
2.2214
2.21375
2.21745
2.24884
2.3244
2.40113
2.4588
2.54539
2.6637
2.82035
3.0049
3.21992
3.50842
3.86414
4.20584
4.62812
5.1064
5.50001
2.8339
2.51072
2.37441
2.29312
2.24989
2.22192
2.208
2.20253
2.22123
2.27997
2.348
2.40236
2.47931
2.59272
2.74854
2.93247
3.15374
3.43819
3.80433
4.14243
4.56795
5.05037
5.44044
2.83836
2.51344
2.37655
2.29535
2.25207
2.22212
2.20355
2.18972
2.19889
2.24198
2.30013
2.34432
2.41492
2.52132
2.67365
2.85811
3.07823
3.36425
3.73717
4.08069
4.51
5.00304
5.38702
2.8408
2.51562
2.37858
2.29867
2.25469
2.22493
2.20437
2.18863
2.18782
2.21729
2.26208
2.30165
2.36053
2.45688
2.60187
2.78108
3.00533
3.2829
3.66371
4.01084
4.44146
4.93658
5.31769
2.84493
2.51814
2.38062
2.30133
2.25712
2.22734
2.207
2.18861
2.18227
2.19702
2.23239
2.26161
2.31247
2.39782
2.53355
2.70787
2.92839
3.20361
3.58843
3.93648
4.36825
4.87774
5.24837
2.84777
2.52079
2.38227
2.30387
2.2597
2.22928
2.20956
2.1911
2.18225
2.19031
2.21162
2.23561
2.27499
2.34852
2.47073
2.63488
2.85472
3.12023
3.5062
3.86248
4.29446
4.80215
5.17006
2.85132
2.52325
2.38372
2.30594
2.26107
2.2315
2.21246
2.194
2.18416
2.18669
2.19834
2.21467
2.24741