/*--------------------------------*- C++ -*----------------------------------*\
  =========                 |
  \\      /  F ield         | OpenFOAM: The Open Source CFD Toolbox
   \\    /   O peration     | Website:  https://openfoam.org
    \\  /    A nd           | Version:  7
     \\/     M anipulation  |
\*---------------------------------------------------------------------------*/
FoamFile
{
    version     2.0;
    format      ascii;
    class       volScalarField;
    location    "73";
    object      p;
}
// * * * * * * * * * * * * * * * * * * * * * * * * * * * * * * * * * * * * * //

dimensions      [0 2 -2 0 0 0 0];

internalField   nonuniform List<scalar> 
12842
(
0.126666
0.125277
0.106867
0.0736978
0.0288507
-0.0283983
-0.101471
-0.193114
-0.301485
-0.417309
-0.522909
-0.593567
-0.600606
-0.515477
-0.31497
0.012684
0.4646
1.02217
1.65314
2.3169
2.97314
3.58534
4.13168
0.0262459
0.0157753
-0.0206183
-0.0839974
-0.172582
-0.290399
-0.446886
-0.65178
-0.90948
-1.21487
-1.55194
-1.89436
-2.20766
-2.45266
-2.59058
-2.59023
-2.43382
-2.12171
-1.67394
-1.12765
-0.527712
0.0752609
0.648724
-0.0489801
-0.0709916
-0.123319
-0.213894
-0.340966
-0.5121
-0.743971
-1.05318
-1.4496
-1.93137
-2.48382
-3.07941
-3.6793
-4.23598
-4.69819
-5.01877
-5.16249
-5.11379
-4.88113
-4.49736
-4.00786
-3.47441
-2.93222
-0.105585
-0.136874
-0.204199
-0.320273
-0.481395
-0.69991
-1.00127
-1.40812
-1.93509
-2.58269
-3.33757
-4.17144
-5.04258
-5.89733
-6.67467
-7.31426
-7.76577
-7.99925
-8.01159
-7.82981
-7.49682
-7.08176
-6.61748
-0.148946
-0.184602
-0.267296
-0.406958
-0.597078
-0.857151
-1.22247
-1.72002
-2.36877
-3.17091
-4.11489
-5.17247
-6.30096
-7.44293
-8.53018
-9.49149
-10.263
-10.8008
-11.0893
-11.1478
-11.0128
-10.7588
-10.4107
-0.182451
-0.217634
-0.316823
-0.476866
-0.689966
-0.985403
-1.40813
-1.98702
-2.74574
-3.68756
-4.80378
-6.06728
-7.43709
-8.85458
-10.2471
-11.5345
-12.6404
-13.507
-14.1042
-14.441
-14.544
-14.4906
-14.2939
-0.208301
-0.239755
-0.356413
-0.532131
-0.761684
-1.08611
-1.55823
-2.20648
-3.06024
-4.12323
-5.3911
-6.83927
-8.43172
-10.1114
-11.8039
-13.4223
-14.8777
-16.0982
-17.0373
-17.6913
-18.0724
-18.2601
-18.25
-0.228039
-0.254461
-0.388689
-0.574479
-0.814483
-1.1617
-1.67374
-2.37732
-3.30901
-4.47254
-5.86974
-7.47999
-9.27553
-11.203
-13.1888
-15.1402
-16.9567
-18.5521
-19.8611
-20.8668
-21.563
-22.0317
-22.2431
-0.24427
-0.264365
-0.414271
-0.60286
-0.846793
-1.209
-1.74716
-2.48699
-3.4713
-4.70367
-6.19198
-7.92094
-9.87275
-11.9992
-14.229
-16.4652
-18.5973
-20.527
-22.1714
-23.5037
-24.4956
-25.2422
-25.666
-0.260997
-0.273434
-0.439028
-0.625957
-0.872298
-1.24722
-1.80453
-2.5721
-3.59581
-4.8803
-6.43724
-8.25757
-10.3323
-12.6182
-15.0466
-17.5176
-19.9127
-22.1248
-24.0575
-25.6757
-26.9338
-27.9297
-28.5675
-0.274021
-0.281131
-0.461516
-0.644016
-0.894154
-1.28178
-1.85555
-2.64917
-3.70877
-5.04212
-6.66319
-8.57076
-10.764
-13.2048
-15.8273
-18.5295
-21.1866
-23.6845
-25.915
-27.8364
-29.3866
-30.6629
-31.5535
-0.283547
-0.287813
-0.480132
-0.655915
-0.911319
-1.31017
-1.89698
-2.7144
-3.80567
-5.18428
-6.86479
-8.85575
-11.1633
-13.7551
-16.5678
-19.4984
-22.4172
-25.2058
-27.7453
-29.9887
-31.8574
-33.4448
-34.6198
-0.290961
-0.293974
-0.494098
-0.66215
-0.923959
-1.33149
-1.92799
-2.76683
-3.88554
-5.30589
-7.04145
-9.1124
-11.5307
-14.2701
-17.2702
-20.4278
-23.6103
-26.6963
-29.558
-32.143
-34.3552
-36.2804
-37.7683
-0.297268
-0.299631
-0.503114
-0.664198
-0.933064
-1.34654
-1.95024
-2.80868
-3.95142
-5.41088
-7.19807
-9.34646
-11.8724
-14.7563
-17.941
-21.3244
-24.7721
-28.1616
-31.3564
-34.2991
-36.8743
-39.1579
-40.9823
-0.303123
-0.304412
-0.507332
-0.66381
-0.939587
-1.35661
-1.96604
-2.84278
-4.00703
-5.50375
-7.33989
-9.56352
-12.1938
-15.2188
-18.5845
-22.191
-25.9039
-29.6006
-33.1358
-36.4465
-39.3974
-42.0518
-44.228
-0.308941
-0.307867
-0.507501
-0.662573
-0.944114
-1.36282
-1.9772
-2.87108
-4.05489
-5.58721
-7.46977
-9.76603
-12.4966
-15.6578
-19.1994
-23.0251
-27.0009
-31.0047
-34.8825
-38.5639
-41.8935
-44.9202
-47.4512
-0.315009
-0.309575
-0.504815
-0.661636
-0.946886
-1.36599
-1.9848
-2.89448
-4.09605
-5.662
-7.58803
-9.95333
-12.7787
-16.0701
-19.7809
-23.8196
-28.0534
-32.3604
-36.5761
-40.6217
-44.321
-47.7071
-50.5813
-0.321398
-0.309255
-0.500659
-0.661546
-0.947927
-1.36666
-1.98932
-2.91311
-4.13054
-5.72759
-7.69348
-10.1231
-13.0364
-16.4501
-20.3216
-24.5651
-29.0485
-33.6488
-38.1891
-42.5803
-46.6252
-50.3409
-53.5277
-0.328073
-0.306847
-0.496319
-0.662339
-0.947261
-1.36525
-1.99098
-2.92685
-4.15811
-5.78314
-7.78464
-10.2727
-13.2659
-16.7928
-20.8146
-25.2515
-29.971
-34.8466
-39.6869
-44.3896
-48.7374
-52.733
-56.1841
-0.334878
-0.302564
-0.49281
-0.663681
-0.944972
-1.36206
-1.9899
-2.93567
-4.17866
-5.82819
-7.86067
-10.4006
-13.465
-17.0947
-21.2542
-25.869
-30.8045
-35.9277
-41.0307
-45.9958
-50.59
-54.7993
-58.4488
-0.341382
-0.296923
-0.490702
-0.665122
-0.941375
-1.3575
-1.98629
-2.93966
-4.19221
-5.86245
-7.92098
-10.5057
-13.6315
-17.3519
-21.6335
-26.4062
-31.5302
-36.8628
-42.1789
-47.3416
-52.1089
-56.4455
-60.2029
-0.347249
-0.290448
-0.490278
-0.66611
-0.936471
-1.35143
-1.97998
-2.93888
-4.19896
-5.88607
-7.9654
-10.587
-13.7634
-17.5607
-21.9454
-26.8501
-32.127
-37.6195
-43.0848
-48.3647
-53.2157
-57.581
-61.3441
-0.35171
-0.284039
-0.491131
-0.666469
-0.9311
-1.34454
-1.97154
-2.93372
-4.19915
-5.89907
-7.9939
-10.6441
-13.8593
-17.717
-22.1819
-27.1862
-32.5709
-38.1622
-43.7001
-49.0055
-53.8405
-58.1365
-61.8078
-0.35395
-0.278177
-0.493367
-0.664999
-0.924374
-1.33643
-1.96216
-2.92692
-4.19679
-5.90479
-8.00861
-10.6763
-13.9154
-17.8131
-22.3302
-27.3962
-32.8371
-38.4593
-43.9877
-49.2251
-53.9455
-58.0785
-61.568
-0.359815
-0.276194
-0.498123
-0.664803
-0.920269
-1.33155
-1.95725
-2.92446
-4.19856
-5.911
-8.01947
-10.6958
-13.947
-17.8664
-22.4077
-27.4928
-32.9295
-38.5017
-43.9239
-48.9895
-53.4922
-57.3733
-60.6145
-0.363215
-0.27496
-0.502685
-0.664164
-0.917571
-1.32968
-1.95825
-2.9307
-4.21271
-5.93136
-8.04576
-10.7279
-13.9831
-17.9069
-22.4423
-27.4991
-32.8666
-38.3083
-43.5363
-48.348
-52.5642
-56.1437
-59.1042
-0.363591
-0.274106
-0.505788
-0.66225
-0.915282
-1.32925
-1.96248
-2.94126
-4.23227
-5.95634
-8.07498
-10.7572
-14.0065
-17.9156
-22.4144
-27.3983
-32.6392
-37.8856
-42.8553
-47.3598
-51.253
-54.5104
-57.1764
-0.362222
-0.273736
-0.507292
-0.659264
-0.912971
-1.32911
-1.96742
-2.95195
-4.25052
-5.97707
-8.09554
-10.7705
-14.0019
-17.8771
-22.3101
-27.1804
-32.2456
-37.2462
-41.9128
-46.0764
-49.6283
-52.5618
-54.936
-0.359839
-0.273734
-0.507396
-0.655995
-0.911179
-1.32963
-1.97294
-2.9622
-4.26612
-5.99212
-8.10566
-10.7663
-13.9683
-17.791
-22.1309
-26.8508
-31.6976
-36.4112
-40.7426
-44.5454
-47.7481
-50.3628
-52.4569
-0.356925
-0.273915
-0.506579
-0.653318
-0.910679
-1.33166
-1.97974
-2.97287
-4.28011
-6.00329
-8.10787
-10.7481
-13.91
-17.6628
-21.8839
-26.4202
-31.0121
-35.405
-39.3789
-42.8138
-45.6676
-47.97
-49.7968
-0.354198
-0.274251
-0.505485
-0.651908
-0.91189
-1.33552
-1.98792
-2.98409
-4.29282
-6.0114
-8.10354
-10.7179
-13.8295
-17.496
-21.5748
-25.8983
-30.2055
-34.2527
-37.8551
-40.9233
-43.4357
-45.4379
-47.0144
-0.352464
-0.274832
-0.504702
-0.651997
-0.914649
-1.34076
-1.9967
-2.99488
-4.30329
-6.01562
-8.09204
-10.6752
-13.7267
-17.2913
-21.2065
-25.2923
-29.2921
-32.9773
-36.2015
-38.9081
-41.0934
-42.8166
-44.1648
-0.352199
-0.275647
-0.504504
-0.653347
-0.918305
-1.34639
-2.00477
-3.0038
-4.31015
-6.01457
-8.07212
-10.6187
-13.6008
-17.0488
-20.7815
-24.6095
-28.2852
-31.6006
-34.4461
-36.7988
-38.6743
-40.1389
-41.2759
-0.353396
-0.276541
-0.504843
-0.655362
-0.921963
-1.3513
-2.01091
-3.00966
-4.31243
-6.0074
-8.04313
-10.5481
-13.4516
-16.7698
-20.3037
-23.8577
-27.1983
-30.1424
-32.6141
-34.6238
-36.2058
-37.4267
-38.3686
-0.355664
-0.277262
-0.505445
-0.657374
-0.924812
-1.35462
-2.01438
-3.01195
-4.31001
-5.99419
-8.00547
-10.4639
-13.2805
-16.457
-19.7782
-23.0467
-26.0457
-28.6222
-30.7299
-32.4115
-33.7159
-34.7035
-35.4589
-0.358482
-0.277602
-0.506027
-0.658837
-0.926348
-1.35596
-2.01509
-3.01092
-4.30359
-5.97594
-7.96039
-10.3676
-13.0895
-16.1141
-19.2113
-22.1868
-24.842
-27.0582
-28.8159
-30.1844
-31.2237
-31.986
-32.5561
-0.361362
-0.277447
-0.506375
-0.659482
-0.926461
-1.35546
-2.01354
-3.00746
-4.29449
-5.95413
-7.90958
-10.2611
-12.8813
-15.7452
-18.6096
-21.2886
-23.6019
-25.468
-26.8923
-27.9613
-28.7465
-29.3011
-29.7018
-0.363969
-0.276814
-0.506424
-0.659281
-0.925359
-1.35357
-2.01058
-3.00272
-4.28411
-5.93029
-7.8546
-10.1461
-12.6581
-15.3539
-17.9792
-20.3617
-22.3393
-23.8673
-24.9774
-25.7633
-26.31
-26.6788
-26.9322
-0.366117
-0.275793
-0.506198
-0.658403
-0.923444
-1.35094
-2.00712
-2.99779
-4.27364
-5.90554
-7.79652
-10.024
-12.4217
-14.9438
-17.3263
-19.4156
-21.0675
-22.2719
-23.0885
-23.6124
-23.9389
-24.1383
-24.2603
-0.367766
-0.274536
-0.505802
-0.657086
-0.921152
-1.34817
-2.00387
-2.9934
-4.26373
-5.88038
-7.73574
-9.89506
-12.1733
-14.5176
-16.6559
-18.4579
-19.7986
-20.6952
-21.2393
-21.5255
-21.6486
-21.6858
-21.6831
-0.368957
-0.273185
-0.505338
-0.655583
-0.918858
-1.3457
-2.0013
-2.98989
-4.25451
-5.85477
-7.67212
-9.75969
-11.9141
-14.0783
-15.9737
-17.4965
-18.5439
-19.1495
-19.4404
-19.514
-19.4465
-19.3276
-19.212
-0.369793
-0.271871
-0.504904
-0.654079
-0.916804
-1.34375
-1.99952
-2.98718
-4.24565
-5.82818
-7.6051
-9.61766
-11.6448
-13.6284
-15.2846
-16.5378
-17.3122
-17.6463
-17.7
-17.5867
-17.3538
-17.0881
-16.8722
-0.370377
-0.270674
-0.504548
-0.652699
-0.915112
-1.34236
-1.99843
-2.98493
-4.23659
-5.79993
-7.53411
-9.46899
-11.3665
-13.1708
-14.5937
-15.5888
-16.1116
-16.1988
-16.0321
-15.7545
-15.3957
-15.0073
-14.6826
-0.37082
-0.269647
-0.504293
-0.651481
-0.913776
-1.34143
-1.99774
-2.98269
-4.22666
-5.76934
-7.45861
-9.31371
-11.0803
-12.7078
-13.9053
-14.6557
-14.9475
-14.8202
-14.455
-14.0157
-13.5476
-13.0702
-12.6509
-0.371197
-0.268793
-0.504116
-0.650424
-0.91273
-1.34079
-1.99716
-2.98002
-4.21534
-5.73595
-7.37843
-9.1523
-10.7877
-12.2426
-13.2237
-13.7457
-13.8258
-13.5182
-12.9764
-12.3753
-11.8129
-11.2884
-10.8144
-0.371578
-0.268098
-0.50399
-0.649475
-0.911858
-1.34022
-1.99638
-2.97654
-4.20225
-5.69952
-7.2936
-8.98537
-10.49
-11.7776
-12.5519
-12.8655
-12.75
-12.2869
-11.6017
-10.8713
-10.2465
-9.68521
-9.16724
-0.371985
-0.267524
-0.503866
-0.648582
-0.911049
-1.33958
-1.9952
-2.97207
-4.18728
-5.66017
-7.20457
-8.81393
-10.189
-11.3159
-11.8927
-12.0208
-11.723
-11.1366
-10.3928
-9.59009
-8.87036
-8.25069
-7.65768
-0.372426
-0.267006
-0.503691
-0.647664
-0.910187
-1.33871
-1.99348
-2.96657
-4.17053
-5.61826
-7.11202
-8.63913
-9.88616
-10.8601
-11.2477
-11.2157
-10.7558
-10.0811
-9.3091
-8.41296
-7.5724
-6.88311
-6.26021
-0.372651
-0.266492
-0.503394
-0.646652
-0.909195
-1.33763
-1.99149
-2.96084
-4.15375
-5.57707
-7.02166
-8.47009
-9.59542
-10.4297
-10.6409
-10.4755
-9.88114
-9.1238
-8.26046
-7.29698
-6.43854
-5.78231
-5.1801
-0.373956
-0.266495
-0.5035
-0.645794
-0.908223
-1.3366
-1.99
-2.95681
-4.14092
-5.54378
-6.94583
-8.32596
-9.34563
-10.0618
-10.1193
-9.84409
-9.16334
-8.30586
-7.36384
-6.50445
-5.72316
-5.13364
-4.56589
-0.375238
-0.266306
-0.503469
-0.644676
-0.907055
-1.33576
-1.98981
-2.95638
-4.13553
-5.52404
-6.89302
-8.2185
-9.15287
-9.77307
-9.70809
-9.33897
-8.60438
-7.61915
-6.64744
-5.96917
-5.2693
-4.67886
-4.12877
-0.37651
-0.265897
-0.50326
-0.643176
-0.905599
-1.33515
-1.99122
-2.96022
-4.13846
-5.51862
-6.86304
-8.1459
-9.01201
-9.55181
-9.39768
-8.93414
-8.14344
-7.07137
-6.04838
-5.40578
-4.73714
-4.15781
-3.63078
-0.377872
-0.265361
-0.502884
-0.641294
-0.903883
-1.33489
-1.99443
-2.96846
-4.14939
-5.52631
-6.85261
-8.10226
-8.91257
-9.38153
-9.1681
-8.58597
-7.73988
-6.70026
-5.59176
-4.78659
-4.06974
-3.54409
-3.03563
-0.37923
-0.26471
-0.502295
-0.639016
-0.901952
-1.33512
-1.99962
-2.98111
-4.16767
-5.5452
-6.85744
-8.08012
-8.84176
-9.24375
-8.99036
-8.26249
-7.39541
-6.4699
-5.2514
-4.21553
-3.4115
-2.90599
-2.3666
-0.380447
-0.263926
-0.501472
-0.636455
-0.900002
-1.33607
-2.00683
-2.99763
-4.19178
-5.57218
-6.87231
-8.07136
-8.7876
-9.12342
-8.83667
-7.96033
-7.10632
-6.2595
-4.91985
-3.71345
-2.81543
-2.24724
-1.6383
-0.381437
-0.263036
-0.500439
-0.633716
-0.898218
-1.338
-2.0163
-3.01807
-4.22123
-5.6058
-6.89442
-8.07087
-8.74197
-9.01038
-8.68604
-7.68734
-6.81934
-5.92898
-4.48715
-3.22271
-2.24249
-1.54659
-0.871431
-0.382437
-0.262173
-0.499459
-0.631144
-0.896956
-1.34117
-2.02801
-3.04176
-4.25453
-5.64322
-6.9196
-8.07209
-8.69637
-8.89551
-8.52063
-7.42894
-6.47323
-5.44124
-3.90163
-2.61145
-1.52923
-0.688964
0.0164304
-0.382988
-0.260998
-0.498004
-0.628175
-0.895559
-1.34459
-2.04024
-3.06567
-4.28675
-5.67695
-6.93775
-8.06184
-8.63572
-8.7648
-8.32954
-7.17885
-6.0394
-4.85705
-3.2826
-2.01299
-0.859723
0.0919987
0.786971
-0.383537
-0.260004
-0.496791
-0.625761
-0.895099
-1.34939
-2.05395
-3.09034
-4.31804
-5.70667
-6.94885
-8.04031
-8.56121
-8.62
-8.11047
-6.91627
-5.52398
-4.23801
-2.67143
-1.37004
-0.156483
0.857247
1.50482
-0.384123
-0.25925
-0.495937
-0.624054
-0.895679
-1.35549
-2.06882
-3.11517
-4.34773
-5.73179
-6.95277
-8.00757
-8.47314
-8.46102
-7.86213
-6.62283
-4.9658
-3.6296
-2.08491
-0.677348
0.60013
1.63929
2.17472
-0.38469
-0.258609
-0.495323
-0.622865
-0.896936
-1.36224
-2.0838
-3.1387
-4.37413
-5.75067
-6.94823
-7.9627
-8.37147
-8.28921
-7.59387
-6.30764
-4.43039
-3.07545
-1.54291
-0.0292543
1.29511
2.33341
2.72583
-0.385271
-0.258039
-0.494925
-0.622052
-0.898568
-1.36907
-2.09805
-3.15989
-4.39628
-5.76276
-6.93544
-7.90717
-8.25951
-8.10912
-7.32026
-5.9894
-3.96944
-2.59377
-1.04819
0.516583
1.84198
2.86067
3.1981
-0.385934
-0.257537
-0.49475
-0.621536
-0.900392
-1.37566
-2.11116
-3.17847
-4.41433
-5.76919
-6.9168
-7.84561
-8.14443
-7.92844
-7.05624
-5.68356
-3.60304
-2.1804
-0.590929
0.993246
2.25393
3.23657
3.64669
-0.386714
-0.257086
-0.494747
-0.621156
-0.902159
-1.38169
-2.12284
-3.19445
-4.42886
-5.77154
-6.89514
-7.78293
-8.03337
-7.75432
-6.81336
-5.39944
-3.32511
-1.82462
-0.176189
1.43272
2.59023
3.53999
4.07349
-0.387572
-0.256617
-0.494781
-0.620709
-0.903607
-1.38687
-2.13294
-3.20802
-4.4406
-5.77143
-6.87298
-7.72311
-7.93175
-7.59272
-6.60069
-5.14471
-3.11731
-1.52196
0.165303
1.79256
2.87713
3.76225
4.37078
-0.388458
-0.256081
-0.494727
-0.620004
-0.904524
-1.39105
-2.14147
-3.21955
-4.45037
-5.77027
-6.85212
-7.66863
-7.84268
-7.44801
-6.4246
-4.92777
-2.96595
-1.27963
0.407971
2.00426
3.08842
3.91448
4.55296
-0.38932
-0.255446
-0.494499
-0.618969
-0.904871
-1.39429
-2.14872
-3.22968
-4.45918
-5.76947
-6.83413
-7.62115
-7.76804
-7.32398
-6.28995
-4.75627
-2.8646
-1.10891
0.544656
2.05392
3.18778
3.94618
4.65798
-0.390138
-0.254728
-0.49409
-0.617618
-0.90473
-1.39684
-2.15516
-3.23914
-4.46796
-5.77006
-6.81979
-7.58112
-7.708
-7.22239
-6.19829
-4.63505
-2.80059
-1.00472
0.585884
1.98643
3.17821
3.87537
4.66228
-0.3909
-0.253954
-0.49353
-0.616051
-0.904288
-1.39901
-2.16127
-3.2486
-4.47742
-5.77261
-6.80922
-7.5479
-7.66099
-7.14243
-6.14639
-4.56766
-2.77362
-0.959104
0.547933
1.8408
3.05966
3.73444
4.55711
-0.391613
-0.253166
-0.492879
-0.614372
-0.903721
-1.40109
-2.16744
-3.25844
-4.48776
-5.77689
-6.80135
-7.51918
-7.62299
-7.07917
-6.12456
-4.55014
-2.79547
-0.975635
0.447083
1.63006
2.85913
3.58464
4.38627
-0.392278
-0.252388
-0.492186
-0.612693
-0.903195
-1.4033
-2.17387
-3.26876
-4.49878
-5.78207
-6.7944
-7.49172
-7.58832
-7.02461
-6.11829
-4.56665
-2.86256
-1.05517
0.299634
1.38037
2.5655
3.38363
4.14496
-0.392907
-0.251642
-0.4915
-0.611078
-0.902793
-1.40572
-2.18059
-3.27938
-4.50985
-5.78684
-6.78598
-7.4615
-7.55022
-6.96842
-6.10999
-4.5921
-2.94669
-1.18176
0.126111
1.15326
2.23435
3.06295
3.84527
-0.393499
-0.250931
-0.490838
-0.609575
-0.902564
-1.40837
-2.18749
-3.28993
-4.52022
-5.78981
-6.77383
-7.42495
-7.50248
-6.90047
-6.08253
-4.60171
-3.01314
-1.32305
-0.0395378
0.986267
1.99038
2.763
3.59462
-0.394064
-0.250257
-0.490217
-0.608184
-0.902486
-1.41115
-2.19435
-3.29996
-4.52908
-5.78967
-6.75602
-7.37913
-7.44012
-6.81229
-6.0217
-4.5776
-3.03706
-1.44235
-0.168962
0.87565
1.8402
2.57585
3.40798
-0.394598
-0.249606
-0.489626
-0.606903
-0.90253
-1.41398
-2.20096
-3.30907
-4.53578
-5.78554
-6.73143
-7.32256
-7.36059
-6.69899
-5.91895
-4.51111
-3.00655
-1.51039
-0.249358
0.811778
1.76204
2.45016
3.20249
-0.395105
-0.248974
-0.489062
-0.605698
-0.90263
-1.41673
-2.20708
-3.31688
-4.53986
-5.77686
-6.69958
-7.25491
-7.26352
-6.55953
-5.77151
-4.40087
-2.91989
-1.50689
-0.272078
0.787924
1.72463
2.38312
3.02083
-0.395579
-0.248343
-0.488504
-0.604551
-0.902743
-1.41931
-2.21257
-3.32319
-4.54109
-5.76356
-6.66081
-7.1772
-7.15092
-6.39703
-5.58296
-4.25063
-2.78408
-1.42684
-0.225311
0.806842
1.69517
2.38722
2.93571
-0.396023
-0.24771
-0.487946
-0.603427
-0.902809
-1.42162
-2.21729
-3.32783
-4.53941
-5.74581
-6.61582
-7.0911
-7.02618
-6.21747
-5.36245
-4.06874
-2.61225
-1.28767
-0.112766
0.880645
1.70215
2.43107
2.93023
-0.396426
-0.247062
-0.487368
-0.602314
-0.902807
-1.42363
-2.22119
-3.3308
-4.53492
-5.72404
-6.56572
-6.99888
-6.8937
-6.02878
-5.12246
-3.86396
-2.41843
-1.11011
0.0456788
0.998611
1.77041
2.45247
2.92246
-0.39679
-0.246401
-0.48677
-0.60119
-0.902701
-1.42529
-2.22423
-3.33208
-4.52777
-5.69868
-6.51153
-6.90263
-6.75779
-5.83886
-4.87463
-3.64944
-2.21563
-0.906077
0.237825
1.15626
1.87631
2.47551
2.91539
-0.397104
-0.245718
-0.486139
-0.600055
-0.902491
-1.4266
-2.22643
-3.33176
-4.51816
-5.6702
-6.45426
-6.80433
-6.6224
-5.6552
-4.62428
-3.43769
-2.01858
-0.696643
0.439552
1.33953
1.99243
2.52823
2.9219
-0.397371
-0.24502
-0.485477
-0.598896
-0.902162
-1.42754
-2.22779
-3.32988
-4.50623
-5.6389
-6.39455
-6.70531
-6.49036
-5.48476
-4.3834
-3.22631
-1.83814
-0.516972
0.60501
1.49148
2.08634
2.57349
2.92092
-0.397578
-0.244302
-0.484778
-0.597722
-0.901729
-1.42814
-2.22834
-3.3265
-4.49211
-5.60502
-6.33286
-6.60646
-6.36341
-5.33208
-4.17072
-3.01795
-1.68161
-0.391352
0.695505
1.55475
2.1206
2.57349
2.88236
-0.397728
-0.243571
-0.484047
-0.596527
-0.901181
-1.42838
-2.22809
-3.32162
-4.47581
-5.56857
-6.26925
-6.50799
-6.24204
-5.19771
-3.9947
-2.84195
-1.56012
-0.324661
0.702297
1.5184
2.06322
2.49559
2.78139
-0.397807
-0.242826
-0.483278
-0.595322
-0.900538
-1.4283
-2.22705
-3.31527
-4.45734
-5.52953
-6.20363
-6.40976
-6.12593
-5.08011
-3.84863
-2.71595
-1.48414
-0.312321
0.640608
1.40194
1.91899
2.33653
2.61297
-0.397819
-0.242073
-0.482478
-0.594102
-0.899788
-1.42787
-2.2252
-3.30738
-4.43659
-5.48766
-6.13565
-6.31118
-6.01389
-4.97783
-3.72392
-2.62295
-1.45106
-0.347986
0.529174
1.23164
1.72675
2.12431
2.39539
-0.39775
-0.24131
-0.48164
-0.592878
-0.898948
-1.42711
-2.22253
-3.29793
-4.41345
-5.44278
-6.06493
-6.21159
-5.90427
-4.88949
-3.61831
-2.54051
-1.44617
-0.419172
0.387557
1.02892
1.51187
1.88675
2.14728
-0.397603
-0.240543
-0.480769
-0.591642
-0.898002
-1.42598
-2.21899
-3.2868
-4.38775
-5.39456
-5.99097
-6.11021
-5.79512
-4.81279
-3.53395
-2.46742
-1.45766
-0.508349
0.236468
0.813481
1.27992
1.63306
1.87961
-0.397364
-0.23977
-0.479857
-0.590402
-0.896959
-1.42449
-2.21456
-3.27393
-4.35934
-5.34278
-5.91339
-6.00644
-5.68459
-4.74414
-3.4731
-2.41395
-1.47936
-0.605053
0.0844056
0.59938
1.03965
1.37049
1.60364
-0.397036
-0.238996
-0.478908
-0.589149
-0.895798
-1.4226
-2.20916
-3.25918
-4.32802
-5.28715
-5.83177
-5.89979
-5.57117
-4.67933
-3.43515
-2.38655
-1.51152
-0.709503
-0.0713963
0.39148
0.805155
1.11327
1.33576
-0.396603
-0.238216
-0.477913
-0.587888
-0.894523
-1.4203
-2.20275
-3.24245
-4.29365
-5.22748
-5.74591
-5.79006
-5.45396
-4.61434
-3.41512
-2.38476
-1.55749
-0.82196
-0.228354
0.195354
0.587227
0.874111
1.0872
-0.396069
-0.237436
-0.476872
-0.586605
-0.893106
-1.41753
-2.19524
-3.22362
-4.25604
-5.16362
-5.65561
-5.67723
-5.3327
-4.54599
-3.40554
-2.40229
-1.61592
-0.938146
-0.379074
0.0196823
0.39124
0.656536
0.858372
-0.395419
-0.236648
-0.475775
-0.585305
-0.891546
-1.41427
-2.18657
-3.20257
-4.21508
-5.09545
-5.56085
-5.56153
-5.20759
-4.47194
-3.39838
-2.43007
-1.67941
-1.05197
-0.518397
-0.132791
0.217538
0.460902
0.650039
-0.394655
-0.23586
-0.474622
-0.583968
-0.889812
-1.41049
-2.1767
-3.17923
-4.1707
-5.023
-5.46173
-5.44338
-5.0795
-4.39124
-3.38861
-2.45982
-1.74083
-1.16417
-0.649723
-0.268071
0.0619781
0.286887
0.466535
-0.393773
-0.235057
-0.473405
-0.582601
-0.887899
-1.40613
-2.16547
-3.15339
-4.12263
-4.94607
-5.3582
-5.32316
-4.94937
-4.30219
-3.37396
-2.48711
-1.79057
-1.25974
-0.761816
-0.385584
-0.0751401
0.13492
0.306774
-0.392815
-0.234288
-0.472133
-0.581195
-0.885874
-1.40141
-2.15337
-3.12571
-4.07162
-4.8654
-5.25077
-5.20116
-4.81914
-4.2085
-3.35699
-2.50828
-1.82789
-1.37873
-0.904107
-0.503689
-0.206381
-0.00333256
0.165062
-0.392176
-0.23353
-0.470903
-0.579796
-0.883743
-1.39608
-2.1392
-3.09332
-4.01262
-4.77427
-5.13252
-5.07389
-4.6872
-4.0966
-3.3298
-2.54508
-1.84961
-1.36349
-0.90688
-0.546468
-0.302518
-0.121169
0.0343761
-0.389864
-0.231343
-0.467704
-0.576373
-0.878896
-1.38627
-2.11702
-3.04797
-3.93558
-4.66271
-4.99535
-4.93601
-4.56637
-4.01889
-3.34943
-2.6571
-2.02715
-1.59356
-1.17636
-0.814931
-0.554336
-0.361399
-0.201144
-0.38783
-0.229403
-0.464449
-0.572908
-0.873154
-1.37352
-2.08767
-2.98964
-3.83972
-4.52907
-4.83629
-4.77521
-4.42697
-3.92187
-3.33415
-2.74165
-2.19812
-1.81142
-1.43064
-1.08387
-0.818299
-0.617602
-0.451997
-0.38612
-0.228063
-0.461596
-0.570094
-0.867424
-1.35899
-2.05261
-2.91985
-3.72628
-4.37323
-4.65402
-4.58706
-4.25425
-3.7754
-3.23971
-2.72713
-2.24313
-1.87291
-1.52818
-1.22413
-0.986792
-0.798607
-0.640788
-0.384069
-0.22692
-0.45868
-0.567447
-0.861011
-1.34156
-2.01017
-2.83625
-3.59219
-4.19089
-4.44407
-4.37227
-4.05793
-3.60499
-3.10236
-2.63927
-2.19039
-1.83263
-1.52492
-1.26569
-1.06331
-0.89769
-0.756175
-0.381416
-0.225794
-0.45543
-0.564471
-0.853043
-1.3197
-1.95816
-2.73596
-3.43419
-3.9782
-4.20211
-4.12961
-3.84261
-3.42765
-2.95438
-2.52101
-2.10019
-1.75999
-1.48224
-1.25435
-1.07969
-0.935112
-0.808744
-0.37815
-0.224718
-0.451814
-0.560942
-0.842985
-1.29242
-1.89527
-2.61779
-3.25166
-3.73507
-3.92674
-3.85355
-3.59443
-3.22323
-2.78465
-2.37886
-1.98995
-1.67001
-1.41477
-1.20784
-1.0531
-0.924524
-0.812752
-0.374205
-0.223636
-0.447695
-0.556507
-0.830206
-1.25878
-1.82062
-2.48148
-3.04568
-3.46384
-3.61926
-3.53967
-3.29911
-2.96785
-2.57264
-2.20313
-1.85379
-1.55951
-1.3264
-1.13626
-0.995528
-0.880948
-0.783675
-0.369313
-0.2223
-0.442673
-0.550567
-0.8138
-1.21764
-1.73318
-2.32687
-2.81757
-3.16763
-3.28344
-3.19162
-2.96084
-2.66427
-2.31907
-1.99597
-1.69305
-1.43164
-1.22369
-1.05094
-0.923179
-0.821092
-0.734689
-0.363268
-0.220445
-0.436303
-0.542429
-0.792763
-1.1678
-1.63207
-2.1541
-2.56916
-2.85048
-2.92642
-2.82223
-2.60044
-2.33659
-2.04226
-1.76974
-1.51564
-1.29108
-1.10994
-0.957429
-0.842565
-0.750818
-0.673375
-0.355952
-0.217899
-0.428258
-0.531566
-0.766354
-1.10859
-1.51728
-1.96456
-2.30393
-2.51879
-2.55869
-2.44809
-2.24054
-2.00895
-1.76119
-1.53533
-1.32739
-1.1402
-0.987018
-0.85618
-0.752884
-0.67095
-0.601541
-0.347415
-0.214617
-0.418386
-0.517636
-0.734187
-1.04002
-1.39005
-1.76161
-2.02798
-2.18176
-2.19236
-2.08336
-1.89591
-1.69519
-1.48768
-1.30098
-1.13317
-0.980616
-0.854063
-0.745306
-0.654607
-0.582417
-0.520994
-0.337665
-0.210564
-0.406584
-0.500419
-0.69619
-0.962834
-1.25298
-1.5506
-1.74971
-1.85048
-1.83912
-1.73785
-1.57423
-1.40235
-1.22909
-1.0745
-0.939273
-0.816285
-0.713262
-0.625515
-0.549112
-0.48708
-0.433996
-0.326717
-0.205686
-0.392745
-0.479692
-0.652494
-0.87839
-1.10976
-1.33827
-1.47865
-1.53606
-1.50902
-1.41845
-1.28007
-1.13547
-0.991808
-0.862891
-0.753304
-0.654693
-0.57123
-0.500905
-0.438339
-0.38521
-0.339295
-0.314449
-0.199811
-0.376664
-0.455231
-0.603448
-0.788584
-0.964866
-1.13183
-1.22385
-1.24791
-1.2101
-1.13036
-1.01619
-0.896903
-0.779498
-0.671988
-0.581969
-0.50212
-0.433797
-0.376484
-0.32588
-0.280819
-0.240845
-0.300772
-0.19274
-0.358109
-0.426852
-0.549691
-0.695813
-0.823037
-0.937948
-0.992372
-0.992495
-0.947657
-0.877001
-0.783899
-0.6869
-0.592662
-0.503947
-0.42916
-0.363709
-0.307111
-0.259105
-0.217788
-0.180215
-0.145935
-0.285491
-0.184167
-0.336822
-0.394559
-0.49226
-0.602816
-0.68872
-0.761758
-0.788464
-0.772762
-0.723912
-0.659935
-0.583397
-0.504615
-0.429839
-0.358328
-0.296376
-0.242383
-0.195378
-0.154564
-0.119634
-0.0879544
-0.0589034
-0.268546
-0.173845
-0.312673
-0.358647
-0.432597
-0.512379
-0.565462
-0.606339
-0.613531
-0.588484
-0.538465
-0.479328
-0.414944
-0.350118
-0.290318
-0.233876
-0.183653
-0.139691
-0.100998
-0.0667019
-0.036701
-0.00983035
0.0145518
-0.249806
-0.161487
-0.285684
-0.319782
-0.372409
-0.426937
-0.455479
-0.472793
-0.466842
-0.437426
-0.389156
-0.334526
-0.279118
-0.224968
-0.17601
-0.131317
-0.0910954
-0.0559012
-0.0246698
0.00342095
0.028731
0.0514644
0.0721481
-0.229345
-0.146972
-0.256159
-0.278957
-0.313439
-0.34827
-0.359644
-0.360721
-0.346536
-0.316424
-0.27269
-0.223738
-0.175861
-0.130486
-0.0898254
-0.0538861
-0.0216492
0.00655095
0.0315054
0.0540872
0.0748736
0.0939398
0.11127
-0.207214
-0.130258
-0.224643
-0.237371
-0.257226
-0.277401
-0.277792
-0.268758
-0.250234
-0.221876
-0.184679
-0.14313
-0.10271
-0.0652017
-0.0316716
-0.00254334
0.0232222
0.0459741
0.065994
0.0840525
0.100765
0.116444
0.130737
-0.183687
-0.111587
-0.191928
-0.196268
-0.204985
-0.214774
-0.209061
-0.194929
-0.175076
-0.149841
-0.119799
-0.0866998
-0.0541145
-0.0240416
0.00289334
0.0263149
0.0467105
0.0649113
0.0810318
0.0955108
0.108861
0.121533
0.133234
-0.159102
-0.0913768
-0.158949
-0.156824
-0.157617
-0.160484
-0.152211
-0.136785
-0.117813
-0.0962716
-0.0728042
-0.0479057
-0.0231902
-0.000243199
0.0203942
0.0385795
0.0543675
0.0684679
0.081196
0.0927131
0.103281
0.113246
0.122644
-0.133988
-0.0703318
-0.126739
-0.120109
-0.115814
-0.114449
-0.105904
-0.091667
-0.0750409
-0.0572903
-0.0392362
-0.0211401
-0.00342713
0.0131058
0.0280232
0.041349
0.0530913
0.063574
0.0732171
0.0821179
0.0903531
0.098044
0.105417
-0.109015
-0.0493107
-0.0963952
-0.0870983
-0.0801198
-0.0765475
-0.068938
-0.0571522
-0.0435963
-0.0294813
-0.0156452
-0.00249701
0.00988949
0.0213472
0.0316727
0.040949
0.049299
0.0568579
0.0639007
0.0705917
0.0769552
0.0829147
0.0885534
-0.0849089
-0.0293851
-0.0690241
-0.0586808
-0.0509131
-0.046672
-0.0405029
-0.0315787
-0.0213493
-0.0107961
-0.000579904
0.00878686
0.0171771
0.0246436
0.0312306
0.037048
0.0422995
0.0471303
0.0516868
0.0561168
0.0604613
0.0646156
0.0685143
-0.0625669
-0.0116321
-0.0456716
-0.0355572
-0.0283367
-0.0245523
-0.0199635
-0.0136711
-0.00646272
0.000962571
0.00817721
0.0147489
0.0204526
0.0252972
0.0294143
0.0329408
0.0360651
0.0389554
0.0417338
0.0444793
0.0472461
0.0499911
0.0525877
-0.0427509
0.00293508
-0.0270812
-0.0180474
-0.0120885
-0.00951843
-0.00658841
-0.00253441
0.00215524
0.00696323
0.0116407
0.0159213
0.0195973
0.022595
0.025009
0.0269716
0.0286384
0.0301475
0.0316229
0.0331134
0.0346565
0.0362486
0.0377959
-0.0262177
0.0137107
-0.0135916
-0.00608581
-0.00154342
-0.00058118
0.000530383
0.00257945
0.00519273
0.00790417
0.0105421
0.0129724
0.0150837
0.0167786
0.0180916
0.0191031
0.0199319
0.0206605
0.0213777
0.0221319
0.0229317
0.0237734
0.0246329
-0.0135336
0.0199793
-0.00495514
0.00138029
0.00504819
0.00464584
0.0039351
0.00386145
0.00411701
0.00420539
0.00395465
0.00332644
0.0023568
0.00103847
-0.000560583
-0.00234882
-0.00419284
-0.00601446
-0.00774218
-0.00929916
-0.0106097
-0.0116785
-0.0125564
-0.00584891
0.0196356
-0.00153141
0.00340921
0.00719341
0.00703817
0.00651092
0.00684354
0.00799967
0.00949491
0.0110824
0.0126113
0.0141094
0.0155431
0.0169435
0.0182824
0.0195818
0.0208555
0.0221737
0.0235077
0.0247391
0.0257265
0.026492
0.730678
0.729277
0.812492
0.957032
1.15563
1.41949
1.77086
2.24424
2.8747
3.70273
4.76007
6.07761
7.67093
9.54269
11.6678
13.9898
16.4215
18.855
21.1794
23.2977
25.1476
26.6928
27.9648
0.694085
0.705226
0.777426
0.911002
1.0942
1.34032
1.67027
2.11414
2.70558
3.48274
4.47806
5.72012
7.22325
8.98562
10.9787
13.1434
15.3924
17.6211
19.7244
21.6145
23.2377
24.5707
25.647
0.649155
0.669403
0.730492
0.850338
1.01532
1.23778
1.53785
1.94158
2.4799
3.18816
4.09862
5.23841
6.62136
8.24355
10.0753
12.0573
14.1046
16.1171
17.9961
19.6628
21.0706
22.2071
23.1055
0.595192
0.61951
0.669755
0.77232
0.915746
1.10904
1.37079
1.72362
2.19485
2.81642
3.61936
4.62976
5.86174
7.31165
8.95138
10.7247
12.5517
14.3385
15.9942
17.4471
18.6571
19.6192
20.3644
0.531341
0.553642
0.593413
0.67499
0.792202
0.95053
1.16542
1.45611
1.84592
2.36282
3.03574
3.88992
4.94048
6.18618
7.60338
9.14236
10.7312
12.2852
13.7214
14.975
16.0094
16.8235
17.4454
0.455523
0.470704
0.499683
0.557182
0.64253
0.759194
0.918238
1.1349
1.4282
1.82179
2.34184
3.01279
3.85137
4.86065
6.0242
7.30237
8.63494
9.94917
11.1721
12.2451
13.1333
13.8331
14.3664
0.363231
0.370847
0.387455
0.418214
0.465808
0.533054
0.626389
0.756062
0.936257
1.18603
1.52837
1.9868
2.58033
3.31791
4.19304
5.17954
6.23288
7.29595
8.30852
9.21898
9.99337
10.6216
11.1143
0.248804
0.252439
0.253863
0.254769
0.259066
0.268675
0.285482
0.313732
0.361903
0.444161
0.580398
0.793862
1.10705
1.53691
2.08967
2.75596
3.5103
4.31397
5.12095
5.88647
6.57528
7.16686
7.65764
0.854831
0.751267
1.02366
1.1988
1.44129
1.76115
2.16161
2.73134
3.47405
4.44988
5.66996
7.16935
8.94916
11.0227
13.3443
15.8473
18.4185
20.9335
23.2732
25.3503
27.1133
28.5669
29.717
0.8579
0.750175
1.02288
1.19797
1.43686
1.75512
2.15503
2.72308
3.46541
4.44269
5.6699
7.18825
9.0035
11.1341
13.5398
16.1583
18.8817
21.5861
24.1494
26.4726
28.4922
30.1952
31.5746
0.860943
0.747591
1.02044
1.19779
1.43388
1.7503
2.14984
2.71537
3.45582
4.43127
5.66032
7.18921
9.02903
11.2025
13.6752
16.3882
19.2387
22.1035
24.8594
27.3985
29.6481
31.5776
33.1731
0.863892
0.743811
1.01467
1.19649
1.43123
1.74587
2.14557
2.70846
3.4464
4.4179
5.6444
7.17593
9.02905
11.2303
13.7513
16.5359
19.4856
22.4785
25.3911
28.1087
30.552
32.6749
34.4603
0.866601