/*--------------------------------*- C++ -*----------------------------------*\
  =========                 |
  \\      /  F ield         | OpenFOAM: The Open Source CFD Toolbox
   \\    /   O peration     | Website:  https://openfoam.org
    \\  /    A nd           | Version:  7
     \\/     M anipulation  |
\*---------------------------------------------------------------------------*/
FoamFile
{
    version     2.0;
    format      ascii;
    class       surfaceScalarField;
    location    "73";
    object      phi;
}
// * * * * * * * * * * * * * * * * * * * * * * * * * * * * * * * * * * * * * //

dimensions      [0 3 -1 0 0 0 0];

internalField   nonuniform List<scalar> 
25449
(
68.4501
46.965
-22.5321
50.7664
34.8028
-17.1191
37.8431
25.9334
-13.0101
28.3253
19.4129
-9.89505
21.272
14.5884
-7.53515
16.0195
11.0004
-5.74787
12.0926
8.32117
-4.39431
9.14778
6.31383
-3.36899
6.934
4.80563
-2.59185
5.26663
3.66953
-2.00216
4.00897
2.8115
-1.55383
3.05931
2.16164
-1.21198
2.3417
1.66778
-0.950175
1.79925
1.29095
-0.748499
1.38921
1.00205
-0.592006
1.07939
0.779371
-0.469545
0.845454
0.606809
-0.372877
0.668999
0.472425
-0.295969
0.536041
0.367383
-0.234425
0.435957
0.285112
-0.185028
0.360679
0.220663
-0.145385
0.304077
0.170279
-0.113677
0.130934
-0.0884021
0.261545
53.608
65.6752
39.9479
48.463
29.8946
35.9867
22.4487
26.8588
16.9062
20.1309
12.7641
15.1425
9.65894
11.4264
7.32522
8.64754
5.56782
6.56303
4.24233
4.99502
3.2414
3.81242
2.48492
2.91812
1.91291
2.2398
1.48034
1.72352
1.15333
1.32906
0.906313
1.02639
0.719949
0.793173
0.579552
0.612823
0.473948
0.472986
0.394627
0.364432
0.335113
0.280177
0.290478
0.214914
0.164385
0.257027
41.0164
79.5305
30.7699
58.7095
23.1515
43.6051
17.4631
32.5472
13.2021
24.392
10.002
18.3426
7.59378
13.8346
5.77838
10.4629
4.408
7.93341
3.37243
6.03059
2.58921
4.59564
1.99653
3.5108
1.54793
2.6884
1.20845
2.063
0.951715
1.58579
0.757783
1.22032
0.611524
0.939433
0.501425
0.722922
0.418706
0.555706
0.35666
0.426479
0.310177
0.32666
0.275368
0.249723
0.190437
0.249317
31.0258
89.4883
23.5077
66.2276
17.8274
49.2855
13.5334
36.8411
10.2862
27.6391
7.8298
20.799
5.97077
15.6936
4.56321
11.8705
3.49703
8.9996
2.6891
6.83852
2.0767
5.20804
1.61244
3.97506
1.26052
3.04031
0.993895
2.32963
0.792076
1.78761
0.639536
1.37286
0.524463
1.05451
0.437839
0.809545
0.372769
0.620776
0.323976
0.475272
0.287433
0.363203
0.260075
0.277081
0.210912
0.2396
23.3891
96.4079
17.9821
71.6346
13.7911
53.4765
10.5626
40.0697
8.08656
30.1151
6.19352
22.692
4.74929
17.1379
3.64901
12.9708
2.81156
9.83705
2.17454
7.47554
1.6902
5.69238
1.32211
4.34316
1.04249
3.31993
0.830245
2.54187
0.669336
1.94852
0.547546
1.49465
0.455556
1.1465
0.386232
0.878871
0.334099
0.672909
0.294964
0.514407
0.26562
0.392548
0.243625
0.299076
0.227399
0.227139
17.6833
100.996
13.8799
75.438
10.8098
56.5466
8.37683
42.5026
6.4728
32.0192
4.99543
24.1694
3.85592
18.2774
2.98059
13.8461
2.31011
10.5075
1.79757
7.98808
1.40632
6.08362
1.108
4.64148
0.880733
3.54719
0.707782
2.71482
0.576337
2.07996
0.476607
1.59438
0.401094
1.22201
0.34404
0.935925
0.301019
0.71593
0.268632
0.546795
0.244273
0.416906
0.225964
0.317387
0.241164
0.212198
13.4873
103.811
10.8881
78.0372
8.64994
58.7848
6.80153
44.351
5.31404
33.5067
4.13716
25.3463
3.21666
19.1979
2.50225
14.5605
1.95079
11.059
1.52669
8.41218
1.20142
6.40889
0.952414
4.89049
0.762052
3.73755
0.616703
2.86017
0.505867
2.1908
0.421481
1.67877
0.357346
1.28615
0.308691
0.984581
0.27184
0.752781
0.243968
0.574668
0.222906
0.437969
0.207
0.333293
0.253176
0.194988
10.4345
105.281
8.73437
79.7373
7.10839
60.4108
5.68461
45.7748
4.4963
34.695
3.53317
26.3094
2.76724
19.9638
2.16564
15.1621
1.69717
11.5275
1.33448
8.77486
1.05487
6.6885
0.839883
5.10547
0.674894
3.90254
0.548438
2.98663
0.451623
2.28761
0.377585
1.7528
0.321039
1.34269
0.277904
1.02772
0.24504
0.785645
0.220025
0.599683
0.201003
0.456991
0.186546
0.34775
0.264154
0.175569
7.86995
108.022
5.87867
81.7286
4.41606
61.8734
3.33601
46.8549
2.53386
35.4971
1.93534
26.9079
1.48698
20.4122
1.14979
15.4993
0.895437
11.7818
0.703024
8.96728
0.557172
6.83436
0.446396
5.21625
0.362122
3.98681
0.297921
3.05083
0.248963
2.33657
0.211608
1.79016
0.1831
1.3712
0.161343
1.04947
0.144735
0.802253
0.132058
0.612361
0.122379
0.46667
0.114999
0.355129
0.269794
0.10936
5.73046
110.026
4.28055
83.1785
3.21831
62.9357
2.43606
47.6371
1.85626
36.0769
1.42432
27.3399
1.10111
20.7354
0.858097
15.7423
0.674761
11.9651
0.535966
9.10607
0.43065
6.93967
0.350538
5.29636
0.289463
4.04788
0.242802
3.09749
0.20708
2.37229
0.179683
1.81755
0.158637
1.39224
0.14244
1.06567
0.129955
0.814738
0.120316
0.621999
0.112867
0.474119
0.107117
0.36088
0.27424
0.102671
4.11189
111.467
3.07398
84.2165
2.31525
63.6944
1.75795
48.1944
1.34567
36.4892
1.03898
27.6466
0.809712
20.9646
0.637309
15.9147
0.507174
12.0953
0.408517
9.20473
0.333533
7.01466
0.276349
5.35354
0.232606
4.09163
0.199026
3.13107
0.173152
2.39817
0.153139
1.83757
0.137597
1.40779
0.125478
1.07779
0.115992
0.824225
0.108546
0.629446
0.10269
0.479975
0.0980955
0.365474
0.277847
0.0944886
2.89666
112.477
2.17033
84.9428
1.63996
64.2248
1.25117
48.5832
0.963942
36.7764
0.750511
27.86
0.591059
21.1241
0.471047
16.0347
0.380341
12.186
0.311404
9.27366
0.25886
7.0672
0.218622
5.39378
0.187671
4.12258
0.163725
3.15501
0.145078
2.41681
0.130455
1.85219
0.118906
1.41933
0.109718
1.08698
0.102366
0.831577
0.0964612
0.635351
0.0917115
0.484725
0.0879078
0.369278
0.280891
0.0848646
1.99197
113.163
1.49949
85.4353
1.1394
64.5849
0.875509
48.8471
0.68057
36.9714
0.535738
28.0048
0.427493
21.2323
0.345833
16.1164
0.283947
12.2479
0.236704
9.32091
0.200523
7.10338
0.172625
5.42168
0.150973
4.14423
0.134012
3.17198
0.120585
2.43024
0.109835
1.86294
0.101133
1.42804
0.0940184
1.09409
0.0881613
0.837435
0.0833255
0.640187
0.0793337
0.488717
0.0760645
0.372548
0.283559
0.073397
1.32803
113.604
1.00907
85.7542
0.774204
64.8197
0.601421
49.0199
0.473414
37.0994
0.378098
28.1001
0.306677
21.3037
0.252519
16.1705
0.211253
12.2891
0.179502
9.35266
0.154985
7.1279
0.135867
5.44079
0.120813
4.15928
0.108789
3.184
0.0990294
2.44
0.0909778
1.87099
0.0842402
1.43477
0.0785384
1.0998
0.073686
0.842288
0.0695576
0.644316
0.0660597
0.492215
0.063133
0.375475
0.28599
0.0607015
0.840724
113.861
0.650815
85.9442
0.508004
64.9625
0.401515
49.1264
0.32184
37.179
0.262056
28.1599
0.216928
21.3489
0.182339
16.2051
0.155701
12.3158
0.134913
9.37345
0.118635
7.14418
0.105701
5.45373
0.0952816
4.1697
0.0867066
3.19257
0.0794914
2.44721
0.0732932
1.87719
0.0678872
1.44018
0.0631293
1.10455
0.0589383
0.846479
0.0552691
0.647985
0.0520881
0.495397
0.0493798
0.378183
0.288273
0.0470979
0.493858
113.982
0.397583
86.0404
0.320443
65.0397
0.260539
49.1863
0.214431
37.2251
0.179084
28.1953
0.151899
21.3761
0.130587
16.2264
0.113824
12.3325
0.100407
9.38686
0.0896481
7.15493
0.0808422
5.46253
0.0735026
4.17704
0.0672054
3.19887
0.0616557
2.45276
0.0566573
1.88218
0.0521032
1.44473
0.0479433
1.10871
0.0441703
0.850252
0.0407944
0.651362
0.0378216
0.49837
0.0352638
0.380741
0.290446
0.0330912
0.249266
114.002
0.220777
86.0689
0.190092
65.0704
0.162459
49.2139
0.139212
37.2484
0.120269
28.2142
0.104988
21.3913
0.0924099
16.239
0.0820927
12.3429
0.0734595
9.3955
0.0662643
7.16213
0.0601104
5.46869
0.0547395
4.18241
0.0498874
3.20372
0.0453841
2.45727
0.0411313
1.88644
0.0371026
1.44876
0.0333133
1.1125
0.029807
0.853759
0.0266301
0.654539
0.0238133
0.501187
0.0213828
0.383172
0.292514
0.0193147
0.0818161
113.947
0.101577
86.0492
0.102861
65.0691
0.0967373
49.22
0.0883047
37.2568
0.0797377
28.2228
0.0718382
21.3992
0.0645924
16.2463
0.0581573
12.3493
0.0523754
9.40128
0.0472872
7.16722
0.0426906
5.47328
0.0384705
4.18663
0.034458
3.20774
0.0305602
2.46116
0.0267401
1.89025
0.0230235
1.45248
0.0194691
1.11606
0.0161528
0.857075
0.0131428
0.657549
0.0104809
0.503848
0.00819957
0.385454
0.294446
0.00626834
-0.027954
113.837
0.0254445
85.9958
0.0478923
65.0466
0.0552697
49.2127
0.0556745
37.2564
0.0530128
28.2254
0.0491447
21.4031
0.0447156
16.2507
0.0402675
12.3537
0.035911
9.40564
0.0318572
7.17127
0.0280163
5.47713
0.0243536
4.1903
0.0207491
3.21134
0.0171515
2.46476
0.0135582
1.89385
0.0100261
1.45601
0.00664093
1.11944
0.00349547
0.860221
0.000667477
0.660378
-0.00180568
0.506322
-0.00389486
0.387543
0.296195
-0.00564359
-0.0953023
113.688
-0.019035
85.9195
0.0166381
65.011
0.0316486
49.1976
0.0365161
37.2516
0.0364963
28.2255
0.034219
21.4054
0.0307766
16.2541
0.0269398
12.3576
0.0229762
9.4096
0.0191833
7.17507
0.0155248
5.48078
0.0120018
4.19382
0.00850988
3.21483
0.00501425
2.46826
0.00152691
1.89734
-0.0018818
1.45942
-0.00511329
1.12267
-0.0080725
0.863181
-0.010682
0.662987
-0.0129154
0.508555
-0.0147545
0.389382
0.297701
-0.0162601
-0.132678
113.509
-0.0411919
85.828
0.00209123
64.9677
0.0205988
49.1791
0.0268565
37.2453
0.0271942
28.2251
0.0248019
21.4078
0.0210671
16.2579
0.0168804
12.3618
0.01259
9.4139
0.00852283
7.17914
0.00465649
5.48465
0.00099745
4.19748
-0.00256615
3.2184
-0.00607032
2.47176
-0.00950314
1.90077
-0.0127927
1.46271
-0.0158374
1.12572
-0.0185508
0.865895
-0.0208679
0.665305
-0.0227804
0.510468
-0.0242985
0.3909
0.2989
-0.0254978
-0.147351
113.308
-0.0464591
85.7271
0.000176187
64.921
0.0190391
49.1603
0.0243497
37.24
0.0233121
28.2262
0.0195195
21.4116
0.014538
16.2628
0.00928929
12.367
0.00414218
9.41904
-0.000591441
7.18387
-0.00494681
5.48901
-0.0089339
4.20147
-0.012687
3.22215
-0.0162557
2.47533
-0.0196396
1.90415
-0.0227769
1.46584
-0.0255758
1.12852
-0.02797
0.868289
-0.0299189
0.667254
-0.0314403
0.511989
-0.0325804
0.392041
0.299751
-0.0334309
-0.145217
113.093
-0.0392288
85.6211
0.00761357
64.8742
0.0245297
49.1434
0.027193
37.2373
0.0235078
28.2299
0.0173494
21.4177
0.0103878
16.2698
0.00352813
12.3739
-0.00287469
9.42545
-0.00855921
7.18956
-0.0135984
5.49405
-0.0180379
4.20591
-0.0220475
3.22616
-0.0257001
2.47898
-0.0290164
1.90747
-0.0319543
1.46878
-0.0344442
1.13101
-0.0364511
0.870297
-0.0379709
0.668774
-0.0390498
0.513068
-0.039775
0.392766
0.300222
-0.0402458
-0.444463
112.953
-0.342211
85.5189
-0.266897
64.7989
-0.210882
49.0873
-0.168819
37.1953
-0.137073
28.1981
-0.113118
21.3938
-0.0951356
16.2518
-0.0817622
12.3605
-0.0719385
9.41563
-0.0647875
7.18241
-0.0597011
5.48896
-0.0561763
4.20238
-0.0538811
3.22387
-0.052507
2.47761
-0.0517676
1.90673
-0.0513877
1.4684
-0.0511218
1.13074
-0.050812
0.869988
-0.0503823
0.668344
-0.0498224
0.512508
-0.0492027
0.392147
0.299603
-0.0485834
-0.432922
112.822
-0.336607
85.4226
-0.26557
64.7279
-0.212675
49.0345
-0.172902
37.1555
-0.142837
28.168
-0.120115
21.3711
-0.103031
16.2347
-0.0903113
12.3478
-0.0809426
9.40626
-0.0740805
7.17555
-0.0691168
5.484
-0.0655424
4.19881
-0.0630124
3.22134
-0.0612131
2.47581
-0.0598684
1.90539
-0.0587353
1.46727
-0.0576217
1.12963
-0.0564357
0.868802
-0.0551673
0.667075
-0.053857
0.511198
-0.0526047
0.390895
0.298462
-0.0514634
-0.42151
112.698
-0.330735
85.3318
-0.263678
64.6608
-0.21368
48.9845
-0.176031
37.1178
-0.147522
28.1395
-0.125941
21.3495
-0.109683
16.2185
-0.0975584
12.3356
-0.0885951
9.3973
-0.0819774
7.16893
-0.0770952
5.47912
-0.0734329
4.19515
-0.0706331
3.21854
-0.06838
2.47356
-0.0664137
1.90342
-0.0645326
1.46539
-0.0626065
1.12771
-0.0606107
0.866807
-0.0585947
0.665059
-0.0566388
0.509242
-0.0548558
0.389112
0.296893
-0.0532852
-0.410279
112.582
-0.324701
85.2462
-0.261368
64.5975
-0.21408
48.9372
-0.178415
37.0822
-0.151357
28.1125
-0.130835
21.329
-0.115341
16.203
-0.103763
12.3241
-0.0951643
9.3887
-0.0887556
7.16252
-0.0839232
5.47429
-0.0801442
4.19137
-0.0770492
3.21545
-0.0743241
2.47084
-0.0717325
1.90083
-0.0691226
1.46278
-0.0664318
1.12502
-0.0637015
0.864077
-0.0610301
0.662388
-0.0585281
0.506741
-0.0563099
0.386894
0.294981
-0.0543977
-0.399263
112.473
-0.318579
85.1655
-0.258748
64.5376
-0.214007
48.8924
-0.180203
37.0484
-0.154503
28.0868
-0.134971
21.3094
-0.120188
16.1882
-0.109112
12.313
-0.100844
9.38043
-0.0946142
7.15629
-0.0898063
5.46948
-0.0858886
4.18746
-0.0824811
3.21204
-0.079276
2.46763
-0.0760679
1.89762
-0.0727615
1.45947
-0.0693638
1.12162
-0.0659784
0.860692
-0.062744
0.659153
-0.0597902
0.503787
-0.0572227
0.384327
0.292802
-0.0550434
-0.388485
112.37
-0.312424
85.0895
-0.255897
64.4811
-0.213558
48.8501
-0.181506
37.0163
-0.157085
28.0624
-0.13848
21.2908
-0.124361
16.1741
-0.113749
12.3024
-0.105781
9.37247
-0.099705
7.15022
-0.0949008
5.46468
-0.090828
4.18339
-0.0870983
3.20831
-0.0834147
2.46395
-0.0796095
1.89382
-0.075649
1.45551
-0.0716091
1.11758
-0.067649
0.856733
-0.0639391
0.655444
-0.060618
0.500466
-0.057774
0.381483
0.290418
-0.0553888
-0.377959
112.273
-0.306276
85.0178
-0.252875
64.4277
-0.212807
48.81
-0.182411
36.9859
-0.159195
28.0391
-0.141463
21.2731
-0.127965
16.1606
-0.117784
12.2922
-0.110088
9.36477
-0.104144
7.14428
-0.0993272
5.45987
-0.095088
4.17915
-0.0910332
3.20426
-0.0868812
2.4598
-0.0825071
1.88945
-0.0779427
1.45095
-0.0733294
1.11297
-0.068873
0.852277
-0.0647679
0.651338
-0.0611522
0.496851
-0.0580919
0.378423
0.287877
-0.0555506
-0.367694
112.183
-0.300166
84.9503
-0.24973
64.3773
-0.211814
48.7721
-0.182985
36.9571
-0.160909
28.0171
-0.144
21.2562
-0.131085
16.1477
-0.121303
12.2824
-0.113858
9.35733
-0.108027
7.13845
-0.103184
5.45503
-0.0987713
4.17474
-0.094395
3.19989
-0.089792
2.4552
-0.0848852
1.88454
-0.0797722
1.44584
-0.0746556
1.10785
-0.0697782
0.8474
-0.0653502
0.64691
-0.0615023
0.493003
-0.0582752
0.375196
0.28522
-0.0556174
-0.357696
112.098
-0.294116
84.8867
-0.246498
64.3297
-0.210625
48.7362
-0.183282
36.9298
-0.162287
27.9961
-0.146155
21.24
-0.133788
16.1353
-0.124379
12.273
-0.117163
9.35011
-0.111429
7.13272
-0.10655
5.45015
-0.101962
4.17015
-0.0972731
3.1952
-0.0922437
2.45017
-0.0868466
1.87914
-0.0812433
1.44024
-0.0756925
1.1023
-0.0704653
0.842174
-0.0657795
0.642225
-0.0617522
0.488976
-0.0583993
0.371844
0.282478
-0.0556562
-0.347966
112.018
-0.288146
84.8269
-0.243209
64.2847
-0.209279
48.7023
-0.183349
36.9038
-0.163379
27.9761
-0.147982
21.2247
-0.136132
16.1235
-0.127072
12.2639
-0.120065
9.34311
-0.114414
7.12707
-0.109492
5.44523
-0.104731
4.16539
-0.0997438
3.19021
-0.0943179
2.44475
-0.0884778
1.8733
-0.0824443
1.4342
-0.076526
1.09638
-0.0710145
0.836663
-0.0661272
0.637337
-0.0619654
0.484814
-0.0585208
0.368399
0.279676
-0.0557185
-0.338505
111.943
-0.28227
84.7706
-0.239888
64.2423
-0.207808
48.6702
-0.183222
36.8793
-0.164227
27.9571
-0.149529
21.21
-0.138166
16.1121
-0.129431
12.2552
-0.122618
9.33629
-0.117039
7.12149
-0.11207
5.44026
-0.107139
4.16047
-0.101873
3.18495
-0.0960855
2.43896
-0.0898536
1.86707
-0.0834509
1.4278
-0.0772289
1.09016
-0.0714921
0.830927
-0.066453
0.632298
-0.0621964
0.480558
-0.0586901
0.364893
0.276836
-0.0558495
-0.329312
111.873
-0.276499
84.7178
-0.236556
64.2024
-0.206241
48.6399
-0.182937
36.856
-0.16487
27.939
-0.150834
21.1959
-0.139933
16.1012
-0.131503
12.2468
-0.124868
9.32966
-0.119352
7.11598
-0.114333
5.43524
-0.109242
4.15538
-0.103719
3.17943
-0.0976089
2.43285
-0.0910389
1.8605
-0.0843282
1.42109
-0.0778629
1.0837
-0.0719551
0.82502
-0.066808
0.627151
-0.0624892
0.47624
-0.0589465
0.361351
0.273977
-0.0560861
-0.320385
111.808
-0.270845
84.6683
-0.233231
64.1648
-0.204601
48.6113
-0.18252
36.8339
-0.165339
27.9219
-0.151934
21.1825
-0.141469
16.0907
-0.133326
12.2386
-0.126856
9.32319
-0.121396
7.11052
-0.116326
5.43017
-0.111086
4.15014
-0.105333
3.17368
-0.0989425
2.42646
-0.0920899
1.85365
-0.0851321
1.41413
-0.0784805
1.07705
-0.0724519
0.818992
-0.0672367
0.621936
-0.0628829
0.471886
-0.059325
0.357794
0.271117
-0.0564641
-0.311723
111.748
-0.265315
84.6219
-0.22993
64.1294
-0.202911
48.5843
-0.182
36.813
-0.165664
27.9055
-0.15286
21.1697
-0.14281
16.0807
-0.134938
12.2308
-0.12862
9.31688
-0.123209
7.10511
-0.118092
5.42506
-0.112715
4.14476
-0.106763
3.16773
-0.100136
2.41984
-0.0930571
1.84658
-0.0859128
1.40699
-0.0791288
1.07027
-0.0730268
0.812891
-0.067782
0.616691
-0.0634202
0.467524
-0.0598661
0.35424
0.268271
-0.0570194
-0.303323
111.691
-0.259916
84.5785
-0.226667
64.0961
-0.201191
48.5588
-0.181399
36.7932
-0.165873
27.89
-0.153642
21.1575
-0.143987
16.071
-0.136369
12.2231
-0.130195
9.3107
-0.124828
7.09974
-0.119667
5.4199
-0.11417
4.13927
-0.108048
3.16161
-0.101233
2.41302
-0.0939847
1.83933
-0.0867134
1.39972
-0.0798496
1.0634
-0.0737176
0.806759
-0.0684777
0.611451
-0.064133
0.46318
-0.0606018
0.350709
0.265453
-0.0577835
-0.295182
111.639
-0.254656
84.5379
-0.223455
64.0649
-0.199458
48.5348
-0.18074
36.7745
-0.165989
27.8753
-0.154309
21.1458
-0.145028
16.0618
-0.137652
12.2158
-0.131611
9.30466
-0.126286
7.09442
-0.121086
5.4147
-0.115486
4.13367
-0.109229
3.15535
-0.102274
2.40607
-0.0949129
1.83197
-0.0875733
1.39238
-0.0806804
1.05651
-0.074557
0.800637
-0.0693515
0.606245
-0.0650476
0.458876
-0.0615577
0.34722
0.262676
-0.0587798
-0.287298
111.591
-0.24954
84.5002
-0.220306
64.0357
-0.197731
48.5122
-0.180043
36.7568
-0.166038
27.8613
-0.154883
21.1346
-0.145961
16.0528
-0.138814
12.2086
-0.132899
9.29875
-0.127613
7.08914
-0.122381
5.40947
-0.116696
4.12799
-0.110338
3.149
-0.103295
2.39903
-0.095877
1.82455
-0.088526
1.38503
-0.0816529
1.04964
-0.0755729
0.794558
-0.0704271
0.6011
-0.0661845
0.454634
-0.0627527
0.343788
0.259953
-0.0600285
-0.279667
111.546
-0.244574
84.4651
-0.217232
64.0084
-0.196024
48.491
-0.179328
36.7401
-0.166039
27.848
-0.15539
21.124
-0.146811
16.0443
-0.139882
12.2017
-0.134086
9.29296
-0.128838
7.08389
-0.123582
5.40422
-0.117833
4.12224
-0.111409
3.14257
-0.104326
2.39195
-0.0969089
1.81713
-0.0896014
1.37772
-0.0827966
1.04284
-0.0767916
0.788553
-0.0717264
0.596034
-0.0675624
0.45047
-0.0642014
0.340428
0.257292
-0.0615393
-0.272287
111.505
-0.239761
84.4326
-0.214243
63.9828
-0.194352
48.4711
-0.178613
36.7243
-0.166014
27.8354
-0.155852
21.1138
-0.147602
16.036
-0.14088
12.195
-0.135198
9.28728
-0.129988
7.07868
-0.124716
5.39895
-0.118923
4.11645
-0.112469
3.13612
-0.105397
2.38488
-0.0980375
1.80978
-0.0908269
1.37051
-0.0841381
1.03615
-0.0782416
0.782658
-0.0732719
0.591065
-0.0691974
0.446396
-0.0659184
0.337149
0.254705
-0.0633311
-0.265155
111.468
-0.235107
84.4025
-0.21135
63.9591
-0.192731
48.4525
-0.177916
36.7095
-0.165983
27.8234
-0.15629
21.1041
-0.148356
16.0281
-0.141833
12.1885
-0.13626
9.2817
-0.131089
7.07351
-0.125811
5.39367
-0.119996
4.11063
-0.113545
3.12967
-0.106533
2.37787
-0.099289
1.80253
-0.0922278
1.36345
-0.0857018
1.02962
-0.0799508
0.776908
-0.0750901
0.586203
-0.0711049
0.442411
-0.0679194
0.333964
0.252211
-0.0654237
-0.258268
111.434
-0.230616
84.3749
-0.208561
63.937
-0.191172
48.4351
-0.177251
36.6956
-0.165963
27.8121
-0.156723
21.0949
-0.149095
16.0205
-0.142763
12.1821
-0.137295
9.27624
-0.132164
7.06838
-0.12689
5.3884
-0.121074
4.10482
-0.114661
3.12326
-0.107755
2.37096
-0.100685
1.79547
-0.0938272
1.3566
-0.0875097
1.02331
-0.0819402
0.771339
-0.0772077
0.581471
-0.0733211
0.438525
-0.0702271
0.33087
0.24978
-0.0677955
-0.251623
111.403
-0.226293
84.3495
-0.205887
63.9166
-0.18969
48.4189
-0.176636
36.6826
-0.165974
27.8015
-0.157174
21.0861
-0.14984
16.0131
-0.143692
12.176
-0.138327
9.27087
-0.133239
7.06329
-0.127979
5.38314
-0.122182
4.09902
-0.115839
3.11692
-0.109084
2.36421
-0.102243
1.78862
-0.0956472
1.35
-0.0895893
1.01725
-0.084242
0.765992
-0.0796653
0.576894
-0.0758733
0.434733
-0.0728148
0.327812
0.247333
-0.0703673
-0.245217
111.376
-0.22214
84.3265
-0.203335
63.8978
-0.188297
48.4039
-0.176085
36.6703
-0.166031
27.7914
-0.157658
21.0777
-0.150611
16.0061
-0.144642
12.17
-0.139376
9.26561
-0.134334
7.05825
-0.129098
5.37791
-0.123341
4.09327
-0.117099
3.11068
-0.110537
2.35765
-0.103977
1.78207
-0.0977057
1.34373
-0.0919703
1.01152
-0.0868972
0.76092
-0.0824979
0.572495
-0.0787735
0.431009
-0.0757098
0.324748
0.244869
-0.0732446
-0.239049
111.351
-0.218162
84.3056
-0.200915
63.8806
-0.187005
48.39
-0.175613
36.6589
-0.166152
27.782
-0.158196
21.0698
-0.151427
15.9993
-0.145631
12.1642
-0.140465
9.26044
-0.135472
7.05326
-0.130271
5.37271
-0.124574
4.08757
-0.118458
3.10456
-0.112129
2.35132
-0.105897
1.77583
-0.10002
1.33786
-0.0946861
1.00618
-0.0899435
0.756178
-0.0857629
0.568314
-0.0821538
0.4274
-0.0791918
0.321786
0.24254
-0.076862
-0.233113
111.33
-0.214362
84.2868
-0.198634
63.8648
-0.185823
48.3771
-0.175232
36.6484
-0.166351
27.7731
-0.158801
21.0622
-0.152305
15.9928
-0.14668
12.1586
-0.141613
9.25538
-0.136673
7.04832
-0.131518
5.36756
-0.125899
4.08196
-0.119931
3.0986
-0.113872
2.34526
-0.107996
1.76996
-0.102561
1.33242
-0.0977006
1.00132
-0.0933585
0.751837
-0.0895047
0.564461
-0.0861901
0.424085
-0.0835125
0.319109
0.24041
-0.0813823
-0.219573
111.301
-0.198005
84.2652
-0.181713
63.8485
-0.169383
48.3648
-0.159708
36.6387
-0.151864
27.7653
-0.145314
21.0557
-0.139707
15.9872
-0.134836
12.1537
-0.130412
9.25095
-0.126054
7.04397
-0.121472
5.36297
-0.116484
4.07697
-0.111215
3.09333
-0.105973
2.34002
-0.100957
1.76494
-0.0964381
1.3279
-0.0925278
0.997414
-0.0890579
0.748367
-0.0860523
0.561454
-0.0834992
0.421535
-0.0813723
0.316982
0.23852
-0.0794813
-0.174748
111.279
-0.157843
84.2483
-0.14507
63.8358
-0.135411
48.3552
-0.127826
36.6311
-0.121664
27.7591
-0.116496
21.0505
-0.112046
15.9828
-0.108159
12.1498
-0.104611
9.24741
-0.101119
7.04048
-0.0974622
5.35932
-0.0935312
4.07304
-0.0894257
3.08923
-0.0854433
2.33604
-0.08171
1.76121
-0.078464
1.32466
-0.075818
0.994771
-0.0735654
0.746116
-0.0717423
0.559634
-0.0702281
0.42002
-0.068837
0.315592
0.237101
-0.0674178
-0.139047
111.261
-0.125776
84.2351
-0.115748
63.8257
-0.108172
48.3476
-0.102219
36.6252
-0.0973743
27.7542
-0.0932966
21.0464
-0.0897658
15.9792
-0.0866648
12.1467
-0.0838238
9.24457
-0.0810313
7.03768
-0.0781167
5.3564
-0.0750189
4.06994
-0.0718122
3.08602
-0.0687693
2.333
-0.0659725
1.75841
-0.0636121
1.3223
-0.061816
0.992974
-0.0604015
0.744701
-0.059362
0.558593
-0.058521
0.419181
-0.0576471
0.314719
0.236132
-0.0566768
-0.110601
111.247
-0.100156
84.2246
-0.092263
63.8179
-0.0863051
48.3416
-0.0816227
36.6205
-0.0778063
27.7504
-0.0745847
21.0432
-0.0717818
15.9764
-0.0693092
12.1443
-0.0670365
9.2423
-0.064806
7.03546
-0.0624859
5.35409
-0.0600446
4.0675
-0.0575371
3.08351
-0.0551966
2.33066
-0.0530905
1.75631
-0.0513512
1.32056
-0.0501084
0.991733
-0.0492282
0.743823
-0.0486595
0.558026
-0.0482239
0.418744
-0.0477146
0.314211
0.23556
-0.0471409
-0.0879483
111.236
-0.0797088
84.2164
-0.0734824
63.8116
-0.0687867
48.3369
-0.0650962
36.6168
-0.0620855
27.7474
-0.0595375
21.0407
-0.0573115
15.9742
-0.0553401
12.1423
-0.0535233
9.24048
-0.0517432
7.03368
-0.0498975
5.35224
-0.0479723
4.06558
-0.0460102
3.08155
-0.0441976
2.32884
-0.0426038
1.75472
-0.0413156
1.31927
-0.0404371
0.990854
-0.0398752
0.74326
-0.0395746
0.557724
-0.0393719
0.418543
-0.0391095
0.313948
0.235295
-0.0388438
-0.0698829
111.228
-0.0633434
84.2098
-0.0584017
63.8067
-0.0546782
48.3332
-0.051753
36.6139
-0.0493662
27.745
-0.0473435
21.0386
-0.0455714
15.9724
-0.0439978
12.1407
-0.0425453
9.23903
-0.0411258
7.03226
-0.0396598
5.35078
-0.0381428
4.06406
-0.0366102
3.08002
-0.0352014
2.32744
-0.0339932
1.75351
-0.0330417
1.31832
-0.0324088
0.990223
-0.0320339
0.742887
-0.0318803
0.557572
-0.0318087
0.41847
-0.031695
0.313835
0.235235
-0.0316353
-0.0556776
111.221
-0.0506008
84.2048
-0.0467647
63.8028
-0.0438776
48.3303
-0.0416081
36.6116
-0.039752
27.7432
-0.0381713
21.0371
-0.0367767
15.971
-0.0355295
12.1395
-0.0343713
9.23787
-0.0332364
7.03112
-0.0320635
5.3496
-0.030854
4.06285
-0.0296403
3.07881
-0.0285253
2.32632
-0.0275896
1.75257
-0.0268723
1.3176
-0.0264033
0.989753
-0.0261447
0.742627
-0.0260733
0.557499
-0.0260723
0.41847
-0.0260464
0.313808
0.235304
-0.0261147
-0.0440851
111.215
-0.0399383
84.2006
-0.0368049
63.7997
-0.0344479
48.328
-0.0325989
36.6097
-0.0310914
27.7417
-0.0298123
21.0358
-0.0286869
15.9699
-0.0276835
12.1385
-0.0267554
9.23694
-0.025853
7.03022
-0.0249282
5.34868
-0.0239837
4.06191
-0.0230471
3.07787
-0.0221867
2.32546
-0.0214803
1.75187
-0.0209533
1.31708
-0.0206105
0.989412
-0.0204313
0.74245
-0.0204007
0.55747
-0.0204338
0.418501
-0.0204655
0.313841
0.235433
-0.0205952
-0.0359611
111.206
-0.0287288
84.1934
-0.0230386
63.794
-0.0185815
48.3235
-0.0150141
36.6062
-0.0120952
27.7388
-0.00963906
21.0333
-0.0075116
15.9678
-0.00563816
12.1366
-0.0039531
9.23526
-0.00239949
7.02867
-0.000938881
5.34722
0.000417615
4.06055
0.00163952
3.07665
0.00264598
2.32446
0.0033917
1.75112
0.00389504
1.31658
0.00413181
0.989173
0.00415569
0.742424
0.00400985
0.557614
0.00376532
0.418747
0.00350574
0.314099
0.235774
0.00316542
-0.0377536
111.196
-0.0301606
84.1858
-0.0241872
63.7881
-0.0195101
48.3188
-0.0157679
36.6024
-0.0127063
27.7357
-0.010129
21.0308
-0.0078937
15.9656
-0.00592252
12.1346
-0.00414849
9.23349
-0.00251466
7.02704
-0.000983219
5.34569
0.000430963
4.05914
0.0016962
3.07538
0.0027325
2.32342
0.00347556
1.75038
0.0039665
1.31609
0.00418314
0.988958
0.00417313
0.742436
0.00398922
0.557799
0.00370201
0.419032
0.0034009
0.314401
0.236158
0.00301649
-0.0396352
111.186
-0.0316637
84.1778
-0.0253927
63.7818
-0.0204847
48.3139
-0.0165591
36.5985
-0.0133481
27.7325
-0.0106437
21.0281
-0.00829543
15.9632
-0.00622177
12.1325
-0.00435425
9.23162
-0.00263625
7.02532
-0.00103056
5.34408
0.000443827
4.05766
0.00175339
3.07407
0.00281997
2.32235
0.0035586
1.74964
0.004038
1.31561
0.00423727
0.988757
0.00419136
0.74248
0.0039732
0.558015
0.00365056
0.419356
0.00331319
0.314737
0.236566
0.00290457
-0.0416104
111.176
-0.0332412
84.1695
-0.026658
63.7752
-0.0215076
48.3088
-0.0173898
36.5944
-0.0140221
27.7291
-0.0111846
21.0252
-0.00871774
15.9607
-0.00653656
12.1304
-0.00457088
9.22965
-0.0027646
7.02351
-0.0010811
5.3424
0.000455975
4.05613
0.00181107
3.07272
0.00290685
2.32126
0.00364253
1.74891
0.00411055
1.31514
0.00429298
0.988576
0.00421037
0.742563
0.00396173
0.558264
0.00360966
0.419706
0.00324342
0.315104
0.236978
0.00283144
-0.0436835
111.164
-0.0348973
84.1607
-0.0279863
63.7683
-0.0225814
48.3034
-0.0182617
36.5901
-0.0147297
27.7256
-0.0117527
21.0222
-0.00916169
15.9582
-0.00686773
12.1281
-0.00479893
9.22758
-0.00290007
7.02162
-0.00113499
5.34063
0.000467216
4.05453
0.00186951
3.07132
0.00299282
2.32013
0.00373064
1.74817
0.00418587
1.31468
0.00434977
0.98841
0.00423378
0.742678
0.00396001
0.558535
0.00358693
0.42008
0.00319772
0.315492
0.237384
0.00279159
-0.0458601
111.153
-0.0366356
84.1514
-0.0293803
63.761
-0.0237084
48.2977
-0.0191771
36.5856
-0.0154728
27.7219
-0.0123496
21.0191
-0.00962837
15.9554
-0.00721609
12.1257
-0.00503896
9.22541
-0.00304293
7.01962
-0.00119226
5.33879
0.000477671
4.05286
0.00192946
3.06987
0.00307872
2.31899
0.00382591
1.74742
0.00426536
1.31425
0.00440856
0.988268
0.00426483
0.742822
0.00397301
0.558827
0.003589
0.420462
0.00318122
0.3159
0.237785
0.00278034
-0.0481444
111.14
-0.0384603
84.1418
-0.0308437
63.7534
-0.0248913
48.2917
-0.0201379
36.5808
-0.016253
27.718
-0.0129767
21.0158
-0.0101189
15.9526
-0.00758254
12.1231
-0.00529151
9.22312
-0.00319335
7.01752
-0.00125272
5.33684
0.000487628
4.05112
0.00199173
3.06836
0.00316588
2.31781
0.00392948
1.74666
0.00434957
1.31382
0.00447165
0.988144
0.00430483
0.742987
0.00400062
0.559129
0.00361425
0.420849
0.00319171
0.316321
0.238181
0.00279521
-0.0505426
111.127
-0.0403757
84.1316
-0.0323794
63.7454
-0.0261329
48.2855
-0.0211465
36.5758
-0.0170723
27.7139
-0.0136355
21.0124
-0.0106346
15.9496
-0.00796784
12.1205
-0.00555708
9.22071
-0.00335154
7.01532
-0.00131621
5.33481
0.000497431
4.0493
0.00205708
3.0668
0.00325569
2.31661
0.00404068
1.74587
0.00443871
1.31343
0.00454204
0.988041
0.00435676
0.743173
0.00404218
0.559443
0.00365842
0.421231
0.00322884
0.316751
0.238572
0.0028376
-0.0530598
111.114
-0.0423862
84.1209
-0.0339915
63.737
-0.0274362
48.2789
-0.0222053
36.5706
-0.0179326
27.7097
-0.0143275
21.0088
-0.0111765
15.9464
-0.0083729
12.1176
-0.00583621
9.21817
-0.00351764
7.013
-0.00138261
5.33267
0.000507427
4.04741
0.00212613
3.06518
0.00334966
2.31539
0.00415818
1.74506
0.00453374
1.31305
0.00462242
0.987951
0.00442623
0.743368
0.00409771
0.559769
0.00372049
0.421608
0.00329582
0.317175
0.238956
0.00291226
-0.0557022
111.099
-0.0444966
84.1097
-0.0356836
63.7282
-0.028804
48.2721
-0.0233167
36.5651
-0.0188358
27.7052
-0.0150543
21.005
-0.0117459
15.9431
-0.00879856
12.1147
-0.0061294
9.2155
-0.00369193
7.01056
-0.00145192
5.33044
0.000517941
4.04545
0.00219936
3.0635
0.00344922
2.31414
0.00428091
1.74423
0.00463682
1.31269
0.00471505
0.987873
0.00451754
0.743566
0.00417263
0.560114
0.0038065
0.421972
0.00339339
0.317588
0.239332
0.00301613
-0.0584757
111.084
-0.0467116
84.0979
-0.0374597
63.719
-0.0302397
48.2648
-0.0244832
36.5594
-0.019784
27.7005
-0.0158176
21.0011
-0.012344
15.9396
-0.00924577
12.1116
-0.0064373
9.21269
-0.00387468
7.008
-0.00152427
5.32809
0.000529246
4.04339
0.00227707
3.06175
0.00355566
2.31286
0.00440825
1.74338
0.00475015
1.31235
0.00482202
0.9878
0.00463039
0.743757
0.00427097
0.560471
0.00392087
0.422322
0.00352277
0.317985
0.239699
0.00315566
-0.0613874
111.068
-0.0490369
84.0856
-0.0393236
63.7092
-0.0317465
48.2573
-0.0257077
36.5533
-0.0207795
27.6956
-0.0166192
20.9969
-0.0129722
15.936
-0.0097155
12.1083
-0.00676053
9.20974
-0.00406633
7.00531
-0.00159987
5.32562
0.000541458
4.04125
0.00235923
3.05994
0.00366996
2.31155
0.00454042
1.74251
0.00487527
1.31202
0.0049447
0.987731
0.00476188
0.74394
0.00439788
0.560834
0.00406021
0.422658
0.00368133
0.318364
0.240042
0.00333843
-0.0644434
111.052
-0.0514777
84.0726
-0.0412803
63.699
-0.033328
48.2493
-0.0269928
36.547
-0.0218244
27.6904
-0.0174607
20.9925
-0.013632
15.9322
-0.0102088
12.1049
-0.00709986
9.20663
-0.00426741
7.00248
-0.00167922
5.32303
0.000554423
4.03902
0.00244529
3.05805
0.00379243
2.3102
0.00467871
1.74162
0.00501383
1.31168
0.00508342
0.987659
0.00490984
0.744113
0.00455565
0.561187
0.00422257
0.422991
0.00387253
0.318713
0.240346
0.00356804
-0.0676514
111.034
-0.0540396
84.059
-0.0433339
63.6883
-0.0349878
48.241
-0.0283416
36.5403
-0.0229212
27.685