/*--------------------------------*- C++ -*----------------------------------*\
  =========                 |
  \\      /  F ield         | OpenFOAM: The Open Source CFD Toolbox
   \\    /   O peration     | Website:  https://openfoam.org
    \\  /    A nd           | Version:  7
     \\/     M anipulation  |
\*---------------------------------------------------------------------------*/
FoamFile
{
    version     2.0;
    format      ascii;
    class       volVectorField;
    location    "73";
    object      U;
}
// * * * * * * * * * * * * * * * * * * * * * * * * * * * * * * * * * * * * * //

dimensions      [0 1 -1 0 0 0 0];

internalField   nonuniform List<vector> 
12842
(
(15.383 2.71687 -3.11155e-19)
(15.3849 2.72823 2.69807e-19)
(15.3867 2.74081 1.06564e-19)
(15.3888 2.75592 -2.60423e-19)
(15.3907 2.77504 1.17089e-18)
(15.3925 2.79978 0)
(15.3938 2.83207 0)
(15.394 2.87415 1.45623e-19)
(15.3921 2.92861 -1.25622e-18)
(15.3866 2.99833 -3.18785e-20)
(15.3759 3.08628 -5.44499e-19)
(15.3576 3.19527 3.0474e-20)
(15.3295 3.32748 -3.58805e-19)
(15.2892 3.48386 -4.3274e-20)
(15.2347 3.66368 6.91624e-20)
(15.1653 3.86402 1.90931e-19)
(15.0811 4.07964 1.3681e-19)
(14.9844 4.30335 0)
(14.8787 4.5268 -4.94797e-21)
(14.7686 4.74167 -4.72956e-20)
(14.6594 4.94061 1.78604e-21)
(14.5555 5.11904 1.43913e-20)
(14.4611 5.27088 1.35434e-21)
(15.3839 2.71678 1.60189e-19)
(15.388 2.72714 0)
(15.392 2.73931 1.26389e-18)
(15.3969 2.754 -8.71057e-19)
(15.4025 2.77267 -9.58402e-19)
(15.4088 2.797 0)
(15.4161 2.82906 1.96766e-18)
(15.4239 2.87133 0)
(15.4316 2.92664 2.1049e-18)
(15.438 2.99815 1.80785e-19)
(15.4412 3.08916 1.00369e-18)
(15.4391 3.20274 1.3972e-18)
(15.4289 3.34129 3.46387e-19)
(15.4075 3.50579 -7.47903e-19)
(15.3721 3.69536 0)
(15.3208 3.90661 -2.10496e-19)
(15.2527 4.1336 -2.21836e-19)
(15.169 4.36831 4.16401e-19)
(15.0728 4.60159 0)
(14.9686 4.82452 5.00454e-20)
(14.862 5.02928 1.54801e-19)
(14.758 5.21179 -6.44192e-20)
(14.6622 5.36377 8.51209e-20)
(15.3849 2.71647 0)
(15.3907 2.72579 0)
(15.3964 2.73734 3.13946e-19)
(15.4036 2.75129 4.88474e-18)
(15.4122 2.76908 0)
(15.4227 2.79245 0)
(15.4353 2.82358 4.4736e-19)
(15.4501 2.86514 -2.06789e-18)
(15.4666 2.92021 -9.49346e-19)
(15.4839 2.99222 -9.50469e-19)
(15.5004 3.08478 -1.80292e-18)
(15.5135 3.2013 -1.37062e-18)
(15.5204 3.34445 -3.13264e-19)
(15.5174 3.51539 1.13817e-18)
(15.5008 3.71315 0)
(15.4678 3.93404 2.12977e-19)
(15.4164 4.1715 -2.71724e-19)
(15.3471 4.41674 -2.93554e-19)
(15.2624 4.6598 -5.47044e-19)
(15.1665 4.89113 3.39871e-19)
(15.0655 5.10235 -1.28364e-19)
(14.9646 5.2899 0)
(14.8706 5.44304 -4.09895e-20)
(15.386 2.71601 -1.43802e-19)
(15.3929 2.72431 5.86326e-19)
(15.4 2.73511 -1.98377e-18)
(15.4091 2.74814 -7.86135e-18)
(15.4204 2.76478 7.2738e-19)
(15.4343 2.78679 -2.6548e-18)
(15.4518 2.81646 -1.8176e-19)
(15.473 2.8566 2.04364e-18)
(15.4977 2.91053 3.5242e-18)
(15.5253 2.98193 -2.19844e-18)
(15.5541 3.0747 4.34279e-18)
(15.5818 3.19261 -5.22099e-19)
(15.6051 3.33866 6.78136e-19)
(15.6201 3.51425 2.33851e-18)
(15.6224 3.71846 -4.02619e-19)
(15.6081 3.94739 5.16397e-19)
(15.5744 4.19402 1.87423e-19)
(15.5209 4.44889 5.57171e-19)
(15.4494 4.70129 7.13831e-20)
(15.3642 4.9411 3.12643e-19)
(15.2714 5.15928 1.18409e-19)
(15.1762 5.35282 1.63786e-19)
(15.0866 5.50842 -2.4981e-19)
(15.3871 2.71545 -1.7589e-18)
(15.3946 2.72278 0)
(15.403 2.73277 3.45465e-19)
(15.4136 2.74475 2.80133e-18)
(15.427 2.76002 2.62813e-19)
(15.444 2.78034 7.19132e-18)
(15.4657 2.80804 3.32457e-19)
(15.4927 2.84611 -5.34617e-18)
(15.5251 2.89805 -4.01466e-18)
(15.5621 2.96778 2.79942e-18)
(15.6025 3.05948 -4.58583e-18)
(15.6441 3.17727 -3.4645e-18)
(15.6835 3.3245 7.87114e-19)
(15.7163 3.50287 -4.99482e-18)
(15.7375 3.71165 -1.97147e-18)
(15.7424 3.94684 1.40921e-18)
(15.7274 4.20109 0)
(15.6912 4.46445 -5.41159e-19)
(15.635 4.72555 0)
(15.5627 4.97378 1.15745e-19)
(15.4804 5.19939 1.94053e-19)
(15.3933 5.39988 -1.88869e-19)
(15.3104 5.55929 -3.0081e-20)
(15.3881 2.7148 1.63447e-18)
(15.3959 2.72128 0)
(15.4053 2.73042 0)
(15.4172 2.74127 4.50906e-18)
(15.4322 2.75503 -3.43292e-18)
(15.4519 2.77338 -4.15914e-18)
(15.4773 2.79868 -6.78027e-18)
(15.5095 2.83408 5.90231e-18)
(15.5486 2.88322 0)
(15.5944 2.95026 3.50437e-18)
(15.6456 3.03963 4.11124e-18)
(15.7003 3.15575 1.74288e-18)
(15.7551 3.30237 0)
(15.8054 3.48157 2.6503e-18)
(15.8457 3.69286 1.66434e-18)
(15.8705 3.93232 -1.0321e-18)
(15.8753 4.19246 -2.7381e-19)
(15.8579 4.46298 1.8958e-18)
(15.819 4.732 0)
(15.7618 4.98848 -8.67054e-19)
(15.6925 5.22191 2.63871e-19)
(15.6157 5.43027 9.46276e-19)
(15.5416 5.59471 -1.87079e-19)
(15.389 2.7141 -1.88155e-19)
(15.3968 2.71985 0)
(15.4071 2.72814 0)
(15.4198 2.73786 -4.48487e-18)
(15.4361 2.75004 3.9926e-18)
(15.4578 2.76624 -5.68173e-19)
(15.4862 2.78881 3.99518e-18)
(15.5228 2.82103 4.33973e-19)
(15.5679 2.86668 -5.69131e-19)
(15.6214 2.93013 -3.9924e-18)
(15.6826 3.01599 -4.68629e-19)
(15.7495 3.12899 3.33353e-18)
(15.819 3.27323 0)
(15.8864 3.45122 -3.23752e-18)
(15.9456 3.66284 3.10893e-19)
(15.9906 3.90442 -3.99396e-19)
(16.016 4.16848 1.26498e-18)
(16.0189 4.44459 -1.1058e-18)
(15.9992 4.72048 -1.43942e-18)
(15.9594 4.98481 -3.55116e-19)
(15.9054 5.22618 4.22244e-20)
(15.8415 5.4431 -5.44058e-19)
(15.7784 5.6135 -3.49467e-19)
(15.3898 2.71341 0)
(15.3973 2.71854 -2.35387e-19)
(15.4085 2.72596 2.88728e-18)
(15.4218 2.73451 -9.16498e-20)
(15.4391 2.74503 -4.12126e-18)
(15.4624 2.75891 7.21521e-19)
(15.4934 2.77845 -1.25105e-19)
(15.5337 2.80707 -3.4712e-18)
(15.5838 2.8486 0)
(15.6441 2.9076 -4.71267e-18)
(15.714 2.98877 4.01262e-19)
(15.7922 3.09713 1.57339e-19)
(15.8758 3.23716 0)
(15.96 3.41184 3.18347e-18)
(16.0385 3.62153 -2.60243e-18)
(16.1045 3.86296 0)
(16.1519 4.12884 -1.24953e-18)
(16.1768 4.40885 0)
(16.1783 4.69042 1.17742e-18)
(16.1583 4.9621 0)
(16.1221 5.21143 -5.44963e-19)
(16.0734 5.43771 3.29357e-19)
(16.0232 5.61501 4.46472e-19)
(15.3905 2.71255 0)
(15.3976 2.71733 0)
(15.4093 2.72413 5.48691e-20)
(15.4227 2.73195 -1.86846e-19)
(15.4401 2.74136 4.64299e-18)
(15.4639 2.7535 4.13597e-18)
(15.4963 2.77059 0)
(15.539 2.79609 3.25435e-18)
(15.5929 2.83397 0)
(15.6584 2.88898 9.49258e-18)
(15.7349 2.96598 3.6167e-18)
(15.8215 3.0701 -2.76034e-18)
(15.9152 3.20606 -2.76454e-19)
(16.0117 3.37713 0)
(16.1046 3.58404 2.75642e-18)
(16.187 3.82392 2.17298e-18)
(16.2523 4.0897 -2.03438e-19)
(16.2962 4.37125 1.52927e-18)
(16.3171 4.65585 1.37757e-18)
(16.3158 4.93212 0)
(16.2974 5.18655 3.40691e-19)
(16.2643 5.41958 2.48277e-20)
(16.2276 5.60249 -2.60212e-19)
(15.3915 2.71171 -1.55597e-20)
(15.3979 2.71637 2.96299e-18)
(15.4102 2.72262 -2.73106e-18)
(15.4236 2.72983 0)
(15.4412 2.73828 8.73326e-20)
(15.4656 2.74897 1.1122e-19)
(15.499 2.76408 -4.05153e-18)
(15.5437 2.78715 0)
(15.6003 2.82217 0)
(15.6697 2.87401 -4.73504e-18)
(15.7513 2.94753 -3.84395e-18)
(15.8444 3.04801 -1.10218e-19)
(15.9465 3.18032 2.83983e-18)
(16.0532 3.34797 -9.11059e-20)
(16.1583 3.55198 -3.78371e-19)
(16.2547 3.78975 3.84341e-19)
(16.3356 4.05441 -1.4666e-18)
(16.3959 4.33602 -1.40754e-18)
(16.4336 4.62176 -1.5633e-18)
(16.449 4.90049 -1.13898e-18)
(16.4466 5.15786 3.72141e-19)
(16.4278 5.39534 -1.6538e-18)
(16.4041 5.5819 2.9808e-19)
(15.3923 2.71085 3.13294e-18)
(15.3981 2.71557 -3.34283e-18)
(15.4111 2.72127 8.21976e-20)
(15.4243 2.72797 2.55467e-18)
(15.4422 2.7355 -1.25608e-19)
(15.4672 2.74481 -4.22424e-18)
(15.5015 2.75801 7.67716e-18)
(15.548 2.77876 2.23165e-19)
(15.6072 2.81102 -1.66606e-19)
(15.6802 2.85978 -4.94164e-18)
(15.7665 2.92986 1.42153e-19)
(15.8658 3.02654 -3.44846e-18)
(15.9758 3.15481 -2.52992e-18)
(16.0925 3.31842 0)
(16.2096 3.51862 3.09479e-18)
(16.3201 3.75313 -4.58802e-18)
(16.4167 4.01531 -3.24436e-19)
(16.4943 4.29546 1.41347e-18)
(16.5501 4.58076 -1.66663e-20)
(16.5838 4.86044 1.43395e-18)
(16.5995 5.11934 0)
(16.5971 5.36002 4.98058e-19)
(16.5888 5.549 0)
(15.393 2.70998 -5.0771e-18)
(15.3983 2.71489 -3.32341e-18)
(15.4118 2.72006 1.35283e-19)
(15.425 2.72632 -4.97556e-18)
(15.443 2.73299 2.37453e-18)
(15.4684 2.74098 -1.17942e-19)
(15.5036 2.75232 -3.90967e-18)
(15.5517 2.7708 6.45049e-20)
(15.6133 2.80036 -1.93326e-19)
(15.6896 2.84606 5.09778e-18)
(15.7803 2.91263 0)
(15.8854 3.00533 3.15482e-18)
(16.003 3.1292 2.4696e-19)
(16.1292 3.28814 -1.21969e-19)
(16.2583 3.48366 -3.21397e-18)
(16.3828 3.71379 5.88593e-20)
(16.4956 3.97208 1.32836e-18)
(16.5913 4.2492 -2.32787e-18)
(16.6665 4.53233 0)
(16.7201 4.81121 -9.89179e-19)
(16.7559 5.06991 1.30805e-18)
(16.7721 5.31222 0)
(16.7812 5.50223 -7.47156e-19)
(15.3936 2.70915 1.81236e-18)
(15.3984 2.71433 -1.64916e-20)
(15.4124 2.71896 1.34089e-19)
(15.4255 2.72485 2.37587e-18)
(15.4437 2.73072 -4.62422e-18)
(15.4694 2.73745 1.7684e-20)
(15.5053 2.74697 5.48152e-20)
(15.5549 2.76322 3.63014e-18)
(15.6186 2.79008 -8.58383e-20)
(15.698 2.83272 0)
(15.7927 2.89569 4.12244e-18)
(15.9033 2.9842 9.73484e-20)
(16.0281 3.10329 9.70366e-20)
(16.1638 3.25697 2.67689e-20)
(16.3045 3.44695 -3.16576e-19)
(16.4433 3.67155 2.52892e-18)
(16.5729 3.92455 -1.48937e-18)
(16.6874 4.19697 -2.17168e-19)
(16.7832 4.47604 -4.97996e-19)
(16.8584 4.75212 1.34934e-18)
(16.9159 5.00851 -9.28275e-19)
(16.9527 5.25047 1.88768e-18)
(16.981 5.43985 -1.22016e-18)
(15.3941 2.70836 2.01252e-18)
(15.3986 2.71385 3.24739e-18)
(15.413 2.71796 1.41071e-20)
(15.4259 2.72354 2.42813e-18)
(15.4442 2.72864 4.62709e-18)
(15.4702 2.73415 -1.76157e-20)
(15.5067 2.7419 -5.5099e-20)
(15.5576 2.75594 2.62858e-20)
(15.6231 2.78012 -3.08443e-18)
(15.7054 2.81966 2.63578e-18)
(15.8039 2.87891 -4.34529e-18)
(15.9198 2.963 -3.40592e-18)
(16.0516 3.07689 2.8526e-18)
(16.1964 3.22468 0)
(16.3488 3.40822 1.8056e-18)
(16.502 3.62611 0)
(16.6487 3.8723 1.99071e-18)
(16.7829 4.13823 1.25068e-18)
(16.9004 4.41111 -2.43913e-20)
(16.9983 4.68207 -1.50271e-18)
(17.0791 4.93366 -3.14747e-20)
(17.1381 5.17282 6.86236e-21)
(17.1872 5.35947 -4.86616e-19)
(15.3946 2.70764 5.48827e-20)
(15.3987 2.71345 2.97559e-20)
(15.4134 2.71706 -1.36484e-20)
(15.4262 2.72237 -2.4321e-18)
(15.4446 2.72674 -2.29266e-18)
(15.4707 2.73109 0)
(15.5077 2.7371 3.81744e-20)
(15.5599 2.74895 -3.65691e-18)
(15.6271 2.77043 -2.34265e-20)
(15.7121 2.80681 -2.64262e-18)
(15.8141 2.86222 2.22835e-18)
(15.9349 2.94162 5.3031e-18)
(16.0734 3.04988 -2.75939e-18)
(16.2272 3.19109 2.2271e-18)
(16.3914 3.36723 1.81208e-19)
(16.5592 3.57711 2.82277e-20)
(16.7234 3.81482 -1.07162e-19)
(16.8777 4.07223 -3.93541e-19)
(17.0177 4.33649 2.68402e-19)
(17.1394 4.59966 -4.54408e-19)
(17.2446 4.84349 -3.20092e-20)
(17.327 5.07685 3.83846e-19)
(17.398 5.25815 0)
(15.395 2.707 3.37589e-20)
(15.3988 2.71311 0)
(15.4138 2.71623 0)
(15.4265 2.72132 -2.36792e-18)
(15.4449 2.72499 -2.30169e-18)
(15.4711 2.72822 2.18278e-18)
(15.5085 2.73251 2.77191e-20)
(15.5617 2.74219 -3.36344e-20)
(15.6305 2.76094 3.16483e-18)
(15.718 2.7941 -4.76352e-20)
(15.8233 2.84551 8.66228e-20)
(15.9489 2.91995 -1.79238e-18)
(16.0939 3.02209 0)
(16.2565 3.156 -2.37078e-18)
(16.4322 3.32367 -3.80373e-18)
(16.6146 3.52413 -1.59508e-18)
(16.7966 3.75154 -1.00028e-18)
(16.9716 3.99815 0)
(17.1344 4.25109 0)
(17.2805 4.50338 8.24075e-19)
(17.4106 4.73604 5.82243e-19)
(17.517 4.96008 -1.18538e-18)
(17.6106 5.13291 0)
(15.3953 2.70643 -2.3698e-18)
(15.3989 2.71282 1.42605e-20)
(15.4141 2.71546 -6.21419e-21)
(15.4267 2.72035 2.35445e-18)
(15.4451 2.72337 4.5533e-18)
(15.4713 2.7255 -4.32891e-18)
(15.509 2.7281 -2.77761e-20)
(15.5632 2.7356 -3.38853e-20)
(15.6334 2.75159 4.45244e-20)
(15.7232 2.78145 0)
(15.8316 2.82869 -2.20101e-18)
(15.9617 2.89785 1.84609e-18)
(16.1129 2.99336 0)
(16.2842 3.11915 0)
(16.4714 3.27722 1.79925e-18)
(16.6684 3.4667 1.36029e-19)
(16.8681 3.68177 1.13939e-18)
(17.0637 3.91509 8.76379e-19)
(17.2496 4.15365 -1.28054e-18)
(17.4199 4.39164 -4.72651e-19)
(17.5748 4.6093 1.89315e-18)
(17.705 4.82 -1.77078e-18)
(17.821 4.98076 1.1837e-18)
(15.3956 2.70593 1.26092e-18)
(15.3991 2.71258 1.38659e-18)
(15.4144 2.71476 1.25968e-20)
(15.4269 2.71948 -1.66444e-20)
(15.4451 2.72186 -2.28476e-18)
(15.4714 2.72294 2.19009e-18)
(15.5093 2.72385 -1.94016e-20)
(15.5644 2.72917 -8.5688e-21)
(15.6359 2.74235 4.48174e-20)
(15.7278 2.7688 2.43176e-20)
(15.839 2.81168 -3.18481e-20)
(15.9734 2.87522 -1.85026e-18)
(16.1306 2.96353 1.59978e-18)
(16.3102 3.08034 -7.18306e-20)
(16.5086 3.22755 0)
(16.72 3.40437 -1.46242e-19)
(16.9372 3.60488 1.40737e-19)
(17.1532 3.82217 -8.8437e-19)
(17.3615 4.04304 1.61686e-18)
(17.5554 4.26302 9.59316e-19)
(17.7341 4.46157 -6.54713e-19)
(17.887 4.65463 -9.87235e-19)
(18.0244 4.79926 1.29175e-18)
(15.3958 2.70551 2.1436e-20)
(15.3991 2.71236 -1.39978e-18)
(15.4146 2.7141 0)
(15.4271 2.71867 0)
(15.4451 2.72046 0)
(15.4713 2.72049 0)
(15.5094 2.71973 1.94752e-20)
(15.5652 2.72284 -8.49092e-21)
(15.6378 2.73316 -2.25309e-20)
(15.7317 2.75609 2.45e-20)
(15.8456 2.79441 -3.20967e-20)
(15.984 2.85195 0)
(16.1468 2.93247 -3.11276e-18)
(16.3344 3.03937 9.06645e-20)
(16.5436 3.17438 -1.90241e-19)
(16.7689 3.3367 1.80427e-18)
(17.0031 3.52026 -1.45278e-19)
(17.2386 3.71859 2.51924e-19)
(17.4683 3.91824 -3.0595e-19)
(17.6842 4.11635 5.1141e-19)
(17.8849 4.29158 -7.31412e-19)
(18.0579 4.46285 0)
(18.2141 4.58796 7.16153e-19)
(15.396 2.70516 -2.54475e-18)
(15.3992 2.71217 -6.35921e-19)
(15.4148 2.71348 -9.02084e-21)
(15.4272 2.71792 1.18287e-18)
(15.4451 2.71914 1.11842e-18)
(15.4711 2.71817 1.05748e-20)
(15.5092 2.71573 -2.04953e-18)
(15.5656 2.71662 1.88095e-18)
(15.6392 2.72399 1.58734e-18)
(15.7349 2.74328 0)
(15.8512 2.7768 4.11739e-20)
(15.9934 2.82796 -1.95394e-18)
(16.1614 2.90004 1.62409e-18)
(16.3566 2.99605 1.22928e-18)
(16.576 3.11741 1.05518e-18)
(16.8145 3.26325 0)
(17.0647 3.42736 0)
(17.3183 3.60378 -9.75127e-19)
(17.5673 3.77896 -1.07762e-18)
(17.8026 3.95166 5.26476e-19)
(18.0218 4.10044 3.827e-19)
(18.2115 4.24548 5.13136e-19)
(18.3828 4.34866 -7.13626e-19)
(15.3962 2.70487 1.27816e-18)
(15.3993 2.712 6.37483e-19)
(15.415 2.71291 -6.31351e-21)
(15.4273 2.71722 5.18369e-21)
(15.4449 2.71787 -1.11884e-18)
(15.4708 2.7159 -1.06978e-18)
(15.5089 2.71177 1.00317e-18)
(15.5657 2.71039 -1.86436e-18)
(15.6403 2.71476 -1.58122e-18)
(15.7376 2.73027 -3.86844e-20)
(15.856 2.75877 0)
(16.0015 2.80313 1.90249e-18)
(16.1743 2.8661 1.58992e-18)
(16.3765 2.95015 -1.30546e-18)
(16.6054 3.0564 -9.05606e-19)
(16.856 3.18385 -4.2663e-19)
(17.1206 3.32608 -3.50748e-19)
(17.3903 3.47767 1.94668e-18)
(17.6559 3.62516 0)
(17.9071 3.76883 0)
(18.1407 3.88826 3.90128e-19)
(18.3426 4.00332 -9.88912e-19)
(18.5244 4.08245 -7.08973e-19)
(15.3963 2.70461 -1.26291e-18)
(15.3993 2.71183 0)
(15.4151 2.71236 0)
(15.4273 2.71659 -2.35607e-18)
(15.4447 2.71675 1.09354e-18)
(15.4702 2.71385 1.09503e-18)
(15.5082 2.70808 -3.00139e-22)
(15.5654 2.70438 9.17585e-19)
(15.6406 2.70562 3.75172e-20)
(15.7394 2.71718 -1.38773e-18)
(15.8597 2.74038 4.14611e-20)
(16.0083 2.77756 -5.42276e-20)
(16.1853 2.83076 -1.58702e-18)
(16.3937 2.90184 1.31773e-18)
(16.631 2.99148 9.95064e-19)
(16.8923 3.0985 -8.68527e-19)
(17.1694 3.21636 7.98222e-19)
(17.4524 3.34023 -9.7257e-19)
(17.731 3.45722 0)
(17.9939 3.5689 0)
(18.2368 3.65701 -3.61185e-19)
(18.4457 3.74008 2.5301e-19)
(18.6327 3.79398 -7.01216e-19)
(15.3963 2.7044 1.93892e-20)
(15.3993 2.71168 -6.02514e-19)
(15.4153 2.71179 0)
(15.4272 2.71582 5.92547e-19)
(15.4444 2.71528 -2.20103e-18)
(15.4699 2.71127 1.05521e-20)
(15.5079 2.70374 -1.46698e-20)
(15.5653 2.69774 -9.51707e-19)
(15.6411 2.69593 2.2766e-20)
(15.7408 2.70349 1.39226e-18)
(15.8625 2.72112 -3.24205e-20)
(16.0135 2.75055 -9.16731e-19)
(16.1941 2.79318 -1.0238e-19)
(16.4079 2.85017 -1.23749e-18)
(16.6525 2.92174 -1.13999e-18)
(16.9228 3.00651 9.1054e-20)
(17.2098 3.09793 0)
(17.5027 3.19187 -1.3304e-19)
(17.79 3.27646 1.71066e-19)
(18.0594 3.3545 0)
(18.306 3.41063 3.63405e-19)
(18.5164 3.4616 -2.48065e-19)
(18.7034 3.49037 0)
(15.3964 2.70429 1.24551e-18)
(15.3993 2.71167 6.00902e-19)
(15.4151 2.7117 0)
(15.4273 2.71588 5.80154e-19)
(15.444 2.71551 2.18095e-18)
(15.469 2.71114 1.06912e-18)
(15.5066 2.70233 2.02974e-18)
(15.5642 2.69412 0)
(15.6407 2.68912 1.6131e-18)
(15.7418 2.69287 -1.35537e-18)
(15.865 2.70562 1.12096e-18)
(16.0181 2.72821 9.48417e-19)
(16.2013 2.7609 -1.41634e-20)
(16.4189 2.80367 1.84575e-20)
(16.6685 2.85593 -1.05885e-18)
(16.9453 2.91596 8.38288e-19)
(17.2393 2.97747 0)
(17.5384 3.03733 4.88401e-19)
(17.8301 3.08553 0)
(18.101 3.12627 0)
(18.3456 3.14796 -3.55678e-19)
(18.5526 3.16581 -7.45387e-19)
(18.7345 3.16934 6.37274e-19)
(15.3965 2.70417 0)
(15.3994 2.71166 -2.69369e-23)
(15.4153 2.71157 8.47454e-23)
(15.4273 2.71578 -5.74521e-19)
(15.4438 2.71537 -5.44619e-19)
(15.4686 2.71066 -1.06877e-18)
(15.5061 2.70101 -1.01664e-18)
(15.5637 2.6913 -1.07844e-21)
(15.6404 2.68399 -8.03527e-19)
(15.7419 2.68452 1.37284e-21)
(15.866 2.69263 -1.22524e-21)
(16.0204 2.70837 0)
(16.2055 2.73095 1.41077e-20)
(16.4259 2.75914 -1.83787e-20)
(16.6793 2.79147 1.54591e-18)
(16.9602 2.8258 4.82276e-20)
(17.2578 2.85627 0)
(17.5587 2.88088 1.3058e-19)
(17.8493 2.89206 -1.68236e-19)
(18.1158 2.8956 0)
(18.3527 2.88384 0)
(18.5512 2.87062 4.78276e-19)
(18.7241 2.85055 -3.2761e-19)
(15.3967 2.70403 1.19103e-18)
(15.3994 2.71164 6.10276e-19)
(15.4154 2.71141 0)
(15.4273 2.71566 5.75027e-19)
(15.4437 2.71515 -5.45623e-19)
(15.4683 2.71007 -1.07875e-18)
(15.5057 2.69958 1.03084e-18)
(15.5634 2.68838 -9.41443e-19)
(15.6404 2.6788 -8.09617e-19)
(15.7426 2.67611 2.03353e-18)
(15.8674 2.6795 -1.12095e-18)
(16.023 2.68827 -9.31358e-19)
(16.2094 2.70053 -7.80731e-19)
(16.4316 2.71393 0)
(16.6868 2.72619 -5.26385e-19)
(16.9689 2.73485 8.33472e-19)
(17.2661 2.7348 4.40786e-20)
(17.5638 2.72547 -5.40289e-19)
(17.8478 2.70204 0)
(18.1048 2.67186 0)
(18.3294 2.63079 0)
(18.5161 2.59127 -7.10571e-19)
(18.6771 2.55124 6.25702e-19)
(15.3967 2.70388 -1.19241e-18)
(15.3995 2.71161 5.71227e-21)
(15.4155 2.71124 0)
(15.4274 2.71553 -5.71807e-19)
(15.4437 2.71493 -5.82938e-23)
(15.4681 2.70947 1.62338e-18)
(15.5054 2.69812 -2.07209e-18)
(15.5631 2.68545 2.83987e-18)
(15.6405 2.67358 -9.21706e-22)
(15.7432 2.66767 -6.76348e-19)
(15.8687 2.66631 -5.62502e-19)
(16.0251 2.66807 9.33894e-19)
(16.2122 2.66995 7.71774e-19)
(16.4349 2.6685 -6.39796e-19)
(16.6899 2.66072 9.23901e-21)
(16.9703 2.64404 -8.43914e-19)
(17.2635 2.61441 0)
(17.5538 2.57296 0)
(17.8271 2.51776 3.43465e-19)
(18.0706 2.45764 0)
(18.28 2.39144 0)
(18.4529 2.33014 1.14346e-19)
(18.6004 2.27362 2.99033e-19)
(15.3967 2.70373 0)
(15.3996 2.71157 -6.17273e-19)
(15.4156 2.71107 1.68047e-23)
(15.4274 2.71539 9.57555e-23)
(15.4436 2.7147 -4.35404e-23)
(15.4678 2.70887 -1.09226e-18)
(15.505 2.69669 1.04117e-18)
(15.5627 2.68253 -1.89861e-18)
(15.6403 2.66837 -8.21377e-19)
(15.7434 2.65921 0)
(15.8695 2.6531 5.59826e-19)
(16.0263 2.64782 1.869e-21)
(16.2133 2.63933 3.74183e-22)
(16.4354 2.6231 6.37023e-19)
(16.6882 2.59554 0)
(16.9643 2.55415 4.15291e-19)
(17.2501 2.49628 -9.18034e-21)
(17.5296 2.42495 0)
(17.7887 2.34113 -3.43577e-19)
(18.016 2.25493 0)
(18.2085 2.16761 0)
(18.3665 2.08871 0)
(18.4996 2.01888 -5.16892e-21)
(15.3968 2.70357 0)
(15.3996 2.71153 3.14758e-19)
(15.4157 2.71088 -3.0767e-24)
(15.4275 2.71525 5.7275e-19)
(15.4435 2.71448 5.6026e-19)
(15.4675 2.70829 1.10199e-18)
(15.5045 2.69527 0)
(15.5622 2.67963 -9.60316e-19)
(15.64 2.66318 1.64524e-18)
(15.7434 2.65077 -1.95034e-23)
(15.8697 2.63988 5.56684e-19)
(16.0265 2.62759 -4.58161e-19)
(16.2127 2.6088 0)
(16.4328 2.57799 0)
(16.6817 2.5311 5.08701e-19)
(16.951 2.46593 -4.08044e-19)
(17.2266 2.38148 0)
(17.4921 2.28284 -4.54408e-19)
(17.7345 2.17367 -3.30975e-19)
(17.9436 2.06516 0)
(18.1182 1.9604 5.18372e-21)
(18.2608 1.86751 3.11787e-22)
(18.3794 1.78717 -1.54564e-19)
(15.3968 2.70341 3.92946e-24)
(15.3997 2.71148 -6.3267e-19)
(15.4157 2.71069 -9.056e-24)
(15.4275 2.71511 0)
(15.4434 2.71426 5.14591e-21)
(15.4672 2.70773 -1.11178e-18)
(15.504 2.69388 -2.25574e-22)
(15.5616 2.67676 9.6054e-19)
(15.6395 2.65802 -8.23553e-19)
(15.7431 2.64235 6.77837e-19)
(15.8694 2.6267 -3.02422e-21)
(16.0258 2.60745 9.12929e-19)
(16.2106 2.57849 -7.51614e-19)
(16.4275 2.5334 2.21073e-21)
(16.6706 2.46784 -1.01359e-18)
(16.9308 2.38009 4.07098e-19)
(17.1935 2.27102 -1.92265e-20)
(17.4426 2.14778 4.70473e-19)
(17.6663 2.01657 3.29403e-19)
(17.856 1.88932 0)
(18.0124 1.77039 1.52852e-19)
(18.1395 1.66654 0)
(18.2437 1.57806 -6.48263e-20)
(15.3969 2.70323 0)
(15.3998 2.71141 3.179e-19)
(15.4158 2.7105 3.59352e-19)
(15.4275 2.71496 3.26981e-23)
(15.4433 2.71405 -1.13763e-18)
(15.4669 2.70718 5.58646e-19)
(15.5035 2.69253 0)
(15.561 2.67393 0)
(15.6388 2.6529 -4.61769e-22)
(15.7425 2.63396 -6.77394e-19)
(15.8687 2.61358 -3.58562e-21)
(16.0242 2.58744 -4.53991e-19)
(16.2069 2.54852 7.48501e-19)
(16.4195 2.48959 0)
(16.6552 2.4062 5.0063e-19)
(16.9041 2.29729 -3.94796e-19)
(17.1516 2.16574 2.73445e-19)
(17.3824 2.02074 2.59964e-20)
(17.5859 1.87069 0)
(17.7556 1.72802 0)
(17.8937 1.59783 -7.62898e-20)
(18.0055 1.48552 -1.97523e-19)
(18.0957 1.39084 1.35917e-19)
(15.3969 2.70305 0)
(15.3998 2.71134 -1.38169e-23)
(15.4159 2.71029 -3.59636e-19)
(15.4276 2.71481 2.93458e-19)
(15.4432 2.71385 5.71619e-19)
(15.4666 2.70665 1.18859e-22)
(15.5029 2.6912 5.39307e-19)
(15.5602 2.67114 4.85323e-19)
(15.6381 2.64781 -8.24617e-19)
(15.7417 2.62562 0)
(15.8676 2.60053 -4.11985e-21)
(16.0219 2.56762 -4.44535e-19)
(16.2016 2.519 0)
(16.4089 2.44678 -1.07243e-20)
(16.6356 2.34656 4.93725e-19)
(16.8714 2.2181 0)
(17.1018 2.06638 -4.82456e-20)
(17.3127 1.90247 -6.13694e-21)
(17.4951 1.7366 3.72075e-19)
(17.6446 1.58153 0)
(17.7648 1.44268 0)
(17.8615 1.32398 9.9291e-20)
(17.9381 1.22464 -3.20954e-19)
(15.3969 2.70286 -7.97273e-24)
(15.3999 2.71126 1.05212e-23)
(15.4159 2.71008 0)
(15.4276 2.71465 2.97661e-19)
(15.4431 2.71365 -3.03496e-22)
(15.4662 2.70614 2.39264e-22)
(15.5024 2.68991 -5.3927e-19)
(15.5595 2.66838 -4.85963e-19)
(15.6372 2.64276 8.24919e-19)
(15.7407 2.61734 -6.68848e-19)
(15.866 2.58759 -5.47873e-19)
(16.0187 2.54805 4.48569e-19)
(16.1949 2.49006 3.52505e-19)
(16.3958 2.40519 2.81221e-19)
(16.6121 2.28929 -4.83231e-19)
(16.8331 2.14305 2.14651e-20)
(17.0449 1.97354 -3.23797e-19)
(17.2347 1.79354 -1.53169e-19)
(17.3956 1.61469 -1.5664e-19)
(17.5249 1.44991 1.05723e-19)
(17.6276 1.30461 -1.35852e-19)
(17.7097 1.18117 0)
(17.7735 1.0785 1.21946e-19)
(15.3969 2.70266 0)
(15.4 2.71116 3.23891e-19)
(15.416 2.70985 3.62655e-19)
(15.4277 2.71449 -2.94332e-19)
(15.443 2.71346 2.91618e-19)
(15.4659 2.70565 0)
(15.5017 2.68865 6.40834e-22)
(15.5586 2.66567 -8.41959e-22)
(15.6362 2.63776 4.1076e-19)
(15.7394 2.60912 1.00406e-18)
(15.8639 2.57477 -5.34118e-19)
(16.0147 2.52877 -3.12402e-21)
(16.1868 2.46178 -6.91594e-21)
(16.3802 2.36502 -2.91837e-19)
(16.5849 2.23471 0)
(16.7897 2.07257 3.52441e-19)
(16.9817 1.8877 -2.65638e-19)
(17.1497 1.69433 2.02948e-19)
(17.2887 1.50513 6.68903e-20)
(17.3982 1.33304 6.11806e-21)
(17.4841 1.18318 -1.30051e-19)
(17.5519 1.05644 8.62538e-20)
(17.6033 0.951643 1.19476e-19)
(15.397 2.70245 2.90746e-19)
(15.4 2.71106 -3.63947e-22)
(15.416 2.70962 -3.62941e-19)
(15.4277 2.71432 -2.97339e-19)
(15.4429 2.71327 -5.84266e-19)
(15.4655 2.70518 -5.72373e-19)
(15.5011 2.68742 -6.41032e-22)
(15.5576 2.66299 8.4218e-22)
(15.635 2.63281 -4.10908e-19)
(15.7379 2.60097 -3.33634e-19)
(15.8614 2.56209 1.06819e-18)
(16.0099 2.50984 -4.26718e-19)
(16.1773 2.43428 -3.51102e-19)
(16.3625 2.32646 2.76662e-19)
(16.5543 2.18313 -1.55188e-20)
(16.7418 2.00706 -3.09471e-19)
(16.9131 1.80925 2.70859e-19)
(17.0588 1.60512 -2.81092e-19)
(17.176 1.40802 -7.35787e-20)
(17.266 1.23071 0)
(17.3357 1.07791 1.29714e-19)
(17.3898 0.949133 -1.70962e-19)
(17.4294 0.843187 2.27148e-19)
(15.397 2.70224 -2.90925e-19)
(15.4001 2.71095 -4.85502e-19)
(15.4161 2.70938 -3.64761e-19)
(15.4278 2.71415 2.99139e-19)
(15.4428 2.71309 2.92576e-19)
(15.4652 2.70472 5.72532e-19)
(15.5004 2.68622 5.43166e-19)
(15.5566 2.66036 0)
(15.6337 2.62791 4.09007e-19)
(15.7361 2.5929 -3.30249e-19)
(15.8584 2.54958 -5.31708e-19)
(16.0044 2.49129 4.26927e-19)
(16.1665 2.40764 0)
(16.3427 2.28967 -2.57719e-19)
(16.5208 2.13478 1.86193e-19)
(16.6901 1.94681 -1.62365e-19)
(16.8399 1.73846 6.67389e-20)
(16.9632 1.52606 9.99385e-20)
(17.0588 1.32332 -2.58566e-19)
(17.1298 1.14264 1.72755e-19)
(17.1839 0.988356 0)
(17.2246 0.858705 -3.30039e-19)
(17.2527 0.752399 4.67083e-19)
(15.397 2.70201 0)
(15.4001 2.71082 1.61609e-19)
(15.4162 2.70914 3.649e-19)
(15.4278 2.71397 -2.99342e-19)
(15.4427 2.71291 -5.98959e-23)
(15.4648 2.70428 2.4154e-22)
(15.4997 2.68506 -2.71357e-19)
(15.5555 2.65777 0)
(15.6322 2.62307 -4.09166e-19)
(15.734 2.58492 1.61768e-21)
(15.855 2.53725 0)
(15.9981 2.47317 -2.0654e-19)
(16.1545 2.38195 0)
(16.3211 2.25479 1.84283e-20)
(16.4847 2.08987 -4.09237e-19)
(16.6351 1.89207 1.25696e-19)
(16.763 1.67553 6.33557e-20)
(16.8637 1.45721 -2.49285e-19)
(16.9381 1.25091 1.25565e-19)
(16.9909 1.06854 1.73005e-19)
(17.0298 0.914096 -2.77699e-19)
(17.0574 0.784711 2.28632e-19)
(17.0747 0.678891 -8.36215e-19)
(15.3971 2.70178 -2.933e-19)
(15.4002 2.71068 1.60392e-19)
(15.4162 2.70888 -1.83048e-19)
(15.4279 2.71378 -1.60915e-22)
(15.4425 2.71273 3.07029e-22)
(15.4644 2.70386 -5.93173e-22)
(15.4989 2.68392 -2.71851e-19)
(15.5543 2.65523 1.946e-21)
(15.6306 2.61829 -1.44665e-21)
(15.7318 2.57703 1.5143e-21)
(15.8513 2.52512 -2.57982e-19)
(15.9911 2.45552 1.99494e-19)
(16.1413 2.35728 9.34496e-21)
(16.2978 2.22195 -1.76765e-20)
(16.4463 2.04858 2.25754e-19)
(16.5774 1.84301 0)
(16.6832 1.6206 1.08651e-19)
(16.7616 1.39857 1.67879e-19)
(16.8153 1.19063 -1.19062e-19)
(16.8503 1.00816 3.16675e-19)
(16.8745 0.854648 -1.5412e-19)
(16.8897 0.726389 3.41947e-20)
(16.897 0.62201 4.22307e-19)
(15.3971 2.70153 5.86163e-19)
(15.4002 2.71054 -1.60502e-19)
(15.4163 2.70861 -2.79532e-22)
(15.4279 2.71359 0)
(15.4424 2.71255 0)
(15.464 2.70345 -2.87851e-19)
(15.4981 2.68282 -2.72574e-19)
(15.5531 2.65273 0)
(15.6289 2.61357 -1.79906e-21)
(15.7293 2.56926 3.29902e-19)
(15.8471 2.51322 2.62598e-19)
(15.9835 2.43837 -5.83308e-21)
(16.1272 2.33369 -1.09261e-20)
(16.2731 2.19124 3.11067e-20)
(16.4062 2.01101 -2.20183e-20)
(16.5176 1.79975 0)
(16.6015 1.57372 -1.54753e-19)
(16.6577 1.35005 6.9938e-21)
(16.6912 1.14225 -3.183e-19)
(16.7093 0.961129 1.44052e-19)
(16.7194 0.809458 2.04001e-19)
(16.7227 0.683013 -3.27119e-19)
(16.7207 0.580941 0)
(15.3971 2.70127 -5.84535e-19)
(15.4003 2.71038 2.11834e-23)
(15.4163 2.70834 1.83579e-19)
(15.428 2.71339 0)
(15.4423 2.71238 0)
(15.4635 2.70306 -3.73499e-22)
(15.4973 2.68175 5.45622e-19)
(15.5518 2.65028 0)
(15.6271 2.60892 2.0403e-19)
(15.7266 2.56159 0)
(15.8426 2.50155 0)
(15.9753 2.42176 -6.82087e-21)
(16.1122 2.31123 8.88214e-21)
(16.2472 2.16273 9.84642e-20)
(16.3646 1.97725 2.0953e-20)
(16.4565 1.76234 -3.59133e-20)
(16.5185 1.53488 1.4892e-19)
(16.553 1.31154 0)
(16.567 1.10549 1.0379e-19)
(16.5688 0.92701 0)
(16.5653 0.777976 4.4421e-20)
(16.5573 0.653925 6.14081e-20)
(16.5465 0.554925 0)
(15.3971 2.701 4.36979e-19)
(15.4003 2.7102 -7.97505e-20)
(15.4164 2.70805 0)
(15.428 2.71318 1.50051e-19)
(15.4422 2.71221 -1.47264e-19)
(15.4631 2.70268 2.88782e-19)
(15.4964 2.68072 -2.73514e-19)
(15.5504 2.64788 -2.4618e-19)
(15.6251 2.60434 -2.02676e-19)
(15.7237 2.55405 -2.80142e-21)
(15.8377 2.49013 3.6599e-21)
(15.9666 2.40571 1.90758e-19)
(16.0964 2.28993 1.00877e-20)
(16.2204 2.13648 -1.42989e-19)
(16.322 1.94733 1.98402e-20)
(16.3945 1.73076 0)
(16.4352 1.504 0)
(16.4483 1.28287 0)
(16.4434 1.08005 0)
(16.4297 0.905306 -3.00682e-20)
(16.4131 0.759579 -1.98529e-19)
(16.3941 0.638506 1.9265e-19)
(16.3751 0.543224 0)
(15.3971 2.70072 -1.45241e-19)
(15.4004 2.71002 1.59582e-19)
(15.4164 2.70776 0)
(15.4281 2.71297 -1.50191e-19)
(15.4421 2.71204 2.95345e-19)
(15.4627 2.70232 0)
(15.4956 2.67972 0)
(15.549 2.64553 2.45184e-19)
(15.6231 2.59984 0)
(15.7206 2.54663 -1.58085e-19)
(15.8325 2.47897 -1.26637e-19)
(15.9574 2.39023 -9.77779e-20)
(16.0799 2.26983 1.39366e-19)
(16.1928 2.11249 0)
(16.2788 1.92123 0)
(16.3322 1.70494 3.05573e-20)
(16.3522 1.48097 -3.9875e-20)
(16.3447 1.26389 0)
(16.3213 1.06564 -3.9343e-20)
(16.2925 0.8956 3.01805e-20)
(16.2632 0.753746 1.56636e-19)
(16.2338 0.636041 -2.02076e-19)
(16.2073 0.544926 0)
(15.3972 2.70043 1.59542e-23)
(15.4004 2.70982 -1.598e-19)
(15.4165 2.70745 -5.13649e-23)
(15.4281 2.71274 -7.52528e-20)
(15.4419 2.71187 -1.48079e-19)
(15.4623 2.70198 1.45786e-19)
(15.4947 2.67875 4.69733e-22)
(15.5475 2.64324 -1.24321e-19)
(15.6209 2.59541 2.07122e-19)
(15.7172 2.53935 1.5862e-19)
(15.827 2.46809 1.23091e-19)
(15.9477 2.37535 -9.32074e-20)
(16.0628 2.25094 -1.3952e-19)
(16.1646 2.09075 -1.33886e-20)
(16.2354 1.89891 1.74918e-20)
(16.2703 1.68476 2.77291e-20)
(16.2703 1.46559 -3.62097e-20)
(16.2428 1.25442 0)
(16.2015 1.06206 3.94809e-20)
(16.158 0.897593 0)
(16.1166 0.760136 -1.84189e-20)
(16.0773 0.645896 0)
(16.0444 0.559292 -7.11906e-21)
(15.3972 2.70012 7.15969e-20)
(15.4005 2.70962 7.99448e-20)
(15.4165 2.70713 9.30321e-20)
(15.4282 2.71251 -1.4975e-23)
(15.4418 2.71169 -2.50236e-22)
(15.4618 2.70164 9.82309e-22)
(15.4938 2.67781 -1.38667e-19)
(15.546 2.64099 -1.08248e-21)
(15.6186 2.59106 -2.0399e-19)
(15.7137 2.53221 -2.71329e-21)
(15.8212 2.45748 1.22898e-19)
(15.9376 2.36107 0)
(16.0453 2.23325 -8.70421e-21)
(16.1362 2.07122 1.13481e-20)
(16.1921 1.88027 3.2253e-20)
(16.2094 1.67005 0)
(16.1902 1.45763 0)
(16.1437 1.25426 -2.1776e-20)
(16.0848 1.0692 0)
(16.0266 0.910919 9.29761e-20)
(15.9733 0.778377 -1.05197e-19)
(15.9256 0.668275 9.49277e-21)
(15.8871 0.585841 2.25396e-19)
(15.3972 2.69981 -1.42959e-19)
(15.4005 2.7094 -4.01984e-20)
(15.4166 2.70681 -1.39654e-19)
(15.4282 2.71227 7.58479e-20)
(15.4417 2.71152 7.46748e-20)
(15.4614 2.70132 -2.20603e-19)
(15.4928 2.67691 1.38901e-19)
(15.5444 2.63881 1.22442e-19)
(15.6162 2.5868 3.21523e-21)
(15.7101 2.5252 -2.3073e-21)
(15.8151 2.44717 -1.19428e-19)
(15.9271 2.34741 -4.28989e-20)
(16.0274 2.21675 5.29269e-20)
(16.1077 2.05384 5.35658e-20)
(16.1494 1.86515 -3.2302e-20)
(16.15 1.66058 0)
(16.1128 1.45679 0)
(16.0483 1.26318 -3.82997e-20)
(15.9724 1.08715 5.41927e-20)
(15.899 0.935874 0)