/*--------------------------------*- C++ -*----------------------------------*\
  =========                 |
  \\      /  F ield         | OpenFOAM: The Open Source CFD Toolbox
   \\    /   O peration     | Website:  https://openfoam.org
    \\  /    A nd           | Version:  7
     \\/     M anipulation  |
\*---------------------------------------------------------------------------*/
FoamFile
{
    version     2.0;
    format      ascii;
    class       volScalarField;
    location    "73";
    object      yPlus;
}
// * * * * * * * * * * * * * * * * * * * * * * * * * * * * * * * * * * * * * //

dimensions      [0 0 0 0 0 0 0];

internalField   uniform 0;

boundaryField
{
    inlet
    {
        type            calculated;
        value           uniform 0;
    }
    outlet
    {
        type            calculated;
        value           uniform 0;
    }
    suction_side
    {
        type            calculated;
        value           nonuniform List<scalar> 
56
(
8.86196
8.76337
9.2594
9.11978
9.8819
9.71761
11.0186
10.8109
12.566
13.3131
15.2411
21.1016
30.8978
33.2526
26.5817
20.4286
29.1002
40.9361
50.2573
52.8288
50.4496
47.8879
46.0351
44.0354
42.3769
41.0538
39.8082
38.2575
36.8384
35.5225
34.2795
33.1456
32.0943
31.0773
30.1039
29.1478
28.2176
27.1854
26.0702
24.7215
23.1688
21.5196
19.8188
17.8637
15.4604
13.1601
12.6149
13.609
13.7628
13.7161
14.6815
16.0207
15.7782
16.018
14.989
16.1591
)
;
    }
    pressure_side
    {
        type            calculated;
        value           nonuniform List<scalar> 
56
(
36.4431
36.3535
36.4027
36.542
36.6654
36.8137
36.9365
37.0536
37.1565
37.2163
37.2675
37.305
37.3377
37.3681
37.401
37.4353
37.4674
37.4979
37.5233
37.5377
37.5399
37.5045
37.4098
37.2556
37.0574
36.8738
36.7954
36.8897
37.2214
37.8049
38.5508
39.3109
39.8698
39.7886
38.8476
37.3569
35.0903
31.9429
27.879
23
17.5712
11.9732
7.62487
6.07028
5.14576
5.04967
5.36219
5.77039
6.66567
6.91791
7.88863
7.82077
8.30761
8.18101
8.58423
8.4766
)
;
    }
    trailing_edge
    {
        type            calculated;
        value           nonuniform List<scalar> 2(132.289 91.2525);
    }
    defaultFaces
    {
        type            empty;
    }
}


// ************************************************************************* //
