0 	0 	0 	0
0.000502513 	0.421282 	-3.84568e-21 	0
0.00100503 	0.842563 	-7.69136e-21 	0
0.00150754 	0.991812 	3.61949e-20 	0
0.00201005 	1.08617 	8.68206e-20 	0
0.00251256 	1.16301 	1.23409e-19 	0
0.00301508 	1.22808 	1.62433e-19 	0
0.00351759 	1.28563 	1.79079e-19 	0
0.0040201 	1.33208 	1.79381e-19 	0
0.00452261 	1.37613 	1.92515e-19 	0
0.00502513 	1.41153 	1.76056e-19 	0
0.00552764 	1.44607 	1.89385e-19 	0
0.00603015 	1.47484 	1.54789e-19 	0
0.00653266 	1.50279 	1.49855e-19 	0
0.00703518 	1.52695 	1.47905e-19 	0
0.00753769 	1.54994 	1.49408e-19 	0
0.0080402 	1.57085 	1.738e-19 	0
0.00854271 	1.59016 	1.8069e-19 	0
0.00904523 	1.6084 	1.99103e-19 	0
0.00954774 	1.62496 	1.81958e-19 	0
0.0100503 	1.64092 	1.64215e-19 	0
0.0105528 	1.65536 	7.16528e-20 	0
0.0110553 	1.66939 	9.69887e-20 	0
0.0115578 	1.68215 	-3.93239e-20 	0
0.0120603 	1.69447 	-5.46124e-21 	0
0.0125628 	1.70588 	-6.45144e-20 	0
0.0130653 	1.71677 	-6.93353e-20 	0
0.0135678 	1.727 	-6.68675e-20 	0
0.0140704 	1.73665 	-9.99652e-20 	0
0.0145729 	1.7459 	4.43517e-20 	0
0.0150754 	1.75449 	-1.05187e-21 	0
0.0155779 	1.76288 	4.83918e-20 	0
0.0160804 	1.77054 	-1.03917e-19 	0
0.0165829 	1.77809 	-1.00772e-19 	0
0.0170854 	1.78502 	-3.25505e-19 	0
0.0175879 	1.7918 	-2.80026e-19 	0
0.0180905 	1.79813 	-3.18346e-19 	0
0.018593 	1.80422 	-3.26362e-19 	0
0.0190955 	1.81004 	-3.03024e-19 	0
0.019598 	1.81549 	-3.46969e-19 	0
0.0201005 	1.82087 	-1.28759e-19 	0
0.020603 	1.82576 	-2.89759e-20 	0
0.0211055 	1.83073 	-6.68986e-20 	0
0.021608 	1.83512 	-4.4036e-20 	0
0.0221106 	1.83962 	-1.40598e-19 	0
0.0226131 	1.84369 	-3.30923e-19 	0
0.0231156 	1.84775 	-3.06722e-19 	0
0.0236181 	1.85155 	-3.09948e-19 	0
0.0241206 	1.8552 	-3.12509e-19 	0
0.0246231 	1.85876 	-2.76112e-19 	0
0.0251256 	1.86204 	-3.33101e-19 	0
0.0256281 	1.86539 	-2.20589e-19 	0
0.0261307 	1.86832 	-3.04941e-19 	0
0.0266332 	1.87146 	-1.61936e-19 	0
0.0271357 	1.87414 	-1.9395e-19 	0
0.0276382 	1.87698 	-1.17753e-19 	0
0.0281407 	1.87952 	-1.08043e-19 	0
0.0286432 	1.88207 	-7.17364e-20 	0
0.0291457 	1.88449 	-4.27629e-20 	0
0.0296482 	1.88679 	-3.4614e-20 	0
0.0301508 	1.88909 	-3.64645e-21 	0
0.0306533 	1.89115 	-2.99105e-21 	0
0.0311558 	1.89335 	-1.30665e-20 	0
0.0316583 	1.89522 	2.16995e-20 	0
0.0321608 	1.89725 	-3.9671e-20 	0
0.0326633 	1.899 	3.40243e-20 	0
0.0331658 	1.90084 	-3.56556e-20 	0
0.0336683 	1.90251 	2.65791e-20 	0
0.0341709 	1.90418 	-1.33472e-21 	0
0.0346734 	1.90579 	-8.75667e-21 	0
0.0351759 	1.9073 	3.8273e-20 	0
0.0356784 	1.90884 	-2.97915e-20 	0
0.0361809 	1.91021 	5.13643e-20 	0
0.0366834 	1.91167 	-3.43766e-20 	0
0.0371859 	1.91293 	6.44903e-20 	0
0.0376884 	1.91427 	1.88489e-20 	0
0.038191 	1.91547 	7.77908e-20 	0
0.0386935 	1.91669 	7.42136e-20 	0
0.039196 	1.91784 	9.1471e-20 	0
0.0396985 	1.91896 	1.03367e-19 	0
0.040201 	1.92005 	1.02747e-19 	0
0.0407035 	1.92109 	1.18373e-19 	0
0.041206 	1.92213 	1.07316e-19 	0
0.0417085 	1.92308 	1.35132e-19 	0
0.0422111 	1.92406 	1.2467e-19 	0
0.0427136 	1.92494 	1.53611e-19 	0
0.0432161 	1.92584 	1.64279e-19 	0
0.0437186 	1.92668 	1.74079e-19 	0
0.0442211 	1.92751 	1.88409e-19 	0
0.0447236 	1.92831 	1.96113e-19 	0
0.0452261 	1.92908 	2.09951e-19 	0
0.0457286 	1.92983 	2.18464e-19 	0
0.0462312 	1.93055 	2.30705e-19 	0
0.0467337 	1.93126 	2.40164e-19 	0
0.0472362 	1.93193 	2.38445e-19 	0
0.0477387 	1.93259 	2.37964e-19 	0
0.0482412 	1.93322 	2.16404e-19 	0
0.0487437 	1.93383 	1.91185e-19 	0
0.0492462 	1.93442 	1.59318e-19 	0
0.0497487 	1.935 	1.20531e-19 	0
0.0502513 	1.93555 	8.38278e-20 	0
0.0507538 	1.93608 	4.92073e-20 	0
0.0512563 	1.93661 	1.62353e-20 	0
0.0517588 	1.9371 	-4.86949e-21 	0
0.0522613 	1.93759 	-2.22379e-20 	0
0.0527638 	1.93805 	-3.41867e-20 	0
0.0532663 	1.93851 	-3.96357e-20 	0
0.0537688 	1.93894 	-3.57865e-20 	0
0.0542714 	1.93937 	-2.90584e-20 	0
0.0547739 	1.93978 	-8.82955e-21 	0
0.0552764 	1.94017 	3.98278e-21 	0
0.0557789 	1.94055 	2.18621e-20 	0
0.0562814 	1.94091 	3.10548e-20 	0
0.0567839 	1.94127 	5.1671e-20 	0
0.0572864 	1.94161 	5.11948e-20 	0
0.0577889 	1.94194 	8.5831e-20 	0
0.0582915 	1.94225 	6.04587e-20 	0
0.058794 	1.94256 	7.61911e-20 	0
0.0592965 	1.94285 	5.41332e-20 	0
0.059799 	1.94314 	5.18877e-20 	0
0.0603015 	1.94341 	3.74919e-20 	0
0.060804 	1.94367 	3.01437e-20 	0
0.0613065 	1.94393 	2.80521e-20 	0
0.061809 	1.94417 	7.80576e-21 	0
0.0623116 	1.9444 	3.75525e-20 	0
0.0628141 	1.94462 	-1.54909e-20 	0
0.0633166 	1.94484 	4.47173e-20 	0
0.0638191 	1.94504 	-3.81941e-20 	0
0.0643216 	1.94524 	6.71517e-21 	0
0.0648241 	1.94542 	-5.94968e-20 	0
0.0653266 	1.94561 	-3.41761e-20 	0
0.0658291 	1.94578 	-5.51713e-20 	0
0.0663317 	1.94594 	-7.69751e-20 	0
0.0668342 	1.9461 	-3.07382e-20 	0
0.0673367 	1.94624 	-1.02859e-19 	0
0.0678392 	1.94639 	-2.00018e-21 	0
0.0683417 	1.94651 	-1.1859e-19 	0
0.0688442 	1.94665 	-5.82501e-23 	0
0.0693467 	1.94676 	-1.32845e-19 	0
0.0698492 	1.94688 	-3.93305e-20 	0
0.0703518 	1.94698 	-1.10931e-19 	0
0.0708543 	1.94708 	-7.91824e-20 	0
0.0713568 	1.94717 	-7.71746e-20 	0
0.0718593 	1.94726 	-1.19001e-19 	0
0.0723618 	1.94734 	-4.19395e-20 	0
0.0728643 	1.94741 	-1.58223e-19 	0
0.0733668 	1.94749 	-5.96916e-21 	0
0.0738693 	1.94754 	-1.80618e-19 	0
0.0743719 	1.94761 	-2.06621e-20 	0
0.0748744 	1.94765 	-1.4524e-19 	0
0.0753769 	1.94771 	-5.81872e-20 	0
0.0758794 	1.94774 	-1.0763e-19 	0
0.0763819 	1.94778 	-9.44857e-20 	0
0.0768844 	1.94781 	-7.03893e-20 	0
0.0773869 	1.94783 	-1.29034e-19 	0
0.0778894 	1.94786 	-3.41147e-20 	0
0.078392 	1.94786 	-1.55821e-19 	0
0.0788945 	1.9479 	6.36724e-22 	0
0.079397 	1.94788 	-1.44446e-19 	0
0.0798995 	1.9479 	-2.99916e-20 	0
0.080402 	1.94788 	-1.22402e-19 	0
0.0809045 	1.94788 	-6.1916e-20 	0
0.081407 	1.94787 	-8.60784e-20 	0
0.0819095 	1.94785 	-9.11051e-20 	0
0.0824121 	1.94783 	-5.20435e-20 	0
0.0829146 	1.9478 	-1.06084e-19 	0
0.0834171 	1.94779 	-2.07057e-20 	0
0.0839196 	1.94774 	-9.46498e-20 	0
0.0844221 	1.94772 	-4.13403e-21 	0
0.0849246 	1.94766 	-8.35127e-20 	0
0.0854271 	1.94763 	-3.08553e-20 	0
0.0859296 	1.94756 	-7.27983e-20 	0
0.0864322 	1.94752 	-5.41449e-20 	0
0.0869347 	1.94746 	-5.76442e-20 	0
0.0874372 	1.9474 	-6.01438e-20 	0
0.0879397 	1.94734 	-3.13063e-20 	0
0.0884422 	1.94726 	-5.07382e-20 	0
0.0889447 	1.9472 	-8.669e-21 	0
0.0894472 	1.94712 	-4.20049e-20 	0
0.0899497 	1.94705 	-7.69175e-21 	0
0.0904523 	1.94695 	-3.39862e-20 	0
0.0909548 	1.94687 	-2.46541e-20 	0
0.0914573 	1.94678 	-2.67398e-20 	0
0.0919598 	1.94669 	-2.51328e-20 	0
0.0924623 	1.94659 	-2.03236e-20 	0
0.0929648 	1.94649 	-1.89457e-20 	0
0.0934673 	1.94639 	-1.35093e-20 	0
0.0939698 	1.94628 	-1.35855e-20 	0
0.0944724 	1.94618 	-1.40634e-21 	0
0.0949749 	1.94606 	-9.08114e-21 	0
0.0954774 	1.94594 	-6.13443e-21 	0
0.0959799 	1.94582 	-5.47446e-21 	0
0.0964824 	1.94569 	-4.7912e-21 	0
0.0969849 	1.94557 	-2.75683e-21 	0
0.0974874 	1.94543 	-2.29484e-21 	0
0.0979899 	1.9453 	-9.23672e-22 	0
0.0984925 	1.94516 	-6.86314e-22 	0
0.098995 	1.94503 	-5.10048e-24 	0
0.0994975 	1.94496 	-2.55024e-24 	0
0.1 	1.94489 	0 	0
