1.85037e-19 	7.68401e-17 	2.44453e-20 	0
0.00100503 	0.417355 	0.000132774 	0
0.00201005 	0.83471 	0.000265548 	0
0.00301508 	1.25207 	0.000398322 	0
0.0040201 	1.43014 	0.000549968 	0
0.00502513 	1.49732 	0.00071036 	0
0.00603015 	1.5645 	0.000870751 	0
0.00703518 	1.61841 	0.00102879 	0
0.0080402 	1.6494 	0.00118276 	0
0.00904523 	1.68039 	0.00133674 	0
0.0100503 	1.71077 	0.00148954 	0
0.0110553 	1.72969 	0.00162012 	0
0.0120603 	1.74861 	0.0017507 	0
0.0130653 	1.76753 	0.00188128 	0
0.0140704 	1.78155 	0.00199134 	0
0.0150754 	1.7938 	0.00209394 	0
0.0160804 	1.80604 	0.00219654 	0
0.0170854 	1.8166 	0.00228805 	0
0.0180905 	1.82481 	0.00236405 	0
0.0190955 	1.83301 	0.00244004 	0
0.0201005 	1.84096 	0.00251376 	0
0.0211055 	1.84663 	0.00256707 	0
0.0221106 	1.85231 	0.00262038 	0
0.0231156 	1.85799 	0.00267369 	0
0.0241206 	1.86239 	0.00271236 	0
0.0251256 	1.86644 	0.002747 	0
0.0261307 	1.8705 	0.00278163 	0
0.0271357 	1.87405 	0.00280916 	0
0.0281407 	1.87702 	0.00282858 	0
0.0291457 	1.87999 	0.00284799 	0
0.0301508 	1.88286 	0.00286552 	0
0.0311558 	1.88509 	0.00287241 	0
0.0321608 	1.88732 	0.00287929 	0
0.0331658 	1.88955 	0.00288617 	0
0.0341709 	1.89133 	0.00288438 	0
0.0351759 	1.89304 	0.00288084 	0
0.0361809 	1.89474 	0.00287731 	0
0.0371859 	1.89623 	0.00286925 	0
0.038191 	1.89755 	0.00285697 	0
0.039196 	1.89886 	0.00284468 	0
0.040201 	1.90011 	0.00283092 	0
0.041206 	1.90113 	0.00281122 	0
0.0422111 	1.90214 	0.00279152 	0
0.0432161 	1.90316 	0.00277182 	0
0.0442211 	1.90398 	0.00274654 	0
0.0452261 	1.90478 	0.00272052 	0
0.0462312 	1.90557 	0.0026945 	0
0.0472362 	1.90627 	0.00266542 	0
0.0482412 	1.90689 	0.00263399 	0
0.0492462 	1.90751 	0.00260256 	0
0.0502513 	1.9081 	0.00256997 	0
0.0512563 	1.90858 	0.0025339 	0
0.0522613 	1.90907 	0.00249783 	0
0.0532663 	1.90955 	0.00246176 	0
0.0542714 	1.90994 	0.00242197 	0
0.0552764 	1.91031 	0.00238191 	0
0.0562814 	1.91069 	0.00234185 	0
0.0572864 	1.91101 	0.00229967 	0
0.0582915 	1.91131 	0.00225618 	0
0.0592965 	1.9116 	0.00221269 	0
0.0603015 	1.91187 	0.00216832 	0
0.0613065 	1.91209 	0.0021219 	0
0.0623116 	1.91232 	0.00207547 	0
0.0633166 	1.91254 	0.00202904 	0
0.0643216 	1.91272 	0.00198015 	0
0.0653266 	1.91289 	0.00193121 	0
0.0663317 	1.91306 	0.00188227 	0
0.0673367 	1.9132 	0.00183192 	0
0.0683417 	1.91332 	0.00178085 	0
0.0693467 	1.91345 	0.00172978 	0
0.0703518 	1.91357 	0.00167807 	0
0.0713568 	1.91366 	0.0016252 	0
0.0723618 	1.91376 	0.00157233 	0
0.0733668 	1.91385 	0.0015194 	0
0.0743719 	1.91392 	0.00146502 	0
0.0753769 	1.91399 	0.00141064 	0
0.0763819 	1.91405 	0.00135626 	0
0.0773869 	1.91411 	0.00130099 	0
0.078392 	1.91415 	0.00124536 	0
0.079397 	1.9142 	0.00118973 	0
0.080402 	1.91424 	0.00113369 	0
0.081407 	1.91428 	0.00107704 	0
0.0824121 	1.91431 	0.0010204 	0
0.0834171 	1.91434 	0.00096368 	0
0.0844221 	1.91436 	0.000906221 	0
0.0854271 	1.91439 	0.000848762 	0
0.0864322 	1.91441 	0.000791302 	0
0.0874372 	1.91443 	0.000733364 	0
0.0884422 	1.91444 	0.000675281 	0
0.0894472 	1.91446 	0.000617197 	0
0.0904523 	1.91447 	0.000558908 	0
0.0914573 	1.91448 	0.000500369 	0
0.0924623 	1.91449 	0.00044183 	0
0.0934673 	1.9145 	0.000383251 	0
0.0944724 	1.9145 	0.000324414 	0
0.0954774 	1.9145 	0.000265577 	0
0.0964824 	1.91451 	0.00020674 	0
0.0974874 	1.91451 	0.000147781 	0
0.0984925 	1.91451 	8.87946e-05 	0
0.0994975 	1.91451 	2.98081e-05 	0
0.100503 	1.91451 	-2.91811e-05 	0
0.101508 	1.91451 	-8.81729e-05 	0
0.102513 	1.91451 	-0.000147165 	0
0.103518 	1.91451 	-0.000206131 	0
0.104523 	1.9145 	-0.000264985 	0
0.105528 	1.9145 	-0.000323839 	0
0.106533 	1.9145 	-0.000382692 	0
0.107538 	1.91449 	-0.000441299 	0
0.108543 	1.91448 	-0.000499867 	0
0.109548 	1.91447 	-0.000558435 	0
0.110553 	1.91446 	-0.000616761 	0
0.111558 	1.91445 	-0.000674889 	0
0.112563 	1.91443 	-0.000733017 	0
0.113568 	1.91442 	-0.000791003 	0
0.114573 	1.9144 	-0.000848524 	0
0.115578 	1.91437 	-0.000906046 	0
0.116583 	1.91435 	-0.000963567 	0
0.117588 	1.91432 	-0.00102036 	0
0.118593 	1.91429 	-0.0010771 	0
0.119598 	1.91425 	-0.00113383 	0
0.120603 	1.91421 	-0.00118996 	0
0.121608 	1.91416 	-0.0012457 	0
0.122613 	1.91412 	-0.00130145 	0
0.123618 	1.91406 	-0.00135684 	0
0.124623 	1.914 	-0.00141136 	0
0.125628 	1.91393 	-0.00146589 	0
0.126633 	1.91386 	-0.00152041 	0
0.127638 	1.91377 	-0.00157351 	0
0.128643 	1.91368 	-0.00162656 	0
0.129648 	1.91358 	-0.00167961 	0
0.130653 	1.91347 	-0.00173152 	0
0.131658 	1.91334 	-0.00178281 	0
0.132663 	1.91322 	-0.0018341 	0
0.133668 	1.91308 	-0.0018847 	0
0.134673 	1.91291 	-0.0019339 	0
0.135678 	1.91274 	-0.00198311 	0
0.136683 	1.91257 	-0.00203227 	0
0.137688 	1.91235 	-0.00207903 	0
0.138693 	1.91213 	-0.00212578 	0
0.139698 	1.91191 	-0.00217253 	0
0.140704 	1.91164 	-0.00221726 	0
0.141709 	1.91135 	-0.00226113 	0
0.142714 	1.91107 	-0.002305 	0
0.143719 	1.91074 	-0.00234758 	0
0.144724 	1.91037 	-0.00238808 	0
0.145729 	1.91 	-0.00242859 	0
0.146734 	1.90962 	-0.00246883 	0
0.147739 	1.90914 	-0.00250541 	0
0.148744 	1.90866 	-0.00254198 	0
0.149749 	1.90818 	-0.00257856 	0
0.150754 	1.90759 	-0.0026117 	0
0.151759 	1.90698 	-0.0026437 	0
0.152764 	1.90636 	-0.0026757 	0
0.153769 	1.90567 	-0.00270538 	0
0.154774 	1.90488 	-0.00273203 	0
0.155779 	1.90409 	-0.00275868 	0
0.156784 	1.90328 	-0.00278461 	0
0.157789 	1.90226 	-0.002805 	0
0.158794 	1.90125 	-0.0028254 	0
0.159799 	1.90024 	-0.0028458 	0
0.160804 	1.89899 	-0.0028603 	0
0.161809 	1.89769 	-0.00287334 	0
0.162814 	1.89638 	-0.00288638 	0
0.163819 	1.89489 	-0.0028952 	0
0.164824 	1.8932 	-0.0028995 	0
0.165829 	1.8915 	-0.00290381 	0
0.166834 	1.88972 	-0.00290637 	0
0.167839 	1.88749 	-0.00290019 	0
0.168844 	1.88527 	-0.002894 	0
0.169849 	1.88304 	-0.00288782 	0
0.170854 	1.88018 	-0.00287083 	0
0.171859 	1.87721 	-0.00285193 	0
0.172864 	1.87424 	-0.00283304 	0
0.173869 	1.87069 	-0.00280587 	0
0.174874 	1.86663 	-0.00277147 	0
0.175879 	1.86257 	-0.00273706 	0
0.176884 	1.85816 	-0.00269853 	0
0.177889 	1.85247 	-0.00264509 	0
0.178894 	1.84678 	-0.00259164 	0
0.179899 	1.84109 	-0.00253819 	0
0.180905 	1.83312 	-0.00246378 	0
0.18191 	1.82489 	-0.00238703 	0
0.182915 	1.81666 	-0.00231029 	0
0.18392 	1.80606 	-0.00221773 	0
0.184925 	1.79377 	-0.00211388 	0
0.18593 	1.78147 	-0.00201003 	0
0.186935 	1.76739 	-0.00189866 	0
0.18794 	1.74841 	-0.00176664 	0
0.188945 	1.72943 	-0.00163462 	0
0.18995 	1.71044 	-0.0015026 	0
0.190955 	1.67999 	-0.00134862 	0
0.19196 	1.64894 	-0.00119349 	0
0.192965 	1.61789 	-0.00103836 	0
0.19397 	1.56392 	-0.000879167 	0
0.194975 	1.49667 	-0.000717632 	0
0.19598 	1.42943 	-0.000556096 	0
0.196985 	1.25139 	-0.000403157 	0
0.19799 	0.834262 	-0.000268772 	0
0.198995 	0.417131 	-0.000134386 	0
0.2 	0 	0 	0
