/*--------------------------------*- C++ -*----------------------------------*\
  =========                 |
  \\      /  F ield         | OpenFOAM: The Open Source CFD Toolbox
   \\    /   O peration     | Website:  https://openfoam.org
    \\  /    A nd           | Version:  7
     \\/     M anipulation  |
\*---------------------------------------------------------------------------*/
FoamFile
{
    version     2.0;
    format      ascii;
    class       volTensorField;
    location    "588";
    object      gradU;
}
// * * * * * * * * * * * * * * * * * * * * * * * * * * * * * * * * * * * * * //

dimensions      [0 0 -1 0 0 0 0];

internalField   nonuniform List<tensor> 
150
(
(1.64294e-07 4.46355e-10 0 0.991828 -2.41259e-07 0 0 0 0)
(-1.13276e-07 7.54802e-10 0 0.991833 1.99632e-07 0 0 0 0)
(-5.10187e-08 -1.20116e-09 0 0.991812 3.8284e-08 0 0 0 0)
(4.9076e-07 4.62457e-09 0 0.971458 -5.84109e-07 0 0 0 0)
(-3.74445e-07 8.03269e-09 0 0.97146 4.71566e-07 0 0 0 0)
(-1.16315e-07 -1.26573e-08 0 0.971442 1.12977e-07 0 0 0 0)
(7.8601e-07 1.25403e-08 0 0.898991 -7.14439e-07 0 0 0 0)
(-6.77202e-07 2.43502e-08 0 0.898995 4.29006e-07 0 0 0 0)
(-1.08808e-07 -3.68905e-08 0 0.898991 2.84502e-07 0 0 0 0)
(6.0929e-07 9.37849e-09 0 0.740777 -5.45335e-07 0 0 0 0)
(-3.55175e-07 4.4763e-08 0 0.740779 2.50601e-07 0 0 0 0)
(-2.54115e-07 -5.41415e-08 0 0.740794 2.95149e-07 0 0 0 0)
(2.10397e-07 1.09751e-08 0 0.552058 -2.85642e-07 0 0 0 0)
(7.90659e-09 5.78322e-08 0 0.552053 1.17503e-07 0 0 0 0)
(-2.18304e-07 -6.88073e-08 0 0.552067 1.68283e-07 0 0 0 0)
(2.94211e-08 6.85442e-09 0 0.403392 -8.7029e-08 0 0 0 0)
(2.18096e-08 6.45726e-08 0 0.403387 -6.02424e-09 0 0 0 0)
(-5.12307e-08 -7.1427e-08 0 0.403391 9.31469e-08 0 0 0 0)
(-1.47891e-08 6.30991e-09 0 0.300918 -1.66557e-08 0 0 0 0)
(-1.8138e-08 6.63832e-08 0 0.300917 3.18077e-09 0 0 0 0)
(3.29271e-08 -7.26931e-08 0 0.300918 1.35681e-08 0 0 0 0)
(-4.45443e-08 6.32357e-09 0 0.229924 1.8549e-08 0 0 0 0)
(-1.84992e-09 6.60944e-08 0 0.229924 -2.12959e-09 0 0 0 0)
(4.63942e-08 -7.24179e-08 0 0.229925 -1.63672e-08 0 0 0 0)
(-8.60086e-08 7.19215e-09 0 0.180087 4.43647e-08 0 0 0 0)
(4.76292e-08 6.42453e-08 0 0.180087 -1.88599e-08 0 0 0 0)
(3.83794e-08 -7.14374e-08 0 0.180088 -2.54933e-08 0 0 0 0)
(-1.08197e-07 6.68924e-09 0 0.144258 6.08975e-08 0 0 0 0)
(7.45185e-08 6.15085e-08 0 0.144259 -4.56381e-08 0 0 0 0)
(3.36783e-08 -6.81977e-08 0 0.144259 -1.53052e-08 0 0 0 0)
(-1.03729e-07 4.96207e-09 0 0.117794 5.37142e-08 0 0 0 0)
(8.86198e-08 5.87912e-08 0 0.117795 -4.9807e-08 0 0 0 0)
(1.51095e-08 -6.37533e-08 0 0.117794 -4.0039e-09 0 0 0 0)
(-7.70784e-08 3.07246e-09 0 0.0976941 2.71904e-08 0 0 0 0)
(8.34712e-08 5.70053e-08 0 0.0976943 -2.88167e-08 0 0 0 0)
(-6.39282e-09 -6.00778e-08 0 0.0976936 1.5251e-09 0 0 0 0)
(-4.4457e-08 2.38839e-09 0 0.0819934 -1.47637e-08 0 0 0 0)
(4.8475e-08 5.66331e-08 0 0.0819933 1.03236e-08 0 0 0 0)
(-4.01805e-09 -5.90215e-08 0 0.0819926 4.3221e-09 0 0 0 0)
(-1.62398e-08 3.7431e-09 0 0.0693674 -6.20299e-08 0 0 0 0)
(7.82465e-09 5.89565e-08 0 0.0693672 5.81139e-08 0 0 0 0)
(8.41518e-09 -6.26996e-08 0 0.0693668 3.79351e-09 0 0 0 0)
(1.09972e-10 8.24694e-09 0 0.0589041 -7.59203e-08 0 0 0 0)
(-1.80453e-08 6.36636e-08 0 0.0589039 6.5186e-08 0 0 0 0)
(1.79353e-08 -7.19105e-08 0 0.0589041 1.06585e-08 0 0 0 0)
(-4.09461e-08 9.91337e-09 0 0.0500073 6.73004e-09 0 0 0 0)
(1.62135e-08 6.89998e-08 0 0.0500076 -3.21675e-08 0 0 0 0)
(2.47327e-08 -7.89131e-08 0 0.0500091 2.54943e-08 0 0 0 0)
(-1.99171e-07 3.69311e-10 0 0.0424142 1.23733e-07 0 0 0 0)
(2.27218e-07 6.56352e-08 0 0.042414 -3.85704e-08 0 0 0 0)
(-2.80466e-08 -6.60045e-08 0 0.042416 -8.5002e-08 0 0 0 0)
(-3.25245e-07 1.77078e-08 0 0.0359991 1.47231e-07 0 0 0 0)
(2.63322e-07 3.86188e-08 0 0.0359965 8.87629e-08 0 0 0 0)
(6.19233e-08 -5.63266e-08 0 0.0359974 -2.35811e-07 0 0 0 0)
(-3.2794e-07 5.12014e-08 0 0.0304653 6.16645e-08 0 0 0 0)
(-5.38067e-08 6.30636e-09 0 0.0304659 -5.98037e-08 0 0 0 0)
(3.81747e-07 -5.75077e-08 0 0.0304649 -1.92794e-09 0 0 0 0)
(-1.46881e-07 4.01583e-09 0 0.0254668 1.27124e-07 0 0 0 0)
(2.09375e-07 3.05338e-08 0 0.02547 -3.38174e-08 0 0 0 0)
(-6.24938e-08 -3.45496e-08 0 0.0254686 -9.31479e-08 0 0 0 0)
(-6.85671e-08 6.75967e-08 0 0.0207847 8.50153e-08 0 0 0 0)
(2.80142e-07 -3.93629e-08 0 0.0207829 1.17203e-07 0 0 0 0)
(-2.11575e-07 -2.82338e-08 0 0.0207822 -2.01956e-07 0 0 0 0)
(7.2363e-09 6.65579e-08 0 0.0162615 -1.09949e-07 0 0 0 0)
(-3.35428e-07 -2.44191e-08 0 0.0162603 -7.02445e-08 0 0 0 0)
(3.28192e-07 -4.21388e-08 0 0.0162594 1.79908e-07 0 0 0 0)
(1.39577e-07 8.22256e-09 0 0.011769 -5.38312e-08 0 0 0 0)
(-1.4286e-07 2.80516e-08 0 0.0117705 3.54835e-08 0 0 0 0)
(3.28328e-09 -3.62741e-08 0 0.01177 1.84268e-08 0 0 0 0)
(1.29376e-07 7.68959e-08 0 0.00720006 4.82535e-08 0 0 0 0)
(-9.20364e-08 -1.07918e-08 0 0.00720008 9.24396e-09 0 0 0 0)
(-3.73396e-08 -6.61041e-08 0 0.00720022 -5.73208e-08 0 0 0 0)
(9.91831e-08 2.04825e-08 0 0.00243295 5.79532e-08 0 0 0 0)
(-1.00172e-07 1.55062e-09 0 0.00243279 -9.68123e-08 0 0 0 0)
(9.89232e-10 -2.20332e-08 0 0.00243291 3.87921e-08 0 0 0 0)
(9.71546e-08 3.86647e-08 0 -0.00246722 4.8299e-08 0 0 0 0)
(-1.03372e-07 -1.71677e-08 0 -0.00246702 -9.41151e-08 0 0 0 0)
(6.21739e-09 -2.1497e-08 0 -0.00246713 4.56578e-08 0 0 0 0)
(1.3165e-07 -1.89495e-08 0 -0.00723333 8.35122e-08 0 0 0 0)
(-7.44543e-08 -6.64078e-11 0 -0.00723231 -1.05323e-07 0 0 0 0)
(-5.71956e-08 1.90159e-08 0 -0.00723235 2.18123e-08 0 0 0 0)
(1.11594e-07 1.2121e-10 0 -0.0117948 8.56084e-08 0 0 0 0)
(1.56173e-07 -3.17508e-08 0 -0.0117949 -9.47533e-08 0 0 0 0)
(-2.67767e-07 3.16296e-08 0 -0.0117945 9.27129e-09 0 0 0 0)
(2.08237e-08 -4.19388e-08 0 -0.0162697 2.17054e-08 0 0 0 0)
(1.26375e-08 -2.11157e-08 0 -0.0162713 -9.45489e-08 0 0 0 0)
(-3.34611e-08 6.30544e-08 0 -0.0162706 7.27447e-08 0 0 0 0)
(-6.26273e-08 -3.9865e-08 0 -0.0207721 -3.783e-08 0 0 0 0)
(-4.3161e-08 -1.97525e-08 0 -0.0207741 1.2995e-07 0 0 0 0)
(1.05788e-07 5.96175e-08 0 -0.0207732 -9.20486e-08 0 0 0 0)
(-1.74536e-07 1.81953e-09 0 -0.0254363 -6.03533e-08 0 0 0 0)
(-2.05139e-07 -3.16317e-08 0 -0.0254369 1.09619e-07 0 0 0 0)
(3.79675e-07 2.98122e-08 0 -0.0254359 -4.93262e-08 0 0 0 0)
(-2.47274e-07 -7.71127e-09 0 -0.0304149 9.09868e-08 0 0 0 0)
(-1.7752e-10 -1.8873e-08 0 -0.0304129 8.76014e-08 0 0 0 0)
(2.47452e-07 2.65843e-08 0 -0.030412 -1.78633e-07 0 0 0 0)
(-3.24325e-07 4.40752e-08 0 -0.0359318 1.44425e-07 0 0 0 0)
(2.79244e-07 -7.41405e-08 0 -0.0359315 6.12869e-08 0 0 0 0)
(4.50812e-08 3.00653e-08 0 -0.0359314 -2.05682e-07 0 0 0 0)
(-2.65523e-07 3.63165e-08 0 -0.0423421 6.72163e-08 0 0 0 0)
(8.82044e-08 -7.54549e-08 0 -0.042342 -5.85073e-08 0 0 0 0)
(1.77319e-07 3.91384e-08 0 -0.0423442 -8.78702e-09 0 0 0 0)
(-3.52997e-08 3.67174e-08 0 -0.0499334 9.65726e-09 0 0 0 0)
(-1.13754e-08 -8.4423e-08 0 -0.0499319 -4.35437e-09 0 0 0 0)
(4.66751e-08 4.77055e-08 0 -0.0499339 -5.35915e-09 0 0 0 0)
(-3.01399e-09 3.64752e-08 0 -0.0588262 -7.71591e-08 0 0 0 0)
(2.27492e-08 -7.80994e-08 0 -0.0588255 2.20692e-08 0 0 0 0)
(-1.97352e-08 4.16242e-08 0 -0.0588256 5.50512e-08 0 0 0 0)
(-2.06893e-08 3.30553e-08 0 -0.0692866 -6.3545e-08 0 0 0 0)
(5.10191e-08 -6.92534e-08 0 -0.0692866 -3.60796e-09 0 0 0 0)
(-3.03298e-08 3.61981e-08 0 -0.0692862 6.7173e-08 0 0 0 0)
(-4.68377e-08 2.90654e-08 0 -0.0819113 -1.86951e-08 0 0 0 0)
(6.4454e-08 -6.41835e-08 0 -0.0819116 -3.94114e-08 0 0 0 0)
(-1.76163e-08 3.51181e-08 0 -0.0819109 5.81491e-08 0 0 0 0)
(-8.63293e-08 2.38031e-08 0 -0.0976115 2.53743e-08 0 0 0 0)
(9.15614e-08 -6.17895e-08 0 -0.0976118 -6.3248e-08 0 0 0 0)
(-5.23215e-09 3.79864e-08 0 -0.097611 3.79098e-08 0 0 0 0)
(-1.16194e-07 2.02121e-08 0 -0.117711 5.95428e-08 0 0 0 0)
(1.10638e-07 -6.2927e-08 0 -0.117711 -7.88352e-08 0 0 0 0)
(5.55562e-09 4.27149e-08 0 -0.117711 1.92819e-08 0 0 0 0)
(-1.19659e-07 1.60972e-08 0 -0.144174 7.03389e-08 0 0 0 0)
(9.37012e-08 -6.49208e-08 0 -0.144174 -8.36413e-08 0 0 0 0)
(2.59573e-08 4.88235e-08 0 -0.144175 1.33135e-08 0 0 0 0)
(-9.69451e-08 1.32126e-08 0 -0.180002 5.43576e-08 0 0 0 0)
(6.81126e-08 -6.70049e-08 0 -0.180002 -5.87885e-08 0 0 0 0)
(2.88324e-08 5.37923e-08 0 -0.180003 4.49642e-09 0 0 0 0)
(-5.504e-08 1.19058e-08 0 -0.229842 2.00439e-08 0 0 0 0)
(2.53988e-08 -6.82059e-08 0 -0.229842 -2.57646e-08 0 0 0 0)
(2.96412e-08 5.63001e-08 0 -0.229843 5.85695e-09 0 0 0 0)
(-8.93259e-09 1.13101e-08 0 -0.300847 -2.24386e-08 0 0 0 0)
(-2.00022e-08 -6.79147e-08 0 -0.300846 -1.8637e-08 0 0 0 0)
(2.89348e-08 5.66046e-08 0 -0.300848 4.12693e-08 0 0 0 0)
(3.9838e-08 8.7825e-09 0 -0.40336 -9.04556e-08 0 0 0 0)
(2.2366e-09 -6.49158e-08 0 -0.403354 -3.78737e-08 0 0 0 0)
(-4.20746e-08 5.61332e-08 0 -0.403358 1.28579e-07 0 0 0 0)
(1.80561e-07 3.33221e-09 0 -0.552125 -2.59033e-07 0 0 0 0)
(6.15896e-08 -5.74465e-08 0 -0.55212 5.42928e-08 0 0 0 0)
(-2.4215e-07 5.41143e-08 0 -0.552131 2.0505e-07 0 0 0 0)
(5.30959e-07 1.90955e-09 0 -0.741056 -4.7364e-07 0 0 0 0)
(-2.28151e-07 -4.461e-08 0 -0.741059 1.26013e-07 0 0 0 0)
(-3.02807e-07 4.27005e-08 0 -0.741071 3.47999e-07 0 0 0 0)
(6.91515e-07 -5.32532e-09 0 -0.899539 -6.27154e-07 0 0 0 0)
(-5.37813e-07 -2.47097e-08 0 -0.899543 2.74019e-07 0 0 0 0)
(-1.53701e-07 3.00351e-08 0 -0.89954 3.53564e-07 0 0 0 0)
(4.29988e-07 -1.52843e-09 0 -0.972162 -5.21813e-07 0 0 0 0)
(-2.8472e-07 -8.56255e-09 0 -0.972165 3.39283e-07 0 0 0 0)
(-1.45268e-07 1.0091e-08 0 -0.972148 1.8237e-07 0 0 0 0)
(1.45073e-07 -2.72792e-12 0 -0.992561 -2.17072e-07 0 0 0 0)
(-7.92703e-08 -9.04926e-10 0 -0.992568 1.32693e-07 0 0 0 0)
(-6.58032e-08 9.07654e-10 0 -0.992549 8.43935e-08 0 0 0 0)
)
;

boundaryField
{
    inlet
    {
        type            cyclic;
    }
    outlet
    {
        type            cyclic;
    }
    wall
    {
        type            extrapolatedCalculated;
        value           nonuniform List<tensor> 6((1.64294e-07 4.46355e-10 0 0.997286 -8.97439e-08 0 0 0 0) (-1.13276e-07 7.54802e-10 0 0.997292 6.94168e-08 0 0 0 0) (-5.10187e-08 -1.20116e-09 0 0.997271 1.0272e-08 0 0 0 0) (1.45073e-07 -2.72792e-12 0 -0.99802 -7.98079e-08 0 0 0 0) (-7.92703e-08 -9.04926e-10 0 -0.998029 4.04617e-08 0 0 0 0) (-6.58032e-08 9.07654e-10 0 -0.99801 4.01002e-08 0 0 0 0));
    }
    frontAndBack
    {
        type            empty;
    }
}


// ************************************************************************* //
