/*--------------------------------*- C++ -*----------------------------------*\
  =========                 |
  \\      /  F ield         | OpenFOAM: The Open Source CFD Toolbox
   \\    /   O peration     | Website:  https://openfoam.org
    \\  /    A nd           | Version:  7
     \\/     M anipulation  |
\*---------------------------------------------------------------------------*/
FoamFile
{
    version     2.0;
    format      ascii;
    class       volScalarField;
    location    "588";
    object      nut;
}
// * * * * * * * * * * * * * * * * * * * * * * * * * * * * * * * * * * * * * //

dimensions      [0 2 -1 0 0 0 0];

internalField   nonuniform List<scalar> 
150
(
9.04437e-06
9.04354e-06
9.04051e-06
0.00182086
0.00182068
0.00182007
0.0410923
0.0410857
0.0410715
0.260815
0.260737
0.260643
0.732022
0.731994
0.731821
1.33086
1.33084
1.3306
2.07074
2.0707
2.07041
2.93359
2.93346
2.9331
3.90031
3.90016
3.89975
4.95021
4.95007
4.94966
6.06376
6.06365
6.06329
7.22342
7.22348
7.22316
8.41567
8.41592
8.41559
9.63457
9.6348
9.63447
10.8865
10.8867
10.8864
12.1879
12.1878
12.1874
13.5268
13.5266
13.5262
14.7274
14.7351
14.7359
15.7701
15.7827
15.7891
16.7201
16.7146
16.7407
17.5326
17.5694
17.5763
18.2414
18.2837
18.2997
18.8694
18.8576
18.909
19.3291
19.3728
19.3915
19.6522
19.6393
19.6873
19.651
19.6386
19.6841
19.3305
19.3738
19.3938
18.8854
18.8706
18.9288
18.2967
18.2837
18.3357
17.5958
17.5856
17.6266
16.7711
16.7654
16.7927
15.8224
15.8355
15.8423
14.7818
14.7803
14.7886
13.5682
13.5682
13.5676
12.2218
12.2222
12.2217
10.9146
10.9148
10.9146
9.65751
9.65764
9.65738
8.43404
8.43411
8.43395
7.23783
7.2379
7.23768
6.075
6.07485
6.07457
4.9588
4.95863
4.95827
3.90671
3.90655
3.90619
2.93823
2.93809
2.93776
2.07397
2.0739
2.07363
1.33291
1.33291
1.33269
0.733173
0.733165
0.733005
0.261331
0.261261
0.261175
0.0411894
0.0411825
0.0411704
0.00182544
0.00182527
0.00182473
9.06732e-06
9.06654e-06
9.06385e-06
)
;

boundaryField
{
    inlet
    {
        type            cyclic;
    }
    outlet
    {
        type            cyclic;
    }
    wall
    {
        type            nutLowReWallFunction;
        Cmu             0.09;
        kappa           0.41;
        E               9.8;
        value           uniform 0;
    }
    frontAndBack
    {
        type            empty;
    }
}


// ************************************************************************* //
