1.85037e-21 	-1.5825 	-0.006879 	0 	847.058 	1.70142 	0 	0 	0 	0
1.00503e-05 	-2.03668 	-0.0242614 	0 	842.079 	2.12337 	0 	0 	0 	0
2.01005e-05 	-2.49087 	-0.0416439 	0 	837.101 	2.54532 	0 	0 	0 	0
3.01508e-05 	-2.94505 	-0.0590263 	0 	832.122 	2.96728 	0 	0 	0 	0
4.0201e-05 	-3.69144 	-0.100418 	0 	823.673 	3.68772 	0 	0 	0 	0
5.02513e-05 	-4.57323 	-0.152937 	0 	813.616 	4.54649 	0 	0 	0 	0
6.03015e-05 	-5.45503 	-0.205456 	0 	803.559 	5.40526 	0 	0 	0 	0
7.03518e-05 	-6.31523 	-0.270768 	0 	793.416 	6.25642 	0 	0 	0 	0
8.0402e-05 	-7.13812 	-0.358177 	0 	783.124 	7.09446 	0 	0 	0 	0
9.04523e-05 	-7.96101 	-0.445587 	0 	772.832 	7.9325 	0 	0 	0 	0
0.000100503 	-8.78041 	-0.534622 	0 	762.525 	8.7665 	0 	0 	0 	0
0.000110553 	-9.53353 	-0.654533 	0 	751.935 	9.52373 	0 	0 	0 	0
0.000120603 	-10.2867 	-0.774445 	0 	741.345 	10.281 	0 	0 	0 	0
0.000130653 	-11.0398 	-0.894356 	0 	730.756 	11.0382 	0 	0 	0 	0
0.000140704 	-11.7286 	-1.03548 	0 	719.913 	11.7279 	0 	0 	0 	0
0.000150754 	-12.394 	-1.18432 	0 	708.978 	12.3931 	0 	0 	0 	0
0.000160804 	-13.0594 	-1.33316 	0 	698.044 	13.0583 	0 	0 	0 	0
0.000170854 	-13.6816 	-1.49234 	0 	686.954 	13.6811 	0 	0 	0 	0
0.000180905 	-14.2436 	-1.66601 	0 	675.648 	14.2446 	0 	0 	0 	0
0.000190955 	-14.8055 	-1.83968 	0 	664.341 	14.808 	0 	0 	0 	0
0.000201005 	-15.3557 	-2.01531 	0 	652.996 	15.3596 	0 	0 	0 	0
0.000211055 	-15.8 	-2.20863 	0 	641.311 	15.8043 	0 	0 	0 	0
0.000221106 	-16.2444 	-2.40195 	0 	629.626 	16.2491 	0 	0 	0 	0
0.000231156 	-16.6887 	-2.59526 	0 	617.941 	16.6938 	0 	0 	0 	0
0.000241206 	-17.0286 	-2.79913 	0 	605.972 	17.0325 	0 	0 	0 	0
0.000251256 	-17.3395 	-3.00592 	0 	593.925 	17.3419 	0 	0 	0 	0
0.000261307 	-17.6504 	-3.2127 	0 	581.878 	17.6513 	0 	0 	0 	0
0.000271357 	-17.8906 	-3.42251 	0 	569.684 	17.8909 	0 	0 	0 	0
0.000281407 	-18.0501 	-3.63576 	0 	557.322 	18.0505 	0 	0 	0 	0
0.000291457 	-18.2095 	-3.84901 	0 	544.961 	18.2102 	0 	0 	0 	0
0.000301508 	-18.3447 	-4.0621 	0 	532.563 	18.3457 	0 	0 	0 	0
0.000311558 	-18.3424 	-4.27424 	0 	519.96 	18.3446 	0 	0 	0 	0
0.000321608 	-18.3401 	-4.48639 	0 	507.356 	18.3434 	0 	0 	0 	0
0.000331658 	-18.3379 	-4.69853 	0 	494.753 	18.3422 	0 	0 	0 	0
0.000341709 	-18.1981 	-4.90326 	0 	482.027 	18.2014 	0 	0 	0 	0
0.000351759 	-18.0307 	-5.10651 	0 	469.277 	18.0327 	0 	0 	0 	0
0.000361809 	-17.8634 	-5.30975 	0 	456.526 	17.864 	0 	0 	0 	0
0.000371859 	-17.6084 	-5.50446 	0 	443.761 	17.608 	0 	0 	0 	0
0.00038191 	-17.2715 	-5.69119 	0 	430.981 	17.2704 	0 	0 	0 	0
0.00039196 	-16.9345 	-5.87792 	0 	418.201 	16.9328 	0 	0 	0 	0
0.00040201 	-16.5648 	-6.05992 	0 	405.443 	16.5623 	0 	0 	0 	0
0.00041206 	-16.0639 	-6.22304 	0 	392.773 	16.0602 	0 	0 	0 	0
0.000422111 	-15.5631 	-6.38616 	0 	380.103 	15.5581 	0 	0 	0 	0
0.000432161 	-15.0622 	-6.54928 	0 	367.433 	15.0561 	0 	0 	0 	0
0.000442211 	-14.4245 	-6.68609 	0 	354.99 	14.4181 	0 	0 	0 	0
0.000452261 	-13.7687 	-6.81943 	0 	342.576 	13.7622 	0 	0 	0 	0
0.000462312 	-13.1129 	-6.95277 	0 	330.163 	13.1063 	0 	0 	0 	0
0.000472362 	-12.3783 	-7.06646 	0 	317.977 	12.3725 	0 	0 	0 	0
0.000482412 	-11.5835 	-7.16512 	0 	305.965 	11.5792 	0 	0 	0 	0
0.000492462 	-10.7886 	-7.26378 	0 	293.953 	10.7858 	0 	0 	0 	0
0.000502513 	-9.96496 	-7.3529 	0 	282.078 	9.96349 	0 	0 	0 	0
0.000512563 	-9.05478 	-7.41342 	0 	270.614 	9.05415 	0 	0 	0 	0
0.000522613 	-8.1446 	-7.47393 	0 	259.15 	8.1448 	0 	0 	0 	0
0.000532663 	-7.23443 	-7.53444 	0 	247.687 	7.23546 	0 	0 	0 	0
0.000542714 	-6.24089 	-7.55758 	0 	236.859 	6.24169 	0 	0 	0 	0
0.000552764 	-5.24139 	-7.57804 	0 	226.077 	5.24189 	0 	0 	0 	0
0.000562814 	-4.24189 	-7.59851 	0 	215.296 	4.24208 	0 	0 	0 	0
0.000572864 	-3.20335 	-7.59412 	0 	205.003 	3.20394 	0 	0 	0 	0
0.000582915 	-2.14053 	-7.57429 	0 	195.015 	2.14196 	0 	0 	0 	0
0.000592965 	-1.07772 	-7.55446 	0 	185.027 	1.07998 	0 	0 	0 	0
0.000603015 	-0.00540829 	-7.52288 	0 	175.304 	0.00823455 	0 	0 	0 	0
0.000613065 	1.08906 	-7.46388 	0 	166.2 	-1.08632 	0 	0 	0 	0
0.000623116 	2.18354 	-7.40488 	0 	157.096 	-2.18087 	0 	0 	0 	0
0.000633166 	3.27801 	-7.34588 	0 	147.992 	-3.27542 	0 	0 	0 	0
0.000643216 	4.3747 	-7.25076 	0 	139.819 	-4.373 	0 	0 	0 	0
0.000653266 	5.47144 	-7.15503 	0 	131.663 	-5.47062 	0 	0 	0 	0
0.000663317 	6.56817 	-7.0593 	0 	123.506 	-6.56825 	0 	0 	0 	0
0.000673367 	7.64832 	-6.94134 	0 	116.001 	-7.64911 	0 	0 	0 	0
0.000683417 	8.72018 	-6.81228 	0 	108.821 	-8.7216 	0 	0 	0 	0
0.000693467 	9.79204 	-6.68322 	0 	101.642 	-9.79408 	0 	0 	0 	0
0.000703518 	10.8461 	-6.54389 	0 	94.8036 	-10.8487 	0 	0 	0 	0
0.000713568 	11.8671 	-6.38551 	0 	88.5997 	-11.8701 	0 	0 	0 	0
0.000723618 	12.8881 	-6.22713 	0 	82.3958 	-12.8915 	0 	0 	0 	0
0.000733668 	13.9066 	-6.06792 	0 	76.2235 	-13.9104 	0 	0 	0 	0
0.000743719 	14.8552 	-5.88464 	0 	70.966 	-14.858 	0 	0 	0 	0
0.000753769 	15.8039 	-5.70136 	0 	65.7084 	-15.8056 	0 	0 	0 	0
0.000763819 	16.7525 	-5.51808 	0 	60.4509 	-16.7532 	0 	0 	0 	0
0.000773869 	17.6338 	-5.32011 	0 	55.8311 	-17.6341 	0 	0 	0 	0
0.00078392 	18.4886 	-5.11633 	0 	51.4633 	-18.4886 	0 	0 	0 	0
0.00079397 	19.3434 	-4.91255 	0 	47.0956 	-19.3431 	0 	0 	0 	0
0.00080402 	20.1543 	-4.70226 	0 	43.0517 	-20.1541 	0 	0 	0 	0
0.00081407 	20.8994 	-4.48219 	0 	39.4936 	-20.8996 	0 	0 	0 	0
0.000824121 	21.6445 	-4.26212 	0 	35.9354 	-21.6452 	0 	0 	0 	0
0.000834171 	22.3796 	-4.04101 	0 	32.4357 	-22.3807 	0 	0 	0 	0
0.000844221 	23.0049 	-3.80846 	0 	29.5785 	-23.0051 	0 	0 	0 	0
0.000854271 	23.6301 	-3.5759 	0 	26.7213 	-23.6295 	0 	0 	0 	0
0.000864322 	24.2554 	-3.34335 	0 	23.8642 	-24.2539 	0 	0 	0 	0
0.000874372 	24.7809 	-3.10379 	0 	21.4526 	-24.7783 	0 	0 	0 	0
0.000884422 	25.2761 	-2.8621 	0 	19.1766 	-25.2723 	0 	0 	0 	0
0.000894472 	25.7714 	-2.62042 	0 	16.9006 	-25.7664 	0 	0 	0 	0
0.000904523 	26.204 	-2.37589 	0 	14.827 	-26.1988 	0 	0 	0 	0
0.000914573 	26.5602 	-2.12789 	0 	13.001 	-26.5559 	0 	0 	0 	0
0.000924623 	26.9163 	-1.87989 	0 	11.175 	-26.913 	0 	0 	0 	0
0.000934673 	27.2538 	-1.63137 	0 	9.38943 	-27.2513 	0 	0 	0 	0
0.000944724 	27.4697 	-1.37945 	0 	7.86644 	-27.4672 	0 	0 	0 	0
0.000954774 	27.6857 	-1.12752 	0 	6.34345 	-27.6832 	0 	0 	0 	0
0.000964824 	27.9017 	-0.875596 	0 	4.82046 	-27.8992 	0 	0 	0 	0
0.000974874 	28.0003 	-0.622162 	0 	3.4249 	-27.9979 	0 	0 	0 	0
0.000984925 	28.0727 	-0.368389 	0 	2.05794 	-28.0703 	0 	0 	0 	0
0.000994975 	28.1451 	-0.114616 	0 	0.69098 	-28.1428 	0 	0 	0 	0
0.00100503 	28.1451 	0.139144 	0 	-0.675415 	-28.1431 	0 	0 	0 	0
0.00101508 	28.0727 	0.392892 	0 	-2.04124 	-28.0712 	0 	0 	0 	0
0.00102513 	28.0003 	0.64664 	0 	-3.40707 	-27.9993 	0 	0 	0 	0
0.00103518 	27.9017 	0.900043 	0 	-4.80171 	-27.9011 	0 	0 	0 	0
0.00104523 	27.6857 	1.15191 	0 	-6.3247 	-27.6856 	0 	0 	0 	0
0.00105528 	27.4697 	1.40378 	0 	-7.84769 	-27.4702 	0 	0 	0 	0
0.00106533 	27.2538 	1.65564 	0 	-9.37068 	-27.2548 	0 	0 	0 	0
0.00107538 	26.9144 	1.90409 	0 	-11.1563 	-26.917 	0 	0 	0 	0
0.00108543 	26.556 	2.15201 	0 	-12.9823 	-26.5604 	0 	0 	0 	0
0.00109548 	26.1975 	2.39992 	0 	-14.8083 	-26.2039 	0 	0 	0 	0
0.00110553 	25.7645 	2.64435 	0 	-16.8793 	-25.772 	0 	0 	0 	0
0.00111558 	25.2704 	2.88591 	0 	-19.1508 	-25.2786 	0 	0 	0 	0
0.00112563 	24.7763 	3.12748 	0 	-21.4223 	-24.7851 	0 	0 	0 	0
0.00113568 	24.2521 	3.3669 	0 	-23.8302 	-24.2613 	0 	0 	0 	0
0.00114573 	23.6291 	3.59929 	0 	-26.6862 	-23.6375 	0 	0 	0 	0
0.00115578 	23.0062 	3.83169 	0 	-29.5422 	-23.0137 	0 	0 	0 	0
0.00116583 	22.3832 	4.06408 	0 	-32.3982 	-22.3899 	0 	0 	0 	0
0.00117588 	21.6493 	4.28502 	0 	-35.901 	-21.655 	0 	0 	0 	0
0.00118593 	20.9053 	4.5049 	0 	-39.4626 	-20.9101 	0 	0 	0 	0
0.00119598 	20.1613 	4.72479 	0 	-43.0241 	-20.1651 	0 	0 	0 	0
0.00120603 	19.3522 	4.93487 	0 	-47.0687 	-19.3548 	0 	0 	0 	0
0.00121608 	18.4997 	5.13841 	0 	-51.4353 	-18.5009 	0 	0 	0 	0
0.00122613 	17.6472 	5.34195 	0 	-55.8019 	-17.6471 	0 	0 	0 	0
0.00123618 	16.7678 	5.53968 	0 	-60.4202 	-16.7668 	0 	0 	0 	0
0.00124623 	15.8203 	5.72268 	0 	-65.6755 	-15.8199 	0 	0 	0 	0
0.00125628 	14.8728 	5.90569 	0 	-70.9308 	-14.8729 	0 	0 	0 	0
0.00126633 	13.9253 	6.0887 	0 	-76.1861 	-13.9259 	0 	0 	0 	0
0.00127638 	12.9068 	6.24763 	0 	-82.3583 	-12.9076 	0 	0 	0 	0
0.00128643 	11.8858 	6.40573 	0 	-88.5622 	-11.8868 	0 	0 	0 	0
0.00129648 	10.8648 	6.56383 	0 	-94.7661 	-10.866 	0 	0 	0 	0
0.00130653 	9.81226 	6.70285 	0 	-101.605 	-9.81202 	0 	0 	0 	0
0.00131658 	8.74266 	6.8316 	0 	-108.786 	-8.74018 	0 	0 	0 	0
0.00132663 	7.67307 	6.96034 	0 	-115.967 	-7.66834 	0 	0 	0 	0
0.00133668 	6.59405 	7.07797 	0 	-123.473 	-6.58811 	0 	0 	0 	0
0.00134673 	5.49618 	7.17334 	0 	-131.629 	-5.4911 	0 	0 	0 	0
0.00135678 	4.39832 	7.26871 	0 	-139.786 	-4.3941 	0 	0 	0 	0
0.00136683 	3.30051 	7.36346 	0 	-147.958 	-3.29714 	0 	0 	0 	0
0.00137688 	2.20604 	7.42211 	0 	-157.061 	-2.20312 	0 	0 	0 	0
0.00138693 	1.11156 	7.48076 	0 	-166.164 	-1.1091 	0 	0 	0 	0
0.00139698 	0.0170917 	7.53941 	0 	-175.267 	-0.015081 	0 	0 	0 	0
0.00140704 	-1.05443 	7.57062 	0 	-184.989 	1.05617 	0 	0 	0 	0
0.00141709 	-2.11611 	7.59008 	0 	-194.977 	2.11766 	0 	0 	0 	0
0.00142714 	-3.1778 	7.60954 	0 	-204.966 	3.17915 	0 	0 	0 	0
0.00143719 	-4.21607 	7.61353 	0 	-215.258 	4.21682 	0 	0 	0 	0
0.00144724 	-5.2167 	7.59265 	0 	-226.042 	5.21617 	0 	0 	0 	0
0.00145729 	-6.21733 	7.57177 	0 	-236.825 	6.21552 	0 	0 	0 	0
0.00146734 	-7.21178 	7.54822 	0 	-247.653 	7.20885 	0 	0 	0 	0
0.00147739 	-8.11969 	7.48732 	0 	-259.118 	8.11784 	0 	0 	0 	0
0.00148744 	-9.02761 	7.42642 	0 	-270.583 	9.02683 	0 	0 	0 	0
0.00149749 	-9.93552 	7.36552 	0 	-282.048 	9.93583 	0 	0 	0 	0
0.00150754 	-10.7561 	7.27601 	0 	-293.923 	10.7579 	0 	0 	0 	0
0.00151759 	-11.5476 	7.17695 	0 	-305.935 	11.551 	0 	0 	0 	0
0.00152764 	-12.339 	7.07789 	0 	-317.947 	12.3441 	0 	0 	0 	0
0.00153769 	-13.0722 	6.96379 	0 	-330.134 	13.0777 	0 	0 	0 	0
0.00154774 	-13.7291 	6.83001 	0 	-342.551 	13.7335 	0 	0 	0 	0
0.00155779 	-14.386 	6.69623 	0 	-354.968 	14.3893 	0 	0 	0 	0
0.00156784 	-15.0249 	6.55898 	0 	-367.415 	15.0272 	0 	0 	0 	0
0.00157789 	-15.5281 	6.39546 	0 	-380.09 	15.5292 	0 	0 	0 	0
0.00158794 	-16.0312 	6.23193 	0 	-392.764 	16.0313 	0 	0 	0 	0
0.00159799 	-16.5344 	6.06841 	0 	-405.439 	16.5334 	0 	0 	0 	0
0.00160804 	-16.9055 	5.88602 	0 	-418.198 	16.904 	0 	0 	0 	0
0.00161809 	-17.2435 	5.69892 	0 	-430.977 	17.2418 	0 	0 	0 	0
0.00162814 	-17.5816 	5.51182 	0 	-443.757 	17.5795 	0 	0 	0 	0
0.00163819 	-17.8377 	5.31674 	0 	-456.523 	17.8357 	0 	0 	0 	0
0.00164824 	-18.0061 	5.11313 	0 	-469.273 	18.0046 	0 	0 	0 	0
0.00165829 	-18.1746 	4.90952 	0 	-482.023 	18.1736 	0 	0 	0 	0
0.00166834 	-18.3152 	4.70444 	0 	-494.75 	18.3146 	0 	0 	0 	0
0.00167839 	-18.3163 	4.49197 	0 	-507.359 	18.3162 	0 	0 	0 	0
0.00168844 	-18.3174 	4.27949 	0 	-519.968 	18.3178 	0 	0 	0 	0
0.00169849 	-18.3186 	4.06702 	0 	-532.577 	18.3194 	0 	0 	0 	0
0.00170854 	-18.1842 	3.85363 	0 	-544.981 	18.1844 	0 	0 	0 	0
0.00171859 	-18.0259 	3.64007 	0 	-557.348 	18.0252 	0 	0 	0 	0
0.00172864 	-17.8676 	3.42651 	0 	-569.715 	17.8661 	0 	0 	0 	0
0.00173869 	-17.6291 	3.21641 	0 	-581.912 	17.6271 	0 	0 	0 	0
0.00174874 	-17.3205 	3.00935 	0 	-593.96 	17.3184 	0 	0 	0 	0
0.00175879 	-17.0118 	2.80228 	0 	-606.008 	17.0096 	0 	0 	0 	0
0.00176884 	-16.6735 	2.59814 	0 	-617.979 	16.6716 	0 	0 	0 	0
0.00177889 	-16.228 	2.40458 	0 	-629.666 	16.2276 	0 	0 	0 	0
0.00178894 	-15.7825 	2.21102 	0 	-641.354 	15.7836 	0 	0 	0 	0
0.00179899 	-15.337 	2.01747 	0 	-653.041 	15.3396 	0 	0 	0 	0
0.00180905 	-14.7847 	1.84164 	0 	-664.389 	14.7889 	0 	0 	0 	0
0.0018191 	-14.2205 	1.66778 	0 	-675.7 	14.2263 	0 	0 	0 	0
0.00182915 	-13.6563 	1.49391 	0 	-687.011 	13.6638 	0 	0 	0 	0
0.0018392 	-13.0341 	1.33455 	0 	-698.103 	13.0419 	0 	0 	0 	0
0.00184925 	-12.3704 	1.18554 	0 	-709.04 	12.3776 	0 	0 	0 	0
0.0018593 	-11.7067 	1.03654 	0 	-719.978 	11.7133 	0 	0 	0 	0
0.00186935 	-11.02 	0.895253 	0 	-730.823 	11.0245 	0 	0 	0 	0
0.0018794 	-10.27 	0.775214 	0 	-741.414 	10.2683 	0 	0 	0 	0
0.00188945 	-9.52009 	0.655174 	0 	-752.006 	9.51214 	0 	0 	0 	0
0.0018995 	-8.77012 	0.535134 	0 	-762.597 	8.75594 	0 	0 	0 	0
0.00190955 	-7.95163 	0.446011 	0 	-772.906 	7.923 	0 	0 	0 	0
0.0019196 	-7.12953 	0.358514 	0 	-783.2 	7.08603 	0 	0 	0 	0
0.00192965 	-6.30744 	0.271017 	0 	-793.494 	6.24906 	0 	0 	0 	0
0.0019397 	-5.44824 	0.205642 	0 	-803.639 	5.39894 	0 	0 	0 	0
0.00194975 	-4.56758 	0.153074 	0 	-813.697 	4.54121 	0 	0 	0 	0
0.0019598 	-3.68691 	0.100506 	0 	-823.755 	3.68348 	0 	0 	0 	0
0.00196985 	-2.94152 	0.0590748 	0 	-832.205 	2.96391 	0 	0 	0 	0
0.0019799 	-2.48801 	0.0416768 	0 	-837.184 	2.54246 	0 	0 	0 	0
0.00198995 	-2.03451 	0.0242789 	0 	-842.163 	2.12102 	0 	0 	0 	0
0.002 	-1.581 	0.00688088 	0 	-847.142 	1.69957 	0 	0 	0 	0
