/*--------------------------------*- C++ -*----------------------------------*\
  =========                 |
  \\      /  F ield         | OpenFOAM: The Open Source CFD Toolbox
   \\    /   O peration     | Website:  https://openfoam.org
    \\  /    A nd           | Version:  7
     \\/     M anipulation  |
\*---------------------------------------------------------------------------*/
FoamFile
{
    version     2.0;
    format      ascii;
    class       volSymmTensorField;
    location    "1500";
    object      devReff;
}
// * * * * * * * * * * * * * * * * * * * * * * * * * * * * * * * * * * * * * //

dimensions      [0 2 -2 0 0 0 0];

internalField   nonuniform List<symmTensor> 
180
(
(-1.03825e-21 -0.00927633 -0 2.07649e-21 -0 -1.03825e-21)
(7.36868e-22 -0.00927621 -0 -1.47374e-21 -0 7.36868e-22)
(1.68206e-20 -0.0109248 -0 -3.56706e-21 -0 -1.32535e-20)
(1.49576e-21 -0.0109247 -0 -2.99152e-21 -0 1.49576e-21)
(-3.29774e-20 -0.0104199 -0 9.06432e-21 -0 2.39131e-20)
(3.21172e-20 -0.0104198 -0 -7.34432e-21 -0 -2.47729e-20)
(1.34874e-19 -0.00997328 -0 -1.0051e-19 -0 -3.43641e-20)
(-1.38775e-19 -0.0099732 -0 1.08312e-19 -0 3.04627e-20)
(2.54101e-20 -0.00972623 -0 -5.08201e-20 -0 2.54101e-20)
(-3.13341e-20 -0.00972615 -0 6.26681e-20 -0 -3.13341e-20)
(4.62019e-21 -0.00952713 -0 -9.24038e-21 -0 4.62019e-21)
(9.25959e-21 -0.00952704 -0 -1.85192e-20 -0 9.25959e-21)
(-9.30303e-21 -0.00935024 -0 1.86061e-20 -0 -9.30303e-21)
(4.47941e-20 -0.00935015 -0 -8.95881e-20 -0 4.47941e-20)
(-7.17128e-21 -0.0091843 -0 1.43426e-20 -0 -7.17128e-21)
(2.2667e-20 -0.00918421 -0 -4.53341e-20 -0 2.2667e-20)
(-1.15453e-21 -0.00902403 -0 2.30907e-21 -0 -1.15453e-21)
(-3.52738e-21 -0.00902394 -0 7.05477e-21 -0 -3.52738e-21)
(3.72815e-21 -0.0088668 -0 -7.4563e-21 -0 3.72815e-21)
(-3.60339e-21 -0.00886671 -0 7.20678e-21 -0 -3.60339e-21)
(6.36579e-21 -0.00871123 -0 -1.27316e-20 -0 6.36579e-21)
(1.22265e-21 -0.00871114 -0 -2.44529e-21 -0 1.22265e-21)
(9.61355e-21 -0.00855657 -0 -1.92271e-20 -0 9.61355e-21)
(3.33166e-21 -0.00855648 -0 -6.66331e-21 -0 3.33166e-21)
(-1.33221e-20 -0.00840244 -0 2.66442e-20 -0 -1.33221e-20)
(-5.21722e-21 -0.00840235 -0 1.04344e-20 -0 -5.21722e-21)
(4.44625e-19 -0.00824863 -0 -1.38763e-19 -0 -3.05862e-19)
(-4.96425e-19 -0.00824854 -0 2.42377e-19 -0 2.54048e-19)
(-3.28183e-19 -0.00809507 -0 2.50133e-19 -0 7.805e-20)
(3.09239e-19 -0.00809497 -0 -2.12254e-19 -0 -9.6985e-20)
(-3.81117e-20 -0.00794174 -0 7.62234e-20 -0 -3.81117e-20)
(4.94116e-20 -0.00794165 -0 -9.88232e-20 -0 4.94116e-20)
(-3.13618e-20 -0.00778869 -0 6.27235e-20 -0 -3.13618e-20)
(3.8229e-20 -0.0077886 -0 -7.64581e-20 -0 3.8229e-20)
(-2.49707e-20 -0.00763598 -0 4.99413e-20 -0 -2.49707e-20)
(2.86496e-20 -0.00763589 -0 -5.72992e-20 -0 2.86496e-20)
(-1.94312e-20 -0.0074837 -0 3.88624e-20 -0 -1.94312e-20)
(1.97393e-20 -0.0074836 -0 -3.94785e-20 -0 1.97393e-20)
(-1.53609e-20 -0.00733192 -0 3.07218e-20 -0 -1.53609e-20)
(1.24085e-20 -0.00733183 -0 -2.4817e-20 -0 1.24085e-20)
(-1.07562e-20 -0.00718075 -0 2.15124e-20 -0 -1.07562e-20)
(6.3045e-21 -0.00718066 -0 -1.2609e-20 -0 6.3045e-21)
(-6.79038e-21 -0.00703029 -0 1.35808e-20 -0 -6.79038e-21)
(1.58271e-21 -0.00703019 -0 -3.16542e-21 -0 1.58271e-21)
(-3.72378e-21 -0.00688061 -0 7.44756e-21 -0 -3.72378e-21)
(-2.14476e-21 -0.00688052 -0 4.28952e-21 -0 -2.14476e-21)
(-5.06828e-22 -0.00673182 -0 1.01366e-21 -0 -5.06828e-22)
(-4.21119e-21 -0.00673173 -0 8.42237e-21 -0 -4.21119e-21)
(1.86996e-21 -0.006584 -0 -3.73992e-21 -0 1.86996e-21)
(-5.63455e-21 -0.00658391 -0 1.12691e-20 -0 -5.63455e-21)
(3.0953e-21 -0.00643723 -0 -6.1906e-21 -0 3.0953e-21)
(-6.34704e-21 -0.00643714 -0 1.26941e-20 -0 -6.34704e-21)
(3.79452e-21 -0.00629159 -0 -7.58905e-21 -0 3.79452e-21)
(-6.09762e-21 -0.00629149 -0 1.21952e-20 -0 -6.09762e-21)
(4.59118e-21 -0.00614713 -0 -9.18235e-21 -0 4.59118e-21)
(-5.58412e-21 -0.00614704 -0 1.11682e-20 -0 -5.58412e-21)
(4.96965e-21 -0.00600393 -0 -9.9393e-21 -0 4.96965e-21)
(-5.48234e-21 -0.00600384 -0 1.09647e-20 -0 -5.48234e-21)
(5.0855e-21 -0.00586204 -0 -1.0171e-20 -0 5.0855e-21)
(-5.43545e-21 -0.00586195 -0 1.08709e-20 -0 -5.43545e-21)
(5.01441e-21 -0.00572151 -0 -1.00288e-20 -0 5.01441e-21)
(-5.01048e-21 -0.00572141 -0 1.0021e-20 -0 -5.01048e-21)
(5.34506e-21 -0.00558237 -0 -1.06901e-20 -0 5.34506e-21)
(-4.71426e-21 -0.00558227 -0 9.42852e-21 -0 -4.71426e-21)
(5.67014e-21 -0.00544466 -0 -1.13403e-20 -0 5.67014e-21)
(-4.47976e-21 -0.00544457 -0 8.95953e-21 -0 -4.47976e-21)
(5.49111e-21 -0.00530842 -0 -1.09822e-20 -0 5.49111e-21)
(-4.31671e-21 -0.00530833 -0 8.63342e-21 -0 -4.31671e-21)
(5.37647e-21 -0.00517367 -0 -1.07529e-20 -0 5.37647e-21)
(-4.22068e-21 -0.00517357 -0 8.44135e-21 -0 -4.22068e-21)
(5.29018e-21 -0.00504042 -0 -1.05804e-20 -0 5.29018e-21)
(-4.15546e-21 -0.00504032 -0 8.31092e-21 -0 -4.15546e-21)
(5.23612e-21 -0.00490869 -0 -1.04722e-20 -0 5.23612e-21)
(-4.07685e-21 -0.00490859 -0 8.1537e-21 -0 -4.07685e-21)
(5.19334e-21 -0.00477849 -0 -1.03867e-20 -0 5.19334e-21)
(-4.02589e-21 -0.00477839 -0 8.05179e-21 -0 -4.02589e-21)
(5.15699e-21 -0.00464982 -0 -1.0314e-20 -0 5.15699e-21)
(-4.0521e-21 -0.00464972 -0 8.10421e-21 -0 -4.0521e-21)
(5.12335e-21 -0.00452269 -0 -1.02467e-20 -0 5.12335e-21)
(-4.12211e-21 -0.00452259 -0 8.24422e-21 -0 -4.12211e-21)
(5.07876e-21 -0.00439708 -0 -1.01575e-20 -0 5.07876e-21)
(-4.20786e-21 -0.00439698 -0 8.41572e-21 -0 -4.20786e-21)
(5.03027e-21 -0.004273 -0 -1.00605e-20 -0 5.03027e-21)
(-4.29273e-21 -0.00427289 -0 8.58546e-21 -0 -4.29273e-21)
(4.96366e-21 -0.00415043 -0 -9.92731e-21 -0 4.96366e-21)
(-4.37321e-21 -0.00415032 -0 8.74643e-21 -0 -4.37321e-21)
(4.90721e-21 -0.00402936 -0 -9.81443e-21 -0 4.90721e-21)
(-4.46295e-21 -0.00402925 -0 8.9259e-21 -0 -4.46295e-21)
(4.84074e-21 -0.00390978 -0 -9.68148e-21 -0 4.84074e-21)
(-4.55923e-21 -0.00390966 -0 9.11845e-21 -0 -4.55923e-21)
(4.77734e-21 -0.00379166 -0 -9.55468e-21 -0 4.77734e-21)
(-4.66497e-21 -0.00379155 -0 9.32994e-21 -0 -4.66497e-21)
(4.71402e-21 -0.00367499 -0 -9.42805e-21 -0 4.71402e-21)
(-4.78036e-21 -0.00367487 -0 9.56072e-21 -0 -4.78036e-21)
(4.65346e-21 -0.00355975 -0 -9.30692e-21 -0 4.65346e-21)
(-4.90589e-21 -0.00355963 -0 9.81179e-21 -0 -4.90589e-21)
(4.60418e-21 -0.00344591 -0 -9.20836e-21 -0 4.60418e-21)
(-5.0565e-21 -0.00344578 -0 1.0113e-20 -0 -5.0565e-21)
(4.55911e-21 -0.00333345 -0 -9.11822e-21 -0 4.55911e-21)
(-4.9672e-21 -0.00333332 -0 9.93441e-21 -0 -4.9672e-21)
(4.53797e-21 -0.00322233 -0 -9.07595e-21 -0 4.53797e-21)
(-4.87644e-21 -0.00322221 -0 9.75287e-21 -0 -4.87644e-21)
(4.51942e-21 -0.00311255 -0 -9.03885e-21 -0 4.51942e-21)
(-5.02705e-21 -0.00311242 -0 1.00541e-20 -0 -5.02705e-21)
(4.52995e-21 -0.00300406 -0 -9.05991e-21 -0 4.52995e-21)
(-5.15696e-21 -0.00300392 -0 1.03139e-20 -0 -5.15696e-21)
(4.56235e-21 -0.00289683 -0 -9.12471e-21 -0 4.56235e-21)
(-5.2788e-21 -0.0028967 -0 1.05576e-20 -0 -5.2788e-21)
(4.62895e-21 -0.00279085 -0 -9.25789e-21 -0 4.62895e-21)
(-5.40682e-21 -0.0027907 -0 1.08136e-20 -0 -5.40682e-21)
(4.73124e-21 -0.00268606 -0 -9.46248e-21 -0 4.73124e-21)
(-5.55317e-21 -0.00268592 -0 1.11063e-20 -0 -5.55317e-21)
(4.87157e-21 -0.00258246 -0 -9.74315e-21 -0 4.87157e-21)
(-5.7236e-21 -0.00258231 -0 1.14472e-20 -0 -5.7236e-21)
(5.06082e-21 -0.00247999 -0 -1.01216e-20 -0 5.06082e-21)
(-5.92808e-21 -0.00247984 -0 1.18562e-20 -0 -5.92808e-21)
(5.28277e-21 -0.00237863 -0 -1.05655e-20 -0 5.28277e-21)
(-6.16566e-21 -0.00237848 -0 1.23313e-20 -0 -6.16566e-21)
(5.32338e-21 -0.00227835 -0 -1.06468e-20 -0 5.32338e-21)
(-6.44328e-21 -0.00227819 -0 1.28866e-20 -0 -6.44328e-21)
(5.43835e-21 -0.00217911 -0 -1.08767e-20 -0 5.43835e-21)
(-6.75824e-21 -0.00217895 -0 1.35165e-20 -0 -6.75824e-21)
(5.87878e-21 -0.00208089 -0 -1.17576e-20 -0 5.87878e-21)
(-6.83121e-21 -0.00208072 -0 1.36624e-20 -0 -6.83121e-21)
(6.37272e-21 -0.00198363 -0 -1.27454e-20 -0 6.37272e-21)
(-6.92783e-21 -0.00198346 -0 1.38557e-20 -0 -6.92783e-21)
(6.66041e-21 -0.00188732 -0 -1.33208e-20 -0 6.66041e-21)
(-7.33205e-21 -0.00188715 -0 1.46641e-20 -0 -7.33205e-21)
(6.96807e-21 -0.00179191 -0 -1.39361e-20 -0 6.96807e-21)
(-7.76513e-21 -0.00179174 -0 1.55303e-20 -0 -7.76513e-21)
(7.4349e-21 -0.00169737 -0 -1.48698e-20 -0 7.4349e-21)
(-8.08689e-21 -0.0016972 -0 1.61738e-20 -0 -8.08689e-21)
(7.80473e-21 -0.00160367 -0 -1.56095e-20 -0 7.80473e-21)
(-8.43415e-21 -0.00160349 -0 1.68683e-20 -0 -8.43415e-21)
(8.32089e-21 -0.00151077 -0 -1.66418e-20 -0 8.32089e-21)
(-8.80323e-21 -0.00151059 -0 1.76065e-20 -0 -8.80323e-21)
(8.85183e-21 -0.00141863 -0 -1.77037e-20 -0 8.85183e-21)
(-9.1892e-21 -0.00141844 -0 1.83784e-20 -0 -9.1892e-21)
(9.38428e-21 -0.00132722 -0 -1.87686e-20 -0 9.38428e-21)
(-9.59113e-21 -0.00132703 -0 1.91823e-20 -0 -9.59113e-21)
(9.94619e-21 -0.0012365 -0 -1.98924e-20 -0 9.94619e-21)
(-1.00018e-20 -0.00123631 -0 2.00036e-20 -0 -1.00018e-20)
(1.03877e-20 -0.00114644 -0 -2.07753e-20 -0 1.03877e-20)
(-1.04183e-20 -0.00114624 -0 2.08365e-20 -0 -1.04183e-20)
(1.09608e-20 -0.001057 -0 -2.19216e-20 -0 1.09608e-20)
(-1.08352e-20 -0.0010568 -0 2.16704e-20 -0 -1.08352e-20)
(1.15483e-20 -0.000968137 -0 -2.30966e-20 -0 1.15483e-20)
(-1.12523e-20 -0.000967933 -0 2.25046e-20 -0 -1.12523e-20)
(1.20034e-20 -0.000879821 -0 -2.40067e-20 -0 1.20034e-20)
(-1.16633e-20 -0.000879613 -0 2.33266e-20 -0 -1.16633e-20)
(1.25105e-20 -0.000792011 -0 -2.5021e-20 -0 1.25105e-20)
(-1.21362e-20 -0.0007918 -0 2.42725e-20 -0 -1.21362e-20)
(1.29996e-20 -0.000704671 -0 -2.59992e-20 -0 1.29996e-20)
(-1.25259e-20 -0.000704457 -0 2.50517e-20 -0 -1.25259e-20)
(1.34549e-20 -0.000617762 -0 -2.69098e-20 -0 1.34549e-20)
(-1.28996e-20 -0.000617544 -0 2.57992e-20 -0 -1.28996e-20)
(1.39379e-20 -0.000531244 -0 -2.78757e-20 -0 1.39379e-20)
(-1.32501e-20 -0.000531023 -0 2.65001e-20 -0 -1.32501e-20)
(1.43855e-20 -0.000445075 -0 -2.87709e-20 -0 1.43855e-20)
(-1.35726e-20 -0.000444851 -0 2.71452e-20 -0 -1.35726e-20)
(1.47863e-20 -0.000359211 -0 -2.95727e-20 -0 1.47863e-20)
(-1.38917e-20 -0.000358983 -0 2.77834e-20 -0 -1.38917e-20)
(1.51294e-20 -0.000273599 -0 -3.02587e-20 -0 1.51294e-20)
(-1.41706e-20 -0.000273368 -0 2.83412e-20 -0 -1.41706e-20)
(1.54176e-20 -0.000188177 -0 -3.08352e-20 -0 1.54176e-20)
(-1.43809e-20 -0.000187942 -0 2.87618e-20 -0 -1.43809e-20)
(1.5646e-20 -0.000102864 -0 -3.1292e-20 -0 1.5646e-20)
(-1.45422e-20 -0.000102626 -0 2.90844e-20 -0 -1.45422e-20)
(1.57834e-20 -1.75565e-05 -0 -3.15667e-20 -0 1.57834e-20)
(-1.46298e-20 -1.73147e-05 -0 2.92597e-20 -0 -1.46298e-20)
(1.58038e-20 6.78858e-05 -0 -3.16075e-20 -0 1.58038e-20)
(-1.46106e-20 6.81311e-05 -0 2.92211e-20 -0 -1.46106e-20)
(1.56653e-20 0.000153642 -0 -3.13306e-20 -0 1.56653e-20)
(-1.443e-20 0.00015389 -0 2.88601e-20 -0 -1.443e-20)
(1.54306e-20 0.000239921 -0 -3.08613e-20 -0 1.54306e-20)
(-1.41952e-20 0.000240171 -0 2.83904e-20 -0 -1.41952e-20)
(1.58054e-20 0.000327013 -0 -3.16109e-20 -0 1.58054e-20)
(-1.45865e-20 0.000327262 -0 2.91729e-20 -0 -1.45865e-20)
(1.56853e-20 0.000185402 -0 -3.13706e-20 -0 1.56853e-20)
(-1.44496e-20 0.000185525 -0 2.88992e-20 -0 -1.44496e-20)
)
;

boundaryField
{
    inlet
    {
        type            cyclic;
    }
    outlet
    {
        type            cyclic;
    }
    bottom
    {
        type            symmetry;
    }
    top
    {
        type            calculated;
        value           nonuniform List<symmTensor> 2((-5.54529e-23 -0.0101983 -0 1.10906e-22 -0 -5.54529e-23) (4.4164e-22 -0.0101982 -0 -8.83281e-22 -0 4.4164e-22));
    }
    frontAndBack
    {
        type            empty;
    }
}


// ************************************************************************* //
