/*--------------------------------*- C++ -*----------------------------------*\
  =========                 |
  \\      /  F ield         | OpenFOAM: The Open Source CFD Toolbox
   \\    /   O peration     | Website:  https://openfoam.org
    \\  /    A nd           | Version:  7
     \\/     M anipulation  |
\*---------------------------------------------------------------------------*/
FoamFile
{
    version     2.0;
    format      ascii;
    class       volScalarField;
    location    "1500";
    object      k;
}
// * * * * * * * * * * * * * * * * * * * * * * * * * * * * * * * * * * * * * //

dimensions      [0 2 -2 0 0 0 0];

internalField   nonuniform List<scalar> 
180
(
0.00821177
0.00821148
0.0260935
0.0260933
0.0290251
0.0290249
0.0295904
0.0295902
0.0296297
0.0296295
0.0294626
0.0294623
0.0292004
0.0292001
0.0288921
0.0288918
0.0285633
0.028563
0.028229
0.0282287
0.0278988
0.0278985
0.0275793
0.027579
0.0272752
0.0272749
0.0269898
0.0269894
0.0267253
0.0267249
0.0264833
0.0264829
0.0262649
0.0262644
0.0260705
0.02607
0.0259003
0.0258997
0.025754
0.0257534
0.0256311
0.0256305
0.025531
0.0255304
0.0254529
0.0254522
0.0253956
0.0253949
0.0253583
0.0253575
0.0253397
0.0253389
0.0253387
0.0253378
0.0253541
0.0253532
0.0253848
0.0253839
0.0254296
0.0254286
0.0254874
0.0254864
0.025557
0.025556
0.0256375
0.0256365
0.0257279
0.0257268
0.0258272
0.025826
0.0259344
0.0259333
0.0260488
0.0260476
0.0261696
0.0261684
0.0262959
0.0262947
0.0264271
0.0264258
0.0265625
0.0265612
0.0267016
0.0267002
0.0268436
0.0268422
0.0269881
0.0269867
0.0271345
0.0271331
0.0272824
0.027281
0.0274314
0.0274299
0.0275809
0.0275794
0.0277307
0.0277292
0.0278803
0.0278788
0.0280295
0.028028
0.0281779
0.0281763
0.0283251
0.0283235
0.028471
0.0284694
0.0286152
0.0286136
0.0287576
0.0287559
0.0288978
0.0288961
0.0290356
0.0290339
0.0291709
0.0291692
0.0293035
0.0293018
0.0294331
0.0294314
0.0295596
0.0295579
0.0296829
0.0296812
0.0298028
0.029801
0.0299191
0.0299173
0.0300317
0.0300298
0.0301404
0.0301386
0.0302453
0.0302434
0.030346
0.0303442
0.0304426
0.0304408
0.030535
0.0305331
0.030623
0.0306211
0.0307065
0.0307046
0.0307855
0.0307836
0.0308599
0.030858
0.0309296
0.0309277
0.0309946
0.0309927
0.0310548
0.0310528
0.0311101
0.0311081
0.0311604
0.0311585
0.0312058
0.0312038
0.0312461
0.0312442
0.0312814
0.0312794
0.0313116
0.0313096
0.0313366
0.0313346
0.0313564
0.0313544
0.031371
0.031369
0.0313803
0.0313782
0.0313841
0.0313821
0.0313825
0.0313804
)
;

boundaryField
{
    inlet
    {
        type            cyclic;
    }
    outlet
    {
        type            cyclic;
    }
    bottom
    {
        type            symmetry;
    }
    top
    {
        type            kqRWallFunction;
        value           nonuniform List<scalar> 2(0.00821177 0.00821148);
    }
    frontAndBack
    {
        type            empty;
    }
}


// ************************************************************************* //
