/*--------------------------------*- C++ -*----------------------------------*\
  =========                 |
  \\      /  F ield         | OpenFOAM: The Open Source CFD Toolbox
   \\    /   O peration     | Website:  https://openfoam.org
    \\  /    A nd           | Version:  7
     \\/     M anipulation  |
\*---------------------------------------------------------------------------*/
FoamFile
{
    version     2.0;
    format      ascii;
    class       volScalarField;
    location    "1500";
    object      nut;
}
// * * * * * * * * * * * * * * * * * * * * * * * * * * * * * * * * * * * * * //

dimensions      [0 2 -1 0 0 0 0];

internalField   nonuniform List<scalar> 
180
(
3.16812e-06
3.16801e-06
2.85257e-05
2.85254e-05
6.28781e-05
6.28777e-05
9.83992e-05
9.83986e-05
0.000134821
0.000134821
0.00017147
0.000171469
0.000208142
0.00020814
0.000244823
0.000244821
0.000281586
0.000281583
0.000318539
0.000318535
0.000355805
0.0003558
0.000393508
0.000393501
0.000431767
0.000431759
0.000470696
0.000470687
0.000510394
0.000510383
0.00055095
0.000550937
0.000592437
0.000592422
0.000634916
0.000634899
0.000678432
0.000678412
0.000723016
0.000722993
0.000768684
0.000768658
0.000815438
0.00081541
0.000863269
0.000863238
0.000912153
0.00091212
0.000962056
0.00096202
0.00101293
0.0010129
0.00106473
0.00106469
0.0011174
0.00111735
0.00117085
0.0011708
0.00122502
0.00122497
0.00127984
0.00127979
0.00133521
0.00133516
0.00139106
0.00139101
0.0014473
0.00144724
0.00150384
0.00150379
0.00156061
0.00156055
0.0016175
0.00161744
0.00167445
0.00167438
0.00173135
0.00173129
0.00178815
0.00178808
0.00184474
0.00184468
0.00190107
0.001901
0.00195705
0.00195698
0.00201261
0.00201254
0.00206769
0.00206762
0.00212222
0.00212216
0.00217615
0.00217608
0.00222941
0.00222934
0.00228194
0.00228187
0.0023337
0.00233363
0.00238463
0.00238456
0.00243469
0.00243462
0.00248384
0.00248377
0.00253203
0.00253196
0.00257923
0.00257916
0.0026254
0.00262533
0.0026705
0.00267043
0.00271451
0.00271444
0.00275739
0.00275732
0.00279912
0.00279905
0.00283968
0.00283961
0.00287903
0.00287896
0.00291716
0.00291709
0.00295405
0.00295399
0.00298969
0.00298962
0.00302404
0.00302397
0.0030571
0.00305703
0.00308885
0.00308878
0.00311928
0.00311922
0.00314838
0.00314831
0.00317613
0.00317607
0.00320253
0.00320246
0.00322756
0.0032275
0.00325122
0.00325116
0.0032735
0.00327344
0.0032944
0.00329433
0.00331389
0.00331383
0.00333199
0.00333193
0.00334868
0.00334862
0.00336396
0.0033639
0.00337783
0.00337776
0.00339028
0.00339021
0.0034013
0.00340124
0.0034109
0.00341084
0.00341907
0.00341901
0.00342581
0.00342575
0.00343112
0.00343105
0.00343498
0.00343492
0.00343741
0.00343734
0.00343838
0.00343832
)
;

boundaryField
{
    inlet
    {
        type            cyclic;
    }
    outlet
    {
        type            cyclic;
    }
    bottom
    {
        type            symmetry;
    }
    top
    {
        type            nutkWallFunction;
        Cmu             0.09;
        kappa           0.41;
        E               9.8;
        value           uniform 0;
    }
    frontAndBack
    {
        type            empty;
    }
}


// ************************************************************************* //
