/*--------------------------------*- C++ -*----------------------------------*\
  =========                 |
  \\      /  F ield         | OpenFOAM: The Open Source CFD Toolbox
   \\    /   O peration     | Website:  https://openfoam.org
    \\  /    A nd           | Version:  7
     \\/     M anipulation  |
\*---------------------------------------------------------------------------*/
FoamFile
{
    version     2.0;
    format      ascii;
    class       volScalarField;
    location    "1500";
    object      omega;
}
// * * * * * * * * * * * * * * * * * * * * * * * * * * * * * * * * * * * * * //

dimensions      [0 0 -1 0 0 0 0];

internalField   nonuniform List<scalar> 
180
(
2592
2592
881.837
881.837
461.61
461.609
300.718
300.717
219.77
219.77
171.823
171.823
140.291
140.291
118.012
118.012
101.437
101.437
88.6201
88.6202
78.4104
78.4106
70.0859
70.0862
63.1711
63.1714
57.3401
57.3404
52.362
52.3624
48.0685
48.0688
44.3337
44.334
41.0614
41.0617
38.1767
38.177
35.6202
35.6205
33.3442
33.3444
31.3096
31.3098
29.4843
29.4845
27.8414
27.8416
26.3584
26.3586
25.0161
25.0163
23.7981
23.7982
22.6904
22.6905
21.6807
21.6807
20.7585
20.7585
19.9146
19.9146
19.1408
19.1408
18.4302
18.4302
17.7765
17.7764
17.1741
17.174
16.6182
16.618
16.1043
16.1042
15.6288
15.6286
15.1881
15.1879
14.7791
14.7789
14.3991
14.3989
14.0456
14.0454
13.7164
13.7162
13.4095
13.4092
13.1231
13.1228
12.8556
12.8553
12.6055
12.6052
12.3714
12.3711
12.1523
12.152
11.9469
11.9466
11.7542
11.7539
11.5735
11.5732
11.4038
11.4034
11.2443
11.244
11.0945
11.0942
10.9536
10.9533
10.8211
10.8208
10.6965
10.6961
10.5792
10.5788
10.4688
10.4685
10.365
10.3646
10.2672
10.2669
10.1753
10.1749
10.0888
10.0884
10.0074
10.0071
9.93098
9.9306
9.85916
9.85878
9.79175
9.79137
9.72853
9.72815
9.6693
9.66892
9.61389
9.6135
9.56212
9.56173
9.51384
9.51344
9.4689
9.46851
9.42718
9.42679
9.38856
9.38816
9.35293
9.35253
9.32019
9.31978
9.29024
9.28984
9.26301
9.2626
9.23842
9.23801
9.2164
9.21599
9.1969
9.19649
9.17986
9.17945
9.16524
9.16482
9.15299
9.15257
9.14309
9.14267
9.13549
9.13507
9.13018
9.12975
9.12711
9.12668
)
;

boundaryField
{
    inlet
    {
        type            cyclic;
    }
    outlet
    {
        type            cyclic;
    }
    bottom
    {
        type            symmetry;
    }
    top
    {
        beta1           0.075;
        blended         0;
        type            omegaWallFunction;
        value           uniform 2592;
    }
    frontAndBack
    {
        type            empty;
    }
}


// ************************************************************************* //
