/*--------------------------------*- C++ -*----------------------------------*\
  =========                 |
  \\      /  F ield         | OpenFOAM: The Open Source CFD Toolbox
   \\    /   O peration     | Website:  https://openfoam.org
    \\  /    A nd           | Version:  7
     \\/     M anipulation  |
\*---------------------------------------------------------------------------*/
FoamFile
{
    version     2.0;
    format      ascii;
    class       volScalarField;
    location    "1500";
    object      p;
}
// * * * * * * * * * * * * * * * * * * * * * * * * * * * * * * * * * * * * * //

dimensions      [0 2 -2 0 0 0 0];

internalField   nonuniform List<scalar> 
180
(
1.40488e-21
4.99126e-17
-1.55523e-22
4.99172e-17
-1.1797e-20
4.99256e-17
1.47666e-20
4.98929e-17
1.89818e-20
4.98902e-17
-1.84186e-20
4.99572e-17
-4.73519e-20
5.00221e-17
-6.15212e-20
4.99962e-17
-7.81977e-20
4.99901e-17
-9.75521e-20
5.00104e-17
-1.19522e-19
5.00332e-17
-1.44268e-19
5.00587e-17
-1.71778e-19
5.00503e-17
-2.02209e-19
5.00413e-17
-3.22738e-19
5.02061e-17
-3.1215e-19
5.01962e-17
-3.01125e-19
5.0186e-17
-2.89781e-19
5.01753e-17
-2.78041e-19
5.01643e-17
-2.66033e-19
5.0153e-17
-2.53668e-19
5.01413e-17
-2.41062e-19
5.01293e-17
-2.28139e-19
5.0117e-17
-2.14987e-19
5.01045e-17
-2.01558e-19
5.00916e-17
-1.87902e-19
5.00786e-17
-1.74002e-19
5.00652e-17
-1.59883e-19
5.00517e-17
-1.45544e-19
5.00379e-17
-1.31014e-19
5.00239e-17
-1.16283e-19
5.00097e-17
-1.01405e-19
4.99954e-17
-8.63466e-20
4.99809e-17
-7.11888e-20
4.99663e-17
-5.58804e-20
4.99516e-17
-4.05205e-20
4.99367e-17
-2.50503e-20
4.99218e-17
-9.55637e-21
4.99068e-17
6.00222e-21
4.98918e-17
2.15679e-20
4.98767e-17
3.71526e-20
4.98616e-17
5.27304e-20
4.98465e-17
6.82888e-20
4.98314e-17
8.38226e-20
4.98164e-17
9.93099e-20
4.98014e-17
1.14731e-19
4.97864e-17
1.30083e-19
4.97716e-17
1.45314e-19
4.97568e-17
1.60455e-19
4.97422e-17
1.75416e-19
4.97277e-17
1.90259e-19
4.97133e-17
2.04869e-19
4.96992e-17
2.1932e-19
4.96852e-17
2.33514e-19
4.96714e-17
2.47505e-19
4.96578e-17
2.61226e-19
4.96445e-17
2.74701e-19
4.96314e-17
2.87904e-19
4.96185e-17
3.00826e-19
4.96059e-17
3.1347e-19
4.95936e-17
3.25807e-19
4.95816e-17
3.37847e-19
4.95699e-17
3.49561e-19
4.95585e-17
3.60949e-19
4.95474e-17
3.71998e-19
4.95367e-17
3.82685e-19
4.95263e-17
3.93018e-19
4.95162e-17
4.0296e-19
4.95066e-17
4.12529e-19
4.94973e-17
4.21684e-19
4.94883e-17
4.30447e-19
4.94798e-17
4.38782e-19
4.94717e-17
4.46704e-19
4.9464e-17
4.54189e-19
4.94567e-17
4.61243e-19
4.94498e-17
4.67852e-19
4.94433e-17
4.74015e-19
4.94373e-17
4.79728e-19
4.94317e-17
4.84982e-19
4.94266e-17
4.89779e-19
4.94219e-17
4.94109e-19
4.94176e-17
4.97974e-19
4.94138e-17
5.01366e-19
4.94105e-17
5.04285e-19
4.94076e-17
5.06728e-19
4.94052e-17
5.08692e-19
4.94033e-17
5.10175e-19
4.94018e-17
5.11177e-19
4.94008e-17
5.11696e-19
4.94003e-17
5.11762e-19
4.94003e-17
)
;

boundaryField
{
    inlet
    {
        type            cyclic;
    }
    outlet
    {
        type            cyclic;
    }
    bottom
    {
        type            symmetry;
    }
    top
    {
        type            zeroGradient;
    }
    frontAndBack
    {
        type            empty;
    }
}


// ************************************************************************* //
