/*--------------------------------*- C++ -*----------------------------------*\
  =========                 |
  \\      /  F ield         | OpenFOAM: The Open Source CFD Toolbox
   \\    /   O peration     | Website:  https://openfoam.org
    \\  /    A nd           | Version:  7
     \\/     M anipulation  |
\*---------------------------------------------------------------------------*/
FoamFile
{
    version     2.0;
    format      ascii;
    class       surfaceScalarField;
    location    "1500";
    object      phi;
}
// * * * * * * * * * * * * * * * * * * * * * * * * * * * * * * * * * * * * * //

dimensions      [0 3 -1 0 0 0 0];

internalField   nonuniform List<scalar> 
268
(
0.000629523
-7.11683e-20
5.66097e-20
0.00110987
-1.34428e-19
6.22976e-20
0.0013297
-1.42271e-19
7.85838e-20
0.0014629
7.70523e-20
-1.65596e-19
0.00155687
3.04973e-19
-4.44898e-19
0.00162872
2.62527e-19
-4.05891e-19
0.0016865
2.2063e-19
-7.95985e-20
0.00173456
2.00219e-19
-7.95557e-20
0.00177549
1.97489e-19
-9.49491e-20
0.00181097
2.05691e-19
-9.91991e-20
0.00184213
2.20737e-19
-1.01685e-19
0.00186977
2.39781e-19
-8.41411e-20
0.00189449
2.5463e-19
-7.65215e-20
0.00191674
9.81052e-20
-1.35373e-19
0.00193686
1.0724e-20
-9.94242e-21
0.00195515
-3.07699e-20
4.27319e-20
0.00197182
-7.38128e-20
9.56445e-20
0.00198707
-1.06412e-19
1.32665e-19
0.00200105
-1.29643e-19
1.56564e-19
0.00201391
-1.47366e-19
1.70683e-19
0.00202575
-1.58665e-19
1.77424e-19
0.00203668
-1.65699e-19
1.79034e-19
0.00204678
-1.69116e-19
1.7698e-19
0.00205613
-1.6968e-19
1.73189e-19
0.00206481
-1.68002e-19
1.68345e-19
0.00207286
-1.65539e-19
1.63194e-19
0.00208035
-1.62555e-19
1.58446e-19
0.00208731
-1.59204e-19
1.54346e-19
0.00209381
-1.55655e-19
1.50448e-19
0.00209987
-1.52276e-19
1.46815e-19
0.00210553
-1.48979e-19
1.43543e-19
0.00211082
-1.45735e-19
1.40658e-19
0.00211577
-1.42293e-19
1.37962e-19
0.00212042
-1.39226e-19
1.35524e-19
0.00212477
-1.36197e-19
1.33175e-19
0.00212885
-1.33452e-19
1.30991e-19
0.00213269
-1.30721e-19
1.2889e-19
0.0021363
-1.28189e-19
1.26908e-19
0.0021397
-1.25698e-19
1.24965e-19
0.0021429
-1.23337e-19
1.23056e-19
0.00214591
-1.21051e-19
1.21167e-19
0.00214875
-1.18857e-19
1.19294e-19
0.00215143
-1.16758e-19
1.17444e-19
0.00215396
-1.14739e-19
1.15606e-19
0.00215635
-1.12789e-19
1.13775e-19
0.00215861
-1.10941e-19
1.11958e-19
0.00216074
-1.09117e-19
1.10128e-19
0.00216276
-1.07422e-19
1.08312e-19
0.00216466
-1.05706e-19
1.06464e-19
0.00216647
-1.04132e-19
1.04709e-19
0.00216818
-1.02505e-19
1.03002e-19
0.00216979
-1.01008e-19
1.01296e-19
0.00217132
-9.94582e-20
9.95681e-20
0.00217277
-9.79909e-20
9.78404e-20
0.00217413
-9.64816e-20
9.61005e-20
0.00217543
-9.49961e-20
9.43424e-20
0.00217665
-9.34793e-20
9.25673e-20
0.00217781
-9.19284e-20
9.07491e-20
0.0021789
-9.03449e-20
8.88985e-20
0.00217993
-8.87587e-20
8.69819e-20
0.0021809
-8.7175e-20
8.50105e-20
0.00218182
-8.54757e-20
8.30365e-20
0.00218268
-8.36625e-20
8.10671e-20
0.00218349
-8.17933e-20
7.90043e-20
0.00218425
-7.98513e-20
7.68479e-20
0.00218496
-7.78185e-20
7.46267e-20
0.00218563
-7.56871e-20
7.2335e-20
0.00218625
-7.34611e-20
6.99681e-20
0.00218684
-7.10925e-20
6.75208e-20
0.00218737
-6.86274e-20
6.49904e-20
0.00218787
-6.60164e-20
6.23745e-20
0.00218833
-6.33297e-20
5.96718e-20
0.00218875
-6.05026e-20
5.68834e-20
0.00218914
-5.75561e-20
5.40075e-20
0.00218949
-5.45069e-20
5.10483e-20
0.0021898
-5.13535e-20
4.79866e-20
0.00219008
-4.80941e-20
4.48477e-20
0.00219032
-4.47388e-20
4.16297e-20
0.00219053
-4.12816e-20
3.83438e-20
0.00219071
-3.77276e-20
3.49904e-20
0.00219086
-3.40917e-20
3.1574e-20
0.00219098
-3.03828e-20
2.81009e-20
0.00219106
-2.66176e-20
2.45878e-20
0.00219111
-2.28054e-20
2.10452e-20
0.00219113
-1.89706e-20
1.74907e-20
0.00219112
-1.51371e-20
1.39461e-20
0.00219108
-1.13437e-20
1.04521e-20
0.00219101
-7.62298e-21
7.03095e-21
0.00219091
-3.96331e-21
3.66606e-21
0.00219078
)
;

boundaryField
{
    inlet
    {
        type            cyclic;
        value           nonuniform List<scalar> 
90
(
-0.000629523
-0.00110987
-0.0013297
-0.0014629
-0.00155687
-0.00162872
-0.0016865
-0.00173456
-0.00177549
-0.00181097
-0.00184213
-0.00186977
-0.00189449
-0.00191674
-0.00193686
-0.00195515
-0.00197182
-0.00198707
-0.00200105
-0.00201391
-0.00202575
-0.00203668
-0.00204678
-0.00205613
-0.00206481
-0.00207286
-0.00208035
-0.00208731
-0.00209381
-0.00209987
-0.00210553
-0.00211082
-0.00211577
-0.00212042
-0.00212477
-0.00212885
-0.00213269
-0.0021363
-0.0021397
-0.0021429
-0.00214591
-0.00214875
-0.00215143
-0.00215396
-0.00215635
-0.00215861
-0.00216074
-0.00216276
-0.00216466
-0.00216647
-0.00216818
-0.00216979
-0.00217132
-0.00217277
-0.00217413
-0.00217543
-0.00217665
-0.00217781
-0.0021789
-0.00217993
-0.0021809
-0.00218182
-0.00218268
-0.00218349
-0.00218425
-0.00218496
-0.00218563
-0.00218625
-0.00218684
-0.00218737
-0.00218787
-0.00218833
-0.00218875
-0.00218914
-0.00218949
-0.0021898
-0.00219008
-0.00219032
-0.00219053
-0.00219071
-0.00219086
-0.00219098
-0.00219106
-0.00219111
-0.00219113
-0.00219112
-0.00219108
-0.00219101
-0.00219091
-0.00219078
)
;
    }
    outlet
    {
        type            cyclic;
        value           nonuniform List<scalar> 
90
(
0.000629523
0.00110987
0.0013297
0.0014629
0.00155687
0.00162872
0.0016865
0.00173456
0.00177549
0.00181097
0.00184213
0.00186977
0.00189449
0.00191674
0.00193686
0.00195515
0.00197182
0.00198707
0.00200105
0.00201391
0.00202575
0.00203668
0.00204678
0.00205613
0.00206481
0.00207286
0.00208035
0.00208731
0.00209381
0.00209987
0.00210553
0.00211082
0.00211577
0.00212042
0.00212477
0.00212885
0.00213269
0.0021363
0.0021397
0.0021429
0.00214591
0.00214875
0.00215143
0.00215396
0.00215635
0.00215861
0.00216074
0.00216276
0.00216466
0.00216647
0.00216818
0.00216979
0.00217132
0.00217277
0.00217413
0.00217543
0.00217665
0.00217781
0.0021789
0.00217993
0.0021809
0.00218182
0.00218268
0.00218349
0.00218425
0.00218496
0.00218563
0.00218625
0.00218684
0.00218737
0.00218787
0.00218833
0.00218875
0.00218914
0.00218949
0.0021898
0.00219008
0.00219032
0.00219053
0.00219071
0.00219086
0.00219098
0.00219106
0.00219111
0.00219113
0.00219112
0.00219108
0.00219101
0.00219091
0.00219078
)
;
    }
    bottom
    {
        type            symmetry;
        value           uniform 0;
    }
    top
    {
        type            calculated;
        value           uniform 0;
    }
    frontAndBack
    {
        type            empty;
        value           nonuniform 0();
    }
}


// ************************************************************************* //
