/*--------------------------------*- C++ -*----------------------------------*\
  =========                 |
  \\      /  F ield         | OpenFOAM: The Open Source CFD Toolbox
   \\    /   O peration     | Website:  https://openfoam.org
    \\  /    A nd           | Version:  7
     \\/     M anipulation  |
\*---------------------------------------------------------------------------*/
FoamFile
{
    version     2.0;
    format      ascii;
    class       volVectorField;
    location    "1500";
    object      U;
}
// * * * * * * * * * * * * * * * * * * * * * * * * * * * * * * * * * * * * * //

dimensions      [0 1 -1 0 0 0 0];

internalField   nonuniform List<vector> 
180
(
(0.566571 -4.62108e-21 0)
(0.566568 3.68034e-20 0)
(0.998882 -2.58197e-19 0)
(0.998879 1.49727e-19 0)
(1.19673 -2.83987e-19 0)
(1.19673 1.66221e-19 0)
(1.31661 -3.18102e-20 0)
(1.31661 -1.15994e-19 0)
(1.40119 3.94022e-19 0)
(1.40118 -6.31754e-19 0)
(1.46585 5.5305e-19 0)
(1.46585 -8.3721e-19 0)
(1.51785 4.78887e-19 0)
(1.51785 -4.61668e-19 0)
(1.5611 4.10894e-19 0)
(1.5611 -1.52725e-19 0)
(1.59795 3.8508e-19 0)
(1.59794 -1.65158e-19 0)
(1.62988 3.97696e-19 0)
(1.62987 -1.9305e-19 0)
(1.65792 4.22906e-19 0)
(1.65792 -2.01718e-19 0)
(1.6828 4.55703e-19 0)
(1.68279 -1.81908e-19 0)
(1.70504 5.02322e-19 0)
(1.70504 -1.74195e-19 0)
(1.72506 3.55182e-19 0)
(1.72506 -2.21275e-19 0)
(1.74318 1.1608e-19 0)
(1.74317 -1.47218e-19 0)
(1.75963 -1.22384e-20 0)
(1.75963 2.48454e-20 0)
(1.77464 -1.10391e-19 0)
(1.77464 1.46407e-19 0)
(1.78836 -1.85765e-19 0)
(1.78836 2.36375e-19 0)
(1.80095 -2.39455e-19 0)
(1.80095 2.9449e-19 0)
(1.81252 -2.7985e-19 0)
(1.81252 3.31954e-19 0)
(1.82318 -3.09308e-19 0)
(1.82318 3.50919e-19 0)
(1.83301 -3.25894e-19 0)
(1.83301 3.58943e-19 0)
(1.8421 -3.36729e-19 0)
(1.8421 3.5731e-19 0)
(1.85052 -3.40108e-19 0)
(1.85052 3.50756e-19 0)
(1.85833 -3.38561e-19 0)
(1.85833 3.42087e-19 0)
(1.86557 -3.33696e-19 0)
(1.86557 3.31433e-19 0)
(1.87231 -3.28475e-19 0)
(1.87231 3.21404e-19 0)
(1.87858 -3.21927e-19 0)
(1.87858 3.1252e-19 0)
(1.88443 -3.149e-19 0)
(1.88443 3.04893e-19 0)
(1.88988 -3.07898e-19 0)
(1.88988 2.97044e-19 0)
(1.89498 -3.01175e-19 0)
(1.89498 2.90222e-19 0)
(1.89974 -2.94939e-19 0)
(1.89974 2.84095e-19 0)
(1.9042 -2.8793e-19 0)
(1.9042 2.7854e-19 0)
(1.90837 -2.81449e-19 0)
(1.90837 2.73436e-19 0)
(1.91229 -2.7537e-19 0)
(1.91229 2.68666e-19 0)
(1.91597 -2.69611e-19 0)
(1.91597 2.64143e-19 0)
(1.91942 -2.64142e-19 0)
(1.91942 2.59847e-19 0)
(1.92267 -2.58887e-19 0)
(1.92267 2.55792e-19 0)
(1.92573 -2.53865e-19 0)
(1.92573 2.51879e-19 0)
(1.92861 -2.49015e-19 0)
(1.92861 2.48035e-19 0)
(1.93132 -2.44368e-19 0)
(1.93132 2.44238e-19 0)
(1.93387 -2.39888e-19 0)
(1.93387 2.40473e-19 0)
(1.93629 -2.35594e-19 0)
(1.93629 2.3675e-19 0)
(1.93856 -2.31476e-19 0)
(1.93856 2.33062e-19 0)
(1.94071 -2.27507e-19 0)
(1.94071 2.29395e-19 0)
(1.94274 -2.2371e-19 0)
(1.94274 2.25747e-19 0)
(1.94466 -2.20038e-19 0)
(1.94467 2.22102e-19 0)
(1.94648 -2.16522e-19 0)
(1.94648 2.18458e-19 0)
(1.9482 -2.13112e-19 0)
(1.9482 2.14799e-19 0)
(1.94982 -2.09826e-19 0)
(1.94982 2.11104e-19 0)
(1.95136 -2.06627e-19 0)
(1.95136 2.07734e-19 0)
(1.95281 -2.03509e-19 0)
(1.95281 2.04315e-19 0)
(1.95419 -2.00465e-19 0)
(1.95419 2.0088e-19 0)
(1.95549 -1.97454e-19 0)
(1.95549 1.97422e-19 0)
(1.95672 -1.94483e-19 0)
(1.95672 1.93957e-19 0)
(1.95788 -1.91495e-19 0)
(1.95788 1.90462e-19 0)
(1.95898 -1.88498e-19 0)
(1.95898 1.86933e-19 0)
(1.96002 -1.85437e-19 0)
(1.96002 1.83344e-19 0)
(1.96101 -1.82307e-19 0)
(1.96101 1.7968e-19 0)
(1.96193 -1.79074e-19 0)
(1.96193 1.75917e-19 0)
(1.96281 -1.7599e-19 0)
(1.96281 1.72035e-19 0)
(1.96363 -1.72713e-19 0)
(1.96363 1.68012e-19 0)
(1.96441 -1.69207e-19 0)
(1.96441 1.64153e-19 0)
(1.96514 -1.65456e-19 0)
(1.96514 1.60122e-19 0)
(1.96583 -1.61717e-19 0)
(1.96583 1.55907e-19 0)
(1.96647 -1.57712e-19 0)
(1.96647 1.51493e-19 0)
(1.96707 -1.53548e-19 0)
(1.96707 1.47022e-19 0)
(1.96763 -1.4923e-19 0)
(1.96763 1.42327e-19 0)
(1.96815 -1.44598e-19 0)
(1.96815 1.37553e-19 0)
(1.96864 -1.39801e-19 0)
(1.96864 1.32538e-19 0)
(1.96909 -1.34694e-19 0)
(1.96909 1.2743e-19 0)
(1.9695 -1.29396e-19 0)
(1.9695 1.22074e-19 0)
(1.96988 -1.23916e-19 0)
(1.96988 1.1662e-19 0)
(1.97022 -1.1811e-19 0)
(1.97022 1.10918e-19 0)
(1.97054 -1.12112e-19 0)
(1.97054 1.05118e-19 0)
(1.97082 -1.05925e-19 0)
(1.97082 9.90776e-20 0)
(1.97107 -9.94919e-20 0)
(1.97107 9.28756e-20 0)
(1.97129 -9.28885e-20 0)
(1.97129 8.65159e-20 0)
(1.97148 -8.60718e-20 0)
(1.97148 8.00092e-20 0)
(1.97164 -7.90558e-20 0)
(1.97164 7.33656e-20 0)
(1.97177 -7.18596e-20 0)
(1.97177 6.65997e-20 0)
(1.97188 -6.45073e-20 0)
(1.97188 5.96971e-20 0)
(1.97195 -5.70281e-20 0)
(1.97195 5.27078e-20 0)
(1.972 -4.94421e-20 0)
(1.972 4.56446e-20 0)
(1.97202 -4.17826e-20 0)
(1.97202 3.85376e-20 0)
(1.97201 -3.40994e-20 0)
(1.97201 3.1423e-20 0)
(1.97198 -2.64502e-20 0)
(1.97197 2.43626e-20 0)
(1.97191 -1.89248e-20 0)
(1.97191 1.74446e-20 0)
(1.97182 -1.15197e-20 0)
(1.97182 1.06272e-20 0)
(1.9717 -3.64232e-21 0)
(1.9717 3.3406e-21 0)
)
;

boundaryField
{
    inlet
    {
        type            cyclic;
    }
    outlet
    {
        type            cyclic;
    }
    bottom
    {
        type            symmetry;
    }
    top
    {
        type            noSlip;
    }
    frontAndBack
    {
        type            empty;
    }
}


// ************************************************************************* //
