/*--------------------------------*- C++ -*----------------------------------*\
  =========                 |
  \\      /  F ield         | OpenFOAM: The Open Source CFD Toolbox
   \\    /   O peration     | Website:  https://openfoam.org
    \\  /    A nd           | Version:  7
     \\/     M anipulation  |
\*---------------------------------------------------------------------------*/
FoamFile
{
    version     2.0;
    format      ascii;
    class       volScalarField;
    location    "588";
    object      k;
}
// * * * * * * * * * * * * * * * * * * * * * * * * * * * * * * * * * * * * * //

dimensions      [0 2 -2 0 0 0 0];

internalField   nonuniform List<scalar> 
150
(
0.000826222
0.000826146
0.000825869
0.0275028
0.0275003
0.0274911
0.212659
0.212637
0.212567
0.713608
0.713536
0.713326
1.30361
1.30355
1.30327
1.73176
1.73171
1.73142
2.00949
2.00943
2.00916
2.17574
2.17564
2.17538
2.26577
2.26569
2.26546
2.30358
2.30352
2.30333
2.30411
2.30408
2.30393
2.2764
2.27643
2.27631
2.2259
2.22597
2.22586
2.15589
2.15593
2.15584
2.06858
2.06861
2.06855
1.96608
1.96608
1.96606
1.85073
1.85071
1.85073
1.72428
1.72427
1.72431
1.58834
1.58834
1.5884
1.44536
1.44533
1.44541
1.29929
1.29926
1.29935
1.15642
1.15642
1.1565
1.02617
1.02615
1.02622
0.921665
0.921631
0.921711
0.859787
0.859751
0.859811
0.860137
0.860101
0.860161
0.922685
0.922651
0.922729
1.02778
1.02772
1.0278
1.15845
1.15841
1.15849
1.30157
1.30155
1.30162
1.44778
1.44778
1.44784
1.59083
1.59084
1.59088
1.72677
1.72677
1.7268
1.85324
1.85324
1.85325
1.96863
1.96864
1.96863
2.07117
2.0712
2.07115
2.1585
2.15854
2.15846
2.22853
2.22855
2.22849
2.27902
2.27905
2.27896
2.30675
2.3067
2.30658
2.30623
2.30615
2.30599
2.26843
2.26834
2.26814
2.1784
2.1783
2.17807
2.01217
2.01208
2.01183
1.73429
1.73426
1.734
1.30582
1.30579
1.30553
0.715123
0.715064
0.714873
0.213183
0.213162
0.2131
0.0275725
0.0275701
0.0275619
0.000828318
0.000828247
0.000828001
)
;

boundaryField
{
    inlet
    {
        type            cyclic;
    }
    outlet
    {
        type            cyclic;
    }
    wall
    {
        Ceps2           1.9;
        type            kLowReWallFunction;
        value           nonuniform List<scalar> 6(7.315e-09 7.31371e-09 7.30879e-09 7.35214e-09 7.35096e-09 7.34656e-09);
    }
    frontAndBack
    {
        type            empty;
    }
}


// ************************************************************************* //
