/*--------------------------------*- C++ -*----------------------------------*\
  =========                 |
  \\      /  F ield         | OpenFOAM: The Open Source CFD Toolbox
   \\    /   O peration     | Website:  https://openfoam.org
    \\  /    A nd           | Version:  7
     \\/     M anipulation  |
\*---------------------------------------------------------------------------*/
FoamFile
{
    version     2.0;
    format      ascii;
    class       volScalarField;
    location    "588";
    object      omega;
}
// * * * * * * * * * * * * * * * * * * * * * * * * * * * * * * * * * * * * * //

dimensions      [0 0 -1 0 0 0 0];

internalField   nonuniform List<scalar> 
150
(
91.352
91.352
91.352
15.1043
15.1044
15.1044
5.17516
5.17547
5.17554
2.73607
2.73661
2.73679
1.77314
1.77367
1.77392
1.25296
1.25342
1.2536
0.928905
0.929296
0.92942
0.712133
0.712722
0.712773
0.560814
0.561297
0.561354
0.45127
0.45166
0.451722
0.369522
0.369824
0.369898
0.306838
0.307031
0.307145
0.257627
0.257597
0.257811
0.218018
0.217991
0.218144
0.185592
0.18558
0.185665
0.158662
0.158682
0.158698
0.136127
0.13613
0.136115
0.11708
0.117017
0.117014
0.100718
0.100638
0.100601
0.0864445
0.0864707
0.086341
0.074107
0.0739498
0.0739263
0.0633951
0.0632486
0.0631979
0.0543825
0.0544158
0.0542715
0.0476827
0.0475733
0.0475317
0.0437503
0.0437771
0.0436735
0.0437708
0.0437965
0.0436983
0.0477321
0.0476236
0.0475785
0.0544219
0.0544615
0.0542983
0.0633146
0.0633575
0.0631821
0.0739706
0.074012
0.0738443
0.0863262
0.0863554
0.0862188
0.100543
0.100461
0.10042
0.116817
0.116829
0.116766
0.13586
0.135843
0.135835
0.158376
0.158363
0.158384
0.185273
0.185245
0.185344
0.217691
0.217671
0.217804
0.257246
0.257394
0.257441
0.306624
0.30668
0.306795
0.369221
0.369543
0.369554
0.450982
0.45138
0.451388
0.560543
0.561019
0.561024
0.711897
0.712446
0.712451
0.928535
0.92909
0.929127
1.25289
1.25315
1.25337
1.77325
1.77361
1.77395
2.73647
2.73697
2.73715
5.17567
5.17604
5.17605
15.1046
15.1047
15.1047
91.352
91.352
91.352
)
;

boundaryField
{
    inlet
    {
        type            cyclic;
    }
    outlet
    {
        type            cyclic;
    }
    wall
    {
        beta1           0.075;
        blended         0;
        type            omegaWallFunction;
        value           nonuniform List<scalar> 6(91.352 91.352 91.352 91.352 91.352 91.352);
    }
    frontAndBack
    {
        type            empty;
    }
}


// ************************************************************************* //
