/*--------------------------------*- C++ -*----------------------------------*\
  =========                 |
  \\      /  F ield         | OpenFOAM: The Open Source CFD Toolbox
   \\    /   O peration     | Website:  https://openfoam.org
    \\  /    A nd           | Version:  7
     \\/     M anipulation  |
\*---------------------------------------------------------------------------*/
FoamFile
{
    version     2.0;
    format      ascii;
    class       volScalarField;
    location    "588";
    object      p;
}
// * * * * * * * * * * * * * * * * * * * * * * * * * * * * * * * * * * * * * //

dimensions      [0 2 -2 0 0 0 0];

internalField   nonuniform List<scalar> 
150
(
1.67577e-09
-9.34393e-06
-8.34475e-05
-4.17576e-07
-8.97217e-06
-8.33895e-05
-6.51199e-07
-9.18944e-06
-8.29386e-05
6.78179e-07
-1.22895e-05
-8.11692e-05
4.22037e-06
-1.84014e-05
-7.86004e-05
9.0908e-06
-2.56499e-05
-7.62205e-05
1.47545e-05
-3.40721e-05
-7.34632e-05
2.12185e-05
-4.4274e-05
-6.97236e-05
2.84971e-05
-5.62751e-05
-6.50016e-05
3.61322e-05
-6.91236e-05
-5.97861e-05
4.37653e-05
-8.21625e-05
-5.4383e-05
5.14148e-05
-9.48162e-05
-4.93821e-05
5.95859e-05
-0.000107133
-4.5245e-05
6.86173e-05
-0.000120516
-4.09024e-05
7.87413e-05
-0.00013739
-3.4157e-05
9.19407e-05
-0.000161598
-2.31516e-05
0.00011091
-0.000192991
-1.07228e-05
0.00012682
-0.00020599
-1.36434e-05
0.000119196
-0.000182075
-2.99434e-05
7.57681e-05
-0.000157538
-1.10876e-05
2.59212e-05
-9.77231e-05
-2.10949e-05
-2.13664e-05
2.02623e-05
-9.18627e-05
-8.47067e-05
7.98409e-05
-8.81943e-05
-0.000140904
0.000105586
-5.78647e-05
-0.000172615
0.00012289
-4.3552e-05
-0.000187018
0.000114926
-2.1224e-05
-0.000183359
7.6164e-05
1.39173e-05
-0.000137171
2.02807e-05
2.36905e-05
-4.78891e-05
-1.49092e-05
-3.03306e-05
5.14432e-05
-5.3054e-05
-9.14758e-05
0.000127143
-8.69351e-05
-0.000133256
0.000160981
-0.000132779
-0.000121223
0.000165869
-0.000159452
-9.94232e-05
0.000149144
-0.00014313
-9.90133e-05
0.000120432
-0.000118345
-9.50808e-05
9.83634e-05
-0.000100224
-9.11293e-05
8.21679e-05
-8.68449e-05
-8.83077e-05
6.94378e-05
-7.5849e-05
-8.65714e-05
5.89491e-05
-6.61718e-05
-8.57594e-05
4.94777e-05
-5.60623e-05
-8.64029e-05
4.03637e-05
-4.48687e-05
-8.84903e-05
3.16159e-05
-3.35282e-05
-9.10929e-05
2.3513e-05
-2.2745e-05
-9.37815e-05
1.63616e-05
-1.32971e-05
-9.60849e-05
1.02877e-05
-5.7805e-06
-9.75322e-05
5.28839e-06
2.86126e-07
-9.86032e-05
1.70003e-06
5.58136e-06
-0.000100312
3.09604e-07
8.39629e-06
-0.000101738
4.64955e-07
8.6302e-06
-0.000102129
8.39471e-07
8.33312e-06
-0.000102207
)
;

boundaryField
{
    inlet
    {
        type            cyclic;
    }
    outlet
    {
        type            cyclic;
    }
    wall
    {
        type            zeroGradient;
    }
    frontAndBack
    {
        type            empty;
    }
}


// ************************************************************************* //
