/*--------------------------------*- C++ -*----------------------------------*\
  =========                 |
  \\      /  F ield         | OpenFOAM: The Open Source CFD Toolbox
   \\    /   O peration     | Website:  https://openfoam.org
    \\  /    A nd           | Version:  7
     \\/     M anipulation  |
\*---------------------------------------------------------------------------*/
FoamFile
{
    version     2.0;
    format      ascii;
    class       surfaceScalarField;
    location    "588";
    object      phi;
}
// * * * * * * * * * * * * * * * * * * * * * * * * * * * * * * * * * * * * * //

dimensions      [0 3 -1 0 0 0 0];

internalField   nonuniform List<scalar> 
247
(
3.49344
-4.32106e-05
3.49341
2.54428e-05
1.71034e-05
11.8344
-0.000176547
11.8343
0.000119757
5.56503e-05
22.4125
-0.000405212
22.4123
0.000306069
9.8498e-05
34.6728
-0.000603298
34.6727
0.000413218
0.000189072
47.3839
-0.000684159
47.3839
0.000407361
0.000276214
60.2518
-0.000706569
60.2519
0.000399364
0.000306345
73.5657
-0.000712788
73.5657
0.000407671
0.000304583
87.6084
-0.00070803
87.6084
0.000413727
0.000293541
102.661
-0.000683219
102.661
0.000397933
0.000284744
118.99
-0.000646704
118.99
0.000371243
0.000274713
136.854
-0.000611717
136.854
0.000337349
0.000273728
156.508
-0.000595363
156.508
0.000310264
0.000284242
178.214
-0.000605822
178.213
0.000312215
0.00029284
202.237
-0.000647239
202.237
0.000356614
0.000289638
228.851
-0.00071573
228.851
0.000440748
0.000274147
258.329
-0.000764462
258.329
0.000521722
0.000241689
290.951
-0.000668615
290.951
0.000415387
0.000252457
327.042
-0.000437282
327.042
0.000277296
0.000159007
366.963
-0.000180336
366.963
0.000522177
-0.000342395
411.052
-0.00011025
411.052
0.000392063
-0.000282612
459.601
-8.69924e-05
459.601
5.38202e-05
3.29082e-05
512.835
-0.000112453
512.835
0.000543429
-0.000431534
570.861
-0.000259079
570.861
0.000582334
-0.000323311
633.595
-0.000253702
633.595
0.000441416
-0.000188172
700.659
-7.34126e-05
700.659
0.000240561
-0.000167124
700.647
0.000152107
700.647
6.91188e-05
-0.000221708
633.563
0.000259441
633.564
-3.67596e-05
-0.00022267
570.817
0.000278922
570.817
-0.000444544
0.000165034
512.787
0.000280295
512.787
-0.000495646
0.000215256
459.557
0.000253762
459.557
-0.000392878
0.000138414
411.018
0.000294893
411.018
-2.30995e-05
-0.000271995
366.942
0.000397579
366.942
9.40876e-05
-0.000492449
327.035
0.000588854
327.035
-0.000110024
-0.000479139
290.956
0.000721975
290.956
-0.000109972
-0.000612841
258.343
0.000645638
258.342
-3.42626e-05
-0.000611741
228.872
0.000565584
228.871
-1.00444e-05
-0.000556366
202.263
0.000519365
202.263
-1.9212e-05
-0.000500564
178.243
0.000504552
178.243
-4.4256e-05
-0.00046109
156.54
0.000523433
156.54
-8.9393e-05
-0.000434453
136.887
0.000562863
136.887
-0.00014673
-0.000416835
119.024
0.000604044
119.024
-0.000193008
-0.000411452
102.694
0.000632558
102.694
-0.000226299
-0.000406861
87.6411
0.000641366
87.6412
-0.000240074
-0.000401664
73.5973
0.000631481
73.5973
-0.000237029
-0.000394893
60.2817
0.000604952
60.2817
-0.000245
-0.000360184
47.4111
0.000533045
47.4111
-0.00027514
-0.000258122
34.6957
0.000359155
34.6956
-0.00021542
-0.000143812
22.4287
0.000155768
22.4286
-7.55745e-05
-8.0222e-05
11.8432
3.81903e-05
11.8431
-1.28002e-05
-2.53901e-05
3.49601
3.496
)
;

boundaryField
{
    inlet
    {
        type            cyclic;
        value           nonuniform List<scalar> 
50
(
-3.49339
-11.8342
-22.4122
-34.6726
-47.3838
-60.2518
-73.5657
-87.6084
-102.661
-118.99
-136.854
-156.508
-178.213
-202.237
-228.851
-258.329
-290.951
-327.042
-366.963
-411.052
-459.601
-512.835
-570.861
-633.595
-700.659
-700.647
-633.564
-570.817
-512.787
-459.557
-411.019
-366.942
-327.035
-290.956
-258.342
-228.871
-202.263
-178.243
-156.54
-136.887
-119.024
-102.694
-87.6412
-73.5973
-60.2817
-47.411
-34.6955
-22.4285
-11.843
-3.49597
)
;
    }
    outlet
    {
        type            cyclic;
        value           nonuniform List<scalar> 
50
(
3.49339
11.8342
22.4122
34.6726
47.3838
60.2518
73.5657
87.6084
102.661
118.99
136.854
156.508
178.213
202.237
228.851
258.329
290.951
327.042
366.963
411.052
459.601
512.835
570.861
633.595
700.659
700.647
633.564
570.817
512.787
459.557
411.019
366.942
327.035
290.956
258.342
228.871
202.263
178.243
156.54
136.887
119.024
102.694
87.6412
73.5973
60.2817
47.411
34.6955
22.4285
11.843
3.49597
)
;
    }
    wall
    {
        type            calculated;
        value           uniform 0;
    }
    frontAndBack
    {
        type            empty;
        value           nonuniform 0();
    }
}


// ************************************************************************* //
