/*--------------------------------*- C++ -*----------------------------------*\
  =========                 |
  \\      /  F ield         | OpenFOAM: The Open Source CFD Toolbox
   \\    /   O peration     | Website:  https://openfoam.org
    \\  /    A nd           | Version:  7
     \\/     M anipulation  |
\*---------------------------------------------------------------------------*/
FoamFile
{
    version     2.0;
    format      ascii;
    class       volSymmTensorField;
    location    "588";
    object      R;
}
// * * * * * * * * * * * * * * * * * * * * * * * * * * * * * * * * * * * * * //

dimensions      [0 2 -2 0 0 0 0];

internalField   nonuniform List<symmTensor> 
150
(
(0.000550815 -8.97045e-06 -0 0.000550815 -0 0.000550815)
(0.000550764 -8.96969e-06 -0 0.000550764 -0 0.000550764)
(0.000550579 -8.96649e-06 -0 0.000550579 -0 0.000550579)
(0.0183352 -0.00176889 -0 0.0183352 -0 0.0183352)
(0.0183335 -0.00176872 -0 0.0183335 -0 0.0183335)
(0.0183274 -0.00176809 -0 0.0183274 -0 0.0183274)
(0.141773 -0.0369417 -0 0.141773 -0 0.141773)
(0.141758 -0.0369358 -0 0.141758 -0 0.141758)
(0.141711 -0.0369229 -0 0.141711 -0 0.141711)
(0.475738 -0.193206 -0 0.475739 -0 0.475739)
(0.475691 -0.193149 -0 0.475691 -0 0.475691)
(0.475551 -0.193082 -0 0.475551 -0 0.475551)
(0.869073 -0.404118 -0 0.869074 -0 0.869073)
(0.869033 -0.4041 -0 0.869033 -0 0.869033)
(0.868847 -0.404014 -0 0.868846 -0 0.868847)
(1.15451 -0.536856 -0 1.15451 -0 1.15451)
(1.15447 -0.536841 -0 1.15447 -0 1.15447)
(1.15428 -0.536751 -0 1.15428 -0 1.15428)
(1.33966 -0.623121 -0 1.33966 -0 1.33966)
(1.33962 -0.623106 -0 1.33962 -0 1.33962)
(1.33944 -0.623022 -0 1.33944 -0 1.33944)
(1.45049 -0.674493 -0 1.45049 -0 1.45049)
(1.45043 -0.674463 -0 1.45043 -0 1.45043)
(1.45025 -0.67438 -0 1.45025 -0 1.45025)
(1.51051 -0.702376 -0 1.51051 -0 1.51051)
(1.51046 -0.702349 -0 1.51046 -0 1.51046)
(1.51031 -0.702321 -0 1.51031 -0 1.51031)
(1.53573 -0.71415 -0 1.53572 -0 1.53572)
(1.53567 -0.71413 -0 1.53568 -0 1.53568)
(1.53555 -0.714075 -0 1.53555 -0 1.53555)
(1.53607 -0.714327 -0 1.53607 -0 1.53607)
(1.53605 -0.714314 -0 1.53605 -0 1.53605)
(1.53595 -0.714206 -0 1.53595 -0 1.53595)
(1.5176 -0.705672 -0 1.5176 -0 1.5176)
(1.51762 -0.705678 -0 1.51762 -0 1.51762)
(1.51754 -0.705646 -0 1.51754 -0 1.51754)
(1.48393 -0.689994 -0 1.48393 -0 1.48393)
(1.48398 -0.690015 -0 1.48398 -0 1.48398)
(1.48391 -0.689987 -0 1.48391 -0 1.48391)
(1.43726 -0.668311 -0 1.43726 -0 1.43726)
(1.43729 -0.668327 -0 1.43729 -0 1.43729)
(1.43723 -0.668303 -0 1.43723 -0 1.43723)
(1.37905 -0.641266 -0 1.37905 -0 1.37905)
(1.37907 -0.641278 -0 1.37907 -0 1.37907)
(1.37903 -0.641259 -0 1.37903 -0 1.37903)
(1.31072 -0.609508 -0 1.31072 -0 1.31072)
(1.31072 -0.609504 -0 1.31072 -0 1.31072)
(1.31071 -0.609482 -0 1.31071 -0 1.31071)
(1.23382 -0.573718 -0 1.23382 -0 1.23382)
(1.23381 -0.573711 -0 1.23381 -0 1.23381)
(1.23382 -0.573766 -0 1.23382 -0 1.23382)
(1.14954 -0.530142 -0 1.14951 -0 1.14951)
(1.1495 -0.53042 -0 1.14952 -0 1.14952)
(1.14954 -0.530455 -0 1.14954 -0 1.14954)
(1.05889 -0.48049 -0 1.05889 -0 1.05889)
(1.05889 -0.480874 -0 1.05889 -0 1.05889)
(1.05893 -0.480989 -0 1.05893 -0 1.05893)
(0.963575 -0.425786 -0 0.96357 -0 0.963575)
(0.963553 -0.425715 -0 0.963554 -0 0.963553)
(0.963606 -0.426379 -0 0.963609 -0 0.963606)
(0.866194 -0.364352 -0 0.866191 -0 0.866194)
(0.866156 -0.365122 -0 0.86618 -0 0.866184)
(0.86625 -0.365265 -0 0.866229 -0 0.866222)
(0.770945 -0.296638 -0 0.770949 -0 0.770945)
(0.770946 -0.297256 -0 0.770948 -0 0.770946)
(0.771002 -0.297515 -0 0.770996 -0 0.771002)
(0.684113 -0.222122 -0 0.684115 -0 0.684113)
(0.6841 -0.221984 -0 0.684099 -0 0.6841)
(0.684147 -0.222529 -0 0.684146 -0 0.684147)
(0.614423 -0.13921 -0 0.614452 -0 0.614454)
(0.614442 -0.139523 -0 0.61441 -0 0.61441)
(0.614473 -0.139652 -0 0.614475 -0 0.614473)
(0.573192 -0.0477655 -0 0.57319 -0 0.573192)
(0.573166 -0.0477337 -0 0.57317 -0 0.573166)
(0.573208 -0.0479051 -0 0.573206 -0 0.573208)
(0.573425 0.0485115 -0 0.573423 -0 0.573425)
(0.573399 0.0484819 -0 0.573403 -0 0.573399)
(0.573441 0.0485943 -0 0.573439 -0 0.573441)
(0.615124 0.139782 -0 0.615121 -0 0.615124)
(0.615099 0.140095 -0 0.615103 -0 0.615099)
(0.615153 0.140239 -0 0.615152 -0 0.615153)
(0.685188 0.222735 -0 0.685185 -0 0.685188)
(0.685145 0.222561 -0 0.685149 -0 0.685145)
(0.6852 0.223246 -0 0.6852 -0 0.6852)
(0.7723 0.297723 -0 0.772299 -0 0.7723)
(0.772272 0.297511 -0 0.772276 -0 0.772272)
(0.772328 0.298355 -0 0.772325 -0 0.772328)
(0.867713 0.365521 -0 0.867714 -0 0.867713)
(0.867702 0.365308 -0 0.867697 -0 0.867702)
(0.867746 0.366159 -0 0.867749 -0 0.867746)
(0.965186 0.426568 -0 0.965188 -0 0.965186)
(0.965188 0.426424 -0 0.965184 -0 0.965188)
(0.965226 0.427117 -0 0.965228 -0 0.965226)
(1.06055 0.481253 -0 1.06055 -0 1.06055)
(1.06056 0.481651 -0 1.06056 -0 1.06056)
(1.06058 0.481779 -0 1.06059 -0 1.06058)
(1.1512 0.531172 -0 1.15117 -0 1.15117)
(1.15116 0.53112 -0 1.15119 -0 1.15119)
(1.1512 0.531343 -0 1.1512 -0 1.1512)
(1.23551 0.574455 -0 1.23548 -0 1.23549)
(1.23548 0.574456 -0 1.2355 -0 1.2355)
(1.2355 0.574511 -0 1.2355 -0 1.2355)
(1.31242 0.610281 -0 1.31242 -0 1.31242)
(1.31243 0.610303 -0 1.31243 -0 1.31243)
(1.31242 0.61035 -0 1.31242 -0 1.31242)
(1.38078 0.64208 -0 1.38078 -0 1.38078)
(1.3808 0.642093 -0 1.3808 -0 1.3808)
(1.38077 0.64208 -0 1.38077 -0 1.38077)
(1.439 0.66909 -0 1.439 -0 1.439)
(1.43903 0.6691 -0 1.43903 -0 1.43903)
(1.43897 0.669081 -0 1.43897 -0 1.43897)
(1.48569 0.690862 -0 1.48569 -0 1.48569)
(1.4857 0.690869 -0 1.4857 -0 1.4857)
(1.48566 0.690855 -0 1.48566 -0 1.48566)
(1.51935 0.70647 -0 1.51935 -0 1.51935)
(1.51937 0.706478 -0 1.51937 -0 1.51937)
(1.51931 0.706456 -0 1.51931 -0 1.51931)
(1.53783 0.715094 -0 1.53783 -0 1.53783)
(1.5378 0.715077 -0 1.5378 -0 1.5378)
(1.53772 0.715044 -0 1.53772 -0 1.53772)
(1.53749 0.714942 -0 1.53749 -0 1.53749)
(1.53743 0.714918 -0 1.53743 -0 1.53743)
(1.53733 0.714865 -0 1.53733 -0 1.53733)
(1.51229 0.703192 -0 1.51229 -0 1.51229)
(1.51223 0.703163 -0 1.51223 -0 1.51223)
(1.51209 0.703098 -0 1.51209 -0 1.51209)
(1.45227 0.675319 -0 1.45227 -0 1.45227)
(1.4522 0.675287 -0 1.4522 -0 1.4522)
(1.45205 0.675211 -0 1.45205 -0 1.45205)
(1.34145 0.623959 -0 1.34145 -0 1.34145)
(1.34139 0.623935 -0 1.34139 -0 1.34139)
(1.34122 0.623856 -0 1.34122 -0 1.34122)
(1.15619 0.537651 -0 1.15619 -0 1.15619)
(1.15617 0.537645 -0 1.15617 -0 1.15617)
(1.156 0.53756 -0 1.156 -0 1.156)
(0.870546 0.404803 -0 0.870547 -0 0.870547)
(0.870527 0.404796 -0 0.870527 -0 0.870527)
(0.870354 0.404714 -0 0.870353 -0 0.870353)
(0.476748 0.193661 -0 0.476749 -0 0.476749)
(0.476709 0.19361 -0 0.476709 -0 0.476709)
(0.476582 0.193549 -0 0.476582 -0 0.476582)
(0.142122 0.0370515 -0 0.142122 -0 0.142122)
(0.142108 0.0370454 -0 0.142108 -0 0.142108)
(0.142067 0.0370344 -0 0.142067 -0 0.142067)
(0.0183817 0.00177462 -0 0.0183817 -0 0.0183817)
(0.0183801 0.00177446 -0 0.0183801 -0 0.0183801)
(0.0183746 0.00177391 -0 0.0183746 -0 0.0183746)
(0.000552212 8.99987e-06 -0 0.000552212 -0 0.000552212)
(0.000552165 8.99916e-06 -0 0.000552165 -0 0.000552165)
(0.000552001 8.99633e-06 -0 0.000552001 -0 0.000552001)
)
;

boundaryField
{
    inlet
    {
        type            cyclic;
    }
    outlet
    {
        type            cyclic;
    }
    wall
    {
        type            calculated;
        value           nonuniform List<symmTensor> 6((4.87667e-09 -0 -0 4.87667e-09 -0 4.87667e-09) (4.87581e-09 -0 -0 4.87581e-09 -0 4.87581e-09) (4.87253e-09 -0 -0 4.87253e-09 -0 4.87253e-09) (4.90143e-09 0 -0 4.90143e-09 -0 4.90143e-09) (4.90064e-09 0 -0 4.90064e-09 -0 4.90064e-09) (4.89771e-09 0 -0 4.89771e-09 -0 4.89771e-09));
    }
    frontAndBack
    {
        type            empty;
    }
}


// ************************************************************************* //
