/*--------------------------------*- C++ -*----------------------------------*\
  =========                 |
  \\      /  F ield         | OpenFOAM: The Open Source CFD Toolbox
   \\    /   O peration     | Website:  https://openfoam.org
    \\  /    A nd           | Version:  7
     \\/     M anipulation  |
\*---------------------------------------------------------------------------*/
FoamFile
{
    version     2.0;
    format      ascii;
    class       volVectorField;
    location    "588";
    object      U;
}
// * * * * * * * * * * * * * * * * * * * * * * * * * * * * * * * * * * * * * //

dimensions      [0 1 -1 0 0 0 0];

internalField   nonuniform List<vector> 
150
(
(0.933266 -8.39829e-08 0)
(0.933272 6.49607e-08 0)
(0.933252 9.61264e-09 0)
(2.87231 -8.56113e-07 0)
(2.87233 7.13386e-07 0)
(2.87227 1.3994e-07 0)
(4.94208 -2.53401e-06 0)
(4.9421 2.04041e-06 0)
(4.942 4.85409e-07 0)
(6.94611 -4.09028e-06 0)
(6.94614 2.62327e-06 0)
(6.94606 1.46033e-06 0)
(8.62417 -5.23649e-06 0)
(8.6242 3.29562e-06 0)
(8.62417 1.9347e-06 0)
(9.96302 -5.62328e-06 0)
(9.96303 3.23366e-06 0)
(9.96302 2.38372e-06 0)
(11.0517 -5.75035e-06 0)
(11.0517 3.26359e-06 0)
(11.0517 2.48116e-06 0)
(11.9573 -5.72694e-06 0)
(11.9573 3.25289e-06 0)
(11.9573 2.46877e-06 0)
(12.7299 -5.60997e-06 0)
(12.7299 3.24828e-06 0)
(12.7299 2.35645e-06 0)
(13.4049 -5.36292e-06 0)
(13.4049 3.0936e-06 0)
(13.405 2.26413e-06 0)
(14.007 -5.06706e-06 0)
(14.007 2.83834e-06 0)
(14.007 2.22305e-06 0)
(14.5532 -4.84148e-06 0)
(14.5532 2.60817e-06 0)
(14.5532 2.22718e-06 0)
(15.0555 -4.78265e-06 0)
(15.0555 2.53602e-06 0)
(15.0555 2.23986e-06 0)
(15.522 -5.03096e-06 0)
(15.522 2.74379e-06 0)
(15.522 2.27964e-06 0)
(15.9578 -5.60652e-06 0)
(15.9578 3.31039e-06 0)
(15.9578 2.28777e-06 0)
(16.3654 -6.1166e-06 0)
(16.3654 3.66863e-06 0)
(16.3654 2.43937e-06 0)
(16.7459 -5.44358e-06 0)
(16.7459 2.74098e-06 0)
(16.7459 2.69519e-06 0)
(17.1011 -3.92634e-06 0)
(17.1011 3.05816e-06 0)
(17.1012 8.6239e-07 0)
(17.4332 -2.63895e-06 0)
(17.4332 4.49201e-06 0)
(17.4332 -1.85696e-06 0)
(17.7413 -2.6926e-06 0)
(17.7413 1.59155e-06 0)
(17.7413 1.09359e-06 0)
(18.0219 4.60114e-07 0)
(18.022 3.9611e-06 0)
(18.022 -4.42089e-06 0)
(18.2697 -7.3282e-07 0)
(18.2697 4.49239e-06 0)
(18.2697 -3.76079e-06 0)
(18.4764 -2.66144e-06 0)
(18.4764 1.83655e-06 0)
(18.4764 8.16954e-07 0)
(18.6309 -2.28556e-06 0)
(18.6309 5.91134e-06 0)
(18.6308 -3.62375e-06 0)
(18.7181 -9.75672e-07 0)
(18.7181 1.75644e-06 0)
(18.7181 -7.83395e-07 0)
(18.7177 -1.79033e-07 0)
(18.7177 2.4866e-06 0)
(18.7177 -2.30782e-06 0)
(18.6299 7.86011e-07 0)
(18.6299 -1.57196e-06 0)
(18.6299 7.77776e-07 0)
(18.475 2.61941e-06 0)
(18.475 -1.30266e-06 0)
(18.475 -1.31769e-06 0)
(18.268 3.47777e-06 0)
(18.268 -4.34098e-06 0)
(18.268 8.59428e-07 0)
(18.0202 3.27934e-06 0)
(18.0202 -4.11322e-06 0)
(18.0202 8.3004e-07 0)
(17.7398 2.53899e-06 0)
(17.7398 -1.15771e-06 0)
(17.7398 -1.38334e-06 0)
(17.4322 1.87723e-06 0)
(17.4322 -1.41922e-06 0)
(17.4322 -4.63022e-07 0)
(17.1007 4.30609e-06 0)
(17.1007 5.78e-07 0)
(17.1008 -4.88733e-06 0)
(16.7461 4.73509e-06 0)
(16.7461 -1.18067e-07 0)
(16.7462 -4.62131e-06 0)
(16.3663 5.45977e-06 0)
(16.3663 -4.55716e-07 0)
(16.3663 -5.00868e-06 0)
(15.9592 4.94685e-06 0)
(15.9592 -2.14546e-07 0)
(15.9592 -4.73747e-06 0)
(15.524 4.35692e-06 0)
(15.524 -1.31636e-07 0)
(15.524 -4.23049e-06 0)
(15.058 4.10282e-06 0)
(15.058 -2.51819e-07 0)
(15.058 -3.85593e-06 0)
(14.5561 4.12251e-06 0)
(14.5561 -5.87809e-07 0)
(14.5561 -3.53939e-06 0)
(14.0104 4.36502e-06 0)
(14.0104 -9.31627e-07 0)
(14.0104 -3.43793e-06 0)
(13.4087 4.69984e-06 0)
(13.4087 -1.35428e-06 0)
(13.4087 -3.35034e-06 0)
(12.7341 4.99146e-06 0)
(12.7341 -1.67878e-06 0)
(12.7341 -3.31714e-06 0)
(11.9618 5.14483e-06 0)
(11.9618 -1.83638e-06 0)
(11.9618 -3.3127e-06 0)
(11.0565 5.14563e-06 0)
(11.0565 -1.87334e-06 0)
(11.0565 -3.27579e-06 0)
(9.96796 5.00238e-06 0)
(9.96797 -1.95815e-06 0)
(9.96796 -3.04718e-06 0)
(8.62912 4.61052e-06 0)
(8.62915 -2.09966e-06 0)
(8.62913 -2.51285e-06 0)
(6.9507 3.60842e-06 0)
(6.95073 -1.68644e-06 0)
(6.95067 -1.92322e-06 0)
(4.94567 2.26273e-06 0)
(4.94569 -1.46162e-06 0)
(4.9456 -8.01275e-07 0)
(2.87444 7.71252e-07 0)
(2.87446 -4.80029e-07 0)
(2.87441 -2.90504e-07 0)
(0.933953 7.46848e-08 0)
(0.933962 -3.78643e-08 0)
(0.933944 -3.7526e-08 0)
)
;

boundaryField
{
    inlet
    {
        type            cyclic;
    }
    outlet
    {
        type            cyclic;
    }
    wall
    {
        type            noSlip;
    }
    frontAndBack
    {
        type            empty;
    }
}


// ************************************************************************* //
