/*--------------------------------*- C++ -*----------------------------------*\
  =========                 |
  \\      /  F ield         | OpenFOAM: The Open Source CFD Toolbox
   \\    /   O peration     | Website:  https://openfoam.org
    \\  /    A nd           | Version:  7
     \\/     M anipulation  |
\*---------------------------------------------------------------------------*/
FoamFile
{
    version     2.0;
    format      ascii;
    class       volScalarField;
    location    "70";
    object      k;
}
// * * * * * * * * * * * * * * * * * * * * * * * * * * * * * * * * * * * * * //

dimensions      [0 2 -2 0 0 0 0];

internalField   nonuniform List<scalar> 
17475
(
0.00763364
0.0124983
0.0125514
0.0125508
0.0125505
0.0125505
0.0125505
0.0125505
0.0125504
0.0125502
0.0125503
0.0125506
0.0125503
0.0125503
0.0125505
0.0125503
0.0125503
0.0125505
0.0125503
0.0125503
0.0125509
0.012551
0.0125496
0.0125516
0.012547
0.0125588
0.0125589
0.0125591
0.0125592
0.0125589
0.0125588
0.0125588
0.0125588
0.0125587
0.0125586
0.0125586
0.0125585
0.0125582
0.0125587
0.012563
0.0125696
0.0125761
0.0125822
0.0125879
0.0125929
0.0125976
0.0126018
0.0126058
0.0126093
0.0126127
0.0126157
0.0126186
0.0126208
0.0126101
0.0120188
0.000246187
0.0044086
0.00528546
0.00530419
0.00529474
0.00529042
0.00528838
0.0052871
0.0052864
0.00528587
0.00528558
0.0052853
0.00528511
0.00528498
0.00528483
0.00528475
0.00528465
0.00528457
0.00528448
0.00528445
0.00528442
0.00528438
0.00528543
0.00528322
0.00528722
0.00529119
0.00529414
0.00529431
0.00529439
0.00529398
0.00529384
0.00529383
0.00529385
0.00529386
0.00529388
0.00529384
0.00529383
0.00529358
0.00529264
0.00529353
0.00529538
0.00529753
0.00529978
0.00530195
0.00530409
0.00530614
0.00530821
0.00531032
0.0053127
0.00531552
0.00531933
0.00532464
0.00532181
0.00502947
0.00162912
3.094e-05
0.00184686
0.00307725
0.00319515
0.0031864
0.00317747
0.00317248
0.0031695
0.00316768
0.00316639
0.0031655
0.00316484
0.00316435
0.00316391
0.00316357
0.00316326
0.00316298
0.00316272
0.00316248
0.00316224
0.00316201
0.00316231
0.00316192
0.00316349
0.00316454
0.00316598
0.00316788
0.00316871
0.00316872
0.00316855
0.00316836
0.00316841
0.00316852
0.00316864
0.00316877
0.0031689
0.00316902
0.00316871
0.00316835
0.00316863
0.00316921
0.00316998
0.00317092
0.003172
0.00317322
0.00317462
0.00317631
0.0031785
0.0031815
0.00318598
0.00319294
0.00320133
0.00315718
0.00249589
0.000282975
9.86978e-06
0.000848841
0.00201182
0.00223589
0.00224426
0.00223415
0.00222733
0.00222304
0.0022202
0.00221822
0.00221685
0.0022158
0.00221496
0.00221426
0.00221369
0.00221317
0.00221269
0.00221225
0.00221183
0.00221142
0.0022113
0.00221092
0.00221161
0.00221234
0.0022131
0.00221366
0.00221435
0.0022151
0.00221536
0.00221538
0.00221521
0.00221534
0.00221557
0.00221583
0.0022161
0.00221639
0.00221667
0.00221654
0.00221654
0.00221696
0.00221746
0.00221809
0.00221888
0.00221988
0.00222111
0.00222266
0.00222469
0.00222749
0.00223154
0.00223769
0.00224681
0.00224957
0.00213783
0.00133246
8.88891e-05
4.46759e-06
0.000439458
0.00138512
0.00168576
0.00171885
0.00171184
0.00170429
0.00169917
0.00169566
0.00169318
0.00169139
0.00169002
0.00168892
0.00168798
0.00168719
0.00168648
0.00168585
0.00168522
0.00168462
0.00168423
0.00168368
0.00168387
0.00168408
0.00168432
0.00168462
0.00168499
0.00168532
0.00168564
0.001686
0.00168615
0.00168614
0.00168638
0.00168674
0.00168714
0.00168757
0.00168805
0.00168841
0.00168845
0.0016889
0.00168949
0.00169012
0.00169086
0.00169176
0.00169288
0.0016943
0.00169614
0.00169856
0.00170191
0.00170673
0.00171381
0.00172242
0.00171114
0.00153722
0.000771256
4.18177e-05
2.44329e-06
0.000255929
0.000986065
0.00132535
0.00138406
0.00138305
0.00137575
0.00137025
0.00136632
0.00136347
0.00136139
0.00135978
0.00135846
0.00135734
0.00135636
0.00135548
0.00135468
0.00135387
0.00135324
0.0013525
0.0013523
0.00135216
0.00135202
0.00135194
0.00135193
0.00135203
0.00135217
0.00135236
0.00135262
0.00135294
0.00135308
0.00135345
0.00135395
0.00135448
0.00135507
0.00135573
0.00135614
0.00135653
0.00135724
0.001358
0.0013588
0.00135969
0.00136073
0.00136201
0.00136365
0.00136577
0.0013685
0.00137221
0.00137746
0.00138455
0.00139002
0.00136165
0.00114437
0.000485217
2.43925e-05
1.51394e-06
0.00016448
0.000723352
0.00106937
0.00115087
0.00115734
0.00115144
0.00114592
0.00114177
0.00113869
0.00113643
0.00113465
0.00113315
0.00113187
0.00113074
0.00112969
0.00112874
0.00112788
0.00112693
0.00112633
0.00112589
0.00112549
0.00112508
0.00112475
0.0011245
0.00112441
0.00112433
0.00112442
0.00112466
0.00112509
0.00112543
0.00112586
0.00112648
0.00112718
0.00112792
0.00112873
0.00112929
0.00112999
0.0011309
0.00113182
0.00113278
0.00113381
0.001135
0.00113644
0.00113825
0.0011406
0.00114354
0.00114736
0.00115259
0.00115919
0.00116008
0.00111486
0.000874613
0.000329738
1.60231e-05
1.0265e-06
0.000114319
0.000546543
0.00087852
0.000978482
0.000992823
0.000989109
0.000983872
0.000979722
0.000976587
0.00097419
0.000972284
0.000970604
0.000969135
0.000967911
0.000966722
0.000965636
0.000964514
0.00096362
0.000962797
0.000962102
0.000961473
0.000960825
0.000960223
0.000959747
0.000959508
0.00095928
0.000959256
0.00095947
0.000959959
0.000960464
0.000960991
0.000961743
0.000962624
0.000963561
0.000964474
0.000965249
0.000966236
0.000967334
0.000968408
0.000969523
0.000970686
0.000972023
0.000973595
0.000975534
0.000977984
0.000980907
0.000984742
0.00098991
0.000995306
0.000990867
0.000931014
0.000684431
0.000237803
1.12385e-05
7.4312e-07
8.40803e-05
0.000424853
0.000732055
0.000845806
0.000867808
0.000866861
0.000862175
0.000858122
0.000854954
0.000852546
0.000850569
0.000848708
0.000847044
0.000845769
0.000844406
0.000843022
0.000841928
0.000840752
0.000839617
0.000838652
0.000837776
0.000836827
0.000835947
0.000835345
0.00083494
0.000834513
0.000834374
0.000834577
0.000835196
0.000835858
0.000836531
0.000837427
0.000838526
0.000839646
0.000840678
0.000841763
0.000842993
0.000844209
0.000845421
0.000846722
0.000847962
0.000849358
0.00085103
0.000852985
0.000855448
0.000858448
0.000862201
0.000867042
0.00087072
0.000860806
0.000788656
0.000546974
0.00018011
8.38578e-06
5.6476e-07
6.45365e-05
0.000339076
0.000617783
0.000740753
0.000769824
0.000772006
0.000768273
0.000764239
0.000760999
0.000758701
0.000756675
0.000754723
0.000752911
0.000751601
0.000750057
0.000748555
0.00074723
0.000745623
0.000744105
0.000742871
0.000741812
0.000740578
0.000739387
0.00073855
0.000737875
0.000737173
0.00073695
0.000737245
0.000738012
0.000738841
0.000739689
0.000740722
0.000742057
0.00074334
0.000744642
0.000746094
0.000747469
0.000748663
0.000750028
0.00075152
0.000752797
0.000754184
0.000755819
0.000757761
0.000760393
0.000763469
0.000766916
0.000771181
0.000773113
0.000758138
0.000677116
0.000447664
0.000142071
6.56071e-06
4.45093e-07
5.12154e-05
0.000277162
0.000527612
0.000655642
0.000691138
0.000696418
0.000693855
0.000689883
0.000686507
0.000684321
0.000682514
0.0006807
0.000678699
0.000677255
0.000675772
0.000674072
0.000672553
0.000670576
0.00066858
0.000666971
0.000665698
0.000664258
0.00066288
0.000661767
0.000660773
0.000659683
0.000659371
0.000659763
0.000660596
0.000661552
0.000662617
0.000663934
0.000665598
0.000666956
0.000668682
0.00067027
0.000671691
0.000672894
0.000674375
0.000675871
0.000677188
0.000678521
0.000680055
0.000682304
0.000685089
0.000688234
0.000691315
0.000694884
0.000694786
0.000675356
0.000588111
0.000374057
0.000115563
5.31317e-06
3.61247e-07
4.17766e-05
0.000231432
0.000455834
0.000585468
0.000626847
0.000634835
0.000633325
0.000629531
0.000626224
0.000624302
0.00062291
0.000621153
0.0006189
0.000617335
0.000615838
0.000613837
0.000612143
0.00060981
0.00060752
0.000605752
0.000604065
0.000602305
0.00060082
0.000599595
0.000598267
0.000596933
0.000596465
0.000596738
0.000597709
0.000598823
0.000600194
0.0006018
0.00060372
0.000605325
0.00060729
0.000609137
0.000610523
0.000611638
0.000613254
0.000614864
0.000616035
0.000617077
0.00061884
0.000621568
0.000624511
0.000627707
0.00063029
0.000632849
0.000630971
0.000607458
0.000516186
0.000318459
9.64034e-05
4.42702e-06
3.00549e-07
3.49006e-05
0.0001969
0.000398195
0.000526723
0.000573312
0.000583623
0.000583449
0.000579687
0.000576078
0.000574572
0.000574111
0.000572286
0.00056992
0.00056831
0.000566476
0.00056426
0.000562403
0.000559871
0.000557593
0.000555782
0.000553508
0.000551194
0.000550024
0.000549151
0.000547164
0.000545477
0.000545207
0.000545738
0.000546508
0.000547564
0.000549378
0.00055117
0.000553167
0.000555093
0.000557145
0.000559268
0.000560753
0.00056176
0.000562764
0.000564374
0.000565726
0.000566991
0.00056868
0.000571392
0.000574981
0.000578101
0.000580081
0.000581879
0.000578351
0.000550998
0.000457307
0.000275476
8.20815e-05
3.7776e-06
2.54883e-07
2.96964e-05
0.000170225
0.000351436
0.000477574
0.000527572
0.000539801
0.000540781
0.000537233
0.000534349
0.000533057
0.000532577
0.00053088
0.000528691
0.000526988
0.00052474
0.00052239
0.000520046
0.000517386
0.000514878
0.00051277
0.00051045
0.000508185
0.000507052
0.000506641
0.000504853
0.000502809
0.000501974
0.000502398
0.0005035
0.000505059
0.000506752
0.000508528
0.000510513
0.000512502
0.000514586
0.000516745
0.000518186
0.000519347
0.000520603
0.000522109
0.00052361
0.000524963
0.000526393
0.000529038
0.000532927
0.000535647
0.000537543
0.000538392
0.000533093
0.00050276
0.000408373
0.000241094
7.07903e-05
3.24859e-06
2.19576e-07
2.56507e-05
0.000149105
0.000312892
0.000433358
0.000485839
0.000500251
0.000501924
0.000499
0.000496246
0.000495263
0.000494856
0.000493284
0.000491253
0.00048939
0.00048708
0.000484563
0.000481929
0.000479139
0.000476544
0.000474244
0.00047215
0.000470492
0.000469963
0.000471061
0.000470949
0.000469276
0.000468625
0.000468834
0.000469536
0.000470583
0.000470169
0.000471044
0.000472845
0.000474458
0.000476421
0.000478438
0.000480109
0.000481594
0.000482885
0.000484369
0.000485917
0.000487318
0.000488794
0.000491219
0.000494755
0.000497362
0.000499014
0.000499165
0.000492034
0.000459238
0.000366765
0.000213575
6.18954e-05
2.82347e-06
1.9168e-07
2.24573e-05
0.000131999
0.000280477
0.000394295
0.000448146
0.00046423
0.000466667
0.000464298
0.000461904
0.000461073
0.000460605
0.000459122
0.000457198
0.000455246
0.000452984
0.000450445
0.000447628
0.000444825
0.000442383
0.000440236
0.000439062
0.000439296
0.000441014
0.000447935
0.000460952
0.000469169
0.000473164
0.000471662
0.000464459
0.000452961
0.00044196
0.000440997
0.00044037
0.000440971
0.000442561
0.000444267
0.000445954
0.00044756
0.00044886
0.000450202
0.000451753
0.000453184
0.000454581
0.000456791
0.000460026
0.000462517
0.000463895
0.000463313
0.000454718
0.000419991
0.000330508
0.000190767
5.45981e-05
2.47704e-06
1.67359e-07
1.97817e-05
0.000117738
0.000252588
0.000359528
0.000413808
0.000431315
0.000434492
0.000432652
0.000430608
0.000429852
0.000429283
0.000427869
0.000426056
0.000424094
0.000421959
0.00041947
0.000416553
0.000413911
0.000411894
0.000410585
0.000411514
0.000415836
0.000433482
0.000469565
0.000479419
0.000438417
0.000395969
0.00039698
0.000469707
0.000481577
0.000446488
0.000420476
0.000414165
0.000412347
0.000412568
0.000413693
0.000415148
0.000416775
0.000418062
0.000419147
0.000420594
0.000422008
0.000423385
0.000425408
0.000428325
0.000430667
0.000431838
0.000430637
0.000420788
0.000384872
0.000299338
0.000171759
4.86024e-05
2.19374e-06
1.31183e-07
1.70368e-05
0.000104377
0.000227686
0.000327815
0.000382234
0.000401046
0.000404968
0.000403612
0.000401849
0.000401108
0.000400449
0.000399092
0.000397409
0.000395519
0.000393571
0.000391146
0.000388273
0.000385972
0.000384403
0.000384541
0.000389409
0.000408271
0.000440932
0.000377563
0.000129566
2.23269e-06
1.19997e-05
0.000316871
0.000431181
0.000427346
0.000396218
0.000387626
0.000385843
0.000386111
0.000387228
0.000388812
0.000390035
0.000390944
0.000392257
0.000393549
0.000394849
0.000396675
0.000399281
0.000401454
0.000402409
0.000400644
0.00038976
0.000353079
0.000272092
0.000155352
4.34218e-05
1.95018e-06
4.84461e-08
1.20155e-05
8.85336e-05
0.000202546
0.000296772
0.000352494
0.000372899
0.000377695
0.000376829
0.000375272
0.000374522
0.000373799
0.000372492
0.000370944
0.000369209
0.000367466
0.000364999
0.000362283
0.000360287
0.000359553
0.000361664
0.000373365
0.000397513
0.000332624
9.2407e-05
3.86407e-07
0.000187396
0.000396381
0.000385919
0.000366274
0.000361329
0.000360844
0.000361557
0.000363038
0.000364273
0.000364961
0.000366136
0.000367291
0.000368467
0.000370086
0.000372409
0.000374431
0.000375215
0.000372994
0.000361331
0.00032408
0.00024814
0.000141122
3.84278e-05
1.61018e-06
6.50426e-08
1.27578e-05
8.23085e-05
0.000185429
0.000272761
0.000324622
0.000345428
0.000350836
0.000350467
0.000349016
0.000347981
0.000347222
0.00034605
0.00034438
0.000342769
0.000340843
0.000338534
0.000336123
0.000334174
0.000333964
0.000338404
0.000354769
0.000344709
0.000155998
1.12348e-05
4.76181e-05
0.000281763
0.000362396
0.000345085
0.000336265
0.000334636
0.000335525
0.000336791
0.000337998
0.000338682
0.000339706
0.00034089
0.000342021
0.00034355
0.000345657
0.000347536
0.000348156
0.000345485
0.000333014
0.000297223
0.000225897
0.000128574
3.64127e-05
1.77317e-06
9.29613e-08
1.24511e-05
7.77372e-05
0.000171709
0.000250737
0.000299121
0.000319517
0.000325062
0.000324805
0.000323516
0.00032263
0.000321662
0.000320591
0.000319101
0.000317462
0.000315502
0.000313483
0.000311316
0.000309421
0.000309558
0.000315516
0.000323913
0.000267159
8.37527e-05
5.34145e-06
8.3058e-08
3.72556e-07
2.44778e-05
0.000179123
0.000312988
0.000321629
0.000312132
0.000309769
0.000310631
0.000311577
0.000312681
0.000313293
0.000314396
0.000315534
0.000316698
0.000318209
0.000320152
0.00032203
0.000322563
0.000319609
0.000306743
0.000271771
0.000205793
0.00011704
3.28705e-05
1.49623e-06
9.38406e-08
1.13366e-05
7.10015e-05
0.00015689
0.000229152
0.000274919
0.000295229
0.00030116
0.000301157
0.000300033
0.000299218
0.000298114
0.000297017
0.000295638
0.000294021
0.000292037
0.000290107
0.000288183
0.000286245
0.000286432
0.000292104
0.000288242
0.000205737
5.99244e-05
7.38122e-06
6.50742e-07
3.04248e-07
4.23993e-07
4.77331e-07
8.96048e-07
3.20665e-06
2.08263e-05
0.00012245
0.000259268
0.000294092
0.000289596
0.000286923
0.000287764
0.000288484
0.000289394
0.000289936
0.000291043
0.000292246
0.000293451
0.000294941
0.00029682
0.000298567
0.000298903
0.00029564
0.000282482
0.000248594
0.000187573
0.000106569
2.95448e-05
1.31799e-06
8.59584e-08
1.02399e-05
6.43932e-05
0.000143051
0.000209289
0.000252609
0.000272866
0.000279173
0.000279495
0.000278473
0.000277623
0.000276577
0.00027546
0.000274088
0.000272408
0.000270392
0.000268617
0.000266828
0.000264936
0.000264992
0.00026824
0.000252883
0.000165073
5.32101e-05
1.15283e-05
2.80143e-06
2.61753e-06
3.61441e-06
3.82372e-06
3.46047e-06
5.69644e-06
2.13129e-05
9.40635e-05
0.000215507
0.00026666
0.000268368
0.000265922
0.000266618
0.00026735
0.000268093
0.000268527
0.000269504
0.000270723
0.000272047
0.000273553
0.000275376
0.000276966
0.000277108
0.000273558
0.000260167
0.000227484
0.000171133
9.70157e-05
2.65334e-05
1.17249e-06
7.75169e-08
9.23033e-06
5.83807e-05
0.000130446
0.00019122
0.000232098
0.00025218
0.000258839
0.000259503
0.000258566
0.000257701
0.000256729
0.000255611
0.000254234
0.000252515
0.000250524
0.000248856
0.00024718
0.000245351
0.000245159
0.000245347
0.000221403
0.00013908
5.45978e-05
1.82249e-05
8.33277e-06
6.30323e-06
6.99614e-06
6.65438e-06
5.27323e-06
6.32306e-06
2.1283e-05
8.20319e-05
0.000183935
0.000241331
0.000248074
0.000246539
0.000247096
0.000247837
0.000248466
0.000248844
0.000249751
0.000250989
0.000252343
0.000253891
0.000255677
0.000257095
0.000256982
0.000253116
0.000239628
0.000208298
0.000156301
8.83502e-05
2.38619e-05
1.04787e-06
6.96537e-08
8.30643e-06
5.29247e-05
0.000118994
0.00017478
0.000213209
0.000233015
0.000239951
0.000240956
0.000240143
0.000239291
0.000238394
0.00023728
0.000235921
0.000234173
0.000232243
0.000230654
0.000229093
0.000227336
0.00022677
0.00022399
0.000195355
0.00012275
5.78196e-05
2.69079e-05
1.72193e-05
1.34098e-05
1.18285e-05
9.47081e-06
6.71208e-06
7.20209e-06
2.46077e-05
7.76472e-05
0.00016387
0.000218927
0.000228985
0.000228476
0.000229003
0.000229755
0.000230308
0.000230642
0.000231485
0.000232797
0.000234186
0.000235792
0.000237525
0.000238754
0.000238392
0.000234217
0.000220677
0.000190733
0.000142754
8.0356e-05
2.14211e-05
9.35398e-07
6.24528e-08
7.46179e-06
4.79168e-05
0.000108463
0.000159678
0.000195671
0.000215023
0.000222252
0.000223655
0.000223008
0.000222204
0.000221332
0.000220212
0.000218891
0.000217159
0.00021525
0.000213767
0.000212373
0.000210688
0.000209695
0.000204658
0.000174237
0.000113217
6.21846e-05
3.77817e-05
2.85102e-05
2.21136e-05
1.59313e-05
1.13707e-05
8.13651e-06
9.70469e-06
3.28894e-05
8.09382e-05
0.000150488
0.000199827
0.000211005
0.00021151
0.000212137
0.000212841
0.000213433
0.000213756
0.000214526
0.000215999
0.000217347
0.00021903
0.000220671
0.000221725
0.000221111
0.000216664
0.000203156
0.00017467
0.000130426
7.30492e-05
1.92175e-05
8.28949e-07
5.59192e-08
6.69373e-06
4.33312e-05
9.87863e-05
0.000145782
0.000179341
0.000197692
0.000205553
0.000207381
0.000206849
0.000205506
0.00020516
0.000204082
0.00020292
0.000201177
0.000199092
0.000197866
0.000196792
0.000195197
0.000193809
0.000187297
0.000157714
0.000110111
7.46248e-05
5.56591e-05
4.23463e-05
2.88803e-05
1.8584e-05
1.24792e-05
1.01197e-05
1.72927e-05
4.36285e-05
8.54784e-05
0.00014104
0.000182678
0.000194135
0.000195497
0.000196301
0.000196945
0.000197608
0.000197986
0.00019876
0.000199957
0.0002014
0.000203373
0.000204923
0.00020586
0.000204828
0.000200093
0.00018676
0.000159807
0.00011901
6.625e-05
1.71626e-05
7.29236e-07
5.00149e-08
5.99871e-06
3.91236e-05
8.98621e-05
0.000132909
0.00016377
0.000181978
0.000189914
0.000191814
0.000191254
0.000190249
0.000189848
0.000188906
0.000187719
0.000186233
0.000184116
0.000182939
0.000182152
0.00018074
0.00017906
0.000171679
0.000145104
0.000113641
0.000101569
8.81347e-05
5.69978e-05
3.45219e-05
1.9518e-05
1.35132e-05
1.4511e-05
2.92656e-05
5.43584e-05
8.93967e-05
0.000132995
0.000166981
0.000178159
0.000180287
0.000181243
0.000181679
0.000182324
0.00018317
0.000183976
0.000185201
0.000186649
0.000188718
0.000190044
0.000190617
0.000189429
0.000184509
0.000171446
0.000145929
0.000108541
6.00032e-05
1.53233e-05
6.42732e-07
4.47082e-08
5.37142e-06
3.53058e-05
8.15925e-05
0.000120924
0.000149961
0.000167516
0.000175292
0.000177422
0.000176876
0.000176334
0.000175567
0.000174803
0.000173794
0.000172276
0.0001705
0.000169294
0.000168661
0.000167479
0.000165463
0.000158286
0.000135733
0.000124596
0.000153725
0.000119197
6.78363e-05
3.29057e-05
1.92949e-05
1.66303e-05
2.58224e-05
4.4622e-05
6.69097e-05
9.33116e-05
0.000125453
0.00015257
0.000163766
0.00016622
0.000167268
0.000168015
0.000168787
0.000169401
0.000170383
0.000171757
0.000173142
0.000174936
0.000176166
0.000176386
0.00017508
0.000170167
0.000157252
0.000133219
9.88487e-05
5.43617e-05
1.36921e-05
5.67839e-07
3.99812e-08
4.81187e-06
3.18862e-05
7.41202e-05
0.000110054
0.000137049
0.000154023
0.000161972
0.000164261
0.00016413
0.000163154
0.000162638
0.000161884
0.000160962
0.000159623
0.000158228
0.000157227
0.000156581
0.000155367
0.000153483
0.000146516
0.000128096
0.000131742
0.000202
0.000130951
5.31487e-05
2.37582e-05
2.01451e-05
2.82007e-05
4.43246e-05
6.65383e-05
8.59365e-05
9.88769e-05
0.000118405
0.000140184
0.00015057
0.000153577
0.00015466
0.000155585
0.00015604
0.000156959
0.000158035
0.000159537
0.000161173
0.000162623
0.000163744
0.00016353
0.000162189
0.000157327
0.000144524
0.000121884
9.02118e-05
4.92906e-05
1.22577e-05
5.03331e-07
3.58019e-08
4.31581e-06
2.88469e-05
6.77169e-05
0.000100764
0.000125579
0.000141851
0.000149937
0.000152536
0.000152454
0.000151662
0.000151028
0.000150373
0.000149362
0.000148187
0.000146885
0.000145985
0.000145371
0.000144269
0.000142446
0.000136009
0.000121787
0.000153479
0.000235234
9.85997e-05
3.1033e-05
2.34472e-05
3.23168e-05
4.85636e-05
7.1512e-05
9.97947e-05
0.000115319
0.00011054
0.000112868
0.000129101
0.000139007
0.000142193
0.000143234
0.000144287
0.00014495
0.000145784
0.000146885
0.000148448
0.000150106
0.000151561
0.000152359
0.000152249
0.000150702
0.000145643
0.000133264
0.000111957
8.2728e-05
4.48077e-05
1.10068e-05
4.47841e-07
3.21265e-08
3.87965e-06
2.61766e-05
6.21675e-05
9.26514e-05
0.000115613
0.000131135
0.000139034
0.000141753
0.000141949
0.000141298
0.000140637
0.000140028
0.000139026
0.000137926
0.000136571
0.000135611
0.000134927
0.000134101
0.000132287
0.000126558
0.000115494
0.000146099
0.000218907
6.89858e-05
3.14361e-05
3.61923e-05
5.45748e-05
7.69253e-05
0.000109029
0.000148751
0.00016001
0.000126128
0.000107656
0.000119726
0.000128442
0.000131738
0.000133082
0.000133992
0.000134695
0.00013553
0.000136697
0.00013829
0.000139944
0.000141341
0.000142064
0.000141924
0.000140241
0.000134962
0.000122955
0.000103076
7.62121e-05
4.09409e-05
9.92355e-06
4.0051e-07
2.89398e-08
3.50089e-06
2.38324e-05
5.71843e-05
8.5391e-05
0.000106636
0.000121357
0.000129139
0.000131953
0.00013229
0.000131755
0.000131054
0.000130437
0.000129498
0.000128444
0.00012715
0.000126109
0.000125522
0.000124755
0.000123023
0.000117923
0.000108533
0.000139502
0.000175129
7.18499e-05
4.19793e-05
5.33803e-05
7.85557e-05
0.000111043
0.000156195
0.000201332
0.000212624
0.000152779
0.000109437
0.000111783
0.000119227
0.000122395
0.000123802
0.000124627
0.000125342
0.000126184
0.000127379
0.000128977
0.00013061
0.00013195
0.00013262
0.000132379
0.000130574
0.000125261
0.000113669
9.51618e-05
7.04019e-05
3.75537e-05
8.99013e-06
3.60222e-07
2.61749e-08
3.17195e-06
2.17745e-05
5.27531e-05
7.88794e-05
9.85045e-05
0.000112436
0.000120095
0.000122988
0.000123429
0.000122976
0.000122267
0.00012162
0.000120742
0.000119753
0.000118544
0.000117483
0.000116882
0.000116225
0.000114591
0.000110041
0.000102183
0.000119007
0.00017797
0.000104475
5.66571e-05
6.85994e-05
9.32855e-05
0.000128917
0.000183265
0.000235328
0.000259294
0.000185871
0.00011317
0.000105075
0.00011097
0.000114014
0.000115346
0.000116122
0.000116872
0.000117722
0.00011889
0.000120424
0.00012201
0.000123281
0.000123888
0.000123578
0.00012169
0.000116389
0.000105268
8.81225e-05
6.52499e-05
3.4557e-05
8.18375e-06
3.25876e-07
2.37776e-08
2.88571e-06
1.99601e-05
4.87973e-05
7.30508e-05
9.11639e-05
0.000104307
0.000111803
0.000114757
0.000115289
0.000114894
0.000114183
0.000113504
0.000112674
0.000111751
0.000110664
0.000109674
0.000109048
0.000108389
0.00010684
0.00010282
9.67013e-05
0.000112047
0.000159909
0.000150739
8.29368e-05
7.6643e-05
9.83339e-05
0.000137148
0.000188413
0.000246749
0.000278656
0.000220056
0.000118352
9.96217e-05
0.00010358
0.000106428
0.000107692
0.000108432
0.000109167
0.000110011
0.000111128
0.000112573
0.000114064
0.000115255
0.000115798
0.000115444
0.000113508
0.000108255
9.76514e-05
8.18137e-05
6.06669e-05
3.19145e-05
7.48467e-06
2.96557e-07
2.17006e-08
2.63675e-06
1.83618e-05
4.52724e-05
6.78312e-05
8.45282e-05
9.68856e-05
0.000104182
0.000107184
0.000107801
0.000107451
0.000106736
0.000106028
0.000105236
0.000104375
0.000103408
0.000102518
0.000101916
0.000101269
9.97744e-05
9.62852e-05
9.2475e-05
0.000106739
0.000165583
0.000189762
0.000125115
8.82691e-05
9.52387e-05
0.000119829
0.000167257
0.000237358
0.00029284
0.000238688
0.000124097
9.51213e-05
9.69465e-05
9.95348e-05
0.000100712
0.000101411
0.000102125
0.000102959
0.000104022
0.00010535
0.000106714
0.000107811
0.000108298
0.000107922
0.000105968
0.000100794
9.07332e-05
7.61426e-05
5.65762e-05
2.95803e-05
6.87683e-06
2.71331e-07
1.99028e-08
2.4205e-06
1.69555e-05
4.2124e-05
6.31429e-05
7.85201e-05
9.00989e-05
9.71702e-05
0.000100211
0.000100916
0.000100607
9.98854e-05
9.91547e-05
9.8395e-05
9.75942e-05
9.67363e-05
9.59548e-05
9.5408e-05
9.4806e-05
9.34084e-05
9.0434e-05
8.8725e-05
0.000102253
0.000152094
0.000210065
0.000169001
0.000108977
9.08939e-05
0.000100012
0.000141864
0.000212686
0.000297559
0.000262542
0.000122805
9.08657e-05
9.09894e-05
9.32739e-05
9.43483e-05
9.50037e-05
9.56972e-05
9.65144e-05
9.75192e-05
9.87078e-05
9.99165e-05
0.000100908
0.000101358
0.000100977
9.90264e-05
9.39536e-05
8.44418e-05
7.10292e-05
5.29009e-05
2.75021e-05
6.34598e-06
2.49525e-07
1.8335e-08
2.23161e-06
1.57132e-05
3.93049e-05
5.89212e-05
7.30731e-05
8.3895e-05
9.07272e-05
9.37994e-05
9.45931e-05
9.43356e-05
9.36119e-05
9.286e-05
9.21261e-05
9.13835e-05
9.06241e-05
8.99524e-05
8.94798e-05
8.89378e-05
8.76508e-05
8.52118e-05
8.47659e-05
9.96293e-05
0.000159565
0.000218275
0.000196995
0.00013487
9.53592e-05
9.24448e-05
0.000126507
0.000209522
0.000296778
0.000255441
0.00012796
8.6707e-05
8.56302e-05
8.76035e-05
8.85657e-05
8.91743e-05
8.98449e-05
9.0634e-05
9.1567e-05
9.26153e-05
9.36531e-05
9.45303e-05
9.49546e-05
9.45868e-05
9.26489e-05
8.76881e-05
7.87224e-05
6.64146e-05
4.95937e-05
2.5645e-05
5.87765e-06
2.30407e-07
1.69657e-08
2.06658e-06
1.46108e-05
3.67652e-05
5.51127e-05
6.81373e-05
7.8233e-05
8.4821e-05
8.79166e-05
8.87987e-05
8.86075e-05
8.78947e-05
8.71217e-05
8.64032e-05
8.57147e-05
8.50442e-05
8.44789e-05
8.40916e-05
8.36194e-05
8.24435e-05
8.05654e-05
8.20348e-05
0.000112385
0.000189236
0.000233615
0.000211803
0.000155574
0.000107591
8.88121e-05
0.000114969
0.000193555
0.000288033
0.00028228
0.000130005
8.28724e-05
8.08085e-05
8.24772e-05
8.33227e-05
8.38856e-05
8.45268e-05
8.52783e-05
8.61268e-05
8.70296e-05
8.79097e-05
8.86694e-05
8.90698e-05
8.87207e-05
8.68018e-05
8.19607e-05
7.35268e-05
6.22469e-05
4.66117e-05
2.39823e-05
5.46236e-06
2.13567e-07
1.57541e-08
1.92021e-06
1.36289e-05
3.44736e-05
5.16695e-05
6.36625e-05
7.30744e-05
7.94202e-05
8.25306e-05
8.34991e-05
8.33836e-05
8.26997e-05
8.19103e-05
8.11945e-05
8.05522e-05
7.99628e-05
7.94953e-05
7.91926e-05
7.87925e-05
7.77262e-05
7.66533e-05
8.0634e-05
0.000111384
0.000214941
0.000250605
0.000221997
0.00016842
0.000120076
9.47975e-05
0.000109342
0.000181447
0.000287675
0.00028776
0.000130056
7.94024e-05
7.64752e-05
7.78414e-05
7.85682e-05
7.90817e-05
7.96911e-05
8.03999e-05
8.11564e-05
8.19143e-05
8.26532e-05
8.33095e-05
8.36839e-05
8.33499e-05
8.14427e-05
7.67328e-05
6.88249e-05
5.85006e-05
4.3943e-05
2.25146e-05
5.10782e-06
1.99931e-07
1.46826e-08
1.79064e-06
1.27419e-05
3.23974e-05
4.85424e-05
5.95984e-05
6.83702e-05
7.44807e-05
7.75961e-05
7.86451e-05
7.86102e-05
7.7976e-05
7.71814e-05
7.64599e-05
7.58528e-05
7.5337e-05
7.49577e-05
7.47344e-05
7.44028e-05
7.34484e-05
7.31935e-05
7.87404e-05
0.000123701
0.000243299
0.0002693
0.000231114
0.000176069
0.000129991
0.000106559
0.000117832
0.000182336
0.000281652
0.000270516
0.000133583
7.61751e-05
7.25904e-05
7.36466e-05
7.42501e-05
7.47058e-05
7.52783e-05
7.59424e-05
7.66051e-05
7.72279e-05
7.78469e-05
7.84298e-05
7.87698e-05
7.84325e-05
7.65327e-05
7.19642e-05
6.45697e-05
5.51307e-05
4.15467e-05
2.12121e-05
4.79812e-06
1.88645e-07
1.37253e-08
1.67488e-06
1.19426e-05
3.05004e-05
4.56919e-05
5.58958e-05
6.4069e-05
6.99479e-05
7.30583e-05
7.41785e-05
7.42267e-05
7.36641e-05
7.28819e-05
7.21547e-05
7.15709e-05
7.11195e-05
7.08207e-05
7.06685e-05
7.03998e-05
6.95681e-05
7.00938e-05
8.04396e-05
0.000114223
0.000213896
0.000281656
0.000237858
0.000181278
0.000138246
0.00012175
0.000138713
0.000202717
0.000275106
0.000247242
0.000119206
7.31395e-05
6.90997e-05
6.98389e-05
7.03127e-05
7.06978e-05
7.1227e-05
7.18427e-05
7.2417e-05
7.2925e-05
7.34506e-05
7.39802e-05
7.4284e-05
7.39268e-05
7.20309e-05
6.76095e-05
6.07093e-05
5.20851e-05
3.93776e-05
2.00355e-05
4.52002e-06
1.78475e-07
1.28709e-08
1.57115e-06
1.12171e-05
2.87598e-05
4.30819e-05
5.25073e-05
6.01147e-05
6.57609e-05
6.8855e-05
7.00367e-05
7.01682e-05
6.96997e-05
6.89511e-05
6.82246e-05
6.76536e-05
6.72537e-05
6.70238e-05
6.69343e-05
6.67272e-05
6.60514e-05
6.73205e-05
8.07352e-05
0.000119278
0.000211443
0.000293774
0.000249557
0.00018685
0.00014812
0.000140123
0.000166633
0.000193788
0.000266434
0.00022422
0.000107924
6.99676e-05
6.59377e-05
6.63566e-05
6.66955e-05
6.69975e-05
6.74782e-05
6.8044e-05
6.85361e-05
6.89556e-05
6.94155e-05
6.99074e-05
7.01808e-05
6.97882e-05
6.78857e-05
6.36173e-05
5.71987e-05
4.93255e-05
3.74058e-05
1.89689e-05
4.26947e-06
1.69229e-07
1.20951e-08
1.47651e-06
1.0553e-05
2.71573e-05
4.06822e-05
4.93907e-05
5.64558e-05
6.18639e-05
6.49322e-05
6.61669e-05
6.63802e-05
6.60207e-05
6.53301e-05
6.46129e-05
6.4046e-05
6.36803e-05
6.35066e-05
6.34717e-05
6.3329e-05
6.28602e-05
6.48807e-05
8.0159e-05
0.000143348
0.000218553
0.000291107
0.00026282
0.000200408
0.000165843
0.000162738
0.000167135
0.000205971
0.000268273
0.000198903
0.000101926
6.70357e-05
6.30519e-05
6.31407e-05
6.33409e-05
6.35552e-05
6.39846e-05
6.44961e-05
6.49149e-05
6.52691e-05
6.56881e-05
6.61531e-05
6.63928e-05
6.59553e-05
6.40494e-05
5.99395e-05
5.39897e-05
4.68095e-05
3.55999e-05
1.79947e-05
4.03973e-06
1.60832e-07
1.13898e-08
1.39053e-06
9.94325e-06
2.56766e-05
3.84695e-05
4.6514e-05
5.3052e-05
5.82192e-05
6.12565e-05
6.2537e-05
6.28298e-05
6.25794e-05
6.19687e-05
6.12699e-05
6.06988e-05
6.03497e-05
6.02151e-05
6.0227e-05
6.01559e-05
5.99297e-05
6.28549e-05
7.88117e-05
0.000142772
0.00023691
0.000292617
0.000265491
0.000213798
0.000182161
0.00018809
0.000208274
0.000237602
0.000275532
0.000201646
9.87304e-05
6.45811e-05
6.03443e-05
6.01314e-05
6.01963e-05
6.03303e-05
6.07087e-05
6.11617e-05
6.15119e-05
6.18198e-05
6.22166e-05
6.26619e-05
6.28594e-05
6.23702e-05
6.04672e-05
5.65347e-05
5.10375e-05
4.44956e-05
3.39278e-05
1.70931e-05
3.82923e-06
1.53107e-07
1.07409e-08
1.31153e-06
9.38136e-06
2.43037e-05
3.64222e-05
4.38507e-05
4.98781e-05
5.48035e-05
5.78114e-05
5.91307e-05
5.949e-05
5.93389e-05
5.88242e-05
5.81525e-05
5.7572e-05
5.72261e-05
5.71175e-05
5.71706e-05
5.7174e-05
5.71937e-05
6.08741e-05
8.35166e-05
0.000148544
0.000256685
0.000290334
0.000265017
0.000216347
0.000186421
0.000191365
0.000211621
0.000248257
0.000268195
0.000181945
8.99128e-05
6.26138e-05
5.77609e-05
5.72917e-05
5.72293e-05
5.72934e-05
5.76225e-05
5.80129e-05