/*--------------------------------*- C++ -*----------------------------------*\
  =========                 |
  \\      /  F ield         | OpenFOAM: The Open Source CFD Toolbox
   \\    /   O peration     | Website:  https://openfoam.org
    \\  /    A nd           | Version:  7
     \\/     M anipulation  |
\*---------------------------------------------------------------------------*/
FoamFile
{
    version     2.0;
    format      ascii;
    class       volScalarField;
    location    "70";
    object      nut;
}
// * * * * * * * * * * * * * * * * * * * * * * * * * * * * * * * * * * * * * //

dimensions      [0 2 -1 0 0 0 0];

internalField   nonuniform List<scalar> 
17475
(
3.12041e-05
0.000188849
0.000188081
0.000188027
0.000188026
0.000188025
0.000188025
0.000188025
0.000188025
0.000188025
0.000188025
0.000188026
0.000188025
0.000188026
0.000188026
0.000188026
0.000188026
0.000188026
0.000188026
0.000188026
0.000188026
0.000188026
0.000188026
0.000188026
0.000188025
0.000188028
0.000188028
0.000188028
0.000188029
0.000188029
0.000188029
0.000188029
0.000188029
0.000188029
0.000188029
0.000188029
0.000188029
0.000188028
0.000188029
0.00018803
0.000188031
0.000188033
0.000188034
0.000188036
0.000188037
0.000188038
0.000188039
0.00018804
0.000188041
0.000188042
0.000188043
0.000188044
0.000188054
0.000188286
0.000150676
9.21884e-07
0.000115395
0.00017209
0.000176588
0.00017675
0.000176755
0.000176752
0.00017675
0.000176749
0.000176747
0.000176747
0.000176746
0.000176746
0.000176746
0.000176746
0.000176746
0.000176746
0.000176747
0.000176747
0.000176747
0.000176748
0.000176749
0.000176753
0.000176747
0.000176758
0.000176762
0.000176768
0.000176769
0.00017677
0.00017677
0.000176771
0.000176771
0.000176772
0.000176773
0.000176773
0.000176773
0.000176773
0.000176773
0.00017677
0.000176769
0.000176769
0.000176769
0.000176769
0.000176769
0.00017677
0.000176771
0.000176772
0.000176773
0.000176775
0.000176778
0.000176776
0.000176713
0.000175373
0.000153948
1.6809e-05
1.20179e-07
5.92264e-05
0.000151142
0.000168232
0.00016991
0.000170019
0.000170023
0.000170018
0.000170011
0.000170004
0.000170001
0.000169998
0.000169996
0.000169994
0.000169993
0.000169991
0.00016999
0.000169989
0.000169988
0.000169986
0.000169985
0.000169988
0.000169988
0.000169994
0.000169997
0.000169998
0.000170005
0.000170008
0.000170009
0.000170008
0.000170007
0.000170006
0.000170007
0.000170009
0.000170009
0.000170008
0.000170009
0.000170006
0.000170003
0.000170001
0.00017
0.000169996
0.000169992
0.000169993
0.000169995
0.000169996
0.000169998
0.000170002
0.000170007
0.000170012
0.000169973
0.000169338
0.000161161
0.000102834
3.03973e-06
3.86307e-08
3.04542e-05
0.000127831
0.000159098
0.000164774
0.00016535
0.00016541
0.00016541
0.000165395
0.000165381
0.000165375
0.000165369
0.000165363
0.000165356
0.000165354
0.00016535
0.000165345
0.000165342
0.00016534
0.000165334
0.000165332
0.000165333
0.00016534
0.000165343
0.000165346
0.000165348
0.000165351
0.000165356
0.000165357
0.000165353
0.00016535
0.00016535
0.000165354
0.000165359
0.000165359
0.000165358
0.000165361
0.000165355
0.000165352
0.000165353
0.000165353
0.000165344
0.00016534
0.000165346
0.000165354
0.00016536
0.000165364
0.00016537
0.000165376
0.000165365
0.000165139
0.000162495
0.000144047
6.41106e-05
1.07744e-06
1.75584e-08
1.70594e-05
0.000104909
0.000148977
0.000159906
0.000161707
0.000161933
0.000161955
0.000161936
0.00016192
0.000161916
0.000161908
0.000161899
0.000161883
0.00016188
0.000161876
0.000161869
0.000161859
0.000161856
0.000161851
0.000161845
0.000161849
0.000161851
0.00016185
0.000161864
0.000161869
0.000161866
0.000161866
0.000161862
0.000161853
0.000161854
0.000161859
0.000161872
0.00016188
0.000161881
0.000161887
0.000161887
0.000161878
0.000161878
0.000161882
0.000161884
0.000161878
0.00016188
0.00016189
0.000161905
0.00016192
0.000161925
0.000161932
0.000161926
0.000161843
0.000161046
0.000154827
0.0001261
4.19132e-05
5.49208e-07
9.61866e-09
1.05113e-05
8.49809e-05
0.000138681
0.000154721
0.000158542
0.000159132
0.000159219
0.000159199
0.000159176
0.000159182
0.000159181
0.000159172
0.000159151
0.000159145
0.000159135
0.000159133
0.000159109
0.000159104
0.000159104
0.0001591
0.000159095
0.000159082
0.000159079
0.000159112
0.000159119
0.000159099
0.000159073
0.000159054
0.000159056
0.000159075
0.000159094
0.000159118
0.000159125
0.00015913
0.000159156
0.000159152
0.000159135
0.000159143
0.000159151
0.000159151
0.000159152
0.000159156
0.000159166
0.000159187
0.000159221
0.000159225
0.000159225
0.000159187
0.000158919
0.000156988
0.000146675
0.000109056
2.9097e-05
3.32444e-07
5.9651e-09
7.03532e-06
6.88982e-05
0.000128429
0.000149283
0.000155564
0.000156833
0.000157061
0.000157019
0.000156963
0.000156992
0.000157008
0.000156988
0.000156974
0.000156976
0.000156947
0.000156962
0.000156936
0.000156903
0.000156872
0.000156866
0.00015687
0.000156827
0.000156838
0.000156865
0.000156858
0.000156813
0.000156747
0.000156725
0.00015677
0.000156816
0.000156857
0.000156887
0.000156894
0.00015689
0.000156963
0.000156983
0.000156943
0.000156944
0.000156952
0.000156955
0.000156942
0.00015692
0.000156927
0.000156953
0.000157054
0.000157068
0.000157015
0.000156911
0.000156295
0.000152697
0.000138558
9.40429e-05
2.13007e-05
2.22594e-07
4.0462e-09
5.0351e-06
5.63681e-05
0.000118566
0.000144148
0.000152935
0.000155214
0.000155692
0.000155645
0.000155601
0.000155667
0.000155699
0.000155597
0.000155524
0.00015557
0.000155511
0.000155538
0.000155478
0.000155363
0.000155232
0.000155203
0.000155251
0.00015516
0.000155139
0.000155099
0.000155082
0.000154992
0.000154875
0.000154888
0.000155044
0.000155098
0.000155108
0.000155152
0.000155186
0.000155182
0.000155296
0.000155334
0.000155275
0.000155277
0.000155281
0.000155296
0.000155258
0.000155218
0.000155202
0.000155251
0.000155456
0.000155475
0.000155342
0.000155114
0.000153925
0.000148445
0.000130817
8.13884e-05
1.62053e-05
1.57136e-07
2.92955e-09
3.7844e-06
4.66965e-05
0.000109365
0.000139754
0.000151064
0.000154718
0.000155535
0.000155546
0.000155503
0.000155633
0.000155785
0.000155572
0.000155381
0.000155548
0.000155411
0.000155308
0.000155041
0.000154713
0.000154428
0.000154343
0.00015445
0.000154356
0.000154239
0.00015419
0.000154121
0.000153807
0.000153557
0.000153621
0.000154056
0.000154216
0.000154079
0.000154142
0.000154272
0.000154334
0.000154473
0.000154453
0.000154351
0.000154335
0.000154393
0.000154405
0.000154203
0.000154123
0.000154127
0.000154336
0.000154615
0.000154568
0.000154357
0.000153911
0.000151886
0.000144665
0.000123651
7.08105e-05
1.27841e-05
1.18477e-07
2.22611e-09
2.95454e-06
3.92212e-05
0.000100963
0.000136091
0.000149777
0.000155337
0.00015681
0.000156455
0.000156181
0.000156649
0.000156985
0.00015674
0.000156334
0.000156541
0.000156259
0.000155879
0.000155746
0.000155093
0.00015453
0.000154382
0.0001544
0.000154224
0.000154215
0.000154328
0.000154056
0.000153513
0.000153164
0.00015327
0.000153883
0.000154149
0.000154032
0.00015406
0.000154197
0.000154204
0.000154448
0.000154567
0.000154356
0.000154041
0.000154172
0.000154526
0.000154084
0.000153719
0.000153638
0.000154022
0.000154827
0.000154956
0.000154128
0.000153219
0.000150478
0.000141699
0.000117378
6.23972e-05
1.04209e-05
9.36165e-08
1.75421e-09
2.37618e-06
3.3421e-05
9.33785e-05
0.000132839
0.000148556
0.000155802
0.000157975
0.000157677
0.000157247
0.000157715
0.000158449
0.0001586
0.000157993
0.000158037
0.000158047
0.000157604
0.000157401
0.000156437
0.000155596
0.00015526
0.000155228
0.000155093
0.000154777
0.000155009
0.000155262
0.000154515
0.00015406
0.000154121
0.000154584
0.000154951
0.000154798
0.000154763
0.000155042
0.000154871
0.00015517
0.000154909
0.000154836
0.000154438
0.000154603
0.000154763
0.000154432
0.000154123
0.000154166
0.000155152
0.000156062
0.000156126
0.000155031
0.000153391
0.000149411
0.000139649
0.000111991
5.55298e-05
8.70387e-06
7.65466e-08
1.42363e-09
1.95849e-06
2.88782e-05
8.64049e-05
0.000129588
0.00014782
0.00015617
0.000158561
0.000158441
0.000158067
0.000159131
0.000160412
0.000162094
0.00015959
0.000159552
0.000160379
0.000158073
0.000158849
0.000157536
0.000156778
0.00015691
0.000156317
0.000156361
0.000157399
0.000157725
0.000157123
0.000155315
0.000156693
0.000157041
0.000155211
0.000155
0.000156016
0.000155066
0.000156539
0.000156676
0.000156751
0.000157026
0.000156945
0.000155642
0.00015549
0.000155729
0.000155691
0.000154885
0.000154872
0.000156311
0.000156864
0.000158233
0.000155764
0.00015412
0.000148842
0.000137092
0.000106811
4.98147e-05
7.42092e-06
6.43884e-08
1.18439e-09
1.65099e-06
2.52596e-05
7.99791e-05
0.000125361
0.000148604
0.0001567
0.000160883
0.000160119
0.000156599
0.000158263
0.000164003
0.000163783
0.000162877
0.00016262
0.000161417
0.000160142
0.000159993
0.000159503
0.000158748
0.000158566
0.000157998
0.000156833
0.000157329
0.000159538
0.000158539
0.000157557
0.000157863
0.000158367
0.000157775
0.000157153
0.000158373
0.000159322
0.000159161
0.000158935
0.00015907
0.000159788
0.000159227
0.000158106
0.000156998
0.000156906
0.000157224
0.000157642
0.000157513
0.000158107
0.000160815
0.000161485
0.000159221
0.000156179
0.000151338
0.000137405
0.000101282
4.48156e-05
6.43189e-06
5.54674e-08
1.00433e-09
1.41404e-06
2.2322e-05
7.3876e-05
0.000121935
0.000142999
0.000150935
0.000155271
0.000154794
0.000156243
0.000157864
0.000159057
0.000158824
0.000158478
0.000157868
0.000156144
0.00015497
0.000153187
0.000151796
0.000150599
0.000149851
0.000149216
0.000149126
0.00014962
0.000150993
0.000151224
0.00015052
0.000149602
0.00014962
0.000149771
0.000150167
0.000150657
0.000151351
0.000151168
0.000151296
0.000151451
0.000151822
0.000151955
0.000152648
0.000152723
0.000152735
0.000153393
0.000154007
0.000153665
0.000154028
0.000156309
0.000155383
0.000154009
0.000151095
0.000144933
0.000130895
9.55571e-05
4.03915e-05
5.61407e-06
4.78241e-08
8.65167e-10
1.22735e-06
1.99151e-05
6.83284e-05
0.000111718
0.000133252
0.000142597
0.000146009
0.000146643
0.000146913
0.00014814
0.000148855
0.000148659
0.000148132
0.000147231
0.000146164
0.000144712
0.000142791
0.000141148
0.000139803
0.000138651
0.000137827
0.000137546
0.000137831
0.000138665
0.000139609
0.000139427
0.000139159
0.000139149
0.000138921
0.000138794
0.000138671
0.000138614
0.000139595
0.000140143
0.000140684
0.00014102
0.000141757
0.000143183
0.000143606
0.000143965
0.000144706
0.000145171
0.000145386
0.00014555
0.000146155
0.000145927
0.00014484
0.000142079
0.000135268
0.000120953
8.74856e-05
3.64355e-05
4.95486e-06
4.16109e-08
7.55147e-10
1.07992e-06
1.78303e-05
6.20972e-05
0.000103441
0.000124686
0.000133565
0.00013721
0.000137915
0.000138314
0.000139066
0.000139369
0.000139055
0.00013844
0.000137459
0.000136516
0.000135125
0.000132843
0.000130894
0.000129289
0.000127571
0.000126423
0.000125469
0.000124709
0.000125897
0.000128097
0.000110094
0.000104089
0.00010636
0.000118898
0.000127606
0.000125952
0.000126294
0.000126875
0.000128187
0.000129885
0.000130757
0.0001319
0.000133655
0.000134274
0.000134541
0.000135247
0.000135832
0.000136004
0.000136255
0.000136861
0.000136796
0.000135773
0.000132819
0.000126196
0.000112038
7.98969e-05
3.32871e-05
4.39912e-06
3.65141e-08
6.54991e-10
9.52164e-07
1.60799e-05
5.64688e-05
9.58229e-05
0.000116265
0.000125075
0.000128793
0.00012958
0.000129853
0.000130236
0.000130193
0.000129715
0.000129001
0.000127995
0.000127171
0.000125759
0.000123077
0.000121067
0.000118618
0.000115605
0.000114182
0.000112024
0.000112522
9.62031e-05
6.92064e-05
4.56091e-05
2.39955e-05
2.41741e-05
5.85357e-05
8.34738e-05
0.000118262
0.000112752
0.000113438
0.000115811
0.000118148
0.00011995
0.000122128
0.000124443
0.000125373
0.000125684
0.000126428
0.000126942
0.000127191
0.000127522
0.00012803
0.000128044
0.000127181
0.000124296
0.000117679
0.000103768
7.32532e-05
3.0201e-05
3.9376e-06
3.23444e-08
4.72901e-10
8.0494e-07
1.41506e-05
5.11502e-05
8.8062e-05
0.000108051
0.000116871
0.00012068
0.000121504
0.000121552
0.000121562
0.00012126
0.000120641
0.000119848
0.000118935
0.000118109
0.000116196
0.000113387
0.000110761
0.000107786
0.000104705
0.000102511
0.000102879
9.39775e-05
3.26389e-05
1.69143e-06
1.46422e-09
1.39342e-08
1.25333e-05
4.14595e-05
0.000102692
0.000102057
0.000103963
0.000106785
0.000109857
0.000112441
0.000114898
0.00011652
0.000116934
0.000117765
0.000118329
0.000118694
0.000119035
0.000119496
0.000119613
0.000118907
0.000116173
0.000109674
9.59448e-05
6.72473e-05
2.74296e-05
3.5297e-06
2.87475e-08
1.14396e-10
4.77436e-07
1.156e-05
4.50757e-05
7.94461e-05
9.87441e-05
0.000107569
0.000111343
0.000112106
0.000111803
0.00011139
0.00011091
0.000110168
0.000109322
0.000108389
0.000107417
0.000105156
0.000102239
9.92171e-05
9.59977e-05
9.32397e-05
9.27915e-05
8.152e-05
2.41163e-05
1.39054e-06
2.07351e-10
5.55333e-06
5.90851e-05
8.81747e-05
9.20386e-05
9.51963e-05
9.8664e-05
0.000101898
0.000104621
0.000106232
0.000106866
0.000107838
0.000108541
0.000108996
0.000109285
0.000109702
0.000109976
0.000109496
0.000107017
0.000100801
8.75385e-05
6.14626e-05
2.51912e-05
3.14468e-06
2.38845e-08
1.53876e-10
5.6581e-07
1.0764e-05
4.00725e-05
6.91168e-05
8.52157e-05
9.33106e-05
9.63725e-05
9.66643e-05
9.62401e-05
9.54085e-05
9.47597e-05
9.43863e-05
9.30983e-05
9.19177e-05
9.02507e-05
8.86691e-05
8.68168e-05
8.37677e-05
8.03041e-05
7.83935e-05
7.43776e-05
4.94408e-05
6.97462e-06
1.23098e-07
1.08679e-06
2.44925e-05
6.82724e-05
7.7377e-05
7.93462e-05
8.20742e-05
8.57071e-05
8.76772e-05
8.8791e-05
8.97871e-05
9.0995e-05
9.19936e-05
9.27114e-05
9.34414e-05
9.41653e-05
9.49325e-05
9.47818e-05
9.29837e-05
8.76054e-05
7.58412e-05
5.3412e-05
2.24703e-05
3.03761e-06
2.6559e-08
3.32741e-10
5.72294e-07
1.04866e-05
3.72471e-05
6.27931e-05
7.76841e-05
8.50756e-05
8.81751e-05
8.84018e-05
8.7712e-05
8.73674e-05
8.66879e-05
8.5852e-05
8.48445e-05
8.34238e-05
8.15989e-05
8.05504e-05
7.89176e-05
7.55858e-05
7.27929e-05
7.06815e-05
6.23585e-05
3.11046e-05
4.07043e-06
1.57789e-07
4.07237e-10
4.70212e-09
8.49236e-07
1.3688e-05
4.95024e-05
6.86389e-05
7.18209e-05
7.40468e-05
7.72761e-05
7.86695e-05
8.03496e-05
8.09676e-05
8.19227e-05
8.33614e-05
8.45502e-05
8.54462e-05
8.63218e-05
8.68518e-05
8.66812e-05
8.49954e-05
7.9878e-05
6.89107e-05
4.83704e-05
2.03529e-05
2.71723e-06
2.20705e-08
3.67005e-10
5.39858e-07
9.65149e-06
3.4036e-05
5.71064e-05
7.09306e-05
7.80426e-05
8.09775e-05
8.1298e-05
8.08828e-05
8.05101e-05
7.96408e-05
7.87247e-05
7.77997e-05
7.65262e-05
7.49722e-05
7.36514e-05
7.23077e-05
6.94196e-05
6.65274e-05
6.41634e-05
5.38681e-05
2.34463e-05
3.62809e-06
4.45746e-07
4.34484e-08
1.2791e-08
1.52196e-08
1.72633e-08
5.56893e-08
2.26371e-07
1.13547e-06
9.78255e-06
3.91236e-05
6.08729e-05
6.58438e-05
6.82488e-05
7.11307e-05
7.25568e-05
7.34508e-05
7.39316e-05
7.51292e-05
7.65802e-05
7.77311e-05
7.87487e-05
7.97698e-05
8.03031e-05
7.99564e-05
7.82399e-05
7.3256e-05
6.27657e-05
4.37423e-05
1.84892e-05
2.42081e-06
1.94143e-08
3.38577e-10
4.93399e-07
8.74269e-06
3.09235e-05
5.19842e-05
6.50518e-05
7.20807e-05
7.49344e-05
7.53769e-05
7.49219e-05
7.43795e-05
7.38727e-05
7.29605e-05
7.18509e-05
7.05015e-05
6.88818e-05
6.77717e-05
6.65697e-05
6.42094e-05
6.15306e-05
5.85568e-05
4.65834e-05
1.9732e-05
4.11057e-06
1.05611e-06
4.5374e-07
6.00566e-07
9.37602e-07
9.75388e-07
7.43293e-07
7.34221e-07
1.62807e-06
8.57213e-06
3.24094e-05
5.46327e-05
6.08028e-05
6.31078e-05
6.55093e-05
6.70243e-05
6.79154e-05
6.84744e-05
6.93647e-05
7.06131e-05
7.19573e-05
7.30693e-05
7.40867e-05
7.45426e-05
7.4078e-05
7.23323e-05
6.74134e-05
5.7334e-05
3.98168e-05
1.67861e-05
2.16375e-06
1.72736e-08
3.05368e-10
4.45636e-07
7.9157e-06
2.80606e-05
4.73667e-05
5.96421e-05
6.64061e-05
6.92555e-05
6.98065e-05
6.93795e-05
6.88952e-05
6.85019e-05
6.76421e-05
6.64818e-05
6.51541e-05
6.36311e-05
6.25554e-05
6.14563e-05
5.95268e-05
5.72652e-05
5.38364e-05
4.09576e-05
1.8387e-05
5.23405e-06
2.08654e-06
1.62019e-06
1.64347e-06
2.09236e-06
1.94964e-06
1.25979e-06
1.00669e-06
2.08223e-06
8.83947e-06
2.89621e-05
4.98172e-05
5.65655e-05
5.87796e-05
6.06679e-05
6.20671e-05
6.28754e-05
6.34082e-05
6.41914e-05
6.53984e-05
6.67182e-05
6.79039e-05
6.89059e-05
6.92321e-05
6.86119e-05
6.67809e-05
6.20492e-05
5.24683e-05
3.6263e-05
1.52329e-05
1.94201e-06
1.54457e-08
2.74426e-10
4.01025e-07
7.15843e-06
2.54544e-05
4.30997e-05
5.45261e-05
6.08279e-05
6.35936e-05
6.44591e-05
6.41776e-05
6.37503e-05
6.34107e-05
6.25725e-05
6.14478e-05
6.02172e-05
5.87987e-05
5.78171e-05
5.68693e-05
5.5248e-05
5.33085e-05
4.99287e-05
3.90236e-05
1.81744e-05
6.63636e-06
3.45229e-06
3.24317e-06
3.1447e-06
3.3617e-06
2.6222e-06
1.47948e-06
1.18404e-06
2.82328e-06
9.93111e-06
2.79664e-05
4.62635e-05
5.26272e-05
5.46647e-05
5.62832e-05
5.745e-05
5.8255e-05
5.87146e-05
5.93446e-05
6.06172e-05
6.1883e-05
6.30939e-05
6.3995e-05
6.41822e-05
6.34834e-05
6.16295e-05
5.70571e-05
4.79668e-05
3.30158e-05
1.37964e-05
1.73974e-06
1.3786e-08
2.46107e-10
3.60135e-07
6.45685e-06
2.29893e-05
3.90571e-05
4.95819e-05
5.52176e-05
5.82641e-05
5.91909e-05
5.89084e-05
5.82306e-05
5.80596e-05
5.74048e-05
5.64739e-05
5.52318e-05
5.33935e-05
5.29085e-05
5.24831e-05
5.10671e-05
4.93829e-05
4.61379e-05
3.58461e-05
1.86474e-05
8.3177e-06
5.17302e-06
5.17288e-06
4.88975e-06
4.37811e-06
2.99378e-06
1.68515e-06
1.53504e-06
4.27023e-06
1.2112e-05
2.79617e-05
4.32484e-05
4.87299e-05
5.0712e-05
5.21078e-05
5.28683e-05
5.3775e-05
5.41966e-05
5.46129e-05
5.58059e-05
5.67126e-05
5.82151e-05
5.9159e-05
5.9283e-05
5.8442e-05
5.65406e-05
5.22179e-05
4.36551e-05
2.99842e-05
1.2482e-05
1.55696e-06
1.21567e-08
2.20407e-10
3.23048e-07
5.81218e-06
2.06957e-05
3.51951e-05
4.48664e-05
5.00074e-05
5.30976e-05
5.39714e-05
5.37442e-05
5.27414e-05
5.2727e-05
5.19095e-05
5.12787e-05
5.05942e-05
4.84431e-05
4.83156e-05
4.8179e-05
4.70272e-05
4.53247e-05
4.23344e-05
3.26214e-05
1.97992e-05
1.14097e-05
8.20684e-06
7.24203e-06
5.96905e-06
4.93003e-06
3.09758e-06
1.92894e-06
2.6504e-06
6.41945e-06
1.46128e-05
2.88003e-05
4.01749e-05
4.48838e-05
4.63945e-05
4.75548e-05
4.83353e-05
4.93307e-05
4.9586e-05
5.0082e-05
5.10535e-05
5.1666e-05
5.35196e-05
5.41755e-05
5.42437e-05
5.31996e-05
5.12891e-05
4.74669e-05
3.95215e-05
2.71205e-05
1.12494e-05
1.38461e-06
1.062e-08
1.97163e-10
2.89638e-07
5.21936e-06
1.86288e-05
3.15027e-05
3.83259e-05
4.43358e-05
4.8253e-05
4.91576e-05
4.8746e-05
4.70097e-05
4.81098e-05
4.79511e-05
4.74273e-05
4.65436e-05
4.54487e-05
4.3415e-05
4.43882e-05
4.35894e-05
4.18916e-05
3.79035e-05
3.05322e-05
2.19358e-05
1.74195e-05
1.40671e-05
9.49205e-06
6.83211e-06
5.09324e-06
3.19104e-06
2.59388e-06
4.68323e-06
9.06579e-06
1.70935e-05
2.79832e-05
3.64019e-05
4.00082e-05
4.26608e-05
4.361e-05
4.25714e-05
4.28011e-05
4.5548e-05
4.65565e-05
4.74298e-05
4.80564e-05
4.92036e-05
4.81487e-05
4.93687e-05
4.83484e-05
4.66033e-05
4.2546e-05
3.55685e-05
2.44676e-05
1.00612e-05
1.23211e-06
9.30217e-09
1.76299e-10
2.59602e-07
4.71462e-06
1.65729e-05
2.80285e-05
3.61609e-05
4.12311e-05
4.40395e-05
4.62367e-05
4.43777e-05
4.44637e-05
4.36488e-05
4.33636e-05
4.46881e-05
4.27182e-05
4.32365e-05
4.24448e-05
4.15763e-05
4.08046e-05
3.87733e-05
3.63795e-05
2.95555e-05
2.55151e-05
2.92521e-05
2.09289e-05
1.17534e-05
6.43244e-06
5.01238e-06
3.82589e-06
4.60747e-06
7.70247e-06
1.2421e-05
1.89729e-05
2.71409e-05
3.34326e-05
3.77927e-05
3.91423e-05
4.0822e-05
4.09874e-05
4.09402e-05
4.16431e-05
4.34384e-05
4.46087e-05
4.43316e-05
4.51563e-05
4.65386e-05
4.45385e-05
4.39995e-05
4.28653e-05
3.88068e-05
3.19703e-05
2.18162e-05
9.13999e-06
1.09832e-06
8.17315e-09
1.57705e-10
2.32904e-07
4.27558e-06
1.53147e-05
2.59146e-05
3.33174e-05
3.87095e-05
4.22885e-05
4.2444e-05
4.30024e-05
4.18857e-05
4.18679e-05
4.15217e-05
4.10602e-05
4.11354e-05
4.0784e-05
4.02686e-05
3.96428e-05
3.88074e-05
3.81786e-05
3.54426e-05
2.96335e-05
2.91777e-05
4.21774e-05
2.53896e-05
9.81536e-06
4.7526e-06
5.29384e-06
6.42259e-06
8.31543e-06
1.26354e-05
1.76256e-05
2.14016e-05
2.61334e-05
3.25306e-05
3.55476e-05
3.81231e-05
3.85104e-05
3.95576e-05
3.99102e-05
4.04793e-05
4.09678e-05
4.21418e-05
4.3697e-05
4.41576e-05
4.40469e-05
4.26423e-05
4.21814e-05
4.15297e-05
3.64844e-05
3.05286e-05
2.03514e-05
8.27578e-06
9.83045e-07
7.21149e-09
1.41276e-10
2.0931e-07
3.89516e-06
1.44927e-05
2.49459e-05
3.25147e-05
3.76301e-05
4.02731e-05
4.16171e-05
4.16934e-05
4.16633e-05
4.11378e-05
4.09308e-05
4.03064e-05
3.97223e-05
3.82735e-05
3.77771e-05
3.70314e-05
3.66213e-05
3.59915e-05
3.39939e-05
3.03623e-05
3.7541e-05
5.40906e-05
2.09549e-05
6.16168e-06
4.91304e-06
8.6671e-06
1.12314e-05
1.43363e-05
2.06993e-05
2.57899e-05
2.57513e-05
2.66819e-05
3.07807e-05
3.44089e-05
3.60395e-05
3.61315e-05
3.7567e-05
3.81118e-05
3.85327e-05
3.91063e-05
4.00151e-05
4.10075e-05
4.19396e-05
4.18585e-05
4.22637e-05
4.1332e-05
3.91422e-05
3.54012e-05
2.86755e-05
1.93367e-05
7.58992e-06
8.83318e-07
6.39084e-09
1.26799e-10
1.88548e-07
3.54572e-06
1.35157e-05
2.39141e-05
3.10336e-05
3.59574e-05
3.82896e-05
3.92512e-05
3.97664e-05
3.96179e-05
3.9184e-05
3.89241e-05
3.84609e-05
3.78074e-05
3.64385e-05
3.5586e-05
3.52541e-05
3.48919e-05
3.4176e-05
3.26207e-05
2.94566e-05
3.69292e-05
5.39329e-05
1.569e-05
6.68603e-06
8.06925e-06
1.5182e-05
1.85247e-05
2.34722e-05
3.33601e-05
3.80384e-05
3.17893e-05
2.69481e-05
3.10383e-05
3.25666e-05
3.41552e-05
3.523e-05
3.54261e-05
3.5862e-05
3.63839e-05
3.69975e-05
3.77626e-05
3.86487e-05
3.93918e-05
3.97055e-05
3.97906e-05
3.89775e-05
3.68328e-05
3.30141e-05
2.68175e-05
1.80691e-05
7.00343e-06
7.97395e-07
5.69658e-09
1.14254e-10
1.70553e-07
3.24186e-06
1.24718e-05
2.225e-05
2.90861e-05
3.3688e-05
3.6218e-05
3.71978e-05
3.74574e-05
3.72951e-05
3.68381e-05
3.64877e-05
3.60906e-05
3.56014e-05
3.46997e-05
3.37771e-05
3.36085e-05
3.3238e-05
3.27112e-05
3.1104e-05
2.83185e-05
3.61369e-05
4.34265e-05
1.72165e-05
9.53683e-06
1.2704e-05
2.28724e-05
2.81039e-05
3.59179e-05
4.80868e-05
5.4048e-05
3.95614e-05
2.90911e-05
2.98521e-05
3.19315e-05
3.25526e-05
3.33473e-05
3.36503e-05
3.40107e-05
3.44766e-05
3.50081e-05
3.56982e-05
3.64859e-05
3.71388e-05
3.74696e-05
3.73174e-05
3.65184e-05
3.46654e-05
3.09227e-05
2.51332e-05
1.68301e-05
6.44952e-06
7.23598e-07
5.10886e-09
1.03367e-10
1.54934e-07
2.97529e-06
1.15698e-05
2.06657e-05
2.70937e-05
3.15304e-05
3.41121e-05
3.51133e-05
3.53225e-05
3.51501e-05
3.47559e-05
3.43867e-05
3.40205e-05
3.36264e-05
3.30204e-05
3.2382e-05
3.20736e-05
3.16996e-05
3.10383e-05
2.9579e-05
2.72321e-05
3.13225e-05
4.58909e-05
2.65488e-05
1.35829e-05
1.73788e-05
2.84697e-05
3.42788e-05
4.45282e-05
5.85866e-05
6.74168e-05
4.94299e-05
3.04981e-05
2.85384e-05
3.03716e-05
3.13013e-05
3.18147e-05
3.21151e-05
3.24353e-05
3.27792e-05
3.31664e-05
3.37395e-05
3.44227e-05
3.49814e-05
3.52495e-05
3.5087e-05
3.43251e-05
3.25164e-05
2.8928e-05
2.357e-05
1.57267e-05
5.95746e-06
6.60138e-07
4.61071e-09
9.39254e-11
1.41327e-07
2.74034e-06
1.07602e-05
1.92787e-05
2.52841e-05
2.95015e-05
3.2025e-05
3.30437e-05
3.32643e-05
3.30874e-05
3.27161e-05
3.23597e-05
3.20273e-05
3.16903e-05
3.12707e-05
3.08467e-05
3.05222e-05
3.01073e-05
2.93211e-05
2.79912e-05
2.62241e-05
3.02438e-05
4.32199e-05
3.91167e-05
2.10025e-05
2.05436e-05
3.09359e-05
3.83737e-05
4.81182e-05
6.42997e-05
7.46537e-05
6.00499e-05
3.27113e-05
2.77166e-05
2.88933e-05
2.97488e-05
3.01958e-05
3.04749e-05
3.07552e-05
3.10557e-05
3.13969e-05
3.18718e-05
3.24256e-05
3.28952e-05
3.31201e-05
3.29661e-05
3.22417e-05
3.04697e-05
2.70663e-05
2.20816e-05
1.47302e-05
5.52744e-06
6.05287e-07
4.18736e-09
8.57492e-11
1.29482e-07
2.53323e-06
1.00353e-05
1.80137e-05
2.36032e-05
2.75743e-05
3.00077e-05
3.10393e-05
3.12807e-05
3.11041e-05
3.0738e-05
3.04134e-05
3.01347e-05
2.98538e-05
2.9531e-05
2.91912e-05
2.89164e-05
2.85838e-05
2.79389e-05
2.68039e-05
2.55781e-05
2.9365e-05
4.5854e-05
5.18355e-05
3.28237e-05
2.47323e-05
3.07645e-05
3.53279e-05
4.45282e-05
6.35194e-05
8.02468e-05
6.64522e-05
3.48557e-05
2.68364e-05
2.74046e-05
2.81763e-05
2.85715e-05
2.88233e-05
2.90977e-05
2.93868e-05
2.96995e-05
3.00895e-05
3.05093e-05
3.08903e-05
3.10893e-05
3.09649e-05
3.02808e-05
2.85486e-05
2.53236e-05
2.07049e-05
1.38208e-05
5.14759e-06
5.57725e-07
3.82429e-09
7.86761e-11
1.19199e-07
2.35144e-06
9.3877e-06
1.68672e-05
2.20576e-05
2.57768e-05
2.81083e-05
2.91395e-05
2.94027e-05
2.92399e-05
2.88901e-05
2.85999e-05
2.83661e-05
2.81378e-05
2.78844e-05
2.76059e-05
2.73629e-05
2.70774e-05
2.6547e-05
2.5599e-05
2.50085e-05
2.8771e-05
4.2891e-05
5.83816e-05
4.63464e-05
3.17699e-05
2.98256e-05
3.02331e-05
3.95657e-05
5.93769e-05
8.33379e-05
7.42523e-05
3.49308e-05
2.59146e-05
2.59809e-05
2.66832e-05
2.70299e-05
2.72536e-05
2.75095e-05
2.77815e-05
2.80683e-05
2.83823e-05
2.87014e-05
2.90021e-05
2.91868e-05
2.91012e-05
2.84568e-05
2.67603e-05
2.37031e-05
1.94318e-05
1.29915e-05
4.80973e-06
5.16271e-07
3.51184e-09
7.25057e-11
1.10196e-07
2.19117e-06
8.80996e-06
1.58326e-05
2.06492e-05
2.41255e-05
2.63569e-05
2.73793e-05
2.76631e-05
2.75333e-05
2.72157e-05
2.69441e-05
2.6729e-05
2.65375e-05
2.63361e-05
2.61072e-05
2.59005e-05
2.56518e-05
2.51897e-05
2.44334e-05
2.42956e-05
2.86174e-05
4.58353e-05
6.19137e-05
5.52535e-05
4.02308e-05
3.16553e-05
2.86466e-05
3.62125e-05
5.9655e-05
8.50265e-05
7.32936e-05
3.67767e-05
2.49483e-05
2.46709e-05
2.52889e-05
2.55894e-05
2.57908e-05
2.60258e-05
2.62734e-05
2.65199e-05
2.6768e-05
2.70113e-05
2.72578e-05
2.74359e-05
2.73828e-05
2.67681e-05
2.51053e-05
2.22073e-05
1.8261e-05
1.22394e-05
4.50741e-06
4.79599e-07
3.23814e-09
6.71119e-11
1.02317e-07
2.04899e-06
8.28929e-06
1.48957e-05
1.93678e-05
2.26205e-05
2.47666e-05
2.57798e-05
2.60788e-05
2.59901e-05
2.5711e-05
2.54452e-05
2.5223e-05
2.50464e-05
2.48813e-05
2.46914e-05
2.45194e-05
2.43133e-05
2.39093e-05
2.33376e-05
2.38143e-05
3.27444e-05
5.51273e-05
6.74767e-05
6.08408e-05
4.74348e-05
3.59703e-05
2.80435e-05
3.37482e-05
5.63429e-05
8.40145e-05
8.20275e-05
3.77209e-05
2.40465e-05
2.34558e-05
2.39728e-05
2.42427e-05
2.44312e-05
2.4653e-05
2.48796e-05
2.5079e-05
2.52643e-05
2.54575e-05
2.56652e-05
2.58367e-05
2.58005e-05
2.52021e-05
2.35783e-05
2.08351e-05
1.71907e-05
1.15574e-05
4.2375e-06
4.47046e-07
2.99814e-09
6.23352e-11
9.52928e-08
1.9245e-06
7.81505e-06
1.40367e-05
1.8191e-05
2.12429e-05
2.33234e-05
2.43326e-05
2.46404e-05
2.45846e-05
2.43442e-05
2.40837e-05
2.38425e-05
2.36645e-05
2.3522e-05
2.33627e-05
2.32215e-05
2.30616e-05
2.2716e-05
2.24033e-05
2.36466e-05
3.27916e-05
6.33327e-05
7.34409e-05
6.49621e-05
5.21401e-05
4.02849e-05
3.03083e-05
3.26869e-05
5.36729e-05
8.49629e-05
8.44924e-05
3.80678e-05
2.3217e-05
2.23448e-05
2.27563e-05
2.29861e-05
2.3162e-05
2.33766e-05
2.35914e-05
2.37518e-05
2.3882e-05
2.4038e-05
2.42177e-05
2.43781e-05
2.43395e-05
2.37458e-05
2.21702e-05
1.95858e-05
1.62231e-05
1.09478e-05
4.00166e-06
4.19912e-07
2.813e-09
5.81065e-11
8.90579e-08
1.80588e-06
7.37686e-06
1.3237e-05
1.70954e-05
1.9965e-05
2.19942e-05
2.30077e-05
2.33196e-05
2.32829e-05
2.30781e-05
2.28334e-05
2.25853e-05
2.24032e-05
2.22743e-05
2.21411e-05
2.20359e-05
2.19191e-05
2.16254e-05
2.15616e-05
2.32649e-05
3.66887e-05
7.23545e-05
7.98729e-05
6.87046e-05
5.516e-05
4.36325e-05
3.43176e-05
3.57192e-05
5.45881e-05
8.39911e-05
8.01233e-05
3.94029e-05
2.24125e-05
2.13332e-05
2.1651e-05
2.18317e-05
2.19808e-05
2.21837e-05
2.23915e-05
2.25274e-05
2.26169e-05
2.27464e-05
2.29096e-05
2.30455e-05
2.29918e-05
2.23934e-05
2.08727e-05
1.84509e-05
1.53531e-05
1.04014e-05
3.7932e-06
3.96458e-07
2.66601e-09
5.43211e-11
8.34774e-08
1.70076e-06
6.96942e-06
1.24877e-05
1.60677e-05
1.87686e-05
2.07516e-05
2.17749e-05
2.2089e-05
2.20599e-05
2.18864e-05
2.16739e-05
2.14473e-05
2.12696e-05
2.11465e-05
2.10321e-05
2.09592e-05
2.08767e-05
2.06253e-05
2.07846e-05
2.3885e-05
3.40316e-05
6.40787e-05
8.44291e-05
7.16543e-05
5.72864e-05
4.63306e-05
3.93823e-05
4.24902e-05
6.1242e-05
8.26493e-05
7.37442e-05
3.53822e-05
2.16202e-05
2.04032e-05
2.06372e-05
2.07693e-05
2.08805e-05
2.1065e-05
2.12667e-05
2.13891e-05
2.14559e-05
2.15703e-05
2.17224e-05
2.18301e-05
2.175e-05
2.11428e-05
1.96757e-05
1.74164e-05
1.45689e-05
9.90817e-06
3.6057e-06
3.75378e-07
2.53349e-09
5.09491e-11
7.84485e-08
1.60418e-06
6.59111e-06
1.17894e-05
1.51098e-05
1.7652e-05
1.95889e-05
2.06194e-05
2.09357e-05
2.09092e-05
2.07649e-05
2.05975e-05
2.04155e-05
2.02519e-05
2.01232e-05
2.00143e-05
1.99611e-05
1.99011e-05
1.96936e-05
2.00619e-05
2.40473e-05
3.56334e-05
6.37006e-05
8.88566e-05
7.601e-05
5.93906e-05
4.94836e-05
4.54095e-05
5.14438e-05
5.89103e-05
8.04342e-05
6.7206e-05
3.21883e-05
2.07579e-05
1.95414e-05
1.96938e-05
1.97797e-05
1.98492e-05
2.00139e-05
2.02082e-05
2.03218e-05
2.03795e-05
2.04903e-05
2.06364e-05
2.07182e-05
2.06001e-05
1.99865e-05
1.85699e-05
1.6471e-05
1.38584e-05
9.45905e-06
3.43347e-06
3.56169e-07
2.41233e-09
4.7893e-11
7.38394e-08
1.51489e-06
6.24094e-06
1.1146e-05
1.42288e-05
1.66188e-05
1.85046e-05
1.95392e-05
1.98631e-05
1.98429e-05
1.97274e-05
1.9606e-05
1.94697e-05
1.93198e-05
1.9174e-05
1.90552e-05
1.90077e-05
1.89635e-05
1.88142e-05
1.9399e-05
2.39305e-05
4.29246e-05
6.61334e-05
8.86799e-05
8.07603e-05
6.39501e-05
5.51824e-05
5.27626e-05
5.18918e-05
6.29128e-05
8.12919e-05
5.98491e-05
3.04891e-05
1.99349e-05
1.8743e-05
1.88063e-05
1.88499e-05
1.88819e-05
1.90277e-05
1.92111e-05
1.93128e-05
1.93676e-05
1.94827e-05
1.96283e-05
1.96856e-05
1.95338e-05
1.89113e-05
1.75435e-05
1.55989e-05
1.32049e-05
9.04383e-06
3.27459e-06
3.38381e-07
2.30257e-09
4.51133e-11
6.96343e-08
1.43219e-06
5.91683e-06
1.05556e-05
1.34238e-05
1.56647e-05
1.7493e-05
1.85318e-05
1.88756e-05
1.88723e-05
1.87828e-05
1.86938e-05
1.85861e-05
1.84387e-05
1.82695e-05
1.81288e-05
1.80791e-05
1.80535e-05
1.79764e-05
1.88318e-05
2.35821e-05
4.28721e-05
7.194e-05
8.96237e-05
8.21306e-05
6.83898e-05
6.03482e-05
6.09354e-05
6.49048e-05
7.27948e-05
8.37029e-05
6.08437e-05
2.96071e-05
1.92536e-05
1.79734e-05
1.79565e-05
1.79681e-05
1.7976e-05
1.81054e-05
1.82705e-05
1.8354e-05
1.84069e-05
1.85295e-05
1.86772e-05
1.8715e-05
1.85321e-05
1.79001e-05
1.65899e-05
1.47865e-05
1.25932e-05
8.65264e-06
3.12516e-06
3.21951e-07
2.20145e-09
4.25532e-11
6.57563e-08
1.3558e-06
5.61617e-06
1.00109e-05
1.26829e-05