/*--------------------------------*- C++ -*----------------------------------*\
  =========                 |
  \\      /  F ield         | OpenFOAM: The Open Source CFD Toolbox
   \\    /   O peration     | Website:  https://openfoam.org
    \\  /    A nd           | Version:  7
     \\/     M anipulation  |
\*---------------------------------------------------------------------------*/
FoamFile
{
    version     2.0;
    format      ascii;
    class       volScalarField;
    location    "70";
    object      p;
}
// * * * * * * * * * * * * * * * * * * * * * * * * * * * * * * * * * * * * * //

dimensions      [0 2 -2 0 0 0 0];

internalField   nonuniform List<scalar> 
17475
(
0.731866
0.41731
0.327978
0.289528
0.267102
0.252341
0.24197
0.234446
0.228921
0.224881
0.221988
0.220006
0.218762
0.218122
0.217978
0.218239
0.218824
0.219661
0.220684
0.22183
0.223039
0.224259
0.225436
0.226524
0.227482
0.228279
0.228886
0.229285
0.229468
0.229437
0.229202
0.228785
0.228214
0.227526
0.226764
0.225977
0.225219
0.224547
0.224024
0.223717
0.223699
0.224051
0.224866
0.22625
0.228338
0.2313
0.235362
0.240844
0.248208
0.258164
0.271845
0.291123
0.31883
0.361609
0.383504
0.293813
0.308289
0.294175
0.27559
0.259984
0.248098
0.239165
0.232453
0.227431
0.223723
0.221063
0.219254
0.218143
0.217612
0.21756
0.217901
0.218559
0.219464
0.220552
0.221758
0.223026
0.224299
0.225526
0.226659
0.227657
0.228482
0.229108
0.229518
0.2297
0.229659
0.229404
0.228958
0.228351
0.22762
0.226809
0.225969
0.225153
0.224419
0.223829
0.22345
0.223353
0.223615
0.224323
0.225578
0.2275
0.230242
0.234
0.239039
0.245732
0.25462
0.266526
0.282771
0.305264
0.340988
0.350685
0.260786
0.258149
0.256067
0.250003
0.243316
0.236852
0.231215
0.226578
0.222923
0.22016
0.218182
0.216886
0.216181
0.215982
0.216215
0.21681
0.2177
0.218823
0.220117
0.22152
0.222975
0.224424
0.225812
0.22709
0.228209
0.229129
0.229819
0.230263
0.230448
0.230376
0.230062
0.229527
0.228807
0.227941
0.226978
0.225969
0.224971
0.224042
0.223242
0.222637
0.222291
0.222272
0.222652
0.223509
0.22493
0.227014
0.229873
0.233635
0.238435
0.24439
0.25152
0.259497
0.267226
0.271814
0.263499
0.214071
0.222427
0.22748
0.227932
0.226136
0.22355
0.220848
0.218384
0.216335
0.214775
0.213718
0.213151
0.213041
0.213347
0.214024
0.215021
0.216287
0.217767
0.219405
0.221142
0.222917
0.224669
0.22634
0.227867
0.229196
0.230283
0.23109
0.231593
0.231783
0.231661
0.231242
0.230554
0.229638
0.22854
0.227315
0.22602
0.224715
0.22346
0.222316
0.221346
0.220605
0.220147
0.220026
0.220291
0.220988
0.222156
0.223819
0.22597
0.22855
0.231386
0.234106
0.235939
0.235475
0.229615
0.214517
0.192864
0.199295
0.20561
0.208938
0.210184
0.210281
0.209808
0.209157
0.208569
0.208191
0.208102
0.208343
0.208925
0.209842
0.211074
0.212592
0.214357
0.216325
0.218441
0.220649
0.222883
0.22508
0.227161
0.229056
0.230699
0.232035
0.233016
0.233611
0.233806
0.233605
0.233028
0.23211
0.230901
0.22946
0.227852
0.226144
0.224404
0.222691
0.22108
0.219622
0.218366
0.217354
0.21662
0.216188
0.21607
0.216258
0.216716
0.217365
0.218058
0.218542
0.218392
0.216942
0.213125
0.205408
0.195343
0.17881
0.183448
0.18936
0.193629
0.196278
0.197893
0.198898
0.199592
0.200191
0.200845
0.201657
0.202694
0.203994
0.205574
0.207436
0.209566
0.211937
0.214512
0.217242
0.220067
0.222922
0.225715
0.228359
0.230766
0.232851
0.234539
0.235765
0.236487
0.236686
0.236366
0.235558
0.234308
0.232684
0.230763
0.228629
0.226364
0.224043
0.221743
0.219542
0.217486
0.215618
0.21397
0.212563
0.211399
0.210467
0.20973
0.209124
0.208544
0.20783
0.206746
0.204966
0.202054
0.197429
0.190586
0.184165
0.168063
0.171354
0.176308
0.180746
0.184024
0.186483
0.188416
0.190041
0.191531
0.193019
0.194607
0.196371
0.198364
0.200617
0.203147
0.205954
0.209021
0.212321
0.215803
0.219414
0.223059
0.226634
0.230032
0.233136
0.235829
0.238006
0.239573
0.240469
0.240665
0.240169
0.239027
0.237306
0.235103
0.232526
0.229685
0.226687
0.223622
0.220597
0.217682
0.214927
0.212372
0.210039
0.207936
0.206054
0.204365
0.202819
0.201344
0.199832
0.198145
0.196105
0.193485
0.190004
0.185346
0.179654
0.175299
0.158691
0.161144
0.165245
0.169489
0.172972
0.175852
0.17833
0.180564
0.182689
0.184818
0.187044
0.189444
0.192072
0.194975
0.198181
0.201704
0.205545
0.209681
0.214074
0.218642
0.223288
0.227883
0.232284
0.236334
0.239867
0.242726
0.244768
0.245904
0.246086
0.245328
0.243698
0.241305
0.238296
0.234823
0.231043
0.227094
0.223094
0.219185
0.215431
0.211885
0.208582
0.205537
0.202745
0.200188
0.197826
0.195604
0.193446
0.19126
0.188934
0.186332
0.1833
0.179651
0.175204
0.17036
0.167135
0.149948
0.15183
0.155219
0.159155
0.162659
0.165724
0.168495
0.171102
0.173652
0.176241
0.178956
0.181872
0.185056
0.188563
0.192434
0.1967
0.201367
0.206455
0.211899
0.217625
0.223532
0.229455
0.2352
0.240549
0.245259
0.249089
0.251815
0.253289
0.253436
0.25228
0.249929
0.246563
0.242414
0.237711
0.232676
0.227487
0.222337
0.217367
0.212644
0.208223
0.20413
0.200367
0.196918
0.193749
0.190811
0.188044
0.185377
0.182725
0.179998
0.177086
0.173883
0.170252
0.166163
0.162205
0.159751
0.141469
0.142949
0.145762
0.149343
0.152742
0.155831
0.158721
0.16152
0.164322
0.16721
0.170269
0.173573
0.177199
0.181217
0.185693
0.190673
0.196231
0.202348
0.208995
0.216109
0.223581
0.231241
0.238807
0.245971
0.252373
0.257629
0.26137
0.263342
0.263417
0.261637
0.258193
0.253382
0.247594
0.241181
0.234453
0.227674
0.221116
0.214889
0.209076
0.203716
0.198817
0.194362
0.190311
0.186616
0.183213
0.180037
0.177008
0.174052
0.17109
0.168042
0.164815
0.161308
0.15752
0.154138
0.152217
0.13305
0.13423
0.136576
0.139777
0.142979
0.145974
0.148844
0.151683
0.154575
0.157601
0.160842
0.164383
0.168313
0.17272
0.1777
0.183336
0.189722
0.196898
0.204871
0.21361
0.223018
0.232926
0.242983
0.252733
0.261636
0.269068
0.274386
0.277129
0.277062
0.274267
0.269092
0.262086
0.253886
0.245062
0.236047
0.227276
0.219002
0.211336
0.20434
0.198022
0.192351
0.187273
0.182716
0.1786
0.174858
0.171411
0.168187
0.165104
0.162078
0.159029
0.155878
0.152549
0.149116
0.146261
0.144705
0.124577
0.125517
0.127453
0.130261
0.133194
0.135998
0.138727
0.141465
0.144292
0.147287
0.150533
0.154124
0.158164
0.162771
0.168056
0.174193
0.18128
0.189434
0.198767
0.209311
0.22103
0.233783
0.247253
0.260761
0.273476
0.284371
0.292287
0.296296
0.295951
0.291404
0.283365
0.272895
0.261089
0.248814
0.236791
0.22556
0.215288
0.206062
0.197879
0.190668
0.184328
0.178757
0.173841
0.169497
0.165614
0.162087
0.158824
0.155744
0.152771
0.14983
0.146849
0.143768
0.140706
0.1383
0.137049
0.115984
0.116738
0.118308
0.120693
0.123283
0.125804
0.128277
0.130778
0.133382
0.136164
0.139212
0.142626
0.146527
0.151056
0.15637
0.162676
0.170159
0.17904
0.189539
0.201891
0.216194
0.232429
0.250403
0.269401
0.2881
0.304789
0.317245
0.323505
0.322589
0.314839
0.301808
0.285663
0.268349
0.251241
0.235422
0.221271
0.208863
0.198131
0.188907
0.180999
0.174247
0.16848
0.163503
0.159165
0.155333
0.151898
0.148764
0.145842
0.143059
0.140338
0.137615
0.134845
0.132179
0.130188
0.129198
0.107253
0.107842
0.109076
0.111025
0.113211
0.115357
0.117461
0.119586
0.121802
0.124179
0.126803
0.129775
0.133224
0.137295
0.142225
0.148212
0.155536
0.164553
0.175674
0.189338
0.206063
0.226145
0.249711
0.27647
0.30474
0.33156
0.352589
0.363224
0.361057
0.346964
0.324684
0.298982
0.27327
0.24983
0.229543
0.212384
0.198071
0.186209
0.176441
0.168411
0.161745
0.156158
0.151434
0.147387
0.143858
0.140743
0.13793
0.135323
0.132867
0.130484
0.128113
0.12573
0.123495
0.121865
0.121042
0.0984236
0.098884
0.099806
0.101288
0.102987
0.104666
0.106297
0.107922
0.109595
0.111376
0.113339
0.115573
0.118196
0.121376
0.12534
0.130314
0.136637
0.144759
0.155282
0.169004
0.186848
0.209984
0.239531
0.276086
0.319192
0.364424
0.403081
0.423202
0.418052
0.390041
0.349609
0.3078
0.270395
0.239676
0.215132
0.1958
0.180712
0.168955
0.159685
0.152277
0.146325
0.141451
0.137436
0.134056
0.13115
0.128605
0.126319
0.124211
0.122218
0.120283
0.118354
0.116427
0.114663
0.113426
0.112802
0.0895188
0.0898645
0.0904787
0.0914751
0.0926464
0.0937919
0.0948616
0.0958742
0.0968614
0.0978642
0.098935
0.100142
0.101574
0.103386
0.105726
0.108832
0.113025
0.118765
0.126723
0.137883
0.153709
0.176274
0.208604
0.254141
0.316518
0.394787
0.472428
0.515515
0.502783
0.441349
0.364234
0.297584
0.247753
0.211793
0.186219
0.168024
0.154837
0.1451
0.137781
0.132205
0.127861
0.124416
0.121619
0.11927
0.117295
0.115567
0.114003
0.112533
0.111122
0.109738
0.108337
0.106933
0.105673
0.104808
0.104349
0.0806044
0.0808353
0.0811343
0.0816377
0.0822622
0.0828441
0.0833031
0.083627
0.0838249
0.0839132
0.0839135
0.0838521
0.0837623
0.0837307
0.0838247
0.0841928
0.0850158
0.0865695
0.0893819
0.094196
0.102239
0.115915
0.139276
0.179583
0.250067
0.373977
0.539327
0.644246
0.610862
0.463506
0.318524
0.232203
0.183068
0.154418
0.137094
0.126255
0.119152
0.114245
0.110878
0.108453
0.1066
0.105239
0.10417
0.103277
0.102516
0.101818
0.101145
0.100466
0.0997559
0.0989935
0.0981686
0.0973121
0.0965551
0.0960661
0.0957771
0.0714522
0.0715207
0.0715723
0.0717455
0.0719494
0.0720115
0.0718457
0.0714381
0.0707839
0.0698742
0.0686905
0.0672088
0.0654024
0.0632519
0.0607033
0.0577089
0.054203
0.0500996
0.0453014
0.0396572
0.0329684
0.0252717
0.0162088
0.00548463
-0.00658273
0.0943323
0.376304
0.241721
0.088444
0.0400149
0.0515911
0.0604039
0.0668646
0.0716563
0.0753752
0.0781649
0.0804006
0.0821896
0.0836426
0.0848428
0.0858263
0.0866248
0.0872551
0.0877273
0.0880491
0.0882266
0.0882627
0.0881605
0.0879302
0.0876197
0.0873529
0.0872445
0.0871805
0.0608914
0.0610709
0.0615357
0.0619742
0.062021
0.0615904
0.0607707
0.0595968
0.0580674
0.056157
0.0537844
0.0508727
0.04733
0.0430181
0.0377597
0.0313099
0.023317
0.0132592
0.000299031
-0.0169396
-0.0409116
-0.0762637
-0.132798
-0.234217
-0.371429
-0.424988
-0.250704
-0.115385
-0.0478699
-0.00957703
0.0141515
0.0299357
0.0410344
0.0491991
0.055414
0.0602743
0.0641518
0.0672819
0.0698207
0.0719101
0.0736059
0.0749652
0.0760522
0.0768585
0.0774276
0.0777864
0.0779586
0.0779608
0.0778302
0.0776684
0.0557779
0.0554581
0.0551366
0.0543507
0.0532684
0.0520069
0.0504931
0.0486233
0.046299
0.0434398
0.0399449
0.0356916
0.0305226
0.0242077
0.0164684
0.00692552
-0.00496716
-0.0199999
-0.0393419
-0.0648084
-0.0993095
-0.147787
-0.220183
-0.330281
-0.432244
-0.275065
-0.177564
-0.104758
-0.0593226
-0.0284594
-0.0065078
0.00964201
0.0218805
0.0313889
0.038931
0.0450114
0.0499821
0.0540849
0.0574612
0.0602558
0.0625639
0.0644421
0.0659803
0.0672009
0.0681178
0.0687211
0.068957
0.0688009
0.0685543
0.0460107
0.0460358
0.045666
0.0449667
0.0438975
0.0423751
0.0403839
0.0379018
0.0348723
0.0312086
0.0267938
0.0214817
0.0150841
0.00730978
-0.00215244
-0.013726
-0.0279934
-0.0457519
-0.0680982
-0.0965268
-0.133043
-0.180257
-0.240503
-0.311274
-0.349522
-0.359582
-0.242698
-0.21776
-0.17762
-0.130651
-0.0917487
-0.0607715
-0.0365531
-0.0175443
-0.00252007
0.00950112
0.0192323
0.0271879
0.0337472
0.0391914
0.0437287
0.0475217
0.0506962
0.0533472
0.0555584
0.0573977
0.0589324
0.0602226
0.0612865
0.0620088
0.0621194
0.0387832
0.0389068
0.0384724
0.0373983
0.0358106
0.0338036
0.0313645
0.0284271
0.0249038
0.0206933
0.0156721
0.00968396
0.00254782
-0.00601853
-0.0162992
-0.0286945
-0.0437014
-0.0619349
-0.0842196
-0.111518
-0.144877
-0.185734
-0.235715
-0.288835
-0.316342
-0.316915
-0.300638
-0.269267
-0.239512
-0.217715
-0.202751
-0.194158
-0.172569
-0.139025
-0.107437
-0.0800478
-0.0568591
-0.0374339
-0.0214037
-0.00812809
0.00293105
0.0121134
0.0197908
0.0262389
0.0316615
0.0362366
0.0401026
0.0433711
0.046136
0.0484795
0.0504629
0.0520981
0.0533051
0.0539554
0.0540394
0.0320392
0.0321266
0.0315939
0.0303357
0.0284842
0.0261693
0.0234123
0.0201582
0.0163215
0.011799
0.00647314
0.000198178
-0.00719636
-0.0159619
-0.0263319
-0.0386017
-0.0531488
-0.0704167
-0.0909318
-0.115307
-0.144262
-0.178746
-0.219863
-0.262296
-0.289432
-0.298875
-0.293927
-0.270593
-0.240737
-0.213027
-0.193518
-0.185897
-0.172883
-0.146136
-0.118355
-0.0932329
-0.0712037
-0.0522061
-0.0359811
-0.0222013
-0.0105011
-0.00059713
0.00780469
0.0149603
0.0210153
0.0261648
0.0305507
0.034297
0.0374914
0.040214
0.0425318
0.0444468
0.0458561
0.0466056
0.0466603
0.0257192
0.0258035
0.0252517
0.0239358
0.0219717
0.0195089
0.0165986
0.0132046
0.00925302
0.00465487
-0.000695922
-0.00692107
-0.014165
-0.0225787
-0.0323978
-0.0437951
-0.0570219
-0.0723484
-0.0900821
-0.110555
-0.134102
-0.161255
-0.192657
-0.225438
-0.250889
-0.267263
-0.273638
-0.261697
-0.238252
-0.213028
-0.195019
-0.188074
-0.176635
-0.151953
-0.125641
-0.101839
-0.0808031
-0.0623902
-0.0464022
-0.0325881
-0.0207309
-0.0105473
-0.001828
0.00564724
0.0120573
0.0175531
0.0222655
0.0263108
0.0297864
0.0327734
0.0353248
0.037419
0.0389315
0.0397126
0.0397684
0.0200891
0.0202034
0.0196789
0.0183684
0.0163775
0.0138806
0.0109496
0.00756553
0.00366921
-0.000809072
-0.00594943
-0.0118437
-0.0185947
-0.0263346
-0.0351989
-0.0452715
-0.0566876
-0.0695749
-0.0840429
-0.100156
-0.117988
-0.137657
-0.159263
-0.181175
-0.202049
-0.222769
-0.239151
-0.240424
-0.229709
-0.214274
-0.201552
-0.194645
-0.181872
-0.156714
-0.130189
-0.106713
-0.0863237
-0.0685641
-0.0531039
-0.0396709
-0.0280185
-0.0179244
-0.00919971
-0.00165936
0.00486021
0.0104778
0.0153275
0.0195207
0.0231383
0.0262615
0.0289319
0.0311133
0.0326625
0.0334393
0.033472
0.0151511
0.0152949
0.0148203
0.0135702
0.0116442
0.00921664
0.00637823
0.00313049
-0.000568977
-0.00477395
-0.00954001
-0.0149295
-0.0210031
-0.0278223
-0.0354847
-0.0440141
-0.0534272
-0.063732
-0.0748722
-0.0867563
-0.0991464
-0.111762
-0.124411
-0.136691
-0.152654
-0.175837
-0.200116
-0.21416
-0.217244
-0.212901
-0.206146
-0.199223
-0.183346
-0.15701
-0.13064
-0.107746
-0.0880926
-0.0711576
-0.0564527
-0.0436584
-0.0325205
-0.0228254
-0.0143888
-0.00705001
-0.000668763
0.00487728
0.00969407
0.0138762
0.0175039
0.0206468
0.0233329
0.0255104
0.0270302
0.0277578
0.0277498
0.0109134
0.0111048
0.0107087
0.00956863
0.00777105
0.00548475
0.00282397
-0.000194182
-0.00359671
-0.00742038
-0.0117013
-0.0164745
-0.0217659
-0.0275977
-0.0339944
-0.0409507
-0.048397
-0.0562448
-0.0643534
-0.0724556
-0.0801578
-0.086974
-0.0924332
-0.0972681
-0.109903
-0.135435
-0.165771
-0.189014
-0.202117
-0.206043
-0.203322
-0.194921
-0.176708
-0.150707
-0.125555
-0.10414
-0.0858895
-0.0702094
-0.0566369
-0.0448073
-0.0344721
-0.0254314
-0.0175185
-0.0105923
-0.00453259
0.000762792
0.00538533
0.00941774
0.0129328
0.0159874
0.0185975
0.0207012
0.0221499
0.0228257
0.0227789
0.00734314
0.00756581
0.00725164
0.00625968
0.00464589
0.002571
0.000153291
-0.00257143
-0.00561396
-0.00899521
-0.0127345
-0.0168455
-0.0213338
-0.0261837
-0.0313702
-0.0368657
-0.0425542
-0.0482868
-0.0538498
-0.0589277
-0.063097
-0.0657489
-0.066402
-0.0664576
-0.0777644
-0.104872
-0.138348
-0.165558
-0.18347
-0.191669
-0.190415
-0.179805
-0.160607
-0.137026
-0.114833
-0.0958661
-0.0797708
-0.0659065
-0.0538597
-0.043329
-0.0340769
-0.0259331
-0.0187591
-0.0124392
-0.00687617
-0.00198508
0.0023097
0.00607614
0.00937381
0.0122461
0.0146957
0.016652
0.0179709
0.0185531
0.0184702
0.00438997
0.00465076
0.00443443
0.00359979
0.00219222
0.000359325
-0.00177976
-0.00417677
-0.00682973
-0.00974733
-0.0129346
-0.0163886
-0.0200981
-0.0240326
-0.0281408
-0.0323669
-0.0365939
-0.0406336
-0.0442623
-0.0471865
-0.0490168
-0.0492089
-0.0472253
-0.0449734
-0.0565045
-0.0840693
-0.116043
-0.142245
-0.160764
-0.169596
-0.166857
-0.154375
-0.136556
-0.117083
-0.0991094
-0.0836092
-0.070271
-0.0586721
-0.0485247
-0.0395691
-0.0316361
-0.0245939
-0.0183381
-0.0127831
-0.00785553
-0.0034924
0.000363093
0.00376222
0.00675003
0.00935632
0.0115726
0.0133239
0.0144816
0.0149667
0.014841
0.00199893
0.0022938
0.00217073
0.00150062
0.000314237
-0.00125759
-0.00309896
-0.0051545
-0.00741176
-0.00986996
-0.0125251
-0.0153644
-0.0183655
-0.0214945
-0.0246941
-0.0278763
-0.0309269
-0.0336921
-0.0359744
-0.0375235
-0.0380296
-0.0370387
-0.0340009
-0.0313719
-0.0427137
-0.0676621
-0.0952466
-0.118378
-0.133811
-0.139581
-0.134798
-0.122209
-0.107561
-0.0931588
-0.0799979
-0.0684402
-0.0582577
-0.049233
-0.0411875
-0.0340059
-0.027555
-0.0217485
-0.016529
-0.011845
-0.00765057
-0.00390591
-0.000573762
0.00238058
0.00498721
0.00726254
0.0091888
0.0106926
0.0116627
0.0120362
0.0118706
0.00011231
0.000434286
0.000399868
-0.00011281
-0.00107372
-0.00237813
-0.00391803
-0.00563511
-0.00750891
-0.00953234
-0.0116965
-0.0139844
-0.0163661
-0.0188007
-0.0212301
-0.0235773
-0.0257479
-0.0276359
-0.0290656
-0.0298533
-0.0297739
-0.0284607
-0.0253084
-0.0226782
-0.0320836
-0.0521295
-0.0740619
-0.0918993
-0.102759
-0.105193
-0.0990422
-0.0876563
-0.0769613
-0.0677584
-0.0593899
-0.0517924
-0.0448221
-0.0384323
-0.0325849
-0.0272129
-0.0222958
-0.0177825
-0.0136531
-0.00989376
-0.00648639
-0.00341313
-0.000655582
0.00180422
0.00398182
0.00588119
0.00747793
0.00870453
0.00946796
0.00972319
0.00952228
-0.00133514
-0.000995416
-0.000949888
-0.00130118
-0.0020474
-0.00309366
-0.00434159
-0.0057339
-0.00724686
-0.00886752
-0.0105839
-0.0123758
-0.0142164
-0.0160696
-0.0178894
-0.0196148
-0.0211704
-0.0224631
-0.0234009
-0.0238559
-0.0236831
-0.0225904
-0.0199283
-0.0173578
-0.0233073
-0.0371843
-0.0525032
-0.064782
-0.0712698
-0.0707355
-0.0640141
-0.0545824
-0.0477661
-0.0431333
-0.0390008
-0.0350058
-0.031034
-0.0271295
-0.0233656
-0.019766
-0.0163329
-0.0130959
-0.010054
-0.00722259
-0.00461206
-0.0022254
-6.17519e-05
0.00188171
0.00360694
0.0051078
0.00635577
0.007294
0.00784593
0.0079861
0.00775204
-0.00239843
-0.00204854
-0.00193809
-0.00215031
-0.00269023
-0.00348441
-0.00445149
-0.00553526
-0.0067101
-0.00796196
-0.00927784
-0.0106405
-0.0120265
-0.0134056
-0.0147403
-0.0159872
-0.0171004
-0.0180285
-0.0187119
-0.0191028
-0.019115
-0.018524
-0.0166418
-0.0140715
-0.0165173
-0.0245077
-0.0336723
-0.0404524
-0.0428826
-0.0402974
-0.0334185
-0.0256867
-0.0218625
-0.0208252
-0.0201227
-0.0191425
-0.0177587
-0.0160598
-0.0141593
-0.0121632
-0.0101157
-0.00806592
-0.00605286
-0.00410867
-0.0022674
-0.000549936
0.00102925
0.00245966
0.00373192
0.00483169
0.00573017
0.00637906
0.0067283
0.00675989
0.00649863
-0.00313685
-0.00277846
-0.00260981
-0.00270015
-0.00305475
-0.00361001
-0.00430863
-0.00510322
-0.00596689
-0.00688506
-0.00784555
-0.00883301
-0.00982908
-0.0108123
-0.0117591
-0.0126445
-0.0134434
-0.0141345
-0.0147035
-0.0151436
-0.0154422
-0.0154248
-0.0144153
-0.0121796
-0.0119571
-0.0150753
-0.0189732
-0.0212718
-0.020381
-0.0157468
-0.00843964
-0.00187295
-0.000180983
-0.00172452
-0.00357972
-0.00494688
-0.00564735
-0.0057735
-0.00546165
-0.00483773
-0.00400382
-0.00301281
-0.00192907
-0.000797076
0.000333219
0.00142562
0.00245338
0.00339564
0.00423388
0.00494873
0.0055128
0.00589042
0.00604847
0.00598208
0.00569978
-0.00360094
-0.00324772
-0.0030325
-0.00300523
-0.00317533
-0.00351016
-0.00396028
-0.00448585
-0.00506347
-0.00567886
-0.00632182
-0.00698067
-0.00764279
-0.00829441
-0.00892269
-0.00951658
-0.0100709
-0.010587
-0.0110798
-0.0115797
-0.0121172
-0.0125695
-0.0123504
-0.010695
-0.00916125
-0.00893749
-0.00891312
-0.00744995
-0.00370774
0.00249677
0.0102193
0.016335
0.016913
0.0137377
0.010151
0.0071161
0.00486215
0.00332521
0.00237306
0.00187366
0.00171313
0.00180238
0.00208643
0.00250258
0.00300324
0.00353533
0.00406372
0.00455984
0.00499923
0.00535907
0.00561646
0.00574641
0.00573502
0.00558514
0.0052883
-0.00383321
-0.00347991
-0.00322675
-0.00310239
-0.00311148
-0.00323756
-0.00345145
-0.00372513
-0.00403866
-0.00437925
-0.00473772
-0.00510529
-0.00547361
-0.00583538
-0.00618604
-0.00652561
-0.00686116
-0.00720962
-0.00760165
-0.00808684
-0.00871807
-0.00946147
-0.00979558
-0.0089044
-0.00703014
-0.00493666
-0.00232934
0.00156595
0.00735962
0.0150702
0.0234852
0.0294975
0.0295241
0.0255097
0.0209127
0.0168184
0.0135186
0.0109827
0.00909865
0.00774174
0.00679998
0.00617877
0.00580549
0.00562606
0.00558817
0.00563944
0.00573371
0.00583837
0.00592555
0.00597241
0.00595999
0.00587798
0.00572159
0.00549927
0.0051937
-0.00385976
-0.00351471
-0.00323698
-0.00302503
-0.00288589
-0.00281946
-0.00281453
-0.00285351
-0.00292314
-0.00301192
-0.00311157
-0.00321534
-0.00331796
-0.00341634
-0.00351119
-0.0036083
-0.00372101
-0.00387235
-0.00409921
-0.00445561
-0.00500485
-0.00574054
-0.00641825
-0.00614649
-0.00464633
-0.00196317
0.00185978
0.00727102
0.0144278
0.0230244
0.0318984
0.038056
0.0380696
0.0337743
0.0287466
0.0241248
0.0202359
0.0170847
0.014586
0.0126342
0.0111263
0.00997249
0.00909793
0.00844916
0.00797465
0.00762811
0.0073615
0.00713706
0.00692594
0.00670693
0.00646777
0.00620792
0.0059367
0.00566062
0.00535182
-0.00371417
-0.00338255
-0.00308195
-0.00279638
-0.00252974
-0.00228469
-0.00207463
-0.00189635
-0.00173994
-0.00159652
-0.00145829
-0.00131941
-0.00117603
-0.00102685
-0.000874234
-0.000725712
-0.000595134
-0.000505136
-0.000489846
-0.000598146
-0.000888577
-0.00137991
-0.00189204
-0.00203127
-0.00128288
0.0010805
0.0051417
0.0109101
0.018535
0.0276362
0.0367611
0.0429643
0.0430958
0.0389237
0.0338896
0.0291608
0.0250647
0.0216321
0.0188043
0.0164969
0.0146258
0.0131102
0.0118823
0.0108895
0.010082
0.00942436
0.00887076
0.00838211
0.00793028
0.00749659
0.00707535
0.00667503
0.00631244
0.00599849
0.00568785
-0.00341623
-0.003099
-0.00278724
-0.00243766
-0.00205474
-0.00165336
-0.00125677
-0.000876891
-0.000511549
-0.000153481
0.00020471
0.000569325
0.00094434
0.00133141
0.001729
0.00213148
0.00252797
0.00290105
0.00322451
0.00346237
0.00357064
0.0035005
0.00324849
0.00304225
0.00322431
0.00470062
0.0081805
0.0137475
0.0212141
0.030021
0.0388883
0.0449466
0.0452743
0.04142
0.0366857
0.0321659
0.0281662
0.0247235
0.0218039
0.0193489
0.0172924
0.0155679
0.0141183
0.0128967
0.0118612
0.0109758
0.0102079
0.00951962
0.00888425
0.00828546
0.00772557
0.00721777
0.00678866
0.00644658
0.00613959
-0.00298873
-0.00268708
-0.00236234
-0.0019695
-0.00148719
-0.000944997
-0.000380771
0.000182682
0.000739635
0.00129522
0.00185699
0.00243193
0.00302587
0.00364226
0.0042821
0.00494358
0.00562148
0.00630619
0.00698217
0.00762505
0.0081921
0.00861601
0.00884404
0.00884366
0.00868298
0.00933339
0.0117368
0.0163263
0.0230597
0.031257
0.0394297
0.0449665
0.0453006
0.0418363
0.0375718
0.0334726
0.0297779
0.026529
0.0237046
0.021267
0.019171
0.0173668
0.0158099
0.0144598
0.0132863
0.012254
0.0113385
0.0105103
0.00974593
0.00903813
0.00839037
0.00782382
0.0073583
0.00699704
0.00669057
-0.0024464
-0.00216459
-0.00183932
-0.00140536
-0.000840986
-0.000178871
0.000533927
0.00126118
0.00199132
0.00272629
0.00347423
0.0042437
0.00504233
0.00587657
0.00675107
0.00766893
0.0086316
0.00963734
0.010679
0.0117384
0.0127867
0.0137633
0.0145359
0.0148449
0.0145823
0.0145926
0.0159612
0.0193132
0.0248026
0.0317456
0.0388699
0.0436216
0.0437825
0.0407038
0.0369949
0.0334405
0.0301887
0.0272662
0.0246663
0.0223682
0.0203444
0.0185637
0.0169919
0.0155978
0.0143583
0.0132479
0.0122466
0.0113305
0.0104805
0.00969055
0.00897438
0.00835513
0.007867
0.00750519
0.00722024
-0.00180371
-0.00153969
-0.00121784
-0.000755785
-0.000131132
0.000631004
0.00146861
0.00233788
0.00321997
0.00411434
0.00502864
0.00597362
0.00695913
0.00799471
0.00908928
0.0102507
0.0114861
0.0127993
0.0141902
0.0156529
0.0171641
0.0186399
0.0198765
0.0205489
0.0203898
0.0200843
0.0206558
0.0228122
0.0267816
0.03222
0.0379297
0.041282
0.0412128
0.0385003
0.0353903
0.0324362
0.0296936
0.0271739
0.0248773
0.0227976
0.0209239
0.019239
0.0177213
0.0163485
0.0151041
0.0139766
0.0129391
0.0119748
0.0110823
0.0102564
0.00951142
0.00888078
0.00838228
0.00802361
0.00774503
-0.0010807
-0.000835123
-0.000518274
-4.08509e-05
0.000630929
0.0014676
0.00240554
0.00339284
0.00440333
0.00543389
0.00649209
0.00759019
0.00874029
0.00995516
0.011247
0.0126275
0.0141073
0.0156964
0.0174013
0.0192205
0.0211232
0.0230203
0.0246941
0.0257187
0.0257089
0.0252162
0.0251799
0.0263125
0.0289422
0.0327216
0.0365387
0.0386918
0.038231
0.0356951
0.0331827
0.0308157
0.0285879
0.0264917
0.0245314
0.0227115
0.0210327
0.01949
0.0180729
0.0167673
0.0155617
0.0144483
0.0134194
0.0124493
0.0115449
0.0107078
0.0099578
0.00932266
0.00883434
0.00848435
0.00821597
-0.000294607
-6.88393e-05
0.000239119
0.000724562
0.00142519
0.00231551
0.00332896
0.00440732
0.00552021
0.00666138
0.007838
0.00906317
0.0103513
0.011717
0.0131748
0.0147394
0.0164252
0.018246
0.0202107
0.0223183
0.0245424
0.026777
0.0287658
0.0300215
0.0301239
0.0294921
0.0290179
0.0293093
0.0306455
0.0328842
0.0352422
0.0362815
0.0349068
0.0327953
0.0308685
0.0288899
0.0271289
0.0254378
0.023812
0.0222619
0.0207965
0.0194197
0.0181289
0.0169187
0.0157815
0.0147138
0.0137145
0.012769
0.0118729
0.0110458
0.0103058
0.00968666
0.00921391
0.00887573
0.00862371
0.000535387
0.000741908
0.00103806
0.00152407
0.00223871
0.00315944
0.00422232
0.0053642
0.0065516
0.00777551
0.00904247
0.0103657
0.0117609
0.0132435
0.0148303
0.0165377
0.0183824
0.0203787
0.022538
0.0248611
0.0273162
0.0297858
0.031987
0.0333932
0.0335177
0.0327066
0.0317168
0.0311951
0.031467
0.0324027
0.0333632
0.0334254
0.032053
0.02995
0.0281272
0.0268408
0.0255133
0.0241939
0.0228797
0.0215877
0.0203333
0.0191268
0.0179723
0.0168697
0.0158162
0.0148116
0.0138567
0.0129533
0.0120886
0.0112772
0.0105574
0.00996157
0.00950766
0.00918854
0.008951
0.00139181
0.00158195
0.00186581
0.00234276
0.00305636
0.00398671
0.00507044
0.00624807
0.00748146
0.00875919
0.0100868
0.0114768
0.0129449
0.014508
0.0161829
0.0179868
0.0199361
0.0220465
0.0243294
0.0267852
0.0293793
0.0319837
0.0342862
0.0357186
0.0357373
0.0346283
0.0331604
0.0319379
0.0312609
0.0311032
0.0310659
0.0304299
0.0289514
0.0273554
0.026052
0.0248949
0.0238395
0.0228655
0.0218583
0.0208034
0.0197439
0.0186988
0.017677
0.0166831
0.015718
0.0147827
0.0138811
0.0130167
0.0121979
0.0114122
0.0107172
0.0101445
0.00971891
0.0094159
0.00919304
0.00225656
0.00243316
0.00270374
0.00316563
0.00386299
0.00477892
0.0058611
0.00704684
0.00829766
0.00960031
0.0109578
0.0123826
0.0138895
0.0154949
0.017215
0.0190666
0.0210656
0.0232269
0.0255616
0.028069
0.0307094
0.0333452
0.0356507
0.0370076
0.0368423
0.0354118
0.0334614
0.0316095
0.030185
0.0292329
0.0284594
0.0274479
0.0261055
0.0249067
0.0240365
0.0232879
0.0225073
0.021664
0.0207959
0.0199762
0.0191075
0.0182089
0.0173074
0.0164135
0.0155318
0.0146651
0.0138178
0.012996
0.0122109
0.0114701
0.0107946
0.0102495
0.00984425
0.00956411
0.00935467
0.00310555
0.00326872
0.00352593
0.00396678
0.00463581
0.00552362
0.00657998
0.00774874
0.00899042
0.0102901
0.0116492
0.0130778
0.0145896
0.0161996
0.0179231
0.019775
0.02177
0.0239216
0.026239
0.0287193
0.0313192
0.0338964
0.0361136
0.0373236
0.0369255
0.0351706
0.0328059
0.0304723
0.0285424
0.0270597
0.0258773
0.024754
0.0236755
0.0228914
0.0223675
0.0218832
0.0213263
0.0206839
0.0199692
0.0191979
0.018442
0.0177019
0.0169094
0.0161044
0.015296
0.0144905
0.0136927
0.0129103
0.0121531
0.0114539
0.0108067
0.0102821
0.00990197
0.00963813
0.00944593
0.00390596
0.00405773
0.00430089
0.00471676
0.00535162
0.00619874
0.0072125
0.00834374
0.00955377
0.0108258
0.0121594
0.0135629
0.0150481
0.0166279
0.0183155
0.0201242
0.0220661
0.0241524
0.0263901
0.0287736
0.0312576
0.0337031
0.0357675
0.0367945
0.0361797
0.0341693
0.0315324
0.0288977
0.0266253
0.0248699
0.0235517
0.0225143
0.0217645
0.0213351
0.0210763
0.0207901
0.0203898
0.0198731
0.0192681
0.0186084
0.0179099
0.0171862
0.0164842
0.0157883
0.0150423
0.0142811
0.0135277
0.0127798
0.0120509
0.0113678
0.0107643
0.0102591
0.00989751
0.00965618
0.00947652
0.00463595
0.00477675
0.00500627
0.00539921
0.00599397
0.00678823
0.00774964
0.00882543
0.00998373
0.0112067
0.0124916
0.0138447
0.0152752
0.016794
0.0184118
0.0201391
0.0219855
0.0239594
0.0260652
0.0282942
0.0306048
0.0328655
0.0347511
0.0356019
0.0348315
0.0326708
0.0298594
0.0270771
0.0247298
0.0229499
0.021688
0.0208788
0.0204473
0.0202706
0.0201706
0.0199923
0.0196861
0.0192574
0.0187287
0.0181283
0.0174854
0.0168196
0.0161303
0.0154284
0.0147194
0.0140279
0.0133343
0.0126204
0.0119122
0.0112462
0.0106503
0.0101828
0.00985225
0.00962473
0.00945878
0.00527845
0.00541299
0.00562932
0.00599491
0.00654742
0.00728546
0.00817919
0.00918845
0.0102796
0.011436
0.0126531
0.0139345
0.0152874
0.0167199
0.0182399
0.0198553
0.0215728
0.0233978
0.0253323
0.0273665
0.0294615
0.0315065
0.0332015
0.0339138
0.0330607
0.030859
0.0280632
0.0253236
0.0230416
0.0213838
0.0203518
0.0198511
0.0196882
0.0196682
0.0196289
0.0194793
0.0192003
0.0188071
0.0183225
0.0177635
0.0171517
0.0165085
0.01585
0.0151815
0.0145013
0.0138054
0.0131061
0.0124052
0.0116282
0.0111099
0.0105321
0.0100856
0.00977293
0.00956152
0.0094085
0.00582228
0.00594779
0.00615029
0.00648935
0.00699547
0.00767402
0.00849636
0.00942917
0.0104427
0.0115197
0.0126544
0.0138484
0.0151061
0.0164331
0.0178347
0.0193159
0.0208804
0.0225308
0.0242668
0.0260779
0.027935
0.0297522
0.0312778
0.0319097
0.0310805
0.0289742
0.026313
0.0237484
0.0216793
0.0202927
0.019588
0.0193849
0.0194107
0.0194506
0.0193976
0.0192151
0.018911
0.0185089
0.0180262
0.0174809
0.016888
0.016261
0.0156116
0.01495
0.0142799
0.013604
0.0129222
0.0122433
0.0116103
0.0109817
0.0101624
0.00996501
0.00971258
0.00947975
0.00933359
0.00624693
0.0063659
0.00655772
0.00686774
0.0073299
0.00794536
0.00869483
0.00954758
0.0104771
0.0114668
0.0125099
0.0136058
0.0147567
0.0159658
0.0172356
0.0185685
0.0199652
0.0214258
0.0229476
0.0245213
0.0261299
0.0277202
0.0290928
0.0296975
0.0289761
0.0270851
0.0246826
0.0224142
0.0206985
0.0196984
0.0193421
0.0193816
0.0195045
0.0195255
0.0193993
0.0191376
0.0187748
0.0183289
0.0178201
0.017262
0.0166663
0.0160435
0.0154015
0.0147469
0.0140818
0.013407
0.0127271
0.0120477
0.0113823
0.0107867
0.0103479
0.0099947
0.00964005
0.00930502
0.00924275
0.00655268
0.00666599
0.00684509
0.00712972
0.00754661
0.0081009
0.00877774
0.00954993
0.0103927
0.0112911
0.0122375
0.0132295
0.0142675
0.0153521
0.0164837
0.0176617
0.0188846
0.02015
0.0214529
0.0227867
0.0241473
0.025519
0.0267513
0.0273602
0.0268205
0.0252407
0.0232447