/*--------------------------------*- C++ -*----------------------------------*\
  =========                 |
  \\      /  F ield         | OpenFOAM: The Open Source CFD Toolbox
   \\    /   O peration     | Website:  https://openfoam.org
    \\  /    A nd           | Version:  7
     \\/     M anipulation  |
\*---------------------------------------------------------------------------*/
FoamFile
{
    version     2.0;
    format      ascii;
    class       surfaceScalarField;
    location    "70";
    object      phi;
}
// * * * * * * * * * * * * * * * * * * * * * * * * * * * * * * * * * * * * * //

dimensions      [0 3 -1 0 0 0 0];

internalField   nonuniform List<scalar> 
34768
(
8.19237e-05
0.00097003
-0.000149646
-4.4593e-05
2.59339e-05
0.000920966
-1.58487e-05
1.08791e-05
0.000907476
-8.28567e-06
6.73419e-06
0.000904256
-5.36241e-06
4.62643e-06
0.00090354
-4.30699e-06
3.92356e-06
0.000903186
-3.64266e-06
3.5272e-06
0.000903117
-3.47005e-06
3.44739e-06
0.000903124
-3.16243e-06
3.09614e-06
0.000903266
-3.25734e-06
3.02812e-06
0.000903328
-3.12063e-06
3.0171e-06
0.000903301
-3.0323e-06
3.24767e-06
0.000903281
-3.07996e-06
3.00973e-06
0.000903565
-3.25577e-06
3.19723e-06
0.000903553
-3.2545e-06
3.40567e-06
0.000903541
-3.37284e-06
3.33254e-06
0.000903832
-3.60832e-06
3.57565e-06
0.000903722
-3.55949e-06
3.73392e-06
0.000903814
-3.72506e-06
3.70604e-06
0.000903905
-3.90424e-06
3.79148e-06
0.000904098
-4.19604e-06
4.78906e-06
0.00090409
-5.59973e-06
6.39819e-06
0.000905183
-5.26423e-06
4.40752e-06
0.000904856
-3.65859e-06
4.11631e-06
0.00090459
-5.3912e-06
-3.27049e-07
0.000909264
-7.51565e-07
1.31554e-06
0.00090861
-1.22576e-06
8.71401e-07
0.000909417
-5.84901e-07
2.39077e-08
0.000909624
5.27285e-07
-8.23217e-07
0.000909355
1.1727e-06
-1.29785e-06
0.000909185
1.31957e-06
-1.377e-06
0.000909126
1.37174e-06
-1.36229e-06
0.000909049
1.34119e-06
-1.33573e-06
0.000909052
1.26941e-06
-1.26854e-06
0.000909067
1.25787e-06
-1.26225e-06
0.000909072
1.25765e-06
-1.26771e-06
0.000909078
1.26984e-06
-1.28607e-06
0.000909085
1.29524e-06
-1.41801e-06
0.000909192
1.73476e-06
-1.16467e-06
0.0009099
6.89799e-07
-5.27342e-07
0.000910309
4.61086e-07
-4.06641e-07
0.000910318
4.49632e-07
-5.04202e-07
0.000910228
5.57845e-07
-6.23134e-07
0.00091024
6.89361e-07
-6.67849e-07
0.000910054
7.49807e-07
-8.45376e-07
0.000910072
9.47706e-07
-1.06619e-06
0.000909997
1.19628e-06
-1.347e-06
0.00090993
1.5165e-06
-1.71444e-06
0.000909978
1.94262e-06
-2.31286e-06
0.000910052
2.53255e-06
-2.91843e-06
0.000910069
3.38665e-06
-4.06256e-06
0.00091026
4.67257e-06
-5.54305e-06
0.000910455
6.56618e-06
-7.6778e-06
0.000910597
8.70724e-06
-6.60165e-06
0.000907383
-4.12408e-06
-2.68633e-05
0.00094048
-0.000827811
0.000143722
0.000704056
-1.99042e-05
-0.000972625
-0.000148565
0.000116733
0.00100453
-0.000925108
-9.00025e-05
7.05932e-05
0.000944593
-0.000911642
-5.64247e-05
4.59583e-05
0.000922182
-0.000907241
-3.79374e-05
3.18931e-05
0.000913358
-0.000905523
-2.71365e-05
2.33815e-05
0.000909349
-0.000904578
-1.98087e-05
1.76154e-05
0.00090684
-0.000904048
-1.53069e-05
1.34574e-05
0.000905964
-0.000903922
-1.17398e-05
1.04625e-05
0.000905263
-0.000903807
-9.33265e-06
8.27263e-06
0.000904928
-0.000903856
-7.21046e-06
6.57517e-06
0.000904549
-0.000903744
-5.70884e-06
5.04055e-06
0.000904467
-0.000903657
-4.5239e-06
3.88529e-06
0.000904346
-0.000903886
-3.28872e-06
2.9562e-06
0.000904265
-0.000903825
-2.56021e-06
2.11693e-06
0.00090431
-0.000903771
-2.00925e-06
1.64512e-06
0.000904171
-0.000903921
-1.31661e-06
1.12358e-06
0.000904142
-0.000903873
-1.06957e-06
8.43083e-07
0.000904119
-0.000903928
-7.59082e-07
5.94509e-07
0.000904101
-0.000903983
-6.78171e-07
6.72779e-07
0.000903987
-0.00090424
-4.20706e-07
4.70333e-07
0.000904176
-0.000903999
-7.80026e-07
8.18102e-08
0.00090467
-0.00090704
-2.31035e-07
3.09043e-06
0.000904139
-0.000903367
-1.96552e-06
-3.59118e-06
0.000908867
-0.00090787
2.36936e-06
-2.31249e-06
0.000907742
-0.000908324
2.32334e-06
-2.31973e-06
0.000908235
-0.000909595
2.23949e-06
-1.93966e-06
0.000909195
-0.000910075
1.72479e-06
-2.07719e-06
0.000910315
-0.000909494
2.34337e-06
-2.22402e-06
0.000909248
-0.00090929
1.9127e-06
-2.30487e-06
0.000909544
-0.000909065
2.34262e-06
-2.31468e-06
0.000908888
-0.000908925
2.091e-06
-1.97064e-06
0.000908647
-0.000908932
1.75448e-06
-1.66965e-06
0.00090868
-0.000908973
1.4385e-06
-1.39517e-06
0.000908756
-0.000908999
1.35613e-06
-1.26043e-06
0.000908723
-0.000909029
1.16933e-06
-1.22559e-06
0.000908901
-0.000909062
1.18795e-06
-1.30092e-06
0.000908988
-0.000909499
1.42145e-06
-1.69482e-06
0.000909584
-0.000909741
2.27889e-06
-2.61866e-06
0.00090989
-0.000910086
2.47285e-06
-2.58417e-06
0.000910008
-0.000910337
2.51504e-06
-2.70548e-06
0.000910339
-0.000910395
2.92218e-06
-3.30207e-06
0.000910588
-0.000910363
3.618e-06
-4.10318e-06
0.000910665
-0.000910348
4.53778e-06
-5.25153e-06
0.000910882
-0.000910356
5.83369e-06
-6.71119e-06
0.000911058
-0.0009104
7.48431e-06
-8.67896e-06
0.000911424
-0.0009106
9.70972e-06
-1.11045e-05
0.000911829
-0.00091079
1.24977e-05
-1.44258e-05
0.000912557
-0.00091123
1.63521e-05
-1.88336e-05
0.000913556
-0.000911831
2.15812e-05
-2.51994e-05
0.000915299
-0.000913001
2.93828e-05
-3.46394e-05
0.000918113
-0.000915031
4.114e-05
-4.94353e-05
0.000923187
-0.0009188
6.03725e-05
-7.46847e-05
0.000932983
-0.000924559
9.42526e-05
-0.000124569
0.000954769
-0.000978386
0.000165599
-0.000143527
0.000956241
-0.000600066
8.48503e-05
0.000519492
-4.20381e-06
-0.00102215
-0.000134177
0.000131532
0.00102488
-0.000962978
-0.000111673
9.34124e-05
0.000981313
-0.000933424
-7.92965e-05
6.79731e-05
0.000944821
-0.000920654
-5.86854e-05
5.09443e-05
0.000928469
-0.000914392
-4.42743e-05
3.88303e-05
0.000919909
-0.000910819
-3.40559e-05
2.99814e-05
0.000914966
-0.000908303
-2.64222e-05
2.27492e-05
0.000912047
-0.000907283
-2.01311e-05
1.78667e-05
0.000909617
-0.000906417
-1.56427e-05
1.3682e-05
0.000908446
-0.000905926
-1.18939e-05
1.03083e-05
0.000907578
-0.000905408
-9.05179e-06
7.65549e-06
0.000906869
-0.000905302
-6.35794e-06
5.49384e-06
0.000906227
-0.000904967
-4.30982e-06
3.43818e-06
0.000905896
-0.00090478
-2.73662e-06
2.03117e-06
0.000905537
-0.000904723
-1.29041e-06
8.34152e-07
0.000905226
-0.000904386
-3.40382e-07
-7.96141e-08
0.000904845
-0.000904362
5.35588e-07
-8.27064e-07
0.000904685
-0.000904247
1.05198e-06
-1.12181e-06
0.000904338
-0.00090424
1.52053e-06
-1.5739e-06
0.000904303
-0.00090394
1.35178e-06
-1.99487e-06
0.000904581
-0.000904948
2.35476e-06
-1.29379e-06
0.000903871
-0.000906187
3.37748e-06
-5.03406e-06
0.000907813
-0.000908005
4.53183e-06
-4.20054e-06
0.00090763
-0.000907824
3.60878e-06
-3.60312e-06
0.00090776
-0.000908038
3.49523e-06
-3.51402e-06
0.000907984
-0.000908552
3.12112e-06
-2.69441e-06
0.000908038
-0.000910538
2.10178e-06
-2.24848e-06
0.000910585
-0.000909045
2.31408e-06
-2.08504e-06
0.000908702
-0.000909686
1.63323e-06
-1.41745e-06
0.000909345
-0.000908674
1.33117e-06
-1.18724e-06
0.000908393
-0.00090838
7.86607e-07
-5.01685e-07
0.000907948
-0.000908451
1.43594e-07
6.71276e-08
0.000908085
-0.000908495
-3.98361e-07
4.22768e-07
0.000908309
-0.00090873
-7.14329e-07
7.41039e-07
0.000908535
-0.000908883
-8.32756e-07
7.53532e-07
0.000908789
-0.000909052
-7.36209e-07
4.42985e-07
0.000909168
-0.000910235
1.90519e-07
-1.50293e-06
0.000911369
-0.000910038
1.362e-06
-1.40451e-06
0.000909901
-0.00091016
1.69666e-06
-2.17614e-06
0.00091046
-0.000910606
2.51307e-06
-3.14283e-06
0.000911057
-0.000910986
3.63998e-06
-4.4373e-06
0.000911606
-0.000911315
5.21641e-06
-6.20715e-06
0.000912131
-0.000911716
7.19955e-06
-8.42142e-06
0.000912768
-0.000912225
9.77391e-06
-1.12833e-05
0.000913568
-0.000912796
1.28637e-05
-1.48443e-05
0.000914615
-0.000913718
1.68556e-05
-1.93333e-05
0.000916038
-0.000914938
2.20315e-05
-2.50973e-05
0.000917851
-0.000916912
2.86222e-05
-3.2677e-05
0.00092082
-0.000919903
3.7405e-05
-4.30269e-05
0.000925383
-0.000924996
4.95631e-05
-5.7418e-05
0.000932716
-0.000933734
6.66281e-05
-7.79375e-05
0.000944914
-0.0009498
9.16189e-05
-0.000108707
0.000966769
-0.000985385
0.000130681
-0.000155169
0.00100978
-0.000906396
0.000157821
-9.17688e-05
0.000840269
-0.00045899
4.89562e-05
0.000412953
-2.83913e-06
-0.00101427
-0.000100606
0.000120221
0.000994732
-0.000997922
-0.000114297
0.000100785
0.00101151
-0.000955981
-8.79473e-05
7.73459e-05
0.000966657
-0.000936516
-6.82217e-05
6.04505e-05
0.000944362
-0.000925838
-5.3609e-05
4.76168e-05
0.000931907
-0.000919498
-4.22749e-05
3.75612e-05
0.000924288
-0.000915479
-3.33196e-05
2.95559e-05
0.000919319
-0.000912824
-2.62413e-05
2.31961e-05
0.000915945
-0.000910604
-2.03097e-05
1.73139e-05
0.000913676
-0.000909422
-1.52231e-05
1.30681e-05
0.000911651
-0.000908484
-1.09664e-05
9.36618e-06
0.000910158
-0.000907574
-7.68854e-06
6.18078e-06
0.000909152
-0.000906915
-4.77793e-06
3.52393e-06
0.000908237
-0.000906558
-2.26204e-06
1.33349e-06
0.000907548
-0.000905864
-4.92056e-07
-3.2957e-07
0.000906742
-0.000905514
1.1671e-06
-1.89483e-06
0.000906291
-0.000905091
2.33561e-06
-2.77618e-06
0.000905573
-0.000904788
3.2283e-06
-3.58941e-06
0.00090518
-0.000904303
3.55662e-06
-4.34241e-06
0.000905109
-0.000904932
4.72718e-06
-3.84381e-06
0.000904057
-0.000906099
6.07435e-06
-7.80257e-06
0.000907823
-0.000907365
7.35891e-06
-7.27964e-06
0.000907267
-0.000907173
6.75189e-06
-6.34194e-06
0.000906731
-0.000907247
5.93977e-06
-5.20953e-06
0.00090647
-0.000908335
4.52786e-06
-4.53428e-06
0.000908282
-0.000907249
3.82881e-06
-3.16287e-06
0.000906508
-0.000910388
2.54682e-06
-2.2281e-06
0.000909981
-0.000908226
2.01711e-06
-1.49204e-06
0.000907599
-0.000908368
6.67762e-07
9.90388e-08
0.000907488
-0.000908451
-1.50162e-07
4.20427e-07
0.000908056
-0.000907508
-1.00155e-06
1.48543e-06
0.00090689
-0.000907724
-2.02376e-06
2.39965e-06
0.000907205
-0.000908064
-2.73417e-06
3.06355e-06
0.000907585
-0.00090841
-3.3257e-06
3.403e-06
0.000908176
-0.000908795
-3.50911e-06
3.52312e-06
0.00090862
-0.000909313
-3.36194e-06
2.90362e-06
0.000909607
-0.000912361
-2.06779e-06
1.62885e-06
0.000912633
-0.000910252
-1.20537e-06
5.76242e-07
0.000910713
-0.000910977
-5.98193e-08
-6.66142e-07
0.000911535
-0.000911655
1.38691e-06
-2.42298e-06
0.000912524
-0.000912506
3.36426e-06
-4.42883e-06
0.000913405
-0.00091326
5.6148e-06
-7.03699e-06
0.00091452
-0.000914266
8.60168e-06
-1.02208e-05
0.000915727
-0.000915397
1.21131e-05
-1.41892e-05
0.000917318
-0.000916761
1.63785e-05
-1.89956e-05
0.000919227
-0.00091863
2.16836e-05
-2.48613e-05
0.000921661
-0.000921379
2.81914e-05
-3.21007e-05
0.000925148
-0.000925364
3.62761e-05
-4.1159e-05
0.000930111
-0.000931364
4.6569e-05
-5.26635e-05
0.000937328
-0.000940656
5.96116e-05
-6.7602e-05
0.000948523
-0.000955962
7.66523e-05
-8.69184e-05
0.00096611
-0.000982472
9.82618e-05
-0.000112384
0.000996486
-0.00102457
0.000127095
-0.000131188
0.00102857
-0.000771059
0.000102535
-3.94769e-05
0.000707923
-0.000377231
2.96973e-05
0.000349308
-1.68449e-06
-0.000969988
-7.17909e-05
9.93589e-05
0.000942506
-0.00102196
-0.00010482
9.79986e-05
0.00102886
-0.000976593
-8.8106e-05
7.86247e-05
0.00098615
-0.000951857
-7.03935e-05
6.32325e-05
0.000959095
-0.000937991
-5.67383e-05
5.09772e-05
0.00094383
-0.000929144
-4.56883e-05
4.08935e-05
0.000934018
-0.000923307
-3.64663e-05
3.25464e-05
0.000927308
-0.000919151
-2.88141e-05
2.54185e-05
0.000922628
-0.000916239
-2.23563e-05
1.95777e-05
0.000919099
-0.000914079
-1.69851e-05
1.4534e-05
0.000916611
-0.000912322
-1.18322e-05
9.6465e-06
0.000914587
-0.000910904
-7.79419e-06
6.02923e-06
0.000912746
-0.000909916
-4.07757e-06
2.70037e-06
0.000911367
-0.000908576
-1.32958e-06
-8.50809e-08
0.00091006
-0.000907738
1.29498e-06
-2.45751e-06
0.000908964
-0.000907062
3.41513e-06
-4.03246e-06
0.000907736
-0.000906327
5.0436e-06
-5.52122e-06
0.000906853
-0.00090522
5.78561e-06
-7.02736e-06
0.0009065
-0.000905635
7.54332e-06
-6.74467e-06
0.000904864
-0.000906401
9.24806e-06
-1.12782e-05
0.000908446
-0.000907355
1.08258e-05
-1.08738e-05
0.000907405
-0.000906858
1.03873e-05
-9.84853e-06
0.000906306
-0.000906302
9.36158e-06
-8.64756e-06
0.000905561
-0.000905801
7.84789e-06
-7.12855e-06
0.00090504
-0.000907628
6.30938e-06
-5.65352e-06
0.000906916
-0.000905735
4.60282e-06
-3.60131e-06
0.000904663
-0.000909525
2.68258e-06
-2.10824e-06
0.000908866
-0.000906923
1.41399e-06
-7.03352e-07
0.000906114
-0.000906756
-3.42958e-07
1.18364e-06
0.000905805
-0.000907499
-1.81311e-06
2.47502e-06
0.000906715
-0.000906234
-3.33403e-06
4.0649e-06
0.000905372
-0.000906677
-4.82264e-06
5.38236e-06
0.000905977
-0.000907226
-5.98982e-06
6.355e-06
0.000906714
-0.000907895
-6.71946e-06
6.86939e-06
0.000907592
-0.000908629
-7.01433e-06
6.9385e-06
0.000908548
-0.000910814
-6.6543e-06
5.54446e-06
0.000911763
-0.000912053
-4.82376e-06
4.76883e-06
0.000911945
-0.000911146
-4.29888e-06
3.59931e-06
0.000911682
-0.000912293
-2.78124e-06
1.83216e-06
0.000913079
-0.000913415
-8.58598e-07
-4.50343e-07
0.000914563
-0.00091475
1.6902e-06
-3.1703e-06
0.000916071
-0.000916044
4.69492e-06
-6.57068e-06
0.000917764
-0.000917669
8.4082e-06
-1.05106e-05
0.00091962
-0.000919532
1.28013e-05
-1.5278e-05
0.000921861
-0.00092189
1.78757e-05
-2.07904e-05
0.000924662
-0.000924878
2.38721e-05
-2.75198e-05
0.000928388
-0.000929168
3.11877e-05
-3.52736e-05
0.000933121
-0.000934924
3.96593e-05
-4.46415e-05
0.00093978
-0.0009434
5.0015e-05
-5.59835e-05
0.000949248
-0.000956089
6.19467e-05
-6.82195e-05
0.000962247
-0.000975072
7.59493e-05
-8.45908e-05
0.000983605
-0.00100855
9.42822e-05
-0.000104202
0.00101837
-0.00102371
0.000109266
-9.81113e-05
0.00101247
-0.000653938
6.24037e-05
-1.7673e-05
0.000609127
-0.000326988
1.92142e-05
0.000308952
-1.07838e-06
-0.000914385
-5.1326e-05
7.88593e-05
0.000886945
-0.00103251
-9.10853e-05
9.0355e-05
0.00103332
-0.000994478
-8.37592e-05
7.61786e-05
0.00100214
-0.000966035
-6.9121e-05
6.28059e-05
0.00097243
-0.000949959
-5.69981e-05
5.19839e-05
0.000955055
-0.000938795
-4.65632e-05
4.15205e-05
0.000943921
-0.000931412
-3.6638e-05
3.26e-05
0.000935535
-0.000926067
-2.87789e-05
2.52416e-05
0.00092969
-0.000922164
-2.19904e-05
1.8991e-05
0.00092525
-0.000919165
-1.61481e-05
1.35322e-05
0.000921867
-0.000916885
-1.11556e-05
8.88438e-06
0.000919241
-0.000914924
-6.93959e-06
4.7809e-06
0.000917166
-0.000913047
-2.63742e-06
7.77937e-07
0.000914987
-0.000911662
9.68086e-07
-2.54013e-06
0.000913309
-0.000910193
3.99598e-06
-5.18206e-06
0.000911449
-0.000908998
6.54996e-06
-7.55182e-06
0.000910062
-0.000907343
8.12238e-06
-9.73679e-06
0.000909011
-0.000907214
1.0703e-05
-1.01096e-05
0.000906664
-0.00090764
1.32145e-05
-1.53687e-05
0.000909826
-0.000908024
1.50274e-05
-1.53345e-05
0.00090835
-0.000906908
1.48704e-05
-1.4578e-05
0.000906621
-0.000905966
1.41232e-05
-1.33303e-05
0.000905164
-0.000904762
1.24628e-05
-1.15966e-05
0.000903873
-0.000904087
1.05127e-05
-9.52678e-06
0.000903062
-0.000906015
8.70047e-06
-7.32954e-06
0.00090459
-0.000903432
5.85536e-06
-4.42398e-06
0.00090193
-0.000908086
3.02263e-06
-1.92794e-06
0.000906906
-0.000905001
8.42622e-07
4.98618e-07
0.00090356
-0.000904739
-1.87529e-06
3.32877e-06
0.000903173
-0.000905879
-4.82443e-06
5.37509e-06
0.000905203
-0.000904438
-6.3941e-06
7.4193e-06
0.000903278
-0.000905229
-8.46133e-06
9.27933e-06
0.000904267
-0.0009063
-9.991e-06
1.06298e-05
0.000905511
-0.000907323
-1.11332e-05
1.14826e-05
0.000906818
-0.000908638
-1.15928e-05
1.12446e-05
0.000908826
-0.000913312
-1.00576e-05
8.81147e-06
0.000914395
-0.000911875
-9.40697e-06
9.24282e-06
0.000911875
-0.000912582
-8.53776e-06
7.67583e-06
0.000913281
-0.000914153
-6.77079e-06
5.51179e-06
0.00091525
-0.000915814
-4.20764e-06
2.752e-06
0.00091711
-0.000917611
-1.24818e-06
-5.07079e-07
0.000919209
-0.000919608
2.41884e-06
-4.48388e-06
0.00092152
-0.000921797
6.61628e-06
-9.11214e-06
0.000924145
-0.000924511
1.15911e-05
-1.43434e-05
0.00092712
-0.000927736
1.73033e-05
-2.04527e-05
0.000930748
-0.000931854
2.38398e-05
-2.74384e-05
0.000935321
-0.000937167
3.12047e-05
-3.54194e-05
0.000941256
-0.000944518
3.97383e-05
-4.3838e-05
0.000948497
-0.000953902
4.7987e-05
-5.33497e-05
0.00095915
-0.000968875
5.91301e-05
-6.53882e-05
0.000975025
-0.000991508
7.19411e-05
-7.9214e-05
0.00099868
-0.00102595
8.66154e-05
-9.20997e-05
0.00103134
-0.000997212
8.9742e-05
-7.21294e-05
0.000979516
-0.000572488
4.0171e-05
-1.01002e-05
0.000542336
-0.000293944
1.33695e-05
0.000281426
-7.46465e-07
-0.000860638
-3.76781e-05
6.22929e-05
0.000836123
-0.00103167
-7.72218e-05
8.07637e-05
0.00102821
-0.00100905
-7.73338e-05
7.14228e-05
0.00101504
-0.000978357
-6.52633e-05
5.94688e-05
0.000984235
-0.00096022
-5.42809e-05
4.93701e-05
0.000965217
-0.000948383
-4.46901e-05
4.04015e-05
0.000952759
-0.000940123
-3.62872e-05
3.24226e-05
0.000944077
-0.000934145
-2.87069e-05
2.54282e-05
0.000937514
-0.000928484
-2.1249e-05
1.72887e-05
0.000932535
-0.000924644
-1.30401e-05
1.02339e-05
0.000927542
-0.000921489
-7.54026e-06
5.04064e-06
0.00092408
-0.000919006
-2.74983e-06
6.45633e-07
0.000921199
-0.000917039
1.14756e-06
-2.65546e-06
0.000918632
-0.000914964
3.95083e-06
-5.67248e-06
0.000916766
-0.000913209
7.77935e-06
-9.39724e-06
0.000914902
-0.000910909
1.05781e-05
-1.26813e-05
0.00091308
-0.000910237
1.41234e-05
-1.38625e-05
0.000910036
-0.000910112
1.75165e-05
-1.91436e-05
0.000911788
-0.000910187
1.95683e-05
-2.05819e-05
0.000911239
-0.000908044
2.05906e-05
-2.05164e-05
0.000907995
-0.000906181
2.02406e-05
-1.96767e-05
0.000905628
-0.000904294
1.87019e-05
-1.79166e-05
0.000903505
-0.000902786
1.67558e-05
-1.54681e-05
0.000901479
-0.000902351
1.3989e-05
-1.26628e-05
0.000900987
-0.000902309
1.16027e-05
-9.49875e-06
0.000900152
-0.00090013
7.37182e-06
-5.36558e-06
0.000898052
-0.000905526
3.38339e-06
-1.72219e-06
0.000903777
-0.000901963
-3.40661e-08
1.9551e-06
0.000899937
-0.000900801
-3.99226e-06
6.01687e-06
0.000898659
-0.00090544
-8.27859e-06
9.0489e-06
0.000904539
-0.000902133
-1.03953e-05
1.18072e-05
0.00090058
-0.000903237
-1.32168e-05
1.435e-05
0.000901953
-0.000904797
-1.54237e-05
1.61831e-05
0.00090388
-0.000906533
-1.6864e-05
1.72393e-05
0.000905996
-0.000909776
-1.75318e-05
1.70242e-05
0.000910119
-0.000913992
-1.59418e-05
1.60407e-05
0.000913726
-0.000912311
-1.57592e-05
1.50837e-05
0.00091282
-0.000914143
-1.42357e-05
1.31045e-05
0.000915109
-0.000916431
-1.20066e-05
1.05351e-05
0.00091774
-0.000918704
-9.10176e-06
7.30402e-06
0.000920343
-0.000921113
-5.54737e-06
3.43374e-06
0.000923072
-0.000923635
-1.36167e-06
-1.06314e-06
0.00092591
-0.000926585
3.44938e-06
-6.08417e-06
0.000929075
-0.000929904
8.79099e-06
-1.18507e-05
0.000932825
-0.000933903
1.48917e-05
-1.82899e-05
0.00093717
-0.000938881
2.16829e-05
-2.54408e-05
0.000942514
-0.000944965
2.80892e-05
-3.15189e-05
0.000948276
-0.000952804
3.5895e-05
-4.03464e-05
0.000957142
-0.000964424
4.50563e-05
-4.9856e-05
0.000969116
-0.000980728
5.51629e-05
-6.06061e-05
0.00098607
-0.00100527
6.64239e-05
-7.2385e-05
0.00101114
-0.0010347
7.76884e-05
-7.94788e-05
0.0010364
-0.000960962
7.28053e-05
-5.4132e-05
0.000942208
-0.000517297
2.78934e-05
-6.84095e-06
0.000496165
-0.000270742
9.83426e-06
0.000261568
-5.47211e-07
-0.000813385
-2.84194e-05
4.95155e-05
0.000792396
-0.00102319
-6.47128e-05
7.08193e-05
0.00101717
-0.00102029
-6.97747e-05
6.54905e-05
0.00102465
-0.000989706
-6.01889e-05
5.49061e-05
0.000995074
-0.000970008
-4.99976e-05
4.54106e-05
0.000974683
-0.000957102
-4.09932e-05
3.6801e-05
0.000961384
-0.000947851
-3.28267e-05
2.89412e-05
0.000951828
-0.000940965
-2.53592e-05
2.17507e-05
0.000944667
-0.000935684
-1.85413e-05
1.53011e-05
0.000939019
-0.000931637
-1.23507e-05
9.57436e-06
0.000934508
-0.000928192
-6.87973e-06
4.25572e-06
0.000930911
-0.000923487
-5.8968e-07
-3.10148e-06
0.000927271
-0.000920533
6.69352e-06
-1.02029e-05
0.000924133
-0.000917967
1.3194e-05
-1.50777e-05
0.000919937
-0.000915894
1.65352e-05
-1.71889e-05
0.00091663
-0.000915752
1.65879e-05
-1.42862e-05
0.000913526
-0.00091411
2.21517e-05
-2.44047e-05
0.000916431
-0.0009125
2.53689e-05
-2.63814e-05
0.000913571
-0.000911296
2.62642e-05
-2.62137e-05
0.000911293
-0.000908127
2.71117e-05
-2.73559e-05
0.000908405
-0.000905
2.69437e-05
-2.62932e-05
0.000904369
-0.000902423
2.52654e-05
-2.39652e-05
0.000901126
-0.000899981
2.24167e-05
-2.06838e-05
0.000898234
-0.000899274
1.87175e-05
-1.66399e-05
0.000897163
-0.000898078
1.45626e-05
-1.21376e-05
0.0008956
-0.000895708
9.44102e-06
-6.71616e-06
0.000892911
-0.000901737
3.96123e-06
-1.51442e-06
0.000899199
-0.000897618
-1.0137e-06
3.7248e-06
0.000894798
-0.000896358
-6.56765e-06
9.20578e-06
0.000893596
-0.000902947
-1.167e-05
1.34502e-05
0.000901028
-0.00089883
-1.56093e-05
1.7577e-05
0.000896712
-0.000900564
-1.94454e-05
2.09856e-05
0.000898865
-0.00090292
-2.2386e-05
2.35127e-05
0.000901628
-0.000905472
-2.42992e-05
2.46175e-05
0.000904984
-0.000911218
-2.3714e-05
2.16618e-05
0.000913099
-0.000913182
-2.29384e-05
2.36534e-05
0.000912295
-0.00091348
-2.3361e-05
2.24404e-05
0.000914231
-0.000916253
-2.14153e-05
2.00783e-05
0.000917424
-0.000919144
-1.87557e-05
1.71407e-05
0.000920597
-0.000921984
-1.5451e-05
1.32866e-05
0.000923991
-0.000925033
-1.13595e-05
8.97504e-06
0.000927266
-0.000928281
-6.53126e-06
3.94956e-06
0.000930717
-0.00093185
-1.20922e-06
-1.65738e-06
0.000934576
-0.000935801
4.68193e-06
-7.82474e-06
0.000938811
-0.000940557
1.08208e-05
-1.31068e-05
0.000942717
-0.000945094
1.63802e-05
-2.00681e-05
0.000948662
-0.000952207
2.38235e-05
-2.78949e-05
0.000956166
-0.000961526
3.1939e-05
-3.6191e-05
0.000965672
-0.000973884
4.0646e-05
-4.53183e-05
0.000978456
-0.000991298
5.01221e-05
-5.52962e-05
0.000996378
-0.00101663
6.10646e-05
-6.62334e-05
0.00102171
-0.00103678
6.96912e-05
-6.942e-05
0.00103642
-0.000923889
6.14387e-05
-4.39604e-05
0.000906334
-0.000477926
2.22529e-05
-5.93669e-06
0.000461534
-0.00025362
7.44658e-06
0.000246711
-4.16974e-07
-0.000773234
-2.19057e-05
3.94719e-05
0.000755781
-0.00100997
-5.38286e-05
6.13935e-05
0.00100249
-0.00102823
-6.25141e-05
5.95735e-05
0.00103126
-0.00100008
-5.50941e-05
5.02507e-05
0.00100501
-0.000979641
-4.56215e-05
4.15756e-05
0.000983776
-0.000965557
-3.71128e-05
3.29443e-05
0.000969817
-0.000955637
-2.87371e-05
2.4684e-05
0.000959784
-0.000948246
-2.03633e-05
1.68236e-05
0.000951881
-0.000942271
-1.33291e-05
9.97723e-06
0.00094572
-0.000937434
-6.77589e-06
3.7195e-06
0.000940588
-0.000933506
-8.17668e-07
-1.93425e-06
0.000936356
-0.000930346
4.4195e-06
-6.54054e-06
0.000932564
-0.000926533
9.51671e-06
-1.26308e-05
0.000929743
-0.000923068
1.45224e-05
-1.68443e-05
0.000925483
-0.000920959
2.03804e-05
-2.18646e-05
0.000922534
-0.000915357
2.20231e-05
-3.18314e-05
0.00092525
-0.000917066
3.2302e-05
-3.39839e-05
0.000918826
-0.000914107
3.46372e-05
-3.52296e-05
0.000914769
-0.000911435
3.55721e-05
-3.52167e-05
0.000911139
-0.000908766
3.43749e-05
-3.51777e-05
0.000909614
-0.000903455
3.56457e-05
-3.5092e-05
0.000902932
-0.000899724
3.37881e-05
-3.21317e-05
0.000898081
-0.000896273
3.01512e-05
-2.78197e-05
0.000893936
-0.00089478
2.51934e-05
-2.23673e-05
0.000891926
-0.000892786
1.94403e-05
-1.61232e-05
0.00088942
-0.000889695
1.24611e-05
-8.69113e-06
0.000885853
-0.000896238
4.84974e-06
-1.33498e-06
0.00089263
-0.000891559
-2.28419e-06
6.05477e-06
0.000887673
-0.000890444
-9.95314e-06
1.36146e-05
0.00088665
-0.000898681
-1.70477e-05
1.99675e-05
0.000895614
-0.000894351
-2.26384e-05
2.52434e-05
0.000891586
-0.000897028
-2.77188e-05
2.97357e-05
0.000894841
-0.000900381
-3.15243e-05
3.28517e-05
0.000898878
-0.000904807
-3.36629e-05
3.26415e-05
0.00090565
-0.000914066
-3.09357e-05
3.25192e-05
0.000912304
-0.000911847
-3.3898e-05
3.35874e-05
0.000911981
-0.000915063
-3.29198e-05
3.16777e-05
0.000916132
-0.0009187
-3.05019e-05
2.88902e-05
0.000920144
-0.000922475
-2.72678e-05
2.53439e-05
0.000924239
-0.000926025
-2.32288e-05
2.08444e-05
0.000928255
-0.00092962
-1.8488e-05
1.57869e-05
0.000932174
-0.000933467
-1.31331e-05
1.01532e-05
0.000936307
-0.000937597
-7.23151e-06
4.62846e-06
0.000940067
-0.000941153
-2.40481e-06
-8.37426e-07
0.000944269
-0.000946233
4.31953e-06
-7.87435e-06
0.000949669
-0.000952419
1.15673e-05
-1.54267e-05
0.000956166
-0.00096016
1.95347e-05
-2.4132e-05
0.000964652
-0.000970021
2.84521e-05
-3.34827e-05
0.000974952
-0.000983081
3.90272e-05
-4.39853e-05
0.000987946
-0.00100191
4.8358e-05
-5.21164e-05
0.00100559
-0.00102674
5.50974e-05
-5.84018e-05
0.00102997
-0.00103344
6.00792e-05
-5.71071e-05
0.00103039
-0.000888871
4.70439e-05
-3.14149e-05
0.000873169
-0.000448093
1.47626e-05
-3.29041e-06
0.000436549
-0.00024065
5.75426e-06
0.000235341
-3.23795e-07
-0.000739754
-1.71479e-05
3.16369e-05
0.00072538
-0.000994543
-4.47225e-05
5.28356e-05
0.000986518
-0.00103361
-5.51396e-05
5.3528e-05
0.00103531
-0.0010097
-4.98186e-05
4.54918e-05
0.00101411
-0.000988124
-4.12979e-05
3.69508e-05
0.000992561
-0.000973893
-3.26901e-05
2.84752e-05
0.0009782
-0.000963681
-2.42943e-05
1.99102e-05
0.00096816
-0.000955837
-1.61822e-05
1.25628e-05
0.000959553
-0.000949628
-8.94986e-06
5.55161e-06
0.000953125
-0.000944544
-2.16187e-06
-1.00905e-06
0.000947816
-0.000939302
4.99943e-06
-8.86251e-06
0.000943266
-0.00093511
1.29018e-05
-1.72184e-05
0.000939528
-0.000931454
2.03413e-05
-2.27932e-05
0.000934008
-0.000929508
2.46641e-05
-2.48193e-05
0.000929764
-0.000922993
2.55234e-05
-3.64157e-05
0.000933985
-0.000925102
3.65727e-05
-3.93581e-05
0.000927983
-0.000921192
4.17283e-05
-4.33075e-05
0.000922863
-0.000915982
4.49752e-05
-4.64299e-05
0.000917521
-0.000911026
4.76838e-05
-4.83665e-05
0.000911784
-0.000908689
4.80936e-05
-4.70987e-05
0.000907757
-0.000902728
4.7031e-05
-4.69016e-05
0.000902647
-0.000896347
4.55156e-05
-4.33309e-05
0.000894192
-0.000891344
4.07521e-05
-3.77261e-05
0.000888327
-0.000888684
3.42563e-05
-3.04329e-05
0.000884844
-0.000885548
2.63436e-05
-2.18588e-05
0.000881021
-0.00088141
1.68286e-05
-1.16342e-05
0.000876146
-0.000888384
6.29076e-06
-1.23905e-06
0.000883236
-0.000883163
-3.91603e-06
9.21944e-06
0.000877738
-0.000882342
-1.45614e-05
1.95541e-05
0.000877208
-0.000892065
-2.41939e-05
2.83593e-05
0.00088774
-0.000888836
-3.23673e-05
3.58642e-05
0.000885166
-0.000892458
-3.87911e-05
4.13789e-05
0.000889688
-0.000897512
-4.35997e-05
4.49361e-05
0.000895989
-0.000906914
-4.46772e-05
4.33718e-05
0.000908031
-0.000910205
-4.52589e-05
4.64917e-05
0.000908787
-0.000912514
-4.64897e-05
4.57331e-05
0.00091309
-0.00091724
-4.46568e-05
4.32673e-05
0.000918457
-0.000921856
-4.16138e-05
3.95975e-05
0.000923707
-0.000926379
-3.74582e-05
3.51084e-05
0.000928572
-0.000930661
-3.2565e-05
2.98608e-05
0.000933216
-0.000934989
-2.69872e-05
2.39902e-05
0.000937846
-0.000939071
-2.16944e-05
1.90929e-05
0.00094154
-0.000942745
-1.57301e-05
1.21916e-05
0.000946159
-0.000947878
-8.42942e-06
4.0934e-06
0.000952096
-0.000953565
4.79702e-08
-4.75668e-06
0.000958163
-0.000960243
1.01188e-05
-1.45563e-05
0.000964576
-0.000970199
1.76027e-05
-1.96779e-05
0.000972176
-0.000978177
2.2816e-05
-2.66042e-05
0.000981874
-0.000991427
3.01856e-05
-3.4332e-05
0.000995488
-0.00100992
3.86333e-05
-4.29107e-05
0.00101412
-0.00103338
4.70351e-05
-5.02262e-05
0.0010365
-0.00102703
5.08542e-05
-4.70233e-05
0.00102313
-0.000858628
3.75802e-05
-2.42633e-05
0.000845242
-0.00042664
1.10331e-05
-2.38433e-06
0.000417925
-0.000230641
4.51194e-06
0.000226506
-2.56044e-07
-0.000712011
-1.35835e-05
2.56478e-05
0.000700061
-0.000978559
-3.71094e-05
4.50863e-05
0.000970668
-0.00103658
-4.82745e-05
4.76031e-05
0.00103733
-0.00101864
-4.45802e-05
4.0858e-05
0.00102245
-0.000996914
-3.65088e-05
3.23534e-05
0.00100116
-0.000982136
-2.80158e-05
2.38031e-05
0.00098644
-0.000971769
-1.92671e-05
1.54713e-05
0.000975659
-0.000963722
-1.16516e-05
8.01363e-06
0.000967457
-0.000957422
-4.23794e-06
7.49527e-07
0.000961011
-0.000951278
2.87425e-06
-7.05071e-06
0.000955557
-0.000946414
1.13512e-05
-1.58741e-05
0.000951042
-0.000942133
2.07183e-05
-2.42979e-05
0.000945819
-0.000938528
2.73463e-05
-2.96484e-05
0.000940938
-0.000934978
3.03648e-05
-3.15897e-05
0.000936312
-0.000935065
4.44338e-05
-4.68553e-05
0.000937595
-0.000930394
4.99387e-05
-5.16633e-05
0.000932227
-0.000925515
5.34527e-05
-5.55227e-05
0.000927692
-0.000919075
5.80725e-05
-6.01866e-05
0.000921291
-0.000912726
6.16671e-05
-6.2608e-05
0.000913762
-0.000906858
6.31225e-05
-6.25303e-05
0.00090635
-0.000903231
6.09246e-05
-6.05984e-05
0.000902975
-0.000892219
6.05256e-05
-5.87914e-05
0.000890535
-0.000884862
5.57805e-05
-5.20066e-05
0.000881117
-0.000880165
4.73159e-05
-4.10447e-05
0.000873893
-0.000876333
3.33066e-05
-2.88349e-05
0.00087183
-0.000870022
2.3159e-05
-1.61075e-05
0.000862904
-0.000877151
8.61047e-06
-1.30345e-06
0.000869744
-0.000871427
-6.12137e-06
1.35809e-05
0.000863836
-0.000871582
-2.0786e-05
2.62335e-05
0.000865979
-0.000882035
-3.04079e-05
3.84173e-05
0.000873849
-0.000881
-4.52001e-05
5.00699e-05
0.000875941
-0.000886866
-5.41712e-05
5.7123e-05
0.000883717
-0.000895208
-5.89351e-05
5.80117e-05
0.000895932
-0.000907394
-5.71091e-05
6.04259e-05
0.00090388
-0.000907984
-6.26185e-05
6.27364e-05
0.000907676
-0.000913968
-6.19382e-05
6.06977e-05
0.000915027
-0.000920104
-5.90955e-05
5.70505e-05
0.000921977
-0.000925801
-5.481e-05
5.2309e-05
0.000928141
-0.000931108
-4.96719e-05
4.66374e-05
0.000933992
-0.000936206
-4.37278e-05
4.11232e-05
0.00093867
-0.000940157
-3.81438e-05
3.42304e-05
0.000943938
-0.000945228
-2.94773e-05
2.44447e-05
0.000950137
-0.00095024
-1.85771e-05
1.41062e-05
0.000954594
-0.000957794
-1.1308e-05
9.66147e-06
0.000959332
-0.000960941
-6.69401e-06
3.0053e-06
0.000964528
-0.000967528
3.30253e-07
-4.17097e-06
0.000971273
-0.000975625
8.08883e-06
-1.2192e-05
0.000979639
-0.000985954
1.62694e-05
-2.04284e-05
0.000990029
-0.000999575
2.45781e-05
-2.88204e-05
0.00100374
-0.00101837
3.29398e-05
-3.71537e-05
0.00102251
-0.00103918
4.09017e-05
-4.34355e-05
0.00104164
-0.00101888
4.31519e-05
-3.89054e-05
0.00101456
-0.000832856
3.00705e-05
-1.87503e-05
0.000821471
-0.000410292
8.27953e-06
-1.66312e-06
0.000403615
-0.000222779
3.5454e-06
0.000219563
-2.07316e-07
-0.000689052
-1.08685e-05
2.09359e-05
0.0006791