/*--------------------------------*- C++ -*----------------------------------*\
  =========                 |
  \\      /  F ield         | OpenFOAM: The Open Source CFD Toolbox
   \\    /   O peration     | Website:  https://openfoam.org
    \\  /    A nd           | Version:  7
     \\/     M anipulation  |
\*---------------------------------------------------------------------------*/
FoamFile
{
    version     2.0;
    format      ascii;
    class       volVectorField;
    location    "70";
    object      U;
}
// * * * * * * * * * * * * * * * * * * * * * * * * * * * * * * * * * * * * * //

dimensions      [0 1 -1 0 0 0 0];

internalField   nonuniform List<vector> 
17475
(
(1.01828 0.205799 -1.62872e-20)
(0.995996 0.0223713 -2.57841e-20)
(0.999788 0.00973437 0)
(0.999944 0.004878 0)
(0.99998 0.00303598 0)
(0.999991 0.00207547 0)
(0.999995 0.00148951 0)
(0.999996 0.00109453 0)
(0.999997 0.000809804 -5.2944e-20)
(0.999997 0.000594844 0)
(0.999997 0.000426844 0)
(0.999998 0.000292608 0)
(0.999998 0.000183754 0)
(0.999998 9.49786e-05 0)
(0.999998 2.26443e-05 0)
(0.999998 -3.54058e-05 0)
(0.999998 -8.09448e-05 0)
(0.999998 -0.00011491 0)
(0.999998 -0.000138287 0)
(0.999998 -0.00015156 0)
(0.999999 -0.000155544 -2.05308e-19)
(0.999999 -0.000150737 5.65217e-22)
(0.999999 -0.000138073 0)
(1 -0.000118175 -6.50768e-21)
(1 -9.22042e-05 0)
(1 -6.12235e-05 -1.30661e-20)
(1 -2.73903e-05 0)
(1 8.34787e-06 0)
(1 4.41655e-05 -1.64242e-21)
(1 7.87395e-05 5.25349e-20)
(1 0.000110313 5.169e-20)
(1 0.000137582 0)
(1 0.000159048 0)
(1 0.000173697 -5.20908e-20)
(1 0.00018039 -5.20071e-20)
(1 0.000178416 0)
(1 0.000166918 -4.03276e-22)
(1 0.000145348 0)
(1 0.000112925 5.12714e-20)
(1 6.87836e-05 2.55935e-20)
(1 1.20872e-05 -2.5564e-20)
(1 -5.82881e-05 0)
(1 -0.000144521 -2.5654e-20)
(1 -0.000249711 0)
(1 -0.000378753 -1.29674e-20)
(1 -0.000538943 0)
(1 -0.000741808 2.67676e-20)
(1 -0.00100568 0)
(0.999999 -0.00136087 0)
(0.999996 -0.00185896 0)
(0.999993 -0.0025897 0)
(0.999989 -0.00369401 -1.64125e-20)
(0.999953 -0.00538209 3.64885e-20)
(0.998952 -0.00294926 4.02147e-20)
(1.02905 -0.0897346 -3.93636e-20)
(0.871319 0.0788138 1.80233e-20)
(1.10044 0.0970892 0)
(1.03494 0.0582238 0)
(1.01518 0.0370218 0)
(1.00801 0.0249326 -1.25268e-19)
(1.00486 0.0175316 -1.19526e-19)
(1.00327 0.0126458 1.13128e-19)
(1.00236 0.00920309 0)
(1.00179 0.00664573 0)
(1.00142 0.00466836 0)
(1.00115 0.00309148 0)
(1.00096 0.00180643 0)
(1.0008 0.000743693 0)
(1.00068 -0.000141312 0)
(1.00057 -0.000878129 0)
(1.00047 -0.00148583 0)
(1.00038 -0.00197805 0)
(1.0003 -0.00236282 0)
(1.00021 -0.00264703 0)
(1.00013 -0.002835 0)
(1.00006 -0.0029321 0)
(0.999982 -0.00294263 0)
(0.999911 -0.00287172 2.43293e-19)
(0.999848 -0.00272985 -6.09957e-20)
(0.999792 -0.00252209 -1.23908e-19)
(0.999744 -0.00225996 4.21176e-22)
(0.999707 -0.00195969 -1.58831e-20)
(0.99968 -0.00163373 0)
(0.999666 -0.00129545 -8.12131e-21)
(0.999662 -0.000961039 8.19904e-21)
(0.99967 -0.000644299 -1.32103e-19)
(0.999689 -0.000359577 1.35237e-19)
(0.999717 -0.000119329 0)
(0.999755 6.55531e-05 -2.70026e-19)
(0.9998 0.000185227 2.12166e-21)
(0.999852 0.000231319 2.72505e-19)
(0.999911 0.000196348 0)
(0.999977 7.36588e-05 1.37371e-19)
(1.00005 -0.000144131 0)
(1.00013 -0.00046679 -1.38073e-19)
(1.00022 -0.000903008 1.38504e-19)
(1.00032 -0.00146635 0)
(1.00045 -0.00217671 0)
(1.0006 -0.00306314 0)
(1.00079 -0.00416888 6.868e-23)
(1.00104 -0.00555913 7.25778e-20)
(1.00139 -0.00733391 -7.39866e-20)
(1.0019 -0.00965094 -3.76548e-20)
(1.00266 -0.0127668 0)
(1.00387 -0.017116 0)
(1.0059 -0.0234729 0)
(1.00944 -0.0333064 -4.1941e-20)
(1.01601 -0.0499237 4.33214e-20)
(1.02811 -0.0730687 2.40723e-21)
(1.07036 -0.178246 2.79899e-21)
(0.610019 0.0196686 9.13268e-21)
(1.13948 0.106403 -1.32059e-20)
(1.07874 0.0752844 -5.48061e-20)
(1.04132 0.0540529 0)
(1.02488 0.0398353 0)
(1.01631 0.0297315 -1.08717e-19)
(1.01143 0.0223069 0)
(1.00844 0.0166993 0)
(1.0065 0.0123475 0)
(1.00517 0.00888625 2.0945e-19)
(1.00422 0.00607625 0)
(1.0035 0.00376028 0)
(1.00293 0.00183217 0)
(1.00246 0.000222063 0)
(1.00206 -0.00111793 0)
(1.0017 -0.00221955 -2.15022e-19)
(1.00136 -0.00310428 0)
(1.00105 -0.00378654 0)
(1.00075 -0.00427684 0)
(1.00046 -0.00458309 0)
(1.00017 -0.004714 4.64441e-19)
(0.999907 -0.00467782 0)
(0.99966 -0.00448737 1.8058e-19)
(0.999434 -0.00415427 -1.22626e-19)
(0.999239 -0.0037003 0)
(0.999078 -0.00314711 -3.16014e-20)
(0.998958 -0.00252107 0)
(0.998882 -0.00185097 4.0313e-20)
(0.998849 -0.00116442 2.44447e-20)
(0.99886 -0.000494775 0)
(0.998914 0.000131624 -1.16284e-19)
(0.999009 0.00068577 4.19999e-21)
(0.99914 0.00114273 -2.11761e-21)
(0.999303 0.00148139 -1.35395e-19)
(0.999495 0.00168328 1.35959e-19)
(0.999711 0.00173336 0)
(0.999949 0.0016188 2.65528e-19)
(1.00021 0.00132895 -2.75046e-19)
(1.00049 0.000851868 2.92937e-19)
(1.0008 0.000173853 0)
(1.00115 -0.00071997 3.47279e-20)
(1.00154 -0.00185257 -1.05601e-22)
(1.002 -0.00325591 1.40131e-19)
(1.00255 -0.00497703 -2.4046e-22)
(1.00326 -0.0070856 -7.06264e-20)
(1.00418 -0.00968421 0)
(1.00545 -0.0129267 0)
(1.00725 -0.0170457 3.62459e-20)
(1.00993 -0.0224001 -3.72058e-20)
(1.0141 -0.0295541 -5.30903e-22)
(1.02091 -0.039405 1.13889e-19)
(1.03258 -0.0534304 -7.76563e-20)
(1.05365 -0.073874 7.61488e-20)
(1.10006 -0.105635 0)
(0.962614 -0.117898 3.97069e-20)
(0.481408 0.00953069 0)
(1.11623 0.0897583 0)
(1.11529 0.0802243 2.32169e-20)
(1.06635 0.0608567 0)
(1.043 0.0470931 9.94368e-20)
(1.03 0.0365716 0)
(1.02199 0.0282967 0)
(1.01677 0.0216682 0)
(1.0132 0.0162758 0)
(1.01066 0.0118272 0)
(1.00877 0.00811497 0)
(1.00732 0.00498967 0)
(1.00615 0.00234742 2.04898e-19)
(1.00518 0.000114887 0)
(1.00433 -0.0017583 0)
(1.00356 -0.00330513 0)
(1.00285 -0.00454867 0)
(1.00217 -0.00550211 0)
(1.00151 -0.00617653 0)
(1.00088 -0.00657963 -2.24676e-19)
(1.00027 -0.00671934 0)
(0.999698 -0.00660803 0)
(0.99916 -0.00625694 -1.20196e-19)
(0.998678 -0.00569129 0)
(0.998264 -0.00493953 -1.87395e-19)
(0.997929 -0.00403623 3.15979e-20)
(0.997686 -0.00302114 -1.28702e-19)
(0.99754 -0.00194059 2.55037e-22)
(0.997497 -0.00083756 6.61351e-20)
(0.997553 0.000233364 4.97076e-20)
(0.997707 0.00123092 1.33839e-19)
(0.997951 0.00210766 4.21138e-21)
(0.998276 0.00282669 0)
(0.99867 0.00335655 2.70937e-22)
(0.999123 0.00367068 0)
(0.999626 0.00374856 -1.2843e-19)
(1.00017 0.00357442 -1.37259e-19)
(1.00076 0.00313611 1.37226e-19)
(1.00139 0.00241798 2.75846e-19)
(1.00207 0.00140915 1.12202e-19)
(1.00281 9.48662e-05 -3.46389e-20)
(1.00364 -0.00154865 -6.92871e-20)
(1.00461 -0.00355727 0)
(1.00577 -0.00598102 0)
(1.0072 -0.00889337 -6.96856e-20)
(1.00905 -0.0123997 6.97783e-20)
(1.01153 -0.0166509 1.75229e-19)
(1.01496 -0.0218615 3.54445e-20)
(1.01989 -0.028336 -2.05671e-22)
(1.02726 -0.0365037 -3.5091e-20)
(1.03867 -0.0469678 1.40372e-19)
(1.05705 -0.0605861 -1.04245e-19)
(1.08919 -0.0787313 9.91192e-20)
(1.13247 -0.100876 6.33974e-20)
(0.81196 -0.0598767 -1.85479e-20)
(0.401421 0.00537839 0)
(1.06163 0.0687515 -2.05242e-20)
(1.13871 0.0765219 4.03698e-20)
(1.08902 0.0613933 4.30663e-20)
(1.06016 0.0491123 4.49365e-20)
(1.04376 0.0392617 9.17134e-20)
(1.03325 0.031063 -9.30188e-20)
(1.0261 0.0241558 -9.3991e-20)
(1.02101 0.0182907 0)
(1.01727 0.0132769 -1.91212e-19)
(1.0144 0.00896751 -3.86586e-19)
(1.01214 0.00525199 -1.9523e-19)
(1.01028 0.00204969 -1.97775e-19)
(1.00869 -0.000698323 0)
(1.00729 -0.00303135 0)
(1.006 -0.00497524 0)
(1.00479 -0.00654414 -4.27108e-19)
(1.00362 -0.00774601 -4.40605e-21)
(1.00249 -0.00858517 -4.44726e-19)
(1.00138 -0.00906271 -2.24813e-19)
(1.00032 -0.00918667 -5.75856e-20)
(0.999296 -0.00895849 1.1761e-19)
(0.998349 -0.00840145 -1.19716e-19)
(0.997499 -0.00754214 1.22735e-19)
(0.99677 -0.00641855 0)
(0.996187 -0.00507756 -6.43864e-20)
(0.995771 -0.0035762 1.30106e-19)
(0.995535 -0.0019823 0)
(0.995489 -0.000358277 -3.36017e-20)
(0.995628 0.00121303 -1.68658e-20)
(0.995943 0.00267482 -1.3492e-19)
(0.996423 0.00395673 1.27814e-20)
(0.997046 0.00500743 0)
(0.997789 0.00578467 1.45419e-19)
(0.998632 0.00625459 0)
(0.999553 0.0063934 0)
(1.00054 0.00618561 -2.74346e-19)
(1.00159 0.00562096 -6.86702e-20)
(1.00269 0.00468543 1.45991e-19)
(1.00386 0.00337794 1.28864e-19)
(1.00512 0.00168753 -1.54859e-19)
(1.00651 -0.000401586 -1.37599e-19)
(1.0081 -0.00291565 -1.71825e-19)
(1.00995 -0.00589656 1.03011e-19)
(1.01221 -0.00940283 1.36679e-19)
(1.01505 -0.0135177 -3.39406e-20)
(1.01875 -0.0183554 0)
(1.02373 -0.0240678 -6.77922e-20)
(1.03064 -0.0308528 -6.73775e-20)
(1.04056 -0.0389631 -3.37232e-20)
(1.05526 -0.0487068 -3.23472e-20)
(1.07801 -0.0604802 -9.59101e-20)
(1.11594 -0.0750488 -6.0111e-20)
(1.12175 -0.0828445 0)
(0.692619 -0.0291882 9.99628e-20)
(0.352106 0.00333659 0)
(0.999666 0.0513475 0)
(1.14729 0.0691847 -7.32678e-20)
(1.10824 0.0589766 -7.80577e-20)
(1.07559 0.0481296 0)
(1.0567 0.0391592 0)
(1.04436 0.0313966 8.58626e-20)
(1.0357 0.0245866 0)
(1.02936 0.018588 0)
(1.02455 0.0132901 0)
(1.02078 0.00860567 -1.84934e-19)
(1.01771 0.00446785 -1.88247e-19)
(1.01514 0.000825804 0)
(1.01289 -0.00235498 0)
(1.01086 -0.00509471 -3.87942e-21)
(1.00896 -0.00740226 0)
(1.00715 -0.00927933 8.31426e-19)
(1.00538 -0.01072 8.54329e-19)
(1.00364 -0.0117144 -4.38885e-19)
(1.00192 -0.0122581 2.21346e-19)
(1.00024 -0.0123357 2.85196e-19)
(0.998635 -0.011956 -5.90374e-20)
(0.997131 -0.0111346 3.61324e-19)
(0.995775 -0.00990149 -6.16715e-20)
(0.994611 -0.00830362 6.48195e-22)
(0.993682 -0.00640131 -1.28642e-19)
(0.993028 -0.00427415 1.65077e-19)
(0.992675 -0.0020172 1.33025e-19)
(0.992634 0.000280825 -5.17218e-22)
(0.992902 0.0024993 6.8308e-20)
(0.993459 0.0045591 6.89195e-20)
(0.994283 0.00636292 0)
(0.995334 0.00784001 -1.24998e-19)
(0.99657 0.0089377 0)
(0.997951 0.00961595 0)
(0.999441 0.00985089 1.71911e-19)
(1.00102 0.00963327 -1.37313e-19)
(1.00266 0.00895544 0)
(1.00436 0.00781669 8.54172e-21)
(1.00613 0.00622902 0)
(1.00801 0.00419386 0)
(1.01004 0.00170946 -1.53114e-19)
(1.01229 -0.00123294 1.70011e-20)
(1.01489 -0.00465549 1.4022e-22)
(1.01796 -0.00859436 -1.66484e-20)
(1.02174 -0.0130997 -1.66361e-19)
(1.02653 -0.0182398 -1.63641e-20)
(1.0328 -0.024101 1.46719e-19)
(1.04124 -0.0307879 -1.28945e-19)
(1.05296 -0.0384161 0)
(1.06981 -0.0471307 6.11858e-20)
(1.09536 -0.0571814 7.99946e-22)
(1.13257 -0.0683438 -5.68442e-20)
(1.08804 -0.0650008 -8.64164e-20)
(0.611815 -0.0166508 0)
(0.318934 0.00229947 7.23372e-21)
(0.941705 0.0385738 -1.86632e-20)
(1.14418 0.0605736 3.39365e-20)
(1.12386 0.0550798 0)
(1.08951 0.045572 0)
(1.06868 0.0373649 -7.68177e-20)
(1.05499 0.0300814 0)
(1.04522 0.0234908 -1.63811e-19)
(1.0379 0.0175005 -1.67664e-19)
(1.03222 0.0120561 0)
(1.02765 0.00711551 -8.79471e-20)
(1.02386 0.00265285 1.80081e-19)
(1.0206 -0.00135823 -3.6729e-19)
(1.01769 -0.00492748 0)
(1.015 -0.00805242 0)
(1.01243 -0.0107229 0)
(1.00993 -0.0129197 -3.14072e-21)
(1.00745 -0.0146156 0)
(1.00497 -0.0157892 0)
(1.00248 -0.0163978 2.18707e-19)
(1.00003 -0.0164252 9.63434e-22)
(0.997645 -0.0158611 0)
(0.995398 -0.0147125 0)
(0.993355 -0.0130072 3.73523e-19)
(0.991593 -0.0107988 2.5575e-19)
(0.990188 -0.0081628 3.29172e-20)
(0.989204 -0.00521916 0)
(0.988689 -0.00208687 2.7219e-19)
(0.988665 0.00110409 1.02936e-19)
(0.989125 0.00417572 -5.16721e-22)
(0.990035 0.00701954 0)
(0.991349 0.00950583 0)
(0.992997 0.0115316 8.72132e-21)
(0.994909 0.0130369 0)
(0.997014 0.0139782 0)
(0.999252 0.0143376 1.98212e-22)
(1.00158 0.0141195 -2.73028e-19)
(1.00397 0.0133191 -1.36685e-19)
(1.00639 0.0119671 1.35631e-19)
(1.00887 0.0100905 8.40698e-21)
(1.01143 0.0077118 -1.33981e-19)
(1.01414 0.00484959 3.1733e-22)
(1.01709 0.0015153 2.94947e-22)
(1.0204 -0.00228646 1.65989e-20)
(1.02424 -0.00656638 -1.14445e-19)
(1.02884 -0.0113433 0)
(1.03453 -0.0166454 -1.43803e-19)
(1.04179 -0.0225039 0)
(1.05133 -0.0289639 -6.17273e-20)
(1.06428 -0.0360786 0)
(1.08255 -0.0439272 5.89056e-20)
(1.10981 -0.0527 -2.03002e-22)
(1.14014 -0.0607312 -2.67435e-20)
(1.04713 -0.0506476 -8.46967e-20)
(0.556658 -0.0111337 4.18054e-20)
(0.295296 0.00167567 0)
(0.891411 0.0294472 -1.78992e-20)
(1.13331 0.0520533 0)
(1.1358 0.0504658 0)
(1.10218 0.0422299 3.41576e-20)
(1.07983 0.0345954 7.79342e-22)
(1.06514 0.0277005 0)
(1.05457 0.0213141 -7.54814e-20)
(1.04652 0.0153623 -1.56849e-19)
(1.04016 0.00981703 0)
(1.03494 0.00466473 0)
(1.03051 -0.000100032 0)
(1.02662 -0.00447202 0)
(1.02307 -0.00843601 -2.68138e-19)
(1.01972 -0.0119698 -9.12903e-20)
(1.01645 -0.015041 0)
(1.01319 -0.0176078 1.21634e-20)
(1.00989 -0.0196283 3.00151e-19)
(1.00652 -0.021028 -1.40285e-21)
(1.00309 -0.0217533 -1.09192e-19)
(0.999653 -0.0217521 0)
(0.996268 -0.0209921 1.16738e-19)
(0.99303 -0.0194578 -7.89637e-22)
(0.990053 -0.0171673 1.2734e-19)
(0.987464 -0.0141771 0)
(0.985389 -0.0105795 -6.64223e-20)
(0.983942 -0.00654282 -6.89877e-20)
(0.983203 -0.00223192 1.40738e-19)
(0.983211 0.00216376 7.11369e-20)
(0.983954 0.00638322 -1.41528e-19)
(0.985376 0.010271 0)
(0.987387 0.0136469 -1.78365e-20)
(0.989868 0.0163737 -1.41224e-19)
(0.992701 0.0183826 1.75818e-20)
(0.99577 0.0196324 4.26703e-22)
(0.998983 0.0201234 2.73505e-19)
(1.00227 0.0198775 1.36956e-19)
(1.00555 0.0189112 1.35399e-19)
(1.00882 0.0172944 -1.33599e-19)
(1.01209 0.0150788 0)
(1.01541 0.0123143 1.39608e-19)
(1.01883 0.0090454 0)
(1.02246 0.0053083 0)
(1.02643 0.00113024 -1.29299e-19)
(1.03094 -0.00346921 0)
(1.03622 -0.00848409 6.23192e-20)
(1.04262 -0.0139079 1.2357e-19)
(1.05062 -0.0197497 3.07922e-20)
(1.06093 -0.0260198 -1.18692e-19)
(1.07473 -0.032742 0)
(1.09401 -0.0399823 5.66527e-20)
(1.12185 -0.0478033 0)
(1.14065 -0.0530399 -2.53943e-20)
(1.00637 -0.0396011 5.53398e-20)
(0.516187 -0.00804286 0)
(0.277735 0.00126147 0)
(0.849063 0.0228407 -1.70609e-20)
(1.11809 0.0442166 -2.92212e-20)
(1.14429 0.0455334 2.96464e-20)
(1.11381 0.0385239 -3.07962e-20)
(1.09039 0.0313086 -6.45982e-20)
(1.07493 0.0246728 0)
(1.06377 0.0184158 0)
(1.05521 0.0124611 0)
(1.04834 0.00679444 0)
(1.04263 0.00141455 1.53934e-19)
(1.03768 -0.00366809 0)
(1.03325 -0.00843078 -3.27124e-19)
(1.0291 -0.0128429 0)
(1.0251 -0.0168607 0)
(1.02111 -0.0204313 3.40422e-19)
(1.01705 -0.0234888 2.78694e-19)
(1.01282 -0.025938 -1.00032e-19)
(1.00842 -0.0276897 -1.01072e-19)
(1.00386 -0.028642 1.05894e-19)
(0.999176 -0.0286927 4.46635e-19)
(0.994481 -0.0277668 2.35161e-19)
(0.989913 -0.0258122 -1.21491e-19)
(0.985648 -0.0228161 0)
(0.981891 -0.0188283 1.50056e-21)
(0.978855 -0.0139577 6.80729e-20)
(0.976737 -0.00843973 -6.94212e-20)
(0.975675 -0.00251077 -1.81435e-19)
(0.975738 0.00354477 7.38677e-22)
(0.976906 0.00933464 0)
(0.979077 0.0146281 -7.25912e-20)
(0.982097 0.0191694 -1.44788e-19)
(0.985754 0.0227781 1.43146e-19)
(0.989854 0.0253827 -1.41236e-19)
(0.994213 0.0269591 -1.74712e-19)
(0.998691 0.0275484 -2.74232e-19)
(1.00315 0.0271818 6.77808e-20)
(1.00752 0.0259478 3.33783e-20)
(1.01177 0.0239548 0)
(1.01592 0.0212928 0)
(1.02003 0.0180462 -8.07291e-21)
(1.02416 0.0142902 2.5463e-19)
(1.02844 0.0100865 1.26402e-19)
(1.03301 0.00548568 0)
(1.03808 0.000532612 1.23681e-19)
(1.04391 -0.00474488 3.00206e-20)
(1.05084 -0.0103329 -3.0257e-20)
(1.05936 -0.0162194 7.31057e-21)
(1.07022 -0.0224011 1.12658e-19)
(1.08463 -0.028895 4.41844e-19)
(1.10465 -0.03576 2.1463e-19)
(1.13181 -0.0428181 -5.09593e-20)
(1.13611 -0.0457471 -5.0621e-20)
(0.969341 -0.0312551 -8.33371e-20)
(0.486291 -0.00592104 1.67391e-19)
(0.264368 0.000963443 0)
(0.813865 0.0179466 -3.23875e-20)
(1.10098 0.0372795 2.70875e-20)
(1.14981 0.040542 -2.66203e-20)
(1.12452 0.03468 5.60605e-20)
(1.10058 0.0277871 5.97614e-20)
(1.0845 0.021293 -1.23881e-19)
(1.07294 0.0150755 8.45748e-22)
(1.06403 0.00905315 -6.64442e-20)
(1.05683 0.00320817 -1.39713e-19)
(1.05075 -0.00245527 -1.42904e-19)
(1.04542 -0.00791649 0)
(1.04055 -0.0131454 1.5166e-19)
(1.03591 -0.0180977 0)
(1.03133 -0.0227156 -3.39843e-19)
(1.02665 -0.0269328 -4.1055e-20)
(1.02172 -0.0306547 -1.77938e-19)
(1.01649 -0.0337461 2.81399e-19)
(1.01091 -0.0360659 -3.9038e-19)
(1.00499 -0.0374564 0)
(0.998757 -0.0377452 2.18103e-19)
(0.992343 -0.0367649 -3.4541e-19)
(0.985965 -0.0344132 1.21968e-19)
(0.97989 -0.0306067 0)
(0.974444 -0.0253607 -1.3422e-19)
(0.969983 -0.0187911 6.91334e-20)
(0.966854 -0.0112291 1.48677e-19)
(0.965304 -0.0030253 1.49239e-19)
(0.965462 0.00537458 -1.52436e-19)
(0.967287 0.0133584 0)
(0.970593 0.0205735 0)
(0.975106 0.0266398 1.85236e-19)
(0.980458 0.0313331 8.68766e-22)
(0.986321 0.0345949 -2.50272e-19)
(0.992421 0.0364581 -4.20056e-19)
(0.998529 0.037011 6.82544e-20)
(1.00444 0.0363418 -3.35668e-20)
(1.01009 0.0346482 0)
(1.01545 0.0320855 0)
(1.02056 0.0287975 1.11656e-19)
(1.02547 0.0249109 1.40334e-19)
(1.03028 0.0205326 -1.44042e-20)
(1.03515 0.0157549 0)
(1.04023 0.0106483 -1.20187e-19)
(1.04575 0.0052625 8.80355e-20)
(1.05199 -0.000361404 2.33103e-19)
(1.05931 -0.00619529 0)
(1.06819 -0.0122154 0)
(1.07942 -0.0184115 6.80161e-21)
(1.09422 -0.0248113 -1.58616e-19)
(1.11468 -0.0314717 1.53652e-19)
(1.13981 -0.0378844 -2.49699e-20)
(1.1287 -0.0390486 2.19443e-19)
(0.937545 -0.0248404 -2.20065e-19)
(0.464401 -0.00453318 3.52952e-19)
(0.25403 0.000746 0)
(0.784742 0.014242 -1.50303e-20)
(1.08359 0.0312729 3.72156e-20)
(1.15292 0.0356894 -2.41731e-20)
(1.13437 0.0308499 -5.15018e-20)
(1.11054 0.024224 -1.07478e-19)
(1.09402 0.0177801 -5.66228e-20)
(1.08219 0.0115204 -5.90444e-20)
(1.0731 0.00535949 0)
(1.06571 -0.00073003 0)
(1.05943 -0.00674525 0)
(1.05386 -0.0126654 0)
(1.04868 -0.0184631 6.94965e-20)
(1.04367 -0.0240853 -1.44382e-19)
(1.03861 -0.0294675 0)
(1.03329 -0.0345558 1.20811e-19)
(1.02756 -0.039193 -8.20766e-20)
(1.0213 -0.0432146 5.03686e-21)
(1.01442 -0.0464413 1.904e-19)
(1.00689 -0.0486314 3.32307e-21)
(0.998737 -0.0495151 2.17243e-19)
(0.990082 -0.0487793 -2.28335e-19)
(0.98121 -0.0461813 0)
(0.972535 -0.0415336 -1.33011e-19)
(0.964567 -0.0347428 -1.40643e-19)
(0.957905 -0.025906 0)
(0.953185 -0.0154349 -1.5529e-19)
(0.950861 -0.00393359 2.02119e-19)
(0.951184 0.0078852 4.10229e-20)
(0.954072 0.0190236 -2.20858e-19)
(0.959181 0.0289149 -7.95118e-20)
(0.965968 0.0369612 -1.33474e-19)
(0.973817 0.0429257 1.48405e-19)
(0.982182 0.0468181 0)
(0.990644 0.0487944 2.79621e-19)
(0.998818 0.0489926 -3.39588e-20)
(1.00651 0.0477062 3.31255e-20)
(1.01364 0.0452255 0)
(1.02022 0.0417901 3.16024e-20)
(1.0263 0.0376094 1.54521e-19)
(1.03198 0.0328576 0)
(1.03742 0.0276788 -1.1885e-19)
(1.04278 0.0221736 -1.15936e-19)
(1.04827 0.0164235 0)
(1.05411 0.0104968 1.12554e-19)
(1.0606 0.00444187 -5.54935e-20)
(1.06812 -0.00171541 0)
(1.07719 -0.00795619 -5.31845e-20)
(1.08861 -0.0142753 -1.04585e-19)
(1.10367 -0.020702 -1.01827e-19)
(1.12425 -0.0272605 4.9568e-20)
(1.14619 -0.0331081 1.42103e-19)
(1.1198 -0.0330457 9.50452e-20)
(0.910442 -0.0198461 -1.89707e-19)
(0.447646 -0.00349497 -1.22118e-19)
(0.245924 0.000588264 0)
(0.760667 0.0113978 0)
(1.06688 0.0261608 0)
(1.15425 0.0311301 0)
(1.1434 0.0271573 0)
(1.12037 0.0207695 0)
(1.10358 0.0143163 0)
(1.09163 0.00795348 0)
(1.08249 0.00159441 1.1057e-19)
(1.07508 -0.00479894 0)
(1.06876 -0.0112304 -1.16773e-19)
(1.06312 -0.0176956 0)
(1.05784 -0.0241668 0)
(1.05263 -0.0306056 2.67045e-19)
(1.04727 -0.0369721 0)
(1.04146 -0.0431706 0)
(1.03504 -0.0490562 0)
(1.02781 -0.0544431 1.66487e-19)
(1.01959 -0.0590749 -1.7268e-19)
(1.01026 -0.0626371 0)
(0.999792 -0.0647261 -1.03576e-19)
(0.988269 -0.0648481 -2.37408e-19)
(0.975951 -0.0624487 0)
(0.963455 -0.0571212 -1.32572e-19)
(0.951591 -0.0485425 3.15261e-21)
(0.941377 -0.0366579 -4.6954e-19)
(0.933988 -0.0219654 -1.695e-19)
(0.93036 -0.00547618 -1.35684e-21)
(0.930987 0.0115369 -8.67699e-20)
(0.935707 0.0273796 1.06869e-20)
(0.943802 0.0410464 1.64414e-19)
(0.954215 0.0516198 1.96815e-20)
(0.965839 0.0589384 4.7258e-21)
(0.977809 0.0632284 -8.69868e-19)
(0.989413 0.0648026 2.07237e-19)
(1.00019 0.064085 3.35508e-20)
(1.00998 0.0616272 6.47027e-20)
(1.01875 0.0578478 3.11515e-20)
(1.02657 0.0530997 2.98261e-20)
(1.03358 0.047667 -3.5295e-19)
(1.03995 0.0417581 -3.40511e-19)
(1.04588 0.0355416 -4.59583e-19)
(1.05158 0.0291322 -1.10905e-19)
(1.05728 0.0226061 0)
(1.06325 0.0160277 2.70915e-20)
(1.06982 0.00944363 0)
(1.07739 0.00287609 -5.17912e-20)
(1.0865 -0.00366279 -5.07207e-20)
(1.09798 -0.010183 -2.48428e-20)
(1.11316 -0.0167207 9.67239e-20)
(1.1335 -0.0232454 0)
(1.1513 -0.0286147 0)
(1.11045 -0.0277824 0)
(0.88768 -0.0159146 2.61527e-20)
(0.43483 -0.00270918 1.19942e-19)
(0.239532 0.000466141 0)
(0.740841 0.00920576 0)
(1.05147 0.0218938 1.02013e-20)
(1.15432 0.0269933 1.93291e-20)
(1.15169 0.02372 0)
(1.1301 0.0175568 0)
(1.11326 0.0110686 4.40953e-20)
(1.10132 0.00456645 0)
(1.09228 -0.00202632 9.74574e-20)
(1.08501 -0.00875856 0)
(1.07885 -0.0156536 -2.06384e-19)
(1.07336 -0.0227242 -5.28453e-20)
(1.06819 -0.02996 2.22127e-19)
(1.06305 -0.0373452 4.86339e-19)
(1.05762 -0.0448986 -1.248e-19)
(1.05164 -0.0524987 3.36078e-20)
(1.04481 -0.0600242 6.82904e-20)
(1.03683 -0.0673004 0)
(1.02741 -0.074046 0)
(1.01623 -0.0798429 0)
(1.00313 -0.0841588 9.78591e-20)
(0.988034 -0.086249 -1.17165e-19)
(0.971083 -0.0851402 -7.34349e-19)
(0.952914 -0.079808 1.33932e-19)
(0.934824 -0.0694644 -3.05982e-19)
(0.918554 -0.0535443 -6.70319e-19)
(0.906385 -0.0325098 2.74342e-19)
(0.90039 -0.00804353 -1.93179e-19)
(0.901605 0.0172143 -1.91455e-19)
(0.909716 0.0404367 -2.45584e-20)
(0.923103 0.0594945 -8.94774e-20)
(0.939535 0.0731267 -1.69117e-19)
(0.957017 0.0815265 -3.13937e-19)
(0.974114 0.0853879 -5.90304e-19)
(0.989804 0.0854944 1.36191e-19)
(1.00373 0.0828824 -1.32086e-19)
(1.01584 0.0783563 9.48831e-20)
(1.02626 0.0725374 -3.59183e-19)
(1.03522 0.0658917 -1.17058e-19)
(1.04298 0.0587545 -1.1138e-19)
(1.04979 0.0513537 2.20918e-19)
(1.05594 0.0438428 0)
(1.06171 0.0363365 -7.90603e-20)
(1.0674 0.0289012 0)
(1.07331 0.0215804 0)
(1.07978 0.0143961 5.07748e-20)
(1.08723 0.00735825 7.46501e-20)
(1.09623 0.000463235 4.7993e-20)
(1.10764 -0.00631229 4.67197e-20)
(1.12279 -0.01301 4.53059e-20)
(1.1425 -0.019535 0)
(1.15546 -0.0245088 -2.22192e-20)
(1.1013 -0.0232643 -4.45644e-20)
(0.868643 -0.0128282 1.03586e-19)
(0.425047 -0.00213646 -3.45152e-19)
(0.234362 0.000380507 0)
(0.724391 0.00754432 -1.10983e-20)
(1.03756 0.0184056 0)
(1.1536 0.0233761 0)
(1.15931 0.0206514 3.47158e-20)
(1.13972 0.0147084 3.69162e-20)
(1.12308 0.00818401 -1.93017e-20)
(1.11128 0.00153521 0)
(1.10249 -0.00528995 2.08062e-20)
(1.09554 -0.0123583 -4.25122e-20)
(1.08974 -0.0197165 0)
(1.08464 -0.0274025 -4.48819e-20)
(1.07987 -0.0354487 -1.53449e-21)
(1.07512 -0.0438964 -3.69057e-20)
(1.07002 -0.0527634 2.38657e-20)
(1.06429 -0.0620058 -3.70537e-21)
(1.05753 -0.0715711 1.21022e-19)
(1.04933 -0.0813204 0)
(1.03917 -0.0910237 2.75464e-19)
(1.02655 -0.100273 3.57834e-23)
(1.01085 -0.108382 0)
(0.991661 -0.114384 -2.98354e-19)
(0.968755 -0.116794 -1.13012e-19)
(0.942347 -0.113506 5.30796e-19)
(0.914026 -0.10238 3.42922e-21)
(0.88685 -0.0815937 0)
(0.865381 -0.05069 1.89889e-19)
(0.854599 -0.0126197 -1.15919e-19)
(0.857136 0.0270806 1.09327e-19)
(0.872127 0.0624972 -4.1451e-19)
(0.895563 0.0891682 1.84446e-19)
(0.922406 0.105803 3.47584e-19)
(0.949044 0.113898 6.21639e-19)
(0.973141 0.115217 -1.40822e-19)
(0.993864 0.11192 -1.47247e-19)
(1.01123 0.105736 1.23493e-19)
(1.02558 0.09783 -4.6745e-19)
(1.03735 0.0890017 3.45665e-19)
(1.04701 0.0797513 1.10041e-19)
(1.05503 0.0703982 0)
(1.06185 0.0611558 1.51801e-19)
(1.06786 0.0521374 -4.78379e-20)
(1.07341 0.043398 0)
(1.07882 0.0349626 -9.62762e-20)
(1.08443 0.0268352 -9.6774e-20)
(1.09058 0.0190148 9.40352e-20)
(1.09773 0.0114819 -2.3461e-19)
(1.10647 0.00420986 -9.26499e-20)
(1.11766 -0.00284099 4.48647e-20)
(1.13262 -0.00971491 4.35281e-20)
(1.15131 -0.0162429 -2.1081e-20)
(1.1589 -0.0208811 -6.21906e-20)
(1.09252 -0.019449 1.0524e-20)
(0.852244 -0.0103836 -1.2397e-20)
(0.416713 -0.00172723 0)
(0.230087 0.000328104 0)
(0.710639 0.00631936 0)
(1.02511 0.0156566 -1.54155e-20)
(1.15237 0.0203609 0)
(1.16633 0.0180649 -1.46935e-20)
(1.14923 0.0123491 1.53092e-20)
(1.13302 0.00581919 3.18838e-20)
(1.12149 -0.000939909 0)
(1.1131 -0.00795916 6.78208e-20)
(1.10663 -0.0153222 0)
(1.1014 -0.0231015 -1.44359e-19)
(1.09694 -0.0313662 -7.41678e-20)
(1.09288 -0.0401963 -2.38629e-21)
(1.08892 -0.0496469 -8.27286e-20)
(1.08466 -0.0598695 8.1584e-20)
(1.07979 -0.0708735 8.808e-20)
(1.07386 -0.0827322 -4.30824e-20)
(1.06633 -0.0954543 -1.51556e-19)
(1.0565 -0.108974 -4.93148e-20)
(1.04348 -0.123037 1.2136e-19)
(1.02621 -0.137138 0)
(1.0034 -0.150165 -1.49182e-20)
(0.973663 -0.160196 1.96276e-19)
(0.936188 -0.163986 0)
(0.891241 -0.156295 0)
(0.843215 -0.131268 3.93383e-19)
(0.801723 -0.0848161 -2.8649e-21)
(0.78006 -0.0212873 9.70759e-21)
(0.785865 0.0462925 -5.28172e-19)
(0.816568 0.103208 4.7723e-19)
(0.860653 0.139938 4.07368e-19)
(0.905981 0.157017 7.0553e-19)
(0.946187 0.160168 5.20093e-19)
(0.979073 0.154609 2.76783e-19)
(1.00515 0.1445 0)
(1.02545 0.132266 0)
(1.04112 0.119287 2.73433e-19)
(1.05323 0.106305 1.14622e-21)
(1.06271 0.0937433 -1.05256e-19)
(1.0703 0.0817784 -9.44679e-20)
(1.07654 0.0704746 -1.87129e-19)
(1.08193 0.0598284 1.39143e-19)
(1.08683 0.0498029 0)
(1.0916 0.0403606 4.54983e-20)
(1.09661 0.031447 -4.43183e-20)
(1.10222 0.0230113 0)
(1.10887 0.015008 0)
(1.11716 0.00738127 -1.41374e-21)
(1.128 7.50631e-05 0)
(1.14259 -0.00695959 0)
(1.15989 -0.0134818 -2.79832e-22)
(1.16186 -0.017848 0)
(1.08452 -0.0163884 -5.99503e-20)
(0.838423 -0.00852867 0)
(0.409507 -0.00138395 -8.78828e-20)
(0.226449 0.000296569 0)
(0.699042 0.00548006 2.02358e-21)
(1.01411 0.0136093 1.61914e-21)
(1.15092 0.018008 0)
(1.17282 0.0160519 1.50466e-21)
(1.15856 0.0105747 0)
(1.14301 0.00408866 0)
(1.13187 -0.00271883 0)
(1.12399 -0.0098517 0)
(1.11816 -0.0174071 0)
(1.11369 -0.0254797 0)
(1.11012 -0.0341708 0)
(1.10712 -0.0435935 0)
(1.10435 -0.0539322 8.89227e-20)
(1.1015 -0.0653451 -3.17961e-20)
(1.09823 -0.0779852 -6.46758e-20)
(1.09411 -0.0920823 -6.45782e-20)
(1.08854 -0.107891 4.53926e-21)
(1.08075 -0.125683 -4.83987e-20)
(1.06959 -0.145676 -2.17047e-21)
(1.05342 -0.167927 2.1269e-19)
(1.02984 -0.192064 -1.52164e-19)
(0.995412 -0.216557 0)
(0.945806 -0.237765 1.94988e-19)
(0.876444 -0.246919 -1.1936e-18)
(0.787442 -0.226714 7.81305e-19)
(0.697883 -0.157329 5.26966e-19)
(0.647954 -0.0400473 2.17501e-18)
(0.662668 0.0897549 0)
(0.734091 0.187287 1.05829e-18)
(0.823825 0.232048 -1.5473e-18)
(0.900965 0.237576 -4.76433e-19)
(0.95854 0.224128 -1.3727e-19)
(0.999792 0.203673 -7.483e-19)
(1.02893 0.181607 3.30018e-21)
(1.04956 0.160263 6.87269e-19)
(1.06432 0.14056 -5.19237e-20)
(1.07506 0.122638 2.79591e-19)
(1.08303 0.106431 9.04427e-20)
(1.08911 0.0917382 1.71966e-19)
(1.09397 0.0783775 0)
(1.09808 0.0661756 4.31562e-20)
(1.10185 0.0549679 7.80708e-20)
(1.10566 0.044618 7.97804e-20)
(1.10979 0.0350195 -4.13073e-20)
(1.11461 0.0260699 1.41395e-19)
(1.12058 0.017682 -3.80058e-20)
(1.1283 0.00977062 -1.6149e-19)
(1.13867 0.00226897 -1.90929e-20)
(1.15271 -0.00487651 -3.83728e-20)
(1.16828 -0.0113507 -3.67371e-20)
(1.16443 -0.0154648 1.89167e-20)
(1.0772 -0.0140473 1.9424e-20)
(0.826554 -0.0072132 6.77564e-22)
(0.403462 -0.00119732 4.27984e-20)
(0.222864 0.000321173 3.66018e-20)
(0.688744 0.00501249 -5.24757e-20)
(1.00415 0.012234 9.10492e-23)
(1.14929 0.016343 1.90438e-20)
(1.1788 0.0146667 -1.88214e-20)
(1.16764 0.00945515 -1.91995e-20)
(1.15294 0.00309161 0)
(1.14228 -0.00366465 -1.41516e-23)
(1.13498 -0.0107891 -9.79689e-21)
(1.12991 -0.0183858 4.81526e-21)
(1.12635 -0.0265676 -4.72819e-21)
(1.12388 -0.035455 -4.66296e-21)
(1.12219 -0.0452068 2.42441e-21)
(1.12101 -0.0560525 8.11054e-21)
(1.12011 -0.0682124 1.74436e-20)
(1.1192 -0.0819738 3.20475e-20)
(1.11795 -0.0977551 1.00676e-19)
(1.11592 -0.116064 2.13387e-20)
(1.11239 -0.137597 0)
(1.10635 -0.163345 0)
(1.09618 -0.194464 -4.19983e-20)
(1.07891 -0.232512 3.80403e-20)
(1.04926 -0.279179 -2.02049e-19)
(0.99752 -0.335129 1.30227e-19)
(0.90463 -0.396062 -1.94757e-19)
(0.741477 -0.426314 0)
(0.520701 -0.337047 3.33349e-18)
(0.387082 -0.0883369 -1.16484e-18)
(0.42826 0.205617 -5.26802e-18)
(0.623515 0.383722 2.14349e-18)
(0.816239 0.404685 0)
(0.937252 0.356135 -1.01846e-18)
(1.00583 0.302752 3.88263e-19)
(1.0461 0.255786 3.49774e-19)
(1.07069 0.216826 1.69996e-19)
(1.08622 0.184711 1.61231e-19)
(1.09634 0.157936 2.36849e-19)
(1.1032 0.13525 0)
(1.10787 0.115764 -5.6808e-20)
(1.11123 0.0987776 4.49484e-19)
(1.11388 0.0837684 0)
(1.11611 0.0703581 -1.11632e-21)
(1.1183 0.0582741 -1.78323e-20)
(1.12075 0.0472827 -5.53865e-20)
(1.12372 0.0372085 -1.82996e-20)
(1.12757 0.0279184 3.55886e-20)
(1.1327 0.0192898 -1.80903e-20)
(1.1397 0.0112191 -1.84066e-20)
(1.14947 0.0036152 -7.1583e-22)
(1.16282 -0.00356092 1.35293e-20)
(1.1764 -0.00993675 1.25827e-20)
(1.16675 -0.0138114 -2.53304e-20)
(1.0707 -0.012449 -3.60705e-20)
(0.816459 -0.0064027 -2.1231e-20)
(0.398317 -0.00113427 -3.95102e-20)
(0.214852 0.000390752 -4.4226e-19)
(0.676339 0.0048607 0)
(0.993413 0.0113779 -1.23082e-19)
(1.14701 0.015269 1.11353e-19)
(1.18425 0.013896 1.08721e-19)
(1.17644 0.00902931 0)
(1.16269 0.00290061 1.07442e-19)
(1.15254 -0.00367494 0)
(1.14587 -0.010641 0)
(1.14159 -0.0180907 4.82272e-20)
(1.13902 -0.0261357 0)
(1.13776 -0.0349136 -3.79905e-20)
(1.13754 -0.0446071 -1.33297e-21)
(1.13819 -0.055453 3.88967e-21)
(1.13955 -0.0677081 5.03979e-21)
(1.14151 -0.0817314 3.72114e-21)
(1.14394 -0.0980231 5.66444e-22)
(1.1467 -0.117277 -2.7091e-21)
(1.14957 -0.140478 -6.90506e-22)
(1.15222 -0.169176 -9.25773e-21)
(1.15408 -0.205667 5.46561e-20)
(1.15385 -0.253881 -2.85151e-20)
(1.14926 -0.320661 0)
(1.13576 -0.422455 0)
(1.0762 -0.580371 3.40211e-19)
(0.814866 -0.670882 0)
(0.213887 -0.36312 5.22523e-17)
(0.356444 0.450013 -1.62653e-19)
(0.899492 0.654679 -5.86065e-20)
(1.08698 0.487079 -1.82516e-19)
(1.11359 0.367082 1.85391e-19)
(1.12576 0.290607 4.36262e-19)
(1.13176 0.237309 3.44695e-19)
(1.13461 0.197567 -6.75687e-20)
(1.13575 0.166368 -3.37356e-22)
(1.13608 0.140978 1.76265e-20)
(1.13593 0.11971 -4.18534e-23)
(1.1356 0.101527 -6.16927e-20)
(1.13529 0.0856918 1.44127e-20)
(1.13519 0.07171 -3.17915e-20)
(1.13548 0.0592257 -1.65986e-20)
(1.13634 0.047966 -4.95336e-22)