/*--------------------------------*- C++ -*----------------------------------*\
  =========                 |
  \\      /  F ield         | OpenFOAM: The Open Source CFD Toolbox
   \\    /   O peration     | Website:  https://openfoam.org
    \\  /    A nd           | Version:  7
     \\/     M anipulation  |
\*---------------------------------------------------------------------------*/
FoamFile
{
    version     2.0;
    format      ascii;
    class       volScalarField;
    location    "25";
    object      k;
}
// * * * * * * * * * * * * * * * * * * * * * * * * * * * * * * * * * * * * * //

dimensions      [0 2 -2 0 0 0 0];

internalField   nonuniform List<scalar> 
17475
(
0.00763366
0.0124982
0.0125514
0.0125508
0.0125506
0.0125505
0.0125505
0.0125505
0.0125504
0.0125502
0.0125503
0.0125506
0.0125503
0.0125503
0.0125505
0.0125503
0.0125503
0.0125505
0.0125503
0.0125502
0.0125509
0.012551
0.0125496
0.0125516
0.0125469
0.0125588
0.0125589
0.012559
0.0125591
0.0125589
0.0125588
0.0125587
0.0125587
0.0125586
0.0125586
0.0125585
0.0125584
0.0125582
0.0125586
0.0125629
0.0125696
0.0125761
0.0125821
0.0125878
0.0125928
0.0125975
0.0126018
0.0126057
0.0126092
0.0126126
0.0126156
0.0126185
0.0126207
0.0126101
0.0120187
0.000246175
0.00440807
0.00528564
0.00530425
0.00529484
0.00529052
0.00528848
0.00528722
0.00528652
0.00528599
0.00528568
0.00528541
0.00528521
0.00528506
0.00528487
0.00528476
0.00528465
0.00528457
0.00528447
0.00528442
0.00528438
0.00528431
0.00528533
0.00528309
0.00528705
0.00529099
0.00529391
0.00529405
0.0052941
0.00529367
0.00529353
0.00529351
0.00529351
0.00529351
0.00529353
0.00529349
0.00529347
0.00529322
0.00529228
0.00529317
0.00529503
0.00529718
0.00529944
0.00530162
0.00530378
0.00530584
0.00530792
0.00531003
0.00531243
0.00531527
0.00531908
0.00532441
0.00532165
0.00502939
0.0016297
3.09204e-05
0.0018464
0.00307734
0.00319509
0.00318633
0.00317741
0.00317241
0.00316945
0.00316765
0.00316636
0.00316546
0.00316482
0.00316434
0.00316387
0.00316346
0.00316312
0.00316285
0.0031626
0.00316236
0.00316212
0.00316189
0.0031622
0.00316179
0.00316333
0.00316436
0.00316579
0.00316768
0.00316849
0.00316847
0.00316831
0.00316815
0.00316824
0.00316834
0.00316846
0.0031686
0.00316874
0.00316887
0.00316858
0.00316824
0.00316855
0.00316914
0.00316992
0.00317085
0.00317194
0.00317321
0.00317464
0.00317632
0.00317849
0.00318151
0.00318602
0.00319299
0.00320141
0.00315739
0.00249628
0.000283196
9.87251e-06
0.000849015
0.00201203
0.00223587
0.00224417
0.00223407
0.00222726
0.00222299
0.00222017
0.00221819
0.00221676
0.00221574
0.00221493
0.0022142
0.00221353
0.00221299
0.00221254
0.00221212
0.00221168
0.00221126
0.00221117
0.00221081
0.00221149
0.00221219
0.00221291
0.00221346
0.00221414
0.00221486
0.0022151
0.00221512
0.00221501
0.0022152
0.00221543
0.00221568
0.00221596
0.00221628
0.00221658
0.00221649
0.00221651
0.00221698
0.0022175
0.00221813
0.00221891
0.00221992
0.00222123
0.00222285
0.00222487
0.00222761
0.00223167
0.00223786
0.00224701
0.00224984
0.00213824
0.00133302
8.90266e-05
4.4719e-06
0.000439846
0.00138554
0.00168587
0.00171882
0.00171182
0.0017043
0.0016992
0.00169569
0.00169323
0.00169134
0.00168997
0.00168892
0.00168796
0.00168705
0.00168632
0.00168573
0.00168514
0.00168448
0.00168406
0.00168355
0.00168377
0.00168397
0.00168416
0.00168443
0.00168476
0.00168508
0.00168536
0.00168568
0.00168581
0.00168585
0.00168617
0.00168653
0.00168694
0.00168738
0.00168787
0.00168827
0.00168835
0.00168881
0.00168946
0.0016901
0.00169086
0.00169174
0.00169288
0.0016944
0.00169635
0.00169877
0.00170206
0.00170685
0.00171397
0.00172266
0.00171146
0.00153764
0.000771763
4.18963e-05
2.44648e-06
0.000256279
0.000986652
0.00132563
0.00138413
0.00138312
0.00137584
0.00137034
0.00136636
0.00136356
0.0013614
0.00135975
0.00135851
0.00135739
0.00135628
0.00135535
0.00135459
0.00135383
0.00135312
0.00135234
0.00135219
0.00135206
0.00135189
0.00135174
0.00135167
0.00135176
0.00135187
0.001352
0.00135221
0.00135252
0.00135267
0.00135309
0.00135359
0.00135421
0.00135482
0.00135549
0.00135596
0.00135636
0.00135709
0.00135791
0.0013587
0.00135966
0.00136067
0.00136192
0.00136366
0.00136592
0.00136869
0.00137239
0.00137751
0.00138464
0.00139025
0.00136193
0.00114471
0.000485586
2.44416e-05
1.51689e-06
0.000164775
0.000723966
0.00106983
0.00115114
0.00115754
0.00115152
0.001146
0.0011418
0.00113875
0.00113641
0.00113456
0.00113319
0.00113194
0.00113068
0.00112958
0.00112864
0.00112782
0.00112681
0.00112619
0.0011258
0.00112543
0.00112496
0.00112452
0.00112417
0.0011241
0.00112401
0.001124
0.00112419
0.00112462
0.00112489
0.00112533
0.00112604
0.00112691
0.00112765
0.00112848
0.00112909
0.00112976
0.0011307
0.00113167
0.0011326
0.00113377
0.0011349
0.0011363
0.00113818
0.00114065
0.00114363
0.0011475
0.00115261
0.00115926
0.00116028
0.00111506
0.000874842
0.000329982
1.60543e-05
1.02919e-06
0.000114568
0.000547042
0.000879004
0.000978785
0.000992934
0.000989038
0.0009839
0.000979812
0.000976666
0.000974121
0.000972139
0.000970596
0.000969161
0.000967829
0.000966553
0.000965424
0.000964345
0.000963412
0.000962612
0.000961988
0.000961488
0.000960787
0.000959989
0.000959368
0.000959154
0.000958936
0.000958853
0.000959056
0.000959522
0.000959915
0.000960435
0.000961337
0.000962376
0.000963256
0.000964228
0.000965115
0.000966072
0.000967125
0.000968207
0.000969384
0.000970743
0.000971939
0.000973489
0.000975477
0.000978008
0.000980881
0.000984771
0.000989954
0.000995427
0.000990983
0.000931083
0.000684549
0.000237959
1.12597e-05
7.45366e-07
8.42755e-05
0.000425121
0.000732176
0.00084551
0.000867311
0.000866401
0.000861696
0.000857471
0.000854214
0.000851931
0.000850084
0.000848384
0.000846763
0.000845464
0.000844107
0.000842511
0.000841412
0.000840311
0.000839184
0.00083823
0.000837773
0.000836905
0.000835668
0.000834821
0.000834486
0.000834176
0.000834097
0.000834402
0.000834919
0.000835379
0.000836056
0.00083711
0.000838235
0.000839196
0.000840409
0.000841794
0.000843112
0.000844157
0.000845326
0.00084689
0.000848316
0.000849439
0.000850963
0.000852849
0.000855471
0.000858542
0.000862314
0.000867093
0.000870862
0.000860896
0.000788822
0.000547208
0.000180248
8.4018e-06
5.66695e-07
6.47082e-05
0.000339359
0.000617687
0.000739691
0.000768403
0.000770583
0.000767056
0.000762166
0.000758476
0.000756825
0.000755072
0.000753424
0.000751851
0.000750711
0.000748983
0.00074715
0.000746161
0.000744824
0.000743243
0.000742189
0.000741975
0.00074081
0.000739177
0.000738098
0.000737511
0.000737061
0.000737023
0.000737492
0.000738008
0.000738429
0.000739101
0.000740444
0.000741621
0.000742428
0.000744
0.000746153
0.000747764
0.000748665
0.000749763
0.000751851
0.000753484
0.00075456
0.000756059
0.000758058
0.000760695
0.000763721
0.000767167
0.000771102
0.000773088
0.000758542
0.000678097
0.000448583
0.000142361
6.57832e-06
4.47589e-07
5.14811e-05
0.000278227
0.000528536
0.000654644
0.000689274
0.000694605
0.000692301
0.000686556
0.000681821
0.000680468
0.000679643
0.000678555
0.000676597
0.000675461
0.000673423
0.000671183
0.000670961
0.000669463
0.000667436
0.000666529
0.000666247
0.000664939
0.000663458
0.000662439
0.000661702
0.000660576
0.000660299
0.000660706
0.0006609
0.000660979
0.000661567
0.000663772
0.000665198
0.0006655
0.000667388
0.000670215
0.000672093
0.000672865
0.000673829
0.000676431
0.000678677
0.000679854
0.000681493
0.000684315
0.00068652
0.000688386
0.000691115
0.000694469
0.000695242
0.000677197
0.000591165
0.000376674
0.000116344
5.34541e-06
3.65414e-07
4.22683e-05
0.000234062
0.000459242
0.000585343
0.000624634
0.000632482
0.00063058
0.000623598
0.000618652
0.000618965
0.000618429
0.000617482
0.000615536
0.000613856
0.000611854
0.000610746
0.000612064
0.000610461
0.000607702
0.000606308
0.000605407
0.000603941
0.000602417
0.000601678
0.000600993
0.000599982
0.000599242
0.000598722
0.000598167
0.000597934
0.00059853
0.000601436
0.000603309
0.000603337
0.000605103
0.000608881
0.000611058
0.000611214
0.000611865
0.000615196
0.000618751
0.000620383
0.00062186
0.000625867
0.000627583
0.00062743
0.000628005
0.000631806
0.000632865
0.000612415
0.000523155
0.000324243
9.81307e-05
4.49306e-06
3.07308e-07
3.57203e-05
0.000201677
0.000405201
0.000528836
0.000571275
0.000579888
0.000578536
0.000572038
0.000566783
0.000568011
0.000569283
0.000567681
0.000565233
0.000563434
0.000561842
0.000561151
0.000562161
0.000562106
0.000559647
0.000557592
0.000555981
0.000554345
0.000553001
0.000552713
0.000552137
0.000551035
0.000549684
0.000548986
0.000547901
0.000546738
0.000546552
0.000549332
0.000552367
0.000553848
0.00055559
0.00055963
0.000561466
0.000560663
0.000560689
0.000564245
0.000568825
0.000571435
0.000572659
0.000577649
0.000579949
0.000578507
0.000577173
0.000580897
0.000582563
0.000560884
0.000470278
0.000285648
8.50882e-05
3.89445e-06
2.6493e-07
3.09228e-05
0.00017748
0.000362195
0.000483118
0.000527261
0.000535342
0.000535292
0.000530485
0.000524739
0.000526293
0.000529697
0.000526961
0.000521664
0.000521212
0.000520692
0.000519499
0.000519327
0.000520962
0.000518693
0.000515256
0.00051307
0.000512096
0.000511759
0.000511933
0.000512337
0.000510268
0.000506271
0.000506115
0.000505217
0.00050257
0.000502983
0.000505799
0.000508773
0.000512799
0.000514533
0.000517442
0.000518888
0.000518563
0.000519182
0.00052241
0.000526752
0.00052899
0.00053147
0.000537503
0.000539568
0.000538019
0.000535084
0.000537596
0.00054164
0.000519019
0.00042802
0.000255561
7.50632e-05
3.42132e-06
2.32666e-07
2.72342e-05
0.000158456
0.000327077
0.000442214
0.000488229
0.000497523
0.000497112
0.000495243
0.000491521
0.00049328
0.000494632
0.000488753
0.000486227
0.000486529
0.000486196
0.00048206
0.000480606
0.000484234
0.000480974
0.000476512
0.000473272
0.000473961
0.000477095
0.000478887
0.000478119
0.000475156
0.000472491
0.000471424
0.000469536
0.000468347
0.000469334
0.000466609
0.000471626
0.000477575
0.000476358
0.000479706
0.000479852
0.00048103
0.000480521
0.00048372
0.000488982
0.000490399
0.000491786
0.000496867
0.000500803
0.000499508
0.000493362
0.000499644
0.000505016
0.000481552
0.000391754
0.000231233
6.72107e-05
3.04594e-06
2.07383e-07
2.43335e-05
0.000142785
0.000298241
0.000406724
0.00045455
0.000467574
0.000466175
0.000463144
0.000459751
0.000457295
0.00046116
0.000452528
0.000450214
0.000451571
0.000447381
0.000449214
0.000447426
0.000446578
0.000446723
0.000442801
0.000441538
0.000438789
0.00044453
0.000454888
0.000467739
0.000475249
0.000478389
0.000476119
0.000466956
0.000452184
0.000438508
0.000431599
0.000432998
0.000437685
0.000444102
0.000444465
0.000443906
0.000444154
0.000445493
0.000448859
0.000453928
0.000450467
0.000456165
0.000462413
0.000467123
0.000465842
0.000459372
0.000464466
0.000468614
0.000445367
0.00035845
0.000210597
6.07722e-05
2.73962e-06
1.83994e-07
2.17534e-05
0.000128896
0.000271651
0.000375148
0.000424934
0.00044151
0.000437905
0.000434097
0.000432593
0.000420896
0.000434582
0.000425558
0.000420957
0.000424067
0.000418969
0.000416431
0.000419485
0.000417318
0.000416121
0.000403208
0.000410189
0.000420612
0.000448114
0.000493339
0.000503438
0.00044814
0.000402777
0.000403878
0.000481834
0.000522585
0.000476737
0.000429263
0.00042703
0.000418134
0.00040905
0.000416012
0.000417722
0.000414803
0.000416295
0.000421004
0.000426021
0.000424512
0.000429041
0.000436366
0.000435309
0.00043397
0.000431619
0.000436133
0.000437188
0.000410322
0.00032709
0.000191558
5.50193e-05
2.47553e-06
1.46381e-07
1.90117e-05
0.000114892
0.000244726
0.00034728
0.000398253
0.000410014
0.000408406
0.0004099
0.000401917
0.000417112
0.000410489
0.000402088
0.000394444
0.000396339
0.000398841
0.000389118
0.00039806
0.000394719
0.000400085
0.000410248
0.000445233
0.000492783
0.000504071
0.0004109
0.000133759
2.31224e-06
1.26201e-05
0.000348572
0.000479209
0.000508368
0.000477998
0.000451166
0.000420251
0.000390228
0.000392579
0.000386016
0.000396898
0.000399121
0.000401634
0.000402686
0.000399577
0.000398647
0.000403357
0.000403609
0.000407685
0.000411019
0.000407117
0.000376359
0.000299181
0.000174507
4.96485e-05
2.2204e-06
5.38094e-08
1.33977e-05
9.75763e-05
0.000219635
0.000316559
0.000365068
0.000381007
0.000378869
0.000380078
0.000383273
0.000389285
0.000385938
0.000378044
0.000379948
0.000380496
0.00037916
0.00037262
0.000374254
0.000375281
0.000392409
0.000455546
0.000515749
0.000488855
0.000410256
0.000115656
4.91676e-07
0.000256648
0.000511046
0.000537842
0.000504191
0.000424474
0.000385072
0.000374051
0.000370508
0.000368578
0.00037303
0.000375146
0.000377452
0.000377731
0.000381084
0.000379154
0.000375213
0.000381151
0.000380691
0.000377221
0.00034432
0.000276109
0.000159472
4.4322e-05
1.83185e-06
8.01282e-08
1.57515e-05
9.63396e-05
0.000210729
0.000309484
0.000370998
0.000379347
0.000377511
0.000378113
0.000384219
0.000406096
0.000404625
0.000403589
0.000392103
0.000395768
0.000387641
0.000376567
0.000382243
0.000391379
0.000440732
0.000515624
0.000515997
0.000466476
0.000237543
1.48946e-05
7.53811e-05
0.000439053
0.000559256
0.000543485
0.000474973
0.000407677
0.000383103
0.000395656
0.000369966
0.000378896
0.000369999
0.000387319
0.000395055
0.000378386
0.000390609
0.000379725
0.000383527
0.0003805
0.0003686
0.000324032
0.000252902
0.000154443
4.33929e-05
2.13036e-06
1.23354e-07
1.61165e-05
9.62998e-05
0.000201458
0.000295063
0.000345736
0.000369355
0.000370197
0.000398691
0.000389445
0.00039333
0.000400055
0.000427849
0.000411396
0.000410434
0.000384623
0.000387855
0.000389934
0.000405752
0.000456424
0.000536094
0.00049372
0.000377841
0.000136734
8.07603e-06
1.44217e-07
6.56354e-07
4.3308e-05
0.000330614
0.000490091
0.000535778
0.000504015
0.000418226
0.000383745
0.000375623
0.000363159
0.000363952
0.000358666
0.000372904
0.00038316
0.000380736
0.000375899
0.000365607
0.000380567
0.000361211
0.000344395
0.000306593
0.000237222
0.000139805
4.14796e-05
1.87915e-06
1.41264e-07
1.69859e-05
9.98654e-05
0.000192853
0.000289365
0.00033921
0.000374136
0.000382409
0.000388359
0.000388424
0.000391496
0.000412733
0.000412419
0.000394538
0.000403566
0.000400105
0.00039098
0.000395505
0.000399953
0.000478784
0.000501747
0.00047395
0.000365635
0.000105105
1.35091e-05
2.13742e-05
4.52343e-05
6.47418e-05
5.80578e-05
4.42451e-05
1.4916e-05
3.96411e-05
0.000265814
0.000457152
0.000521607
0.000508366
0.000415067
0.000412896
0.000378869
0.000369162
0.000356744
0.000351329
0.000358865
0.00036494
0.000366284
0.000360607
0.000355084
0.000357661
0.000349001
0.000350102
0.000294178
0.000226846
0.000133594
3.87e-05
1.7641e-06
1.45591e-07
1.70934e-05
9.69975e-05
0.000191208
0.000271181
0.0003369
0.000364699
0.000383843
0.000440698
0.000403409
0.000400007
0.000408944
0.000412111
0.000413053
0.00041089
0.000394292
0.000386645
0.000399005
0.000421195
0.00048135
0.000490557
0.000464651
0.000353164
0.00010087
3.81546e-05
0.000160895
0.000365712
0.000500837
0.000496114
0.000336713
0.000111923
5.2621e-05
0.000238157
0.000413018
0.00053902
0.000491671
0.000415595
0.000411762
0.000398142
0.000369194
0.000372989
0.000387868
0.000355448
0.00036786
0.000358547
0.000350801
0.000350663
0.000373234
0.000347119
0.000333953
0.000287853
0.000221505
0.000130992
3.74047e-05
1.70536e-06
1.45642e-07
1.67012e-05
9.85125e-05
0.000213386
0.000278052
0.000359724
0.00036372
0.000395602
0.000436458
0.000407256
0.00041501
0.000420013
0.000413665
0.000416512
0.000439007
0.000393322
0.000382089
0.000389949
0.000414197
0.000494839
0.000479723
0.000427727
0.000332053
0.00011593
0.000118926
0.000396097
0.000657635
0.00079143
0.000815445
0.000642964
0.000291352
9.48213e-05
0.000206649
0.00041103
0.000536743
0.000480592
0.00042293
0.000402224
0.000401141
0.000384795
0.000405051
0.000389343
0.00036547
0.000375862
0.000362649
0.000358417
0.00035561
0.00037546
0.000349755
0.000327757
0.000306143
0.000223934
0.000140327
3.83351e-05
1.71877e-06
1.49939e-07
1.73191e-05
0.000105349
0.000212896
0.00028382
0.000372064
0.000387677
0.000413704
0.000435583
0.000424597
0.000425521
0.000441772
0.00042138
0.000414768
0.000418852
0.000398102
0.000380571
0.000387649
0.000415236
0.000469762
0.00047586
0.000411015
0.000297766
0.000157035
0.000273061
0.000671005
0.000917706
0.00104284
0.00109118
0.000913002
0.000480061
0.000169403
0.000216971
0.000378593
0.000499026
0.000492265
0.000425902
0.00039299
0.000403331
0.000396998
0.00038639
0.000382932
0.000376989
0.000376286
0.000371814
0.000389912
0.000392418
0.000404918
0.000370089
0.000351879
0.000304155
0.000229477
0.000150741
3.93661e-05
1.7572e-06
1.48993e-07
1.71419e-05
0.000112091
0.000220225
0.00032792
0.000364508
0.000395184
0.000423168
0.000428374
0.000467072
0.000447304
0.000477456
0.000468088
0.000420451
0.000420851
0.000423586
0.000386856
0.00039473
0.000413544
0.000460589
0.000487975
0.000432007
0.000296842
0.000238798
0.00047522
0.000950654
0.00116963
0.00130816
0.00138191
0.00116381
0.000654489
0.000273611
0.000269165
0.000365471
0.000501831
0.000481564
0.000451015
0.000391283
0.000426846
0.000402603
0.000384604
0.000388301
0.000394246
0.000395242
0.000376573
0.00041298
0.000385922
0.00041098
0.000399047
0.000353599
0.000299644
0.000236205
0.000150194
4.00728e-05
1.74013e-06
1.46402e-07
1.67545e-05
0.000106384
0.000237672
0.000322888
0.000388879
0.000428811
0.000448351
0.000429448
0.000456015
0.000450057
0.000449734
0.000445437
0.000434622
0.000444385
0.000425195
0.00039593
0.000427311
0.000422752
0.000468846
0.000475575
0.000432996
0.000333057
0.000346824
0.000672152
0.00117823
0.00141673
0.00157665
0.00167937
0.00134986
0.000793183
0.000399147
0.000341426
0.000371915
0.000500421
0.00049441
0.000432031
0.000393918
0.000425992
0.000413123
0.000390697
0.000430118
0.000403383
0.000439035
0.000409749
0.000430215
0.00038193
0.00038684
0.000378374
0.000348386
0.000297974
0.000239323
0.000143481
3.86684e-05
1.67137e-06
1.46933e-07
1.68721e-05
0.000106821
0.000257046
0.000326169
0.000384056
0.000414647
0.00042886
0.000434626
0.000444302
0.000437613
0.000437053
0.000447451
0.000440766
0.000470133
0.000439493
0.000400805
0.000412797
0.000438199
0.000492251
0.000476171
0.000414696
0.000382948
0.000454936
0.000835056
0.00140305
0.00170163
0.00188115
0.00201119
0.0015015
0.000925129
0.000539105
0.000418306
0.000401313
0.000461319
0.000469224
0.000426987
0.000394575
0.000427418
0.00045667
0.000402037
0.000421613
0.000417598
0.000422659
0.000411166
0.000405641
0.000384754
0.000381401
0.000403951
0.000368807
0.000300005
0.000240733
0.000140312
3.77754e-05
1.64154e-06
1.48473e-07
1.70515e-05
0.000115637
0.000257229
0.000353642
0.00037987
0.000428746
0.000445662
0.000438857
0.000438709
0.000438182
0.00043625
0.000442616
0.000448017
0.000449145
0.000428457
0.000425201
0.00041869
0.000435048
0.000480477
0.000492925
0.000411498
0.000410489
0.000546001
0.000986574
0.00170321
0.00205819
0.00223219
0.00242478
0.00174745
0.00111508
0.000687093
0.000468393
0.000411818
0.000452508
0.00046479
0.000418677
0.000400601
0.000456232
0.000452577
0.000453506
0.000449124
0.000426411
0.00041796
0.000408709
0.000404781
0.000393633
0.000387006
0.000389196
0.000361608
0.000324008
0.000235782
0.00013814
3.67357e-05
1.59633e-06
1.46475e-07
1.71601e-05
0.000111717
0.000243239
0.000338831
0.000417536
0.00043453
0.000454794
0.000446302
0.00045282
0.000440137
0.000446548
0.000441874
0.000465064
0.000454243
0.00042774
0.000422747
0.000421528
0.00048543
0.000465719
0.000468549
0.000432985
0.000425501
0.000586114
0.00114793
0.00207185
0.00249747
0.00262327
0.00294344
0.0021917
0.00140357
0.000805904
0.000479773
0.00042346
0.000471544
0.000452369
0.000417216
0.000403808
0.000434442
0.000439501
0.000449335
0.000422713
0.000420725
0.000430394
0.000413968
0.000410821
0.000421391
0.000390515
0.000398885
0.000392759
0.000318168
0.000237721
0.000138994
3.64898e-05
1.57028e-06
1.45563e-07
1.69369e-05
0.000109697
0.000244347
0.000338491
0.000398755
0.000431066
0.000478187
0.000462346
0.000465447
0.000450164
0.000472889
0.000477135
0.000461621
0.000482686
0.00043498
0.000428205
0.000426969
0.000453831
0.000461355
0.000463316
0.000428422
0.000439116
0.000611176
0.00122937
0.00248761
0.00300662
0.00302991
0.00354065
0.00283774
0.00173061
0.000829073
0.000486613
0.000425362
0.000468378
0.000446912
0.000424081
0.000435164
0.000444221
0.000426523
0.000439365
0.000417301
0.000416603
0.000421041
0.000430377
0.000422288
0.000423452
0.000397814
0.00039446
0.000395441
0.00031706
0.000249418
0.000144058
3.77713e-05
1.58455e-06
1.44971e-07
1.66465e-05
0.000110088
0.000246512
0.000345568
0.000429637
0.000437782
0.000463575
0.000501426
0.000471163
0.000464206
0.000499746
0.000464007
0.000468434
0.000460338
0.000457197
0.000432485
0.000455785
0.000454973
0.000480912
0.000475309
0.000452795
0.000467512
0.000594672
0.00111044
0.00269868
0.00353011
0.00341472
0.00412785
0.00351336
0.00190873
0.000824671
0.000488842
0.000437824
0.00044945
0.000461785
0.000465701
0.000435823
0.000427997
0.000439442
0.000445682
0.000418573
0.000445836
0.000422421
0.000466365
0.000463391
0.000422856
0.000423933
0.000410433
0.000393423
0.000319984
0.000261179
0.000147889
3.81728e-05
1.6095e-06
1.4959e-07
1.75587e-05
0.000117671
0.000250178
0.000341124
0.000415247
0.000457253
0.00046658
0.000493698
0.000479076
0.000479292
0.000493571
0.000474017
0.000467675
0.00045487
0.000452572
0.000469314
0.000493261
0.000468122
0.000469944
0.000482139
0.000454485
0.00046808
0.000561146
0.000974068
0.00252481
0.00396421
0.00372286
0.00454883
0.0040214
0.00194125
0.000800896
0.000491187
0.000448986
0.000493375
0.000451852
0.000472088
0.000452143
0.000426588
0.000443666
0.000443846
0.000421891
0.000431948
0.000434495
0.000474685
0.0004698
0.000452446
0.000432672
0.000413391
0.000405667
0.000325056
0.000259123
0.000158787
4.11265e-05
1.65523e-06
1.52123e-07
1.76737e-05
0.000125918
0.000257638
0.000346906
0.000421851
0.000463317
0.000482489
0.000513567
0.000516337
0.000531369
0.000524353
0.000500536
0.000471147
0.000454896
0.000447328
0.000479025
0.000488603
0.000462106
0.000461882
0.000503499
0.000483551
0.000467437
0.000533653
0.000861884
0.00220108
0.0041757
0.00391574
0.00470229
0.00421159
0.0018588
0.000759683
0.000486881
0.000459576
0.000476198
0.000472323
0.000464118
0.00045009
0.000454137
0.000442554
0.000447488
0.000431666
0.000443136
0.000447305
0.000460252
0.000457759
0.000439844
0.00043179
0.000417484
0.000387408
0.000330475
0.000271917
0.000161898
4.03852e-05
1.66202e-06
1.53303e-07
1.76771e-05
0.000120466
0.000271068
0.000376366
0.00041842
0.000473842
0.000511459
0.000555721
0.000516229
0.000513246
0.000523077
0.000496796
0.000475445
0.000459471
0.000450537
0.00046633
0.000477414
0.000481657
0.00046163
0.000494067
0.00047664
0.000465517
0.000513284
0.000779354
0.00189712
0.00409847
0.00397512
0.00461432
0.00411529
0.00172568
0.000727397
0.000479858
0.000449767
0.000461543
0.000474875
0.000458241
0.000449752
0.000451157
0.000448498
0.000449247
0.000438068
0.000465451
0.000456608
0.000476611
0.000485693
0.000441497
0.000427971
0.000414148
0.000386089
0.00034969
0.000286584
0.000163417
4.03902e-05
1.6498e-06
1.58923e-07
1.85937e-05
0.00012405
0.000305798
0.00039141
0.00045047
0.000474146
0.000507034
0.000536112
0.000517646
0.000519145
0.000510216
0.000494671
0.000493354
0.000466987
0.000496145
0.000465864
0.000465632
0.000469171
0.000460772
0.000479129
0.000470674
0.000463778
0.00050608
0.000735021
0.00167913
0.00377696
0.00385337
0.00426523
0.00374844
0.00157913
0.000697822
0.000477763
0.000445735
0.000452546
0.000490801
0.000490812
0.000469352
0.000455402
0.000455734
0.000457983
0.000454402
0.000465866
0.000465904
0.000471234
0.000489172
0.000485801
0.000431921
0.000423617
0.000385492
0.000372263
0.000295082
0.000165111
4.00878e-05
1.65326e-06
1.62476e-07
1.88073e-05
0.000128412
0.000304532
0.000393883
0.000456854
0.000480166
0.000508109
0.000551421
0.000564855
0.000521215
0.000502366
0.000492948
0.000488664
0.000471215
0.000478282
0.000467313
0.000500823
0.000469496
0.000464567
0.000469474
0.000470042
0.000461744
0.000496
0.00070305
0.00153501
0.00334796
0.00354757
0.00372988
0.00327423
0.00144658
0.000675184
0.000493338
0.000445401
0.000451635
0.000472681
0.000472347
0.00047905
0.000463871
0.000477384
0.000464202
0.000464589
0.000484313
0.000485558
0.000467016
0.000474017
0.000464161
0.000438911
0.000434375
0.000396415
0.000379639
0.000302978
0.000172661
4.0361e-05
1.65665e-06
1.7201e-07
2.03981e-05
0.000141224
0.000316398
0.000402186
0.000462263
0.000493185
0.00052048
0.00053943
0.000543636
0.000544026
0.000511369
0.000496695
0.000524993
0.00050226
0.000477377
0.000475688
0.000512794
0.000472166
0.00046191
0.000497509
0.000465046
0.000462286
0.000489116
0.00067447
0.00142716
0.00290264
0.00309286
0.00309587
0.00276887
0.00132457
0.000661132
0.00049405
0.00047387
0.000464029
0.000470279
0.000472917
0.000473376
0.000515047
0.000474902
0.00046423
0.000489869
0.000499131
0.000483854
0.000470854
0.000473511
0.000471444
0.000445017
0.000431381
0.000406424
0.000395936
0.000322184
0.000177953
4.08642e-05
1.66318e-06
1.82724e-07
2.14278e-05
0.00015416
0.000359805
0.000429381
0.000470594
0.000508598
0.000525276
0.000538211
0.000558048
0.000537746
0.00053318
0.000532155
0.000524909
0.000488943
0.000480099
0.000491959
0.000501591
0.00049755
0.000468644
0.000485287
0.000483904
0.000472978
0.000487972
0.000664078
0.00136637
0.00248712
0.00257944
0.00250562
0.00231629
0.0012162
0.000647176
0.000473896
0.000469527
0.000478894
0.000522127
0.000484602
0.000492367
0.000499263
0.000499183
0.000492166
0.000488385
0.000508339
0.00048149
0.000484566
0.000544572
0.000500902
0.000456295
0.000435441
0.00043456
0.00038209
0.000315578
0.000174919
4.14202e-05
1.68184e-06
1.87335e-07
2.21242e-05
0.000155583
0.00037424
0.000484358
0.000572651
0.000580223
0.000580698
0.000539033
0.000541691
0.000548249
0.000542145
0.000513783
0.000505434
0.000489739
0.000495269
0.000510977
0.000509694
0.00051965
0.000482131
0.000469245
0.000484143
0.000486511
0.000498331
0.000674932
0.0012961
0.00212013
0.0021133
0.00202963
0.00194703
0.00112154
0.000635409
0.00047276
0.000462996
0.000516354
0.000498953
0.000490063
0.000488325
0.000498579
0.000480864
0.000489418
0.000498294
0.000491028
0.000487865
0.000530268
0.000521989
0.000513329
0.000469482
0.000467273
0.000425447
0.000412807
0.000320257
0.00017482
4.16084e-05
1.70483e-06
1.87055e-07
2.24013e-05
0.000161708
0.000389301
0.000517704
0.000573009
0.000579762
0.000593977
0.000575894
0.000551044
0.000521001
0.000535501
0.000507139
0.000495282
0.000490625
0.000512795
0.000519253
0.000524284
0.00049806
0.000480124
0.000478556
0.000488652
0.000481762
0.000506979
0.000648559
0.00122055
0.00181122
0.00173252
0.00167076
0.00165992
0.00103931
0.00062441
0.000476361
0.000472356
0.000521258
0.000500202
0.000500678
0.000490624
0.00049413
0.000493831
0.000480823
0.000502395
0.000481654
0.000499858
0.000520895
0.000519048
0.00053264
0.000526242
0.000456183
0.00044058
0.000415865
0.000327474
0.000181612
4.41615e-05
1.76428e-06
1.80304e-07
2.18193e-05
0.000156058
0.000375748
0.000518069
0.000575729
0.000580511
0.000606768
0.00057801
0.000551069
0.00051337
0.000533757
0.000526088
0.000504836
0.000490233
0.000487237
0.000486894
0.000506155
0.000490234
0.00047534
0.000466781
0.000459412
0.000459483
0.000490335
0.000642896
0.00115208
0.00155993
0.00144247
0.0014111
0.00144049
0.00096488
0.000608753
0.000498834
0.000485673
0.000529257
0.000523213
0.000498183
0.000510532
0.000487132
0.000468684
0.000477811
0.000494137
0.000509676
0.000500909
0.000537711
0.000517471
0.000510278
0.0005089
0.000457132
0.000442371
0.000409592
0.00033599
0.000195925
4.44971e-05
1.81078e-06
1.71844e-07
2.08346e-05
0.00014765
0.000356025
0.000496314
0.000553444
0.000559712
0.000594303
0.000585632
0.000537457
0.000507589
0.000500943
0.000503587
0.000513749
0.000492878
0.00047643
0.000497755
0.000511847
0.000494882
0.000483565
0.000459804
0.000452839
0.00045716
0.000479397
0.000630876
0.00108836
0.00136278
0.00122991
0.00122527
0.00128199
0.000909198
0.000591531
0.000483916
0.000487275
0.000511809
0.000519605
0.000508399
0.000511261
0.0004914
0.000462361
0.00048057
0.00049548
0.000504804
0.00050023
0.000569689
0.000526929
0.000525281
0.000493909
0.000478151
0.000438141
0.000402853
0.000360947
0.000193108
4.55175e-05
1.85051e-06
1.63262e-07
1.96198e-05
0.000137167
0.000331904
0.000469137
0.000524631
0.000529882
0.000570577
0.000556964
0.000539888
0.00050815
0.000495393
0.000522265
0.000488367
0.000483365
0.000469287
0.00048208
0.000485705
0.000479131
0.000465882
0.000452173
0.00046817
0.000471139
0.000495046
0.000625818
0.0010329
0.00120927
0.00107546
0.00109114
0.0011617
0.000861041
0.000577345
0.000487523
0.000468788
0.000483529
0.000510429
0.000483547
0.000482783
0.000469567
0.000457724
0.000459014
0.000466239
0.000478763
0.00051836
0.000547803
0.000533827
0.000521971
0.000481447
0.000472272
0.000447074
0.000402594
0.000360782
0.000192402
4.50165e-05
1.86115e-06
1.6054e-07
1.90793e-05
0.000133903
0.000321352
0.000445469
0.000500129
0.000524695
0.000549487
0.000543318
0.000517434
0.000521987
0.00049574
0.00050169
0.000506242
0.000481014
0.000486755
0.000462102
0.00047068
0.000462543
0.000478729
0.000471301
0.000464527
0.000444788
0.000476406
0.000625676
0.000986127
0.00108926
0.000961688
0.000992124
0.00106944
0.000818297
0.00055506
0.000469456
0.000454547
0.000463924
0.00048899
0.000477162
0.000489571
0.000466204
0.000453972
0.000446081
0.000461523
0.000474775
0.000495997
0.000510559
0.000502372
0.000490735
0.000475584
0.000474823
0.000437629
0.000404137
0.000354959
0.000192601
4.51348e-05
1.87142e-06
1.62447e-07
1.91163e-05
0.000134218
0.000320628
0.000421189
0.000483556
0.00049996
0.000520432
0.000508669
0.000501073
0.000506506
0.000497845
0.00050607
0.000491545
0.000505048
0.000485792
0.000450877
0.000447851
0.000450762
0.000457271
0.000448774
0.000453381
0.000441509
0.000474499
0.000641617
0.000943906
0.000992502
0.000874424
0.000916517
0.000996032
0.000781392
0.000541964
0.000460278
0.000447876
0.000465184
0.000477497
0.000466021
0.0004759
0.000470214
0.000450146
0.000445001
0.000455773
0.000479243
0.000509495
0.000495425
0.000517352
0.000501056
0.000466993
0.000454533