/*--------------------------------*- C++ -*----------------------------------*\
  =========                 |
  \\      /  F ield         | OpenFOAM: The Open Source CFD Toolbox
   \\    /   O peration     | Website:  https://openfoam.org
    \\  /    A nd           | Version:  7
     \\/     M anipulation  |
\*---------------------------------------------------------------------------*/
FoamFile
{
    version     2.0;
    format      ascii;
    class       volScalarField;
    location    "25";
    object      nut;
}
// * * * * * * * * * * * * * * * * * * * * * * * * * * * * * * * * * * * * * //

dimensions      [0 2 -1 0 0 0 0];

internalField   nonuniform List<scalar> 
17475
(
3.12041e-05
0.000188849
0.000188081
0.000188027
0.000188026
0.000188026
0.000188025
0.000188026
0.000188025
0.000188025
0.000188025
0.000188026
0.000188025
0.000188025
0.000188025
0.000188025
0.000188025
0.000188025
0.000188025
0.000188025
0.000188026
0.000188026
0.000188025
0.000188026
0.000188024
0.000188028
0.000188028
0.000188028
0.000188028
0.000188028
0.000188028
0.000188028
0.000188028
0.000188028
0.000188028
0.000188028
0.000188028
0.000188027
0.000188028
0.000188029
0.00018803
0.000188032
0.000188034
0.000188035
0.000188036
0.000188038
0.000188039
0.00018804
0.00018804
0.000188041
0.000188042
0.000188043
0.000188054
0.000188285
0.000150675
9.21838e-07
0.000115381
0.000172095
0.00017659
0.000176753
0.000176758
0.000176756
0.000176754
0.000176753
0.000176751
0.00017675
0.00017675
0.000176749
0.000176749
0.000176747
0.000176747
0.000176747
0.000176747
0.000176747
0.000176747
0.000176746
0.000176747
0.00017675
0.000176743
0.000176752
0.000176755
0.000176761
0.000176761
0.000176761
0.00017676
0.00017676
0.000176761
0.000176761
0.000176761
0.000176761
0.000176761
0.000176761
0.000176761
0.000176758
0.000176758
0.000176758
0.000176757
0.000176757
0.000176758
0.00017676
0.000176761
0.000176762
0.000176764
0.000176766
0.000176769
0.000176768
0.000176706
0.000175367
0.000153946
1.6815e-05
1.20103e-07
5.92115e-05
0.000151147
0.000168229
0.000169906
0.000170015
0.000170019
0.000170015
0.00017001
0.000170003
0.000169999
0.000169997
0.000169995
0.000169992
0.000169987
0.000169984
0.000169983
0.000169983
0.000169982
0.00016998
0.000169979
0.000169982
0.000169981
0.000169986
0.000169987
0.000169988
0.000169994
0.000169996
0.000169996
0.000169995
0.000169996
0.000169997
0.000169998
0.000169999
0.00017
0.00017
0.000170001
0.000169999
0.000169997
0.000169997
0.000169997
0.000169992
0.000169988
0.000169989
0.000169994
0.000169997
0.000169999
0.000170001
0.000170008
0.000170014
0.000169976
0.000169343
0.000161172
0.00010285
3.0421e-06
3.86414e-08
3.04604e-05
0.000127845
0.000159097
0.000164767
0.000165345
0.000165405
0.000165406
0.000165393
0.000165379
0.000165369
0.000165365
0.000165361
0.000165351
0.000165342
0.000165336
0.000165334
0.000165332
0.000165328
0.000165322
0.000165322
0.000165325
0.000165331
0.000165332
0.000165332
0.000165333
0.000165335
0.000165338
0.000165337
0.000165333
0.000165334
0.00016534
0.000165344
0.000165348
0.000165349
0.00016535
0.000165354
0.000165351
0.00016535
0.000165354
0.000165356
0.000165347
0.000165342
0.000165349
0.000165363
0.000165374
0.000165378
0.00016538
0.000165386
0.000165379
0.000165154
0.000162514
0.000144075
6.41377e-05
1.0791e-06
1.75753e-08
1.70745e-05
0.000104941
0.000148987
0.000159903
0.000161706
0.000161933
0.000161957
0.000161939
0.000161924
0.000161911
0.000161904
0.000161899
0.00016188
0.000161867
0.00016186
0.000161858
0.000161852
0.000161842
0.000161834
0.000161832
0.000161839
0.00016184
0.000161835
0.000161845
0.000161848
0.000161842
0.000161838
0.00016183
0.000161821
0.000161826
0.000161839
0.000161852
0.000161861
0.000161863
0.00016187
0.000161874
0.000161868
0.00016187
0.000161879
0.000161882
0.000161878
0.000161878
0.00016189
0.000161915
0.00016194
0.000161946
0.000161947
0.000161937
0.000161859
0.000161068
0.000154856
0.000126133
4.19408e-05
5.50241e-07
9.6312e-09
1.05256e-05
8.50314e-05
0.00013871
0.000154729
0.00015855
0.000159143
0.000159229
0.000159205
0.000159187
0.000159183
0.000159177
0.000159178
0.000159156
0.000159136
0.000159121
0.000159122
0.000159104
0.00015909
0.000159085
0.000159087
0.000159084
0.000159067
0.000159056
0.000159082
0.000159088
0.000159065
0.00015903
0.000159006
0.000159006
0.000159027
0.000159051
0.000159077
0.000159094
0.0001591
0.000159128
0.000159131
0.000159115
0.000159124
0.000159141
0.00015914
0.000159149
0.000159149
0.000159156
0.000159188
0.000159238
0.000159247
0.000159246
0.000159194
0.000158929
0.000157013
0.000146706
0.000109088
2.91191e-05
3.33113e-07
5.97672e-09
7.04796e-06
6.89567e-05
0.000128483
0.000149317
0.000155591
0.000156844
0.000157072
0.000157023
0.000156971
0.000156989
0.000156995
0.000156994
0.000156984
0.000156968
0.000156931
0.000156948
0.000156928
0.000156886
0.000156852
0.000156855
0.000156862
0.00015681
0.000156806
0.000156819
0.000156814
0.000156768
0.000156689
0.000156659
0.000156703
0.000156741
0.000156782
0.000156825
0.000156857
0.000156853
0.000156928
0.000156955
0.000156911
0.000156917
0.000156931
0.00015693
0.000156937
0.000156906
0.000156907
0.000156944
0.000157061
0.00015708
0.000157036
0.000156913
0.000156305
0.000152723
0.000138584
9.40676e-05
2.13165e-05
2.23028e-07
4.05682e-09
5.04607e-06
5.64196e-05
0.000118631
0.000144192
0.000152952
0.000155203
0.000155696
0.000155659
0.000155614
0.000155655
0.000155676
0.000155595
0.000155528
0.000155557
0.000155484
0.000155503
0.000155451
0.000155329
0.000155203
0.000155184
0.000155254
0.000155154
0.000155102
0.000155038
0.000155025
0.000154937
0.00015481
0.000154822
0.000154973
0.00015501
0.000155018
0.000155086
0.000155146
0.000155132
0.000155256
0.000155312
0.000155249
0.000155243
0.000155249
0.000155274
0.000155267
0.000155204
0.000155185
0.000155242
0.00015546
0.000155471
0.000155346
0.000155121
0.000153944
0.000148462
0.000130826
8.14024e-05
1.6216e-05
1.57432e-07
2.9384e-09
3.79319e-06
4.67259e-05
0.000109383
0.000139705
0.000150977
0.000154636
0.000155448
0.000155428
0.000155368
0.000155521
0.000155696
0.000155513
0.000155329
0.000155492
0.000155356
0.000155214
0.000154946
0.000154632
0.000154349
0.000154266
0.000154449
0.00015437
0.000154188
0.000154093
0.000154037
0.000153744
0.000153506
0.000153589
0.000154004
0.000154127
0.000153991
0.000154083
0.000154218
0.000154251
0.000154423
0.000154458
0.000154373
0.000154326
0.000154375
0.000154436
0.000154267
0.000154138
0.000154115
0.000154311
0.000154619
0.000154585
0.000154377
0.00015392
0.000151911
0.00014468
0.000123678
7.08408e-05
1.27938e-05
1.18703e-07
2.23374e-09
2.9624e-06
3.92539e-05
0.000100947
0.000135896
0.0001495
0.000155051
0.000156562
0.000156031
0.000155663
0.000156261
0.000156652
0.000156471
0.000156113
0.000156355
0.000156035
0.000155586
0.000155523
0.000154927
0.000154351
0.000154241
0.000154434
0.000154272
0.000154171
0.000154233
0.00015398
0.00015349
0.00015318
0.000153322
0.000153882
0.000154063
0.000153909
0.000154002
0.000154106
0.000154014
0.000154315
0.000154579
0.000154417
0.000154041
0.000154117
0.000154594
0.000154225
0.000153796
0.000153687
0.000154083
0.000154889
0.000155007
0.000154179
0.000153204
0.000150473
0.000141775
0.000117548
6.25253e-05
1.04422e-05
9.38677e-08
1.76404e-09
2.38851e-06
3.35494e-05
9.3542e-05
0.000132637
0.000148155
0.000155396
0.000157622
0.000156917
0.000156174
0.000156827
0.000157782
0.0001581
0.000157503
0.000157619
0.000157498
0.000156928
0.000157028
0.000156177
0.00015533
0.000155157
0.000155356
0.000155252
0.000154912
0.000155167
0.00015548
0.000154725
0.000154277
0.000154341
0.000154655
0.000154817
0.000154553
0.000154725
0.000154949
0.000154533
0.00015487
0.000154897
0.000154928
0.000154431
0.000154478
0.000154892
0.000154771
0.000154426
0.000154492
0.000155609
0.000156388
0.000156161
0.000154987
0.0001533
0.000149509
0.00014003
0.000112572
5.59184e-05
8.76268e-06
7.70111e-08
1.44005e-09
1.98155e-06
2.92065e-05
8.70509e-05
0.00012956
0.000147298
0.000155591
0.000157874
0.000156948
0.000156156
0.00015777
0.000159259
0.000161136
0.000158723
0.000158652
0.000159342
0.000157277
0.000158828
0.000157704
0.000156825
0.000157054
0.000156664
0.000156786
0.000157818
0.000158273
0.000157839
0.000156108
0.000157422
0.000157563
0.000155329
0.00015477
0.000155584
0.000154973
0.000156432
0.000156162
0.000156186
0.00015696
0.000157083
0.000155534
0.000155138
0.000155814
0.000156377
0.000155715
0.000155628
0.000157392
0.000157635
0.000158163
0.0001552
0.000153866
0.000149289
0.00013821
0.000108253
5.07194e-05
7.55388e-06
6.53488e-08
1.21103e-09
1.68977e-06
2.58725e-05
8.13862e-05
0.000125864
0.000148076
0.000155697
0.000159529
0.000158006
0.000154073
0.000156455
0.000162624
0.000162465
0.000161538
0.000161225
0.000160096
0.00015926
0.000159924
0.00016014
0.000159333
0.000159082
0.000158704
0.000157729
0.00015818
0.000160572
0.00015998
0.000159162
0.000159159
0.000159309
0.000158177
0.000156916
0.000157558
0.000158791
0.000158931
0.000158579
0.000158626
0.000159891
0.00015943
0.000157797
0.000156419
0.00015687
0.000158086
0.000158878
0.000158615
0.000159839
0.000162205
0.000161598
0.000158423
0.000155915
0.00015244
0.00013987
0.000104154
4.64703e-05
6.6675e-06
5.71831e-08
1.04392e-09
1.47243e-06
2.32734e-05
7.61378e-05
0.000123351
0.000142915
0.000149689
0.000153695
0.000152849
0.000153433
0.000155861
0.000158197
0.000157652
0.000156371
0.000156138
0.000154939
0.000154112
0.000152975
0.000152845
0.000151715
0.000150578
0.000149982
0.000150274
0.000151009
0.00015257
0.000153466
0.000152753
0.000150883
0.000150727
0.000150281
0.000149427
0.000149537
0.000150539
0.000150653
0.000151384
0.000151435
0.000152026
0.000152161
0.000152418
0.000152306
0.000152823
0.000154313
0.000155188
0.000155147
0.000156493
0.000158257
0.000156071
0.000153305
0.000150872
0.000147257
0.000135128
0.000100154
4.28152e-05
5.95295e-06
5.0367e-08
9.16746e-10
1.30312e-06
2.11641e-05
7.14261e-05
0.000114
0.000133908
0.000141819
0.000144609
0.000145539
0.000145514
0.000147547
0.000148788
0.000147294
0.000146616
0.00014637
0.000145898
0.000143964
0.000142399
0.000142648
0.000141102
0.000139314
0.000138155
0.00013856
0.000139922
0.000140969
0.000141734
0.000141174
0.000140307
0.000139918
0.000138921
0.000138134
0.000138425
0.000137309
0.000139235
0.000141064
0.000140665
0.000141394
0.000141681
0.000143015
0.000142903
0.000143773
0.000145619
0.000146088
0.000146276
0.000147223
0.000147942
0.000146557
0.000143199
0.000142215
0.000138837
0.00012683
9.34463e-05
3.9448e-05
5.38036e-06
4.48896e-08
8.17011e-10
1.17014e-06
1.92873e-05
6.603e-05
0.000106701
0.000126468
0.000134528
0.000137065
0.000137572
0.000137669
0.000137927
0.000139537
0.000137058
0.000136325
0.000136349
0.000134828
0.000134756
0.000132782
0.00013141
0.000130557
0.000128314
0.000127136
0.000125324
0.000125703
0.000127852
0.000131691
0.000112535
0.000105525
0.000107302
0.000119035
0.000127387
0.000124969
0.000123603
0.000124751
0.000127232
0.000130337
0.000130816
0.000131294
0.000132638
0.000133266
0.00013414
0.000135898
0.000135018
0.000136478
0.000137932
0.000138973
0.000137779
0.00013445
0.00013315
0.000130052
0.000118807
8.66516e-05
3.67473e-05
4.89658e-06
4.03848e-08
7.20097e-10
1.04707e-06
1.76039e-05
6.07306e-05
9.9986e-05
0.000119391
0.000128031
0.000129804
0.000130013
0.000130452
0.000127523
0.0001318
0.000129014
0.000127457
0.000127987
0.000126269
0.000124848
0.000123944
0.000122063
0.000119836
0.000113529
0.000113815
0.000113311
0.000116321
0.000104283
7.34255e-05
4.66205e-05
2.44081e-05
2.45942e-05
6.04419e-05
9.01881e-05
0.000125945
0.000115108
0.000116962
0.000117436
0.000117141
0.000120622
0.000122885
0.000123854
0.000124843
0.000126241
0.000128059
0.000127695
0.00012889
0.000130807
0.000130118
0.000129026
0.000127116
0.000125883
0.000122266
0.00011063
8.00445e-05
3.36825e-05
4.45748e-06
3.6499e-08
5.27688e-10
8.98248e-07
1.55763e-05
5.49783e-05
9.32911e-05
0.000112579
0.000119485
0.000121704
0.000123397
0.000121573
0.000126412
0.0001243
0.000121546
0.000118954
0.000119181
0.00011969
0.000115594
0.000116246
0.000113271
0.000112183
0.000111705
0.000117207
0.000124176
0.000107434
3.55207e-05
1.74617e-06
1.51639e-09
1.46546e-08
1.37872e-05
4.60775e-05
0.000122161
0.000123121
0.000121005
0.000116308
0.000111028
0.000113995
0.000114072
0.000118571
0.000119379
0.000120581
0.000121076
0.000120115
0.000119627
0.000120716
0.000120255
0.000120466
0.000119181
0.000114558
0.000102271
7.39424e-05
3.08116e-05
4.03585e-06
3.27308e-08
1.2706e-10
5.32357e-07
1.27407e-05
4.88787e-05
8.4743e-05
0.000102266
0.000109908
0.000111689
0.000113073
0.000114187
0.00011578
0.000114512
0.000111811
0.000111976
0.000111703
0.000110835
0.000107351
0.000105617
0.000103346
0.00010477
0.000117443
0.000128178
0.000100252
2.97449e-05
1.74039e-06
2.6384e-10
7.60556e-06
7.61772e-05
0.000122886
0.000126695
0.000111833
0.000105288
0.000105419
0.000106774
0.000107487
0.000109229
0.000110492
0.000111544
0.000111736
0.000112532
0.000111689
0.000110205
0.000111228
0.000109225
0.000105234
9.30055e-05
6.83903e-05
2.84669e-05
3.62702e-06
2.71726e-08
1.89566e-10
6.98582e-07
1.25989e-05
4.554e-05
7.84222e-05
9.73895e-05
0.000102473
0.0001037
0.000104289
0.000105947
0.000111342
0.000110425
0.00011008
0.000106
0.00010613
0.000102642
9.86308e-05
9.87289e-05
9.81074e-05
0.000105977
0.000119448
0.000108179
6.69054e-05
1.06205e-05
1.63197e-07
1.72043e-06
3.81651e-05
0.000105359
0.000121863
0.000112076
9.99884e-05
9.78605e-05
0.000103001
9.71889e-05
0.000100448
9.91095e-05
0.000104523
0.000107087
0.000102916
0.000106411
0.000103725
0.000104411
0.000102408
9.69669e-05
8.26819e-05
5.97974e-05
2.69913e-05
3.6199e-06
3.19089e-08
4.41527e-10
7.40764e-07
1.29906e-05
4.37001e-05
7.38938e-05
8.97904e-05
9.83454e-05
0.000100418
0.000108511
0.000105587
0.000106513
0.000107815
0.000114575
0.000109385
0.000107855
9.94758e-05
9.96607e-05
9.88469e-05
9.91179e-05
0.000107328
0.000120095
9.50489e-05
4.3991e-05
6.64535e-06
2.3857e-07
7.07102e-10
8.284e-09
1.50254e-06
2.52644e-05
7.75131e-05
0.00011434
0.000115973
9.99722e-05
9.54646e-05
9.48402e-05
9.3321e-05
9.40601e-05
9.34581e-05
9.85182e-05
0.000102294
0.000102236
0.000101353
9.86047e-05
0.000102269
9.60589e-05
8.96828e-05
7.77403e-05
5.57576e-05
2.43117e-05
3.42889e-06
2.77188e-08
5.52475e-10
8.08883e-07
1.35751e-05
4.1838e-05
7.21121e-05
8.75182e-05
9.89015e-05
0.000102824
0.000104838
0.000104711
0.000105339
0.000110261
0.000109312
0.000103826
0.000105038
0.000102716
9.92608e-05
9.92359e-05
9.69959e-05
0.000111204
0.000110213
8.8574e-05
4.16686e-05
6.36353e-06
8.15801e-07
1.4271e-06
1.90171e-06
2.32397e-06
2.09974e-06
2.74983e-06
1.05299e-06
2.16128e-06
2.1236e-05
6.89845e-05
0.000107965
0.000115584
9.87296e-05
0.000102061
9.52895e-05
9.36966e-05
9.09671e-05
9.06912e-05
9.40372e-05
9.66675e-05
9.7797e-05
9.69125e-05
9.5504e-05
9.56741e-05
9.23616e-05
9.07917e-05
7.42748e-05
5.29008e-05
2.3178e-05
3.17095e-06
2.59856e-08
5.73462e-10
8.23627e-07
1.31694e-05
4.13337e-05
6.7357e-05
8.67585e-05
9.63392e-05
0.000103029
0.000118852
0.000108535
0.000107168
0.000109227
0.000109155
0.00010828
0.000106342
0.000100445
9.75502e-05
9.95458e-05
0.00010208
0.000111768
0.000107089
8.55928e-05
4.22154e-05
7.79242e-06
3.49535e-06
2.60598e-05
8.39091e-05
0.00012992
0.000126553
7.23243e-05
1.44259e-05
4.01966e-06
2.17036e-05
6.21125e-05
0.000110433
0.000111395
9.86278e-05
0.000101172
9.98138e-05
9.35271e-05
9.51125e-05
9.98292e-05
9.2712e-05
9.73e-05
9.57721e-05
9.4379e-05
9.43773e-05
9.9775e-05
9.1783e-05
8.65324e-05
7.2549e-05
5.15366e-05
2.26649e-05
3.05028e-06
2.51242e-08
5.73738e-10
8.06326e-07
1.33571e-05
4.59023e-05
6.88758e-05
9.24382e-05
9.57778e-05
0.000105848
0.000117408
0.000109277
0.000110951
0.00011207
0.000109468
0.000108917
0.000113273
9.99008e-05
9.60465e-05
9.6953e-05
0.000100492
0.000115587
0.000105265
7.91259e-05
4.38989e-05
1.11137e-05
1.36157e-05
7.70157e-05
0.000171469
0.000236696
0.000238915
0.000153606
4.63856e-05
9.27686e-06
2.22677e-05
6.472e-05
0.000110798
0.000109584
0.000100834
9.87556e-05
0.00010046
9.73741e-05
0.000103211
0.00010007
9.52278e-05
9.93759e-05
9.69916e-05
9.65948e-05
9.57608e-05
0.000100244
9.22779e-05
8.48692e-05
7.71147e-05
5.19544e-05
2.41946e-05
3.11992e-06
2.53347e-08
5.90739e-10
8.36147e-07
1.42491e-05
4.55412e-05
6.9988e-05
9.51516e-05
0.000101202
0.000109643
0.000116525
0.000113472
0.000113364
0.000117507
0.000111121
0.00010803
0.000107707
0.00010079
9.53963e-05
9.6229e-05
0.000100912
0.00011043
0.000106072
8.21032e-05
4.40875e-05
1.8024e-05
3.50337e-05
0.000126381
0.00021521
0.000296378
0.000302118
0.000201244
7.8923e-05
1.94358e-05
2.77507e-05
6.46114e-05
0.000105454
0.000113136
0.0001019
9.65869e-05
0.000100852
0.000100418
9.83633e-05
9.81705e-05
9.81627e-05
9.94325e-05
9.94911e-05
0.000105052
0.00010549
0.000107829
9.73818e-05
9.09797e-05
7.64911e-05
5.3073e-05
2.58808e-05
3.19718e-06
2.58978e-08
5.87135e-10
8.27337e-07
1.51044e-05
4.66781e-05
8.02087e-05
9.23643e-05
0.000101483
0.000110935
0.000113371
0.000123379
0.00011722
0.000125246
0.000122021
0.000108476
0.000107039
0.000105072
9.57488e-05
9.75483e-05
0.000100236
0.000108468
0.000110009
8.88779e-05
4.88914e-05
3.19412e-05
6.50664e-05
0.000172486
0.000258628
0.000359497
0.000363841
0.000241037
0.000103524
3.55245e-05
4.02791e-05
6.79073e-05
0.000108611
0.000111213
0.000108136
9.61123e-05
0.000106026
0.000101437
9.75139e-05
9.88514e-05
0.000101858
0.000103131
0.000100088
0.000110715
0.000103184
0.000108626
0.000104135
9.08868e-05
7.48898e-05
5.43025e-05
2.56639e-05
3.24661e-06
2.55194e-08
5.77046e-10
8.08595e-07
1.42696e-05
4.97922e-05
7.79526e-05
9.72869e-05
0.00010847
0.000115816
0.000111765
0.000118483
0.000115503
0.000115584
0.000113299
0.000109831
0.000111759
0.000103459
9.66796e-05
0.000104615
0.00010185
0.000109646
0.000107493
8.95608e-05
5.98875e-05
5.30273e-05
9.91076e-05
0.000201499
0.000292812
0.000418259
0.000416853
0.0002573
0.000121569
5.87301e-05
5.83679e-05
7.59446e-05
0.000110054
0.000114307
0.000102528
9.54283e-05
0.000104549
0.000103131
9.78509e-05
0.000108378
0.000102993
0.000112627
0.00010783
0.000113736
0.000100638
0.000100473
9.69873e-05
8.85459e-05
7.3691e-05
5.45379e-05
2.43634e-05
3.11962e-06
2.43405e-08
5.79224e-10
8.14644e-07
1.42506e-05
5.32869e-05
7.73098e-05
8.98774e-05
0.000101021
0.000108964
0.000111385
0.000113242
0.000108132
0.000110755
0.000113579
0.00011136
0.000117497
0.000108488
9.51186e-05
0.000100593
0.000105681
0.000115163
0.00010513
8.72586e-05
7.39191e-05
7.8023e-05
0.000133282
0.000233655
0.000336763
0.000490888
0.000474927
0.000268398
0.000148044
8.9911e-05
7.99841e-05
8.44395e-05
0.000100568
0.000105371
0.000101037
9.4941e-05
0.000100153
0.000107204
9.99727e-05
0.000106692
0.000106947
0.000108822
0.000107201
0.000102771
9.96492e-05
9.7346e-05
0.00010203
9.15233e-05
7.31226e-05
5.42666e-05
2.35274e-05
3.03744e-06
2.37577e-08
5.85478e-10
8.24105e-07
1.54417e-05
5.22478e-05
8.1969e-05
9.15999e-05
0.000105528
0.000111966
0.000114368
0.000110071
0.000110491
0.000108459
0.0001098
0.0001152
0.000111371
0.00010865
0.000106605
0.00010321
0.000105995
0.000112591
0.000113291
8.96026e-05
8.40613e-05
0.000103898
0.000173225
0.0002951
0.000402337
0.000579871
0.000557834
0.000311795
0.000192481
0.000127551
9.52377e-05
8.90939e-05
9.91581e-05
0.000107261
9.85921e-05
9.77675e-05
0.000111298
0.000109775
0.000111483
0.000114502
0.000110747
0.000107015
0.0001055
0.000106933
9.93947e-05
9.72588e-05
9.80392e-05
8.92382e-05
7.77569e-05
5.20376e-05
2.32259e-05
2.94678e-06
2.29766e-08
5.77768e-10
8.30582e-07
1.498e-05
5.0258e-05
7.97852e-05
0.000101505
0.000109207
0.00011874
0.000115322
0.00011864
0.000112994
0.000114954
0.000113336
0.000118634
0.000117061
0.000110252
0.000108273
0.000106721
0.000121251
0.000115847
0.000113343
0.000100166
9.42379e-05
0.00012238
0.000222566
0.000382624
0.000499596
0.000689356
0.000670354
0.000411169
0.000266533
0.000165291
0.000103845
9.34625e-05
0.000109424
0.000106798
0.000103567
0.000100548
0.000110457
0.000112411
0.000115883
0.000109581
0.000111135
0.000116687
0.000112406
0.00011051
0.000109883
0.000101563
0.000105294
9.915e-05
7.96926e-05
5.36288e-05
2.33368e-05
2.92641e-06
2.24982e-08
5.74397e-10
8.21413e-07
1.48123e-05
5.22948e-05
8.37992e-05
0.000103245
0.000114352
0.000128441
0.000126144
0.000127291
0.000123665
0.000128809
0.000129874
0.000124572
0.000129387
0.000113341
0.000110808
0.000108765
0.000115201
0.000116569
0.0001158
0.000106808
0.000107407
0.000140536
0.000261272
0.000493921
0.000629996
0.000812595
0.000818852
0.000568893
0.000358961
0.000185414
0.000113361
0.000100555
0.000111672
0.000110625
0.000107486
0.000109772
0.000115659
0.000112146
0.00011613
0.000111102
0.000112298
0.000115024
0.000119093
0.000116018
0.000117548
0.000109105
0.000106013
0.000105048
8.12086e-05
5.82985e-05
2.44018e-05
3.03121e-06
2.26121e-08
5.72181e-10
8.09004e-07
1.49118e-05
5.35935e-05
8.91938e-05
0.000115325
0.000120041
0.000127667
0.000138844
0.000131994
0.000130157
0.000139238
0.000128981
0.00012959
0.000126185
0.000121984
0.00011349
0.000119089
0.00011838
0.000124242
0.000122513
0.000115485
0.000118172
0.000146512
0.000252556
0.000573974
0.000787056
0.000949929
0.000994043
0.000756373
0.000428065
0.000196045
0.000123208
0.000109595
0.000116518
0.000117086
0.000120741
0.000115373
0.000113158
0.000117
0.000119646
0.000113288
0.000121744
0.000116661
0.000129976
0.000129513
0.000118554
0.000117824
0.000112013
0.000105636
8.3251e-05
6.19228e-05
2.52982e-05
3.06733e-06
2.28924e-08
5.9058e-10
8.55407e-07
1.60064e-05
5.45632e-05
8.88856e-05
0.000113264
0.000126931
0.000130856
0.000139175
0.000135648
0.000135671
0.000138738
0.000132599
0.00013034
0.000126079
0.000123509
0.000125701
0.00013207
0.000124719
0.000124955
0.000127171
0.000118584
0.000121252
0.000139147
0.000233405
0.000573586
0.000943449
0.00108395
0.00115127
0.000924743
0.000463654
0.000203584
0.000127191
0.000119352
0.000131757
0.000121015
0.000125558
0.000121789
0.000115182
0.000120386
0.00012127
0.00011595
0.000119554
0.000121376
0.000133606
0.000132734
0.000127543
0.000121009
0.000114404
0.000110358
8.58504e-05
6.19454e-05
2.72703e-05
3.31019e-06
2.34753e-08
6.00748e-10
8.63271e-07
1.72056e-05
5.65052e-05
9.08862e-05
0.00011603
0.000129928
0.000137048
0.000146624
0.000147763
0.000151881
0.000149054
0.000141521
0.000132752
0.000127734
0.000124603
0.000132035
0.000134078
0.000126037
0.000125106
0.00013534
0.000128868
0.000123029
0.000137607
0.000219018
0.000527683
0.00105786
0.00119504
0.00125034
0.0010233
0.000462763
0.000197519
0.000129479
0.000123851
0.000129336
0.000129271
0.000127419
0.000124144
0.000125597
0.000122821
0.000124601
0.000120421
0.000124154
0.000126198
0.000130598
0.000130245
0.000124883
0.000121796
0.000116635
0.000106461
8.83914e-05
6.55383e-05
2.79105e-05
3.25765e-06
2.35153e-08
6.05574e-10
8.65732e-07
1.65389e-05
5.97729e-05
9.93262e-05
0.000116048
0.000134018
0.000146504
0.000160017
0.000148948
0.000147805
0.000149873
0.000141635
0.000135143
0.000130297
0.00012731
0.000131158
0.000133627
0.00013379
0.00012669
0.000134502
0.000129259
0.000125653
0.000138729
0.000202241
0.000480418
0.00109857
0.00125058
0.00129108
0.00105099
0.000449689
0.000194874
0.000130946
0.000124311
0.00012841
0.000132464
0.000128088
0.000126107
0.000126798
0.000126353
0.000126821
0.000123767
0.000131779
0.000129802
0.000136031
0.000138916
0.000126074
0.000121565
0.000116567
0.000107013
9.43818e-05
6.95838e-05
2.8303e-05
3.26636e-06
2.3295e-08
6.27981e-10
9.13077e-07
1.71142e-05
6.77849e-05
0.000103946
0.000125787
0.000134945
0.000146042
0.000155253
0.000150206
0.000150278
0.000146933
0.000141893
0.000141273
0.00013357
0.000141688
0.000132652
0.000132112
0.000132427
0.000129026
0.00013338
0.000130186
0.00012759
0.000140146
0.000200779
0.000440518
0.00105827
0.00124474
0.00125748
0.000997931
0.00042259
0.000191224
0.000133012
0.000125196
0.000127676
0.000138738
0.000138939
0.000133153
0.000129435
0.000129849
0.000130718
0.000129737
0.000133059
0.000133201
0.00013502
0.000140427
0.000139386
0.000123424
0.000119984
0.000107591
0.000101227
7.20844e-05
2.87328e-05
3.2512e-06
2.3302e-08
6.4227e-10
9.26177e-07
1.78086e-05
6.78676e-05
0.000105217
0.000128338
0.000137373
0.00014698
0.000160342
0.000164576
0.000151483
0.000145301
0.000142185
0.000140876
0.000135858
0.000137865
0.000134444
0.000143635
0.000134092
0.000132032
0.000132893
0.000132488
0.000129921
0.000139874
0.000195393
0.000420955
0.000976028
0.00116409
0.00112752
0.000913178
0.000403849
0.0001891
0.000139526
0.00012669
0.000128805
0.000134968
0.000135126
0.000137244
0.00013307
0.000137231
0.000133619
0.00013372
0.000139259
0.000139478
0.000134225
0.000136496
0.000133769
0.000126128
0.000123721
0.000111275
0.000103859
7.4406e-05
3.0196e-05
3.28353e-06
2.33158e-08
6.80214e-10
1.00725e-06
1.96933e-05
7.09187e-05
0.00010807
0.000130627
0.000141824
0.000151203
0.000157456
0.000158982
0.000158782
0.00014867
0.00014412
0.000152319
0.000145855
0.00013873
0.000138061
0.000148432
0.000136184
0.000132747
0.000142654
0.000133291
0.000132786
0.000140499
0.000191314
0.000400294
0.000865838
0.0010267
0.000959339
0.000792587
0.00037713
0.000189413
0.000141758
0.000136194
0.000133516
0.000135492
0.000136519
0.000136773
0.000148961
0.000137567
0.000134573
0.000141877
0.000144261
0.000139553
0.000135771
0.000136815
0.000136483
0.000128574
0.000123505
0.00011465
0.000108864
7.95129e-05
3.12773e-05
3.3344e-06
2.33743e-08
7.2281e-10
1.06089e-06
2.16191e-05
8.11237e-05
0.000116052
0.000133765
0.000147057
0.000153374
0.000157819
0.00016389
0.00015773
0.000155966
0.000155424
0.000153232
0.000142872
0.000140462
0.000143789
0.000146254
0.000144668
0.00013591
0.000140574
0.000140475
0.000137806
0.000142154
0.00019181
0.000392492
0.000758325
0.000862372
0.000791178
0.000679925
0.000354031
0.00018877
0.000137709
0.000136233
0.000138957
0.000151555
0.000140854
0.000143254
0.000145408
0.000145591
0.000143587
0.000142212
0.000147568
0.000139433
0.000140257
0.000157965
0.000145665
0.000132481
0.000125267
0.00012314
0.000105522
7.82476e-05
3.09069e-05
3.38988e-06
2.36103e-08
7.41242e-10
1.09794e-06
2.19694e-05
8.48389e-05
0.000131583
0.00016363
0.000168672
0.000170534
0.000158924
0.000159852
0.000161644
0.00015959
0.000151065
0.000148419
0.000143875
0.000145689
0.00015017
0.000149456
0.000152095
0.000140906
0.000137145
0.000141979
0.000143229
0.000146834
0.000197792
0.000379274
0.00065636
0.000709002
0.000648906
0.000582047
0.000331757
0.000187664
0.000138812
0.00013552
0.00015098
0.000145786
0.000143266
0.000142865
0.000146028
0.000141057
0.000143608
0.000145834
0.000143159
0.000141886
0.000154146
0.000152062
0.000149901
0.000136884
0.000135008
0.000121071
0.000114477
7.97879e-05
3.10718e-05
3.42061e-06
2.39866e-08
7.40273e-10
1.11414e-06
2.29185e-05
8.86436e-05
0.000141173
0.000164364
0.000169298
0.000175402
0.000170756
0.000163394
0.000154311
0.000158489
0.000150032
0.0001463
0.000144906
0.000151615
0.000153377
0.000154588
0.000146728
0.000141363
0.000140975
0.000144379
0.000142887
0.00015077
0.000192359
0.000362839
0.000567433
0.000581531
0.000538073
0.000503181
0.000311152
0.000186204
0.000141092
0.000139331
0.000153366
0.000147001
0.000147192
0.000144258
0.000145389
0.000145527
0.00014177
0.00014774
0.000141057
0.000146055
0.000152155
0.000151857
0.000156138
0.000153978
0.000132313
0.000125897
0.000115812
8.19849e-05
3.24762e-05
3.64897e-06
2.49336e-08
7.13591e-10
1.08749e-06
2.22245e-05
8.58592e-05
0.000141589
0.000165499
0.000170057
0.000180011
0.000172275
0.000164098
0.000152572
0.000158585
0.00015645
0.000150058
0.000145689
0.000144874
0.000144596
0.000150118
0.000145376
0.000140927
0.000138413
0.000136414
0.000136898
0.000146894
0.000192714
0.000347064
0.000492961
0.000483421
0.000456445
0.000441246
0.000291496
0.000182886
0.000148786
0.000144155
0.00015645
0.00015449
0.000147212
0.000150803
0.000143874
0.000138611
0.000141441
0.000145948
0.000149956
0.000147103
0.000157885
0.000152071
0.000150129
0.000149374
0.000133035
0.000126908
0.000114568
8.45415e-05
3.52599e-05
3.69539e-06
2.57044e-08
6.80239e-10
1.04029e-06
2.11156e-05
8.15929e-05
0.000135818
0.000159262
0.000164353
0.000177032
0.000175374
0.000160659
0.000151255
0.000149241
0.000150434
0.000153734
0.000147542
0.000142554
0.000148637
0.000152643
0.000147597
0.000144178
0.000137024
0.00013488
0.000136573
0.000144426
0.000190818
0.000331494
0.000433161
0.000410888
0.000397072
0.000395782
0.00027639
0.000178578
0.000145046
0.000145329
0.000151843
0.000153991
0.000150886
0.000151624
0.000145586
0.000137135
0.000142723
0.000146916
0.000149192
0.000147659
0.00016817
0.000155556
0.000155052
0.000145414
0.000139572
0.000126168
0.000113185
9.12751e-05
3.49535e-05
3.79717e-06
2.63786e-08
6.46469e-10
9.81176e-07
1.96904e-05
7.62739e-05
0.000128533
0.000151139
0.000155981
0.00017067
0.0001676
0.000162073
0.0001519
0.000148027
0.000156735
0.000147159
0.00014581
0.000141301
0.000144649
0.000145452
0.000143473
0.000139439
0.000135198
0.000139767
0.00014108
0.000149799
0.000190643
0.000317394
0.000385877
0.000357847
0.00035377
0.000360684
0.000263
0.000174947
0.000146693
0.000140229
0.00014379
0.000151732
0.000144023
0.000143673
0.000139505
0.000136118
0.000136724
0.000138711
0.000142066
0.000153742
0.000162539
0.000158281
0.000154591
0.000142152
0.000138228
0.00012917
0.000113571
9.16534e-05
3.50123e-05
3.77073e-06
2.66453e-08
6.35874e-10
9.55446e-07
1.92869e-05
7.40512e-05
0.000122232
0.000144335
0.000154927
0.000165104
0.000164369
0.000156177
0.00015679
0.000148793
0.000151343
0.000153567
0.00014612
0.000147354
0.000139124
0.00014129
0.000138814
0.000143599
0.000141205
0.000138996
0.000133563
0.000144665
0.000191634
0.000305062
0.000348435
0.000318599
0.000321417
0.00033327
0.000250704
0.00016862
0.000141652
0.000136309
0.00013831
0.000145644
0.000142491
0.000146133
0.00013891
0.00013539
0.000133255
0.00013771
0.000141365
0.000147719
0.000152179
0.000149571
0.000145813
0.000140787
0.000139335
0.000126789
0.00011438
9.05255e-05
3.52137e-05
3.79482e-06
2.69082e-08
6.43582e-10
9.58439e-07
1.93973e-05
7.40916e-05
0.000115767
0.000139858
0.000148103
0.000157071
0.000154749
0.000152242