/*--------------------------------*- C++ -*----------------------------------*\
  =========                 |
  \\      /  F ield         | OpenFOAM: The Open Source CFD Toolbox
   \\    /   O peration     | Website:  https://openfoam.org
    \\  /    A nd           | Version:  7
     \\/     M anipulation  |
\*---------------------------------------------------------------------------*/
FoamFile
{
    version     2.0;
    format      ascii;
    class       volScalarField;
    location    "25";
    object      omega;
}
// * * * * * * * * * * * * * * * * * * * * * * * * * * * * * * * * * * * * * //

dimensions      [0 0 -1 0 0 0 0];

internalField   nonuniform List<scalar> 
17475
(
244.636
66.1812
66.7341
66.7497
66.7491
66.7489
66.7492
66.7491
66.7486
66.7476
66.748
66.7494
66.748
66.748
66.7489
66.748
66.748
66.7489
66.7479
66.7475
66.7508
66.7515
66.7442
66.7544
66.7305
66.7923
66.7928
66.7936
66.7942
66.7928
66.7922
66.792
66.7917
66.7915
66.7911
66.7907
66.7902
66.789
66.7914
66.8138
66.8487
66.8825
66.9143
66.944
66.9702
66.9947
67.0171
67.0376
67.056
67.0738
67.0893
67.1043
67.1124
66.9733
79.7658
267.048
38.2044
30.7134
30.0371
29.9561
29.9309
29.9198
29.9129
29.9091
29.9064
29.9048
29.9034
29.9023
29.9016
29.9007
29.9002
29.8996
29.8991
29.8986
29.8983
29.8981
29.8977
29.9029
29.8914
29.9122
29.934
29.9496
29.9504
29.9507
29.9483
29.9475
29.9473
29.9473
29.9472
29.9473
29.9471
29.947
29.9457
29.9408
29.9459
29.9565
29.9687
29.9815
29.9937
30.0056
30.017
30.0286
30.0403
30.0534
30.0689
30.0908
30.1315
30.3457
32.6699
96.9194
257.449
31.1831
20.36
18.9926
18.7534
18.689
18.6592
18.6421
18.6321
18.6253
18.6205
18.6169
18.6142
18.6119
18.61
18.6084
18.6068
18.6054
18.6041
18.6029
18.6017
18.6032
18.6008
18.6094
18.6153
18.6236
18.6341
18.6386
18.6386
18.6377
18.6367
18.637
18.6376
18.6381
18.6388
18.6397
18.6403
18.6388
18.637
18.6389
18.6424
18.6474
18.6533
18.6596
18.6666
18.6746
18.6844
18.6968
18.7139
18.7397
18.785
18.9049
19.5902
24.271
93.0923
255.49
27.8727
15.7381
14.0536
13.6203
13.5116
13.4655
13.4396
13.4236
13.4128
13.405
13.3991
13.3945
13.3909
13.3876
13.3848
13.3823
13.3799
13.3775
13.3755
13.3749
13.3725
13.3761
13.3803
13.3846
13.3879
13.3918
13.396
13.3975
13.3979
13.3971
13.3979
13.3989
13.4001
13.4018
13.4036
13.4051
13.4047
13.405
13.4075
13.4105
13.415
13.4201
13.4257
13.4324
13.4413
13.4533
13.4697
13.4937
13.5318
13.6055
13.8439
14.8412
20.7837
82.5005
254.442
25.7604
13.2031
11.3155
10.7491
10.586
10.5247
10.4917
10.4711
10.4569
10.4461
10.4381
10.4319
10.4272
10.4225
10.4184
10.4149
10.4116
10.4081
10.4061
10.403
10.4039
10.4051
10.4067
10.4076
10.4095
10.4119
10.4138
10.4163
10.4178
10.4177
10.4188
10.4202
10.4222
10.4247
10.4273
10.4295
10.4304
10.4331
10.4365
10.4403
10.4452
10.4507
10.457
10.4648
10.4752
10.4897
10.51
10.5402
10.5893
10.6952
11.0519
12.1906
18.4013
76.1418
254.016
24.348
11.6034
9.5568
8.94552
8.72357
8.64531
8.60607
8.58242
8.56578
8.55242
8.54239
8.53455
8.52867
8.5228
8.51777
8.51286
8.5091
8.50536
8.50074
8.49968
8.49906
8.49887
8.49855
8.4967
8.49696
8.4989
8.50155
8.50414
8.50609
8.50592
8.50723
8.50905
8.51203
8.51549
8.51823
8.52104
8.52441
8.52846
8.53279
8.5378
8.5433
8.54967
8.55718
8.56635
8.57784
8.59473
8.61802
8.65308
8.7123
8.85432
9.2834
10.4934
16.6758
73.3733
253.8
23.3791
10.4988
8.3266
7.70933
7.43962
7.34183
7.29606
7.27154
7.25455
7.23878
7.22672
7.21803
7.21056
7.20326
7.19792
7.19118
7.18687
7.18235
7.17995
7.17738
7.17469
7.17404
7.17142
7.16858
7.16832
7.16989
7.17345
7.17602
7.17674
7.17671
7.17765
7.18023
7.18432
7.18923
7.19107
7.19373
7.20003
7.20575
7.21127
7.21726
7.22439
7.233
7.24185
7.25217
7.26246
7.28055
7.30729
7.34552
7.4167
7.59728
8.04612
9.30014
15.4801
71.9835
253.694
22.7045
9.69596
7.40954
6.78806
6.4918
6.37256
6.31935
6.29461
6.27621
6.25818
6.24465
6.23795
6.23141
6.2217
6.21643
6.20838
6.20354
6.20239
6.20229
6.199
6.19302
6.19246
6.18942
6.18796
6.18708
6.1892
6.19373
6.19459
6.19152
6.19262
6.19562
6.19873
6.20302
6.20925
6.21057
6.21403
6.22273
6.22975
6.23647
6.24306
6.25209
6.26232
6.27309
6.28359
6.29107
6.30909
6.33919
6.38183
6.46616
6.67498
7.11694
8.40945
14.6743
71.5211
253.664
22.2176
9.09818
6.69368
6.05209
5.74464
5.60286
5.5433
5.51684
5.498
5.47793
5.45988
5.4554
5.45141
5.43736
5.43337
5.42805
5.43037
5.43427
5.43693
5.43367
5.42426
5.42142
5.4198
5.41763
5.41743
5.42573
5.43363
5.43271
5.42139
5.42005
5.42925
5.43284
5.43539
5.44045
5.44224
5.44998
5.46154
5.46997
5.47578
5.48376
5.49901
5.51089
5.5216
5.52682
5.53277
5.55384
5.58578
5.63341
5.73273
5.95034
6.37805
7.72447
14.0887
70.7801
253.698
21.8431
8.64522
6.11893
5.44307
5.13982
4.96987
4.89938
4.88472
4.87254
4.84333
4.82006
4.81512
4.81606
4.80131
4.8001
4.80216
4.79774
4.80759
4.81529
4.81189
4.80447
4.80197
4.79451
4.78559
4.78965
4.80201
4.8115
4.81009
4.79592
4.79303
4.80218
4.80802
4.81239
4.82051
4.82132
4.82701
4.84249
4.86016
4.86488
4.8634
4.88562
4.90625
4.91948
4.91982
4.91124
4.92702
4.97582
5.03318
5.1377
5.35033
5.7687
7.17443
13.6332
70.0807
253.729
21.5536
8.29305
5.65025
4.93562
4.65238
4.46989
4.39217
4.37528
4.36578
4.33898
4.30747
4.29193
4.29577
4.28541
4.27576
4.277
4.27288
4.28656
4.29689
4.29583
4.28852
4.28297
4.2828
4.2692
4.25585
4.26937
4.27995
4.28081
4.27338
4.26942
4.28053
4.29
4.29301
4.30653
4.30934
4.32685
4.33808
4.35706
4.36199
4.36712
4.38504
4.40247
4.41117
4.39765
4.38986
4.40819
4.45919
4.53014
4.65016
4.83609
5.25143
6.73615
13.2772
69.4109
253.751
21.331
8.01406
5.27556
4.51792
4.2406
4.06503
3.9942
3.97328
3.96176
3.9232
3.88318
3.83205
3.87806
3.86919
3.83988
3.88325
3.85363
3.87092
3.87503
3.8605
3.86436
3.85201
3.81717
3.80153
3.80763
3.84337
3.80658
3.7999
3.85096
3.86337
3.84699
3.88092
3.85668
3.86354
3.87424
3.87922
3.89004
3.92978
3.944
3.94829
3.95679
3.98409
3.99582
3.97649
3.98123
3.96698
4.04643
4.10621
4.23921
4.43103
4.83269
6.39288
12.9908
68.755
253.758
21.1392
7.79506
4.97875
4.20164
3.85798
3.72446
3.62653
3.62035
3.67868
3.6305
3.50061
3.49418
3.49907
3.4947
3.50941
3.5235
3.51517
3.5101
3.51243
3.50506
3.50325
3.51454
3.49601
3.44214
3.45129
3.46209
3.45367
3.44605
3.46385
3.48427
3.4689
3.45948
3.47551
3.49258
3.50251
3.50007
3.52172
3.55307
3.58454
3.5969
3.59821
3.59669
3.61038
3.61395
3.57541
3.57991
3.64324
3.72573
3.82158
4.01003
4.5152
6.14688
12.7616
68.1049
253.784
21.0011
7.62588
4.75711
3.91663
3.68934
3.57637
3.48283
3.47064
3.41999
3.37668
3.34834
3.34257
3.33606
3.33816
3.36062
3.37091
3.39484
3.40843
3.41887
3.42186
3.42088
3.40775
3.38892
3.35539
3.33845
3.34048
3.3554
3.35783
3.36181
3.36331
3.36361
3.35993
3.37712
3.3874
3.3977
3.40364
3.41012
3.40225
3.40881
3.41841
3.41352
3.40869
3.4256
3.43468
3.40945
3.44726
3.49033
3.56326
3.6782
3.84094
4.2736
5.96893
12.6094
67.9278
253.795
20.8992
7.48705
4.57924
3.87905
3.64601
3.50814
3.43763
3.40281
3.37782
3.34321
3.32441
3.31822
3.31632
3.32397
3.33243
3.34847
3.37506
3.39459
3.40868
3.42042
3.42566
3.42062
3.40971
3.39712
3.37335
3.36575
3.36755
3.3693
3.37987
3.39052
3.39053
3.39825
3.38725
3.38552
3.38647
3.39269
3.38684
3.36349
3.36258
3.36448
3.35796
3.35686
3.36204
3.37492
3.38514
3.40829
3.44528
3.51329
3.63748
3.79684
4.19229
5.86171
12.4919
67.854
253.831
20.7954
7.40308
4.51675
3.81179
3.59419
3.47567
3.40111
3.36655
3.33953
3.3155
3.30493
3.30172
3.3025
3.31188
3.31816
3.33354
3.36961
3.39836
3.42167
3.4509
3.47295
3.50122
3.53635
3.55794
3.55179
3.57086
3.57959
3.56555
3.5018
3.54969
3.50894
3.49182
3.4709
3.44005
3.40734
3.39764
3.38101
3.34862
3.34288
3.34621
3.34021
3.33635
3.3424
3.35247
3.36126
3.38108
3.41668
3.4883
3.60328
3.74867
4.13668
5.73095
12.4112
67.8379
255.513
20.7755
7.32204
4.47305
3.75201
3.55917
3.44845
3.37357
3.33888
3.31611
3.30056
3.29728
3.29853
3.30273
3.31336
3.31805
3.33551
3.38448
3.41887
3.47243
3.5516
3.60401
3.71201
3.8524
3.67203
5.23136
9.6125
16.5018
16.4217
6.31058
3.78295
3.77543
3.72921
3.65102
3.56052
3.49196
3.44888
3.39929
3.34912
3.33454
3.33491
3.32675
3.32442
3.32873
3.33596
3.3455
3.36343
3.39547
3.4646
3.57572
3.70897
4.08634
5.68718
12.3431
67.8245
277.401
21.1653
7.37612
4.45132
3.72255
3.53754
3.43152
3.35572
3.3218
3.30597
3.29963
3.30241
3.30811
3.31594
3.32552
3.33227
3.36625
3.4243
3.48473
3.56636
3.67261
3.79869
3.96844
4.69189
11.5679
76.6014
1524.83
861.167
25.2823
10.4001
4.16144
3.88233
3.72849
3.61325
3.51468
3.44382
3.38398
3.34736
3.3433
3.33083
3.32589
3.32661
3.33242
3.34137
3.35626
3.38423
3.44868
3.55381
3.68002
4.04614
5.66368
12.3019
67.8382
423.495
25.1668
7.65865
4.49347
3.73552
3.56977
3.4666
3.39217
3.36135
3.35654
3.36227
3.37028
3.38111
3.39312
3.40632
3.42094
3.47103
3.5435
3.6313
3.74544
3.87887
4.0237
4.87627
13.7925
66.454
1863.54
33.7449
6.70865
4.37675
3.97957
3.79562
3.65731
3.54824
3.47003
3.42903
3.41513
3.39523
3.38388
3.38055
3.38644
3.39472
3.40467
3.42674
3.48538
3.58459
3.70215
4.03726
5.60202
12.2199
67.4152
422.693
22.5478
7.64668
4.62733
3.94638
3.80942
3.70192
3.64041
3.62561
3.62652
3.64727
3.66424
3.66632
3.6991
3.72909
3.77662
3.81795
3.87164
3.98929
4.15875
4.31674
4.76984
6.97217
22.3665
91.2676
43.8153
11.504
5.30809
4.45979
4.23794
4.07724
3.91479
3.84126
3.80667
3.77206
3.73324
3.70558
3.68909
3.67664
3.67075
3.66087
3.67323
3.71554
3.8013
3.91902
4.22932
5.72196
11.9873
66.7636
279.381
21.7565
7.41302
4.61
3.99306
3.85048
3.75569
3.68655
3.67419
3.68839
3.6928
3.71058
3.73423
3.76101
3.80542
3.86649
3.89176
3.94483
4.09363
4.25259
4.46392
5.19438
8.58904
20.5759
33.8518
203.955
79.2315
28.8233
13.0862
6.32269
4.68582
4.34598
4.18342
4.01976
3.96058
3.89151
3.86936
3.83772
3.78513
3.74567
3.72408
3.70882
3.70781
3.72125
3.76031
3.84014
3.94381
4.25452
5.75054
12.0971
67.7932
255.693
20.9992
7.35653
4.60952
4.01272
3.87588
3.78291
3.71906
3.70436
3.70947
3.71653
3.74324
3.77286
3.79999
3.84209
3.89527
3.93892
3.9855
4.1234
4.30547
4.55251
5.35089
8.77484
16.5168
16.5593
14.9774
23.7862
27.8583
27.65
16.0901
14.1654
18.3415
12.5172
6.62688
4.83125
4.39824
4.20407
4.04557
3.97598
3.93998
3.92168
3.8739
3.81621
3.7752
3.74535
3.72096
3.718
3.73833
3.77864
3.8561
3.96068
4.28815
5.76384
12.2045
67.8876
253.881
20.7538
7.36537
4.62596
4.02602
3.88319
3.78557
3.72557
3.70796
3.71684
3.73252
3.74397
3.77547
3.81468
3.86386
3.92545
3.96355
4.00826
4.12612
4.30667
4.58085
5.42862
8.36574
12.9447
10.9158
6.17408
4.35844
3.85495
3.92021
4.6556
7.75848
13.0909
10.9732
6.64951
4.88096
4.41375
4.21377
4.06993
3.98885
3.94746
3.92156
3.88532
3.83389
3.78068
3.74375
3.71694
3.71554
3.74076
3.78195
3.85928
3.9677
4.29802
5.77953
12.2627
67.8775
253.847
20.7127
7.37531
4.6487
4.037
3.89151
3.79754
3.73744
3.71746
3.72684
3.74048
3.74777
3.77887
3.82411
3.87566
3.93712
3.97817
4.02204
4.12169
4.28111
4.55727
5.40565
7.56404
10.4313
8.73452
5.14307
3.83531
3.34366
3.41312
4.1858
6.28107
10.2213
9.28019
6.35091
4.84432
4.3856
4.19429
4.07292
3.99305
3.95172
3.92448
3.89072
3.83785
3.78222
3.73898
3.71052
3.71352
3.74544
3.79024
3.86191
3.96997
4.3102
5.79994
12.2872
67.8422
253.816
20.713
7.39334
4.67481
4.05526
3.91023
3.83072
3.77319
3.73812
3.74186
3.75356
3.75953
3.79208
3.83937
3.88881
3.9498
3.98937
4.0284
4.11483
4.25391
4.4862
5.00608
6.75398
8.71253
7.79423
5.3094
4.26424
3.5186
3.61179
4.53679
6.08265
8.71599
7.81858
5.85954
4.73216
4.35108
4.1796
4.06877
3.99922
3.95344
3.92819
3.90069
3.84045
3.78434
3.73715
3.71162
3.71994
3.75518
3.8004
3.86766
3.97635
4.3238
5.82443
12.3128
67.8512
253.762
20.7194
7.42108
4.71796
4.08833
3.94642
3.8941
3.81455
3.77853
3.78568
3.81593
3.81215
3.83613
3.87597
3.93177
4.03139
4.04032
4.04651
4.12571
4.2463
4.43578
4.86069
6.07144
7.47618
7.30361
5.51148
4.52243
3.63886
3.79811
4.82836
6.32212
7.70202
6.68248
5.38191
4.62044
4.3301
4.17081
4.07111
4.02587
3.969
3.94409
3.92812
3.87055
3.83244
3.76243
3.73014
3.74012
3.78342
3.832
3.89054
4.00114
4.34981
5.85236
12.343
68.1887
253.709
20.7206
7.45524
4.77327
4.14211
3.99724
3.95325
3.87122
3.84243
3.84876
3.89649
3.89097
3.9315
3.9572
3.97628
4.10981
4.09528
4.08459
4.15073
4.27601
4.42422
4.83466
5.56138
6.54049
6.78204
5.8473
4.83834
3.76955
4.02868
5.24626
6.52456
6.7963
5.84956
4.89718
4.54706
4.32528
4.21379
4.1279
4.07454
4.00579
3.99278
3.96869
3.91662
3.89812
3.79997
3.78257
3.79509
3.85019
3.90127
3.93452
4.04355
4.3882
5.88921
12.3952
68.6662
253.673
20.7111
7.49586
4.82382
4.21898
4.27311
4.10455
3.93579
3.90203
3.92348
4.04701
3.94613
3.93956
3.95804
4.00125
4.05107
4.21374
4.10362
4.14642
4.27437
4.52938
4.75249
5.18064
5.83079
6.26533
6.0048
5.0529
3.83214
4.23473
5.5943
6.24902
5.99599
5.22986
4.75267
4.58714
4.45306
4.22606
4.156
4.26764
4.25981
4.02147
3.95168
3.90474
3.88395
3.83545
3.94703
3.86108
3.91799
3.95913
4.02965
4.10276
4.43613
5.96379
12.4366
69.0949
253.593
20.6909
7.48858
4.92324
4.31433
4.14706
4.06285
3.98033
3.83725
3.9857
3.96579
4.02227
4.03109
3.88905
4.03286
3.94344
3.98858
4.05666
4.1044
4.26746
4.35098
4.59248
4.88322
5.25519
5.69534
5.77165
5.11559
3.84946
4.34678
5.60447
5.79321
5.38682
4.91814
4.62229
4.5635
4.33326
4.24656
4.09748
4.09919
4.12277
4.06792
3.92241
3.85031
3.90561
3.87401
3.78536
3.9603
3.97914
3.9698
4.05217
4.16694
4.53098
5.94767
12.4664
69.4761
253.518
20.6603
7.45774
4.8398
4.24679
4.11345
3.97896
3.83016
3.87006
3.81675
3.89523
3.88456
3.89878
3.92015
3.88042
3.87966
3.90446
3.94981
4.00353
4.02013
4.1339
4.32268
4.51518
4.7893
5.15769
5.41485
4.99899
3.80539
4.39087
5.3304
5.26601
4.87567
4.62007
4.5308
4.30931
4.23573
4.02845
4.01607
3.93313
3.90978
3.8775
3.85755
3.78571
3.68843
3.6828
3.71751
3.83492
3.84504
3.7883
3.96126
3.99244
4.43272
5.95601
12.4692
69.7958
253.418
20.6192
7.40581
4.67249
4.03931
3.86222
3.76962
3.723
3.66523
3.65656
3.64018
3.67126
3.67384
3.70565
3.73056
3.83778
3.86438
3.92562
3.93947
3.95778
4.001
4.01114
4.08831
4.34889
4.70532
5.03644
4.77245
3.72868
4.32392
4.98819
4.82116
4.47147
4.29259
4.23013
4.19422
4.03986
3.94546
3.96424
3.84078
3.80328
3.78339
3.75603
3.7098
3.66046
3.61379
3.63985
3.60236
3.64614
3.72088
3.76439
3.90426
4.27828
5.90358
12.4608
70.0755
253.366
20.5765
7.38259
4.59966
3.87434
3.72543
3.64694
3.63112
3.61144
3.56957
3.56652
3.58915
3.59747
3.61475
3.64813
3.748
3.81079
3.82727
3.84333
3.87075
3.87967
3.92081
3.9562
4.05887
4.3968
4.70175
4.48521
3.59471
4.15259
4.64501
4.45897
4.20655
3.96762
3.99493
3.85734
3.94398
3.85702
3.77752
3.7823
3.75592
3.725
3.69476
3.66207
3.62093
3.58809
3.57795
3.56678
3.59801
3.66417
3.72433
3.8436
4.21781
5.84584
12.445
70.3071
253.293
20.5267
7.35148
4.5851
3.83779
3.6662
3.60239
3.5656
3.54732
3.53175
3.53276
3.55757
3.57483
3.58813
3.60783
3.66429
3.73357
3.73484
3.7534
3.7609
3.79125
3.83259
3.86037
4.03276
4.1733
4.4018
4.20183
3.43452
3.95114
4.34867
4.18686
3.93398
3.86182
3.76187
3.74457
3.73384
3.7599
3.71252
3.70361
3.68537
3.65998
3.63856
3.61299
3.57975
3.55288
3.5394
3.5474
3.57555
3.61344
3.67593
3.7863
4.18309
5.82272
12.4242
70.5093
253.223
20.4729
7.31846
4.55954
3.81693
3.63569
3.56596
3.52059
3.50261
3.49436
3.4986
3.51786
3.53684
3.54909
3.56127
3.59001
3.62802
3.64417
3.66644
3.69191
3.72024
3.7523
3.79942
3.87811
3.93523
4.1712
3.94731
3.27666
3.76082
4.11571
4.01674
3.84613
3.7603
3.71071
3.68187
3.65375
3.64246
3.62554
3.61582
3.60323
3.59137
3.58464
3.56923
3.54445
3.52419
3.51459
3.52205
3.5452
3.57939
3.63897
3.73876
4.14898
5.80062
12.397
70.6781
253.154
20.4186
7.28379
4.53496
3.78919
3.60559
3.53566
3.4911
3.47289
3.46585
3.47245
3.49013
3.50758
3.51808
3.52634
3.5389
3.55547
3.57273
3.6001
3.64378
3.67331
3.68749
3.70478
3.6999
3.85358
3.9489
3.73074
3.17863
3.57401
3.91562
3.83749
3.73264
3.66455
3.61808
3.5943
3.58494
3.57754
3.56644
3.55808
3.54955
3.54238
3.53947
3.53207
3.51773
3.50369
3.49631
3.50189
3.52052
3.55287
3.60786
3.70506
4.11854
5.77384
12.3655
70.8219
253.07
20.3638
7.24838
4.5113
3.76553
3.58121
3.51362
3.47184
3.45316
3.44625
3.45457
3.47245
3.48623
3.49219
3.4962
3.50167
3.51194
3.52452
3.54286
3.57116
3.5922
3.61541
3.6349
3.61108
3.66085
3.81171
3.56899
3.09574
3.3919
3.75622
3.73678
3.64925
3.59187
3.56031
3.5445
3.5376
3.53257
3.5249
3.51838
3.50972
3.50358
3.50248
3.50121
3.49775
3.49012
3.48346
3.48531
3.4995
3.53062
3.58295
3.67751
4.09356
5.74643
12.3302
70.9494
252.972
20.3064
7.21068
4.48714
3.74352
3.55977
3.49534
3.45699
3.43903
3.43219
3.44076
3.45742
3.46695
3.46876
3.46844
3.4692
3.47588
3.48677
3.5013
3.51861
3.53271
3.5478
3.55402
3.54605
3.59813
3.64649
3.43019
3.04752
3.30805
3.58554
3.58197
3.57052
3.53581
3.51568
3.50635
3.50217
3.49561
3.49051
3.48592
3.47869
3.47406
3.47435
3.47779
3.48124
3.47934
3.47275
3.46986
3.47989
3.51093
3.56249
3.65532
4.07196
5.71801
12.2919
71.0525
252.876
20.2513
7.17118
4.46141
3.72152
3.53879
3.47745
3.44226
3.42592
3.41947
3.42624
3.43963
3.4464
3.44667
3.44356
3.44106
3.4455
3.45475
3.46712
3.47964
3.48751
3.48894
3.48142
3.48128
3.52547
3.56528
3.3524
3.01243
3.22708
3.49345
3.51222
3.49042
3.48517
3.47939
3.47546
3.47091
3.4641
3.46103
3.4576
3.45215
3.44964
3.45277
3.45992
3.46718
3.46801
3.46097
3.45424
3.46117
3.49281
3.54489
3.63698
4.05197
5.68952
12.2553
71.154
252.796
20.1978
7.13071
4.43526
3.6999
3.51807
3.4585
3.42481
3.4103
3.40501
3.40928
3.41857
3.42389
3.42558
3.42224
3.418
3.42139
3.4296
3.43925
3.44818
3.45217
3.44477
3.43219
3.43271
3.46216
3.48127
3.27975
2.99111
3.16694
3.40668
3.43531
3.42838
3.44129
3.4465
3.44634
3.44514
3.44045
3.43702
3.43354
3.42865
3.42764
3.43422
3.44477
3.4532
3.45485
3.44742
3.43872
3.44422
3.4761
3.52898
3.62096
4.03307
5.65954
12.2188
71.2332
252.732
20.1507
7.08183
4.41118
3.68102
3.49967
3.43994
3.40517
3.39177
3.38871
3.3917
3.39711
3.40106
3.40546
3.40393
3.3995
3.40266
3.41032
3.41661
3.42164
3.42151
3.40996
3.39673
3.39384
3.41234
3.41732
3.23014
2.98066
3.12778
3.34514
3.38061
3.38589
3.40575
3.41644
3.42002
3.42251
3.42066
3.41808
3.41428
3.40901
3.40802
3.41685
3.42996
3.43844
3.44003
3.43274
3.42447
3.42978
3.46108
3.51402
3.60602
4.01385
5.62631
12.164
71.0741
252.684
20.1064
7.05578
4.39176
3.66717
3.48621
3.42451
3.38638
3.37261
3.37249
3.3763
3.37879
3.3802
3.38538
3.38581
3.38223
3.38546
3.39148
3.39443
3.3964
3.39463
3.38452
3.37164
3.36259
3.3716
3.36387
3.19196
2.97923
3.10507
3.29885
3.34021
3.35336
3.37625
3.39017
3.39878
3.4027
3.40154
3.40103
3.39868
3.39341
3.39157
3.40053
3.41461
3.42239
3.42345
3.41801
3.41133
3.41765
3.44777
3.49953
3.59085
3.99432
5.59215
12.1025
70.7592
252.671
20.0639
7.0219
4.37633
3.65896
3.47876
3.41363
3.37073
3.35517
3.35817
3.36478
3.36574
3.36266
3.36428
3.36493
3.36318
3.36726
3.37172
3.37218
3.37295
3.37239
3.36779
3.35638
3.33802
3.33601
3.31951
3.16441
2.98389
3.09149
3.2646
3.3101
3.32859
3.35269
3.36911
3.38292
3.38671
3.38413
3.38542
3.38584
3.38129
3.37817
3.3857
3.39884
3.40517
3.40571
3.40283
3.39894
3.40688
3.43619
3.48576
3.5751
3.97426
5.55661
12.0412
70.4463
252.624
20.0277
6.99245
4.36343
3.65427
3.47505
3.40554
3.35705
3.33933
3.34532
3.35585
3.35661
3.34755
3.3418
3.3406
3.3421
3.34879
3.35324
3.35293
3.35396
3.35564
3.35735
3.34738
3.31933
3.30616
3.28321
3.14612
2.9933
3.08577
3.23913
3.28955
3.31245
3.3363
3.35291
3.37065
3.37425
3.36941
3.37191
3.37533
3.37157
3.36715
3.37255
3.38358
3.38773
3.38758
3.3874
3.38777
3.39658
3.42584
3.47268
3.55925
3.95449
5.52471
11.9872
70.1517
252.544
19.9962
6.96621
4.35148
3.64994
3.47117
3.3971
3.34317
3.32317
3.33115
3.34529
3.34664
3.33216
3.31863
3.31504
3.32118
3.33277
3.33927
3.33951
3.34111
3.34454
3.34965
3.33953
3.30472
3.28268
3.25433
3.13381
3.00537
3.08434
3.22084
3.27392
3.30012
3.32341
3.34302
3.36274
3.36403
3.35742
3.36028
3.36594
3.36271
3.35723
3.36123
3.37001
3.37162
3.3703
3.37265
3.37646
3.38684
3.41662
3.46112
3.54486
3.93637
5.49526
11.9384
69.8491
252.471
19.969
6.94271
4.33959
3.64446
3.46505
3.38672
3.32814
3.30548
3.31312
3.3292
3.33173
3.31493
3.29654
3.29192
3.3033
3.32151
3.33131
3.3321
3.33379
3.3377
3.34201
3.33018
3.29316
3.26495
3.23254
3.12616
3.01849
3.08671
3.20892
3.264
3.29179
3.31416
3.33468
3.35424
3.35743
3.34873
3.35018
3.35615
3.35308
3.34757
3.35141
3.35851
3.3577
3.35499
3.35876
3.36552
3.37804
3.40779
3.45163
3.53329
3.9211
5.4695
11.8938
69.5483
252.411
19.9453
6.91943
4.32746
3.63826
3.45748
3.37577
3.31335
3.28706
3.29129
3.30746
3.31198
3.29674
3.27774
3.27389
3.28989
3.3145
3.32728
3.32786
3.32891
3.33187
3.33337
3.31919
3.28273
3.25169
3.2168
3.12209
3.03178
3.0916
3.20255
3.25941
3.28843
3.30963
3.32971
3.34732
3.35174
3.34506
3.34522
3.34747
3.34329
3.33833
3.3428
3.3488
3.34576
3.34169
3.34626
3.35522
3.36933
3.3998
3.44354
3.52488
3.90905
5.44382
11.8487
69.256
252.377
19.9264
6.89883
4.31455
3.63124
3.45014
3.36659
3.30119
3.27048
3.26892
3.2833
3.29034
3.27964
3.26372
3.26176
3.28035
3.30813
3.32228
3.32296
3.32346
3.32429
3.32129
3.3044
3.27089
3.24119
3.20561
3.12071
3.04482
3.09793
3.19972
3.2584
3.28889
3.30996
3.32761
3.33983
3.34268
3.33985
3.34269
3.34387
3.33937
3.33196
3.33591
3.34021
3.33532
3.33058
3.33585
3.34587
3.36059
3.39154
3.43557
3.51872
3.89975
5.42339
11.8118
68.9528
252.379
19.9105
6.87969
4.30043
3.62222
3.44311
3.36006
3.29346
3.25875
3.25076
3.2615
3.27067
3.26614
3.25532
3.25563
3.2736
3.29931
3.31292
3.31533
3.31663
3.31431
3.30497
3.28525
3.25697
3.23192
3.19718
3.12097
3.05754
3.10516
3.19852
3.25849
3.29074
3.3115
3.32588
3.33231
3.33329
3.33332
3.33816
3.341
3.33699
3.33419
3.33512
3.33289
3.32585
3.32202
3.3283
3.33802
3.35197
3.38275
3.42753
3.51317
3.89213
5.40465
11.7741
68.6519
252.323
19.8965
6.86241
4.28436
3.60948
3.43417
3.35458
3.28985
3.25294
3.23953
3.24549
3.2557
3.2572
3.25208
3.25455
3.26905
3.28819
3.29967
3.30489
3.30838
3.30263
3.28612
3.26398
3.24223
3.22259
3.18952
3.12174
3.06956
3.11259
3.19748
3.25718
3.29075
3.3105
3.32181
3.32473
3.32471
3.32705
3.3345
3.33953
3.33809
3.33607
3.33276
3.32838
3.31987
3.31809
3.32367
3.33155
3.34343
3.37362
3.41962
3.50754
3.88548
5.38861
11.7439
68.358
252.282
19.8862
6.84572
4.26562
3.59242
3.42131
3.34729
3.28782
3.25161
3.2347
3.23617
3.24591
3.25152
3.25199
3.25684
3.26678
3.2774
3.28518
3.29244
3.29842
3.29028
3.26744
3.2434
3.22749
3.2128
3.18125
3.12186
3.07997
3.11906
3.19554
3.25299
3.28703
3.30489
3.31424
3.31727
3.31781
3.32192
3.33166
3.33835
3.33825
3.33553
3.32863
3.31907
3.31053
3.31182
3.32225
3.32751
3.33439
3.36364
3.41159
3.50275
3.87939
5.3745
11.7017
68.0612
252.262
19.8743
6.82774
4.24539
3.57319
3.4055
3.33708
3.28478
3.25235
3.23427
3.23218
3.24019
3.24786
3.25374
3.26127
3.26723
3.26977
3.27261
3.27976
3.2874
3.27867
3.2521
3.22671
3.21426
3.20257
3.17261
3.12094
3.08799
3.12348
3.1919
3.24569
3.27846
3.2948
3.30414
3.31011
3.31263
3.31766
3.32853
3.33531
3.33526
3.33119
3.32006
3.30557
3.29718
3.30346
3.31689
3.31943
3.32512
3.35358
3.40341
3.49817
3.8733
5.36175
11.689
67.7698
252.219
19.8649
6.81318
4.2269
3.55595
3.39054
3.32624
3.2808
3.25325
3.2359
3.23143
3.2373
3.2462
3.25664
3.26665
3.26995
3.26627
3.26396
3.26907
3.27706
3.26902
3.24132
3.21528
3.204
3.19313
3.16453
3.11931
3.09345
3.12539
3.18613
3.23569
3.26675
3.28256
3.2933
3.30333
3.30821
3.31278
3.32304
3.32942
3.32876
3.32277
3.30827
3.29123
3.28377
3.29321
3.30784
3.30873
3.31143
3.34086
3.39531
3.49543
3.86788
5.35123
11.6523
67.4832
252.196
19.8599
6.80184
4.21333
3.54461
3.38071
3.31861
3.27744
3.25346
3.23772
3.23194
3.23614
3.24613
3.25943
3.27117
3.27322
3.2657
3.25913
3.26149
3.26888
3.26192
3.23507
3.20906
3.19699
3.18503
3.15752
3.1179
3.09727
3.12546
3.17879
3.22387
3.25352
3.26969
3.28268
3.29655
3.30325
3.30588
3.31418
3.32086
3.32011
3.31233
3.29622
3.27934
3.27336
3.28372
3.29736
3.29596
3.296
3.32595
3.38485
3.48958
3.86657
5.35305
11.668
67.2141
252.154
19.8544
6.79351
4.20605
3.54101
3.37851
3.31652
3.2758
3.25297
3.23864
3.23251
3.23599
3.24656
3.26075
3.27305
3.27479
3.26541
3.25588
3.256
3.26243
3.25671
3.23276
3.20739
3.19297
3.17827
3.15204
3.11802
3.10152
3.12612
3.17237
3.21247
3.23992
3.25624
3.27186
3.28918
3.2973
3.29725
3.30266
3.31028
3.31079
3.30265
3.28709
3.2723
3.26778
3.27662
3.28705
3.28354
3.28262
3.31358
3.37513
3.48201
3.86007
5.34506
11.6619
67.305
252.155
19.8489
6.78775
4.20387
3.54397
3.383
3.31915
3.27569
3.25181
3.23814
3.23243
3.23619
3.24656
3.25991
3.27153
3.27305
3.26245
3.25107
3.24996
3.25522
3.25089
3.23182
3.20864
3.19129
3.17352
3.14897
3.12046
3.10797
3.13008
3.1696
3.20374
3.22699
3.24175
3.2595
3.2804
3.2901
3.28775
3.29
3.298
3.30077
3.29476
3.28194
3.27004
3.26643
3.27183
3.27729
3.27245
3.27308
3.30599
3.36843
3.47505
3.85371
5.33846
11.6579
67.3042
252.154
19.8453
6.78357
4.20406
3.54965
3.39036
3.32383
3.276
3.24981
3.23615
3.2314
3.2359
3.24556
3.25691
3.26696
3.26758
3.25541
3.24314
3.24162
3.2455
3.24287
3.22995
3.2107
3.19155
3.17191
3.14935
3.12505
3.11632
3.13749
3.17074
3.19843
3.21544
3.22645
3.24471
3.26864
3.28053
3.27758
3.27733
3.28445
3.28922
3.28697
3.27858
3.27009
3.26719
3.26845
3.26811
3.26226
3.26633
3.30232
3.36472
3.46983
3.84786
5.33184
11.6548
67.3053
252.09
19.843
6.7803
4.20411
3.55445
3.39686
3.32793
3.27563
3.24697
3.23338
3.22965
3.23464
3.24338
3.25234
3.26013
3.25894
3.24508
3.23303
3.23176
3.23456
3.23422
3.22747
3.21297
3.1944
3.17527
3.15371
3.13126
3.12479
3.14521
3.17367
3.19481
3.20533
3.21166
3.22787
3.25306
3.26773
3.26641
3.26524
3.27073
3.27607
3.27715
3.27389
3.27013
3.26876
3.26652
3.26105
3.25386
3.26112
3.3003
3.36285
3.46699
3.84324
5.32587
11.6524
67.3065
252.059
19.8397
6.77734
4.20339
3.55707
3.40068
3.32965
3.2738
3.24347
3.23056
3.22757
3.23258
3.2403
3.24663
3.25153
3.24798
3.23314
3.22236
3.22175
3.22443
3.22695
3.22563
3.21572
3.19914
3.1819
3.16154
3.13886
3.13218
3.1499
3.1744
3.19124
3.19696
3.19871
3.21107
3.23547
3.25276
3.25446
3.25392
3.25771
3.26209
3.26514
3.26716
3.27076
3.27332
3.26809
3.25831
3.24947
3.25754
3.29836
3.36209
3.46722
3.84137
5.32178
11.6508
67.3076
252.034
19.8357
6.77452
4.20258
3.55828
3.40166
3.32825
3.27017
3.23967
3.22787
3.22529
3.23037
3.23705
3.24028
3.24162
3.23574
3.2211
3.21204
3.2117
3.21492
3.22066
3.22382
3.21799
3.20387
3.18879
3.17036
3.14808
3.13998
3.15098
3.17187
3.18711
3.19028
3.1886
3.19725
3.22029
3.23934
3.24359
3.2438
3.24584
3.2484
3.2528
3.26066
3.27573
3.28566
3.27566
3.26043
3.25021
3.25613
3.29616
3.36298
3.47197
3.84438
5.32079
11.6501
67.3087
251.995
19.8336
6.77239
4.20224
3.55872
3.40039
3.32446
3.26573
3.23647
3.22547
3.22305
3.22876
3.23477
3.23441
3.23173
3.22387
3.21041
3.20254
3.20104
3.20437
3.21292
3.21988
3.21814
3.20691
3.19419
3.17862
3.15889
3.15053
3.15145
3.16798
3.18299
3.18583
3.18256
3.18913
3.21217
3.23176
3.23657
3.23617
3.2356
3.23616
3.24194
3.25622
3.28644
3.30254
3.28476
3.26653
3.25638
3.25751
3.2946
3.3696
3.48644
3.8555
5.324
11.6504
67.3098
251.959
19.8322
6.77055
4.20182
3.55794
3.39796
3.32005
3.26181
3.23427
3.22323
3.22083
3.22748
3.23353
3.22997
3.22332
3.214
3.20203
3.19412
3.18978
3.19197
3.20225
3.21264
3.21569
3.20825
3.19843
3.18595
3.16908
3.16028
3.15233
3.16486
3.18022
3.1843
3.18111
3.18741
3.21131
3.22952
3.23257
3.23016
3.2263
3.22556
3.23278
3.25154
3.29172
3.31858
3.29699
3.28406
3.27468
3.26025
3.29323
3.38035
3.51067
3.95883
5.34208
11.652
67.311
251.938
19.8296
6.76841
4.19979
3.55515
3.39583
3.31693
3.25893
3.23213
3.22029
3.21797
3.22532
3.23195
3.22657
3.21716
3.20717
3.1961
3.18691
3.17886
3.17881
3.18956
3.20318
3.21196
3.2094
3.20252
3.19283
3.17737
3.1638
3.15384
3.16381
3.17935
3.18513
3.18269
3.18898
3.21239
3.22628
3.22486
3.22028
3.2148
3.21495
3.22383
3.24281
3.27726
3.30237
3.28913
3.27833
3.2705
3.25805
3.28865
3.37817
3.51815
3.97927
5.34686
11.6521
67.3122
251.916
19.8268
6.76491
4.19535
3.54983
3.39383
3.31557
3.25686
3.22883
3.2161
3.21394
3.22124
3.22831
3.22302
3.2133
3.20378
3.19287
3.18158
3.16984
3.16714
3.1776
3.1942
3.20895
3.21199
3.20771
3.2001
3.18604
3.16644
3.15793
3.16511
3.17963
3.18606
3.18386
3.18797
3.20784
3.21475
3.20652
3.2008
3.19744
3.20185
3.21338
3.22901
3.24872
3.25542
3.25316
3.25843
3.25275
3.24529
3.2775
3.35687
3.49421
3.82521
5.35334
11.6515
67.3133
251.903
19.824
6.76082
4.18894
3.54179
3.38884
3.31416
3.25469
3.22405
3.2108
3.20868
3.21467
3.22134
3.21818
3.21108
3.20339
3.1925
3.17875
3.16393
3.15889
3.16886
3.18816
3.20832
3.21693
3.21513
3.20908
3.19656
3.17562
3.16435
3.16791
3.17946
3.18426
3.18085
3.17946
3.19105
3.19047
3.17741
3.17203
3.17353
3.1849
3.20043
3.21198
3.21902
3.21309
3.21057
3.21016
3.2107
3.22344
3.26017
3.32595
3.4479
3.81952
5.29058
11.6466
67.3142
251.881
19.8222
6.7566
4.18212
3.53241
3.37942
3.31066
3.25149
3.21855
3.20504
3.20216
3.20557
3.21113
3.21178
3.2095
3.20474
3.19446
3.17857
3.16156
3.15504
3.16489
3.18659
3.21145
3.22516
3.22645
3.22348
3.21092
3.18766
3.1712
3.17094
3.17744
3.17829
3.17197
3.16321
3.1625
3.15623
3.14361
3.1397
3.14627
3.1651
3.18551
3.19429
3.19333
3.17982
3.17019
3.16465
3.17017
3.19804
3.23992
3.29679
3.4095
3.7864
5.27154
11.6398
67.3149
251.872
19.8201
6.7522
4.17519
3.52359
3.36896
3.3047
3.24705
3.21378
3.19981
3.19484
3.19519
3.19975
3.2047
3.20809
3.20684
3.1976
3.18101
3.16349
3.15642
3.16616
3.19051
3.22042
3.23852
3.24505
3.2497
3.23395
3.20028
3.17854
3.17243
3.17244
3.16881
3.15898
3.1432
3.13136
3.1214
3.11144
3.10961
3.12023
3.14527
3.17066
3.1786
3.17253
3.15369
3.13686
3.13039
3.14027
3.17446
3.22039
3.2703
3.36666
3.74523
5.25451
11.6358
67.3155
251.848
19.8178
6.74706
4.16715
3.51557
3.35981
3.29653
3.24178
3.2102
3.19538
3.18734
3.18556
3.19006
3.19847
3.2069
3.20907
3.20112
3.1859
3.16985
3.16243
3.17138
3.19887
3.23545
3.25674
3.27111
3.28331
3.26171
3.21491
3.18317
3.1687
3.16256
3.15667
3.14511
3.12401
3.10492
3.09253
3.08469
3.08501
3.09858
3.12843
3.15805
3.16639
3.15712
3.13263
3.11046
3.10317
3.11717
3.15467
3.20402
3.24885
3.33509
3.7128
5.23719
11.6328
67.316
251.836
19.8149
6.74235
4.15887
3.50862
3.35109
3.28717
3.23599
3.20677
3.19057
3.18011
3.1785
3.1844
3.19473
3.2063
3.21145
3.20526
3.19256
3.17873
3.17034
3.1775
3.20801
3.25374
3.27649
3.29469
3.30558
3.27476
3.21976
3.17762
3.15556
3.14613
3.14225
3.13257
3.10842
3.08483
3.07088
3.06473
3.06698
3.08272
3.11579
3.14836
3.15755
3.14635
3.11722
3.09085
3.08281
3.09889