/*--------------------------------*- C++ -*----------------------------------*\
  =========                 |
  \\      /  F ield         | OpenFOAM: The Open Source CFD Toolbox
   \\    /   O peration     | Website:  https://openfoam.org
    \\  /    A nd           | Version:  7
     \\/     M anipulation  |
\*---------------------------------------------------------------------------*/
FoamFile
{
    version     2.0;
    format      ascii;
    class       volScalarField;
    location    "25";
    object      p;
}
// * * * * * * * * * * * * * * * * * * * * * * * * * * * * * * * * * * * * * //

dimensions      [0 2 -2 0 0 0 0];

internalField   nonuniform List<scalar> 
17475
(
0.725271
0.410962
0.32184
0.283441
0.261069
0.246339
0.235987
0.228475
0.222957
0.218918
0.216019
0.214023
0.212756
0.212083
0.211896
0.2121
0.212616
0.21337
0.214295
0.215327
0.216407
0.21748
0.218493
0.219399
0.220158
0.220738
0.221111
0.22126
0.221178
0.220867
0.220341
0.219622
0.21874
0.217734
0.216651
0.215539
0.214457
0.213463
0.212623
0.212005
0.211685
0.211746
0.212282
0.213401
0.215239
0.217966
0.221812
0.227095
0.234279
0.244074
0.257615
0.276774
0.304416
0.347003
0.369047
0.28606
0.304191
0.288306
0.269714
0.254035
0.24214
0.233213
0.22651
0.221493
0.217787
0.215121
0.213297
0.212164
0.211599
0.211503
0.211788
0.212377
0.2132
0.214188
0.215281
0.216418
0.217542
0.218603
0.219553
0.220349
0.220955
0.221345
0.221501
0.221416
0.221092
0.220543
0.219792
0.218871
0.217819
0.216683
0.215515
0.214372
0.213313
0.212403
0.211711
0.21131
0.211279
0.211706
0.212694
0.214366
0.216873
0.220413
0.225253
0.231767
0.240498
0.252269
0.268393
0.290796
0.326834
0.336329
0.254158
0.249959
0.249026
0.243748
0.23726
0.230907
0.225318
0.220705
0.217063
0.214304
0.212323
0.211017
0.210292
0.210063
0.210255
0.210796
0.211618
0.212658
0.213852
0.215139
0.216459
0.217755
0.218971
0.220057
0.220966
0.221656
0.222101
0.22228
0.222185
0.221819
0.221197
0.220344
0.219297
0.218097
0.216795
0.215447
0.21411
0.212845
0.211716
0.21079
0.210133
0.209814
0.209908
0.210493
0.211659
0.213505
0.216144
0.219703
0.224318
0.230105
0.237081
0.244961
0.252148
0.257495
0.248449
0.209646
0.217946
0.222863
0.222455
0.220434
0.217797
0.215092
0.212639
0.210601
0.209048
0.207994
0.207422
0.207298
0.20758
0.208219
0.209166
0.210365
0.211762
0.213298
0.214913
0.216545
0.218134
0.21962
0.220941
0.222042
0.222882
0.223423
0.223643
0.223531
0.223093
0.222344
0.221316
0.220051
0.218597
0.217013
0.215358
0.213697
0.212089
0.2106
0.209296
0.208232
0.207466
0.207051
0.20704
0.207479
0.208407
0.209849
0.2118
0.214199
0.216873
0.219439
0.221191
0.220455
0.214253
0.199563
0.186926
0.193747
0.200211
0.20343
0.204659
0.204712
0.204221
0.203575
0.203002
0.20264
0.202565
0.202812
0.20339
0.204292
0.205495
0.206968
0.208669
0.210553
0.212563
0.214642
0.216723
0.218742
0.22062
0.222288
0.223682
0.224745
0.225433
0.225716
0.22558
0.225032
0.224092
0.222801
0.22121
0.219381
0.217383
0.215287
0.213162
0.211072
0.209094
0.207281
0.205684
0.204347
0.203307
0.202589
0.202204
0.202145
0.202378
0.202825
0.203342
0.203681
0.203423
0.201954
0.198252
0.190226
0.179898
0.172833
0.177357
0.183187
0.187686
0.190584
0.192343
0.193435
0.19419
0.194836
0.195529
0.196371
0.197428
0.198737
0.200313
0.202154
0.204244
0.206554
0.209044
0.211663
0.21435
0.217038
0.219634
0.222053
0.224208
0.226015
0.2274
0.228299
0.228673
0.228502
0.227796
0.226584
0.224919
0.222872
0.220524
0.21796
0.21527
0.21253
0.209822
0.207225
0.204788
0.202558
0.200569
0.198841
0.197378
0.196169
0.195178
0.194341
0.193551
0.192649
0.191394
0.18945
0.186392
0.18176
0.174768
0.168265
0.16224
0.165461
0.170409
0.175036
0.178496
0.181086
0.183128
0.184844
0.18641
0.18796
0.189601
0.191405
0.193425
0.195689
0.198212
0.200989
0.204001
0.207218
0.210586
0.214051
0.217514
0.220874
0.224022
0.226844
0.229226
0.231061
0.232261
0.232765
0.232547
0.231616
0.230022
0.227836
0.225161
0.222108
0.218792
0.215326
0.211803
0.208333
0.204991
0.20183
0.198891
0.196198
0.19376
0.191568
0.189595
0.187789
0.186077
0.184348
0.18246
0.18023
0.177415
0.17373
0.169005
0.163278
0.158926
0.153095
0.15558
0.159771
0.16415
0.167724
0.17068
0.173246
0.175574
0.177789
0.180004
0.182308
0.184776
0.187458
0.190398
0.19362
0.197134
0.200937
0.205
0.209283
0.2137
0.218154
0.222515
0.226641
0.230377
0.233559
0.236032
0.23766
0.238354
0.238067
0.236818
0.234677
0.231761
0.228221
0.224215
0.219906
0.215437
0.210934
0.206539
0.202322
0.19834
0.194628
0.191204
0.188063
0.185185
0.182532
0.180046
0.177649
0.175249
0.172729
0.169955
0.166757
0.162923
0.158373
0.153512
0.150276
0.144504
0.146462
0.149992
0.154039
0.157595
0.16072
0.163581
0.166291
0.168952
0.171654
0.17448
0.1775
0.180778
0.18436
0.188285
0.192573
0.197229
0.202266
0.207612
0.213191
0.218902
0.224574
0.230017
0.235014
0.239327
0.242719
0.244974
0.245945
0.245559
0.243844
0.240913
0.236952
0.232202
0.226898
0.22127
0.215503
0.209794
0.20429
0.199064
0.194173
0.189644
0.185481
0.181667
0.178167
0.174932
0.1719
0.168997
0.166139
0.163233
0.160172
0.156843
0.153064
0.148842
0.144828
0.142351
0.136071
0.137609
0.140557
0.144251
0.147727
0.150912
0.153925
0.15686
0.159807
0.162848
0.166061
0.169516
0.173283
0.177427
0.182006
0.187058
0.192647
0.198747
0.205322
0.212301
0.219575
0.22697
0.234201
0.240969
0.246918
0.251671
0.254869
0.256264
0.255728
0.253307
0.249199
0.243708
0.237234
0.230139
0.222742
0.215315
0.208136
0.201323
0.194961
0.189096
0.183734
0.178858
0.17443
0.170396
0.166692
0.163252
0.159992
0.156838
0.153706
0.150522
0.147194
0.143577
0.139658
0.136187
0.134232
0.127606
0.128812
0.131255
0.134579
0.13791
0.141062
0.144106
0.14713
0.150219
0.15345
0.156903
0.160656
0.164792
0.169392
0.17454
0.180314
0.186794
0.194008
0.201952
0.210584
0.219799
0.229426
0.239113
0.248408
0.256782
0.263626
0.268308
0.27038
0.269604
0.266068
0.260125
0.252335
0.243349
0.233746
0.223975
0.214475
0.205512
0.197202
0.189614
0.182757
0.176599
0.171085
0.166141
0.161685
0.157643
0.153933
0.150481
0.147202
0.144011
0.140829
0.137582
0.134167
0.130617
0.127669
0.126083
0.118998
0.119944
0.121949
0.124892
0.128004
0.131022
0.133979
0.136958
0.14004
0.143304
0.146832
0.150712
0.155042
0.15993
0.165479
0.17185
0.179123
0.187399
0.196775
0.207261
0.218809
0.23127
0.244326
0.257301
0.269382
0.279566
0.286718
0.289932
0.288757
0.283344
0.27441
0.263032
0.250316
0.23715
0.224266
0.212216
0.201181
0.191255
0.182438
0.17466
0.167816
0.161803
0.156497
0.151811
0.147633
0.14385
0.140367
0.137098
0.133962
0.130882
0.127795
0.124637
0.121491
0.119016
0.117746
0.110217
0.110972
0.112598
0.115127
0.11793
0.120702
0.123448
0.12624
0.129157
0.132278
0.135688
0.139484
0.143779
0.148706
0.154411
0.161083
0.168889
0.178023
0.188681
0.201069
0.215256
0.2312
0.248707
0.267062
0.28497
0.300763
0.312269
0.317564
0.315666
0.306895
0.292816
0.275609
0.257239
0.239106
0.222302
0.207234
0.193986
0.182502
0.172613
0.164121
0.156854
0.150641
0.145281
0.140615
0.136503
0.132827
0.129485
0.126384
0.123444
0.120587
0.117754
0.114912
0.11219
0.110162
0.109171
0.101234
0.101833
0.103131
0.105233
0.107645
0.110061
0.112464
0.114921
0.117506
0.120293
0.123365
0.126823
0.130791
0.135404
0.140889
0.147424
0.155262
0.164732
0.176198
0.190062
0.206792
0.226631
0.249671
0.275628
0.302853
0.328473
0.34826
0.357684
0.354344
0.339053
0.315544
0.288594
0.261656
0.237021
0.215616
0.197435
0.182218
0.169567
0.159107
0.15048
0.143312
0.137299
0.132213
0.127861
0.124075
0.120745
0.11775
0.114987
0.112397
0.109896
0.107426
0.104979
0.102711
0.101072
0.10026
0.0920465
0.0925285
0.0935333
0.0951836
0.0971167
0.0990722
0.101019
0.103008
0.105099
0.107356
0.109855
0.112686
0.115968
0.119864
0.124586
0.130343
0.137447
0.146308
0.15748
0.171685
0.189771
0.212824
0.241839
0.277375
0.319005
0.362486
0.399374
0.417919
0.411369
0.381981
0.340119
0.296849
0.258004
0.225898
0.200092
0.179652
0.163602
0.151028
0.141079
0.133105
0.126681
0.121413
0.117073
0.113428
0.110305
0.107585
0.105157
0.102932
0.100845
0.0988269
0.0968282
0.094858
0.0930806
0.0918508
0.0912362
0.0826984
0.0830699
0.0837827
0.0849545
0.0863531
0.0877709
0.0891635
0.090561
0.0920042
0.0935406
0.0952277
0.0971399
0.099376
0.102093
0.105434
0.109617
0.114939
0.121825
0.130885
0.143021
0.159567
0.182436
0.214481
0.258837
0.319021
0.394373
0.469201
0.51012
0.495752
0.432854
0.354074
0.285734
0.234197
0.196623
0.169626
0.150264
0.136129
0.125614
0.117653
0.111554
0.106793
0.103017
0.0999602
0.0974079
0.0952765
0.0934309
0.0917813
0.0902495
0.0887929
0.0873759
0.0859476
0.084528
0.0832704
0.082419
0.0819734
0.0732232
0.0734795
0.0738749
0.0745398
0.0753732
0.0762116
0.0769878
0.0777029
0.078377
0.0790369
0.0797155
0.0804593
0.0813259
0.0823994
0.083739
0.0855107
0.0878873
0.0911227
0.0956985
0.102274
0.111934
0.126855
0.150832
0.190594
0.258239
0.376525
0.536174
0.638374
0.602808
0.454229
0.307314
0.21908
0.167816
0.13713
0.118406
0.106465
0.0984672
0.0928543
0.0889365
0.0860917
0.0839152
0.0823111
0.0810681
0.0800508
0.0792116
0.0784695
0.0777781
0.0770996
0.0764065
0.0756703
0.074873
0.0740445
0.0733167
0.0728512
0.0725727
0.0633559
0.063441
0.0635709
0.0638642
0.0642302
0.0645133
0.0646426
0.0646115
0.0644297
0.0641061
0.0636481
0.0630558
0.0623146
0.0614221
0.0603527
0.059097
0.0576146
0.0558282
0.0536526
0.0509077
0.0473254
0.0427284
0.0365672
0.0289237
0.0165537
0.10912
0.374259
0.235957
0.0767325
0.0255799
0.0336733
0.0402695
0.0456468
0.0494493
0.0523996
0.054601
0.0564106
0.0578985
0.0591484
0.0602265
0.0611453
0.0619262
0.0625763
0.0630938
0.0634792
0.0637323
0.0638515
0.0638364
0.0636919
0.0634584
0.0632551
0.0631909
0.0631444
0.0520133
0.05222
0.0527494
0.0532341
0.0533696
0.0531057
0.0525385
0.0517024
0.0506233
0.0492828
0.0476429
0.0456335
0.0431838
0.0402309
0.0366462
0.0322285
0.0266877
0.0195701
0.0101432
-0.00286006
-0.0217734
-0.0511485
-0.100568
-0.192103
-0.321921
-0.436335
-0.26858
-0.137539
-0.071063
-0.0335722
-0.0107264
0.00443247
0.0151114
0.0230165
0.0290931
0.033914
0.0378157
0.0410141
0.0436566
0.0458819
0.0477254
0.0492355
0.0504733
0.0514271
0.0521411
0.0526424
0.0529411
0.0530383
0.052958
0.0527957
0.045473
0.0450843
0.0447126
0.0438754
0.0428048
0.0416776
0.0404073
0.0388797
0.0369774
0.0346636
0.0318571
0.0285145
0.0245153
0.0196791
0.0138074
0.00660347
-0.00235326
-0.0136836
-0.0283299
-0.0477723
-0.0743784
-0.112311
-0.170137
-0.257837
-0.345317
-0.300352
-0.204826
-0.134259
-0.0893794
-0.0589189
-0.0370408
-0.0207714
-0.00829923
0.00150843
0.00937756
0.0157989
0.0211192
0.0255601
0.0292401
0.0323228
0.034908
0.0370517
0.0388327
0.0402697
0.0413672
0.0421484
0.0425779
0.0425595
0.0423647
0.0345433
0.0345488
0.0343409
0.0339229
0.0330754
0.0316764
0.0297865
0.0274696
0.0247215
0.0214686
0.0176179
0.0130467
0.00760553
0.00106449
-0.00679123
-0.0162965
-0.0278915
-0.0421709
-0.0599865
-0.0824466
-0.110933
-0.147063
-0.192446
-0.241517
-0.262844
-0.275007
-0.267962
-0.246497
-0.211518
-0.165011
-0.126131
-0.0951385
-0.0705969
-0.051103
-0.0355005
-0.0228557
-0.0124905
-0.00391278
0.00324026
0.00924066
0.0143011
0.01859
0.0222283
0.0253109
0.0279269
0.0301318
0.0319488
0.0333545
0.034348
0.0349718
0.0351262
0.0265777
0.0266817
0.0260452
0.0247544
0.0230234
0.0209193
0.0184276
0.0154888
0.012035
0.00798282
0.00322603
-0.00234015
-0.00886793
-0.0166459
-0.0258719
-0.036819
-0.049839
-0.0653444
-0.0838953
-0.106031
-0.132129
-0.162401
-0.196663
-0.228345
-0.240788
-0.240494
-0.235905
-0.230485
-0.232443
-0.235434
-0.233885
-0.230106
-0.21159
-0.178037
-0.146842
-0.119312
-0.0955881
-0.075427
-0.0585617
-0.0443902
-0.0324219
-0.0223577
-0.0138405
-0.00659852
-0.00042776
0.00483797
0.00933053
0.0131662
0.0164433
0.0192551
0.0216828
0.0237407
0.0253408
0.0263031
0.0264632
0.0186572
0.0188102
0.018191
0.0166292
0.0144048
0.0117802
0.00880193
0.00538425
0.00141895
-0.00320059
-0.00859253
-0.0148809
-0.0221748
-0.0307059
-0.0406719
-0.0522823
-0.0657825
-0.0814525
-0.0995777
-0.120405
-0.144113
-0.170671
-0.199155
-0.221733
-0.230366
-0.232325
-0.231807
-0.23136
-0.234165
-0.236649
-0.235184
-0.231165
-0.216496
-0.188673
-0.160734
-0.135138
-0.112415
-0.0925565
-0.0753627
-0.0605576
-0.04781
-0.0368813
-0.0274886
-0.0193918
-0.0124624
-0.00650975
-0.00139376
0.00301231
0.00680534
0.0100832
0.0129423
0.0153908
0.0172633
0.0182929
0.0183977
0.0110075
0.0110803
0.0104516
0.00890958
0.00658662
0.00372168
0.000407689
-0.00339437
-0.00777309
-0.0128282
-0.0186762
-0.0254548
-0.0332939
-0.042293
-0.0526617
-0.0645527
-0.0781822
-0.0937351
-0.111377
-0.131246
-0.153356
-0.177541
-0.202362
-0.219993
-0.225389
-0.226972
-0.228544
-0.231809
-0.237486
-0.241685
-0.241265
-0.237635
-0.22471
-0.199753
-0.172852
-0.147993
-0.125705
-0.105953
-0.0885848
-0.0733937
-0.0602003
-0.0487305
-0.0387945
-0.0301775
-0.0227122
-0.0162502
-0.0106567
-0.00580749
-0.00160207
0.00205059
0.00521472
0.00785408
0.00977623
0.0107748
0.0108917
0.00411242
0.00420589
0.00354456
0.00194974
-0.000479281
-0.0035246
-0.00708165
-0.0111645
-0.0158412
-0.0211986
-0.0273326
-0.0343563
-0.0423948
-0.051585
-0.0621232
-0.0741005
-0.0876941
-0.103065
-0.120345
-0.13959
-0.160841
-0.183955
-0.206925
-0.222099
-0.226221
-0.227907
-0.230347
-0.235728
-0.244128
-0.250554
-0.25123
-0.247309
-0.234799
-0.21027
-0.182998
-0.157919
-0.135671
-0.115977
-0.0985951
-0.0833127
-0.0699221
-0.0582062
-0.0479886
-0.0390788
-0.0313076
-0.0245519
-0.0186643
-0.0135257
-0.00904664
-0.00514256
-0.00177596
0.000994599
0.00297337
0.00399857
0.00412242
-0.00199467
-0.00186002
-0.00249775
-0.00411191
-0.00659694
-0.00974103
-0.0134247
-0.0176403
-0.0224429
-0.0279105
-0.0341317
-0.0412092
-0.0492539
-0.058394
-0.0688267
-0.0806766
-0.0940715
-0.109182
-0.126126
-0.145044
-0.166061
-0.189021
-0.211896
-0.227224
-0.23222
-0.234412
-0.236991
-0.243306
-0.253324
-0.260967
-0.2618
-0.25676
-0.242519
-0.216973
-0.189038
-0.163806
-0.141536
-0.122005
-0.104831
-0.0897326
-0.0764778
-0.0648534
-0.0546698
-0.0457552
-0.0379515
-0.0311212
-0.0251421
-0.0199027
-0.0153132
-0.0112987
-0.00783659
-0.00500522
-0.00300511
-0.00200261
-0.00193116
-0.00729282
-0.00710189
-0.00767845
-0.00924964
-0.0117147
-0.0148626
-0.0185486
-0.022752
-0.0275179
-0.0329205
-0.0390432
-0.0459823
-0.0538436
-0.0627497
-0.0728518
-0.0843469
-0.09734
-0.112006
-0.128551
-0.147201
-0.16815
-0.191566
-0.215415
-0.232518
-0.239482
-0.242242
-0.244314
-0.250315
-0.260232
-0.267569
-0.26789
-0.26092
-0.244303
-0.217745
-0.189569
-0.164578
-0.142851
-0.123836
-0.107231
-0.0926716
-0.0798882
-0.0686627
-0.0588039
-0.0501447
-0.0425399
-0.0358592
-0.0299884
-0.0248251
-0.0202827
-0.0162945
-0.012852
-0.0100459
-0.00808215
-0.00712445
-0.00710729
-0.0118068
-0.0115833
-0.0120885
-0.0135521
-0.0159078
-0.0189464
-0.0225146
-0.0265738
-0.0311604
-0.0363432
-0.0422009
-0.0488232
-0.0563123
-0.0647762
-0.0743431
-0.0852158
-0.0975447
-0.11152
-0.127412
-0.145495
-0.1662
-0.189906
-0.214772
-0.233797
-0.24269
-0.245613
-0.246577
-0.250894
-0.258899
-0.2649
-0.2647
-0.256019
-0.237488
-0.21095
-0.183868
-0.159951
-0.139396
-0.121545
-0.105948
-0.0923235
-0.0803601
-0.0698379
-0.0605736
-0.0524112
-0.0452183
-0.0388776
-0.0332866
-0.0283526
-0.023995
-0.0201571
-0.0168429
-0.0141587
-0.0123153
-0.0114638
-0.011506
-0.0155449
-0.0152876
-0.0157051
-0.0170278
-0.0192062
-0.0220489
-0.0253969
-0.0291988
-0.0334821
-0.0383078
-0.0437493
-0.0498862
-0.0568109
-0.0646254
-0.0734456
-0.0834303
-0.0947911
-0.107719
-0.122477
-0.139432
-0.159116
-0.182008
-0.206504
-0.226361
-0.236407
-0.239019
-0.238521
-0.240182
-0.245143
-0.249365
-0.24864
-0.239385
-0.220772
-0.19598
-0.171444
-0.149943
-0.131379
-0.115275
-0.101243
-0.0889428
-0.0781402
-0.0686092
-0.0601873
-0.0527388
-0.0461485
-0.0403174
-0.0351564
-0.0305862
-0.026537
-0.0229629
-0.0198797
-0.0174081
-0.0157449
-0.0150124
-0.0151079
-0.0185351
-0.0182462
-0.0185673
-0.0197129
-0.0216534
-0.0242201
-0.0272566
-0.0307038
-0.034578
-0.0389297
-0.0438224
-0.0493261
-0.0555181
-0.0624902
-0.0703477
-0.0792183
-0.0892662
-0.10069
-0.113749
-0.128797
-0.146325
-0.166741
-0.188775
-0.207454
-0.217458
-0.219239
-0.216952
-0.215758
-0.21755
-0.220142
-0.219435
-0.210936
-0.194436
-0.173415
-0.152888
-0.134853
-0.119189
-0.105479
-0.0934604
-0.0828745
-0.0735304
-0.0652392
-0.0578718
-0.0513217
-0.0454977
-0.0403203
-0.0357189
-0.0316279
-0.0279915
-0.0247778
-0.0220143
-0.0198235
-0.0183822
-0.0177879
-0.0179362
-0.0208227
-0.0205075
-0.0207228
-0.0216637
-0.0233112
-0.0255309
-0.0281793
-0.031191
-0.0345706
-0.038357
-0.0426009
-0.0473592
-0.0526906
-0.0586657
-0.0653623
-0.072871
-0.0813039
-0.0908511
-0.101704
-0.114102
-0.128399
-0.144815
-0.162418
-0.177607
-0.185805
-0.186265
-0.182325
-0.178898
-0.17829
-0.179913
-0.179661
-0.173293
-0.160796
-0.145103
-0.129672
-0.115865
-0.103685
-0.0928672
-0.0832252
-0.0746299
-0.0669514
-0.0600925
-0.0539399
-0.0484259
-0.0434895
-0.039074
-0.0351287
-0.0316058
-0.0284654
-0.0256902
-0.0233168
-0.0214619
-0.0202814
-0.0198365
-0.0200336
-0.0224439
-0.0221078
-0.0222113
-0.0229212
-0.0242457
-0.0260728
-0.028278
-0.030797
-0.0336241
-0.036783
-0.0403097
-0.0442408
-0.0486162
-0.0534783
-0.0588762
-0.0648685
-0.0715244
-0.0789276
-0.0871983
-0.0964574
-0.106846
-0.118396
-0.130407
-0.140474
-0.145333
-0.144016
-0.138932
-0.134151
-0.132279
-0.133597
-0.134236
-0.130913
-0.123485
-0.113782
-0.103854
-0.0945912
-0.0861246
-0.078389
-0.0713078
-0.0648472
-0.0589627
-0.0536249
-0.0487788
-0.0443801
-0.0404031
-0.0368165
-0.0335896
-0.0306939
-0.0281061
-0.0258241
-0.0238907
-0.0224078
-0.0215035
-0.021213
-0.021456
-0.0234476
-0.0230934
-0.0230891
-0.023571
-0.0245531
-0.0259582
-0.0276872
-0.0296797
-0.0319197
-0.0344164
-0.0371864
-0.0402481
-0.0436206
-0.0473216
-0.0513685
-0.0557781
-0.0605662
-0.0657459
-0.0713215
-0.077306
-0.0836678
-0.0902731
-0.0965717
-0.101091
-0.101954
-0.0986548
-0.0928914
-0.0875604
-0.0853235
-0.0866467
-0.0885065
-0.0885552
-0.0862722
-0.0822907
-0.077569
-0.0726638
-0.067797
-0.0630663
-0.0585166
-0.0541846
-0.0501145
-0.0463072
-0.0427806
-0.0395213
-0.0365279
-0.0337955
-0.0313153
-0.0290765
-0.0270738
-0.0253168
-0.0238499
-0.0227611
-0.0221349
-0.0219937
-0.0222779
-0.0239191
-0.0235531
-0.0234474
-0.0237063
-0.0243486
-0.0253196
-0.0265559
-0.0280047
-0.0296418
-0.0314624
-0.0334672
-0.0356575
-0.038031
-0.0405811
-0.0432942
-0.0461497
-0.049115
-0.0521439
-0.0551703
-0.058099
-0.0607915
-0.0630119
-0.0643186
-0.063917
-0.061042
-0.0558812
-0.0498222
-0.0445451
-0.0423799
-0.0437553
-0.0468757
-0.0500274
-0.0521677
-0.0529709
-0.0526494
-0.0515263
-0.0498612
-0.047845
-0.0456184
-0.0432733
-0.0408996
-0.0385672
-0.0363125
-0.0341619
-0.0321323
-0.0302445
-0.0285094
-0.0269329
-0.0255237
-0.0243011
-0.0233076
-0.0226079
-0.0222577
-0.0222566
-0.0225717
-0.0239255
-0.0235646
-0.0233732
-0.0234201
-0.0237228
-0.0242678
-0.0250148
-0.0259218
-0.0269622
-0.0281196
-0.0293815
-0.0307326
-0.0321521
-0.0336117
-0.0350747
-0.0364912
-0.0377945
-0.0389
-0.0396937
-0.0400294
-0.0397096
-0.0384651
-0.0359459
-0.0318099
-0.0260494
-0.0194425
-0.0132737
-0.00842482
-0.00642707
-0.00791745
-0.0120988
-0.0176174
-0.0230386
-0.0273891
-0.0304181
-0.0322801
-0.0332286
-0.0334898
-0.0332498
-0.0326494
-0.0317943
-0.0307904
-0.029702
-0.0285835
-0.0274614
-0.026377
-0.0253577
-0.0244242
-0.0235964
-0.0228997
-0.0223691
-0.022045
-0.0219493
-0.0220743
-0.0224112
-0.0235353
-0.0231759
-0.0229149
-0.0227788
-0.022774
-0.0229158
-0.0231907
-0.0235754
-0.024044
-0.024572
-0.0251353
-0.025706
-0.0262492
-0.026723
-0.0270741
-0.0272344
-0.0271197
-0.0266242
-0.0256151
-0.0239256
-0.0213536
-0.0176536
-0.012557
-0.00599447
0.00159974
0.00911113
0.0152978
0.0196834
0.0214085
0.0197172
0.0148163
0.00780318
0.000318806
-0.00632184
-0.0116228
-0.0156171
-0.0185182
-0.0205487
-0.0218997
-0.022729
-0.0231599
-0.0232919
-0.0232281
-0.0230274
-0.0227322
-0.022382
-0.0220271
-0.0216969
-0.0214192
-0.0212215
-0.0211274
-0.0211489
-0.0212847
-0.0215188
-0.0218662
-0.0228121
-0.0224668
-0.0221595
-0.0218645
-0.0215834
-0.0213523
-0.0211885
-0.0210857
-0.0210227
-0.0209713
-0.0209001
-0.0207729
-0.0205473
-0.0201716
-0.0195843
-0.018711
-0.0174605
-0.0157239
-0.0133687
-0.0102384
-0.00614439
-0.000888998
0.00567597
0.0135073
0.0219984
0.0298513
0.0358847
0.0398328
0.0412412
0.0393812
0.0341486
0.0264583
0.0179847
0.0101289
0.0035038
-0.00183844
-0.00605945
-0.00935085
-0.0118862
-0.0138155
-0.0152647
-0.0163328
-0.0171141
-0.0176926
-0.0181176
-0.0184211
-0.0186598
-0.0188767
-0.0191031
-0.0193631
-0.0196663
-0.0199987
-0.0203305
-0.0206505
-0.020999
-0.0218198
-0.0214948
-0.0211479
-0.0207214
-0.0202061
-0.0196445
-0.0190855
-0.0185433
-0.0180039
-0.0174401
-0.0168161
-0.0160918
-0.0152209
-0.0141491
-0.0128128
-0.0111379
-0.00903677
-0.00640854
-0.00313501
0.000919673
0.00590812
0.0119855
0.0192499
0.0275028
0.0360674
0.043753
0.0494284
0.0529543
0.0540493
0.0521148
0.0469326
0.0392199
0.030562
0.0223136
0.0151106
0.00906455
0.00406848
-2.71713e-05
-0.00336803
-0.00608539
-0.00828976
-0.0100788
-0.0115322
-0.0127308
-0.0137551
-0.01462
-0.0153732
-0.0160683
-0.0167389
-0.0174029
-0.0180541
-0.0186544
-0.0191515
-0.0195339
-0.0198805
-0.0205967
-0.0202898
-0.0199192
-0.0193904
-0.01868
-0.0178424
-0.0169443
-0.016022
-0.0150741
-0.0140756
-0.012991
-0.0117791
-0.010393
-0.00878029
-0.00687994
-0.00462353
-0.00193363
0.00127763
0.00510728
0.00966588
0.0150749
0.0214403
0.0287672
0.0368415
0.0450166
0.0521691
0.0573904
0.0604667
0.061303
0.0594141
0.0545112
0.0472052
0.0389018
0.0308248
0.0235814
0.0173172
0.011978
0.00745172
0.00362834
0.000401274
-0.00232194
-0.00462849
-0.00659151
-0.00827277
-0.0097542
-0.0110764
-0.0122572
-0.0133533
-0.0143998
-0.0154079
-0.016352
-0.0171722
-0.0178016
-0.0182319
-0.0185686
-0.0192033
-0.0189189
-0.018528
-0.0179254
-0.017062
-0.0159988
-0.0148204
-0.0135834
-0.0122987
-0.0109474
-0.00949662
-0.00790656
-0.00613199
-0.00412383
-0.00182835
0.000814392
0.00387007
0.00741106
0.011515
0.0162658
0.0217423
0.0279984
0.0350242
0.0426079
0.0501274
0.0565781
0.0611628
0.0638052
0.0644163
0.06264
0.0581824
0.0515359
0.0439028
0.0363438
0.0294112
0.0232664
0.0178962
0.0132274
0.00917906
0.00567135
0.00263026
-1.57764e-05
-0.00232917
-0.00436686
-0.00618462
-0.00785371
-0.00937688
-0.0107937
-0.012142
-0.0134203
-0.0145883
-0.0155672
-0.0162856
-0.0167503
-0.0170768
-0.0176752
-0.0174166
-0.0170228
-0.0163662
-0.01539
-0.014153
-0.0127552
-0.0112705
-0.00972253
-0.00810032
-0.00637415
-0.00450724
-0.00245891
-0.000185311
0.0023605
0.00522859
0.00847296
0.01215
0.0163165
0.0210262
0.0263314
0.0322666
0.0387919
0.0456719
0.0523571
0.0580277
0.0620428
0.0642883
0.0647889
0.0631107
0.0590976
0.0532139
0.0463976
0.0395365
0.0331171
0.027304
0.022115
0.0175067
0.0134261
0.00981574
0.00661849
0.00378146
0.00125161
-0.00102175
-0.0030786
-0.00498718
-0.00676787
-0.00842991
-0.0100111
-0.0115049
-0.0128539
-0.0139648
-0.0147506
-0.0152282
-0.0155239
-0.0160463
-0.0158115
-0.015424
-0.0147394
-0.0136922
-0.0123334
-0.0107774
-0.00911123
-0.00737116
-0.00555435
-0.00363644
-0.00158398
0.000638472
0.00306894
0.0057476
0.00871491
0.0120121
0.0156793
0.0197551
0.0242794
0.0292826
0.0347704
0.0406729
0.0467853
0.0526429
0.0575497
0.0609642
0.0628122
0.0630982
0.0616324
0.0584016
0.0530735
0.0470962
0.0409907
0.0351774
0.0298132
0.0249337
0.0205219
0.0165444
0.0129627
0.0097357
0.00682352
0.0041859
0.00177999
-0.000427787
-0.00247434
-0.00442816
-0.00627641
-0.00802281
-0.00966352
-0.01113
-0.0123139
-0.0131363
-0.0136126
-0.0138927
-0.014366
-0.0141582
-0.0137833
-0.0130887
-0.0119971
-0.0105639
-0.00890591
-0.00711926
-0.00525244
-0.00330982
-0.00127302
0.000886821
0.00320049
0.00570067
0.00841953
0.0113881
0.0146355
0.0181926
0.0220864
0.0263392
0.0309591
0.0359355
0.0412035
0.0465705
0.0516302
0.0558044
0.0586702
0.0601818
0.0603624
0.0590177
0.0559488
0.0515592
0.0465418
0.0411747
0.0359987
0.0311383
0.026641
0.022507
0.0187206
0.0152585
0.0120938
0.00919549
0.00653559
0.00407966
0.00179685
-0.00033887
-0.00237077
-0.004334
-0.0061859
-0.00791641
-0.0094495
-0.0106751
-0.0115082
-0.0119796
-0.0122387
-0.0126517
-0.0124704
-0.0121143
-0.0114251
-0.010323
-0.00885779
-0.00714791
-0.00529671
-0.00336119
-0.00135314
0.000740687
0.00294389
0.00528259
0.00778307
0.0104702
0.0133674
0.0164981
0.0198825
0.0235344
0.0274622
0.031667
0.03613
0.040781
0.0454436
0.0497719
0.0532934
0.0556815
0.0569024
0.0569909
0.0558186
0.0532392
0.0494391
0.0449679
0.0404097
0.0359155
0.0315686
0.0274829
0.0236721
0.0201317
0.0168498
0.0138095
0.0109922
0.0083737
0.00593146
0.00363885
0.00147047
-0.000591863
-0.00259579
-0.00450621
-0.00627657
-0.00783491
-0.00906699
-0.00989248
-0.0103478
-0.01058
-0.0109348
-0.0107801
-0.0104452
-0.00977374
-0.00868571
-0.0072254
-0.00550684
-0.00363937
-0.00168483
0.000338139
0.00243758
0.00463239
0.00694322
0.00939031
0.0119941
0.0147731
0.0177419
0.0209104
0.0242866
0.0278733
0.0316626
0.0356288
0.0397025
0.043727
0.0474094
0.0503679
0.0523457
0.0533208
0.053331
0.0522864
0.0500881
0.0468859
0.0430717
0.0390412
0.0350784
0.0313175
0.0276657
0.0241989
0.0209339
0.0178689
0.014996
0.0123036
0.00977532
0.00739435
0.00513973
0.00299108
0.000934457
-0.00105007
-0.00296829
-0.00474573
-0.00629515
-0.00750588
-0.00830765
-0.00873925
-0.00894497
-0.00922736
-0.00909787
-0.00878669
-0.00814799
-0.00709626
-0.00567063
-0.00398136
-0.00213798
-0.000205926
0.00179088
0.00385488
0.0059995
0.00824168
0.0105984
0.0130841
0.0157104
0.0184864
0.021419
0.0245098
0.0277554
0.031143
0.0346446
0.0381951
0.0416564
0.0447821
0.0472636
0.0488962
0.0496655
0.0496116
0.0486755
0.0467923
0.0440843
0.0408535
0.0373996
0.033914
0.0305142
0.0272741
0.0242207
0.0212581
0.018432
0.0157517
0.0132136
0.0108084
0.0085238
0.00634452
0.00425374
0.00223889
0.000296773
-0.0015737
-0.00332321
-0.00483413
-0.00600564
-0.00676947
-0.00717517
-0.00735728
-0.00756127
-0.00745045
-0.00716674
-0.00656824
-0.0055666
-0.00420049
-0.00257003
-0.000782392
0.0010941
0.0030312
0.00502635
0.00709001
0.00923494
0.0114734
0.013815
0.0162682
0.0188386
0.0215283
0.0243348
0.0272515
0.0302631
0.033342
0.0364276
0.0393997
0.0420524
0.044135
0.0454803
0.0460809
0.0459767
0.0451349
0.0435157
0.0412174
0.0384722
0.0355154
0.0325039
0.0295199
0.026606
0.023797
0.0211292
0.0186206
0.0161606
0.0137976
0.0115376
0.00937382
0.00729546
0.00529111
0.00334957
0.00147176
-0.000324335
-0.00200417
-0.00345942
-0.00457389
-0.00529643
-0.00566737
-0.00582889
-0.00594006
-0.00585547
-0.00560218
-0.00505036
-0.00411373
-0.00282133
-0.00127072
0.000436169
0.00223075
0.00408207
0.00598497
0.00794509
0.00997099
0.0120716
0.0142546
0.0165251
0.018885
0.0213336
0.0238659
0.0264737
0.0291414
0.0318417
0.0345205
0.0370739
0.0393279
0.0410773
0.042187
0.0426515
0.042511
0.0417528
0.0403552
0.0383987
0.0360597
0.0335243
0.0309203
0.0283174
0.0257513
0.0232399
0.020799
0.0184556
0.016243
0.0141114
0.0120162
0.0099908
0.008033
0.00613487
0.0042898
0.00249979
0.000789227
-0.000792993
-0.00217072
-0.00321932
-0.00388948
-0.00423411
-0.00437096
-0.00440342
-0.00433638
-0.00411088
-0.00360498
-0.00273757
-0.00153157
-7.71571e-05
0.0015295
0.00322211
0.0049688
0.00676007
0.00859901
0.0104918
0.0124444
0.0144615
0.0165459
0.0186972
0.0209131
0.0231873
0.0255105
0.0278676
0.0302333
0.032559
0.0347545
0.0366735
0.0381471
0.0390635
0.039419
0.0392538
0.038571
0.0373621
0.0356914
0.0336942
0.0315158
0.0292598
0.0269863
0.0247272
0.0225006
0.0203161
0.0181824
0.016114
0.0141288
0.0122442
0.0104102
0.00858759
0.00681022
0.00507878
0.00339556
0.00178539
0.000303818
-0.000971292
-0.00194944
-0.0025678
-0.00287567
-0.00299375
-0.00295351
-0.0028999
-0.00269672
-0.00223431
-0.00143974
-0.000331284
0.00101458
0.00250616
0.00408138
0.00570832
0.00737532
0.00908304
0.0108346
0.012634
0.0144838
0.0163845
0.0183344
0.0203301
0.0223652
0.0244297
0.0265095
0.0285811
0.0306016
0.0324921
0.0341291
0.0353729
0.0361306
0.0364
0.0362209
0.0356077
0.0345607
0.0331296
0.0314199
0.029545
0.0275888
0.0256015
0.0236121
0.0216387
0.019695
0.0177891
0.0159195
0.0140887
0.0123038
0.0105733
0.00890361
0.0072985
0.0057234
0.00416882
0.00267157
0.00129543
0.000113206
-0.000774451
-0.00132983
-0.00160825
-0.00170809
-0.0015813
-0.00154294
-0.00136571
-0.000953271
-0.000237444
0.000768492
0.00199629
0.00336472
0.00481494
0.00631482
0.0078516
0.00942319
0.0110309
0.0126768
0.0143617
0.0160851
0.0178444
0.0196353
0.021451
0.0232825
0.0251157
0.0269297
0.0286859
0.0303161
0.0317164
0.0327684
0.033397
0.0335991
0.0334144
0.0328648
0.031957
0.0307286
0.0292613
0.0276448
0.0259466
0.0242094
0.0224586
0.0207129
0.0189842
0.0172771
0.0155973
0.0139479
0.0123309
0.0107463
0.00919097
0.00767
0.00619704
0.00476859
0.00337399
0.00219008
0.0011187
0.000313948
-0.000186672
-0.000434195
-0.000516963
-0.000331901
-0.000308928
-0.000160037
0.000205471
0.000846358
0.00175349
0.00286494
0.00410937
0.00543258
0.0068033
0.00820774
0.00964268
0.0111076
0.0126033
0.0141295
0.0156845
0.0172653
0.0188672
0.0204832
0.0221048
0.0237194
0.0253076
0.0268352
0.0282433
0.0294422
0.030335
0.0308574
0.0310078
0.0308244
0.0303346
0.0295465
0.028491
0.0272285
0.0258318
0.0243565
0.022838
0.0213005
0.0197583
0.0182194
0.0166929
0.0151849
0.0136994
0.0122388
0.010804
0.00939463
0.00801057
0.00665617
0.00534627
0.00411164
0.00296679
0.001869
0.00129569
0.000888029
0.000641368
0.00056803
0.00078325
0.000798901
0.000932382
0.00125451
0.00182488
0.00263429
0.00363136
0.00475238
0.00594809
0.00718921
0.00846199
0.00976191
0.0110875
0.0124386
0.0138136
0.0152104
0.0166256
0.0180541
0.0194892
0.0209228
0.0223431
0.0237329
0.0250616
0.0262785
0.0273074
0.0280669
0.0285026
0.0286149
0.0284379
0.0280024
0.0273185
0.0264091
0.0253223
0.0241137
0.0228305
0.0215049
0.0201557
0.0187929
0.0174269
0.0160654
0.0147151
0.0133804
0.0120646
0.0107699
0.00949798
0.0082488
0.00702595
0.00584059
0.00471948
0.0037151
0.00289746
0.00229342
0.00185805
0.00152841
0.00154859
0.00180688
0.00181424
0.00193423
0.00221862
0.00271525
0.00342499
0.00430574
0.00530248
0.00637112
0.00748417
0.00862795
0.00979706
0.010989
0.0122023