/*--------------------------------*- C++ -*----------------------------------*\
  =========                 |
  \\      /  F ield         | OpenFOAM: The Open Source CFD Toolbox
   \\    /   O peration     | Website:  https://openfoam.org
    \\  /    A nd           | Version:  7
     \\/     M anipulation  |
\*---------------------------------------------------------------------------*/
FoamFile
{
    version     2.0;
    format      ascii;
    class       surfaceScalarField;
    location    "25";
    object      phi;
}
// * * * * * * * * * * * * * * * * * * * * * * * * * * * * * * * * * * * * * //

dimensions      [0 3 -1 0 0 0 0];

internalField   nonuniform List<scalar> 
34768
(
8.19017e-05
0.000969999
-0.000149613
-4.44393e-05
2.58293e-05
0.000920909
-1.58213e-05
1.08607e-05
0.000907461
-8.25877e-06
6.71038e-06
0.000904248
-5.34105e-06
4.60819e-06
0.000903531
-4.28811e-06
3.90637e-06
0.00090318
-3.62361e-06
3.50942e-06
0.000903112
-3.44957e-06
3.4282e-06
0.000903119
-3.14013e-06
3.07545e-06
0.000903262
-3.23313e-06
3.00591e-06
0.000903325
-3.09463e-06
2.99358e-06
0.000903298
-3.00465e-06
3.22291e-06
0.000903279
-3.05086e-06
2.98404e-06
0.000903564
-3.2254e-06
3.17069e-06
0.000903552
-3.22312e-06
3.37863e-06
0.000903541
-3.34063e-06
3.3051e-06
0.000903832
-3.5756e-06
3.54819e-06
0.000903724
-3.52648e-06
3.70657e-06
0.000903816
-3.6921e-06
3.67923e-06
0.000903909
-3.87157e-06
3.76533e-06
0.000904102
-4.16405e-06
4.76402e-06
0.000904096
-5.56865e-06
6.37436e-06
0.00090519
-5.23445e-06
4.3854e-06
0.000904864
-3.63036e-06
4.09593e-06
0.000904599
-5.36467e-06
-3.45646e-07
0.000909275
-7.26978e-07
1.29913e-06
0.000908622
-1.20354e-06
8.57473e-07
0.00090943
-5.65141e-07
1.24859e-08
0.000909638
5.44284e-07
-8.31834e-07
0.000909371
1.18686e-06
-1.30376e-06
0.000909201
1.33077e-06
-1.38006e-06
0.000909143
1.38002e-06
-1.36267e-06
0.000909067
1.34651e-06
-1.33336e-06
0.000909071
1.27186e-06
-1.26365e-06
0.000909086
1.2575e-06
-1.25487e-06
0.000909092
1.25464e-06
-1.25812e-06
0.000909098
1.26432e-06
-1.27438e-06
0.000909105
1.28747e-06
-1.40456e-06
0.000909212
1.72494e-06
-1.14974e-06
0.00090992
6.78424e-07
-5.11458e-07
0.000910328
4.48446e-07
-3.89992e-07
0.000910337
4.36014e-07
-4.87125e-07
0.000910247
5.43509e-07
-6.05839e-07
0.000910258
6.74601e-07
-6.50651e-07
0.000910072
7.34875e-07
-8.28477e-07
0.00091009
9.32873e-07
-1.04988e-06
0.000910014
1.18179e-06
-1.33147e-06
0.000909946
1.50261e-06
-1.69998e-06
0.000909994
1.92961e-06
-2.29969e-06
0.000910067
2.52069e-06
-2.90688e-06
0.000910084
3.37629e-06
-4.05275e-06
0.000910274
4.66361e-06
-5.53774e-06
0.000910472
6.56881e-06
-7.67068e-06
0.0009106
8.65742e-06
-6.59279e-06
0.000907434
-4.04804e-06
-2.68504e-05
0.000940397
-0.000828039
0.000144221
0.000703718
-1.99105e-05
-0.000972334
-0.000148933
0.000116864
0.0010044
-0.00092511
-9.00602e-05
7.06491e-05
0.00094453
-0.000911555
-5.65371e-05
4.60799e-05
0.000922022
-0.000907175
-3.80987e-05
3.20634e-05
0.000913217
-0.00090546
-2.7353e-05
2.36111e-05
0.000909207
-0.000904516
-2.00868e-05
1.79092e-05
0.000906696
-0.000903986
-1.56503e-05
1.38193e-05
0.000905819
-0.00090386
-1.21527e-05
1.0897e-05
0.000905116
-0.000903744
-9.81919e-06
8.78385e-06
0.000904779
-0.000903792
-7.77486e-06
7.16767e-06
0.000904398
-0.000903679
-6.35509e-06
5.71795e-06
0.000904315
-0.000903592
-5.25568e-06
4.65148e-06
0.000904194
-0.000903821
-4.10928e-06
3.81387e-06
0.000904114
-0.000903761
-3.47214e-06
3.06898e-06
0.00090416
-0.000903707
-3.01456e-06
2.69298e-06
0.000904024
-0.000903859
-2.41659e-06
2.26889e-06
0.000904
-0.000903814
-2.26465e-06
2.08559e-06
0.000903985
-0.000903871
-2.04868e-06
1.93395e-06
0.000903976
-0.000903931
-2.06071e-06
2.10676e-06
0.000903874
-0.000904194
-1.89345e-06
1.99635e-06
0.000904078
-0.000903959
-2.3391e-06
1.69496e-06
0.000904588
-0.000907007
-1.87045e-06
4.78418e-06
0.000904075
-0.000903341
-3.68117e-06
-1.82105e-06
0.000908824
-0.000907855
5.88449e-07
-4.77553e-07
0.000907722
-0.000908317
4.85446e-07
-4.29026e-07
0.000908238
-0.000909597
3.54519e-07
-2.3772e-09
0.00090922
-0.000910087
-1.99526e-07
-1.02501e-07
0.000910362
-0.000909514
3.90213e-07
-2.22435e-07
0.000909318
-0.000909319
-5.85806e-08
-2.88291e-07
0.000909637
-0.000909103
3.64603e-07
-2.9451e-07
0.000909003
-0.000908972
1.17796e-07
4.07428e-08
0.000908783
-0.000908986
-2.02147e-07
3.21376e-07
0.000908836
-0.000909035
-4.90181e-07
5.63452e-07
0.00090893
-0.000909068
-5.33284e-07
6.54809e-07
0.000908914
-0.000909103
-6.70356e-07
6.35446e-07
0.000909106
-0.000909142
-5.92154e-07
4.96501e-07
0.000909205
-0.000909583
-2.90326e-07
3.0287e-08
0.000909811
-0.000909828
6.42599e-07
-9.72093e-07
0.000910125
-0.000910177
9.17901e-07
-1.02228e-06
0.000910249
-0.000910429
1.04669e-06
-1.23297e-06
0.000910584
-0.000910488
1.54452e-06
-1.92288e-06
0.000910836
-0.000910457
2.33402e-06
-2.81966e-06
0.000910913
-0.000910441
3.34919e-06
-4.0652e-06
0.000911129
-0.000910448
4.74132e-06
-5.62239e-06
0.000911302
-0.000910491
6.48807e-06
-7.6875e-06
0.000911664
-0.000910689
8.80887e-06
-1.02093e-05
0.000912064
-0.000910877
1.16909e-05
-1.36255e-05
0.000912786
-0.000911314
1.56376e-05
-1.8126e-05
0.000913779
-0.000911912
2.09567e-05
-2.45821e-05
0.000915515
-0.000913079
2.88458e-05
-3.41096e-05
0.000918322
-0.000915107
4.06852e-05
-4.8977e-05
0.00092338
-0.00091892
5.99803e-05
-7.43216e-05
0.000933246
-0.000924487
9.39864e-05
-0.000124284
0.000954771
-0.0009785
0.000165386
-0.000143349
0.000956451
-0.000599764
8.48374e-05
0.000519191
-4.26346e-06
-0.00102205
-0.00013412
0.000131413
0.00102477
-0.000962888
-0.00011163
9.34096e-05
0.000981126
-0.000933261
-7.93224e-05
6.79983e-05
0.000944606
-0.000920477
-5.87473e-05
5.10182e-05
0.000928225
-0.000914201
-4.43879e-05
3.89563e-05
0.000919649
-0.00091062
-3.42241e-05
3.0165e-05
0.000914693
-0.000908097
-2.66512e-05
2.29969e-05
0.000911763
-0.000907071
-2.04274e-05
1.81849e-05
0.000909323
-0.000906199
-1.60123e-05
1.4077e-05
0.000908141
-0.000905704
-1.23432e-05
1.07866e-05
0.000907265
-0.000905181
-9.58669e-06
8.22295e-06
0.000906548
-0.000905071
-6.98455e-06
6.15693e-06
0.0009059
-0.000904734
-5.03379e-06
4.20232e-06
0.000905565
-0.000904547
-3.56316e-06
2.90205e-06
0.000905206
-0.000904492
-2.22441e-06
1.81619e-06
0.000904897
-0.000904159
-1.38587e-06
1.01812e-06
0.000904522
-0.000904143
-6.24795e-07
3.89085e-07
0.000904372
-0.000904039
-2.25417e-07
2.15024e-07
0.00090404
-0.000904045
1.25271e-07
-1.16357e-07
0.000904026
-0.000903763
-1.60715e-07
-4.17137e-07
0.000904329
-0.000904792
7.27114e-07
4.0074e-07
0.00090365
-0.000906053
1.63622e-06
-3.22744e-06
0.000907629
-0.000907901
2.68672e-06
-2.2864e-06
0.000907483
-0.000907749
1.6644e-06
-1.58804e-06
0.000907653
-0.000907994
1.45608e-06
-1.40528e-06
0.000907922
-0.00090854
9.97476e-07
-5.02959e-07
0.000908023
-0.000910557
-9.42299e-08
1.33021e-08
0.000910614
-0.000909096
5.48617e-08
2.37823e-07
0.000908778
-0.000909769
-6.77718e-07
9.53258e-07
0.000909467
-0.000908789
-1.01779e-06
1.21668e-06
0.000908562
-0.000908526
-1.58538e-06
1.91985e-06
0.000908163
-0.000908627
-2.23666e-06
2.49164e-06
0.000908343
-0.0009087
-2.77229e-06
2.83476e-06
0.000908608
-0.000908961
-3.06703e-06
3.12586e-06
0.000908872
-0.000909136
-3.14993e-06
3.09644e-06
0.00090916
-0.000909326
-3.00405e-06
2.73077e-06
0.000909569
-0.000910527
-2.01557e-06
7.17304e-07
0.000911795
-0.000910343
-7.70137e-07
7.35524e-07
0.000910349
-0.000910477
-3.5005e-07
-1.26956e-07
0.000910925
-0.000910931
5.60963e-07
-1.19269e-06
0.000911535
-0.000911317
1.7898e-06
-2.59333e-06
0.000912094
-0.000911649
3.47455e-06
-4.47513e-06
0.000912624
-0.000912052
5.57103e-06
-6.80611e-06
0.000913262
-0.000912559
8.26278e-06
-9.78819e-06
0.000914061
-0.000913127
1.14727e-05
-1.3472e-05
0.000915104
-0.000914044
1.5587e-05
-1.80856e-05
0.000916521
-0.000915257
2.08867e-05
-2.39756e-05
0.000918326
-0.000917224
2.76021e-05
-3.16821e-05
0.000921284
-0.000920207
3.65107e-05
-4.21597e-05
0.000925838
-0.000925293
4.87957e-05
-5.66814e-05
0.000933163
-0.00093401
6.59967e-05
-7.73473e-05
0.000945347
-0.000950127
9.11197e-05
-0.000108207
0.000967203
-0.000985505
0.000130275
-0.000154859
0.00101008
-0.000906906
0.000157647
-9.18311e-05
0.000841083
-0.000458738
4.86839e-05
0.000412785
-2.72691e-06
-0.00101417
-0.000100345
0.000120007
0.000994518
-0.000997689
-0.000114139
0.000100608
0.00101123
-0.000955707
-8.77882e-05
7.71841e-05
0.000966317
-0.00093621
-6.81014e-05
6.03383e-05
0.000943979
-0.000925523
-5.35414e-05
4.75575e-05
0.000931511
-0.00091917
-4.22602e-05
3.75548e-05
0.000923878
-0.000915137
-3.33584e-05
2.96047e-05
0.000918893
-0.000912467
-2.63376e-05
2.33056e-05
0.000915501
-0.000910233
-2.04699e-05
1.74914e-05
0.000913212
-0.000909037
-1.54549e-05
1.3322e-05
0.00091117
-0.000908087
-1.12783e-05
9.70486e-06
0.00090966
-0.000907166
-8.0891e-06
6.6138e-06
0.00090864
-0.000906499
-5.27613e-06
4.05997e-06
0.000907713
-0.000906136
-2.8666e-06
1.98191e-06
0.000907018
-0.000905441
-1.21124e-06
4.39108e-07
0.00090621
-0.000905095
3.25462e-07
-9.97617e-07
0.000905762
-0.000904681
1.36493e-06
-1.74485e-06
0.000905055
-0.000904394
2.12323e-06
-2.4181e-06
0.000904681
-0.00090393
2.31295e-06
-3.02819e-06
0.000904636
-0.000904587
3.34268e-06
-2.38487e-06
0.000903618
-0.000905786
4.54672e-06
-6.19992e-06
0.000907426
-0.000907093
5.69343e-06
-5.53302e-06
0.000906918
-0.000906946
4.94877e-06
-4.45676e-06
0.000906438
-0.000907067
4.00379e-06
-3.19121e-06
0.000906237
-0.000908207
2.46745e-06
-2.3911e-06
0.000908111
-0.000907175
1.65006e-06
-9.02101e-07
0.000906406
-0.000910369
2.59671e-07
1.37643e-07
0.000909949
-0.000908262
-3.64769e-07
9.65949e-07
0.000907637
-0.000908462
-1.79671e-06
2.63471e-06
0.000907599
-0.000908603
-2.68211e-06
3.01876e-06
0.000908241
-0.000907717
-3.58532e-06
4.12895e-06
0.000907147
-0.000907988
-4.64201e-06
5.07089e-06
0.000907532
-0.00090838
-5.36931e-06
5.74394e-06
0.000907977
-0.000908774
-5.95964e-06
6.07458e-06
0.000908631
-0.000909204
-6.12422e-06
6.16771e-06
0.000909132
-0.000909762
-5.94069e-06
5.50391e-06
0.000910171
-0.000912845
-4.59338e-06
4.16865e-06
0.000913242
-0.000910765
-3.66361e-06
3.04171e-06
0.00091136
-0.000911517
-2.43651e-06
1.71039e-06
0.000912216
-0.000912214
-8.94545e-07
-1.48749e-07
0.000913231
-0.000913078
1.19039e-06
-2.26771e-06
0.000914131
-0.000913842
3.55746e-06
-4.99728e-06
0.000915259
-0.000914854
6.66871e-06
-8.30994e-06
0.000916474
-0.000915986
1.0311e-05
-1.24131e-05
0.000918068
-0.000917348
1.47124e-05
-1.73592e-05
0.000919976
-0.000919212
2.01581e-05
-2.33684e-05
0.000922405
-0.000921954
2.68096e-05
-3.07543e-05
0.000925883
-0.00092593
3.50405e-05
-3.99609e-05
0.000930836
-0.00093192
4.54807e-05
-5.16138e-05
0.00093804
-0.000941205
5.86695e-05
-6.66978e-05
0.000949222
-0.000956503
7.58529e-05
-8.61615e-05
0.000966803
-0.000982971
9.76057e-05
-0.000111754
0.000997111
-0.00102504
0.000126572
-0.000130801
0.00102927
-0.000771981
0.000102328
-3.93085e-05
0.000708958
-0.000377191
2.96335e-05
0.00034923
-1.66961e-06
-0.000969688
-7.15961e-05
9.90797e-05
0.000942206
-0.00102163
-0.000104558
9.77345e-05
0.00102846
-0.000976225
-8.78844e-05
7.83894e-05
0.000985716
-0.000951441
-7.01792e-05
6.29918e-05
0.000958624
-0.000937553
-5.65184e-05
5.07359e-05
0.00094333
-0.000928686
-4.54745e-05
4.06656e-05
0.00093349
-0.000922827
-3.62726e-05
3.23451e-05
0.000926751
-0.000918648
-2.86529e-05
2.52561e-05
0.000922041
-0.000915712
-2.2239e-05
1.94654e-05
0.000918482
-0.000913527
-1.69233e-05
1.44841e-05
0.000915964
-0.000911747
-1.18385e-05
9.6718e-06
0.000913911
-0.000910309
-7.88078e-06
6.1426e-06
0.000912045
-0.000909304
-4.25763e-06
2.91492e-06
0.000910644
-0.000907951
-1.61576e-06
2.44312e-07
0.00090932
-0.000907106
8.8945e-07
-2.00081e-06
0.000908214
-0.00090643
2.87849e-06
-3.43663e-06
0.000906984
-0.000905703
4.36511e-06
-4.77615e-06
0.000906109
-0.000904613
4.95623e-06
-6.12346e-06
0.000905773
-0.000905052
6.55451e-06
-5.6761e-06
0.000904166
-0.000905851
8.09308e-06
-1.00379e-05
0.000907786
-0.000906851
9.50327e-06
-9.45994e-06
0.000906796
-0.000906406
8.89429e-06
-8.26048e-06
0.000905758
-0.000905909
7.69871e-06
-6.88763e-06
0.000905082
-0.000905474
6.01926e-06
-5.20113e-06
0.000904639
-0.000907372
4.3204e-06
-3.56615e-06
0.000906599
-0.000905555
2.46275e-06
-1.364e-06
0.000904436
-0.000909425
4.00926e-07
2.68858e-07
0.000908733
-0.000906904
-9.98095e-07
1.79925e-06
0.000906079
-0.000906821
-2.86928e-06
3.79611e-06
0.00090587
-0.000907649
-4.43793e-06
5.17977e-06
0.000906882
-0.000906469
-6.03877e-06
6.84182e-06
0.00090564
-0.000906994
-7.58782e-06
8.21147e-06
0.000906343
-0.000907623
-8.795e-06
9.21494e-06
0.000907175
-0.000908367
-9.54369e-06
9.73898e-06
0.000908143
-0.00090917
-9.8366e-06
9.79629e-06
0.000909182
-0.000911418
-9.45385e-06
8.36935e-06
0.000912475
-0.000912713
-7.58086e-06
7.54306e-06
0.000912723
-0.000911855
-6.9958e-06
6.30391e-06
0.00091252
-0.000913045
-5.39993e-06
4.44998e-06
0.000913968
-0.000914202
-3.38326e-06
2.06528e-06
0.000915495
-0.000915563
-7.25612e-07
-7.71866e-07
0.000917036
-0.000916875
2.40164e-06
-4.30089e-06
0.000918751
-0.000918513
6.24735e-06
-8.37877e-06
0.000920623
-0.000920383
1.07814e-05
-1.32922e-05
0.000922873
-0.000922742
1.60039e-05
-1.89575e-05
0.000925677
-0.000925727
2.21547e-05
-2.58454e-05
0.0009294
-0.00093001
2.96298e-05
-3.37622e-05
0.000934125
-0.000935756
3.82646e-05
-4.32965e-05
0.000940772
-0.00094422
4.87865e-05
-5.48068e-05
0.000950225
-0.000956894
6.08848e-05
-6.72097e-05
0.000963206
-0.000975869
7.50527e-05
-8.37475e-05
0.000984553
-0.00100927
9.35494e-05
-0.000103528
0.00101924
-0.00102458
0.000108715
-9.76771e-05
0.00101353
-0.000655122
6.21791e-05
-1.75949e-05
0.00061053
-0.000326837
1.92242e-05
0.000308693
-1.07195e-06
-0.000914197
-5.12753e-05
7.86257e-05
0.000886854
-0.0010321
-9.07476e-05
8.99327e-05
0.00103293
-0.000994012
-8.33327e-05
7.57199e-05
0.00100163
-0.00096554
-6.86735e-05
6.2328e-05
0.000971889
-0.000949433
-5.65325e-05
5.14888e-05
0.000954481
-0.000938235
-4.60831e-05
4.10152e-05
0.000943308
-0.000930815
-3.61525e-05
3.20945e-05
0.000934878
-0.000925432
-2.82992e-05
2.47488e-05
0.000928988
-0.000921491
-2.15302e-05
1.8525e-05
0.000924501
-0.000918454
-1.57223e-05
1.31091e-05
0.000921072
-0.000916138
-1.07802e-05
8.52067e-06
0.000918401
-0.000914143
-6.63163e-06
4.49489e-06
0.000916283
-0.000912236
-2.41548e-06
5.88113e-07
0.000914065
-0.000910825
1.08588e-06
-2.61481e-06
0.000912355
-0.000909339
3.99187e-06
-5.12484e-06
0.000910472
-0.000908136
6.40743e-06
-7.34536e-06
0.000909072
-0.000906484
7.82583e-06
-9.36586e-06
0.00090802
-0.000906367
1.02367e-05
-9.56065e-06
0.000905686
-0.000906817
1.25658e-05
-1.46263e-05
0.00090887
-0.00090724
1.41858e-05
-1.43917e-05
0.000907436
-0.000906175
1.38285e-05
-1.34293e-05
0.000905764
-0.000905295
1.28768e-05
-1.19722e-05
0.000904376
-0.000904165
1.10113e-05
-1.00303e-05
0.000903168
-0.000903574
8.85825e-06
-7.7551e-06
0.000902452
-0.000905593
6.8478e-06
-5.36015e-06
0.000904085
-0.000903109
3.8138e-06
-2.26666e-06
0.000901539
-0.000907866
8.0305e-07
4.04318e-07
0.000906634
-0.000904891
-1.54162e-06
2.99215e-06
0.000903415
-0.00090474
-4.40779e-06
5.96386e-06
0.000903158
-0.000905996
-7.48713e-06
8.13308e-06
0.000905322
-0.000904671
-9.16534e-06
1.02763e-05
0.000903531
-0.000905574
-1.13183e-05
1.22126e-05
0.000904651
-0.000906755
-1.29105e-05
1.36144e-05
0.000906021
-0.000907883
-1.40906e-05
1.44941e-05
0.000907449
-0.000909295
-1.45641e-05
1.42583e-05
0.000909571
-0.000914059
-1.30184e-05
1.18041e-05
0.000915244
-0.000912701
-1.23356e-05
1.21913e-05
0.000912816
-0.000913479
-1.14117e-05
1.05591e-05
0.000914304
-0.000915111
-9.56998e-06
8.31004e-06
0.000916344
-0.000916825
-6.91357e-06
5.44759e-06
0.000918265
-0.000918663
-3.84418e-06
2.0698e-06
0.000920413
-0.000920691
-5.14134e-08
-2.0414e-06
0.00092276
-0.0009229
4.28548e-06
-6.81603e-06
0.000925408
-0.000925627
9.4098e-06
-1.22027e-05
0.000928399
-0.000928859
1.52804e-05
-1.8476e-05
0.000932035
-0.000932976
2.19826e-05
-2.56325e-05
0.000936607
-0.000938284
2.95198e-05
-3.37907e-05
0.000942537
-0.000945624
3.82314e-05
-4.23894e-05
0.000949765
-0.000954992
4.66586e-05
-5.20846e-05
0.000960402
-0.000969949
5.79864e-05
-6.4309e-05
0.000976258
-0.000992566
7.0979e-05
-7.83121e-05
0.000999886
-0.00102695
8.58284e-05
-9.13949e-05
0.0010325
-0.000998444
8.91923e-05
-7.17194e-05
0.000980961
-0.00057407
3.99675e-05
-1.00192e-05
0.000544111
-0.000293677
1.32706e-05
0.000281158
-7.35301e-07
-0.000860668
-3.75158e-05
6.19641e-05
0.000836237
-0.00103134
-7.67711e-05
8.01924e-05
0.00102794
-0.00100854
-7.67165e-05
7.07447e-05
0.00101453
-0.000977811
-6.45693e-05
5.87254e-05
0.000983669
-0.000959636
-5.35277e-05
4.85723e-05
0.000964606
-0.000947753
-4.38885e-05
3.9561e-05
0.000952096
-0.000939443
-3.54489e-05
3.15511e-05
0.000943355
-0.00093341
-2.78447e-05
2.454e-05
0.000936729
-0.000927694
-2.0379e-05
1.64019e-05
0.000931684
-0.000923798
-1.21815e-05
9.36787e-06
0.000926623
-0.000920586
-6.71126e-06
4.21499e-06
0.000923093
-0.000918049
-1.97238e-06
-1.15818e-07
0.000920146
-0.000916031
1.84962e-06
-3.32917e-06
0.000917517
-0.000913913
4.5549e-06
-6.23496e-06
0.000915598
-0.000912125
8.26126e-06
-9.82411e-06
0.00091369
-0.000909803
1.09148e-05
-1.29478e-05
0.000911837
-0.00090912
1.42895e-05
-1.39476e-05
0.000908776
-0.000908998
1.74923e-05
-1.9021e-05
0.000910523
-0.000909091
1.93327e-05
-2.0238e-05
0.00090999
-0.000906988
2.01279e-05
-1.9936e-05
0.000906786
-0.000905179
1.954e-05
-1.88508e-05
0.000904478
-0.000903364
1.77567e-05
-1.68395e-05
0.000902432
-0.000901942
1.55628e-05
-1.414e-05
0.000900502
-0.000901607
1.25505e-05
-1.1086e-05
0.000900123
-0.000901678
9.92216e-06
-7.68029e-06
0.000899414
-0.000899622
5.46019e-06
-3.31749e-06
0.000897456
-0.000905148
1.25325e-06
5.41438e-07
0.000903328
-0.000901725
-2.36827e-06
4.41728e-06
0.000899649
-0.000900709
-6.5097e-06
8.65338e-06
0.000898536
-0.000905494
-1.09562e-05
1.18374e-05
0.000904582
-0.000902338
-1.32099e-05
1.4722e-05
0.000900794
-0.000903589
-1.61423e-05
1.73637e-05
0.000902336
-0.000905292
-1.8432e-05
1.92665e-05
0.000904426
-0.000907165
-1.99269e-05
2.03638e-05
0.000906697
-0.000910538
-2.06206e-05
2.01608e-05
0.000910966
-0.000914872
-1.9029e-05
1.91638e-05
0.000914706
-0.000913297
-1.88212e-05
1.81685e-05
0.00091392
-0.000915224
-1.72473e-05
1.61266e-05
0.000916316
-0.000917595
-1.49449e-05
1.34722e-05
0.00091904
-0.000919938
-1.1946e-05
1.01365e-05
0.000921722
-0.000922406
-8.27897e-06
6.14369e-06
0.000924517
-0.000924972
-3.96427e-06
1.50846e-06
0.000927406
-0.000927952
9.92358e-07
-3.66652e-06
0.000930606
-0.000931291
6.49176e-06
-9.59731e-06
0.000934378
-0.000935302
1.27594e-05
-1.62094e-05
0.000938735
-0.000940283
1.97255e-05
-2.35402e-05
0.000944083
-0.000946363
2.63097e-05
-2.97985e-05
0.000949838
-0.00095419
3.43005e-05
-3.88171e-05
0.000958694
-0.000965796
4.36529e-05
-4.85208e-05
0.000970652
-0.00098208
5.39533e-05
-5.94671e-05
0.000987583
-0.00100659
6.54082e-05
-7.14411e-05
0.00101262
-0.00103599
7.68745e-05
-7.87684e-05
0.00103788
-0.000962601
7.22742e-05
-5.37564e-05
0.000944077
-0.000519225
2.77192e-05
-6.77844e-06
0.000498279
-0.000270563
9.65072e-06
0.00026146
-5.2654e-07
-0.000813617
-2.81218e-05
4.90384e-05
0.000792723
-0.00102302
-6.40955e-05
7.005e-05
0.00101708
-0.00101981
-6.89281e-05
6.4558e-05
0.00102419
-0.000989157
-5.9221e-05
5.38693e-05
0.000994522
-0.000969408
-4.89318e-05
4.42785e-05
0.000974076
-0.000956443
-3.98368e-05
3.55834e-05
0.00096071
-0.000947124
-3.15914e-05
2.76515e-05
0.000951078
-0.000940165
-2.40603e-05
2.04061e-05
0.000943832
-0.000934807
-1.71974e-05
1.39217e-05
0.000938094
-0.000930678
-1.09837e-05
8.18403e-06
0.000933489
-0.000927152
-5.51456e-06
2.88104e-06
0.000929795
-0.000922367
7.44188e-07
-4.42766e-06
0.000926059
-0.000919337
7.9646e-06
-1.14509e-05
0.000922831
-0.000916703
1.43727e-05
-1.62174e-05
0.000918553
-0.000914573
1.75918e-05
-1.81897e-05
0.000915175
-0.000914382
1.74924e-05
-1.51225e-05
0.000912013
-0.000912711
2.28678e-05
-2.5023e-05
0.000914865
-0.000911087
2.58644e-05
-2.67669e-05
0.000911985
-0.000909889
2.65158e-05
-2.63408e-05
0.000909707
-0.000906752
2.70942e-05
-2.71986e-05
0.000906847
-0.00090368
2.66395e-05
-2.58405e-05
0.000902869
-0.000901181
2.46652e-05
-2.32085e-05
0.000899709
-0.000898838
2.15159e-05
-1.96223e-05
0.000896926
-0.000898248
1.75178e-05
-1.52763e-05
0.000895986
-0.000897189
1.30688e-05
-1.0481e-05
0.000894577
-0.000894972
7.66702e-06
-4.78218e-06
0.000892061
-0.000901158
1.92311e-06
6.79605e-07
0.000898527
-0.000897216
-3.29779e-06
6.15755e-06
0.000894326
-0.000896139
-9.07285e-06
1.18488e-05
0.000893331
-0.000902912
-1.43679e-05
1.62741e-05
0.000900972
-0.000898985
-1.84701e-05
2.0551e-05
0.00089687
-0.000900906
-2.24382e-05
2.40772e-05
0.000899232
-0.000903444
-2.54781e-05
2.6688e-05
0.000902199
-0.000906169
-2.74579e-05
2.78439e-05
0.000905748
-0.00091208
-2.69072e-05
2.49069e-05
0.000914047
-0.000914192
-2.61357e-05
2.6888e-05
0.000913407
-0.000914626
-2.65337e-05
2.5636e-05
0.000915492
-0.000917519
-2.45368e-05
2.32089e-05
0.000918817
-0.000920516
-2.18016e-05
2.01831e-05
0.000922107
-0.000923445
-1.83992e-05
1.622e-05
0.000925599
-0.000926569
-1.41905e-05
1.17807e-05
0.000928956
-0.000929876
-9.22741e-06
6.61159e-06
0.000932472
-0.000933488
-3.75555e-06
8.45608e-07
0.00093638
-0.000937466
2.30056e-06
-5.49438e-06
0.000940644
-0.000942239
8.61341e-06
-1.09513e-05
0.000944563
-0.000946778
1.43496e-05
-1.80984e-05
0.000950515
-0.000953891
2.19812e-05
-2.61181e-05
0.000958018
-0.000963202
3.02899e-05
-3.46113e-05
0.000967515
-0.000975544
3.91946e-05
-4.39401e-05
0.000980282
-0.000992935
4.88724e-05
-5.41227e-05
0.000998179
-0.00101824
6.00194e-05
-6.52687e-05
0.00102348
-0.00103842
6.88649e-05
-6.87072e-05
0.00103826
-0.00092596
6.09133e-05
-4.35949e-05
0.00090864
-0.000480191
2.2084e-05
-5.87431e-06
0.000463982
-0.00025365
7.22284e-06
0.000246833
-3.87251e-07
-0.000773705
-2.15138e-05
3.88585e-05
0.00075638
-0.00101
-5.30441e-05
6.04169e-05
0.00100264
-0.00102784
-6.14234e-05
5.83618e-05
0.00103091
-0.00099956
-5.38226e-05
4.88854e-05
0.00100451
-0.000979064
-4.4207e-05
4.00691e-05
0.000983211
-0.000964908
-3.55601e-05
3.13033e-05
0.000969173
-0.000954903
-2.70562e-05
2.29218e-05
0.000959045
-0.000947416
-1.8571e-05
1.49597e-05
0.000951035
-0.000941338
-1.14463e-05
8.03529e-06
0.000944756
-0.000936392
-4.82908e-06
1.72866e-06
0.000939499
-0.00093235
1.16192e-06
-3.94068e-06
0.000935135
-0.000929075
6.39792e-06
-8.52868e-06
0.000931211
-0.000925155
1.14587e-05
-1.45606e-05
0.000928262
-0.000921588
1.63875e-05
-1.86757e-05
0.00092388
-0.000919386
2.21235e-05
-2.35507e-05
0.000920815
-0.00091371
2.36072e-05
-3.33156e-05
0.000923419
-0.000915348
3.36636e-05
-3.52383e-05
0.000916921
-0.00091235
3.57446e-05
-3.6209e-05
0.000912811
-0.000909665
3.639e-05
-3.58881e-05
0.000909157
-0.00090701
3.48737e-05
-3.55071e-05
0.000907634
-0.000901753
3.579e-05
-3.50565e-05
0.000901007
-0.000898105
3.35683e-05
-3.17236e-05
0.000896244
-0.000894765
2.95619e-05
-2.70377e-05
0.000892222
-0.000893409
2.42377e-05
-2.12163e-05
0.000890366
-0.00089158
1.8126e-05
-1.46162e-05
0.000888045
-0.000888677
1.08077e-05
-6.85034e-06
0.000884691
-0.000895414
2.87982e-06
8.16229e-07
0.000891687
-0.000890954
-4.54659e-06
8.48743e-06
0.00088698
-0.000890066
-1.24747e-05
1.62928e-05
0.000886213
-0.000898534
-1.97933e-05
2.28549e-05
0.000895436
-0.00089444
-2.55705e-05
2.83002e-05
0.000891673
-0.000897348
-3.07995e-05
3.29231e-05
0.000895186
-0.000900926
-3.47146e-05
3.613e-05
0.000899472
-0.000905567
-3.69247e-05
3.59729e-05
0.000906481
-0.000915027
-3.42323e-05
3.58682e-05
0.000913355
-0.00091299
-3.71964e-05
3.69213e-05
0.00091323
-0.000916371
-3.61886e-05
3.49656e-05
0.000917561
-0.000920154
-3.37123e-05
3.21058e-05
0.000921731
-0.000924058
-3.0395e-05
2.84633e-05
0.000925962
-0.000927717
-2.62507e-05
2.38469e-05
0.000930096
-0.000931403
-2.13853e-05
1.86542e-05
0.000934112
-0.000935323
-1.58891e-05
1.28699e-05
0.000938323
-0.000939509
-9.83137e-06
7.18355e-06
0.00094214
-0.000943098
-4.84229e-06
1.54508e-06
0.000946381
-0.000948197
2.06332e-06
-5.67978e-06
0.000951802
-0.000954393
9.50011e-06
-1.34254e-05
0.000958309
-0.000962135
1.76616e-05
-2.2329e-05
0.000966794
-0.000971988
2.67775e-05
-3.18818e-05
0.000977086
-0.000985033
3.75558e-05
-4.25905e-05
0.000990062
-0.00100384
4.70908e-05
-5.0927e-05
0.00100767
-0.00102864
5.40336e-05
-5.74224e-05
0.00103203
-0.00103543
5.92405e-05
-5.6386e-05
0.00103257
-0.000891377
4.65082e-05
-3.10393e-05
0.000875906
-0.000450693
1.45811e-05
-3.22099e-06
0.000439335
-0.000240923
5.51538e-06
0.000235711
-2.91002e-07
-0.000740539
-1.6697e-05
3.09116e-05
0.000726338
-0.000994865
-4.37855e-05
5.16591e-05
0.000987
-0.00103335
-5.38052e-05
5.2029e-05
0.00103514
-0.00100926
-4.82261e-05
4.37736e-05
0.00101372
-0.000987615
-3.95042e-05
3.5036e-05
0.000992089
-0.0009733
-3.07021e-05
2.63684e-05
0.000977639
-0.000962985
-2.21198e-05
1.76239e-05
0.000967486
-0.000955021
-1.38382e-05
1.01174e-05
0.000958747
-0.000948679
-6.46001e-06
2.97461e-06
0.000952169
-0.000943451
4.42834e-07
-3.68313e-06
0.000946696
-0.000938058
7.68193e-06
-1.15946e-05
0.000941975
-0.000933714
1.56219e-05
-1.99642e-05
0.000938061
-0.000929907
2.30522e-05
-2.55062e-05
0.000932365
-0.00092781
2.73171e-05
-2.74493e-05
0.000927946
-0.000921161
2.80707e-05
-3.88836e-05
0.000931977
-0.000923129
3.89276e-05
-4.16213e-05
0.000925824
-0.000919112
4.38419e-05
-4.52981e-05
0.000920569
-0.000913826
4.67903e-05
-4.80921e-05
0.000915125
-0.000908826
4.91468e-05
-4.965e-05
0.000909325
-0.000906474
4.91615e-05
-4.79658e-05
0.00090527
-0.000900556
4.76643e-05
-4.731e-05
0.00090019
-0.000894262
4.56876e-05
-4.32715e-05
0.000891831
-0.000889386
4.04616e-05
-3.72005e-05
0.000886106
-0.000886888
3.35102e-05
-2.94514e-05
0.000882807
-0.000883953
2.51565e-05
-2.04415e-05
0.000879211
-0.000880047
1.5229e-05
-9.81498e-06
0.000874603
-0.00088726
4.31352e-06
9.4763e-07
0.000881966
-0.000882314
-6.23648e-06
1.17334e-05
0.000876781
-0.000881776
-1.71799e-05
2.23464e-05
0.000876572
-0.000891784
-2.7063e-05
3.1383e-05
0.000887424
-0.000888848
-3.54413e-05
3.90709e-05
0.000885177
-0.000892752
-4.20205e-05
4.47183e-05
0.000890012
-0.000898081
-4.69382e-05
4.83618e-05
0.000896615
-0.000907744
-4.80798e-05
4.68406e-05
0.000908942
-0.000911275
-4.86859e-05
4.99652e-05
0.000909956
-0.000913801
-4.99043e-05
4.91761e-05
0.000914492
-0.000918722
-4.80264e-05
4.6648e-05
0.000920066
-0.000923509
-4.49094e-05
4.28895e-05
0.000925498
-0.000928182
-4.06553e-05
3.82893e-05
0.000930521
-0.00093259
-3.5643e-05
3.29118e-05
0.000935297
-0.000937024
-2.99286e-05
2.68951e-05
0.000940038
-0.00094119
-2.44885e-05
2.18452e-05
0.000943816
-0.000944926
-1.83634e-05
1.47724e-05
0.000948503
-0.000950106
-1.08873e-05
6.49151e-06
0.00095449
-0.000955819
-2.22295e-06
-2.55242e-06
0.000960584
-0.000962507
8.04432e-06
-1.2552e-05
0.000967007
-0.000972465
1.57255e-05
-1.78706e-05
0.000974605
-0.000980433
2.11349e-05
-2.49976e-05
0.000984291
-0.000993666
2.8704e-05
-3.29272e-05
0.000997885
-0.00101213
3.73527e-05
-4.17088e-05
0.00101648
-0.00103557
4.59577e-05
-4.92362e-05
0.00103884
-0.00102938
5.00054e-05
-4.62959e-05
0.00102566
-0.000861566
3.70377e-05
-2.38814e-05
0.000848409
-0.000429576
1.08429e-05
-2.30902e-06
0.000421045
-0.000231173
4.26573e-06
0.000227144
-2.22596e-07
-0.000713205
-1.30875e-05
2.48316e-05
0.000701477
-0.000979257
-3.60334e-05
4.37247e-05
0.000971576
-0.00103655
-4.67043e-05
4.58205e-05
0.00103744
-0.00101834
-4.26598e-05
3.87738e-05
0.00102223
-0.000996529
-3.43139e-05
3.00034e-05
0.00100085
-0.000981659
-2.55591e-05
2.1193e-05
0.00098603
-0.00097117
-1.65557e-05
1.26128e-05
0.000975118
-0.000962976
-8.70155e-06
4.92779e-06
0.000966755
-0.00095651
-1.07541e-06
-2.53304e-06
0.000960123
-0.000950183
6.21513e-06
-1.04925e-05
0.000954465
-0.000945126
1.48299e-05
-1.94304e-05
0.000949731
-0.000940643
2.42849e-05
-2.79151e-05
0.000944278
-0.00093683
3.0946e-05
-3.32684e-05
0.000939158
-0.000933067
3.3937e-05
-3.51512e-05
0.000934286
-0.00093293
4.78834e-05
-5.02501e-05
0.000935301
-0.000928072
5.31998e-05
-5.48238e-05
0.0009297
-0.00092302
5.64435e-05
-5.83673e-05
0.000924946
-0.000916445
6.0702e-05
-6.26288e-05
0.000918373
-0.000910002
6.38618e-05
-6.45796e-05
0.000910718
-0.000904087
6.48174e-05
-6.39731e-05
0.000903237
-0.000900462
6.20755e-05
-6.14649e-05
0.000899842
-0.000889548
6.10771e-05
-5.90467e-05
0.000887503
-0.000882338
5.57327e-05
-5.16637e-05
0.000878251
-0.000877838
4.66865e-05
-4.01279e-05
0.000871256
-0.000874253
3.21333e-05
-2.73802e-05
0.000869472
-0.000868238
2.14753e-05
-1.41659e-05
0.000860897
-0.000875667
6.47753e-06
1.06994e-06
0.000868084
-0.000870292
-8.65166e-06
1.63281e-05
0.000862577
-0.000870802
-2.36513e-05
2.92907e-05
0.000865121
-0.000881609
-3.35496e-05
4.17187e-05
0.000873396
-0.000880934
-4.85452e-05
5.35471e-05
0.000875886
-0.000887146
-5.76624e-05
6.07181e-05
0.000884043
-0.000895819
-6.25161e-05
6.16711e-05
0.000896617
-0.000908312
-6.07324e-05
6.41028e-05
0.000904896
-0.000909183
-6.62361e-05
6.63849e-05
0.000908992
-0.000915419
-6.5512e-05
6.42837e-05
0.000916609
-0.000921777
-6.25934e-05
6.05445e-05
0.000923792
-0.000927669
-5.82057e-05
5.56875e-05
0.000930158
-0.000933143
-5.29445e-05
4.98812e-05
0.000936182
-0.000938382
-4.68605e-05
4.42219e-05
0.000941
-0.000942445
-4.11287e-05
3.717e-05
0.000946387
-0.000947611
-3.22968e-05
2.72115e-05
0.000952683
-0.000952695
-2.12197e-05
1.66902e-05
0.000957214
-0.000960306
-1.37672e-05
1.2059e-05
0.000962006
-0.000963483
-8.96543e-06
5.20848e-06
0.000967234
-0.00097008
-1.74531e-06
-2.16775e-06
0.000973988
-0.000978175
6.21299e-06
-1.03903e-05
0.000982349
-0.000988491
1.45933e-05
-1.88276e-05
0.000992724
-0.00100209
2.31004e-05
-2.74186e-05
0.00100641
-0.00102085
3.16584e-05
-3.59493e-05
0.00102514
-0.00104165
3.98187e-05
-4.24401e-05
0.00104427
-0.00102157
4.22971e-05
-3.81747e-05
0.00101745
-0.000836221
2.95247e-05
-1.83663e-05
0.000825063
-0.000413564
8.08749e-06
-1.58862e-06
0.000407069
-0.00022359
3.2874e-06
0.000220487
-1.71324e-07
-0.000690752
-1.03317e-05
2.00369e-05