/*--------------------------------*- C++ -*----------------------------------*\
  =========                 |
  \\      /  F ield         | OpenFOAM: The Open Source CFD Toolbox
   \\    /   O peration     | Website:  https://openfoam.org
    \\  /    A nd           | Version:  7
     \\/     M anipulation  |
\*---------------------------------------------------------------------------*/
FoamFile
{
    version     2.0;
    format      ascii;
    class       volVectorField;
    location    "25";
    object      U;
}
// * * * * * * * * * * * * * * * * * * * * * * * * * * * * * * * * * * * * * //

dimensions      [0 1 -1 0 0 0 0];

internalField   nonuniform List<vector> 
17475
(
(1.01789 0.205804 -1.6128e-20)
(0.995925 0.0222839 -2.54403e-20)
(0.999745 0.00971555 0)
(0.999928 0.00485946 0)
(0.999975 0.00302111 0)
(0.99999 0.00206198 0)
(0.999995 0.00147571 0)
(0.999997 0.00107966 0)
(0.999997 0.000793684 -5.16448e-20)
(0.999998 0.000577427 0)
(0.999998 0.000408272 0)
(0.999998 0.000272957 0)
(0.999999 0.000163205 0)
(0.999999 7.36316e-05 0)
(0.999999 7.36614e-07 0)
(0.999999 -5.77794e-05 0)
(0.999999 -0.000103513 0)
(0.999999 -0.000137537 0)
(0.999999 -0.000160697 0)
(0.999999 -0.000173621 0)
(0.999999 -0.000176922 -1.99306e-19)
(0.999999 -0.000171297 4.83603e-22)
(1 -0.000157517 0)
(1 -0.000136372 -6.30531e-21)
(1 -0.000109332 0)
(1 -7.66118e-05 -1.26363e-20)
(1 -4.09808e-05 0)
(1 -3.37916e-06 0)
(1 3.45485e-05 -1.58278e-21)
(1 7.12017e-05 5.05391e-20)
(1 0.000104958 4.96902e-20)
(1 0.000134327 0)
(1 0.000157943 0)
(1 0.000174615 -4.97926e-20)
(1 0.000183308 -4.96696e-20)
(1 0.000183151 0)
(1 0.000173388 -3.83623e-22)
(1 0.000153324 0)
(1 0.000122246 4.8587e-20)
(1 7.90527e-05 2.42237e-20)
(1 2.31514e-05 -2.41597e-20)
(1 -4.6672e-05 0)
(1 -0.000132524 -2.41857e-20)
(1 -0.000237568 0)
(0.999999 -0.000366637 -1.22078e-20)
(0.999999 -0.000527071 0)
(0.999998 -0.000730349 2.51907e-20)
(0.999997 -0.000994841 0)
(0.999996 -0.00135085 0)
(0.999993 -0.00184999 0)
(0.999988 -0.0025819 0)
(0.999983 -0.00368899 -1.55809e-20)
(0.999943 -0.00537803 3.48191e-20)
(0.998985 -0.00293293 3.85167e-20)
(1.02892 -0.0897457 -3.85298e-20)
(0.871219 0.0800189 1.94861e-20)
(1.09999 0.096966 0)
(1.03481 0.0583701 0)
(1.01502 0.0370822 0)
(1.00788 0.0250587 -1.37266e-19)
(1.00475 0.0176984 -1.31481e-19)
(1.00316 0.0128602 1.24833e-19)
(1.00225 0.0094676 0)
(1.00168 0.00696358 0)
(1.00131 0.00504255 0)
(1.00104 0.00352536 0)
(1.00084 0.00230283 0)
(1.00069 0.00130547 0)
(1.00056 0.000488078 0)
(1.00046 -0.000179055 0)
(1.00036 -0.000715844 0)
(1.00028 -0.00113596 0)
(1.0002 -0.00144865 0)
(1.00012 -0.00166103 0)
(1.00005 -0.00177873 0)
(0.999986 -0.00180739 0)
(0.999924 -0.00175289 0)
(0.999868 -0.00162142 2.43138e-19)
(0.999818 -0.00142282 -6.0849e-20)
(0.999778 -0.00116419 -1.22531e-19)
(0.999747 -0.000859346 1.09405e-22)
(0.999726 -0.000522187 -1.53989e-20)
(0.999716 -0.000166969 0)
(0.999718 0.000191993 -7.72133e-21)
(0.999731 0.000538978 7.71798e-21)
(0.999755 0.000859252 -1.23449e-19)
(0.999789 0.00113882 1.25131e-19)
(0.999831 0.00136517 0)
(0.999882 0.00152735 -2.44407e-19)
(0.999939 0.00161588 1.90164e-21)
(1 0.00162288 2.42234e-19)
(1.00007 0.00154154 0)
(1.00014 0.00136579 1.19969e-19)
(1.00022 0.00108956 0)
(1.00031 0.000704285 -1.19317e-19)
(1.0004 0.000201546 1.19057e-19)
(1.0005 -0.000431192 0)
(1.00063 -0.00121284 0)
(1.00077 -0.00217169 0)
(1.00096 -0.00335024 9.59643e-23)
(1.00121 -0.00481316 6.10482e-20)
(1.00156 -0.00665991 -6.21496e-20)
(1.00206 -0.00904785 -3.16323e-20)
(1.00282 -0.0122332 0)
(1.00403 -0.0166501 0)
(1.00604 -0.0230736 0)
(1.00958 -0.0329501 -3.57932e-20)
(1.01618 -0.0497152 3.72326e-20)
(1.02811 -0.0727166 2.398e-21)
(1.07045 -0.178218 2.7811e-21)
(0.609798 0.019563 1.01529e-20)
(1.13973 0.106367 -1.46292e-20)
(1.07878 0.0752439 -6.06514e-20)
(1.04117 0.0540724 0)
(1.02467 0.039893 0)
(1.01607 0.029821 -1.20661e-19)
(1.01117 0.0224391 0)
(1.00817 0.0168782 0)
(1.00622 0.0125781 0)
(1.00488 0.0091731 2.31964e-19)
(1.00392 0.00642428 0)
(1.00319 0.00417384 0)
(1.00262 0.00231605 0)
(1.00215 0.000780359 0)
(1.00175 -0.000481111 0)
(1.00139 -0.00150072 -2.31147e-19)
(1.00106 -0.00230024 0)
(1.00076 -0.00289498 0)
(1.00047 -0.0032961 0)
(1.0002 -0.00351294 0)
(0.999942 -0.00355471 4.78681e-19)
(0.999704 -0.00343113 0)
(0.999487 -0.00315601 1.82074e-19)
(0.999298 -0.00274156 -1.2218e-19)
(0.999141 -0.00221166 0)
(0.999021 -0.00158873 -3.08567e-20)
(0.998943 -0.000899639 0)
(0.998908 -0.000173903 3.87288e-20)
(0.998918 0.000558973 2.32774e-20)
(0.998972 0.00126638 0)
(0.999069 0.00191922 -1.08338e-19)
(0.999205 0.00248857 3.86039e-21)
(0.999376 0.00294978 -1.92469e-21)
(0.999577 0.00328135 -1.22407e-19)
(0.999804 0.00346501 1.2176e-19)
(1.00005 0.00348595 0)
(1.00032 0.00333195 2.33075e-19)
(1.0006 0.00299263 -2.39049e-19)
(1.0009 0.00245755 2.53676e-19)
(1.00123 0.00171351 0)
(1.00158 0.000746577 2.97553e-20)
(1.00198 -0.000464518 -2.49751e-22)
(1.00244 -0.00195088 1.18185e-19)
(1.003 -0.00375864 -3.82211e-22)
(1.00371 -0.00595662 -5.92255e-20)
(1.00463 -0.0086466 0)
(1.00589 -0.0119819 0)
(1.00769 -0.0161947 3.01829e-20)
(1.01036 -0.0216436 -3.11547e-20)
(1.01452 -0.0288921 -5.03242e-22)
(1.02131 -0.0388468 9.56923e-20)
(1.03296 -0.0529271 -6.56476e-20)
(1.05409 -0.0736464 6.43312e-20)
(1.1002 -0.105061 0)
(0.963372 -0.117976 3.34676e-20)
(0.480915 0.00928141 0)
(1.11583 0.0897614 0)
(1.11487 0.0799556 2.6242e-20)
(1.06598 0.0607779 0)
(1.04262 0.0470028 1.11592e-19)
(1.02961 0.0365255 0)
(1.02159 0.02829 0)
(1.01634 0.0217018 0)
(1.01275 0.0163535 0)
(1.01019 0.0119543 0)
(1.00829 0.00829755 0)
(1.00683 0.0052342 0)
(1.00565 0.00266063 2.2521e-19)
(1.00466 0.000503407 0)
(1.00381 -0.00128766 0)
(1.00304 -0.00274636 0)
(1.00233 -0.00389566 0)
(1.00166 -0.00475045 0)
(1.00103 -0.00532196 0)
(1.00042 -0.00561938 -2.35624e-19)
(0.999846 -0.00565182 0)
(0.99931 -0.00543309 0)
(0.998821 -0.0049752 -1.21504e-19)
(0.998394 -0.0043054 0)
(0.998039 -0.00345356 -1.85277e-19)
(0.997767 -0.00245533 3.08359e-20)
(0.99759 -0.00135228 -1.24499e-19)
(0.997514 -0.000190925 2.43716e-22)
(0.99754 0.000983071 6.24911e-20)
(0.997667 0.00211432 4.6762e-20)
(0.997892 0.00316073 1.24453e-19)
(0.998206 0.00407386 3.86721e-21)
(0.998599 0.00481635 0)
(0.999058 0.00535603 -3.6372e-22)
(0.999572 0.00566641 0)
(1.00013 0.00572702 -1.12976e-19)
(1.00073 0.00552233 -1.19681e-19)
(1.00136 0.00504038 1.19023e-19)
(1.00202 0.00426934 2.36551e-19)
(1.00273 0.00319651 9.5884e-20)
(1.0035 0.00180778 -2.94128e-20)
(1.00435 8.09062e-05 -5.84146e-20)
(1.00533 -0.00201741 0)
(1.00649 -0.00453655 0)
(1.00793 -0.00754892 -5.79296e-20)
(1.00978 -0.011159 5.7879e-20)
(1.01225 -0.015517 1.4487e-19)
(1.01567 -0.0208368 2.93614e-20)
(1.0206 -0.0274221 -1.60905e-22)
(1.02795 -0.0357002 -2.88756e-20)
(1.03936 -0.0462805 1.15949e-19)
(1.05773 -0.0599997 -8.62805e-20)
(1.08982 -0.0782252 8.16535e-20)
(1.13318 -0.100503 5.20642e-20)
(0.813012 -0.0597562 -1.48619e-20)
(0.401525 0.00541767 0)
(1.06131 0.0685844 -2.34433e-20)
(1.13827 0.0763139 4.5879e-20)
(1.08854 0.0612516 4.88957e-20)
(1.05964 0.0489308 5.10533e-20)
(1.04323 0.0390866 1.04164e-19)
(1.0327 0.0308968 -1.05445e-19)
(1.02552 0.0240077 -1.06456e-19)
(1.02041 0.0181698 0)
(1.01663 0.0131916 -2.15444e-19)
(1.01374 0.00892669 -4.33476e-19)
(1.01145 0.00526497 -2.18156e-19)
(1.00957 0.00212601 -2.19815e-19)
(1.00796 -0.000548823 0)
(1.00654 -0.00279886 0)
(1.00524 -0.00464999 0)
(1.00402 -0.0061175 -4.58379e-19)
(1.00287 -0.00721021 -2.5328e-21)
(1.00175 -0.00793306 -4.68361e-19)
(1.00068 -0.00828914 -2.35586e-19)
(0.999653 -0.00828688 -5.95153e-20)
(0.998686 -0.0079301 1.20283e-19)
(0.997801 -0.00724324 -1.21649e-19)
(0.997022 -0.00625544 1.22853e-19)
(0.996372 -0.00500653 0)
(0.995874 -0.00354473 -6.29431e-20)
(0.995549 -0.00192982 1.2586e-19)
(0.995409 -0.000229302 0)
(0.995461 0.00149053 -3.15644e-20)
(0.9957 0.00314663 -1.57939e-20)
(0.996118 0.00468007 -1.2533e-19)
(0.996699 0.00601934 1.17061e-20)
(0.997422 0.00711251 0)
(0.998261 0.00791639 1.30672e-19)
(0.999194 0.00839716 0)
(1.0002 0.00853072 0)
(1.00126 0.00830148 -2.38018e-19)
(1.00238 0.0077008 -5.80195e-20)
(1.00354 0.00671733 1.24454e-19)
(1.00476 0.00534784 1.09383e-19)
(1.00606 0.00358344 -1.30033e-19)
(1.00749 0.00140923 -1.15242e-19)
(1.00909 -0.00119979 -1.42798e-19)
(1.01097 -0.00428254 8.51478e-20)
(1.01323 -0.00789692 1.12675e-19)
(1.01608 -0.0121252 -2.77683e-20)
(1.01977 -0.0170805 0)
(1.02474 -0.0229142 -5.53077e-20)
(1.03164 -0.0298232 -5.48593e-20)
(1.04154 -0.0380584 -2.75181e-20)
(1.05622 -0.0479282 -2.61083e-20)
(1.07895 -0.0598569 -7.7622e-20)
(1.11677 -0.0744519 -4.83165e-20)
(1.12277 -0.0825091 0)
(0.694044 -0.0290817 7.89387e-20)
(0.351874 0.00336271 0)
(0.999557 0.0511948 0)
(1.1469 0.0689126 -8.48086e-20)
(1.10773 0.0586536 -9.01422e-20)
(1.07504 0.047778 0)
(1.0561 0.0387995 0)
(1.04371 0.0310275 9.87312e-20)
(1.035 0.0242152 0)
(1.02862 0.0182239 0)
(1.02376 0.0129439 0)
(1.01994 0.0082889 -2.09348e-19)
(1.01683 0.00419274 -2.11938e-19)
(1.01422 0.000605627 0)
(1.01193 -0.00250664 0)
(1.00987 -0.00516361 -2.5058e-21)
(1.00795 -0.00737592 0)
(1.00613 -0.00914501 9.00336e-19)
(1.00436 -0.010466 9.16245e-19)
(1.00263 -0.0113303 -4.6471e-19)
(1.00095 -0.0117342 2.33137e-19)
(0.999312 -0.0116642 2.96619e-19)
(0.997762 -0.0111316 -6.04756e-20)
(0.996332 -0.0101544 3.66982e-19)
(0.995062 -0.00876573 -6.15391e-20)
(0.993995 -0.00701435 2.76672e-22)
(0.993175 -0.00496284 -1.26132e-19)
(0.992638 -0.00269449 1.60207e-19)
(0.992407 -0.000303321 1.27497e-19)
(0.992495 0.00211664 -5.04226e-22)
(0.992896 0.00444506 6.37849e-20)
(0.99359 0.00660013 6.34058e-20)
(0.99455 0.00848181 0)
(0.995735 0.01002 -1.12673e-19)
(0.997101 0.0111606 0)
(0.998606 0.0118633 0)
(1.00021 0.0121039 1.50619e-19)
(1.00189 0.0118733 -1.19877e-19)
(1.00363 0.0111668 0)
(1.00542 0.0099838 7.2608e-21)
(1.00726 0.00833605 0)
(1.0092 0.00622699 0)
(1.01128 0.00365646 -1.27051e-19)
(1.01357 0.000615736 1.40417e-20)
(1.01619 -0.00291461 1.83067e-22)
(1.01928 -0.00696847 -1.35308e-20)
(1.02307 -0.011595 -1.34916e-19)
(1.02786 -0.016862 -1.3179e-20)
(1.03412 -0.0228546 1.18062e-19)
(1.04255 -0.029677 -1.03489e-19)
(1.05425 -0.0374424 0)
(1.07109 -0.0462929 4.85414e-20)
(1.09661 -0.0565135 8.59684e-22)
(1.13376 -0.0677434 -4.47026e-20)
(1.08952 -0.0646526 -6.7586e-20)
(0.613668 -0.016553 0)
(0.318628 0.00224616 8.65504e-21)
(0.941789 0.0383839 -2.22811e-20)
(1.14385 0.0601936 4.0234e-20)
(1.12331 0.0545865 0)
(1.0889 0.0450293 0)
(1.06801 0.0367858 -9.00267e-20)
(1.05427 0.0294674 0)
(1.04444 0.0228511 -1.90231e-19)
(1.03706 0.0168459 -1.93926e-19)
(1.0313 0.0113991 0)
(1.02667 0.00647015 -1.00734e-19)
(1.02281 0.00203425 2.05039e-19)
(1.01948 -0.00193287 -4.16113e-19)
(1.01651 -0.00543971 0)
(1.01377 -0.00848513 0)
(1.01116 -0.011059 0)
(1.00863 -0.0131411 -3.43583e-21)
(1.00614 -0.0147055 0)
(1.00366 -0.0157312 0)
(1.0012 -0.0161784 2.31622e-19)
(0.998782 -0.0160317 4.61178e-22)
(0.996464 -0.0152857 0)
(0.994299 -0.0139503 0)
(0.992357 -0.0120573 3.7639e-19)
(0.990712 -0.00966307 2.54528e-19)
(0.989439 -0.00684534 3.22627e-20)
(0.9886 -0.0037284 0)
(0.988239 -0.000431355 2.61343e-19)
(0.988378 0.00290952 9.77509e-20)
(0.989008 0.00611654 -3.00011e-22)
(0.990092 0.00907889 0)
(0.991581 0.0116635 0)
(0.993403 0.0137684 7.11743e-21)
(0.995483 0.0153311 0)
(0.997749 0.0163085 0)
(1.00014 0.0166819 5.34e-23)
(1.00261 0.0164569 -2.34504e-19)
(1.00512 0.0156336 -1.17359e-19)
(1.00765 0.0142392 1.14657e-19)
(1.01022 0.012303 7.00789e-21)
(1.01287 0.00984937 -1.10676e-19)
(1.01565 0.00689853 6.864e-22)
(1.01865 0.00346348 6.22677e-22)
(1.022 -0.00045151 1.34933e-20)
(1.02586 -0.0048529 -9.23445e-20)
(1.03047 -0.00975789 0)
(1.03616 -0.0151937 -1.14845e-19)
(1.04342 -0.0211903 0)
(1.05295 -0.0277927 -4.87272e-20)
(1.06589 -0.0350512 0)
(1.08414 -0.0430405 4.61677e-20)
(1.11136 -0.0519854 -2.31054e-22)
(1.14168 -0.0601412 -2.05446e-20)
(1.04907 -0.0503067 -6.48088e-20)
(0.558886 -0.0110585 3.17681e-20)
(0.295125 0.00160592 0)
(0.891709 0.0291744 -2.17924e-20)
(1.13315 0.0515308 0)
(1.13527 0.0497852 0)
(1.10156 0.0414757 4.08378e-20)
(1.07915 0.0337736 7.09773e-22)
(1.0644 0.0268113 0)
(1.05375 0.0203681 -8.91676e-20)
(1.04561 0.0143722 -1.83985e-19)
(1.03916 0.00879749 0)
(1.03384 0.00363312 0)
(1.02932 -0.00112415 0)
(1.02533 -0.00546634 0)
(1.02168 -0.00937897 -3.0412e-19)
(1.01825 -0.0128384 -1.02803e-19)
(1.01491 -0.0158104 0)
(1.0116 -0.0182534 1.34349e-20)
(1.00826 -0.0201271 3.27906e-19)
(1.00487 -0.0213582 -9.05292e-22)
(1.00145 -0.0218945 -1.15498e-19)
(0.998045 -0.0216859 0)
(0.994721 -0.0207071 1.20967e-19)
(0.991572 -0.0189471 -2.43849e-22)
(0.98871 -0.0164286 1.28746e-19)
(0.986259 -0.0132124 0)
(0.984343 -0.00939403 -6.57213e-20)
(0.983073 -0.00514774 -6.69734e-20)
(0.982524 -0.000637817 1.35557e-19)
(0.982735 0.00393824 6.76848e-20)
(0.983691 0.00831985 -1.33022e-19)
(0.98533 0.01235 0)
(0.987561 0.0158428 -1.63044e-20)
(0.99026 0.0186639 -1.27809e-19)
(0.993305 0.0207418 1.56456e-20)
(0.996577 0.0220357 1.14553e-21)
(0.999977 0.0225461 2.35129e-19)
(1.00344 0.0222968 1.17948e-19)
(1.00687 0.0213083 1.15013e-19)
(1.01029 0.0196481 -1.11598e-19)
(1.01368 0.0173707 0)
(1.0171 0.0145283 1.14302e-19)
(1.0206 0.0111671 0)
(1.0243 0.00732514 0)
(1.02833 0.00303092 -1.03691e-19)
(1.03287 -0.00169627 0)
(1.03817 -0.00684495 4.91248e-20)
(1.04457 -0.0124078 9.71725e-20)
(1.05257 -0.0183931 2.42317e-20)
(1.06287 -0.0248106 -9.23414e-20)
(1.07665 -0.0316823 0)
(1.09591 -0.0390673 4.38006e-20)
(1.12371 -0.0470578 0)
(1.14256 -0.0524583 -1.90905e-20)
(1.00878 -0.039261 4.14274e-20)
(0.51878 -0.00796504 0)
(0.277815 0.00120382 0)
(0.849643 0.0224774 -2.11306e-20)
(1.11818 0.0435524 -3.59767e-20)
(1.14386 0.0446572 3.62709e-20)
(1.11324 0.0375342 -3.75625e-20)
(1.08975 0.0302147 -7.83449e-20)
(1.0742 0.0234749 0)
(1.06295 0.0171242 0)
(1.05428 0.0110895 0)
(1.04729 0.00535986 0)
(1.04144 -6.18727e-05 1.81912e-19)
(1.03636 -0.00516172 0)
(1.03179 -0.00991567 -3.7953e-19)
(1.02752 -0.014292 0)
(1.02339 -0.018243 0)
(1.01929 -0.0217146 3.82163e-19)
(1.01513 -0.0246385 3.11242e-19)
(1.01083 -0.0269222 -1.09164e-19)
(1.00638 -0.0284759 -1.1022e-19)
(1.0018 -0.029203 1.13972e-19)
(0.997134 -0.0290041 4.72895e-19)
(0.992493 -0.0278101 2.44992e-19)
(0.988017 -0.0255782 -1.25066e-19)
(0.983882 -0.0223023 0)
(0.980288 -0.0180381 1.87447e-21)
(0.977445 -0.0128989 6.76521e-20)
(0.975543 -0.00712797 -6.79522e-20)
(0.974714 -0.000960791 -1.75473e-19)
(0.975029 0.00530801 5.20327e-22)
(0.976461 0.0112875 0)
(0.978903 0.0167454 -6.75724e-20)
(0.982195 0.0214199 -1.31966e-19)
(0.986121 0.0251342 1.28622e-19)
(0.990482 0.0278144 -1.25112e-19)
(0.995088 0.0294371 -1.5357e-19)
(0.999797 0.0300448 -2.37258e-19)
(1.00447 0.0296747 5.77896e-20)
(1.00902 0.0284133 2.80416e-20)
(1.01344 0.0263714 0)
(1.01774 0.0236419 0)
(1.02197 0.0203118 -6.57724e-21)
(1.02621 0.0164581 2.04874e-19)
(1.03057 0.0121445 1.00981e-19)
(1.03521 0.00742311 0)
(1.04032 0.00233973 9.69774e-20)
(1.04617 -0.00307717 2.3263e-20)
(1.05311 -0.00880881 -2.35767e-20)
(1.06163 -0.0148425 5.63423e-21)
(1.07248 -0.0211743 8.57656e-20)
(1.08687 -0.0278214 3.35906e-19)
(1.10686 -0.0348325 1.62452e-19)
(1.13399 -0.0420527 -3.80703e-20)
(1.13841 -0.0451663 -3.77944e-20)
(0.972228 -0.0309152 -6.14948e-20)
(0.489254 -0.00583833 1.22555e-19)
(0.264726 0.000918035 0)
(0.814826 0.0175047 -4.07794e-20)
(1.10142 0.0364824 3.38988e-20)
(1.14956 0.0394695 -3.32261e-20)
(1.12405 0.0334383 6.95698e-20)
(1.10003 0.0263964 7.3614e-20)
(1.08386 0.0197557 -1.52065e-19)
(1.07218 0.0134008 8.25235e-22)
(1.06313 0.00725526 -8.08614e-20)
(1.05577 0.0013063 -1.68591e-19)
(1.04952 -0.00443585 -1.71479e-19)
(1.04401 -0.00994829 0)
(1.03896 -0.0151976 1.78875e-19)
(1.03414 -0.0201343 0)
(1.02938 -0.0246961 -3.91568e-19)
(1.02453 -0.0288145 -4.74907e-20)
(1.01945 -0.0323919 -2.01012e-19)
(1.01409 -0.0352924 3.13552e-19)
(1.00842 -0.0373768 -4.30392e-19)
(1.00243 -0.0384934 0)
(0.996189 -0.0384761 2.34065e-19)
(0.989812 -0.037161 -3.64667e-19)
(0.983529 -0.0344607 1.26448e-19)
(0.9776 -0.0303045 0)
(0.972347 -0.024716 -1.36033e-19)
(0.968122 -0.0178166 6.88996e-20)
(0.965262 -0.00994877 1.45855e-19)
(0.964004 -0.00146155 1.44589e-19)
(0.964475 0.00718694 -1.4552e-19)
(0.966627 0.0153872 0)
(0.970271 0.0227852 0)
(0.975119 0.0289957 1.69058e-19)
(0.980799 0.033799 1.78568e-21)
(0.986979 0.0371342 -2.22129e-19)
(0.993376 0.0390368 -3.66865e-19)
(0.999759 0.0395998 5.89451e-20)
(1.00592 0.0389172 -2.83977e-20)
(1.01179 0.0371835 0)
(1.01735 0.0345599 0)
(1.02262 0.0311934 9.11205e-20)
(1.02767 0.0272133 1.12538e-19)
(1.03261 0.0227288 -1.08807e-20)
(1.03757 0.0178341 0)
(1.04273 0.0126012 -9.36193e-20)
(1.0483 0.00708144 6.75447e-20)
(1.05456 0.0013155 1.78098e-19)
(1.06189 -0.00466608 0)
(1.07078 -0.0108355 0)
(1.08199 -0.017182 5.09392e-21)
(1.09677 -0.0237348 -1.17955e-19)
(1.1172 -0.0305416 1.13629e-19)
(1.1423 -0.0371075 -1.8453e-20)
(1.13139 -0.038464 1.59821e-19)
(0.940902 -0.0244995 -1.59066e-19)
(0.467732 -0.00444727 2.5357e-19)
(0.254682 0.00069945 0)
(0.786187 0.0137401 -1.93342e-20)
(1.08447 0.0303533 4.75457e-20)
(1.15296 0.0344247 -3.07738e-20)
(1.13408 0.0293477 -6.50701e-20)
(1.11015 0.0225185 -1.35363e-19)
(1.09352 0.0158776 -7.09081e-20)
(1.08156 0.00942885 -7.35855e-20)
(1.07229 0.00309319 0)
(1.0647 -0.00314976 0)
(1.05821 -0.0092909 0)
(1.05241 -0.0153068 0)
(1.047 -0.0211615 8.3641e-20)
(1.04174 -0.0267958 -1.72209e-19)
(1.03642 -0.0321391 0)
(1.03086 -0.0371317 1.39852e-19)
(1.0249 -0.04161 -9.48809e-20)
(1.01843 -0.0454109 3.94346e-21)
(1.01138 -0.0483531 2.11998e-19)
(1.00372 -0.0502029 2.70432e-21)
(0.995514 -0.0506997 2.3445e-19)
(0.986871 -0.04954 -2.44343e-19)
(0.978088 -0.0464914 0)
(0.96958 -0.0413934 -1.36871e-19)
(0.96185 -0.0341678 -1.44177e-19)
(0.955486 -0.0249205 0)
(0.951107 -0.0140791 -1.53355e-19)
(0.949155 -0.00224201 1.97337e-19)
(0.949874 0.00986168 3.9189e-20)
(0.953173 0.021241 -2.07665e-19)
(0.958699 0.0313282 -7.41076e-20)
(0.9659 0.0395179 -1.2172e-19)
(0.974149 0.0455829 1.33121e-19)
(0.982891 0.0495323 0)
(0.991704 0.051528 2.4356e-19)
(1.0002 0.0517179 -2.91898e-20)
(1.00818 0.0503928 2.79161e-20)
(1.01556 0.0478496 0)
(1.02236 0.0443325 2.58332e-20)
(1.02862 0.040055 1.24417e-19)
(1.03446 0.035194 0)
(1.04003 0.0298968 -9.31082e-20)
(1.04549 0.0242655 -8.93229e-20)
(1.05106 0.0183823 0)
(1.05697 0.0123152 8.49156e-20)
(1.0635 0.00611621 -4.1477e-20)
(1.07103 -0.000190044 0)
(1.08009 -0.00658195 -3.91277e-20)
(1.09149 -0.0130513 -7.67632e-20)
(1.10653 -0.0196294 -7.42931e-20)
(1.12707 -0.0263334 3.60295e-20)
(1.149 -0.032327 1.01957e-19)
(1.12287 -0.0324561 6.77217e-20)
(0.91427 -0.0195038 -1.34031e-19)
(0.451347 -0.00341315 -8.56937e-20)
(0.246894 0.000530186 0)
(0.762701 0.010849 0)
(1.06833 0.0251266 0)
(1.15469 0.0296783 0)
(1.14339 0.0253913 0)
(1.12022 0.0187365 0)
(1.10331 0.012027 0)
(1.0912 0.00541427 0)
(1.08186 -0.00118113 1.40649e-19)
(1.07421 -0.00778836 0)
(1.06764 -0.014407 -1.4635e-19)
(1.06171 -0.0210235 0)
(1.05611 -0.0276006 0)
(1.05058 -0.0340906 3.25014e-19)
(1.04486 -0.0404431 0)
(1.03871 -0.046555 0)
(1.03195 -0.0522715 0)
(1.0244 -0.0574028 1.91861e-19)
(1.01589 -0.0616904 -1.98313e-19)
(1.00634 -0.0648228 0)
(0.99574 -0.0664104 -1.13623e-19)
(0.984181 -0.0659795 -2.53498e-19)
(0.97194 -0.0629863 0)
(0.959638 -0.0570612 -1.38043e-19)
(0.948075 -0.0479157 3.92211e-21)
(0.938252 -0.0355107 -4.75299e-19)
(0.931318 -0.0203621 -1.68719e-19)
(0.928179 -0.00347726 -1.32448e-21)
(0.929317 0.0138531 -8.41158e-20)
(0.93456 0.0299494 1.01505e-20)
(0.943182 0.0438062 1.52795e-19)
(0.9541 0.0545086 1.80372e-20)
(0.966205 0.0618979 4.25162e-21)
(0.978619 0.0662079 -7.64304e-19)
(0.990632 0.0677664 1.78183e-19)
(1.00177 0.0670009 2.83725e-20)
(1.01188 0.0644656 5.3829e-20)
(1.02092 0.0605886 2.53597e-20)
(1.02898 0.0557282 2.36552e-20)
(1.03618 0.0501734 -2.77958e-19)
(1.04272 0.0441343 -2.62007e-19)
(1.04879 0.0377825 -3.55265e-19)
(1.0546 0.0312317 -8.38923e-20)
(1.06039 0.024563 0)
(1.06642 0.017839 2.01488e-20)
(1.07302 0.0111074 0)
(1.0806 0.00438971 -3.74248e-20)
(1.08971 -0.00230121 -3.63689e-20)
(1.10116 -0.00897134 -1.77404e-20)
(1.11631 -0.0156573 6.86093e-20)
(1.13661 -0.0223248 0)
(1.15442 -0.0278352 0)
(1.11391 -0.0271907 0)
(0.891973 -0.0155737 1.77339e-20)
(0.438895 -0.00262867 8.22604e-20)
(0.240849 0.00039987 0)
(0.743551 0.00861261 0)
(1.05358 0.0207514 1.37672e-20)
(1.15528 0.0253598 2.6035e-20)
(1.15207 0.021691 0)
(1.13029 0.0151889 0)
(1.11333 0.00837557 5.85903e-20)
(1.10121 0.00155237 0)
(1.09194 -0.00534987 1.27521e-19)
(1.0844 -0.0123726 0)
(1.07792 -0.0195304 -2.66701e-19)
(1.07207 -0.0268246 -6.79458e-20)
(1.0665 -0.0342329 2.82822e-19)
(1.06093 -0.0417268 6.11892e-19)
(1.05504 -0.0493088 -1.54332e-19)
(1.04856 -0.0568437 4.10123e-20)
(1.04124 -0.064198 8.27482e-20)
(1.03278 -0.0711836 0)
(1.02292 -0.077515 0)
(1.01138 -0.0827717 0)
(0.998011 -0.0864284 1.09666e-19)
(0.982794 -0.0877728 -1.27473e-19)
(0.965889 -0.0858639 -7.86918e-19)
(0.947947 -0.0797078 1.41241e-19)
(0.930258 -0.0685933 -3.17098e-19)
(0.914529 -0.0519934 -6.83272e-19)
(0.902995 -0.0303944 2.74196e-19)
(0.897668 -0.00546869 -1.9111e-19)
(0.899563 0.0201237 -1.86435e-19)
(0.90835 0.0435884 -2.41966e-20)
(0.922398 0.0628033 -8.36231e-20)
(0.939448 0.0765151 -1.54044e-19)
(0.9575 0.0849241 -2.82778e-19)
(0.975114 0.0887417 -5.19961e-19)
(0.991262 0.0887715 1.15973e-19)
(1.00558 0.0860474 -1.11006e-19)
(1.01803 0.081389 7.82063e-20)
(1.02874 0.0754255 -2.8801e-19)
(1.03794 0.0686269 -9.2711e-20)
(1.04591 0.0613322 -8.56012e-20)
(1.05289 0.0537743 1.68824e-19)
(1.05917 0.0461073 0)
(1.06505 0.0384445 -5.85193e-20)
(1.07083 0.0308535 0)
(1.07679 0.0233784 0)
(1.0833 0.0160413 3.65161e-20)
(1.09076 0.00885167 5.29835e-20)
(1.09974 0.0018054 3.33347e-20)
(1.11112 -0.00511877 3.21735e-20)
(1.12623 -0.0119609 3.09125e-20)
(1.14589 -0.0186253 0)
(1.15888 -0.0237374 -1.52825e-20)
(1.10514 -0.0226778 -3.01099e-20)
(0.873399 -0.0124948 6.9293e-20)
(0.429467 -0.00205812 -2.28111e-19)
(0.236099 0.000316092 0)
(0.72786 0.0069044 -1.56237e-20)
(1.04043 0.0171616 0)
(1.1552 0.0215699 0)
(1.1602 0.0183669 4.83596e-20)
(1.14038 0.0120054 5.10876e-20)
(1.1236 0.00507719 -2.66116e-20)
(1.11161 -0.00197532 0)
(1.10257 -0.00919788 2.82928e-20)
(1.0953 -0.0166503 -5.76195e-20)
(1.08913 -0.024366 0)
(1.0836 -0.0323702 -6.02958e-20)
(1.07833 -0.0406799 -2.01867e-21)
(1.07302 -0.0493177 -4.88488e-20)
(1.06731 -0.0582836 3.18779e-20)
(1.06092 -0.0675104 -3.79946e-21)
(1.05347 -0.076923 1.52912e-19)
(1.04457 -0.0863628 0)
(1.03374 -0.0955779 3.38837e-19)
(1.02052 -0.104156 -8.12175e-22)
(1.00435 -0.111406 0)
(0.984874 -0.116384 -3.40675e-19)
(0.961929 -0.117664 -1.26077e-19)
(0.935783 -0.11321 5.69403e-19)
(0.908023 -0.100968 4.81694e-21)
(0.881653 -0.0792454 0)
(0.861126 -0.0476318 1.93052e-19)
(0.851304 -0.00904961 -1.14944e-19)
(0.854769 0.0309593 1.05896e-19)
(0.870644 0.0665484 -3.97489e-19)
(0.894907 0.0932767 1.72281e-19)
(0.922492 0.109881 3.18894e-19)
(0.949794 0.117873 5.5215e-19)
(0.974468 0.119054 -1.21058e-19)
(0.995678 0.11558 -1.23127e-19)
(1.01345 0.109201 1.00681e-19)
(1.02815 0.101091 -3.72209e-19)
(1.04021 0.0920573 2.73282e-19)
(1.05012 0.0826069 8.49192e-20)
(1.05833 0.07306 0)
(1.06531 0.0636285 1.11012e-19)
(1.07145 0.0544263 -3.36229e-20)
(1.07709 0.0455103 0)
(1.08257 0.0369049 -6.76421e-20)
(1.08823 0.0286131 -6.80201e-20)
(1.09441 0.0206337 6.47165e-20)
(1.10156 0.0129458 -1.61137e-19)
(1.11028 0.00552322 -6.31411e-20)
(1.12143 -0.00167389 3.01149e-20)
(1.13633 -0.00868772 2.89525e-20)
(1.15496 -0.0153504 -1.38935e-20)
(1.16262 -0.0201258 -4.08084e-20)
(1.09676 -0.0188779 6.79024e-21)
(0.857454 -0.0100651 -7.95312e-21)
(0.421468 -0.00165213 0)
(0.232315 0.000263379 0)
(0.714957 0.00563367 0)
(1.02883 0.0143179 -2.25971e-20)
(1.15474 0.0183963 0)
(1.16787 0.0155416 -2.14438e-20)
(1.15048 0.00932249 2.22746e-20)
(1.13413 0.00230086 4.62796e-20)
(1.12241 -0.00495712 0)
(1.11374 -0.0124782 9.7451e-20)
(1.10693 -0.0203373 0)
(1.10127 -0.028593 -2.06626e-19)
(1.0963 -0.0372991 -1.05886e-19)
(1.09166 -0.0465175 -3.39399e-21)
(1.087 -0.0562827 -1.14845e-19)
(1.08195 -0.066714 1.14761e-19)
(1.07621 -0.0777949 1.22078e-19)
(1.06933 -0.089563 -6.0655e-20)
(1.0608 -0.101992 -2.03019e-19)
(1.04997 -0.114976 -6.72995e-20)
(1.036 -0.128233 1.56195e-19)
(1.01791 -0.141231 0)
(0.994497 -0.152871 -1.10662e-20)
(0.964523 -0.161259 2.29433e-19)
(0.927278 -0.163292 0)
(0.883127 -0.153897 0)
(0.836393 -0.127479 4.11305e-19)
(0.796433 -0.0801111 -6.25043e-21)
(0.776251 -0.0160564 7.06529e-21)
(0.783373 0.0516568 -5.17215e-19)
(0.815228 0.108526 4.54754e-19)
(0.860321 0.145104 3.81194e-19)
(0.906499 0.161948 6.41746e-19)
(0.947424 0.164831 4.52822e-19)
(0.980899 0.158988 2.36131e-19)
(1.00746 0.148576 0)
(1.02817 0.136047 0)
(1.04417 0.12279 2.12318e-19)
(1.05655 0.109543 1.40908e-21)
(1.06625 0.0967282 -7.98269e-20)
(1.07402 0.0845229 -6.69249e-20)
(1.0804 0.0729925 -1.313e-19)
(1.08589 0.062134 9.67513e-20)
(1.09087 0.0519103 0)
(1.0957 0.0422809 3.09977e-20)
(1.10074 0.033192 -2.95349e-20)
(1.10636 0.0245908 0)
(1.113 0.0164303 0)
(1.12126 0.00865424 -1.62579e-21)
(1.13204 0.00120456 0)
(1.14655 -0.0059646 0)
(1.16379 -0.0126156 -2.8319e-22)
(1.16586 -0.0171178 0)
(1.08914 -0.015843 -3.68353e-20)
(0.844072 -0.00823246 0)
(0.414568 -0.00131508 -5.32996e-20)
(0.229199 0.000241853 0)
(0.704261 0.00475492 3.13568e-21)
(1.01876 0.0121934 2.50447e-21)
(1.15415 0.0159112 0)
(1.17512 0.0133208 2.32704e-21)
(1.16053 0.00725209 0)
(1.14485 0.000178708 0)
(1.13353 -0.00723362 0)
(1.12538 -0.0149878 0)
(1.11919 -0.0231717 0)
(1.11427 -0.0318671 0)
(1.11013 -0.0411595 0)
(1.10643 -0.0511413 0)
(1.10282 -0.0619682 1.39374e-19)
(1.099 -0.0737637 -4.85228e-20)
(1.09461 -0.0866439 -1.00121e-19)
(1.08922 -0.10079 -1.01221e-19)
(1.08229 -0.1164 4.21171e-21)
(1.07303 -0.13368 -6.66198e-20)
(1.06039 -0.152784 -2.44787e-21)
(1.04282 -0.173701 2.9261e-19)
(1.01806 -0.19601 -1.88966e-19)
(0.982887 -0.218171 0)
(0.93326 -0.236605 2.29669e-19)
(0.864915 -0.2429 -1.31393e-18)
(0.778069 -0.22034 8.38857e-19)
(0.691338 -0.149745 5.45099e-19)
(0.643918 -0.032041 2.17799e-18)
(0.660584 0.097282 0)
(0.733437 0.194226 9.99339e-19)
(0.824284 0.238405 -1.40529e-18)
(0.90229 0.243394 -4.19636e-19)
(0.960533 0.229457 -1.17009e-19)
(1.00232 0.208547 -6.16993e-19)
(1.03189 0.186069 3.69891e-21)
(1.05288 0.164347 5.11459e-19)
(1.06793 0.144293 -3.97343e-20)
(1.07891 0.126036 2.00584e-19)
(1.08707 0.109524 6.3414e-20)
(1.0933 0.0945488 1.15774e-19)
(1.09826 0.0809275 0)
(1.10245 0.0684857 2.87696e-20)
(1.10628 0.0570568 4.77171e-20)
(1.11012 0.0465029 4.94097e-20)
(1.11425 0.0367167 -2.6241e-20)
(1.11907 0.0275939 8.78993e-20)
(1.125 0.0190459 -2.24813e-20)
(1.13267 0.0109841 -1.00505e-19)
(1.14297 0.00334473 -1.1344e-20)
(1.15692 -0.00392876 -2.32479e-20)
(1.17242 -0.0105251 -2.17595e-20)
(1.16872 -0.0147741 1.15337e-20)
(1.08219 -0.0135408 1.15701e-20)
(0.832623 -0.00694616 7.72911e-22)
(0.408798 -0.00113599 2.51595e-20)
(0.226213 0.000293824 6.08458e-20)
(0.694931 0.00426591 -8.69575e-20)
(1.0098 0.0107741 1.59807e-22)
(1.15348 0.0141634 3.16794e-20)
(1.18202 0.0117844 -3.13886e-20)
(1.1705 0.0058924 -3.22015e-20)
(1.15568 -0.00115955 0)
(1.14487 -0.00863504 9.41382e-23)
(1.13734 -0.0165128 -1.68915e-20)
(1.13192 -0.0248901 8.54172e-21)
(1.1279 -0.0338696 -8.58391e-21)
(1.12482 -0.0435637 -8.57267e-21)
(1.12235 -0.0541041 4.46081e-21)
(1.12021 -0.0656794 1.66952e-20)
(1.11814 -0.0784794 3.04328e-20)
(1.11585 -0.09275 5.94268e-20)
(1.11299 -0.108841 2.17495e-19)
(1.10912 -0.127186 4.11427e-20)
(1.10354 -0.148383 0)
(1.09529 -0.173305 0)
(1.08285 -0.202988 -8.7495e-20)
(1.06337 -0.238857 3.24198e-20)
(1.0319 -0.28244 -3.5191e-19)
(0.979221 -0.334289 1.74908e-19)
(0.887397 -0.390118 -2.39899e-19)
(0.726868 -0.414568 0)
(0.51154 -0.323614 3.52697e-18)
(0.383103 -0.0746568 -1.17049e-18)
(0.428076 0.216578 -5.08063e-18)
(0.624946 0.392378 2.00848e-18)
(0.817636 0.411584 0)
(0.939704 0.362239 -8.41476e-19)
(1.00876 0.308369 2.91719e-19)
(1.04947 0.260966 2.503e-19)
(1.07439 0.221554 1.19137e-19)
(1.09021 0.189025 1.08868e-19)
(1.10059 0.161855 1.56367e-19)
(1.10766 0.138784 0)
(1.11248 0.118941 -3.54972e-20)
(1.11594 0.101624 2.75026e-19)
(1.11866 0.0863172 0)
(1.12093 0.0726405 -1.28746e-21)
(1.12313 0.0603139 -1.01089e-20)
(1.12557 0.0491053 -3.22944e-20)
(1.12853 0.0388341 -1.0515e-20)
(1.13234 0.0293656 1.98099e-20)
(1.13741 0.0205747 -1.02399e-20)
(1.14435 0.0123564 -1.06009e-20)
(1.15402 0.00461827 -8.15978e-22)
(1.16726 -0.00267873 7.77044e-21)
(1.18076 -0.00916992 6.82582e-21)
(1.17132 -0.013177 -1.38503e-20)
(1.07606 -0.0119954 -1.98573e-20)
(0.822922 -0.00617386 -1.14245e-20)
(0.403896 -0.00108627 -2.12655e-20)
(0.218762 0.000374404 -8.10311e-19)
(0.68354 0.00411926 0)
(1.00012 0.00993104 -2.25151e-19)
(1.15227 0.0130895 2.04682e-19)
(1.18852 0.0109562 2.03055e-19)
(1.18035 0.00532008 0)
(1.16653 -0.0016018 2.10386e-19)
(1.15629 -0.00901705 0)
(1.14944 -0.0168784 0)
(1.14487 -0.0252805 1.04826e-19)
(1.14186 -0.034338 0)
(1.13998 -0.0441724 -9.9358e-20)
(1.13895 -0.0549315 -3.37018e-21)
(1.13855 -0.0668224 1.24814e-20)
(1.13861 -0.0800793 1.85605e-20)
(1.13895 -0.0950149 1.79857e-20)
(1.13942 -0.112054 1.04649e-20)
(1.13984 -0.1318 -2.30189e-21)
(1.13997 -0.155118 -2.29576e-20)
(1.1395 -0.183389 1.56733e-20)
(1.13788 -0.218727 -7.63145e-20)
(1.13395 -0.264788 1.03071e-21)
(1.12566 -0.328236 0)
(1.10865 -0.424912 0)
(1.04918 -0.574751 1.4414e-19)
(0.798818 -0.660312 0)
(0.2085 -0.354877 6.22192e-17)
(0.356083 0.449885 -7.95355e-20)
(0.898234 0.65822 -1.02227e-20)
(1.09105 0.492651 -3.95109e-20)
(1.11712 0.372324 7.29118e-20)
(1.12976 0.295708 2.06027e-19)
(1.13618 0.242125 1.86133e-19)
(1.13935 0.20204 -3.30818e-20)
(1.14073 0.170405 -2.67882e-22)
(1.14122 0.144581 1.07206e-20)
(1.14117 0.122909 -1.25185e-23)
(1.14089 0.104361 -3.14053e-20)
(1.14059 0.0882015 6.51725e-21)
(1.14049 0.0739297 -1.61821e-20)
(1.14075 0.0611881 -8.7946e-21)