/*--------------------------------*- C++ -*----------------------------------*\
  =========                 |
  \\      /  F ield         | OpenFOAM: The Open Source CFD Toolbox
   \\    /   O peration     | Website:  https://openfoam.org
    \\  /    A nd           | Version:  7
     \\/     M anipulation  |
\*---------------------------------------------------------------------------*/
FoamFile
{
    version     2.0;
    format      ascii;
    class       volScalarField;
    location    "80";
    object      k;
}
// * * * * * * * * * * * * * * * * * * * * * * * * * * * * * * * * * * * * * //

dimensions      [0 2 -2 0 0 0 0];

internalField   nonuniform List<scalar> 
17475
(
0.00763364
0.0124983
0.0125514
0.0125508
0.0125505
0.0125505
0.0125505
0.0125505
0.0125504
0.0125502
0.0125503
0.0125506
0.0125503
0.0125503
0.0125505
0.0125503
0.0125503
0.0125505
0.0125503
0.0125503
0.0125509
0.012551
0.0125496
0.0125516
0.012547
0.0125588
0.0125589
0.0125591
0.0125592
0.012559
0.0125588
0.0125588
0.0125588
0.0125587
0.0125587
0.0125586
0.0125585
0.0125582
0.0125587
0.012563
0.0125697
0.0125761
0.0125822
0.0125879
0.0125929
0.0125976
0.0126018
0.0126058
0.0126093
0.0126127
0.0126157
0.0126186
0.0126208
0.0126101
0.0120188
0.000246184
0.00440856
0.00528545
0.00530419
0.00529474
0.00529041
0.00528838
0.0052871
0.00528639
0.00528587
0.00528558
0.0052853
0.00528511
0.00528498
0.00528483
0.00528475
0.00528465
0.00528457
0.00528449
0.00528446
0.00528443
0.00528439
0.00528545
0.00528324
0.00528724
0.00529121
0.00529416
0.00529434
0.00529442
0.00529401
0.00529388
0.00529386
0.00529388
0.00529389
0.00529391
0.00529388
0.00529386
0.00529361
0.00529267
0.00529355
0.00529541
0.00529755
0.0052998
0.00530197
0.00530411
0.00530615
0.00530822
0.00531033
0.00531271
0.00531553
0.00531933
0.00532464
0.00532181
0.00502946
0.00162911
3.09371e-05
0.00184675
0.0030772
0.00319513
0.00318637
0.00317745
0.00317246
0.00316948
0.00316766
0.00316637
0.00316548
0.00316482
0.00316433
0.00316389
0.00316355
0.00316325
0.00316296
0.0031627
0.00316247
0.00316223
0.003162
0.00316231
0.00316192
0.00316349
0.00316455
0.003166
0.0031679
0.00316873
0.00316874
0.00316858
0.00316839
0.00316844
0.00316856
0.00316867
0.0031688
0.00316893
0.00316905
0.00316874
0.00316838
0.00316866
0.00316924
0.00317
0.00317094
0.00317201
0.00317324
0.00317463
0.00317631
0.0031785
0.0031815
0.00318597
0.00319293
0.00320131
0.00315716
0.00249589
0.00028297
9.86752e-06
0.000848681
0.00201168
0.00223583
0.00224421
0.0022341
0.00222728
0.00222298
0.00222014
0.00221817
0.00221679
0.00221575
0.00221491
0.00221421
0.00221364
0.00221313
0.00221265
0.00221221
0.0022118
0.00221139
0.00221128
0.0022109
0.00221161
0.00221234
0.0022131
0.00221368
0.00221437
0.00221513
0.0022154
0.00221543
0.00221526
0.00221539
0.00221563
0.00221589
0.00221616
0.00221646
0.00221673
0.0022166
0.0022166
0.00221702
0.00221752
0.00221815
0.00221893
0.00221992
0.00222115
0.0022227
0.00222472
0.00222751
0.00223156
0.0022377
0.00224681
0.00224957
0.00213784
0.00133249
8.88892e-05
4.4657e-06
0.0004393
0.00138492
0.00168565
0.00171877
0.00171176
0.00170421
0.00169909
0.00169558
0.00169311
0.00169131
0.00168994
0.00168885
0.00168792
0.00168713
0.00168643
0.00168579
0.00168517
0.00168458
0.0016842
0.00168366
0.00168385
0.00168408
0.00168432
0.00168464
0.00168501
0.00168535
0.00168569
0.00168605
0.00168621
0.0016862
0.00168645
0.00168682
0.00168723
0.00168766
0.00168813
0.0016885
0.00168854
0.00168898
0.00168957
0.0016902
0.00169093
0.00169183
0.00169295
0.00169437
0.0016962
0.00169861
0.00170195
0.00170677
0.00171384
0.00172245
0.00171117
0.00153725
0.000771285
4.18181e-05
2.44174e-06
0.00025579
0.000985832
0.0013252
0.00138397
0.00138296
0.00137566
0.00137017
0.00136623
0.00136339
0.00136131
0.00135971
0.00135839
0.00135727
0.0013563
0.00135542
0.00135463
0.00135383
0.0013532
0.00135248
0.00135229
0.00135215
0.00135202
0.00135195
0.00135195
0.00135207
0.00135221
0.00135242
0.00135268
0.00135301
0.00135316
0.00135353
0.00135403
0.00135457
0.00135516
0.00135582
0.00135624
0.00135663
0.00135733
0.00135809
0.00135888
0.00135977
0.00136081
0.00136208
0.00136371
0.00136583
0.00136855
0.00137225
0.00137749
0.00138458
0.00139005
0.00136166
0.00114437
0.000485206
2.43916e-05
1.51267e-06
0.000164363
0.000723108
0.0010692
0.00115077
0.00115725
0.00115136
0.00114584
0.00114169
0.00113862
0.00113636
0.00113458
0.00113308
0.00113181
0.00113068
0.00112964
0.0011287
0.00112785
0.00112691
0.00112632
0.00112589
0.0011255
0.0011251
0.00112478
0.00112453
0.00112446
0.00112439
0.00112448
0.00112473
0.00112517
0.00112551
0.00112595
0.00112657
0.00112727
0.00112801
0.00112882
0.00112938
0.00113008
0.00113098
0.0011319
0.00113286
0.00113388
0.00113506
0.0011365
0.00113829
0.00114064
0.00114358
0.00114738
0.00115261
0.00115921
0.00116008
0.00111484
0.000874547
0.000329683
1.60201e-05
1.02544e-06
0.000114219
0.000546293
0.000878319
0.000978365
0.000992734
0.000989028
0.000983794
0.000979647
0.000976516
0.000974124
0.000972222
0.000970548
0.000969085
0.000967868
0.000966687
0.00096561
0.000964497
0.000963613
0.000962799
0.000962114
0.000961494
0.000960856
0.000960263
0.000959796
0.000959566
0.000959346
0.000959328
0.000959548
0.000960041
0.00096055
0.00096108
0.000961833
0.000962714
0.000963651
0.000964562
0.000965332
0.000966315
0.000967408
0.000968475
0.000969583
0.000970739
0.000972068
0.000973632
0.000975564
0.000978006
0.000980922
0.000984751
0.000989912
0.0009953
0.000990846
0.000930948
0.000684294
0.000237711
1.12337e-05
7.42198e-07
8.39896e-05
0.000424595
0.000731818
0.000845667
0.000867712
0.000866778
0.000862097
0.000858048
0.000854884
0.000852482
0.000850511
0.000848656
0.000847001
0.000845734
0.00084438
0.000843006
0.000841922
0.000840756
0.000839632
0.000838677
0.000837812
0.000836873
0.000836002
0.000835409
0.000835013
0.000834593
0.000834459
0.000834667
0.00083529
0.000835954
0.000836629
0.000837525
0.000838623
0.00083974
0.000840767
0.000841847
0.00084307
0.000844279
0.000845482
0.000846774
0.000848004
0.000849391
0.000851054
0.000853
0.000855454
0.000858446
0.000862192
0.000867025
0.000870694
0.000860754
0.000788531
0.00054677
0.000179992
8.37961e-06
5.63919e-07
6.44511e-05
0.000338809
0.000617503
0.000740584
0.000769713
0.000771915
0.000768189
0.000764161
0.000760926
0.000758635
0.000756617
0.000754673
0.000752871
0.00075157
0.000750037
0.000748547
0.000747233
0.000745638
0.000744132
0.000742909
0.000741862
0.000740639
0.000739458
0.00073863
0.000737964
0.000737269
0.00073705
0.00073735
0.000738121
0.000738951
0.000739801
0.000740832
0.000742165
0.000743444
0.000744739
0.000746184
0.000747549
0.000748734
0.000750087
0.000751568
0.000752833
0.000754209
0.000755833
0.000757765
0.000760387
0.000763453
0.000766892
0.00077115
0.000773066
0.000758051
0.000676928
0.000447403
0.000141933
6.55345e-06
4.44299e-07
5.11328e-05
0.000276882
0.000527286
0.000655434
0.000691008
0.000696315
0.000693763
0.000689798
0.000686429
0.000684251
0.000682454
0.00068065
0.00067866
0.000677227
0.000675757
0.00067407
0.000672565
0.000670602
0.000668618
0.000667022
0.000665762
0.000664333
0.000662967
0.000661863
0.000660878
0.000659795
0.000659488
0.000659884
0.000660721
0.000661679
0.000662744
0.00066406
0.000665719
0.000667072
0.000668789
0.000670367
0.000671777
0.000672967
0.000674435
0.000675917
0.000677221
0.000678539
0.00068006
0.000682297
0.000685071
0.000688205
0.000691277
0.000694837
0.000694717
0.000675226
0.000587854
0.000373746
0.000115408
5.30503e-06
3.60476e-07
4.16949e-05
0.000231137
0.000455463
0.000585214
0.000626692
0.000634719
0.000633225
0.00062944
0.00062614
0.000624227
0.000622846
0.000621102
0.000618862
0.00061731
0.000615828
0.000613842
0.000612163
0.000609846
0.000607569
0.000605815
0.000604143
0.000602395
0.000600921
0.000599706
0.000598387
0.00059706
0.000596598
0.000596873
0.000597849
0.000598966
0.000600337
0.000601941
0.000603857
0.000605454
0.000607409
0.000609244
0.000610615
0.000611715
0.000613314
0.000614907
0.000616062
0.000617088
0.000618836
0.000621549
0.00062448
0.000627663
0.000630236
0.000632783
0.000630874
0.000607278
0.000515856
0.000318103
9.62341e-05
4.41808e-06
2.99788e-07
3.48188e-05
0.00019659
0.000397778
0.000526416
0.000573128
0.00058349
0.000583337
0.000579586
0.000575986
0.000574491
0.000574043
0.000572234
0.000569882
0.000568287
0.000566471
0.000564271
0.000562432
0.000559917
0.000557652
0.000555857
0.000553599
0.000551295
0.000550135
0.000549273
0.000547299
0.000545617
0.00054535
0.000545884
0.000546661
0.000547721
0.000549539
0.000551329
0.000553321
0.000555238
0.000557278
0.000559384
0.000560851
0.000561839
0.000562825
0.000564414
0.000565746
0.000566992
0.000568665
0.000571361
0.000574935
0.000578041
0.000580009
0.00058179
0.00057822
0.000550758
0.000456902
0.000275078
8.18981e-05
3.76787e-06
2.54125e-07
2.96139e-05
0.000169897
0.000350973
0.000477209
0.000527351
0.000539648
0.000540655
0.000537122
0.000534248
0.000532968
0.000532502
0.000530824
0.000528651
0.000526967
0.000524739
0.000522407
0.000520082
0.00051744
0.000514947
0.000512854
0.000510548
0.000508295
0.000507167
0.000506762
0.000504997
0.000502958
0.000502124
0.000502548
0.000503658
0.000505233
0.000506935
0.000508706
0.000510686
0.000512665
0.000514735
0.000516873
0.000518292
0.00051943
0.000520662
0.000522145
0.000523622
0.000524954
0.000526366
0.000528994
0.000532866
0.000535569
0.000537451
0.000538278
0.000532922
0.000502451
0.000407894
0.000240658
7.05939e-05
3.23818e-06
2.18814e-07
2.55669e-05
0.00014876
0.000312384
0.000432929
0.000485574
0.000500073
0.000501782
0.000498876
0.000496133
0.000495162
0.000494772
0.000493221
0.000491209
0.000489367
0.000487079
0.000484583
0.000481971
0.000479199
0.000476619
0.000474334
0.000472253
0.000470605
0.000470075
0.000471165
0.000471084
0.000469417
0.00046877
0.000468987
0.000469705
0.000470787
0.000470386
0.000471247
0.000473049
0.000474647
0.00047659
0.000478583
0.000480226
0.000481682
0.000482946
0.000484403
0.000485922
0.000487299
0.000488754
0.000491162
0.000494679
0.000497267
0.000498902
0.000499025
0.000491821
0.000458859
0.000366216
0.000213103
6.16868e-05
2.81247e-06
1.9091e-07
2.23718e-05
0.000131636
0.000279925
0.0003938
0.000447833
0.000464023
0.000466505
0.000464158
0.000461775
0.000460957
0.000460509
0.000459049
0.000457147
0.00045522
0.000452982
0.000450468
0.000447674
0.000444892
0.000442466
0.00044033
0.000439168
0.000439393
0.000441124
0.000448021
0.000461056
0.000469278
0.000473281
0.000471829
0.00046465
0.000453221
0.000442218
0.000441259
0.000440632
0.000441199
0.000442758
0.000444434
0.000446085
0.000447656
0.000448923
0.000450233
0.000451752
0.000453155
0.000454528
0.00045672
0.000459935
0.000462404
0.00046376
0.000463144
0.000454457
0.000419538
0.000329895
0.000190262
5.43783e-05
2.46552e-06
1.66589e-07
1.96953e-05
0.000117358
0.000251996
0.00035897
0.000413442
0.000431078
0.000434312
0.000432497
0.000430465
0.000429722
0.000429173
0.000427785
0.000425998
0.000424062
0.000421955
0.000419494
0.000416603
0.000413983
0.000411981
0.000410686
0.000411615
0.000415922
0.000433517
0.000469737
0.000479732
0.000438742
0.000396233
0.000397298
0.000469967
0.000481877
0.000446897
0.000420881
0.000414489
0.000412633
0.000412817
0.000413891
0.000415299
0.000416881
0.000418126
0.000419175
0.000420585
0.000421967
0.000423317
0.000425321
0.000428216
0.000430532
0.000431679
0.000430434
0.000420476
0.000384343
0.000298666
0.000171222
4.83722e-05
2.18173e-06
1.30491e-07
1.69501e-05
0.000103984
0.000227057
0.000327194
0.000381813
0.000400776
0.000404768
0.000403442
0.000401691
0.000400963
0.000400327
0.000398998
0.000397341
0.000395481
0.000393563
0.000391169
0.000388324
0.000386041
0.000384499
0.000384643
0.000389516
0.0004082
0.000441164
0.000378132
0.000129958
2.23772e-06
1.20481e-05
0.000317711
0.000431777
0.000428001
0.000396831
0.00038804
0.000386171
0.000386366
0.000387414
0.000388935
0.000390103
0.000390967
0.000392237
0.000393493
0.000394762
0.000396568
0.000399151
0.000401296
0.000402223
0.000400404
0.000389392
0.000352476
0.000271367
0.000154788
4.31824e-05
1.93761e-06
4.81682e-08
1.19476e-05
8.81392e-05
0.000201885
0.00029609
0.000352008
0.00037259
0.00037747
0.00037664
0.000375096
0.000374361
0.000373663
0.000372383
0.000370863
0.00036916
0.00036745
0.000365019
0.000362333
0.000360373
0.000359674
0.000361819
0.000373576
0.000398288
0.000333482
9.28302e-05
3.89764e-07
0.0001886
0.000397554
0.000386677
0.000366774
0.000361713
0.000361138
0.000361773
0.000363173
0.00036434
0.000364976
0.000366105
0.000367219
0.000368362
0.000369958
0.000372256
0.000374247
0.000374999
0.000372712
0.000360904
0.000323406
0.000247374
0.000140533
3.81822e-05
1.5987e-06
6.45538e-08
1.26726e-05
8.18811e-05
0.00018473
0.000272008
0.000324056
0.000345063
0.000350574
0.000350249
0.000348816
0.0003478
0.000347067
0.000345931
0.000344297
0.000342728
0.00034085
0.000338593
0.000336235
0.000334351
0.000334205
0.000338737
0.000355313
0.000346047
0.000157406
1.14185e-05
4.82202e-05
0.000284027
0.000363421
0.000345617
0.000336647
0.00033493
0.000335713
0.000336903
0.000338035
0.000338662
0.00033964
0.000340781
0.00034188
0.000343388
0.000345471
0.000347319
0.000347904
0.000345156
0.000332516
0.000296479
0.000225083
0.000127959
3.61575e-05
1.7583e-06
9.22097e-08
1.23575e-05
7.72862e-05
0.00017098
0.000249936
0.000298506
0.000319113
0.000324772
0.000324563
0.000323292
0.000322425
0.000321483
0.000320444
0.000318992
0.000317397
0.000315486
0.000313521
0.00031141
0.000309581
0.000309772
0.000315796
0.000324634
0.00026932
8.5951e-05
5.59704e-06
8.74264e-08
3.7499e-07
2.47107e-05
0.000181297
0.000314544
0.000322359
0.000312613
0.00031014
0.00031087
0.000311716
0.000312721
0.000313276
0.000314319
0.00031541
0.000316542
0.000318027
0.000319948
0.000321792
0.000322285
0.000319243
0.000306194
0.000270977
0.000204957
0.000116414
3.261e-05
1.48235e-06
9.30347e-08
1.12422e-05
7.0543e-05
0.000156144
0.000228313
0.000274258
0.000294788
0.000300845
0.000300894
0.000299788
0.000298992
0.000297916
0.000296852
0.000295508
0.000293934
0.000292002
0.000290127
0.000288258
0.000286386
0.00028661
0.000292368
0.000289103
0.00020826
6.24632e-05
8.17453e-06
8.1712e-07
4.21252e-07
5.74674e-07
5.81947e-07
8.8468e-07
3.10198e-06
2.10214e-05
0.00012474
0.000261813
0.000295107
0.000290133
0.000287341
0.000288037
0.000288627
0.000289428
0.000289894
0.000290941
0.000292093
0.000293265
0.000294729
0.000296587
0.0002983
0.000298591
0.000295232
0.000281878
0.000247754
0.000186718
0.000105933
2.9283e-05
1.30449e-06
8.51544e-08
1.01468e-05
6.39335e-05
0.000142299
0.000208422
0.000251902
0.000272387
0.000278832
0.00027921
0.000278206
0.000277374
0.000276356
0.000275275
0.000273944
0.000272312
0.000270353
0.000268638
0.000266913
0.000265087
0.000265187
0.000268567
0.000253838
0.000167448
5.59807e-05
1.30109e-05
3.69834e-06
3.50326e-06
5.00636e-06
5.13068e-06
4.09868e-06
5.19243e-06
2.10354e-05
9.70169e-05
0.000219309
0.000268161
0.000268945
0.000266311
0.000266863
0.000267456
0.00026808
0.000268437
0.000269358
0.000270529
0.000271821
0.000273304
0.000275108
0.000276666
0.000276759
0.000273105
0.000259511
0.000226606
0.000170268
9.6377e-05
2.62748e-05
1.15935e-06
7.67272e-08
9.1387e-06
5.79223e-05
0.000129693
0.000190333
0.000231349
0.000251662
0.00025847
0.000259198
0.00025828
0.000257431
0.000256488
0.000255406
0.000254075
0.000252412
0.000250487
0.000248891
0.000247293
0.000245542
0.00024542
0.000245809
0.000222454
0.000141034
5.74312e-05
2.03908e-05
1.07757e-05
9.01062e-06
9.35302e-06
8.38855e-06
6.464e-06
6.56114e-06
2.14174e-05
8.60594e-05
0.000189
0.00024332
0.00024863
0.000246834
0.000247262
0.00024787
0.000248387
0.000248692
0.000249551
0.000250748
0.000252074
0.000253604
0.000255376
0.000256764
0.000256599
0.000252622
0.000238928
0.000207394
0.000155437
8.77176e-05
2.36105e-05
1.03523e-06
6.88804e-08
8.21645e-06
5.24695e-05
0.000118248
0.000173885
0.000212427
0.000232463
0.000239559
0.000240636
0.000239846
0.000239007
0.000238137
0.00023706
0.00023575
0.000234064
0.000232206
0.0002307
0.000229235
0.000227575
0.000227123
0.000224679
0.000196652
0.000124516
5.88948e-05
3.06372e-05
2.17753e-05
1.80674e-05
1.40809e-05
1.05644e-05
7.67331e-06
8.36561e-06
2.75655e-05
8.03876e-05
0.000169737
0.000221229
0.00022944
0.00022864
0.000229065
0.000229701
0.000230153
0.000230423
0.000231228
0.000232507
0.000233875
0.00023547
0.000237192
0.000238392
0.000237978
0.000233687
0.00021994
0.000189816
0.000141903
7.97372e-05
2.11805e-05
9.23438e-07
6.16994e-08
7.37394e-06
4.74683e-05
0.000107729
0.000158787
0.000194866
0.000214446
0.000221845
0.00022333
0.000222709
0.000221915
0.000221066
0.000219979
0.000218708
0.000217039
0.000215205
0.000213813
0.000212529
0.000210956
0.000210145
0.000205658
0.000176083
0.0001158
6.65719e-05
4.61345e-05
3.6548e-05
2.55838e-05
1.61663e-05
1.11986e-05
9.26035e-06
1.38211e-05
3.78259e-05
8.5784e-05
0.000156405
0.000202081
0.000211323
0.000211551
0.000212094
0.000212705
0.00021321
0.000213479
0.000214219
0.000215664
0.000216995
0.000218669
0.000220302
0.000221332
0.000220666
0.0002161
0.000202388
0.000173748
0.000129593
7.24481e-05
1.89897e-05
8.17846e-07
5.51912e-08
6.60867e-06
4.28931e-05
9.80722e-05
0.000144906
0.00017853
0.000197105
0.000205145
0.000207065
0.000206562
0.000205226
0.000204893
0.000203842
0.000202726
0.000201044
0.00019903
0.000197893
0.000196934
0.000195464
0.000194329
0.000188628
0.000160371
0.000114248
8.55963e-05
7.29703e-05
4.99225e-05
2.89094e-05
1.83511e-05
1.27534e-05
1.26939e-05
2.45428e-05
4.90287e-05
9.11044e-05
0.000146267
0.000184666
0.000194357
0.000195438
0.000196167
0.000196733
0.000197323
0.000197653
0.000198402
0.00019957
0.000200998
0.000202966
0.000204511
0.000205432
0.000204353
0.000199495
0.000185962
0.000158881
0.000118194
6.56668e-05
1.69489e-05
7.19089e-07
4.93167e-08
5.91694e-06
3.86984e-05
8.91707e-05
0.000132059
0.000162966
0.000181393
0.000189521
0.000191526
0.000190998
0.000189991
0.000189591
0.000188668
0.00018752
0.000186087
0.00018403
0.000182926
0.000182246
0.000180966
0.00017959
0.000173266
0.000148457
0.000119678
0.000119943
9.92128e-05
5.89585e-05
3.01339e-05
1.87887e-05
1.58668e-05
2.24214e-05
3.80575e-05
6.09495e-05
9.49958e-05
0.00013727
0.000168615
0.000178332
0.000180155
0.000181037
0.000181403
0.000181983
0.000182786
0.000183563
0.00018476
0.000186189
0.000188256
0.000189582
0.000190152
0.000188922
0.000183876
0.000170613
0.000144992
0.000107731
5.94316e-05
1.51227e-05
6.3347e-07
4.40414e-08
5.29316e-06
3.48936e-05
8.09216e-05
0.0001201
0.000149169
0.000166942
0.000174928
0.000177176
0.000176667
0.000176113
0.000175333
0.000174576
0.000173594
0.00017212
0.00017038
0.000169217
0.000168673
0.000167614
0.000165931
0.000159978
0.000139391
0.000133496
0.000161855
0.000114552
5.06007e-05
2.37991e-05
1.94418e-05
2.50857e-05
3.78421e-05
5.68859e-05
7.76585e-05
9.84804e-05
0.000129079
0.000153963
0.000163925
0.00016605
0.000167008
0.000167689
0.000168406
0.000168977
0.00016992
0.000171258
0.000172615
0.000174403
0.000175646
0.000175877
0.000174537
0.000169489
0.000156369
0.000132248
9.80223e-05
5.37892e-05
1.35014e-05
5.59315e-07
3.93443e-08
4.73689e-06
3.14839e-05
7.34606e-05
0.000109248
0.000136269
0.000153464
0.000161642
0.000164068
0.000163978
0.000162982
0.000162436
0.000161678
0.00016077
0.000159454
0.000158067
0.000157067
0.000156478
0.000155371
0.000153821
0.000148133
0.000131612
0.000140172
0.000211743
9.32694e-05
2.98856e-05
2.22845e-05
2.91191e-05
4.25049e-05
6.14232e-05
8.66235e-05
0.000100997
0.000108033
0.000121995
0.000141474
0.000150758
0.000153398
0.00015437
0.000155221
0.000155625
0.000156498
0.000157527
0.000158976
0.000160573
0.000162012
0.000163157
0.000162971
0.000161603
0.000156588
0.000143564
0.000120846
8.93361e-05
4.8698e-05
1.20723e-05
4.95336e-07
3.51898e-08
4.2435e-06
2.84489e-05
6.70521e-05
9.99557e-05
0.000124792
0.000141292
0.000149632
0.000152391
0.000152357
0.000151538
0.000150861
0.000150193
0.000149181
0.000148005
0.000146679
0.000145735
0.000145133
0.000144118
0.000142624
0.000137403
0.000124416
0.000141231
0.000203496
6.54752e-05
2.94409e-05
3.32318e-05
4.86954e-05
6.81564e-05
9.70141e-05
0.000131751
0.000142836
0.000123167
0.000114636
0.000130392
0.00013924
0.000142021
0.000142923
0.0001439
0.000144509
0.000145291
0.000146329
0.000147823
0.000149426
0.000150865
0.000151697
0.000151633
0.000150057
0.000144817
0.000132189
0.000110808
8.17618e-05
4.41723e-05
1.08208e-05
4.40119e-07
3.15324e-08
3.80915e-06
2.57755e-05
6.14756e-05
9.18108e-05
0.000114789
0.000130546
0.000138726
0.000141631
0.000141886
0.000141211
0.000140501
0.000139872
0.000138857
0.00013773
0.000136315
0.00013527
0.000134551
0.000133787
0.000132286
0.000127663
0.000117119
0.000132262
0.000191847
6.67103e-05
3.88728e-05
5.00734e-05
7.26559e-05
9.85947e-05
0.000138803
0.000184946
0.000197743
0.000148624
0.000111914
0.000121108
0.000128715
0.000131571
0.000132756
0.000133582
0.000134228
0.000135002
0.00013609
0.000137597
0.000139185
0.00014056
0.000141327
0.000141241
0.000139518
0.000134017
0.000121727
0.000101772
7.5114e-05
4.02395e-05
9.73088e-06
3.92786e-07
2.83548e-08
3.43112e-06
2.342e-05
5.64417e-05
8.44829e-05
0.000105734
0.000120695
0.000128784
0.00013181
0.000132224
0.000131676
0.000130929
0.000130291
0.000129331
0.00012823
0.000126841
0.000125678
0.000125011
0.000124283
0.000122835
0.000118715
0.000109895
0.000123877
0.000187372
9.74753e-05
5.35827e-05
6.66708e-05
9.36133e-05
0.000124086
0.000176318
0.000235933
0.000254738
0.000186253
0.000116402
0.000113244
0.000119529
0.000122226
0.000123456
0.00012419
0.000124843
0.000125613
0.000126716
0.000128218
0.000129777
0.000131091
0.000131809
0.00013162
0.000129748
0.000124166
0.000112253
9.36677e-05
6.91409e-05
3.67686e-05
8.78565e-06
3.5225e-07
2.55906e-08
3.1019e-06
2.13438e-05
5.19386e-05
7.78698e-05
9.74832e-05
0.000111651
0.000119639
0.000122771
0.000123309
0.000122862
0.00012212
0.000121457
0.000120557
0.000119507
0.000118176
0.000116957
0.00011624
0.000115591
0.000114206
0.000110504
0.000103282
0.000111436
0.000163958
0.000149218
7.80911e-05
7.54678e-05
9.95146e-05
0.000139351
0.000190777
0.000252082
0.000289745
0.000216363
0.00011425
0.000106634
0.000111255
0.000113816
0.000114962
0.000115644
0.000116325
0.000117092
0.000118158
0.000119596
0.000121111
0.000122359
0.000123009
0.000122734
0.000120739
0.000115116
0.000103643
8.64207e-05
6.38114e-05
3.36804e-05
7.96422e-06
3.17481e-07
2.31875e-08
2.81462e-06
1.95066e-05
4.78975e-05
7.19154e-05
8.99908e-05
0.000103356
0.000111192
0.000114407
0.000115055
0.000114687
0.000113967
0.000113284
0.000112438
0.000111447
0.000110219
0.000109042
0.00010827
0.000107581
0.000106231
0.000102915
9.74885e-05
0.000101988
0.000153282
0.00017125
0.000117096
8.56922e-05
9.59785e-05
0.000123675
0.000176889
0.000245964
0.000299289
0.00022286
0.000119195
0.000100815
0.00010376
0.000106145
0.000107233
0.000107883
0.000108543
0.000109291
0.000110304
0.000111666
0.000113105
0.00011428
0.000114854
0.000114504
0.000112409
0.000106787
9.58139e-05
7.99081e-05
5.90556e-05
3.09495e-05
7.24924e-06
2.87624e-07
2.11019e-08
2.56431e-06
1.78852e-05
4.4285e-05
6.65619e-05
8.31876e-05
9.57392e-05
0.000103373
0.000106646
0.000107391
0.000107083
0.000106389
0.0001057
0.000104902
0.000103973
0.000102852
0.000101751
0.000100974
0.000100253
9.88929e-05
9.59598e-05
9.24495e-05
9.74189e-05
0.00014166
0.000179799
0.000153541
0.00010414
8.98762e-05
0.000101862
0.000150922
0.000223687
0.000301181
0.0002355
0.000121294
9.55236e-05
9.69007e-05
9.90865e-05
0.000100116
0.000100739
0.000101371
0.0001021
0.000103068
0.000104342
0.000105687
0.000106785
0.000107284
0.00010687
0.0001047
9.9121e-05
8.86944e-05
7.4055e-05
5.48128e-05
2.85387e-05
6.62695e-06
2.61858e-07
1.92963e-08
2.34686e-06
1.64591e-05
4.10578e-05
6.17483e-05
7.70151e-05
8.87461e-05
9.61326e-05
9.94382e-05
0.000100266
0.000100009
9.93399e-05
9.8656e-05
9.7904e-05
9.70414e-05
9.60245e-05
9.50105e-05
9.42479e-05
9.35244e-05
9.21909e-05
8.96346e-05
8.81748e-05
9.8929e-05
0.000127615
0.000174715
0.00016013
0.000122929
8.84297e-05
9.0902e-05
0.000119446
0.000190255
0.000279898
0.000238528
0.000123744
9.05061e-05
9.05899e-05
9.25619e-05
9.35368e-05
9.41346e-05
9.47428e-05
9.54529e-05
9.63833e-05
9.7564e-05
9.88004e-05
9.98142e-05
0.000100253
9.97862e-05
9.75666e-05
9.20726e-05
8.22212e-05
6.87904e-05
5.10154e-05
2.64019e-05
6.08476e-06
2.39598e-07
1.77252e-08
2.15739e-06
1.52039e-05
3.81781e-05
5.74232e-05
7.14206e-05
8.23369e-05
8.94407e-05
9.27499e-05
9.3646e-05
9.34386e-05
9.2796e-05
9.21236e-05
9.14132e-05
9.06164e-05
8.96979e-05
8.87739e-05
8.80402e-05
8.73211e-05
8.60342e-05
8.39172e-05
8.43135e-05
9.85046e-05
0.000126355
0.000169038
0.000166821
0.000127996
8.95236e-05
8.14281e-05
0.000103665
0.000155575
0.000242841
0.00023854
0.000119665
8.56797e-05
8.47719e-05
8.65247e-05
8.74468e-05
8.80203e-05
8.86073e-05
8.92973e-05
9.01873e-05
9.12839e-05
9.24052e-05
9.33283e-05
9.37193e-05
9.32186e-05
9.09712e-05
8.55971e-05
7.63404e-05
6.40552e-05
4.76166e-05
2.4505e-05
5.60901e-06
2.20162e-07
1.63601e-08
1.99269e-06
1.40972e-05
3.56009e-05
5.35398e-05
6.63604e-05
7.64768e-05
8.3272e-05
8.65601e-05
8.75108e-05
8.73517e-05
8.67399e-05
8.60798e-05
8.54024e-05
8.46663e-05
8.38394e-05
8.30042e-05
8.23102e-05
8.16064e-05
8.03834e-05
7.88263e-05
8.13863e-05
9.39652e-05
0.000124355
0.00016385
0.000165924
0.000130843
9.58524e-05
7.62804e-05
8.23984e-05
0.000123043
0.000202067
0.000205686
0.000111649
8.10105e-05
7.94138e-05
8.09373e-05
8.18061e-05
8.236e-05
8.29274e-05
8.35969e-05
8.44413e-05
8.54526e-05
8.64732e-05
8.73005e-05
8.76476e-05
8.71278e-05
8.48792e-05
7.9657e-05
7.09989e-05
5.97903e-05
4.45672e-05
2.28182e-05
5.18995e-06
2.03145e-07
1.51615e-08
1.84774e-06
1.31199e-05
3.32951e-05
5.00501e-05
6.17847e-05
7.1129e-05
7.76007e-05
8.08478e-05
8.18417e-05
8.17289e-05
8.11506e-05
8.0503e-05
7.98481e-05
7.91632e-05
7.84203e-05
7.76698e-05
7.70243e-05
7.63488e-05
7.52127e-05
7.42595e-05
7.75407e-05
9.0787e-05
0.000125152
0.000172879
0.000160589
0.000122888
9.39997e-05
7.38517e-05
7.48259e-05
0.000108014
0.000170014
0.00017486
0.000102896
7.64958e-05
7.4477e-05
7.57686e-05
7.65823e-05
7.71187e-05
7.76729e-05
7.83229e-05
7.91167e-05
8.004e-05
8.09669e-05
8.17059e-05
8.20103e-05
8.14827e-05
7.92496e-05
7.42134e-05
6.6161e-05
5.59607e-05
4.18465e-05
2.13365e-05
4.83369e-06
1.89383e-07
1.41105e-08
1.72053e-06
1.22453e-05
3.12242e-05
4.6901e-05
5.76412e-05
6.62483e-05
7.23932e-05
7.55865e-05
7.66148e-05
7.65446e-05
7.60008e-05
7.53666e-05
7.4728e-05
7.40852e-05
7.34171e-05
7.2748e-05
7.21607e-05
7.15285e-05
7.05079e-05
7.0184e-05
7.4366e-05
8.94683e-05
0.000127499
0.000164007
0.000156492
0.000119778
8.95399e-05
7.38108e-05
7.33521e-05
9.6638e-05
0.000149239
0.000150129
9.3781e-05
7.20731e-05
6.99417e-05
7.10039e-05
7.17573e-05
7.22765e-05
7.28199e-05
7.34511e-05
7.41904e-05
7.50238e-05
7.58599e-05
7.65286e-05
7.67887e-05
7.62513e-05
7.40516e-05
6.92287e-05
6.17756e-05
5.25145e-05
3.94067e-05
2.00263e-05
4.52374e-06
1.78003e-07
1.31794e-08
1.60784e-06
1.14635e-05
2.93467e-05
4.40469e-05
5.388e-05
6.17923e-05
6.76142e-05
7.07477e-05
7.18052e-05
7.17741e-05
7.12641e-05
7.06465e-05
7.00252e-05
6.94193e-05
6.8817e-05
6.82269e-05
6.77063e-05
6.71316e-05
6.62489e-05
6.65568e-05
7.11808e-05
9.48924e-05
0.000145449
0.00017134
0.000148078
0.000111346
8.57105e-05
7.31037e-05
7.1602e-05
9.05073e-05
0.000137855
0.000131019
8.51243e-05
6.78729e-05
6.57848e-05
6.66296e-05
6.7319e-05
6.78176e-05
6.83492e-05
6.89582e-05
6.96426e-05
7.03881e-05
7.11361e-05
7.17422e-05
7.19623e-05
7.1414e-05
6.92618e-05
6.46662e-05
5.77934e-05
4.93989e-05
3.72008e-05
1.88468e-05
4.2467e-06
1.67802e-07
1.23532e-08
1.50747e-06
1.07581e-05
2.76334e-05
4.1447e-05
5.0457e-05
5.77214e-05
6.32299e-05
6.63008e-05
6.73845e-05
6.73896e-05
6.6913e-05
6.63175e-05
6.572e-05
6.51503e-05
6.46055e-05
6.40891e-05
6.36386e-05
6.31302e-05
6.24023e-05
6.33163e-05
7.0945e-05
0.00010819
0.000156443
0.000172038
0.000137328
0.000103383
8.32124e-05
7.41585e-05
7.36867e-05
9.18082e-05
0.000132083
0.000116394
7.73301e-05
6.40396e-05
6.19956e-05
6.26279e-05
6.32499e-05
6.37226e-05
6.42399e-05
6.48253e-05
6.54528e-05
6.61152e-05
6.67803e-05
6.73297e-05
6.75207e-05
6.69608e-05
6.48541e-05
6.04909e-05
5.4178e-05
4.65805e-05
3.52017e-05
1.77827e-05
3.99834e-06
1.58579e-07
1.16055e-08
1.41624e-06
1.01143e-05
2.60616e-05
3.90685e-05
4.73363e-05
5.40031e-05
5.92104e-05
6.22173e-05
6.33261e-05
6.33668e-05
6.29247e-05
6.23571e-05
6.17903e-05
6.12576e-05
6.07613e-05
6.03096e-05
5.99269e-05
5.94886e-05
5.89344e-05
6.04008e-05
7.32239e-05
0.000106119
0.000164569
0.000162846
0.000126183
9.59043e-05
8.05856e-05
7.40604e-05
7.71726e-05
0.000102983
0.000128146
0.000105861
7.16262e-05
6.06476e-05
5.85694e-05
5.8982e-05
5.95308e-05
5.99721e-05
6.04709e-05
6.10295e-05
6.16009e-05
6.21839e-05
6.27745e-05
6.3274e-05
6.34391e-05
6.2867e-05
6.08117e-05
5.66755e-05
5.0895e-05
4.40269e-05
3.33847e-05
1.68189e-05
3.77246e-06
1.50267e-07
1.09262e-08
1.33342e-06
9.52382e-06
2.46124e-05
3.68878e-05
4.44911e-05
5.0608e-05
5.55293e-05
5.84708e-05
5.96055e-05
5.96843e-05
5.92806e-05
5.87442e-05
5.82105e-05
5.77124e-05
5.72559e-05
5.68579e-05
5.65364e-05
5.61676e-05
5.57804e-05
5.76587e-05
7.21992e-05
0.000116174
0.000162556
0.000153015
0.000116839
8.97585e-05
7.69016e-05
7.45831e-05
8.91478e-05
0.000103118
0.000125454
9.90289e-05
6.78035e-05
5.76913e-05
5.55073e-05
5.56704e-05
5.61393e-05
5.6541e-05
5.70166e-05
5.75458e-05
5.80603e-05
5.85711e-05
5.90986e-05
5.95568e-05
5.96918e-05
5.91074e-05
5.71058e-05
5.31972e-05
4.79134e-05
4.17076e-05
3.17254e-05
1.59389e-05
3.56799e-06
1.42715e-07
1.03002e-08
1.25723e-06
8.9796e-06
2.32712e-05
3.48825e-05
4.18935e-05
4.75065e-05
5.21531e-05
5.50292e-05
5.61926e-05
5.63146e-05
5.5955e-05
5.54506e-05
5.49465e-05
5.44773e-05
5.40525e-05
5.36973e-05
5.34286e-05
5.31274e-05
5.28953e-05
5.50737e-05
6.97524e-05
0.000113659
0.000155126
0.000141663
0.000108043
8.43524e-05
7.43157e-05
8.1503e-05
9.7165e-05
0.000112403
0.000121004
9.35162e-05
6.35555e-05
5.52938e-05
5.27493e-05
5.27005e-05
5.30611e-05
5.34035e-05
5.38481e-05
5.43453e-05
5.48019e-05