/*--------------------------------*- C++ -*----------------------------------*\
  =========                 |
  \\      /  F ield         | OpenFOAM: The Open Source CFD Toolbox
   \\    /   O peration     | Website:  https://openfoam.org
    \\  /    A nd           | Version:  7
     \\/     M anipulation  |
\*---------------------------------------------------------------------------*/
FoamFile
{
    version     2.0;
    format      ascii;
    class       volScalarField;
    location    "80";
    object      nut;
}
// * * * * * * * * * * * * * * * * * * * * * * * * * * * * * * * * * * * * * //

dimensions      [0 2 -1 0 0 0 0];

internalField   nonuniform List<scalar> 
17475
(
3.12041e-05
0.000188849
0.000188081
0.000188027
0.000188026
0.000188025
0.000188025
0.000188025
0.000188025
0.000188025
0.000188025
0.000188026
0.000188026
0.000188026
0.000188026
0.000188026
0.000188026
0.000188026
0.000188026
0.000188026
0.000188026
0.000188026
0.000188026
0.000188027
0.000188025
0.000188029
0.000188029
0.000188029
0.000188029
0.000188029
0.000188029
0.000188029
0.000188029
0.000188029
0.000188029
0.000188029
0.000188029
0.000188029
0.000188029
0.00018803
0.000188031
0.000188033
0.000188035
0.000188036
0.000188037
0.000188038
0.000188039
0.00018804
0.000188041
0.000188042
0.000188043
0.000188044
0.000188054
0.000188286
0.000150676
9.2187e-07
0.000115394
0.000172089
0.000176588
0.00017675
0.000176754
0.000176752
0.00017675
0.000176749
0.000176747
0.000176747
0.000176746
0.000176746
0.000176746
0.000176746
0.000176746
0.000176746
0.000176747
0.000176747
0.000176748
0.000176748
0.000176749
0.000176753
0.000176748
0.000176758
0.000176763
0.000176769
0.00017677
0.000176771
0.000176771
0.000176772
0.000176772
0.000176773
0.000176774
0.000176774
0.000176774
0.000176774
0.000176774
0.000176771
0.00017677
0.00017677
0.00017677
0.000176769
0.00017677
0.000176771
0.000176771
0.000176772
0.000176774
0.000176775
0.000176778
0.000176776
0.000176713
0.000175372
0.000153948
1.6809e-05
1.20168e-07
5.92227e-05
0.00015114
0.00016823
0.000169909
0.000170017
0.000170022
0.000170017
0.00017001
0.000170003
0.00017
0.000169997
0.000169995
0.000169993
0.000169992
0.00016999
0.000169989
0.000169988
0.000169988
0.000169986
0.000169985
0.000169988
0.000169988
0.000169994
0.000169997
0.000169999
0.000170006
0.000170009
0.00017001
0.000170009
0.000170008
0.000170008
0.000170009
0.000170011
0.000170011
0.00017001
0.000170011
0.000170007
0.000170005
0.000170003
0.000170002
0.000169997
0.000169993
0.000169993
0.000169996
0.000169997
0.000169998
0.000170002
0.000170007
0.000170012
0.000169973
0.000169337
0.00016116
0.000102834
3.03968e-06
3.86219e-08
3.04484e-05
0.000127823
0.000159093
0.00016477
0.000165346
0.000165406
0.000165405
0.000165391
0.000165377
0.000165371
0.000165365
0.000165359
0.000165352
0.00016535
0.000165347
0.000165342
0.000165339
0.000165337
0.000165332
0.000165331
0.000165332
0.00016534
0.000165343
0.000165347
0.000165349
0.000165352
0.000165358
0.000165359
0.000165356
0.000165353
0.000165354
0.000165359
0.000165363
0.000165363
0.000165363
0.000165365
0.00016536
0.000165357
0.000165357
0.000165357
0.000165348
0.000165344
0.000165349
0.000165357
0.000165363
0.000165366
0.000165372
0.000165377
0.000165366
0.00016514
0.000162495
0.000144048
6.41124e-05
1.07744e-06
1.7551e-08
1.70533e-05
0.000104894
0.000148968
0.000159899
0.0001617
0.000161926
0.000161947
0.000161929
0.000161913
0.000161908
0.000161901
0.000161892
0.000161876
0.000161874
0.00016187
0.000161864
0.000161855
0.000161852
0.000161848
0.000161843
0.000161848
0.000161851
0.00016185
0.000161865
0.000161872
0.000161869
0.00016187
0.000161867
0.000161859
0.00016186
0.000161866
0.00016188
0.000161888
0.000161889
0.000161895
0.000161895
0.000161886
0.000161887
0.00016189
0.000161892
0.000161886
0.000161887
0.000161896
0.000161911
0.000161925
0.00016193
0.000161936
0.000161929
0.000161846
0.000161048
0.000154829
0.000126102
4.19147e-05
5.49214e-07
9.61252e-09
1.05056e-05
8.49608e-05
0.000138666
0.000154711
0.000158532
0.000159122
0.000159209
0.00015919
0.000159167
0.000159173
0.000159172
0.000159164
0.000159143
0.000159138
0.000159129
0.000159127
0.000159104
0.0001591
0.000159101
0.000159099
0.000159094
0.000159083
0.000159081
0.000159115
0.000159123
0.000159104
0.000159079
0.000159061
0.000159064
0.000159084
0.000159104
0.000159129
0.000159136
0.000159141
0.000159167
0.000159163
0.000159146
0.000159153
0.000159162
0.000159161
0.000159162
0.000159165
0.000159174
0.000159194
0.000159228
0.000159231
0.00015923
0.000159191
0.000158923
0.000156991
0.000146677
0.000109056
2.90963e-05
3.32431e-07
5.9601e-09
7.03032e-06
6.88749e-05
0.000128408
0.00014927
0.000155552
0.000156821
0.000157049
0.000157008
0.000156952
0.000156982
0.000156998
0.00015698
0.000156966
0.000156968
0.00015694
0.000156957
0.000156931
0.0001569
0.00015687
0.000156866
0.000156871
0.00015683
0.000156842
0.00015687
0.000156865
0.000156821
0.000156756
0.000156734
0.00015678
0.000156828
0.000156868
0.000156899
0.000156907
0.000156903
0.000156976
0.000156995
0.000156955
0.000156956
0.000156963
0.000156965
0.000156952
0.000156928
0.000156934
0.000156959
0.00015706
0.000157073
0.000157019
0.000156914
0.000156297
0.000152697
0.000138556
9.40359e-05
2.12972e-05
2.22553e-07
4.04204e-09
5.03069e-06
5.63423e-05
0.000118539
0.00014413
0.000152921
0.000155201
0.00015568
0.000155633
0.00015559
0.000155656
0.000155689
0.000155588
0.000155516
0.000155563
0.000155505
0.000155533
0.000155475
0.000155361
0.000155233
0.000155205
0.000155255
0.000155166
0.000155146
0.000155107
0.000155092
0.000155003
0.000154887
0.000154901
0.000155057
0.000155112
0.000155123
0.000155166
0.000155201
0.000155196
0.00015531
0.000155347
0.000155288
0.000155288
0.000155292
0.000155306
0.000155266
0.000155225
0.000155208
0.000155256
0.000155459
0.000155478
0.000155343
0.000155114
0.000153924
0.000148442
0.000130807
8.1372e-05
1.61991e-05
1.57069e-07
2.92591e-09
3.78032e-06
4.66682e-05
0.00010933
0.000139731
0.000151047
0.000154703
0.000155521
0.000155532
0.00015549
0.000155621
0.000155775
0.000155563
0.000155373
0.000155541
0.000155406
0.000155305
0.00015504
0.000154714
0.000154431
0.000154348
0.000154456
0.000154364
0.00015425
0.000154202
0.000154135
0.000153821
0.000153573
0.000153637
0.000154073
0.000154234
0.000154097
0.00015416
0.000154289
0.000154351
0.000154489
0.000154468
0.000154365
0.000154348
0.000154404
0.000154415
0.00015421
0.000154129
0.000154132
0.000154338
0.000154616
0.000154568
0.000154355
0.000153908
0.000151881
0.000144656
0.000123632
7.07841e-05
1.27757e-05
1.18389e-07
2.2228e-09
2.95063e-06
3.91903e-05
0.000100917
0.00013606
0.000149755
0.000155319
0.000156793
0.000156439
0.000156166
0.000156635
0.000156973
0.00015673
0.000156325
0.000156534
0.000156255
0.000155877
0.000155747
0.000155096
0.000154535
0.00015439
0.000154411
0.000154237
0.00015423
0.000154344
0.000154075
0.000153533
0.000153185
0.000153292
0.000153906
0.000154172
0.000154055
0.000154083
0.000154219
0.000154225
0.000154468
0.000154585
0.000154373
0.000154055
0.000154184
0.000154535
0.000154092
0.000153724
0.000153641
0.000154023
0.000154826
0.000154952
0.000154124
0.000153213
0.000150469
0.000141683
0.000117345
6.23608e-05
1.04108e-05
9.35128e-08
1.75108e-09
2.37235e-06
3.33872e-05
9.33209e-05
0.000132797
0.000148528
0.000155779
0.000157954
0.000157658
0.000157229
0.000157699
0.000158435
0.000158588
0.000157983
0.000158031
0.000158044
0.000157603
0.000157403
0.000156443
0.000155605
0.000155272
0.000155243
0.00015511
0.000154797
0.000155032
0.000155287
0.000154542
0.000154088
0.000154149
0.000154613
0.000154981
0.000154828
0.000154792
0.00015507
0.000154898
0.000155195
0.000154932
0.000154856
0.000154454
0.000154616
0.000154774
0.000154439
0.000154127
0.000154168
0.000155151
0.000156058
0.00015612
0.000155023
0.000153381
0.000149396
0.000139622
0.000111942
5.54836e-05
8.69222e-06
7.64293e-08
1.42059e-09
1.95467e-06
2.88414e-05
8.63345e-05
0.000129532
0.000147784
0.000156141
0.000158536
0.000158418
0.000158046
0.000159112
0.000160396
0.000162081
0.00015958
0.000159545
0.000160377
0.000158074
0.000158854
0.000157545
0.000156791
0.000156927
0.000156337
0.000156384
0.000157426
0.000157754
0.000157155
0.000155348
0.000156728
0.000157076
0.000155247
0.000155037
0.000156054
0.000155103
0.000156574
0.00015671
0.000156782
0.000157053
0.000156969
0.000155662
0.000155506
0.00015574
0.000155698
0.000154888
0.000154871
0.000156306
0.000156856
0.000158222
0.000155751
0.000154104
0.000148819
0.000137051
0.000106743
4.9759e-05
7.40789e-06
6.42583e-08
1.18139e-09
1.64712e-06
2.52198e-05
7.98952e-05
0.000125288
0.000148556
0.000156664
0.000160852
0.000160091
0.000156574
0.00015824
0.000163984
0.000163768
0.000162866
0.000162614
0.000161415
0.000160145
0.000160001
0.000159516
0.000158765
0.000158587
0.000158024
0.000156861
0.000157361
0.000159573
0.000158578
0.000157598
0.000157904
0.000158409
0.000157819
0.000157198
0.000158419
0.000159368
0.000159205
0.000158976
0.000159108
0.000159821
0.000159255
0.000158128
0.000157015
0.000156917
0.00015723
0.000157643
0.000157508
0.000158099
0.000160803
0.000161468
0.000159202
0.000156155
0.000151304
0.000137345
0.000101192
4.47509e-05
6.41753e-06
5.53245e-08
1.00134e-09
1.41011e-06
2.22791e-05
7.37787e-05
0.000121842
0.000142939
0.000150893
0.000155235
0.000154762
0.000156214
0.000157838
0.000159034
0.000158807
0.000158466
0.000157861
0.000156143
0.000154975
0.000153198
0.000151812
0.000150619
0.000149876
0.000149245
0.000149158
0.000149654
0.000151029
0.000151267
0.000150564
0.000149647
0.000149664
0.000149818
0.000150219
0.000150712
0.000151404
0.000151219
0.000151345
0.000151495
0.000151859
0.000151986
0.000152673
0.00015274
0.000152745
0.000153396
0.000154004
0.000153657
0.000154015
0.000156291
0.000155361
0.000153983
0.000151063
0.000144887
0.000130815
9.5445e-05
4.03185e-05
5.5985e-06
4.76709e-08
8.62165e-10
1.22334e-06
1.9869e-05
6.82173e-05
0.000111607
0.00013318
0.000142546
0.000145967
0.000146607
0.00014688
0.00014811
0.00014883
0.00014864
0.000148119
0.000147224
0.000146163
0.000144717
0.000142804
0.000141165
0.000139825
0.000138677
0.000137858
0.000137579
0.000137864
0.000138696
0.000139649
0.000139469
0.000139202
0.000139194
0.000138971
0.000138854
0.000138735
0.000138673
0.000139656
0.000140199
0.000140734
0.000141063
0.000141792
0.000143209
0.000143624
0.000143975
0.000144708
0.000145165
0.000145374
0.000145533
0.000146133
0.000145899
0.000144807
0.000142039
0.000135209
0.000120853
8.73547e-05
3.6355e-05
4.93816e-06
4.14488e-08
7.52112e-10
1.0758e-06
1.77812e-05
6.19749e-05
0.000103311
0.000124599
0.000133506
0.000137163
0.000137873
0.000138275
0.000139031
0.00013934
0.000139033
0.000138425
0.00013745
0.000136516
0.000135132
0.000132856
0.000130914
0.000129313
0.000127598
0.000126454
0.000125497
0.00012474
0.000125922
0.000128015
0.00011007
0.000104118
0.000106366
0.000118934
0.000127679
0.000126026
0.00012637
0.000126951
0.000128254
0.000129942
0.000130807
0.000131938
0.000133683
0.000134292
0.00013455
0.000135247
0.000135823
0.000135988
0.000136234
0.000136834
0.000136762
0.000135734
0.000132771
0.000126123
0.000111917
7.97486e-05
3.3199e-05
4.38141e-06
3.63443e-08
6.51978e-10
9.48006e-07
1.6028e-05
5.63364e-05
9.56741e-05
0.000116163
0.000125006
0.00012874
0.000129533
0.00012981
0.000130197
0.00013016
0.00012969
0.000128984
0.000127986
0.00012717
0.000125766
0.000123092
0.000121088
0.000118643
0.000115634
0.00011421
0.000112048
0.000112532
9.59485e-05
6.90818e-05
4.56429e-05
2.40115e-05
2.41935e-05
5.85251e-05
8.35141e-05
0.00011837
0.000112861
0.000113527
0.000115891
0.000118219
0.000120007
0.000122172
0.000124475
0.000125392
0.000125693
0.000126425
0.00012693
0.000127171
0.000127496
0.000127998
0.000128004
0.000127134
0.000124238
0.000117592
0.000103625
7.30888e-05
3.01067e-05
3.91895e-06
3.21673e-08
4.70403e-10
8.00844e-07
1.40973e-05
5.10089e-05
8.78952e-05
0.000107932
0.000116793
0.00012062
0.000121453
0.000121505
0.000121517
0.000121223
0.000120612
0.000119828
0.000118923
0.000118107
0.000116203
0.000113402
0.000110781
0.000107813
0.000104733
0.00010254
0.000102862
9.40268e-05
3.26881e-05
1.69655e-06
1.46752e-09
1.39904e-08
1.25665e-05
4.15168e-05
0.000102849
0.000102215
0.000104074
0.000106876
0.000109929
0.000112495
0.000114934
0.000116541
0.00011694
0.00011776
0.000118312
0.000118668
0.000119003
0.000119458
0.000119566
0.000118852
0.000116103
0.00010957
9.57809e-05
6.70681e-05
2.733e-05
3.51023e-06
2.85622e-08
1.1374e-10
4.74739e-07
1.15085e-05
4.49284e-05
7.92635e-05
9.86079e-05
0.00010748
0.000111277
0.00011205
0.000111751
0.000111342
0.00011087
0.000110136
0.000109299
0.000108375
0.000107412
0.000105162
0.000102253
9.9241e-05
9.60299e-05
9.32795e-05
9.2844e-05
8.16789e-05
2.41785e-05
1.39691e-06
2.09153e-10
5.589e-06
5.92599e-05
8.83481e-05
9.2164e-05
9.52974e-05
9.87443e-05
0.000101958
0.00010466
0.000106252
0.00010687
0.000107829
0.00010852
0.000108965
0.000109247
0.000109657
0.000109922
0.000109433
0.000106936
0.000100682
8.73564e-05
6.12727e-05
2.50861e-05
3.12458e-06
2.37142e-08
1.5272e-10
5.62031e-07
1.07081e-05
3.99215e-05
6.89259e-05
8.50669e-05
9.3212e-05
9.63006e-05
9.66042e-05
9.6185e-05
9.53588e-05
9.47176e-05
9.43536e-05
9.30759e-05
9.19068e-05
9.02525e-05
8.86844e-05
8.68456e-05
8.38121e-05
8.0362e-05
7.84706e-05
7.44917e-05
4.96326e-05
7.03755e-06
1.2511e-07
1.10053e-06
2.46893e-05
6.84656e-05
7.74961e-05
7.94363e-05
8.21461e-05
8.5755e-05
8.77063e-05
8.88009e-05
8.97818e-05
9.09775e-05
9.19644e-05
9.26733e-05
9.33973e-05
9.41146e-05
9.48733e-05
9.47132e-05
9.28952e-05
8.74745e-05
7.56514e-05
5.32197e-05
2.23628e-05
3.01631e-06
2.63362e-08
3.3005e-10
5.67989e-07
1.04257e-05
3.70889e-05
6.25926e-05
7.75244e-05
8.49679e-05
8.80964e-05
8.83358e-05
8.76513e-05
8.73119e-05
8.66396e-05
8.58127e-05
8.48154e-05
8.34065e-05
8.15949e-05
8.05602e-05
7.89413e-05
7.56249e-05
7.2843e-05
7.07441e-05
6.24972e-05
3.13563e-05
4.17727e-06
1.65339e-07
4.28656e-10
4.73285e-09
8.57319e-07
1.38541e-05
4.97486e-05
6.87946e-05
7.19315e-05
7.41354e-05
7.73356e-05
7.87045e-05
8.03598e-05
8.09634e-05
8.19027e-05
8.33287e-05
8.45087e-05
8.53974e-05
8.62669e-05
8.67877e-05
8.66066e-05
8.48982e-05
7.97351e-05
6.87093e-05
4.81739e-05
2.0244e-05
2.69569e-06
2.18658e-08
3.63853e-10
5.35365e-07
9.58917e-06
3.38743e-05
5.68973e-05
7.07601e-05
7.79261e-05
8.08929e-05
8.1227e-05
8.08168e-05
8.04493e-05
7.95879e-05
7.86809e-05
7.77656e-05
7.65037e-05
7.49633e-05
7.36564e-05
7.23265e-05
6.94538e-05
6.65688e-05
6.42213e-05
5.4029e-05
2.37338e-05
3.78179e-06
4.93653e-07
5.4557e-08
1.77099e-08
2.06285e-08
2.10469e-08
5.49828e-08
2.18982e-07
1.14611e-06
9.96551e-06
3.95077e-05
6.10828e-05
6.59659e-05
6.83482e-05
7.11982e-05
7.25928e-05
7.34592e-05
7.39209e-05
7.51029e-05
7.65402e-05
7.76819e-05
7.8692e-05
7.97072e-05
8.02312e-05
7.98728e-05
7.81317e-05
7.30993e-05
6.25534e-05
4.35429e-05
1.83789e-05
2.39935e-06
1.92154e-08
3.35411e-10
4.88911e-07
8.68028e-06
3.07609e-05
5.17687e-05
6.48699e-05
7.19542e-05
7.48427e-05
7.53002e-05
7.48502e-05
7.43127e-05
7.38137e-05
7.29114e-05
7.1813e-05
7.04766e-05
6.88719e-05
6.7777e-05
6.65907e-05
6.4246e-05
6.15759e-05
5.86282e-05
4.67592e-05
2.00159e-05
4.32461e-06
1.19193e-06
5.99011e-07
8.03789e-07
1.29868e-06
1.30878e-06
8.80377e-07
6.69258e-07
1.60687e-06
8.84128e-06
3.29812e-05
5.49402e-05
6.09335e-05
6.32002e-05
6.55695e-05
6.70508e-05
6.79122e-05
6.84516e-05
6.93272e-05
7.05625e-05
7.18975e-05
7.30029e-05
7.40146e-05
7.44618e-05
7.39848e-05
7.22126e-05
6.72434e-05
5.71126e-05
3.96155e-05
1.66756e-05
2.14266e-06
1.70801e-08
3.02257e-10
4.41213e-07
7.85354e-06
2.78988e-05
4.7147e-05
5.94497e-05
6.62697e-05
6.91569e-05
6.97244e-05
6.93028e-05
6.88231e-05
6.84375e-05
6.75878e-05
6.64403e-05
6.51276e-05
6.36218e-05
6.25641e-05
6.14845e-05
5.9573e-05
5.73261e-05
5.39377e-05
4.11521e-05
1.86454e-05
5.50568e-06
2.33451e-06
2.09519e-06
2.34939e-06
2.79724e-06
2.45774e-06
1.54427e-06
1.04459e-06
2.09538e-06
9.27346e-06
2.97596e-05
5.02278e-05
5.66924e-05
5.885e-05
6.07088e-05
6.20753e-05
6.28554e-05
6.33694e-05
6.41402e-05
6.53355e-05
6.66471e-05
6.78272e-05
6.88247e-05
6.9143e-05
6.85098e-05
6.66508e-05
6.18679e-05
5.22408e-05
3.60627e-05
1.51239e-05
1.92155e-06
1.52594e-08
2.7138e-10
3.96681e-07
7.09686e-06
2.52947e-05
4.28789e-05
5.43259e-05
6.06839e-05
6.34897e-05
6.43735e-05
6.4098e-05
6.36748e-05
6.33424e-05
6.25144e-05
6.14034e-05
6.01891e-05
5.87894e-05
5.78288e-05
5.69047e-05
5.53059e-05
5.33915e-05
5.00823e-05
3.92827e-05
1.84359e-05
6.75978e-06
3.93075e-06
4.10128e-06
4.23696e-06
4.00183e-06
2.92499e-06
1.69135e-06
1.37532e-06
3.16263e-06
1.02816e-05
2.89677e-05
4.675e-05
5.27317e-05
5.47038e-05
5.62984e-05
5.74366e-05
5.82159e-05
5.86589e-05
5.92787e-05
6.05418e-05
6.18009e-05
6.30078e-05
6.39052e-05
6.40849e-05
6.33731e-05
6.14901e-05
5.68665e-05
4.77362e-05
3.2819e-05
1.36901e-05
1.7202e-06
1.36098e-08
2.43138e-10
3.55896e-07
6.39641e-06
2.28338e-05
3.8839e-05
4.93781e-05
5.50695e-05
5.81576e-05
5.91049e-05
5.88294e-05
5.8155e-05
5.79897e-05
5.73441e-05
5.64267e-05
5.52013e-05
5.33824e-05
5.29197e-05
5.25216e-05
5.11321e-05
4.94889e-05
4.63635e-05
3.6226e-05
1.90729e-05
8.90453e-06
6.31667e-06
6.63126e-06
5.6571e-06
4.44269e-06
2.94847e-06
1.91791e-06
2.18614e-06
4.91117e-06
1.28371e-05
2.90612e-05
4.37362e-05
4.88034e-05
5.07218e-05
5.20973e-05
5.28344e-05
5.37188e-05
5.41263e-05
5.45347e-05
5.57192e-05
5.66207e-05
5.81191e-05
5.906e-05
5.91778e-05
5.83245e-05
5.63935e-05
5.20204e-05
4.34246e-05
2.97928e-05
1.23793e-05
1.5385e-06
1.19939e-08
2.17537e-10
3.18943e-07
5.75341e-06
2.05461e-05
3.49837e-05
4.46633e-05
4.98588e-05
5.29923e-05
5.38892e-05
5.36698e-05
5.26694e-05
5.26584e-05
5.18485e-05
5.12297e-05
5.05607e-05
4.8428e-05
4.83222e-05
4.82138e-05
4.70915e-05
4.54462e-05
4.26354e-05
3.3171e-05
2.05432e-05
1.30872e-05
1.07593e-05
8.53771e-06
5.97506e-06
4.86825e-06
3.16564e-06
2.41962e-06
3.7616e-06
7.21402e-06
1.55746e-05
2.98676e-05
4.06122e-05
4.49351e-05
4.63807e-05
4.75222e-05
4.82835e-05
4.92595e-05
4.95027e-05
4.99919e-05
5.09545e-05
5.15629e-05
5.34125e-05
5.40667e-05
5.41311e-05
5.30762e-05
5.1136e-05
4.72642e-05
3.92925e-05
2.69346e-05
1.11504e-05
1.36737e-06
1.04723e-08
1.94411e-10
2.8569e-07
5.16264e-06
1.84855e-05
3.13011e-05
3.81376e-05
4.4193e-05
4.81532e-05
4.90837e-05
4.86807e-05
4.69459e-05
4.80448e-05
4.78905e-05
4.73769e-05
4.65073e-05
4.54275e-05
4.34118e-05
4.4411e-05
4.36438e-05
4.20156e-05
3.82539e-05
3.12378e-05
2.31011e-05
2.05705e-05
1.58352e-05
9.81857e-06
5.96369e-06
4.90293e-06
3.74682e-06
4.0079e-06
6.09016e-06
1.0165e-05
1.81641e-05
2.88827e-05
3.67581e-05
4.00471e-05
4.26294e-05
4.35604e-05
4.25067e-05
4.2721e-05
4.54526e-05
4.64519e-05
4.73169e-05
4.79379e-05
4.90831e-05
4.80316e-05
4.92483e-05
4.8219e-05
4.64434e-05
4.23393e-05
3.534e-05
2.42849e-05
9.96541e-06
1.21598e-06
9.16811e-09
1.7367e-10
2.5582e-07
4.65958e-06
1.64367e-05
2.78375e-05
3.597e-05
4.10898e-05
4.3948e-05
4.61728e-05
4.43253e-05
4.44081e-05
4.35905e-05
4.33074e-05
4.46367e-05
4.26795e-05
4.32059e-05
4.24254e-05
4.15794e-05
4.08377e-05
3.88828e-05
3.67683e-05
3.0352e-05
2.73378e-05
3.07991e-05
2.01132e-05
8.76711e-06
4.65227e-06
5.05054e-06
5.7711e-06
6.75212e-06
9.81942e-06
1.44164e-05
2.00239e-05
2.79253e-05
3.37379e-05
3.78294e-05
3.91022e-05
4.07586e-05
4.09078e-05
4.08477e-05
4.15388e-05
4.33203e-05
4.4479e-05
4.41967e-05
4.50187e-05
4.64013e-05
4.44099e-05
4.38631e-05
4.26946e-05
3.8589e-05
3.17375e-05
2.16338e-05
9.04373e-06
1.08302e-06
8.05046e-09
1.55193e-10
2.29275e-07
4.22164e-06
1.51784e-05
2.57248e-05
3.31276e-05
3.85688e-05
4.22025e-05
4.23943e-05
4.29626e-05
4.18415e-05
4.18157e-05
4.14689e-05
4.10111e-05
4.10921e-05
4.07425e-05
4.02276e-05
3.96165e-05
3.88086e-05
3.82627e-05
3.58336e-05
3.04469e-05
3.10446e-05
4.42116e-05
1.80836e-05
5.51919e-06
4.45779e-06
7.65207e-06
9.68029e-06
1.15232e-05
1.64495e-05
2.07145e-05
2.33834e-05
2.69258e-05
3.28299e-05
3.5592e-05
3.80787e-05
3.84382e-05
3.9465e-05
3.98041e-05
4.03605e-05
4.08361e-05
4.19936e-05
4.35341e-05
4.39916e-05
4.38888e-05
4.24965e-05
4.20288e-05
4.13346e-05
3.6242e-05
3.02689e-05
2.01538e-05
8.17628e-06
9.68174e-07
7.09693e-09
1.38861e-10
2.05803e-07
3.84143e-06
1.43504e-05
2.47457e-05
3.23109e-05
3.74818e-05
4.01912e-05
4.15775e-05
4.16667e-05
4.16293e-05
4.10923e-05
4.08819e-05
4.02577e-05
3.96736e-05
3.82196e-05
3.77125e-05
3.69706e-05
3.65831e-05
3.60363e-05
3.43422e-05
3.10175e-05
3.4545e-05
4.67925e-05
1.39151e-05
5.84557e-06
6.96326e-06
1.30597e-05
1.57626e-05
1.94488e-05
2.73276e-05
3.1944e-05
2.8693e-05
2.70998e-05
3.10886e-05
3.44666e-05
3.59959e-05
3.60531e-05
3.74664e-05
3.79959e-05
3.84023e-05
3.89583e-05
3.98465e-05
4.08217e-05
4.1747e-05
4.16768e-05
4.20925e-05
4.11551e-05
3.89202e-05
3.51157e-05
2.83814e-05
1.91109e-05
7.48228e-06
8.68389e-07
6.28064e-09
1.24454e-10
1.85122e-07
3.49138e-06
1.33652e-05
2.36971e-05
3.08122e-05
3.57959e-05
3.82048e-05
3.92173e-05
3.97486e-05
3.95935e-05
3.9146e-05
3.88807e-05
3.8414e-05
3.77536e-05
3.637e-05
3.54965e-05
3.51559e-05
3.48103e-05
3.41758e-05
3.29055e-05
2.98712e-05
3.34317e-05
4.7266e-05
1.51724e-05
8.26772e-06
1.11641e-05
2.02119e-05
2.3743e-05
2.98822e-05
4.14773e-05
4.70085e-05
3.74593e-05
2.8014e-05
3.13967e-05
3.26357e-05
3.41121e-05
3.51437e-05
3.53176e-05
3.57376e-05
3.62421e-05
3.68333e-05
3.75736e-05
3.84389e-05
3.91739e-05
3.94995e-05
3.9599e-05
3.87763e-05
3.6575e-05
3.26843e-05
2.64783e-05
1.78088e-05
6.88344e-06
7.81914e-07
5.58672e-09
1.11945e-10
1.67154e-07
3.18576e-06
1.23098e-05
2.20134e-05
2.88401e-05
3.35041e-05
3.61185e-05
3.71576e-05
3.74386e-05
3.7273e-05
3.68031e-05
3.64468e-05
3.60441e-05
3.55421e-05
3.46154e-05
3.36615e-05
3.34716e-05
3.31123e-05
3.26611e-05
3.13129e-05
2.86738e-05
3.20893e-05
4.64625e-05
2.33569e-05
1.21729e-05
1.58671e-05
2.72566e-05
3.1405e-05
4.05452e-05
5.63509e-05
6.47533e-05
4.82293e-05
3.09425e-05
3.02422e-05
3.20123e-05
3.25077e-05
3.3254e-05
3.3532e-05
3.38752e-05
3.43207e-05
3.48259e-05
3.54881e-05
3.6253e-05
3.68971e-05
3.72406e-05
3.71033e-05
3.62875e-05
3.43622e-05
3.05374e-05
2.47386e-05
1.65287e-05
6.31468e-06
7.0714e-07
4.99579e-09
1.01059e-10
1.51512e-07
2.91643e-06
1.13912e-05
2.04012e-05
2.68128e-05
3.13102e-05
3.39826e-05
3.50514e-05
3.5288e-05
3.51176e-05
3.47143e-05
3.43406e-05
3.39685e-05
3.35573e-05
3.29181e-05
3.22371e-05
3.18975e-05
3.15267e-05
3.09341e-05
2.97035e-05
2.75251e-05
2.93299e-05
4.22778e-05
3.79186e-05
1.87215e-05
1.91188e-05
3.03707e-05
3.70534e-05
4.63533e-05
6.27579e-05
7.53342e-05
5.75387e-05
3.07891e-05
2.89618e-05
3.04495e-05
3.1247e-05
3.1709e-05
3.19828e-05
3.22837e-05
3.26038e-05
3.29624e-05
3.35075e-05
3.4169e-05
3.47197e-05
3.49995e-05
3.48475e-05
3.40569e-05
3.21607e-05
2.84814e-05
2.31148e-05
1.538e-05
5.80635e-06
6.4243e-07
4.49192e-09
9.15948e-11
1.37846e-07
2.67809e-06
1.05618e-05
1.89791e-05
2.49587e-05
2.92324e-05
3.18501e-05
3.2943e-05
3.31968e-05
3.30276e-05
3.26539e-05
3.2297e-05
3.19601e-05
3.1604e-05
3.11449e-05
3.06687e-05
3.03047e-05
2.98827e-05
2.9154e-05
2.80171e-05
2.64376e-05
2.75286e-05
4.14288e-05
4.44392e-05
2.96528e-05
2.29692e-05
3.01949e-05
3.46039e-05
4.51751e-05
6.40951e-05
8.01814e-05
6.0815e-05
3.29443e-05
2.80485e-05
2.89433e-05
2.96698e-05
3.00671e-05
3.03207e-05
3.05793e-05
3.08523e-05
3.11641e-05
3.1615e-05
3.21527e-05
3.2617e-05
3.28501e-05
3.26979e-05
3.19297e-05
3.00564e-05
2.6557e-05
2.15673e-05
1.43389e-05
5.36029e-06
5.86247e-07
4.06123e-09
8.33836e-11
1.25925e-07
2.46748e-06
9.81645e-06
1.76766e-05
2.32289e-05
2.7248e-05
2.97747e-05
3.08837e-05
3.11616e-05
3.09976e-05
3.06381e-05
3.03192e-05
3.00389e-05
2.97389e-05
2.93723e-05
2.89729e-05
2.86489e-05
2.82973e-05
2.76921e-05
2.67134e-05
2.5571e-05
2.6801e-05
3.92292e-05
4.91141e-05
4.02815e-05
2.91793e-05
2.90322e-05
3.00309e-05
4.01791e-05
5.98609e-05
8.25322e-05
6.55648e-05
3.40685e-05
2.69498e-05
2.73916e-05
2.80494e-05
2.84026e-05
2.86323e-05
2.88829e-05
2.91416e-05
2.94272e-05
2.98018e-05
3.02158e-05
3.05964e-05
3.0798e-05
3.06631e-05
2.99186e-05
2.80747e-05
2.47545e-05
2.01372e-05
1.339e-05
4.96634e-06
5.37459e-07
3.69078e-09
7.62782e-11
1.15573e-07
2.2826e-06
9.15009e-06
1.64947e-05
2.16348e-05
2.53898e-05
2.78082e-05
2.89146e-05
2.92134e-05
2.90661e-05
2.87323e-05
2.84561e-05
2.82245e-05
2.79784e-05
2.76792e-05
2.73342e-05
2.70301e-05
2.67113e-05
2.6201e-05
2.53727e-05
2.48534e-05
2.78358e-05
3.59879e-05
4.85572e-05
4.39134e-05
3.58374e-05
2.9017e-05
2.74791e-05
3.33133e-05
5.31146e-05
7.83915e-05
6.74608e-05
3.51978e-05
2.58121e-05
2.58668e-05
2.64795e-05
2.67974e-05
2.70042e-05
2.72352e-05
2.74759e-05
2.77414e-05
2.80534e-05
2.83808e-05
2.86877e-05
2.88686e-05
2.8758e-05
2.80373e-05
2.62246e-05
2.30797e-05
1.88193e-05
1.25285e-05
4.61733e-06
4.9502e-07
3.37212e-09
7.00946e-11
1.06531e-07
2.12014e-06
8.55739e-06
1.54301e-05
2.01822e-05
2.36774e-05
2.59831e-05
2.7073e-05
2.73861e-05
2.72715e-05
2.69785e-05
2.67304e-05
2.65222e-05
2.63147e-05
2.60669e-05
2.57652e-05
2.54838e-05
2.51855e-05
2.47251e-05
2.40622e-05
2.41659e-05
2.82944e-05
3.62955e-05
4.79476e-05
4.67903e-05
3.81802e-05
2.97181e-05
2.52327e-05
2.9674e-05
4.42952e-05
6.95735e-05
6.84443e-05
3.43926e-05
2.46528e-05
2.44235e-05
2.49775e-05
2.52661e-05
2.54571e-05
2.56673e-05
2.58859e-05
2.61203e-05
2.63832e-05
2.66514e-05
2.69112e-05
2.70789e-05
2.69867e-05
2.62834e-05
2.45066e-05
2.15353e-05
1.76122e-05
1.17515e-05
4.30704e-06
4.57679e-07
3.09416e-09
6.47167e-11
9.86588e-08
1.97696e-06
8.0268e-06
1.44706e-05
1.88628e-05
2.21127e-05
2.43143e-05
2.5382e-05
2.57006e-05
2.56217e-05
2.53732e-05
2.51409e-05
2.49308e-05
2.474e-05
2.45288e-05
2.42604e-05
2.4e-05
2.3728e-05
2.33118e-05
2.28338e-05
2.3626e-05
2.73776e-05
3.62265e-05
4.73259e-05
4.76618e-05
3.98943e-05
3.20458e-05
2.40864e-05
2.41873e-05
3.58171e-05
5.89395e-05
5.977e-05
3.2395e-05
2.35062e-05
2.3051e-05
2.35252e-05
2.38015e-05
2.39869e-05
2.41866e-05
2.4389e-05
2.45882e-05
2.48065e-05
2.50415e-05
2.5269e-05
2.54241e-05
2.53373e-05
2.46439e-05
2.29156e-05
2.01188e-05
1.65123e-05
1.10505e-05
4.03181e-06
4.24753e-07
2.85183e-09
5.99903e-11
9.16963e-08
1.85262e-06
7.5479e-06
1.35968e-05
1.76545e-05
2.06774e-05
2.2789e-05
2.38365e-05
2.41513e-05
2.40967e-05
2.38881e-05
2.36699e-05
2.34471e-05
2.32564e-05
2.30682e-05
2.28262e-05
2.25857e-05
2.23464e-05
2.19814e-05
2.17037e-05
2.27395e-05
2.67277e-05
3.68761e-05
5.0663e-05
4.69925e-05
3.80441e-05
3.15365e-05
2.36116e-05
2.23686e-05
3.19511e-05
5.02124e-05
5.13427e-05
3.01177e-05
2.23671e-05
2.1761e-05
2.21503e-05
2.24051e-05
2.25871e-05
2.27846e-05
2.29819e-05
2.31548e-05
2.33356e-05
2.35476e-05
2.37515e-05
2.38906e-05
2.37943e-05
2.31064e-05
2.14423e-05
1.88277e-05
1.55187e-05
1.04255e-05
3.79228e-06
3.97376e-07
2.66459e-09
5.58425e-11
8.55711e-08
1.73549e-06
7.10973e-06
1.27894e-05
1.6534e-05
1.93454e-05
2.13778e-05
2.24118e-05
2.27176e-05
2.26711e-05
2.24935e-05
2.22965e-05
2.20737e-05
2.18811e-05
2.17067e-05
2.14883e-05
2.12771e-05
2.10723e-05
2.07596e-05
2.0675e-05
2.19724e-05
2.65356e-05
3.79171e-05
4.86436e-05
4.65213e-05
3.75248e-05
3.00547e-05
2.3771e-05
2.22357e-05
2.89317e-05
4.45045e-05
4.44662e-05
2.76626e-05
2.12056e-05
2.05548e-05
2.08741e-05
2.10987e-05
2.12661e-05
2.14592e-05
2.1657e-05
2.18173e-05
2.19714e-05
2.21658e-05
2.23542e-05
2.24659e-05
2.23523e-05
2.16674e-05
2.00792e-05
1.76525e-05
1.46245e-05
9.86567e-06
3.58115e-06
3.73787e-07
2.51562e-09
5.21602e-11
8.01358e-08
1.63254e-06
6.70578e-06
1.20381e-05
1.54883e-05
1.81016e-05
2.00592e-05
2.10862e-05
2.13822e-05
2.1331e-05
2.11734e-05
2.10091e-05
2.08143e-05
2.06302e-05
2.04619e-05
2.02618e-05
2.00807e-05
1.99075e-05
1.96412e-05
1.97358e-05
2.11358e-05
2.82722e-05
4.35734e-05
5.13607e-05
4.46084e-05
3.5187e-05
2.87244e-05
2.36467e-05
2.19329e-05
2.73428e-05
4.14154e-05
3.90786e-05
2.52661e-05
2.00634e-05
1.94244e-05
1.96889e-05
1.9885e-05
2.00298e-05
2.02139e-05
2.04129e-05
2.05696e-05
2.07095e-05
2.08907e-05
2.10653e-05
2.11478e-05
2.10107e-05
2.033e-05
1.88191e-05
1.65798e-05
1.38175e-05
9.36045e-06
3.39178e-06
3.52679e-07
2.38199e-09
4.88998e-11
7.5269e-08
1.53853e-06
6.33296e-06
1.13421e-05
1.45198e-05
1.69493e-05
1.8835e-05
1.98545e-05
2.01429e-05
2.00812e-05
1.99347e-05
1.98107e-05
1.96661e-05
1.95026e-05
1.93308e-05
1.9138e-05
1.89782e-05
1.88284e-05
1.86056e-05
1.88686e-05
2.11313e-05
3.23208e-05
4.71309e-05
5.20355e-05
4.18275e-05
3.28606e-05
2.77995e-05
2.40324e-05
2.27489e-05
2.79091e-05
3.98747e-05
3.4887e-05
2.30636e-05
1.89992e-05
1.83731e-05
1.85872e-05
1.87579e-05
1.88789e-05
1.90534e-05
1.92523e-05
1.94075e-05
1.954e-05
1.97124e-05
1.98755e-05
1.99329e-05
1.97655e-05
1.90939e-05
1.76572e-05
1.56012e-05
1.30871e-05
8.90169e-06
3.21877e-06
3.33551e-07
2.26052e-09
4.59546e-11
7.08257e-08
1.45191e-06
5.98913e-06
1.07039e-05
1.3637e-05
1.58968e-05
1.77109e-05
1.87223e-05
1.90103e-05
1.89421e-05
1.88023e-05
1.87137e-05
1.86192e-05
1.84787e-05
1.82951e-05
1.80959e-05
1.79461e-05
1.78136e-05
1.76392e-05
1.80596e-05
2.18601e-05
3.17767e-05
4.9798e-05
4.96078e-05
3.8774e-05
3.0603e-05
2.68139e-05
2.40118e-05
2.39604e-05
3.14556e-05
3.88308e-05
3.1853e-05
2.14256e-05
1.80352e-05
1.74105e-05
1.75677e-05
1.7716e-05
1.78173e-05
1.79828e-05
1.81785e-05
1.83269e-05
1.84521e-05
1.86185e-05
1.8774e-05
1.88098e-05
1.86192e-05
1.79553e-05
1.65881e-05
1.47048e-05
1.24199e-05
8.4811e-06
3.06062e-06
3.15994e-07
2.15131e-09
4.3277e-11
6.67745e-08
1.37177e-06
5.67161e-06
1.01216e-05
1.284e-05
1.49431e-05
1.66848e-05
1.76891e-05
1.79907e-05
1.79275e-05
1.77927e-05
1.77211e-05
1.7658e-05
1.75316e-05
1.73329e-05
1.71181e-05
1.69712e-05
1.68565e-05
1.67318e-05
1.7275e-05
2.16035e-05
3.48851e-05
4.93616e-05
4.68661e-05
3.61447e-05
2.8712e-05
2.54768e-05
2.41626e-05
2.77812e-05
3.15925e-05
3.81114e-05
2.98805e-05
2.03328e-05
1.71995e-05
1.65327e-05
1.66243e-05
1.67571e-05
1.6847e-05
1.70042e-05
1.71903e-05
1.73241e-05
1.74396e-05
1.76009e-05
1.77517e-05
1.7772e-05
1.75627e-05
1.6905e-05
1.56105e-05
1.38814e-05
1.18042e-05
8.09096e-06
2.91414e-06
2.99987e-07
2.05203e-09
4.08074e-11
6.30338e-08
1.29774e-06
5.37756e-06
9.5877e-06
1.21168e-05
1.40728e-05
1.57403e-05