/*--------------------------------*- C++ -*----------------------------------*\
  =========                 |
  \\      /  F ield         | OpenFOAM: The Open Source CFD Toolbox
   \\    /   O peration     | Website:  https://openfoam.org
    \\  /    A nd           | Version:  7
     \\/     M anipulation  |
\*---------------------------------------------------------------------------*/
FoamFile
{
    version     2.0;
    format      ascii;
    class       volScalarField;
    location    "80";
    object      p;
}
// * * * * * * * * * * * * * * * * * * * * * * * * * * * * * * * * * * * * * //

dimensions      [0 2 -2 0 0 0 0];

internalField   nonuniform List<scalar> 
17475
(
0.73199
0.417425
0.32808
0.289612
0.267163
0.252375
0.241972
0.23441
0.228844
0.224757
0.221812
0.219774
0.218469
0.217764
0.217551
0.217738
0.218246
0.219002
0.219942
0.221001
0.222123
0.223253
0.22434
0.225337
0.226205
0.226912
0.227432
0.227745
0.227846
0.227735
0.227425
0.226936
0.226299
0.22555
0.224731
0.223894
0.22309
0.222378
0.22182
0.221483
0.22144
0.221771
0.222569
0.223941
0.226019
0.228974
0.233033
0.238513
0.245877
0.255835
0.269517
0.288798
0.316506
0.359286
0.38118
0.293967
0.308405
0.294289
0.275683
0.260054
0.248141
0.239176
0.232426
0.227362
0.223607
0.220896
0.21903
0.217859
0.217262
0.217139
0.217407
0.217987
0.218812
0.219815
0.220935
0.222114
0.223296
0.224431
0.225473
0.226379
0.227114
0.227651
0.227974
0.228073
0.227951
0.227621
0.227103
0.226429
0.225636
0.224769
0.223877
0.223015
0.222241
0.221616
0.221207
0.221085
0.221326
0.222018
0.22326
0.225174
0.227909
0.231664
0.236702
0.243395
0.252285
0.264193
0.28044
0.302939
0.338655
0.348361
0.260938
0.258309
0.256197
0.250124
0.243411
0.23692
0.231251
0.226576
0.222879
0.220069
0.218039
0.216686
0.21592
0.215655
0.215817
0.216337
0.217148
0.218189
0.219396
0.220711
0.222075
0.22343
0.224724
0.225907
0.226931
0.227757
0.228356
0.22871
0.228809
0.228655
0.228261
0.227653
0.226864
0.225935
0.224914
0.223853
0.222809
0.221839
0.221004
0.22037
0.22
0.219961
0.220326
0.221172
0.222585
0.224664
0.227521
0.231283
0.236084
0.242043
0.249177
0.25716
0.264888
0.26949
0.261168
0.214281
0.222619
0.22766
0.228081
0.226262
0.223649
0.220914
0.218413
0.216321
0.214713
0.213605
0.212981
0.212809
0.213048
0.213652
0.214573
0.215758
0.217154
0.218704
0.220348
0.222029
0.223684
0.225257
0.226685
0.227915
0.228905
0.229616
0.230026
0.230127
0.229919
0.229419
0.228656
0.227669
0.226506
0.225222
0.223875
0.222524
0.221229
0.220051
0.219053
0.218289
0.217813
0.217678
0.217934
0.218626
0.219792
0.221454
0.223608
0.226192
0.229034
0.231759
0.233602
0.233142
0.227285
0.212198
0.193085
0.199517
0.205814
0.20912
0.210346
0.210411
0.209905
0.209216
0.208586
0.20816
0.208019
0.208202
0.208721
0.20957
0.210729
0.212169
0.213852
0.215732
0.217757
0.21987
0.222006
0.224103
0.226082
0.227874
0.229415
0.230649
0.231531
0.23203
0.232132
0.231843
0.231182
0.230186
0.228905
0.227399
0.225732
0.223973
0.222187
0.220436
0.218792
0.217309
0.216032
0.215004
0.21426
0.213822
0.213702
0.21389
0.214351
0.215005
0.215705
0.216198
0.216058
0.214615
0.210818
0.203111
0.19305
0.179074
0.183703
0.189594
0.193846
0.196467
0.198053
0.199026
0.199681
0.200237
0.200843
0.201602
0.20258
0.203817
0.205329
0.207116
0.209166
0.211453
0.213938
0.216575
0.219302
0.222055
0.224744
0.227282
0.229583
0.231562
0.233145
0.234268
0.234891
0.234994
0.234583
0.23369
0.232361
0.230664
0.228678
0.226485
0.224169
0.221805
0.219469
0.217238
0.215159
0.213275
0.211616
0.210202
0.209036
0.208104
0.207372
0.206772
0.206201
0.205497
0.204424
0.202659
0.199759
0.195145
0.188321
0.18191
0.16836
0.171655
0.176596
0.181003
0.184247
0.186675
0.188573
0.190158
0.191605
0.193043
0.194578
0.196283
0.198211
0.200395
0.202849
0.205575
0.208555
0.211763
0.215149
0.218659
0.222199
0.225667
0.228956
0.231949
0.234533
0.236601
0.238061
0.238854
0.238952
0.238363
0.237135
0.235333
0.233057
0.230415
0.227518
0.224472
0.221366
0.218308
0.215369
0.212596
0.210028
0.207689
0.205584
0.203705
0.202021
0.200484
0.199019
0.197519
0.195846
0.19382
0.191216
0.187755
0.183114
0.177438
0.173093
0.15902
0.161468
0.165549
0.169767
0.173226
0.176075
0.178516
0.18071
0.182789
0.184868
0.18704
0.189379
0.191942
0.194773
0.197903
0.201343
0.205096
0.209138
0.213432
0.217896
0.222434
0.226918
0.231206
0.235142
0.238561
0.241307
0.243239
0.244268
0.244349
0.243496
0.241777
0.239304
0.236222
0.232686
0.228851
0.224857
0.220821
0.216884
0.213111
0.209552
0.206243
0.203197
0.20041
0.19786
0.195509
0.1933
0.191157
0.188987
0.186678
0.184094
0.18108
0.177452
0.173029
0.168203
0.164984
0.150319
0.152198
0.155565
0.159475
0.162949
0.165978
0.168712
0.171277
0.17378
0.176319
0.178977
0.181832
0.18495
0.188384
0.192177
0.196358
0.200935
0.205926
0.211268
0.216887
0.222683
0.228491
0.23412
0.23935
0.243942
0.247654
0.250265
0.251628
0.251671
0.250416
0.247975
0.244526
0.240306
0.235541
0.230455
0.225225
0.220044
0.215053
0.210318
0.205892
0.201799
0.198043
0.194604
0.191449
0.188527
0.185779
0.183131
0.1805
0.177793
0.174903
0.17172
0.168109
0.164044
0.160108
0.157663
0.141883
0.143363
0.146161
0.149713
0.153075
0.156125
0.158976
0.161731
0.164484
0.167319
0.17032
0.173562
0.177119
0.181063
0.185459
0.190352
0.195817
0.201835
0.208378
0.215381
0.222739
0.23028
0.237723
0.244764
0.251042
0.256174
0.259795
0.261651
0.261617
0.259734
0.256197
0.251302
0.245442
0.238969
0.232194
0.225379
0.218798
0.212558
0.206741
0.201384
0.196495
0.192054
0.188022
0.184347
0.180967
0.177814
0.17481
0.171879
0.168941
0.165919
0.162717
0.159235
0.155472
0.152111
0.150196
0.133513
0.13469
0.137019
0.14019
0.143357
0.146314
0.149143
0.151935
0.154777
0.157748
0.160931
0.164407
0.168266
0.172597
0.177493
0.183041
0.189331
0.196405
0.204271
0.212896
0.222185
0.231969
0.2419
0.25152
0.260292
0.267593
0.272783
0.275404
0.27522
0.272316
0.267041
0.259948
0.251676
0.242795
0.233737
0.224938
0.21665
0.208982
0.201993
0.195688
0.190037
0.184982
0.180452
0.176365
0.172652
0.169235
0.166041
0.162987
0.15999
0.156969
0.153848
0.150548
0.147142
0.144308
0.142756
0.125094
0.126031
0.127948
0.130725
0.133624
0.136391
0.139077
0.141768
0.144543
0.147482
0.150667
0.15419
0.158157
0.162684
0.167883
0.173928
0.180916
0.188964
0.198186
0.208613
0.220209
0.232833
0.246171
0.259543
0.272121
0.282878
0.290656
0.294532
0.29406
0.289393
0.281246
0.270683
0.258802
0.246473
0.234415
0.223167
0.212893
0.203678
0.195515
0.188331
0.182022
0.176486
0.171606
0.167298
0.163452
0.15996
0.156733
0.153688
0.150748
0.147839
0.144889
0.14184
0.13881
0.136425
0.135178
0.116565
0.117318
0.118869
0.121224
0.123779
0.126261
0.12869
0.131143
0.133693
0.136417
0.1394
0.142744
0.146568
0.151014
0.156237
0.162446
0.169824
0.178596
0.188978
0.201209
0.215385
0.231488
0.249326
0.268184
0.28674
0.303283
0.31559
0.321704
0.320645
0.312757
0.299601
0.283353
0.265962
0.248803
0.23296
0.218808
0.206416
0.195713
0.186527
0.178662
0.171954
0.166233
0.161302
0.157008
0.15322
0.149828
0.146735
0.143852
0.141107
0.138423
0.135734
0.132999
0.130367
0.128399
0.127412
0.107907
0.108495
0.109713
0.111634
0.113784
0.115889
0.117948
0.120023
0.122185
0.124502
0.127058
0.129956
0.133324
0.137306
0.142138
0.148021
0.155234
0.164133
0.175131
0.188668
0.205262
0.225212
0.248642
0.275262
0.303389
0.330059
0.35093
0.361399
0.359062
0.344797
0.322362
0.296537
0.270744
0.247265
0.226975
0.20984
0.195569
0.183759
0.17405
0.166079
0.159473
0.153943
0.149276
0.145282
0.141804
0.138738
0.135971
0.133409
0.130995
0.128653
0.126322
0.123977
0.121778
0.12017
0.119349
0.099157
0.0996164
0.100523
0.101978
0.103643
0.105282
0.106869
0.108445
0.110063
0.111781
0.113674
0.115831
0.118367
0.121452
0.125309
0.130168
0.136369
0.14436
0.154749
0.168334
0.186043
0.209048
0.238469
0.274901
0.317881
0.362975
0.401471
0.421399
0.416025
0.387768
0.347115
0.305154
0.267672
0.236943
0.212436
0.193167
0.178156
0.166481
0.157293
0.149965
0.144089
0.139286
0.135337
0.132018
0.12917
0.126679
0.124445
0.122385
0.120439
0.118548
0.116663
0.114777
0.11305
0.111834
0.11121
0.0903429
0.0906878
0.0912873
0.0922579
0.0933964
0.0945044
0.0955317
0.0964963
0.0974291
0.0983697
0.0993697
0.100496
0.101837
0.103544
0.105768
0.108745
0.112797
0.118386
0.126187
0.13719
0.152868
0.175302
0.207527
0.252989
0.315302
0.393491
0.470995
0.513847
0.500763
0.438895
0.361418
0.294583
0.244725
0.208833
0.183372
0.165304
0.152243
0.142624
0.135415
0.129937
0.125682
0.122319
0.119596
0.117316
0.115405
0.113736
0.112228
0.110811
0.10945
0.108113
0.106758
0.105397
0.104173
0.103328
0.102869
0.0815279
0.0817594
0.082046
0.0825254
0.0831187
0.0836649
0.0840837
0.0843621
0.084508
0.084536
0.0844663
0.0843237
0.0841402
0.083999
0.0839659
0.0841883
0.0848468
0.0862184
0.0888342
0.0934468
0.101299
0.114819
0.138092
0.17842
0.249019
0.37304
0.538337
0.642936
0.608843
0.460469
0.314844
0.228466
0.179542
0.151163
0.134096
0.123478
0.116559
0.111806
0.108571
0.106261
0.10451
0.103238
0.10225
0.101431
0.100739
0.100104
0.0994901
0.098866
0.0982084
0.097495
0.0967167
0.0959036
0.0951818
0.0947102
0.0944186
0.0724851
0.0725561
0.0725974
0.0727478
0.0729219
0.0729509
0.0727488
0.0723004
0.0715997
0.0706357
0.069388
0.0678301
0.065931
0.0636683
0.0609859
0.057832
0.0541365
0.0498102
0.0447556
0.0388259
0.0318391
0.0238661
0.0146229
0.00395862
-0.00776482
0.0937484
0.376194
0.236252
0.0822652
0.0347218
0.0473302
0.0568428
0.0637837
0.0689018
0.0728562
0.0758246
0.0782051
0.0801164
0.0816748
0.0829691
0.0840376
0.0849138
0.0856156
0.0861537
0.0865365
0.0867709
0.0868604
0.0868078
0.0866242
0.0863563
0.086122
0.0860264
0.0859554
0.0620572
0.062239
0.0626884
0.0631016
0.0631204
0.0626612
0.0618117
0.0606053
0.0590389
0.057085
0.0546597
0.0516828
0.0480565
0.04364
0.0382512
0.0316372
0.0234364
0.0131155
-0.00017333
-0.0178182
-0.0422813
-0.0781962
-0.135327
-0.237247
-0.374743
-0.436507
-0.258098
-0.120318
-0.0515301
-0.0125545
0.0115611
0.0275935
0.0388677
0.0471724
0.0535066
0.058472
0.062444
0.0656601
0.0682784
0.0704406
0.0722029
0.0736231
0.074766
0.0756248
0.0762425
0.0766469
0.0768599
0.0768919
0.0767717
0.0765998
0.0570279
0.0567098
0.0563756
0.0555795
0.0544883
0.0532175
0.0516936
0.0498132
0.047476
0.0445984
0.0410767
0.0367862
0.0315654
0.0251764
0.0173314
0.00763739
-0.00446943
-0.0198042
-0.0395755
-0.0656493
-0.101009
-0.150697
-0.224714
-0.337309
-0.441271
-0.279183
-0.179839
-0.106678
-0.0612231
-0.0303835
-0.00844658
0.00771986
0.0200025
0.0295751
0.0371936
0.0433562
0.0484107
0.0525959
0.0560508
0.0589188
0.0612948
0.063236
0.0648317
0.0661046
0.067069
0.0677142
0.067984
0.0678527
0.0676164
0.0474187
0.0474518
0.0470884
0.0463954
0.0453308
0.0438126
0.0418254
0.0393479
0.036323
0.0326608
0.0282403
0.0229128
0.0164891
0.00866933
-0.000868919
-0.0125604
-0.0270058
-0.0450305
-0.0677747
-0.0967979
-0.134212
-0.182822
-0.245231
-0.319374
-0.361571
-0.372301
-0.241778
-0.217749
-0.178139
-0.131816
-0.0931885
-0.0623467
-0.0381649
-0.0191442
-0.00407885
0.00800164
0.017802
0.0258311
0.032465
0.0379823
0.0425894
0.0464472
0.0496809
0.0523859
0.0546459
0.0565305
0.0581077
0.0594349
0.0605218
0.0612459
0.0613433
0.0403104
0.0404431
0.0400207
0.0389596
0.0373843
0.0353894
0.0329636
0.0300414
0.0265352
0.0223413
0.0173347
0.0113583
0.00423022
-0.00433644
-0.0146333
-0.0270642
-0.0421346
-0.060475
-0.0829334
-0.110511
-0.144334
-0.185982
-0.237342
-0.292929
-0.323734
-0.324977
-0.307353
-0.274235
-0.243576
-0.219538
-0.202412
-0.194123
-0.173408
-0.140377
-0.109004
-0.0816058
-0.058327
-0.0388014
-0.022674
-0.00930979
0.00182842
0.0110838
0.0188282
0.0253374
0.0308154
0.0354399
0.03935
0.0426575
0.0454571
0.0478324
0.0498455
0.0515067
0.0527316
0.0533874
0.0534636
0.0336786
0.033773
0.0332528
0.0320111
0.0301758
0.0278779
0.025141
0.0219109
0.0181034
0.0136149
0.00832588
0.00209151
-0.00525581
-0.0139647
-0.0242662
-0.0364523
-0.0508946
-0.0680281
-0.088367
-0.112508
-0.141157
-0.175261
-0.215911
-0.258225
-0.286436
-0.297913
-0.295153
-0.273666
-0.245853
-0.218711
-0.198635
-0.190975
-0.177001
-0.149221
-0.120756
-0.0950783
-0.072638
-0.0533453
-0.0369106
-0.0229817
-0.0111752
-0.00119313
0.00726678
0.0144654
0.0205541
0.0257298
0.030136
0.0338974
0.0371052
0.0398399
0.0421689
0.0440925
0.0455045
0.0462504
0.0462971
0.0274621
0.0275545
0.0270146
0.0257155
0.0237696
0.0213266
0.0184401
0.015076
0.0111613
0.00661021
0.00131726
-0.00483852
-0.0119953
-0.0202943
-0.0299598
-0.0411536
-0.0541075
-0.0690599
-0.086269
-0.105995
-0.128473
-0.154088
-0.183308
-0.213512
-0.237871
-0.256717
-0.268192
-0.262167
-0.244862
-0.223553
-0.206898
-0.19971
-0.185036
-0.157116
-0.128895
-0.10389
-0.082081
-0.0631703
-0.0468649
-0.0328522
-0.0208719
-0.0106154
-0.00185511
0.00563966
0.0120547
0.0175458
0.0222484
0.0262822
0.0297447
0.0327181
0.0352559
0.0373347
0.0388299
0.0395937
0.039635
0.0219127
0.0220352
0.0215231
0.0202272
0.0182519
0.0157744
0.0128698
0.00952071
0.00566933
0.00124795
-0.00381863
-0.00961782
-0.0162451
-0.0238212
-0.0324679
-0.042249
-0.053271
-0.0656186
-0.0793366
-0.0943949
-0.110719
-0.12821
-0.146707
-0.164828
-0.183762
-0.207462
-0.23032
-0.240155
-0.237969
-0.228112
-0.217645
-0.20962
-0.191876
-0.162401
-0.133366
-0.108372
-0.087038
-0.0686965
-0.0528908
-0.0392634
-0.0275128
-0.017381
-0.0086565
-0.00113988
0.00534221
0.0109175
0.0157231
0.019871
0.0234438
0.026524
0.0291536
0.0312971
0.0328124
0.033562
0.0335769
0.0170407
0.0171919
0.0167304
0.0154979
0.01359
0.0111833
0.00837277
0.0051629
0.00151383
-0.00262573
-0.00730839
-0.0125904
-0.0185248
-0.0251614
-0.0325815
-0.04079
-0.0497745
-0.0595014
-0.0698509
-0.0806331
-0.091481
-0.10191
-0.111514
-0.120124
-0.134743
-0.16153
-0.192848
-0.215517
-0.226337
-0.226883
-0.221674
-0.212182
-0.190885
-0.160576
-0.132146
-0.10801
-0.0876238
-0.0702616
-0.0553234
-0.0424262
-0.0312676
-0.0216023
-0.0132256
-0.0059629
0.000335005
0.0057956
0.0105275
0.0146273
0.0181771
0.0212462
0.023862
0.025974
0.0274378
0.0281266
0.0280995
0.0128536
0.0130521
0.0126682
0.0115452
0.00976679
0.00750213
0.00486941
0.00188913
-0.00146297
-0.00522064
-0.00941665
-0.0140831
-0.0192398
-0.0248985
-0.0310712
-0.0377365
-0.0448047
-0.0521538
-0.0595984
-0.0668114
-0.0733112
-0.0785046
-0.0817443
-0.0838574
-0.0964828
-0.125662
-0.162166
-0.191352
-0.209477
-0.216462
-0.213471
-0.201307
-0.178554
-0.150135
-0.123998
-0.102112
-0.0836329
-0.0678906
-0.0543462
-0.0426006
-0.0323841
-0.02348
-0.0157112
-0.00892989
-0.00301212
0.00214741
0.0066422
0.0105556
0.0139599
0.0169107
0.0194228
0.0214367
0.0228116
0.0234401
0.0233737
0.009316
0.00954631
0.0092446
0.00826761
0.00667001
0.00461451
0.00222328
-0.000465138
-0.00346007
-0.00678071
-0.0104436
-0.0144594
-0.0188315
-0.0235402
-0.0285532
-0.0338362
-0.039261
-0.0446666
-0.0498281
-0.0544054
-0.0579495
-0.0598246
-0.0593668
-0.0579467
-0.0704795
-0.101201
-0.137712
-0.166815
-0.186673
-0.195531
-0.191743
-0.177043
-0.155379
-0.131434
-0.109608
-0.0911012
-0.0754299
-0.0619552
-0.0502701
-0.0400647
-0.0311093
-0.0232378
-0.0163133
-0.0102213
-0.00486559
-0.000162681
0.00396112
0.00757155
0.0107261
0.0134663
0.0157943
0.017643
0.0188773
0.0194081
0.0193061
0.00637823
0.00664636
0.00644311
0.00562424
0.00423339
0.00241991
0.000306301
-0.00205699
-0.00466742
-0.00753346
-0.0106596
-0.0140424
-0.0176702
-0.021513
-0.0255202
-0.029635
-0.0337471
-0.0376752
-0.0412052
-0.0440597
-0.0458708
-0.0461148
-0.0440755
-0.0416946
-0.0543984
-0.0830063
-0.114663
-0.140675
-0.157987
-0.164437
-0.158481
-0.143273
-0.12502
-0.106867
-0.0904319
-0.076217
-0.0639042
-0.0531352
-0.0436689
-0.0352819
-0.0278264
-0.0211935
-0.0152916
-0.0100446
-0.00538701
-0.00126222
0.00238127
0.00559026
0.00840602
0.0108555
0.0129297
0.014558
0.0156219
0.0160522
0.0159087
0.00398346
0.00428485
0.00417519
0.00352331
0.00235748
0.000807819
-0.00100807
-0.00303336
-0.00525531
-0.00767397
-0.0102867
-0.0130827
-0.0160424
-0.0191356
-0.0223114
-0.0254922
-0.0285769
-0.0314298
-0.0338825
-0.0357245
-0.0366976
-0.0363649
-0.0338972
-0.0313934
-0.042388
-0.0656542
-0.0909644
-0.111491
-0.123988
-0.126752
-0.119208
-0.105195
-0.0916517
-0.0796583
-0.0687473
-0.0590072
-0.050266
-0.0423983
-0.0352855
-0.0288626
-0.0230359
-0.0177493
-0.0129687
-0.00865888
-0.00478672
-0.00132212
0.00176443
0.00450128
0.00691317
0.00901257
0.0107809
0.0121501
0.0130199
0.0133374
0.0131557
0.00207495
0.00240243
0.00238162
0.00188934
0.000952751
-0.000326259
-0.00184007
-0.00352982
-0.0053753
-0.00737086
-0.00951013
-0.01178
-0.0141566
-0.0166068
-0.0190828
-0.0215209
-0.0238424
-0.025968
-0.0277618
-0.0290891
-0.0297878
-0.0295007
-0.0273753
-0.0249465
-0.0321987
-0.0485103
-0.0663894
-0.0807474
-0.0883313
-0.0877195
-0.0796815
-0.0680994
-0.0591918
-0.0526664
-0.046741
-0.0411595
-0.0358175
-0.030747
-0.025971
-0.0214707
-0.0172674
-0.0133452
-0.00971024
-0.00636923
-0.00331924
-0.000554087
0.00193535
0.00415946
0.00612759
0.00783943
0.00926996
0.0103573
0.0110195
0.0112201
0.0110052
0.000593089
0.000936837
0.000995486
0.000665973
-5.24532e-05
-0.00106945
-0.00228895
-0.00365434
-0.00514285
-0.00674383
-0.00844901
-0.0102433
-0.0121063
-0.0140105
-0.0159211
-0.0177925
-0.0195694
-0.0211878
-0.0225905
-0.0237006
-0.0244359
-0.0245214
-0.0231066
-0.020669
-0.0238975
-0.033473
-0.0443832
-0.0524569
-0.0555116
-0.0527041
-0.0446987
-0.0353151
-0.0301063
-0.0279444
-0.0261049
-0.0240456
-0.0216764
-0.0190954
-0.0164208
-0.0137198
-0.0110279
-0.00840575
-0.00587889
-0.00348336
-0.00124475
0.000821902
0.00270778
0.00440785
0.00591792
0.00722791
0.00830923
0.00911064
0.00956535
0.00965446
0.0094088
-0.000513608
-0.000161698
-3.92501e-05
-0.00022823
-0.000735982
-0.00149516
-0.00242893
-0.00348318
-0.00463399
-0.00586978
-0.00718108
-0.00855542
-0.00997591
-0.0114212
-0.0128654
-0.0142794
-0.0156353
-0.0169059
-0.0180637
-0.0191034
-0.0199945
-0.0205492
-0.0199754
-0.0178952
-0.0180581
-0.0219992
-0.0268315
-0.0298379
-0.0291744
-0.024159
-0.0159279
-0.00817541
-0.00567523
-0.00667171
-0.00790234
-0.00860798
-0.00865077
-0.00815242
-0.00726206
-0.0061109
-0.00477067
-0.0033132
-0.00180067
-0.000282086
0.00119446
0.00259717
0.00390277
0.0050936
0.00615471
0.00706862
0.007807
0.0083268
0.00858616
0.00857157
0.00830116
-0.00130022
-0.000942234
-0.000763392
-0.000829402
-0.00114709
-0.00166042
-0.00231878
-0.00307828
-0.0039139
-0.00481336
-0.00576768
-0.00676593
-0.00779545
-0.00884194
-0.00989069
-0.0109281
-0.0119436
-0.0129352
-0.0139117
-0.014898
-0.0159223
-0.0168655
-0.0170612
-0.0156015
-0.0142274
-0.0143179
-0.014667
-0.013395
-0.0095472
-0.00286391
0.0056636
0.0126519
0.0136693
0.0106245
0.00727794
0.00458025
0.0027226
0.00160122
0.0010577
0.000949003
0.00116011
0.00161962
0.00224988
0.00299186
0.00378501
0.00458446
0.0053564
0.00607421
0.00671494
0.0072569
0.00767368
0.00793429
0.00801225
0.00790564
0.00761657
-0.0018133
-0.00146279
-0.00123957
-0.00118783
-0.00131704
-0.00160278
-0.00200427
-0.0024866
-0.00302862
-0.00361777
-0.00424616
-0.00490505
-0.00558559
-0.00627893
-0.00697841
-0.00768093
-0.00839093
-0.00912195
-0.00990262
-0.0107813
-0.0118165
-0.0129478
-0.0136982
-0.0130423
-0.0112701
-0.00921038
-0.00661226
-0.00258101
0.00356018
0.0118684
0.0210579
0.0277899
0.0280231
0.02386
0.0192384
0.0152536
0.0121543
0.00987026
0.00825935
0.00717937
0.00651147
0.00616028
0.00606134
0.00614314
0.00635035
0.0066248
0.00692649
0.00722281
0.00748634
0.00769296
0.00782109
0.00784985
0.00777031
0.00758682
0.00728543
-0.00209259
-0.00174439
-0.00148541
-0.00133675
-0.00130166
-0.00137202
-0.00152845
-0.00174907
-0.00201645
-0.00231872
-0.00264768
-0.00299598
-0.00335721
-0.00372668
-0.00410296
-0.00448989
-0.00489893
-0.00535202
-0.00588483
-0.00655309
-0.00742262
-0.00851325
-0.00945105
-0.00948306
-0.00815536
-0.00541099
-0.00139795
0.00436142
0.012015
0.0212816
0.0309127
0.0377105
0.0378298
0.0332609
0.0280492
0.0233796
0.0195497
0.0165254
0.0141925
0.0124243
0.011108
0.010151
0.00947863
0.00903236
0.00875567
0.00859347
0.00849785
0.00843396
0.0083725
0.00829038
0.00817022
0.008005
0.00779342
0.00754429
0.00723604
-0.00216108
-0.00182336
-0.00154191
-0.00130633
-0.00112077
-0.00099282
-0.000921759
-0.000896922
-0.000907719
-0.000943088
-0.0009946
-0.00105544
-0.0011204
-0.00118653
-0.00125469
-0.0013308
-0.00142802
-0.00156872
-0.00178747
-0.00213507
-0.0026747
-0.0034401
-0.00434234
-0.00471678
-0.0040446
-0.00159638
0.00274432
0.00892758
0.0171001
0.0268701
0.0367222
0.0435335
0.0437486
0.0392564
0.0339639
0.0290969
0.0249644
0.0215671
0.0188204
0.0166226
0.014875
0.0134928
0.0124069
0.0115635
0.0109098
0.0103987
0.00998279
0.00962448
0.00929477
0.00897312
0.00864898
0.00832438
0.00801075
0.00771426
0.00740436
-0.00205021
-0.00172773
-0.00142539
-0.00111729
-0.000803176
-0.000492375
-0.00020871
4.35737e-05
0.000271414
0.000483611
0.000689103
0.000895138
0.00110721
0.00132843
0.00155869
0.00179316
0.00202162
0.00222647
0.00238078
0.00244487
0.00236608
0.00210266
0.0017192
0.00131749
0.00133023
0.00286046
0.00657129
0.0125561
0.0205305
0.0299541
0.0394683
0.046064
0.0464938
0.0423591
0.0373559
0.032659
0.0285625
0.0250906
0.02219
0.0197839
0.0177961
0.0161538
0.0147976
0.0136805
0.0127529
0.0119799
0.0113184
0.010731
0.0101909
0.00968076
0.00919669
0.00874906
0.00835599
0.00802752
0.00771715
-0.00177899
-0.00147239
-0.00116049
-0.000789896
-0.000359951
0.000109141
0.000584357
0.00104614
0.00149346
0.00193371
0.00237606
0.00282921
0.00329992
0.00379306
0.004311
0.00485281
0.00541361
0.00598373
0.00654683
0.00707892
0.0075469
0.00788633
0.00799785
0.00787403
0.00764956
0.00836317
0.0109507
0.0158421
0.0229979
0.0317096
0.0404291
0.0464271
0.0468699
0.0431874
0.0386846
0.0344006
0.0305835
0.0272624
0.0244096
0.0219763
0.0199064
0.0181435
0.0166392
0.015355
0.0142537
0.0132993
0.0124626
0.0117089
0.0110137
0.0103627
0.00976006
0.00922061
0.00877159
0.00842036
0.00811484
-0.00137113
-0.00108119
-0.000757816
-0.000345885
0.000181456
0.000790733
0.00143542
0.00208529
0.00273128
0.00337862
0.00403686
0.00471591
0.00542511
0.00617196
0.00696228
0.0078001
0.00868739
0.00962344
0.0106034
0.0116153
0.012625
0.0135619
0.0143095
0.0146411
0.0144123
0.0144834
0.0159612
0.0194889
0.0252296
0.032588
0.0401439
0.0452688
0.0455508
0.0423176
0.0384127
0.0346904
0.0313059
0.0282918
0.0256352
0.0233098
0.0212809
0.0195088
0.0179582
0.0165973
0.0154032
0.014342
0.013392
0.0125278
0.0117287
0.0109896
0.0103161
0.00973068
0.00925394
0.00888819
0.0085845
-0.000843548
-0.000573961
-0.000250983
0.000199736
0.000805555
0.00153134
0.00232277
0.00313681
0.00395845
0.00478954
0.00564018
0.00652204
0.00744645
0.00842422
0.00946513
0.0105784
0.0117727
0.0130554
0.0144295
0.0158877
0.0174099
0.0189245
0.0202547
0.0209868
0.0208767
0.0206506
0.0212987
0.0235517
0.027704
0.0333029
0.0391897
0.0431064
0.0430859
0.04026
0.0369923
0.0338961
0.031032
0.0284149
0.0260479
0.0239227
0.0220224
0.0203249
0.0188056
0.0174412
0.0162162
0.0151093
0.0141009
0.0131727
0.0123082
0.0115037
0.010775
0.0101472
0.00965505
0.00929268
0.0090115
-0.000212437
3.9215e-05
0.000358072
0.000834144
0.00149518
0.00231487
0.00322556
0.00417756
0.00514867
0.00613799
0.0071549
0.00821303
0.00932581
0.0105069
0.0117701
0.013129
0.0145974
0.0161871
0.0179062
0.0197579
0.0217226
0.0237142
0.02548
0.0266013
0.0266745
0.0262557
0.0262805
0.0274657
0.030164
0.0340726
0.0382416
0.0404812
0.0399967
0.0375089
0.0348528
0.0323829
0.0300582
0.0278753
0.0258443
0.023971
0.0222545
0.0206857
0.0192512
0.0179362
0.0167309
0.0156298
0.0146063
0.0136468
0.012754
0.011925
0.0111765
0.0105443
0.010047
0.00969117
0.00941765
0.000498464
0.000731834
0.00104504
0.0015335
0.00223548
0.00312136
0.00412367
0.0051857
0.00627821
0.0073975
0.00855241
0.00975765
0.0110284
0.0123809
0.0138316
0.0153971
0.0170933
0.0189364
0.0209393
0.0231069
0.0254109
0.0277523
0.0298765
0.0312401
0.0314036
0.030846
0.0304188
0.0307481
0.0321239
0.0344125
0.0367274
0.0377072
0.0367725
0.0344407
0.0323792
0.0304828
0.0286652
0.0269055
0.0252165
0.0236132
0.0221051
0.0206945
0.0193769
0.0181451
0.0169932
0.0159192
0.0149176
0.0139627
0.0130663
0.0122326
0.011484
0.0108512
0.0103675
0.0100229
0.00976069
0.00126821
0.00148234
0.00178618
0.00227927
0.00300307
0.00393278
0.00499951
0.00614149
0.00732571
0.0085451
0.00980762
0.0111281
0.0125234
0.0140108
0.0156079
0.017333
0.0192045
0.0212402
0.0234534
0.0258468
0.0283934
0.0309795
0.033309
0.0348045
0.0349788
0.0342149
0.0332846
0.032817
0.0331472
0.0341215
0.0351127
0.0351021
0.0333738
0.0314768
0.0300009
0.0284677
0.0270842
0.0257055
0.0243358
0.0229941
0.0216966
0.020453
0.0192659
0.0181345
0.0170567
0.0160332
0.015066
0.0141403
0.0132548
0.0124327
0.0116953
0.0110798
0.0106135
0.0102826
0.0100379
0.0020731
0.00226891
0.00256084
0.00305136
0.00378211
0.00473175
0.0058354
0.00702767
0.00827296
0.00956127
0.0108994
0.0123016
0.013785
0.015367
0.0170662
0.0189013
0.0208911
0.023052
0.0253971
0.0279288
0.0306124
0.0333187
0.035723
0.0372112
0.0372557
0.0361992
0.0348179
0.0336716
0.0330473
0.0329246
0.0328642
0.0321519
0.0305826
0.0287697
0.0273478
0.0264676
0.0254763
0.0244323
0.0233443
0.0222385
0.0211365
0.0200531
0.0189961
0.0179688
0.0169727
0.0160105
0.0150861
0.0142019
0.0133453
0.0125368
0.0118177
0.0112248
0.0107778
0.0104672
0.010238
0.00289382
0.00307417
0.00335394
0.00383261
0.00455548
0.00550419
0.00661568
0.00782928
0.00910531
0.0104314
0.0118127
0.0132622
0.0147961
0.0164323
0.0181883
0.020082
0.0221303
0.0243494
0.0267502
0.0293315
0.032052
0.0347708
0.0371448
0.0385288
0.0383758
0.0370021
0.0351302
0.0333587
0.0320004
0.0310742
0.0302689
0.0291726
0.0277194
0.0264451
0.0255072
0.0246668
0.0238924
0.0231632
0.0223446
0.0214448
0.0205129
0.0195723
0.0186343
0.0177056
0.0167893
0.0158896
0.0150122
0.0141619
0.0133466
0.0125583
0.0118602
0.011288
0.0108689
0.0105751
0.0103615
0.00371154
0.00387948
0.00414585
0.00460658
0.00530675
0.00623099
0.00732803
0.00853505
0.00981262
0.0111465
0.012539
0.0140023
0.0155511
0.0172016
0.0189696
0.0208716
0.0229225
0.0251357
0.0275201
0.0300703
0.0327402
0.0353815
0.0376432
0.0388548
0.0384532
0.0367384
0.034453
0.032191
0.0302994
0.028831
0.0276335
0.0264504
0.0252856
0.0244109
0.0238312
0.0233141
0.0227268
0.0220566
0.0213472
0.020659
0.01989
0.0190726
0.0182361
0.0173923
0.0165472
0.0157055
0.0148731
0.0140567
0.0132685
0.0125185
0.0118349
0.0112874
0.0108874
0.0106169
0.0104176
0.00450124
0.0046566
0.00490921
0.00534602
0.00601192
0.00689887
0.00795826
0.00913447
0.0103875
0.0117014
0.0130769
0.0145231
0.0160529
0.0176802
0.0194193
0.0212835
0.0232854
0.0254356
0.0277395
0.030189
0.032735
0.0352323
0.0373242
0.0383387
0.0377065
0.0357198
0.0331273
0.0305318
0.028293
0.0265498
0.0252259
0.0241671
0.0233789
0.0228913
0.0225685
0.0222247
0.0217818
0.02124
0.020618
0.0199385
0.019267
0.0185871
0.0178379
0.0170657
0.0162796
0.0154864
0.0146925
0.0139056
0.013137
0.0124217
0.011761
0.0112309
0.0108547
0.0106005
0.0104191
0.00522801
0.00537303
0.0056114
0.00602081
0.00664737
0.00748591
0.00849261
0.00961905
0.0108264
0.0120971
0.0134297
0.0148311
0.0163119
0.0178835
0.0195571
0.0213436
0.0232523
0.0252906
0.0274613
0.029753
0.0321198
0.0344254
0.0363304
0.0371562
0.0363473
0.0341855
0.0314011
0.0286472
0.0263223
0.0245501
0.0232963
0.0224984
0.0220657
0.0218587
0.0217059
0.0214691
0.0211058
0.020628
0.0200624
0.0194405
0.0187812
0.0180973
0.0174282
0.0167512
0.0160126
0.0152503
0.0144889
0.0137266
0.0129778
0.0122727
0.0116506
0.0111369
0.0107778
0.010546
0.0103777
0.00586995
0.00600506
0.00622981
0.00661452
0.00719733
0.0079773
0.0089236
0.00998459
0.0111285
0.0123367
0.0136054
0.0149394
0.0163461
0.0178346
0.019413
0.0210891
0.0228691
0.0247576
0.0267551
0.0288485
0.0309971
0.0330833
0.0347913
0.0354656
0.0345613
0.0323546
0.0295877
0.0268717
0.0245981
0.0229466
0.0219351
0.0214665
0.0213253
0.0212911
0.0212109
0.0210034
0.020664
0.0202134
0.0196759
0.0190756
0.0184355
0.0177732
0.0170889
0.0163902
0.0156798
0.0149814
0.0142708
0.013533
0.0127978
0.0121045
0.0114865
0.011008
0.0106785
0.0104602
0.0103061
0.00641251
0.00654192
0.00675325
0.00710929
0.00764745
0.0083673
0.00924052
0.0102278
0.0112957
0.012427
0.0136158
0.0148645
0.0161782
0.0175626
0.0190233
0.0205651
0.0221912
0.0239034
0.0256997
0.0275672
0.0294732
0.0313281
0.0328598
0.0334521
0.0325738
0.0304647
0.0278302
0.0252965
0.0232523
0.0218837
0.0211993
0.0210232
0.0210734
0.0211105
0.0210223
0.0207864
0.0204214
0.0199567
0.0194176
0.0188206
0.0181833
0.0175208
0.0168449
0.016159
0.0154597
0.0147433
0.0140208
0.0132932
0.0124885
0.0119361
0.0113342
0.0108751
0.0105627
0.0103601
0.0102192
0.00684519
0.00696594
0.00716293
0.00749148
0.00798208
0.00864097
0.00944038
0.0103473
0.0113321
0.012377
0.0134752
0.0146267
0.0158341
0.0171006
0.0184289
0.0198209
0.0212771
0.0227968
0.0243753
0.0260014
0.027656
0.0292781
0.0306525
0.0312122
0.0304471
0.0285628
0.0262119
0.023997
0.0223246
0.0213512
0.0210077
0.0210613
0.0211999
0.0212167
0.0210609
0.0207514
0.0203277
0.0198226
0.0192535
0.0186383
0.0179911
0.0173227
0.01664
0.0159487
0.0152492
0.014542
0.0138272
0.0131134
0.0124454
0.0117875
0.0109479
0.0107342
0.0104812
0.0102568
0.0101228
0.00714984
0.00726438
0.0074505
0.00774974
0.00819661
0.0087929
0.00951954
0.0103456
0.0112444
0.0121986
0.0132005
0.0142483
0.0153424
0.0164835
0.0176719
0.018907
0.0201866
0.0215076
0.0228637
0.0242464
0.0256491
0.0270477
0.0282752
0.0288428
0.0282719
0.0267198
0.024796
0.0230539
0.0218351
0.0212459
0.021193
0.0214028
0.0215592
0.0215026
0.021239
0.0208266
0.0203243
0.0197562
0.0191434
0.0184977
0.0178289
0.0171459
0.0164545
0.0157578
0.015055
0.0143443
0.0136281
0.012912
0.0122107
0.011582
0.0111195
0.010756
0.0104015
0.010073
0.010023
0.00733184
0.00744057
0.00761388
0.00788812
0.00829087
0.00882792
0.00948414
0.0102315
0.0110444
0.0119072
0.0128115
0.0137539
0.0147327
0.015747
0.0167947
0.0178729
0.0189774
0.020103
0.0212424
0.0223902
0.0235533
0.024743
0.0258521
0.0264654
0.0261562
0.0250392
0.0236173
0.0223874
0.0216364
0.0214253
0.0216073
0.0218965
0.0220167
0.0218575
0.021469
0.0209476
0.0203473
0.019707
0.0190427
0.0183618
0.0176689
0.0169689
0.0162655
0.0155612
0.0148551