/*--------------------------------*- C++ -*----------------------------------*\
  =========                 |
  \\      /  F ield         | OpenFOAM: The Open Source CFD Toolbox
   \\    /   O peration     | Website:  https://openfoam.org
    \\  /    A nd           | Version:  7
     \\/     M anipulation  |
\*---------------------------------------------------------------------------*/
FoamFile
{
    version     2.0;
    format      ascii;
    class       surfaceScalarField;
    location    "80";
    object      phi;
}
// * * * * * * * * * * * * * * * * * * * * * * * * * * * * * * * * * * * * * //

dimensions      [0 3 -1 0 0 0 0];

internalField   nonuniform List<scalar> 
34768
(
8.19246e-05
0.000970031
-0.000149647
-4.4595e-05
2.59359e-05
0.000920967
-1.58507e-05
1.08817e-05
0.000907476
-8.28867e-06
6.73751e-06
0.000904256
-5.36615e-06
4.6305e-06
0.00090354
-4.31149e-06
3.92834e-06
0.000903186
-3.64788e-06
3.53266e-06
0.000903117
-3.47596e-06
3.4535e-06
0.000903123
-3.169e-06
3.10287e-06
0.000903265
-3.26454e-06
3.03543e-06
0.000903327
-3.1284e-06
3.02494e-06
0.0009033
-3.0406e-06
3.25599e-06
0.00090328
-3.08873e-06
3.01848e-06
0.000903564
-3.26496e-06
3.20634e-06
0.000903551
-3.26404e-06
3.41509e-06
0.000903539
-3.38266e-06
3.3422e-06
0.000903829
-3.61836e-06
3.58547e-06
0.00090372
-3.56969e-06
3.74384e-06
0.000903811
-3.73534e-06
3.716e-06
0.000903903
-3.91453e-06
3.80142e-06
0.000904095
-4.20628e-06
4.7989e-06
0.000904087
-5.60986e-06
6.40788e-06
0.000905179
-5.27419e-06
4.41701e-06
0.000904852
-3.66832e-06
4.12552e-06
0.000904586
-5.40066e-06
-3.18173e-07
0.00090926
-7.60586e-07
1.324e-06
0.000908606
-1.23442e-06
8.79469e-07
0.000909413
-5.93163e-07
3.15644e-08
0.000909619
5.19439e-07
-8.16017e-07
0.000909351
1.16532e-06
-1.29114e-06
0.00090918
1.31268e-06
-1.3708e-06
0.000909121
1.36536e-06
-1.3566e-06
0.000909044
1.33533e-06
-1.33057e-06
0.000909048
1.26408e-06
-1.26391e-06
0.000909062
1.25306e-06
-1.25815e-06
0.000909067
1.25337e-06
-1.26412e-06
0.000909074
1.26607e-06
-1.28298e-06
0.00090908
1.29198e-06
-1.41541e-06
0.000909188
1.73198e-06
-1.16254e-06
0.000909896
6.87498e-07
-5.25652e-07
0.000910304
4.59225e-07
-4.0535e-07
0.000910314
4.48166e-07
-5.03265e-07
0.000910224
5.56735e-07
-6.22511e-07
0.000910236
6.88564e-07
-6.67497e-07
0.000910051
7.49282e-07
-8.45254e-07
0.000910069
9.47412e-07
-1.06626e-06
0.000909994
1.19618e-06
-1.34723e-06
0.000909927
1.51655e-06
-1.71479e-06
0.000909976
1.94281e-06
-2.3133e-06
0.000910049
2.53283e-06
-2.91893e-06
0.000910066
3.38699e-06
-4.06307e-06
0.000910258
4.67293e-06
-5.54357e-06
0.000910453
6.56647e-06
-7.6781e-06
0.000910596
8.70768e-06
-6.60233e-06
0.000907382
-4.12419e-06
-2.68628e-05
0.000940478
-0.000827809
0.000143732
0.000704052
-1.99061e-05
-0.000972632
-0.000148583
0.000116759
0.00100454
-0.000925114
-9.00269e-05
7.06206e-05
0.000944604
-0.000911648
-5.64524e-05
4.59903e-05
0.000922191
-0.000907247
-3.797e-05
3.19296e-05
0.000913367
-0.000905529
-2.71738e-05
2.34226e-05
0.000909358
-0.000904583
-1.98509e-05
1.76611e-05
0.000906849
-0.000904054
-1.5354e-05
1.35079e-05
0.000905973
-0.000903928
-1.1792e-05
1.05178e-05
0.000905272
-0.000903813
-9.39002e-06
8.33289e-06
0.000904936
-0.000903862
-7.27312e-06
6.64046e-06
0.000904557
-0.00090375
-5.77693e-06
5.11109e-06
0.000904474
-0.000903663
-4.59754e-06
3.9611e-06
0.000904353
-0.000903891
-3.36801e-06
3.03746e-06
0.000904272
-0.000903831
-2.6452e-06
2.20349e-06
0.000904316
-0.000903776
-2.09986e-06
1.73691e-06
0.000904176
-0.000903926
-1.41259e-06
1.22012e-06
0.000904146
-0.000903878
-1.1705e-06
9.43937e-07
0.000904124
-0.000903932
-8.64327e-07
6.98757e-07
0.000904105
-0.000903987
-7.86865e-07
7.79539e-07
0.00090399
-0.000904244
-5.31769e-07
5.78289e-07
0.000904178
-0.000904002
-8.92208e-07
1.89729e-07
0.000904671
-0.000907042
-3.42928e-07
3.19672e-06
0.000904139
-0.000903369
-2.07597e-06
-3.48793e-06
0.000908867
-0.000907872
2.2629e-06
-2.21449e-06
0.00090774
-0.000908325
2.22199e-06
-2.22814e-06
0.000908232
-0.000909595
2.14501e-06
-1.85601e-06
0.000909191
-0.000910075
1.63802e-06
-2.00225e-06
0.000910309
-0.000909492
2.26544e-06
-2.15889e-06
0.00090924
-0.000909288
1.84458e-06
-2.2502e-06
0.000909535
-0.000909062
2.28493e-06
-2.27113e-06
0.000908877
-0.000908922
2.04434e-06
-1.93858e-06
0.000908635
-0.000908927
1.71928e-06
-1.64938e-06
0.000908667
-0.000908968
1.41483e-06
-1.38646e-06
0.000908741
-0.000908993
1.34383e-06
-1.26309e-06
0.000908707
-0.000909022
1.16809e-06
-1.23901e-06
0.000908883
-0.000909054
1.19718e-06
-1.32444e-06
0.000908968
-0.000909491
1.44036e-06
-1.72732e-06
0.000909562
-0.000909732
2.30635e-06
-2.65913e-06
0.000909868
-0.000910077
2.50809e-06
-2.63173e-06
0.000909985
-0.000910327
2.55714e-06
-2.75916e-06
0.000910315
-0.000910384
2.97009e-06
-3.36065e-06
0.000910564
-0.000910353
3.67054e-06
-4.16548e-06
0.00091064
-0.000910337
4.59377e-06
-5.31629e-06
0.000910857
-0.000910345
5.89191e-06
-6.77721e-06
0.000911032
-0.000910389
7.54357e-06
-8.74498e-06
0.000911398
-0.000910589
9.76875e-06
-1.11693e-05
0.000911803
-0.000910779
1.25553e-05
-1.4488e-05
0.000912532
-0.000911219
1.64068e-05
-1.88919e-05
0.000913531
-0.00091182
2.16317e-05
-2.52523e-05
0.000915274
-0.00091299
2.94276e-05
-3.46855e-05
0.000918088
-0.00091502
4.11774e-05
-4.94726e-05
0.000923162
-0.000918788
6.04009e-05
-7.47117e-05
0.000932956
-0.000924547
9.42686e-05
-0.00012458
0.00095474
-0.000978373
0.000165598
-0.000143522
0.000956215
-0.000600054
8.48633e-05
0.000519478
-4.20687e-06
-0.00102216
-0.000134215
0.000131592
0.00102487
-0.000962987
-0.000111741
9.3491e-05
0.000981319
-0.00093343
-7.93822e-05
6.80701e-05
0.000944825
-0.000920661
-5.87902e-05
5.10612e-05
0.000928472
-0.000914398
-4.43996e-05
3.89677e-05
0.000919912
-0.000910825
-3.42019e-05
3.01395e-05
0.000914968
-0.000908309
-2.65893e-05
2.29282e-05
0.000912049
-0.000907289
-2.03193e-05
1.80667e-05
0.000909619
-0.000906423
-1.58523e-05
1.39033e-05
0.000908447
-0.000905932
-1.21249e-05
1.05507e-05
0.000907579
-0.000905414
-9.30417e-06
7.91901e-06
0.000906869
-0.000905307
-6.63158e-06
5.77819e-06
0.000906227
-0.000904972
-4.60441e-06
3.74304e-06
0.000905896
-0.000904785
-3.05169e-06
2.3558e-06
0.000905537
-0.000904728
-1.62519e-06
1.17776e-06
0.000905226
-0.000904391
-6.93885e-07
2.81619e-07
0.000904845
-0.000904367
1.64747e-07
-4.49656e-07
0.000904684
-0.000904252
6.65556e-07
-7.30523e-07
0.000904338
-0.000904244
1.12097e-06
-1.17112e-06
0.000904303
-0.000903944
9.41521e-07
-1.58346e-06
0.000904581
-0.000904952
1.93681e-06
-8.76497e-07
0.000903872
-0.000906191
2.95349e-06
-4.61467e-06
0.000907816
-0.00090801
4.10745e-06
-3.78158e-06
0.000907632
-0.000907828
3.18654e-06
-3.18812e-06
0.000907761
-0.000908041
3.07763e-06
-3.10605e-06
0.000907986
-0.000908555
2.71204e-06
-2.29739e-06
0.00090804
-0.00091054
1.70507e-06
-1.86553e-06
0.000910585
-0.000909046
1.93168e-06
-1.71808e-06
0.000908702
-0.000909686
1.26737e-06
-1.06837e-06
0.000909343
-0.000908672
9.84109e-07
-8.58702e-07
0.00090839
-0.000908376
4.60983e-07
-1.9588e-07
0.000907944
-0.000908446
-1.5864e-07
3.48573e-07
0.000908079
-0.000908489
-6.75898e-07
6.78921e-07
0.000908301
-0.000908722
-9.66274e-07
9.71134e-07
0.000908525
-0.000908873
-1.05854e-06
9.57407e-07
0.000908777
-0.000909039
-9.35777e-07
6.20711e-07
0.000909154
-0.00091022
1.68738e-08
-1.35054e-06
0.000911351
-0.000910022
1.21345e-06
-1.27681e-06
0.000909881
-0.000910142
1.5722e-06
-2.0714e-06
0.000910437
-0.000910586
2.41095e-06
-3.05938e-06
0.000911032
-0.000910964
3.55859e-06
-4.37343e-06
0.00091158
-0.000911292
5.15404e-06
-6.16108e-06
0.000912103
-0.000911692
7.15436e-06
-8.39117e-06
0.000912737
-0.0009122
9.74389e-06
-1.12668e-05
0.000913536
-0.00091277
1.28467e-05
-1.48394e-05
0.000914581
-0.000913691
1.68496e-05
-1.93378e-05
0.000916003
-0.00091491
2.20342e-05
-2.51089e-05
0.000917815
-0.000916883
2.86312e-05
-3.26935e-05
0.000920782
-0.000919873
3.74181e-05
-4.30457e-05
0.000925344
-0.000924966
4.95777e-05
-5.74368e-05
0.000932675
-0.000933701
6.66421e-05
-7.79541e-05
0.000944871
-0.000949765
9.16291e-05
-0.000108718
0.000966723
-0.000985346
0.000130685
-0.000155172
0.00100973
-0.000906363
0.000157822
-9.17685e-05
0.000840226
-0.00045897
4.89724e-05
0.000412927
-2.84052e-06
-0.00101423
-0.000100654
0.000120305
0.000994669
-0.000997919
-0.000114403
0.00010091
0.00101149
-0.000955976
-8.80844e-05
7.75009e-05
0.000966642
-0.000936509
-6.83914e-05
6.06393e-05
0.000944345
-0.000925831
-5.3813e-05
4.784e-05
0.000931889
-0.000919491
-4.25136e-05
3.78193e-05
0.00092427
-0.000915472
-3.35934e-05
2.98492e-05
0.000919301
-0.000912817
-2.65506e-05
2.35247e-05
0.000915927
-0.000910597
-2.06545e-05
1.76779e-05
0.000913658
-0.000909414
-1.56034e-05
1.34673e-05
0.000911633
-0.000908477
-1.13819e-05
9.80026e-06
0.00091014
-0.000907566
-8.13884e-06
6.64905e-06
0.000909134
-0.000906908
-5.26232e-06
4.0256e-06
0.000908219
-0.000906551
-2.77948e-06
1.8672e-06
0.000907532
-0.000905857
-1.04115e-06
2.3465e-07
0.000906727
-0.000905508
5.8826e-07
-1.3027e-06
0.000906277
-0.000905087
1.72979e-06
-2.15861e-06
0.000905561
-0.000904785
2.5978e-06
-2.94924e-06
0.00090517
-0.000904301
2.90466e-06
-3.68308e-06
0.000905101
-0.000904933
4.05787e-06
-3.16996e-06
0.000904053
-0.0009061
5.38999e-06
-7.11888e-06
0.000907823
-0.000907369
6.66766e-06
-6.58953e-06
0.000907268
-0.000907179
6.05673e-06
-5.65096e-06
0.000906735
-0.000907255
5.24524e-06
-4.52264e-06
0.000906477
-0.000908345
3.8399e-06
-3.8565e-06
0.000908291
-0.000907261
3.15124e-06
-2.49835e-06
0.00090652
-0.0009104
1.88433e-06
-1.58179e-06
0.000909995
-0.000908237
1.37493e-06
-8.68225e-07
0.000907613
-0.000908379
4.93451e-08
6.9677e-07
0.000907503
-0.000908462
-7.41141e-07
9.88628e-07
0.000908072
-0.000907519
-1.56152e-06
2.0208e-06
0.000906906
-0.000907734
-2.5497e-06
2.89945e-06
0.00090722
-0.000908072
-3.22367e-06
3.52591e-06
0.000907599
-0.000908416
-3.77707e-06
3.82645e-06
0.000908188
-0.000908798
-3.92116e-06
3.90701e-06
0.000908629
-0.000909313
-3.73425e-06
3.24785e-06
0.000909613
-0.000912357
-2.4008e-06
1.93427e-06
0.000912634
-0.000910245
-1.49948e-06
8.43224e-07
0.000910711
-0.000910967
-3.16062e-07
-4.35933e-07
0.000911529
-0.000911641
1.16684e-06
-2.22768e-06
0.000912513
-0.000912489
3.178e-06
-4.26556e-06
0.00091339
-0.00091324
5.45965e-06
-6.90328e-06
0.000914501
-0.000914243
8.47517e-06
-1.0114e-05
0.000915704
-0.000915371
1.20125e-05
-1.41065e-05
0.000917291
-0.000916732
1.6301e-05
-1.89342e-05
0.000919197
-0.000918598
2.16264e-05
-2.48183e-05
0.000921628
-0.000921345
2.81514e-05
-3.2073e-05
0.000925111
-0.000925328
3.62503e-05
-4.11437e-05
0.000930071
-0.000931325
4.65545e-05
-5.26575e-05
0.000937285
-0.000940614
5.96055e-05
-6.76025e-05
0.000948475
-0.000955916
7.66516e-05
-8.69229e-05
0.000966059
-0.000982422
9.82639e-05
-0.000112389
0.00099643
-0.00102452
0.000127098
-0.000131196
0.00102852
-0.00077101
0.000102544
-3.94806e-05
0.000707861
-0.000377197
2.97172e-05
0.000349269
-1.68723e-06
-0.000969889
-7.18451e-05
9.94628e-05
0.000942368
-0.00102193
-0.00010496
9.81683e-05
0.00102881
-0.000976564
-8.82948e-05
7.88367e-05
0.000986107
-0.000951824
-7.06249e-05
6.34887e-05
0.000959047
-0.000937957
-5.70152e-05
5.128e-05
0.000943781
-0.00092911
-4.60126e-05
4.1244e-05
0.000933968
-0.000923274
-3.68388e-05
3.29452e-05
0.000927258
-0.000919118
-2.92351e-05
2.58657e-05
0.000922578
-0.000916206
-2.28257e-05
2.00734e-05
0.00091905
-0.000914046
-1.7503e-05
1.50777e-05
0.000916563
-0.000912289
-1.23981e-05
1.02378e-05
0.00091454
-0.000910872
-8.40733e-06
6.66692e-06
0.0009127
-0.000909886
-4.73681e-06
3.38324e-06
0.000911323
-0.000908547
-2.0334e-06
6.40986e-07
0.000910018
-0.000907711
5.48788e-07
-1.69088e-06
0.000908925
-0.000907039
2.62944e-06
-3.22812e-06
0.000907701
-0.000906307
4.22112e-06
-4.68237e-06
0.000906822
-0.000905204
4.93011e-06
-6.15817e-06
0.000906474
-0.000905624
6.6595e-06
-5.85033e-06
0.000904844
-0.000906393
8.33837e-06
-1.03647e-05
0.000908433
-0.000907354
9.90069e-06
-9.94502e-06
0.000907398
-0.000906862
9.45034e-06
-8.9118e-06
0.000906306
-0.000906311
8.41855e-06
-7.70851e-06
0.000905568
-0.000905815
6.90551e-06
-6.19397e-06
0.000905054
-0.000907648
5.37392e-06
-4.72976e-06
0.000906938
-0.000905759
3.6812e-06
-2.69505e-06
0.00090469
-0.000909553
1.78044e-06
-1.22474e-06
0.000908899
-0.000906953
5.36991e-07
1.50767e-07
0.000906151
-0.000906789
-1.1884e-06
2.0042e-06
0.000905845
-0.000907533
-2.6229e-06
3.25713e-06
0.000906758
-0.00090627
-4.10334e-06
4.80425e-06
0.000905418
-0.000906713
-5.54756e-06
6.07527e-06
0.000906023
-0.000907261
-6.66697e-06
6.99883e-06
0.00090676
-0.000907929
-7.34647e-06
7.462e-06
0.000907637
-0.00090866
-7.58946e-06
7.47892e-06
0.00090859
-0.000910841
-7.17705e-06
6.03271e-06
0.000911801
-0.000912075
-5.29443e-06
5.20504e-06
0.000911979
-0.000911164
-4.71736e-06
3.98439e-06
0.000911711
-0.000912305
-3.14928e-06
2.16822e-06
0.000913102
-0.000913422
-1.17841e-06
-1.61072e-07
0.000914579
-0.000914751
1.41619e-06
-2.92483e-06
0.00091608
-0.000916039
4.46315e-06
-6.36525e-06
0.000917766
-0.000917659
8.21529e-06
-1.03419e-05
0.000919615
-0.000919517
1.26438e-05
-1.51426e-05
0.00092185
-0.000921869
1.77503e-05
-2.06848e-05
0.000924645
-0.000924852
2.37751e-05
-2.74405e-05
0.000928365
-0.000929137
3.11157e-05
-3.52169e-05
0.000933093
-0.000934889
3.96086e-05
-4.46039e-05
0.000939745
-0.00094336
4.99821e-05
-5.59617e-05
0.000949208
-0.000956044
6.19285e-05
-6.82103e-05
0.000962201
-0.000975022
7.5942e-05
-8.45906e-05
0.000983552
-0.00100849
9.4283e-05
-0.00010421
0.00101831
-0.00102366
0.000109276
-9.81295e-05
0.00101242
-0.000653864
6.24198e-05
-1.76793e-05
0.000609035
-0.000326938
1.92383e-05
0.000308893
-1.08074e-06
-0.000914202
-5.1388e-05
7.89778e-05
0.000886719
-0.00103243
-9.12498e-05
9.05608e-05
0.00103321
-0.000994414
-8.39926e-05
7.64414e-05
0.00100205
-0.000965966
-6.94081e-05
6.31235e-05
0.000972341
-0.000949888
-5.73421e-05
5.23597e-05
0.000954963
-0.000938723
-4.69661e-05
4.1956e-05
0.000943828
-0.00093134
-3.71011e-05
3.30958e-05
0.000935442
-0.000925996
-2.93024e-05
2.57979e-05
0.000929598
-0.000922094
-2.25744e-05
1.96076e-05
0.000925159
-0.000919096
-1.67923e-05
1.42086e-05
0.000921778
-0.000916817
-1.18594e-05
9.61981e-06
0.000919154
-0.000914859
-7.70204e-06
5.57398e-06
0.000917082
-0.000912985
-3.45707e-06
1.62703e-06
0.000914906
-0.000911604
9.3397e-08
-1.63796e-06
0.000913233
-0.00091014
3.06919e-06
-4.22944e-06
0.000911379
-0.000908949
5.57375e-06
-6.55223e-06
0.000909997
-0.0009073
7.1007e-06
-8.69441e-06
0.000908954
-0.000907179
9.64102e-06
-9.0307e-06
0.000906617
-0.00090761
1.21146e-05
-1.42595e-05
0.00090979
-0.000908007
1.39019e-05
-1.41997e-05
0.000908324
-0.0009069
1.37232e-05
-1.34258e-05
0.000906607
-0.000905967
1.29609e-05
-1.21678e-05
0.000905161
-0.000904774
1.12936e-05
-1.04315e-05
0.000903882
-0.000904109
9.34406e-06
-8.36713e-06
0.000903084
-0.000906048
7.54076e-06
-6.18328e-06
0.000904625
-0.000903473
4.71198e-06
-3.29875e-06
0.000901975
-0.000908135
1.90345e-06
-8.31496e-07
0.000906962
-0.000905058
-2.44642e-07
1.55974e-06
0.000903624
-0.0009048
-2.92388e-06
4.34745e-06
0.000903244
-0.000905945
-5.82854e-06
6.34616e-06
0.000905281
-0.000904509
-7.34836e-06
8.33755e-06
0.000903362
-0.000905302
-9.36051e-06
1.01402e-05
0.000904354
-0.000906374
-1.08311e-05
1.14298e-05
0.0009056
-0.000907396
-1.19111e-05
1.22193e-05
0.000906907
-0.000908708
-1.23066e-05
1.19169e-05
0.000908913
-0.000913377
-1.07068e-05
9.41968e-06
0.000914476
-0.000911935
-9.99126e-06
9.7861e-06
0.000911952
-0.000912637
-9.05778e-06
8.15628e-06
0.000913351
-0.0009142
-7.22865e-06
5.9318e-06
0.000915312
-0.000915853
-4.60601e-06
3.11446e-06
0.000917163
-0.000917641
-1.59021e-06
-1.98725e-07
0.000919252
-0.000919629
2.12955e-06
-4.22548e-06
0.000921552
-0.00092181
6.37503e-06
-8.89907e-06
0.000924168
-0.000924516
1.13937e-05
-1.41715e-05
0.000927134
-0.000927733
1.71456e-05
-2.0318e-05
0.000930753
-0.000931843
2.37176e-05
-2.73365e-05
0.000935317
-0.000937149
3.11139e-05
-3.53465e-05
0.000941243
-0.000944491
3.96749e-05
-4.37899e-05
0.000948476
-0.000953868
4.79467e-05
-5.33225e-05
0.00095912
-0.000968834
5.91094e-05
-6.53786e-05
0.000974987
-0.000991459
7.19366e-05
-7.92186e-05
0.000998632
-0.0010259
8.66246e-05
-9.21182e-05
0.00103129
-0.000997166
8.97653e-05
-7.21568e-05
0.000979469
-0.000572382
4.01907e-05
-1.01073e-05
0.000542212
-0.000293872
1.33963e-05
0.000281343
-7.48451e-07
-0.000860361
-3.77455e-05
6.24222e-05
0.000835798
-0.00103152
-7.74067e-05
8.10014e-05
0.00102802
-0.00100894
-7.76083e-05
7.17335e-05
0.0010149
-0.000978242
-6.56032e-05
5.98441e-05
0.000984095
-0.0009601
-5.46868e-05
4.98131e-05
0.000965072
-0.000948262
-4.5165e-05
4.09145e-05
0.000952612
-0.000940003
-3.68326e-05
3.30066e-05
0.000943931
-0.000934026
-2.93236e-05
2.60836e-05
0.000937369
-0.000928366
-2.19374e-05
1.80158e-05
0.000932392
-0.000924529
-1.37999e-05
1.10319e-05
0.000927402
-0.000921377
-8.37043e-06
5.90811e-06
0.000923943
-0.000918898
-3.649e-06
1.58091e-06
0.000921067
-0.000916935
1.81557e-07
-1.655e-06
0.000918507
-0.000914867
2.92048e-06
-4.60902e-06
0.000916648
-0.000913119
6.68663e-06
-8.27361e-06
0.000914792
-0.000910827
9.42698e-06
-1.15021e-05
0.00091298
-0.000910166
1.29192e-05
-1.26344e-05
0.000909949
-0.000910049
1.62615e-05
-1.78727e-05
0.000911715
-0.000910141
1.82757e-05
-1.92733e-05
0.000911181
-0.000908013
1.92651e-05
-1.91798e-05
0.000907954
-0.000906164
1.88893e-05
-1.83194e-05
0.000905604
-0.000904293
1.73339e-05
-1.65476e-05
0.000903499
-0.000902801
1.53797e-05
-1.40967e-05
0.000901492
-0.000902382
1.26143e-05
-1.12986e-05
0.000901019
-0.000902356
1.02393e-05
-8.1512e-06
0.000900202
-0.000900192
6.02853e-06
-4.04355e-06
0.000898119
-0.000905603
2.06936e-06
-4.34614e-07
0.000903862
-0.00090205
-1.31008e-06
3.19995e-06
0.000900035
-0.000900899
-5.22175e-06
7.21046e-06
0.000898771
-0.000905545
-9.45365e-06
1.0185e-05
0.000904658
-0.000902247
-1.15104e-05
1.28797e-05
0.00090071
-0.000903356
-1.42658e-05
1.53536e-05
0.00090209
-0.000904918
-1.64016e-05
1.7114e-05
0.000904021
-0.000906655
-1.77676e-05
1.80947e-05
0.000906138
-0.000909896
-1.8359e-05
1.78032e-05
0.000910259
-0.000914105
-1.66923e-05
1.67426e-05
0.00091386
-0.00091242
-1.64319e-05
1.5709e-05
0.00091295
-0.000914244
-1.48324e-05
1.36558e-05
0.00091523
-0.000916522
-1.25301e-05
1.10153e-05
0.000917851
-0.000918784
-9.55538e-06
7.71682e-06
0.000920441
-0.000921182
-5.93498e-06
3.78332e-06
0.000923158
-0.000923691
-1.68769e-06
-7.7224e-07
0.000925982
-0.000926628
3.18009e-06
-5.84638e-06
0.000929133
-0.000929936
8.57264e-06
-1.16607e-05
0.00093287
-0.000933925
1.47194e-05
-1.81431e-05
0.000937203
-0.000938892
2.15518e-05
-2.53322e-05
0.000942534
-0.000944965
2.79945e-05
-3.14437e-05
0.000948284
-0.000952793
3.58321e-05
-4.03005e-05
0.000957139
-0.000964403
4.5021e-05
-4.98352e-05
0.000969102
-0.000980697
5.5151e-05
-6.06065e-05
0.000986045
-0.00100523
6.6432e-05
-7.24041e-05
0.0010111
-0.00103465
7.77148e-05
-7.95151e-05
0.00103636
-0.000960913
7.28446e-05
-5.41695e-05
0.000942153
-0.000517155
2.79173e-05
-6.84938e-06
0.000496004
-0.000270641
9.86748e-06
0.000261453
-5.50385e-07
-0.000813005
-2.84954e-05
4.96569e-05
0.000791966
-0.00102295
-6.49153e-05
7.10836e-05
0.00101688
-0.00102012
-7.00845e-05
6.58443e-05
0.00102445
-0.000989536
-6.05771e-05
5.53345e-05
0.000994876
-0.000969831
-5.04606e-05
4.59153e-05
0.000974477
-0.000956923
-4.1534e-05
3.73849e-05
0.000961175
-0.000947672
-3.34475e-05
2.96057e-05
0.000951619
-0.000940788
-2.60609e-05
2.24962e-05
0.00094446
-0.000935509
-1.9324e-05
1.61277e-05
0.000938815
-0.000931466
-1.32144e-05
1.04813e-05
0.000934308
-0.000928026
-7.8234e-06
5.24215e-06
0.000930717
-0.000923328
-1.6124e-06
-2.03695e-06
0.000927084
-0.000920381
5.5934e-06
-9.0623e-06
0.000923955
-0.000917823
1.2019e-05
-1.38646e-05
0.000919768
-0.000915761
1.52895e-05
-1.59081e-05
0.000916474
-0.000915632
1.52771e-05
-1.29429e-05
0.000913384
-0.000914001
2.0777e-05
-2.30068e-05
0.000916309
-0.000912412
2.39438e-05
-2.49325e-05
0.000913466
-0.000911229
2.4793e-05
-2.47234e-05
0.000911212
-0.000908079
2.56026e-05
-2.58343e-05
0.000908347
-0.000904974
2.54068e-05
-2.47487e-05
0.000904336
-0.00090242
2.37095e-05
-2.24083e-05
0.000901118
-0.0009
2.08527e-05
-1.91252e-05
0.000898252
-0.000899317
1.7156e-05
-1.50907e-05
0.000897208
-0.000898143
1.30151e-05
-1.06089e-05
0.000895671
-0.000895795
7.91817e-06
-5.2182e-06
0.000893005
-0.000901845
2.4734e-06
-5.77441e-08
0.000899318
-0.000897743
-2.4557e-06
5.13046e-06
0.000894936
-0.000896499
-7.95487e-06
1.05515e-05
0.000893753
-0.000903099
-1.29932e-05
1.47267e-05
0.000901199
-0.000898995
-1.68604e-05
1.87783e-05
0.000896898
-0.000900738
-2.06183e-05
2.21057e-05
0.000899061
-0.000903099
-2.34753e-05
2.45473e-05
0.000901831
-0.000905653
-2.53011e-05
2.55636e-05
0.000905189
-0.000911397
-2.46267e-05
2.25193e-05
0.000913301
-0.000913355
-2.37614e-05
2.44207e-05
0.000912493
-0.000913648
-2.4094e-05
2.312e-05
0.000914423
-0.00091641
-2.20613e-05
2.06731e-05
0.000917605
-0.000919289
-1.93181e-05
1.76548e-05
0.000920765
-0.000922115
-1.5934e-05
1.37245e-05
0.000924144
-0.000925148
-1.1768e-05
9.34176e-06
0.000927403
-0.00092838
-6.87046e-06
4.25057e-06
0.000930836
-0.000931932
-1.48472e-06
-1.4164e-06
0.000934677
-0.000935868
4.46383e-06
-7.63709e-06
0.000938894
-0.00094061
1.06536e-05
-1.29662e-05
0.000942784
-0.000945131
1.6258e-05
-1.99695e-05
0.000948713
-0.000952231
2.37414e-05
-2.78335e-05
0.000956202
-0.000961537
3.1892e-05
-3.6162e-05
0.000965693
-0.000973881
4.06296e-05
-4.53173e-05
0.000978462
-0.000991281
5.0132e-05
-5.53192e-05
0.000996369
-0.00101661
6.10974e-05
-6.62785e-05
0.00102169
-0.00103674
6.97447e-05
-6.94805e-05
0.00103639
-0.000923826
6.14966e-05
-4.40078e-05
0.000906257
-0.000477746
2.22803e-05
-5.94552e-06
0.000461332
-0.000253485
7.48423e-06
0.000246558
-4.2057e-07
-0.000772747
-2.19893e-05
3.96247e-05
0.000755242
-0.00100962
-5.40465e-05
6.168e-05
0.00100208
-0.00102799
-6.28537e-05
5.9964e-05
0.00103098
-0.000999844
-5.55244e-05
5.07257e-05
0.00100474
-0.000979398
-4.6135e-05
4.21349e-05
0.0009835
-0.000965311
-3.77123e-05
3.35913e-05
0.000969536
-0.000955391
-2.94252e-05
2.54204e-05
0.000959503
-0.000948002
-2.11413e-05
1.76501e-05
0.000951603
-0.00094203
-1.4197e-05
1.08938e-05
0.000945445
-0.000937198
-7.7335e-06
4.7253e-06
0.00094032
-0.000933277
-1.86398e-06
-8.40536e-07
0.000936096
-0.000930126
3.28605e-06
-5.36049e-06
0.000932313
-0.000926323
8.29714e-06
-1.13658e-05
0.000929504
-0.00092287
1.32198e-05
-1.54988e-05
0.000925258
-0.000920776
1.89986e-05
-2.04436e-05
0.000922326
-0.000915191
2.05673e-05
-3.03404e-05
0.000925063
-0.000916922
3.07778e-05
-3.24284e-05
0.000918664
-0.000913987
3.3055e-05
-3.36209e-05
0.000914633
-0.000911342
3.39392e-05
-3.35622e-05
0.000911033
-0.000908702
3.26994e-05
-3.3488e-05
0.000909542
-0.000903419
3.39406e-05
-3.33789e-05
0.000902891
-0.00089972
3.20634e-05
-3.04061e-05
0.000898074
-0.000896299
2.84186e-05
-2.60936e-05
0.000893963
-0.000894838
2.34652e-05
-2.06536e-05
0.000891989
-0.000892874
1.77298e-05
-1.44346e-05
0.000889515
-0.000889812
1.07805e-05
-7.03971e-06
0.00088598
-0.000896385
3.21112e-06
2.67605e-07
0.000892789
-0.000891728
-3.869e-06
7.59696e-06
0.000887859
-0.000890636
-1.14733e-05
1.50868e-05
0.000886861
-0.000898891
-1.84932e-05
2.13594e-05
0.000895845
-0.000894578
-2.3999e-05
2.65459e-05
0.000891837
-0.000897267
-2.89875e-05
3.09432e-05
0.000895106
-0.000900627
-3.26954e-05
3.39597e-05
0.000899153
-0.000905057
-3.47326e-05
3.36476e-05
0.000905927
-0.000914312
-3.19033e-05
3.34229e-05
0.000912579
-0.00091209
-3.47613e-05
3.43885e-05
0.000912253
-0.000915296
-3.36814e-05
3.23798e-05
0.000916395
-0.000918921
-3.11656e-05
2.94976e-05
0.000920393
-0.000922681
-2.78382e-05
2.58616e-05
0.000924471
-0.000926213
-2.37114e-05
2.12783e-05
0.00092847
-0.000929789
-1.88888e-05
1.61432e-05
0.000932368
-0.000933616
-1.34586e-05
1.04384e-05
0.000936479
-0.000937725
-7.48829e-06
4.84929e-06
0.000940216
-0.00094126
-2.60008e-06
-6.74054e-07
0.000944395
-0.000946321
4.17897e-06
-7.76141e-06
0.000949774
-0.000952489
1.14747e-05
-1.53582e-05
0.000956252
-0.000960212
1.94843e-05
-2.41026e-05
0.000964718
-0.000970056
2.84387e-05
-3.34873e-05
0.000975
-0.0009831
3.90458e-05
-4.40193e-05
0.000987975
-0.00100192
4.84042e-05
-5.2176e-05
0.0010056
-0.00102673
5.51679e-05
-5.8484e-05
0.00102996
-0.00103341
6.01683e-05
-5.71974e-05
0.00103036
-0.000888778
4.71238e-05
-3.14749e-05
0.000873054
-0.00044787
1.47962e-05
-3.30154e-06
0.000436303
-0.000240473
5.79467e-06
0.000235143
-3.27365e-07
-0.000739154
-1.72372e-05
3.17977e-05
0.000724725
-0.000994071
-4.49525e-05
5.31399e-05
0.000985983
-0.00103328
-5.5504e-05
5.39502e-05
0.00103493
-0.00100939
-5.02861e-05
4.60082e-05
0.00101377
-0.000987808
-4.18564e-05
3.75589e-05
0.000992208
-0.000973571
-3.33416e-05
2.9178e-05
0.00097784
-0.000963359
-2.50417e-05
2.07101e-05
0.000967799
-0.000955517
-1.70272e-05
1.34605e-05
0.000959195
-0.000949312
-9.89269e-06
6.54736e-06
0.000952772
-0.000944236
-3.2024e-06
8.4115e-08
0.000947471
-0.000939003
3.86144e-06
-7.67165e-06
0.000942931
-0.000934822
1.16667e-05
-1.59311e-05
0.000939205
-0.00093118
1.90113e-05
-2.14135e-05
0.000933701
-0.000929249
2.32442e-05
-2.33529e-05
0.000929477
-0.000922755
2.40178e-05
-3.48658e-05
0.000933721
-0.00092489
3.4987e-05
-3.77315e-05
0.000927748
-0.000921008
4.00695e-05
-4.16137e-05
0.00092266
-0.00091583
4.32522e-05
-4.46761e-05
0.000917353
-0.000910908
4.59045e-05
-4.65625e-05
0.000911654
-0.000908611
4.6268e-05
-4.52554e-05
0.00090767
-0.000902687
4.51727e-05
-4.50354e-05
0.000902603
-0.000896344
4.36394e-05
-4.14544e-05
0.000894189
-0.000891382
3.88698e-05
-3.58513e-05
0.000888368
-0.000888763
3.23808e-05
-2.85742e-05
0.00088493
-0.000885665
2.449e-05
-2.00308e-05
0.000881149
-0.000881564
1.50112e-05
-9.85064e-06
0.000876313
-0.000888576
4.52303e-06
4.86652e-07
0.000883445
-0.000883385
-5.62045e-06
1.08747e-05
0.000877979
-0.000882594
-1.61906e-05
2.11273e-05
0.000877482
-0.000892341
-2.57359e-05
2.98387e-05
0.000888042
-0.000889135
-3.38106e-05
3.72398e-05
0.000885493
-0.000892772
-4.01261e-05
4.2643e-05
0.000890033
-0.000897837
-4.48212e-05
4.60851e-05
0.000896346
-0.000907242
-4.57823e-05
4.44046e-05
0.000908391
-0.000910532
-4.62456e-05
4.74058e-05
0.000909147
-0.000912835
-4.73579e-05
4.65323e-05
0.000913444
-0.00091755
-4.54113e-05
4.39564e-05
0.000918799
-0.000922149
-4.22598e-05
4.01823e-05
0.000924031
-0.000926654
-3.80017e-05
3.55957e-05
0.000928877
-0.000930913
-3.30135e-05
3.0258e-05
0.000933498
-0.000935218
-2.73481e-05
2.43049e-05
0.000938103
-0.000939275
-2.1976e-05
1.93335e-05
0.000941769
-0.000942923
-1.59399e-05
1.23648e-05
0.000946361
-0.00094803
-8.5747e-06
4.20655e-06
0.00095227
-0.000953693
-4.04415e-08
-4.69602e-06
0.00095831
-0.000960348
1.008e-05
-1.45411e-05
0.000964699
-0.000970282
1.76061e-05
-1.97009e-05
0.000972274
-0.000978239
2.28551e-05
-2.66601e-05
0.000981949
-0.000991469
3.02555e-05
-3.44164e-05
0.000995541
-0.00100995
3.87302e-05
-4.30206e-05
0.00101415
-0.00103339
4.7156e-05
-5.03566e-05
0.00103651
-0.001027
5.09873e-05
-4.71493e-05
0.00102309
-0.000858488
3.76861e-05
-2.43388e-05
0.000845071
-0.000426368
1.10745e-05
-2.39786e-06
0.000417627
-0.000230416
4.55614e-06
0.000226256
-2.60057e-07
-0.000711293
-1.36793e-05
2.58169e-05
0.000699285
-0.000977954
-3.73507e-05
4.54058e-05
0.000969996
-0.00103615
-4.86599e-05
4.80519e-05
0.00103685
-0.00101825
-4.50797e-05
4.14105e-05
0.00102202
-0.000996517
-3.71071e-05
3.30042e-05
0.00100072
-0.000981731
-2.87135e-05
2.4555e-05
0.000985994
-0.000971363
-2.00673e-05
1.63271e-05
0.000975211
-0.000963318
-1.25558e-05
8.97423e-06
0.000967011
-0.000957024
-5.24726e-06
1.81561e-06
0.000960571
-0.000950889
1.75953e-06
-5.87836e-06
0.000955127
-0.000946036
1.01299e-05
-1.45952e-05
0.000950623
-0.000941769
1.93913e-05
-2.29148e-05
0.000945417
-0.000938182
2.59176e-05
-2.81658e-05
0.000940558
-0.000934655
2.88399e-05
-3.00124e-05
0.000935956
-0.000934771
4.28122e-05
-4.51835e-05
0.000937273
-0.000930131
4.823e-05
-4.99109e-05
0.000931942
-0.00092529
5.16664e-05
-5.3698e-05
0.00092745
-0.00091889
5.62191e-05
-5.82995e-05
0.000921092
-0.000912585
5.9755e-05
-6.06689e-05
0.000913612
-0.000906764
6.11632e-05
-6.05512e-05
0.000906252
-0.00090319
5.89286e-05
-5.85934e-05
0.000902937
-0.000892225
5.85128e-05
-5.67787e-05
0.000890546
-0.000884918
5.37638e-05
-4.99987e-05
0.00088118
-0.000880271
4.53095e-05
-3.90567e-05
0.00087401
-0.000876489
3.13252e-05
-2.68848e-05
0.000872002
-0.000870221
2.12226e-05
-1.42099e-05
0.00086312
-0.000877397
6.73153e-06
5.27025e-07
0.000870011
-0.000871711
-7.9264e-06
1.53285e-05
0.000864144
-0.000871903
-2.25025e-05
2.7884e-05
0.000866328
-0.000882388
-3.20219e-05
3.99583e-05
0.000874233
-0.000881383
-4.66986e-05
5.149e-05
0.000876356
-0.000887268
-5.55445e-05
5.84133e-05
0.000884156
-0.000895623
-6.0175e-05
5.91684e-05
0.000896383
-0.000907812
-5.82147e-05
6.14475e-05
0.000904335
-0.000908401
-6.35868e-05
6.3624e-05
0.000908131
-0.000914376
-6.2774e-05
6.14572e-05
0.000915473
-0.000920497
-5.98046e-05
5.76886e-05
0.000922407
-0.000926174
-5.53999e-05
5.28338e-05
0.00092855
-0.000931457
-5.01513e-05
4.70577e-05
0.000934375
-0.000936528
-4.41059e-05
4.14489e-05
0.000939024
-0.000940449
-3.84305e-05
3.44699e-05
0.000944262
-0.000945491
-2.96809e-05
2.46067e-05
0.000950428
-0.000950471
-1.87064e-05
1.41996e-05
0.000954851
-0.000957995
-1.13731e-05
9.69618e-06
0.000959555
-0.000961111
-6.70349e-06
2.98853e-06
0.000964718
-0.000967669
3.68626e-07
-4.2309e-06
0.000971431
-0.00097574
8.16709e-06
-1.22882e-05
0.000979768
-0.000986042
1.63812e-05
-2.05553e-05
0.00099013
-0.00099964
2.47183e-05
-2.89734e-05
0.00100382
-0.00101841
3.31047e-05
-3.73297e-05
0.00102256
-0.0010392
4.10871e-05
-4.36255e-05
0.00104167
-0.00101882
4.33374e-05
-3.90729e-05
0.00101449
-0.000832648
3.02063e-05
-1.88437e-05
0.000821222
-0.000409963
8.32983e-06
-1.67955e-06
0.000403255
-0.000222497
3.59354e-06
0.000219253
-2.1199e-07
-0.000688211
-1.0971e-05
2.11134e-05
0.000678199
-0.000962177
-3.12558e-05