/*--------------------------------*- C++ -*----------------------------------*\
  =========                 |
  \\      /  F ield         | OpenFOAM: The Open Source CFD Toolbox
   \\    /   O peration     | Website:  https://openfoam.org
    \\  /    A nd           | Version:  7
     \\/     M anipulation  |
\*---------------------------------------------------------------------------*/
FoamFile
{
    version     2.0;
    format      ascii;
    class       volVectorField;
    location    "80";
    object      U;
}
// * * * * * * * * * * * * * * * * * * * * * * * * * * * * * * * * * * * * * //

dimensions      [0 1 -1 0 0 0 0];

internalField   nonuniform List<vector> 
17475
(
(1.01828 0.205799 -1.62864e-20)
(0.995996 0.0223727 -2.5785e-20)
(0.999788 0.00973609 0)
(0.999943 0.00488038 0)
(0.99998 0.00303891 0)
(0.999991 0.00207895 0)
(0.999994 0.00149352 0)
(0.999996 0.00109905 0)
(0.999997 0.000814794 -5.2909e-20)
(0.999997 0.000600283 0)
(0.999997 0.000432699 0)
(0.999997 0.000298842 0)
(0.999997 0.000190326 0)
(0.999998 0.000101842 0)
(0.999998 2.9753e-05 0)
(0.999998 -2.81018e-05 0)
(0.999998 -7.3495e-05 0)
(0.999998 -0.000107365 0)
(0.999998 -0.000130697 0)
(0.999998 -0.000143977 0)
(0.999999 -0.000148015 -2.04393e-19)
(0.999999 -0.000143302 5.25321e-22)
(0.999999 -0.000130782 0)
(1 -0.000111072 -6.47221e-21)
(1 -8.53461e-05 0)
(1 -5.46517e-05 -1.29856e-20)
(1 -2.10984e-05 0)
(1 1.43331e-05 0)
(1 4.98253e-05 -1.6306e-21)
(1 8.40419e-05 5.21352e-20)
(1 0.000115239 5.12885e-20)
(1 0.00014212 0)
(1 0.000163191 0)
(1 0.000177443 -5.16326e-20)
(1 0.000183741 -5.15428e-20)
(1 0.000181376 0)
(1 0.000169497 -3.99462e-22)
(1 0.000147558 0)
(1 0.000114771 5.07668e-20)
(1 7.0289e-05 2.53388e-20)
(1 1.32796e-05 -2.53071e-20)
(1 -5.7377e-05 0)
(1 -0.000143862 -2.53941e-20)
(1 -0.000249272 0)
(1 -0.000378504 -1.28368e-20)
(1 -0.000538854 0)
(1 -0.000741853 2.65058e-20)
(1 -0.00100582 0)
(0.999999 -0.00136111 0)
(0.999997 -0.00185925 0)
(0.999993 -0.00259002 0)
(0.999989 -0.00369435 -1.62826e-20)
(0.999954 -0.00538233 3.62294e-20)
(0.998952 -0.00294963 3.99557e-20)
(1.02905 -0.0897345 -3.92351e-20)
(0.871317 0.078814 1.75426e-20)
(1.10045 0.0971089 0)
(1.03495 0.0582426 0)
(1.01519 0.0370442 0)
(1.00802 0.0249585 -1.21389e-19)
(1.00487 0.017561 -1.15628e-19)
(1.00328 0.0126787 1.09241e-19)
(1.00237 0.00923972 0)
(1.0018 0.00668606 0)
(1.00143 0.0047125 0)
(1.00116 0.00313949 0)
(1.00097 0.00185844 0)
(1.00081 0.00079978 0)
(1.00069 -8.10675e-05 0)
(1.00058 -0.000813759 0)
(1.00048 -0.00141737 0)
(1.00039 -0.0019058 0)
(1.0003 -0.00228709 0)
(1.00022 -0.00256841 0)
(1.00014 -0.00275413 0)
(1.00006 -0.00284991 0)
(0.999985 -0.00286003 0)
(0.999912 -0.00278981 2.37564e-19)
(0.999849 -0.00264961 -5.95984e-20)
(0.999792 -0.0024452 -1.2126e-19)
(0.999743 -0.00218748 4.48324e-22)
(0.999705 -0.00189266 -1.55791e-20)
(0.999676 -0.00157288 0)
(0.99966 -0.00124159 -7.98358e-21)
(0.999655 -0.000914816 8.06873e-21)
(0.999662 -0.000606187 -1.30111e-19)
(0.999679 -0.000329933 1.33338e-19)
(0.999706 -9.84383e-05 0)
(0.999742 7.77493e-05 -2.66847e-19)
(0.999785 0.000188875 2.09898e-21)
(0.999837 0.000226756 2.69823e-19)
(0.999894 0.000184039 0)
(0.999959 5.43325e-05 1.36304e-19)
(1.00003 -0.000169632 0)
(1.00011 -0.00049793 -1.37178e-19)
(1.0002 -0.00093904 1.37697e-19)
(1.0003 -0.0015064 0)
(1.00042 -0.00221989 0)
(1.00057 -0.00310853 0)
(1.00076 -0.00421558 6.32107e-23)
(1.00102 -0.00560621 7.24298e-20)
(1.00137 -0.00738044 -7.38894e-20)
(1.00187 -0.00969595 -3.76258e-20)
(1.00264 -0.0128093 0)
(1.00385 -0.0171548 0)
(1.00588 -0.0235071 0)
(1.00942 -0.0333347 -4.19609e-20)
(1.01598 -0.0499439 4.33455e-20)
(1.02809 -0.07308 2.40934e-21)
(1.07033 -0.178245 2.79742e-21)
(0.610006 0.0196719 8.8377e-21)
(1.13948 0.106439 -1.27763e-20)
(1.07875 0.0753413 -5.30003e-20)
(1.04133 0.0541205 0)
(1.02489 0.0399187 0)
(1.01632 0.02983 -1.04846e-19)
(1.01143 0.0224211 0)
(1.00845 0.0168292 0)
(1.0065 0.0124932 0)
(1.00518 0.00904792 2.01706e-19)
(1.00422 0.00625389 0)
(1.0035 0.00395389 0)
(1.00293 0.00204157 0)
(1.00246 0.000447029 0)
(1.00206 -0.00087785 0)
(1.0017 -0.00196495 -2.07846e-19)
(1.00137 -0.00283603 0)
(1.00105 -0.00350572 0)
(1.00075 -0.00398491 0)
(1.00046 -0.00428209 0)
(1.00018 -0.00440558 4.51915e-19)
(0.99991 -0.00436406 0)
(0.999662 -0.00417085 1.76329e-19)
(0.999437 -0.00383727 -1.19922e-19)
(0.999241 -0.00338535 0)
(0.99908 -0.00283683 -3.09812e-20)
(0.99896 -0.00221816 0)
(0.998883 -0.00155758 3.95939e-20)
(0.998848 -0.000882494 2.40325e-20)
(0.998858 -0.00022563 0)
(0.998911 0.00038586 -1.1447e-19)
(0.999004 0.000923369 4.14129e-21)
(0.999133 0.00136236 -2.09104e-21)
(0.999295 0.00168221 -1.33734e-19)
(0.999484 0.00186465 1.34435e-19)
(0.999698 0.00189502 0)
(0.999934 0.00176077 2.63156e-19)
(1.00019 0.00145162 -2.7301e-19)
(1.00047 0.000955792 2.90991e-19)
(1.00078 0.00025998 0)
(1.00112 -0.00065032 3.45403e-20)
(1.00151 -0.00179811 -7.30718e-23)
(1.00197 -0.00321531 1.397e-19)
(1.00252 -0.00494884 -2.07676e-22)
(1.00323 -0.00706829 -7.04784e-20)
(1.00415 -0.00967617 0)
(1.00542 -0.0129263 0)
(1.00722 -0.0170513 3.62421e-20)
(1.0099 -0.0224098 -3.72014e-20)
(1.01406 -0.0295661 -5.34522e-22)
(1.02087 -0.039418 1.13957e-19)
(1.03253 -0.0534414 -7.77245e-20)
(1.05361 -0.073883 7.62345e-20)
(1.10001 -0.105636 0)
(0.962574 -0.117901 3.97636e-20)
(0.48138 0.00953413 0)
(1.11618 0.0898097 0)
(1.11528 0.0803099 2.2312e-20)
(1.06634 0.0609671 0)
(1.04299 0.0472273 9.55698e-20)
(1.02999 0.0367319 0)
(1.02198 0.0284831 0)
(1.01675 0.0218811 0)
(1.01318 0.0165153 0)
(1.01064 0.0120933 0)
(1.00876 0.00840756 0)
(1.00731 0.00530859 0)
(1.00614 0.00269225 1.97241e-19)
(1.00517 0.000485044 0)
(1.00432 -0.00136371 0)
(1.00355 -0.0028872 0)
(1.00284 -0.00410906 0)
(1.00216 -0.00504294 0)
(1.00151 -0.00569956 0)
(1.00088 -0.00608743 -2.18152e-19)
(1.00027 -0.00621491 0)
(0.999697 -0.00609429 0)
(0.999162 -0.0057377 -1.17341e-19)
(0.998682 -0.00517012 0)
(0.998271 -0.0044202 -1.835e-19)
(0.997939 -0.00352247 3.09837e-20)
(0.997697 -0.00251656 -1.26358e-19)
(0.997553 -0.00144852 2.50562e-22)
(0.997511 -0.000361021 6.50215e-20)
(0.997568 0.000691104 4.88924e-20)
(0.997722 0.00166718 1.3183e-19)
(0.997965 0.00251987 4.1535e-21)
(0.998289 0.0032127 0)
(0.998682 0.00371475 3.42872e-22)
(0.999133 0.00399987 0)
(0.999633 0.00404806 -1.2731e-19)
(1.00018 0.00384408 -1.36201e-19)
(1.00076 0.00337646 1.36232e-19)
(1.00138 0.00262909 2.74267e-19)
(1.00206 0.0015921 1.11611e-19)
(1.0028 0.000250897 -3.45012e-20)
(1.00363 -0.00141739 -6.90998e-20)
(1.00459 -0.00344887 0)
(1.00574 -0.00589353 0)
(1.00717 -0.00882472 -6.96375e-20)
(1.00902 -0.0123477 6.97569e-20)
(1.01149 -0.0166134 1.75302e-19)
(1.01492 -0.0218363 3.54611e-20)
(1.01985 -0.0283208 -2.15021e-22)
(1.02721 -0.0364961 -3.51616e-20)
(1.03862 -0.0469661 1.40628e-19)
(1.05699 -0.0605873 -1.04446e-19)
(1.08913 -0.0787346 9.93707e-20)
(1.13241 -0.100878 6.35589e-20)
(0.811901 -0.0598856 -1.86111e-20)
(0.401383 0.00538385 0)
(1.0615 0.068811 -1.954e-20)
(1.13866 0.0766393 3.85083e-20)
(1.08898 0.0615443 4.11315e-20)
(1.06012 0.0492945 4.29527e-20)
(1.04372 0.0394795 8.76745e-20)
(1.03321 0.0313162 -8.8953e-20)
(1.02605 0.0244453 -8.98918e-20)
(1.02097 0.0186166 0)
(1.01722 0.0136394 -1.83017e-19)
(1.01436 0.00936619 -3.70323e-19)
(1.0121 0.00568652 -1.87129e-19)
(1.01024 0.00251943 -1.89751e-19)
(1.00865 -0.000194332 0)
(1.00725 -0.00249438 0)
(1.00596 -0.00440715 0)
(1.00475 -0.00594707 -4.12841e-19)
(1.00359 -0.00712218 -4.61022e-21)
(1.00246 -0.00793756 -4.3132e-19)
(1.00136 -0.00839466 -2.18225e-19)
(1.0003 -0.00850184 -5.60315e-20)
(0.999289 -0.00826138 1.14625e-19)
(0.998349 -0.00769666 -1.16791e-19)
(0.997505 -0.00683438 1.20004e-19)
(0.996783 -0.00571269 0)
(0.996207 -0.00437852 -6.31795e-20)
(0.995797 -0.00288879 1.27808e-19)
(0.995567 -0.00131043 0)
(0.995525 0.00029312 -3.30781e-20)
(0.995668 0.0018402 -1.6613e-20)
(0.995986 0.00327406 -1.32983e-19)
(0.996468 0.00452465 1.26221e-20)
(0.997091 0.00554112 0)
(0.997834 0.0062819 1.43919e-19)
(0.998675 0.00671365 0)
(0.999593 0.00681331 0)
(1.00058 0.00656625 -2.72633e-19)
(1.00162 0.00596237 -6.8472e-20)
(1.00272 0.00498784 1.45382e-19)
(1.00388 0.0036428 1.28399e-19)
(1.00513 0.0019166 -1.54501e-19)
(1.00652 -0.000206426 -1.37431e-19)
(1.0081 -0.0027514 -1.71789e-19)
(1.00995 -0.00576079 1.03057e-19)
(1.0122 -0.00929295 1.36797e-19)
(1.01503 -0.0134311 -3.40116e-20)
(1.01873 -0.0182893 0)
(1.0237 -0.0240196 -6.79618e-20)
(1.03061 -0.0308199 -6.75716e-20)
(1.04052 -0.038943 -3.38154e-20)
(1.05521 -0.0486961 -3.24771e-20)
(1.07795 -0.0604786 -9.62633e-20)
(1.11588 -0.0750505 -6.03708e-20)
(1.1217 -0.0828552 0)
(0.692529 -0.0292005 1.00434e-19)
(0.352045 0.0033437 0)
(0.999441 0.0514137 0)
(1.14719 0.0693262 -6.93868e-20)
(1.10816 0.0591622 -7.40588e-20)
(1.07551 0.048357 0)
(1.05661 0.0394294 0)
(1.04427 0.0317114 8.16237e-20)
(1.03561 0.0249466 0)
(1.02927 0.0189934 0)
(1.02446 0.013741 0)
(1.02069 0.00910168 -1.76436e-19)
(1.01763 0.0050085 -1.79807e-19)
(1.01505 0.0014102 0)
(1.01281 -0.00172808 0)
(1.01078 -0.0044272 -4.04944e-21)
(1.00889 -0.00669629 0)
(1.00708 -0.00853715 8.01427e-19)
(1.00532 -0.0099447 8.25131e-19)
(1.00359 -0.0109096 -4.2496e-19)
(1.00189 -0.011428 2.14544e-19)
(1.00022 -0.0114853 2.77074e-19)
(0.998619 -0.0110907 -5.75157e-20)
(0.997128 -0.0102599 3.52532e-19)
(0.995784 -0.00902321 -6.03363e-20)
(0.994632 -0.0074277 6.91456e-22)
(0.993715 -0.00553381 -1.26204e-19)
(0.993073 -0.00342114 1.62232e-19)
(0.99273 -0.00118344 1.30687e-19)
(0.992698 0.00108933 -5.38301e-22)
(0.992975 0.0032778 6.73519e-20)
(0.993538 0.00530295 6.81031e-20)
(0.994368 0.00706803 0)
(0.995422 0.00850275 -1.23797e-19)
(0.996659 0.0095553 0)
(0.998039 0.0101863 0)
(0.999527 0.0103729 1.70869e-19)
(1.0011 0.010107 -1.36587e-19)
(1.00274 0.00938003 0)
(1.00443 0.00819335 8.51694e-21)
(1.00619 0.00655943 0)
(1.00806 0.00448014 0)
(1.01008 0.0019541 -1.53165e-19)
(1.01232 -0.00102712 1.70243e-20)
(1.01491 -0.00448475 1.20085e-22)
(1.01797 -0.00845566 -1.67123e-20)
(1.02174 -0.0129899 -1.66981e-19)
(1.02652 -0.0181558 -1.64431e-20)
(1.03278 -0.0240397 1.47406e-19)
(1.04121 -0.0307461 -1.29583e-19)
(1.05293 -0.0383912 0)
(1.06977 -0.0471191 6.15614e-20)
(1.09531 -0.0571817 7.69542e-22)
(1.13251 -0.0683543 -5.72017e-20)
(1.08799 -0.0650199 -8.69715e-20)
(0.611689 -0.0166632 0)
(0.318848 0.00230733 6.76961e-21)
(0.941369 0.0386461 -1.74809e-20)
(1.14399 0.0607339 3.18856e-20)
(1.12373 0.0553 0)
(1.08937 0.0458408 0)
(1.06853 0.0376834 -7.24451e-20)
(1.05484 0.0304525 0)
(1.04507 0.0239151 -1.54892e-19)
(1.03776 0.0179785 -1.58707e-19)
(1.03207 0.0125879 0)
(1.02751 0.00770047 -8.34599e-20)
(1.02373 0.00329046 1.7115e-19)
(1.02047 -0.000669101 -3.49504e-19)
(1.01756 -0.00418852 0)
(1.01488 -0.00726543 0)
(1.01232 -0.00988994 0)
(1.00983 -0.012044 -3.01524e-21)
(1.00736 -0.0137008 0)
(1.00489 -0.0148399 0)
(1.00242 -0.015419 2.11585e-19)
(0.999982 -0.015423 1.05161e-21)
(0.997619 -0.0148416 0)
(0.995391 -0.0136823 0)
(0.993367 -0.0119731 3.65021e-19)
(0.991624 -0.009768 2.50478e-19)
(0.990238 -0.0071425 3.23211e-20)
(0.989272 -0.00421666 0)
(0.988774 -0.00110766 2.67604e-19)
(0.988765 0.00205273 1.01347e-19)
(0.989239 0.00508798 -5.6051e-22)
(0.99016 0.00789014 0)
(0.991483 0.0103299 0)
(0.993138 0.0123047 8.752e-21)
(0.995053 0.0137558 0)
(0.997159 0.0146408 0)
(0.999396 0.0149427 2.74222e-22)
(1.00172 0.0146669 -2.72428e-19)
(1.0041 0.013808 -1.36395e-19)
(1.00651 0.0123994 1.35594e-19)
(1.00898 0.0104684 8.42243e-21)
(1.01153 0.00803797 -1.34305e-19)
(1.01423 0.00512703 2.62439e-22)
(1.01716 0.00174739 2.46549e-22)
(1.02046 -0.0020958 1.66735e-20)
(1.02428 -0.00641289 -1.15095e-19)
(1.02887 -0.0112234 0)
(1.03454 -0.0165554 -1.44744e-19)
(1.04179 -0.0224402 0)
(1.05132 -0.0289231 -6.21927e-20)
(1.06426 -0.0360576 0)
(1.08252 -0.0439233 5.93765e-20)
(1.10977 -0.0527097 -2.00126e-22)
(1.14009 -0.060755 -2.69946e-20)
(1.04708 -0.0506777 -8.54823e-20)
(0.556491 -0.0111469 4.22018e-20)
(0.295177 0.00168725 0)
(0.890962 0.0295258 -1.66103e-20)
(1.13301 0.0522299 0)
(1.13559 0.0507164 0)
(1.10197 0.0425362 3.19172e-20)
(1.07961 0.0349585 7.79286e-22)
(1.06493 0.0281229 0)
(1.05435 0.0217968 -7.0784e-20)
(1.04631 0.015906 -1.47406e-19)
(1.03995 0.0104218 0)
(1.03474 0.00533032 0)
(1.03031 0.000625707 0)
(1.02643 -0.00368757 0)
(1.02289 -0.00759446 -2.54586e-19)
(1.01954 -0.0110731 -8.68554e-20)
(1.01629 -0.014092 0)
(1.01305 -0.0166101 1.163e-20)
(1.00976 -0.0185862 2.87924e-19)
(1.00641 -0.0199467 -1.51189e-21)
(1.00301 -0.0206387 -1.05664e-19)
(0.99959 -0.0206113 0)
(0.996231 -0.019832 1.13456e-19)
(0.99302 -0.0182862 -8.79558e-22)
(0.99007 -0.0159919 1.2444e-19)
(0.987508 -0.0130062 0)
(0.985459 -0.00942169 -6.51664e-20)
(0.984038 -0.00540638 -6.79104e-20)
(0.983323 -0.00112372 1.38506e-19)
(0.983353 0.00323556 7.01388e-20)
(0.984116 0.0074118 -1.39729e-19)
(0.985555 0.0112501 0)
(0.98758 0.0145707 -1.7692e-20)
(0.990071 0.0172374 -1.40214e-19)
(0.992911 0.0191826 1.75043e-20)
(0.995983 0.0203662 3.13844e-22)
(0.999193 0.0207906 2.73372e-19)
(1.00247 0.0204768 1.36931e-19)
(1.00575 0.0194433 1.35537e-19)
(1.00901 0.0177618 -1.33999e-19)
(1.01227 0.0154842 0)
(1.01556 0.012661 1.40348e-19)
(1.01897 0.00933722 0)
(1.02258 0.00554926 0)
(1.02653 0.00132452 -1.30287e-19)
(1.03102 -0.00331658 0)
(1.03629 -0.00836846 6.29308e-20)
(1.04267 -0.0138251 1.24741e-19)
(1.05065 -0.0196959 3.1054e-20)
(1.06095 -0.0259914 -1.19897e-19)
(1.07473 -0.0327352 0)
(1.094 -0.0399949 5.72208e-20)
(1.12182 -0.0478325 0)
(1.14061 -0.0530832 -2.57039e-20)
(1.0063 -0.039642 5.60234e-20)
(0.515977 -0.00805611 0)
(0.277575 0.00127457 0)
(0.848493 0.0229268 -1.56668e-20)
(1.11767 0.044407 -2.69155e-20)
(1.14401 0.0458087 2.7371e-20)
(1.11354 0.0388635 -2.84622e-20)
(1.0901 0.0317115 -5.98187e-20)
(1.07463 0.0251408 0)
(1.06348 0.0189506 0)
(1.05492 0.0130634 0)
(1.04806 0.00746449 0)
(1.04235 0.00215202 1.4385e-19)
(1.03741 -0.00286397 0)
(1.03298 -0.00756119 -3.07567e-19)
(1.02885 -0.0119089 0)
(1.02487 -0.0158652 0)
(1.0209 -0.0193777 3.2352e-19)
(1.01686 -0.0223813 2.65325e-19)
(1.01265 -0.0247809 -9.59104e-20)
(1.00828 -0.0264893 -9.6881e-20)
(1.00374 -0.027405 1.01895e-19)
(0.999094 -0.0274266 4.31748e-19)
(0.994434 -0.0264803 2.28286e-19)
(0.989902 -0.0245137 -1.18275e-19)
(0.985673 -0.0215144 0)
(0.981953 -0.017533 1.45235e-21)
(0.978952 -0.0126786 6.67962e-20)
(0.976868 -0.00718622 -6.8279e-20)
(0.975838 -0.00129137 -1.78732e-19)
(0.975931 0.00472154 7.87565e-22)
(0.977126 0.0104607 0)
(0.979319 0.0156958 -7.18986e-20)
(0.98236 0.0201723 -1.43861e-19)
(0.986031 0.0237105 1.42521e-19)
(0.99014 0.0262409 -1.40899e-19)
(0.994503 0.0277412 -1.74465e-19)
(0.99898 0.028254 -2.74301e-19)
(1.00343 0.0278086 6.7961e-20)
(1.00779 0.026499 3.35466e-20)
(1.01203 0.0244334 0)
(1.01616 0.0217024 0)
(1.02025 0.0183912 -8.13261e-21)
(1.02436 0.0145752 2.56977e-19)
(1.02861 0.0103163 1.27654e-19)
(1.03316 0.00566535 0)
(1.03821 0.000667189 1.251e-19)
(1.04402 -0.00464977 3.04285e-20)
(1.05092 -0.0102724 -3.0589e-20)
(1.05943 -0.0161894 7.4032e-21)
(1.07027 -0.0223976 1.14209e-19)
(1.08465 -0.0289142 4.47703e-19)
(1.10466 -0.0357991 2.17516e-19)
(1.1318 -0.0428756 -5.16965e-20)
(1.13608 -0.0458159 -5.12994e-20)
(0.969228 -0.0313091 -8.45219e-20)
(0.486033 -0.00593627 1.69887e-19)
(0.26416 0.000976915 0)
(0.813168 0.0180379 -2.93881e-20)
(1.10042 0.0374807 2.46446e-20)
(1.14942 0.0408385 -2.42497e-20)
(1.12416 0.0350496 5.12011e-20)
(1.10021 0.0282251 5.47694e-20)
(1.08412 0.0218014 -1.13711e-19)
(1.07256 0.0156562 8.40825e-22)
(1.06366 0.0097073 -6.12097e-20)
(1.05646 0.00393608 -1.29143e-19)
(1.05039 -0.00165376 -1.32248e-19)
(1.04507 -0.00704202 0)
(1.04021 -0.0121987 1.4134e-19)
(1.03559 -0.0170807 0)
(1.03102 -0.0216311 -3.19475e-19)
(1.02637 -0.0257844 -3.85022e-20)
(1.02147 -0.029447 -1.68464e-19)
(1.01627 -0.0324849 2.67661e-19)
(1.01073 -0.034758 -3.7269e-19)
(1.00485 -0.0361091 0)
(0.998659 -0.0363663 2.10017e-19)
(0.992289 -0.0353647 -3.34221e-19)
(0.985958 -0.0330015 1.18594e-19)
(0.979929 -0.0291931 0)
(0.974529 -0.0239558 -1.31287e-19)
(0.970113 -0.017406 6.784e-20)
(0.967027 -0.00987449 1.46502e-19)
(0.965517 -0.00171197 1.47163e-19)
(0.965714 0.00663845 -1.50602e-19)
(0.967573 0.014563 0)
(0.97091 0.0217099 0)
(0.975449 0.0277001 1.84347e-19)
(0.98082 0.0323114 7.02378e-22)
(0.986695 0.0354872 -2.50111e-19)
(0.9928 0.0372636 -4.20871e-19)
(0.998907 0.037727 6.83537e-20)
(1.00481 0.0369693 -3.3788e-20)
(1.01045 0.0351913 0)
(1.01579 0.0325485 0)
(1.02088 0.0291852 1.12808e-19)
(1.02576 0.0252289 1.42004e-19)
(1.03055 0.0207866 -1.46563e-20)
(1.03538 0.0159508 0)
(1.04044 0.0107918 -1.21914e-19)
(1.04593 0.00535952 8.94574e-20)
(1.05214 -0.000305057 2.3678e-19)
(1.05943 -0.00617422 0)
(1.06829 -0.0122247 0)
(1.07949 -0.0184471 6.9108e-21)
(1.09427 -0.0248693 -1.61225e-19)
(1.11471 -0.0315491 1.56172e-19)
(1.13982 -0.0379794 -2.5366e-20)
(1.12866 -0.0391482 2.23164e-19)
(0.937374 -0.0249101 -2.23849e-19)
(0.464087 -0.00455122 3.59152e-19)
(0.253766 0.000760817 0)
(0.783912 0.0143385 -1.34332e-20)
(1.08288 0.0314837 3.33495e-20)
(1.15242 0.036004 -2.17019e-20)
(1.13391 0.0312454 -4.64426e-20)
(1.11008 0.0246928 -9.71097e-20)
(1.09354 0.0183241 -5.13165e-20)
(1.08172 0.0121417 -5.36381e-20)
(1.07262 0.00605946 0)
(1.06524 4.92694e-05 0)
(1.05898 -0.00588642 0)
(1.05341 -0.011727 0)
(1.04826 -0.0174464 6.40416e-20)
(1.04327 -0.0229926 -1.33559e-19)
(1.03823 -0.0283013 0)
(1.03295 -0.0333204 1.1321e-19)
(1.02725 -0.0378937 -7.68832e-20)
(1.02103 -0.0418572 5.36654e-21)
(1.0142 -0.0450344 1.81031e-19)
(1.00672 -0.0471828 3.46699e-21)
(0.998626 -0.0480338 2.0885e-19)
(0.990027 -0.0472752 -2.20171e-19)
(0.981213 -0.0446674 0)
(0.972595 -0.0400202 -1.29764e-19)
(0.964683 -0.0332413 -1.37455e-19)
(0.958076 -0.0244288 0)
(0.953409 -0.013993 -1.53043e-19)
(0.951135 -0.00254005 1.99516e-19)
(0.951506 0.00922116 4.06193e-20)
(0.954439 0.0202901 -2.19226e-19)
(0.959586 0.0301015 -7.90741e-20)
(0.966405 0.0380586 -1.33128e-19)
(0.974278 0.0439272 1.48417e-19)
(0.982658 0.0477206 0)
(0.991126 0.0495962 2.80705e-19)
(0.999298 0.0496907 -3.41071e-20)
(1.00698 0.048306 3.34036e-20)
(1.0141 0.0457319 0)
(1.02065 0.042209 3.19849e-20)
(1.0267 0.0379473 1.56777e-19)
(1.03236 0.0331217 0)
(1.03776 0.0278758 -1.20806e-19)
(1.04308 0.0223112 -1.18109e-19)
(1.04854 0.0165084 0)
(1.05434 0.0105351 1.14769e-19)
(1.0608 0.00443903 -5.66006e-20)
(1.06829 -0.00175261 0)
(1.07733 -0.00802195 -5.42424e-20)
(1.08871 -0.014365 -1.06586e-19)
(1.10375 -0.0208122 -1.03746e-19)
(1.12431 -0.0273885 5.04885e-20)
(1.14621 -0.0332501 1.44843e-19)
(1.11973 -0.0331809 9.6921e-20)
(0.910192 -0.0199334 -1.93502e-19)
(0.447268 -0.00351654 -1.24619e-19)
(0.245595 0.000604745 0)
(0.759698 0.0115002 0)
(1.06602 0.0263805 0)
(1.15361 0.03146 0)
(1.14285 0.0275747 0)
(1.1198 0.021265 0)
(1.103 0.0148913 0)
(1.09105 0.00861034 0)
(1.08191 0.00233488 9.90924e-20)
(1.07451 -0.00397347 0)
(1.06821 -0.0103191 -1.05245e-19)
(1.06258 -0.0166987 0)
(1.05732 -0.0230854 0)
(1.05214 -0.0294416 2.44073e-19)
(1.04681 -0.0357289 0)
(1.04104 -0.0418522 0)
(1.03468 -0.0476684 0)
(1.0275 -0.0529932 1.56054e-19)
(1.01934 -0.0575713 -1.62058e-19)
(1.01007 -0.061091 0)
(0.999677 -0.0631478 -9.90376e-20)
(0.988223 -0.0632476 -2.29271e-19)
(0.975975 -0.0608397 0)
(0.963548 -0.0555172 -1.29047e-19)
(0.95175 -0.0469541 3.01847e-21)
(0.941601 -0.0350978 -4.61089e-19)
(0.934274 -0.0204463 -1.67177e-19)
(0.930706 -0.00401314 -1.34155e-21)
(0.931391 0.0129345 -8.57955e-20)
(0.936166 0.0286971 1.06083e-20)
(0.94431 0.0422699 1.63835e-19)
(0.954762 0.0527375 1.96479e-20)
(0.966416 0.0599433 4.7322e-21)
(0.978402 0.0641185 -8.75097e-19)
(0.990011 0.0655718 2.09064e-19)
(1.00078 0.0647376 3.39658e-20)
(1.01056 0.0621698 6.55979e-20)
(1.01931 0.0582875 3.16943e-20)
(1.0271 0.0534444 3.04849e-20)
(1.03407 0.0479257 -3.60073e-19)
(1.04041 0.0419405 -3.48185e-19)
(1.04629 0.0356551 -4.69153e-19)
(1.05195 0.0291849 -1.13384e-19)
(1.05761 0.0226058 0)
(1.06354 0.0159825 2.7711e-20)
(1.07006 0.00936052 0)
(1.07759 0.00276169 -5.30358e-20)
(1.08667 -0.00380245 -5.19065e-20)
(1.09811 -0.0103429 -2.53996e-20)
(1.11326 -0.0168973 9.88921e-20)
(1.13358 -0.0234362 0)
(1.15133 -0.0288128 0)
(1.11033 -0.0279582 0)
(0.887325 -0.0160221 2.68134e-20)
(0.434374 -0.00273529 1.22728e-19)
(0.239129 0.00048261 0)
(0.739728 0.00931277 0)
(1.05044 0.0221211 8.79166e-21)
(1.15355 0.027336 1.66849e-20)
(1.15102 0.0241559 0)
(1.12942 0.0180752 0)
(1.11258 0.0116701 3.84374e-20)
(1.10063 0.00525389 0)
(1.09159 -0.00125027 8.55612e-20)
(1.08433 -0.00789171 0)
(1.07818 -0.0146945 -1.82289e-19)
(1.0727 -0.0216727 -4.67998e-20)
(1.06756 -0.0288167 1.97741e-19)
(1.06246 -0.0361111 4.35724e-19)
(1.05708 -0.0435779 -1.12914e-19)
(1.05114 -0.0510957 3.06024e-20)
(1.04438 -0.0585449 6.2449e-20)
(1.03647 -0.0657541 0)
(1.02713 -0.072443 0)
(1.01604 -0.078195 0)
(1.00302 -0.0824821 9.28442e-20)
(0.988013 -0.0845556 -1.12574e-19)
(0.971144 -0.0834417 -7.09217e-19)
(0.953054 -0.0781213 1.30083e-19)
(0.935038 -0.0677998 -2.99105e-19)
(0.91884 -0.0519122 -6.58496e-19)
(0.906741 -0.0309225 2.70837e-19)
(0.900817 -0.00651861 -1.90853e-19)
(0.902104 0.0186669 -1.89488e-19)
(0.910284 0.041798 -2.42641e-20)
(0.923734 0.0607443 -8.9308e-20)
(0.940215 0.0742493 -1.69496e-19)
(0.957729 0.0825157 -3.15266e-19)
(0.974843 0.0862373 -5.95115e-19)
(0.990537 0.0862033 1.3806e-19)
(1.00445 0.0834599 -1.34242e-19)
(1.01654 0.0788109 9.66877e-20)
(1.02693 0.0728793 -3.67136e-19)
(1.03586 0.0661331 -1.19684e-19)
(1.04357 0.0589044 -1.1442e-19)
(1.05034 0.0514214 2.26749e-19)
(1.05643 0.0438404 0)
(1.06216 0.0362746 -8.12419e-20)
(1.06779 0.0287893 0)
(1.07365 0.0214273 0)
(1.08007 0.0142097 5.21126e-20)
(1.08747 0.00714579 7.66287e-20)
(1.09642 0.000231124 4.93153e-20)
(1.10779 -0.00655904 4.79742e-20)
(1.12291 -0.0132677 4.65127e-20)
(1.14259 -0.0198008 0)
(1.15547 -0.0247715 -2.27542e-20)
(1.10109 -0.0234856 -4.56849e-20)
(0.868153 -0.0129582 1.06269e-19)
(0.424498 -0.00216763 -3.54435e-19)
(0.233876 0.000397017 0)
(0.723126 0.00765476 -9.26626e-21)
(1.03635 0.018639 0)
(1.15267 0.0237291 0)
(1.15852 0.0211025 2.92457e-20)
(1.13893 0.0152456 3.12486e-20)
(1.12227 0.00880731 -1.63803e-20)
(1.11046 0.00224815 0)
(1.10168 -0.00448373 1.77557e-20)
(1.09473 -0.0114555 -3.63461e-20)
(1.08894 -0.0187146 0)
(1.08386 -0.0262999 -3.85637e-20)
(1.07912 -0.0342448 -1.3365e-21)
(1.07441 -0.0425926 -3.19837e-20)
(1.06937 -0.0513621 2.05577e-20)
(1.0637 -0.060511 -3.66583e-21)
(1.05703 -0.0699909 1.0794e-19)
(1.04892 -0.0796643 0)
(1.03886 -0.0893066 2.49677e-19)
(1.02635 -0.0985108 3.38888e-22)
(1.01077 -0.106593 0)
(0.991687 -0.112591 -2.81424e-19)
(0.968882 -0.115011 -1.07769e-19)
(0.94256 -0.111745 5.13689e-19)
(0.914315 -0.100654 3.1623e-21)
(0.887207 -0.0799061 0)
(0.86581 -0.0490457 1.87013e-19)
(0.85511 -0.0110389 -1.14789e-19)
(0.85774 0.0285889 1.08505e-19)
(0.872826 0.0639017 -4.12185e-19)
(0.896343 0.0904391 1.84254e-19)
(0.923246 0.106919 3.48637e-19)
(0.949918 0.114851 6.27476e-19)
(0.974029 0.115998 -1.43011e-19)
(0.99475 0.112541 -1.50319e-19)
(1.0121 0.106209 1.26696e-19)
(1.02642 0.0981678 -4.80469e-19)
(1.03815 0.0892149 3.55466e-19)
(1.04777 0.0798512 1.13324e-19)
(1.05573 0.0704005 0)
(1.06249 0.0610753 1.57161e-19)
(1.06844 0.0519875 -4.97487e-20)
(1.07392 0.0431911 0)
(1.07927 0.0347101 -9.9497e-20)
(1.08481 0.0265475 -9.98411e-20)
(1.09091 0.0187006 9.7086e-20)
(1.09799 0.0111492 -2.41946e-19)
(1.10668 0.00386515 -9.54462e-20)
(1.11783 -0.00319218 4.62002e-20)
(1.13275 -0.0100688 4.48069e-20)
(1.1514 -0.0165957 -2.16946e-20)
(1.15887 -0.0212163 -6.39588e-20)
(1.0922 -0.01972 1.08312e-20)
(0.851586 -0.0105381 -1.27632e-20)
(0.416055 -0.00176343 0)
(0.229513 0.000347753 0)
(0.70922 0.00643287 0)
(1.02372 0.0158949 -1.24322e-20)
(1.15129 0.0207221 0)
(1.16541 0.0185275 -1.19181e-20)
(1.14832 0.0129001 1.24532e-20)
(1.1321 0.00645815 2.59885e-20)
(1.12055 -0.000208377 0)
(1.11215 -0.00712992 5.54602e-20)
(1.10568 -0.0143905 0)
(1.10045 -0.0220629 -1.18269e-19)
(1.09601 -0.0302176 -6.08492e-20)
(1.09199 -0.0389356 -1.96249e-21)
(1.08807 -0.0482713 -6.92811e-20)
(1.08388 -0.0583811 6.76221e-20)
(1.07909 -0.0692752 7.3811e-20)
(1.07326 -0.0810321 -3.56967e-20)
(1.06584 -0.0936644 -1.30207e-19)
(1.05616 -0.107112 -4.18858e-20)
(1.04329 -0.121126 1.07244e-19)
(1.02618 -0.135209 0)
(1.00351 -0.148246 -1.62457e-20)
(0.973905 -0.158322 1.83944e-19)
(0.936525 -0.16217 0)
(0.891636 -0.154538 0)
(0.843648 -0.129557 3.8628e-19)
(0.802209 -0.083134 -2.26313e-21)
(0.780642 -0.0196561 1.02117e-20)
(0.78658 0.047873 -5.23685e-19)
(0.817425 0.104677 4.75763e-19)
(0.861623 0.141237 4.0752e-19)
(0.907018 0.158116 7.10091e-19)
(0.947254 0.161056 5.28425e-19)
(0.980149 0.155298 2.82505e-19)
(1.00622 0.145008 0)
(1.02649 0.132605 0)
(1.04212 0.119468 2.83599e-19)
(1.05418 0.106347 8.76478e-22)
(1.0636 0.0936661 -1.09365e-19)
(1.07112 0.0815995 -9.88359e-20)
(1.07728 0.0702107 -1.95174e-19)
(1.08259 0.0594951 1.44961e-19)
(1.08741 0.0494158 0)
(1.0921 0.0399338 4.72586e-20)
(1.09704 0.0309928 -4.60701e-20)
(1.10257 0.0225404 0)
(1.10914 0.0145295 0)
(1.11738 0.00690235 -1.37173e-21)
(1.12817 -0.000398653 0)
(1.14271 -0.00742486 0)
(1.15996 -0.0139332 -2.97832e-22)
(1.16176 -0.0182629 0)
(1.08404 -0.0167128 -6.19324e-20)
(0.837562 -0.00870916 0)
(0.408721 -0.00142556 -9.08507e-20)
(0.225781 0.000313902 0)
(0.697466 0.00559495 1.54586e-21)
(1.01254 0.0138506 1.23998e-21)
(1.14968 0.0183746 0)
(1.17177 0.016522 1.15587e-21)
(1.15753 0.0111337 0)
(1.14196 0.00473587 0)
(1.13079 -0.00197786 0)
(1.12289 -0.00901045 0)
(1.11705 -0.0164585 0)
(1.11258 -0.0244168 0)
(1.10903 -0.0329868 0)
(1.10606 -0.0422819 0)
(1.10333 -0.0524871 6.7227e-20)
(1.10055 -0.0637648 -2.46305e-20)
(1.09737 -0.0762696 -4.94567e-20)
(1.09337 -0.0902364 -4.8858e-20)
(1.08796 -0.105927 4.7384e-21)
(1.08035 -0.123622 -4.08856e-20)
(1.0694 -0.143552 -2.10539e-21)
(1.05346 -0.165785 1.81105e-19)
(1.0301 -0.18996 -1.38551e-19)
(0.995869 -0.214552 0)
(0.946385 -0.235912 1.82773e-19)
(0.877039 -0.245205 -1.1571e-18)
(0.787955 -0.225077 7.65835e-19)
(0.698344 -0.155685 5.21116e-19)
(0.648548 -0.0383962 2.16231e-18)
(0.663501 0.0914474 0)
(0.735175 0.188877 1.05563e-18)
(0.825061 0.233391 -1.55683e-18)
(0.90225 0.238629 -4.8322e-19)
(0.959833 0.224928 -1.40392e-19)
(1.00108 0.204248 -7.71907e-19)
(1.03021 0.181969 3.24173e-21)
(1.0508 0.160433 7.2399e-19)
(1.0655 0.140554 -5.40577e-20)
(1.07618 0.122478 2.95084e-19)
(1.08407 0.106134 9.52811e-20)
(1.09006 0.0913306 1.81701e-19)
(1.09482 0.0778819 0)
(1.09882 0.0656138 4.53717e-20)
(1.1025 0.05436 8.23548e-20)
(1.1062 0.0439807 8.37968e-20)
(1.11023 0.034367 -4.31401e-20)
(1.11497 0.0254142 1.47678e-19)
(1.12085 0.0170331 -3.95269e-20)
(1.1285 0.00913598 -1.67751e-19)
(1.13881 0.0016538 -1.98483e-20)
(1.15281 -0.00546836 -3.97695e-20)
(1.1683 -0.0119117 -3.80817e-20)
(1.16422 -0.0159659 1.95645e-20)
(1.07651 -0.0144282 2.01049e-20)
(0.82545 -0.00742092 6.66399e-22)
(0.402525 -0.00124451 4.43328e-20)
(0.222097 0.000335208 2.58388e-20)
(0.687007 0.00512695 -3.71108e-20)
(1.00239 0.012476 6.24216e-23)
(1.14788 0.0167117 1.34485e-20)
(1.17762 0.0151391 -1.3277e-20)
(1.16649 0.0100148 -1.34939e-20)
(1.15176 0.00373723 0)
(1.14106 -0.00292664 -5.5833e-23)
(1.13374 -0.00995044 -6.67436e-21)
(1.12864 -0.0174369 3.18032e-21)
(1.12507 -0.0254979 -3.03772e-21)
(1.1226 -0.0342518 -2.94771e-21)
(1.12093 -0.0438587 1.53182e-21)
(1.11979 -0.0545491 4.31998e-21)
(1.11894 -0.0665437 1.17648e-20)
(1.11812 -0.0801299 2.00278e-20)
(1.11701 -0.095734 4.90481e-20)
(1.11516 -0.113871 1.26818e-20)
(1.11187 -0.135252 0)
(1.10611 -0.160891 0)
(1.09629 -0.191963 -2.30475e-20)
(1.07939 -0.230059 4.06609e-20)
(1.0501 -0.276903 -1.48548e-19)
(0.998608 -0.333199 1.16213e-19)
(0.905773 -0.394577 -1.84049e-19)
(0.742308 -0.425045 0)
(0.52083 -0.335786 3.30602e-18)
(0.38751 -0.0868344 -1.1646e-18)
(0.429312 0.20741 -5.22401e-18)
(0.624826 0.38556 2.13363e-18)
(0.817911 0.406011 0)
(0.938833 0.357066 -1.04487e-18)
(1.00738 0.303458 4.10428e-19)
(1.04763 0.256242 3.74962e-19)
(1.07221 0.217037 1.83155e-19)
(1.0877 0.184692 1.74682e-19)
(1.09776 0.15771 2.56261e-19)
(1.10452 0.134841 0)
(1.10908 0.115201 -6.11908e-20)
(1.11232 0.0980933 4.81971e-19)
(1.11484 0.0829908 0)
(1.11693 0.0695171 -1.06692e-21)
(1.11899 0.0573955 -1.89711e-20)
(1.12131 0.0463876 -5.85095e-20)
(1.12417 0.036315 -1.92936e-20)
(1.12791 0.0270409 3.74466e-20)
(1.13294 0.0184393 -1.89434e-20)
(1.13986 0.0104035 -1.92251e-20)
(1.14956 0.00283969 -7.09117e-22)
(1.16286 -0.00429382 1.40615e-20)
(1.17634 -0.0106171 1.30978e-20)
(1.16639 -0.0144038 -2.63389e-20)
(1.06977 -0.0128883 -3.74867e-20)
(0.815072 -0.00663785 -2.20877e-20)
(0.397209 -0.00118667 -4.11064e-20)
(0.214002 0.000404895 -2.72314e-19)
(0.674449 0.0049709 0)
(0.99147 0.011616 -7.56137e-20)
(1.14544 0.0156346 6.79803e-20)
(1.18294 0.0143636 6.52317e-20)
(1.17517 0.00957922 0)
(1.16138 0.00353081 6.08374e-20)
(1.15119 -0.00295699 0)
(1.14447 -0.00982496 0)
(1.14016 -0.0171645 2.27186e-20)
(1.13756 -0.0250839 0)
(1.13627 -0.0337194 -1.05736e-20)
(1.13605 -0.0432541 -4.25052e-22)
(1.1367 -0.0539213 4.24794e-23)
(1.1381 -0.0659755 -1.03107e-21)
(1.14014 -0.0797749 -2.7091e-21)
(1.1427 -0.0958226 -3.92154e-21)
(1.14565 -0.114819 -2.93219e-21)
(1.1488 -0.137764 9.35131e-21)
(1.15183 -0.166234 -2.04522e-20)
(1.15419 -0.202564 1.11883e-19)
(1.15457 -0.250747 -4.11555e-20)
(1.15066 -0.317702 0)
(1.13774 -0.41993 0)
(1.0786 -0.57923 3.87939e-19)
(0.815436 -0.669995 0)
(0.213705 -0.362659 5.13996e-17)
(0.358549 0.452051 -1.27977e-19)
(0.903244 0.657337 -6.37493e-20)
(1.08855 0.487846 -2.15098e-19)
(1.11537 0.367762 2.17773e-19)
(1.12761 0.290982 5.10388e-19)
(1.1336 0.237379 3.94687e-19)
(1.1364 0.197328 -7.80878e-20)
(1.13745 0.165865 5.74374e-23)
(1.13765 0.140244 1.92408e-20)
(1.13734 0.118793 5.62429e-23)
(1.13683 0.100477 -6.78111e-20)
(1.13635 0.0845532 1.58222e-20)
(1.13607 0.0705198 -3.43445e-20)
(1.13619 0.0580153 -1.77613e-20)