/*--------------------------------*- C++ -*----------------------------------*\
  =========                 |
  \\      /  F ield         | OpenFOAM: The Open Source CFD Toolbox
   \\    /   O peration     | Website:  https://openfoam.org
    \\  /    A nd           | Version:  7
     \\/     M anipulation  |
\*---------------------------------------------------------------------------*/
FoamFile
{
    version     2.0;
    format      ascii;
    class       volScalarField;
    location    "69";
    object      k;
}
// * * * * * * * * * * * * * * * * * * * * * * * * * * * * * * * * * * * * * //

dimensions      [0 2 -2 0 0 0 0];

internalField   nonuniform List<scalar> 
12842
(
0.00569816
0.00512414
0.00475228
0.0045038
0.00432903
0.00420379
0.00411484
0.00404563
0.00399812
0.00396112
0.00393948
0.00392187
0.00391833
0.00392425
0.00393624
0.00395388
0.00396791
0.00398473
0.00400325
0.0040212
0.00403783
0.00404907
0.00405865
0.00568228
0.00508875
0.00472425
0.00449324
0.00432554
0.00420346
0.00411491
0.0040458
0.00399789
0.00396088
0.00393935
0.003922
0.00391886
0.00392577
0.00393998
0.00395582
0.00397417
0.00398784
0.00400802
0.00402404
0.00403976
0.00404961
0.00405846
0.00565964
0.00504652
0.00466286
0.00443452
0.00428239
0.0041752
0.00409388
0.0040309
0.00398655
0.00395366
0.00393453
0.00391987
0.00392049
0.00392876
0.00394403
0.00396032
0.00397922
0.0039952
0.00401249
0.00402952
0.00404324
0.00405284
0.00406064
0.00561489
0.00501982
0.00463656
0.00440841
0.00426221
0.00416125
0.00408309
0.00402355
0.00398113
0.00395026
0.00393282
0.00391819
0.00392011
0.00393077
0.00394767
0.00396479
0.00398108
0.00399994
0.00402059
0.00403334
0.00404702
0.00405569
0.00406282
0.00557615
0.00494344
0.00457944
0.00436435
0.00422114
0.00412961
0.00405668
0.00400613
0.00396898
0.00394194
0.00392823
0.00391615
0.00391973
0.0039336
0.00395351
0.00397196
0.00398635
0.00400311
0.0040272
0.00404315
0.00405311
0.0040616
0.00406653
0.00553746
0.00491542
0.00453743
0.00432698
0.00419349
0.00410895
0.00404215
0.00399389
0.00396084
0.00393719
0.00392533
0.00391491
0.00391952
0.00393558
0.0039568
0.00397638
0.00399299
0.00400849
0.00403164
0.00404856
0.00405811
0.00406689
0.00407108
0.00548931
0.00484759
0.00449201
0.00429375
0.00416589
0.00408583
0.00402056
0.00397838
0.00394897
0.00392867
0.00392043
0.00391313
0.00391934
0.00393933
0.00396193
0.0039819
0.00399886
0.00401436
0.00403738
0.00405601
0.00406524
0.00407184
0.00407597
0.0054571
0.00481958
0.00445337
0.00426078
0.00413811
0.00406517
0.00400432
0.00396508
0.00393921
0.00392245
0.00391548
0.00391131
0.00391883
0.00394049
0.00396525
0.00398534
0.00400466
0.00401976
0.00404205
0.0040592
0.00406891
0.00407673
0.00408074
0.00540181
0.00476513
0.00441899
0.0042365
0.00412024
0.00404879
0.00398856
0.00395268
0.00392896
0.00391507
0.00391065
0.00390916
0.00391818
0.00394255
0.00396928
0.00398919
0.00400945
0.00402503
0.00404678
0.00406459
0.00407366
0.00408005
0.00408431
0.00537972
0.00472676
0.00438183
0.00421037
0.00409858
0.00403324
0.00397522
0.00394266
0.00392108
0.00390951
0.00390642
0.00390712
0.00391707
0.00394403
0.0039717
0.00399115
0.00401194
0.00402758
0.00404965
0.0040667
0.00407775
0.00408376
0.00408886
0.00531472
0.00467905
0.00435127
0.00418811
0.00408304
0.0040201
0.00396361
0.00393315
0.0039133
0.00390382
0.00390248
0.00390485
0.00391631
0.00394598
0.00397422
0.00399394
0.00401507
0.00403155
0.00405298
0.00407072
0.00408211
0.00408736
0.00409317
0.00529144
0.00464051
0.00431811
0.00416696
0.00406498
0.00400716
0.00395168
0.00392496
0.00390632
0.00389888
0.00389876
0.00390234
0.00391484
0.00394762
0.00397632
0.00399569
0.0040167
0.00403451
0.00405688
0.00407493
0.00408786
0.00409315
0.00409765
0.00522988
0.00459909
0.00429145
0.00414587
0.00404959
0.00399526
0.00394226
0.00391695
0.00390001
0.00389458
0.00389531
0.00389978
0.00391391
0.00394917
0.00397794
0.003998
0.00401958
0.00403894
0.00406104
0.00407956
0.00409311
0.00410013
0.00410412
0.00520758
0.00456439
0.00426195
0.00412745
0.00403529
0.00398498
0.00393225
0.00391115
0.00389453
0.00389104
0.00389204
0.00389722
0.00391333
0.00395095
0.00398022
0.00400011
0.00402175
0.00404333
0.00406703
0.00408555
0.00409844
0.00410682
0.00411067
0.00515114
0.004529
0.00423968
0.00410871
0.0040209
0.00397437
0.0039251
0.00390537
0.00389014
0.00388831
0.0038889
0.00389471
0.00391294
0.00395384
0.00398199
0.00400233
0.00402461
0.00404824
0.00407324
0.00409213
0.00410437
0.00411379
0.00411808
0.00513134
0.00449953
0.00421463
0.00409112
0.00400915
0.00396542
0.00391728
0.00390152
0.00388649
0.00388587
0.00388582
0.0038923
0.00391288
0.00395813
0.00398445
0.00400552
0.00402853
0.00405408
0.00408086
0.00409943
0.0041116
0.00412182
0.00412698
0.00508048
0.00447016
0.00419683
0.00407521
0.00399632
0.00395642
0.00391204
0.00389819
0.00388382
0.00388381
0.00388279
0.00388998
0.00391258
0.00396351
0.0039877
0.00400882
0.00403305
0.00405997
0.00408821
0.00410714
0.00412026
0.00413214
0.00413752
0.00506398
0.00444584
0.00417736
0.00405812
0.00398477
0.00394717
0.00390618
0.00389449
0.0038813
0.00388152
0.00387991
0.00388786
0.00391375
0.00397019
0.00399089
0.0040136
0.00403772
0.00406697
0.00409707
0.0041163
0.00413052
0.00414412
0.00414916
0.00501827
0.00442141
0.00416306
0.00404431
0.00397383
0.00393972
0.00390157
0.00389195
0.00387915
0.00387882
0.0038772
0.00388598
0.00391395
0.00397824
0.00399563
0.00401831
0.00404599
0.00407497
0.00410637
0.00412658
0.00414251
0.00415757
0.00416068
0.00500557
0.00440158
0.00414889
0.00402864
0.00396173
0.00393053
0.00389695
0.00388743
0.00387653
0.00387596
0.0038749
0.00388459
0.00391388
0.00398004
0.00399987
0.00402412
0.004053
0.00408456
0.00411828
0.00413875
0.00415539
0.00417023
0.00417053
0.00496368
0.00438042
0.00413646
0.00401609
0.00395273
0.00392277
0.00389131
0.00388304
0.00387411
0.00387259
0.00387286
0.00388341
0.00391589
0.00397792
0.00400591
0.00402968
0.00406351
0.00409568
0.00413114
0.00415136
0.00416748
0.00417976
0.00417773
0.00495622
0.00436372
0.00412547
0.00400282
0.00394194
0.00391462
0.00388627
0.00387892
0.00387092
0.0038693
0.00387099
0.00388291
0.00391645
0.00397996
0.00401131
0.00403644
0.0040733
0.00410816
0.00414679
0.00416412
0.00417776
0.00418589
0.00418405
0.00491377
0.00434543
0.00411385
0.00399181
0.00393419
0.00390515
0.00387973
0.00387316
0.00386839
0.00386712
0.00386969
0.0038821
0.00391559
0.00398329
0.00401789
0.00404312
0.00408298
0.00412065
0.00416106
0.00417436
0.00418499
0.00419148
0.00419349
0.00490596
0.00433353
0.00410714
0.00398354
0.00392825
0.00389851
0.00387385
0.00387053
0.00386736
0.00386367
0.00386724
0.00388188
0.00391703
0.00398787
0.00402377
0.00405113
0.00409426
0.00413291
0.00417447
0.00418225
0.00419127
0.00420133
0.0042131
0.00489193
0.00432263
0.00410075
0.00397897
0.00392435
0.00389258
0.00387084
0.00386763
0.0038659
0.00386215
0.0038672
0.00388167
0.00391805
0.00399179
0.00402883
0.00405935
0.00410705
0.00414164
0.00418321
0.00418818
0.0042019
0.00421904
0.00425927
0.00487683
0.00431559
0.00409565
0.0039744
0.00391994
0.00388803
0.00386821
0.00386466
0.00386412
0.00385952
0.0038683
0.00388147
0.00392033
0.00399604
0.00403549
0.00406828
0.00411958
0.00414649
0.00418835
0.00419858
0.0042214
0.00426611
0.00433974
0.00486267
0.00430728
0.00408865
0.00396988
0.00391521
0.00388333
0.00386615
0.00386171
0.00386279
0.00385942
0.00386792
0.00388035
0.00392252
0.00400068
0.00404338
0.00407583
0.00412918
0.00415047
0.00419502
0.00421801
0.00426976
0.00435013
0.00446683
0.00484843
0.00430187
0.00408232
0.00396485
0.0039109
0.00387767
0.00386453
0.0038588
0.00386052
0.00386082
0.0038669
0.00387698
0.00392444
0.00400659
0.0040521
0.00408069
0.00413483
0.0041547
0.00420817
0.00426311
0.00435193
0.00447569
0.00463189
0.00483506
0.0042957
0.0040741
0.00395979
0.0039069
0.0038732
0.00386286
0.0038561
0.00385736
0.00386026
0.00386344
0.00387185
0.00392695
0.00401331
0.00406096
0.00408317
0.00413861
0.00416564
0.00424172
0.00433825
0.00446805
0.00463805
0.00483319
0.00482135
0.00429199
0.00406629
0.00395459
0.00390406
0.00386779
0.0038603
0.00385391
0.00385673
0.0038592
0.00385843
0.0038668
0.00392877
0.00402092
0.0040692
0.00408606
0.00414596
0.00419269
0.00430126
0.00444857
0.00462287
0.00483646
0.00506064
0.00480871
0.00428618
0.00405678
0.00395002
0.00389965
0.00386421
0.00385784
0.00385247
0.00385708
0.00385532
0.00385255
0.00385993
0.00393214
0.00402722
0.00407483
0.0040928
0.00415938
0.00425164
0.00439537
0.0045905
0.00480582
0.00505994
0.00530638
0.00479545
0.00428313
0.00404828
0.00394614
0.00389687
0.00386067
0.00385301
0.00385078
0.00385476
0.00385012
0.00384639
0.00385688
0.00393407
0.00403177
0.00408053
0.0041075
0.00419781
0.00433699
0.00451796
0.0047632
0.00501708
0.00530127
0.00555892
0.00478332
0.00427598
0.00403898
0.00394328
0.003891
0.00385714
0.00385074
0.00384939
0.00384931
0.00384388
0.0038407
0.00385531
0.00393693
0.0040353
0.00408914
0.00414512
0.00426746
0.00445501
0.00467254
0.00495878
0.00524121
0.00554899
0.00580942
0.00477065
0.00427242
0.00403203
0.0039426
0.00388613
0.00385456
0.0038481
0.00384713
0.00384252
0.00383804
0.00383606
0.00385397
0.00393802
0.00404188
0.00411088
0.00421384
0.00436887
0.0045976
0.00484861
0.00516952
0.00547583
0.0057952
0.00604965
0.00475917
0.00426407
0.00402493
0.00393788
0.00388226
0.00385195
0.00384519
0.00384286
0.00383516
0.00383258
0.00383256
0.00385416
0.00394204
0.004053
0.00416049
0.00430728
0.00449722
0.0047647
0.00504392
0.00539072
0.00570756
0.00603108
0.00627332
0.00474736
0.00426014
0.00402132
0.00393657
0.00387848
0.00384964
0.00384394
0.00383701
0.00382857
0.00382821
0.00383038
0.00385396
0.00394348
0.00408785
0.00424152
0.00443028
0.00465186
0.00494641
0.0052488
0.00560913
0.00593304
0.00625173
0.00647678
0.00473714
0.00425225
0.00401669
0.00393813
0.0038756
0.00384773
0.00383947
0.00383118
0.00382276
0.00382459
0.00382969
0.0038557
0.00395509
0.00414231
0.00434811
0.0045734
0.00482212
0.00514052
0.00545701
0.00582647
0.00614422
0.00645252
0.00665828
0.00472733
0.00424859
0.00401399
0.00393757
0.00387301
0.00384414
0.00383345
0.00382558
0.00381841
0.00382332
0.00383307
0.00387464
0.00400078
0.00422941
0.00448152
0.00473603
0.00500732
0.00533597
0.00566343
0.00602752
0.0063388
0.00663188
0.00681598
0.00471911
0.00424111
0.00400889
0.00393378
0.00386715
0.00383864
0.00382734
0.00382097
0.00381521
0.00382445
0.00384885
0.00391394
0.00406643
0.00433135
0.00463216
0.00491009
0.00519545
0.00553282
0.00586009
0.00621911
0.00651337
0.00678904
0.00695386
0.00471271
0.0042369
0.00400347
0.00392864
0.00385895
0.00383185
0.00382218
0.00381745
0.00381578
0.0038369
0.00388879
0.00398068
0.00416424
0.0044616
0.00479873
0.0050899
0.00538576
0.0057192
0.00604664
0.00638826
0.00666824
0.00692535
0.00706793
0.00470819
0.00422815
0.0039943
0.00391944
0.00384928
0.00382547
0.00381742
0.00381718
0.00382375
0.00387008
0.00394654
0.00406441
0.00427428
0.00459718
0.00497156
0.00527284
0.0055693
0.00589905
0.00621614
0.00654275
0.00680217
0.00704038
0.00716751
0.00470275
0.00422028
0.00398445
0.00391173
0.00384068
0.00381946
0.00381582
0.00382334
0.00385236
0.00392492
0.00402832
0.0041715
0.00440824
0.00475204
0.00514868
0.00544827
0.00574396
0.00606132
0.00637087
0.00667626
0.00691869
0.00714046
0.00724712
0.00469706
0.00420696
0.00397005
0.00390007
0.00383276
0.00381487
0.00381773
0.00384596
0.00390153
0.00400004
0.00412417
0.00428849
0.00454405
0.00490107
0.00532243
0.00562089
0.00590699
0.00621219
0.0065064
0.00679131
0.00701666
0.00722
0.00731613
0.00468949
0.0041922
0.00395918
0.00389185
0.00382667
0.0038137
0.00383129
0.0038891
0.00397337
0.00409514
0.00423889
0.00442136
0.00469417
0.00506088
0.00549098
0.00577643
0.00605313
0.00634354
0.00662652
0.00689345
0.00710118
0.00729259
0.00737346
0.00468481
0.00417397
0.00394377
0.00388443
0.00382207
0.00381658
0.00386611
0.00395331
0.00406408
0.00420375
0.00436035
0.00455467
0.00483614
0.00520541
0.00564983
0.00592553
0.00618787
0.00646133
0.00672799
0.00697262
0.00717237
0.00734722
0.00742215
0.00467987
0.00415457
0.00393461
0.00387752
0.00382247
0.00383511
0.00391926
0.00403541
0.00417113
0.00432579
0.00449295
0.00469638
0.0049842
0.00535471
0.00579707
0.00605333
0.00630126
0.0065614
0.00681668
0.0070502
0.00723268
0.00739975
0.00746676
0.00467859
0.00413424
0.00392516
0.003875
0.00383058
0.00387352
0.00399258
0.00413458
0.0042896
0.00445172
0.00462377
0.00482948
0.00511663
0.0054823
0.00593212
0.00617247
0.00640578
0.00664761
0.00688879
0.00710161
0.00728548
0.00744149
0.0075076
0.00466967
0.0041164
0.00392008
0.00387588
0.00385618
0.00393277
0.00407965
0.00424423
0.00441354
0.00458233
0.00475706
0.00496457
0.00524926
0.00561127
0.00605234
0.00627082
0.00648847
0.00672026
0.00695217
0.00715928
0.00733109
0.00748306
0.00754609
0.00467293
0.00410009
0.00391711
0.00388438
0.00389661
0.00400891
0.00418248
0.00436522
0.0045432
0.00471245
0.00488539
0.00508871
0.0053658
0.00571816
0.00616099
0.0063606
0.00656608
0.00678074
0.00700109
0.00719343
0.00736962
0.007518
0.00758418
0.00466775
0.00408662
0.00392036
0.00391128
0.00396047
0.00410685
0.0042983
0.00449511
0.00467533
0.00484435
0.00501415
0.00521392
0.00548131
0.0058263
0.00625477
0.00643351
0.00662071
0.00682769
0.00704175
0.00722902
0.00740293
0.00755019
0.00761719
0.00466809
0.00407696
0.00392906
0.0039539
0.00403677
0.00421331
0.00441976
0.00462391
0.00480233
0.00496769
0.00513092
0.00532269
0.00557725
0.00590946
0.00632704
0.00649005
0.00666834
0.0068625
0.00706595
0.00724644
0.00742214
0.00757233
0.00763928
0.00467024
0.00407352
0.00395886
0.00401596
0.00412812
0.0043278
0.00453977
0.00474687
0.00492073
0.00507934
0.00523693
0.00542183
0.0056633
0.00598653
0.00638741
0.00653455
0.00669411
0.00688356
0.00708387
0.00726493
0.00744074
0.00758559
0.00765935
0.00466404
0.00407062
0.00399756
0.00408572
0.00422251
0.00443854
0.00465554
0.00486131
0.00503041
0.00518114
0.00533161
0.00550636
0.00573439
0.00604476
0.00642895
0.00656404
0.006715
0.0068979
0.00709463
0.00727432
0.00744889
0.00759714
0.00767121
0.00465331
0.00407199
0.00405064
0.00416847
0.00432335
0.00454945
0.00476572
0.00496649
0.00513032
0.00527109
0.0054149
0.00558061
0.00579618
0.00609669
0.00646442
0.00658648
0.00672607
0.00690353
0.00709907
0.00728432
0.0074563
0.00760509
0.00767768
0.00464323
0.00407884
0.00410788
0.00425386
0.00442239
0.00465262
0.00486931
0.00506204
0.00522015
0.00535194
0.00548795
0.00564251
0.0058464
0.00613455
0.00648662
0.00659913
0.00673409
0.00691031
0.00710429
0.0072877
0.00746186
0.00761345
0.00768689
0.00463624
0.00410294
0.00417471
0.00434765
0.00452481
0.00475522
0.00496897
0.00515004
0.00530081
0.00542381
0.00555124
0.00569637
0.00588993
0.00616833
0.00650506
0.00660867
0.00674243
0.00691481
0.00710866
0.00729797
0.0074699
0.00762375
0.0076931
0.00463316
0.00414654
0.00424177
0.00443827
0.00461908
0.00484539
0.00505517
0.00522262
0.00536487
0.00548054
0.00559974
0.00573614
0.00592113
0.00618946
0.00651408
0.00661273
0.00674315
0.00690844
0.00710443
0.00729437
0.00746497
0.00761292
0.00768729
0.00463184
0.00420295
0.0043116
0.00452834
0.00471067
0.00493163
0.00513453
0.00528807
0.00542118
0.00552992
0.00564121
0.00577105
0.00594739
0.00620668
0.00652057
0.00661528
0.00674196
0.00690313
0.00709818
0.00728931
0.00745916
0.00759934
0.00767458
0.00463271
0.00427174
0.0043848
0.00461985
0.00480083
0.0050141
0.00520895
0.00534737
0.00547022
0.00557212
0.00567654
0.00580047
0.00597015
0.00622124
0.00652479
0.00661701
0.00673671
0.00689849
0.00709363
0.00728487
0.00745383
0.00758287
0.00766067
0.00464057
0.00435056
0.00446276
0.00471053
0.00488907
0.00509311
0.00527628
0.00540067
0.00551268
0.00560789
0.00570608
0.00582667
0.00598915
0.00623348
0.00652705
0.00661928
0.00672938
0.00689368
0.00708917
0.00728071
0.0074507
0.00756558
0.00764805
0.00466004
0.00443591
0.00454397
0.00480007
0.00497374
0.00516685
0.00533773
0.00544819
0.00554896
0.00563725
0.00573111
0.00584849
0.0060059
0.00624389
0.00652799
0.00661933
0.00672443
0.00688657
0.0070855
0.00727769
0.00744678
0.00754975
0.00763612
0.00468651
0.00452527
0.00462888
0.00488591
0.00505452
0.0052354
0.00539148
0.00549049
0.00557993
0.0056619
0.00575165
0.00586852
0.0060197
0.00625268
0.00652862
0.00661842
0.00671937
0.00687741
0.0070797
0.00727352
0.00744302
0.00753787
0.00762621
0.00472216
0.00461475
0.00471551
0.00496732
0.0051298
0.00529735
0.00543929
0.0055277
0.00560583
0.0056817
0.00576936
0.00588478
0.0060323
0.00626025
0.0065286
0.00661971
0.00671654
0.00686653
0.00707245
0.00726875
0.00743642
0.00753217
0.00761958
0.00476064
0.00470324
0.0048031
0.00504336
0.00519925
0.0053529
0.00547986
0.00556035
0.0056282
0.00569897
0.00578383
0.0059005
0.00604252
0.00626633
0.00652869
0.00661848
0.00671414
0.00685553
0.00706373
0.00726179
0.00742893
0.00752757
0.00762335
0.00480472
0.00478747
0.00488899
0.00511228
0.00526239
0.00540185
0.00551538
0.00558889
0.0056465
0.00571292
0.00579656
0.00591281
0.00605238
0.00627174
0.00652824
0.00661987
0.00671456
0.00684652
0.00705544
0.00725449
0.00742203
0.00752605
0.00766316
0.00484799
0.00486787
0.00497235
0.00517596
0.00531871
0.00544418
0.00554469
0.00561327
0.00566324
0.00572611
0.00580729
0.00592498
0.00606033
0.00627677
0.00652774
0.00661912
0.00671438
0.00683956
0.00704782
0.00724632
0.00741586
0.00754641
0.00778647
0.00489404
0.00494199
0.00505027
0.00523162
0.00536891
0.00548139
0.00557042
0.00563452
0.00567676
0.00573697
0.00581672
0.00593464
0.00606862
0.0062806
0.00652711
0.00661744
0.00671395
0.00683595
0.00704153
0.00723849
0.00741591
0.00761885
0.00803898
0.00493745
0.00501177
0.0051226
0.00528284
0.00541281
0.00551267
0.00559102
0.00565244
0.00569035
0.00574781
0.00582524
0.00594405
0.00607506
0.00628685
0.006527
0.00661842
0.00671286
0.00683468
0.00703909
0.00723251
0.00743106
0.007716
0.00820243
0.00498191
0.0050743
0.00518784
0.00532751
0.00545106
0.00554089
0.00560971
0.00566769
0.00570142
0.00575715
0.00583282
0.00595156
0.00608202
0.00629092
0.00652686
0.00661736
0.00671375
0.00683417
0.00703857
0.00723456
0.00746619
0.00784011
0.00828218
0.005024
0.00513354
0.00524554
0.00536772
0.00548498
0.00556455
0.00562441
0.00568138
0.0057133
0.005766
0.00583997
0.00596081
0.00608854
0.00629854
0.00652748
0.00661852
0.00671441
0.00683857
0.00704817
0.0072569
0.00751128
0.00785816
0.00834054
0.00506553
0.00518507
0.00529683
0.00540418
0.00551356
0.00558671
0.00563871
0.00569232
0.0057235
0.00577458
0.00584687
0.00596796
0.00609368
0.00630619
0.00653066
0.00661889
0.00672105
0.00685353
0.00706986
0.00729966
0.00757889
0.00788296
0.00830758
0.00510667
0.0052342
0.005341
0.00543613
0.00554041
0.00560592
0.00565016
0.00570366
0.00573399
0.0057817
0.00585335
0.00597369
0.00610332
0.00631653
0.00653884
0.0066248
0.00673459
0.00688056
0.0071055
0.00734187
0.00761658
0.00791417
0.00830107
0.00514552
0.00527631
0.0053794
0.00546555
0.00556234
0.00562441
0.00566257
0.00571249
0.00574423
0.00578972
0.00585953
0.00597339
0.00610971
0.00633135
0.00654822
0.00663554
0.00675461
0.00691714
0.0071525
0.00739853
0.00764258
0.00790011
0.00835588
0.00518506
0.00531601
0.00541357
0.00549269
0.00558435
0.00564122
0.00567267
0.00572252
0.00575334
0.00579585
0.0058668
0.00597368
0.00611335
0.00634708
0.00656361
0.006651
0.00678327
0.00696519
0.00719965
0.00743794
0.00763911
0.00792053
0.00831098
0.00522311
0.0053507
0.00544307
0.00551602
0.00560312
0.00565737
0.00568546
0.00573135
0.00576357
0.00580357
0.00587176
0.00597427
0.00611618
0.00637156
0.00657977
0.00667002
0.00681262
0.00701151
0.00725028
0.00745359
0.00765364
0.00792465
0.00831822
0.00525902
0.00538236
0.00546978
0.00553984
0.00562125
0.00567358
0.00569495
0.00574071
0.00577213
0.00580951
0.00587993
0.00597419
0.00611891
0.00638353
0.00660039
0.00669214
0.00684971
0.00706767
0.00729015
0.00746169
0.00764026
0.00791646
0.00833065
0.00529722
0.00541265
0.00549534
0.00556071
0.00563961
0.00568734
0.00570976
0.0057507
0.00578189
0.00581724
0.0058869
0.00597481
0.00611693
0.00638903
0.00662311
0.00671774
0.00688571
0.00711301
0.00731211
0.00747078
0.00764959
0.00792243
0.00825966
0.00532814
0.00543728
0.00551698
0.00557947
0.0056541
0.00570243
0.00571764
0.00575916
0.00578982
0.00582416
0.0058925
0.00597699
0.00611631
0.00640011
0.00664573
0.00674156
0.0069109
0.0071456
0.00732492
0.00746734
0.00764326
0.00789167
0.00825002
0.00536242
0.00546375
0.00553778
0.0056002
0.00567128
0.00571584
0.0057341
0.00577018
0.00579931
0.00583039
0.00589214
0.00597473
0.00611668
0.00639935
0.00666443
0.00676666
0.00693288
0.00716014
0.00732386
0.00747267
0.00764334
0.0078898
0.00822639
0.00538894
0.0054842
0.00555875
0.00561532
0.0056846
0.00572555
0.00574119
0.00577779
0.0058057
0.00584123
0.00589278
0.00597538
0.0061184
0.00640481
0.00667929
0.00678802
0.00694136
0.00716602
0.00732544
0.0074627
0.00763753
0.00789629
0.00820863
0.00541705
0.00550502
0.00557505
0.00563208
0.0056968
0.00574214
0.00575512
0.00578914
0.00581372
0.00584382
0.00589413
0.00597513
0.0061181
0.00640852
0.00667911
0.0067921
0.00694361
0.00717348
0.00732975
0.00746121
0.00763725
0.00786144
0.00820134
0.00544161
0.0055256
0.00559767
0.00565285
0.0057168
0.00575232
0.0057665
0.00580065
0.00582501
0.00585095
0.00589482
0.00597522
0.00611899
0.00640314
0.00668199
0.00679542
0.00694392
0.00718118
0.00732295
0.007459
0.00762496
0.00786102
0.00822163
0.00547287
0.00555331
0.00562064
0.00566669
0.00572451
0.0057593
0.00578507
0.00581215
0.00582654
0.00585127
0.00589522
0.00597646
0.00611484
0.00640347
0.00668149
0.00680119
0.00694353
0.00717574
0.00732199
0.00745786
0.00761934
0.00787279
0.00815063
0.00549305
0.00556358
0.00564178
0.00567771
0.00572821
0.00575871
0.00579088
0.00581267
0.00582906
0.00585269
0.00589994
0.00597296
0.00611397
0.00640258
0.00668155
0.00680399
0.0069435
0.00717873
0.00732305
0.00744623
0.00760337
0.00783054
0.0080343
0.00549152
0.00557031
0.00564101
0.00569158
0.00573611
0.00576007
0.00579448
0.0058145
0.00583594
0.00585608
0.00589743
0.00597241
0.00611412
0.00640425
0.0066813
0.00680595
0.0069473
0.00717225
0.00731539
0.00743884
0.00758454
0.00774991
0.00789525
0.0054929
0.00557409
0.00564305
0.00569785
0.00573608
0.00576512
0.00579647
0.00581721
0.00583384
0.00585561
0.00589722
0.0059729
0.00610972
0.00639651
0.00668161
0.00680272
0.0069452
0.00716812
0.00729056
0.00740827
0.00753533
0.00765413
0.00775522
0.00549641
0.00558707
0.00565416
0.00570121
0.00573777
0.00576964
0.00579865
0.00582347
0.00583411
0.0058557
0.00589754
0.00596853
0.00610889
0.00639492
0.00668538
0.00680249
0.00693406
0.00714216
0.00724869
0.00735627
0.00746403
0.00754678
0.00761633
0.0055054
0.0055822
0.00565196
0.00569993
0.00574053
0.00576949
0.00579942
0.00582206
0.00583471
0.00585908
0.00589648
0.00596749
0.00610271
0.00639526
0.00668112
0.00679742
0.00691483
0.00710514
0.00720211
0.00729898
0.00738887
0.00744517
0.00749178
0.00551458
0.00559006
0.00565911
0.00569849
0.00574091
0.00577715
0.00580109
0.00582549
0.00583496
0.00585884
0.00589673
0.0059675
0.00610162
0.00638548
0.00667753
0.00678118
0.00688628
0.00705648
0.00714441
0.0072301
0.00730509
0.00734347
0.00737526
0.00550782
0.00558426
0.00565257
0.00570327
0.00574147
0.00577304
0.00579961
0.00582811
0.00583612
0.00586223
0.00589799
0.00596232
0.00610353
0.00638352
0.00667036
0.00676743
0.00685849
0.00700709
0.0070915
0.00716704
0.00723034
0.00725644
0.00727734
0.00550498
0.0055876
0.00565395
0.00569698
0.00574152
0.00578006
0.00580004
0.00582322
0.00583859
0.0058585
0.00589904
0.00596167
0.00610032
0.00638434
0.00664672
0.00674403
0.0068258
0.00695339
0.0070316
0.00709942
0.00715311
0.00717335
0.00718816
0.00551233
0.00557884
0.00565759
0.00569622
0.00574589
0.00577549
0.00579843
0.00582263
0.00583936
0.00585674
0.00589382
0.0059647
0.00609382
0.00638051
0.00663145
0.00672844
0.0067995
0.00690606
0.00698313
0.00704417
0.00709145
0.00710694
0.00711686
0.0055041
0.00557755
0.00566076
0.00569535
0.00574402
0.00577483
0.00579862
0.00582495
0.00583696
0.00585553
0.0058934
0.00596197
0.00608494
0.0063642
0.00660048
0.00670287
0.00677006
0.00685825
0.00692928
0.00698754
0.00702932
0.00704477
0.00705278
0.00550033
0.00558416
0.0056519
0.00569722
0.00574302
0.00577448
0.00579931
0.00582512
0.00583731
0.00585832
0.00589443
0.0059595
0.00608246
0.00635429
0.00658484
0.0066888
0.00674938
0.00682097
0.00689067
0.00694564
0.00698432
0.00699871
0.00700441
0.00549858
0.00557454
0.00565138
0.00569632
0.00574243
0.00577631
0.00579382
0.00582016
0.00583322
0.00585281
0.00588827
0.00595262
0.00607914
0.00632886
0.0065525
0.00666408
0.0067246
0.00678354
0.0068458
0.0069013
0.00693812
0.0069541
0.00696172
0.00550311
0.00557339
0.00565618
0.00569689
0.00574074
0.00576866
0.00579562
0.00581837
0.00583509
0.00585259
0.00588856
0.00595559
0.00608364
0.00632079
0.00653934
0.00665259
0.00670946
0.00675826
0.00681864
0.00687282
0.00690796
0.00692432
0.00693038
0.00550879
0.00557886
0.00565305
0.00570068
0.00573907
0.00576652
0.00579295
0.00581751
0.00582784
0.0058552
0.00588508
0.00595174
0.00607273
0.00628963
0.00650839
0.0066298
0.00668823
0.00672925
0.00678159
0.00683696
0.00687369
0.00689305
0.00690342
0.00549617
0.00557705
0.00565048
0.0056894
0.00573912
0.00576583
0.00578948
0.00580773
0.00582645
0.00585318
0.00588069
0.00594698
0.00605879
0.00625811
0.00647776
0.00660803
0.0066691
0.0067048
0.00675213
0.00680687
0.00684484
0.00686789
0.00688137
0.00549253
0.00557298
0.00564109
0.00568616
0.00572561
0.00575306
0.00578313
0.0058121
0.00582682
0.00584648
0.00587798
0.00594059
0.00604285
0.00622379
0.00644332
0.00658358
0.00664937
0.00668235
0.00672259
0.00677542
0.00681698
0.00684327
0.00686042
0.00549079
0.00556287
0.00563534
0.00568512
0.0057215
0.00574976
0.00577661
0.00580091
0.00582788
0.00583341
0.00586345
0.00593355
0.00602645
0.00618863
0.00640602
0.00655601
0.00662919
0.00666153
0.00669658
0.0067459
0.00678403
0.00681512
0.00683849
0.00549435
0.00555431
0.00561458
0.00566616
0.00572343
0.0057523
0.00575949
0.00580289
0.00582004
0.00582869
0.00585942
0.00592434
0.00600768
0.00615038
0.00636276
0.00652329
0.00660508
0.00663953
0.00666908
0.00671604
0.00675608
0.00678414
0.00681089
0.00549233
0.0055287
0.00560876
0.00566172
0.00571394
0.00574911
0.00575421
0.00579864
0.00580668
0.00582779
0.00586136
0.00591387
0.00598906
0.00611368
0.0063129
0.00648384
0.00657849
0.00661803
0.00664367
0.00668165
0.00672133
0.00675493
0.00678233
0.00547891
0.00552065
0.00561088
0.00566408
0.00569389
0.00573797
0.00575606
0.00577866
0.00579381
0.00581955
0.00585301
0.00589889
0.00596615
0.00607459
0.00625568
0.0064333
0.00654187
0.00659043
0.00661945
0.00665299
0.0066841
0.00671645
0.00674924
0.00546096
0.00552088
0.00560611
0.00565745
0.0056635
0.00572039
0.00574239
0.00576362
0.00578069
0.00580401
0.00583976
0.00588245
0.00594208
0.00603574
0.00619381
0.00637525
0.00649864
0.00655651
0.00658816
0.00662193
0.00665146
0.00667632
0.00670935
0.00543217
0.00551763
0.00558342
0.00563669
0.0056535
0.00569298
0.00571991
0.00573434
0.0057653
0.00578442
0.00582029
0.00586017
0.00591283
0.00599341
0.00612668
0.00630154
0.00644201
0.00651531
0.00655205
0.0065836
0.00661428
0.00663502
0.00666065
0.00540884
0.00549497
0.00554969
0.00560849
0.00565475
0.00567174
0.00568024
0.00571101
0.00574525
0.0057659
0.00580128
0.00583721
0.00588366
0.00595346
0.00605978
0.00622124
0.00637102
0.00646287
0.00650745
0.00654061
0.00657168
0.0065951
0.00661723
0.00537862
0.0054673
0.0055048
0.00557491
0.00563209
0.0056595
0.0056631
0.0056873
0.00572005
0.00574316
0.00577589
0.00580804
0.00584853
0.00591071
0.00599337
0.00612184
0.0062817
0.0063946
0.00645436
0.00649119
0.00652125
0.00654781
0.00657371
0.00535367
0.0054252
0.00544607
0.00553189
0.00560473
0.00563416
0.00562481
0.00568184
0.00569886
0.00572103
0.0057498
0.00577894
0.0058138
0.00586814
0.00593509
0.00602721
0.00617119
0.00630038
0.00638163
0.00643649
0.00647028
0.00649888
0.00653117
0.00532282
0.00537666
0.00542483
0.00550039
0.00557059
0.00560059
0.00562277
0.00565594
0.00567031
0.00569044
0.00571496
0.00574162
0.00577118
0.00581825
0.00587291
0.0059391
0.00604737
0.00617612
0.00627137
0.00634636
0.00639933
0.00643315
0.0064723
0.00527769
0.00534146
0.00542627
0.0054849
0.00553349
0.00556373
0.00559667
0.00562246
0.0056364
0.00565592
0.00567884
0.00570406
0.00572876
0.00576834
0.0058155
0.00586157
0.00593383
0.00604168
0.00613844
0.00622
0.00629244
0.00634059
0.00638976
0.00517585
0.00528968
0.00538995
0.00544539
0.00548357
0.00551181
0.00555021
0.00557476
0.00558878
0.00560824
0.00563027
0.00565487
0.00567582
0.00570716
0.00574947
0.00578588
0.00583025
0.00590458
0.0059894
0.00606418
0.00614017
0.00619821
0.00625517
0.00513026
0.00522417
0.0053395
0.00539977
0.00543083
0.00545543
0.00549557
0.00552258
0.00553757
0.00555818
0.00558036
0.00560468
0.00562384
0.00564745
0.00568238
0.00571569
0.00574866
0.00579139
0.00585388
0.00591235
0.00598013
0.00603628
0.00609648
0.00500484
0.00514732
0.00527056
0.00533769
0.0053651
0.00538552
0.00542486
0.00545583
0.00547192
0.00549288
0.00551436
0.00553825
0.00555586
0.00557585
0.00560199
0.00562777
0.0056611
0.00568696
0.00573028
0.0057666
0.00581801
0.00586049
0.0059153
0.0049567
0.00506423
0.00519651
0.00527141
0.00529927
0.00531679
0.00535408
0.00538802
0.00540593
0.00542748
0.00544762
0.00547121
0.00548713
0.00550564
0.00552691
0.00554406
0.00557372
0.00559332
0.00562749
0.00565049
0.00568793
0.00571499
0.00575722
0.00494361
0.00498709
0.00510883
0.00518544
0.00521576
0.0052322
0.00526749
0.00530187
0.00532053
0.00534166
0.00536044
0.0053821
0.00539611
0.0054138
0.00543301
0.00544498
0.00546679
0.00548148
0.00550829
0.00552486
0.00555366
0.0055713
0.00560126
0.00488186
0.00491848
0.0050235
0.00509697
0.00513114
0.00514808
0.00518219
0.00521587
0.0052354
0.00525576
0.00527362
0.00529427
0.00530592
0.0053204
0.00534123
0.00535146
0.00536905
0.00537978
0.00539969
0.00541228
0.00543509
0.00544862
0.00547179
0.00478517
0.00482778
0.00491614
0.00498334
0.00502061
0.00503882
0.00507149
0.00510283
0.0051221
0.00514088
0.00515745
0.00517665
0.0051881
0.00519747
0.00521523
0.0052255
0.00524144
0.00524985
0.00526467
0.00527357
0.00528993
0.00529995