/*--------------------------------*- C++ -*----------------------------------*\
  =========                 |
  \\      /  F ield         | OpenFOAM: The Open Source CFD Toolbox
   \\    /   O peration     | Website:  https://openfoam.org
    \\  /    A nd           | Version:  7
     \\/     M anipulation  |
\*---------------------------------------------------------------------------*/
FoamFile
{
    version     2.0;
    format      ascii;
    class       volScalarField;
    location    "69";
    object      nut;
}
// * * * * * * * * * * * * * * * * * * * * * * * * * * * * * * * * * * * * * //

dimensions      [0 2 -1 0 0 0 0];

internalField   nonuniform List<scalar> 
12842
(
0.00180904
0.00179675
0.00178558
0.00177786
0.00177347
0.00176743
0.00176637
0.00176072
0.00176095
0.00175702
0.0017597
0.00175717
0.00176181
0.00176435
0.00121754
0.000658074
0.000410871
0.00028611
0.000212882
0.000165772
0.000134024
0.000112232
9.65231e-05
0.00180939
0.00179313
0.00178442
0.00177768
0.00177352
0.00176779
0.00176634
0.00176069
0.00176069
0.00175681
0.00175969
0.0017573
0.00176208
0.00176486
0.00116262
0.000629245
0.000394441
0.000275522
0.000205997
0.000161124
0.000130842
0.000110379
9.49585e-05
0.00181104
0.00179087
0.00177978
0.00177624
0.00177253
0.00176799
0.00176531
0.00175995
0.00175961
0.00175652
0.00175981
0.00175811
0.00176355
0.00176643
0.00111097
0.000605112
0.000381764
0.000268075
0.000201103
0.000157921
0.000128527
0.00010902
9.35416e-05
0.00180717
0.00179584
0.00177697
0.00177416
0.00177195
0.0017681
0.00176481
0.00175976
0.00175923
0.00175646
0.0017601
0.00175832
0.00176379
0.00176748
0.00105584
0.000578936
0.000367395
0.000259401
0.000195537
0.000153962
0.000125671
0.000107204
9.18406e-05
0.00180794
0.00178848
0.0017771
0.00177323
0.00176996
0.00176866
0.00176386
0.0017601
0.00175926
0.00175682
0.00176094
0.00176011
0.00176477
0.00176933
0.00100608
0.000555044
0.000354002
0.000250844
0.000189887
0.000150175
0.000122799
0.000105348
9.01185e-05
0.00180594
0.00179334
0.00177148
0.00177212
0.00176968
0.001767
0.00176233
0.00175834
0.00175813
0.00175662
0.00176101
0.0017607
0.00176554
0.0017708
0.000967077
0.000535507
0.000342928
0.000243681
0.00018492
0.000146694
0.000120173
0.000103593
8.85116e-05
0.00180479
0.00178899
0.00177169
0.00176929
0.00176877
0.00176863
0.00176256
0.00175899
0.00175809
0.00175696
0.00176188
0.00176211
0.00176642
0.00177295
0.000942488
0.000522615
0.000335118
0.000238439
0.000181183
0.000144008
0.000118041
0.000102017
8.70292e-05
0.00180377
0.00179105
0.00176878
0.00176967
0.00176746
0.00176725
0.00175978
0.00175639
0.00175589
0.00175589
0.00176094
0.00176231
0.00176685
0.00177384
0.000930132
0.000514523
0.000329484
0.000234213
0.000177898
0.000141377
0.000115835
0.00010033
8.55148e-05
0.00180219
0.00178866
0.00176822
0.00176749
0.001767
0.00176725
0.00175968
0.00175604
0.00175525
0.00175582
0.00176106
0.00176252
0.00176699
0.00177485
0.000921513
0.000508638
0.000325222
0.000231046
0.000175439
0.000139544
0.000114263
9.90871e-05
8.43945e-05
0.00180155
0.00178786
0.00176657
0.00176836
0.00176615
0.00176721
0.0017576
0.00175432
0.00175337
0.00175464
0.00176003
0.00176202
0.00176669
0.00177538
0.000907061
0.000500971
0.000320546
0.000227918
0.000173214
0.000137919
0.000112989
9.81091e-05
8.35215e-05
0.00179993
0.0017864
0.00176555
0.00176718
0.00176466
0.00176599
0.00175705
0.00175406
0.00175304
0.00175474
0.00175979
0.00176167
0.00176646
0.00177601
0.000892521
0.000493459
0.000316005
0.000224891
0.000170962
0.000136277
0.000111658
9.70025e-05
8.26007e-05
0.00179945
0.00178445
0.00176416
0.0017678
0.00176435
0.00176632
0.00175585
0.00175338
0.00175212
0.00175399
0.00175896
0.00176093
0.00176592
0.00177652
0.00087838
0.000486001
0.00031133
0.000221726
0.000168671
0.00013457
0.00011033
9.5899e-05
8.17146e-05
0.00179809
0.00178309
0.00176317
0.00176696
0.00176242
0.00176464
0.00175533
0.00175358
0.00175243
0.0017548
0.00175889
0.00176044
0.00176558
0.00177676
0.00086399
0.000478506
0.000306737
0.000218654
0.000166389
0.000132891
0.000109027
9.4826e-05
8.09274e-05
0.0017977
0.00178122
0.00176195
0.00176656
0.00176269
0.00176494
0.00175512
0.00175407
0.00175272
0.00175488
0.00175838
0.0017598
0.00176546
0.00177725
0.00084968
0.000471127
0.000302199
0.000215667
0.000164286
0.00013133
0.000107808
9.37835e-05
8.02359e-05
0.00179659
0.00177949
0.0017611
0.00176576
0.00176125
0.00176385
0.00175496
0.00175482
0.00175346
0.00175617
0.0017585
0.00175975
0.00176556
0.00175166
0.000835795
0.000463907
0.000297832
0.000212814
0.000162273
0.00012988
0.00010672
9.28193e-05
7.96968e-05
0.00179626
0.00177844
0.00176066
0.0017643
0.0017616
0.00176366
0.00175544
0.00175606
0.00175465
0.00175669
0.00175834
0.00175955
0.00176585
0.00172186
0.000822453
0.000457108
0.000293753
0.000210191
0.00016048
0.000128588
0.000105831
9.20071e-05
7.93753e-05
0.00179525
0.00177659
0.00176032
0.00176338
0.00176068
0.00176347
0.00175588
0.00175728
0.00175545
0.00175786
0.00175858
0.00175973
0.00176603
0.00169405
0.000809868
0.000450556
0.000289902
0.00020773
0.000158849
0.000127507
0.000105219
9.1453e-05
7.93381e-05
0.0017949
0.00177637
0.00176104
0.00176149
0.00176033
0.0017624
0.00175661
0.00175839
0.00175686
0.00175838
0.00175864
0.00175973
0.00176675
0.0016686
0.000798307
0.000444801
0.000286522
0.000205711
0.000157606
0.000126768
0.00010498
9.12435e-05
7.96493e-05
0.00179377
0.00177472
0.00176137
0.00176012
0.00175955
0.00176266
0.00175732
0.00175959
0.00175752
0.00175876
0.00175875
0.00175985
0.00176699
0.00164785
0.000787731
0.000439481
0.000283733
0.000204065
0.000156746
0.000126448
0.000105211
9.14888e-05
8.03578e-05
0.00179335
0.00177492
0.00176291
0.00175844
0.00175855
0.00176131
0.00175792
0.00176004
0.00175843
0.00175903
0.00175889
0.00175999
0.00176708
0.00162885
0.000778725
0.000435374
0.000281613
0.000203094
0.000156525
0.000126683
0.000105983
9.22574e-05
8.15006e-05
0.00179199
0.00177338
0.0017634
0.00175681
0.00175778
0.00176086
0.00175819
0.00176042
0.00175904
0.00175872
0.00175883
0.00176006
0.00176812
0.00160956
0.000771123
0.000431896
0.000280276
0.000202702
0.000156908
0.000127507
0.000107334
9.36127e-05
8.31214e-05
0.00179157
0.00177365
0.001765
0.00175544
0.00175721
0.00176011
0.00175806
0.00176055
0.00175921
0.0017586
0.00175885
0.00176044
0.00176861
0.00159475
0.000765157
0.000429724
0.000279701
0.000203133
0.000158156
0.000129034
0.00010932
9.56407e-05
8.53068e-05
0.0017902
0.00177235
0.00176496
0.00175438
0.00175671
0.00175845
0.0017578
0.00176018
0.00175977
0.00175876
0.00175893
0.00176072
0.0017686
0.00158541
0.000761922
0.000428742
0.000280061
0.000204311
0.000160058
0.000131164
0.000111886
9.84414e-05
8.82195e-05
0.00178971
0.00177298
0.00176609
0.00175324
0.00175723
0.00175799
0.00175642
0.00175993
0.00176004
0.00175808
0.00175858
0.00176153
0.00177034
0.00156852
0.000756152
0.00042733
0.000280438
0.000205948
0.000162609
0.000133913
0.000115146
0.00010217
9.21175e-05
0.00178907
0.00177175
0.0017655
0.00175375
0.00175793
0.00175689
0.00175575
0.00175887
0.00175994
0.00175856
0.00175958
0.00176261
0.00177191
0.00155062
0.000749608
0.000425648
0.000281506
0.000208133
0.000165735
0.000137367
0.000119298
0.000106886
9.74205e-05
0.00178805
0.00177345
0.00176532
0.00175393
0.00175837
0.00175647
0.0017549
0.00175776
0.00175959
0.00175885
0.00176149
0.00176394
0.00177373
0.00153704
0.000745468
0.000425374
0.000283522
0.000211088
0.000169616
0.000141859
0.000124422
0.000112983
0.000104198
0.00178758
0.0017732
0.00176412
0.00175522
0.00175867
0.00175566
0.00175453
0.00175657
0.00175981
0.00176069
0.00176297
0.001765
0.00177522
0.00152871
0.000743879
0.000426432
0.000286923
0.000215073
0.000174249
0.000147246
0.000130958
0.000120642
0.000112811
0.00178658
0.00177503
0.00176331
0.00175563
0.00175879
0.00175416
0.00175433
0.0017557
0.00175982
0.00176341
0.00176447
0.00176496
0.00177595
0.00152291
0.000743791
0.00042888
0.000291039
0.000219779
0.000179764
0.000154179
0.000139134
0.000130001
0.000123083
0.00178614
0.00177568
0.00176175
0.00175678
0.00175866
0.00175305
0.00175457
0.0017554
0.00175991
0.00176526
0.00176481
0.00176391
0.00177712
0.00151926
0.000745418
0.000432906
0.000296641
0.000225804
0.00018665
0.000162657
0.000148914
0.000141006
0.000135048
0.0017851
0.00177726
0.00176053
0.00175679
0.00175866
0.00175117
0.00175491
0.00175603
0.00176141
0.00176705
0.0017644
0.00176252
0.00177823
0.00151873
0.00074855
0.000439934
0.000303649
0.000233277
0.000195224
0.000173102
0.000160638
0.000153703
0.000148477
0.00178451
0.00177801
0.00175863
0.00175741
0.00175744
0.00175041
0.00175582
0.00175748
0.00176363
0.00176728
0.0017633
0.00175999
0.00177953
0.00152133
0.000756992
0.000449841
0.000312798
0.000243337
0.000205903
0.000185304
0.000173923
0.000167798
0.000163236
0.00178349
0.00177906
0.00175707
0.00175713
0.00175685
0.00174959
0.00175637
0.00175913
0.00176477
0.00176683
0.00176171
0.00175862
0.00177942
0.00153759
0.000773633
0.000463369
0.000324458
0.000255465
0.000218439
0.000199286
0.000188796
0.000183071
0.000178906
0.00178269
0.00177924
0.00175499
0.00175764
0.00175465
0.00174939
0.00175829
0.00176124
0.0017644
0.00176554
0.00175999
0.00175677
0.00177511
0.0015689
0.000796287
0.000480918
0.000339741
0.000270185
0.000233027
0.000214822
0.000204768
0.000199031
0.000195226
0.00178163
0.00177982
0.00175362
0.00175831
0.00175306
0.00174987
0.0017602
0.00176272
0.00176299
0.0017641
0.00175728
0.00174805
0.00175933
0.00162037
0.000827014
0.000504247
0.000358158
0.000286985
0.000249255
0.000231392
0.000221467
0.000215421
0.000211715
0.00178099
0.0017795
0.0017518
0.00175778
0.00175234
0.00175097
0.00176192
0.00176315
0.00176135
0.00176158
0.00175158
0.00173232
0.00173777
0.0016842
0.000865129
0.000531397
0.000379617
0.000305808
0.000266848
0.000248973
0.000238664
0.000231652
0.000228165
0.00177966
0.00177977
0.00175111
0.00175823
0.00175191
0.00175232
0.00176414
0.00176242
0.00175865
0.00175694
0.00173707
0.00170662
0.00170571
0.00171257
0.000913702
0.000564198
0.000404073
0.00032627
0.000285623
0.000266717
0.00025562
0.000247612
0.000244094
0.00177982
0.00177936
0.00174967
0.00176171
0.00175281
0.00175415
0.00176425
0.00176125
0.00175539
0.00174603
0.00171577
0.00167628
0.00167396
0.001692
0.000968463
0.00059981
0.000430331
0.000347893
0.000304721
0.000284672
0.000272485
0.000262748
0.000259489
0.00177853
0.00177947
0.00174874
0.00176303
0.00175376
0.00175505
0.00176354
0.00175867
0.00174653
0.00172785
0.00168706
0.00164645
0.00165056
0.00167911
0.00103235
0.000640045
0.000458983
0.000370371
0.0003245
0.000302191
0.000288448
0.000277075
0.000273844
0.0017798
0.00177852
0.00174675
0.00176498
0.00175369
0.0017547
0.00176126
0.00175319
0.00173163
0.00170323
0.00165866
0.0016229
0.00163443
0.00167155
0.00110025
0.000681736
0.000488207
0.00039336
0.000343639
0.00031909
0.000303766
0.000290245
0.000287346
0.00177946
0.00177836
0.00174466
0.00176479
0.00175226
0.00175336
0.00175799
0.0017396
0.00170877
0.00167663
0.00163456
0.00160686
0.00162766
0.00167207
0.00117498
0.000726563
0.000518844
0.000416193
0.000363027
0.000335336
0.000318051
0.000302242
0.00029944
0.00178198
0.00177681
0.00174108
0.00176389
0.0017499
0.00175007
0.0017487
0.00171781
0.00168409
0.00165382
0.00161594
0.00159767
0.00162689
0.0016765
0.00125113
0.000771701
0.000549411
0.000439414
0.000381181
0.000350371
0.00033114
0.000312974
0.000310499
0.00178197
0.00177574
0.00173731
0.00176144
0.00174567
0.00174408
0.0017324
0.00169069
0.0016611
0.00163593
0.00160431
0.00159611
0.00163349
0.00168698
0.00133184
0.000818589
0.000580326
0.000461589
0.000399385
0.000364883
0.000343577
0.000322546
0.000320096
0.00178394
0.00177327
0.0017325
0.00175815
0.00173946
0.00173102
0.00170964
0.0016646
0.00164417
0.00162446
0.00159873
0.00159987
0.00164344
0.00169903
0.00141182
0.000865154
0.00061124
0.000484343
0.000416171
0.000377994
0.000354472
0.000330839
0.00032865
0.00178304
0.00177084
0.00172887
0.00175265
0.00172753
0.00171271
0.00168505
0.00164315
0.00163282
0.00161928
0.00159996
0.00160957
0.00165819
0.00171492
0.00149488
0.000912677
0.000641768
0.000505912
0.000433239
0.000391069
0.000365309
0.000338504
0.000336
0.00178526
0.00176707
0.00172517
0.00174455
0.00171164
0.00168857
0.00166502
0.00162885
0.0016284
0.00162033
0.00160575
0.00162192
0.00167359
0.0017303
0.00157599
0.000959801
0.000672968
0.000528266
0.000449155
0.000403043
0.000374945
0.000345149
0.000342687
0.00178553
0.00176384
0.00172232
0.00173036
0.00169142
0.0016666
0.00164931
0.00162105
0.00162942
0.00162653
0.00161656
0.00163829
0.00169174
0.00174785
0.0016598
0.00100799
0.000703704
0.000550106
0.000465967
0.000415777
0.000385007
0.000352076
0.000348531
0.0017895
0.00175892
0.00172041
0.00171457
0.00167258
0.00164846
0.00164059
0.00162136
0.00163537
0.00163686
0.00162971
0.00165475
0.00170855
0.00176339
0.00174136
0.00105613
0.000736059
0.000573331
0.000482612
0.000428292
0.000395103
0.000358928
0.000354678
0.00178939
0.00175659
0.00171762
0.00169645
0.00165692
0.00163766
0.00163739
0.00162679
0.0016445
0.00164986
0.00164558
0.00167353
0.00172658
0.00178001
0.0018263
0.00110608
0.000768747
0.000596943
0.000500856
0.000442687
0.000406351
0.000367238
0.000360313
0.00179637
0.00175155
0.00171451
0.00167868
0.00164709
0.00163083
0.00163955
0.00163777
0.00165565
0.00166488
0.00166229
0.00169117
0.00174271
0.00179404
0.00184599
0.0011556
0.000802788
0.000621882
0.000519933
0.000457756
0.000418878
0.000377195
0.000367303
0.00179905
0.00174812
0.00171026
0.0016663
0.00164306
0.00163201
0.00164726
0.00165245
0.0016684
0.0016808
0.0016806
0.00171021
0.00175915
0.00180878
0.00185796
0.00120095
0.000833656
0.000645146
0.000538215
0.000473193
0.000432355
0.000388112
0.000373626
0.00180476
0.00174433
0.00170343
0.00165816
0.00164441
0.00163662
0.00165819
0.00166882
0.00168087
0.00169677
0.00169852
0.00172724
0.00177328
0.00182043
0.00186815
0.00124067
0.000860507
0.000664916
0.000553613
0.000486301
0.000443957
0.000399144
0.000379623
0.0018091
0.00174041
0.00170055
0.0016569
0.00165034
0.00164639
0.00167127
0.00168488
0.00169341
0.00171104
0.00171554
0.00174324
0.00178587
0.00183136
0.00187615
0.0012717
0.000881876
0.000682476
0.000567032
0.00049772
0.000455269
0.000409365
0.000385335
0.0018095
0.00173371
0.00169716
0.00165634
0.00165791
0.00165577
0.00168428
0.00169939
0.00170581
0.00172477
0.00173169
0.00175735
0.00179658
0.00183992
0.00188194
0.00129804
0.00090026
0.000696561
0.000578964
0.000507552
0.000464768
0.000418355
0.000390531
0.00180709
0.00172214
0.00169452
0.00165874
0.00166643
0.00166633
0.00169692
0.00171228
0.00171865
0.0017373
0.00174633
0.00177
0.00180575
0.00184735
0.00188662
0.00131824
0.000913894
0.000708574
0.000588733
0.000515826
0.000472442
0.000426283
0.000395589
0.00180365
0.00170967
0.00169015
0.00166036
0.00167475
0.00167529
0.00170866
0.00172356
0.00173142
0.00174939
0.00175981
0.00178094
0.00181314
0.00185299
0.00189
0.0013364
0.000929654
0.000721145
0.000599686
0.000525695
0.000482572
0.000435199
0.000402486
0.00180051
0.00169759
0.00168509
0.00166338
0.00168264
0.00168448
0.00171963
0.00173392
0.00174426
0.00176113
0.00177173
0.00179056
0.00181943
0.00185773
0.00189191
0.00134087
0.000929608
0.000721361
0.000600339
0.000526754
0.000483289
0.000436957
0.000402938
0.00179559
0.00169049
0.00167937
0.00166727
0.00169031
0.00169303
0.00172936
0.00174281
0.0017551
0.00177084
0.00178111
0.00179774
0.00182377
0.00186086
0.00189461
0.0013502
0.000934422
0.00072451
0.000603851
0.000529273
0.000486879
0.00044143
0.000403459
0.00178799
0.00168584
0.00167502
0.00167284
0.00169782
0.00170201
0.00173828
0.00175093
0.00176505
0.00177968
0.00178915
0.00180405
0.00182741
0.00186327
0.00189647
0.00138558
0.000962351
0.000747467
0.000624668
0.000547678
0.000505256
0.000460605
0.000419256
0.0017782
0.00168417
0.00167149
0.00167992
0.00170616
0.00171158
0.0017472
0.00175884
0.00177386
0.00178717
0.00179608
0.00180924
0.0018304
0.00186556
0.00189758
0.0014067
0.000977412
0.000758022
0.000635653
0.000557712
0.00051541
0.000473664
0.000429527
0.00176881
0.0016848
0.00167083
0.00168864
0.00171483
0.00172169
0.00175546
0.00176586
0.0017816
0.00179355
0.00180172
0.00181391
0.00183283
0.00186718
0.00189787
0.0014224
0.000986308
0.000763942
0.0006415
0.000563387
0.000522996
0.000483293
0.000437946
0.00176217
0.00168797
0.0016725
0.0016984
0.00172428
0.00173202
0.00176363
0.00177274
0.00178804
0.00179843
0.00180661
0.00181753
0.00183488
0.00186901
0.00189857
0.00144706
0.00100205
0.000774086
0.000651062
0.000574097
0.000533604
0.000496732
0.00045021
0.00175675
0.00169309
0.00167773
0.00170885
0.00173379
0.00174231
0.00177109
0.00177861
0.00179362
0.00180243
0.00181031
0.00182106
0.00183643
0.00187003
0.00189874
0.00147292
0.00101968
0.000787092
0.000662578
0.000585255
0.000546119
0.000511047
0.000465968
0.00175471
0.0016998
0.00168553
0.00171918
0.00174361
0.00175193
0.00177808
0.0017843
0.00179798
0.00180526
0.00181364
0.0018236
0.00183776
0.00187139
0.00189881
0.00150231
0.00104089
0.000802294
0.000676482
0.000599818
0.000559387
0.000527717
0.000484077
0.00175322
0.00170803
0.00169614
0.00172928
0.00175276
0.0017609
0.00178424
0.00178901
0.00180188
0.00180768
0.00181592
0.00182631
0.00183881
0.00187187
0.00189812
0.00153482
0.00106418
0.00082091
0.000692688
0.000615816
0.00057473
0.000544442
0.000505483
0.00175465
0.00171678
0.00170812
0.00173829
0.00176172
0.00176852
0.00178962
0.00179339
0.0018047
0.0018094
0.00181801
0.00182815
0.00183967
0.00187262
0.00189799
0.00156973
0.00109024
0.000841561
0.000711554
0.000634478
0.000591312
0.000564707
0.000535118
0.00175609
0.00172685
0.00172145
0.00174674
0.00176944
0.0017753
0.00179391
0.00179695
0.00180737
0.00181098
0.00181925
0.00183011
0.00184038
0.00187293
0.00189614
0.00161008
0.00111939
0.000865406
0.000733383
0.000655752
0.000614865
0.000596235
0.000607311
0.00175935
0.00173628
0.00173431
0.00175392
0.00177658
0.00178075
0.00179755
0.0017999
0.00180908
0.00181223
0.00182036
0.0018314
0.00184137
0.00187321
0.0018957
0.00165394
0.0011533
0.000893643
0.000761124
0.000684141
0.000644273
0.000649026
0.000734201
0.00176252
0.00174709
0.00174722
0.00176051
0.00178257
0.00178552
0.00179981
0.00180235
0.00181076
0.00181324
0.00182089
0.00183291
0.00184109
0.00187388
0.00189386
0.00170595
0.00119434
0.000930299
0.000798009
0.000723581
0.000702555
0.000758272
0.000894536
0.00176637
0.00175614
0.00175829
0.00176642
0.00178761
0.00178949
0.00180199
0.00180386
0.00181158
0.00181423
0.0018214
0.0018334
0.00184233
0.00187402
0.0018915
0.00176819
0.00124774
0.000979324
0.000858075
0.000791001
0.000794837
0.000884523
0.000871562
0.00177069
0.00176645
0.00176856
0.00177153
0.00179225
0.00179313
0.0018027
0.00180551
0.00181234
0.00181467
0.00182151
0.00183534
0.00184386
0.00187469
0.00188913
0.00183087
0.00131018
0.0010445
0.000926534
0.000879183
0.00093211
0.000978582
0.000855294
0.00177439
0.00177422
0.00177654
0.00177662
0.00179555
0.0017963
0.00180389
0.00180586
0.00181261
0.00181538
0.00182189
0.0018355
0.00184488
0.00187457
0.0018841
0.00181977
0.00139392
0.00113671
0.00104599
0.000999807
0.0010629
0.000944897
0.000799033
0.00177981
0.00178283
0.00178361
0.00178089
0.00179919
0.00179953
0.0018039
0.00180699
0.00181245
0.00181537
0.00182183
0.00183644
0.00184763
0.0018774
0.00188128
0.00180978
0.00147935
0.00122362
0.00113945
0.00116076
0.00104258
0.000914734
0.000787182
0.0017832
0.00178833
0.00178826
0.00178478
0.00180151
0.00180216
0.00180465
0.00180672
0.00181261
0.00181563
0.00182216
0.00183491
0.00184947
0.00188141
0.00188123
0.00180132
0.00156349
0.00130809
0.00122517
0.00115925
0.00103587
0.000915904
0.00078453
0.0017889
0.00179434
0.00179267
0.00178848
0.00180402
0.00180493
0.00180445
0.00180745
0.00181168
0.00181549
0.00182239
0.00183348
0.00185012
0.00188546
0.00188227
0.00179996
0.00165846
0.00142234
0.00132372
0.00114874
0.00102099
0.000902972
0.000757078
0.00179254
0.00179727
0.00179479
0.00179111
0.00180617
0.00180697
0.00180543
0.00180706
0.00181203
0.00181529
0.00182244
0.00183242
0.00185057
0.00189153
0.00188304
0.00180093
0.00168388
0.00151564
0.00133626
0.00114389
0.00101038
0.000914668
0.000765365
0.00179705
0.00179998
0.00179707
0.00179345
0.00180732
0.00180907
0.00180514
0.00180743
0.00181073
0.00181533
0.00182324
0.00183249
0.00185204
0.0018957
0.00188916
0.00180783
0.0016908
0.00152415
0.00134781
0.00114203
0.00101897
0.000900361
0.000755528
0.00180134
0.00180171
0.00179839
0.00179625
0.0018096
0.0018105
0.00180662
0.00180745
0.0018116
0.00181509
0.0018236
0.00183247
0.00185087
0.00189738
0.00189366
0.00181422
0.0016895
0.00152477
0.00134255
0.00113781
0.00102074
0.000912763
0.000763861
0.00180429
0.00180149
0.00179936
0.0017966
0.00180985
0.00181155
0.00180637
0.00180749
0.00181036
0.00181539
0.00182419
0.00183247
0.00185132
0.00190033
0.00190169
0.0018203
0.00169843
0.00153652
0.00133948
0.00114661
0.00101697
0.000909779
0.000758746
0.00180814
0.0018021
0.00180041
0.00179922
0.00181165
0.00181317
0.00180802
0.0018078
0.00181112
0.00181462
0.00182163
0.00183165
0.00185174
0.00190028
0.00190663
0.0018271
0.00169911
0.00154142
0.00133434
0.00114526
0.00101983
0.000910653
0.000753952
0.00180872
0.00180097
0.00180084
0.00179902
0.00181174
0.00181164
0.001807
0.00180778
0.00181029
0.00181538
0.00181964
0.00183176
0.00185251
0.00190151
0.00191111
0.00183209
0.00170687
0.0015426
0.00134728
0.00114639
0.00102068
0.000905654
0.000773552
0.00181077
0.00179788
0.00180106
0.0017984
0.00181144
0.00181333
0.0018081
0.00180685
0.00180943
0.00181225
0.00181835
0.00183163
0.00185204
0.00190383
0.00191026
0.00183063
0.00170771
0.00154498
0.0013468
0.00114096
0.00102245
0.000921082
0.000772766
0.00180681
0.00179637
0.00180021
0.00179809
0.00181239
0.00181103
0.00180612
0.00180725
0.00180839
0.00181144
0.0018187
0.00183141
0.00185326
0.00190243
0.00191347
0.00182966
0.00170923
0.00154643
0.00134806
0.00113482
0.0010148
0.000921352
0.000797345
0.0018077
0.00179526
0.00180092
0.00179946
0.00180927
0.00180814
0.00180834
0.00180942
0.00180808
0.00180998
0.00181777
0.00183186
0.00185208
0.00190235
0.00191377
0.00183534
0.00171058
0.00154208
0.00134866
0.00114802
0.00101786
0.000917994
0.000794354
0.00180905
0.0017912
0.0018026
0.00180033
0.0018048
0.00180291
0.00180869
0.00180721
0.00180809
0.00180858
0.00181995
0.00182969
0.00185173
0.00190356
0.0019144
0.0018365
0.00171235
0.00155546
0.00134733
0.0011454
0.00101658
0.000931726
0.000777683
0.00180316
0.00178777
0.00180228
0.00180376
0.00180677
0.00180305
0.0018076
0.00180792
0.00181008
0.00181017
0.00181883
0.00183031
0.00185201
0.00190306
0.00191484
0.00183612
0.00171471
0.00155631
0.0013439
0.0011527
0.00101061
0.000924148
0.000785673
0.00179587
0.00178925
0.0018023
0.00180297
0.00180587
0.00180216
0.00180851
0.00180848
0.00180831
0.00181008
0.00181878
0.00183023
0.00185113
0.00190212
0.00191462
0.00184047
0.00171333
0.00155504
0.00133156
0.00115863
0.00100935
0.000910651
0.000807769
0.00179732
0.00179297
0.00180403
0.00179951
0.00180339
0.00180445
0.00180886
0.0018086
0.00180934
0.00181006
0.00181887
0.00182922
0.00185141
0.00190098
0.00191714
0.00183712
0.00171955
0.00156495
0.00133773
0.00118429
0.0010317
0.000925771
0.000842238
0.00179973
0.00179104
0.00180181
0.0017999
0.00180496
0.00180353
0.00180773
0.00180886
0.00180839
0.00181079
0.00181759
0.00182907
0.00184957
0.00190102
0.00191707
0.00184039
0.00171613
0.00155858
0.0013502
0.00121339
0.00106151
0.000952002
0.000880359
0.00180226
0.00179266
0.0018035
0.00179731
0.00180527
0.00180611
0.00180694
0.00180949
0.00180922
0.00181126
0.00181873
0.00182937
0.00185077
0.00189928
0.00191752
0.00183541
0.00170991
0.00154825
0.0013738
0.00125126
0.0011033
0.000990009
0.000924227
0.0017999
0.00178815
0.00180258
0.00180039
0.00180516
0.00180523
0.00180709
0.00180978
0.00180924
0.00181285
0.00181916
0.001828
0.00185155
0.00190059
0.00191636
0.00183498
0.00171083
0.0015488
0.00139429
0.00128379
0.0011425
0.00102621
0.000963981
0.00179893
0.00179151
0.00180345
0.00179786
0.00180544
0.00180774
0.00180666
0.00180973
0.00181003
0.00181175
0.00181911
0.00182795
0.00185055
0.00190333
0.00191341
0.00184016
0.00172285
0.00156644
0.00142404
0.00132339
0.00118974
0.00106977
0.00100709
0.00180142
0.00178879
0.00180493
0.00179793
0.00180678
0.0018056
0.00180551
0.00180972
0.00180875
0.00180983
0.00181888
0.00182939
0.00184808
0.00190281
0.00191186
0.00184413
0.00173158
0.00157885
0.00144411
0.00135173
0.00122636
0.00110439
0.00104134
0.00179853
0.00178675
0.00180632
0.00179672
0.00180545
0.00180557
0.00180722
0.00181066
0.00180925
0.00181059
0.0018188
0.00182849
0.00184604
0.00189734
0.00190941
0.00185215
0.00174945
0.00160514
0.00147508
0.00138929
0.00127149
0.00114828
0.00108179
0.00179647
0.00178858
0.00180356
0.0017971
0.00180715
0.00180507
0.00180754
0.00181053
0.00180966
0.0018113
0.00181852
0.001829
0.0018459
0.00189494
0.00190811
0.00185627
0.00175854
0.00161789
0.00149012
0.0014107
0.00130011
0.0011781
0.00111107
0.00179651
0.00178642
0.00180252
0.00179946
0.0018054
0.00180774
0.00180533
0.00180767
0.00180862
0.00180999
0.00181674
0.00182695
0.00184678
0.00188943
0.00190612
0.00186485
0.00177788
0.00164788
0.00151939
0.00144452
0.00134211
0.00122333
0.00115288
0.00179764
0.00178645
0.00180699
0.00179992
0.0018068
0.00180569
0.00180785
0.00180874
0.00180853
0.00180998
0.00181684
0.00182977
0.00184862
0.001887
0.00190471
0.00186746
0.00178387
0.00165672
0.00152965
0.00145945
0.00136105
0.00124772
0.00118009
0.00180339
0.0017899
0.00180633
0.00180068
0.00180727
0.00180498
0.00180557
0.00180833
0.0018065
0.00181221
0.0018172
0.00182919
0.00184684
0.00188176
0.00190392
0.00187625
0.00180343
0.00168934
0.0015561
0.00149009
0.0014013
0.00129524
0.00122549
0.00179996
0.0017891
0.00180428
0.00180042
0.00180808
0.00180782
0.00180674
0.00180696
0.00180732
0.00181231
0.00181709
0.00182702
0.00184428
0.00187655
0.00190281
0.00188391
0.00182088
0.00171947
0.00158377
0.00151916
0.001438
0.00134059
0.0012703
0.00179856
0.00179238
0.00180125
0.00180013
0.0018032
0.00180441
0.00180418
0.00180933
0.00180884
0.00181215
0.00181698
0.00182568
0.00184153
0.00187091
0.00190092
0.00189066
0.00183706
0.0017489
0.00161717
0.00155001
0.00147592
0.0013883
0.00131968
0.00180379
0.00179015
0.0018005
0.00180069
0.00180253
0.00180228
0.00180319
0.00180981
0.00181181
0.00181003
0.001816
0.0018246
0.00183894
0.00186513
0.00189814
0.00189598
0.00185173
0.00177714
0.00165531
0.00158607
0.00151578
0.00143754
0.00137211
0.00180664
0.00178568
0.00179605
0.0017935
0.0018058
0.00180432
0.00180009
0.00181171
0.00181395
0.00181084
0.00181583
0.00182385
0.00183641
0.001859
0.0018942
0.00190013
0.00186468
0.0018038
0.00169694
0.00162612
0.00156089
0.00149052
0.00142749
0.00180476
0.00177816
0.00179713
0.00179413
0.0018056
0.00180653
0.00180149
0.00181097
0.00181126
0.00181172
0.001816
0.0018237
0.00183453
0.00185348
0.00188825
0.00190224
0.00187579
0.00182849
0.00173878
0.00167051
0.0016085
0.00154772
0.00148722
0.00180295
0.00177877
0.00180089
0.00180191
0.00180402
0.00180702
0.0018072
0.00180757
0.00180708
0.00181222
0.00181568
0.0018228
0.00183213
0.00184819
0.00188091
0.00190202
0.00188448
0.00185025
0.0017796
0.00171744
0.00166
0.0016075
0.00155115
0.00180764
0.00178299
0.00180286
0.00180637
0.00180313
0.00180746
0.00180831
0.0018072
0.00180518
0.00180874
0.00181592
0.00182235
0.00182957
0.00184298
0.00187186
0.00189918
0.00189108
0.00186819
0.00181407
0.00176335
0.00171193
0.00166804
0.00161762
0.00180292
0.0017878
0.00179985
0.00180483
0.00180296
0.00180387
0.00180255
0.00180431
0.00180447
0.0018069
0.00181512
0.00182096
0.00182673
0.00183782
0.00186215
0.0018925
0.00189527
0.00188393
0.0018436
0.00180331
0.0017617
0.00172583
0.00168179
0.00180584
0.00178696
0.00179408
0.00180023
0.00180291
0.00180103
0.00179607
0.00180243
0.00180218
0.00180714
0.00181465
0.00181915
0.00182413
0.00183329
0.00185189
0.00188281
0.00189472
0.00189479
0.00186691
0.00183712
0.00180329
0.00177895
0.00174361
0.00179745
0.0017862
0.00178838
0.00179691
0.00180163
0.00180305
0.00179821
0.00179835
0.00180051
0.00180609
0.00181248
0.00181682
0.00182147
0.00182954
0.00184305
0.00186811
0.00188973
0.00190107
0.00188594
0.00186604
0.00183806
0.001821
0.00179846
0.00180003
0.00178198
0.00177884
0.00179393
0.00180103
0.00180179
0.0017933
0.00180313
0.00180082
0.00180497
0.0018104
0.00181478
0.00181905
0.00182578
0.00183597
0.0018533
0.0018766
0.00189683
0.00189594
0.00188951
0.00186862
0.00185554
0.00184152
0.00181254
0.00177783
0.00178298
0.00179677
0.00180129
0.0018007
0.00180196
0.00180421
0.00180182
0.00180387
0.00180808
0.00181264
0.00181649
0.00182228
0.00182983
0.00184186
0.00185982
0.00188379
0.00189213
0.00189951
0.00189124
0.00188308
0.00187433
0.00180782
0.00177853
0.0017946
0.00180504
0.00180113
0.00179949
0.00180354
0.00180356
0.00180151
0.00180268
0.00180638
0.00181085
0.00181404
0.00181871
0.00182459
0.00183229
0.00184343
0.00186511
0.00187753
0.00189208
0.00189705
0.00189796
0.00189544
0.00179386
0.00177638
0.00179687
0.00180386
0.00179946
0.00179694
0.0018021
0.00180174
0.00180032
0.00180086
0.00180415
0.00180886
0.00181168
0.00181502
0.00182003
0.00182616
0.00183122
0.00184648
0.00185823
0.00187274
0.00188417
0.00189324
0.00189786
0.00177843
0.0017703
0.0017954
0.00180092
0.00179736
0.00179378
0.00179882
0.00179909
0.00179818
0.00179923
0.0018022
0.00180677
0.00180954
0.00181156
0.00181465
0.00182066
0.00182422
0.00183225
0.0018415
0.0018519
0.00186307
0.00187444
0.00188385
0.00175075
0.00176544
0.00179247
0.00179781
0.00179521
0.00179072
0.0017952
0.00179648
0.00179604
0.00179711
0.00179979
0.00180429
0.00180709
0.00180913
0.0018102
0.00181409
0.00181883
0.00182315
0.00182989
0.00183539
0.00184302
0.00185161
0.00186184
0.00175428
0.00176049
0.00178894
0.00179512
0.00179356
0.00178856
0.00179222
0.00179428
0.00179423
0.00179587
0.00179755
0.00180155
0.00180393
0.00180667
0.00180704
0.00180853
0.00181282
0.00181608
0.00182177
0.00182525
0.00183016
0.00183434
0.00184152
0.00177742
0.00176399
0.00178691
0.00179269
0.00179193
0.00178701
0.00179052
0.00179271
0.00179259
0.00179419
0.00179581
0.00179872
0.0018003
0.00180367