/*--------------------------------*- C++ -*----------------------------------*\
  =========                 |
  \\      /  F ield         | OpenFOAM: The Open Source CFD Toolbox
   \\    /   O peration     | Website:  https://openfoam.org
    \\  /    A nd           | Version:  7
     \\/     M anipulation  |
\*---------------------------------------------------------------------------*/
FoamFile
{
    version     2.0;
    format      ascii;
    class       volScalarField;
    location    "69";
    object      omega;
}
// * * * * * * * * * * * * * * * * * * * * * * * * * * * * * * * * * * * * * //

dimensions      [0 0 -1 0 0 0 0];

internalField   nonuniform List<scalar> 
12842
(
3.14983
2.85189
2.66148
2.53327
2.441
2.37848
2.32954
2.29772
2.27044
2.25445
2.23872
2.23193
2.22404
2.22419
2.22769
2.23454
2.25539
2.28072
2.32936
2.38201
2.46358
2.51295
2.58577
3.14044
2.83791
2.6475
2.52758
2.43896
2.37781
2.32962
2.29785
2.27064
2.25458
2.23866
2.23184
2.22399
2.22441
2.22808
2.23667
2.25636
2.2844
2.33725
2.39136
2.47237
2.51978
2.59062
3.12508
2.81791
2.61991
2.49657
2.41598
2.36156
2.31908
2.29035
2.26559
2.25084
2.23577
2.22959
2.22307
2.22412
2.22873
2.23927
2.25954
2.2908
2.34294
2.39919
2.48613
2.53323
2.60142
3.10701
2.79525
2.60924
2.48479
2.40537
2.35352
2.31361
2.28641
2.26299
2.24899
2.23443
2.22836
2.22255
2.22394
2.22956
2.24143
2.26288
2.29726
2.35681
2.40875
2.4883
2.547
2.61595
3.08426
2.76404
2.57692
2.46124
2.38488
2.33488
2.29989
2.27609
2.25604
2.24379
2.23076
2.22494
2.2211
2.22322
2.22969
2.24344
2.26739
2.305
2.36502
2.43162
2.50352
2.55301
2.62994
3.06625
2.74092
2.56137
2.4417
2.36963
2.32539
2.29364
2.27139
2.25287
2.24135
2.22902
2.2235
2.22002
2.22248
2.22982
2.24484
2.27081
2.31146
2.37672
2.43951
2.53283
2.57342
2.6355
3.04153
2.70969
2.53543
2.42682
2.35524
2.31016
2.28109
2.26174
2.24617
2.23606
2.22515
2.22071
2.21881
2.22191
2.23051
2.24744
2.27604
2.32027
2.3921
2.45299
2.54626
2.6084
2.65968
3.02537
2.69092
2.51776
2.40768
2.34127
2.30029
2.27547
2.25752
2.24342
2.23388
2.22352
2.21942
2.21798
2.22144
2.23086
2.24919
2.27999
2.32755
2.40704
2.47025
2.55741
2.63168
2.69196
2.99737
2.66408
2.49911
2.3969
2.33177
2.29101
2.26664
2.2509
2.23841
2.22977
2.22062
2.21794
2.21743
2.22135
2.23154
2.25125
2.28442
2.33558
2.41914
2.48483
2.57336
2.6545
2.71733
2.98617
2.64381
2.48041
2.38095
2.32063
2.28226
2.26173
2.2474
2.23631
2.2281
2.21953
2.21741
2.21718
2.22152
2.23258
2.25361
2.2886
2.34208
2.43029
2.50253
2.58676
2.66769
2.74797
2.95274
2.61926
2.46454
2.36994
2.31379
2.2764
2.25583
2.2423
2.2323
2.22473
2.21758
2.21656
2.21704
2.22182
2.23364
2.25606
2.29341
2.35025
2.43886
2.51857
2.61239
2.68391
2.76671
2.9406
2.60052
2.44769
2.35715
2.30395
2.26865
2.25058
2.23851
2.22948
2.22286
2.21651
2.21607
2.21688
2.22211
2.23501
2.2591
2.29865
2.35844
2.45296
2.5388
2.63804
2.71188
2.79855
2.90857
2.57927
2.43393
2.34633
2.29774
2.26407
2.24588
2.23368
2.22549
2.21938
2.21464
2.21523
2.21678
2.22268
2.23657
2.26232
2.30459
2.36828
2.46321
2.55885
2.66928
2.74055
2.82294
2.8968
2.56251
2.41889
2.33643
2.28927
2.25786
2.24045
2.22975
2.222
2.21727
2.21343
2.21458
2.2166
2.22307
2.23825
2.26614
2.31142
2.37996
2.4832
2.58458
2.70221
2.78553
2.85989
2.86717
2.54511
2.4074
2.32687
2.28298
2.25324
2.23658
2.22551
2.21855
2.21408
2.21149
2.21321
2.21625
2.22384
2.24031
2.27002
2.3184
2.39157
2.49826
2.61136
2.73345
2.82779
2.8982
2.85668
2.53004
2.39378
2.31884
2.27586
2.24841
2.23151
2.22175
2.21496
2.21204
2.20994
2.2121
2.21586
2.22454
2.24263
2.27487
2.32727
2.40818
2.52429
2.64583
2.77066
2.87624
2.94811
2.82996
2.51615
2.38413
2.31103
2.26976
2.24355
2.22797
2.21831
2.21244
2.2094
2.20791
2.21056
2.21547
2.22538
2.24494
2.27921
2.33545
2.42267
2.54473
2.67896
2.80725
2.9269
2.99921
2.82131
2.50277
2.3721
2.3038
2.26365
2.23965
2.22371
2.21481
2.20923
2.20744
2.2062
2.20935
2.21522
2.2265
2.24785
2.28526
2.34682
2.4445
2.57522
2.71987
2.84782
2.97935
3.06311
2.79761
2.49133
2.36353
2.29775
2.25844
2.2351
2.22018
2.21185
2.20718
2.20542
2.20452
2.20813
2.21504
2.22741
2.25031
2.29021
2.35716
2.46263
2.59935
2.75804
2.89255
3.04003
3.12722
2.79119
2.47988
2.35343
2.29104
2.25284
2.2316
2.2168
2.20871
2.20454
2.20347
2.20304
2.20716
2.21489
2.22874
2.25352
2.29767
2.37088
2.4871
2.63262
2.80354
2.93946
3.10239
3.20845
2.76993
2.4701
2.34573
2.28601
2.24871
2.22776
2.21325
2.20574
2.2024
2.20193
2.20195
2.20641
2.21472
2.22943
2.25621
2.30375
2.38392
2.50691
2.65971
2.84688
2.99592
3.1788
3.29677
2.76642
2.4603
2.33738
2.28023
2.24329
2.22408
2.21055
2.20325
2.20038
2.20021
2.20086
2.20565
2.21442
2.23098
2.2598
2.31237
2.39792
2.5302
2.69847
2.89966
3.05954
3.26352
3.41245
2.74481
2.45179
2.33084
2.27533
2.23953
2.22079
2.20716
2.20043
2.19824
2.19878
2.20002
2.20483
2.21394
2.23179
2.26298
2.31916
2.41169
2.55066
2.73249
2.95064
3.13093
3.3607
3.53532
2.7412
2.44421
2.32555
2.2721
2.23548
2.2176
2.20553
2.19925
2.19731
2.19767
2.19907
2.2037
2.21259
2.23257
2.26656
2.3272
2.42259
2.57351
2.78294
3.02141
3.22759
3.48501
3.70243
2.73434
2.43976
2.32272
2.26883
2.23237
2.21561
2.20467
2.19893
2.19661
2.1962
2.19779
2.20223
2.21121
2.23359
2.26933
2.33272
2.43602
2.60214
2.83653
3.08956
3.3278
3.62374
3.88441
2.72746
2.43344
2.32006
2.266
2.22931
2.21355
2.20424
2.19864
2.19604
2.19435
2.19604
2.20045
2.21022
2.23477
2.27204
2.33731
2.44561
2.6324
2.89983
3.18942
3.46184
3.79307
4.10474
2.72025
2.42909
2.31767
2.26176
2.22623
2.21189
2.20353
2.19844
2.195
2.19199
2.19398
2.1985
2.2096
2.2362
2.2748
2.34053
2.46332
2.6752
2.96829
3.28986
3.60857
3.98984
4.35551
2.71381
2.42354
2.31514
2.25837
2.22363
2.21055
2.20286
2.19786
2.19371
2.1894
2.19154
2.19664
2.20977
2.23735
2.27692
2.34614
2.48324
2.72279
3.04677
3.41377
3.77785
4.19709
4.60814
2.70698
2.41918
2.31253
2.254
2.22152
2.2094
2.2016
2.1967
2.19179
2.18679
2.18915
2.19504
2.20972
2.23821
2.27945
2.35503
2.51767
2.78649
3.13513
3.54005
3.94923
4.41173
4.86515
2.70089
2.41495
2.30969
2.25103
2.2199
2.20869
2.19971
2.19468
2.18957
2.18398
2.18682
2.1939
2.20937
2.23936
2.2834
2.37576
2.55941
2.85678
3.23242
3.68104
4.13313
4.62994
5.11282
2.6947
2.41066
2.30678
2.24763
2.21894
2.20761
2.19717
2.19204
2.18701
2.1815
2.18485
2.19315
2.20965
2.24116
2.28915
2.40562
2.61792
2.94166
3.34017
3.82695
4.31818
4.8446
5.35698
2.6888
2.40752
2.30399
2.24578
2.2181
2.20661
2.19373
2.18902
2.18428
2.17912
2.18333
2.19313
2.21087
2.24621
2.31003
2.4512
2.68508
3.03302
3.45447
3.97426
4.49936
5.05616
5.58311
2.6832
2.40326
2.30143
2.2435
2.21753
2.20484
2.19005
2.18561
2.18165
2.17717
2.18223
2.19454
2.21785
2.26155
2.34137
2.50611
2.76548
3.13307
3.57383
4.12629
4.68156
5.2531
5.80002
2.67769
2.40048
2.29927
2.24227
2.21677
2.20277
2.18617
2.18249
2.17954
2.17564
2.18295
2.20472
2.23836
2.29199
2.38916
2.57601
2.85334
3.23797
3.69777
4.26974
4.84491
5.44413
5.99321
2.6722
2.39622
2.2976
2.24026
2.21547
2.19989
2.18239
2.17954
2.17741
2.17565
2.18805
2.22485
2.26845
2.33262
2.44554
2.65088
2.94651
3.34378
3.81742
4.41254
5.01022
5.61413
6.17678
2.66756
2.39364
2.29644
2.23894
2.21385
2.19688
2.17893
2.17712
2.17699
2.17891
2.20508
2.25824
2.31193
2.38697
2.5152
2.7368
3.04497
3.45163
3.94105
4.5452
5.14938
5.77765
6.33488
2.66158
2.38977
2.29568
2.2354
2.21108
2.19349
2.17626
2.17526
2.17772
2.19045
2.23205
2.30016
2.36271
2.44817
2.58889
2.82179
3.14042
3.55454
4.05139
4.66777
5.28972
5.92102
6.48548
2.658
2.38756
2.29537
2.23341
2.2084
2.19033
2.17372
2.17526
2.18629
2.21276
2.27203
2.35333
2.42388
2.51883
2.67049
2.91259
3.23791
3.65481
4.16571
4.78575
5.40776
6.05598
6.61349
2.65149
2.38463
2.29505
2.22879
2.20516
2.18763
2.17306
2.17944
2.20324
2.24541
2.32046
2.41169
2.48799
2.59122
2.75073
2.99752
3.32758
3.74958
4.2615
4.88531
5.52082
6.17763
6.73425
2.64839
2.38248
2.2947
2.22612
2.20228
2.18543
2.17418
2.19444
2.23306
2.28845
2.37911
2.4773
2.55842
2.66831
2.83367
3.08348
3.41488
3.83502
4.3613
4.98695
5.62541
6.2877
6.83745
2.64212
2.37963
2.29415
2.22205
2.19972
2.18589
2.183
2.22212
2.27051
2.34009
2.44227
2.54396
2.62727
2.74213
2.91079
3.1606
3.49375
3.91879
4.44099
5.0673
5.7138
6.39015
6.93355
2.63908
2.37663
2.29346
2.22076
2.20012
2.18996
2.20262
2.26142
2.31916
2.3992
2.51093
2.61355
2.69866
2.81689
2.98686
3.23541
3.5662
3.98799
4.52555
5.15303
5.80978
6.48191
7.01742
2.63297
2.37243
2.29151
2.21828
2.20341
2.20382
2.23306
2.31045
2.37295
2.46237
2.57965
2.68053
2.76497
2.88463
3.05433
3.30034
3.63194
4.05824
4.59016
5.22032
5.88024
6.56555
7.09954
2.63006
2.36735
2.29004
2.22055
2.21511
2.2267
2.2737
2.36685
2.43345
2.52899
2.64937
2.74692
2.83089
2.95109
3.11886
3.36137
3.68896
4.11417
4.6609
5.29171
5.96609
6.64675
7.17123
2.62417
2.36208
2.28602
2.22661
2.23299
2.26025
2.32195
2.42705
2.49574
2.59438
2.71546
2.8082
2.88968
3.00838
3.17365
3.41274
3.74154
4.17093
4.71423
5.35188
6.02906
6.71643
7.25267
2.621
2.35542
2.28449
2.24088
2.25992
2.30117
2.37631
2.48938
2.55988
2.65952
2.77933
2.86663
2.94619
3.0636
3.22523
3.46024
3.78522
4.21592
4.77228
5.41182
6.10149
6.79129
7.31724
2.61448
2.35044
2.28153
2.26004
2.29022
2.34978
2.43363
2.55006
2.62301
2.71967
2.83718
2.91856
2.99473
3.10895
3.26707
3.49913
3.82587
4.2626
4.82033
5.46768
6.16442
6.85846
7.40638
2.60964
2.3434
2.28228
2.28471
2.32732
2.40145
2.49155
2.60896
2.68382
2.77741
2.89081
2.96653
3.04026
3.15239
3.30648
3.53435
3.85986
4.29938
4.86751
5.52265
6.23052
6.92817
7.47143
2.60133
2.34083
2.28468
2.31396
2.36576
2.4582
2.55099
2.66535
2.74406
2.8305
2.93895
3.009
3.079
3.1873
3.33751
3.56444
3.88981
4.33247
4.90931
5.57059
6.28508
6.99726
7.55875
2.59456
2.33772
2.29226
2.34729
2.41043
2.51644
2.60937
2.72027
2.80227
2.88217
2.98355
3.04871
3.11589
3.22112
3.36648
3.58617
3.91164
4.35732
4.93853
5.60827
6.33863
7.04393
7.61728
2.58654
2.33726
2.30655
2.38451
2.45484
2.5744
2.66541
2.77076
2.85704
2.92774
3.02081
3.08162
3.14516
3.24619
3.38679
3.60608
3.92674
4.36647
4.94726
5.62644
6.35648
7.07997
7.6587
2.58152
2.34055
2.32798
2.42378
2.50137
2.62866
2.71636
2.81734
2.90581
2.96857
3.05264
3.11021
3.17117
3.26889
3.40453
3.6154
3.93317
4.37787
4.95424
5.62873
6.37565
7.10728
7.67836
2.57753
2.34793
2.35544
2.46671
2.54689
2.68065
2.76411
2.86062
2.94898
3.00396
3.07885
3.13334
3.19184
3.28533
3.41614
3.62362
3.93966
4.38443
4.9542
5.63005
6.37465
7.10115
7.69151
2.57503
2.3645
2.39044
2.51304
2.59438
2.73021
2.80845
2.90051
2.98508
3.03407
3.10073
3.15289
3.20985
3.30023
3.42646
3.62978
3.94418
4.39438
4.95841
5.62741
6.3993
7.14529
7.6849
2.57435
2.38575
2.43049
2.56202
2.64063
2.77721
2.84979
2.93698
3.01496
3.05931
3.11849
3.16827
3.22447
3.31062
3.43207
3.63259
3.94897
4.39871
4.96622
5.64383
6.38695
7.14885
7.71336
2.57496
2.41692
2.47744
2.61374
2.68911
2.82295
2.88955
2.97018
3.039
3.07973
3.13323
3.18133
3.23723
3.32036
3.43836
3.63742
3.95639
4.41272
4.97988
5.65982
6.41855
7.15762
7.73828
2.5803
2.45286
2.5258
2.662
2.73268
2.86196
2.92315
2.99666
3.05672
3.09488
3.14395
3.19075
3.24665
3.32612
3.43821
3.63611
3.94867
4.40231
4.96621
5.64274
6.37872
7.11189
7.69714
2.59053
2.49309
2.57406
2.70698
2.77454
2.89753
2.95381
3.02016
3.0714
3.10725
3.15302
3.19894
3.25455
3.33107
3.43826
3.63197
3.93681
4.38582
4.93628
5.59917
6.34245
7.06811
7.65375
2.60528
2.53641
2.62329
2.75004
2.81382
2.92952
2.98132
3.04029
3.08379
3.11785
3.16051
3.20603
3.26166
3.33479
3.43849
3.6262
3.9231
4.35792
4.90114
5.55419
6.29091
7.02732
7.5933
2.62356
2.58223
2.67099
2.78954
2.85106
2.9582
3.00564
3.05838
3.09424
3.12669
3.16701
3.21222
3.26771
3.33844
3.43915
3.62061
3.90723
4.32791
4.85728
5.4863
6.24
6.96604
7.51767
2.64449
2.62796
2.71688
2.82623
2.88453
2.98314
3.02656
3.07331
3.10337
3.13454
3.1723
3.21782
3.27319
3.34075
3.43838
3.61519
3.89196
4.29052
4.8064
5.4313
6.1745
6.90572
7.41701
2.66772
2.67279
2.75901
2.85917
2.9153
3.00486
3.04416
3.08696
3.11098
3.14126
3.17716
3.22258
3.27794
3.34363
3.4384
3.61126
3.87721
4.25803
4.75608
5.35867
6.11617
6.8247
7.32671
2.69113
2.71488
2.79765
2.88936
2.94206
3.02373
3.05907
3.09797
3.11785
3.1473
3.18109
3.22702
3.28242
3.34524
3.43826
3.60643
3.86501
4.2242
4.70793
5.30131
6.0416
6.75392
7.23935
2.71537
2.75361
2.83178
2.91645
2.96632
3.03987
3.07126
3.10805
3.12351
3.15265
3.18508
3.23083
3.28611
3.34763
3.43955
3.60433
3.85454
4.20089
4.66656
5.24556
5.97932
6.67522
7.17528
2.73827
2.78864
2.86221
2.94098
2.98708
3.05444
3.08188
3.11638
3.12877
3.15735
3.18841
3.23431
3.28992
3.34917
3.43956
3.60069
3.84568
4.18139
4.63468
5.20315
5.90809
6.60802
7.16712
2.76068
2.81893
2.88846
2.96321
3.00588
3.06663
3.09083
3.12379
3.13341
3.16188
3.19214
3.23749
3.29298
3.35131
3.44264
3.59969
3.83921
4.16776
4.60846
5.15864
5.85583
6.61898
7.46108
2.78173
2.84631
2.91197
2.98281
3.02205
3.07813
3.09889
3.13047
3.13793
3.1657
3.19537
3.2405
3.2957
3.35286
3.44312
3.59888
3.83342
4.15608
4.60084
5.14704
5.84304
6.69195
8.04652
2.80135
2.86864
2.93185
3.00074
3.03652
3.08742
3.10645
3.13614
3.14252
3.16991
3.19911
3.24296
3.29971
3.355
3.4464
3.59963
3.83399
4.15841
4.60371
5.15867
5.95079
7.13376
9.16948
2.82042
2.88945
2.9505
3.016
3.04936
3.09635
3.11306
3.14198
3.1472
3.17334
3.20239
3.24619
3.30127
3.35692
3.45063
3.60667
3.84921
4.18669
4.70758
5.30002
6.23052
7.64388
9.50269
2.83731
2.90613
2.966
3.02998
3.06039
3.10325
3.11999
3.1467
3.15245
3.17744
3.20612
3.24781
3.30206
3.35977
3.45529
3.61495
3.87132
4.24301
4.79807
5.52553
6.66445
8.03015
9.75166
2.85481
2.92245
2.98153
3.04184
3.07068
3.11012
3.12587
3.15215
3.15759
3.18092
3.20924
3.25141
3.30302
3.36407
3.4662
3.63721
3.92538
4.36869
5.06537
5.79043
7.13042
8.34267
10.397
2.86922
2.93589
2.99449
3.05249
3.07939
3.11521
3.13219
3.15645
3.16367
3.18487
3.21289
3.25286
3.30332
3.36452
3.47573
3.66055
3.97861
4.47708
5.23843
6.16783
7.3055
8.65188
10.5453
2.88555
2.95042
3.00817
3.06232
3.08759
3.12094
3.13777
3.16181
3.16904
3.18882
3.2157
3.25541
3.30348
3.36521
3.48082
3.68371
4.01042
4.52347
5.31543
6.38218
7.37795
8.62548
10.6508
2.89845
2.96266
3.01984
3.07114
3.09549
3.12544
3.14371
3.16608
3.17569
3.19244
3.21928
3.2581
3.3043
3.36633
3.48706
3.69508
4.04375
4.61558
5.34167
6.47486
7.48204
8.77163
10.9777
2.91381
2.97712
3.03271
3.07967
3.10221
3.13086
3.14909
3.17165
3.18073
3.19704
3.22193
3.26032
3.30504
3.36847
3.49423
3.70366
4.04579
4.62611
5.42582
6.51598
7.57503
8.66396
10.8683
2.92648
2.99023
3.04371
3.08893
3.11027
3.13618
3.15485
3.17617
3.18773
3.20025
3.22499
3.26014
3.30387
3.36736
3.49383
3.70176
4.05116
4.63713
5.40889
6.53369
7.49803
8.79254
11.0263
2.94071
3.00418
3.0557
3.09574
3.1165
3.1413
3.16046
3.18166
3.19159
3.20494
3.22817
3.26053
3.30489
3.3673
3.49752
3.70283
4.07559
4.66496
5.44642
6.56592
7.49418
8.67961
10.813
2.95303
3.01822
3.06609
3.10557
3.12408
3.14781
3.16526
3.18627
3.19816
3.20821
3.2302
3.26172
3.30376
3.36788
3.49464
3.70354
4.069
4.65051
5.46848
6.51251
7.51574
8.67427
10.8732
2.96572
3.03188
3.07585
3.11258
3.13045
3.15241
3.17148
3.19183
3.20205
3.21301
3.23454
3.26194
3.30321
3.36758
3.4954
3.70349
4.08031
4.64517
5.48874
6.52485
7.49473
8.6639
10.911
2.97942
3.04514
3.08676
3.12132
3.13766
3.16043
3.1772
3.19607
3.20705
3.21764
3.23843
3.2621
3.30277
3.36828
3.49498
3.70506
4.06671
4.64542
5.4372
6.50977
7.48277
8.71888
10.6116
2.99157
3.06195
3.09543
3.13172
3.14491
3.16663
3.18296
3.20399
3.21301
3.22461
3.24147
3.26218
3.30344
3.36612
3.49643
3.71025
4.06603
4.64308
5.44235
6.53942
7.46956
8.535
10.613
3.01172
3.07598
3.10945
3.14381
3.15429
3.17627
3.19276
3.20965
3.22111
3.23
3.24123
3.26264
3.30174
3.36578
3.49209
3.71402
4.0626
4.64371
5.4322
6.57285
7.51373
8.53205
10.3113
3.02754
3.09332
3.12099
3.1491
3.16399
3.1852
3.19911
3.21216
3.2225
3.23279
3.24311
3.26251
3.30161
3.36609
3.49126
3.70569
4.05917
4.65327
5.42909
6.49626
7.48563
8.57607
10.2607
3.03643
3.10607
3.1298
3.1537
3.17388
3.19412
3.20169
3.21637
3.22388
3.23607
3.24182
3.26446
3.30177
3.36348
3.49016
3.70486
4.05496
4.61517
5.43524
6.50099
7.47939
8.40434
10.3311
3.0455
3.11579
3.12993
3.15539
3.17479
3.19462
3.20563
3.21613
3.22413
3.23511
3.24242
3.26305
3.30134
3.36523
3.48922
3.70671
4.05158
4.60851
5.44339
6.45343
7.50489
8.38601
10.049
3.05863
3.11532
3.13103
3.16025
3.17634
3.199
3.20511
3.21663
3.22612
3.23501
3.24241
3.26346
3.30055
3.36284
3.48977
3.69618
4.05363
4.60962
5.47519
6.39401
7.46555
8.40512
9.60079
3.05811
3.11609
3.13418
3.1682
3.18166
3.19744
3.2057
3.21989
3.22444
3.23509
3.24242
3.26289
3.29959
3.364
3.48716
3.70281
4.03249
4.56383
5.41866
6.21153
7.23471
8.15189
9.04296
3.05901
3.11674
3.13682
3.16679
3.18042
3.19899
3.20811
3.21864
3.22646
3.23565
3.24411
3.26258
3.29954
3.36412
3.48506
3.69346
4.02932
4.55871
5.3341
6.01535
6.96074
7.82054
8.50992
3.05981
3.11831
3.13785
3.17056
3.18008
3.19867
3.21044
3.21942
3.22512
3.23468
3.24223
3.26205
3.2968
3.36206
3.48238
3.69463
4.02728
4.55771
5.20047
5.77826
6.62114
7.41758
7.97993
3.06008
3.12292
3.13582
3.16781
3.18058
3.19796
3.20937
3.22034
3.22573
3.23372
3.24215
3.26165
3.29645
3.3587
3.48074
3.68801
4.00887
4.5242
5.08611
5.5827
6.32852
7.07108
7.54925
3.06014
3.11893
3.13508
3.16875
3.18012
3.19739
3.21037
3.21774
3.22568
3.23361
3.24281
3.2614
3.29649
3.35431
3.47375
3.66491
3.96192
4.43899
4.93778
5.36457
6.01233
6.70552
7.13753
3.05998
3.11878
3.13452
3.16821
3.18019
3.19866
3.21152
3.21741
3.2284
3.23608
3.24035
3.26048
3.29738
3.35321
3.46859
3.64857
3.92677
4.3741
4.83561
5.21122
5.78253
6.43519
6.83433
3.06034
3.12162
3.13387
3.16986
3.18149
3.19834
3.20859
3.21703
3.22618
3.23404
3.24026
3.26061
3.29622
3.35427
3.45681
3.61896
3.86982
4.27268
4.69756
5.02959
5.52839
6.13506
6.51955
3.06174
3.12211
3.13375
3.17022
3.17794
3.19903
3.2084
3.21735
3.22563
3.23431
3.24133
3.25835
3.29512
3.35329
3.45097
3.60336
3.83805
4.21597
4.62424
4.92356
5.37208
5.9407
6.30421
3.0607
3.1205
3.13527
3.16558
3.18069
3.19533
3.20928
3.2197
3.22523
3.23362
3.24112
3.25823
3.29175
3.34962
3.43761
3.57352
3.78237
4.11653
4.50562
4.77757
5.16954
5.68456
6.03854
3.06131
3.11982
3.13016
3.16508
3.1773
3.19472
3.2058
3.21682
3.22643
3.2335
3.24109
3.25483
3.29092
3.34965
3.43324
3.56238
3.76119
4.07931
4.45763
4.70919
5.07546
5.54957
5.87278
3.05468
3.11685
3.12958
3.16585
3.17554
3.19479
3.20838
3.21706
3.22605
3.23096
3.23855
3.25376
3.28817
3.34242
3.41842
3.53354
3.70862
3.98337
4.35806
4.58828
4.90524
5.32182
5.63318
3.05349
3.11723
3.13171
3.16005
3.17415
3.18938
3.20438
3.21409
3.2238
3.22969
3.23632
3.25501
3.28518
3.3349
3.40431
3.50762
3.66257
3.89934
4.26334
4.48068
4.75997
5.12305
5.41713
3.05385
3.10927
3.13176
3.15875
3.17525
3.18834
3.2054
3.21229
3.22131
3.22626
3.23504
3.25391
3.28142
3.32661
3.38957
3.48215
3.61956
3.82088
4.15702
4.3712
4.61879
4.92924
5.19853
3.04403
3.10749
3.12987
3.15719
3.17415
3.19027
3.20355
3.20526
3.21662
3.22282
3.22878
3.25197
3.27713
3.31808
3.3749
3.45785
3.58
3.74847
4.04551
4.25321
4.47561
4.74081
4.98393
3.0412
3.11048
3.12608
3.15928
3.16947
3.18807
3.19955
3.20299
3.20848
3.21878
3.22685
3.24826
3.27143
3.30843
3.35907
3.43307
3.5422
3.68085
3.93006
4.13011
4.32835
4.55152
4.77125
3.04325
3.10923
3.12096
3.15569
3.16457
3.18241
3.19413
3.20196
3.20587
3.21671
3.22762
3.24279
3.26463
3.29848
3.34326
3.40853
3.50705
3.61939
3.82087
3.99977
4.17863
4.36443
4.56042
3.03886
3.10363
3.11562
3.14338
3.15623
3.17539
3.18508
3.19692
3.20618
3.21127
3.22359
3.23617
3.2564
3.28677
3.32588
3.38235
3.47146
3.56191
3.71962
3.87378
4.02657
4.17818
4.35111
3.02105
3.09641
3.10956
3.13194
3.14093
3.16489
3.17556
3.18925
3.20228
3.20887
3.21588
3.22795
3.24781
3.275
3.30891
3.35684
3.43647
3.50955
3.63169
3.75531
3.88536
4.0025
4.14766
3.01299
3.08627
3.10217
3.12311
3.13567
3.15597
3.17324
3.17814
3.19502
3.2013
3.20656
3.21817
3.23684
3.26116
3.29011
3.32974
3.39899
3.45837
3.55394
3.65084
3.75449
3.84454
3.96046
2.99519
3.07503
3.09334
3.11544
3.13645
3.14917
3.1626
3.1685
3.18795
3.19062
3.19692
3.20877
3.22546
3.24741
3.27222
3.30424
3.36252
3.41086
3.48569
3.56025
3.64428
3.70731
3.79514
2.99237
3.06086
3.07809
3.10249
3.12611
3.13885
3.14929
3.16252
3.17691
3.17989
3.18673
3.19681
3.21088
3.2307
3.25188
3.27703
3.32412
3.36369
3.42236
3.47859
3.5479
3.59573
3.65518
2.97421
3.04448
3.06159
3.08367
3.11197
3.12698
3.13658
3.1511
3.1646
3.1696
3.17598
3.18437
3.19607
3.21405
3.23267
3.25215
3.28849
3.32153
3.36595
3.40643
3.46259
3.50241
3.54662
2.93666
3.02428
3.04257
3.06127
3.09255
3.11024
3.12037
3.13487
3.14699
3.15457
3.16078
3.16754
3.1771
3.19284
3.20954
3.2245
3.25159
3.27857
3.31445
3.34105
3.38367
3.41629
3.45314
2.91937
3.0033
3.02367
3.03866
3.07223
3.09184
3.10316
3.11742
3.12871
3.13751
3.14377
3.14994
3.15801
3.17167
3.1873
3.19903
3.21891
3.23931
3.26943
3.2874
3.31696
3.34074
3.37112
2.88531
2.97779
2.99964
3.01873
3.04733
3.06733
3.07986
3.0941
3.10433
3.1142
3.12074
3.12621
3.13291
3.14441
3.159
3.16833
3.18381
3.19774
3.22318
3.23813
3.25883
3.27385
3.29591
2.88471
2.951
2.97398
2.99833
3.02155
3.0413
3.0551
3.06966
3.07954
3.08919
3.09641
3.10204
3.10789
3.11745
3.13139
3.13936
3.15129
3.1608
3.17887
3.19259
3.20983
3.22032
3.23618
2.85869
2.9156
2.94039
2.96899
2.98856
3.00745
3.02187
3.03695
3.04667
3.0565
3.0639
3.0695
3.07448
3.08207
3.09468
3.10226
3.1125
3.1193
3.13149
3.14189
3.15678
3.16508
3.17713
2.82549
2.8766
2.90479
2.93652
2.9546
2.97267
2.98739
3.00289
3.01296
3.02219
3.03058
3.03695
3.04176
3.04739
3.05854
3.06551
3.07462
3.07988
3.08903
3.09573
3.10789
3.11556
3.12634
2.78134
2.82716
2.85903
2.89254
2.9107
2.9279
2.94188
2.95746
2.96807
2.9772
2.98497
2.99218
2.99733
3.00155
3.01018
3.01692
3.02555
3.02992
3.03723
3.04173
3.05009
3.05548
3.06462
2.7366
2.77734
2.81243
2.84678
2.86623
2.88329
2.89644
2.91148
2.92237
2.93142
2.93987
2.94733
2.9535
2.95712
2.96402
2.96902
2.97747
2.98161
2.98843
2.99217
2.99894
3.00308
3.01064
2.68084
2.71735
2.75342
2.78713
2.80794
2.82495
2.83694
2.85102
2.86199
2.87049
2.87776
2.88606
2.893
2.89626
2.90209
2.90574
2.91249
2.91625
2.9224
2.92554
2.93096
2.93404
2.93984
2.62665
2.66019
2.6959
2.7283
2.75039
2.768
2.77955
2.79228
2.80312
2.81223
2.81924
2.82611
2.83509
2.83883
2.84448
2.84749
2.85302
2.85626
2.8621
2.86526
2.87082
2.87367
2.87893
2.55754
2.58918
2.62225
2.65201
2.67406
2.69132
2.70281
2.71442
2.72405
2.73273
2.73957
2.7452
2.75317
2.7579
2.76356
2.76628
2.7707
2.77309
2.77734
2.77983
2.78438
2.78689
2.79167
2.49266
2.52295
2.55377
2.58116
2.60273
2.61939
2.63093
2.64225
2.65175
2.6602
2.66794
2.67238
2.68034
2.68436
2.69104
2.69413
2.69918
2.70163
2.70582
2.70796
2.71183
2.71388
2.7179
2.40744
2.43598
2.46282
2.48691
2.50657
2.52103
2.53191
2.54195
2.55049
2.55743
2.56546
2.56919
2.57515
2.57901
2.58361
2.58634
2.59039
2.59254
2.59626
2.59829
2.60173
2.60349
2.60694
2.33266
2.35905
2.38406
2.40598
2.42436
2.43701
2.44684
2.45662
2.46542
2.47143
2.47941
2.48403
2.48985
2.49366
2.4988
2.5013
2.50554
2.50763
2.51128
2.51321
2.51676
2.51861
2.52199
2.2296
2.25176
2.27225
2.29058
2.30627
2.31647
2.32387
2.33045
2.33842
2.34248
2.34878
2.35186
2.35645
2.35888
2.36261
2.36451
2.36735
2.36898
2.37167
2.37314
2.37553
2.37686
2.37961
2.14956
2.1682
2.18727
2.20344
2.2177
2.22705
2.23453
2.23952
2.24664
2.25076
2.25623
2.25977
2.26363
2.26651
2.26976
2.27182
2.27474
2.2762
2.2789
2.28051
2.28345
2.2848
2.28733
2.02518
2.03616
2.0498
2.06113
2.07093
2.07694
2.0819
2.08473
2.0884
2.09074
2.09344
2.09543
2.09752
2.09904
2.1011
2.10232
2.10408
2.10506
2.10647
2.10736
2.10924
2.11054
2.11252
1.95414
1.96038
1.97111
1.9805
1.98897
1.99429
1.99878
2.00161
2.00465
2.00689
2.00912
2.01098
2.01292
2.01425
2.01621
2.01739
2.01915
2.02016
2.02163
2.02232
2.02404
2.02518
2.02705
1.77869
1.77805
1.77965
1.78143
1.78291
1.78402
1.78377
1.78396
1.7837
1.78326
1.78323
1.7821
1.78239
1.78182
1.78179
1.78235
1.78231
1.78248
1.78278
1.783
1.78391
1.7845
1.78614
3.05553
2.7239
2.54094
2.4332
2.36068
2.31224
2.28271
2.26138
2.24544
2.23388
2.22313
2.21853
2.21517
2.2164
2.22083
2.23043
2.24846
2.27775
2.32492
2.3834
2.47021
2.52748
2.59154
3.06873
2.73565
2.56179
2.45152
2.37619
2.32486
2.28912
2.26846
2.25013
2.23818
2.22611
2.2221
2.21818
2.21925
2.22306
2.23206
2.24945
2.27815
2.32625
2.38346
2.47157
2.51541
2.58167
3.08748
2.76793
2.58151
2.46294
2.38418
2.3319
2.29844
2.27256
2.25256
2.24025
2.2293
2.22528
2.21987
2.22056
2.22421
2.23302
2.25054
2.2781
2.326
2.38008
2.4628
2.51003
2.5819
3.10458
2.78052
2.60041
2.48368
2.4015
2.34802
2.30471
2.27886
2.25888
2.24623
2.23404
2.22852
2.22244
2.22285
2.22593
2.23386
2.25104
2.27769
2.32614
2.38096
2.46504
2.5127
2.58358
3.1184
2.81594
2.63076
2.50283
2.41575
2.35683
2.31498
2.28893
2.26606
2.25232
2.2389
2.2321
2.2246
2.22405
2.22695
2.23398
2.253
2.27816
2.32692
2.38012
2.46151
2.50908
2.58095
3.13704
2.8341
2.63938
2.51
2.42282
2.36582
2.32257
2.29489
2.2706
2.25582
2.24099
2.23342
2.22566
2.22494
2.22773
2.23493
2.25407
2.27941
2.3278
2.38171
2.46388
2.51288
2.5854
3.14723
2.84961
2.65751
2.53269
2.44395
2.38274
2.33436
2.3026
2.2752
2.2588
2.24309
2.23525
2.22716
2.22586
2.2288
2.23475
2.25719
2.28182
2.33024
2.38499
2.46664
2.51715
2.59061
3.15236
2.85703
2.66522
2.53713
2.44508
2.38255
2.33363
2.30186
2.27442
2.25818
2.24261
2.235
2.22696
2.22601
2.22922
2.23504
2.26001
2.28398
2.33264
2.38503
2.46579
2.51662
2.58962
2.83029
2.51349
2.37455
2.30331
2.26041
2.23929
2.22327
2.21258
2.20422
2.19998
2.19665
2.19622
2.1975
2.2015
2.21049
2.2286
2.2623
2.32011
2.41217
2.562
2.71832
2.96189
3.10403
2.84757
2.5215
2.37967
2.30688
2.26439
2.24162
2.2246
2.21399
2.20651
2.20222
2.19854
2.19735
2.19873
2.20245
2.21105
2.22863
2.26035
2.31385
2.39807
2.53556
2.67903
2.89718
3.01824
2.85008
2.53022
2.38766
2.31468
2.26949
2.24422
2.22784
2.21725
2.20915
2.20377
2.19993
2.19856
2.19951
2.20308
2.2114
2.22805
2.25849
2.31
2.39106
2.52223
2.65013
2.83431
2.94007
2.86738
2.53933
2.39379
2.31862
2.27433
2.24703
2.22938
2.21884
2.21195
2.20634
2.20203
2.19985
2.20055
2.20376
2.21181
2.22779
2.25643
2.30429
2.37892
2.50004
2.61678
2.78566
2.88826
2.87214
2.54913
2.40308
2.32726
2.27944
2.25002
2.23264
2.22212
2.21452
2.20819
2.20378
2.20134
2.20171
2.20468
2.21224
2.22757
2.25516
2.30123
2.37291
2.48808
2.59283
2.74506
2.83047
2.8915
2.55995
2.41021
2.33173
2.28528
2.25369
2.23532
2.224
2.21758
2.21092
2.20589
2.20275
2.20269
2.20543
2.2127
2.22744
2.25318
2.2959
2.3622
2.46802
2.56799
2.70636
2.79194
2.89813
2.57091
2.42138
2.34156
2.29035
2.25689
2.23869
2.22767
2.2204
2.21315
2.2079
2.20458
2.20408
2.20661
2.21338
2.22751
2.2523
2.29345
2.35689
2.45695
2.54876
2.67504
2.75335
2.9199
2.58418
2.42944
2.3465
2.29731
2.26185
2.24225
2.22983
2.22328
2.21574
2.20993
2.20608
2.2051
2.20749
2.21401
2.22746
2.25067
2.28906
2.34835
2.44131
2.52981
2.64658
2.72378
2.92808
2.59655
2.44341
2.35762
2.30264
2.26578
2.2462
2.23414
2.22648
2.21844
2.21203
2.20809
2.20661
2.20876
2.2148
2.22757
2.25007
2.2872
2.34396
2.43119
2.51525
2.62332
2.69573
2.95224
2.61288
2.45192
2.36388
2.31064
2.27133
2.2504
2.23665
2.22916
2.22068
2.2138
2.2095
2.20759
2.20964
2.21547
2.22765
2.24883
2.28381
2.33755
2.41958
2.50483
2.60071
2.67286
2.96148
2.62676
2.4688
2.37565
2.31692
2.27687
2.25495
2.2417
2.2325
2.22353
2.21587
2.2115
2.20906
2.2109
2.2163
2.22776
2.24839
2.28241
2.33423
2.41142
2.49557
2.58047
2.65369
2.98771
2.64664
2.47838
2.38377
2.32552
2.28302
2.25977
2.24446
2.23502
2.22544
2.21719
2.21268
2.20996
2.21171
2.21697
2.22795
2.24778
2.28026
2.33046
2.40305
2.48958
2.56365
2.6372
2.99721
2.66111
2.49652
2.39658
2.33414
2.2897
2.26489
2.25001
2.23826
2.22803
2.2191
2.2145
2.2114
2.21298
2.21785
2.22833
2.24779
2.27948
2.32932
2.3966
2.48286
2.54647
2.6184
3.02443
2.685
2.50823
2.40641
2.34188
2.29683
2.27037
2.25276
2.24024
2.22955
2.22005
2.21542
2.21227
2.21375
2.21855
2.22881
2.248
2.2786
2.32788
2.39071
2.47482
2.53496
2.61369
3.03351
2.69797
2.52713
2.4211
2.35384
2.30478
2.27588
2.25824
2.24355
2.23212
2.22182
2.21728
2.2139
2.21524
2.21968
2.22952
2.24821
2.27846
2.32761
2.385
2.47191
2.53275
2.60485
2.71086
2.42208
2.33091
2.34833
2.42224
2.53247
2.61056
2.67512
2.75632
2.85032
2.92791
2.99555
3.04884
3.10275
3.15821
3.23958
3.35521
3.51953
3.7475
4.04804
4.38302
4.76145
5.1123
2.71746
2.42218
2.30432
2.30954
2.37137
2.4737
2.55351
2.60818
2.69123
2.78811
2.87393
2.95223
3.01019
3.06842
3.12988
3.21109
3.33082
3.49109
3.71667
4.01242
4.34066
4.71341
5.05362
2.72177
2.4275
2.29333
2.28626
2.33528
2.42698
2.49871
2.55234
2.63118
2.72591
2.81699
2.89719
2.968
3.03079
3.09426
3.18128
3.30098
3.46414
3.68824
3.98189
4.30227
4.67815
5.01398
2.72636
2.4328
2.2838
2.26334
2.29614
2.37445
2.4447
2.48904
2.56322
2.65812
2.75337
2.84565
2.91701
2.98653
3.05619
3.14377
3.26887
3.42892
3.65082
3.94162
4.2585
4.62399
4.9543
2.72907
2.43759
2.28643
2.25391
2.27124
2.33657
2.39721
2.4333
2.49941
2.5882
2.68626
2.77873
2.86194
2.9369
3.00985
3.1033
3.2295
3.3935
3.61527
3.90609
4.21734
4.58901
4.91219
2.73272
2.44355
2.28596
2.2485
2.24578
2.29539
2.34666
2.37929
2.43504
2.51768
2.61677
2.71634
2.80156
2.88048
2.9592
3.05535
3.18674
3.34923
3.56978
3.85871
4.16704
4.52973
4.84997
2.73549
2.44884
2.29059
2.24996
2.23377
2.26945
2.31148
2.33127
2.3769
2.45035
2.54611
2.64411
2.73561
2.82175
2.90304
3.00337
3.13717
3.30363
3.5239
3.81542
4.12206
4.48768
4.80619
2.73823
2.45283
2.29441
2.25148
2.22497
2.24419
2.27311
2.28955
2.32364
2.38704
2.47776
2.57678
2.66814
2.75593
2.84111
2.94492
3.08246
3.24937
3.46928
3.75958
4.0633
4.42475
4.73726
2.74233
2.45757
2.30108
2.25555
2.22518
2.23001
2.24906
2.25499
2.2793
2.33009
2.41325
2.50526
2.59947
2.69018
2.77669
2.88219
3.02255
3.19244
3.4114
3.70624
4.01154
4.37176
4.68923
2.74477
2.45952
2.30621
2.25841
2.22592
2.22041
2.22767
2.2287
2.24312
2.283
2.35391
2.44143
2.53024
2.62106
2.70753
2.81521
2.95684
3.12839
3.34612
3.64018
3.94262
4.30256
4.61649
2.75014
2.46261
2.31337
2.26374
2.22935
2.21862
2.21385
2.20806
2.2159
2.24451
2.30408
2.37939
2.46554
2.55367
2.63921
2.74495
2.88809
3.06092
3.27706
3.57609
3.88167
4.23759
4.556
2.75294
2.46465
2.31768
2.26625
2.23183
2.21835
2.20669
2.19776
2.19816
2.2157
2.26149
2.32664
2.40417