/*--------------------------------*- C++ -*----------------------------------*\
  =========                 |
  \\      /  F ield         | OpenFOAM: The Open Source CFD Toolbox
   \\    /   O peration     | Website:  https://openfoam.org
    \\  /    A nd           | Version:  7
     \\/     M anipulation  |
\*---------------------------------------------------------------------------*/
FoamFile
{
    version     2.0;
    format      ascii;
    class       volScalarField;
    location    "69";
    object      p;
}
// * * * * * * * * * * * * * * * * * * * * * * * * * * * * * * * * * * * * * //

dimensions      [0 2 -2 0 0 0 0];

internalField   nonuniform List<scalar> 
12842
(
0.00186075
0.000134902
-0.00467848
-0.0113695
-0.0163081
-0.0152999
-0.00350907
0.0265584
0.0869396
0.195609
0.377221
0.662619
1.08636
1.68202
2.47522
3.4754
4.66963
6.02087
7.47157
8.95187
10.3929
11.7328
12.9371
-0.0652587
-0.0725769
-0.0883474
-0.11478
-0.146954
-0.18081
-0.213602
-0.240513
-0.252122
-0.232691
-0.158869
0.00055694
0.282889
0.727263
1.3674
2.22242
3.28924
4.53889
5.9186
7.35874
8.78745
10.135
11.3623
-0.119344
-0.13307
-0.158882
-0.203813
-0.260674
-0.326134
-0.400087
-0.480556
-0.560862
-0.627685
-0.659141
-0.623761
-0.481578
-0.188019
0.298347
1.00551
1.93902
3.07659
4.36911
5.74669
7.13542
8.45839
9.67522
-0.163112
-0.181076
-0.216753
-0.279374
-0.358576
-0.452801
-0.565032
-0.696177
-0.842428
-0.993156
-1.12824
-1.21627
-1.21491
-1.07444
-0.746144
-0.193752
0.596231
1.60749
2.79436
4.08697
5.41067
6.6826
7.86466
-0.198856
-0.217224
-0.263223
-0.342261
-0.441126
-0.561206
-0.708747
-0.887521
-1.09682
-1.32916
-1.56671
-1.77877
-1.92117
-1.9396
-1.77841
-1.39329
-0.762784
0.103072
1.16295
2.34803
3.5848
4.78511
5.91592
-0.227984
-0.242968
-0.300093
-0.393513
-0.509091
-0.65189
-0.831288
-1.0538
-1.32209
-1.6323
-1.96954
-2.30462
-2.59243
-2.77479
-2.78969
-2.58499
-2.13107
-1.43103
-0.520564
0.533936
1.66192
2.77055
3.83382
-0.251429
-0.260159
-0.329102
-0.434258
-0.563557
-0.725737
-0.932955
-1.19426
-1.51591
-1.89816
-2.32967
-2.78382
-3.21559
-3.56413
-3.76184
-3.74935
-3.48866
-2.97543
-2.2382
-1.33965
-0.344946
0.648714
1.62563
-0.269978
-0.270738
-0.351757
-0.465748
-0.605987
-0.784196
-1.01485
-1.30932
-1.67764
-2.12459
-2.64301
-3.20999
-3.78184
-4.29648
-4.68173
-4.87171
-4.81999
-4.51438
-3.97457
-3.2585
-2.42293
-1.56987
-0.699095
-0.285488
-0.276321
-0.368666
-0.487806
-0.63517
-0.824292
-1.071
-1.38842
-1.78988
-2.28412
-2.86789
-3.52245
-4.20641
-4.85816
-5.40285
-5.77012
-5.90655
-5.79332
-5.44094
-4.90337
-4.22525
-3.51933
-2.75617
-0.301106
-0.279536
-0.384252
-0.506547
-0.65939
-0.857016
-1.11581
-1.45039
-1.87674
-2.40664
-3.04005
-3.76176
-4.53274
-5.29256
-5.96516
-6.47777
-6.77227
-6.82523
-6.63975
-6.26576
-5.73769
-5.1705
-4.52365
-0.31328
-0.28063
-0.398277
-0.522686
-0.680825
-0.886467
-1.15623
-1.50647
-1.95574
-2.51869
-3.19852
-3.9838
-4.83827
-5.70359
-6.50347
-7.16392
-7.62319
-7.85402
-7.85228
-7.66323
-7.31072
-6.90852
-6.4067
-0.322042
-0.280354
-0.410497
-0.535918
-0.699051
-0.911868
-1.19117
-1.55538
-2.02542
-2.6188
-3.34211
-4.18806
-5.12379
-6.09383
-7.02267
-7.83605
-8.46927
-8.89179
-9.09204
-9.1101
-8.95847
-8.74721
-8.41614
-0.328283
-0.279466
-0.421096
-0.54662
-0.714477
-0.933482
-1.22091
-1.59746
-2.08625
-2.70765
-3.47189
-4.3762
-5.39175
-6.46678
-7.52732
-8.49971
-9.31683
-9.94518
-10.3656
-10.6122
-10.6855
-10.6895
-10.5549
-0.332668
-0.278425
-0.430233
-0.555294
-0.727711
-0.951953
-1.24636
-1.63396
-2.13984
-2.78729
-3.5904
-4.55127
-5.64561
-6.82611
-8.02109
-9.15825
-10.1685
-11.0158
-11.6732
-12.1683
-12.4891
-12.7312
-12.8182
-0.335613
-0.277446
-0.437958
-0.562348
-0.739181
-0.967783
-1.26832
-1.66593
-2.18754
-2.85943
-3.69968
-4.71556
-5.88779
-7.1742
-8.50609
-9.81331
-11.0253
-12.1038
-13.014
-13.7762
-14.3653
-14.8663
-15.1976
-0.33743
-0.276626
-0.444327
-0.568123
-0.749125
-0.981283
-1.28727
-1.69403
-2.23015
-2.92503
-3.80082
-4.8702
-6.11937
-7.51193
-8.98291
-10.465
-11.8867
-13.2075
-14.3844
-15.4297
-16.3049
-17.0815
-17.6749
-0.338409
-0.275976
-0.449455
-0.572915
-0.75769
-0.992694
-1.30358
-1.71864
-2.26814
-2.9846
-3.89433
-5.01567
-6.34067
-7.83942
-9.45129
-11.1126
-12.7509
-14.3234
-15.7785
-17.1189
-18.2924
-19.3549
-20.2212
-0.338785
-0.27546
-0.453507
-0.576945
-0.76495
-1.0022
-1.31746
-1.73998
-2.30168
-3.03825
-3.9802
-5.15169
-6.55105
-8.15548
-9.90936
-11.753
-13.6131
-15.444
-17.1843
-18.8259
-20.3027
-21.6524
-22.7926
-0.338742
-0.275009
-0.456674
-0.580363
-0.770978
-1.01
-1.32913
-1.75823
-2.33091
-3.08605
-4.05827
-5.27779
-6.74954
-8.45843
-10.3543
-12.3817
-14.466
-16.5577
-18.5842
-20.5251
-22.2997
-23.9269
-25.3292
-0.338413
-0.274561
-0.459156
-0.583252
-0.775861
-1.0163
-1.33878
-1.77356
-2.356
-3.12805
-4.12844
-5.39354
-6.93519
-8.74642
-10.7828
-12.9932
-15.3004
-17.6498
-19.956
-22.1839
-24.2393
-26.1212
-27.7599
-0.337905
-0.274063
-0.461099
-0.585632
-0.779699
-1.02129
-1.34657
-1.78616
-2.3771
-3.16435
-4.19062
-5.49849
-7.10688
-9.01723
-11.1909
-13.5803
-16.1046
-18.7015
-21.2712
-23.7626
-26.0686
-28.1693
-30.0049
-0.337266
-0.273513
-0.462672
-0.587533
-0.782612
-1.02512
-1.35261
-1.79609
-2.39424
-3.19486
-4.24444
-5.59178
-7.26287
-9.26761
-11.5728
-14.1334
-16.8629
-19.6894
-22.4963
-25.2156
-27.7297
-30.0019
-31.984
-0.336448
-0.272847
-0.463806
-0.588888
-0.78471
-1.02797
-1.35716
-1.80372
-2.40785
-3.22001
-4.29022
-5.67331
-7.40217
-9.49486
-11.9228
-14.6423
-17.5587
-20.5881
-23.5958
-26.4968
-29.166
-31.5545
-33.6259
-0.334814
-0.272287
-0.464596
-0.589648
-0.785772
-1.02938
-1.35943
-1.80786
-2.41601
-3.23645
-4.32222
-5.7337
-7.51046
-9.67872
-12.2147
-15.0755
-18.1567
-21.3605
-24.5327
-27.5716
-30.3468
-32.8014
-34.9082
-0.336704
-0.273549
-0.466854
-0.591568
-0.78762
-1.03118
-1.36137
-1.81053
-2.42085
-3.24659
-4.34354
-5.77712
-7.59334
-9.82568
-12.4543
-15.4346
-18.6507
-21.9875
-25.2717
-28.3867
-31.201
-33.6571
-35.7401
-0.337968
-0.274781
-0.468895
-0.593457
-0.789694
-1.03359
-1.36446
-1.81517
-2.42859
-3.26044
-4.36877
-5.8231
-7.67438
-9.96114
-12.6648
-15.7359
-19.0449
-22.4588
-25.7888
-28.9083
-31.6925
-34.0905
-36.1007
-0.338215
-0.275568
-0.470104
-0.594534
-0.791003
-1.03531
-1.36704
-1.81952
-2.4362
-3.27395
-4.3925
-5.86458
-7.74457
-10.0739
-12.8329
-15.9645
-19.325
-22.7644
-26.0835
-29.1517
-31.856
-34.1566
-36.0634
-0.338006
-0.276091
-0.470644
-0.594876
-0.79146
-1.03603
-1.36841
-1.82235
-2.44164
-3.284
-4.41043
-5.89595
-7.79696
-10.1559
-12.9496
-16.1119
-19.4851
-22.9046
-26.1668
-29.1421
-31.7329
-33.912
-35.6992
-0.337605
-0.27647
-0.470756
-0.594834
-0.791477
-1.03621
-1.36909
-1.82413
-2.44531
-3.29092
-4.42275
-5.91721
-7.83133
-10.2065
-13.0144
-16.1784
-19.5283
-22.8883
-26.0559
-28.9072
-31.3615
-33.4045
-35.0643
-0.337035
-0.276727
-0.470633
-0.594719
-0.791472
-1.03641
-1.36976
-1.82571
-2.44828
-3.29599
-4.43099
-5.93007
-7.84941
-10.2276
-13.0292
-16.1669
-19.4602
-22.7265
-25.7687
-28.4729
-30.7754
-32.6742
-34.2034
-0.336373
-0.276892
-0.470448
-0.594749
-0.791708
-1.03692
-1.37077
-1.82745
-2.45096
-3.29972
-4.43575
-5.93513
-7.8518
-10.2196
-12.9949
-16.0801
-19.2867
-22.4297
-25.3223
-27.8627
-30.004
-31.7552
-33.1539
-0.33576
-0.277031
-0.470357
-0.595032
-0.792254
-1.03776
-1.37205
-1.82921
-2.45311
-3.3018
-4.43661
-5.93189
-7.83791
-10.1822
-12.912
-15.9199
-19.0131
-22.0084
-24.7326
-27.0981
-29.0736
-30.6771
-31.9479
-0.335319
-0.277198
-0.47044
-0.59557
-0.793045
-1.03878
-1.37334
-1.83062
-2.45428
-3.30166
-4.43291
-5.91961
-7.80701
-10.1148
-12.7808
-15.689
-18.6454
-21.4729
-24.0151
-26.1989
-28.0074
-29.4657
-30.6129
-0.335073
-0.277412
-0.470693
-0.59627
-0.793913
-1.03973
-1.37433
-1.83132
-2.45406
-3.29889
-4.4242
-5.89785
-7.75879
-10.0178
-12.6027
-15.3908
-18.1904
-20.8342
-23.1846
-25.1834
-26.8262
-28.1434
-29.172
-0.334969
-0.277645
-0.471045
-0.597002
-0.794684
-1.04043
-1.3748
-1.83109
-2.45224
-3.29332
-4.41037
-5.8666
-7.6935
-9.89188
-12.3798
-15.0296
-17.6555
-20.1033
-22.2553
-24.0683
-25.5482
-26.7291
-27.6447
-0.334915
-0.277866
-0.471415
-0.597636
-0.795213
-1.04071
-1.37461
-1.82986
-2.44884
-3.28503
-4.39156
-5.82614
-7.61172
-9.73838
-12.1148
-14.6105
-17.0486
-19.291
-21.2407
-22.8685
-24.1892
-25.2387
-26.0463
-0.334834
-0.278042
-0.471727
-0.598095
-0.795435
-1.04055
-1.3738
-1.82773
-2.444
-3.27424
-4.36808
-5.77692
-7.51426
-9.55892
-11.8109
-14.1388
-16.3777
-18.4077
-20.1529
-21.5973
-22.7625
-23.6854
-24.3897
-0.33467
-0.278163
-0.471946
-0.598347
-0.79535
-1.04
-1.37245
-1.82485
-2.43795
-3.26123
-4.34027
-5.71943
-7.40203
-9.35528
-11.4714
-13.62
-15.6507
-17.4636
-19.0035
-20.2664
-21.2799
-22.0802
-22.6853
-0.334408
-0.278228
-0.47206
-0.598413
-0.795022
-1.03915
-1.37073
-1.82145
-2.43095
-3.24626
-4.30845
-5.65417
-7.27598
-9.12942
-11.0999
-13.06
-14.8758
-16.4682
-17.8028
-18.8864
-19.7511
-20.4325
-20.9418
-0.334054
-0.278255
-0.472086
-0.598336
-0.794529
-1.03814
-1.36879
-1.81769
-2.42317
-3.22954
-4.27287
-5.58158
-7.13706
-8.8833
-10.7
-12.4645
-14.0605
-15.4307
-16.5603
-17.4664
-18.1849
-18.7498
-19.1657
-0.333638
-0.27826
-0.472049
-0.598175
-0.793961
-1.03705
-1.36676
-1.81368
-2.41471
-3.21116
-4.2337
-5.50208
-6.98627
-8.61907
-10.2757
-11.8393
-13.2127
-14.3598
-15.2852
-16.0151
-16.5887
-17.0382
-17.3616
-0.33319
-0.278264
-0.471979
-0.597975
-0.793375
-1.03596
-1.36468
-1.80947
-2.40559
-3.19114
-4.19106
-5.41604
-6.82464
-8.33888
-9.83059
-11.1903
-12.3398
-13.2641
-13.9859
-14.5401
-14.9689
-15.3025
-15.5331
-0.332741
-0.27828
-0.471897
-0.597778
-0.792817
-1.0349
-1.36257
-1.80503
-2.39578
-3.16947
-4.14504
-5.32391
-6.65325
-8.04501
-9.36879
-10.5234
-11.4494
-12.152
-12.6708
-13.0491
-13.3321
-13.5482
-13.684
-0.332314
-0.278317
-0.471819
-0.597598
-0.792293
-1.03386
-1.3604
-1.80031
-2.3852
-3.1461
-4.09573
-5.22609
-6.47321
-7.73973
-8.89415
-9.84418
-10.5489
-11.0321
-11.3489
-11.5507
-11.6859
-11.7817
-11.82
-0.331923
-0.278373
-0.471749
-0.597442
-0.791798
-1.03281
-1.35812
-1.79523
-2.37378
-3.12102
-4.04328
-5.12308
-6.2857
-7.42538
-8.41059
-9.15863
-9.64592
-9.91342
-10.0298
-10.0547
-10.0401
-10.0124
-9.95019
-0.331575
-0.278448
-0.471685
-0.597298
-0.791305
-1.03172
-1.35567
-1.78973
-2.36147
-3.09423
-3.98784
-5.01538
-6.09188
-7.10423
-7.92194
-8.4724
-8.748
-8.80538
-8.7248
-8.57334
-8.40748
-8.25356
-8.08803
-0.331256
-0.278528
-0.471616
-0.597155
-0.79079
-1.03054
-1.353
-1.78377
-2.34825
-3.06578
-3.92962
-4.90355
-5.89295
-6.77856
-7.43193
-7.79115
-7.86292
-7.71808
-7.44608
-7.12117
-6.80402
-6.52154
-6.24969
-0.330951
-0.278595
-0.471525
-0.596983
-0.790214
-1.02923
-1.35007
-1.7773
-2.33413
-3.03576
-3.86887
-4.78817
-5.69009
-6.45055
-6.94415
-7.12039
-6.99838
-6.66198
-6.20715
-5.71451
-5.24851
-4.83624
-4.45479
-0.330398
-0.278603
-0.471354
-0.596748
-0.789563
-1.02781
-1.347
-1.77067
-2.31987
-3.00576
-3.80872
-4.67504
-5.49336
-6.13632
-6.48236
-6.49276
-6.1967
-5.68954
-5.07103
-4.42616
-3.82291
-3.28936
-2.79984
-0.3306
-0.278925
-0.471525
-0.596738
-0.789064
-1.02651
-1.34413
-1.76456
-2.30695
-2.97897
-3.7556
-4.57614
-5.32328
-5.86798
-6.09273
-5.96981
-5.53565
-4.89452
-4.14865
-3.38334
-2.67004
-2.04182
-1.46012
-0.330807
-0.279168
-0.4717
-0.596744
-0.788632
-1.02538
-1.34168
-1.75949
-2.2964
-2.95726
-3.71278
-4.49694
-5.18819
-5.657
-5.78965
-5.56764
-5.03287
-4.2949
-3.45971
-2.60863
-1.81427
-1.1219
-0.475152
-0.330994
-0.279319
-0.471858
-0.596712
-0.788181
-1.0243
-1.33951
-1.75523
-2.28781
-2.93983
-3.67864
-4.43411
-5.08169
-5.4919
-5.55447
-5.25824
-4.65005
-3.84129
-2.94335
-2.03348
-1.17801
-0.443307
0.245659
-0.331252
-0.279419
-0.472013
-0.59661
-0.787644
-1.02315
-1.33744
-1.7515
-2.28068
-2.92574
-3.65135
-4.38426
-4.99763
-5.36232
-5.37116
-5.01846
-4.35605
-3.49505
-2.55066
-1.60355
-0.701873
0.0626928
0.778461
-0.33157
-0.279475
-0.472144
-0.596401
-0.786967
-1.02187
-1.33536
-1.74813
-2.27467
-2.91429
-3.62948
-4.34458
-4.93104
-5.26013
-5.22743
-4.8311
-4.1278
-3.22876
-2.24705
-1.27873
-0.345004
0.443047
1.17615
-0.331924
-0.27948
-0.472238
-0.596091
-0.786184
-1.02052
-1.33336
-1.74517
-2.2697
-2.90507
-3.61201
-4.31299
-4.87811
-5.17906
-5.11382
-4.68328
-3.94807
-3.02191
-2.00873
-1.02809
-0.0756769
0.731505
1.47616
-0.332243
-0.279427
-0.47226
-0.595657
-0.785276
-1.01909
-1.33144
-1.74258
-2.26566
-2.89782
-3.59833
-4.2883
-4.83667
-5.11574
-5.02535
-4.56857
-3.80839
-2.8639
-1.82553
-0.834661
0.12528
0.946171
1.69678
-0.3327
-0.279415
-0.472388
-0.59533
-0.784533
-1.01791
-1.3299
-1.74059
-2.26248
-2.89186
-3.58666
-4.26685
-4.80036
-5.06025
-4.94794
-4.46894
-3.68709
-2.72858
-1.67077
-0.668063
0.29215
1.12203
1.87806
-0.332887
-0.279187
-0.472154
-0.594555
-0.783231
-1.01605
-1.32754
-1.7375
-2.25779
-2.88379
-3.57218
-4.2421
-4.76084
-5.00308
-4.87205
-4.37662
-3.57989
-2.61545
-1.55032
-0.538458
0.4147
1.24087
1.98859
-0.333099
-0.279
-0.47197
-0.593847
-0.782036
-1.01435
-1.32534
-1.73451
-2.25298
-2.87521
-3.55662
-4.21568
-4.71918
-4.94393
-4.79481
-4.28526
-3.47638
-2.50834
-1.4436
-0.422457
0.524006
1.34169
2.07887
-0.333355
-0.278884
-0.471883
-0.593289
-0.781073
-1.01298
-1.32355
-1.73193
-2.24849
-2.86674
-3.5408
-4.1884
-4.6758
-4.88207
-4.71352
-4.18903
-3.36744
-2.39365
-1.33219
-0.302265
0.641199
1.45122
2.1791
-0.333611
-0.278794
-0.47184
-0.592827
-0.780264
-1.01181
-1.32198
-1.72952
-2.24403
-2.85802
-3.52431
-4.15979
-4.63021
-4.81689
-4.62763
-4.08703
-3.25219
-2.27032
-1.21318
-0.178132
0.764992
1.5672
2.27986
-0.333858
-0.278723
-0.471829
-0.592435
-0.779549
-1.01075
-1.32045
-1.727
-2.2392
-2.84857
-3.50657
-4.12926
-4.5819
-4.74814
-4.53755
-3.98026
-3.13267
-2.14171
-1.08934
-0.0549263
0.888103
1.68169
2.37116
-0.334114
-0.278679
-0.471864
-0.592118
-0.778913
-1.00973
-1.31886
-1.72423
-2.23384
-2.83817
-3.48739
-4.09658
-4.53076
-4.67582
-4.44372
-3.8694
-3.01013
-2.01023
-0.962763
0.0650287
1.00607
1.7918
2.45684
-0.334388
-0.278663
-0.471945
-0.591854
-0.778314
-1.00869
-1.31712
-1.72111
-2.22786
-2.82678
-3.46671
-4.06175
-4.47684
-4.60001
-4.34624
-3.75451
-2.88462
-1.87666
-0.833996
0.18232
1.11804
1.89821
2.54479
-0.334672
-0.278661
-0.472044
-0.591599
-0.777688
-1.00754
-1.31514
-1.71756
-2.22121
-2.81439
-3.44461
-4.02491
-4.4203
-4.52097
-4.24533
-3.63581
-2.75617
-1.7414
-0.70314
0.298776
1.22548
2.00193
2.63792
-0.334951
-0.278658
-0.472129
-0.591302
-0.776971
-1.00622
-1.31287
-1.71355
-2.21391
-2.80109
-3.42124
-3.98627
-4.36149
-4.43916
-4.1416
-3.51417
-2.62565
-1.60555
-0.571062
0.415496
1.32974
2.10242
2.73309
-0.33521
-0.278641
-0.472171
-0.590936
-0.776133
-1.0047
-1.3103
-1.70915
-2.20609
-2.78705
-3.39684
-3.94621
-4.30092
-4.35539
-4.03619
-3.39127
-2.49505
-1.47151
-0.440354
0.531084
1.42974
2.19634
2.82326
-0.335445
-0.278609
-0.472165
-0.590493
-0.775178
-1.00301
-1.30751
-1.70446
-2.19789
-2.77251
-3.37169
-3.90508
-4.23909
-4.27046
-3.93029
-3.26901
-2.36684
-1.34244
-0.315123
0.641431
1.5213
2.27757
2.89934
-0.33565
-0.278563
-0.472111
-0.589989
-0.774135
-1.00121
-1.30458
-1.69962
-2.1895
-2.75763
-3.34599
-3.86313
-4.17632
-4.18485
-3.82474
-3.14879
-2.24303
-1.22119
-0.199713
0.741276
1.59889
2.33916
2.95208
-0.335831
-0.278509
-0.472022
-0.589443
-0.77304
-0.999354
-1.30161
-1.69472
-2.18099
-2.74248
-3.31972
-3.82028
-4.11247
-4.09844
-3.71951
-3.03091
-2.12428
-1.10908
-0.0969634
0.826584
1.65844
2.3764
2.97474
-0.335986
-0.27845
-0.471905
-0.588878
-0.771928
-0.99749
-1.29863
-1.6898
-2.17236
-2.72697
-3.2927
-3.77622
-4.04707
-4.0106
-3.61383
-2.9145
-2.00964
-1.00536
-0.00708276
0.896327
1.69928
2.38915
2.96585
-0.33612
-0.27839
-0.471773
-0.588309
-0.770817
-0.995639
-1.29567
-1.68484
-2.16352
-2.71091
-3.2646
-3.73044
-3.97938
-3.92035
-3.5064
-2.79791
-1.89693
-0.907432
0.0723928
0.952787
1.72457
2.38215
2.93035
-0.336232
-0.278328
-0.47163
-0.587745
-0.769719
-0.993805
-1.2927
-1.67977
-2.15432
-2.69406
-3.23504
-3.68242
-3.9087
-3.82672
-3.39587
-2.67929
-1.78359
-0.811797
0.145575
1.00053
1.74001
2.36337
2.87826
-0.336327
-0.278266
-0.471479
-0.587187
-0.768628
-0.991969
-1.28967
-1.67449
-2.14461
-2.67617
-3.20368
-3.63173
-3.83449
-3.72904
-3.28128
-2.55726
-1.66751
-0.715259
0.216714
1.04457
1.75184
2.34124
2.82124
-0.336402
-0.2782
-0.47132
-0.586632
-0.767534
-0.990105
-1.28653
-1.66891
-2.13425
-2.65706
-3.17032
-3.57815
-3.75658
-3.62713
-3.16239
-2.43133
-1.54777
-0.615893
0.288814
1.08871
1.76467
2.32197
2.76853
-0.336459
-0.27813
-0.471149
-0.586072
-0.76642
-0.988184
-1.28323
-1.66296
-2.12313
-2.63661
-3.13485
-3.52165
-3.67507
-3.52133
-3.03969
-2.30209
-1.42488
-0.513588
0.362779
1.13426
1.78021
2.30779
2.72422
-0.336492
-0.278054
-0.470963
-0.585499
-0.765272
-0.986178
-1.27972
-1.65657
-2.11118
-2.61478
-3.09733
-3.46243
-3.59041
-3.4124
-2.91433
-2.17107
-1.30066
-0.41002
0.437317
1.17993
1.79687
2.29682
2.68669
-0.336503
-0.277971
-0.470757
-0.584903
-0.764073
-0.984062
-1.27598
-1.6497
-2.09839
-2.59159
-3.05784
-3.40074
-3.50317
-3.30133
-2.78785
-2.0404
-1.17787
-0.308198
0.509413
1.22236
1.81068
2.28423
2.65022
-0.336485
-0.277878
-0.470526
-0.584277
-0.762813
-0.981821
-1.27198
-1.64236
-2.08477
-2.56711
-3.01657
-3.33695
-3.414
-3.18922
-2.66189
-1.91241
-1.05955
-0.21172
0.575253
1.25734
1.81669
2.26428
2.60796
-0.33644
-0.277777
-0.470268
-0.583615
-0.761482
-0.979444
-1.26772
-1.63452
-2.07033
-2.54139
-2.97367
-3.27136
-3.32346
-3.07698
-2.53791
-1.78916
-0.94852
-0.124002
0.631186
1.28103
1.8107
2.23228
2.55461
-0.336359
-0.277664
-0.469977
-0.582912
-0.760074
-0.976926
-1.26319
-1.62621
-2.05511
-2.51451
-2.92926
-3.20422
-3.23198
-2.96535
-2.417
-1.67219
-0.846879
-0.0475946
0.674598
1.29099
1.79035
2.18598
2.48781
-0.336246
-0.277542
-0.469652
-0.582166
-0.758588
-0.974264
-1.25839
-1.61743
-2.03912
-2.4865
-2.88341
-3.13566
-3.13983
-2.85474
-2.29978
-1.56233
-0.755725
0.0161978
0.704387
1.28666
1.75567
2.12585
2.40819
-0.336092
-0.277408
-0.46929
-0.581373
-0.757019
-0.971457
-1.25332
-1.60818
-2.02238
-2.45737
-2.83616
-3.06574
-3.0471
-2.74531
-2.18642
-1.4597
-0.675098
0.0674479
0.721081
1.26935
1.70871
2.05453
2.31869
-0.335901
-0.277263
-0.468889
-0.580534
-0.755368
-0.968504
-1.24799
-1.59846
-2.00485
-2.42709
-2.78747
-2.99443
-2.95377
-2.63697
-2.0767
-1.36377
-0.604138
0.107399
0.726513
1.24165
1.65281
1.97581
2.22323
-0.335665
-0.277107
-0.468446
-0.579645
-0.753631
-0.965402
-1.24239
-1.58826
-1.98654
-2.39563
-2.73728
-2.92167
-2.85973
-2.52954
-1.97015
-1.27363
-0.54133
0.138104
0.723302
1.20675
1.59152
1.89344
2.12543
-0.335388
-0.27694
-0.467961
-0.578706
-0.751808
-0.962147
-1.2365
-1.57754
-1.96738
-2.36292
-2.68551
-2.84735
-2.76486
-2.42277
-1.86624
-1.18815
-0.484886
0.161913
0.714219
1.16767
1.52784
1.81023
2.02776
-0.33506
-0.27676
-0.46743
-0.577714
-0.749893
-0.958731
-1.23032
-1.5663
-1.94733
-2.32889
-2.63209
-2.77141
-2.66907
-2.31647
-1.76444
-1.10627
-0.433058
0.181051
0.701664
1.12676
1.46379
1.72777
1.93147
-0.334688
-0.276566
-0.466851
-0.576666
-0.747882
-0.955145
-1.22382
-1.55448
-1.92634
-2.29348
-2.57695
-2.69382
-2.57236
-2.21055
-1.6644
-1.02714
-0.384441
0.197234
0.687307
1.08542
1.40033
1.64656
1.83666
-0.33426
-0.276359
-0.466221
-0.575559
-0.745766
-0.951375
-1.21697
-1.54206
-1.90435
-2.25661
-2.52005
-2.61459
-2.4748
-2.10506
-1.56599
-0.950263
-0.33812
0.211528
0.672004
1.04416
1.33758
1.56632
1.74283
-0.333782
-0.276135
-0.465537
-0.574389
-0.74354
-0.947409
-1.20977
-1.52898
-1.88132
-2.21825
-2.4614
-2.53383
-2.37657
-2.00024
-1.46935
-0.875534
-0.293751
0.224308
0.655881
1.00277
1.27513
1.48647
1.64929
-0.333243
-0.275893
-0.464793
-0.573149
-0.741192
-0.943228
-1.20217
-1.51522
-1.85718
-2.17837
-2.40102
-2.45167
-2.27796
-1.89644
-1.37481
-0.803206
-0.251469
0.235431
0.638596
0.960739
1.21238
1.40652
1.55565
-0.332645
-0.275632
-0.463987
-0.571835
-0.738713
-0.938817
-1.19415
-1.50073
-1.8319
-2.13695
-2.339
-2.36832
-2.17933
-1.79414
-1.28294
-0.733831
-0.211788
0.244399
0.619624
0.917526
1.14894
1.32633
1.46209
-0.33198
-0.275348
-0.463113
-0.570438
-0.736091
-0.934155
-1.18568
-1.48547
-1.80546
-2.094
-2.27542
-2.28405
-2.08109
-1.69391
-1.19436
-0.668089
-0.175352
0.250665
0.598529
0.872892
1.08484
1.24627
1.36933
-0.331249
-0.27504
-0.462165
-0.568953
-0.733313
-0.929223
-1.17673
-1.46941
-1.77781
-2.04954
-2.21043
-2.19913
-1.98372
-1.59636
-1.10982
-0.606766
-0.142873
0.253726
0.575068
0.826922
1.02053
1.16714
1.2785
-0.330457
-0.274709
-0.461144
-0.567373
-0.730368
-0.924002
-1.16727
-1.45251
-1.74894
-2.00362
-2.14417
-2.11389
-1.88765
-1.50201
-1.02987
-0.550402
-0.114756
0.253486
0.549505
0.78015
0.956867
1.09009
1.19107
-0.329629
-0.274375
-0.460055
-0.565682
-0.727212
-0.918414
-1.15719
-1.43465
-1.71875
-1.95621
-2.07687
-2.02885
-1.79377
-1.41205
-0.955869
-0.500378
-0.0921658
0.249187
0.521525
0.732539
0.894323
1.01612
1.10786
-0.329214
-0.274159
-0.459038
-0.563881
-0.723656
-0.911967
-1.14554
-1.41423
-1.68494
-1.90454
-2.00574
-1.94197
-1.70127
-1.32696
-0.889312
-0.458531
-0.0766403
0.240358
0.492435
0.686666
0.835359
0.948658
1.03686
-0.327495
-0.272836
-0.456345
-0.56007
-0.717425
-0.901885
-1.12884
-1.38695
-1.64264
-1.84397
-1.92789
-1.85383
-1.61563
-1.25733
-0.845244
-0.442942
-0.087942
0.206417
0.441718
0.624466
0.764656
0.870411
0.95245
-0.325855
-0.271452
-0.453299
-0.555594
-0.709932
-0.889657
-1.10863
-1.35439
-1.59319
-1.77502
-1.84189
-1.75967
-1.52766
-1.18957
-0.806721
-0.435342
-0.108161
0.163603
0.382319
0.554231
0.687907
0.789948
0.869636
-0.324395
-0.270201
-0.450216
-0.550939
-0.701896
-0.876298
-1.08626
-1.31815
-1.53822
-1.69874
-1.74731
-1.65655
-1.43117
-1.11419
-0.761603
-0.422125
-0.123374
0.125434
0.326833
0.486984
0.613912
0.713068
0.791666
-0.322758
-0.268847
-0.44682
-0.545858
-0.693093
-0.861602
-1.06154
-1.27808
-1.47769
-1.61529
-1.6446
-1.54521
-1.32707
-1.03209
-0.710578
-0.403824
-0.13428
0.0908023
0.273917
0.420542
0.537859
0.630628
0.70535
-0.320772
-0.267239
-0.442888
-0.540041
-0.683099
-0.84497
-1.03369
-1.23337
-1.41101
-1.52485
-1.53521
-1.42865
-1.21969
-0.948308
-0.658752
-0.38515
-0.145264
0.0555141
0.219508
0.351392
0.457418
0.541912
0.611032
-0.318409
-0.265341
-0.438336
-0.53331
-0.671606
-0.825926
-1.00212
-1.18346
-1.33805
-1.42812
-1.42103
-1.30989
-1.11263
-0.866343
-0.608943
-0.36799
-0.157171
0.0197402
0.164996
0.282635
0.37793
0.45448
0.517793
-0.315642
-0.263111
-0.433061
-0.525489
-0.658334
-0.804077
-0.966414
-1.1281
-1.25903
-1.32611
-1.3039
-1.19122
-1.00806
-0.78776
-0.561864
-0.352127
-0.168774
-0.0143179
0.11338
0.217703
0.302956
0.371946
0.429414
-0.312368
-0.26044
-0.426872
-0.516319
-0.642917
-0.77898
-0.926151
-1.06712
-1.17429
-1.21981
-1.18531
-1.07427
-0.907263
-0.713236
-0.517672
-0.337262
-0.179532
-0.0460639
0.0649625
0.15636
0.231608
0.292955
0.344394
-0.308482
-0.257191
-0.419539
-0.5055
-0.624963
-0.750208
-0.881008
-1.00052
-1.08434
-1.11029
-1.06657
-0.960099
-0.810734
-0.642706
-0.475974
-0.32298
-0.189176
-0.0755081
0.0195515
0.0983112
0.163624
0.21729
0.262663
-0.30389
-0.253237
-0.410857
-0.492769
-0.604156
-0.717484
-0.83093
-0.928687
-0.990152
-0.998903
-0.948968
-0.84941
-0.718348
-0.575371
-0.435577
-0.30799
-0.196365
-0.101212
-0.0211917
0.0455369
0.101308
0.147522
0.186968
-0.29854
-0.24847
-0.400666
-0.477927
-0.580313
-0.680779
-0.776263
-0.85257
-0.893301
-0.887537
-0.83408
-0.743004
-0.630009
-0.510399
-0.395171
-0.290594
-0.199079
-0.120769
-0.0545064
0.00117348
0.0481161
0.0873936
0.121241
-0.292365
-0.242781
-0.388828
-0.460829
-0.553371
-0.640293
-0.717733
-0.773622
-0.795905
-0.778571
-0.72399
-0.642251
-0.546365
-0.447804
-0.354277
-0.269856
-0.195953
-0.13242
-0.0782862
-0.0323903
0.00667137
0.0397097
0.0684392
-0.285297
-0.236053
-0.37521
-0.441359
-0.523364
-0.596426
-0.656372
-0.693661
-0.700427
-0.674698
-0.621122
-0.549072
-0.468803
-0.388561
-0.313488
-0.246065
-0.186986
-0.135946
-0.092131
-0.0546469
-0.0224393
0.00508697
0.0292186
-0.277228
-0.228135
-0.35967
-0.419429
-0.490415
-0.549741
-0.593418
-0.614659
-0.60934
-0.578462
-0.527742
-0.465283
-0.398786
-0.333921
-0.273967
-0.220345
-0.173307
-0.132487
-0.0972178
-0.0668104
-0.0404774
-0.0177746
0.00225163
-0.268055
-0.218875
-0.342075
-0.394995
-0.454754
-0.500951
-0.530217
-0.538506
-0.524731
-0.491722
-0.445262
-0.391893
-0.337154
-0.284788
-0.236826
-0.194033
-0.156432
-0.123662
-0.0951917
-0.0704875
-0.0489623
-0.0302744
-0.0137183
-0.257651
-0.208101
-0.322315
-0.368093
-0.416738
-0.450891
-0.468083
-0.466735
-0.447904
-0.415247
-0.373896
-0.328862
-0.28397
-0.241648
-0.20311
-0.168761
-0.138514
-0.112058
-0.0889653
-0.0688302
-0.0512015
-0.0358137
-0.022133
-0.245928
-0.195679
-0.300348
-0.338874
-0.376871
-0.40046
-0.408149
-0.400299
-0.379236
-0.348674
-0.312794
-0.275255
-0.23864
-0.204492
-0.17353
-0.145942
-0.121604
-0.10025
-0.0815397
-0.0651563
-0.0507519
-0.0381143
-0.0268363
-0.232791
-0.181498
-0.276215
-0.307629
-0.335783
-0.35054
-0.351236
-0.339541
-0.318307
-0.290871
-0.260427
-0.229531
-0.199884
-0.17244
-0.147605
-0.125447
-0.105839
-0.0885642
-0.0733619
-0.0599854
-0.0481704
-0.037747
-0.0284043
-0.218224
-0.165539
-0.250082
-0.2748
-0.294207
-0.301945
-0.297887
-0.284393
-0.264332
-0.240483
-0.215162
-0.190089
-0.166348
-0.144513
-0.124796
-0.107201
-0.0916005
-0.0778171
-0.0656423
-0.0548811
-0.0453264
-0.0368438
-0.0291941
-0.202236
-0.14787
-0.222257
-0.240981
-0.252957
-0.255433
-0.248514
-0.23472
-0.216649
-0.196471
-0.175803
-0.15574
-0.136941
-0.119726
-0.104195
-0.0903106
-0.077964
-0.0670085
-0.0572842
-0.0486377
-0.0409127
-0.0340032
-0.0277317
-0.184946
-0.128714
-0.193204
-0.206908
-0.212918
-0.211773
-0.203557
-0.190562
-0.174956
-0.158355
-0.141835
-0.126059
-0.111394
-0.0980075
-0.0859285
-0.0751084
-0.0654514
-0.0568423
-0.0491556
-0.0422746
-0.0360804
-0.0304938
-0.0253854
-0.166551
-0.108443
-0.163549
-0.173425
-0.175016
-0.171721
-0.163458
-0.152029
-0.139114
-0.12586
-0.112958
-0.100784
-0.0895232
-0.0792454
-0.0699485
-0.0615831
-0.0540757
-0.0473385
-0.0412802
-0.035814
-0.0308551
-0.0263459
-0.0221969
-0.147374
-0.0876156
-0.134048
-0.14143
-0.140125
-0.135886
-0.128454
-0.119
-0.108727
-0.0984173
-0.0885098
-0.0792168
-0.0706277
-0.0627664
-0.0556223
-0.0491595
-0.0433262
-0.0380604
-0.0332964
-0.0289714
-0.0250242
-0.0214129
-0.0180752
-0.127853
-0.0669432
-0.105544
-0.111742
-0.108917
-0.10459
-0.0984603
-0.091067
-0.0831864
-0.0753313
-0.0677952
-0.0607129
-0.0541393
-0.0480847
-0.0425459
-0.037501
-0.0329209
-0.0287627
-0.0249827
-0.021534
-0.0183745
-0.0154713
-0.0127834
-0.108503
-0.0472543
-0.0788509
-0.0849997
-0.0817692
-0.0778743
-0.0732065
-0.0678089
-0.0620996
-0.0564039
-0.0509146
-0.0457391
-0.0409145
-0.0364526
-0.0323455
-0.0285839
-0.025145
-0.0220049
-0.0191299
-0.0164914
-0.0140569
-0.011808
-0.00971386
-0.0899356
-0.0293974
-0.054679
-0.0615776
-0.0587659
-0.0555246
-0.0521984
-0.0485094
-0.0445933
-0.0406215
-0.036715
-0.0329695
-0.0294328
-0.0261296
-0.0230611
-0.020228
-0.0176183
-0.0152205
-0.0130132
-0.0109792
-0.00909647
-0.00735342
-0.00572946
-0.0726165
-0.0140418
-0.0334988
-0.04158
-0.0397844
-0.0372836
-0.0350805
-0.0327896
-0.0303501
-0.0278117
-0.0252265
-0.0226729
-0.020211
-0.0178823
-0.0156988
-0.013667
-0.0117811
-0.0100361
-0.00841923
-0.00692095
-0.00552775
-0.00423314
-0.00302476
-0.0572407
-0.00194249
-0.0157405
-0.0249526
-0.0245154
-0.0227353
-0.0213396
-0.0200347
-0.018664
-0.017201
-0.0156323
-0.0140082
-0.0123909
-0.0108411
-0.00938217
-0.00802755
-0.00677128
-0.00561103
-0.00453477
-0.0035375
-0.00260812
-0.00174424
-0.000937083
-0.0424978
0.00769587
-0.00116484
-0.0112586
-0.0124613
-0.0116676
-0.0112019
-0.0109485
-0.010708
-0.0104055
-0.0099555
-0.00935098
-0.00863366
-0.00787926
-0.0071314
-0.00642188
-0.00575419
-0.00513423
-0.00455502
-0.00401789
-0.00351639
-0.00305236
-0.0026211
-0.0304905
0.00758794
0.00682043
-0.000731675
-0.00227282
-0.00136451
-0.000477623
8.68628e-05
0.000438705
0.000621191
0.000738199
0.000856535
0.00100961
0.00116599
0.00130859
0.0014161
0.00149757
0.00155491
0.0016049
0.00165088
0.00170363
0.00176292
0.00183167
0.348679
0.353437
0.420417
0.524078
0.653137
0.81195
1.01044
1.26071
1.57784
1.98351
2.50184
3.16422
4.00433
5.05657
6.34458
7.87077
9.6062
11.4899
13.4391
15.3582
17.1705
18.7955
20.2402
0.331369
0.344127
0.402633
0.499481
0.621831
0.774353
0.966573
1.211
1.52371
1.92704
2.44704
3.11573
3.96698
5.03295
6.33369
7.86683
9.59906
11.4666
13.3852
15.2617
17.0203
18.5892
19.9717
0.30915
0.327808
0.378064
0.466187
0.579828
0.723185
0.905802
1.14029
1.44334
1.8376
2.3503
3.01368
3.86132
4.9233
6.21665
7.73546
9.44365
11.2762
13.149
14.9716
16.6701
18.18
19.5019
0.28125
0.302563
0.344918
0.422259
0.524812
0.655786
0.824722
1.04422
1.33116
1.70818
2.20297
2.8476
3.67503
4.7136
5.97826
7.4611
9.12517
10.906
12.7211
14.483
16.1197
17.5725
18.8389
0.246683
0.266583
0.301293
0.365848
0.454394
0.56933
0.719761
0.918127
1.1811
1.53096
1.9952
2.60545
3.39394
4.38784
5.60115
7.02583
8.62624
10.3406
12.0896
13.7891
15.3684
16.7722
17.9931
0.203696
0.218422
0.245309
0.295358
0.366583
0.461296
0.587734
0.757806
0.987631
1.29872
1.71796
2.27624
3.00513
3.93132
5.06909
6.41213
7.92825
9.5606
11.235
12.8719
14.4018
15.7705
16.9635
0.149159
0.157272
0.175521
0.209454
0.25983
0.329602
0.425996
0.559953
0.746687
1.00673
1.3661
1.85499
2.50465
3.34207
4.38304
5.62436
7.03888
8.57608
10.1682
11.7409
13.2269
14.5728
15.7579
0.0790977
0.0820161
0.0898665
0.105091
0.1302
0.169022
0.227834
0.316245
0.448293
0.643523
0.927328
1.32991
1.88329
2.61635
3.54792
4.67926
5.98881
7.43205
8.9466
10.4615
11.9102
13.2377
14.4177
0.394203
0.347671
0.517466
0.628668
0.794718
0.969252
1.18811
1.4377
1.7358
2.08036
2.46594
2.88751
3.33036
3.78764
4.24862
4.69836
5.11477
5.46489
5.72619
5.88386
5.94108
5.92804
5.84654
0.395961
0.347683
0.517061
0.627459
0.792013
0.966526
1.18559
1.43618
1.73673
2.08672
2.48319
2.92614
3.40736
3.92782
4.48446
5.06764
5.65655
6.21352
6.70703
7.10602
7.40242
7.60889
7.72197
0.39777
0.347256
0.515995
0.625895
0.788699
0.963152
1.18243
1.43411
1.7372
2.09266
2.49995
2.96352
3.48144
4.06177