/*--------------------------------*- C++ -*----------------------------------*\
  =========                 |
  \\      /  F ield         | OpenFOAM: The Open Source CFD Toolbox
   \\    /   O peration     | Website:  https://openfoam.org
    \\  /    A nd           | Version:  7
     \\/     M anipulation  |
\*---------------------------------------------------------------------------*/
FoamFile
{
    version     2.0;
    format      ascii;
    class       surfaceScalarField;
    location    "69";
    object      phi;
}
// * * * * * * * * * * * * * * * * * * * * * * * * * * * * * * * * * * * * * //

dimensions      [0 3 -1 0 0 0 0];

internalField   nonuniform List<scalar> 
25449
(
70.4366
34.1197
-8.81477
52.1657
24.9813
-6.71046
38.842
18.4347
-5.11094
29.0465
13.6927
-3.89711
21.7976
10.2256
-2.97678
16.4054
7.67111
-2.27893
12.3779
5.77708
-1.74954
9.35989
4.36563
-1.34764
7.09268
3.30939
-1.04217
5.38609
2.51617
-0.809576
4.09952
1.91856
-0.631991
3.12848
1.46693
-0.495888
2.39499
1.12452
-0.391038
1.84071
0.864009
-0.309728
1.42183
0.665062
-0.246177
1.10537
0.512549
-0.196087
0.866435
0.395208
-0.156278
0.686196
0.304653
-0.124414
0.550359
0.234622
-0.0987855
0.448071
0.180419
-0.078131
0.371095
0.138477
-0.0615013
0.313179
0.106078
-0.0481619
0.081076
-0.0375193
0.269622
56.6975
53.9673
42.222
39.4568
31.5788
29.0779
23.7018
21.5696
17.842
16.0854
13.4651
12.0481
10.1853
9.05685
7.72153
6.82939
5.86711
5.1638
4.46918
3.9141
3.41411
2.97364
2.61708
2.26395
2.01465
1.72695
1.55919
1.31947
1.21489
1.00936
0.954764
0.772679
0.758388
0.591584
0.610296
0.452745
0.498738
0.346181
0.414781
0.264376
0.351639
0.201618
0.304162
0.153556
0.11676
0.268478
44.5621
69.0301
33.4235
50.5954
25.1426
37.3588
18.9601
27.7521
14.3292
20.7164
10.8516
15.5256
8.23509
11.6734
6.2633
8.80118
4.77554
6.65156
3.65188
5.03776
2.80254
3.82298
2.16019
2.90631
1.67422
2.21292
1.30657
1.68712
1.02852
1.28741
0.818387
0.982811
0.659746
0.750225
0.540121
0.572369
0.450025
0.436277
0.382235
0.332166
0.331264
0.25259
0.292943
0.191876
0.14556
0.264143
34.6351
80.1504
26.2386
58.9919
19.8941
43.7034
15.0974
32.5487
11.4699
24.3439
8.72569
18.2698
6.64927
13.7498
5.07775
10.3727
3.88807
7.84124
2.98722
5.93861
2.30493
4.50527
1.78807
3.42316
1.39655
2.60444
1.10004
1.98363
0.875617
1.51183
0.705912
1.15252
0.577735
0.878402
0.481052
0.669052
0.408215
0.509114
0.353397
0.386984
0.312166
0.293821
0.281158
0.222884
0.168878
0.257841
26.8427
88.1261
20.62
65.2146
15.8021
48.5214
12.093
36.2578
9.24974
27.1872
7.07694
20.4426
5.42026
15.4065
4.15914
11.6338
3.20023
8.80016
2.47165
6.66719
1.91834
5.05858
1.4983
3.8432
1.17955
2.9232
0.937798
2.22539
0.754587
1.69504
0.615896
1.29121
0.511045
0.983253
0.431887
0.748211
0.3722
0.5688
0.32724
0.431944
0.293392
0.327669
0.267913
0.248364
0.188057
0.248733
20.8705
93.6366
16.3374
69.7476
12.6968
52.162
9.82082
39.1338
7.57495
29.4331
5.8353
22.1822
4.49558
16.7462
3.46815
12.6613
2.68253
9.58577
2.08306
7.26666
1.62627
5.51536
1.27856
4.19091
1.01409
3.18766
0.813103
2.42637
0.660516
1.84763
0.544814
1.40691
0.457201
1.07087
0.390951
0.814461
0.340918
0.618834
0.303166
0.469695
0.274698
0.356137
0.253236
0.269826
0.204239
0.237054
16.3635
97.2322
13.1286
72.9825
10.3835
54.9072
8.1358
41.3815
6.33701
31.2319
4.91947
23.5998
3.81423
17.8514
2.95895
13.5165
2.30058
10.2441
1.79565
7.77159
1.40938
5.90163
1.1144
4.48589
0.88943
3.41264
0.718037
2.59777
0.587613
1.97805
0.488491
1.50603
0.413259
1.1461
0.356236
0.871484
0.313066
0.662004
0.280413
0.502348
0.25573
0.380819
0.237079
0.288477
0.218332
0.222986
12.993
99.3454
10.7501
75.2254
8.68113
56.9761
6.90266
43.1599
5.43459
32.6999
4.2534
24.7809
3.31907
18.7858
2.58858
14.247
2.02204
10.8107
1.5851
8.20853
1.2494
6.23733
0.992135
4.74315
0.795332
3.60944
0.644979
2.74812
0.530251
2.09278
0.442811
1.59347
0.37625
1.21266
0.325643
0.922091
0.287208
0.700439
0.258042
0.531514
0.235926
0.402935
0.219163
0.305241
0.231032
0.206463
10.3388
103.069
7.66663
77.8976
5.72457
58.9182
4.30142
44.5831
3.25088
33.7505
2.47093
25.5609
1.88921
19.3675
1.4537
14.6825
1.12665
11.1377
0.880374
8.4548
0.694489
6.42322
0.553885
4.88376
0.447342
3.71599
0.366495
2.82897
0.305091
2.15418
0.258431
1.64013
0.222971
1.24812
0.196024
0.949038
0.175547
0.720916
0.159989
0.547073
0.148167
0.414756
0.139191
0.314217
0.237853
0.132371
7.97005
105.941
5.91309
79.9546
4.41987
60.4114
3.32696
45.676
2.52091
34.5565
1.92292
26.1589
1.47715
19.8133
1.14355
15.0161
0.893068
11.3882
0.704441
8.64343
0.562016
6.56564
0.45421
4.99156
0.372423
3.79777
0.310256
2.89113
0.262929
2.20151
0.226854
1.67621
0.19933
1.27564
0.178311
0.970058
0.162247
0.73698
0.149964
0.559356
0.140567
0.424153
0.133383
0.3214
0.243346
0.12789
6.132
108.142
4.55672
81.5298
3.41304
61.5551
2.57615
46.5129
1.95896
35.1737
1.50111
26.6167
1.15983
20.1545
0.904413
15.2715
0.712597
11.58
0.56809
8.78794
0.458899
6.67484
0.376148
5.07431
0.313256
3.86066
0.265326
2.93906
0.228706
2.23813
0.200662
1.70425
0.179138
1.29717
0.162583
0.986613
0.149826
0.749737
0.139983
0.569199
0.132382
0.431754
0.126519
0.327263
0.247867
0.121998
4.7118
109.813
3.51271
82.7289
2.64025
62.4276
2.0009
47.1522
1.52878
35.6458
1.17821
26.9673
0.916691
20.4161
0.720825
15.4674
0.573617
11.7272
0.462612
8.89894
0.378626
6.75882
0.314855
5.13808
0.266255
3.90926
0.229072
2.97625
0.200515
2.26669
0.178494
1.72627
0.161448
1.31421
0.148204
0.999857
0.137883
0.760059
0.129823
0.577259
0.123523
0.438054
0.118608
0.332178
0.251699
0.114776
3.61895
111.068
2.71286
83.635
2.04998
63.0904
1.56222
47.64
1.2008
36.0073
0.931728
27.2364
0.730576
20.6172
0.579656
15.6183
0.466046
11.8409
0.380227
8.98476
0.315162
6.82389
0.265618
5.18763
0.227712
3.94717
0.198554
3.00541
0.175996
2.28924
0.158439
1.74383
0.144695
1.32795
0.133877
1.01067
0.125326
0.768609
0.118553
0.584032
0.113183
0.443425
0.108938
0.336422
0.255047
0.105589
2.78738
111.998
2.10781
84.3146
1.6053
63.593
1.23247
48.0128
0.954381
36.2853
0.746279
27.4445
0.590077
20.7734
0.472496
15.7359
0.383729
11.9296
0.31649
9.052
0.265352
6.87503
0.226258
5.22672
0.196187
3.97724
0.172886
3.02871
0.154686
2.30744
0.140351
1.75816
0.128971
1.33934
0.119872
1.01977
0.112562
0.77592
0.106677
0.589918
0.10194
0.448161
0.0981447
0.340217
0.258077
0.095115
2.14516
112.668
1.64353
84.8162
1.26557
63.9709
0.981101
48.2973
0.766517
36.4999
0.604561
27.6064
0.482185
20.8958
0.389578
15.8285
0.319356
11.9998
0.265946
9.10541
0.225148
6.91582
0.193792
5.25808
0.169504
4.00153
0.150508
3.0477
0.135493
2.32246
0.123492
1.77016
0.113805
1.34902
0.105921
1.02766
0.0994738
0.782367
0.0941965
0.595195
0.0898849
0.452473
0.0863867
0.343716
0.2609
0.0835634
1.66377
113.136
1.29886
85.1811
1.01503
64.2547
0.796345
48.516
0.62845
36.6678
0.500056
27.7348
0.402063
20.9938
0.327333
15.9032
0.270309
12.0569
0.226696
9.14902
0.193194
6.94933
0.167277
5.28399
0.147035
4.02177
0.131032
3.06371
0.118211
2.33528
0.107801
1.78058
0.0992505
1.35757
0.0921695
1.03474
0.0862815
0.788255
0.081391
0.600086
0.0773456
0.456518
0.0740309
0.34703
0.263597
0.0713341
1.29993
113.442
1.04145
85.4396
0.829509
64.4667
0.660157
48.6853
0.52672
36.8013
0.422756
27.8388
0.34231
21.0742
0.280321
15.9652
0.232633
12.1046
0.195907
9.18575
0.167507
6.97773
0.145373
5.30613
0.127928
4.03922
0.113977
3.07766
0.102643
2.34661
0.0932933
1.78992
0.0854868
1.36538
0.078919
1.04131
0.0733811
0.793793
0.0687287
0.604738
0.0648463
0.460401
0.0616452
0.350231
0.266213
0.059029
1.02636
113.619
0.850979
85.615
0.693822
64.6238
0.561189
48.818
0.452855
36.9096
0.366344
27.9253
0.298225
21.1424
0.245064
16.0184
0.203771
12.1458
0.171719
9.2178
0.146755
7.00269
0.127151
5.32573
0.111561
4.05481
0.0989571
3.09026
0.0885852
2.35699
0.0799082
1.7986
0.0725634
1.37272
0.0663084
1.04756
0.0609828
0.799119
0.0564781
0.609243
0.0527028
0.464176
0.049584
0.35335
0.268764
0.0470336
0.823765
113.692
0.713153
85.7256
0.597366
64.7396
0.491575
48.9238
0.401024
37.0001
0.326517
27.9998
0.266653
21.2022
0.219267
16.0658
0.182078
12.183
0.152977
9.2469
0.130155
7.02551
0.112109
5.34378
0.0976472
4.06927
0.0858488
3.10206
0.0760401
2.36679
0.0677471
1.80689
0.0606603
1.37981
0.0545802
1.05364
0.0493799
0.804319
0.0449738
0.613649
0.0412833
0.467867
0.0382424
0.356391
0.271242
0.0357645
0.675251
113.681
0.615412
85.7855
0.530784
64.8243
0.444339
49.0102
0.366025
37.0785
0.299398
28.0664
0.244711
21.2569
0.200797
16.1097
0.165984
12.2178
0.138539
9.27435
0.116886
7.04717
0.0996726
5.36099
0.0857992
4.08314
0.0744092
3.11345
0.0648762
2.37633
0.0567652
1.81501
0.049801
1.38678
0.043813
1.05963
0.0386948
0.809437
0.0343735
0.61797
0.0307733
0.471467
0.0278272
0.359337
0.273624
0.0254445
0.569495
113.601
0.54935
85.8056
0.487801
64.8858
0.414773
49.0832
0.344313
37.1489
0.28231
28.1285
0.230371
21.3088
0.188113
16.152
0.154315
12.2516
0.127505
9.30116
0.106261
7.06841
0.0893123
5.37794
0.075611
4.09684
0.064329
3.12473
0.0548619
2.38579
0.0467945
1.82307
0.0398709
1.3937
0.0339366
1.06556
0.0288947
0.814479
0.0246742
0.622191
0.0211934
0.474948
0.0183764
0.362154
0.275877
0.0161238
0.494246
113.464
0.505846
85.794
0.461603
64.93
0.397771
49.1471
0.332052
37.2146
0.272364
28.1881
0.221456
21.3598
0.179571
16.1938
0.145829
12.2854
0.118941
9.32805
0.0975731
7.08978
0.0804997
5.39501
0.0666892
4.11065
0.0553194
3.1361
0.0457902
2.39532
0.0376918
1.83117
0.0307771
1.40061
0.0248969
1.07144
0.019954
0.819422
0.0158704
0.626274
0.01255
0.478268
0.00990191
0.364802
0.277964
0.00781485
0.442258
113.278
0.479542
85.7567
0.448199
64.9614
0.390345
49.2049
0.326996
37.278
0.267866
28.2473
0.216681
21.4109
0.174193
16.2363
0.13978
12.3198
0.112271
9.35556
0.0903808
7.11167
0.0728937
5.4125
0.0587713
4.12478
0.0471792
3.14769
0.0375078
2.40499
0.0293417
1.83934
0.0224322
1.40752
0.0166262
1.07725
0.0118168
0.824232
0.0079104
0.630181
0.00479149
0.481387
0.00235026
0.367244
0.27985
0.000464686
-0.126423
113.229
-0.090654
85.7209
-0.0641283
64.9349
-0.0444073
49.1852
-0.0296601
37.2632
-0.0186088
28.2362
-0.0103275
21.4027
-0.0041527
16.2301
0.000387332
12.3153
0.00361881
9.35232
0.0057576
7.10953
0.00693469
5.41132
0.00723919
4.12447
0.006754
3.14818
0.00559979
2.40615
0.00394905
1.84099
0.00202366
1.40945
4.61962e-05
1.07923
-0.00180034
0.826078
-0.00339813
0.631779
-0.00470532
0.482694
-0.00572539
0.368264
0.280626
-0.00650112
-0.124733
113.184
-0.092126
85.6883
-0.0679348
64.9107
-0.0499535
49.1672
-0.0365059
37.2498
-0.0264278
28.2261
-0.0188743
21.3951
-0.01324
16.2245
-0.0090942
12.3111
-0.00613708
9.34937
-0.00416761
7.10756
-0.00305986
5.41022
-0.0027229
4.12414
-0.00306764
3.14852
-0.00396857
2.40705
-0.00525232
1.84227
-0.00670871
1.4109
-0.00813913
1.08066
-0.00939819
0.827337
-0.0104092
0.63279
-0.0111656
0.483451
-0.0116986
0.368797
0.280988
-0.0120612
-0.122845
113.144
-0.0930995
85.6586
-0.0710161
64.8886
-0.0546032
49.1508
-0.0423254
37.2375
-0.0331222
28.2169
-0.0262212
21.3882
-0.0210695
16.2194
-0.0172722
12.3073
-0.0145521
9.34665
-0.0127195
7.10573
-0.0116507
5.40915
-0.0112503
4.12374
-0.0114215
3.14869
-0.0120347
2.40766
-0.0129189
1.84316
-0.0138819
1.41187
-0.0147556
1.08153
-0.0154369
0.828018
-0.0158914
0.633244
-0.0161418
0.483701
-0.0162384
0.368893
0.280988
-0.0162385
-0.120821
113.107
-0.0936845
85.6315
-0.0735205
64.8684
-0.0585342
49.1358
-0.0473191
37.2263
-0.0389093
28.2085
-0.0325989
21.3819
-0.027882
16.2146
-0.0243956
12.3038
-0.0218817
9.34413
-0.0201594
7.104
-0.0191043
5.40809
-0.0186149
4.12325
-0.0185858
3.14867
-0.0188843
2.40796
-0.0193463
1.84362
-0.0198044
1.41233
-0.0201271
1.08185
-0.0202555
0.828147
-0.0201949
0.633183
-0.0199907
0.483497
-0.0197062
0.368609
0.28068
-0.0193977
-0.118702
113.073
-0.0939619
85.6067
-0.0755575
64.85
-0.0618774
49.1221
-0.0516341
37.2161
-0.0439491
28.2008
-0.0381768
21.3761
-0.0338542
16.2103
-0.0306469
12.3006
-0.0283133
9.3418
-0.0266789
7.10237
-0.0256165
5.40703
-0.0250167
4.12265
-0.0247655
3.14841
-0.0247294
2.40793
-0.024756
1.84365
-0.0247086
1.41228
-0.0244973
1.08164
-0.0241073
0.827757
-0.0235787
0.632655
-0.0229741
0.482892
-0.0223629
0.367998
0.280113
-0.0217956
-0.11652
113.042
-0.0939922
85.5842
-0.0772098
64.8332
-0.0647323
49.1097
-0.0553828
37.2067
-0.0483632
28.1938
-0.043084
21.3708
-0.039121
16.2064
-0.0361657
12.2977
-0.0339902
9.33962
-0.0324245
7.1008
-0.0313369
5.40594
-0.0306091
4.12192
-0.0301189
3.14792
-0.0297345
2.40754
-0.0293208
1.84323
-0.0287765
1.41173
-0.0280565
1.08092
-0.0271881
0.826889
-0.0262407
0.631707
-0.0252879
0.48194
-0.0243998
0.36711
0.27933
-0.0236174
-0.114301
113.015
-0.0938225
85.5637
-0.0785411
64.818
-0.0671754
49.0983
-0.0586513
37.1982
-0.0522456
28.1874
-0.0474201
21.366
-0.0437865
16.2027
-0.0410594
12.2949
-0.0390229
9.33759
-0.0375095
7.09929
-0.0363815
5.40481
-0.0355116
4.12105
-0.0347699
3.14718
-0.0340296
2.4068
-0.0331777
1.84238
-0.0321526
1.41071
-0.0309551
1.07972
-0.029651
0.825585
-0.028333
0.630389
-0.0270805
0.480687
-0.0259595
0.365989
0.27837
-0.0249994
-0.112062
112.989
-0.0934891
85.5451
-0.0796022
64.8041
-0.0692684
49.088
-0.0615093
37.1904
-0.0556718
28.1816
-0.0512656
21.3616
-0.0479348
16.1994
-0.0454153
12.2924
-0.0435009
9.33567
-0.0420256
7.09782
-0.0408448
5.40363
-0.0398215
4.12003
-0.0388202
3.14618
-0.0377221
2.4057
-0.0364405
1.8411
-0.0349565
1.40922
-0.0333163
1.07808
-0.0316199
0.823888
-0.0299771
0.628746
-0.0284684
0.479179
-0.0271527
0.364673
0.277264
-0.0260463
-0.109817
112.966
-0.0930221
85.5283
-0.080435
64.7915
-0.0710611
49.0786
-0.0640135
37.1834
-0.0587037
28.1763
-0.0546858
21.3576
-0.0516344
16.1963
-0.049304
12.2901
-0.0474973
9.33387
-0.0460479
7.09637
-0.044804
5.40239
-0.0436192
4.11884
-0.0423541
3.14492
-0.0409013
2.40425
-0.0392041
1.8394
-0.0372875
1.40731
-0.0352414
1.07604
-0.0331949
0.821842
-0.0312696
0.626821
-0.0295433
0.477452
-0.0280655
0.363195
0.276038
-0.0268392
-0.107578
112.946
-0.0924459
85.5132
-0.0810729
64.7801
-0.0725953
49.0701
-0.0662111
37.177
-0.0613927
28.1714
-0.0577357
21.3539
-0.0549426
16.1936
-0.0527851
12.2879
-0.0510731
9.33215
-0.0496392
7.09493
-0.048324
5.40107
-0.0469723
4.11749
-0.0454432
3.14339
-0.0436433
2.40245
-0.041549
1.83731
-0.0392293
1.40499
-0.0368147
1.07362
-0.0344585
0.819486
-0.0322888
0.624651
-0.0303785
0.475542
-0.0287661
0.361583
0.274713
-0.0274414
-0.105355
112.927
-0.0917818
85.4996
-0.0815458
64.7699
-0.073907
49.0625
-0.0681429
37.1712
-0.0637834
28.1671
-0.0604626
21.3506
-0.057909
16.191
-0.0559099
12.2859
-0.0542813
9.33053
-0.0528543
7.09351
-0.0514615
5.39968
-0.0499403
4.11597
-0.0481504
3.1416
-0.0460154
2.40032
-0.0435462
1.83484
-0.040855
1.4023
-0.0381089
1.07088
-0.0354806
0.816857
-0.0331007
0.622271
-0.0310351
0.473476
-0.0293108
0.359858
0.273307
-0.0279053
-0.103155
112.911
-0.0910473
85.4875
-0.0818796
64.7607
-0.0750272
49.0556
-0.0698445
37.166
-0.0659147
28.1632
-0.062908
21.3476
-0.060577
16.1887
-0.0587234
12.2841
-0.0571685
9.32897
-0.055741
7.09208
-0.0542663
5.39821
-0.0525755
4.11428
-0.0505314
3.13955
-0.0480766
2.39786
-0.0452578
1.83202
-0.042228
1.39927
-0.0391865
1.06784
-0.0363207
0.813991
-0.0337605
0.619711
-0.031564
0.47128
-0.0297468
0.358041
0.271835
-0.0282746
-0.100986
112.897
-0.0902585
85.4768
-0.0820962
64.7525
-0.0759837
49.0495
-0.0713472
37.1614
-0.0678206
28.1596
-0.0651082
21.3449
-0.0629849
16.1865
-0.0612654
12.2824
-0.0597755
9.32748
-0.0583417
7.09064
-0.0567826
5.39665
-0.0549246
4.11242
-0.0526357
3.13726
-0.0498798
2.39511
-0.0467392
1.82888
-0.0434044
1.39593
-0.0401022
1.06453
-0.0370306
0.81092
-0.0343164
0.616997
-0.0320097
0.468973
-0.0301146
0.356146
0.270308
-0.0285871
-0.0988528
112.884
-0.0894295
85.4674
-0.0822162
64.7453
-0.0768016
49.0441
-0.0726799
37.1573
-0.069533
28.1565
-0.067097
21.3425
-0.0651679
16.1846
-0.0635724
12.2808
-0.0621403
9.32605
-0.0606956
7.0892
-0.0590511
5.395
-0.0570304
4.1104
-0.054509
3.13474
-0.0514737
2.39207
-0.0480408
1.82545
-0.0444349
1.39233
-0.0409053
1.061
-0.0376568
0.807671
-0.0348118
0.614152
-0.0324121
0.466573
-0.0304518
0.354186
0.268734
-0.0288777
-0.0967609
112.873
-0.088573
85.4592
-0.0822582
64.739
-0.0775035
49.0393
-0.0738684
37.1536
-0.07108
28.1537
-0.0689045
21.3403
-0.0671577
16.1829
-0.0656774
12.2793
-0.0642969
9.32467
-0.0628379
7.08774
-0.0611087
5.39327
-0.0589318
4.10822
-0.0561926
3.132
-0.0529017
2.38878
-0.0492078
1.82175
-0.0453648
1.38848
-0.0416397
1.05728
-0.0382408
0.804272
-0.0352853
0.611197
-0.0328074
0.464096
-0.030792
0.35217
0.26712
-0.0291785
-0.0947155
112.864
-0.0877016
85.4522
-0.0822396
64.7336
-0.0781111
49.0352
-0.0749375
37.1505
-0.0724888
28.1512
-0.0705597
21.3384
-0.0689847
16.1813
-0.0676118
12.2779
-0.0662777
9.32333
-0.0648024
7.08627
-0.0629903
5.39146
-0.0606657
4.1059
-0.0577258
3.12906
-0.0542051
2.38526
-0.0502826
1.81783
-0.0462365
1.38444
-0.0423467
1.05339
-0.0388221
0.800748
-0.0357743
0.608149
-0.0332309
0.461552
-0.0311687
0.350108
0.265473
-0.0295211
-0.0927209
112.856
-0.0868255
85.4463
-0.0821763
64.7289
-0.078644
49.0317
-0.0759095
37.1477
-0.0737838
28.1491
-0.0720887
21.3367
-0.0706763
16.1799
-0.0694042
12.2766
-0.0681124
9.32204
-0.0666195
7.08477
-0.0647281
5.38957
-0.0622658
4.10343
-0.0591439
3.12594
-0.0554211
2.38154
-0.0513034
1.81371
-0.0470884
1.38022
-0.0430638
1.04937
-0.0394368
0.797121
-0.0363134
0.605025
-0.0337156
0.458954
-0.0316136
0.348006
0.263795
-0.0299361
-0.0907809
112.85
-0.0859558
85.4415
-0.0820834
64.725
-0.0791211
49.0287
-0.0768061
37.1454
-0.0749888
28.1473
-0.0735168
21.3352
-0.0722589
16.1786
-0.0710821
12.2755
-0.0698293
9.32079
-0.0683187
7.08326
-0.0663525
5.3876
-0.0637642
4.10085
-0.0604809
3.12266
-0.0565849
2.37764
-0.0523061
1.80943
-0.0479563
1.37587
-0.0438265
1.04524
-0.0401199
0.793414
-0.0369369
0.601842
-0.0342952
0.456313
-0.0321595
0.34587
0.262091
-0.0304559
-0.0888998
112.845
-0.0851018
85.4377
-0.0819757
64.7219
-0.0795601
49.0263
-0.0776476
37.1435
-0.0761261
28.1458
-0.0748679
21.3339
-0.0737577
16.1775
-0.0726714
12.2744
-0.0714553
9.31957
-0.0699279
7.08173
-0.0678926
5.38557
-0.065191
4.09814
-0.061768
3.11924
-0.057729
2.3736
-0.053324
1.80503
-0.0488738
1.37142
-0.0446687
1.04103
-0.0409053
0.789651
-0.0376788
0.598616
-0.0350036
0.453638
-0.0328406
0.343707
0.260365
-0.0311146
-0.087081
112.841
-0.0842738
85.4348
-0.0818666
64.7195
-0.0799782
49.0244
-0.0784537
37.142
-0.0772172
28.1445
-0.0761648
21.3329
-0.0751966
16.1765
-0.0741972
12.2734
-0.0730163
9.31839
-0.0714737
7.08019
-0.069376
5.38347
-0.0665751
4.09534
-0.0630352
3.1157
-0.0588838
2.36945
-0.054388
1.80053
-0.0498725
1.36691
-0.0456224
1.03678
-0.0418262
0.785854
-0.0385735
0.595363
-0.0358765
0.45094
-0.0336933
0.341524
0.258621
-0.0319493
-0.0853279
112.839
-0.0834797
85.433
-0.0817692
64.7178
-0.0803913
49.023
-0.0792426
37.1408
-0.078282
28.1436
-0.0774288
21.332
-0.0765981
16.1757
-0.0756826
12.2725
-0.0745363
9.31725
-0.0729809
7.07864
-0.0708284
5.38132
-0.0679429
4.09246
-0.0643096
3.11206
-0.0600771
2.36522
-0.0555262
1.79598
-0.0509811
1.36236
-0.046718
1.03252
-0.0429147
0.782051
-0.0396554
0.592104
-0.0369502
0.448235
-0.034756
0.33933
0.256865
-0.0329998
-0.083644
112.838
-0.082729
85.4321
-0.0816965
64.7168
-0.0808154
49.0221
-0.0800326
37.1401
-0.0793408
28.1429
-0.0786816
21.3314
-0.0779846
16.175
-0.0771511
12.2716
-0.0760394
9.31613
-0.0744744
7.07707
-0.0722753
5.37912
-0.0693206
4.0895
-0.0656178
3.10836
-0.0613356
2.36093
-0.0567657
1.79141
-0.0522274
1.35782
-0.0479848
1.02827
-0.0442033
0.778269
-0.0409603
0.588861
-0.0382642
0.445539
-0.0360711
0.337137
0.255105
-0.0343114
-0.0820324
112.839
-0.0820294
85.4321
-0.0816601
64.7164
-0.0812655
49.0217
-0.0808408
37.1396
-0.0804121
28.1425
-0.079943
21.3309
-0.0793771
16.1745
-0.0786244
12.2709
-0.0775479
9.31506
-0.0759773
7.0755
-0.0737403
5.37688
-0.0707323
4.0865
-0.0669841
3.10461
-0.0626834
2.35663
-0.0581306
1.78686
-0.0536363
1.35333
-0.04945
1.02409
-0.0457222
0.774542
-0.0425229
0.585662
-0.0398577
0.442874
-0.0376824
0.334962
0.253354
-0.0359317
-0.0804965
112.84
-0.0813896
85.433
-0.0816723
64.7167
-0.081756
49.0218
-0.0816839
37.1396
-0.0815143
28.1423
-0.0812325
21.3306
-0.0807961
16.174
-0.0801237
12.2702
-0.0790839
9.31402
-0.0775119
7.07393
-0.0752464
5.37462
-0.072201
4.08345
-0.0684311
3.10084
-0.0641426
2.35234
-0.0596425
1.78236
-0.05523
1.34892
-0.0511377
1.02
-0.0474996
0.770903
-0.044376
0.582538
-0.0417693
0.440267
-0.0396342
0.332827
0.25163
-0.0379101
-0.0790383
112.843
-0.0808167
85.4348
-0.0817438
64.7176
-0.0823007
49.0224
-0.0825775
37.1398
-0.0826645
28.1424
-0.0825683
21.3305
-0.0822607
16.1737
-0.081669
12.2696
-0.0806678
9.31302
-0.0790994
7.07236
-0.076815
5.37233
-0.0737483
4.08038
-0.0699803
3.09707
-0.0657341
2.3481
-0.0613217
1.77795
-0.0570291
1.34462
-0.0530705
1.01604
-0.0495621
0.767395
-0.046552
0.579528
-0.0440375
0.437753
-0.0419739
0.330763
0.249957
-0.0403005
-0.0748474
112.844
-0.0755126
85.4354
-0.0759795
64.7181
-0.0763987
49.0228
-0.0766963
37.1401
-0.0768734
28.1426
-0.076893
21.3305
-0.0767076
16.1735
-0.0762396
12.2691
-0.0753698
9.31215
-0.073955
7.07095
-0.0718678
5.37025
-0.0690641
4.07758
-0.0656393
3.09365
-0.0618125
2.34427
-0.0578733
1.77401
-0.054073
1.34082
-0.0505917
1.01256
-0.0475213
0.764325
-0.0448945
0.576901
-0.0426999
0.435558
-0.0409004
0.328964
0.248493
-0.0394364
-0.0597699
112.845
-0.0605323
85.4362
-0.0610756
64.7186
-0.0615407
49.0233
-0.0618755
37.1405
-0.0620889
28.1428
-0.0621555
21.3306
-0.0620404
16.1734
-0.0616838
12.2688
-0.0609926
9.31146
-0.0598568
7.06981
-0.0581829
5.36857
-0.0559488
4.07535
-0.0532444
3.09094
-0.0502536
2.34128
-0.0472067
1.77096
-0.0442957
1.33791
-0.0416513
1.00991
-0.0393341
0.762007
-0.037365
0.574932
-0.0357214
0.433915
-0.0343775
0.32762
0.247401
-0.0332861
-0.0476945
112.845
-0.0484591
85.4369
-0.0490082
64.7192
-0.0494675
49.0237
-0.0498006
37.1408
-0.0500198
28.143
-0.050108
21.3307
-0.0500392
16.1733
-0.0497673
12.2685
-0.0492197
9.31091
-0.0483118
7.0689
-0.0469745
5.36724
-0.0451989
4.07357
-0.0430651
3.08881
-0.040726
2.33894
-0.038364
1.7686
-0.0361273
1.33568
-0.0341128
1.0079
-0.0323582
0.760253
-0.0308811
0.573455
-0.0296511
0.432685
-0.0286501
0.326619
0.246591
-0.0278396
-0.038024
112.846
-0.0387312
85.4377
-0.039241
64.7197
-0.0396622
49.0242
-0.0399689
37.1411
-0.0401744
28.1432
-0.0402666
21.3308
-0.0402264
16.1733
-0.0400178
12.2683
-0.0395843
9.31048
-0.0388606
7.06818
-0.0377952
5.36617
-0.0363868
4.07216
-0.0347044
3.08713
-0.0328736
2.33711
-0.031039
1.76676
-0.029315
1.33395
-0.0277754
1.00636
-0.0264417
0.758919
-0.02533
0.572343
-0.0244086
0.431763
-0.0236626
0.325873
0.24599
-0.0230613
-0.0302908
112.847
-0.0309139
85.4383
-0.0313642
64.7201
-0.0317334
49.0245
-0.032003
37.1414
-0.0321855
28.1434
-0.0322726
21.3309
-0.0322495
16.1733
-0.0320886
12.2681
-0.0317454
9.31013
-0.0311694
7.0676
-0.0303222
5.36532
-0.0292061
4.07105
-0.0278795
3.0858
-0.0264447
2.33568
-0.0250161
1.76533
-0.0236824
1.33262
-0.0225007
1.00518
-0.0214825
0.757901
-0.0206407
0.571501
-0.0199482
0.431071
-0.0193896
0.325314
0.245543
-0.0189428
-0.0240934
112.847
-0.0246088
85.4388
-0.024981
64.7205
-0.0252855
49.0248
-0.025508
37.1416
-0.0256593
28.1435
-0.0257327
21.3309
-0.025717
16.1733
-0.0255902
12.268
-0.0253176
9.30986
-0.0248598
7.06714
-0.024188
5.36465
-0.0233062
4.07016
-0.0222626
3.08476
-0.0211398
2.33455
-0.020028
1.76422
-0.0189958
1.33159
-0.0180873
1.00427
-0.0173094
0.757123
-0.0166696
0.570861
-0.0161482
0.430549
-0.015728
0.324894
0.245211
-0.0153962
-0.0192523
112.848
-0.0197447
85.4393
-0.0201025
64.7208
-0.0203919
49.0251
-0.0206045
37.1418
-0.0207516
28.1437
-0.0208297
21.331
-0.020831
16.1733
-0.0207386
12.2679
-0.0205255
9.30965
-0.020161
7.06678
-0.019623
5.36411
-0.0189164
4.06946
-0.0180816
3.08392
-0.0171863
2.33366
-0.0163033
1.76334
-0.015487
1.33077
-0.0147721
1.00355
-0.014164
0.756515
-0.0136652
0.570363
-0.0132629
0.430147
-0.0129383
0.324569
0.244958
-0.0126856
-0.0152132
112.848
-0.0155412
85.4396
-0.0157774
64.7211
-0.0159707
49.0253
-0.0161119
37.1419
-0.016208
28.1438
-0.0162546
21.3311
-0.0162444
16.1733
-0.0161638
12.2678
-0.015991
9.30947
-0.0157024
7.06649
-0.0152809
5.36369
-0.0147311
4.06891
-0.0140849
3.08328
-0.0133951
2.33297
-0.0127179
1.76266
-0.0120948
1.33015
-0.0115511
1.00301
-0.0110923
0.756056
-0.0107168
0.569987
-0.0104166
0.429847
-0.0101735
0.324326
0.244772
-0.00998679
-0.00918846
112.844
-0.0056622
85.4361
-0.00275591
64.7182
-0.000397493
49.0229
0.001527
37.14
0.00310149
28.1422
0.00440787
21.3298
0.00551908
16.1721
0.00650284
12.2669
0.00742289
9.30855
0.00833299
7.06558
0.0092673
5.36276
0.0102285
4.06795
0.0111875
3.08232
0.0120971
2.33206
0.0129117
1.76185
0.0136066
1.32945
0.0141734
1.00244
0.0146247
0.755604
0.0149781
0.569634
0.0152475
0.429577
0.0154555
0.324118
0.244622
0.015605
-0.00964682
112.839
-0.00594408
85.4324
-0.00289223
64.7151
-0.000415554
49.0205
0.00160538
37.138
0.00325882
28.1405
0.0046308
21.3284
0.00579804
16.171
0.00683163
12.2658
0.00779817
9.30759
0.00875359
7.06463
0.0097329
5.36178
0.010738
4.06694
0.0117376
3.08132
0.0126823
2.33111
0.0135247
1.761
0.0142399
1.32874
0.0148206
1.00186
0.0152785
0.755146
0.0156359
0.569276
0.0159059
0.429307
0.0161126
0.323911
0.244475
0.0162601
-0.0101282
112.835
-0.0062401
85.4285
-0.00303521
64.7119
-0.000434352
49.0179
0.00168788
37.1359
0.00342422
28.1388
0.0048651
21.3269
0.00609123
16.1697
0.0071771
12.2647
0.00819246
9.30657
0.00919535
7.06362
0.0102216
5.36075
0.0112722
4.06589
0.0123136
3.08028
0.013294
2.33013
0.0141645
1.76013
0.0148996
1.328
0.0154939
1.00127
0.0159578
0.754683
0.0163179
0.568916
0.016588
0.429037
0.0167926
0.323707
0.24433
0.0169371
-0.0106336
112.83
-0.00655068
85.4244
-0.00318512
64.7085
-0.000453939
49.0151
0.00177469
37.1337
0.0035981
28.137
0.00511141
21.3254
0.00639939
16.1685
0.00754023
12.2636
0.0086068
9.30551
0.00965944
7.06257
0.0107347
5.35968
0.0118325
4.06479
0.0129169
3.07919
0.0139336
2.32912
0.0148323
1.75924
0.0155866
1.32725
0.0161938
1.00066
0.0166631
0.754213
0.0170244
0.568555
0.0172937
0.428768
0.0174952
0.323505
0.244189
0.0176364
-0.011164
112.824
-0.00687679
85.4201
-0.00334261
64.705
-0.000474347
49.0123
0.00186603
37.1313
0.00378095
28.1351
0.00537031
21.3238
0.00672328
16.1671
0.00792188
12.2624
0.00904228
9.30439
0.010147
7.06147
0.0112733
5.35855
0.0124201
4.06365
0.0135486
3.07806
0.0146022
2.32806
0.0155289
1.75831
0.0163018
1.32647
0.0169208
1.00004
0.0173949
0.753739
0.017756
0.568194
0.0180232
0.428501
0.0182211
0.323307
0.244051
0.0183591
-0.0117213
112.819
-0.00721914
85.4156
-0.00350773
64.7013
-0.000495587
49.0093
0.00196215
37.1289
0.00397318
28.1331
0.00564247
21.3222
0.00706373
16.1657
0.00832303
12.2611
0.00949991
9.30321
0.0106592
7.06031
0.0118388
5.35737
0.0130362
4.06245
0.01421
3.07689
0.0153008
2.32697
0.0162556
1.75735
0.0170463
1.32568
0.0176758
0.99941
0.0181541
0.753261
0.0185138
0.567834
0.0187777
0.428237
0.0189713
0.323114
0.243916
0.0191064
-0.0123059
112.813
-0.0075785
85.4109
-0.00368108
64.6974
-0.000517708
49.0061
0.00206333
37.1263
0.00417528
28.1309
0.00592852
21.3204
0.00742157
16.1642
0.00874462
12.2598
0.00998082
9.30197
0.0111973
7.05909
0.0124325
5.35614
0.0136822
4.0612
0.0149025
3.07567
0.0160308
2.32584
0.0170133
1.75637
0.0178211
1.32488
0.0184598
0.998772
0.0189414
0.752779
0.0192987
0.567477
0.0195581
0.427977
0.0197467
0.322925
0.243784
0.0198784
-0.01292
112.807
-0.00795571
85.4059
-0.00386269
64.6933
-0.000540746
49.0028
0.00216978
37.1236
0.00438778
28.1287
0.00622924
21.3186
0.00779767
16.1626
0.00918775
12.2584
0.0104862
9.30067
0.0117625
7.05781
0.0130556
5.35484
0.0143595
4.05989
0.0156272
3.0744
0.0167933
2.32468
0.0178032
1.75536
0.0186273
1.32405
0.0192735
0.998125
0.0197574
0.752295
0.0201113
0.567123
0.0203652
0.427723
0.0205476
0.322743
0.243657
0.0206747
-0.0135645
112.8
-0.00835169
85.4007
-0.00405343
64.689
-0.000564705
48.9993
0.00228183
37.1207
0.00461124
28.1264
0.00654536
21.3166
0.00819304
16.161
0.0096535
12.257
0.0110173
9.29931
0.0123563
7.05647
0.0137096
5.35349
0.0150694
4.05854
0.0163857
3.07308
0.0175896
2.32347
0.0186264
1.75432
0.0194658
1.32321
0.0201181
0.997473
0.0206027
0.751811
0.0209523
0.566773
0.0211995
0.427476
0.021374
0.322568
0.243536
0.0214947
-0.0142412
112.794
-0.00876728
85.3952
-0.00425345
64.6845
-0.000589643
48.9956
0.00239974
37.1177
0.00484616
28.124
0.00687765
21.3146
0.0086086
16.1592
0.0101431
12.2554
0.0115755
9.29788
0.0129801
7.05507
0.0143961
5.35207
0.0158136
4.05712
0.0171793
3.07172
0.0184211
2.32223
0.019484
1.75326
0.0203378
1.32236
0.0209945
0.996816
0.021478
0.751327
0.0218222
0.566429
0.0220613
0.427237
0.0222267
0.322403
0.243424
0.0223394
-0.0149515
112.787
-0.0092034
85.3895
-0.00446346
64.6798
-0.000615603
48.9918
0.00252387
37.1146
0.00509322
28.1214
0.00722699
21.3125
0.00904547
16.1574
0.0106577
12.2538
0.0121622
9.29637
0.0136353
7.0536
0.0151166
5.35059
0.0165936
4.05564
0.0180096
3.0703
0.0192893
2.32095
0.0203774
1.75217
0.0212444
1.32149
0.0219039
0.996157
0.0223845
0.750847
0.0227219
0.566091
0.0229519
0.427007
0.0231072
0.322247
0.24332
0.0232108
-0.0156975
112.779
-0.00966135
85.3835
-0.00468345
64.6748
-0.000642608
48.9877
0.00265449
37.1113
0.005353
28.1187
0.0075943
21.3102
0.00950476
16.1555
0.0111987
12.2521
0.0127788
9.29479
0.0143237
7.05205
0.0158728
5.34904
0.017411
4.0541
0.0188781
3.06884
0.0201955
2.31963
0.0213079
1.75106
0.0221869
1.32061
0.0228478
0.995496
0.0233235
0.750371
0.0236529
0.565762
0.0238729
0.426787
0.0240175
0.322103
0.243226
0.0241113
-0.0164804
112.771
-0.0101421
85.3771
-0.00491456
64.6696
-0.000670662
48.9835
0.00279202
37.1078
0.00562619
28.1158
0.00798047
21.3079
0.00998762
16.1535
0.0117674
12.2504
0.0134268
9.29313
0.0150468
7.05043
0.0166664
5.34742
0.0182675
4.0525
0.0197865
3.06732
0.0211413
2.31828
0.0222769
1.74993
0.0231667
1.31972
0.0238275
0.994835
0.0242967
0.749902
0.0246168
0.565442
0.0248264
0.426578
0.0249599
0.321969
0.243143
0.0250432
-0.0173024
112.763
-0.0106465
85.3705
-0.00515679
64.6641
-0.000699828
48.979
0.00293678
37.1042