/*--------------------------------*- C++ -*----------------------------------*\
  =========                 |
  \\      /  F ield         | OpenFOAM: The Open Source CFD Toolbox
   \\    /   O peration     | Website:  https://openfoam.org
    \\  /    A nd           | Version:  7
     \\/     M anipulation  |
\*---------------------------------------------------------------------------*/
FoamFile
{
    version     2.0;
    format      ascii;
    class       volVectorField;
    location    "69";
    object      U;
}
// * * * * * * * * * * * * * * * * * * * * * * * * * * * * * * * * * * * * * //

dimensions      [0 1 -1 0 0 0 0];

internalField   nonuniform List<vector> 
12842
(
(15.599 0.820294 1.27649e-19)
(15.5996 0.82733 7.19681e-21)
(15.6001 0.834973 1.0668e-20)
(15.6004 0.844119 -1.66143e-20)
(15.6003 0.855582 1.11273e-19)
(15.5997 0.870105 0)
(15.5982 0.888532 0)
(15.5952 0.911858 -9.01879e-21)
(15.5898 0.941225 -3.61786e-20)
(15.5807 0.977878 -5.73695e-21)
(15.5663 1.02308 3.75307e-21)
(15.5447 1.07795 -2.10783e-20)
(15.5134 1.14329 7.13376e-20)
(15.4705 1.2193 3.83704e-20)
(15.4141 1.30537 -5.03157e-20)
(15.3435 1.39999 -1.51437e-19)
(15.2596 1.5007 -1.50074e-19)
(15.1645 1.60424 0)
(15.0619 1.70696 1.62661e-20)
(14.9563 1.8053 1.15615e-19)
(14.8527 1.89616 1.64965e-20)
(14.7548 1.97764 -7.84183e-20)
(14.667 2.04765 5.81642e-20)
(15.5996 0.820255 -1.20769e-19)
(15.6017 0.827046 0)
(15.6035 0.834564 3.21561e-19)
(15.6055 0.843678 -2.30576e-19)
(15.6075 0.855211 -1.04871e-19)
(15.6094 0.869965 0)
(15.6109 0.88889 3.7871e-19)
(15.6116 0.91314 0)
(15.6107 0.944074 2.418e-19)
(15.6072 0.983214 2.57144e-20)
(15.5994 1.03213 7.5172e-22)
(15.5853 1.09225 1.12531e-19)
(15.5623 1.16455 -6.71055e-20)
(15.5279 1.24924 2.65349e-20)
(15.48 1.34545 0)
(15.4173 1.45112 1.56179e-19)
(15.34 1.56303 2.11253e-19)
(15.25 1.67706 -2.58378e-19)
(15.1509 1.7888 0)
(15.0471 1.8942 -1.44031e-19)
(14.944 1.98986 -2.23468e-19)
(14.8455 2.07447 2.05658e-19)
(14.7568 2.14426 -2.12822e-19)
(15.6004 0.820103 0)
(15.6035 0.826488 0)
(15.6065 0.833714 2.01666e-19)
(15.61 0.842623 1.32273e-18)
(15.6139 0.854019 0)
(15.618 0.868734 0)
(15.6222 0.887793 2.15877e-19)
(15.6264 0.912476 -4.77781e-19)
(15.63 0.944334 -1.39988e-19)
(15.6319 0.985146 -1.66033e-19)
(15.6307 1.03679 -3.58847e-19)
(15.624 1.10099 -1.08408e-19)
(15.6094 1.17898 -1.80751e-20)
(15.5839 1.27104 -2.05695e-21)
(15.5448 1.37616 0)
(15.4904 1.49188 -3.92488e-20)
(15.4204 1.61431 5.01562e-20)
(15.3364 1.73863 1.60744e-19)
(15.2417 1.85967 1.87127e-19)
(15.141 1.97292 -1.612e-19)
(15.0398 2.07458 1.62603e-19)
(14.9424 2.16382 0)
(14.8544 2.23518 7.686e-20)
(15.6012 0.819848 -1.4492e-19)
(15.605 0.825719 2.03136e-19)
(15.6091 0.832555 -5.80905e-19)
(15.6139 0.841138 -2.39082e-18)
(15.6194 0.852235 2.15438e-19)
(15.6255 0.866689 -7.78851e-19)
(15.6324 0.885571 3.36704e-20)
(15.6399 0.910263 4.65833e-19)
(15.6477 0.94248 9.09114e-19)
(15.6549 0.98424 -5.66931e-19)
(15.6601 1.03772 9.34404e-19)
(15.661 1.10496 -9.46868e-20)
(15.6549 1.18748 1.23269e-19)
(15.6385 1.28571 4.0648e-19)
(15.6087 1.39856 -2.15405e-20)
(15.5632 1.5233 2.76901e-20)
(15.5013 1.65551 -1.74306e-20)
(15.4243 1.78973 -5.15031e-20)
(15.3353 1.92014 -7.94393e-20)
(15.2392 2.04176 1.51545e-21)
(15.1414 2.15031 -5.96051e-20)
(15.0465 2.24538 -8.09166e-20)
(14.9606 2.31977 1.60117e-19)
(15.602 0.819494 -1.71526e-18)
(15.6063 0.824788 0)
(15.6113 0.83117 1.1559e-19)
(15.6173 0.83932 8.84434e-19)
(15.6242 0.849974 9.4202e-20)
(15.6322 0.863963 2.14547e-18)
(15.6414 0.88238 1.56874e-19)
(15.652 0.906683 -1.51371e-18)
(15.6638 0.938731 -1.00977e-18)
(15.6761 0.980762 6.78387e-19)
(15.6876 1.03524 -1.16646e-18)
(15.6961 1.10456 -8.82356e-19)
(15.6987 1.19054 1.82735e-19)
(15.6918 1.29382 -1.00405e-18)
(15.6719 1.41335 -3.84772e-19)
(15.6362 1.54619 2.19536e-19)
(15.5835 1.68749 0)
(15.5147 1.83124 2.76317e-20)
(15.4329 1.97102 0)
(15.3426 2.10138 5.78768e-20)
(15.2498 2.2175 -6.84095e-21)
(15.1586 2.31936 5.86287e-20)
(15.0759 2.39792 -2.16804e-20)
(15.6029 0.819048 1.44272e-18)
(15.6073 0.823758 0)
(15.6131 0.82964 0)
(15.6201 0.837269 1.61382e-18)
(15.6282 0.847355 -1.1812e-18)
(15.6378 0.860694 -1.28169e-18)
(15.6492 0.878376 -2.02191e-18)
(15.6626 0.901911 1.66418e-18)
(15.6781 0.933271 0)
(15.6953 0.974891 1.04064e-18)
(15.7129 1.02952 1.11598e-18)
(15.729 1.09988 4.42953e-19)
(15.7404 1.18817 0)
(15.7434 1.29529 5.93447e-19)
(15.734 1.42031 3.21312e-19)
(15.7089 1.56019 -1.4445e-19)
(15.6666 1.70977 -3.04705e-20)
(15.6074 1.86257 2.34786e-19)
(15.5342 2.0116 0)
(15.4512 2.151 5.22227e-20)
(15.3646 2.27533 4.01756e-20)
(15.2783 2.38489 -1.16397e-19)
(15.1998 2.46868 -4.26302e-21)
(15.6036 0.818526 -1.68636e-19)
(15.608 0.822689 0)
(15.6145 0.828043 0)
(15.6224 0.835093 -1.59545e-18)
(15.6316 0.844524 1.35061e-18)
(15.6425 0.857071 -1.78977e-19)
(15.6557 0.873801 1.22285e-18)
(15.6717 0.896248 1.30654e-19)
(15.6906 0.926466 -1.71559e-19)
(15.7123 0.967056 -1.16865e-18)
(15.7358 1.02102 -1.41438e-19)
(15.7592 1.09143 1.03903e-18)
(15.7795 1.18087 0)
(15.7926 1.29058 -9.51065e-19)
(15.7942 1.41983 7.40523e-20)
(15.7807 1.56559 -9.53198e-20)
(15.7498 1.72249 2.72665e-19)
(15.7015 1.8837 -1.3733e-19)
(15.6383 2.04173 -2.13511e-19)
(15.5642 2.19031 -3.09007e-20)
(15.4852 2.32331 8.82329e-21)
(15.4052 2.44136 4.03019e-21)
(15.3319 2.53129 1.77932e-20)
(15.6042 0.817964 0)
(15.6085 0.821614 -8.96594e-20)
(15.6157 0.82642 1.10677e-18)
(15.6242 0.832853 -2.95174e-20)
(15.6342 0.841555 -1.48111e-18)
(15.6462 0.853187 2.41188e-19)
(15.661 0.868765 -4.30753e-20)
(15.679 0.889816 -1.10368e-18)
(15.7009 0.91843 0)
(15.7267 0.95733 -1.52816e-18)
(15.7556 1.00973 1.28455e-19)
(15.7861 1.07905 1.06703e-19)
(15.815 1.16826 0)
(15.8383 1.27902 9.29056e-19)
(15.8514 1.41092 -7.8017e-19)
(15.8502 1.56108 0)
(15.8319 1.72408 -2.67572e-19)
(15.7959 1.89287 0)
(15.7444 2.05949 1.66573e-19)
(15.681 2.21736 0)
(15.6113 2.3595 -4.36017e-20)
(15.539 2.48697 3.62877e-20)
(15.4722 2.58408 3.6972e-20)
(15.6048 0.817289 0)
(15.6088 0.820595 0)
(15.6166 0.82492 5.0453e-20)
(15.6255 0.830842 -6.94673e-20)
(15.6361 0.838951 1.67912e-18)
(15.6489 0.849822 1.43359e-18)
(15.6647 0.864426 0)
(15.6843 0.884264 1.03821e-18)
(15.7084 0.911441 0)
(15.7373 0.948768 3.13856e-18)
(15.7704 0.999626 1.24031e-18)
(15.8065 1.0677 -9.20084e-19)
(15.8424 1.15629 -9.347e-20)
(15.8742 1.26741 0)
(15.8969 1.40093 8.31641e-19)
(15.9063 1.55413 6.46967e-19)
(15.899 1.72155 -5.02898e-20)
(15.8743 1.89602 3.75149e-19)
(15.8337 2.06924 3.04325e-19)
(15.7804 2.23444 0)
(15.72 2.38378 4.53876e-20)
(15.6556 2.51899 7.06692e-21)
(15.5954 2.62227 -1.89734e-20)
(15.6055 0.816559 -3.069e-20)
(15.609 0.819682 1.1005e-18)
(15.6174 0.823617 -1.06585e-18)
(15.6266 0.829178 0)
(15.6376 0.836843 3.10956e-20)
(15.651 0.847134 6.48877e-20)
(15.6676 0.860977 -1.36716e-18)
(15.6884 0.879854 0)
(15.7141 0.905869 0)
(15.7453 0.941887 -1.58078e-18)
(15.7817 0.991399 -1.31088e-18)
(15.822 1.05827 -3.82995e-20)
(15.8635 1.14608 9.99018e-19)
(15.902 1.25708 -3.29086e-20)
(15.9326 1.39137 -1.208e-19)
(15.9507 1.5464 1.53904e-19)
(15.953 1.71671 -4.32042e-19)
(15.9381 1.8951 -3.53229e-19)
(15.9074 2.07302 -3.43068e-19)
(15.8635 2.24366 -2.50647e-19)
(15.8121 2.39848 6.25591e-20)
(15.7555 2.53971 -2.61914e-19)
(15.7022 2.64799 4.27933e-20)
(15.6061 0.815781 2.19901e-18)
(15.6091 0.818848 -1.25341e-18)
(15.6181 0.822397 3.24873e-20)
(15.6276 0.827658 1.05006e-18)
(15.639 0.834917 -4.87941e-20)
(15.6529 0.844669 -1.48055e-18)
(15.6703 0.857793 2.60395e-18)
(15.692 0.875745 7.47375e-20)
(15.7193 0.900621 -5.58873e-20)
(15.7526 0.935319 -1.72292e-18)
(15.7921 0.983413 5.0603e-20)
(15.8365 1.04894 -1.24994e-18)
(15.8833 1.13567 -8.88881e-19)
(15.9284 1.24615 0)
(15.9669 1.38068 1.05609e-18)
(15.9941 1.53689 -1.45756e-18)
(16.0064 1.70937 -1.22573e-19)
(16.0022 1.89095 4.08208e-19)
(15.9824 2.07288 4.75286e-22)
(15.9495 2.24842 3.20066e-19)
(15.9086 2.4083 0)
(15.8614 2.55524 8.62728e-20)
(15.8167 2.66838 0)
(15.6065 0.814971 -3.37345e-18)
(15.6092 0.818085 -1.22222e-18)
(15.6188 0.821244 5.517e-20)
(15.6284 0.82625 -2.07042e-18)
(15.6402 0.833127 9.25194e-19)
(15.6546 0.84237 -4.33904e-20)
(15.6726 0.854802 -1.33313e-18)
(15.6953 0.871851 2.19192e-20)
(15.7239 0.89559 -6.65523e-20)
(15.7593 0.928938 1.77116e-18)
(15.8016 0.975531 0)
(15.8499 1.03954 1.14011e-18)
(15.9019 1.12493 8.9647e-20)
(15.9536 1.23448 -4.38595e-20)
(16.0002 1.36873 -1.09068e-18)
(16.0368 1.52548 -1.53641e-20)
(16.0596 1.6994 4.02943e-19)
(16.067 1.88343 -6.83342e-19)
(16.0594 2.06863 0)
(16.0388 2.24836 -2.57112e-19)
(16.01 2.41271 3.23602e-19)
(15.974 2.56486 0)
(15.9393 2.68258 -1.46383e-19)
(15.6069 0.814158 1.14465e-18)
(15.6092 0.81739 -8.26332e-21)
(15.6194 0.820157 5.59906e-20)
(15.6291 0.824945 9.98431e-19)
(15.6413 0.831456 -1.81637e-18)
(15.656 0.840211 7.44024e-21)
(15.6746 0.85197 1.93806e-20)
(15.6982 0.868125 1.24643e-18)
(15.7281 0.890721 -2.96087e-20)
(15.7653 0.922678 0)
(15.8103 0.96767 1.52794e-18)
(15.8624 1.02998 3.61049e-20)
(15.9195 1.11374 3.56402e-20)
(15.9778 1.22196 8.34352e-21)
(16.0325 1.35538 -1.12144e-19)
(16.0789 1.51201 8.50843e-19)
(16.113 1.68663 -5.02719e-19)
(16.1329 1.87227 -9.56504e-20)
(16.1387 2.05986 -1.45634e-19)
(16.1317 2.24291 3.795e-19)
(16.1165 2.41087 -2.24318e-19)
(16.0933 2.56744 4.69984e-19)
(16.0702 2.68924 -2.89893e-19)
(15.6071 0.813361 1.19831e-18)
(15.6093 0.816757 1.18642e-18)
(15.6198 0.819135 5.46966e-21)
(15.6297 0.823733 1.06546e-18)
(15.6422 0.82989 1.84584e-18)
(15.6573 0.838175 -7.54478e-21)
(15.6764 0.849273 -1.97182e-20)
(15.7007 0.864541 2.46184e-20)
(15.7318 0.885978 -1.0907e-18)
(15.7708 0.916494 9.60039e-19)
(15.8183 0.959779 -1.60601e-18)
(15.8741 1.0202 -1.30268e-18)
(15.9362 1.10203 1.09185e-18)
(16.0011 1.20848 0)
(16.0642 1.34051 6.66749e-19)
(16.1207 1.49632 0)
(16.1667 1.67079 6.63109e-19)
(16.1999 1.85709 3.97936e-19)
(16.2202 2.04601 -4.16293e-21)
(16.2283 2.23127 -4.43079e-19)
(16.2282 2.4017 -3.50526e-21)
(16.2192 2.56153 1.30125e-20)
(16.2091 2.68658 -1.27114e-19)
(15.6073 0.812593 1.10914e-20)
(15.6094 0.816179 1.28483e-20)
(15.6203 0.818174 -5.47637e-21)
(15.6303 0.822603 -1.06486e-18)
(15.643 0.828417 -9.20783e-19)
(15.6584 0.836246 0)
(15.6779 0.846695 1.33677e-20)
(15.703 0.861077 -1.26435e-18)
(15.7351 0.881338 -2.24811e-20)
(15.7757 0.910359 -9.60107e-19)
(15.8257 0.951821 8.48892e-19)
(15.8851 1.01014 2.03365e-18)
(15.9521 1.08973 -1.05301e-18)
(16.0237 1.19395 8.56918e-19)
(16.0953 1.32396 8.5319e-20)
(16.1624 1.47817 8.31482e-21)
(16.2209 1.65154 -3.989e-20)
(16.2683 1.8374 -1.33813e-19)
(16.3042 2.02639 8.95633e-20)
(16.3284 2.21247 -1.57541e-19)
(16.3447 2.38389 -1.37679e-20)
(16.3514 2.54539 1.1648e-19)
(16.3557 2.67251 0)
(15.6074 0.811863 -4.41454e-21)
(15.6094 0.815651 0)
(15.6206 0.817271 0)
(15.6307 0.821548 -1.06321e-18)
(15.6437 0.827026 -9.50765e-19)
(15.6594 0.834411 8.26981e-19)
(15.6793 0.844218 1.01198e-20)
(15.705 0.857711 -1.19446e-20)
(15.7381 0.876774 1.1274e-18)
(15.7803 0.904238 -1.79918e-20)
(15.8326 0.943752 4.53575e-20)
(15.8954 0.999759 -6.93412e-19)
(15.9674 1.07674 0)
(16.0456 1.17824 -9.092e-19)
(16.126 1.30555 -1.45318e-18)
(16.204 1.4573 -6.05165e-19)
(16.2756 1.62848 -3.72659e-19)
(16.338 1.81261 0)
(16.3903 2.00014 0)
(16.4319 2.18532 2.68118e-19)
(16.4657 2.35588 1.74172e-19)
(16.4893 2.51703 -3.68395e-19)
(16.509 2.6446 0)
(15.6075 0.811177 -1.25535e-18)
(15.6094 0.815164 6.49241e-21)
(15.6209 0.816422 -2.73313e-21)
(15.6311 0.820555 1.05467e-18)
(15.6443 0.825704 1.89048e-18)
(15.6602 0.832653 -1.64369e-18)
(15.6805 0.841822 -1.02171e-20)
(15.7068 0.854421 -1.21235e-20)
(15.7408 0.872255 1.59566e-20)
(15.7844 0.898093 0)
(15.8389 0.935521 -8.46955e-19)
(15.9051 0.988975 7.35733e-19)
(15.9819 1.06298 0)
(16.067 1.1612 0)
(16.1563 1.28507 6.94062e-19)
(16.2455 1.43336 3.52876e-20)
(16.3307 1.60113 4.22632e-19)
(16.4087 1.782 3.30598e-19)
(16.4783 1.96625 -4.73372e-19)
(16.538 2.14846 -1.65059e-19)
(16.5902 2.31592 6.42554e-19)
(16.6315 2.47424 -5.88752e-19)
(16.6675 2.60024 3.82075e-19)
(15.6075 0.810539 6.38904e-19)
(15.6095 0.814715 5.60239e-19)
(15.6212 0.815622 5.89689e-21)
(15.6315 0.819618 -7.79884e-21)
(15.6448 0.824442 -9.52786e-19)
(15.661 0.830961 8.3404e-19)
(15.6816 0.839494 -6.93125e-21)
(15.7083 0.851188 -3.14343e-21)
(15.7432 0.867761 1.61606e-20)
(15.7881 0.891897 9.38228e-21)
(15.8448 0.92709 -1.23143e-20)
(15.9142 0.977734 -7.35505e-19)
(15.9959 1.04835 6.52488e-19)
(16.0876 1.14269 -2.89629e-20)
(16.186 1.26227 0)
(16.2868 1.40601 -7.53132e-20)
(16.3859 1.56892 5.512e-20)
(16.4801 1.74477 -3.32495e-19)
(16.5675 1.92362 6.04587e-19)
(16.6459 2.10043 3.53943e-19)
(16.7169 2.26217 -2.37359e-19)
(16.7761 2.4148 -3.45758e-19)
(16.8285 2.53681 4.41099e-19)
(15.6075 0.809951 3.61428e-21)
(15.6095 0.814297 -5.65702e-19)
(15.6214 0.814868 0)
(15.6318 0.818729 0)
(15.6453 0.823232 0)
(15.6616 0.829326 0)
(15.6825 0.837221 6.98718e-21)
(15.7097 0.847997 -3.00465e-21)
(15.7453 0.863272 -8.16541e-21)
(15.7915 0.885623 9.5432e-21)
(15.8502 0.918422 -1.25286e-20)
(15.9227 0.965978 0)
(16.0091 1.03277 -1.2784e-18)
(16.1076 1.12256 3.70099e-20)
(16.2151 1.23692 -7.76319e-20)
(16.3276 1.37484 7.21811e-19)
(16.4409 1.53128 -5.85144e-20)
(16.5515 1.7001 9.94029e-20)
(16.6569 1.87116 -1.09172e-19)
(16.754 2.03984 2.0154e-19)
(16.8436 2.19298 -2.84215e-19)
(16.9205 2.33677 0)
(16.9887 2.45212 2.64244e-19)
(15.6075 0.809411 -1.27876e-18)
(15.6096 0.813907 -2.74047e-19)
(15.6216 0.814155 -4.32426e-21)
(15.632 0.81788 5.38069e-19)
(15.6457 0.822065 4.80137e-19)
(15.6621 0.827737 3.94224e-21)
(15.6833 0.83499 -7.5231e-19)
(15.7109 0.844834 6.73418e-19)
(15.7471 0.85877 5.84674e-19)
(15.7945 0.879247 0)
(15.855 0.909481 1.67288e-20)
(15.9306 0.953652 -8.08431e-19)
(16.0216 1.01612 6.71506e-19)
(16.1268 1.10064 5.1895e-19)
(16.2433 1.20874 4.45313e-19)
(16.3676 1.33946 0)
(16.4951 1.48762 0)
(16.622 1.64719 -4.08684e-19)
(16.7451 1.80783 -4.37884e-19)
(16.8603 1.96545 2.21523e-19)
(16.9677 2.107 1.54419e-19)
(17.061 2.23879 2.17766e-19)
(17.1439 2.34468 -2.97121e-19)
(15.6075 0.808918 6.41907e-19)
(15.6096 0.813541 2.74803e-19)
(15.6217 0.813478 -2.97704e-21)
(15.6322 0.817066 4.54591e-21)
(15.646 0.820934 -4.79488e-19)
(15.6626 0.826183 -4.16012e-19)
(15.6839 0.832789 3.66026e-19)
(15.7118 0.841681 -6.65926e-19)
(15.7487 0.85423 -5.80672e-19)
(15.7971 0.872736 -1.46721e-20)
(15.8594 0.900222 0)
(15.9379 0.940686 7.85569e-19)
(16.0332 0.998319 6.79158e-19)
(16.1449 1.07677 -5.49719e-19)
(16.2704 1.17748 -3.81755e-19)
(16.4062 1.29947 -1.82822e-19)
(16.5477 1.4374 -1.54953e-19)
(16.6904 1.58536 8.43044e-19)
(16.8303 1.73288 0)
(16.9624 1.8765 0)
(17.0859 2.00356 1.8149e-19)
(17.1938 2.12042 -4.4413e-19)
(17.2893 2.2142 -3.28605e-19)
(15.6075 0.808468 -6.37938e-19)
(15.6096 0.813191 0)
(15.6218 0.812828 0)
(15.6324 0.816271 -1.07529e-18)
(15.6463 0.819827 4.7565e-19)
(15.663 0.824654 4.25103e-19)
(15.6845 0.830612 -1.13314e-21)
(15.7127 0.838536 3.29458e-19)
(15.7501 0.849654 1.39356e-20)
(15.7994 0.866094 -5.38965e-19)
(15.8633 0.890648 1.72237e-20)
(15.9445 0.927079 -2.25955e-20)
(16.044 0.979332 -6.78414e-19)
(16.162 1.05089 5.79698e-19)
(16.2961 1.14301 4.42727e-19)
(16.443 1.25466 -3.89869e-19)
(16.5978 1.38032 3.53313e-19)
(16.7553 1.51425 -4.34141e-19)
(16.9106 1.64598 0)
(17.0576 1.77282 0)
(17.1949 1.88282 -1.70015e-19)
(17.3147 1.98236 1.2726e-19)
(17.4201 2.0618 -3.5742e-19)
(15.6074 0.808069 3.4296e-21)
(15.6097 0.812868 -2.74327e-19)
(15.6219 0.812222 0)
(15.6325 0.815527 2.69136e-19)
(15.6464 0.818757 -9.57892e-19)
(15.6632 0.823147 3.95623e-21)
(15.6848 0.828426 -5.64776e-21)
(15.7133 0.835346 -3.41229e-19)
(15.7511 0.844972 8.33803e-21)
(15.8012 0.85923 5.40171e-19)
(15.8666 0.880636 -1.30838e-20)
(15.9502 0.912659 -3.94803e-19)
(16.0537 0.958922 -4.49979e-20)
(16.1775 1.02267 -5.45817e-19)
(16.3197 1.10492 -5.09622e-19)
(16.4771 1.20457 3.20417e-20)
(16.6441 1.31592 0)
(16.8149 1.43354 -6.31925e-20)
(16.9836 1.54714 8.26878e-20)
(17.143 1.65493 0)
(17.2911 1.74597 1.89464e-19)
(17.4197 1.8266 -1.29012e-19)
(17.5319 1.89 0)
(15.6073 0.807717 6.41207e-19)
(15.6096 0.812589 2.75461e-19)
(15.6219 0.811724 0)
(15.6327 0.814908 2.69532e-19)
(15.6467 0.817952 9.63494e-19)
(15.6635 0.822061 4.22028e-19)
(15.6852 0.826878 7.54847e-19)
(15.7139 0.833029 0)
(15.752 0.841431 6.07323e-19)
(15.8028 0.853801 -5.41221e-19)
(15.8694 0.872345 4.75729e-19)
(15.9551 0.900154 4.1744e-19)
(16.062 0.940387 -6.51643e-21)
(16.191 0.995872 8.53736e-21)
(16.3406 1.06718 -5.05306e-19)
(16.5073 1.15304 3.98758e-19)
(16.6853 1.24758 0)
(16.8678 1.34582 2.48654e-19)
(17.0476 1.43792 0)
(17.2167 1.52334 0)
(17.3727 1.59253 -1.89525e-19)
(17.5068 1.65207 -4.20056e-19)
(17.6227 1.6975 3.67474e-19)
(15.6074 0.807429 0)
(15.6097 0.81243 -1.29119e-23)
(15.622 0.811418 4.03821e-23)
(15.6328 0.814544 -2.68521e-19)
(15.6468 0.817446 -2.41002e-19)
(15.6637 0.821349 -4.21559e-19)
(15.6854 0.82581 -3.77259e-19)
(15.7142 0.831359 -3.99667e-22)
(15.7526 0.838755 -3.03007e-19)
(15.8038 0.849489 -6.87588e-22)
(15.8713 0.865411 2.28871e-21)
(15.9586 0.889163 0)
(16.0684 0.923327 6.60758e-21)
(16.2018 0.97017 -8.65914e-21)
(16.3577 1.0297 7.44859e-19)
(16.5326 1.1004 2.37013e-20)
(16.7198 1.17628 0)
(16.9116 1.25301 7.40344e-20)
(17.0997 1.32156 -8.83908e-20)
(17.2751 1.3828 0)
(17.4351 1.42903 0)
(17.5713 1.467 2.73109e-19)
(17.6877 1.49418 -1.93869e-19)
(15.6074 0.807137 6.43987e-19)
(15.6098 0.812277 2.77265e-19)
(15.6221 0.811119 0)
(15.6329 0.814193 2.68547e-19)
(15.647 0.816949 -2.40274e-19)
(15.6639 0.820646 -4.20633e-19)
(15.6857 0.824748 3.77147e-19)
(15.7146 0.829693 -3.39203e-19)
(15.7532 0.836079 -3.03656e-19)
(15.8049 0.845156 8.13539e-19)
(15.8732 0.858406 -4.78489e-19)
(15.9621 0.877986 -4.2288e-19)
(16.0743 0.905858 -3.69081e-19)
(16.2116 0.943679 0)
(16.3727 0.990871 -2.56413e-19)
(16.554 1.04572 4.2246e-19)
(16.7479 1.10227 2.27818e-20)
(16.9457 1.15708 -2.80728e-19)
(17.1381 1.20225 0)
(17.3157 1.24009 0)
(17.4757 1.26481 0)
(17.6102 1.2832 -4.14239e-19)
(17.7243 1.294 3.75463e-19)
(15.6074 0.806847 -6.44206e-19)
(15.6098 0.812126 -5.42501e-22)
(15.6222 0.810823 0)
(15.633 0.813846 -2.66545e-19)
(15.6471 0.816458 -2.60181e-23)
(15.6641 0.819949 6.30721e-19)
(15.6859 0.823692 -7.54303e-19)
(15.7149 0.828034 1.01882e-18)
(15.7538 0.833404 -3.59021e-22)
(15.8059 0.840807 -2.70734e-19)
(15.875 0.85134 -2.42776e-19)
(15.9652 0.86665 4.23832e-19)
(16.0795 0.88804 3.64617e-19)
(16.2198 0.916525 -3.14356e-19)
(16.385 0.950947 4.64881e-21)
(16.5708 0.989473 -4.26865e-19)
(16.769 1.02642 0)
(16.9696 1.05941 0)
(17.1629 1.08199 1.90385e-19)
(17.3392 1.09782 0)
(17.496 1.10294 0)
(17.6264 1.10402 6.56151e-20)
(17.7361 1.10055 1.82654e-19)
(15.6073 0.806565 0)
(15.6099 0.811975 -2.76872e-19)
(15.6222 0.810531 7.89401e-24)
(15.6331 0.813502 1.17463e-21)
(15.6472 0.81597 -1.73941e-23)
(15.6642 0.819256 -4.19675e-19)
(15.6862 0.822642 3.77133e-19)
(15.7153 0.826379 -6.79452e-19)
(15.7543 0.830727 -3.0553e-19)
(15.8068 0.83644 0)
(15.8765 0.844216 2.41483e-19)
(15.9677 0.855171 8.64379e-22)
(16.0836 0.869925 2.0078e-22)
(16.2262 0.888833 3.12644e-19)
(16.3942 0.910196 0)
(16.5827 0.932169 2.17292e-19)
(16.7827 0.949577 -4.84903e-21)
(16.9834 0.961275 0)
(17.1747 0.962485 -1.89489e-19)
(17.3469 0.958055 0)
(17.4983 0.945688 0)
(17.6227 0.931787 0)
(17.7269 0.916139 -1.31361e-21)
(15.6073 0.806291 0)
(15.6099 0.811826 1.37379e-19)
(15.6223 0.810244 -1.43816e-24)
(15.6332 0.813161 2.65473e-19)
(15.6473 0.815487 2.3796e-19)
(15.6644 0.818568 4.19178e-19)
(15.6864 0.821597 0)
(15.7156 0.824729 -3.40262e-19)
(15.7548 0.828051 6.11354e-19)
(15.8075 0.832061 -1.04959e-23)
(15.8777 0.837048 2.43183e-19)
(15.9696 0.843582 -2.14016e-19)
(16.0867 0.851585 0)
(16.2307 0.860755 0)
(16.4001 0.868912 2.63736e-19)
(16.5896 0.874324 -2.13037e-19)
(16.7892 0.87255 0)
(16.9875 0.863833 -2.52893e-19)
(17.1743 0.84516 -1.886e-19)
(17.3404 0.822416 0)
(17.4846 0.794684 3.08593e-21)
(17.602 0.768001 2.23251e-22)
(17.6999 0.742081 -9.52243e-20)
(15.6073 0.806024 1.93247e-24)
(15.6099 0.811679 -2.74205e-19)
(15.6223 0.809961 -4.1903e-24)
(15.6333 0.812823 0)
(15.6475 0.815008 -2.94405e-22)
(15.6645 0.817886 -4.18848e-19)
(15.6866 0.82056 -8.16964e-23)
(15.7158 0.823086 3.40127e-19)
(15.7551 0.825381 -3.05723e-19)
(15.8081 0.827679 2.7403e-19)
(15.8785 0.829855 4.07703e-22)
(15.9709 0.831923 4.28393e-19)
(16.0886 0.833104 -3.72856e-19)
(16.2333 0.832456 1.11254e-21)
(16.4029 0.8274 -5.28759e-19)
(16.5916 0.816453 2.19069e-19)
(16.7887 0.796119 -1.05274e-20)
(16.9824 0.768117 2.60864e-19)
(17.1626 0.731217 1.86847e-19)
(17.321 0.692154 0)
(17.4569 0.651098 9.20693e-20)
(17.5667 0.613628 0)
(17.6579 0.5791 -4.10567e-20)
(15.6072 0.805766 0)
(15.61 0.811532 1.36823e-19)
(15.6223 0.809683 1.69583e-19)
(15.6334 0.812488 1.50898e-23)
(15.6476 0.814534 -4.75287e-19)
(15.6646 0.817209 2.09427e-19)
(15.6867 0.81953 0)
(15.716 0.821453 0)
(15.7554 0.82272 -1.80647e-22)
(15.8085 0.823301 -2.7371e-19)
(15.8791 0.822654 1.80963e-22)
(15.9717 0.82023 -2.13998e-19)
(16.0895 0.814562 3.71042e-19)
(16.234 0.804101 0)
(16.4026 0.785964 2.6278e-19)
(16.5888 0.759054 -2.12025e-19)
(16.7815 0.720993 1.52366e-19)
(16.9686 0.675021 1.46208e-20)
(17.1407 0.621632 0)
(17.2902 0.568205 0)
(17.4171 0.515721 -4.5105e-20)
(17.5188 0.469237 -1.21897e-19)
(17.6032 0.427529 8.51653e-20)
(15.6072 0.805515 0)
(15.61 0.811387 -6.30843e-24)
(15.6224 0.809408 -1.69611e-19)
(15.6334 0.812157 1.31753e-19)
(15.6477 0.814064 2.37534e-19)
(15.6648 0.816538 4.57287e-23)
(15.6869 0.818507 1.88806e-19)
(15.7162 0.819829 1.70474e-19)
(15.7556 0.820069 -3.0658e-19)
(15.8087 0.818933 0)
(15.8794 0.815459 -8.96562e-23)
(15.9719 0.808542 -2.13672e-19)
(16.0894 0.796042 0)
(16.2328 0.775855 -5.66426e-21)
(16.3992 0.744901 2.66558e-19)
(16.5813 0.702595 0)
(16.7678 0.647813 -2.48843e-20)
(16.9469 0.585307 -3.92222e-21)
(17.1095 0.517174 2.17862e-19)
(17.2493 0.451239 0)
(17.3667 0.389042 0)
(17.4603 0.335091 6.12026e-20)
(17.5379 0.287411 -2.0409e-19)
(15.6072 0.805271 -3.83317e-24)
(15.61 0.811243 5.06019e-24)
(15.6224 0.809138 0)
(15.6335 0.811828 1.31608e-19)
(15.6477 0.813598 -1.20814e-22)
(15.6649 0.815872 9.14277e-23)
(15.687 0.817492 -1.88691e-19)
(15.7163 0.818215 -1.70609e-19)
(15.7558 0.817432 3.06538e-19)
(15.8089 0.814581 -2.73219e-19)
(15.8794 0.808286 -2.43995e-19)
(15.9716 0.796896 2.15555e-19)
(16.0881 0.777629 1.81145e-19)
(16.2297 0.747882 1.49664e-19)
(16.3926 0.704499 -2.60754e-19)
(16.5693 0.647512 1.18496e-20)
(16.7482 0.577146 -1.82326e-19)
(16.9178 0.499606 -8.91906e-20)
(17.0701 0.418433 -9.06127e-20)
(17.1995 0.341706 6.36586e-20)
(17.3073 0.271321 -8.25949e-20)
(17.3928 0.211227 0)
(17.4637 0.158586 7.74841e-20)
(15.6071 0.805034 0)
(15.6101 0.811101 1.34756e-19)
(15.6224 0.808872 1.68802e-19)
(15.6336 0.811503 -1.31857e-19)
(15.6478 0.813137 1.18562e-19)
(15.665 0.815212 0)
(15.6871 0.816485 2.23717e-22)
(15.7164 0.816612 -2.94657e-22)
(15.7559 0.814809 1.53011e-19)
(15.8088 0.810251 4.1048e-19)
(15.8791 0.801152 -2.409e-19)
(15.9706 0.785331 -1.48108e-21)
(16.0858 0.759406 -1.35902e-21)
(16.2247 0.720344 -1.55182e-19)
(16.3831 0.665031 0)
(16.5531 0.594207 1.99586e-19)
(16.723 0.509487 -1.52961e-19)
(16.882 0.418436 1.17386e-19)
(17.0232 0.325848 4.06437e-20)
(17.1421 0.23989 4.18731e-21)
(17.2401 0.162651 -7.93887e-20)
(17.3178 0.0975346 5.39771e-20)
(17.3822 0.0407681 7.65078e-20)
(15.6071 0.804804 1.57759e-19)
(15.6101 0.81096 -5.09913e-22)
(15.6225 0.80861 -1.6884e-19)
(15.6336 0.81118 -1.31458e-19)
(15.6479 0.81268 -2.36886e-19)
(15.6651 0.814557 -2.08537e-19)
(15.6872 0.815486 -2.23388e-22)
(15.7165 0.815021 2.94213e-22)
(15.7558 0.812204 -1.52995e-19)
(15.8087 0.80595 -1.36649e-19)
(15.8785 0.794074 4.83027e-19)
(15.9691 0.773887 -2.10542e-19)
(16.0824 0.741454 -1.82272e-19)
(16.2179 0.693404 1.51215e-19)
(16.3708 0.626755 -8.74033e-21)
(16.5328 0.543043 -1.74694e-19)
(16.6926 0.445265 1.55768e-19)
(16.8403 0.342214 -1.6547e-19)
(16.9699 0.23974 -4.35448e-20)
(17.0779 0.145954 0)
(17.1664 0.0630149 7.98921e-20)
(17.2364 -0.0061839 -1.06364e-19)
(17.2944 -0.0663902 1.44942e-19)
(15.607 0.80458 -1.57773e-19)
(15.6101 0.810819 -2.01157e-19)
(15.6225 0.808352 -1.68219e-19)
(15.6337 0.81086 1.30915e-19)
(15.648 0.812226 1.18305e-19)
(15.6652 0.813907 2.08505e-19)
(15.6873 0.814494 1.87951e-19)
(15.7165 0.813441 0)
(15.7558 0.809618 1.52364e-19)
(15.8083 0.801684 -1.35865e-19)
(15.8776 0.787067 -2.41014e-19)
(15.967 0.762601 2.10518e-19)
(16.0779 0.723855 0)
(16.2093 0.667211 -1.4053e-19)
(16.3558 0.589909 1.06477e-19)
(16.5087 0.494343 -9.43473e-20)
(16.6575 0.384844 3.91513e-20)
(16.7932 0.271273 5.86055e-20)
(16.9108 0.160338 -1.55145e-19)
(17.008 0.0599735 1.04376e-19)
(17.087 -0.0276708 0)
(17.1496 -0.100169 -2.06537e-19)
(17.2015 -0.163255 2.97017e-19)
(15.607 0.804364 0)
(15.6102 0.810681 6.68715e-20)
(15.6225 0.808098 1.682e-19)
(15.6338 0.810543 -1.30938e-19)
(15.6481 0.811776 -1.77366e-23)
(15.6652 0.813262 9.06575e-23)
(15.6873 0.813511 -9.41218e-20)
(15.7165 0.811873 0)
(15.7556 0.807053 -1.52353e-19)
(15.8079 0.797459 4.95272e-22)
(15.8764 0.780148 0)
(15.9643 0.751511 -1.03484e-19)
(16.0725 0.706685 0)
(16.1991 0.641898 1.04391e-20)
(16.3382 0.55471 -2.34807e-19)
(16.4813 0.448393 7.28453e-20)
(16.6183 0.328532 3.75085e-20)
(16.7413 0.205878 -1.48865e-19)
(16.8468 0.0878032 7.51233e-20)
(16.9331 -0.0180267 1.05121e-19)
(17.0029 -0.109519 -1.70378e-19)
(17.0583 -0.184664 1.42859e-19)
(17.1042 -0.250172 -5.31053e-19)
(15.6069 0.804153 -1.5643e-19)
(15.6102 0.810543 6.62944e-20)
(15.6225 0.807847 -8.36102e-20)
(15.6338 0.810228 -6.83365e-23)
(15.6481 0.81133 1.19374e-22)
(15.6653 0.812622 -2.13173e-22)
(15.6873 0.812535 -9.37201e-20)
(15.7165 0.810319 6.91599e-22)
(15.7554 0.804513 -5.25547e-22)
(15.8072 0.793282 5.5541e-22)
(15.875 0.773333 -1.18418e-19)
(15.9612 0.740651 9.97211e-20)
(16.0661 0.690014 4.92235e-21)
(16.1873 0.617593 -1.01701e-20)
(16.3183 0.521351 1.30564e-19)
(16.4507 0.405439 0)
(16.5753 0.276583 6.5424e-20)
(16.6854 0.146237 1.00223e-19)
(16.7785 0.0222503 -7.17885e-20)
(16.854 -0.0880481 1.92264e-19)
(16.9148 -0.182646 -9.44892e-20)
(16.9631 -0.259893 2.12105e-20)
(17.0032 -0.327445 2.67043e-19)
(15.6069 0.803949 3.12253e-19)
(15.6102 0.810406 -6.63096e-20)
(15.6225 0.8076 2.74392e-22)
(15.6339 0.809915 0)
(15.6482 0.810887 0)
(15.6653 0.811987 -1.03106e-19)
(15.6874 0.811567 -9.32172e-20)
(15.7164 0.808779 0)
(15.7551 0.801998 -7.10709e-22)
(15.8065 0.789159 1.35731e-19)
(15.8732 0.766636 1.20594e-19)
(15.9575 0.730055 -2.85438e-21)
(16.0588 0.673912 -6.14454e-21)
(16.174 0.594412 1.79042e-20)
(16.2964 0.490003 -1.29184e-20)
(16.4174 0.365692 0)
(16.5291 0.22921 -9.38038e-20)
(16.6259 0.0925167 4.03061e-21)
(16.7067 -0.036234 -1.92958e-19)
(16.7714 -0.150099 8.76401e-20)
(16.8232 -0.247149 1.24548e-19)
(16.8647 -0.326038 -2.02371e-19)
(16.8991 -0.395321 0)
(15.6069 0.80375 -3.11003e-19)
(15.6102 0.810271 9.90859e-24)
(15.6225 0.807356 8.33797e-20)
(15.6339 0.809605 0)
(15.6482 0.810448 0)
(15.6654 0.811357 3.95466e-22)
(15.6874 0.810608 1.86077e-19)
(15.7163 0.807253 0)
(15.7548 0.799512 7.53324e-20)
(15.8056 0.785094 0)
(15.8712 0.76007 0)
(15.9533 0.719754 -3.64409e-21)
(16.0506 0.658438 4.76907e-21)
(16.1594 0.572457 5.79153e-20)
(16.2725 0.460812 1.25057e-20)
(16.3817 0.329325 -2.20298e-20)
(16.48 0.18658 9.10522e-20)
(16.5634 0.0448465 0)
(16.6318 -0.087579 6.29668e-20)
(16.6858 -0.204175 0)
(16.7287 -0.303088 2.69957e-20)
(16.7635 -0.383222 3.7716e-20)
(16.7922 -0.453968 0)
(15.6068 0.803557 2.32453e-19)
(15.6103 0.810137 -3.27627e-20)
(15.6226 0.807115 0)
(15.6339 0.809297 6.41713e-20)
(15.6483 0.810012 -5.78642e-20)
(15.6654 0.810732 1.0283e-19)
(15.6873 0.809656 -9.30218e-20)
(15.7161 0.805742 -8.42827e-20)
(15.7543 0.797055 -7.4811e-20)
(15.8046 0.781094 -1.23519e-21)
(15.869 0.753651 1.62162e-21)
(15.9486 0.709778 9.83295e-20)
(16.0417 0.643647 5.84027e-21)
(16.1436 0.551817 -8.43637e-20)
(16.247 0.4339 1.20666e-20)
(16.344 0.296477 0)
(16.4287 0.148827 0)
(16.4985 0.00333095 0)
(16.5544 -0.131718 0)
(16.5977 -0.250252 -1.83137e-20)
(16.6319 -0.350471 -1.19831e-19)
(16.6599 -0.43149 1.18067e-19)
(16.683 -0.503445 0)
(15.6068 0.80337 -7.72745e-20)
(15.6103 0.810003 6.54131e-20)
(15.6226 0.806878 0)
(15.634 0.808992 -6.42087e-20)
(15.6483 0.809579 1.15655e-19)
(15.6654 0.810111 0)
(15.6873 0.808712 0)
(15.716 0.804247 8.38878e-20)
(15.7539 0.79463 0)
(15.8034 0.777164 -6.47219e-20)
(15.8665 0.747389 -5.87171e-20)
(15.9435 0.700151 -4.99678e-20)
(16.032 0.629587 7.95415e-20)
(16.1267 0.532567 0)
(16.22 0.409362 0)
(16.3046 0.267253 1.95756e-20)
(16.3756 0.116046 -2.56162e-20)
(16.4318 -0.0319475 0)
(16.4752 -0.168583 -2.46e-20)
(16.5077 -0.288266 1.83818e-20)
(16.5332 -0.389235 9.36082e-20)
(16.5544 -0.470782 -1.22978e-19)
(16.5717 -0.543682 0)
(15.6067 0.803188 7.42616e-24)
(15.6103 0.809871 -6.52045e-20)
(15.6226 0.806643 -2.21625e-23)
(15.634 0.808688 -3.18072e-20)
(15.6483 0.809148 -5.7791e-20)
(15.6655 0.809494 5.09441e-20)
(15.6873 0.807777 1.59985e-22)
(15.7158 0.802767 -4.21325e-20)
(15.7533 0.792239 7.56962e-20)
(15.8022 0.773308 6.50276e-20)
(15.8637 0.741297 5.71079e-20)
(15.938 0.690898 -4.83689e-20)
(16.0217 0.616298 -7.95614e-20)
(16.1089 0.514765 -8.49519e-21)
(16.1919 0.38727 1.11234e-20)
(16.2639 0.241725 1.82959e-20)
(16.3211 0.0883036 -2.39581e-20)
(16.3637 -0.0609269 0)
(16.3946 -0.198097 2.46818e-20)
(16.4164 -0.318118 0)
(16.4331 -0.419244 -1.11127e-20)
(16.4473 -0.500935 0)
(16.4587 -0.574478 -4.18171e-21)
(15.6067 0.803012 3.82283e-20)
(15.6103 0.80974 3.25317e-20)
(15.6226 0.806412 4.09947e-20)
(15.6341 0.808386 1.83647e-22)
(15.6484 0.808721 -9.95401e-23)
(15.6655 0.808882 4.19328e-24)
(15.6872 0.80685 -4.60744e-20)
(15.7155 0.801304 -1.62553e-22)
(15.7527 0.789882 -7.44774e-20)
(15.8008 0.769531 -1.20031e-21)
(15.8608 0.735383 5.73204e-20)
(15.9321 0.682037 0)
(16.0108 0.603813 -5.31232e-21)
(16.0903 0.498454 6.95268e-21)
(16.1628 0.367669 2.18953e-20)
(16.2222 0.219928 0)
(16.2658 0.0656273 0)
(16.2948 -0.0835672 -1.48938e-20)