/*--------------------------------*- C++ -*----------------------------------*\
  =========                 |
  \\      /  F ield         | OpenFOAM: The Open Source CFD Toolbox
   \\    /   O peration     | Website:  https://openfoam.org
    \\  /    A nd           | Version:  7
     \\/     M anipulation  |
\*---------------------------------------------------------------------------*/
FoamFile
{
    version     2.0;
    format      ascii;
    class       volScalarField;
    location    "69";
    object      yPlus;
}
// * * * * * * * * * * * * * * * * * * * * * * * * * * * * * * * * * * * * * //

dimensions      [0 0 0 0 0 0 0];

internalField   uniform 0;

boundaryField
{
    inlet
    {
        type            calculated;
        value           uniform 0;
    }
    outlet
    {
        type            calculated;
        value           uniform 0;
    }
    suction_side
    {
        type            calculated;
        value           nonuniform List<scalar> 
56
(
5.29738
5.66753
5.80677
6.2507
6.40033
7.0606
7.24729
8.30013
8.49201
10.3038
10.4722
13.9101
16.2209
26.7871
39.0197
47.3609
51.6551
51.128
48.5218
44.7415
40.9891
38.2886
37.7411
38.984
41.077
42.3934
42.9836
43.0973
42.8491
42.3701
41.7944
41.1468
40.4652
39.7791
39.1053
38.4491
37.8131
37.1875
36.57
35.9591
35.3477
34.7275
34.0874
33.4193
32.7135
31.9502
31.1101
30.1471
29.0542
27.9063
26.8199
25.7886
24.9281
23.9536
23.6356
22.5183
)
;
    }
    pressure_side
    {
        type            calculated;
        value           nonuniform List<scalar> 
56
(
27.5333
28.2614
28.5957
29.3821
29.9792
30.7295
31.4519
32.2285
32.9114
33.5005
34.0139
34.4716
34.8889
35.2755
35.6423
35.9928
36.3241
36.637
36.9313
37.2056
37.4643
37.7159
37.956
38.1626
38.3037
38.3396
38.2456
38.1223
38.142
38.4484
39.234
40.5641
42.2868
43.9741
45.3168
46.2509
46.5536
45.6818
43.4084
39.7883
34.7416
28.3896
20.8595
13.2199
10.5331
8.40508
6.13681
5.38557
4.56724
4.21601
4.01774
4.10029
4.27175
4.51761
4.73085
5.12937
)
;
    }
    trailing_edge
    {
        type            calculated;
        value           nonuniform List<scalar> 2(102.976 95.4772);
    }
    defaultFaces
    {
        type            empty;
    }
}


// ************************************************************************* //
