/*--------------------------------*- C++ -*----------------------------------*\
  =========                 |
  \\      /  F ield         | OpenFOAM: The Open Source CFD Toolbox
   \\    /   O peration     | Website:  https://openfoam.org
    \\  /    A nd           | Version:  7
     \\/     M anipulation  |
\*---------------------------------------------------------------------------*/
FoamFile
{
    version     2.0;
    format      ascii;
    class       volScalarField;
    location    "40";
    object      k;
}
// * * * * * * * * * * * * * * * * * * * * * * * * * * * * * * * * * * * * * //

dimensions      [0 2 -2 0 0 0 0];

internalField   nonuniform List<scalar> 
17475
(
0.00763365
0.0124983
0.0125514
0.0125508
0.0125506
0.0125505
0.0125505
0.0125505
0.0125504
0.0125502
0.0125503
0.0125506
0.0125503
0.0125503
0.0125505
0.0125503
0.0125503
0.0125505
0.0125503
0.0125502
0.0125509
0.012551
0.0125496
0.0125516
0.0125469
0.0125588
0.0125589
0.0125591
0.0125592
0.0125589
0.0125588
0.0125587
0.0125587
0.0125587
0.0125586
0.0125585
0.0125584
0.0125582
0.0125586
0.0125629
0.0125696
0.0125761
0.0125821
0.0125878
0.0125928
0.0125975
0.0126018
0.0126057
0.0126092
0.0126127
0.0126156
0.0126185
0.0126208
0.0126101
0.0120188
0.000246181
0.00440856
0.00528559
0.00530429
0.00529485
0.00529052
0.00528848
0.0052872
0.00528648
0.00528595
0.00528565
0.00528537
0.00528517
0.00528503
0.00528486
0.00528477
0.00528466
0.00528456
0.00528446
0.00528441
0.00528436
0.00528429
0.00528532
0.00528309
0.00528706
0.00529101
0.00529394
0.0052941
0.00529416
0.00529374
0.00529359
0.00529356
0.00529357
0.00529358
0.0052936
0.00529356
0.00529354
0.0052933
0.00529237
0.00529325
0.00529512
0.00529727
0.00529953
0.00530171
0.00530386
0.00530592
0.00530799
0.00531012
0.00531251
0.00531534
0.00531916
0.00532448
0.00532171
0.00502951
0.00162938
3.09426e-05
0.00184702
0.00307737
0.0031952
0.00318644
0.00317751
0.00317251
0.00316952
0.00316769
0.0031664
0.0031655
0.00316483
0.00316433
0.00316389
0.00316353
0.00316322
0.00316292
0.00316265
0.0031624
0.00316214
0.00316189
0.00316219
0.00316178
0.00316334
0.00316438
0.00316582
0.00316771
0.00316854
0.00316854
0.00316838
0.00316819
0.00316824
0.00316836
0.00316849
0.00316863
0.00316877
0.0031689
0.0031686
0.00316826
0.00316856
0.00316915
0.00316994
0.00317089
0.00317198
0.00317322
0.00317463
0.00317633
0.00317853
0.00318155
0.00318603
0.00319301
0.00320141
0.00315738
0.00249636
0.000283159
9.87461e-06
0.000849244
0.00201215
0.00223603
0.00224435
0.00223423
0.00222741
0.00222311
0.00222026
0.00221827
0.00221689
0.00221583
0.00221498
0.00221427
0.00221368
0.00221315
0.00221265
0.0022122
0.00221176
0.00221133
0.00221119
0.00221079
0.00221147
0.00221219
0.00221293
0.00221348
0.00221416
0.00221491
0.00221517
0.00221519
0.00221502
0.00221515
0.00221539
0.00221567
0.00221595
0.00221626
0.00221656
0.00221645
0.00221647
0.00221691
0.00221744
0.00221809
0.0022189
0.00221991
0.00222117
0.00222274
0.00222478
0.0022276
0.00223167
0.00223783
0.00224697
0.00224977
0.00213819
0.00133305
8.89971e-05
4.47285e-06
0.000439965
0.00138578
0.00168607
0.00171906
0.00171202
0.00170447
0.00169934
0.00169581
0.00169333
0.00169152
0.00169013
0.00168901
0.00168806
0.00168724
0.00168652
0.00168585
0.0016852
0.00168457
0.00168416
0.00168358
0.00168375
0.00168393
0.00168414
0.00168443
0.00168477
0.00168508
0.00168539
0.00168574
0.00168588
0.00168587
0.00168611
0.00168648
0.00168688
0.00168732
0.00168782
0.0016882
0.00168826
0.00168874
0.00168935
0.00169001
0.00169078
0.00169171
0.00169286
0.00169431
0.00169617
0.00169861
0.00170199
0.00170684
0.00171394
0.00172258
0.00171136
0.00153764
0.00077181
4.18886e-05
2.44899e-06
0.000256473
0.000987004
0.00132587
0.00138438
0.00138332
0.00137601
0.0013705
0.00136655
0.00136369
0.00136159
0.00135996
0.00135862
0.00135747
0.00135646
0.00135555
0.00135472
0.00135388
0.00135321
0.00135244
0.0013522
0.00135202
0.00135185
0.00135173
0.00135169
0.00135176
0.00135187
0.00135205
0.00135228
0.00135259
0.00135272
0.00135309
0.00135359
0.00135413
0.00135473
0.0013554
0.00135584
0.00135626
0.001357
0.00135779
0.00135862
0.00135954
0.00136062
0.00136193
0.0013636
0.00136575
0.00136851
0.00137225
0.00137753
0.00138465
0.00139016
0.00136189
0.00114486
0.000485728
2.44431e-05
1.51953e-06
0.000165013
0.000724459
0.0010701
0.00115129
0.00115767
0.00115175
0.00114622
0.00114205
0.00113895
0.00113667
0.00113486
0.00113333
0.00113202
0.00113085
0.00112977
0.00112878
0.00112788
0.00112689
0.00112625
0.00112576
0.00112532
0.00112488
0.0011245
0.00112421
0.00112409
0.00112398
0.00112404
0.00112427
0.00112468
0.00112501
0.00112544
0.00112606
0.00112676
0.00112752
0.00112835
0.00112894
0.00112967
0.00113061
0.00113157
0.00113257
0.00113364
0.00113487
0.00113634
0.00113818
0.00114058
0.00114355
0.0011474
0.00115266
0.0011593
0.00116024
0.00111518
0.000875234
0.000330246
1.60644e-05
1.03156e-06
0.000114813
0.000547732
0.000879433
0.000978988
0.000993193
0.000989441
0.00098419
0.00098002
0.000976861
0.000974437
0.000972499
0.000970785
0.000969281
0.000968021
0.000966791
0.000965661
0.000964494
0.000963552
0.000962679
0.000961939
0.000961268
0.000960575
0.00095993
0.000959413
0.00095914
0.000958884
0.000958835
0.000959029
0.000959503
0.000959999
0.000960523
0.00096128
0.000962173
0.000963128
0.000964068
0.000964875
0.000965898
0.000967035
0.000968151
0.000969308
0.000970518
0.000971902
0.000973517
0.000975498
0.000977986
0.000980946
0.000984818
0.000990019
0.000995458
0.0009911
0.000931479
0.000685218
0.000238336
1.12764e-05
7.47719e-07
8.45368e-05
0.000426072
0.000733142
0.000846413
0.000868217
0.000867208
0.000862505
0.000858431
0.000855235
0.000852798
0.000850787
0.000848887
0.000847185
0.00084587
0.000844461
0.000843028
0.000841885
0.000840655
0.000839469
0.000838455
0.000837535
0.00083654
0.000835615
0.000834971
0.000834532
0.000834075
0.000833912
0.000834094
0.000834701
0.000835355
0.000836029
0.000836934
0.000838048
0.000839192
0.000840258
0.000841381
0.000842652
0.000843913
0.000845172
0.000846522
0.000847815
0.000849264
0.000850985
0.000852986
0.00085549
0.00085853
0.000862321
0.000867196
0.000870928
0.000861135
0.000789294
0.000547915
0.000180672
8.42255e-06
5.6902e-07
6.49649e-05
0.000340301
0.000619026
0.000741481
0.000770283
0.000772379
0.000768617
0.000764559
0.000761293
0.000758964
0.000756901
0.000754907
0.000753053
0.000751699
0.000750102
0.000748546
0.000747166
0.000745501
0.000743931
0.000742647
0.000741542
0.000740259
0.000739023
0.000738144
0.000737432
0.000736699
0.00073645
0.000736725
0.000737479
0.000738302
0.000739153
0.000740198
0.00074155
0.000742866
0.000744209
0.000745704
0.000747122
0.000748365
0.000749783
0.000751331
0.000752668
0.000754114
0.000755805
0.000757795
0.000760469
0.000763585
0.000767073
0.000771375
0.000773376
0.000758572
0.000677931
0.000448723
0.000142653
6.59726e-06
4.49097e-07
5.16223e-05
0.000278381
0.000528986
0.000656503
0.000691659
0.000696822
0.000694215
0.000690215
0.000686816
0.000684601
0.000682756
0.000680894
0.000678847
0.000677353
0.000675811
0.000674052
0.000672473
0.000670433
0.000668384
0.000666731
0.000665408
0.000663916
0.000662492
0.000661335
0.000660305
0.000659183
0.000658845
0.000659217
0.000660034
0.000660983
0.000662051
0.000663379
0.000665061
0.000666462
0.000668238
0.00066987
0.000671334
0.000672588
0.000674128
0.000675688
0.000677073
0.000678471
0.000680066
0.000682366
0.000685192
0.000688378
0.000691501
0.000695113
0.000695103
0.000675898
0.000589094
0.000375197
0.000116157
5.34972e-06
3.65044e-07
4.21658e-05
0.000232635
0.000457305
0.000586465
0.000627434
0.000635269
0.000633699
0.000629872
0.000626544
0.000624598
0.000623166
0.000621356
0.000619052
0.000617432
0.00061587
0.000613805
0.000612046
0.000609646
0.000607305
0.000605502
0.000603766
0.00060195
0.00060042
0.000599152
0.000597788
0.000596424
0.000595929
0.000596184
0.000597136
0.000598237
0.000599606
0.000601217
0.00060316
0.000604816
0.000606839
0.000608731
0.000610154
0.000611322
0.000613001
0.000614688
0.000615934
0.000617044
0.000618874
0.000621653
0.000624637
0.000627875
0.000630506
0.000633116
0.000631344
0.000608113
0.000517321
0.000319649
9.70063e-05
4.46369e-06
3.04168e-07
3.5274e-05
0.000198078
0.000399721
0.000527835
0.000573957
0.000584075
0.000583824
0.000580015
0.000576389
0.000574872
0.000574373
0.000572488
0.000570064
0.000568401
0.000566495
0.000564208
0.000562285
0.000559684
0.000557369
0.000555529
0.000553209
0.000550839
0.000549628
0.000548711
0.000546688
0.000544976
0.000544693
0.000545209
0.000545958
0.000546982
0.000548782
0.00055058
0.000552596
0.000554575
0.000556688
0.000558844
0.000560369
0.000561434
0.000562513
0.000564215
0.000565649
0.000566984
0.000568738
0.000571493
0.000575124
0.000578297
0.000580332
0.000582191
0.000578792
0.000551775
0.000458576
0.000276694
8.26895e-05
3.81446e-06
2.58328e-07
3.00536e-05
0.000171364
0.000352964
0.000478754
0.000528234
0.000540232
0.000541109
0.00053749
0.00053459
0.000533303
0.000532808
0.000531061
0.000528821
0.000527064
0.000524733
0.000522302
0.000519882
0.00051715
0.000514617
0.000512496
0.00051015
0.000507848
0.000506677
0.000506212
0.000504407
0.000502365
0.000501528
0.000501943
0.000503009
0.000504511
0.000506163
0.00050795
0.000509932
0.000511956
0.00051409
0.000516279
0.000517779
0.000519026
0.000520369
0.000521985
0.000523586
0.000525009
0.000526492
0.000529165
0.000533102
0.000535883
0.000537839
0.000538757
0.000533614
0.00050368
0.000409771
0.000242333
7.14021e-05
3.28536e-06
2.22859e-07
2.59924e-05
0.000150204
0.000314393
0.00043455
0.000486461
0.000500606
0.000502142
0.000499096
0.000496287
0.00049535
0.000494977
0.000493396
0.000491333
0.000489408
0.000486989
0.000484392
0.000481696
0.000478822
0.000476197
0.00047393
0.000471839
0.000470157
0.000469643
0.000470633
0.000470629
0.000468981
0.000468332
0.000468509
0.000469136
0.000470092
0.00046961
0.000470463
0.00047223
0.000473853
0.000475824
0.000477886
0.000479686
0.000481303
0.000482687
0.000484303
0.000485987
0.000487467
0.000488989
0.000491443
0.000495026
0.000497672
0.000499357
0.00049958
0.000492663
0.000460347
0.000368326
0.000214864
6.25189e-05
2.86026e-06
1.94836e-07
2.27881e-05
0.00013309
0.00028198
0.00039548
0.00044867
0.000464431
0.000466669
0.000464064
0.00046157
0.000460836
0.000460494
0.000459069
0.000457134
0.0004551
0.00045272
0.00045016
0.000447359
0.000444493
0.000441992
0.00043986
0.000438777
0.000438991
0.000440829
0.000447183
0.000460321
0.000468726
0.000472961
0.00047155
0.0004644
0.000452774
0.00044141
0.000440333
0.000439654
0.000440267
0.000441813
0.000443601
0.000445543
0.00044732
0.000448699
0.000450187
0.00045195
0.000453516
0.000454984
0.000457258
0.000460512
0.000462942
0.000464255
0.00046376
0.000455518
0.000421422
0.000332364
0.000192206
5.52579e-05
2.51467e-06
1.70436e-07
2.01113e-05
0.000118896
0.000254212
0.000360772
0.000414203
0.00043123
0.000434085
0.000431845
0.000429668
0.000429119
0.000428812
0.000427529
0.000425688
0.00042362
0.000421437
0.000419068
0.000416338
0.000413744
0.000411673
0.000410344
0.000411329
0.000415459
0.000432527
0.000468066
0.000477679
0.000436823
0.000394667
0.000395899
0.000469065
0.000481191
0.000446136
0.000419779
0.00041318
0.000411435
0.000411667
0.000412972
0.000414748
0.000416522
0.000417874
0.000419128
0.000420931
0.000422613
0.000424143
0.000426293
0.000429169
0.000431242
0.000432161
0.000431102
0.000421897
0.000386893
0.000301785
0.000173546
4.93518e-05
2.23425e-06
1.33992e-07
1.73684e-05
0.000105715
0.000229651
0.000329325
0.000382576
0.000400579
0.000403977
0.000402074
0.000400187
0.000399846
0.000399596
0.00039837
0.000396601
0.000394632
0.000392787
0.000390681
0.000388205
0.000386142
0.000384565
0.000384638
0.000389382
0.000407081
0.00043803
0.000373059
0.00012736
2.18328e-06
1.18863e-05
0.000314548
0.000429811
0.000426131
0.000394749
0.000386409
0.000384964
0.000385345
0.000386688
0.000388469
0.000389756
0.000390874
0.000392763
0.000394523
0.000396094
0.00039812
0.000400608
0.000402227
0.000402697
0.000401201
0.000391429
0.000356101
0.000275585
0.000157758
4.4349e-05
1.99835e-06
4.95632e-08
1.22751e-05
9.00874e-05
0.000205153
0.000298892
0.000353046
0.000372199
0.000376208
0.000374715
0.00037306
0.000372874
0.000372664
0.00037143
0.000369746
0.000368022
0.000366554
0.000364634
0.000362488
0.000360698
0.000359893
0.000361931
0.000373334
0.000394506
0.000325129
8.84088e-05
3.77195e-07
0.000183833
0.00039524
0.000383812
0.000364813
0.000360402
0.000359944
0.000360876
0.000362641
0.000363926
0.000364864
0.000366813
0.000368632
0.00037023
0.000372162
0.000374313
0.000375481
0.000375526
0.000373787
0.000363905
0.000328516
0.0002534
0.000144451
3.95644e-05
1.65843e-06
6.75929e-08
1.31797e-05
8.46443e-05
0.000189202
0.000275899
0.000325961
0.000344887
0.000349127
0.000348083
0.000346518
0.000346109
0.000345865
0.000344335
0.000342527
0.00034125
0.000339788
0.000338273
0.000336898
0.000335349
0.000334687
0.000338752
0.000354402
0.000339451
0.000146898
1.00615e-05
4.55999e-05
0.00027415
0.000358261
0.00034195
0.000334511
0.000333904
0.000335246
0.000336498
0.000337589
0.000338623
0.000340501
0.000342467
0.000344297
0.000346447
0.000348432
0.000349083
0.000348544
0.000346873
0.000337536
0.00030423
0.000233105
0.000133842
3.80848e-05
1.85611e-06
9.73233e-08
1.29955e-05
8.07045e-05
0.000176575
0.000255058
0.000301582
0.000319867
0.000323897
0.000322953
0.000321484
0.000320932
0.000320373
0.000318804
0.000317192
0.000315995
0.000314639
0.000313602
0.000312553
0.000310533
0.000309657
0.000315284
0.000321995
0.000256314
7.30011e-05
4.50483e-06
7.33133e-08
3.26273e-07
2.26874e-05
0.000171184
0.000307004
0.000317379
0.00030889
0.000308092
0.000310288
0.00031134
0.000312251
0.000313299
0.000315302
0.000317171
0.00031901
0.000321412
0.000323301
0.000323895
0.000323288
0.000321727
0.000312652
0.000280703
0.000214914
0.000123497
3.49092e-05
1.59e-06
9.91177e-08
1.19649e-05
7.4476e-05
0.000162789
0.000234854
0.000278865
0.00029682
0.000300791
0.00029998
0.00029855
0.000297732
0.000296936
0.000295289
0.000293822
0.000292637
0.000291497
0.000290676
0.000289743
0.00028721
0.000286369
0.000291967
0.00028478
0.000191656
4.83377e-05
5.41316e-06
1.7405e-06
2.85288e-06
4.43048e-06
4.47552e-06
3.67381e-06
2.92204e-06
1.8254e-05
0.000114592
0.00025141
0.000289307
0.000285943
0.000284345
0.000286823
0.000288141
0.000288985
0.000290223
0.000292415
0.000294203
0.000295789
0.000298154
0.000300081
0.000300704
0.000300224
0.000298765
0.000289752
0.000259197
0.000198303
0.000114005
3.188e-05
1.42342e-06
9.17766e-08
1.09238e-05
6.82233e-05
0.000149812
0.000216386
0.00025811
0.000275696
0.000279604
0.000279031
0.000277693
0.000276659
0.000275765
0.000274091
0.000272505
0.000271097
0.000270181
0.000269697
0.000268832
0.000266277
0.000266176
0.000270021
0.000249292
0.000151077
4.03184e-05
8.05688e-06
1.06734e-05
2.23785e-05
3.17827e-05
3.23584e-05
2.36863e-05
1.15984e-05
1.88125e-05
8.67428e-05
0.000206991
0.00026221
0.000266253
0.000263934
0.000265671
0.000267066
0.000267886
0.000269262
0.000271629
0.000273323
0.00027457
0.000276673
0.000278638
0.000279388
0.000279197
0.000277747
0.000268543
0.000239272
0.000182961
0.000105089
2.90509e-05
1.28587e-06
8.35995e-08
9.94498e-06
6.24471e-05
0.000137853
0.000199503
0.00023907
0.000256191
0.000260131
0.000259863
0.000258711
0.000257743
0.000256456
0.000254819
0.000253237
0.000251635
0.000250995
0.00025078
0.000250104
0.000248111
0.000248989
0.000249595
0.000220022
0.00012901
4.02307e-05
1.27539e-05
1.75911e-05
3.13113e-05
4.32012e-05
4.81839e-05
4.33021e-05
2.86885e-05
2.37023e-05
7.55152e-05
0.000177472
0.000237324
0.00024765
0.000246285
0.000247169
0.000248218
0.000248996
0.000250471
0.00025295
0.000254575
0.000255408
0.000257136
0.000259118
0.000260033
0.000260102
0.000258476
0.000248927
0.000220903
0.000168764
9.67392e-05
2.645e-05
1.16464e-06
7.58509e-08
9.037e-06
5.71734e-05
0.000126809
0.000183685
0.00022116
0.000238008
0.000242181
0.000242389
0.000241754
0.000240975
0.000238924
0.000237318
0.000235983
0.000234026
0.000233741
0.000233937
0.000233679
0.000232139
0.000233438
0.000230547
0.000198892
0.000119857
4.5294e-05
1.97877e-05
2.17903e-05
3.58553e-05
5.19439e-05
6.19656e-05
5.87343e-05
4.56987e-05
3.36772e-05
7.19601e-05
0.00015709
0.000213836
0.00023029
0.000231008
0.000230726
0.000231255
0.000232169
0.000233842
0.000236193
0.000237533
0.000237831
0.000239241
0.00024137
0.000242144
0.000242512
0.000241014
0.000231069
0.000204112
0.000155688
8.8894e-05
2.40018e-05
1.05141e-06
6.87379e-08
8.20715e-06
5.23491e-05
0.000116588
0.00016885
0.000204322
0.000220882
0.000225378
0.000226337
0.000226723
0.000225971
0.000223188
0.000221659
0.00022054
0.000218217
0.000218362
0.000219086
0.000219365
0.000217939
0.000218928
0.000213324
0.000182669
0.000117381
5.48642e-05
3.16569e-05
3.03364e-05
4.51108e-05
6.62052e-05
8.13947e-05
7.56752e-05
5.84161e-05
4.62862e-05
7.73696e-05
0.000142868
0.000194806
0.000215717
0.000217079
0.000216256
0.000216373
0.000217635
0.000219362
0.000221354
0.000222374
0.000222066
0.00022317
0.000225233
0.000225898
0.000226632
0.000225367
0.00021494
0.000188947
0.000143895
8.1734e-05
2.17661e-05
9.41619e-07
6.22265e-08
7.44429e-06
4.78508e-05
0.000106984
0.000155054
0.000189011
0.000204895
0.000209913
0.000211803
0.000213271
0.000211658
0.000208307
0.000207268
0.000206654
0.00020374
0.000203515
0.000205401
0.000206599
0.000204967
0.000204355
0.0001971
0.000168007
0.000115783
7.03333e-05
5.14849e-05
4.72127e-05
6.37587e-05
9.1657e-05
0.000111133
9.6389e-05
7.02185e-05
6.22789e-05
9.18489e-05
0.000135594
0.000177377
0.000203009
0.000204312
0.000202376
0.000203159
0.000204731
0.000206035
0.000208024
0.000208573
0.000207853
0.000209054
0.000210744
0.00021149
0.000212319
0.00021091
0.000199994
0.000175028
0.000133101
7.51478e-05
1.96811e-05
8.37876e-07
5.61592e-08
6.72966e-06
4.35197e-05
9.78317e-05
0.000142385
0.000174693
0.000191346
0.000196498
0.000198453
0.000200184
0.000198875
0.000194771
0.000193455
0.000193929
0.000191136
0.000190155
0.000192571
0.000194379
0.000193266
0.000191125
0.000182291
0.00015434
0.000121809
9.50509e-05
8.61033e-05
7.96656e-05
0.000101718
0.000138861
0.000156474
0.000123682
8.72175e-05
8.58323e-05
0.000111909
0.000132039
0.000161834
0.000192938
0.000192483
0.000189652
0.000190827
0.000192638
0.000193441
0.000195756
0.000196256
0.000195132
0.000196243
0.000197637
0.000198415
0.000198896
0.000197082
0.000186009
0.000162196
0.00012325
6.90978e-05
1.78161e-05
7.47908e-07
5.0428e-08
6.05118e-06
3.9469e-05
8.93748e-05
0.000130494
0.000162187
0.000179331
0.000184122
0.000186211
0.000187884
0.00018724
0.000183296
0.000181286
0.000182306
0.000179545
0.000178818
0.000180641
0.000183059
0.00018315
0.000179603
0.00016714
0.000146213
0.000134987
0.000137173
0.000149992
0.000149537
0.000179613
0.000222418
0.000222605
0.000160195
0.000115151
0.000123977
0.000135191
0.000132873
0.0001564
0.000185286
0.000181843
0.000178706
0.000179648
0.000181435
0.000181342
0.000184384
0.000185044
0.00018351
0.000184098
0.000185667
0.000186598
0.000186304
0.000184314
0.000173186
0.000150361
0.000113925
6.34857e-05
1.61287e-05
6.69168e-07
4.53956e-08
5.46032e-06
3.59929e-05
8.18069e-05
0.000119543
0.000150341
0.000167939
0.000172392
0.000173479
0.000175984
0.00017624
0.000173402
0.00017018
0.000170576
0.000169308
0.000168781
0.000170505
0.000172973
0.000173513
0.00016674
0.000152829
0.000139535
0.000156396
0.000207456
0.000278313
0.000304573
0.000327622
0.000341281
0.000304559
0.00020823
0.00016954
0.00018489
0.00016417
0.00014294
0.000159546
0.00017733
0.000172646
0.000169194
0.000169395
0.000169979
0.000170092
0.00017369
0.000174056
0.000173002
0.00017353
0.000175541
0.000175834
0.000175082
0.000173232
0.000161593
0.000139687
0.000105482
5.83093e-05
1.45976e-05
5.99424e-07
4.11301e-08
4.95781e-06
3.29783e-05
7.5454e-05
0.000110535
0.000139184
0.000157666
0.000161541
0.000162744
0.000165069
0.000167039
0.000164504
0.000160619
0.000160427
0.000159619
0.000159349
0.000160067
0.000163045
0.000163672
0.000158323
0.000148767
0.000140144
0.000187069
0.000323417
0.000520813
0.000564977
0.000516656
0.000487982
0.000405633
0.000283102
0.000280769
0.000280194
0.000203294
0.000151183
0.000164147
0.000167526
0.000164035
0.000159847
0.000160106
0.000160378
0.00016064
0.000163777
0.000163407
0.000163474
0.000164071
0.000166522
0.000166279
0.000165499
0.000163506
0.000151314
0.0001299
9.79354e-05
5.36489e-05
1.32429e-05
5.38317e-07
3.73795e-08
4.51149e-06
3.02588e-05
6.9707e-05
0.000101584
0.000128923
0.000147737
0.000152089
0.000153156
0.000154729
0.00015799
0.000155319
0.000151744
0.000150942
0.000150667
0.000150835
0.000150005
0.000153895
0.00015545
0.000152318
0.000139636
0.000145765
0.000221936
0.000493756
0.000905884
0.000923418
0.000740615
0.000681277
0.000557489
0.000446541
0.000506756
0.000430432
0.000254143
0.000159825
0.000158248
0.000156904
0.000155296
0.000151528
0.000151607
0.000150497
0.000152716
0.000154809
0.00015351
0.000154312
0.000154932
0.000157225
0.000156909
0.000156634
0.000154476
0.000142031
0.00012104
9.12761e-05
4.95759e-05
1.20444e-05
4.85075e-07
3.42005e-08
4.13482e-06
2.786e-05
6.46541e-05
9.43121e-05
0.000120145
0.000137028
0.000141748
0.000144062
0.000145107
0.000148873
0.000147392
0.000145337
0.000141051
0.000138849
0.000142118
0.000141299
0.000146418
0.000147653
0.000148307
0.000135876
0.000143305
0.000252568
0.000686699
0.00140632
0.00130102
0.000981068
0.000929117
0.000811125
0.000814934
0.000898518
0.000647543
0.000312374
0.000163619
0.000150631
0.00014982
0.000147292
0.000144392
0.000143132
0.000140948
0.000144256
0.000145267
0.000144275
0.000145436
0.000146552
0.000147563
0.000147549
0.0001469
0.000144931
0.000133429
0.000112564
8.485e-05
4.56814e-05
1.09902e-05
4.39398e-07
3.11381e-08
3.7688e-06
2.56092e-05
6.02329e-05
8.88919e-05
0.000111396
0.000126911
0.000132194
0.00013183
0.000137103
0.000139855
0.000140206
0.000136856
0.000133468
0.000129876
0.000130147
0.000133879
0.000139607
0.000136248
0.000139966
0.000133501
0.000146013
0.000277858
0.000852384
0.00191217
0.00162541
0.00126611
0.00132327
0.00130766
0.00150853
0.00153544
0.000946057
0.000339969
0.000163291
0.000141483
0.000143394
0.000138941
0.000137426
0.000133977
0.000133983
0.000136619
0.000136356
0.000136286
0.000137651
0.000138577
0.000139158
0.000138934
0.000137726
0.000135684
0.000124518
0.000104816
7.89266e-05
4.20237e-05
1.00104e-05
3.9813e-07
2.84542e-08
3.44332e-06
2.32625e-05
5.59944e-05
8.12571e-05
0.00010179
0.000117459
0.000123349
0.000128081
0.000128682
0.000129517
0.000133825
0.000132121
0.000126661
0.000126306
0.000126327
0.000126464
0.000127952
0.000133007
0.000134249
0.000134445
0.000144453
0.000266271
0.000977117
0.00236306
0.00197269
0.0016525
0.00186905
0.00208124
0.00250531
0.00236619
0.00125136
0.000359072
0.000160641
0.000138463
0.00013611
0.000132058
0.000127756
0.000127839
0.000128884
0.0001299
0.000127626
0.000128964
0.000129426
0.00012952
0.000131856
0.000130867
0.000127328
0.000127121
0.000116599
9.76624e-05
7.29508e-05
3.89172e-05
9.12816e-06
3.61249e-07
2.61878e-08
3.16251e-06
2.17716e-05
5.31085e-05
7.7823e-05
9.54445e-05
0.000109645
0.000119535
0.00012419
0.000124838
0.000123064
0.000124133
0.000124954
0.000125161
0.000120357
0.000119087
0.000122279
0.000122638
0.000130077
0.000127864
0.000127335
0.0001425
0.00024431
0.000863386
0.00255676
0.00238434
0.00207914
0.00252007
0.00305975
0.00358376
0.00319188
0.00134388
0.000374679
0.00015948
0.000130204
0.000128355
0.000126259
0.000123793
0.000119613
0.000123597
0.000123296
0.000121513
0.000121319
0.000123111
0.00012423
0.000123645
0.000124566
0.000119091
0.000120381
0.000109235
9.10793e-05
6.87098e-05
3.628e-05
8.38386e-06
3.29583e-07
2.42574e-08
2.92512e-06
2.01711e-05
4.96755e-05
7.32723e-05
9.48134e-05
0.000102509
0.000115215
0.000121635
0.000118756
0.000118915
0.000119592
0.000122438
0.0001177
0.000115987
0.00011487
0.000116246
0.000118979
0.000123018
0.000124079
0.000124254
0.000142446
0.000220707
0.000720985
0.00240582
0.00276955
0.00245706
0.0030569
0.00391161
0.0044505
0.0034533
0.00146218
0.000398142
0.000161534
0.000133123
0.000121699
0.000119116
0.000117268
0.000114909
0.000117918
0.000115349
0.000115875
0.000115105
0.000116553
0.000121547
0.00011982
0.000115385
0.000117249
0.000113778
0.000101834
8.58893e-05
6.515e-05
3.41716e-05
7.83615e-06
3.05778e-07
2.37497e-08
2.86738e-06
2.08539e-05
5.01791e-05
7.17907e-05
8.81576e-05
9.96315e-05
0.000108615
0.000118631
0.000119371
0.000116409
0.000117199
0.000117194
0.000121217
0.000117517
0.000112196
0.000117575
0.000119337
0.000120488
0.000129581
0.000128072
0.000135659
0.000201911
0.000584463
0.00209557
0.00305113
0.00274707
0.00332171
0.00436702
0.00491281
0.00377474
0.00149593
0.000421633
0.000168761
0.000130923
0.000121683
0.000121099
0.00011773
0.000114096
0.000113539
0.000110788
0.000109787
0.000109499
0.000110823
0.000114384
0.000113193
0.00011205
0.000111803
0.000106787
9.39564e-05
8.09542e-05
6.17624e-05
3.2211e-05
7.45343e-06
2.88605e-07
2.40526e-08
2.87031e-06
2.01963e-05
4.93496e-05
7.36338e-05
8.8562e-05
9.69102e-05
0.000107489
0.000114631
0.000113232
0.000119377
0.000116015
0.000114575
0.000116705
0.000117981
0.00011449
0.000114996
0.00011292
0.000118636
0.000124643
0.000123147
0.000134103
0.000186245
0.000485217
0.00175968
0.00318381
0.00295279
0.00328725
0.0044257
0.00500577
0.00386986
0.00147426
0.000398981
0.000176895
0.000129548
0.000118376
0.000119235
0.000115787
0.000109801
0.00010764
0.000110499
0.000106605
0.000112203
0.000110995
0.000112572
0.00010734
0.000106055
0.000105001
9.92354e-05
8.89136e-05
7.71713e-05
5.93801e-05
3.12373e-05
7.05157e-06
2.75238e-07
2.45469e-08
2.89401e-06
2.04169e-05
5.44056e-05
7.26339e-05
8.60607e-05
9.97573e-05
0.000102237
0.000111757
0.00011765
0.00011507
0.000120474
0.000113231
0.000117502
0.000116366
0.000112683
0.000110256
0.00011694
0.000117081
0.000121142
0.000126207
0.000128424
0.000175944
0.000416411
0.00145841
0.00314312
0.00316387
0.00316525
0.00417231
0.00485424
0.0038274
0.00131747
0.000360311
0.00017379
0.000129827
0.000116613
0.000115917
0.00010938
0.000107128
0.000106002
0.000107352
0.000105503
0.00010709
0.000108239
0.000111596
0.000104848
0.000102648
0.000101558
9.96841e-05
8.72575e-05
7.34673e-05
5.66737e-05
2.929e-05
6.67554e-06
2.64176e-07
2.58726e-08
3.11163e-06
2.34859e-05
5.83436e-05
8.09134e-05
8.79773e-05
9.61447e-05
0.00010076
0.000106656
0.000111414
0.000116954
0.000116563
0.000113373
0.000113768
0.000112861
0.0001108
0.000111962
0.00011291
0.000111779
0.000115649
0.00012398
0.000130677
0.000166463
0.000367901
0.00121145
0.00295855
0.0033576
0.00302282
0.00368463
0.00437986
0.00341908
0.00112366
0.00032218
0.000168398
0.000123439
0.000116064
0.000111693
0.000106711
0.000105776
0.000107926
0.000105309
0.000105033
0.000105782
0.000105992
0.000106054
0.000107422
0.000106389
0.000104132
9.54683e-05
8.75453e-05
7.42552e-05
6.13709e-05
3.24287e-05
7.01538e-06
2.70788e-07
2.73265e-08
3.25192e-06
2.35727e-05
5.94134e-05
9.4881e-05
9.40285e-05
9.8148e-05
0.000100228
0.000104887
0.000109096
0.000115729
0.000114771
0.000117239
0.000112458
0.000111574
0.000119456
0.000111507
0.000111799
0.000109567
0.000116053
0.000117437
0.000125137
0.000162866
0.000333589
0.00102226
0.00266963
0.00349105
0.00290985
0.00313906
0.00377737
0.00288718
0.0009397
0.000288762
0.000160668
0.000123912
0.000120668
0.000110262
0.000106073
0.000105567
0.000110538
0.000103713
0.000104854
0.000111154
0.000104604
0.000107318
0.000113078
0.000106931
9.90892e-05
9.15222e-05
8.43017e-05
7.64592e-05
6.30147e-05
3.60089e-05
7.75991e-06
2.9609e-07
2.93746e-08
3.50272e-06
2.67145e-05
6.23203e-05
9.87301e-05
9.84388e-05
0.000107248
0.000107049
0.000106493
0.000112253
0.000114056
0.000115647
0.000122584
0.000118382
0.000111887
0.000114577
0.000113906
0.000119456
0.000117252
0.000114723
0.000116703
0.000122906
0.000158051
0.000310786
0.000881505
0.00232612
0.00337628
0.00289224
0.00271309
0.00319048
0.0023745
0.000753461
0.000260107
0.000152978
0.000123693
0.000115918
0.000110595
0.000106788
0.000106034
0.000107208
0.000104881
0.000107168
0.000107427
0.000104401
0.000115287
0.000111327
0.000104182
9.61033e-05
8.94248e-05
8.32424e-05
8.19796e-05
7.21232e-05
3.5582e-05
8.32622e-06
3.21035e-07
3.22383e-08
3.89811e-06
2.93234e-05
6.98453e-05
0.000102753
0.000103745
0.000111109
0.000110697
0.000110954
0.000112585
0.000115396
0.000123035
0.000118941
0.00011881
0.000113493
0.000119859
0.000113617
0.000115649
0.000113808
0.000113494
0.00011506
0.000121307
0.000151711
0.000295201
0.00077775
0.0019927
0.00302204
0.00274193
0.00237908
0.00267733
0.00193527
0.0006284
0.000236278
0.000151441
0.000122072
0.000116828
0.000121909
0.000119123
0.000107011
0.000106396
0.000105929
0.000108884
0.00011056
0.000107112
0.000109216
0.000108653
0.000103452
9.68608e-05
9.29326e-05
8.65017e-05
9.37065e-05
7.78824e-05
4.13575e-05
8.68762e-06
3.41198e-07
3.40332e-08
4.09085e-06
3.11795e-05
7.61607e-05
0.000103624
0.000109419
0.000114792
0.000111895
0.000111347
0.000113618
0.000116906
0.000120041
0.000127804
0.000121925
0.000120619
0.000116054
0.000113812
0.000122106
0.000120573
0.00012623
0.000120837
0.000127843
0.000155076
0.000283009
0.000700243
0.00170035
0.0025797
0.0024435
0.00207945
0.0022446
0.0015739
0.000533674
0.000220288
0.000143469
0.000121031
0.000120936
0.000116915
0.000113098
0.000108509
0.000107248
0.000107453
0.00010998
0.00011241
0.000108485
0.000108263
0.000108846
0.000106563
0.000100785
9.77108e-05
9.52029e-05
9.18463e-05
8.10929e-05
4.20661e-05
9.2821e-06
3.66106e-07
3.68207e-08
4.41617e-06
3.37833e-05
7.82155e-05
0.000108119
0.000114143
0.000125961
0.000125449
0.000120086
0.000118021
0.000120954
0.000124843
0.00012148
0.000123301
0.000120239
0.000114982
0.0001186
0.000117311
0.000120301
0.00012583
0.000120714
0.000128618
0.000152827
0.000277581
0.000640487
0.00145429
0.00214572
0.00207293
0.00179132
0.0018795
0.00128708
0.000463759
0.000206857
0.000144911
0.000127237
0.000122745
0.00012353
0.000113335
0.000110625
0.0001093
0.000110906
0.000111745
0.000121214
0.000112317
0.000108397
0.000108979
0.000106728
0.00010229
0.000104456