/*--------------------------------*- C++ -*----------------------------------*\
  =========                 |
  \\      /  F ield         | OpenFOAM: The Open Source CFD Toolbox
   \\    /   O peration     | Website:  https://openfoam.org
    \\  /    A nd           | Version:  7
     \\/     M anipulation  |
\*---------------------------------------------------------------------------*/
FoamFile
{
    version     2.0;
    format      ascii;
    class       volScalarField;
    location    "40";
    object      nut;
}
// * * * * * * * * * * * * * * * * * * * * * * * * * * * * * * * * * * * * * //

dimensions      [0 2 -1 0 0 0 0];

internalField   nonuniform List<scalar> 
17475
(
3.12041e-05
0.00018885
0.000188081
0.000188027
0.000188026
0.000188025
0.000188025
0.000188025
0.000188025
0.000188025
0.000188025
0.000188025
0.000188025
0.000188025
0.000188025
0.000188025
0.000188025
0.000188025
0.000188025
0.000188025
0.000188026
0.000188026
0.000188025
0.000188026
0.000188024
0.000188028
0.000188028
0.000188028
0.000188028
0.000188028
0.000188028
0.000188028
0.000188028
0.000188028
0.000188028
0.000188028
0.000188028
0.000188028
0.000188028
0.000188029
0.000188031
0.000188032
0.000188034
0.000188035
0.000188037
0.000188038
0.000188039
0.00018804
0.000188041
0.000188041
0.000188042
0.000188044
0.000188054
0.000188285
0.000150676
9.21862e-07
0.000115394
0.000172094
0.000176591
0.000176754
0.000176758
0.000176755
0.000176753
0.000176752
0.00017675
0.000176749
0.000176748
0.000176748
0.000176747
0.000176747
0.000176747
0.000176747
0.000176746
0.000176746
0.000176746
0.000176746
0.000176746
0.000176749
0.000176743
0.000176753
0.000176756
0.000176762
0.000176762
0.000176763
0.000176762
0.000176762
0.000176762
0.000176763
0.000176763
0.000176764
0.000176764
0.000176764
0.000176763
0.000176761
0.00017676
0.00017676
0.00017676
0.00017676
0.000176761
0.000176763
0.000176763
0.000176765
0.000176766
0.000176769
0.000176772
0.000176771
0.000176708
0.000175369
0.000153949
1.68118e-05
1.2019e-07
5.92314e-05
0.000151148
0.000168234
0.000169912
0.00017002
0.000170024
0.000170019
0.000170012
0.000170005
0.000170001
0.000169998
0.000169995
0.000169992
0.000169991
0.000169989
0.000169987
0.000169985
0.000169984
0.000169981
0.000169979
0.000169981
0.000169981
0.000169986
0.000169988
0.000169989
0.000169996
0.000169999
0.000169999
0.000169999
0.000169997
0.000169997
0.000169999
0.000170001
0.000170001
0.000170001
0.000170003
0.00017
0.000169998
0.000169997
0.000169997
0.000169993
0.00016999
0.000169992
0.000169995
0.000169997
0.000169999
0.000170003
0.000170009
0.000170015
0.000169977
0.000169343
0.000161171
0.000102854
3.0417e-06
3.86496e-08
3.04686e-05
0.000127852
0.000159107
0.00016478
0.000165357
0.000165416
0.000165415
0.0001654
0.000165385
0.000165378
0.000165371
0.000165365
0.000165356
0.000165353
0.000165348
0.000165342
0.000165338
0.000165334
0.000165327
0.000165324
0.000165324
0.00016533
0.000165331
0.000165334
0.000165335
0.000165337
0.000165342
0.000165342
0.000165338
0.000165335
0.000165336
0.000165341
0.000165347
0.000165347
0.000165348
0.000165352
0.000165349
0.000165347
0.000165349
0.000165351
0.000165344
0.000165341
0.000165348
0.000165359
0.000165366
0.000165371
0.000165379
0.000165386
0.000165376
0.000165151
0.000162509
0.000144072
6.4139e-05
1.07875e-06
1.75791e-08
1.70791e-05
0.000104958
0.000149005
0.000159925
0.000161725
0.00016195
0.000161971
0.000161951
0.000161934
0.000161928
0.000161919
0.000161908
0.00016189
0.000161885
0.000161879
0.00016187
0.000161857
0.000161851
0.000161844
0.000161836
0.000161837
0.000161837
0.000161833
0.000161845
0.000161848
0.000161843
0.000161842
0.000161837
0.000161827
0.000161828
0.000161833
0.000161847
0.000161855
0.000161858
0.000161865
0.000161867
0.00016186
0.000161863
0.000161869
0.000161874
0.000161871
0.000161875
0.000161888
0.000161906
0.000161923
0.000161931
0.00016194
0.000161935
0.000161855
0.00016106
0.000154847
0.000126134
4.19433e-05
5.5014e-07
9.64106e-09
1.05336e-05
8.50617e-05
0.000138736
0.000154757
0.000158573
0.000159163
0.000159248
0.000159227
0.000159202
0.000159206
0.000159202
0.00015919
0.000159166
0.000159157
0.000159144
0.000159138
0.000159109
0.0001591
0.000159096
0.000159088
0.000159079
0.000159062
0.000159054
0.000159084
0.000159088
0.000159064
0.000159035
0.000159015
0.000159015
0.000159033
0.000159052
0.000159076
0.000159084
0.00015909
0.000159118
0.000159117
0.000159103
0.000159114
0.000159126
0.00015913
0.000159135
0.000159143
0.000159157
0.000159181
0.000159219
0.000159227
0.00015923
0.000159195
0.000158931
0.000157003
0.000146701
0.000109103
2.91276e-05
3.33134e-07
5.98713e-09
7.05813e-06
6.90036e-05
0.000128516
0.000149337
0.000155609
0.000156875
0.000157101
0.000157058
0.000156998
0.000157025
0.000157037
0.000157013
0.000156995
0.000156992
0.000156958
0.000156968
0.000156936
0.000156897
0.00015686
0.000156848
0.000156846
0.000156798
0.000156803
0.000156824
0.000156813
0.000156764
0.000156695
0.00015667
0.000156712
0.000156758
0.000156797
0.000156828
0.000156836
0.000156834
0.00015691
0.000156934
0.000156898
0.000156904
0.000156916
0.000156925
0.000156918
0.000156901
0.000156913
0.000156944
0.000157051
0.000157069
0.000157021
0.000156921
0.000156309
0.000152718
0.000138599
9.41098e-05
2.13335e-05
2.23167e-07
4.06616e-09
5.05683e-06
5.64908e-05
0.000118689
0.000144222
0.000152992
0.000155266
0.000155742
0.000155692
0.000155645
0.000155706
0.000155733
0.000155626
0.000155548
0.000155588
0.000155522
0.000155542
0.000155475
0.000155352
0.000155213
0.000155177
0.000155218
0.00015512
0.000155092
0.000155045
0.000155023
0.000154928
0.000154807
0.000154817
0.00015497
0.000155023
0.000155033
0.000155077
0.000155114
0.000155112
0.00015523
0.000155274
0.000155221
0.000155229
0.00015524
0.000155262
0.000155231
0.000155198
0.000155189
0.000155245
0.000155456
0.000155481
0.000155354
0.000155131
0.000153949
0.00014848
0.000130882
8.14819e-05
1.62417e-05
1.57665e-07
2.94768e-09
3.80495e-06
4.68305e-05
0.000109528
0.000139855
0.000151135
0.00015478
0.000155594
0.000155602
0.000155554
0.000155679
0.000155825
0.000155605
0.000155407
0.000155566
0.000155421
0.00015531
0.000155033
0.000154695
0.000154401
0.000154307
0.000154405
0.000154303
0.000154178
0.000154121
0.000154046
0.000153726
0.000153472
0.000153532
0.000153964
0.000154123
0.000153986
0.000154051
0.000154184
0.00015425
0.000154396
0.000154382
0.000154288
0.000154281
0.000154347
0.000154369
0.000154176
0.000154106
0.000154119
0.000154336
0.000154622
0.000154583
0.000154378
0.000153938
0.000151922
0.00014472
0.000123751
7.09323e-05
1.28239e-05
1.18996e-07
2.2429e-09
2.97416e-06
3.9363e-05
0.000101166
0.000136225
0.000149866
0.000155412
0.000156881
0.000156521
0.000156241
0.000156703
0.000157032
0.000156778
0.000156363
0.000156561
0.000156268
0.000155877
0.000155733
0.000155068
0.000154494
0.000154336
0.000154344
0.000154158
0.000154139
0.000154243
0.000153964
0.000153415
0.000153061
0.000153162
0.000153772
0.000154037
0.00015392
0.000153951
0.000154092
0.000154105
0.000154358
0.000154486
0.000154285
0.00015398
0.000154122
0.000154487
0.000154058
0.000153705
0.000153635
0.000154029
0.000154843
0.000154979
0.00015416
0.000153258
0.00015053
0.00014178
0.000117519
6.25447e-05
1.04636e-05
9.4138e-08
1.76999e-09
2.39506e-06
3.3568e-05
9.36216e-05
0.000133013
0.000148668
0.000155892
0.000158057
0.000157753
0.000157318
0.000157779
0.000158505
0.000158645
0.000158027
0.00015806
0.000158056
0.000157599
0.000157382
0.000156404
0.000155551
0.000155204
0.00015516
0.000155013
0.000154687
0.000154908
0.000155152
0.000154398
0.000153937
0.000153993
0.000154452
0.000154818
0.000154666
0.000154634
0.000154917
0.000154756
0.000155067
0.000154817
0.000154754
0.000154367
0.000154546
0.000154722
0.000154405
0.000154112
0.000154169
0.000155166
0.000156085
0.000156159
0.000155073
0.000153442
0.000149479
0.000139761
0.000112178
5.5699e-05
8.74866e-06
7.70733e-08
1.43859e-09
1.97674e-06
2.90284e-05
8.66838e-05
0.000129809
0.000147959
0.000156277
0.000158655
0.000158527
0.000158148
0.000159206
0.000160478
0.000162147
0.000159629
0.000159577
0.000160388
0.000158065
0.000158823
0.000157494
0.000156723
0.000156846
0.000156239
0.000156269
0.000157295
0.000157608
0.000156997
0.000155182
0.000156552
0.000156895
0.000155062
0.000154848
0.000155863
0.000154916
0.000156393
0.000156544
0.000156634
0.000156921
0.00015685
0.000155561
0.000155426
0.000155685
0.000155665
0.000154877
0.00015488
0.000156332
0.000156895
0.000158275
0.000155818
0.000154185
0.00014893
0.00013724
0.000107046
5.00008e-05
7.46733e-06
6.49216e-08
1.19865e-09
1.66866e-06
2.54107e-05
8.02854e-05
0.000125626
0.000148771
0.000156821
0.000160987
0.00016021
0.000156684
0.000158345
0.000164078
0.000163841
0.000162918
0.000162646
0.000161422
0.000160127
0.000159959
0.00015945
0.000158684
0.000158494
0.000157913
0.000156732
0.000157216
0.00015941
0.000158401
0.000157413
0.000157714
0.000158213
0.000157616
0.000156986
0.000158201
0.000159151
0.000158997
0.000158787
0.00015894
0.000159666
0.000159118
0.000158014
0.000156928
0.000156861
0.000157203
0.00015764
0.000157529
0.000158135
0.000160855
0.000161539
0.00015929
0.000156262
0.000151453
0.000137599
0.000101563
4.50137e-05
6.47954e-06
5.60085e-08
1.01791e-09
1.43104e-06
2.24713e-05
7.41973e-05
0.000122236
0.000143179
0.000151056
0.000155365
0.000154868
0.000156314
0.000157937
0.000159126
0.000158878
0.000158516
0.00015789
0.000156141
0.000154944
0.000153139
0.000151727
0.000150523
0.000149771
0.000149128
0.000149027
0.00014951
0.000150865
0.00015109
0.000150387
0.000149469
0.000149485
0.000149625
0.000150004
0.000150482
0.000151179
0.000150996
0.000151135
0.000151305
0.000151685
0.000151836
0.000152554
0.000152654
0.000152699
0.000153386
0.000154021
0.000153693
0.000154065
0.00015636
0.000155452
0.000154094
0.000151198
0.000145075
0.000131134
9.58843e-05
4.05991e-05
5.66259e-06
4.83655e-08
8.78106e-10
1.2437e-06
2.00619e-05
6.86561e-05
0.000112025
0.000133423
0.000142698
0.000146072
0.000146672
0.000146925
0.000148166
0.000148892
0.000148693
0.000148156
0.000147236
0.000146136
0.00014466
0.000142722
0.000141054
0.000139701
0.000138559
0.000137737
0.000137448
0.000137737
0.000138539
0.000139514
0.000139339
0.000139072
0.000139052
0.000138803
0.000138649
0.000138506
0.000138443
0.000139414
0.000139964
0.000140508
0.000140858
0.000141632
0.000143096
0.000143547
0.000143946
0.000144727
0.000145215
0.000145444
0.000145616
0.000146235
0.000146018
0.000144939
0.000142197
0.000135441
0.000121245
8.78579e-05
3.66556e-05
5.00477e-06
4.21532e-08
7.67582e-10
1.09582e-06
1.79777e-05
6.24298e-05
0.000103752
0.000124832
0.000133623
0.000137211
0.000137845
0.000138214
0.000138995
0.000139336
0.000139039
0.000138421
0.000137414
0.000136437
0.00013504
0.000132763
0.000130796
0.000129174
0.000127462
0.000126341
0.000125382
0.000124657
0.000125686
0.000129295
0.000110732
0.000104234
0.000106348
0.000118577
0.000127553
0.000125796
0.000126104
0.000126669
0.000127983
0.000129665
0.000130561
0.000131778
0.000133583
0.000134225
0.000134537
0.000135306
0.000135932
0.000136125
0.000136394
0.000137006
0.000136921
0.000135879
0.000132947
0.000126418
0.000112419
8.03457e-05
3.35382e-05
4.45228e-06
3.70688e-08
6.67037e-10
9.68029e-07
1.62381e-05
5.68318e-05
9.61545e-05
0.000116376
0.00012505
0.000128672
0.000129338
0.00012957
0.000130014
0.00013005
0.000129612
0.00012889
0.000127852
0.000127013
0.000125638
0.000123014
0.000121018
0.000118555
0.000115538
0.000114131
0.000111923
0.000112275
9.85116e-05
6.98678e-05
4.54432e-05
2.39166e-05
2.41083e-05
5.88628e-05
8.33083e-05
0.000118168
0.000112565
0.000113168
0.000115555
0.00011789
0.000119741
0.00012201
0.000124368
0.000125317
0.000125679
0.000126529
0.000127124
0.000127419
0.000127787
0.000128282
0.000128215
0.000127276
0.00012443
0.000117989
0.000104313
7.3852e-05
3.05153e-05
3.99831e-06
3.29416e-08
4.83026e-10
8.20606e-07
1.43321e-05
5.15916e-05
8.84677e-05
0.000108148
0.000116735
0.000120384
0.000121041
0.00012105
0.000121179
0.000121001
0.000120422
0.000119604
0.000118668
0.000117874
0.000116058
0.000113368
0.00011081
0.000107831
0.000104731
0.000102504
0.00010258
9.33589e-05
3.22495e-05
1.66263e-06
1.43182e-09
1.38025e-08
1.24414e-05
4.13278e-05
0.0001024
0.000101678
0.000103637
0.000106542
0.000109639
0.000112284
0.000114796
0.000116437
0.000116913
0.000117917
0.000118622
0.000119068
0.000119469
0.000119894
0.000119844
0.000118992
0.000116335
0.000110144
9.67659e-05
6.81107e-05
2.78543e-05
3.60506e-06
2.94576e-08
1.17034e-10
4.87752e-07
1.17628e-05
4.56557e-05
8.00135e-05
9.88987e-05
0.000107367
0.000110905
0.000111478
0.000111144
0.0001109
0.000110574
0.000109855
0.000108969
0.000108041
0.00010715
0.000105051
0.000102297
9.93304e-05
9.60885e-05
9.33084e-05
9.27838e-05
8.09033e-05
2.35729e-05
1.33038e-06
2.02408e-10
5.44773e-06
5.89149e-05
8.76935e-05
9.16713e-05
9.4952e-05
9.84179e-05
0.000101706
0.000104507
0.000106131
0.000106837
0.000108038
0.000108938
0.000109518
0.000109898
0.000110263
0.000110284
0.000109587
0.000107244
0.000101519
8.87366e-05
6.27654e-05
2.57855e-05
3.23769e-06
2.46002e-08
1.5991e-10
5.8452e-07
1.10694e-05
4.0888e-05
6.9912e-05
8.55671e-05
9.31644e-05
9.59032e-05
9.60067e-05
9.55512e-05
9.48952e-05
9.43893e-05
9.39185e-05
9.25973e-05
9.15104e-05
8.99715e-05
8.86007e-05
8.7017e-05
8.40624e-05
8.04778e-05
7.84742e-05
7.43007e-05
4.86866e-05
6.56776e-06
1.10242e-07
1.04073e-06
2.38308e-05
6.74934e-05
7.6674e-05
7.89324e-05
8.18945e-05
8.56357e-05
8.7601e-05
8.86836e-05
8.97713e-05
9.12081e-05
9.24192e-05
9.33284e-05
9.42293e-05
9.49214e-05
9.53551e-05
9.48876e-05
9.33575e-05
8.87949e-05
7.76291e-05
5.51163e-05
2.33909e-05
3.17709e-06
2.78012e-08
3.48354e-10
5.97313e-07
1.08868e-05
3.83025e-05
6.38752e-05
7.83233e-05
8.51687e-05
8.78591e-05
8.78977e-05
8.7161e-05
8.69074e-05
8.63406e-05
8.53735e-05
8.43369e-05
8.30381e-05
8.13758e-05
8.05811e-05
7.92311e-05
7.58575e-05
7.2816e-05
7.06293e-05
6.19892e-05
2.9842e-05
3.5479e-06
1.33075e-07
3.59458e-10
4.11797e-09
7.87121e-07
1.30812e-05
4.85559e-05
6.77318e-05
7.10749e-05
7.3646e-05
7.71907e-05
7.86096e-05
8.0239e-05
8.09693e-05
8.21586e-05
8.3794e-05
8.51677e-05
8.63063e-05
8.71709e-05
8.73547e-05
8.68761e-05
8.55587e-05
8.14168e-05
7.11756e-05
5.05143e-05
2.14757e-05
2.88575e-06
2.34537e-08
3.87644e-10
5.69779e-07
1.01238e-05
3.53158e-05
5.85273e-05
7.19489e-05
7.84633e-05
8.08782e-05
8.09802e-05
8.04831e-05
8.01103e-05
7.93259e-05
7.82667e-05
7.73217e-05
7.6166e-05
7.48337e-05
7.37958e-05
7.26991e-05
6.96538e-05
6.65127e-05
6.41331e-05
5.32211e-05
2.18416e-05
2.92657e-06
3.26896e-07
1.16209e-07
1.19939e-07
1.59036e-07
1.61863e-07
2.28327e-07
2.0628e-07
9.9523e-07
9.15481e-06
3.79379e-05
5.98825e-05
6.50132e-05
6.76355e-05
7.08981e-05
7.24706e-05
7.33469e-05
7.4005e-05
7.54833e-05
7.7093e-05
7.83506e-05
7.96065e-05
8.06461e-05
8.08777e-05
8.03097e-05
7.90669e-05
7.51412e-05
6.54427e-05
4.62444e-05
1.97794e-05
2.61214e-06
2.09674e-08
3.61495e-10
5.26352e-07
9.2627e-06
3.2385e-05
5.37469e-05
6.64685e-05
7.28281e-05
7.505e-05
7.52519e-05
7.4712e-05
7.41213e-05
7.36556e-05
7.2598e-05
7.1436e-05
7.01621e-05
6.8828e-05
6.80442e-05
6.70695e-05
6.45346e-05
6.18056e-05
5.89456e-05
4.59218e-05
1.8059e-05
3.11467e-06
7.38091e-07
1.72875e-06
5.13452e-06
8.24464e-06
8.25425e-06
5.0877e-06
1.49493e-06
1.43707e-06
7.90498e-06
3.11288e-05
5.37211e-05
6.03235e-05
6.2636e-05
6.52765e-05
6.69531e-05
6.7863e-05
6.86619e-05
6.99116e-05
7.12914e-05
7.26246e-05
7.39026e-05
7.49644e-05
7.51944e-05
7.46364e-05
7.344e-05
6.95837e-05
6.0305e-05
4.25686e-05
1.8183e-05
2.36904e-06
1.8944e-08
3.2933e-10
4.8014e-07
8.46705e-06
2.96542e-05
4.94187e-05
6.14338e-05
6.74624e-05
6.96014e-05
6.99036e-05
6.94183e-05
6.89065e-05
6.8429e-05
6.74325e-05
6.62211e-05
6.49272e-05
6.37509e-05
6.30391e-05
6.21833e-05
6.01964e-05
5.81598e-05
5.47686e-05
4.07022e-05
1.70557e-05
3.85674e-06
1.46017e-06
3.42034e-06
8.16396e-06
1.29204e-05
1.41173e-05
1.0345e-05
4.56745e-06
2.31892e-06
8.13725e-06
2.79444e-05
4.89902e-05
5.64688e-05
5.87191e-05
6.06859e-05
6.21626e-05
6.30096e-05
6.38225e-05
6.50137e-05
6.63327e-05
6.75286e-05
6.87717e-05
6.98333e-05
7.00234e-05
6.94449e-05
6.8195e-05
6.44571e-05
5.56436e-05
3.91546e-05
1.66793e-05
2.15264e-06
1.71669e-08
2.98842e-10
4.36296e-07
7.7331e-06
2.71261e-05
4.52955e-05
5.65593e-05
6.21314e-05
6.41845e-05
6.48424e-05
6.46081e-05
6.4199e-05
6.35517e-05
6.25826e-05
6.14641e-05
6.01794e-05
5.91778e-05
5.86402e-05
5.80078e-05
5.64151e-05
5.4876e-05
5.13903e-05
3.97301e-05
1.77461e-05
5.19872e-06
2.53877e-06
4.10409e-06
8.40838e-06
1.47626e-05
1.71565e-05
1.29462e-05
7.51296e-06
3.86384e-06
9.20372e-06
2.68092e-05
4.51878e-05
5.29271e-05
5.52704e-05
5.67065e-05
5.7825e-05
5.87257e-05
5.95292e-05
6.05517e-05
6.18505e-05
6.28462e-05
6.40168e-05
6.50309e-05
6.50934e-05
6.45805e-05
6.34181e-05
5.97438e-05
5.13315e-05
3.60072e-05
1.52623e-05
1.94934e-06
1.54958e-08
2.70875e-10
3.9611e-07
7.0541e-06
2.47114e-05
4.13005e-05
5.1774e-05
5.67222e-05
5.90838e-05
5.99009e-05
5.98898e-05
5.92179e-05
5.85465e-05
5.77819e-05
5.68993e-05
5.55008e-05
5.41655e-05
5.42249e-05
5.42109e-05
5.28247e-05
5.15572e-05
4.80917e-05
3.7581e-05
1.93332e-05
7.33854e-06
4.33442e-06
5.50423e-06
9.97491e-06
1.81939e-05
2.14303e-05
1.56731e-05
9.23996e-06
6.00961e-06
1.1578e-05
2.6546e-05
4.21617e-05
4.98182e-05
5.20472e-05
5.31196e-05
5.37458e-05
5.48336e-05
5.56179e-05
5.63511e-05
5.74528e-05
5.79437e-05
5.93154e-05
6.03819e-05
6.03987e-05
5.99013e-05
5.88118e-05
5.52469e-05
4.72232e-05
3.30808e-05
1.3966e-05
1.76344e-06
1.3809e-08
2.45267e-10
3.59271e-07
6.41841e-06
2.2413e-05
3.74336e-05
4.72853e-05
5.18295e-05
5.42239e-05
5.51221e-05
5.54129e-05
5.43202e-05
5.35359e-05
5.27199e-05
5.22223e-05
5.12389e-05
4.95194e-05
5.01555e-05
5.05801e-05
4.93809e-05
4.77911e-05
4.45503e-05
3.47506e-05
2.08192e-05
1.07535e-05
7.59136e-06
8.07428e-06
1.31778e-05
2.43151e-05
2.75855e-05
1.83729e-05
1.07622e-05
9.16365e-06
1.57018e-05
2.76881e-05
3.90091e-05
4.69354e-05
4.84864e-05
4.90263e-05
4.98605e-05
5.11089e-05
5.1602e-05
5.24163e-05
5.32533e-05
5.33213e-05
5.50147e-05
5.57145e-05
5.57272e-05
5.51452e-05
5.4062e-05
5.08305e-05
4.32857e-05
3.03315e-05
1.27602e-05
1.58779e-06
1.22022e-08
2.21384e-10
3.24931e-07
5.80583e-06
2.0281e-05
3.37488e-05
4.08819e-05
4.6618e-05
4.9926e-05
5.0859e-05
5.10221e-05
4.91413e-05
4.93574e-05
4.91057e-05
4.89963e-05
4.77691e-05
4.69394e-05
4.57007e-05
4.73677e-05
4.66103e-05
4.47143e-05
4.02464e-05
3.24755e-05
2.35123e-05
1.63015e-05
1.37428e-05
1.3267e-05
2.01307e-05
3.6236e-05
3.69501e-05
2.21085e-05
1.3957e-05
1.43149e-05
2.13981e-05
2.7782e-05
3.52799e-05
4.33271e-05
4.55468e-05
4.56332e-05
4.4715e-05
4.52223e-05
4.8102e-05
4.95375e-05
5.0261e-05
5.02407e-05
5.11656e-05
5.00725e-05
5.13885e-05
5.07648e-05
4.97791e-05
4.616e-05
3.95333e-05
2.77832e-05
1.15862e-05
1.43255e-06
1.08244e-08
1.98854e-10
2.92456e-07
5.27056e-06
1.81537e-05
3.02467e-05
3.9109e-05
4.41392e-05
4.62581e-05
4.85271e-05
4.71395e-05
4.72137e-05
4.55703e-05
4.49719e-05
4.68768e-05
4.45206e-05
4.53457e-05
4.52896e-05
4.51254e-05
4.46228e-05
4.20867e-05
3.84144e-05
3.18374e-05
2.76431e-05
2.61024e-05
2.6336e-05
2.59089e-05
3.51109e-05
5.77791e-05
5.12116e-05
2.85835e-05
1.98768e-05
2.30149e-05
2.74881e-05
2.87461e-05
3.42718e-05
4.27589e-05
4.28213e-05
4.36136e-05
4.38253e-05
4.40081e-05
4.45785e-05
4.70078e-05
4.80595e-05
4.69863e-05
4.75214e-05
4.90487e-05
4.71172e-05
4.68203e-05
4.64289e-05
4.27391e-05
3.60842e-05
2.51435e-05
1.0674e-05
1.29378e-06
9.63162e-09
1.79063e-10
2.64291e-07
4.82624e-06
1.6903e-05
2.81489e-05
3.65486e-05
4.22068e-05
4.5009e-05
4.48259e-05
4.61083e-05
4.52452e-05
4.46386e-05
4.36495e-05
4.35127e-05
4.36314e-05
4.3504e-05
4.36692e-05
4.37926e-05
4.33401e-05
4.14762e-05
3.69698e-05
3.22797e-05
3.46379e-05
4.33165e-05
5.39608e-05
5.62478e-05
6.55377e-05
8.96834e-05
6.93618e-05
3.90646e-05
3.21952e-05
3.79209e-05
3.5534e-05
3.15484e-05
3.70235e-05
4.18653e-05
4.28566e-05
4.21294e-05
4.30688e-05
4.34754e-05
4.38664e-05
4.50261e-05
4.59772e-05
4.69039e-05
4.7119e-05
4.72201e-05
4.58508e-05
4.55345e-05
4.57283e-05
4.07933e-05
3.4988e-05
2.37963e-05
9.79e-06
1.17069e-06
8.58826e-09
1.62301e-10
2.40446e-07
4.45303e-06
1.61486e-05
2.73649e-05
3.60374e-05
4.18254e-05
4.33898e-05
4.44022e-05
4.51432e-05
4.58875e-05
4.48086e-05
4.37198e-05
4.32924e-05
4.27868e-05
4.15212e-05
4.14212e-05
4.15335e-05
4.15468e-05
4.00028e-05
3.71825e-05
3.49388e-05
4.57571e-05
7.43677e-05
0.000110686
0.000112178
0.000108258
0.000130872
9.38115e-05
5.67545e-05
5.82369e-05
6.26626e-05
4.73594e-05
3.57396e-05
3.91364e-05
4.14683e-05
4.15755e-05
4.03223e-05
4.16858e-05
4.21684e-05
4.24592e-05
4.36037e-05
4.40473e-05
4.46594e-05
4.54015e-05
4.57498e-05
4.61583e-05
4.53903e-05
4.39429e-05
4.01961e-05
3.32713e-05
2.28913e-05
9.08751e-06
1.06276e-06
7.68196e-09
1.47531e-10
2.19255e-07
4.09867e-06
1.51548e-05
2.62197e-05
3.46062e-05
4.05098e-05
4.18849e-05
4.24087e-05
4.33468e-05
4.4298e-05
4.32746e-05
4.21808e-05
4.17573e-05
4.12997e-05
4.02442e-05
3.93633e-05
4.02102e-05
4.04467e-05
3.93509e-05
3.59917e-05
3.71772e-05
5.60982e-05
0.000121649
0.000206032
0.000196399
0.000165124
0.000189522
0.000134251
9.61336e-05
0.000113649
0.000102324
6.40542e-05
4.00069e-05
4.10252e-05
3.97832e-05
4.02632e-05
4.01132e-05
4.00832e-05
4.00694e-05
4.09976e-05
4.18996e-05
4.19188e-05
4.26167e-05
4.31795e-05
4.39428e-05
4.39917e-05
4.35334e-05
4.21585e-05
3.81359e-05
3.14914e-05
2.16406e-05
8.48055e-06
9.67817e-07
6.89938e-09
1.35023e-10
2.01436e-07
3.78972e-06
1.41009e-05
2.45746e-05
3.2771e-05
3.80381e-05
3.97543e-05
4.06114e-05
4.10865e-05
4.21408e-05
4.14305e-05
4.06558e-05
3.93106e-05
3.84856e-05
3.87846e-05
3.78454e-05
3.92032e-05
3.93385e-05
3.94339e-05
3.58393e-05
3.73912e-05
6.54259e-05
0.00017028
0.00033698
0.000295566
0.000233486
0.000270523
0.000205289
0.000187399
0.000214604
0.000164602
8.08879e-05
4.34941e-05
4.02264e-05
4.01248e-05
3.91744e-05
3.88934e-05
3.86467e-05
3.82453e-05
3.94144e-05
3.99244e-05
3.99323e-05
4.06274e-05
4.12489e-05
4.16916e-05
4.15936e-05
4.10846e-05
4.01089e-05
3.6298e-05
2.97292e-05
2.0284e-05
7.84538e-06
8.84578e-07
6.23177e-09
1.22967e-10
1.84087e-07
3.49926e-06
1.32103e-05
2.32889e-05
3.06394e-05
3.55896e-05
3.75489e-05
3.76378e-05
3.92356e-05
3.99747e-05
3.98555e-05
3.86945e-05
3.76064e-05
3.64689e-05
3.62525e-05
3.69015e-05
3.83097e-05
3.7161e-05
3.79116e-05
3.5885e-05
3.89131e-05
7.31318e-05
0.000219794
0.000485911
0.000389675
0.000320753
0.000403846
0.000347706
0.000366529
0.00038226
0.000245976
9.04101e-05
4.40054e-05
3.8427e-05
3.92457e-05
3.81447e-05
3.79049e-05
3.70529e-05
3.71841e-05
3.80409e-05
3.80391e-05
3.81835e-05
3.88355e-05
3.93215e-05
3.95942e-05
3.94471e-05
3.88484e-05
3.7907e-05
3.42179e-05
2.8035e-05
1.90231e-05
7.24469e-06
8.07485e-07
5.633e-09
1.12399e-10
1.68636e-07
3.19374e-06
1.23473e-05
2.14444e-05
2.82312e-05
3.32211e-05
3.53323e-05
3.68801e-05
3.71287e-05
3.72984e-05
3.83439e-05
3.76673e-05
3.6003e-05
3.58178e-05
3.56966e-05
3.55689e-05
3.58135e-05
3.69454e-05
3.68432e-05
3.66004e-05
3.91737e-05
7.18724e-05
0.000264093
0.000613211
0.000499555
0.000442942
0.000588006
0.000582325
0.000639823
0.0006166
0.000335249
9.79852e-05
4.43995e-05
3.85228e-05
3.79673e-05
3.6913e-05
3.58218e-05
3.59293e-05
3.63101e-05
3.66703e-05
3.60581e-05
3.65123e-05
3.67925e-05
3.69668e-05
3.77129e-05
3.73705e-05
3.61673e-05
3.57798e-05
3.23181e-05
2.63592e-05
1.77128e-05
6.74026e-06
7.38196e-07
5.10082e-09
1.0348e-10
1.553e-07
3.00366e-06
1.17723e-05
2.06672e-05
2.66515e-05
3.12058e-05
3.44298e-05
3.59642e-05
3.62242e-05
3.56236e-05
3.5748e-05
3.58422e-05
3.58401e-05
3.44252e-05
3.40087e-05
3.48182e-05
3.47957e-05
3.67151e-05
3.58046e-05
3.54476e-05
3.94147e-05
6.72122e-05
0.000239094
0.000698405
0.000625531
0.000582558
0.000814045
0.000902077
0.000954088
0.000854179
0.000368262
0.000104313
4.47937e-05
3.67341e-05
3.62831e-05
3.57415e-05
3.51194e-05
3.39966e-05
3.52157e-05
3.51915e-05
3.46935e-05
3.46507e-05
3.51971e-05
3.55948e-05
3.54948e-05
3.57404e-05
3.40308e-05
3.40964e-05
3.04876e-05
2.47665e-05
1.67849e-05
6.31348e-06
6.79948e-07
4.64532e-09
9.58895e-11
1.44049e-07
2.79738e-06
1.10706e-05
1.95731e-05
2.66347e-05
2.93272e-05
3.3328e-05
3.53689e-05
3.46008e-05
3.45608e-05
3.45898e-05
3.53156e-05
3.39315e-05
3.34405e-05
3.31115e-05
3.34434e-05
3.41229e-05
3.51349e-05
3.52638e-05
3.51725e-05
4.01504e-05
6.21005e-05
0.00020332
0.00066863
0.000759512
0.000716304
0.00100308
0.00118245
0.00124124
0.000964077
0.000409516
0.000112603
4.59467e-05
3.79663e-05
3.47495e-05
3.4076e-05
3.35963e-05
3.29638e-05
3.38972e-05
3.32029e-05
3.33514e-05
3.3097e-05
3.34804e-05
3.49338e-05
3.45031e-05
3.32536e-05
3.36932e-05
3.24067e-05
2.8585e-05
2.34971e-05
1.59997e-05
5.97614e-06
6.37503e-07
4.30355e-09
9.39182e-11
1.4159e-07
2.90801e-06
1.12474e-05
1.92907e-05
2.49118e-05
2.86508e-05
3.15535e-05
3.46276e-05
3.49091e-05
3.39758e-05
3.40732e-05
3.40047e-05
3.51694e-05
3.41265e-05
3.26051e-05
3.41241e-05
3.45427e-05
3.47516e-05
3.72399e-05
3.6723e-05
3.88826e-05
5.79968e-05
0.000167888
0.00059441
0.000855787
0.000819434
0.00110267
0.00135324
0.00140629
0.00107474
0.000428582
0.000120979
4.8503e-05
3.76707e-05
3.50579e-05
3.49584e-05
3.40158e-05
3.29987e-05
3.28894e-05
3.21158e-05
3.17969e-05
3.16477e-05
3.19635e-05
3.29825e-05
3.27056e-05
3.24383e-05
3.2302e-05
3.05733e-05
2.65047e-05
2.22587e-05
1.52426e-05
5.66147e-06
6.08178e-07
4.05606e-09
9.51459e-11
1.4211e-07
2.83229e-06
1.11267e-05
1.99015e-05
2.51735e-05
2.80209e-05
3.13855e-05
3.36133e-05
3.32544e-05
3.50152e-05
3.39368e-05
3.34633e-05
3.40688e-05
3.44748e-05
3.34961e-05
3.3611e-05
3.29251e-05
3.44948e-05
3.61476e-05
3.56724e-05
3.89293e-05
5.42642e-05
0.000141351
0.00050826
0.000914552
0.000900309
0.00109901
0.00139747
0.0014694
0.00112649
0.000430018
0.000115939
5.13258e-05
3.75899e-05
3.43602e-05
3.46568e-05
3.36883e-05
3.19789e-05
3.13944e-05
3.22376e-05
3.10421e-05
3.25721e-05
3.21428e-05
3.25838e-05
3.11363e-05
3.08414e-05
3.0486e-05
2.85479e-05
2.51953e-05
2.13124e-05
1.47233e-05
5.51941e-06
5.77109e-07
3.8639e-09
9.71261e-11
1.43619e-07
2.88299e-06
1.23336e-05
1.9732e-05
2.45911e-05
2.89997e-05
3.00241e-05
3.29495e-05
3.47184e-05
3.3927e-05
3.54638e-05
3.32929e-05
3.4504e-05
3.41857e-05
3.31468e-05
3.24029e-05
3.429e-05
3.42683e-05
3.54045e-05
3.68863e-05
3.76613e-05
5.17981e-05
0.000122696
0.000427393
0.000919762
0.000979484
0.00106193
0.00133395
0.00145113
0.00113216
0.000389107
0.000105795
5.08687e-05
3.79609e-05
3.40723e-05
3.38873e-05
3.20003e-05
3.13764e-05
3.10947e-05
3.14999e-05
3.08772e-05
3.12221e-05
3.14791e-05
3.24405e-05
3.05434e-05
2.99748e-05
2.96108e-05
2.88015e-05
2.48313e-05
2.03735e-05
1.41195e-05
5.20589e-06
5.48794e-07
3.71691e-09
1.02391e-10
1.54758e-07
3.32861e-06
1.32848e-05
2.20642e-05
2.52358e-05
2.80755e-05
2.97546e-05
3.1624e-05
3.30362e-05
3.46397e-05
3.44983e-05
3.35405e-05
3.36057e-05
3.33335e-05
3.27593e-05
3.30713e-05
3.32924e-05
3.29302e-05
3.40505e-05
3.65224e-05
3.86102e-05
4.93715e-05
0.00010941
0.00035931
0.000879508
0.00105189
0.00101463
0.00118665
0.00132769
0.00102361
0.000335085
9.54254e-05
4.96724e-05
3.63187e-05
3.41093e-05
3.28361e-05
3.13761e-05
3.11228e-05
3.18046e-05
3.10503e-05
3.08871e-05
3.09791e-05
3.09701e-05
3.09785e-05
3.14281e-05
3.11868e-05
3.04689e-05
2.76899e-05
2.50163e-05
2.0679e-05
1.53645e-05
5.79897e-06
5.79666e-07
3.82689e-09
1.08151e-10
1.62078e-07
3.35703e-06
1.35761e-05
2.59312e-05
2.70294e-05
2.87518e-05
2.97349e-05
3.12614e-05
3.24867e-05
3.43944e-05
3.40996e-05
3.48648e-05
3.3427e-05
3.31578e-05
3.55189e-05
3.31149e-05
3.31579e-05
3.24916e-05
3.44071e-05
3.48231e-05
3.7157e-05
4.85243e-05
9.99362e-05
0.000306432
0.000804223
0.00110322
0.000975188
0.00101539
0.00115707
0.000872235
0.000282312
8.61283e-05
4.76886e-05
3.66287e-05
3.563e-05
3.2582e-05
3.13323e-05
3.11789e-05
3.2691e-05
3.07009e-05
3.09696e-05
3.27037e-05
3.07192e-05
3.15113e-05
3.32305e-05
3.14601e-05
2.9085e-05
2.66348e-05
2.41846e-05
2.13866e-05
1.58557e-05
6.48036e-06
6.44445e-07
4.20306e-09
1.16278e-10
1.74893e-07
3.82048e-06
1.42824e-05
2.70177e-05
2.83273e-05
3.14923e-05
3.1888e-05
3.18907e-05
3.35553e-05
3.39873e-05
3.44534e-05
3.66189e-05
3.54248e-05
3.34931e-05
3.4283e-05
3.40142e-05
3.5624e-05
3.497e-05
3.42053e-05
3.47781e-05
3.66081e-05
4.72163e-05
9.36292e-05
0.000266625
0.00070849
0.00107316
0.000966238
0.000879227
0.00098498
0.000721832
0.000227463
7.79625e-05
4.56254e-05
3.6697e-05
3.43537e-05
3.28231e-05
3.16699e-05
3.14145e-05
3.17976e-05
3.11482e-05
3.17767e-05
3.17495e-05
3.08175e-05
3.40324e-05
3.28651e-05
3.07524e-05
2.82941e-05
2.61031e-05
2.39706e-05
2.30328e-05
1.82383e-05
6.44051e-06
6.94592e-07
4.57629e-09
1.27654e-10
1.94943e-07
4.20938e-06
1.60509e-05
2.8152e-05
2.98877e-05
3.2707e-05
3.31114e-05
3.33878e-05
3.37976e-05
3.44951e-05
3.67638e-05
3.56948e-05
3.58009e-05
3.42359e-05
3.60894e-05
3.40909e-05
3.46331e-05
3.40793e-05
3.39691e-05
3.44023e-05
3.62149e-05
4.54288e-05
8.9327e-05
0.000236926
0.000612324
0.000964333
0.000912345
0.000771342
0.000831252
0.000591116
0.000190417
7.1095e-05
4.53006e-05
3.63015e-05
3.47287e-05
3.63103e-05
3.54502e-05
3.17922e-05
3.164e-05
3.15527e-05
3.23942e-05
3.2807e-05
3.17688e-05
3.24055e-05
3.22159e-05
3.06391e-05
2.85991e-05
2.72001e-05
2.49924e-05
2.64345e-05
1.97853e-05
7.52603e-06
7.27704e-07
4.88479e-09
1.348e-10
2.04861e-07
4.49097e-06
1.75502e-05
2.84332e-05
3.15779e-05
3.38948e-05
3.36208e-05
3.36857e-05
3.42933e-05
3.51153e-05
3.60295e-05
3.85541e-05
3.69858e-05
3.66409e-05
3.51326e-05
3.42652e-05
3.6654e-05
3.61854e-05
3.78637e-05
3.62037e-05
3.82531e-05
4.65669e-05
8.59383e-05
0.000214473
0.00052601
0.000825196
0.000809509
0.000673677
0.000699486
0.000482199
0.000162123
6.64688e-05
4.30233e-05
3.6083e-05
3.60204e-05
3.49132e-05
3.37587e-05
3.23313e-05
3.19849e-05
3.20987e-05
3.28159e-05
3.34702e-05
3.23092e-05
3.22692e-05
3.24066e-05
3.16633e-05
2.98355e-05
2.86728e-05
2.7582e-05
2.59946e-05
2.06812e-05
7.69102e-06
7.80414e-07
5.26405e-09
1.45876e-10
2.21414e-07
4.88239e-06
1.80742e-05
2.97171e-05
3.30133e-05
3.73131e-05