/*--------------------------------*- C++ -*----------------------------------*\
  =========                 |
  \\      /  F ield         | OpenFOAM: The Open Source CFD Toolbox
   \\    /   O peration     | Website:  https://openfoam.org
    \\  /    A nd           | Version:  7
     \\/     M anipulation  |
\*---------------------------------------------------------------------------*/
FoamFile
{
    version     2.0;
    format      ascii;
    class       volScalarField;
    location    "40";
    object      p;
}
// * * * * * * * * * * * * * * * * * * * * * * * * * * * * * * * * * * * * * //

dimensions      [0 2 -2 0 0 0 0];

internalField   nonuniform List<scalar> 
17475
(
0.727746
0.413245
0.323971
0.285571
0.263202
0.248503
0.2382
0.230749
0.225302
0.221342
0.218532
0.216633
0.215472
0.214914
0.214848
0.215184
0.215838
0.216738
0.217815
0.219006
0.220251
0.221493
0.22268
0.223763
0.224701
0.225462
0.226018
0.226348
0.226446
0.226313
0.22596
0.22541
0.224692
0.223843
0.22291
0.221941
0.220993
0.220125
0.219401
0.21889
0.218668
0.218817
0.219432
0.220622
0.222521
0.225303
0.229196
0.234518
0.241736
0.251559
0.265122
0.284299
0.311927
0.354631
0.376516
0.289228
0.304597
0.290132
0.27166
0.256088
0.244264
0.235398
0.228759
0.223815
0.220188
0.217612
0.215886
0.21486
0.214411
0.214438
0.214855
0.215584
0.216553
0.217695
0.218948
0.220251
0.221547
0.222783
0.223912
0.22489
0.22568
0.226254
0.226594
0.22669
0.226546
0.226172
0.225592
0.224836
0.223943
0.222959
0.221934
0.220926
0.219994
0.219201
0.218617
0.218313
0.218371
0.218877
0.219936
0.221669
0.22423
0.227816
0.232695
0.23924
0.247995
0.259781
0.27593
0.298292
0.334145
0.343626
0.257043
0.253796
0.25208
0.246022
0.239414
0.233028
0.227464
0.222905
0.219331
0.216652
0.21476
0.213553
0.212935
0.212822
0.213138
0.213812
0.214775
0.215964
0.217315
0.218766
0.220256
0.221728
0.223125
0.224397
0.225494
0.226374
0.227009
0.227379
0.227473
0.227293
0.226853
0.226177
0.225301
0.224265
0.22312
0.22192
0.220722
0.219586
0.218576
0.217759
0.217201
0.216971
0.217144
0.217799
0.219026
0.220925
0.223609
0.227207
0.231857
0.237675
0.244677
0.252572
0.26012
0.264654
0.256309
0.209932
0.218643
0.223728
0.224044
0.222313
0.21977
0.217138
0.214755
0.212793
0.211322
0.210359
0.209885
0.209869
0.210266
0.21103
0.212111
0.213454
0.215003
0.2167
0.218484
0.220293
0.222066
0.223742
0.225257
0.226557
0.227598
0.22834
0.22876
0.228848
0.228605
0.228048
0.227206
0.226119
0.224837
0.223415
0.221914
0.220395
0.218919
0.217552
0.216357
0.215392
0.214713
0.214375
0.21443
0.214926
0.215902
0.217383
0.219366
0.22179
0.224485
0.227074
0.228777
0.228347
0.222243
0.207114
0.188622
0.194956
0.201296
0.204927
0.20633
0.206528
0.206153
0.205598
0.205108
0.204829
0.204843
0.205186
0.20587
0.206886
0.208214
0.209821
0.211669
0.213708
0.215885
0.21814
0.220406
0.222619
0.224697
0.226572
0.228176
0.229452
0.230355
0.230851
0.230927
0.230587
0.229852
0.228758
0.227357
0.22571
0.223884
0.221948
0.219972
0.218019
0.216165
0.214464
0.212967
0.211718
0.210754
0.210101
0.209771
0.209757
0.210025
0.210497
0.211027
0.211362
0.211084
0.209463
0.205575
0.197796
0.187598
0.174806
0.179465
0.185444
0.189796
0.192483
0.194198
0.195313
0.196117
0.196828
0.197597
0.198525
0.199677
0.201092
0.202785
0.204753
0.206982
0.209442
0.212094
0.214888
0.217759
0.220643
0.223445
0.226078
0.228452
0.230484
0.232096
0.233225
0.233828
0.233884
0.233401
0.232409
0.230955
0.229111
0.226955
0.224573
0.222052
0.219468
0.216901
0.214432
0.21211
0.209981
0.208078
0.206424
0.205024
0.203867
0.202918
0.202113
0.201348
0.200463
0.199218
0.197298
0.194233
0.18942
0.182497
0.176061
0.164007
0.167374
0.172481
0.17698
0.180317
0.182873
0.184913
0.186657
0.188274
0.189894
0.191617
0.193516
0.195642
0.198024
0.200678
0.203597
0.206766
0.210151
0.213702
0.217362
0.221032
0.224611
0.227987
0.231044
0.233667
0.235747
0.237194
0.237945
0.237971
0.237281
0.235922
0.233963
0.231505
0.228657
0.225533
0.222243
0.21888
0.215556
0.212343
0.209294
0.206452
0.203841
0.201472
0.199336
0.197407
0.195636
0.193952
0.192247
0.190384
0.188182
0.185424
0.18184
0.177042
0.171217
0.166799
0.154556
0.157015
0.161203
0.165573
0.169218
0.172253
0.174875
0.177257
0.179535
0.18182
0.184206
0.186765
0.189551
0.192606
0.195957
0.199613
0.203573
0.207809
0.212279
0.2169
0.221572
0.226164
0.230533
0.234521
0.237963
0.240702
0.242597
0.243559
0.243538
0.242549
0.240664
0.237993
0.234686
0.230899
0.226793
0.222509
0.218172
0.213925
0.209836
0.205963
0.202344
0.198995
0.195914
0.193084
0.190466
0.188005
0.185625
0.183237
0.180726
0.177956
0.17477
0.171002
0.166434
0.161466
0.158185
0.145734
0.147616
0.151082
0.155174
0.158864
0.162107
0.165057
0.167845
0.17058
0.173358
0.176263
0.179371
0.182746
0.186437
0.190484
0.194911
0.199721
0.204929
0.210467
0.216255
0.222192
0.228109
0.233811
0.239081
0.243677
0.247358
0.249905
0.25117
0.251076
0.249648
0.246997
0.243305
0.23881
0.233743
0.228332
0.22276
0.217225
0.211872
0.206775
0.20199
0.197548
0.193454
0.189692
0.186229
0.183018
0.179998
0.177098
0.174232
0.171308
0.168215
0.164839
0.161059
0.156845
0.152791
0.150311
0.137148
0.138647
0.141569
0.145322
0.148905
0.152179
0.155267
0.158275
0.161294
0.164408
0.167697
0.171234
0.175092
0.179338
0.184032
0.189215
0.194954
0.201224
0.207991
0.215185
0.222696
0.230349
0.237861
0.244925
0.251184
0.256258
0.259781
0.261502
0.26129
0.25919
0.255395
0.250204
0.244013
0.237178
0.230016
0.222797
0.2158
0.209141
0.202907
0.197143
0.191862
0.187045
0.182658
0.178649
0.174956
0.171512
0.168238
0.165058
0.161889
0.158655
0.155252
0.151585
0.147665
0.14419
0.142249
0.128566
0.129771
0.132241
0.135627
0.139023
0.142222
0.145314
0.148393
0.151539
0.154833
0.158352
0.162179
0.166397
0.171091
0.176347
0.182244
0.188866
0.196245
0.20438
0.21323
0.222693
0.232597
0.242588
0.252211
0.260931
0.268133
0.273181
0.275622
0.275214
0.272042
0.266455
0.259006
0.250336
0.241022
0.231506
0.222229
0.213454
0.205298
0.197832
0.191067
0.184977
0.179509
0.17459
0.170141
0.166093
0.162364
0.158884
0.155567
0.15233
0.149091
0.145764
0.14227
0.138694
0.135742
0.134163
0.119855
0.120816
0.122876
0.125877
0.129025
0.132062
0.135046
0.138061
0.141186
0.144499
0.148081
0.152021
0.156421
0.161388
0.16703
0.173509
0.180912
0.189342
0.198901
0.209605
0.221408
0.234162
0.24755
0.26089
0.273363
0.283957
0.291529
0.295165
0.294413
0.289423
0.280904
0.269918
0.257564
0.244719
0.232115
0.2203
0.209454
0.199677
0.19097
0.183269
0.176473
0.170484
0.165182
0.160486
0.156283
0.152464
0.148936
0.145615
0.142423
0.139287
0.136127
0.132877
0.129664
0.127155
0.125882
0.110946
0.111717
0.113403
0.115986
0.118811
0.121596
0.124361
0.127181
0.130132
0.133289
0.136739
0.14058
0.144926
0.149912
0.155687
0.162445
0.170356
0.179623
0.190445
0.203037
0.217476
0.233726
0.251591
0.270356
0.288713
0.304983
0.316978
0.322766
0.321364
0.313099
0.299516
0.282774
0.264822
0.24705
0.230549
0.215722
0.20266
0.191309
0.181508
0.173068
0.165826
0.159613
0.154233
0.14953
0.145368
0.141634
0.138227
0.135058
0.13205
0.129127
0.126221
0.123277
0.120456
0.118362
0.117353
0.101806
0.102406
0.103749
0.105899
0.10834
0.110778
0.113209
0.115695
0.118308
0.121122
0.124223
0.12771
0.131708
0.136356
0.141882
0.14847
0.156379
0.165942
0.177539
0.191574
0.208531
0.228668
0.252088
0.278503
0.306252
0.332437
0.352806
0.36282
0.360079
0.345413
0.322522
0.296142
0.269689
0.245461
0.224371
0.206427
0.191375
0.178826
0.168427
0.159824
0.152645
0.146596
0.141457
0.137037
0.133173
0.129755
0.126668
0.12381
0.121126
0.118536
0.115977
0.113419
0.11103
0.109302
0.108465
0.0924611
0.0929282
0.0939522
0.0956365
0.0976052
0.0996001
0.101586
0.10361
0.105729
0.108008
0.110526
0.113372
0.116661
0.12056
0.125289
0.131057
0.138182
0.147083
0.158323
0.172645
0.190904
0.214203
0.243591
0.279626
0.321884
0.366054
0.403653
0.422913
0.417123
0.38856
0.347521
0.304965
0.266679
0.235002
0.209504
0.189268
0.173343
0.160832
0.150892
0.142889
0.13641
0.131067
0.126636
0.122885
0.119646
0.116803
0.114246
0.11189
0.109671
0.107526
0.105407
0.103308
0.101396
0.100071
0.0994394
0.0829341
0.0832846
0.0839954
0.0851913
0.0866373
0.0881099
0.089553
0.0909903
0.0924629
0.0940189
0.0957167
0.0976293
0.0998517
0.102542
0.105844
0.109983
0.115263
0.122115
0.13116
0.143312
0.159932
0.182949
0.215238
0.260075
0.321024
0.397307
0.472996
0.514783
0.501477
0.439808
0.362275
0.294788
0.243812
0.206639
0.179905
0.160663
0.146559
0.136024
0.128011
0.121834
0.116968
0.113067
0.109868
0.10716
0.104866
0.102851
0.101027
0.0993199
0.0976885
0.0961015
0.0945133
0.0929402
0.0915424
0.0906031
0.0901474
0.0732753
0.0735086
0.0738973
0.0745927
0.0754873
0.0763944
0.0772305
0.0779916
0.078698
0.0793764
0.0800588
0.0807843
0.081601
0.0826064
0.0838676
0.0855407
0.0878013
0.0909078
0.0953521
0.101804
0.111374
0.126261
0.15019
0.190016
0.258414
0.378358
0.539288
0.642134
0.608628
0.462375
0.317501
0.229811
0.178812
0.148491
0.129765
0.117736
0.109659
0.103947
0.0999067
0.0969104
0.0945638
0.092775
0.0913311
0.0901051
0.0890491
0.0880851
0.087171
0.0862714
0.0853586
0.0844069
0.0834057
0.0823909
0.0815108
0.0809626
0.0806836
0.0632427
0.0633086
0.0634434
0.0637943
0.0642494
0.0646192
0.0648185
0.0648416
0.0646968
0.0643892
0.0639172
0.0632765
0.0624577
0.0614675
0.0602745
0.0588536
0.0571619
0.0551308
0.0526732
0.0496178
0.0457123
0.0408625
0.034322
0.0253977
0.0133914
0.107002
0.379064
0.246444
0.0922538
0.0391182
0.0468647
0.0533807
0.05809
0.061575
0.0643337
0.0663669
0.0679885
0.069265
0.0702856
0.0711132
0.071768
0.0722744
0.0726427
0.0728789
0.0729871
0.0729695
0.072825
0.0725531
0.0721635
0.0717096
0.0713361
0.0711851
0.0711434
0.0516844
0.0518609
0.0524117
0.0529958
0.0532479
0.0530832
0.0525931
0.0518192
0.0507748
0.0494445
0.0477724
0.0457064
0.0431828
0.0401022
0.0363256
0.0316596
0.0258137
0.0183345
0.00847712
-0.00503083
-0.0245246
-0.0544101
-0.104279
-0.197263
-0.327513
-0.412597
-0.249506
-0.120837
-0.0565341
-0.020398
0.00206855
0.0169889
0.0274464
0.0351104
0.0409166
0.045433
0.0490116
0.0518762
0.0541734
0.0560451
0.0575444
0.0587263
0.0596534
0.0603098
0.0607365
0.0609591
0.0610087
0.0609246
0.0607605
0.0606197
0.0452181
0.0448534
0.0445672
0.0438967
0.0429798
0.0419322
0.0406911
0.0391657
0.0372682
0.0349438
0.0321083
0.0286698
0.024519
0.0194734
0.0133199
0.00576575
-0.00362361
-0.015486
-0.0307834
-0.051031
-0.0786962
-0.117992
-0.177526
-0.268326
-0.35517
-0.284809
-0.192563
-0.121423
-0.076081
-0.045201
-0.0232384
-0.00708668
0.00513277
0.0145958
0.0220661
0.0280551
0.032918
0.0369012
0.0401543
0.0428304
0.0450236
0.0467884
0.0482186
0.0493355
0.0501427
0.0506245
0.0507443
0.0505189
0.0502793
0.0343137
0.0343323
0.033962
0.0332971
0.0323215
0.0309414
0.0291432
0.0269131
0.0242136
0.0209776
0.0171144
0.0124949
0.00697245
0.000317528
-0.00770979
-0.0174465
-0.0293552
-0.0440611
-0.0624182
-0.0855606
-0.114949
-0.152241
-0.198259
-0.247981
-0.269563
-0.280146
-0.259234
-0.236154
-0.198602
-0.150732
-0.111302
-0.0800804
-0.0557435
-0.0366425
-0.0215471
-0.0094766
0.0002835
0.00824861
0.0148024
0.0202327
0.024754
0.028526
0.0316751
0.0342966
0.0364755
0.0382774
0.0397689
0.0410114
0.042044
0.0427784
0.042914
0.0257724
0.0258749
0.0253933
0.0242528
0.0226356
0.0206671
0.018329
0.0155431
0.0122249
0.00828989
0.00363906
-0.00185917
-0.00836409
-0.0161107
-0.0253167
-0.0363154
-0.0495007
-0.0653385
-0.0844458
-0.107445
-0.13486
-0.167323
-0.204669
-0.238768
-0.251338
-0.252258
-0.245971
-0.233498
-0.225807
-0.225228
-0.223908
-0.217938
-0.195391
-0.160399
-0.128305
-0.100844
-0.0777631
-0.0584273
-0.0424591
-0.02921
-0.0181467
-0.00894692
-0.00123662
0.00525648
0.0107261
0.0153474
0.0192598
0.0225734
0.0253802
0.0277605
0.0297837
0.0314808
0.0327784
0.0335203
0.0336663
0.0176574
0.0177058
0.0171414
0.0158595
0.0139753
0.0116261
0.00884397
0.00558678
0.0017763
-0.0026807
-0.00788857
-0.0139796
-0.0211159
-0.0295328
-0.0394254
-0.0510526
-0.0647334
-0.0808338
-0.099769
-0.121969
-0.147844
-0.177935
-0.212079
-0.241196
-0.253467
-0.256044
-0.250672
-0.237861
-0.225445
-0.21777
-0.213119
-0.208201
-0.193699
-0.16687
-0.139298
-0.114734
-0.0932605
-0.0746687
-0.0587147
-0.0450893
-0.0334485
-0.023537
-0.0150748
-0.00781919
-0.00164773
0.00363247
0.00815774
0.0120485
0.0153868
0.0182437
0.0206783
0.0226861
0.024167
0.0249871
0.0251217
0.00997302
0.0100198
0.00936858
0.00792372
0.00582017
0.00320071
0.00011557
-0.00346408
-0.007609
-0.012409
-0.0179641
-0.0243885
-0.0318388
-0.0404847
-0.0505727
-0.0622687
-0.0758265
-0.0915246
-0.109684
-0.130658
-0.154759
-0.182462
-0.213459
-0.240162
-0.253527
-0.256754
-0.252209
-0.239266
-0.2236
-0.211337
-0.204356
-0.200594
-0.190819
-0.169646
-0.145819
-0.123953
-0.10426
-0.0867266
-0.0712827
-0.0577593
-0.0460164
-0.0358147
-0.0269888
-0.0193427
-0.0127202
-0.00698573
-0.00202166
0.00227932
0.00600428
0.0092298
0.0120074
0.0143115
0.016013
0.0169456
0.0170911
0.00294953
0.00304207
0.00240513
0.000873024
-0.00140157
-0.00421053
-0.00747614
-0.011226
-0.0155294
-0.0204708
-0.0261428
-0.0326412
-0.0400855
-0.0486447
-0.0585174
-0.0698087
-0.0827136
-0.0974493
-0.114254
-0.133365
-0.155124
-0.179919
-0.206995
-0.230391
-0.243935
-0.248113
-0.245306
-0.234488
-0.219411
-0.20648
-0.198871
-0.195023
-0.187924
-0.170442
-0.149337
-0.129361
-0.111184
-0.0948136
-0.0801731
-0.0671629
-0.05566
-0.0455225
-0.0366264
-0.0288275
-0.0219904
-0.0160264
-0.0108179
-0.00626635
-0.00229773
0.0011704
0.00418307
0.00670079
0.00855191
0.00954018
0.00966725
-0.00336232
-0.00324992
-0.00385442
-0.00536463
-0.00765495
-0.0105143
-0.0138388
-0.0176343
-0.0219578
-0.0268818
-0.0324886
-0.0388692
-0.0461065
-0.0543024
-0.0636244
-0.0741712
-0.0860609
-0.099443
-0.114448
-0.131278
-0.150122
-0.171165
-0.193612
-0.212945
-0.224967
-0.229822
-0.229922
-0.22355
-0.212593
-0.202301
-0.196015
-0.192594
-0.186021
-0.170421
-0.151022
-0.132475
-0.115427
-0.100037
-0.0861897
-0.0737735
-0.0626891
-0.05283
-0.0440849
-0.0363463
-0.029512
-0.0234877
-0.0181851
-0.0135184
-0.00941661
-0.00581212
-0.00267643
-7.39631e-05
0.00180277
0.00276045
0.00284455
-0.00890909
-0.0087556
-0.00931437
-0.0107674
-0.013009
-0.0158401
-0.0191333
-0.0228773
-0.0271135
-0.0318993
-0.0372971
-0.0433783
-0.0502091
-0.0578592
-0.0664217
-0.0760079
-0.0866494
-0.0984184
-0.111397
-0.125624
-0.141138
-0.157972
-0.175144
-0.189717
-0.199315
-0.204792
-0.208523
-0.208254
-0.203626
-0.19786
-0.194006
-0.191212
-0.184697
-0.169776
-0.151273
-0.133591
-0.117576
-0.103036
-0.0899452
-0.0781737
-0.0676037
-0.0581392
-0.0496859
-0.0421531
-0.0354552
-0.0295111
-0.0242433
-0.0195784
-0.0154504
-0.0118055
-0.00863339
-0.0060165
-0.00415474
-0.00322181
-0.00317428
-0.013687
-0.0135024
-0.0140053
-0.0153687
-0.0175149
-0.0202464
-0.023429
-0.027031
-0.0310786
-0.035615
-0.0406866
-0.0463424
-0.0526332
-0.0595975
-0.0672808
-0.0757623
-0.0850402
-0.0951141
-0.105961
-0.117513
-0.129712
-0.142304
-0.154386
-0.164316
-0.171344
-0.177365
-0.184789
-0.191205
-0.193307
-0.19223
-0.191034
-0.188767
-0.181708
-0.167158
-0.149524
-0.132681
-0.117515
-0.103898
-0.0915794
-0.0805067
-0.0705471
-0.0615913
-0.0535536
-0.0463535
-0.0399165
-0.0341717
-0.0290517
-0.024493
-0.020437
-0.0168408
-0.0137077
-0.011138
-0.00933931
-0.00847328
-0.00846859
-0.0177147
-0.0174881
-0.0179099
-0.0191628
-0.0211765
-0.0237591
-0.0267672
-0.0301539
-0.0339326
-0.0381349
-0.0427942
-0.0479411
-0.0536067
-0.0598119
-0.0665686
-0.0739007
-0.0818059
-0.0902049
-0.0990064
-0.108093
-0.117276
-0.126181
-0.134014
-0.140024
-0.144774
-0.151217
-0.162064
-0.174451
-0.182055
-0.18455
-0.18538
-0.183312
-0.175598
-0.161405
-0.144869
-0.129278
-0.115214
-0.102528
-0.0911442
-0.0808606
-0.071612
-0.0632765
-0.0557674
-0.049013
-0.042947
-0.0375083
-0.0326381
-0.0282814
-0.0243882
-0.0209246
-0.0179062
-0.0154467
-0.0137505
-0.0129639
-0.0130117
-0.0210321
-0.0207672
-0.0211041
-0.0222211
-0.0240645
-0.0264514
-0.0292335
-0.0323519
-0.035808
-0.0396226
-0.0438181
-0.0484126
-0.0534193
-0.0588472
-0.0646906
-0.0709198
-0.0774877
-0.084332
-0.0913351
-0.0983289
-0.105086
-0.111147
-0.11588
-0.119022
-0.122004
-0.128892
-0.142359
-0.158927
-0.169717
-0.174193
-0.176159
-0.173815
-0.165647
-0.152258
-0.137251
-0.123171
-0.11051
-0.0990665
-0.088729
-0.0794066
-0.0709805
-0.0633683
-0.0564861
-0.0502708
-0.044666
-0.0396196
-0.0350822
-0.0310066
-0.0273503
-0.0240892
-0.0212508
-0.0189554
-0.0174007
-0.0167163
-0.0168167
-0.0236833
-0.0233841
-0.0236317
-0.0246042
-0.0262521
-0.028412
-0.0309353
-0.0337537
-0.0368576
-0.0402596
-0.043974
-0.0480095
-0.0523641
-0.0570273
-0.0619743
-0.067165
-0.0725508
-0.0780897
-0.0836358
-0.0890145
-0.0939899
-0.0981494
-0.10095
-0.102222
-0.104024
-0.111228
-0.125996
-0.144253
-0.155799
-0.160817
-0.162858
-0.159967
-0.151874
-0.139918
-0.126944
-0.114752
-0.10371
-0.0937231
-0.084628
-0.0763733
-0.0688783
-0.0620732
-0.0559002
-0.0503005
-0.0452286
-0.0406427
-0.0365024
-0.0327695
-0.0294098
-0.0264083
-0.0238024
-0.0217153
-0.0203338
-0.0197637
-0.0199117
-0.0257187
-0.025391
-0.025548
-0.0263576
-0.027802
-0.0297224
-0.0319711
-0.0344745
-0.0372159
-0.0401985
-0.0434292
-0.0469055
-0.0506205
-0.0545596
-0.0587005
-0.0630096
-0.0674338
-0.0718896
-0.0762958
-0.0805086
-0.0843171
-0.0873909
-0.0891839
-0.0894524
-0.0906234
-0.0978918
-0.11224
-0.129485
-0.139862
-0.144391
-0.145644
-0.142272
-0.134942
-0.124996
-0.114421
-0.104403
-0.0951973
-0.0867772
-0.0790733
-0.0719898
-0.0655116
-0.0595902
-0.0541901
-0.0492659
-0.0447831
-0.0407107
-0.0370182
-0.0336761
-0.0306594
-0.0279619
-0.0256291
-0.0237806
-0.0225898
-0.0221377
-0.0223321
-0.0272001
-0.0268501
-0.0269234
-0.0275759
-0.0288038
-0.0304687
-0.0324313
-0.0346118
-0.0369859
-0.0395513
-0.0423095
-0.0452582
-0.0483893
-0.051687
-0.0551253
-0.0586697
-0.0622787
-0.065895
-0.0694477
-0.072859
-0.0759737
-0.0785178
-0.0799298
-0.0798219
-0.0806318
-0.0872467
-0.0995002
-0.113906
-0.12212
-0.125279
-0.125425
-0.121995
-0.11601
-0.1084
-0.100369
-0.0926348
-0.0853817
-0.0786182
-0.0723385
-0.0665105
-0.0611074
-0.0561267
-0.0515388
-0.0473311
-0.0434768
-0.0399552
-0.0367466
-0.0338304
-0.031191
-0.0288312
-0.0268007
-0.0252176
-0.0242275
-0.0238947
-0.0241307
-0.0281911
-0.0278205
-0.0278125
-0.0283142
-0.0293309
-0.0307343
-0.0324029
-0.0342589
-0.0362724
-0.0384373
-0.0407524
-0.0432132
-0.0458096
-0.0485264
-0.0513435
-0.0542371
-0.0571772
-0.0601314
-0.0630613
-0.065912
-0.0686093
-0.0709206
-0.0722674
-0.07208
-0.072459
-0.0777387
-0.0869688
-0.0974302
-0.102948
-0.104416
-0.103642
-0.10068
-0.0963668
-0.0911487
-0.0856005
-0.0800952
-0.0747729
-0.0696706
-0.0648185
-0.0602416
-0.0559347
-0.0519009
-0.0481487
-0.0446735
-0.0414666
-0.0385165
-0.0358127
-0.0333443
-0.0311043
-0.0291037
-0.0273954
-0.026087
-0.0253052
-0.0250896
-0.0253613
-0.0287534
-0.0283746
-0.0282943
-0.0286445
-0.0294398
-0.030587
-0.0319682
-0.0335079
-0.0351743
-0.0369579
-0.0388551
-0.0408606
-0.0429666
-0.0451621
-0.0474343
-0.0497682
-0.0521488
-0.054559
-0.0569863
-0.0594139
-0.0617999
-0.0639537
-0.0653149
-0.0651542
-0.0649957
-0.0683391
-0.0742626
-0.0805458
-0.0833166
-0.0833071
-0.081999
-0.0798127
-0.0772036
-0.0741919
-0.0708879
-0.0674174
-0.0638837
-0.0603499
-0.0568661
-0.0534848
-0.0502417
-0.0471477
-0.044222
-0.0414753
-0.0389125
-0.0365367
-0.0343443
-0.0323324
-0.0305024
-0.0288722
-0.0274944
-0.0264665
-0.0258879
-0.0257821
-0.0260831
-0.0289589
-0.0285683
-0.0284231
-0.0286356
-0.029225
-0.0301176
-0.0312131
-0.0324426
-0.0337725
-0.035191
-0.0366936
-0.0382759
-0.0399326
-0.0416568
-0.043441
-0.0452779
-0.0471619
-0.0490896
-0.0510627
-0.0530891
-0.0551551
-0.0571152
-0.0583867
-0.0582434
-0.057478
-0.0587089
-0.0615738
-0.0640906
-0.0644947
-0.0632488
-0.0617194
-0.0604646
-0.0594069
-0.0582579
-0.0568449
-0.0551272
-0.0531665
-0.0510383
-0.0488077
-0.0465359
-0.0442801
-0.0420736
-0.0399387
-0.0378987
-0.035967
-0.0341509
-0.0324628
-0.0309049
-0.0294849
-0.0282248
-0.0271762
-0.0264201
-0.0260372
-0.0260354
-0.0263589
-0.0288597
-0.0284668
-0.0282705
-0.0283535
-0.0287431
-0.029387
-0.030204
-0.0311302
-0.0321345
-0.0332043
-0.0343348
-0.0355223
-0.0367628
-0.0380521
-0.0393863
-0.0407622
-0.0421796
-0.043642
-0.0451602
-0.0467501
-0.0484154
-0.0500381
-0.0511882
-0.0509492
-0.0496304
-0.0490603
-0.0493494
-0.0489223
-0.0473167
-0.0451906
-0.0436272
-0.0432512
-0.0434657
-0.043805
-0.043904
-0.043619
-0.0429774
-0.0420529
-0.0409193
-0.0396406
-0.0382769
-0.0368788
-0.0354759
-0.0340963
-0.0327638
-0.0314862
-0.0302814
-0.0291635
-0.0281439
-0.0272465
-0.0265177
-0.0260234
-0.0258194
-0.0259074
-0.0262466
-0.0285079
-0.0281188
-0.0278746
-0.0278415
-0.0280481
-0.0284518
-0.0289962
-0.0296294
-0.0303211
-0.031059
-0.0318374
-0.0326531
-0.0335027
-0.0343828
-0.0352906
-0.0362245
-0.0371854
-0.0381784
-0.0392148
-0.0403122
-0.0414772
-0.0426172
-0.0433304
-0.0429855
-0.0414208
-0.0396516
-0.0380459
-0.0355541
-0.0323581
-0.0294928
-0.0280683
-0.0284126
-0.0296149
-0.0310704
-0.0323171
-0.0331476
-0.0335644
-0.0336303
-0.0334193
-0.032997
-0.0324168
-0.0317343
-0.0309908
-0.0302089
-0.0294254
-0.0286535
-0.0279055
-0.0272034
-0.0265651
-0.0260136
-0.0255884
-0.0253387
-0.0253003
-0.0254647
-0.0258165
-0.0279496
-0.0275665
-0.0272879
-0.0271496
-0.0271817
-0.0273607
-0.0276444
-0.0279948
-0.0283868
-0.028808
-0.0292525
-0.0297163
-0.0301954
-0.0306859
-0.0311841
-0.0316874
-0.032195
-0.0327092
-0.0332367
-0.0337882
-0.0343668
-0.0349138
-0.0351772
-0.0345974
-0.0328621
-0.0304813
-0.0276333
-0.0238863
-0.0196332
-0.0162855
-0.015042
-0.0159245
-0.0178449
-0.0200971
-0.0221726
-0.0238376
-0.0250707
-0.0259253
-0.0264667
-0.0267548
-0.0268414
-0.0267779
-0.0266082
-0.0263622
-0.0260677
-0.0257542
-0.0254265
-0.02511
-0.0248257
-0.0245983
-0.0244552
-0.0244305
-0.0245399
-0.024772
-0.0251288
-0.027226
-0.0268527
-0.026541
-0.0263181
-0.0261903
-0.0261559
-0.0261914
-0.0262714
-0.0263772
-0.0264976
-0.0266258
-0.0267565
-0.026884
-0.0270026
-0.0271067
-0.0271907
-0.0272496
-0.0272806
-0.0272831
-0.027262
-0.0272226
-0.0271242
-0.0267771
-0.0258019
-0.023954
-0.0213253
-0.0179511
-0.013558
-0.00880841
-0.00526993
-0.0042426
-0.00554628
-0.00797416
-0.0107777
-0.0134349
-0.0157067
-0.0175508
-0.0190142
-0.0201515
-0.0210153
-0.021654
-0.0221126
-0.0224306
-0.0226469
-0.0227813
-0.0228719
-0.0229253
-0.0229582
-0.0229959
-0.0230549
-0.0231565
-0.0233183
-0.0235483
-0.0238391
-0.0242021
-0.026364
-0.0260056
-0.0256758
-0.0253759
-0.025106
-0.024873
-0.0246735
-0.0244971
-0.0243318
-0.0241684
-0.0239985
-0.0238151
-0.0236106
-0.0233766
-0.0231042
-0.0227842
-0.0224065
-0.0219633
-0.0214487
-0.02086
-0.020184
-0.0193871
-0.0183728
-0.0169773
-0.0150133
-0.0123602
-0.00882117
-0.00429567
0.000561409
0.0039471
0.00467606
0.00304071
0.000247753
-0.00293447
-0.0059958
-0.00869669
-0.0109928
-0.0129156
-0.0145134
-0.0158326
-0.0169171
-0.0178049
-0.0185312
-0.0191363
-0.0196426
-0.0200785
-0.0204679
-0.0208128
-0.021142
-0.021472
-0.021807
-0.0221489
-0.0224848
-0.0228122
-0.0231588
-0.0253973
-0.0250541
-0.024712
-0.0243475
-0.0239563
-0.0235419
-0.0231237
-0.0227068
-0.0222873
-0.021858
-0.0214101
-0.020934
-0.0204194
-0.0198553
-0.0192292
-0.0185286
-0.0177401
-0.0168511
-0.0158465
-0.0147088
-0.0134223
-0.0119727
-0.0103403
-0.00845808
-0.00626786
-0.00367395
-0.000331605
0.00395937
0.00839653
0.011491
0.0123607
0.0100893
0.0070573
0.00361076
0.000276831
-0.00272413
-0.00534413
-0.00760694
-0.00955332
-0.0112246
-0.0126588
-0.0138916
-0.0149534
-0.0158798
-0.0166977
-0.0174208
-0.018091
-0.0187195
-0.0193026
-0.0198585
-0.0203859
-0.0208656
-0.0212902
-0.0216482
-0.0219916
-0.0243511
-0.024026
-0.0236757
-0.02326
-0.0227589
-0.0221852
-0.0215684
-0.020929
-0.020274
-0.019599
-0.0188946
-0.0181489
-0.0173494
-0.0164823
-0.0155328
-0.0144858
-0.0133247
-0.0120287
-0.0105767
-0.00894925
-0.00713061
-0.0051093
-0.00288852
-0.000523993
0.0018947
0.00441073
0.00743932
0.0112713
0.0151845
0.0177425
0.0177289
0.0155868
0.0126496
0.00898936
0.00550195
0.00230473
-0.000537496
-0.00304235
-0.00524373
-0.00718046
-0.00888424
-0.0103867
-0.0117176
-0.0129054
-0.0139777
-0.0149562
-0.0158544
-0.0167154
-0.017516
-0.0182673
-0.0189558
-0.0195583
-0.0200451
-0.0204247
-0.0207587
-0.0232389
-0.0229343
-0.0225826
-0.0221276
-0.0215362
-0.0208231
-0.0200281
-0.0191877
-0.0183183
-0.0174197
-0.0164826
-0.0154937
-0.0144384
-0.0133013
-0.0120662
-0.0107142
-0.00922414
-0.00757469
-0.00574366
-0.00370773
-0.00144247
0.00105918
0.00375591
0.00652086
0.00916349
0.01164
0.0143314
0.017577
0.0208395
0.0228459
0.0226312
0.0202681
0.0167625
0.0132535
0.00979316
0.00647258
0.00349197
0.000828637
-0.00155
-0.00367705
-0.00558091
-0.00728901
-0.00882861
-0.0102236
-0.0114994
-0.0126824
-0.0137795
-0.0148231
-0.015813
-0.0167263
-0.0175481
-0.0182403
-0.0187741
-0.0191665
-0.0194845
-0.0220737
-0.0217928
-0.0214471
-0.0209649
-0.020302
-0.0194715
-0.0185209
-0.0175027
-0.0164424
-0.0153449
-0.0142018
-0.0129994
-0.0117217
-0.0103525
-0.00887218
-0.007261
-0.00549805
-0.00356197
-0.00142588
0.000936763
0.00354779
0.00640722
0.00945592
0.0125231
0.0153482
0.0178044
0.0201891
0.0228467
0.0254086
0.0268059
0.0262235
0.0238137
0.0203825
0.0166052
0.0129991
0.00980715
0.0068049
0.00406005
0.00157172
-0.00068206
-0.0027262
-0.00458388
-0.0062794
-0.0078346
-0.00927223
-0.0106134
-0.0118745
-0.0130595
-0.0141958
-0.0152512
-0.0161793
-0.0169388
-0.0175059
-0.0179008
-0.0182029
-0.0208751
-0.0206157
-0.0202787
-0.0197817
-0.0190647
-0.0181378
-0.0170593
-0.0158884
-0.014663
-0.0133934
-0.0120734
-0.01069
-0.00922587
-0.00766272
-0.0059819
-0.00416457
-0.00218871
-3.01199e-05
0.00233626
0.00493491
0.00778606
0.0108856
0.0141621
0.0174223
0.0203637
0.0227925
0.0249107
0.0270303
0.028926
0.0297518
0.028839
0.02634
0.0229768
0.0193394
0.0157496
0.0123792
0.00934667
0.00666705
0.00416162
0.00183998
-0.00029236
-0.00225175
-0.00405767
-0.00573039
-0.00729005
-0.00875363
-0.0101407
-0.0114545
-0.0126906
-0.0138565
-0.014866
-0.0156764
-0.0162591
-0.0166532
-0.0169384
-0.0196596
-0.0194216
-0.019096
-0.01859
-0.0178336
-0.0168349
-0.0156515
-0.0143549
-0.012992
-0.0115794
-0.0101143
-0.0085827
-0.00696811
-0.00525314
-0.0034195
-0.00144675
0.000686389
0.00300162
0.00552246
0.00827181
0.0112666
0.0144983
0.0178889
0.0212352
0.024216
0.0265915
0.0284728
0.0301245
0.031426
0.0317489
0.030569
0.0280322
0.0247524
0.0212494
0.0178071
0.0145434
0.0114975
0.00868682
0.00614811
0.00389465
0.00174568
-0.000267672
-0.00214479
-0.00389776
-0.00554381
-0.00709837
-0.00857774
-0.00998954
-0.0113147
-0.012544
-0.0136212
-0.0144618
-0.0150552
-0.0154383
-0.0157071
-0.0184306
-0.0182152
-0.0179036
-0.0173973
-0.0166184
-0.0155665
-0.014305
-0.0129106
-0.0114394
-0.00991394
-0.00833385
-0.00668828
-0.00496146
-0.0031358
-0.0011925
0.000886727
0.00312158
0.00553215
0.00813946
0.0109635
0.0140175
0.0172883
0.0206952
0.0240339
0.0269799
0.0292655
0.0309291
0.0321817
0.0329811
0.0328842
0.0315112
0.028996
0.0258473
0.0225077
0.019221
0.0160948
0.0131627
0.0104226
0.00785886
0.00548265
0.00335523
0.00137772
-0.000525048
-0.00232215
-0.00402342
-0.00564084
-0.00718639
-0.00866587
-0.0100635
-0.0113307
-0.0124459
-0.0133078
-0.0138978
-0.0142721
-0.0145198
-0.0172039
-0.0170083
-0.0167113
-0.016212
-0.015423
-0.0143393
-0.0130246
-0.0115601
-0.0100087
-0.00839974
-0.00673722
-0.00501167
-0.00320766
-0.00130854
0.000702473
0.00284259
0.00512954
0.00758133
0.010216
0.01305
0.0160927
0.0193273
0.0226717
0.025926
0.0287732
0.0309356
0.0323907
0.0333055
0.0336976
0.0332761
0.0317835
0.0293415
0.0263623
0.0232145
0.0201073
0.0171343
0.0143273
0.01169
0.00921212
0.00687769
0.00467867
0.00262969
0.000768553
-0.000991403
-0.00271757
-0.00437526
-0.00596054
-0.00748222
-0.0089233
-0.010231
-0.0113464
-0.0122175
-0.0128018
-0.0131566
-0.0133876
-0.0159794
-0.0158048
-0.0155244
-0.015036
-0.014251
-0.0131591
-0.0118129
-0.0103054
-0.00870233
-0.00703911
-0.00532374
-0.00354836
-0.00169993
0.000237053
0.00227827
0.00443918
0.00673526
0.00918188
0.0117945
0.0145858
0.0175613
0.0207011
0.0239228
0.0270351
0.0297361
0.0317457
0.0330015
0.0336351
0.0337067
0.033053
0.0315107
0.0291843
0.0264016
0.0234651
0.020554
0.0177513
0.0150868
0.012566
0.0101871
0.0079409
0.00580989
0.00378153
0.00184783
1.61769e-05
-0.00171726
-0.00334009
-0.00490408
-0.00643335
-0.00789695
-0.00922512
-0.010356
-0.011204
-0.0117632
-0.012104
-0.0123166
-0.0147689
-0.0146119
-0.0143506
-0.013882
-0.0131114
-0.0120236
-0.0106727
-0.00914625
-0.00751787
-0.00582727
-0.00408631
-0.00229021
-0.000427165
0.0015166
0.00355526
0.00570256
0.00797167
0.0103755
0.0129262
0.0156337
0.0184992
0.0215004
0.024557
0.0274876
0.0300101
0.0318484
0.032917
0.0333192
0.0331522
0.0323452
0.0308119
0.0286339
0.0260635
0.023348
0.0206409
0.0180174
0.015507
0.0131195
0.0108512
0.00869124
0.0066337
0.00467154
0.00279547
0.000996648
-0.00073939
-0.00242185
-0.00403414
-0.00558224
-0.0071186
-0.00830242
-0.00941852
-0.0102503
-0.0107911
-0.0111128
-0.0113076
-0.0135813
-0.0134436
-0.0132024
-0.0127546
-0.0120078
-0.0109372
-0.00959891
-0.00807741
-0.00644804
-0.00475532
-0.00301457
-0.00122344
0.000627871
0.00255153
0.00456002
0.00666506
0.00887775
0.0112086
0.0136669
0.0162591
0.0189842
0.0218172
0.0246806
0.0274054
0.0297291
0.0313901
0.0322871
0.0325055
0.0321686
0.0312784
0.0297976
0.0277882
0.0254356
0.0229425
0.0204415
0.0180008
0.0156528
0.0134044
0.0112516
0.00919051
0.00721515
0.00531939
0.00349683
0.0017417
4.73085e-05
-0.00159649
-0.00319497
-0.00473164
-0.00615542
-0.00746946
-0.00878883
-0.0093725
-0.00984686
-0.0101821
-0.0103647
-0.0124223
-0.0123007
-0.0120755
-0.0116541
-0.010937
-0.00990033
-0.00859181
-0.00709525
-0.005487
-0.0038145
-0.00209609
-0.000332257
0.00148493
0.00336596
0.00532135
0.00736106
0.00949415
0.0117289
0.0140719
0.0165274
0.0190909
0.0217371
0.0243915
0.0268987
0.029017
0.0305029
0.031248
0.0313256
0.0308777
0.0299597
0.028564
0.0267298
0.0245934
0.0223181
0.0200191
0.0177629
0.0155766
0.0134664
0.0114346
0.00947884
0.00759471
0.00577683
0.00401966
0.00231739
0.000664331
-0.000945335
-0.00251307
-0.00402874
-0.00545627
-0.00671206