/*--------------------------------*- C++ -*----------------------------------*\
  =========                 |
  \\      /  F ield         | OpenFOAM: The Open Source CFD Toolbox
   \\    /   O peration     | Website:  https://openfoam.org
    \\  /    A nd           | Version:  7
     \\/     M anipulation  |
\*---------------------------------------------------------------------------*/
FoamFile
{
    version     2.0;
    format      ascii;
    class       surfaceScalarField;
    location    "40";
    object      phi;
}
// * * * * * * * * * * * * * * * * * * * * * * * * * * * * * * * * * * * * * //

dimensions      [0 3 -1 0 0 0 0];

internalField   nonuniform List<scalar> 
34768
(
8.1922e-05
0.00097001
-0.000149632
-4.45601e-05
2.5911e-05
0.000920951
-1.58376e-05
1.08659e-05
0.000907473
-8.26785e-06
6.71675e-06
0.000904252
-5.34266e-06
4.60643e-06
0.000903537
-4.28378e-06
3.9004e-06
0.000903184
-3.61616e-06
3.50107e-06
0.000903116
-3.44032e-06
3.41835e-06
0.000903122
-3.12963e-06
3.06441e-06
0.000903265
-3.22163e-06
2.99384e-06
0.000903328
-3.08224e-06
2.98056e-06
0.000903302
-2.99144e-06
3.20904e-06
0.000903282
-3.03692e-06
2.96937e-06
0.000903567
-3.2108e-06
3.15534e-06
0.000903555
-3.20796e-06
3.36267e-06
0.000903544
-3.32501e-06
3.28866e-06
0.000903835
-3.55961e-06
3.53133e-06
0.000903726
-3.51022e-06
3.68943e-06
0.000903819
-3.67566e-06
3.66186e-06
0.000903911
-3.85505e-06
3.74786e-06
0.000904104
-4.14753e-06
4.74651e-06
0.000904098
-5.55222e-06
6.35691e-06
0.000905191
-5.21817e-06
4.36807e-06
0.000904866
-3.61432e-06
4.07888e-06
0.000904601
-5.34897e-06
-3.62284e-07
0.000909276
-7.11907e-07
1.28302e-06
0.000908623
-1.1889e-06
8.41784e-07
0.000909431
-5.51002e-07
-2.67946e-09
0.000909638
5.57902e-07
-8.4646e-07
0.000909371
1.19991e-06
-1.31775e-06
0.000909201
1.34319e-06
-1.39338e-06
0.000909143
1.39176e-06
-1.37523e-06
0.000909066
1.35753e-06
-1.34516e-06
0.00090907
1.28212e-06
-1.2746e-06
0.000909085
1.26697e-06
-1.26497e-06
0.000909091
1.2633e-06
-1.26731e-06
0.000909097
1.27215e-06
-1.28268e-06
0.000909103
1.29445e-06
-1.41193e-06
0.00090921
1.73107e-06
-1.15616e-06
0.000909918
6.83633e-07
-5.16882e-07
0.000910326
4.52776e-07
-3.94497e-07
0.000910335
4.39521e-07
-4.9075e-07
0.000910245
5.46257e-07
-6.08664e-07
0.000910256
6.76654e-07
-6.52732e-07
0.00091007
7.36313e-07
-8.29907e-07
0.000910088
9.33775e-07
-1.05072e-06
0.000910011
1.18224e-06
-1.33183e-06
0.000909944
1.50269e-06
-1.6999e-06
0.000909992
1.92937e-06
-2.29926e-06
0.000910065
2.52019e-06
-2.90611e-06
0.000910081
3.37557e-06
-4.05182e-06
0.000910272
4.6626e-06
-5.53389e-06
0.000910467
6.56044e-06
-7.67291e-06
0.000910608
8.69439e-06
-6.59505e-06
0.000907397
-4.11458e-06
-2.68597e-05
0.000940472
-0.000827806
0.000143776
0.000703947
-1.99075e-05
-0.000972544
-0.000148603
0.00011672
0.00100444
-0.000925081
-9.00029e-05
7.06015e-05
0.000944501
-0.000911594
-5.64679e-05
4.59997e-05
0.000922079
-0.000907197
-3.8006e-05
3.19642e-05
0.000913255
-0.000905477
-2.72391e-05
2.34897e-05
0.000909242
-0.00090453
-1.99495e-05
1.77645e-05
0.000906731
-0.000904
-1.54894e-05
1.36511e-05
0.000905853
-0.000903873
-1.1968e-05
1.07048e-05
0.00090515
-0.000903756
-9.61002e-06
8.56682e-06
0.000904813
-0.000903804
-7.54056e-06
6.92506e-06
0.000904432
-0.000903692
-6.0949e-06
5.44896e-06
0.000904349
-0.000903604
-4.96887e-06
4.35547e-06
0.000904228
-0.000903833
-3.79525e-06
3.49027e-06
0.000904148
-0.000903772
-3.13046e-06
2.71749e-06
0.000904194
-0.000903719
-2.64505e-06
2.3135e-06
0.000904057
-0.00090387
-2.01935e-06
1.8617e-06
0.000904032
-0.000903825
-1.84018e-06
1.65129e-06
0.000904016
-0.000903882
-1.59785e-06
1.47361e-06
0.000904006
-0.000903941
-1.58485e-06
1.62185e-06
0.000903901
-0.000904202
-1.39431e-06
1.48881e-06
0.000904101
-0.000903966
-1.81889e-06
1.16718e-06
0.000904608
-0.000907012
-1.33208e-06
4.23939e-06
0.000904092
-0.000903346
-3.12656e-06
-2.38097e-06
0.000908836
-0.000907857
1.1542e-06
-1.0473e-06
0.000907729
-0.000908318
1.05912e-06
-1.00538e-06
0.00090824
-0.000909596
9.31921e-07
-5.81502e-07
0.000909217
-0.000910084
3.78959e-07
-6.81537e-07
0.000910355
-0.000909509
9.66136e-07
-7.97663e-07
0.000909306
-0.000909313
5.11068e-07
-8.56061e-07
0.00090962
-0.000909095
9.24485e-07
-8.51223e-07
0.00090898
-0.000908962
6.64365e-07
-5.01492e-07
0.000908756
-0.000908975
3.27846e-07
-2.03203e-07
0.000908805
-0.000909023
2.02394e-08
5.94181e-08
0.000908895
-0.000909054
-4.51396e-08
1.73878e-07
0.000908876
-0.000909089
-2.06768e-07
1.79709e-07
0.000909065
-0.000909127
-1.5495e-07
6.76092e-08
0.000909162
-0.000909567
1.19118e-07
-3.70624e-07
0.000909766
-0.000909812
1.02357e-06
-1.34452e-06
0.000910079
-0.00091016
1.26987e-06
-1.36571e-06
0.000910202
-0.000910412
1.36939e-06
-1.54734e-06
0.000910537
-0.000910471
1.83811e-06
-2.20852e-06
0.000910788
-0.00091044
2.59907e-06
-3.0773e-06
0.000910866
-0.000910425
3.58661e-06
-4.29585e-06
0.000911082
-0.000910432
4.95224e-06
-5.82728e-06
0.000911256
-0.000910475
6.67383e-06
-7.868e-06
0.000911619
-0.000910674
8.97097e-06
-1.0367e-05
0.00091202
-0.000910862
1.1831e-05
-1.37619e-05
0.000912744
-0.0009113
1.57574e-05
-1.82432e-05
0.000913739
-0.000911899
2.1058e-05
-2.46818e-05
0.000915476
-0.000913068
2.89309e-05
-3.41949e-05
0.000918287
-0.000915093
4.07603e-05
-4.90611e-05
0.00092335
-0.000918877
6.00548e-05
-7.43817e-05
0.000933163
-0.000924595
9.40255e-05
-0.000124365
0.0009549
-0.000978462
0.000165478
-0.000143487
0.000956448
-0.00060002
8.47947e-05
0.000519419
-4.17811e-06
-0.00102204
-0.000134074
0.000131379
0.00102475
-0.000962855
-0.000111548
9.32774e-05
0.000981141
-0.000933301
-7.91722e-05
6.78347e-05
0.000944655
-0.000920519
-5.85676e-05
5.08171e-05
0.000928286
-0.000914249
-4.41662e-05
3.87131e-05
0.000919718
-0.000910671
-3.39594e-05
2.98792e-05
0.000914766
-0.000908149
-2.63426e-05
2.26672e-05
0.000911839
-0.000907124
-2.00737e-05
1.78104e-05
0.000909402
-0.000906253
-1.56129e-05
1.36567e-05
0.000908223
-0.000905758
-1.18971e-05
1.03199e-05
0.000907349
-0.000905236
-9.09343e-06
7.70908e-06
0.000906633
-0.000905127
-6.44345e-06
5.59532e-06
0.000905987
-0.00090479
-4.44448e-06
3.59258e-06
0.000905653
-0.000904602
-2.92554e-06
2.24418e-06
0.000905294
-0.000904547
-1.53872e-06
1.11051e-06
0.000904984
-0.000904213
-6.52795e-07
2.65512e-07
0.000904607
-0.000904195
1.54422e-07
-4.08982e-07
0.000904454
-0.000904087
5.98011e-07
-6.26299e-07
0.000904118
-0.00090409
9.90354e-07
-9.98193e-07
0.000904098
-0.000903804
7.42852e-07
-1.33598e-06
0.000904393
-0.000904827
1.66487e-06
-5.50377e-07
0.000903705
-0.000906083
2.60562e-06
-4.20542e-06
0.000907672
-0.000907922
3.67835e-06
-3.28682e-06
0.000907517
-0.000907762
2.67404e-06
-2.60507e-06
0.000907676
-0.000907999
2.47968e-06
-2.43342e-06
0.000907931
-0.000908537
2.02791e-06
-1.53507e-06
0.000908019
-0.000910546
9.35663e-07
-1.01611e-06
0.000910598
-0.000909078
1.07957e-06
-7.83983e-07
0.00090875
-0.000909743
3.35717e-07
-5.48107e-08
0.000909427
-0.000908755
-2.17187e-08
2.28583e-07
0.00090851
-0.000908484
-6.12883e-07
9.57764e-07
0.000908099
-0.000908579
-1.29346e-06
1.56108e-06
0.000908268
-0.000908645
-1.86361e-06
1.94072e-06
0.000908523
-0.0009089
-2.19753e-06
2.27273e-06
0.000908779
-0.000909072
-2.32364e-06
2.28793e-06
0.00090906
-0.000909257
-2.22428e-06
1.96983e-06
0.000909463
-0.000910456
-1.28472e-06
5.66776e-09
0.000911685
-0.00091027
-8.98483e-08
7.52188e-08
0.000910235
-0.000910403
2.78209e-07
-7.35251e-07
0.000910809
-0.000910856
1.13699e-06
-1.74912e-06
0.000911418
-0.000911242
2.31407e-06
-3.09857e-06
0.000911976
-0.000911575
3.94799e-06
-4.93036e-06
0.000912508
-0.000911978
5.99511e-06
-7.21299e-06
0.000913147
-0.000912488
8.63939e-06
-1.01487e-05
0.000913949
-0.000913057
1.18041e-05
-1.37885e-05
0.000914994
-0.000913977
1.58755e-05
-1.83605e-05
0.000916415
-0.000915193
2.11348e-05
-2.42112e-05
0.000918224
-0.000917162
2.78123e-05
-3.18809e-05
0.000921187
-0.000920148
3.6685e-05
-4.23235e-05
0.000925744
-0.000925239
4.89351e-05
-5.68087e-05
0.000933071
-0.000933967
6.60955e-05
-7.74328e-05
0.000945265
-0.00095004
9.11923e-05
-0.000108298
0.000967108
-0.000985598
0.000130341
-0.000154879
0.00101011
-0.000906752
0.000157635
-9.16948e-05
0.000840789
-0.000458896
4.88838e-05
0.000412847
-2.81768e-06
-0.00101418
-0.000100459
0.000119992
0.000994664
-0.000997742
-0.000114048
0.000100495
0.00101131
-0.000955796
-8.7655e-05
7.70221e-05
0.000966443
-0.000936313
-6.78963e-05
6.00924e-05
0.000944131
-0.000925625
-5.32518e-05
4.7232e-05
0.00093166
-0.000919273
-4.18954e-05
3.71584e-05
0.000924024
-0.000915242
-3.29251e-05
2.91419e-05
0.00091904
-0.000912575
-2.58387e-05
2.27783e-05
0.00091565
-0.000910343
-1.99064e-05
1.68998e-05
0.000913365
-0.00090915
-1.48268e-05
1.26658e-05
0.000911326
-0.000908203
-1.05851e-05
8.98353e-06
0.000909819
-0.000907284
-7.33036e-06
5.8269e-06
0.000908801
-0.000906618
-4.45159e-06
3.20729e-06
0.000907875
-0.000906255
-1.9763e-06
1.06366e-06
0.00090718
-0.000905559
-2.55752e-07
-5.43966e-07
0.00090637
-0.00090521
1.34499e-06
-2.04406e-06
0.000905918
-0.000904792
2.44663e-06
-2.85247e-06
0.000905205
-0.000904499
3.26441e-06
-3.58382e-06
0.000904823
-0.000904026
3.51e-06
-4.24802e-06
0.000904766
-0.000904673
4.59057e-06
-3.65299e-06
0.000903735
-0.000905863
5.84282e-06
-7.50983e-06
0.000907526
-0.000907154
7.02549e-06
-6.88012e-06
0.000907001
-0.000906991
6.31271e-06
-5.83239e-06
0.0009065
-0.000907098
5.39257e-06
-4.58769e-06
0.000906279
-0.000908221
3.87133e-06
-3.7999e-06
0.000908131
-0.000907172
3.06257e-06
-2.316e-06
0.000906404
-0.000910349
1.67223e-06
-1.27171e-06
0.000909923
-0.000908227
1.03765e-06
-4.30515e-07
0.000907591
-0.00090841
-4.11295e-07
1.25901e-06
0.00090753
-0.000908535
-1.32203e-06
1.67185e-06
0.00090815
-0.000907633
-2.25879e-06
2.81917e-06
0.000907035
-0.000907889
-3.35695e-06
3.8058e-06
0.000907401
-0.000908268
-4.13289e-06
4.53036e-06
0.00090783
-0.000908651
-4.77825e-06
4.91853e-06
0.000908468
-0.000909071
-5.00338e-06
5.07421e-06
0.000908956
-0.000909622
-4.88492e-06
4.477e-06
0.000909985
-0.000912699
-3.60596e-06
3.21093e-06
0.000913048
-0.000910615
-2.74688e-06
2.15529e-06
0.00091116
-0.000911363
-1.59196e-06
8.96117e-07
0.000912012
-0.000912059
-1.22508e-07
-8.90918e-07
0.000913025
-0.000912924
1.89046e-06
-2.93898e-06
0.000913926
-0.000913689
4.18724e-06
-5.59954e-06
0.000915055
-0.000914704
7.23035e-06
-8.84564e-06
0.000916273
-0.000915839
1.08072e-05
-1.28851e-05
0.000917872
-0.000917205
1.51465e-05
-1.7771e-05
0.000919785
-0.000919074
2.05335e-05
-2.37235e-05
0.00092222
-0.000921821
2.71299e-05
-3.10564e-05
0.000925705
-0.000925803
3.53097e-05
-4.02141e-05
0.000930666
-0.000931798
4.57031e-05
-5.1823e-05
0.000937877
-0.000941084
5.88507e-05
-6.68685e-05
0.000949063
-0.00095639
7.59953e-05
-8.62912e-05
0.000966648
-0.000982881
9.77148e-05
-0.000111872
0.000997003
-0.001025
0.000126665
-0.00013084
0.00102915
-0.000771707
0.00010234
-3.93964e-05
0.000708738
-0.000377154
2.96243e-05
0.000349232
-1.68287e-06
-0.000969999
-7.16082e-05
9.90099e-05
0.000942615
-0.00102178
-0.000104382
9.74938e-05
0.00102868
-0.000976381
-8.75908e-05
7.80666e-05
0.000985922
-0.000951631
-6.9819e-05
6.26091e-05
0.000958858
-0.000937742
-5.60984e-05
5.02908e-05
0.000943567
-0.000928873
-4.49886e-05
4.01511e-05
0.000933727
-0.000923015
-3.57144e-05
3.17562e-05
0.00092699
-0.000918837
-2.80189e-05
2.45901e-05
0.000922283
-0.000915904
-2.15273e-05
1.87209e-05
0.000918728
-0.000913724
-1.61326e-05
1.36598e-05
0.000916213
-0.000911946
-1.09675e-05
8.76651e-06
0.000914164
-0.00091051
-6.92876e-06
5.1558e-06
0.000912299
-0.000909506
-3.22399e-06
1.84618e-06
0.000910898
-0.000908153
-5.0054e-07
-9.06091e-07
0.000909573
-0.000907305
2.08575e-06
-3.232e-06
0.000908463
-0.000906624
4.15455e-06
-4.7467e-06
0.000907227
-0.00090589
5.71854e-06
-6.16236e-06
0.000906342
-0.000904788
6.38354e-06
-7.58186e-06
0.000905993
-0.000905214
8.05069e-06
-7.20044e-06
0.000904368
-0.000905999
9.65596e-06
-1.16212e-05
0.000907966
-0.000906976
1.11185e-05
-1.10973e-05
0.000906953
-0.000906508
1.05575e-05
-9.94176e-06
0.000905887
-0.000905988
9.40163e-06
-8.60442e-06
0.000905182
-0.000905527
7.7517e-06
-6.94315e-06
0.000904706
-0.000907397
6.07245e-06
-5.32277e-06
0.000906631
-0.000905553
4.22271e-06
-3.12383e-06
0.000904435
-0.000909394
2.15887e-06
-1.48446e-06
0.000908696
-0.000906847
7.47501e-07
6.44989e-08
0.000906009
-0.000906737
-1.14819e-06
2.08918e-06
0.000905766
-0.000907538
-2.75056e-06
3.51134e-06
0.000906745
-0.000906332
-4.39586e-06
5.22236e-06
0.000905471
-0.000906833
-5.9991e-06
6.65051e-06
0.000906144
-0.00090744
-7.26964e-06
7.72097e-06
0.00090695
-0.000908166
-8.08964e-06
8.31964e-06
0.000907895
-0.000908953
-8.46085e-06
8.45769e-06
0.000908914
-0.000911189
-8.16169e-06
7.11626e-06
0.000912191
-0.000912474
-6.37625e-06
6.37877e-06
0.000912428
-0.000911609
-5.88199e-06
5.23086e-06
0.000912215
-0.000912793
-4.3782e-06
3.46874e-06
0.000913658
-0.000913949
-2.45355e-06
1.17544e-06
0.000915182
-0.000915311
1.13062e-07
-1.57188e-06
0.000916725
-0.000916626
3.15153e-06
-5.014e-06
0.000918444
-0.000918269
6.91166e-06
-9.00841e-06
0.000920321
-0.000920144
1.13639e-05
-1.38424e-05
0.000922579
-0.000922511
1.65089e-05
-1.94325e-05
0.000925392
-0.000925504
2.25867e-05
-2.62499e-05
0.000929126
-0.000929797
2.99936e-05
-3.4101e-05
0.000933863
-0.000935553
3.85653e-05
-4.35747e-05
0.000940522
-0.000944026
4.90291e-05
-5.50301e-05
0.000949989
-0.000956708
6.10759e-05
-6.73851e-05
0.00096298
-0.000975686
7.51979e-05
-8.38773e-05
0.000984329
-0.00100915
9.36505e-05
-0.000103619
0.00101908
-0.00102441
0.000108782
-9.77241e-05
0.00101332
-0.000654914
6.2188e-05
-1.75959e-05
0.000610295
-0.000326969
1.90577e-05
0.00030899
-1.05633e-06
-0.000914637
-5.10465e-05
7.83835e-05
0.00088732
-0.00103239
-9.04738e-05
8.96261e-05
0.00103325
-0.000994264
-8.29833e-05
7.53369e-05
0.00100193
-0.000965813
-6.82479e-05
6.18685e-05
0.00097221
-0.000949709
-5.6029e-05
5.09502e-05
0.000954805
-0.000938513
-4.54993e-05
4.03947e-05
0.000943635
-0.000931098
-3.54853e-05
3.13892e-05
0.000935212
-0.00092572
-2.75458e-05
2.39558e-05
0.000929327
-0.000921783
-2.06876e-05
1.76418e-05
0.000924847
-0.00091875
-1.47882e-05
1.21335e-05
0.000921422
-0.000916437
-9.75283e-06
7.45088e-06
0.000918756
-0.000914445
-5.50942e-06
3.32965e-06
0.000916641
-0.000912538
-1.19714e-06
-6.73612e-07
0.000914424
-0.000911126
2.40073e-06
-3.97299e-06
0.000912713
-0.000909635
5.40284e-06
-6.57859e-06
0.000910824
-0.000908424
7.91309e-06
-8.89274e-06
0.000909416
-0.00090676
9.42342e-06
-1.10037e-05
0.00090835
-0.000906627
1.19219e-05
-1.12828e-05
0.000905996
-0.00090706
1.43376e-05
-1.64268e-05
0.000909155
-0.000907454
1.60285e-05
-1.62654e-05
0.000907694
-0.00090636
1.57382e-05
-1.53654e-05
0.000905986
-0.000905448
1.48446e-05
-1.39613e-05
0.000904561
-0.000904283
1.30256e-05
-1.2061e-05
0.000903311
-0.000903654
1.09078e-05
-9.81522e-06
0.00090255
-0.000905632
8.91966e-06
-7.43658e-06
0.000904134
-0.000903107
5.89519e-06
-4.34648e-06
0.00090154
-0.000907823
2.88044e-06
-1.66465e-06
0.000906585
-0.000904808
5.17569e-07
9.46295e-07
0.000903318
-0.000904618
-2.37981e-06
3.95549e-06
0.000903013
-0.000905834
-5.50257e-06
6.17374e-06
0.000905131
-0.00090447
-7.23674e-06
8.37887e-06
0.000903294
-0.000905339
-9.45813e-06
1.03887e-05
0.000904372
-0.000906488
-1.11296e-05
1.18745e-05
0.000905705
-0.000907588
-1.23989e-05
1.28471e-05
0.0009071
-0.000908977
-1.29695e-05
1.27114e-05
0.000909194
-0.000913723
-1.15272e-05
1.03621e-05
0.000914846
-0.000912351
-1.09523e-05
1.08593e-05
0.000912401
-0.000913119
-1.01396e-05
9.33835e-06
0.000913877
-0.000914746
-8.40996e-06
7.20092e-06
0.000915911
-0.000916457
-5.86509e-06
4.4489e-06
0.00091783
-0.000918298
-2.90537e-06
1.17899e-06
0.000919981
-0.00092033
7.80781e-07
-2.82796e-06
0.000922334
-0.000922548
5.0155e-06
-7.50305e-06
0.000924993
-0.000925285
1.00427e-05
-1.27955e-05
0.000927995
-0.000928528
1.58215e-05
-1.89799e-05
0.000931645
-0.000932659
2.24378e-05
-2.60532e-05
0.000936234
-0.000937981
2.98945e-05
-3.41335e-05
0.000942181
-0.000945336
3.8531e-05
-4.26599e-05
0.000949427
-0.00095472
4.6889e-05
-5.22881e-05
0.000960083
-0.000969691
5.81524e-05
-6.44525e-05
0.000975956
-0.000992314
7.10912e-05
-7.84089e-05
0.000999598
-0.00102676
8.58969e-05
-9.1445e-05
0.00103228
-0.000998213
8.92171e-05
-7.17377e-05
0.000980705
-0.000573818
3.99676e-05
-1.0027e-05
0.000543849
-0.000294091
1.31879e-05
0.000281649
-7.24173e-07
-0.000861179
-3.73132e-05
6.16852e-05
0.000836827
-0.00103171
-7.64363e-05
7.98137e-05
0.00102835
-0.00100888
-7.63017e-05
7.03e-05
0.00101489
-0.000978171
-6.40912e-05
5.82102e-05
0.000984068
-0.000960004
-5.29691e-05
4.79685e-05
0.000965021
-0.000948127
-4.32362e-05
3.88608e-05
0.000952519
-0.000939823
-3.46985e-05
3.07522e-05
0.000943787
-0.000933798
-2.69944e-05
2.36406e-05
0.000937169
-0.000928088
-1.94265e-05
1.53992e-05
0.000932133
-0.000924199
-1.1124e-05
8.26004e-06
0.00092708
-0.000920993
-5.54794e-06
3.00083e-06
0.000923557
-0.000918459
-7.01463e-07
-1.438e-06
0.000920615
-0.000916443
3.22961e-06
-4.76058e-06
0.00091799
-0.000914324
6.04476e-06
-7.77624e-06
0.00091607
-0.00091253
9.86168e-06
-1.14754e-05
0.000914157
-0.000910198
1.26243e-05
-1.47072e-05
0.000912293
-0.000909499
1.61054e-05
-1.58097e-05
0.000909214
-0.000909361
1.94152e-05
-2.09821e-05
0.000910936
-0.000909421
2.13472e-05
-2.22935e-05
0.000910374
-0.000907284
2.22305e-05
-2.20749e-05
0.000907132
-0.000905437
2.17224e-05
-2.10641e-05
0.000904779
-0.000903577
2.00067e-05
-1.9115e-05
0.000902682
-0.000902107
1.78683e-05
-1.6464e-05
0.000900697
-0.000901719
1.4897e-05
-1.3444e-05
0.000900256
-0.000901735
1.22941e-05
-1.00566e-05
0.000899484
-0.000899623
7.84252e-06
-5.69647e-06
0.00089746
-0.000905091
3.6294e-06
-1.8236e-06
0.000903264
-0.000901612
-1.44416e-08
2.08183e-06
0.000899519
-0.00090054
-4.19504e-06
6.36537e-06
0.000898341
-0.000905272
-8.69727e-06
9.61125e-06
0.000904327
-0.000902062
-1.10205e-05
1.25726e-05
0.000900477
-0.000903265
-1.40373e-05
1.53049e-05
0.000901962
-0.000904925
-1.64248e-05
1.7311e-05
0.000904001
-0.000906761
-1.80287e-05
1.85218e-05
0.000906228
-0.000910102
-1.88409e-05
1.84405e-05
0.000910462
-0.000914412
-1.73746e-05
1.75712e-05
0.000914174
-0.000912818
-1.72974e-05
1.67073e-05
0.000913366
-0.000914732
-1.58563e-05
1.4798e-05
0.000915748
-0.000917096
-1.3687e-05
1.22757e-05
0.000918465
-0.000919439
-1.08197e-05
9.06968e-06
0.000921146
-0.00092191
-7.28119e-06
5.20289e-06
0.000923947
-0.000924486
-3.09044e-06
6.88602e-07
0.000926846
-0.000927478
1.74758e-06
-4.37161e-06
0.00093006
-0.000930832
7.13548e-06
-1.01947e-05
0.00093385
-0.00093486
1.32988e-05
-1.67063e-05
0.000938228
-0.00093986
2.01679e-05
-2.3944e-05
0.000943598
-0.000945961
2.66635e-05
-3.0118e-05
0.000949378
-0.000953809
3.45726e-05
-3.90577e-05
0.000958258
-0.000965436
4.38496e-05
-4.86893e-05
0.000970241
-0.000981742
5.4081e-05
-5.95701e-05
0.000987198
-0.00100628
6.54754e-05
-7.14883e-05
0.00101226
-0.00103573
7.68859e-05
-7.87559e-05
0.00103757
-0.000962329
7.22328e-05
-5.37181e-05
0.000943786
-0.000518969
2.76828e-05
-6.7671e-06
0.000498025
-0.000271076
9.64638e-06
0.000261977
-5.25428e-07
-0.000814309
-2.80172e-05
4.88166e-05
0.00079353
-0.00102349
-6.37743e-05
6.96498e-05
0.00101763
-0.00102021
-6.84703e-05
6.40576e-05
0.00102464
-0.000989593
-5.86818e-05
5.32901e-05
0.000995001
-0.000969868
-4.83077e-05
4.36072e-05
0.000974585
-0.000956915
-3.91148e-05
3.48107e-05
0.000961236
-0.000947607
-3.07651e-05
2.67726e-05
0.000951616
-0.000940658
-2.3126e-05
1.94182e-05
0.000944382
-0.000935309
-1.61523e-05
1.2822e-05
0.000938657
-0.000931191
-9.82518e-06
6.97e-06
0.000934063
-0.000927673
-4.23994e-06
1.54972e-06
0.00093038
-0.000922894
2.13858e-06
-5.88037e-06
0.000926652
-0.000919868
9.48201e-06
-1.30273e-05
0.000923429
-0.000917234
1.60145e-05
-1.79174e-05
0.000919152
-0.000915099
1.9357e-05
-2.0012e-05
0.000915768
-0.000914897
1.93786e-05
-1.70646e-05
0.000912595
-0.000913212
2.48809e-05
-2.70839e-05
0.000915426
-0.000911556
2.799e-05
-2.89445e-05
0.00091252
-0.000910322
2.87527e-05
-2.86259e-05
0.000910202
-0.000907144
2.94352e-05
-2.95818e-05
0.000907296
-0.000904021
2.90729e-05
-2.8311e-05
0.000903262
-0.000901465
2.71795e-05
-2.57523e-05
0.000900037
-0.000899058
2.40953e-05
-2.22233e-05
0.000897182
-0.0008984
2.01459e-05
-1.79172e-05
0.000896163
-0.000897267
1.5727e-05
-1.31431e-05
0.000894671
-0.000894975
1.03362e-05
-7.44606e-06
0.000892069
-0.000901085
4.58398e-06
-1.9665e-06
0.000898447
-0.000897068
-6.65405e-07
3.54858e-06
0.000894161
-0.000895915
-6.48804e-06
9.29707e-06
0.000893079
-0.000902619
-1.18511e-05
1.38004e-05
0.000900639
-0.000898621
-1.60406e-05
1.8172e-05
0.000896457
-0.000900478
-2.01125e-05
2.18096e-05
0.000898746
-0.000902959
-2.32721e-05
2.45463e-05
0.000901648
-0.000905635
-2.53846e-05
2.58403e-05
0.000905141
-0.000911506
-2.49773e-05
2.30497e-05
0.000913394
-0.000913587
-2.43564e-05
2.51841e-05
0.000912719
-0.000913997
-2.49102e-05
2.40878e-05
0.000914779
-0.000916876
-2.307e-05
2.18167e-05
0.000918088
-0.000919866
-2.04906e-05
1.89446e-05
0.000921371
-0.000922796
-1.72408e-05
1.51311e-05
0.000924865
-0.000925927
-1.31796e-05
1.08357e-05
0.000928231
-0.000929248
-8.35778e-06
5.80326e-06
0.000931762
-0.000932877
-3.01941e-06
1.66186e-07
0.000935691
-0.000936877
2.91167e-06
-6.054e-06
0.00093998
-0.000941674
9.10959e-06
-1.14025e-05
0.000943929
-0.000946241
1.47417e-05
-1.84495e-05
0.000949912
-0.000953381
2.22774e-05
-2.63778e-05
0.000957446
-0.00096272
3.04992e-05
-3.47884e-05
0.000966974
-0.000975091
3.9325e-05
-4.40415e-05
0.000979773
-0.00099251
4.89299e-05
-5.41534e-05
0.000997701
-0.00101784
6.00091e-05
-6.52351e-05
0.00102304
-0.00103807
6.87952e-05
-6.86234e-05
0.00103787
-0.000925667
6.08159e-05
-4.35217e-05
0.000908345
-0.000479954
2.20326e-05
-5.86242e-06
0.000463755
-0.000254154
7.23068e-06
0.00024734
-3.93056e-07
-0.000774631
-2.14484e-05
3.86757e-05
0.000757425
-0.00101064
-5.27411e-05
6.0014e-05
0.00100339
-0.00102833
-6.09412e-05
5.7823e-05
0.00103146
-0.00100008
-5.32328e-05
4.8251e-05
0.00100508
-0.000979623
-4.35221e-05
3.93366e-05
0.000983825
-0.000965486
-3.4773e-05
3.04656e-05
0.00096981
-0.000955496
-2.61613e-05
2.19743e-05
0.0009597
-0.000948023
-1.75638e-05
1.38984e-05
0.000951706
-0.000941959
-1.03236e-05
6.85669e-06
0.000945443
-0.000937026
-3.58713e-06
4.29017e-07
0.000940201
-0.000932996
2.52713e-06
-5.36552e-06
0.000935851
-0.000929732
7.89029e-06
-1.0082e-05
0.00093194
-0.000925818
1.30818e-05
-1.6247e-05
0.000928999
-0.000922253
1.81446e-05
-2.04965e-05
0.00092462
-0.000920047
2.40178e-05
-2.5508e-05
0.000921551
-0.000914358
2.56385e-05
-3.54129e-05
0.000924146
-0.000915975
3.58361e-05
-3.74727e-05
0.000917623
-0.000912946
3.80491e-05
-3.85729e-05
0.00091348
-0.00091022
3.88229e-05
-3.8377e-05
0.000909783
-0.000907512
3.74285e-05
-3.81123e-05
0.000908202
-0.000902193
3.84543e-05
-3.77644e-05
0.000901507
-0.000898472
3.63284e-05
-3.45189e-05
0.000896664
-0.000895052
3.24005e-05
-2.99019e-05
0.000892552
-0.000893607
2.71348e-05
-2.41284e-05
0.000890595
-0.000891684
2.10593e-05
-1.75537e-05
0.000888169
-0.000888685
1.37541e-05
-9.78964e-06
0.000884706
-0.000895321
5.81557e-06
-2.10113e-06
0.000891588
-0.000890765
-1.64552e-06
5.61645e-06
0.000886771
-0.000889779
-9.63269e-06
1.34917e-05
0.000885893
-0.000898154
-1.70341e-05
2.01486e-05
0.00089501
-0.000893971
-2.29193e-05
2.57124e-05
0.000891145
-0.000896796
-2.82762e-05
3.04724e-05
0.000894566
-0.000900302
-3.2338e-05
3.38335e-05
0.00089877
-0.000904881
-3.47098e-05
3.38439e-05
0.00090571
-0.000914293
-3.21906e-05
3.39157e-05
0.000912529
-0.000912216
-3.53359e-05
3.51514e-05
0.000912362
-0.000915571
-3.45122e-05
3.33794e-05
0.000916665
-0.000919339
-3.222e-05
3.07011e-05
0.000920819
-0.000923238
-2.90831e-05
2.72356e-05
0.000925047
-0.000926901
-2.51135e-05
2.27893e-05
0.000929186
-0.000930599
-2.0415e-05
1.77583e-05
0.000933218
-0.000934538
-1.50763e-05
1.21256e-05
0.000937451
-0.000938749
-9.1657e-06
6.57947e-06
0.000941298
-0.000942369
-4.31071e-06
1.0696e-06
0.000945573
-0.000947502
2.47032e-06
-6.03706e-06
0.000951033
-0.000953733
9.79464e-06
-1.36763e-05
0.00095758
-0.000961511
1.78552e-05
-2.24842e-05
0.000966106
-0.0009714
2.68805e-05
-3.19514e-05
0.000976438
-0.00098448
3.75771e-05
-4.25823e-05
0.000989454
-0.00100332
4.70387e-05
-5.08484e-05
0.0010071
-0.00102816
5.39154e-05
-5.72838e-05
0.0010315
-0.00103503
5.90758e-05
-5.62269e-05
0.00103215
-0.000891104
4.63619e-05
-3.09407e-05
0.000875655
-0.000450491
1.45222e-05
-3.20859e-06
0.000439149
-0.000241435
5.50422e-06
0.000236252
-2.97777e-07
-0.000741699
-1.66195e-05
3.07286e-05
0.000727612
-0.000995718
-4.34772e-05
5.12434e-05
0.000987968
-0.00103398
-5.32968e-05
5.14551e-05
0.00103583
-0.00100988
-4.75928e-05
4.30926e-05
0.0010144
-0.000988282
-3.87689e-05
3.42524e-05
0.000992815
-0.000973993
-2.98615e-05
2.54771e-05
0.000978394
-0.000963697
-2.11694e-05
1.66207e-05
0.000968262
-0.000955751
-1.27741e-05
8.99906e-06
0.000959543
-0.000949427
-5.27847e-06
1.73663e-06
0.000952985
-0.000944217
1.74644e-06
-5.04573e-06
0.000947532
-0.00093884
9.11354e-06
-1.30885e-05
0.000942831
-0.00093451
1.71876e-05
-2.15953e-05
0.000938933
-0.000930713
2.47569e-05
-2.72771e-05
0.000933248
-0.000928622
2.91631e-05
-2.93618e-05
0.000928835
-0.000921969
3.00613e-05
-4.09492e-05
0.000932871
-0.000923927
4.10722e-05
-4.38388e-05
0.000926706
-0.000919888
4.61406e-05
-4.76674e-05
0.000921428
-0.000914566
4.92415e-05
-5.06142e-05
0.00091595
-0.000909518
5.17498e-05
-5.23206e-05
0.0009101
-0.000907103
5.19095e-05
-5.07756e-05
0.000905978
-0.000901112
5.05444e-05
-5.02426e-05
0.000900817
-0.00089473
4.8682e-05
-4.63088e-05
0.000892361
-0.000889753
4.35513e-05
-4.03225e-05
0.000886525
-0.000887143
3.66725e-05
-3.26328e-05
0.0008831
-0.000884089
2.83644e-05
-2.36548e-05
0.000879372
-0.000880061
1.8454e-05
-1.30315e-05
0.000874626
-0.000887147
7.5264e-06
-2.24224e-06
0.000881845
-0.000882077
-3.06595e-06
8.59984e-06
0.000876521
-0.000881414
-1.40811e-05
1.92994e-05
0.000876169
-0.000891302
-2.40668e-05
2.84533e-05
0.000886886
-0.00088825
-3.25774e-05
3.62869e-05
0.000884509
-0.000892053
-3.9317e-05
4.21058e-05
0.000889231
-0.000897291
-4.44158e-05
4.59391e-05
0.000895733
-0.000906879
-4.57559e-05
4.46225e-05
0.000907976
-0.000910351
-4.6573e-05
4.79615e-05
0.000908926
-0.000912832
-4.80093e-05
4.73895e-05
0.000913416
-0.000917726
-4.63493e-05
4.50776e-05
0.000918961
-0.000922499
-4.34473e-05
4.153e-05
0.00092438
-0.000927171
-3.94014e-05
3.71322e-05
0.000929404
-0.000931589
-3.45876e-05
3.19463e-05
0.000934194
-0.000936043
-2.90598e-05
2.61088e-05
0.000938958
-0.000940237
-2.37917e-05
2.12222e-05
0.000942771
-0.000944009
-1.78252e-05
1.43015e-05
0.000947498
-0.000949229
-1.04949e-05
6.1591e-06
0.000953529
-0.000954986
-1.96278e-06
-2.75989e-06
0.000959674
-0.000961721
8.18539e-06
-1.26482e-05
0.00096615
-0.000971725
1.57643e-05
-1.78733e-05
0.000973801
-0.00097974
2.10866e-05
-2.49179e-05
0.00098354
-0.000993016
2.85787e-05
-3.27748e-05
0.000997182
-0.00101152
3.71587e-05
-4.14906e-05
0.00101583
-0.00103501
4.57034e-05
-4.89687e-05
0.00103825
-0.00102896
4.97272e-05
-4.60463e-05
0.00102525
-0.000861361
3.68291e-05
-2.37467e-05
0.000848253
-0.000429428
1.07688e-05
-2.29465e-06
0.000420928
-0.00023174
4.23231e-06
0.000227758
-2.27512e-07
-0.000714587
-1.29838e-05
2.46249e-05
0.000702968
-0.000980341
-3.57022e-05
4.32792e-05
0.00097278
-0.00103732
-4.61598e-05
4.52034e-05
0.00103829
-0.00101908
-4.198e-05
3.80449e-05
0.00102303
-0.000997309
-3.35312e-05
2.91731e-05
0.00100168
-0.00098247
-2.46727e-05
2.02565e-05
0.000986902
-0.000972004
-1.55604e-05
1.15656e-05
0.000976015
-0.000963833
-7.59417e-06
3.76655e-06
0.000967677
-0.000957389
1.4851e-07
-3.81353e-06
0.00096107
-0.000951084
7.56103e-06
-1.18985e-05
0.000955437
-0.000946048
1.63051e-05
-2.09695e-05
0.000950728
-0.000941584
2.58969e-05
-2.95936e-05
0.000945296
-0.000937787
3.2699e-05
-3.50903e-05
0.000940192
-0.000934034
3.58349e-05
-3.71222e-05
0.000935334
-0.000933898
4.99477e-05
-5.2393e-05
0.000936356
-0.000929035
5.54287e-05
-5.71314e-05
0.00093075
-0.00092396
5.88408e-05
-6.08453e-05
0.000925977
-0.00091735
6.32714e-05
-6.52811e-05
0.000919372
-0.000910856
6.66068e-05
-6.74051e-05
0.000911666
-0.00090487
6.77338e-05
-6.69657e-05
0.000904112
-0.000901154
6.51558e-05
-6.46121e-05
0.00090062
-0.000890135
6.43017e-05
-6.23274e-05
0.000888168
-0.000882802
5.908e-05
-5.50533e-05
0.00087878
-0.000878163
5.01281e-05
-4.35961e-05
0.000871632
-0.00087443
3.56367e-05
-3.08895e-05
0.000869679
-0.000868261
2.5e-05
-1.76811e-05
0.000860933
-0.000875529
9.99015e-06
-2.41525e-06
0.000867939
-0.000869997
-5.18926e-06
1.29116e-05
0.000862254
-0.000870348
-2.02774e-05
2.59823e-05
0.000864617
-0.000881002
-3.03032e-05
3.85569e-05
0.000872719
-0.000880181
-4.54655e-05
5.05687e-05
0.000875046
-0.000886266
-5.47825e-05
5.79549e-05
0.000883061
-0.000894829
-5.98653e-05
5.91464e-05
0.000895514
-0.000907233
-5.83286e-05
6.18307e-05
0.000903697
-0.000908035
-6.40916e-05
6.43738e-05
0.00090772
-0.000914224
-6.363e-05
6.25329e-05
0.000915289
-0.000920556
-6.09712e-05
5.90486e-05
0.000922446
-0.000926439
-5.68352e-05
5.44359e-05
0.000928806
-0.00093192
-5.18131e-05
4.88601e-05
0.00093484
-0.000937178
-4.5953e-05
4.34133e-05
0.000939685
-0.000941274
-4.0426e-05
3.65581e-05
0.000945109
-0.000946479
-3.17847e-05
2.67806e-05
0.00095145
-0.000951611
-2.08816e-05
1.64227e-05
0.000956037
-0.000959272
-1.3581e-05
1.19312e-05
0.000960889
-0.000962509
-8.91074e-06
5.20498e-06
0.000966182
-0.000969166
-1.80688e-06
-2.0637e-06
0.000973005
-0.000977322
6.05159e-06
-1.01942e-05
0.000981434
-0.000987697
1.43474e-05
-1.85537e-05
0.000991873
-0.00100135
2.27832e-05
-2.70785e-05
0.00100562
-0.00102016
3.12803e-05
-3.55528e-05
0.0010244
-0.00104104
3.93934e-05
-4.20149e-05
0.00104363
-0.00102119
4.18814e-05
-3.7815e-05
0.0010171
-0.000836139
2.92362e-05
-1.81801e-05
0.000825058
-0.000413499
7.98517e-06
-1.56308e-06
0.000407051
-0.000224246
3.23817e-06
0.000221206
-1.75191e-07
-0.000692348
-1.02015e-05
1.98e-05
0.000682772
-0.00096542