/*--------------------------------*- C++ -*----------------------------------*\
  =========                 |
  \\      /  F ield         | OpenFOAM: The Open Source CFD Toolbox
   \\    /   O peration     | Website:  https://openfoam.org
    \\  /    A nd           | Version:  7
     \\/     M anipulation  |
\*---------------------------------------------------------------------------*/
FoamFile
{
    version     2.0;
    format      ascii;
    class       volVectorField;
    location    "40";
    object      U;
}
// * * * * * * * * * * * * * * * * * * * * * * * * * * * * * * * * * * * * * //

dimensions      [0 1 -1 0 0 0 0];

internalField   nonuniform List<vector> 
17475
(
(1.01823 0.205788 -1.61945e-20)
(0.995991 0.0223521 -2.55754e-20)
(0.999787 0.00972502 0)
(0.999943 0.0048648 0)
(0.999981 0.00302108 0)
(0.999992 0.00205808 0)
(0.999996 0.00146978 0)
(0.999997 0.00107249 0)
(0.999998 0.000785604 -5.21874e-20)
(0.999999 0.000568585 0)
(0.999999 0.000398735 0)
(0.999999 0.000262795 0)
(0.999999 0.00015247 0)
(0.999999 6.24006e-05 0)
(0.999999 -1.09359e-05 0)
(0.999999 -6.98048e-05 0)
(0.999999 -0.000115836 0)
(0.999999 -0.000150068 0)
(0.999999 -0.000173382 0)
(0.999999 -0.000186368 0)
(0.999999 -0.000189686 -2.02912e-19)
(0.999999 -0.000184004 5.63148e-22)
(0.999999 -0.00017013 0)
(1 -0.000148789 -6.43184e-21)
(1 -0.000121417 0)
(1 -8.83358e-05 -1.29092e-20)
(1 -5.23895e-05 0)
(1 -1.43999e-05 0)
(1 2.39201e-05 -1.62082e-21)
(1 6.10321e-05 5.18068e-20)
(1 9.52726e-05 5.09578e-20)
(1 0.000125187 0)
(1 0.000149359 0)
(1 0.000166636 -5.12127e-20)
(1 0.000175942 -5.11071e-20)
(1 0.000176436 0)
(1 0.00016732 -3.95429e-22)
(1 0.000147928 0)
(1 0.000117522 5.01576e-20)
(1 7.50463e-05 2.50182e-20)
(1 1.98121e-05 -2.49646e-20)
(1 -4.93724e-05 0)
(1 -0.000134641 -2.50076e-20)
(1 -0.000239141 0)
(0.999999 -0.000367731 -1.26248e-20)
(0.999999 -0.000527739 0)
(0.999999 -0.000730659 2.60365e-20)
(0.999998 -0.000994843 0)
(0.999997 -0.0013506 0)
(0.999994 -0.00184951 0)
(0.999991 -0.00258132 0)
(0.999987 -0.00368674 -1.60098e-20)
(0.999951 -0.00537763 3.56739e-20)
(0.998955 -0.00294302 3.9392e-20)
(1.02903 -0.0897347 -3.89534e-20)
(0.871264 0.079012 1.98319e-20)
(1.10031 0.0970322 0)
(1.03487 0.0582492 0)
(1.0151 0.0370479 0)
(1.00792 0.024986 -1.39676e-19)
(1.00478 0.0176104 -1.33926e-19)
(1.00318 0.0127544 1.27328e-19)
(1.00227 0.00934412 0)
(1.00171 0.00682211 0)
(1.00133 0.00488264 0)
(1.00106 0.00334644 0)
(1.00087 0.00210432 0)
(1.00071 0.00108683 0)
(1.00059 0.000248889 0)
(1.00048 -0.000439085 0)
(1.00039 -0.000996809 0)
(1.0003 -0.00143772 0)
(1.00022 -0.0017708 0)
(1.00014 -0.00200283 0)
(1.00007 -0.00213915 0)
(1 -0.00218501 0)
(0.999937 -0.00214603 0)
(0.999877 -0.00202785 2.51453e-19)
(0.999825 -0.00184083 -6.29158e-20)
(0.999782 -0.00159071 -1.26765e-19)
(0.999748 -0.00129137 1.55182e-22)
(0.999724 -0.000957193 -1.59758e-20)
(0.99971 -0.000602435 0)
(0.999709 -0.000241044 -8.03215e-21)
(0.999718 0.0001111 8.0418e-21)
(0.999739 0.000439303 -1.28753e-19)
(0.99977 0.000729346 1.3073e-19)
(0.99981 0.000968578 0)
(0.999859 0.00114585 -2.5643e-19)
(0.999914 0.00125147 1.99834e-21)
(0.999975 0.00127719 2.549e-19)
(1.00004 0.00121588 0)
(1.00011 0.00106113 1.26553e-19)
(1.00019 0.000806419 0)
(1.00027 0.000443051 -1.26035e-19)
(1.00037 -3.76464e-05 1.25863e-19)
(1.00047 -0.000648601 0)
(1.00059 -0.00140898 0)
(1.00074 -0.00234729 0)
(1.00093 -0.00350621 9.4027e-23)
(1.00118 -0.00495052 6.46702e-20)
(1.00153 -0.00677981 -6.58041e-20)
(1.00203 -0.00915152 -3.34682e-20)
(1.00279 -0.012322 0)
(1.004 -0.0167253 0)
(1.00602 -0.0231373 0)
(1.00956 -0.0330184 -3.76129e-20)
(1.01614 -0.0497087 3.90508e-20)
(1.0282 -0.0728747 2.39636e-21)
(1.0705 -0.178208 2.79954e-21)
(0.609913 0.0195975 1.02524e-20)
(1.13941 0.106339 -1.48312e-20)
(1.0786 0.0751516 -6.16096e-20)
(1.04117 0.0539681 0)
(1.02471 0.0397416 0)
(1.01613 0.0296471 -1.23044e-19)
(1.01124 0.0222325 0)
(1.00824 0.0166387 0)
(1.00629 0.0123048 0)
(1.00496 0.00886552 2.37142e-19)
(1.004 0.00608177 0)
(1.00327 0.00379591 0)
(1.0027 0.00190225 0)
(1.00223 0.000330427 0)
(1.00183 -0.000967253 0)
(1.00147 -0.00202281 -2.37233e-19)
(1.00114 -0.00285774 0)
(1.00083 -0.00348684 0)
(1.00054 -0.00392078 0)
(1.00026 -0.0041684 0)
(0.999999 -0.00423855 4.9282e-19)
(0.999753 -0.0041402 0)
(0.999527 -0.00388702 1.87853e-19)
(0.999329 -0.00349029 -1.26238e-19)
(0.999161 -0.00297386 0)
(0.99903 -0.00235974 -3.19639e-20)
(0.998941 -0.00167473 0)
(0.998895 -0.000948705 4.02215e-20)
(0.998893 -0.000210975 2.42073e-20)
(0.998936 0.00050581 0)
(0.999022 0.0011728 -1.1315e-19)
(0.999148 0.00176085 4.0398e-21)
(0.99931 0.00224495 -2.01735e-21)
(0.999503 0.00260326 -1.28443e-19)
(0.999722 0.00281707 1.27957e-19)
(0.999963 0.00287107 0)
(1.00022 0.00275249 2.45729e-19)
(1.0005 0.00245034 -2.52445e-19)
(1.0008 0.00195362 2.68053e-19)
(1.00112 0.00124873 0)
(1.00148 0.000321076 3.14713e-20)
(1.00188 -0.000851216 -2.41561e-22)
(1.00234 -0.0022996 1.25273e-19)
(1.0029 -0.00407059 -3.74769e-22)
(1.00361 -0.00623329 -6.28144e-20)
(1.00453 -0.0088897 0)
(1.0058 -0.0121933 0)
(1.00759 -0.0163762 3.2004e-20)
(1.01027 -0.021797 -3.29717e-20)
(1.01443 -0.029019 -5.06889e-22)
(1.02123 -0.0389414 1.01065e-19)
(1.03289 -0.0530382 -6.91588e-20)
(1.05398 -0.0735688 6.78189e-20)
(1.10034 -0.105359 0)
(0.96309 -0.117814 3.52708e-20)
(0.481314 0.00951808 0)
(1.11608 0.0896446 0)
(1.11503 0.0800012 2.65973e-20)
(1.06612 0.060639 0)
(1.04276 0.04683 1.13832e-19)
(1.02974 0.0362943 0)
(1.02172 0.0280031 0)
(1.01648 0.0213649 0)
(1.0129 0.0159681 0)
(1.01034 0.0115206 0)
(1.00844 0.00781539 0)
(1.00698 0.00470318 0)
(1.0058 0.00208041 2.30816e-19)
(1.00482 -0.000126207 0)
(1.00396 -0.00196655 0)
(1.00319 -0.00347408 0)
(1.00248 -0.00467115 0)
(1.0018 -0.00557224 0)
(1.00116 -0.00618786 0)
(1.00054 -0.00652655 -2.42093e-19)
(0.999958 -0.00659659 0)
(0.999407 -0.00641156 0)
(0.998901 -0.00598204 -1.25286e-19)
(0.998455 -0.00533522 0)
(0.99808 -0.0045005 -1.91524e-19)
(0.997788 -0.00351333 3.19375e-20)
(0.997589 -0.00241499 -1.29074e-19)
(0.99749 -0.00125189 2.53144e-22)
(0.997494 -7.01002e-05 6.5078e-20)
(0.997601 0.00107536 4.87606e-20)
(0.997805 0.00214222 1.29988e-19)
(0.998099 0.003082 4.04746e-21)
(0.998474 0.00385691 0)
(0.998917 0.00443429 -2.78435e-22)
(0.999416 0.00478704 0)
(0.999963 0.004894 -1.19032e-19)
(1.00055 0.00473886 -1.26277e-19)
(1.00117 0.00430884 1.25705e-19)
(1.00183 0.00359123 2.50255e-19)
(1.00254 0.00257279 1.01491e-19)
(1.0033 0.00123859 -3.11561e-20)
(1.00416 -0.000434442 -6.19152e-20)
(1.00514 -0.00248027 0)
(1.0063 -0.0049487 0)
(1.00775 -0.00791252 -6.15233e-20)
(1.0096 -0.0114766 6.14825e-20)
(1.01207 -0.0157912 1.53917e-19)
(1.0155 -0.0210703 3.11689e-20)
(1.02044 -0.0276179 -1.65024e-22)
(1.0278 -0.035863 -3.06645e-20)
(1.0392 -0.0464013 1.22992e-19)
(1.05757 -0.0601237 -9.14121e-20)
(1.08968 -0.0782954 8.65288e-20)
(1.13303 -0.100602 5.52897e-20)
(0.812758 -0.0597747 -1.59021e-20)
(0.401354 0.00535923 0)
(1.06175 0.0685261 -2.41815e-20)
(1.13855 0.0761858 4.72516e-20)
(1.08879 0.0609817 5.02423e-20)
(1.05991 0.0486642 5.22634e-20)
(1.04348 0.0387652 1.06606e-19)
(1.03294 0.0305217 -1.07909e-19)
(1.02576 0.0235774 -1.08956e-19)
(1.02065 0.0176818 0)
(1.01687 0.0126448 -2.20625e-19)
(1.01399 0.00832014 -4.44089e-19)
(1.0117 0.0045979 -2.23565e-19)
(1.00982 0.00139785 -2.25359e-19)
(1.00821 -0.0013384 0)
(1.00679 -0.00364976 0)
(1.00549 -0.00556165 0)
(1.00426 -0.00708874 -4.70271e-19)
(1.0031 -0.00823904 -2.75794e-21)
(1.00197 -0.00901673 -4.81136e-19)
(1.00088 -0.0094239 -2.42099e-19)
(0.999834 -0.00946856 -6.12262e-20)
(0.998843 -0.00915284 1.23858e-19)
(0.997931 -0.00850091 -1.25338e-19)
(0.997122 -0.0075412 1.26776e-19)
(0.99644 -0.00631293 0)
(0.995909 -0.00486395 -6.51082e-20)
(0.995549 -0.00325388 1.30398e-19)
(0.995374 -0.00155 0)
(0.995392 0.000181087 -3.28986e-20)
(0.995597 0.00185647 -1.64682e-20)
(0.995982 0.00341718 -1.30873e-19)
(0.996532 0.00479155 1.2247e-20)
(0.997225 0.00592715 0)
(0.998038 0.00678011 1.37118e-19)
(0.998947 0.00731583 0)
(0.999933 0.00750923 0)
(1.00098 0.0073437 -2.51168e-19)
(1.00209 0.00680969 -6.14817e-20)
(1.00324 0.00589457 1.31708e-19)
(1.00445 0.00459438 1.15832e-19)
(1.00576 0.00289914 -1.37949e-19)
(1.00718 0.000793052 -1.22264e-19)
(1.00879 -0.00174973 -1.51643e-19)
(1.01067 -0.00476885 9.0505e-20)
(1.01294 -0.00832253 1.19812e-19)
(1.01579 -0.0124933 -2.95595e-20)
(1.0195 -0.0173947 0)
(1.02448 -0.0231781 -5.88954e-20)
(1.0314 -0.0300404 -5.84317e-20)
(1.04131 -0.0382357 -2.92899e-20)
(1.05601 -0.04806 -2.78651e-20)
(1.07874 -0.0599428 -8.27594e-20)
(1.11666 -0.0745813 -5.15147e-20)
(1.12259 -0.0825153 0)
(0.693799 -0.0290782 8.47782e-20)
(0.352088 0.00327282 0)
(0.999992 0.0510725 0)
(1.14717 0.0686755 -8.76483e-20)
(1.108 0.0583576 -9.27549e-20)
(1.07535 0.0474568 0)
(1.05643 0.0384082 0)
(1.04404 0.0305757 1.01256e-19)
(1.03534 0.0237006 0)
(1.02896 0.0176436 0)
(1.02411 0.0122959 0)
(1.0203 0.00757159 -2.14722e-19)
(1.0172 0.00340479 -2.1744e-19)
(1.01458 -0.000254013 0)
(1.0123 -0.00343858 0)
(1.01023 -0.00616807 -2.65175e-21)
(1.00831 -0.00845237 0)
(1.00647 -0.0102921 9.2377e-19)
(1.00469 -0.0116817 9.4053e-19)
(1.00295 -0.0126111 -4.77354e-19)
(1.00124 -0.0130764 2.39552e-19)
(0.999575 -0.0130618 3.05031e-19)
(0.997991 -0.0125783 -6.22566e-20)
(0.996522 -0.0116428 3.78042e-19)
(0.995209 -0.0102874 -6.35104e-20)
(0.994097 -0.00856026 3.22365e-22)
(0.993228 -0.00652337 -1.30387e-19)
(0.992641 -0.00425967 1.65759e-19)
(0.99236 -0.00186308 1.32235e-19)
(0.992398 0.000571897 -4.92826e-22)
(0.992749 0.00292531 6.65035e-20)
(0.993395 0.00511517 6.62297e-20)
(0.99431 0.00704139 0)
(0.995453 0.008633 -1.18073e-19)
(0.996781 0.00983506 0)
(0.998252 0.0106063 0)
(0.99983 0.0109212 1.58513e-19)
(1.00149 0.0107691 -1.26188e-19)
(1.00321 0.0101448 0)
(1.00499 0.00904542 7.68182e-21)
(1.00682 0.00748192 0)
(1.00876 0.00545653 0)
(1.01084 0.002968 -1.34919e-19)
(1.01314 6.77195e-06 1.49195e-20)
(1.01577 -0.00344765 1.89343e-22)
(1.01887 -0.00742944 -1.44109e-20)
(1.02267 -0.0119881 -1.43795e-19)
(1.02748 -0.0171914 -1.40619e-20)
(1.03375 -0.0231246 1.26023e-19)
(1.0422 -0.0298911 -1.10536e-19)
(1.05393 -0.0376076 0)
(1.07078 -0.0464125 5.20056e-20)
(1.09632 -0.0565568 8.64592e-22)
(1.13353 -0.0678318 -4.80692e-20)
(1.08925 -0.0646507 -7.27477e-20)
(0.613381 -0.0165512 0)
(0.319143 0.00224452 8.89858e-21)
(0.942381 0.0382184 -2.29046e-20)
(1.14425 0.0599089 4.13028e-20)
(1.12367 0.0542693 0)
(1.0893 0.0446638 0)
(1.06844 0.0363459 -9.24787e-20)
(1.05471 0.0289584 0)
(1.04489 0.0222686 -1.95422e-19)
(1.03752 0.0161881 -1.99221e-19)
(1.03177 0.0106642 0)
(1.02715 0.00565694 -1.035e-19)
(1.0233 0.00114107 2.10697e-19)
(1.01997 -0.00290728 -4.27341e-19)
(1.017 -0.00649662 0)
(1.01426 -0.00962507 0)
(1.01165 -0.0122816 0)
(1.0091 -0.0144452 -3.52792e-21)
(1.00659 -0.016089 0)
(1.00409 -0.0171909 0)
(1.00159 -0.0177095 2.38001e-19)
(0.99914 -0.017628 4.98897e-22)
(0.996776 -0.0169398 0)
(0.994559 -0.0156534 0)
(0.992559 -0.0137994 3.87777e-19)
(0.990852 -0.0114333 2.62494e-19)
(0.989513 -0.00863217 3.33198e-20)
(0.988606 -0.00551995 0)
(0.988177 -0.00221523 2.70699e-19)
(0.988247 0.00114507 1.01625e-19)
(0.98881 0.00438386 -3.14074e-22)
(0.989829 0.00738968 0)
(0.991255 0.0100295 0)
(0.99302 0.0122004 7.56892e-21)
(0.995048 0.0138388 0)
(0.997269 0.0149 0)
(0.999621 0.0153636 2.83438e-23)
(1.00206 0.0152341 -2.47288e-19)
(1.00455 0.0145094 -1.23753e-19)
(1.00707 0.013215 1.21218e-19)
(1.00963 0.0113787 7.42388e-21)
(1.01228 0.00902355 -1.17476e-19)
(1.01506 0.00616862 6.43227e-22)
(1.01808 0.00282587 5.83133e-22)
(1.02144 -0.0010012 1.43632e-20)
(1.02531 -0.00532004 -9.84115e-20)
(1.02995 -0.010148 0)
(1.03566 -0.0155122 -1.22673e-19)
(1.04294 -0.021443 0)
(1.0525 -0.0279844 -5.21943e-20)
(1.06546 -0.0351888 0)
(1.08373 -0.0431365 4.95501e-20)
(1.11098 -0.0520014 -2.12733e-22)
(1.14135 -0.0601575 -2.21979e-20)
(1.04875 -0.0502773 -7.0102e-20)
(0.5586 -0.0110363 3.44111e-20)
(0.295711 0.00162224 0)
(0.892554 0.0290343 -2.24107e-20)
(1.13372 0.0512502 0)
(1.13574 0.0494383 0)
(1.10207 0.0410589 4.2e-20)
(1.07969 0.0332843 7.60105e-22)
(1.06495 0.0262494 0)
(1.05431 0.0197271 -9.18369e-20)
(1.04619 0.0136495 -1.89503e-19)
(1.03975 0.00799094 0)
(1.03445 0.00274066 0)
(1.02993 -0.00210472 0)
(1.02595 -0.00653685 0)
(1.02231 -0.0105411 -3.12572e-19)
(1.01887 -0.014093 -1.05644e-19)
(1.01553 -0.0171581 0)
(1.01221 -0.0196936 1.38053e-20)
(1.00884 -0.0216582 3.36875e-19)
(1.00543 -0.0229768 -9.27004e-22)
(1.00197 -0.0235958 -1.18672e-19)
(0.998512 -0.0234635 0)
(0.99513 -0.0225526 1.24377e-19)
(0.991914 -0.0208503 -2.92483e-22)
(0.988976 -0.018378 1.32455e-19)
(0.986444 -0.0151949 0)
(0.984442 -0.0113959 -6.77433e-20)
(0.983084 -0.00715446 -6.91498e-20)
(0.982445 -0.00263445 1.40146e-19)
(0.982565 0.00196597 7.02316e-20)
(0.983432 0.00638708 -1.38304e-19)
(0.984985 0.010471 0)
(0.987134 0.0140321 -1.7002e-20)
(0.989758 0.0169343 -1.33517e-19)
(0.992736 0.0191046 1.63768e-20)
(0.99595 0.0205004 1.07365e-21)
(0.999304 0.0211196 2.47551e-19)
(1.00272 0.0209853 1.24079e-19)
(1.00614 0.0201139 1.21316e-19)
(1.00953 0.0185714 -1.18054e-19)
(1.01292 0.0164106 0)
(1.01634 0.013682 1.21347e-19)
(1.01985 0.0104307 0)
(1.02357 0.00669338 0)
(1.02761 0.00249796 -1.1053e-19)
(1.03218 -0.00213695 0)
(1.03751 -0.00720091 5.25521e-20)
(1.04394 -0.0126863 1.04051e-19)
(1.05197 -0.0186013 2.59592e-20)
(1.06231 -0.0249544 -9.91381e-20)
(1.07612 -0.0317678 0)
(1.09541 -0.0391111 4.7103e-20)
(1.12324 -0.0470306 0)
(1.14215 -0.0523985 -2.06898e-20)
(1.00845 -0.0391982 4.49702e-20)
(0.518524 -0.00794161 0)
(0.278381 0.00119734 0)
(0.85075 0.0223746 -2.18415e-20)
(1.11896 0.0432821 -3.71314e-20)
(1.14446 0.0442806 3.74578e-20)
(1.11386 0.0370734 -3.88056e-20)
(1.09041 0.0296812 -8.09574e-20)
(1.07488 0.0228652 0)
(1.06364 0.0164324 0)
(1.05498 0.0103129 0)
(1.04801 0.00449557 0)
(1.04218 -0.00101682 1.87842e-19)
(1.03712 -0.0062104 0)
(1.03256 -0.0110612 -3.90967e-19)
(1.02829 -0.0155367 0)
(1.02417 -0.0195888 0)
(1.02007 -0.0231631 3.93043e-19)
(1.01589 -0.0261905 3.20018e-19)
(1.01156 -0.0285771 -1.1216e-19)
(1.00708 -0.0302311 -1.13247e-19)
(1.00245 -0.0310542 1.17066e-19)
(0.997729 -0.0309446 4.85671e-19)
(0.993015 -0.0298311 2.51641e-19)
(0.988456 -0.0276682 -1.28519e-19)
(0.984226 -0.0244477 0)
(0.980528 -0.0202234 1.81432e-21)
(0.977575 -0.0151073 6.96117e-20)
(0.975559 -0.00934202 -7.00522e-20)
(0.974616 -0.0031622 -1.81066e-19)
(0.974814 0.00313668 5.29888e-22)
(0.97613 0.00916479 0)
(0.978462 0.0146893 -7.02174e-20)
(0.981648 0.019448 -1.37508e-19)
(0.985478 0.0232621 1.34285e-19)
(0.989754 0.0260555 -1.30887e-19)
(0.994288 0.0278019 -1.6085e-19)
(0.998939 0.028541 -2.49209e-19)
(1.00357 0.0283083 6.08142e-20)
(1.00809 0.0271853 2.95679e-20)
(1.0125 0.025281 0)
(1.01679 0.0226862 0)
(1.02102 0.0194859 -6.98071e-21)
(1.02527 0.0157558 2.17897e-19)
(1.02966 0.0115586 1.07559e-19)
(1.03433 0.00694567 0)
(1.03947 0.00196241 1.03738e-19)
(1.04537 -0.00336321 2.49492e-20)
(1.05235 -0.00901273 -2.52909e-20)
(1.06091 -0.0149729 6.05686e-21)
(1.0718 -0.0212388 9.24787e-20)
(1.08623 -0.027825 3.62399e-19)
(1.10626 -0.0347923 1.75427e-19)
(1.13344 -0.0419559 -4.12348e-20)
(1.13796 -0.0450333 -4.10026e-20)
(0.971938 -0.0308197 -6.69706e-20)
(0.48904 -0.00581611 1.33755e-19)
(0.265308 0.000896362 0)
(0.816181 0.0174156 -4.24326e-20)
(1.10243 0.0362082 3.52881e-20)
(1.15029 0.0390626 -3.45904e-20)
(1.12478 0.0329413 7.23679e-20)
(1.10081 0.0258257 7.64341e-20)
(1.08466 0.0191063 -1.57788e-19)
(1.073 0.0126678 8.29042e-22)
(1.06398 0.00643598 -8.38111e-20)
(1.05663 0.000397739 -1.74591e-19)
(1.05041 -0.00543766 -1.77267e-19)
(1.04492 -0.0110471 0)
(1.03988 -0.0163974 1.84663e-19)
(1.03508 -0.0214387 0)
(1.03032 -0.0261089 -4.03504e-19)
(1.02547 -0.0303394 -4.89578e-20)
(1.02038 -0.0340313 -2.06852e-19)
(1.01499 -0.0370473 3.22392e-19)
(1.00928 -0.0392467 -4.42269e-19)
(1.00324 -0.040475 0)
(0.996932 -0.0405635 2.40204e-19)
(0.990469 -0.0393449 -3.7417e-19)
(0.984082 -0.0367286 1.2977e-19)
(0.978036 -0.0326405 0)
(0.972655 -0.0271015 -1.39603e-19)
(0.968291 -0.0202314 7.08177e-20)
(0.965286 -0.012371 1.49892e-19)
(0.963882 -0.00386874 1.49022e-19)
(0.964205 0.00481641 -1.50537e-19)
(0.96621 0.0130764 0)
(0.969712 0.0205568 0)
(0.974427 0.0268723 1.75812e-19)
(0.979986 0.0317992 1.71147e-21)
(0.986061 0.0352739 -2.31871e-19)
(0.992371 0.0373273 -3.83732e-19)
(0.998686 0.0380514 6.18829e-20)
(1.0048 0.0375324 -2.98416e-20)
(1.01064 0.0359623 0)
(1.01618 0.0334989 0)
(1.02145 0.0302869 9.64209e-20)
(1.02652 0.0264535 1.19536e-19)
(1.03148 0.0221066 -1.17143e-20)
(1.03647 0.0173395 0)
(1.04167 0.0122237 -1.00105e-19)
(1.04729 0.00681019 7.24589e-20)
(1.0536 0.00113977 1.91467e-19)
(1.06099 -0.00475671 0)
(1.06993 -0.0108518 0)
(1.0812 -0.0171333 5.51403e-21)
(1.09603 -0.0236269 -1.27952e-19)
(1.11651 -0.0303892 1.23461e-19)
(1.14167 -0.0369142 -2.0048e-20)
(1.13093 -0.0382528 1.74402e-19)
(0.940703 -0.0243661 -1.74017e-19)
(0.467584 -0.004417 2.77872e-19)
(0.255336 0.000678872 0)
(0.787784 0.0136403 -2.02453e-20)
(1.08574 0.0300611 4.98516e-20)
(1.15386 0.0339839 -3.22641e-20)
(1.13493 0.0288147 -6.80318e-20)
(1.11105 0.0219131 -1.41317e-19)
(1.09445 0.015194 -7.38915e-20)
(1.08252 0.00866264 -7.6599e-20)
(1.07328 0.00224156 0)
(1.06572 -0.00409035 0)
(1.05925 -0.0103249 0)
(1.05348 -0.0164384 0)
(1.04809 -0.0223956 8.65843e-20)
(1.04284 -0.0281379 -1.78093e-19)
(1.03754 -0.0335951 0)
(1.03198 -0.038708 1.4419e-19)
(1.02601 -0.0433118 -9.78166e-20)
(1.01952 -0.0472424 3.91635e-21)
(1.01243 -0.0503163 2.17856e-19)
(1.00472 -0.0522973 2.71144e-21)
(0.996432 -0.052921 2.40433e-19)
(0.987688 -0.0518801 -2.50382e-19)
(0.978783 -0.0489366 0)
(0.970132 -0.0439255 -1.40155e-19)
(0.962242 -0.036764 -1.47484e-19)
(0.955705 -0.0275555 0)
(0.951144 -0.0167258 -1.57216e-19)
(0.949008 -0.00487183 2.02607e-19)
(0.949538 0.00727588 4.04285e-20)
(0.95265 0.0187289 -2.14673e-19)
(0.957996 0.0289191 -7.66447e-20)
(0.965029 0.037241 -1.26319e-19)
(0.973129 0.0434619 1.38431e-19)
(0.981744 0.0475853 0)
(0.990454 0.0497688 2.54466e-19)
(0.998872 0.0501557 -3.06017e-20)
(1.00679 0.0490276 2.93166e-20)
(1.01415 0.0466779 0)
(1.02094 0.0433475 2.72753e-20)
(1.02721 0.0392468 1.31635e-19)
(1.03308 0.0345506 0)
(1.03868 0.0294053 -9.91776e-20)
(1.04419 0.0239117 -9.54375e-20)
(1.04982 0.0181523 0)
(1.05578 0.0121962 9.12823e-20)
(1.06238 0.00609529 -4.47191e-20)
(1.06998 -0.00012637 0)
(1.07912 -0.00644624 -4.24746e-20)
(1.09059 -0.012855 -8.34689e-20)
(1.10568 -0.019379 -8.09955e-20)
(1.12628 -0.0260406 3.93415e-20)
(1.14831 -0.0320093 1.11738e-19)
(1.12246 -0.0321544 7.43453e-20)
(0.914218 -0.0193235 -1.4746e-19)
(0.451298 -0.00336501 -9.44165e-20)
(0.247654 0.000516543 0)
(0.764538 0.0107262 0)
(1.06987 0.0248081 0)
(1.15577 0.0291991 0)
(1.14436 0.0248185 0)
(1.12124 0.0180947 0)
(1.10438 0.011311 0)
(1.0923 0.00461971 0)
(1.08299 -0.0020573 1.46857e-19)
(1.07537 -0.00875035 0)
(1.06883 -0.0154591 -1.52449e-19)
(1.06293 -0.0221708 0)
(1.05737 -0.0288492 0)
(1.05185 -0.035448 3.37157e-19)
(1.04616 -0.0419182 0)
(1.04002 -0.0481566 0)
(1.03326 -0.0540093 0)
(1.02569 -0.0592852 1.97705e-19)
(1.01716 -0.0637246 -2.04216e-19)
(1.00755 -0.067012 0)
(0.996867 -0.0687545 -1.16521e-19)
(0.985197 -0.0684728 -2.59346e-19)
(0.972813 -0.0656162 0)
(0.960338 -0.0598061 -1.41133e-19)
(0.948579 -0.0507482 3.83006e-21)
(0.938539 -0.0383984 -4.85321e-19)
(0.931375 -0.02327 -1.72313e-19)
(0.928003 -0.00636795 -1.35703e-21)
(0.9289 0.0110146 -8.65148e-20)
(0.933904 0.0272022 1.0459e-20)
(0.942296 0.0411911 1.57814e-19)
(0.953003 0.0520631 1.86714e-20)
(0.964924 0.0596526 4.41097e-21)
(0.977188 0.064184 -7.94581e-19)
(0.989083 0.0659818 1.85912e-19)
(1.00013 0.0654578 2.96352e-20)
(1.01019 0.0631611 5.64209e-20)
(1.01922 0.0595141 2.66553e-20)
(1.02728 0.054871 2.49397e-20)
(1.03451 0.0495174 -2.94379e-19)
(1.04109 0.0436618 -2.78885e-19)
(1.04721 0.0374762 -3.78281e-19)
(1.05309 0.0310747 -8.98343e-20)
(1.05895 0.0245363 0)
(1.06506 0.0179249 2.16898e-20)
(1.07175 0.0112894 0)
(1.07942 0.00465253 -4.06543e-20)
(1.08861 -0.00197175 -3.96981e-20)
(1.10015 -0.00858823 -1.94213e-20)
(1.11538 -0.015229 7.53142e-20)
(1.13575 -0.0218612 0)
(1.1537 -0.0273659 0)
(1.11362 -0.0267823 0)
(0.892139 -0.0153365 1.9716e-20)
(0.438987 -0.00256417 9.11293e-20)
(0.241741 0.000391376 0)
(0.745644 0.0084665 0)
(1.05541 0.0204015 1.4586e-20)
(1.15655 0.0248388 2.75782e-20)
(1.15317 0.0210745 0)
(1.13143 0.0145075 0)
(1.11452 0.00762671 6.17602e-20)
(1.10243 0.000732133 0)
(1.0932 -0.00624502 1.33861e-19)
(1.08569 -0.0133465 0)
(1.07925 -0.0205875 -2.79413e-19)
(1.07344 -0.0279708 -7.11223e-20)
(1.06792 -0.0354756 2.9556e-19)
(1.06237 -0.043076 6.38206e-19)
(1.05652 -0.0507759 -1.6052e-19)
(1.05007 -0.0584418 4.25708e-20)
(1.04276 -0.0659418 8.57927e-20)
(1.0343 -0.073087 0)
(1.02442 -0.0795916 0)
(1.01284 -0.0850336 0)
(0.999388 -0.0888809 1.12515e-19)
(0.984054 -0.0904158 -1.30241e-19)
(0.966991 -0.088689 -8.03759e-19)
(0.948846 -0.0826931 1.44102e-19)
(0.930917 -0.0717046 -3.22918e-19)
(0.914917 -0.055188 -6.95572e-19)
(0.903089 -0.0336251 2.79291e-19)
(0.897459 -0.00868564 -1.95058e-19)
(0.899043 0.016968 -1.91231e-19)
(0.907518 0.0405472 -2.47678e-20)
(0.921269 0.0599357 -8.60348e-20)
(0.938055 0.0738729 -1.59023e-19)
(0.955885 0.082545 -2.92256e-19)
(0.973325 0.0866547 -5.38745e-19)
(0.989345 0.0869871 1.20678e-19)
(1.00358 0.0845629 -1.15632e-19)
(1.01599 0.0801938 8.17132e-20)
(1.02669 0.0745028 -3.02512e-19)
(1.03592 0.0679548 -9.77393e-20)
(1.04393 0.0608901 -9.06193e-20)
(1.05098 0.0535391 1.79269e-19)
(1.05734 0.0460526 0)
(1.06331 0.0385465 -6.27441e-20)
(1.06919 0.0310893 0)
(1.07526 0.0237263 0)
(1.08187 0.0164811 3.96215e-20)
(1.08944 0.00936492 5.77602e-20)
(1.09854 0.00237557 3.65999e-20)
(1.11002 -0.00450598 3.55153e-20)
(1.12521 -0.0113157 3.42574e-20)
(1.14497 -0.0179575 0)
(1.15819 -0.0230887 -1.69455e-20)
(1.10504 -0.0221431 -3.35341e-20)
(0.87386 -0.0121893 7.72968e-20)
(0.429753 -0.00197729 -2.55128e-19)
(0.237121 0.000304282 0)
(0.730237 0.00674049 -1.667e-20)
(1.04256 0.0167771 0)
(1.15668 0.0210028 0)
(1.16142 0.0177009 5.1447e-20)
(1.14161 0.0112793 5.42618e-20)
(1.12489 0.00429291 -2.82413e-20)
(1.11294 -0.00282084 0)
(1.10394 -0.0101077 2.99315e-20)
(1.09672 -0.0176274 -6.0913e-20)
(1.0906 -0.0254154 0)
(1.08511 -0.0334984 -6.36329e-20)
(1.0799 -0.0418959 -2.12216e-21)
(1.07464 -0.0506334 -5.13992e-20)
(1.06898 -0.059713 3.35876e-20)
(1.06263 -0.0690719 -3.79857e-21)
(1.05522 -0.0786362 1.59538e-19)
(1.04634 -0.0882502 0)
(1.03551 -0.0976611 3.51708e-19)
(1.02226 -0.106456 -8.81463e-22)
(1.00603 -0.113943 0)
(0.986442 -0.119167 -3.4906e-19)
(0.963334 -0.120693 -1.28728e-19)
(0.936961 -0.116471 5.79768e-19)
(0.908909 -0.104421 4.67991e-21)
(0.882195 -0.0828329 0)
(0.861284 -0.0512875 1.96085e-19)
(0.85106 -0.0127015 -1.16811e-19)
(0.854108 0.0273757 1.08432e-19)
(0.869565 0.0631164 -4.07349e-19)
(0.893439 0.0900852 1.77098e-19)
(0.920696 0.107002 3.28067e-19)
(0.94774 0.115355 5.69643e-19)
(0.972224 0.116922 -1.2529e-19)
(0.993309 0.113833 -1.27737e-19)
(1.01101 0.107824 1.04641e-19)
(1.02569 0.100062 -3.89002e-19)
(1.03777 0.0913518 2.86098e-19)
(1.04772 0.0821955 8.94699e-20)
(1.05601 0.0729075 0)
(1.06309 0.0637019 1.18325e-19)
(1.06934 0.0546944 -3.61275e-20)
(1.07511 0.0459422 0)
(1.08073 0.0374716 -7.33543e-20)
(1.08653 0.0292879 -7.39249e-20)
(1.09284 0.0213923 7.08255e-20)
(1.10013 0.0137667 -1.7675e-19)
(1.10898 0.00638742 -6.95634e-20)
(1.12026 -0.000782797 3.34288e-20)
(1.13526 -0.00778174 3.2284e-20)
(1.15402 -0.014442 -1.55542e-20)
(1.16202 -0.0192694 -4.58073e-20)
(1.09694 -0.0181955 7.6572e-21)
(0.858303 -0.00967964 -8.97349e-21)
(0.422008 -0.00155464 0)
(0.23346 0.00024087 0)
(0.717641 0.00545618 0)
(1.0313 0.0138981 -2.43012e-20)
(1.15644 0.0177777 0)
(1.16921 0.0148176 -2.30155e-20)
(1.1518 0.00854365 2.38886e-20)
(1.13551 0.00147585 4.96066e-20)
(1.12384 -0.00582919 0)
(1.11522 -0.0133998 1.04188e-19)
(1.10846 -0.0213107 0)
(1.10286 -0.029623 -2.2059e-19)
(1.09795 -0.0383925 -1.12962e-19)
(1.09337 -0.0476836 -3.61719e-21)
(1.08878 -0.0575362 -1.21863e-19)
(1.08381 -0.0680725 1.22004e-19)
(1.07814 -0.0792814 1.29382e-19)
(1.07132 -0.0912034 -6.44104e-20)
(1.06284 -0.103816 -2.13708e-19)
(1.05205 -0.117019 -7.09672e-20)
(1.03808 -0.130528 1.63008e-19)
(1.01995 -0.14381 0)
(0.996454 -0.155766 -1.0683e-20)
(0.966331 -0.164486 2.34676e-19)
(0.928858 -0.166857 0)
(0.884371 -0.157771 0)
(0.837198 -0.131587 4.15151e-19)
(0.79672 -0.0843545 -5.88793e-21)
(0.775971 -0.0203214 7.28722e-21)
(0.782502 0.0474702 -5.28204e-19)
(0.813773 0.104555 4.65474e-19)
(0.858355 0.141494 3.90859e-19)
(0.904143 0.158803 6.59175e-19)
(0.944795 0.162193 4.66256e-19)
(0.978085 0.15685 2.43312e-19)
(1.00455 0.14692 0)
(1.02521 0.134846 0)
(1.04121 0.122011 2.20911e-19)
(1.05365 0.10914 1.65125e-21)
(1.06344 0.0966567 -8.35159e-20)
(1.07133 0.0847414 -7.10038e-20)
(1.07785 0.0734595 -1.40507e-19)
(1.0835 0.0628101 1.0407e-19)
(1.08864 0.0527558 0)
(1.09365 0.0432602 3.37554e-20)
(1.09887 0.0342722 -3.23978e-20)
(1.10466 0.0257419 0)
(1.11147 0.0176265 0)
(1.11989 0.00987334 -1.58798e-21)
(1.13082 0.00242857 0)
(1.14547 -0.00474947 0)
(1.16287 -0.0114271 -2.63539e-22)
(1.16543 -0.0160247 0)
(1.08971 -0.0149919 -4.21364e-20)
(0.84542 -0.00775644 0)
(0.415434 -0.00119815 -6.11519e-20)
(0.230482 0.000213125 0)
(0.707289 0.00456704 3.41508e-21)
(1.0216 0.0117346 2.72497e-21)
(1.1561 0.0152309 0)
(1.17658 0.012525 2.53024e-21)
(1.16193 0.00640753 0)
(1.1463 -0.000697007 0)
(1.13504 -0.00813827 0)
(1.12694 -0.0159217 0)
(1.12081 -0.0241361 0)
(1.11594 -0.0328653 0)
(1.11188 -0.0421978 0)
(1.10827 -0.0522305 0)
(1.10476 -0.0631258 1.50834e-19)
(1.10104 -0.0750106 -5.22842e-20)
(1.09676 -0.0880075 -1.08028e-19)
(1.09148 -0.102304 -1.0933e-19)
(1.08463 -0.118105 4.07391e-21)
(1.07545 -0.135622 -7.0274e-20)
(1.06286 -0.15501 -2.4469e-21)
(1.0453 -0.176261 3.07023e-19)
(1.0205 -0.198951 -1.94544e-19)
(0.985232 -0.221542 0)
(0.935419 -0.240452 2.34292e-19)
(0.866745 -0.247254 -1.32299e-18)
(0.779401 -0.225133 8.40942e-19)
(0.691949 -0.154794 5.47507e-19)
(0.643631 -0.037198 2.1957e-18)
(0.65936 0.0922183 0)
(0.731371 0.1895 1.02534e-18)
(0.821552 0.234291 -1.44443e-18)
(0.899162 0.240018 -4.31162e-19)
(0.957177 0.226759 -1.20209e-19)
(0.99882 0.206482 -6.33292e-19)
(1.02832 0.184601 3.6134e-21)
(1.04931 0.163414 5.26531e-19)
(1.06441 0.143847 -4.1321e-20)
(1.07549 0.126024 2.08655e-19)
(1.08379 0.109895 6.67465e-20)
(1.09019 0.095246 1.23089e-19)
(1.09535 0.0818957 0)
(1.09975 0.0696727 3.09745e-20)
(1.1038 0.058414 5.28475e-20)
(1.10787 0.047987 5.48568e-20)
(1.11223 0.038288 -2.91173e-20)
(1.11727 0.0292172 9.83814e-20)
(1.12342 0.0206907 -2.58704e-20)
(1.13128 0.0126264 -1.13391e-19)
(1.14175 0.00496325 -1.30209e-20)
(1.15586 -0.00235035 -2.66629e-20)
(1.17159 -0.00901184 -2.51817e-20)
(1.16854 -0.0134117 1.32206e-20)
(1.08328 -0.0124993 1.3369e-20)
(0.834593 -0.00637058 7.41249e-22)
(0.410067 -0.00099778 2.91598e-20)
(0.227626 0.000254824 6.73749e-20)
(0.698335 0.00406283 -9.6192e-20)
(1.01305 0.0102651 1.65777e-22)
(1.15571 0.0134009 3.50904e-20)
(1.18359 0.0108936 -3.47795e-20)
(1.17195 0.00496065 -3.56689e-20)
(1.15717 -0.00210386 0)
(1.14642 -0.00958582 1.06881e-22)
(1.13894 -0.017467 -1.86778e-20)
(1.13358 -0.0258461 9.4583e-21)
(1.12962 -0.034828 -9.51846e-21)
(1.12663 -0.0445272 -9.51526e-21)
(1.12428 -0.0550824 4.94439e-21)
(1.12227 -0.066694 1.87404e-20)
(1.12036 -0.0795568 3.3452e-20)
(1.11822 -0.0939241 6.57949e-20)
(1.11552 -0.110155 2.44918e-19)
(1.11181 -0.128694 4.56688e-20)
(1.10638 -0.150149 0)
(1.09823 -0.175386 0)
(1.08586 -0.205453 -9.68238e-20)
(1.06639 -0.241755 3.08565e-20)
(1.0349 -0.285818 -3.72758e-19)
(0.982133 -0.338201 1.78714e-19)
(0.889912 -0.394678 -2.39208e-19)
(0.729186 -0.420362 0)
(0.513492 -0.32969 3.50599e-18)
(0.383331 -0.0813335 -1.17297e-18)
(0.426058 0.210113 -5.21632e-18)
(0.622176 0.386657 2.07217e-18)
(0.813761 0.407128 0)
(0.935532 0.358903 -8.6789e-19)
(1.00453 0.305774 2.9672e-19)
(1.04515 0.259078 2.5258e-19)
(1.07007 0.220366 1.19949e-19)
(1.08593 0.188455 1.09889e-19)
(1.09641 0.16184 1.59725e-19)
(1.10363 0.139273 0)
(1.10866 0.119869 -3.73833e-20)
(1.11237 0.102918 2.94801e-19)
(1.11536 0.08791 0)
(1.11791 0.074463 -1.28944e-21)
(1.12041 0.0623058 -1.13599e-20)
(1.12315 0.0512115 -3.63735e-20)
(1.12639 0.0410058 -1.19627e-20)
(1.13048 0.0315607 2.29409e-20)
(1.13581 0.0227579 -1.18768e-20)
(1.14297 0.0144994 -1.22544e-20)
(1.15285 0.00669929 -7.75067e-22)
(1.16627 -0.000678433 9.07571e-21)
(1.1801 -0.00728377 8.16675e-21)
(1.17152 -0.0115107 -1.65248e-20)
(1.0778 -0.0107423 -2.36116e-20)
(0.825652 -0.00548928 -1.36883e-20)
(0.405656 -0.000922564 -2.54624e-20)
(0.220281 0.000331511 -9.16726e-19)
(0.687337 0.00389606 0)
(1.00384 0.00935406 -2.55201e-19)
(1.15481 0.0122151 2.32568e-19)
(1.19021 0.00993837 2.30921e-19)
(1.18182 0.00427226 0)
(1.16802 -0.00263899 2.39294e-19)
(1.15784 -0.0100342 0)
(1.15103 -0.0178676 0)
(1.14652 -0.026233 1.19538e-19)
(1.14358 -0.0352446 0)
(1.14181 -0.0450311 -1.14536e-19)
(1.14093 -0.0557538 -3.86696e-21)
(1.1407 -0.0676325 1.4577e-20)
(1.14095 -0.0809054 2.18564e-20)
(1.14152 -0.0958963 2.14761e-20)
(1.14224 -0.113048 1.29136e-20)
(1.14291 -0.132979 -2.14866e-21)
(1.14328 -0.156567 -2.84229e-20)
(1.14301 -0.185197 2.17972e-20)
(1.14153 -0.220981 -1.06775e-19)
(1.13764 -0.267543 7.70645e-21)
(1.12935 -0.331443 0)
(1.11247 -0.428775 0)
(1.05209 -0.57825 1.43414e-19)
(0.800814 -0.663576 0)
(0.209743 -0.357555 6.00842e-17)
(0.352286 0.446105 -1.49874e-19)
(0.891372 0.652175 -1.84132e-20)
(1.08597 0.489786 -4.29555e-20)
(1.11203 0.370044 6.88461e-20)
(1.12456 0.294167 1.88704e-19)
(1.131 0.241333 1.7584e-19)
(1.13426 0.20193 -3.14112e-20)
(1.1358 0.170949 -8.33998e-22)
(1.13651 0.145726 1.10836e-20)
(1.13675 0.124567 -1.50058e-22)
(1.1368 0.106426 -3.41689e-20)
(1.13688 0.0905798 7.47632e-21)
(1.13716 0.0765408 -1.83941e-20)
(1.1378 0.0639569 -1.00473e-20)