/*--------------------------------*- C++ -*----------------------------------*\
  =========                 |
  \\      /  F ield         | OpenFOAM: The Open Source CFD Toolbox
   \\    /   O peration     | Website:  https://openfoam.org
    \\  /    A nd           | Version:  7
     \\/     M anipulation  |
\*---------------------------------------------------------------------------*/
FoamFile
{
    version     2.0;
    format      ascii;
    class       volSymmTensorField;
    location    "1400";
    object      devReff;
}
// * * * * * * * * * * * * * * * * * * * * * * * * * * * * * * * * * * * * * //

dimensions      [0 2 -2 0 0 0 0];

internalField   nonuniform List<symmTensor> 
180
(
(-1.98739e-21 -0.0100354 -0 3.97477e-21 -0 -1.98739e-21)
(1.20185e-21 -0.0100353 -0 -2.40369e-21 -0 1.20185e-21)
(4.15642e-21 -0.0112656 -0 -8.31284e-21 -0 4.15642e-21)
(1.67023e-21 -0.0112655 -0 -3.34046e-21 -0 1.67023e-21)
(-1.34894e-21 -0.0107462 -0 2.69788e-21 -0 -1.34894e-21)
(-3.69105e-21 -0.0107461 -0 7.38211e-21 -0 -3.69105e-21)
(6.31473e-20 -0.0102998 -0 -3.92776e-20 -0 -2.38697e-20)
(-5.97324e-20 -0.0102997 -0 3.24485e-20 -0 2.72839e-20)
(1.62323e-19 -0.0100455 -0 -9.18023e-20 -0 -7.05203e-20)
(-1.56789e-19 -0.0100454 -0 8.07374e-20 -0 7.60517e-20)
(1.50732e-20 -0.00984059 -0 -3.01463e-20 -0 1.50732e-20)
(2.51353e-21 -0.00984049 -0 -5.02707e-21 -0 2.51353e-21)
(-9.52414e-20 -0.00965846 -0 1.3984e-20 -0 8.12574e-20)
(1.25437e-19 -0.00965835 -0 -7.43772e-20 -0 -5.10598e-20)
(7.88486e-21 -0.00948763 -0 -1.57697e-20 -0 7.88486e-21)
(3.74477e-21 -0.00948753 -0 -7.48955e-21 -0 3.74477e-21)
(-4.23226e-21 -0.00932278 -0 8.46451e-21 -0 -4.23226e-21)
(-8.3066e-22 -0.00932267 -0 1.66132e-21 -0 -8.3066e-22)
(-1.67142e-21 -0.00916123 -0 3.34283e-21 -0 -1.67142e-21)
(4.04816e-21 -0.00916112 -0 -8.09632e-21 -0 4.04816e-21)
(3.32789e-21 -0.00900161 -0 -6.65579e-21 -0 3.32789e-21)
(-1.01363e-20 -0.0090015 -0 2.02726e-20 -0 -1.01363e-20)
(-1.39159e-20 -0.0088432 -0 2.78319e-20 -0 -1.39159e-20)
(-2.94942e-20 -0.00884308 -0 5.89885e-20 -0 -2.94942e-20)
(-2.93444e-20 -0.00868559 -0 5.86889e-20 -0 -2.93444e-20)
(1.16164e-21 -0.00868548 -0 -2.32329e-21 -0 1.16164e-21)
(8.95824e-22 -0.00852861 -0 -1.79165e-21 -0 8.95824e-22)
(1.07862e-20 -0.0085285 -0 -2.15724e-20 -0 1.07862e-20)
(-3.48512e-19 -0.00837219 -0 2.56043e-19 -0 9.24691e-20)
(2.89723e-19 -0.00837207 -0 -1.38476e-19 -0 -1.51247e-19)
(-1.24623e-19 -0.0082163 -0 2.49247e-19 -0 -1.24623e-19)
(2.8502e-20 -0.00821619 -0 -5.7004e-20 -0 2.8502e-20)
(-3.4084e-20 -0.00806099 -0 6.8168e-20 -0 -3.4084e-20)
(4.80877e-20 -0.00806087 -0 -9.61754e-20 -0 4.80877e-20)
(4.70861e-20 -0.0079063 -0 -9.41722e-20 -0 4.70861e-20)
(3.46685e-20 -0.00790619 -0 -6.9337e-20 -0 3.46685e-20)
(4.78657e-20 -0.0077523 -0 -9.57314e-20 -0 4.78657e-20)
(1.98665e-20 -0.00775218 -0 -3.97329e-20 -0 1.98665e-20)
(3.13746e-20 -0.00759905 -0 -6.27492e-20 -0 3.13746e-20)
(6.43977e-21 -0.00759893 -0 -1.28795e-20 -0 6.43977e-21)
(-5.00513e-21 -0.00744661 -0 1.00103e-20 -0 -5.00513e-21)
(-1.42714e-21 -0.00744649 -0 2.85428e-21 -0 -1.42714e-21)
(-1.86469e-20 -0.00729505 -0 3.72938e-20 -0 -1.86469e-20)
(-7.97356e-21 -0.00729492 -0 1.59471e-20 -0 -7.97356e-21)
(-9.97209e-21 -0.00714442 -0 1.99442e-20 -0 -9.97209e-21)
(-1.3389e-20 -0.00714429 -0 2.6778e-20 -0 -1.3389e-20)
(-2.62082e-22 -0.00699477 -0 5.24164e-22 -0 -2.62082e-22)
(-1.82191e-20 -0.00699464 -0 3.64382e-20 -0 -1.82191e-20)
(1.33513e-20 -0.00684615 -0 -2.67026e-20 -0 1.33513e-20)
(-2.36447e-20 -0.00684601 -0 4.72894e-20 -0 -2.36447e-20)
(8.90485e-22 -0.00669858 -0 -1.78097e-21 -0 8.90485e-22)
(-2.96202e-20 -0.00669845 -0 5.92404e-20 -0 -2.96202e-20)
(-4.02843e-20 -0.00655211 -0 8.05686e-20 -0 -4.02843e-20)
(-3.81956e-20 -0.00655197 -0 7.63912e-20 -0 -3.81956e-20)
(-5.10134e-20 -0.00640675 -0 1.02027e-19 -0 -5.10134e-20)
(-1.75041e-20 -0.00640661 -0 3.50082e-20 -0 -1.75041e-20)
(-3.14986e-20 -0.00626253 -0 6.29972e-20 -0 -3.14986e-20)
(3.54979e-20 -0.00626238 -0 -7.09957e-20 -0 3.54979e-20)
(-1.18993e-20 -0.00611945 -0 2.37987e-20 -0 -1.18993e-20)
(5.54051e-20 -0.00611929 -0 -1.1081e-19 -0 5.54051e-20)
(9.75042e-21 -0.00597753 -0 -1.95008e-20 -0 9.75042e-21)
(4.28937e-20 -0.00597736 -0 -8.57873e-20 -0 4.28937e-20)
(3.37621e-20 -0.00583676 -0 -6.75241e-20 -0 3.37621e-20)
(2.89423e-20 -0.00583659 -0 -5.78847e-20 -0 2.89423e-20)
(6.08036e-20 -0.00569716 -0 -1.21607e-19 -0 6.08036e-20)
(8.46167e-21 -0.00569698 -0 -1.69233e-20 -0 8.46167e-21)
(9.04462e-20 -0.00555872 -0 -1.80892e-19 -0 9.04462e-20)
(-2.20355e-20 -0.00555854 -0 4.40711e-20 -0 -2.20355e-20)
(1.2262e-19 -0.00542145 -0 -2.45239e-19 -0 1.2262e-19)
(-6.88423e-20 -0.00542125 -0 1.37685e-19 -0 -6.88423e-20)
(1.60422e-19 -0.00528532 -0 -3.20844e-19 -0 1.60422e-19)
(-1.20619e-19 -0.00528512 -0 2.41238e-19 -0 -1.20619e-19)
(-8.71744e-20 -0.00515035 -0 1.74349e-19 -0 -8.71744e-20)
(-1.64377e-19 -0.00515014 -0 3.28754e-19 -0 -1.64377e-19)
(-1.72609e-19 -0.00501653 -0 3.45217e-19 -0 -1.72609e-19)
(-1.55759e-19 -0.0050163 -0 3.11519e-19 -0 -1.55759e-19)
(2.09689e-19 -0.00488385 -0 -4.19378e-19 -0 2.09689e-19)
(-5.9123e-20 -0.00488361 -0 1.18246e-19 -0 -5.9123e-20)
(1.22088e-19 -0.0047523 -0 -2.44175e-19 -0 1.22088e-19)
(7.80896e-20 -0.00475205 -0 -1.56179e-19 -0 7.80896e-20)
(-1.38019e-19 -0.00462189 -0 2.76037e-19 -0 -1.38019e-19)
(1.82041e-19 -0.00462163 -0 -3.64083e-19 -0 1.82041e-19)
(-9.52191e-20 -0.00449261 -0 1.90438e-19 -0 -9.52191e-20)
(1.96797e-19 -0.00449233 -0 -3.93594e-19 -0 1.96797e-19)
(-7.11916e-20 -0.00436445 -0 1.42383e-19 -0 -7.11916e-20)
(1.54171e-19 -0.00436416 -0 -3.08342e-19 -0 1.54171e-19)
(-5.22232e-20 -0.00423742 -0 1.04446e-19 -0 -5.22232e-20)
(1.00814e-19 -0.00423711 -0 -2.01629e-19 -0 1.00814e-19)
(-2.44317e-20 -0.00411151 -0 4.88634e-20 -0 -2.44317e-20)
(5.20025e-20 -0.00411119 -0 -1.04005e-19 -0 5.20025e-20)
(8.15945e-23 -0.00398672 -0 -1.63189e-22 -0 8.15945e-23)
(2.23076e-20 -0.00398638 -0 -4.46153e-20 -0 2.23076e-20)
(1.18458e-20 -0.00386306 -0 -2.36916e-20 -0 1.18458e-20)
(4.91833e-21 -0.0038627 -0 -9.83667e-21 -0 4.91833e-21)
(1.99391e-20 -0.00374052 -0 -3.98782e-20 -0 1.99391e-20)
(-4.83289e-21 -0.00374015 -0 9.66578e-21 -0 -4.83289e-21)
(3.59725e-20 -0.00361911 -0 -7.19449e-20 -0 3.59725e-20)
(-1.00024e-20 -0.00361872 -0 2.00049e-20 -0 -1.00024e-20)
(4.43752e-20 -0.00349883 -0 -8.87504e-20 -0 4.43752e-20)
(-1.24353e-20 -0.00349842 -0 2.48705e-20 -0 -1.24353e-20)
(3.22373e-20 -0.00337969 -0 -6.44746e-20 -0 3.22373e-20)
(-1.35143e-20 -0.00337926 -0 2.70286e-20 -0 -1.35143e-20)
(9.06778e-21 -0.00326168 -0 -1.81356e-20 -0 9.06778e-21)
(-1.37127e-20 -0.00326124 -0 2.74253e-20 -0 -1.37127e-20)
(-1.88557e-20 -0.00314482 -0 3.77114e-20 -0 -1.88557e-20)
(-1.34205e-20 -0.00314435 -0 2.6841e-20 -0 -1.34205e-20)
(-4.6068e-20 -0.0030291 -0 9.21359e-20 -0 -4.6068e-20)
(-1.28867e-20 -0.00302862 -0 2.57735e-20 -0 -1.28867e-20)
(-6.44207e-20 -0.00291453 -0 1.28841e-19 -0 -6.44207e-20)
(-1.22385e-20 -0.00291403 -0 2.4477e-20 -0 -1.22385e-20)
(-6.23283e-20 -0.00280112 -0 1.24657e-19 -0 -6.23283e-20)
(-1.15682e-20 -0.0028006 -0 2.31365e-20 -0 -1.15682e-20)
(-5.54087e-20 -0.00268886 -0 1.10817e-19 -0 -5.54087e-20)
(-1.09212e-20 -0.00268833 -0 2.18424e-20 -0 -1.09212e-20)
(-6.28727e-20 -0.00257776 -0 1.25745e-19 -0 -6.28727e-20)
(-1.03856e-20 -0.00257721 -0 2.07713e-20 -0 -1.03856e-20)
(-6.98191e-20 -0.00246783 -0 1.39638e-19 -0 -6.98191e-20)
(-9.71054e-21 -0.00246726 -0 1.94211e-20 -0 -9.71054e-21)
(-6.45338e-20 -0.00235905 -0 1.29068e-19 -0 -6.45338e-20)
(-9.44239e-21 -0.00235846 -0 1.88848e-20 -0 -9.44239e-21)
(-5.88767e-20 -0.00225143 -0 1.17753e-19 -0 -5.88767e-20)
(-9.35953e-21 -0.00225082 -0 1.87191e-20 -0 -9.35953e-21)
(-6.94633e-20 -0.00214497 -0 1.38927e-19 -0 -6.94633e-20)
(-9.22418e-21 -0.00214434 -0 1.84484e-20 -0 -9.22418e-21)
(-7.67371e-20 -0.00203965 -0 1.53474e-19 -0 -7.67371e-20)
(-9.39217e-21 -0.00203901 -0 1.87843e-20 -0 -9.39217e-21)
(-6.4517e-20 -0.00193549 -0 1.29034e-19 -0 -6.4517e-20)
(-9.9255e-21 -0.00193483 -0 1.9851e-20 -0 -9.9255e-21)
(-4.50486e-20 -0.00183245 -0 9.00971e-20 -0 -4.50486e-20)
(-1.05591e-20 -0.00183178 -0 2.11182e-20 -0 -1.05591e-20)
(-2.52386e-20 -0.00173054 -0 5.04771e-20 -0 -2.52386e-20)
(-1.12876e-20 -0.00172986 -0 2.25751e-20 -0 -1.12876e-20)
(-8.46962e-21 -0.00162975 -0 1.69392e-20 -0 -8.46962e-21)
(-1.23682e-20 -0.00162904 -0 2.47364e-20 -0 -1.23682e-20)
(4.59124e-21 -0.00153004 -0 -9.18248e-21 -0 4.59124e-21)
(-1.375e-20 -0.00152933 -0 2.74999e-20 -0 -1.375e-20)
(1.43586e-20 -0.00143142 -0 -2.87172e-20 -0 1.43586e-20)
(-1.54069e-20 -0.00143069 -0 3.08137e-20 -0 -1.54069e-20)
(2.13753e-20 -0.00133385 -0 -4.27505e-20 -0 2.13753e-20)
(-1.71644e-20 -0.00133311 -0 3.43288e-20 -0 -1.71644e-20)
(2.6457e-20 -0.00123732 -0 -5.2914e-20 -0 2.6457e-20)
(-1.91101e-20 -0.00123657 -0 3.82201e-20 -0 -1.91101e-20)
(3.01847e-20 -0.0011418 -0 -6.03693e-20 -0 3.01847e-20)
(-2.1187e-20 -0.00114104 -0 4.2374e-20 -0 -2.1187e-20)
(3.28522e-20 -0.00104726 -0 -6.57044e-20 -0 3.28522e-20)
(-2.32013e-20 -0.00104649 -0 4.64025e-20 -0 -2.32013e-20)
(3.49815e-20 -0.000953667 -0 -6.9963e-20 -0 3.49815e-20)
(-2.53786e-20 -0.000952888 -0 5.07572e-20 -0 -2.53786e-20)
(3.66788e-20 -0.000860994 -0 -7.33575e-20 -0 3.66788e-20)
(-2.75508e-20 -0.000860206 -0 5.51017e-20 -0 -2.75508e-20)
(3.80178e-20 -0.000769202 -0 -7.60357e-20 -0 3.80178e-20)
(-2.96181e-20 -0.000768407 -0 5.92361e-20 -0 -2.96181e-20)
(3.92177e-20 -0.000678253 -0 -7.84354e-20 -0 3.92177e-20)
(-3.16844e-20 -0.000677452 -0 6.33688e-20 -0 -3.16844e-20)
(4.03398e-20 -0.000588106 -0 -8.06797e-20 -0 4.03398e-20)
(-3.36437e-20 -0.0005873 -0 6.72874e-20 -0 -3.36437e-20)
(4.14092e-20 -0.000498716 -0 -8.28184e-20 -0 4.14092e-20)
(-3.55259e-20 -0.000497906 -0 7.10519e-20 -0 -3.55259e-20)
(4.23431e-20 -0.000410035 -0 -8.46862e-20 -0 4.23431e-20)
(-3.72742e-20 -0.000409221 -0 7.45484e-20 -0 -3.72742e-20)
(4.31837e-20 -0.000322008 -0 -8.63675e-20 -0 4.31837e-20)
(-3.88578e-20 -0.00032119 -0 7.77157e-20 -0 -3.88578e-20)
(4.39565e-20 -0.000234571 -0 -8.79131e-20 -0 4.39565e-20)
(-4.02913e-20 -0.000233751 -0 8.05826e-20 -0 -4.02913e-20)
(4.46253e-20 -0.000147648 -0 -8.92506e-20 -0 4.46253e-20)
(-4.15384e-20 -0.000146826 -0 8.30768e-20 -0 -4.15384e-20)
(4.51942e-20 -6.11402e-05 -0 -9.03883e-20 -0 4.51942e-20)
(-4.26057e-20 -6.03172e-05 -0 8.52113e-20 -0 -4.26057e-20)
(4.565e-20 2.50775e-05 -0 -9.13e-20 -0 4.565e-20)
(-4.3472e-20 2.59012e-05 -0 8.6944e-20 -0 -4.3472e-20)
(4.59554e-20 0.000111171 -0 -9.19107e-20 -0 4.59554e-20)
(-4.41194e-20 0.000111995 -0 8.82388e-20 -0 -4.41194e-20)
(4.61156e-20 0.00019735 -0 -9.22311e-20 -0 4.61156e-20)
(-4.4545e-20 0.000198173 -0 8.909e-20 -0 -4.4545e-20)
(4.61287e-20 0.000283863 -0 -9.22573e-20 -0 4.61287e-20)
(-4.47755e-20 0.000284684 -0 8.95509e-20 -0 -4.47755e-20)
(4.62044e-20 0.00037104 -0 -9.24089e-20 -0 4.62044e-20)
(-4.50027e-20 0.000371858 -0 9.00055e-20 -0 -4.50027e-20)
(4.59663e-20 0.000207424 -0 -9.19326e-20 -0 4.59663e-20)
(-4.49172e-20 0.000207832 -0 8.98344e-20 -0 -4.49172e-20)
)
;

boundaryField
{
    inlet
    {
        type            cyclic;
    }
    outlet
    {
        type            cyclic;
    }
    bottom
    {
        type            symmetry;
    }
    top
    {
        type            calculated;
        value           nonuniform List<symmTensor> 2((-5.70007e-21 -0.0105378 -0 1.14001e-20 -0 -5.70007e-21) (1.1567e-22 -0.0105378 -0 -2.3134e-22 -0 1.1567e-22));
    }
    frontAndBack
    {
        type            empty;
    }
}


// ************************************************************************* //
