/*--------------------------------*- C++ -*----------------------------------*\
  =========                 |
  \\      /  F ield         | OpenFOAM: The Open Source CFD Toolbox
   \\    /   O peration     | Website:  https://openfoam.org
    \\  /    A nd           | Version:  7
     \\/     M anipulation  |
\*---------------------------------------------------------------------------*/
FoamFile
{
    version     2.0;
    format      ascii;
    class       volScalarField;
    location    "1400";
    object      k;
}
// * * * * * * * * * * * * * * * * * * * * * * * * * * * * * * * * * * * * * //

dimensions      [0 2 -2 0 0 0 0];

internalField   nonuniform List<scalar> 
180
(
0.0102285
0.010228
0.0272484
0.0272481
0.0301072
0.0301069
0.0306681
0.0306678
0.0307122
0.0307119
0.030561
0.0305606
0.0303265
0.0303261
0.0300584
0.030058
0.0297827
0.0297822
0.0295144
0.0295139
0.0292629
0.0292624
0.0290342
0.0290337
0.0288322
0.0288316
0.028659
0.0286584
0.0285158
0.0285151
0.0284029
0.0284022
0.0283199
0.0283191
0.0282661
0.0282653
0.0282403
0.0282395
0.0282412
0.0282402
0.0282671
0.0282661
0.0283165
0.0283154
0.0283876
0.0283865
0.0284787
0.0284776
0.0285882
0.028587
0.0287145
0.0287132
0.0288559
0.0288546
0.029011
0.0290097
0.0291784
0.029177
0.0293568
0.0293553
0.0295448
0.0295433
0.0297414
0.0297398
0.0299454
0.0299438
0.0301559
0.0301543
0.030372
0.0303703
0.0305927
0.0305909
0.0308172
0.0308154
0.031045
0.0310431
0.0312751
0.0312732
0.0315071
0.0315052
0.0317404
0.0317384
0.0319743
0.0319723
0.0322084
0.0322064
0.0324423
0.0324402
0.0326755
0.0326734
0.0329075
0.0329054
0.0331381
0.033136
0.0333669
0.0333647
0.0335935
0.0335913
0.0338177
0.0338154
0.0340391
0.0340368
0.0342575
0.0342552
0.0344727
0.0344703
0.0346843
0.0346819
0.0348923
0.0348898
0.0350962
0.0350938
0.0352961
0.0352936
0.0354916
0.0354891
0.0356827
0.0356801
0.035869
0.0358665
0.0360506
0.036048
0.0362271
0.0362245
0.0363985
0.0363959
0.0365647
0.0365621
0.0367255
0.0367229
0.0368808
0.0368781
0.0370304
0.0370277
0.0371743
0.0371716
0.0373123
0.0373096
0.0374444
0.0374417
0.0375705
0.0375677
0.0376904
0.0376876
0.0378041
0.0378013
0.0379115
0.0379087
0.0380125
0.0380098
0.0381071
0.0381043
0.0381952
0.0381924
0.0382767
0.0382739
0.0383516
0.0383487
0.0384198
0.0384169
0.0384812
0.0384784
0.0385359
0.038533
0.0385837
0.0385808
0.0386246
0.0386218
0.0386587
0.0386558
0.0386858
0.0386829
0.0387058
0.0387029
0.0387188
0.0387159
0.0387246
0.0387217
0.038723
0.0387201
)
;

boundaryField
{
    inlet
    {
        type            cyclic;
    }
    outlet
    {
        type            cyclic;
    }
    bottom
    {
        type            symmetry;
    }
    top
    {
        type            kqRWallFunction;
        value           nonuniform List<scalar> 2(0.0102285 0.010228);
    }
    frontAndBack
    {
        type            empty;
    }
}


// ************************************************************************* //
