/*--------------------------------*- C++ -*----------------------------------*\
  =========                 |
  \\      /  F ield         | OpenFOAM: The Open Source CFD Toolbox
   \\    /   O peration     | Website:  https://openfoam.org
    \\  /    A nd           | Version:  7
     \\/     M anipulation  |
\*---------------------------------------------------------------------------*/
FoamFile
{
    version     2.0;
    format      ascii;
    class       volScalarField;
    location    "1400";
    object      nut;
}
// * * * * * * * * * * * * * * * * * * * * * * * * * * * * * * * * * * * * * //

dimensions      [0 2 -1 0 0 0 0];

internalField   nonuniform List<scalar> 
180
(
3.94617e-06
3.94599e-06
2.997e-05
2.99697e-05
6.49649e-05
6.49644e-05
0.000101471
0.00010147
0.000139139
0.000139137
0.000177391
0.000177389
0.000216099
0.000216097
0.000255313
0.000255309
0.00029515
0.000295145
0.000335754
0.000335749
0.000377271
0.000377263
0.000419834
0.000419825
0.000463565
0.000463554
0.000508562
0.000508549
0.000554908
0.000554892
0.000602658
0.00060264
0.000651851
0.000651831
0.000702503
0.00070248
0.000754611
0.000754584
0.000808152
0.000808123
0.000863091
0.000863058
0.000919374
0.000919338
0.000976936
0.000976897
0.0010357
0.00103566
0.00109559
0.00109554
0.0011565
0.00115645
0.00121834
0.00121829
0.00128101
0.00128096
0.00134441
0.00134435
0.00140843
0.00140837
0.00147295
0.00147289
0.00153789
0.00153782
0.00160313
0.00160306
0.00166857
0.0016685
0.00173411
0.00173404
0.00179966
0.00179959
0.00186512
0.00186505
0.00193041
0.00193033
0.00199542
0.00199534
0.00206009
0.00206001
0.00212434
0.00212425
0.00218808
0.00218799
0.00225124
0.00225116
0.00231377
0.00231368
0.0023756
0.0023755
0.00243665
0.00243656
0.00249689
0.00249679
0.00255625
0.00255615
0.00261469
0.00261459
0.00267215
0.00267205
0.00272859
0.00272849
0.00278398
0.00278387
0.00283826
0.00283816
0.00289142
0.00289131
0.0029434
0.0029433
0.00299419
0.00299408
0.00304375
0.00304364
0.00309205
0.00309194
0.00313906
0.00313896
0.00318478
0.00318467
0.00322916
0.00322905
0.0032722
0.00327209
0.00331387
0.00331376
0.00335415
0.00335404
0.00339304
0.00339292
0.0034305
0.00343039
0.00346654
0.00346643
0.00350114
0.00350102
0.00353428
0.00353417
0.00356596
0.00356584
0.00359616
0.00359605
0.00362488
0.00362476
0.00365211
0.00365199
0.00367784
0.00367772
0.00370206
0.00370194
0.00372476
0.00372465
0.00374595
0.00374584
0.00376562
0.0037655
0.00378376
0.00378364
0.00380036
0.00380024
0.00381543
0.00381531
0.00382896
0.00382884
0.00384094
0.00384082
0.00385138
0.00385126
0.00386027
0.00386015
0.00386761
0.00386749
0.00387339
0.00387327
0.00387761
0.00387749
0.00388027
0.00388015
0.00388136
0.00388124
)
;

boundaryField
{
    inlet
    {
        type            cyclic;
    }
    outlet
    {
        type            cyclic;
    }
    bottom
    {
        type            symmetry;
    }
    top
    {
        type            nutkWallFunction;
        Cmu             0.09;
        kappa           0.41;
        E               9.8;
        value           uniform 0;
    }
    frontAndBack
    {
        type            empty;
    }
}


// ************************************************************************* //
