/*--------------------------------*- C++ -*----------------------------------*\
  =========                 |
  \\      /  F ield         | OpenFOAM: The Open Source CFD Toolbox
   \\    /   O peration     | Website:  https://openfoam.org
    \\  /    A nd           | Version:  7
     \\/     M anipulation  |
\*---------------------------------------------------------------------------*/
FoamFile
{
    version     2.0;
    format      ascii;
    class       volScalarField;
    location    "1400";
    object      omega;
}
// * * * * * * * * * * * * * * * * * * * * * * * * * * * * * * * * * * * * * //

dimensions      [0 0 -1 0 0 0 0];

internalField   nonuniform List<scalar> 
180
(
2592
2592
881.735
881.735
463.437
463.437
302.236
302.235
220.731
220.731
172.281
172.28
140.336
140.336
117.732
117.732
100.907
100.907
87.9046
87.9048
77.5647
77.5649
69.1564
69.1567
62.1967
62.197
56.3529
56.3532
51.3884
51.3886
47.1293
47.1296
43.4454
43.4456
40.2363
40.2365
37.4237
37.4239
34.9453
34.9455
32.751
32.7511
30.7997
30.7998
29.0577
29.0578
27.497
27.497
26.094
26.0939
24.8288
24.8287
23.6846
23.6845
22.6469
22.6468
21.7035
21.7034
20.8437
20.8435
20.0582
20.058
19.3391
19.3389
18.6794
18.6791
18.0729
18.0727
17.5144
17.5141
16.9991
16.9988
16.5229
16.5226
16.0821
16.0818
15.6734
15.6731
15.294
15.2937
14.9413
14.941
14.613
14.6126
14.3069
14.3066
14.0214
14.021
13.7546
13.7543
13.5052
13.5049
13.2718
13.2714
13.0531
13.0527
12.848
12.8476
12.6556
12.6552
12.475
12.4746
12.3053
12.3049
12.1457
12.1453
11.9956
11.9952
11.8544
11.854
11.7215
11.7211
11.5963
11.5959
11.4784
11.478
11.3673
11.3669
11.2626
11.2622
11.1641
11.1637
11.0712
11.0708
10.9837
10.9833
10.9013
10.9009
10.8238
10.8234
10.7508
10.7504
10.6822
10.6818
10.6178
10.6173
10.5573
10.5568
10.5005
10.5001
10.4474
10.447
10.3977
10.3973
10.3513
10.3509
10.3081
10.3077
10.268
10.2675
10.2307
10.2303
10.1964
10.196
10.1648
10.1644
10.1358
10.1354
10.1095
10.1091
10.0857
10.0853
10.0643
10.0639
10.0454
10.0449
10.0288
10.0283
10.0145
10.0141
10.0025
10.0021
9.99276
9.99232
9.98522
9.98478
9.97986
9.97942
9.97665
9.97621
)
;

boundaryField
{
    inlet
    {
        type            cyclic;
    }
    outlet
    {
        type            cyclic;
    }
    bottom
    {
        type            symmetry;
    }
    top
    {
        beta1           0.075;
        blended         0;
        type            omegaWallFunction;
        value           uniform 2592;
    }
    frontAndBack
    {
        type            empty;
    }
}


// ************************************************************************* //
