/*--------------------------------*- C++ -*----------------------------------*\
  =========                 |
  \\      /  F ield         | OpenFOAM: The Open Source CFD Toolbox
   \\    /   O peration     | Website:  https://openfoam.org
    \\  /    A nd           | Version:  7
     \\/     M anipulation  |
\*---------------------------------------------------------------------------*/
FoamFile
{
    version     2.0;
    format      ascii;
    class       volScalarField;
    location    "1400";
    object      p;
}
// * * * * * * * * * * * * * * * * * * * * * * * * * * * * * * * * * * * * * //

dimensions      [0 2 -2 0 0 0 0];

internalField   nonuniform List<scalar> 
180
(
4.68103e-21
7.83951e-17
4.08497e-22
7.83994e-17
-5.16915e-21
7.83932e-17
2.43156e-20
7.83508e-17
8.57824e-21
7.8358e-17
-4.19038e-20
7.83818e-17
-1.0489e-19
7.8411e-17
-1.37923e-19
7.83603e-17
-1.76887e-19
7.83265e-17
-2.50446e-19
7.83164e-17
-3.01901e-19
7.83054e-17
-3.59981e-19
7.82934e-17
-4.24704e-19
7.82805e-17
-4.53301e-19
7.82669e-17
-6.26559e-19
7.83468e-17
-6.10549e-19
7.83317e-17
-5.93807e-19
7.83159e-17
-5.76491e-19
7.82995e-17
-5.58502e-19
7.82824e-17
-5.39982e-19
7.82648e-17
-6.68016e-19
7.82466e-17
-6.48388e-19
7.82278e-17
-6.28201e-19
7.82085e-17
-6.07557e-19
7.81887e-17
-5.8641e-19
7.81684e-17
-5.64837e-19
7.81476e-17
-7.51121e-19
7.81264e-17
-7.28715e-19
7.81048e-17
-7.0592e-19
7.83129e-17
-6.82785e-19
7.82906e-17
-6.5932e-19
7.82679e-17
-6.35565e-19
7.8245e-17
-6.11537e-19
7.82217e-17
-5.87276e-19
7.81982e-17
-5.62799e-19
7.81745e-17
-5.38149e-19
7.81506e-17
-5.13341e-19
7.81266e-17
-8.20122e-19
7.81024e-17
-7.95106e-19
7.84211e-17
-1.12432e-18
7.8751e-17
-1.09924e-18
7.90921e-17
-1.07418e-18
7.90677e-17
-1.04916e-18
7.90434e-17
-1.02422e-18
7.90191e-17
-9.99373e-19
7.89949e-17
-9.74668e-19
7.89708e-17
-9.50115e-19
7.89469e-17
-9.25752e-19
7.89231e-17
-9.01598e-19
7.88996e-17
-8.77681e-19
7.88762e-17
-8.54028e-19
7.88531e-17
-8.30661e-19
7.88303e-17
-8.07607e-19
7.88078e-17
-7.84888e-19
7.87856e-17
-7.62529e-19
7.87637e-17
-7.40553e-19
7.87422e-17
-7.1898e-19
7.87211e-17
-6.97837e-19
7.87004e-17
-6.77138e-19
7.86802e-17
-6.56911e-19
7.86604e-17
-6.37169e-19
7.86411e-17
-6.17937e-19
7.86222e-17
-5.99226e-19
7.86039e-17
-5.8106e-19
7.85861e-17
-5.63451e-19
7.85688e-17
-5.46417e-19
7.85521e-17
-5.29972e-19
7.8536e-17
-5.14133e-19
7.85205e-17
-4.98911e-19
7.85055e-17
-4.84323e-19
7.84912e-17
-4.70379e-19
7.84775e-17
-4.57094e-19
7.84645e-17
-4.44477e-19
7.84521e-17
-4.32543e-19
7.84404e-17
-4.21298e-19
7.84293e-17
-4.10755e-19
7.8419e-17
-4.00921e-19
7.84093e-17
-3.91806e-19
7.84003e-17
-3.83416e-19
7.83921e-17
-3.7576e-19
7.83845e-17
-3.68842e-19
7.83777e-17
-3.62671e-19
7.83716e-17
-3.57251e-19
7.83663e-17
-3.52586e-19
7.83617e-17
-3.48682e-19
7.83578e-17
-3.45541e-19
7.83547e-17
-3.43168e-19
7.83524e-17
-3.41564e-19
7.83508e-17
-3.40732e-19
7.83499e-17
-3.40625e-19
7.83498e-17
)
;

boundaryField
{
    inlet
    {
        type            cyclic;
    }
    outlet
    {
        type            cyclic;
    }
    bottom
    {
        type            symmetry;
    }
    top
    {
        type            zeroGradient;
    }
    frontAndBack
    {
        type            empty;
    }
}


// ************************************************************************* //
