/*--------------------------------*- C++ -*----------------------------------*\
  =========                 |
  \\      /  F ield         | OpenFOAM: The Open Source CFD Toolbox
   \\    /   O peration     | Website:  https://openfoam.org
    \\  /    A nd           | Version:  7
     \\/     M anipulation  |
\*---------------------------------------------------------------------------*/
FoamFile
{
    version     2.0;
    format      ascii;
    class       surfaceScalarField;
    location    "1400";
    object      phi;
}
// * * * * * * * * * * * * * * * * * * * * * * * * * * * * * * * * * * * * * //

dimensions      [0 3 -1 0 0 0 0];

internalField   nonuniform List<scalar> 
268
(
0.000650482
-1.329e-19
5.34026e-20
0.00112627
-6.85729e-20
1.14494e-19
0.00134641
-4.4022e-20
8.24015e-20
0.00148021
1.69612e-20
3.62862e-20
0.00157455
4.82717e-20
3.86832e-20
0.00164653
1.17671e-19
-1.82689e-20
0.00170422
1.7428e-19
1.55173e-19
0.001752
2.0353e-19
9.88994e-20
0.00179251
2.06687e-19
8.93124e-20
0.00182744
1.86662e-19
1.04396e-19
0.00185794
1.9841e-19
1.33246e-19
0.00188483
2.27572e-19
-2.18291e-20
0.00190873
5.07293e-20
3.77191e-20
0.00193012
1.57865e-19
7.29044e-20
0.00194934
1.20807e-19
8.76816e-22
0.00196671
-2.24114e-19
7.5802e-20
0.00198246
-1.72934e-19
1.36647e-19
0.00199678
-1.18153e-19
1.76894e-19
0.00200986
-7.68229e-20
1.98829e-19
0.00202182
-1.2498e-20
2.05136e-19
0.00203279
-4.89959e-20
2.03995e-19
0.00204288
-5.53815e-20
1.96655e-19
0.00205217
-6.37895e-20
1.85514e-19
0.00206075
-6.39811e-20
1.70863e-19
0.00206869
-6.49316e-20
1.53149e-19
0.00207604
-3.18553e-20
1.31902e-19
0.00208287
-9.10739e-20
1.17025e-19
0.00208921
-1.13541e-19
7.32889e-20
0.00209512
-1.32942e-19
1.27047e-19
0.00210063
-1.39924e-19
1.49106e-19
0.00210577
-1.34447e-19
1.73247e-19
0.00211058
-1.1628e-19
1.88797e-19
0.00211508
-8.48551e-20
1.93198e-19
0.0021193
-3.99729e-20
1.82231e-19
0.00212326
1.8636e-20
1.49362e-19
0.00212698
8.15942e-20
9.37927e-20
0.00213047
1.74501e-19
3.16466e-20
0.00213376
-2.37207e-19
-5.66968e-20
0.00213686
1.8429e-19
-7.07189e-20
0.00213977
1.05366e-19
-5.01683e-20
0.00214252
6.2019e-20
4.23576e-20
0.00214512
2.59263e-20
1.06408e-19
0.00214757
-3.21616e-22
1.63239e-19
0.00214989
-1.90321e-20
1.99382e-19
0.00215207
-2.75881e-20
2.1756e-19
0.00215414
-2.75352e-20
2.25146e-19
0.0021561
-2.3625e-20
2.26794e-19
0.00215795
-1.71218e-20
2.25212e-19
0.0021597
-5.72906e-21
2.22049e-19
0.00216135
8.08562e-21
2.18173e-19
0.00216292
1.78691e-20
2.14073e-19
0.0021644
2.05961e-20
2.09971e-19
0.0021658
1.50602e-20
2.06055e-19
0.00216712
1.84387e-21
2.02344e-19
0.00216838
-1.6345e-20
1.98899e-19
0.00216956
-3.36269e-20
1.95683e-19
0.00217068
-4.87513e-20
1.92708e-19
0.00217173
-6.56406e-20
1.89914e-19
0.00217273
-8.4115e-20
1.87347e-19
0.00217367
-1.00953e-19
1.84884e-19
0.00217455
-1.16093e-19
1.82473e-19
0.00217538
-1.33738e-19
1.80136e-19
0.00217617
-1.52966e-19
1.77775e-19
0.0021769
-1.68962e-19
1.75325e-19
0.00217759
-1.79977e-19
1.72728e-19
0.00217823
-1.86109e-19
1.70007e-19
0.00217883
-1.88118e-19
1.67028e-19
0.00217939
-1.87052e-19
1.6378e-19
0.0021799
-1.83651e-19
1.60142e-19
0.00218038
-1.78696e-19
1.56158e-19
0.00218082
-1.72556e-19
1.51726e-19
0.00218123
-1.65661e-19
1.46883e-19
0.0021816
-1.58162e-19
1.4159e-19
0.00218194
-1.50278e-19
1.35867e-19
0.00218224
-1.42025e-19
1.2967e-19
0.00218251
-1.33559e-19
1.23072e-19
0.00218275
-1.24843e-19
1.16033e-19
0.00218295
-1.15952e-19
1.08615e-19
0.00218313
-1.06845e-19
1.00805e-19
0.00218328
-9.75936e-20
9.2658e-20
0.0021834
-8.81791e-20
8.41875e-20
0.00218349
-7.86435e-20
7.54466e-20
0.00218355
-6.89814e-20
6.64518e-20
0.00218358
-5.92322e-20
5.72621e-20
0.00218359
-4.94e-20
4.78985e-20
0.00218356
-3.95256e-20
3.84182e-20
0.00218351
-2.96292e-20
2.88584e-20
0.00218344
-1.97427e-20
1.9263e-20
0.00218333
-9.87947e-21
9.6572e-21
0.0021832
)
;

boundaryField
{
    inlet
    {
        type            cyclic;
        value           nonuniform List<scalar> 
90
(
-0.000650482
-0.00112627
-0.00134641
-0.00148021
-0.00157455
-0.00164653
-0.00170422
-0.001752
-0.00179251
-0.00182744
-0.00185794
-0.00188483
-0.00190873
-0.00193012
-0.00194934
-0.00196671
-0.00198246
-0.00199678
-0.00200986
-0.00202182
-0.00203279
-0.00204288
-0.00205217
-0.00206075
-0.00206869
-0.00207604
-0.00208287
-0.00208921
-0.00209512
-0.00210063
-0.00210577
-0.00211058
-0.00211508
-0.0021193
-0.00212326
-0.00212698
-0.00213047
-0.00213376
-0.00213686
-0.00213977
-0.00214252
-0.00214512
-0.00214757
-0.00214989
-0.00215207
-0.00215414
-0.0021561
-0.00215795
-0.0021597
-0.00216135
-0.00216292
-0.0021644
-0.0021658
-0.00216712
-0.00216838
-0.00216956
-0.00217068
-0.00217173
-0.00217273
-0.00217367
-0.00217455
-0.00217538
-0.00217617
-0.0021769
-0.00217759
-0.00217823
-0.00217883
-0.00217939
-0.0021799
-0.00218038
-0.00218082
-0.00218123
-0.0021816
-0.00218194
-0.00218224
-0.00218251
-0.00218275
-0.00218295
-0.00218313
-0.00218328
-0.0021834
-0.00218349
-0.00218355
-0.00218358
-0.00218359
-0.00218356
-0.00218351
-0.00218344
-0.00218333
-0.0021832
)
;
    }
    outlet
    {
        type            cyclic;
        value           nonuniform List<scalar> 
90
(
0.000650482
0.00112627
0.00134641
0.00148021
0.00157455
0.00164653
0.00170422
0.001752
0.00179251
0.00182744
0.00185794
0.00188483
0.00190873
0.00193012
0.00194934
0.00196671
0.00198246
0.00199678
0.00200986
0.00202182
0.00203279
0.00204288
0.00205217
0.00206075
0.00206869
0.00207604
0.00208287
0.00208921
0.00209512
0.00210063
0.00210577
0.00211058
0.00211508
0.0021193
0.00212326
0.00212698
0.00213047
0.00213376
0.00213686
0.00213977
0.00214252
0.00214512
0.00214757
0.00214989
0.00215207
0.00215414
0.0021561
0.00215795
0.0021597
0.00216135
0.00216292
0.0021644
0.0021658
0.00216712
0.00216838
0.00216956
0.00217068
0.00217173
0.00217273
0.00217367
0.00217455
0.00217538
0.00217617
0.0021769
0.00217759
0.00217823
0.00217883
0.00217939
0.0021799
0.00218038
0.00218082
0.00218123
0.0021816
0.00218194
0.00218224
0.00218251
0.00218275
0.00218295
0.00218313
0.00218328
0.0021834
0.00218349
0.00218355
0.00218358
0.00218359
0.00218356
0.00218351
0.00218344
0.00218333
0.0021832
)
;
    }
    bottom
    {
        type            symmetry;
        value           uniform 0;
    }
    top
    {
        type            calculated;
        value           uniform 0;
    }
    frontAndBack
    {
        type            empty;
        value           nonuniform 0();
    }
}


// ************************************************************************* //
