/*--------------------------------*- C++ -*----------------------------------*\
  =========                 |
  \\      /  F ield         | OpenFOAM: The Open Source CFD Toolbox
   \\    /   O peration     | Website:  https://openfoam.org
    \\  /    A nd           | Version:  7
     \\/     M anipulation  |
\*---------------------------------------------------------------------------*/
FoamFile
{
    version     2.0;
    format      ascii;
    class       volVectorField;
    location    "1400";
    object      U;
}
// * * * * * * * * * * * * * * * * * * * * * * * * * * * * * * * * * * * * * //

dimensions      [0 1 -1 0 0 0 0];

internalField   nonuniform List<vector> 
180
(
(0.585435 -4.75006e-19 0)
(0.585431 9.63915e-21 0)
(1.01364 -7.82867e-24 0)
(1.01364 2.77623e-19 0)
(1.21177 -1.28378e-19 0)
(1.21177 1.48931e-19 0)
(1.33219 -5.99887e-20 0)
(1.33219 1.13498e-19 0)
(1.4171 2.52044e-20 0)
(1.4171 9.74508e-20 0)
(1.48188 9.85667e-20 0)
(1.48187 7.85885e-20 0)
(1.5338 2.93328e-19 0)
(1.53379 1.42162e-19 0)
(1.5768 4.29166e-19 0)
(1.5768 1.93177e-19 0)
(1.61326 3.92392e-19 0)
(1.61326 1.89211e-19 0)
(1.6447 3.82934e-19 0)
(1.64469 1.84103e-19 0)
(1.67214 3.76278e-19 0)
(1.67214 2.28239e-19 0)
(1.69635 4.11578e-19 0)
(1.69635 9.68561e-20 0)
(1.71786 2.68361e-19 0)
(1.71786 -4.91026e-22 0)
(1.73711 2.05028e-19 0)
(1.7371 1.05033e-19 0)
(1.75441 2.74119e-19 0)
(1.75441 6.88446e-20 0)
(1.77004 -1.16704e-19 0)
(1.77004 7.99134e-20 0)
(1.78421 -4.03928e-19 0)
(1.78421 2.23922e-19 0)
(1.79711 -2.88364e-19 0)
(1.7971 3.22109e-19 0)
(1.80887 -1.83643e-19 0)
(1.80887 3.86118e-19 0)
(1.81964 -7.96922e-20 0)
(1.81964 4.0872e-19 0)
(1.82951 -5.58162e-20 0)
(1.82951 4.12356e-19 0)
(1.83859 -9.88011e-20 0)
(1.83859 4.03271e-19 0)
(1.84696 -1.22696e-19 0)
(1.84695 3.83757e-19 0)
(1.85468 -1.32481e-19 0)
(1.85468 3.58049e-19 0)
(1.86182 -1.23531e-19 0)
(1.86182 3.25679e-19 0)
(1.86844 -9.22274e-20 0)
(1.86844 2.86757e-19 0)
(1.87458 -1.20987e-19 0)
(1.87458 2.41034e-19 0)
(1.88029 -2.01546e-19 0)
(1.88029 1.83102e-19 0)
(1.88561 -2.52701e-19 0)
(1.88561 1.95837e-19 0)
(1.89057 -2.79067e-19 0)
(1.89057 2.7047e-19 0)
(1.8952 -2.80664e-19 0)
(1.8952 3.26046e-19 0)
(1.89952 -2.5715e-19 0)
(1.89952 3.66889e-19 0)
(1.90358 -2.07959e-19 0)
(1.90358 3.88375e-19 0)
(1.90737 -1.31507e-19 0)
(1.90737 3.84374e-19 0)
(1.91093 -2.83494e-20 0)
(1.91093 3.44615e-19 0)
(1.91428 1.02842e-19 0)
(1.91428 2.52798e-19 0)
(1.91742 2.67142e-19 0)
(1.91743 1.2243e-19 0)
(1.92038 -5.21245e-20 0)
(1.92038 -3.94203e-20 0)
(1.92317 -2.93744e-20 0)
(1.92317 -1.45153e-19 0)
(1.9258 2.96412e-19 0)
(1.9258 -1.37696e-19 0)
(1.92827 1.67215e-19 0)
(1.92827 -1.94052e-20 0)
(1.93061 8.08595e-20 0)
(1.93061 1.46621e-19 0)
(1.93281 2.28178e-20 0)
(1.93281 2.79045e-19 0)
(1.9349 -2.4085e-20 0)
(1.9349 3.73896e-19 0)
(1.93687 -5.20938e-20 0)
(1.93687 4.23663e-19 0)
(1.93873 -5.82229e-20 0)
(1.93873 4.46561e-19 0)
(1.94049 -5.19826e-20 0)
(1.94049 4.54056e-19 0)
(1.94215 -4.24719e-20 0)
(1.94215 4.53101e-19 0)
(1.94373 -2.60835e-20 0)
(1.94373 4.47779e-19 0)
(1.94522 3.21295e-21 0)
(1.94521 4.40397e-19 0)
(1.94662 2.90654e-20 0)
(1.94662 4.32324e-19 0)
(1.94796 4.24512e-20 0)
(1.94796 4.23947e-19 0)
(1.94922 3.98836e-20 0)
(1.94922 4.15963e-19 0)
(1.95041 2.03844e-20 0)
(1.95041 4.08241e-19 0)
(1.95154 -1.30422e-20 0)
(1.95154 4.01158e-19 0)
(1.9526 -5.23235e-20 0)
(1.9526 3.94427e-19 0)
(1.95361 -8.21993e-20 0)
(1.95361 3.88322e-19 0)
(1.95456 -1.12805e-19 0)
(1.95456 3.82506e-19 0)
(1.95546 -1.4976e-19 0)
(1.95546 3.77161e-19 0)
(1.9563 -1.8671e-19 0)
(1.9563 3.72227e-19 0)
(1.9571 -2.17092e-19 0)
(1.9571 3.67309e-19 0)
(1.95785 -2.47298e-19 0)
(1.95784 3.62595e-19 0)
(1.95855 -2.87638e-19 0)
(1.95855 3.57941e-19 0)
(1.95921 -3.24254e-19 0)
(1.95921 3.53176e-19 0)
(1.95983 -3.51564e-19 0)
(1.95983 3.48106e-19 0)
(1.96041 -3.6838e-19 0)
(1.9604 3.42832e-19 0)
(1.96095 -3.76016e-19 0)
(1.96094 3.3717e-19 0)
(1.96145 -3.765e-19 0)
(1.96145 3.30973e-19 0)
(1.96192 -3.71657e-19 0)
(1.96191 3.24116e-19 0)
(1.96235 -3.62996e-19 0)
(1.96234 3.16483e-19 0)
(1.96274 -3.51733e-19 0)
(1.96274 3.08115e-19 0)
(1.96311 -3.38541e-19 0)
(1.9631 2.98818e-19 0)
(1.96344 -3.24052e-19 0)
(1.96344 2.88685e-19 0)
(1.96374 -3.08638e-19 0)
(1.96374 2.77699e-19 0)
(1.96402 -2.92433e-19 0)
(1.96401 2.65745e-19 0)
(1.96426 -2.75702e-19 0)
(1.96425 2.52958e-19 0)
(1.96447 -2.58502e-19 0)
(1.96447 2.3931e-19 0)
(1.96466 -2.40897e-19 0)
(1.96466 2.24838e-19 0)
(1.96482 -2.22887e-19 0)
(1.96481 2.09607e-19 0)
(1.96495 -2.04513e-19 0)
(1.96495 1.93623e-19 0)
(1.96506 -1.85845e-19 0)
(1.96505 1.76998e-19 0)
(1.96514 -1.66884e-19 0)
(1.96513 1.59763e-19 0)
(1.9652 -1.47678e-19 0)
(1.96519 1.42012e-19 0)
(1.96523 -1.28257e-19 0)
(1.96522 1.23806e-19 0)
(1.96523 -1.08664e-19 0)
(1.96522 1.05232e-19 0)
(1.96521 -8.89404e-20 0)
(1.9652 8.63642e-20 0)
(1.96517 -6.91594e-20 0)
(1.96516 6.73038e-20 0)
(1.9651 -4.93568e-20 0)
(1.96509 4.81274e-20 0)
(1.965 -2.96075e-20 0)
(1.965 2.8911e-20 0)
(1.96489 -9.76709e-21 0)
(1.96488 9.56618e-21 0)
)
;

boundaryField
{
    inlet
    {
        type            cyclic;
    }
    outlet
    {
        type            cyclic;
    }
    bottom
    {
        type            symmetry;
    }
    top
    {
        type            noSlip;
    }
    frontAndBack
    {
        type            empty;
    }
}


// ************************************************************************* //
