/*--------------------------------*- C++ -*----------------------------------*\
  =========                 |
  \\      /  F ield         | OpenFOAM: The Open Source CFD Toolbox
   \\    /   O peration     | Website:  https://openfoam.org
    \\  /    A nd           | Version:  7
     \\/     M anipulation  |
\*---------------------------------------------------------------------------*/
FoamFile
{
    version     2.0;
    format      ascii;
    class       volSymmTensorField;
    location    "1900";
    object      devReff;
}
// * * * * * * * * * * * * * * * * * * * * * * * * * * * * * * * * * * * * * //

dimensions      [0 2 -2 0 0 0 0];

internalField   nonuniform List<symmTensor> 
180
(
(-5.92706e-21 -0.00795688 -0 1.18541e-20 -0 -5.92706e-21)
(9.22016e-22 -0.00795685 -0 -1.84403e-21 -0 9.22016e-22)
(-1.87345e-21 -0.0100915 -0 3.7469e-21 -0 -1.87345e-21)
(3.85019e-21 -0.0100914 -0 -7.70037e-21 -0 3.85019e-21)
(1.1195e-20 -0.00963772 -0 -2.239e-20 -0 1.1195e-20)
(-2.50142e-21 -0.00963769 -0 5.00283e-21 -0 -2.50142e-21)
(8.61175e-22 -0.00923476 -0 -1.72235e-21 -0 8.61175e-22)
(-1.23899e-21 -0.00923473 -0 2.47797e-21 -0 -1.23899e-21)
(-1.18314e-20 -0.00901275 -0 2.36628e-20 -0 -1.18314e-20)
(1.16363e-20 -0.00901271 -0 -2.32725e-20 -0 1.16363e-20)
(-4.87464e-21 -0.0088394 -0 9.74928e-21 -0 -4.87464e-21)
(5.73775e-21 -0.00883936 -0 -1.14755e-20 -0 5.73775e-21)
(7.1981e-21 -0.00868737 -0 -1.43962e-20 -0 7.1981e-21)
(-4.52185e-21 -0.00868733 -0 9.0437e-21 -0 -4.52185e-21)
(5.26571e-21 -0.008546 -0 -1.05314e-20 -0 5.26571e-21)
(3.19221e-21 -0.00854596 -0 -6.38443e-21 -0 3.19221e-21)
(5.81964e-21 -0.00841025 -0 -1.16393e-20 -0 5.81964e-21)
(4.11651e-21 -0.00841021 -0 -8.23303e-21 -0 4.11651e-21)
(1.54919e-21 -0.00827757 -0 -3.09838e-21 -0 1.54919e-21)
(4.09311e-22 -0.00827753 -0 -8.18621e-22 -0 4.09311e-22)
(-7.25107e-21 -0.00814657 -0 1.45021e-20 -0 -7.25107e-21)
(-2.12085e-20 -0.00814653 -0 4.24169e-20 -0 -2.12085e-20)
(-6.47578e-21 -0.00801646 -0 1.29516e-20 -0 -6.47578e-21)
(-2.60883e-20 -0.00801641 -0 5.21765e-20 -0 -2.60883e-20)
(7.52561e-21 -0.00788677 -0 -1.50512e-20 -0 7.52561e-21)
(6.07386e-21 -0.00788672 -0 -1.21477e-20 -0 6.07386e-21)
(8.40295e-21 -0.00775724 -0 -1.68059e-20 -0 8.40295e-21)
(1.95136e-21 -0.00775718 -0 -3.90273e-21 -0 1.95136e-21)
(-1.07515e-20 -0.0076277 -0 2.1503e-20 -0 -1.07515e-20)
(-1.24163e-21 -0.00762764 -0 2.48327e-21 -0 -1.24163e-21)
(-4.60234e-21 -0.00749807 -0 9.20467e-21 -0 -4.60234e-21)
(9.03102e-21 -0.007498 -0 -1.8062e-20 -0 9.03102e-21)
(1.83131e-20 -0.00736829 -0 -3.66263e-20 -0 1.83131e-20)
(6.79103e-21 -0.00736822 -0 -1.35821e-20 -0 6.79103e-21)
(2.75361e-20 -0.00723836 -0 -5.50722e-20 -0 2.75361e-20)
(1.02879e-20 -0.00723829 -0 -2.05758e-20 -0 1.02879e-20)
(3.17677e-20 -0.00710829 -0 -6.35353e-20 -0 3.17677e-20)
(5.61324e-21 -0.00710822 -0 -1.12265e-20 -0 5.61324e-21)
(3.73092e-20 -0.0069781 -0 -7.46184e-20 -0 3.73092e-20)
(-1.01358e-20 -0.00697802 -0 2.02716e-20 -0 -1.01358e-20)
(4.26598e-20 -0.00684782 -0 -8.53196e-20 -0 4.26598e-20)
(-2.8259e-20 -0.00684775 -0 5.65179e-20 -0 -2.8259e-20)
(4.91101e-20 -0.00671751 -0 -9.82201e-20 -0 4.91101e-20)
(-4.54882e-20 -0.00671743 -0 9.09764e-20 -0 -4.54882e-20)
(5.85564e-20 -0.0065872 -0 -1.17113e-19 -0 5.85564e-20)
(-4.58624e-20 -0.00658712 -0 9.17247e-20 -0 -4.58624e-20)
(5.55271e-20 -0.00645695 -0 -1.11054e-19 -0 5.55271e-20)
(-1.66831e-20 -0.00645687 -0 3.33663e-20 -0 -1.66831e-20)
(2.20476e-20 -0.00632682 -0 -4.40951e-20 -0 2.20476e-20)
(2.63098e-20 -0.00632674 -0 -5.26196e-20 -0 2.63098e-20)
(-2.80424e-20 -0.00619687 -0 5.60847e-20 -0 -2.80424e-20)
(5.82809e-20 -0.00619678 -0 -1.16562e-19 -0 5.82809e-20)
(-6.00092e-20 -0.00606715 -0 1.20018e-19 -0 -6.00092e-20)
(6.01695e-20 -0.00606707 -0 -1.20339e-19 -0 6.01695e-20)
(-5.40592e-20 -0.00593773 -0 1.08118e-19 -0 -5.40592e-20)
(4.27653e-20 -0.00593765 -0 -8.55307e-20 -0 4.27653e-20)
(-2.59479e-20 -0.00580867 -0 5.18959e-20 -0 -2.59479e-20)
(2.18908e-20 -0.00580858 -0 -4.37817e-20 -0 2.18908e-20)
(9.23834e-21 -0.00568003 -0 -1.84767e-20 -0 9.23834e-21)
(2.48622e-21 -0.00567994 -0 -4.97245e-21 -0 2.48622e-21)
(4.86166e-20 -0.00555186 -0 -9.72331e-20 -0 4.86166e-20)
(-1.08803e-20 -0.00555178 -0 2.17606e-20 -0 -1.08803e-20)
(-2.92984e-20 -0.00542424 -0 5.85969e-20 -0 -2.92984e-20)
(-2.05643e-20 -0.00542415 -0 4.11285e-20 -0 -2.05643e-20)
(-1.27098e-19 -0.0052972 -0 2.54195e-19 -0 -1.27098e-19)
(-2.76546e-20 -0.00529712 -0 5.53093e-20 -0 -2.76546e-20)
(-2.32892e-20 -0.00517083 -0 4.65785e-20 -0 -2.32892e-20)
(-3.52686e-20 -0.00517074 -0 7.05372e-20 -0 -3.52686e-20)
(6.3088e-20 -0.00504515 -0 -1.26176e-19 -0 6.3088e-20)
(-2.04594e-20 -0.00504507 -0 4.09189e-20 -0 -2.04594e-20)
(2.0717e-20 -0.00492024 -0 -4.14339e-20 -0 2.0717e-20)
(1.98583e-20 -0.00492016 -0 -3.97167e-20 -0 1.98583e-20)
(-3.02518e-20 -0.00479614 -0 6.05037e-20 -0 -3.02518e-20)
(3.63259e-20 -0.00479606 -0 -7.26518e-20 -0 3.63259e-20)
(5.89572e-20 -0.00467289 -0 -1.17914e-19 -0 5.89572e-20)
(2.94536e-20 -0.00467282 -0 -5.89072e-20 -0 2.94536e-20)
(1.53807e-19 -0.00455055 -0 -3.07614e-19 -0 1.53807e-19)
(2.50057e-20 -0.00455048 -0 -5.00113e-20 -0 2.50057e-20)
(-1.15405e-20 -0.00442916 -0 2.3081e-20 -0 -1.15405e-20)
(2.08482e-20 -0.00442909 -0 -4.16964e-20 -0 2.08482e-20)
(-1.37419e-19 -0.00430876 -0 2.74838e-19 -0 -1.37419e-19)
(1.65447e-20 -0.00430869 -0 -3.30894e-20 -0 1.65447e-20)
(-1.02652e-19 -0.00418938 -0 2.05303e-19 -0 -1.02652e-19)
(1.248e-20 -0.00418931 -0 -2.496e-20 -0 1.248e-20)
(-6.82297e-20 -0.00407105 -0 1.36459e-19 -0 -6.82297e-20)
(8.43332e-21 -0.004071 -0 -1.68666e-20 -0 8.43332e-21)
(-3.87376e-20 -0.00395382 -0 7.74752e-20 -0 -3.87376e-20)
(4.87145e-21 -0.00395377 -0 -9.74291e-21 -0 4.87145e-21)
(1.4176e-19 -0.00383771 -0 -2.8352e-19 -0 1.4176e-19)
(1.31219e-21 -0.00383766 -0 -2.62437e-21 -0 1.31219e-21)
(3.19757e-19 -0.00372274 -0 -6.39514e-19 -0 3.19757e-19)
(-2.82452e-21 -0.0037227 -0 5.64905e-21 -0 -2.82452e-21)
(-3.01945e-21 -0.00360894 -0 6.03891e-21 -0 -3.01945e-21)
(-7.08417e-21 -0.0036089 -0 1.41683e-20 -0 -7.08417e-21)
(-3.33912e-19 -0.00349632 -0 6.67824e-19 -0 -3.33912e-19)
(-1.09283e-20 -0.00349628 -0 2.18566e-20 -0 -1.09283e-20)
(-1.5478e-19 -0.00338491 -0 3.0956e-19 -0 -1.5478e-19)
(-1.45403e-20 -0.00338487 -0 2.90807e-20 -0 -1.45403e-20)
(3.25386e-20 -0.0032747 -0 -6.50771e-20 -0 3.25386e-20)
(-1.86481e-20 -0.00327467 -0 3.72961e-20 -0 -1.86481e-20)
(5.65583e-20 -0.00316572 -0 -1.13117e-19 -0 5.65583e-20)
(-2.2687e-20 -0.00316569 -0 4.53739e-20 -0 -2.2687e-20)
(9.57517e-20 -0.00305797 -0 -1.91503e-19 -0 9.57517e-20)
(-2.67028e-20 -0.00305794 -0 5.34057e-20 -0 -2.67028e-20)
(1.4332e-19 -0.00295145 -0 -2.8664e-19 -0 1.4332e-19)
(-3.0792e-20 -0.00295143 -0 6.15839e-20 -0 -3.0792e-20)
(1.08999e-21 -0.00284616 -0 -2.17997e-21 -0 1.08999e-21)
(-3.5051e-20 -0.00284614 -0 7.0102e-20 -0 -3.5051e-20)
(-1.68557e-19 -0.0027421 -0 3.37113e-19 -0 -1.68557e-19)
(-3.96729e-20 -0.00274209 -0 7.93457e-20 -0 -3.96729e-20)
(-6.77182e-21 -0.00263927 -0 1.35436e-20 -0 -6.77182e-21)
(-4.44654e-20 -0.00263926 -0 8.89307e-20 -0 -4.44654e-20)
(1.29761e-19 -0.00253766 -0 -2.59521e-19 -0 1.29761e-19)
(-4.96209e-20 -0.00253765 -0 9.92418e-20 -0 -4.96209e-20)
(6.58904e-20 -0.00243725 -0 -1.31781e-19 -0 6.58904e-20)
(-5.50623e-20 -0.00243724 -0 1.10125e-19 -0 -5.50623e-20)
(-7.33709e-22 -0.00233804 -0 1.46742e-21 -0 -7.33709e-22)
(-6.07369e-20 -0.00233803 -0 1.21474e-19 -0 -6.07369e-20)
(-6.90659e-20 -0.00224001 -0 1.38132e-19 -0 -6.90659e-20)
(-6.66014e-20 -0.00224 -0 1.33203e-19 -0 -6.66014e-20)
(-1.37729e-19 -0.00214314 -0 2.75459e-19 -0 -1.37729e-19)
(-7.49195e-20 -0.00214313 -0 1.49839e-19 -0 -7.49195e-20)
(1.34704e-20 -0.00204741 -0 -2.69407e-20 -0 1.34704e-20)
(-4.49279e-20 -0.0020474 -0 8.98558e-20 -0 -4.49279e-20)
(1.97477e-19 -0.0019528 -0 -3.94954e-19 -0 1.97477e-19)
(2.64528e-20 -0.0019528 -0 -5.29055e-20 -0 2.64528e-20)
(8.37612e-21 -0.00185928 -0 -1.67522e-20 -0 8.37612e-21)
(5.71516e-20 -0.00185928 -0 -1.14303e-19 -0 5.71516e-20)
(-1.54815e-19 -0.00176684 -0 3.0963e-19 -0 -1.54815e-19)
(4.94913e-20 -0.00176684 -0 -9.89826e-20 -0 4.94913e-20)
(-9.98936e-20 -0.00167543 -0 1.99787e-19 -0 -9.98936e-20)
(4.46651e-20 -0.00167544 -0 -8.93301e-20 -0 4.46651e-20)
(-5.36535e-20 -0.00158504 -0 1.07307e-19 -0 -5.36535e-20)
(3.97284e-20 -0.00158505 -0 -7.94569e-20 -0 3.97284e-20)
(-2.49734e-20 -0.00149563 -0 4.99468e-20 -0 -2.49734e-20)
(3.49047e-20 -0.00149564 -0 -6.98093e-20 -0 3.49047e-20)
(-7.2714e-21 -0.00140717 -0 1.45428e-20 -0 -7.2714e-21)
(3.02042e-20 -0.00140718 -0 -6.04084e-20 -0 3.02042e-20)
(3.69845e-21 -0.00131963 -0 -7.39691e-21 -0 3.69845e-21)
(2.56577e-20 -0.00131963 -0 -5.13154e-20 -0 2.56577e-20)
(1.04808e-20 -0.00123297 -0 -2.09617e-20 -0 1.04808e-20)
(2.11616e-20 -0.00123297 -0 -4.23231e-20 -0 2.11616e-20)
(1.47045e-20 -0.00114715 -0 -2.94091e-20 -0 1.47045e-20)
(1.67515e-20 -0.00114715 -0 -3.3503e-20 -0 1.67515e-20)
(1.7441e-20 -0.00106213 -0 -3.4882e-20 -0 1.7441e-20)
(1.25797e-20 -0.00106214 -0 -2.51594e-20 -0 1.25797e-20)
(1.93107e-20 -0.000977888 -0 -3.86214e-20 -0 1.93107e-20)
(8.6565e-21 -0.00097789 -0 -1.7313e-20 -0 8.6565e-21)
(2.06729e-20 -0.00089437 -0 -4.13457e-20 -0 2.06729e-20)
(4.87161e-21 -0.000894372 -0 -9.74323e-21 -0 4.87161e-21)
(2.17337e-20 -0.00081154 -0 -4.34673e-20 -0 2.17337e-20)
(1.24501e-21 -0.000811541 -0 -2.49002e-21 -0 1.24501e-21)
(2.26574e-20 -0.000729357 -0 -4.53147e-20 -0 2.26574e-20)
(-2.07875e-21 -0.000729356 -0 4.1575e-21 -0 -2.07875e-21)
(2.34609e-20 -0.000647777 -0 -4.69218e-20 -0 2.34609e-20)
(-5.15522e-21 -0.000647774 -0 1.03104e-20 -0 -5.15522e-21)
(2.40886e-20 -0.000566756 -0 -4.81773e-20 -0 2.40886e-20)
(-8.03928e-21 -0.000566752 -0 1.60786e-20 -0 -8.03928e-21)
(2.47177e-20 -0.00048625 -0 -4.94355e-20 -0 2.47177e-20)
(-1.06629e-20 -0.000486244 -0 2.13258e-20 -0 -1.06629e-20)
(2.52928e-20 -0.000406209 -0 -5.05855e-20 -0 2.52928e-20)
(-1.30161e-20 -0.000406201 -0 2.60322e-20 -0 -1.30161e-20)
(2.57899e-20 -0.000326579 -0 -5.15798e-20 -0 2.57899e-20)
(-1.51332e-20 -0.000326569 -0 3.02664e-20 -0 -1.51332e-20)
(2.62348e-20 -0.000247297 -0 -5.24697e-20 -0 2.62348e-20)
(-1.69474e-20 -0.000247285 -0 3.38948e-20 -0 -1.69474e-20)
(2.65889e-20 -0.000168289 -0 -5.31777e-20 -0 2.65889e-20)
(-1.84838e-20 -0.000168273 -0 3.69676e-20 -0 -1.84838e-20)
(2.68613e-20 -8.94572e-05 -0 -5.37225e-20 -0 2.68613e-20)
(-1.97861e-20 -8.94393e-05 -0 3.95723e-20 -0 -1.97861e-20)
(2.70385e-20 -1.06823e-05 -0 -5.40771e-20 -0 2.70385e-20)
(-2.08242e-20 -1.06621e-05 -0 4.16484e-20 -0 -2.08242e-20)
(2.71276e-20 6.81878e-05 -0 -5.42552e-20 -0 2.71276e-20)
(-2.15919e-20 6.82093e-05 -0 4.31837e-20 -0 -2.15919e-20)
(2.71332e-20 0.000147321 -0 -5.42665e-20 -0 2.71332e-20)
(-2.20979e-20 0.000147342 -0 4.41958e-20 -0 -2.20979e-20)
(2.70769e-20 0.000226955 -0 -5.41537e-20 -0 2.70769e-20)
(-2.23351e-20 0.00022697 -0 4.46701e-20 -0 -2.23351e-20)
(2.67256e-20 0.000133464 -0 -5.34512e-20 -0 2.67256e-20)
(-2.24629e-20 0.00013347 -0 4.49257e-20 -0 -2.24629e-20)
)
;

boundaryField
{
    inlet
    {
        type            cyclic;
    }
    outlet
    {
        type            cyclic;
    }
    bottom
    {
        type            symmetry;
    }
    top
    {
        type            calculated;
        value           nonuniform List<symmTensor> 2((-6.46769e-21 -0.00939592 -0 1.29354e-20 -0 -6.46769e-21) (-4.6e-22 -0.0093959 -0 9.2e-22 -0 -4.6e-22));
    }
    frontAndBack
    {
        type            empty;
    }
}


// ************************************************************************* //
