/*--------------------------------*- C++ -*----------------------------------*\
  =========                 |
  \\      /  F ield         | OpenFOAM: The Open Source CFD Toolbox
   \\    /   O peration     | Website:  https://openfoam.org
    \\  /    A nd           | Version:  7
     \\/     M anipulation  |
\*---------------------------------------------------------------------------*/
FoamFile
{
    version     2.0;
    format      ascii;
    class       volScalarField;
    location    "1900";
    object      k;
}
// * * * * * * * * * * * * * * * * * * * * * * * * * * * * * * * * * * * * * //

dimensions      [0 2 -2 0 0 0 0];

internalField   nonuniform List<scalar> 
180
(
0.00513302
0.00513295
0.0234461
0.0234461
0.0265454
0.0265453
0.0272045
0.0272044
0.0273105
0.0273104
0.0271963
0.0271962
0.0269733
0.0269731
0.0266892
0.0266891
0.0263681
0.026368
0.0260234
0.0260233
0.0256634
0.0256633
0.0252935
0.0252934
0.0249176
0.0249175
0.0245384
0.0245383
0.024158
0.0241579
0.0237782
0.023778
0.0234002
0.0234001
0.0230254
0.0230252
0.0226546
0.0226545
0.0222888
0.0222886
0.0219286
0.0219285
0.0215748
0.0215747
0.021228
0.0212279
0.0208887
0.0208886
0.0205574
0.0205573
0.0202345
0.0202343
0.0199204
0.0199202
0.0196153
0.0196151
0.0193195
0.0193193
0.0190332
0.019033
0.0187567
0.0187565
0.01849
0.0184898
0.0182332
0.0182329
0.0179863
0.0179861
0.0177494
0.0177491
0.0175223
0.0175221
0.0173051
0.0173048
0.0170977
0.0170974
0.0168998
0.0168995
0.0167113
0.016711
0.0165322
0.0165318
0.016362
0.0163617
0.0162007
0.0162004
0.016048
0.0160477
0.0159037
0.0159033
0.0157674
0.015767
0.0156389
0.0156385
0.0155179
0.0155175
0.0154042
0.0154038
0.0152975
0.015297
0.0151974
0.0151969
0.0151037
0.0151032
0.015016
0.0150156
0.0149342
0.0149337
0.0148579
0.0148574
0.0147869
0.0147864
0.0147208
0.0147203
0.0146595
0.0146589
0.0146026
0.014602
0.0145499
0.0145493
0.0145012
0.0145006
0.0144562
0.0144556
0.0144147
0.0144141
0.0143765
0.0143759
0.0143414
0.0143408
0.0143091
0.0143085
0.0142796
0.014279
0.0142525
0.0142519
0.0142278
0.0142271
0.0142052
0.0142046
0.0141846
0.014184
0.0141659
0.0141652
0.0141488
0.0141482
0.0141334
0.0141327
0.0141194
0.0141187
0.0141067
0.0141061
0.0140952
0.0140946
0.0140849
0.0140842
0.0140755
0.0140749
0.0140671
0.0140665
0.0140595
0.0140589
0.0140527
0.014052
0.0140466
0.0140459
0.0140411
0.0140404
0.0140361
0.0140354
0.0140317
0.014031
0.0140277
0.014027
0.0140241
0.0140234
0.0140208
0.0140201
0.0140178
0.0140171
)
;

boundaryField
{
    inlet
    {
        type            cyclic;
    }
    outlet
    {
        type            cyclic;
    }
    bottom
    {
        type            symmetry;
    }
    top
    {
        type            kqRWallFunction;
        value           nonuniform List<scalar> 2(0.00513302 0.00513295);
    }
    frontAndBack
    {
        type            empty;
    }
}


// ************************************************************************* //
