/*--------------------------------*- C++ -*----------------------------------*\
  =========                 |
  \\      /  F ield         | OpenFOAM: The Open Source CFD Toolbox
   \\    /   O peration     | Website:  https://openfoam.org
    \\  /    A nd           | Version:  7
     \\/     M anipulation  |
\*---------------------------------------------------------------------------*/
FoamFile
{
    version     2.0;
    format      ascii;
    class       volScalarField;
    location    "1900";
    object      nut;
}
// * * * * * * * * * * * * * * * * * * * * * * * * * * * * * * * * * * * * * //

dimensions      [0 2 -1 0 0 0 0];

internalField   nonuniform List<scalar> 
180
(
1.98033e-06
1.9803e-06
2.57487e-05
2.57486e-05
5.84184e-05
5.84182e-05
9.23338e-05
9.23336e-05
0.000126811
0.000126811
0.000161119
0.000161118
0.0001949
0.000194899
0.000228003
0.000228003
0.000260374
0.000260373
0.000292006
0.000292005
0.00032292
0.000322918
0.00035315
0.000353148
0.000382739
0.000382737
0.000411735
0.000411732
0.000440188
0.000440184
0.000468147
0.000468142
0.000495664
0.000495658
0.000522786
0.000522779
0.000549563
0.000549554
0.00057604
0.00057603
0.000602263
0.000602251
0.000628272
0.000628259
0.00065411
0.000654095
0.000679813
0.000679796
0.000705416
0.000705397
0.000730953
0.000730932
0.000756453
0.000756429
0.000781942
0.000781917
0.000807446
0.000807419
0.000832986
0.000832956
0.000858579
0.000858547
0.000884241
0.000884206
0.000909983
0.000909946
0.000935814
0.000935775
0.00096174
0.000961699
0.000987763
0.00098772
0.00101388
0.00101384
0.0010401
0.00104005
0.0010664
0.00106635
0.00109277
0.00109272
0.00111922
0.00111916
0.00114571
0.00114566
0.00117223
0.00117218
0.00119877
0.00119872
0.0012253
0.00122525
0.00125181
0.00125175
0.00127825
0.00127819
0.00130461
0.00130455
0.00133086
0.0013308
0.00135697
0.00135691
0.00138291
0.00138285
0.00140865
0.00140859
0.00143416
0.0014341
0.0014594
0.00145935
0.00148435
0.0014843
0.00150898
0.00150892
0.00153324
0.00153319
0.00155712
0.00155708
0.00158059
0.00158054
0.0016036
0.00160356
0.00162614
0.0016261
0.00164817
0.00164813
0.00166967
0.00166963
0.00169062
0.00169058
0.00171097
0.00171094
0.00173073
0.00173069
0.00174985
0.00174982
0.00176831
0.00176829
0.00178611
0.00178608
0.0018032
0.00180318
0.00181959
0.00181957
0.00183525
0.00183523
0.00185015
0.00185014
0.0018643
0.00186429
0.00187767
0.00187766
0.00189025
0.00189024
0.00190202
0.00190201
0.00191298
0.00191298
0.00192312
0.00192312
0.00193242
0.00193242
0.00194089
0.00194088
0.0019485
0.00194849
0.00195525
0.00195525
0.00196114
0.00196114
0.00196616
0.00196616
0.0019703
0.0019703
0.00197357
0.00197357
0.00197595
0.00197595
0.00197744
0.00197745
0.00197804
0.00197805
)
;

boundaryField
{
    inlet
    {
        type            cyclic;
    }
    outlet
    {
        type            cyclic;
    }
    bottom
    {
        type            symmetry;
    }
    top
    {
        type            nutkWallFunction;
        Cmu             0.09;
        kappa           0.41;
        E               9.8;
        value           uniform 0;
    }
    frontAndBack
    {
        type            empty;
    }
}


// ************************************************************************* //
