/*--------------------------------*- C++ -*----------------------------------*\
  =========                 |
  \\      /  F ield         | OpenFOAM: The Open Source CFD Toolbox
   \\    /   O peration     | Website:  https://openfoam.org
    \\  /    A nd           | Version:  7
     \\/     M anipulation  |
\*---------------------------------------------------------------------------*/
FoamFile
{
    version     2.0;
    format      ascii;
    class       volScalarField;
    location    "1900";
    object      omega;
}
// * * * * * * * * * * * * * * * * * * * * * * * * * * * * * * * * * * * * * //

dimensions      [0 0 -1 0 0 0 0];

internalField   nonuniform List<scalar> 
180
(
2592
2592
873.845
873.845
453.73
453.729
294.632
294.631
215.363
215.363
168.797
168.796
138.396
138.395
117.056
117.056
101.27
101.27
89.1193
89.1192
79.473
79.4729
71.6227
71.6227
65.1034
65.1034
59.5975
59.5976
54.8811
54.8813
50.7921
50.7923
47.2099
47.2102
44.0436
44.0439
41.223
41.2233
38.6931
38.6935
36.4104
36.4108
34.3399
34.3404
32.4533
32.4538
30.7272
30.7277
29.1423
29.1428
27.6824
27.6829
26.3339
26.3345
25.0853
25.0859
23.9266
23.9272
22.8494
22.85
21.8462
21.8468
20.9106
20.9111
20.0368
20.0374
19.22
19.2205
18.4555
18.456
17.7394
17.7399
17.0682
17.0686
16.4385
16.439
15.8476
15.848
15.2926
15.293
14.7712
14.7716
14.2812
14.2815
13.8204
13.8207
13.387
13.3873
12.9793
12.9796
12.5957
12.596
12.2346
12.2348
11.8947
11.8949
11.5746
11.5748
11.2733
11.2734
10.9894
10.9895
10.7221
10.7222
10.4703
10.4704
10.2331
10.2332
10.0097
10.0097
9.79928
9.79928
9.60109
9.60107
9.41445
9.4144
9.23871
9.23864
9.07326
9.07318
8.91755
8.91744
8.77104
8.77092
8.63324
8.6331
8.5037
8.50354
8.38198
8.38181
8.2677
8.26751
8.16046
8.16026
8.05994
8.05972
7.96579
7.96557
7.87774
7.8775
7.79549
7.79524
7.71878
7.71852
7.64738
7.64711
7.58107
7.58079
7.51963
7.51934
7.46289
7.46259
7.41066
7.41035
7.36278
7.36246
7.31911
7.31879
7.27952
7.27919
7.24388
7.24354
7.21209
7.21175
7.18405
7.1837
7.15966
7.15931
7.13887
7.13851
7.1216
7.12123
7.10779
7.10742
7.09739
7.09702
7.09038
7.09001
7.08671
7.08633
)
;

boundaryField
{
    inlet
    {
        type            cyclic;
    }
    outlet
    {
        type            cyclic;
    }
    bottom
    {
        type            symmetry;
    }
    top
    {
        beta1           0.075;
        blended         0;
        type            omegaWallFunction;
        value           uniform 2592;
    }
    frontAndBack
    {
        type            empty;
    }
}


// ************************************************************************* //
