/*--------------------------------*- C++ -*----------------------------------*\
  =========                 |
  \\      /  F ield         | OpenFOAM: The Open Source CFD Toolbox
   \\    /   O peration     | Website:  https://openfoam.org
    \\  /    A nd           | Version:  7
     \\/     M anipulation  |
\*---------------------------------------------------------------------------*/
FoamFile
{
    version     2.0;
    format      ascii;
    class       volScalarField;
    location    "1900";
    object      p;
}
// * * * * * * * * * * * * * * * * * * * * * * * * * * * * * * * * * * * * * //

dimensions      [0 2 -2 0 0 0 0];

internalField   nonuniform List<scalar> 
180
(
1.42815e-20
6.64131e-17
3.5659e-20
6.6415e-17
3.97507e-20
6.64124e-17
6.03531e-20
6.63789e-17
5.76541e-20
6.63832e-17
4.01543e-20
6.6402e-17
1.79884e-20
6.64089e-17
4.8899e-20
6.63981e-17
8.37937e-20
6.63639e-17
7.26243e-20
6.63507e-17
5.96584e-20
6.63363e-17
7.51055e-20
6.63211e-17
1.24162e-19
6.63049e-17
1.76534e-19
6.62526e-17
8.01278e-20
6.63489e-17
1.38774e-19
6.63307e-17
2.00185e-19
6.6312e-17
2.19567e-19
6.63379e-17
2.39201e-19
6.63182e-17
2.5955e-19
6.62982e-17
2.8013e-19
6.62777e-17
3.01186e-19
6.6257e-17
3.22478e-19
6.62359e-17
3.44005e-19
6.63325e-17
2.43521e-19
6.64333e-17
1.38577e-19
6.65383e-17
2.94529e-20
6.65165e-17
5.12608e-20
6.64946e-17
7.32827e-20
6.64726e-17
9.50236e-20
6.64506e-17
1.16892e-19
6.64284e-17
1.38468e-19
6.64063e-17
1.60016e-19
6.63841e-17
1.8147e-19
6.63619e-17
2.02738e-19
6.63397e-17
2.24167e-19
6.64889e-17
2.45269e-19
6.64669e-17
2.6675e-19
6.64449e-17
2.87836e-19
6.64229e-17
1.19895e-19
6.64011e-17
1.41154e-19
6.63794e-17
1.62761e-19
6.63578e-17
1.84113e-19
6.63363e-17
2.05516e-19
6.63151e-17
2.26794e-19
6.62939e-17
2.47752e-19
6.6273e-17
4.68693e-20
6.62523e-17
-1.59208e-19
6.62317e-17
-1.3896e-19
6.62115e-17
-1.1934e-19
6.61914e-17
-9.98481e-20
6.61717e-17
-8.08754e-20
6.61522e-17
-6.21507e-20
6.6133e-17
-4.37388e-20
6.61141e-17
-2.56809e-20
6.60955e-17
-7.7835e-21
6.60772e-17
9.68798e-21
6.60593e-17
2.70235e-20
6.60418e-17
4.39005e-20
6.60247e-17
6.05901e-20
6.60079e-17
7.68254e-20
6.59916e-17
9.2749e-20
6.59756e-17
1.08233e-19
6.62504e-17
1.2329e-19
6.62353e-17
1.3792e-19
6.62208e-17
1.5203e-19
6.62066e-17
1.65716e-19
6.6193e-17
1.78817e-19
6.61799e-17
1.91482e-19
6.61673e-17
2.03535e-19
6.61552e-17
2.15124e-19
6.61436e-17
2.26086e-19
6.61326e-17
2.36547e-19
6.61221e-17
2.46393e-19
6.61122e-17
2.55696e-19
6.61029e-17
2.64404e-19
6.60941e-17
2.72532e-19
6.6086e-17
2.80086e-19
6.60784e-17
2.87034e-19
6.60714e-17
2.93408e-19
6.60651e-17
2.99164e-19
6.60593e-17
3.0432e-19
6.60542e-17
3.0885e-19
6.60496e-17
3.12751e-19
6.60458e-17
3.16017e-19
6.60425e-17
3.18643e-19
6.60399e-17
3.20627e-19
6.60379e-17
3.21967e-19
6.60366e-17
3.22663e-19
6.60359e-17
3.22752e-19
6.60358e-17
)
;

boundaryField
{
    inlet
    {
        type            cyclic;
    }
    outlet
    {
        type            cyclic;
    }
    bottom
    {
        type            symmetry;
    }
    top
    {
        type            zeroGradient;
    }
    frontAndBack
    {
        type            empty;
    }
}


// ************************************************************************* //
