/*--------------------------------*- C++ -*----------------------------------*\
  =========                 |
  \\      /  F ield         | OpenFOAM: The Open Source CFD Toolbox
   \\    /   O peration     | Website:  https://openfoam.org
    \\  /    A nd           | Version:  7
     \\/     M anipulation  |
\*---------------------------------------------------------------------------*/
FoamFile
{
    version     2.0;
    format      ascii;
    class       surfaceScalarField;
    location    "1900";
    object      phi;
}
// * * * * * * * * * * * * * * * * * * * * * * * * * * * * * * * * * * * * * //

dimensions      [0 3 -1 0 0 0 0];

internalField   nonuniform List<scalar> 
268
(
0.000579995
-5.85744e-19
7.00659e-20
0.00105991
-3.40719e-19
1.18128e-19
0.001277
-3.47696e-19
1.75911e-19
0.00140772
-3.08214e-19
9.68853e-20
0.00149982
-3.77984e-19
1.74052e-19
0.00157038
-3.93321e-19
2.10829e-19
0.00162737
-3.92222e-19
1.93152e-19
0.00167507
-3.73874e-19
2.15884e-19
0.00171603
-3.31523e-19
2.1243e-19
0.00175187
-3.33192e-19
2.18984e-19
0.0017837
-3.56301e-19
2.16129e-19
0.00181229
-3.75634e-19
2.84011e-21
0.00183821
-3.79291e-19
1.92959e-19
0.00186188
-2.93469e-19
8.50335e-20
0.00188363
-3.81941e-19
1.35782e-19
0.00190371
-3.70071e-19
1.4169e-19
0.00192235
-3.33489e-19
1.36224e-19
0.00193969
-2.91574e-19
1.68653e-19
0.00195589
-2.47859e-19
1.71537e-19
0.00197106
-1.92201e-19
1.57297e-19
0.00198529
-1.35795e-19
1.18685e-19
0.00199868
-7.09316e-20
7.0444e-20
0.00201128
-8.38734e-21
-8.86207e-21
0.00202317
7.95549e-20
-1.83047e-20
0.00203439
9.59166e-20
1.25596e-21
0.002045
7.37284e-20
8.85188e-20
0.00205504
-1.13272e-20
1.43232e-19
0.00206455
-5.92558e-20
1.88318e-19
0.00207355
-8.42602e-20
2.10557e-19
0.00208209
-7.62815e-20
2.13087e-19
0.00209019
-2.88309e-20
2.02581e-19
0.00209788
4.25494e-20
1.83476e-19
0.00210517
-2.68032e-19
1.58371e-19
0.00211209
-1.91717e-19
1.38261e-19
0.00211867
-1.38555e-19
8.82029e-20
0.00212491
-1.20057e-19
1.3701e-19
0.00213084
-1.46035e-19
1.55914e-19
0.00213648
-2.07546e-19
1.79313e-19
0.00214183
1.37865e-19
1.98655e-19
0.00214692
1.73186e-21
2.14424e-19
0.00215175
-8.9994e-20
2.26624e-19
0.00215634
-1.63358e-19
2.3563e-19
0.0021607
-2.11808e-19
2.41571e-19
0.00216484
-2.38469e-19
2.4493e-19
0.00216878
-2.5216e-19
2.45817e-19
0.00217251
1.75465e-19
2.43949e-19
0.00217606
1.76293e-19
2.39371e-19
0.00217943
-2.52804e-19
2.32436e-19
0.00218263
-2.41142e-19
2.23406e-19
0.00218566
-2.2175e-19
2.1203e-19
0.00218854
-1.87581e-19
1.98464e-19
0.00219128
-1.31515e-19
1.82771e-19
0.00219387
-4.8779e-20
1.65009e-19
0.00219632
5.04097e-20
1.45123e-19
0.00219865
-2.39174e-19
1.23004e-19
0.00220085
-1.45791e-19
9.86021e-20
0.00220294
-7.5981e-20
7.18137e-20
0.00220491
-4.06851e-20
4.25255e-20
0.00220678
-4.13108e-20
1.07111e-20
0.00220854
-7.67842e-20
-2.36935e-20
0.00221021
-1.47078e-19
-5.10558e-20
0.00221178
-2.38516e-19
-1.05874e-19
0.00221326
5.4833e-20
-6.06482e-20
0.00221465
-3.81311e-20
-4.33014e-20
0.00221595
-1.13058e-19
-1.93288e-20
0.00221718
-1.60948e-19
2.04688e-21
0.00221833
-1.86262e-19
2.08665e-20
0.00221941
-1.98068e-19
3.72169e-20
0.00222041
-2.01333e-19
5.12369e-20
0.00222134
-1.99743e-19
6.30234e-20
0.00222221
-1.94865e-19
7.26675e-20
0.002223
-1.88311e-19
8.02277e-20
0.00222374
-1.8043e-19
8.5868e-20
0.00222441
-1.71891e-19
8.97123e-20
0.00222503
-1.62739e-19
9.18673e-20
0.00222558
-1.53213e-19
9.24093e-20
0.00222608
-1.4335e-19
9.15068e-20
0.00222653
-1.33161e-19
8.92698e-20
0.00222691
-1.22805e-19
8.58064e-20
0.00222725
-1.12177e-19
8.12306e-20
0.00222753
-1.01392e-19
7.56711e-20
0.00222776
-9.04061e-20
6.92321e-20
0.00222794
-7.92872e-20
6.20453e-20
0.00222807
-6.80431e-20
5.42315e-20
0.00222816
-5.67166e-20
4.5887e-20
0.00222819
-4.53379e-20
3.71246e-20
0.00222817
-3.39415e-20
2.80533e-20
0.0022281
-2.25551e-20
1.87794e-20
0.00222799
-1.11933e-20
9.40586e-21
0.00222782
)
;

boundaryField
{
    inlet
    {
        type            cyclic;
        value           nonuniform List<scalar> 
90
(
-0.000579995
-0.00105991
-0.001277
-0.00140772
-0.00149982
-0.00157038
-0.00162737
-0.00167507
-0.00171603
-0.00175187
-0.0017837
-0.00181229
-0.00183821
-0.00186188
-0.00188363
-0.00190371
-0.00192235
-0.00193969
-0.00195589
-0.00197106
-0.00198529
-0.00199868
-0.00201128
-0.00202317
-0.00203439
-0.002045
-0.00205504
-0.00206455
-0.00207355
-0.00208209
-0.00209019
-0.00209788
-0.00210517
-0.00211209
-0.00211867
-0.00212491
-0.00213084
-0.00213648
-0.00214183
-0.00214692
-0.00215175
-0.00215634
-0.0021607
-0.00216484
-0.00216878
-0.00217251
-0.00217606
-0.00217943
-0.00218263
-0.00218566
-0.00218854
-0.00219128
-0.00219387
-0.00219632
-0.00219865
-0.00220085
-0.00220294
-0.00220491
-0.00220678
-0.00220854
-0.00221021
-0.00221178
-0.00221326
-0.00221465
-0.00221595
-0.00221718
-0.00221833
-0.00221941
-0.00222041
-0.00222134
-0.00222221
-0.002223
-0.00222374
-0.00222441
-0.00222503
-0.00222558
-0.00222608
-0.00222653
-0.00222691
-0.00222725
-0.00222753
-0.00222776
-0.00222794
-0.00222807
-0.00222816
-0.00222819
-0.00222817
-0.0022281
-0.00222799
-0.00222782
)
;
    }
    outlet
    {
        type            cyclic;
        value           nonuniform List<scalar> 
90
(
0.000579995
0.00105991
0.001277
0.00140772
0.00149982
0.00157038
0.00162737
0.00167507
0.00171603
0.00175187
0.0017837
0.00181229
0.00183821
0.00186188
0.00188363
0.00190371
0.00192235
0.00193969
0.00195589
0.00197106
0.00198529
0.00199868
0.00201128
0.00202317
0.00203439
0.002045
0.00205504
0.00206455
0.00207355
0.00208209
0.00209019
0.00209788
0.00210517
0.00211209
0.00211867
0.00212491
0.00213084
0.00213648
0.00214183
0.00214692
0.00215175
0.00215634
0.0021607
0.00216484
0.00216878
0.00217251
0.00217606
0.00217943
0.00218263
0.00218566
0.00218854
0.00219128
0.00219387
0.00219632
0.00219865
0.00220085
0.00220294
0.00220491
0.00220678
0.00220854
0.00221021
0.00221178
0.00221326
0.00221465
0.00221595
0.00221718
0.00221833
0.00221941
0.00222041
0.00222134
0.00222221
0.002223
0.00222374
0.00222441
0.00222503
0.00222558
0.00222608
0.00222653
0.00222691
0.00222725
0.00222753
0.00222776
0.00222794
0.00222807
0.00222816
0.00222819
0.00222817
0.0022281
0.00222799
0.00222782
)
;
    }
    bottom
    {
        type            symmetry;
        value           uniform 0;
    }
    top
    {
        type            calculated;
        value           uniform 0;
    }
    frontAndBack
    {
        type            empty;
        value           nonuniform 0();
    }
}


// ************************************************************************* //
