/*--------------------------------*- C++ -*----------------------------------*\
  =========                 |
  \\      /  F ield         | OpenFOAM: The Open Source CFD Toolbox
   \\    /   O peration     | Website:  https://openfoam.org
    \\  /    A nd           | Version:  7
     \\/     M anipulation  |
\*---------------------------------------------------------------------------*/
FoamFile
{
    version     2.0;
    format      ascii;
    class       volVectorField;
    location    "1900";
    object      U;
}
// * * * * * * * * * * * * * * * * * * * * * * * * * * * * * * * * * * * * * //

dimensions      [0 1 -1 0 0 0 0];

internalField   nonuniform List<vector> 
180
(
(0.521996 -5.38974e-19 0)
(0.521994 -3.83333e-20 0)
(0.95392 -1.11014e-18 0)
(0.953918 2.9487e-19 0)
(1.1493 -7.13662e-19 0)
(1.1493 3.20673e-19 0)
(1.26695 -5.64716e-19 0)
(1.26695 1.73001e-19 0)
(1.34984 -6.8561e-19 0)
(1.34984 2.80315e-19 0)
(1.41335 -8.52982e-19 0)
(1.41334 4.56513e-19 0)
(1.46463 -7.80567e-19 0)
(1.46463 3.92084e-19 0)
(1.50756 -7.35882e-19 0)
(1.50756 3.8295e-19 0)
(1.54443 -7.06818e-19 0)
(1.54442 4.36793e-19 0)
(1.57669 -6.64134e-19 0)
(1.57669 4.33701e-19 0)
(1.60534 -6.89719e-19 0)
(1.60533 4.41311e-19 0)
(1.63107 -7.36735e-19 0)
(1.63106 2.21353e-19 0)
(1.65439 -7.4916e-19 0)
(1.65439 2.01846e-19 0)
(1.67569 -6.72862e-19 0)
(1.67569 2.72904e-19 0)
(1.69527 -6.82745e-19 0)
(1.69526 2.1727e-19 0)
(1.71334 -7.5247e-19 0)
(1.71334 2.63711e-19 0)
(1.73011 -7.14829e-19 0)
(1.73011 2.80229e-19 0)
(1.74572 -6.31749e-19 0)
(1.74572 3.08478e-19 0)
(1.7603 -5.42552e-19 0)
(1.7603 3.44595e-19 0)
(1.77395 -4.42508e-19 0)
(1.77395 3.41916e-19 0)
(1.78676 -3.30341e-19 0)
(1.78676 2.86943e-19 0)
(1.79881 -2.10256e-19 0)
(1.79881 1.88064e-19 0)
(1.81015 -7.38671e-20 0)
(1.81015 4.93791e-20 0)
(1.82085 8.36531e-20 0)
(1.82085 -4.21363e-20 0)
(1.83095 1.94453e-19 0)
(1.83095 -3.12397e-20 0)
(1.8405 1.86379e-19 0)
(1.8405 8.0452e-20 0)
(1.84954 6.82982e-20 0)
(1.84954 2.30957e-19 0)
(1.85809 -7.46035e-20 0)
(1.85809 3.4214e-19 0)
(1.8662 -1.5924e-19 0)
(1.8662 4.10964e-19 0)
(1.87388 -1.80412e-19 0)
(1.87388 4.31408e-19 0)
(1.88117 -1.2271e-19 0)
(1.88117 4.20796e-19 0)
(1.88809 6.16269e-21 0)
(1.88809 3.89651e-19 0)
(1.89465 -2.31922e-19 0)
(1.89465 3.44138e-19 0)
(1.90088 -4.54345e-19 0)
(1.90088 2.89447e-19 0)
(1.9068 -3.14e-19 0)
(1.9068 2.19836e-19 0)
(1.91242 -2.37935e-19 0)
(1.91242 2.19263e-19 0)
(1.91776 -2.44789e-19 0)
(1.91776 2.86182e-19 0)
(1.92283 -3.36423e-19 0)
(1.92283 3.3753e-19 0)
(1.92765 -5.76402e-20 0)
(1.92765 3.79681e-19 0)
(1.93223 1.3988e-19 0)
(1.93223 4.1497e-19 0)
(1.93657 -9.25235e-20 0)
(1.93657 4.42701e-19 0)
(1.94071 -2.65768e-19 0)
(1.94071 4.6381e-19 0)
(1.94463 -3.88595e-19 0)
(1.94463 4.78698e-19 0)
(1.94836 -4.58143e-19 0)
(1.94836 4.87589e-19 0)
(1.9519 -4.95418e-19 0)
(1.9519 4.92132e-19 0)
(1.95526 -7.56186e-20 0)
(1.95526 4.9113e-19 0)
(1.95845 3.49289e-19 0)
(1.95846 4.8467e-19 0)
(1.96149 -8.34314e-20 0)
(1.96149 4.72799e-19 0)
(1.96436 -4.9738e-19 0)
(1.96437 4.56959e-19 0)
(1.9671 -4.68209e-19 0)
(1.9671 4.36651e-19 0)
(1.96969 -4.18036e-19 0)
(1.96969 4.11484e-19 0)
(1.97215 -3.32861e-19 0)
(1.97215 3.82357e-19 0)
(1.97448 -1.93052e-19 0)
(1.97448 3.48739e-19 0)
(1.97669 -2.05651e-21 0)
(1.97669 3.11282e-19 0)
(1.97878 -1.9058e-19 0)
(1.97878 2.69223e-19 0)
(1.98077 -3.78043e-19 0)
(1.98077 2.22784e-19 0)
(1.98264 -2.0544e-19 0)
(1.98265 1.71643e-19 0)
(1.98442 -9.7766e-20 0)
(1.98442 1.15601e-19 0)
(1.9861 -6.52886e-20 0)
(1.9861 5.45194e-20 0)
(1.98769 -9.93037e-20 0)
(1.98769 -1.16865e-20 0)
(1.98919 -2.07963e-19 0)
(1.98919 -8.30677e-20 0)
(1.9906 -3.79902e-19 0)
(1.9906 -1.64325e-19 0)
(1.99193 -1.80884e-19 0)
(1.99193 -1.73386e-19 0)
(1.99318 1.19934e-20 0)
(1.99318 -1.11828e-19 0)
(1.99436 -1.64467e-19 0)
(1.99436 -6.13623e-20 0)
(1.99546 -2.87865e-19 0)
(1.99546 -1.59673e-20 0)
(1.9965 -3.55754e-19 0)
(1.9965 2.41688e-20 0)
(1.99746 -3.89491e-19 0)
(1.99747 5.92838e-20 0)
(1.99837 -4.02565e-19 0)
(1.99837 8.95964e-20 0)
(1.99921 -4.02986e-19 0)
(1.99921 1.1534e-19 0)
(1.99998 -3.95766e-19 0)
(1.99999 1.36765e-19 0)
(2.0007 -3.83891e-19 0)
(2.0007 1.53894e-19 0)
(2.00137 -3.69203e-19 0)
(2.00137 1.67026e-19 0)
(2.00197 -3.52637e-19 0)
(2.00197 1.76437e-19 0)
(2.00252 -3.3486e-19 0)
(2.00253 1.82421e-19 0)
(2.00302 -3.16132e-19 0)
(2.00303 1.85039e-19 0)
(2.00347 -2.96736e-19 0)
(2.00348 1.84605e-19 0)
(2.00387 -2.76632e-19 0)
(2.00387 1.81415e-19 0)
(2.00422 -2.56068e-19 0)
(2.00422 1.75669e-19 0)
(2.00452 -2.35095e-19 0)
(2.00453 1.67553e-19 0)
(2.00478 -2.13651e-19 0)
(2.00478 1.57371e-19 0)
(2.00499 -1.91879e-19 0)
(2.00499 1.45313e-19 0)
(2.00515 -1.69757e-19 0)
(2.00515 1.31614e-19 0)
(2.00527 -1.47381e-19 0)
(2.00527 1.16568e-19 0)
(2.00534 -1.24793e-19 0)
(2.00534 1.00357e-19 0)
(2.00537 -1.02072e-19 0)
(2.00537 8.31935e-20 0)
(2.00535 -7.92806e-20 0)
(2.00535 6.53047e-20 0)
(2.00529 -5.64853e-20 0)
(2.00529 4.6909e-20 0)
(2.00519 -3.37385e-20 0)
(2.00519 2.82144e-20 0)
(2.00504 -1.1072e-20 0)
(2.00504 9.44878e-21 0)
)
;

boundaryField
{
    inlet
    {
        type            cyclic;
    }
    outlet
    {
        type            cyclic;
    }
    bottom
    {
        type            symmetry;
    }
    top
    {
        type            noSlip;
    }
    frontAndBack
    {
        type            empty;
    }
}


// ************************************************************************* //
