/*--------------------------------*- C++ -*----------------------------------*\
  =========                 |
  \\      /  F ield         | OpenFOAM: The Open Source CFD Toolbox
   \\    /   O peration     | Website:  https://openfoam.org
    \\  /    A nd           | Version:  7
     \\/     M anipulation  |
\*---------------------------------------------------------------------------*/
FoamFile
{
    version     2.0;
    format      ascii;
    class       volScalarField;
    location    "65";
    object      k;
}
// * * * * * * * * * * * * * * * * * * * * * * * * * * * * * * * * * * * * * //

dimensions      [0 2 -2 0 0 0 0];

internalField   nonuniform List<scalar> 
17475
(
0.00763367
0.0124983
0.0125514
0.0125508
0.0125506
0.0125505
0.0125505
0.0125505
0.0125504
0.0125502
0.0125503
0.0125506
0.0125503
0.0125503
0.0125505
0.0125503
0.0125503
0.0125505
0.0125503
0.0125502
0.0125508
0.012551
0.0125495
0.0125515
0.0125469
0.0125587
0.0125588
0.012559
0.0125591
0.0125588
0.0125587
0.0125587
0.0125586
0.0125586
0.0125585
0.0125584
0.0125583
0.0125581
0.0125586
0.0125628
0.0125695
0.012576
0.0125821
0.0125878
0.0125928
0.0125975
0.0126017
0.0126057
0.0126092
0.0126126
0.0126156
0.0126185
0.0126207
0.0126101
0.0120188
0.000246135
0.00440841
0.00528566
0.00530442
0.00529497
0.00529064
0.00528859
0.00528729
0.00528657
0.00528603
0.00528571
0.00528542
0.00528521
0.00528506
0.00528488
0.00528477
0.00528464
0.00528452
0.0052844
0.00528432
0.00528424
0.00528414
0.00528514
0.00528287
0.0052868
0.00529072
0.00529362
0.00529375
0.00529378
0.00529333
0.00529316
0.00529312
0.00529311
0.0052931
0.00529311
0.00529306
0.00529304
0.00529279
0.00529186
0.00529275
0.00529461
0.00529677
0.00529903
0.00530122
0.00530338
0.00530545
0.00530753
0.00530967
0.00531207
0.00531492
0.00531875
0.00532409
0.00532132
0.00502946
0.00162961
3.09181e-05
0.00184638
0.00307707
0.00319507
0.0031863
0.00317738
0.00317237
0.00316938
0.00316755
0.00316626
0.00316536
0.00316469
0.00316419
0.00316375
0.00316339
0.00316308
0.00316278
0.00316251
0.00316226
0.003162
0.00316175
0.00316204
0.00316163
0.00316319
0.00316423
0.00316567
0.00316756
0.00316839
0.0031684
0.00316824
0.00316805
0.00316811
0.00316824
0.00316837
0.00316852
0.00316867
0.00316881
0.00316852
0.00316818
0.00316848
0.00316907
0.00316986
0.00317081
0.0031719
0.00317314
0.00317455
0.00317625
0.00317845
0.00318147
0.00318595
0.00319293
0.00320135
0.00315738
0.0024968
0.000283314
9.86103e-06
0.000848598
0.00201166
0.00223577
0.00224412
0.00223402
0.00222719
0.00222289
0.00222005
0.00221807
0.00221669
0.00221565
0.0022148
0.00221411
0.00221352
0.00221301
0.00221252
0.00221208
0.00221165
0.00221123
0.00221111
0.00221072
0.00221141
0.00221214
0.00221289
0.00221346
0.00221415
0.00221491
0.00221518
0.00221522
0.00221506
0.0022152
0.00221546
0.00221574
0.00221603
0.00221636
0.00221666
0.00221656
0.00221658
0.00221703
0.00221755
0.0022182
0.00221901
0.00222003
0.00222127
0.00222284
0.00222488
0.00222769
0.00223176
0.00223792
0.00224705
0.00224985
0.00213832
0.00133334
8.90659e-05
4.46533e-06
0.00043951
0.00138527
0.0016858
0.00171885
0.00171183
0.00170428
0.00169916
0.00169565
0.00169318
0.00169138
0.00169001
0.00168891
0.00168797
0.00168717
0.00168646
0.00168581
0.00168517
0.00168456
0.00168416
0.00168359
0.00168377
0.00168396
0.00168418
0.00168448
0.00168483
0.00168515
0.00168547
0.00168582
0.00168597
0.00168595
0.0016862
0.00168657
0.00168698
0.00168743
0.00168792
0.0016883
0.00168837
0.00168884
0.00168945
0.00169011
0.00169087
0.0016918
0.00169294
0.00169439
0.00169625
0.00169868
0.00170205
0.00170689
0.00171399
0.00172262
0.00171138
0.00153757
0.000771725
4.19061e-05
2.44427e-06
0.000256153
0.000986513
0.0013256
0.00138422
0.00138319
0.00137589
0.0013704
0.00136646
0.00136362
0.00136154
0.00135992
0.0013586
0.00135747
0.00135648
0.00135558
0.00135477
0.00135394
0.00135329
0.00135253
0.0013523
0.00135213
0.00135196
0.00135185
0.00135181
0.00135188
0.00135198
0.00135216
0.00135239
0.00135269
0.00135282
0.00135317
0.00135366
0.00135419
0.00135478
0.00135545
0.00135588
0.00135629
0.00135701
0.0013578
0.00135862
0.00135953
0.0013606
0.00136191
0.00136357
0.00136571
0.00136846
0.00137219
0.00137746
0.00138459
0.00139007
0.00136171
0.00114445
0.00048533
2.44309e-05
1.51617e-06
0.000164756
0.000723953
0.00106979
0.00115114
0.00115756
0.00115167
0.00114615
0.001142
0.00113893
0.00113666
0.00113488
0.00113337
0.00113208
0.00113093
0.00112987
0.0011289
0.00112802
0.00112705
0.00112642
0.00112594
0.0011255
0.00112506
0.00112469
0.00112439
0.00112426
0.00112414
0.00112419
0.0011244
0.0011248
0.00112511
0.00112552
0.00112613
0.00112681
0.00112755
0.00112836
0.00112893
0.00112965
0.00113057
0.00113151
0.00113249
0.00113355
0.00113476
0.00113623
0.00113806
0.00114044
0.0011434
0.00114724
0.0011525
0.00115912
0.00116002
0.0011148
0.000874505
0.000329678
1.60369e-05
1.029e-06
0.000114592
0.000547178
0.000879036
0.000978803
0.000993084
0.000989358
0.000984129
0.000979981
0.000976847
0.000974448
0.000972537
0.00097085
0.000969372
0.000968135
0.000966932
0.000965826
0.000964681
0.000963758
0.000962902
0.000962171
0.000961503
0.000960812
0.000960168
0.000959645
0.000959362
0.00095909
0.000959025
0.0009592
0.000959657
0.000960135
0.000960635
0.000961369
0.000962239
0.000963171
0.000964086
0.000964866
0.000965865
0.00096698
0.000968075
0.000969212
0.000970401
0.000971763
0.00097336
0.000975324
0.000977797
0.000980744
0.000984603
0.000989794
0.000995214
0.000990781
0.000930902
0.000684273
0.000237699
1.12421e-05
7.45563e-07
8.43343e-05
0.000425464
0.000732628
0.000846164
0.00086808
0.000867111
0.00086243
0.00085838
0.000855213
0.000852805
0.000850824
0.000848956
0.000847286
0.000846001
0.000844623
0.000843221
0.000842105
0.0008409
0.000839735
0.000838732
0.000837818
0.000836826
0.000835902
0.000835252
0.000834802
0.000834329
0.000834149
0.000834311
0.000834897
0.000835532
0.000836179
0.000837058
0.000838149
0.000839264
0.0008403
0.000841394
0.000842638
0.000843872
0.000845106
0.000846431
0.000847696
0.000849118
0.000850816
0.000852794
0.00085528
0.000858303
0.000862078
0.00086694
0.000870636
0.000860723
0.000788541
0.000546845
0.000180021
8.38584e-06
5.67035e-07
6.47687e-05
0.000339649
0.000618389
0.000741151
0.000770109
0.000772258
0.000768524
0.000764493
0.000761255
0.000758958
0.000756929
0.000754972
0.000753157
0.000751838
0.000750281
0.000748761
0.000747416
0.000745781
0.000744234
0.000742964
0.000741867
0.000740588
0.000739353
0.000738467
0.000737744
0.000736995
0.000736728
0.000736981
0.000737714
0.000738515
0.000739339
0.000740358
0.000741686
0.000742968
0.000744278
0.00074574
0.000747133
0.000748348
0.000749736
0.000751252
0.000752555
0.000753969
0.00075563
0.000757595
0.000760249
0.000763345
0.000766814
0.000771099
0.000773041
0.000758064
0.00067702
0.000447591
0.000142009
6.55993e-06
4.4719e-07
5.14278e-05
0.000277698
0.000528234
0.000656082
0.000691443
0.000696681
0.000694107
0.000690136
0.000686765
0.00068458
0.000682773
0.000680955
0.000678952
0.0006775
0.000676004
0.000674289
0.00067275
0.000670747
0.000668723
0.000667081
0.000665768
0.000664281
0.000662858
0.000661691
0.000660644
0.000659505
0.000659147
0.000659498
0.000660295
0.00066122
0.000662262
0.000663566
0.000665223
0.000666586
0.000668321
0.000669924
0.000671364
0.000672591
0.000674097
0.000675618
0.000676962
0.000678319
0.000679878
0.000682152
0.000684959
0.000688124
0.000691224
0.000694812
0.000694722
0.00067529
0.000588045
0.00037404
0.000115525
5.31235e-06
3.63194e-07
4.19731e-05
0.000231938
0.000456459
0.000585947
0.000627175
0.000635109
0.000633581
0.000629787
0.000626487
0.000624568
0.000623175
0.000621415
0.00061916
0.000617589
0.00061608
0.000614065
0.000612352
0.000609992
0.000607672
0.000605875
0.000604151
0.000602341
0.00060081
0.000599528
0.000598135
0.000596748
0.000596231
0.000596467
0.000597403
0.000598482
0.00059983
0.000601422
0.000603337
0.00060495
0.00060693
0.000608793
0.000610199
0.000611343
0.000612984
0.00061462
0.000615816
0.000616883
0.000618673
0.000621424
0.000624389
0.000627603
0.000630204
0.00063278
0.000630912
0.000607407
0.000516162
0.000318493
9.63855e-05
4.42639e-06
3.02364e-07
3.50836e-05
0.000197382
0.000398815
0.000527233
0.000573662
0.000583906
0.00058371
0.000579942
0.000576341
0.000574842
0.000574378
0.000572546
0.000570178
0.000568565
0.000566717
0.000564487
0.000562621
0.000560059
0.000557764
0.000555924
0.000553609
0.000551232
0.00055002
0.000549089
0.000547023
0.00054527
0.000544959
0.000545459
0.000546213
0.000547221
0.000549005
0.000550794
0.000552782
0.000554723
0.0005568
0.000558923
0.000560443
0.000561465
0.000562505
0.00056414
0.000565515
0.000566805
0.000568517
0.000571256
0.000574868
0.000578003
0.000580001
0.000581815
0.000578301
0.000550972
0.000457338
0.000275557
8.20818e-05
3.77727e-06
2.56568e-07
2.98663e-05
0.000170684
0.000352043
0.000478107
0.000527938
0.00054009
0.000541041
0.00053748
0.00053461
0.000533325
0.000532846
0.000531139
0.000528944
0.000527245
0.000524985
0.000522625
0.000520266
0.000517581
0.00051504
0.000512902
0.000510542
0.000508218
0.000507047
0.000506553
0.000504695
0.000502592
0.000501716
0.000502113
0.000503203
0.000504744
0.00050638
0.000508185
0.00051014
0.000512139
0.000514249
0.000516415
0.000517879
0.000519074
0.000520354
0.000521883
0.000523406
0.000524787
0.000526244
0.000528918
0.000532826
0.000535564
0.000537477
0.000538342
0.000533065
0.000502775
0.000408469
0.000241219
7.08087e-05
3.24874e-06
2.21142e-07
2.58085e-05
0.000149543
0.000313483
0.000433905
0.00048622
0.000500546
0.000502184
0.000499249
0.000496499
0.000495531
0.000495119
0.000493534
0.000491499
0.000489633
0.000487313
0.000484784
0.000482136
0.000479324
0.000476707
0.000474364
0.000472238
0.000470507
0.000469913
0.000470833
0.000470851
0.000469104
0.000468381
0.000468524
0.000469209
0.000470402
0.000469902
0.000470748
0.000472476
0.000474108
0.000476092
0.000478125
0.000479813
0.000481325
0.000482644
0.000484156
0.00048573
0.000487157
0.000488657
0.000491112
0.00049467
0.000497295
0.000498964
0.000499135
0.000492035
0.000459307
0.00036693
0.00021374
6.19325e-05
2.82422e-06
1.93129e-07
2.26037e-05
0.000132417
0.000281053
0.000394849
0.000448545
0.000464535
0.000466931
0.000464549
0.000462161
0.00046134
0.000460866
0.000459367
0.000457436
0.00045548
0.000453209
0.000450661
0.000447827
0.000445011
0.000442552
0.000440339
0.00043917
0.000439314
0.00044099
0.000446697
0.000459819
0.000468405
0.000472936
0.000471878
0.000465157
0.000453959
0.000441833
0.000440793
0.000440037
0.000440626
0.000442229
0.000443952
0.000445658
0.000447291
0.000448619
0.000449993
0.000451573
0.000453033
0.000454453
0.00045669
0.000459948
0.000462458
0.000463856
0.000463298
0.000454747
0.000420117
0.000330741
0.000190971
5.46545e-05
2.47855e-06
1.6867e-07
1.99149e-05
0.000118131
0.000253144
0.000360079
0.000414212
0.000431621
0.000434751
0.000432898
0.000430862
0.000430115
0.000429546
0.000428119
0.000426294
0.000424328
0.000422189
0.00041969
0.000416762
0.000414116
0.000412082
0.000410779
0.000411665
0.000415491
0.000431836
0.000467195
0.00047767
0.000437786
0.000395726
0.000397478
0.000470602
0.000483018
0.000447998
0.000421618
0.000413829
0.000411939
0.000412166
0.000413343
0.000414806
0.000416473
0.000417797
0.000418921
0.000420402
0.000421849
0.000423254
0.000425304
0.000428246
0.000430611
0.000431806
0.000430633
0.00042085
0.000385058
0.000299633
0.000171998
4.86794e-05
2.19616e-06
1.32312e-07
1.71717e-05
0.000104745
0.000228224
0.000328369
0.000382646
0.000401352
0.000405229
0.000403865
0.000402114
0.000401394
0.000400742
0.000399371
0.000397673
0.000395782
0.000393837
0.0003914
0.000388519
0.000386192
0.000384626
0.000384737
0.000389529
0.00040745
0.000437392
0.00037329
0.000119796
2.19105e-06
1.22094e-05
0.000314326
0.000434519
0.000430425
0.000396077
0.000387179
0.000385353
0.000385634
0.000386793
0.000388436
0.000389703
0.000390664
0.000392022
0.000393357
0.000394695
0.000396554
0.00039919
0.000401393
0.000402379
0.000400654
0.000389857
0.000353324
0.000272431
0.000155625
4.35194e-05
1.95263e-06
4.88936e-08
1.21516e-05
8.8859e-05
0.000203035
0.000297358
0.000352913
0.000373221
0.00037798
0.00037711
0.000375576
0.000374851
0.000374124
0.0003728
0.000371246
0.000369514
0.000367766
0.000365263
0.000362504
0.000360439
0.000359618
0.000361641
0.000373416
0.000396689
0.000325633
8.8364e-05
4.00533e-07
0.000192354
0.000402245
0.000386406
0.000365874
0.000360955
0.000360408
0.00036111
0.000362621
0.000363889
0.000364632
0.000365848
0.000367051
0.000368274
0.000369935
0.000372295
0.000374356
0.00037518
0.000373012
0.000361458
0.000324386
0.000248484
0.000141432
3.85504e-05
1.61089e-06
6.5606e-08
1.28295e-05
8.25689e-05
0.000185869
0.000273228
0.000324974
0.000345688
0.000351054
0.000350688
0.000349258
0.000348236
0.000347472
0.000346296
0.000344623
0.000343023
0.000341091
0.000338782
0.000336388
0.000334409
0.00033417
0.000338631
0.000355204
0.000342381
0.00014917
1.00914e-05
5.07548e-05
0.000284323
0.000361355
0.000344234
0.000335703
0.000334152
0.000335091
0.000336425
0.000337705
0.000338451
0.000339528
0.000340761
0.000341946
0.000343508
0.000345647
0.000347561
0.000348223
0.000345621
0.00033328
0.000297657
0.00022639
0.000128962
3.65853e-05
1.7823e-06
9.36881e-08
1.25201e-05
7.79972e-05
0.000172138
0.000251204
0.00029952
0.000319831
0.000325325
0.000325062
0.000323791
0.000322913
0.000321943
0.000320886
0.000319381
0.00031774
0.000315759
0.000313732
0.000311528
0.000309541
0.000309603
0.00031564
0.000322439
0.000258904
7.55116e-05
4.92842e-06
8.89295e-08
3.53245e-07
2.64678e-05
0.000185419
0.000314529
0.000321092
0.000311656
0.000309366
0.000310227
0.000311219
0.000312375
0.000313045
0.000314188
0.000315376
0.000316597
0.000318138
0.000320119
0.000322034
0.000322612
0.000319734
0.00030701
0.000272237
0.0002063
0.000117419
3.30438e-05
1.50483e-06
9.44363e-08
1.13989e-05
7.12452e-05
0.000157301
0.000229612
0.000275321
0.000295554
0.000301447
0.000301436
0.000300324
0.000299524
0.000298432
0.000297359
0.000295996
0.000294402
0.000292438
0.000290539
0.000288616
0.000286695
0.000286952
0.000292483
0.00028497
0.000193723
5.10353e-05
7.14815e-06
1.38331e-06
4.8036e-07
4.00229e-07
3.42539e-07
3.66355e-07
2.0374e-06
2.24135e-05
0.000130605
0.000263523
0.000293646
0.000288554
0.000286089
0.000287038
0.0002879
0.000288908
0.000289562
0.000290755
0.000292038
0.000293308
0.000294849
0.000296771
0.000298567
0.000298955
0.000295783
0.000282785
0.000249095
0.000188087
0.000106959
2.97283e-05
1.32675e-06
8.64674e-08
1.02911e-05
6.46029e-05
0.000143423
0.000209712
0.000252973
0.000273159
0.000279433
0.000279751
0.000278745
0.00027792
0.000276895
0.000275807
0.000274489
0.000272883
0.000270942
0.000269259
0.000267558
0.000265808
0.00026609
0.000269079
0.000248826
0.00015194
4.28699e-05
9.57347e-06
3.43345e-06
3.00975e-06
3.42381e-06
3.11379e-06
2.42884e-06
5.10806e-06
2.44414e-05
0.00010332
0.000220779
0.000265785
0.000266612
0.000264563
0.000265523
0.000266508
0.000267457
0.000268058
0.000269168
0.000270502
0.000271909
0.00027348
0.000275353
0.000276997
0.000277199
0.000273751
0.000260534
0.000228035
0.00017167
9.7433e-05
2.67334e-05
1.18202e-06
7.78797e-08
9.26629e-06
5.85476e-05
0.000130767
0.000191596
0.000232421
0.000252437
0.000259066
0.000259731
0.000258812
0.000257983
0.000257051
0.00025598
0.000254669
0.000253032
0.000251143
0.000249611
0.000248106
0.000246518
0.000246718
0.000246879
0.000218429
0.000127705
4.16104e-05
9.93232e-06
4.40654e-06
4.96724e-06
6.30623e-06
6.43291e-06
6.35642e-06
1.15945e-05
2.99195e-05
9.04987e-05
0.000187256
0.000239186
0.000245772
0.000244823
0.00024578
0.000246873
0.000247786
0.000248378
0.000249443
0.000250814
0.000252262
0.000253878
0.000255714
0.000257182
0.000257131
0.000253373
0.000240068
0.000208904
0.000156868
8.87961e-05
2.40773e-05
1.05833e-06
6.98854e-08
8.32898e-06
5.30566e-05
0.00011927
0.00017511
0.000213491
0.000233229
0.00024013
0.00024113
0.000240335
0.00023952
0.000238674
0.000237613
0.000236318
0.000234654
0.000232835
0.000231401
0.000230061
0.00022859
0.000228466
0.000226272
0.000195355
0.000115791
4.39077e-05
1.03187e-05
5.24458e-06
6.96516e-06
9.97388e-06
1.20289e-05
1.39326e-05
2.05226e-05
3.62577e-05
8.55666e-05
0.000162241
0.000214717
0.000226291
0.000226684
0.000227688
0.000228837
0.000229707
0.000230272
0.000231272
0.000232717
0.000234202
0.000235866
0.00023764
0.000238907
0.000238603
0.00023454
0.000221189
0.000191393
0.000143351
8.08249e-05
2.16464e-05
9.46585e-07
6.25907e-08
7.47515e-06
4.80294e-05
0.000108707
0.00015997
0.000195911
0.000215184
0.000222359
0.000223744
0.000223113
0.000222347
0.000221528
0.000220458
0.000219195
0.000217542
0.000215745
0.000214414
0.000213244
0.00021183
0.000211279
0.000207522
0.000177769
0.00011017
5.0405e-05
1.43793e-05
6.47077e-06
7.83518e-06
1.23097e-05
1.77794e-05
2.34857e-05
3.07844e-05
4.47907e-05
8.55183e-05
0.000143805
0.000193497
0.000208228
0.000209933
0.000211029
0.000212109
0.000213007
0.000213542
0.00021445
0.000216047
0.000217477
0.000219213
0.000220881
0.000221956
0.000221385
0.000217053
0.000203741
0.000175388
0.00013106
7.354e-05
1.94477e-05
8.40481e-07
5.59971e-08
6.70154e-06
4.34398e-05
9.90198e-05
0.000146054
0.000179551
0.000197797
0.000205578
0.000207369
0.000206849
0.000205543
0.000205249
0.000204217
0.00020311
0.000201441
0.000199449
0.000198347
0.000197476
0.000196086
0.000195059
0.000190294
0.000163303
0.000107587
5.84832e-05
2.35929e-05
8.63047e-06
8.81322e-06
1.35341e-05
2.08494e-05
3.24284e-05
4.3584e-05
5.93628e-05
8.835e-05
0.000132069
0.000175083
0.000191633
0.000194343
0.00019554
0.000196495
0.00019741
0.000197951
0.00019883
0.000200148
0.000201662
0.000203679
0.000205243
0.000206175
0.000205168
0.000200553
0.00018743
0.000160601
0.000119701
6.67684e-05
1.73937e-05
7.40784e-07
5.00719e-08
6.00516e-06
3.92451e-05
9.01126e-05
0.000133192
0.000163976
0.000182047
0.000189867
0.000191708
0.000191154
0.000190175
0.000189827
0.000188917
0.000187765
0.000186365
0.000184309
0.00018321
0.000182602
0.000181279
0.000179821
0.000174265
0.000150345
0.000105492
6.57803e-05
3.54207e-05
1.50303e-05
1.05322e-05
1.51461e-05
2.43642e-05
4.11333e-05
6.57389e-05
8.86542e-05
0.000101057
0.000125748
0.000159705
0.000176156
0.00017969
0.000180922
0.000181549
0.000182373
0.000183342
0.000184227
0.000185535
0.000187062
0.000189151
0.000190483
0.000191014
0.000189838
0.000185051
0.000172221
0.000146826
0.000109317
6.05605e-05
1.55539e-05
6.54152e-07
4.4779e-08
5.38037e-06
3.54575e-05
8.18921e-05
0.000121255
0.000150203
0.000167584
0.000175207
0.000177251
0.000176692
0.000176177
0.000175435
0.000174708
0.000173699
0.000172244
0.000170533
0.000169358
0.000168816
0.000167677
0.000165706
0.000159955
0.000138721
0.000103502
7.31191e-05
4.82252e-05
2.73091e-05
1.48976e-05
1.53519e-05
2.59005e-05
5.02343e-05
8.79846e-05
0.000133912
0.000128721
0.00012315
0.000146884
0.000162459
0.000166187
0.000167432
0.000168236
0.000169085
0.000169767
0.000170812
0.000172241
0.000173693
0.00017551
0.000176712
0.000176873
0.000175564
0.000170806
0.000158155
0.000134248
9.9737e-05
5.49683e-05
1.39215e-05
5.79025e-07
4.0098e-08
4.82688e-06
3.20839e-05
7.45009e-05
0.000110478
0.000137381
0.00015415
0.000161903
0.000164075
0.000163911
0.000162947
0.000162437
0.000161693
0.000160764
0.000159455
0.000158117
0.00015714
0.000156519
0.000155269
0.000153277
0.000147122
0.000128422
0.000101196
8.31876e-05
6.53218e-05
4.40455e-05
2.66135e-05
1.8374e-05
2.1199e-05
4.09367e-05
9.96451e-05
0.0001838
0.000170124
0.000121025
0.000136562
0.000149981
0.000154032
0.000155191
0.000156129
0.000156582
0.000157496
0.0001586
0.000160148
0.000161844
0.000163312
0.000164389
0.000164099
0.000162752
0.000158079
0.000145574
0.000123064
9.12281e-05
4.99512e-05
1.24848e-05
5.14178e-07
3.59969e-08
4.34028e-06
2.91032e-05
6.82071e-05
0.000101324
0.000126055
0.000142101
0.000149951
0.000152402
0.00015226
0.000151458
0.000150813
0.000150142
0.000149102
0.000147937
0.000146695
0.000145821
0.000145191
0.000143971
0.000141934
0.000135741
0.000119898
0.000100245
9.62299e-05
9.08214e-05
6.91246e-05
4.60808e-05
3.06576e-05
2.16932e-05
2.66052e-05
7.14449e-05
0.000201788
0.000188472
0.000119139
0.000127254
0.000139076
0.000142958
0.000144032
0.000145045
0.000145646
0.000146456
0.000147565
0.00014916
0.000150859
0.000152325
0.000153072
0.000152883
0.000151347
0.000146516
0.000134462
0.000113288
8.38707e-05
4.55175e-05
1.12292e-05
4.58218e-07
3.24211e-08
3.91583e-06
2.64972e-05
6.27795e-05
9.33704e-05
0.000116276
0.000131565
0.000139196
0.000141735
0.000141847
0.000141166
0.000140471
0.000139821
0.000138775
0.000137672
0.000136371
0.000135452
0.000134717
0.000133739
0.00013165
0.000125741
0.00011286
0.00010663
0.000124924
0.00012747
0.00010305
7.24233e-05
5.12994e-05
3.38415e-05
2.59721e-05
4.45981e-05
0.000171451
0.000214706
0.000117138
0.00011917
0.000129061
0.000132722
0.000134042
0.000134872
0.000135502
0.000136309
0.000137477
0.000139083
0.000140748
0.000142141
0.000142809
0.000142607
0.000140974
0.000135957
0.000124287
0.000104538
7.74626e-05
4.1686e-05
1.01376e-05
4.10257e-07
2.93398e-08
3.5493e-06
2.4214e-05
5.79114e-05
8.62653e-05
0.000107494
0.000121996
0.000129491
0.0001321
0.000132339
0.00013175
0.000130995
0.000130311
0.000129319
0.000128257
0.000127011
0.00012603
0.000125395
0.000124501
0.000122453
0.000116986
0.000107778
0.000116213
0.000163713
0.000177853
0.000146303
0.000105845
7.65725e-05
5.39216e-05
3.66878e-05
4.20411e-05
0.000144712
0.00019201
0.000111888
0.000111823
0.000120262
0.000123537
0.00012487
0.000125592
0.000126235
0.000127064
0.000128261
0.000129845
0.000131448
0.000132759
0.000133382
0.000133111
0.000131401
0.000126374
0.000115111
9.67203e-05
7.17259e-05
3.83137e-05
9.19137e-06
3.69159e-07
2.66744e-08
3.23177e-06
2.22068e-05
5.35757e-05
7.98849e-05
9.95399e-05
0.000113282
0.000120654
0.000123336
0.000123678
0.000123157
0.000122372
0.000121637
0.000120699
0.000119695
0.000118541
0.000117565
0.000116976
0.00011622
0.000114298
0.000109375
0.000104369
0.000128558
0.000193749
0.000226093
0.000186826
0.000138455
0.000101404
6.81703e-05
4.91054e-05
5.56757e-05
0.00015664
0.000153606
0.000104424
0.000105159
0.000112318
0.000115318
0.000116506
0.000117168
0.000117862
0.000118718
0.00011989
0.000121374
0.000122883
0.000124098
0.000124672
0.00012437
0.000122623
0.000117614
0.000106792
8.97374e-05
6.66082e-05
3.53097e-05
8.36817e-06
3.33837e-07
2.43594e-08
2.9549e-06
2.04273e-05
4.96859e-05
7.41506e-05
9.23402e-05
0.000105341
0.000112571
0.00011533
0.000115781
0.000115322
0.000114511
0.000113727
0.000112834
0.000111891
0.000110867
0.000110009
0.000109478
0.00010878
0.000106982
0.00010268
0.000101595
0.00014119
0.0002344
0.000258841
0.000204324
0.000152945
0.000105719
7.78919e-05
6.30423e-05
9.68106e-05
0.000179069
0.000150769
0.000102043
9.91751e-05
0.000105189
0.000107905
0.000108959
0.000109589
0.000110299
0.000111164
0.000112277
0.000113632
0.000114997
0.000116103
0.00011663
0.000116322
0.000114565
0.000109595
9.92413e-05
8.34549e-05
6.2028e-05
3.26436e-05
7.64977e-06
3.03415e-07
2.23382e-08
2.7123e-06
1.88451e-05
4.61929e-05
6.89848e-05
8.58075e-05
9.80864e-05
0.000105162
0.000108003
0.000108578
0.000108179
0.000107344
0.000106515
0.000105663
0.000104787
0.000103891
0.000103179
0.000102758
0.000102151
0.000100449
9.68728e-05
0.000100136
0.000158239
0.000282276
0.00027798
0.000209114
0.000156006
0.000112382
8.56536e-05
9.01312e-05
0.000161577
0.000211806
0.000143291
9.80924e-05
9.38637e-05
9.87881e-05
0.000101207
0.000102133
0.000102736
0.000103451
0.000104316
0.000105358
0.000106556
0.000107747
0.000108737
0.000109224
0.000108928
0.000107175
0.000102256
9.23833e-05
7.77964e-05
5.79248e-05
3.02794e-05
7.02286e-06
2.77117e-07
2.05666e-08
2.49902e-06
1.74356e-05
4.30436e-05
6.43149e-05
7.98719e-05
9.14542e-05
9.83683e-05
0.000101294
0.000102001
0.000101673
0.000100822
9.99537e-05
9.91417e-05
9.83413e-05
9.75642e-05
9.69983e-05
9.67001e-05
9.6207e-05
9.46488e-05
9.17503e-05
9.88876e-05
0.000179576
0.000298289
0.000287816
0.000199824
0.000133019
0.000104659
9.86719e-05
0.000141526
0.000232317
0.000244249
0.000152892
9.39613e-05
8.92323e-05
9.30418e-05
9.5163e-05
9.59707e-05
9.65473e-05
9.72577e-05
9.81064e-05
9.90742e-05
0.000100099
0.0001011
0.000101973
0.000102437
0.000102158
0.00010041
9.55499e-05
8.61575e-05
7.26971e-05
5.4237e-05
2.81749e-05
6.47596e-06
2.54393e-07
1.89966e-08
2.30989e-06
1.61744e-05
4.01986e-05
6.00866e-05
7.44771e-05
8.5397e-05
9.21462e-05
9.51473e-05
9.59831e-05
9.57468e-05
9.49047e-05
9.40028e-05
9.32206e-05
9.24991e-05
9.18343e-05
9.14023e-05
9.12225e-05
9.08353e-05
8.9414e-05
8.72512e-05
9.81355e-05
0.000192858
0.000321513
0.0002905
0.000189527
0.000124183
0.000105943
0.00013048
0.000205977
0.000292701
0.000279674
0.000171506
9.169e-05
8.52137e-05
8.7893e-05
8.97256e-05
9.04169e-05
9.09563e-05
9.16479e-05
9.24666e-05
9.33502e-05
9.42105e-05
9.5027e-05
9.57893e-05
9.62435e-05
9.59842e-05
9.42307e-05
8.94289e-05
8.05132e-05
6.8106e-05
5.09267e-05
2.63018e-05
5.99651e-06
2.34599e-07
1.76007e-08
2.14186e-06
1.50414e-05
3.76171e-05
5.62569e-05
6.95779e-05
7.98688e-05
8.64492e-05
8.95077e-05
9.0465e-05
9.03377e-05
8.95408e-05
8.86153e-05
8.78436e-05
8.7193e-05
8.66338e-05
8.63161e-05
8.62348e-05
8.59414e-05
8.46365e-05
8.31568e-05
9.99578e-05
0.000219212
0.000350516
0.000290988
0.000183779
0.000121126
0.000121444
0.00017274
0.000263698
0.00034069
0.000323001
0.000180654
9.25986e-05
8.20692e-05
8.3291e-05
8.48352e-05
8.54041e-05
8.589e-05
8.65454e-05
8.73253e-05
8.81156e-05
8.88221e-05
8.94925e-05
9.01604e-05
9.06041e-05
9.03567e-05
8.85894e-05
8.38498e-05
7.53983e-05
6.3969e-05
4.79515e-05
2.46344e-05
5.5756e-06
2.17368e-07
1.63443e-08
1.99039e-06
1.40223e-05
3.52769e-05
5.27855e-05
6.51226e-05
7.48134e-05
8.12179e-05
8.43128e-05
8.53777e-05
8.53711e-05
8.46617e-05
8.37302e-05
8.2946e-05
8.23436e-05
8.18805e-05
8.16559e-05
8.16515e-05
8.14376e-05
8.02423e-05
7.9375e-05
0.00010087
0.000240476
0.000379627
0.000304932
0.000185963
0.000134308
0.000148555
0.000214715
0.000306562
0.000382597
0.000315055
0.000178585
9.20063e-05
7.92727e-05
7.91837e-05
8.04144e-05
8.08527e-05
8.12615e-05
8.18709e-05
8.26068e-05
8.32987e-05
8.38704e-05
8.44352e-05
8.50351e-05
8.54629e-05
8.52157e-05
8.34229e-05
7.87599e-05
7.07721e-05
6.02528e-05
4.52942e-05
2.31711e-05
5.22078e-06
2.0363e-07
1.52164e-08
1.85438e-06
1.30952e-05
3.31513e-05
4.96267e-05
6.10535e-05
7.0158e-05
7.63741e-05
7.94856e-05
8.06435e-05
8.07628e-05
8.01837e-05
7.92693e-05
7.8456e-05
7.78687e-05
7.74856e-05
7.73394e-05
7.73988e-05
7.72621e-05
7.62099e-05
7.59992e-05
0.000102949
0.000251336
0.000405848
0.000331923
0.000211274
0.000163745
0.00018132
0.000247476
0.00034111
0.000431424
0.000324355
0.000178316
9.25512e-05
7.71824e-05
7.55227e-05
7.63941e-05
7.66883e-05
7.69971e-05
7.75526e-05
7.82383e-05
7.88309e-05
7.92939e-05
7.97894e-05
8.03544e-05
8.075e-05
8.04821e-05
7.86633e-05
7.40977e-05
6.65712e-05
5.68987e-05
4.29034e-05
2.1876e-05
4.91444e-06
1.92469e-07
1.41947e-08
1.73128e-06
1.22556e-05
3.12067e-05
4.67399e-05
5.7312e-05
6.58311e-05
7.18413e-05
7.49571e-05
7.61947e-05
7.64402e-05
7.60156e-05
7.51538e-05
7.43062e-05
7.3703e-05
7.33762e-05
7.32991e-05
7.342e-05
7.3367e-05
7.25087e-05
7.30034e-05
9.93039e-05
0.00026648
0.000435121
0.000372475
0.000262966
0.000206739
0.000216687
0.000276995
0.000379995
0.000480552
0.000362721
0.000178318
9.98563e-05
7.54683e-05
7.22323e-05
7.26927e-05
7.28407e-05
7.3037e-05
7.35332e-05
7.41563e-05
7.46551e-05
7.50387e-05
7.54926e-05
7.6036e-05
7.63882e-05
7.60798e-05
7.42387e-05
6.97953e-05
6.27278e-05
5.38419e-05
4.07225e-05
2.07019e-05
4.64114e-06
1.82548e-07
1.32731e-08
1.61981e-06
1.14916e-05
2.94204e-05
4.40857e-05
5.38463e-05
6.17766e-05
6.75698e-05
7.06885e-05
7.19908e-05
7.23513e-05
7.20831e-05
7.13117e-05
7.04404e-05
6.98038e-05
6.95065e-05
6.94848e-05
6.96665e-05
6.97004e-05
6.90872e-05
7.01072e-05
9.67192e-05
0.000237635
0.000428972
0.000410978
0.000278469
0.000258446
0.000255882
0.000311817
0.000416782
0.000466133
0.000372238
0.000189363
9.79268e-05
7.412e-05
6.91862e-05
6.92324e-05
6.92319e-05
6.93303e-05
6.97692e-05
7.03186e-05
7.07257e-05
7.10549e-05
7.14845e-05
7.20084e-05
7.23159e-05
7.19469e-05
7.00817e-05
6.57877e-05
5.91865e-05
5.10364e-05
3.87152e-05
1.96282e-05
4.39493e-06
1.73587e-07
1.24311e-08
1.51747e-06
1.07917e-05
2.77744e-05
4.16345e-05
5.06248e-05
5.79684e-05
6.35443e-05
6.66744e-05
6.80212e-05
6.84658e-05
6.83377e-05
6.7691e-05
6.68221e-05
6.61497e-05
6.58601e-05
6.58775e-05
6.61094e-05
6.62221e-05
6.58747e-05
6.72337e-05
8.91875e-05
0.000206764
0.000416165
0.000410552
0.000353463
0.000297141
0.000301492
0.000349441
0.00044187
0.000471535
0.000369783
0.000206894
0.000102334
7.26061e-05
6.62242e-05
6.59491e-05
6.58059e-05
6.58353e-05
6.62305e-05
6.66921e-05
6.70088e-05
6.7293e-05
6.77097e-05
6.82178e-05
6.8476e-05
6.80358e-05
6.6158e-05
6.20319e-05
5.58999e-05
4.84438e-05
3.68533e-05
1.86359e-05
4.16777e-06
1.65441e-07
1.16637e-08
1.42414e-06
1.01504e-05
2.62536e-05
3.93675e-05
4.76354e-05
5.44063e-05
5.97772e-05
6.29279e-05
6.42943e-05
6.47768e-05
6.47594e-05
6.42626e-05
6.34295e-05
6.27267e-05
6.24312e-05
6.24728e-05
6.27351e-05
6.2906e-05
6.28072e-05
6.45624e-05
8.39915e-05
0.000184899
0.000396712
0.00046076
0.000369004
0.000322305
0.000321442
0.000373692
0.00045498
0.000516739
0.000395372
0.000233196
0.000121551
7.07384e-05
6.32943e-05
6.27877e-05
6.25224e-05
6.25218e-05
6.28896e-05
6.32541e-05
6.34765e-05
6.37161e-05
6.4131e-05
6.46334e-05
6.48412e-05
6.43297e-05
6.24477e-05
5.85043e-05
5.28339e-05
4.60356e-05
3.5116e-05
1.77091e-05
3.95798e-06
1.579e-07
1.09577e-08
1.3384e-06
9.5616e-06
2.48458e-05
3.72712e-05
4.48715e-05
5.11009e-05
5.62779e-05
5.94474e-05
6.0812e-05
6.12897e-05
6.13471e-05
6.10035e-05
6.02442e-05
5.95194e-05
5.92068e-05
5.92617e-05
5.95334e-05
5.97364e-05
5.98493e-05
6.2056e-05
7.96193e-05
0.000177587
0.000366906
0.000467756
0.000387884
0.000334765
0.000335185
0.000373978
0.000455411
0.000522821
0.000493176
0.000264084
0.00013274
6.91641e-05
6.05345e-05
5.9737e-05
5.9381e-05
5.93739e-05
5.97199e-05
5.9988e-05
6.01138e-05