/*--------------------------------*- C++ -*----------------------------------*\
  =========                 |
  \\      /  F ield         | OpenFOAM: The Open Source CFD Toolbox
   \\    /   O peration     | Website:  https://openfoam.org
    \\  /    A nd           | Version:  7
     \\/     M anipulation  |
\*---------------------------------------------------------------------------*/
FoamFile
{
    version     2.0;
    format      ascii;
    class       volScalarField;
    location    "65";
    object      nut;
}
// * * * * * * * * * * * * * * * * * * * * * * * * * * * * * * * * * * * * * //

dimensions      [0 2 -1 0 0 0 0];

internalField   nonuniform List<scalar> 
17475
(
3.12042e-05
0.00018885
0.000188081
0.000188028
0.000188026
0.000188026
0.000188026
0.000188025
0.000188025
0.000188025
0.000188025
0.000188025
0.000188025
0.000188025
0.000188025
0.000188025
0.000188025
0.000188025
0.000188025
0.000188025
0.000188025
0.000188025
0.000188024
0.000188025
0.000188023
0.000188027
0.000188027
0.000188026
0.000188027
0.000188026
0.000188026
0.000188026
0.000188026
0.000188026
0.000188026
0.000188026
0.000188026
0.000188026
0.000188027
0.000188028
0.000188029
0.000188031
0.000188033
0.000188034
0.000188036
0.000188037
0.000188038
0.000188039
0.00018804
0.000188041
0.000188042
0.000188043
0.000188053
0.000188285
0.000150676
9.21687e-07
0.00011539
0.000172096
0.000176596
0.000176758
0.000176762
0.000176759
0.000176757
0.000176755
0.000176753
0.000176751
0.00017675
0.000176749
0.000176749
0.000176748
0.000176747
0.000176746
0.000176745
0.000176744
0.000176743
0.000176742
0.000176741
0.000176743
0.000176736
0.000176744
0.000176746
0.000176751
0.00017675
0.00017675
0.000176749
0.000176748
0.000176747
0.000176747
0.000176747
0.000176747
0.000176747
0.000176747
0.000176747
0.000176744
0.000176743
0.000176743
0.000176743
0.000176744
0.000176745
0.000176747
0.000176748
0.000176749
0.000176752
0.000176754
0.000176758
0.000176757
0.000176695
0.000175357
0.000153948
1.68141e-05
1.20094e-07
5.92109e-05
0.000151133
0.000168227
0.000169905
0.000170014
0.000170017
0.000170012
0.000170005
0.000169997
0.000169993
0.00016999
0.000169988
0.000169985
0.000169984
0.000169982
0.000169979
0.000169978
0.000169976
0.000169974
0.000169971
0.000169973
0.000169973
0.000169978
0.00016998
0.000169982
0.000169988
0.000169991
0.000169992
0.000169991
0.00016999
0.000169991
0.000169992
0.000169995
0.000169996
0.000169996
0.000169998
0.000169996
0.000169994
0.000169993
0.000169993
0.000169989
0.000169986
0.000169988
0.000169991
0.000169993
0.000169995
0.000169999
0.000170005
0.000170011
0.000169973
0.00016934
0.000161172
0.000102871
3.04337e-06
3.85965e-08
3.04454e-05
0.000127821
0.000159089
0.000164764
0.000165341
0.0001654
0.000165399
0.000165384
0.00016537
0.000165363
0.000165357
0.000165352
0.000165344
0.000165341
0.000165338
0.000165332
0.000165329
0.000165326
0.00016532
0.000165318
0.000165318
0.000165325
0.000165328
0.000165331
0.000165333
0.000165336
0.000165342
0.000165343
0.00016534
0.000165338
0.00016534
0.000165346
0.000165352
0.000165354
0.000165356
0.00016536
0.000165357
0.000165356
0.000165358
0.00016536
0.000165353
0.00016535
0.000165357
0.000165367
0.000165373
0.000165378
0.000165386
0.000165392
0.000165382
0.000165157
0.000162515
0.000144081
6.41533e-05
1.07958e-06
1.75495e-08
1.70614e-05
0.00010492
0.000148981
0.000159906
0.000161707
0.000161932
0.000161954
0.000161936
0.000161919
0.000161915
0.000161907
0.000161898
0.000161881
0.000161878
0.000161873
0.000161865
0.000161855
0.00016185
0.000161844
0.000161837
0.000161839
0.00016184
0.000161837
0.00016185
0.000161854
0.000161849
0.000161849
0.000161844
0.000161835
0.000161836
0.000161842
0.000161856
0.000161865
0.000161867
0.000161875
0.000161877
0.00016187
0.000161873
0.000161879
0.000161883
0.00016188
0.000161884
0.000161896
0.000161913
0.00016193
0.000161937
0.000161945
0.000161941
0.00016186
0.000161064
0.000154848
0.000126128
4.19387e-05
5.5037e-07
9.62251e-09
1.05205e-05
8.50195e-05
0.000138707
0.000154739
0.000158558
0.000159149
0.000159236
0.000159216
0.000159193
0.000159199
0.000159197
0.000159188
0.000159166
0.000159159
0.000159148
0.000159143
0.000159117
0.00015911
0.000159107
0.0001591
0.000159091
0.000159075
0.000159068
0.000159098
0.000159102
0.000159078
0.000159048
0.000159027
0.000159026
0.000159044
0.000159061
0.000159085
0.000159092
0.000159096
0.000159124
0.000159122
0.000159106
0.000159116
0.000159127
0.00015913
0.000159134
0.000159141
0.000159154
0.000159177
0.000159214
0.000159221
0.000159224
0.000159188
0.000158923
0.000156993
0.000146683
0.000109063
2.91038e-05
3.32967e-07
5.97389e-09
7.04712e-06
6.89554e-05
0.000128479
0.000149318
0.000155594
0.000156864
0.000157092
0.000157051
0.000156995
0.000157024
0.000157039
0.000157019
0.000157003
0.000157003
0.000156972
0.000156984
0.000156955
0.000156919
0.000156884
0.000156873
0.000156871
0.000156823
0.000156829
0.000156849
0.000156837
0.000156786
0.000156715
0.000156688
0.000156729
0.000156772
0.000156809
0.000156837
0.000156843
0.000156839
0.000156912
0.000156933
0.000156895
0.000156898
0.000156909
0.000156915
0.000156906
0.000156887
0.000156897
0.000156927
0.000157032
0.000157049
0.000157
0.000156898
0.000156286
0.000152689
0.000138551
9.40314e-05
2.12968e-05
2.22785e-07
4.05606e-09
5.04711e-06
5.64336e-05
0.000118636
0.000144195
0.000152975
0.000155253
0.000155733
0.000155686
0.000155643
0.000155708
0.000155739
0.000155636
0.000155562
0.000155606
0.000155544
0.000155568
0.000155505
0.000155385
0.000155249
0.000155214
0.000155256
0.000155158
0.000155131
0.000155083
0.000155059
0.000154962
0.000154838
0.000154845
0.000154995
0.000155045
0.000155051
0.000155091
0.000155124
0.000155119
0.000155233
0.000155272
0.000155216
0.00015522
0.000155228
0.000155246
0.000155212
0.000155176
0.000155164
0.000155218
0.000155426
0.000155449
0.00015532
0.000155096
0.000153911
0.000148432
0.000130801
8.13695e-05
1.61983e-05
1.57186e-07
2.93918e-09
3.79584e-06
4.67637e-05
0.000109451
0.000139813
0.000151111
0.000154762
0.000155581
0.000155593
0.00015555
0.00015568
0.000155832
0.000155617
0.000155425
0.00015559
0.000155451
0.000155345
0.000155073
0.00015474
0.00015445
0.000154358
0.000154457
0.000154355
0.000154231
0.000154173
0.000154096
0.000153773
0.000153516
0.000153572
0.000154001
0.000154156
0.000154014
0.000154074
0.000154202
0.000154264
0.000154403
0.000154385
0.000154286
0.000154274
0.000154335
0.000154352
0.000154154
0.00015408
0.000154089
0.000154301
0.000154585
0.000154542
0.000154335
0.000153893
0.000151871
0.000144651
0.000123634
7.07938e-05
1.27777e-05
1.18477e-07
2.23508e-09
2.96517e-06
3.92875e-05
0.000101062
0.000136164
0.000149832
0.000155388
0.000156862
0.000156507
0.000156234
0.000156702
0.000157038
0.000156792
0.000156385
0.00015659
0.000156305
0.000155922
0.000155785
0.000155126
0.000154557
0.000154402
0.000154412
0.000154226
0.000154208
0.00015431
0.000154029
0.000153476
0.000153118
0.000153216
0.000153821
0.000154081
0.000153959
0.000153984
0.00015412
0.000154126
0.000154372
0.000154493
0.000154287
0.000153976
0.000154112
0.000154471
0.000154035
0.000153675
0.0001536
0.000153989
0.000154798
0.000154931
0.000154108
0.000153203
0.000150464
0.000141686
0.000117361
6.23869e-05
1.04164e-05
9.36053e-08
1.76247e-09
2.38604e-06
3.34856e-05
9.34886e-05
0.000132928
0.000148622
0.000155861
0.000158033
0.000157735
0.000157306
0.000157774
0.000158509
0.000158659
0.000158051
0.000158095
0.000158101
0.000157655
0.000157447
0.000156477
0.00015563
0.000155286
0.000155244
0.000155098
0.000154772
0.000154992
0.000155232
0.000154474
0.000154008
0.000154059
0.000154513
0.000154873
0.000154715
0.000154677
0.000154955
0.000154785
0.000155087
0.000154829
0.000154761
0.000154368
0.000154539
0.000154706
0.00015438
0.000154077
0.000154127
0.000155118
0.000156032
0.000156101
0.000155011
0.000153375
0.000149397
0.000139636
0.000111978
5.55272e-05
8.70101e-06
7.65349e-08
1.4313e-09
1.96771e-06
2.89414e-05
8.65235e-05
0.000129694
0.000147898
0.000156237
0.000158625
0.000158505
0.000158133
0.000159199
0.000160481
0.000162162
0.000159657
0.000159617
0.000160442
0.000158131
0.000158903
0.000157583
0.000156817
0.000156942
0.000156339
0.00015637
0.000157397
0.000157707
0.000157089
0.000155267
0.000156632
0.000156969
0.000155131
0.000154912
0.000155922
0.000154969
0.000156439
0.000156579
0.000156658
0.000156937
0.000156862
0.000155567
0.000155422
0.000155668
0.000155636
0.000154837
0.00015483
0.000156274
0.000156833
0.000158207
0.000155743
0.000154103
0.000148828
0.00013708
0.000106806
4.982e-05
7.41954e-06
6.43791e-08
1.19155e-09
1.65965e-06
2.53215e-05
8.01036e-05
0.000125483
0.000148695
0.000156776
0.000160955
0.00016019
0.000156671
0.000158337
0.000164079
0.000163857
0.000162951
0.000162693
0.000161485
0.000160206
0.000160055
0.000159557
0.000158797
0.000158606
0.000158027
0.000156843
0.000157328
0.00015952
0.000158498
0.000157497
0.000157791
0.000158286
0.00015769
0.000157055
0.000158265
0.000159213
0.000159051
0.000158829
0.000158972
0.000159689
0.000159139
0.000158023
0.000156925
0.000156841
0.000157165
0.000157591
0.000157467
0.00015807
0.000160784
0.000161458
0.000159199
0.000156161
0.000151325
0.000137398
0.000101289
4.48288e-05
6.43191e-06
5.54625e-08
1.01097e-09
1.42213e-06
2.23821e-05
7.40036e-05
0.000122071
0.000143098
0.000151016
0.000155345
0.000154865
0.000156319
0.000157943
0.000159137
0.000158901
0.000158553
0.000157945
0.000156216
0.000155039
0.000153252
0.000151853
0.000150646
0.00014989
0.000149243
0.000149136
0.000149619
0.000150967
0.000151177
0.000150455
0.000149525
0.000149535
0.000149682
0.000150073
0.000150547
0.000151249
0.000151058
0.000151189
0.000151352
0.000151725
0.000151865
0.000152568
0.00015265
0.000152669
0.000153333
0.000153955
0.000153621
0.000153993
0.000156279
0.000155359
0.00015399
0.000151081
0.000144925
0.000130899
9.55797e-05
4.04125e-05
5.61553e-06
4.78263e-08
8.7134e-10
1.2349e-06
1.99735e-05
6.84574e-05
0.000111858
0.000133357
0.000142681
0.000146084
0.000146717
0.000146988
0.00014822
0.000148934
0.000148735
0.000148206
0.000147304
0.000146234
0.000144778
0.000142853
0.000141202
0.000139851
0.000138686
0.000137853
0.00013755
0.000137816
0.000138598
0.000139579
0.000139376
0.000139087
0.000139057
0.000138825
0.00013874
0.000138592
0.000138527
0.000139487
0.00014004
0.000140587
0.000140928
0.00014167
0.000143103
0.000143534
0.000143902
0.00014465
0.000145123
0.000145346
0.000145518
0.00014613
0.000145907
0.000144825
0.00014207
0.000135268
0.000120971
8.75251e-05
3.64638e-05
4.95783e-06
4.1622e-08
7.60855e-10
1.08695e-06
1.78867e-05
6.22247e-05
0.000103586
0.000124797
0.000133653
0.000137288
0.00013799
0.000138391
0.000139146
0.000139448
0.00013913
0.000138512
0.000137529
0.000136584
0.00013519
0.000132901
0.000130949
0.000129338
0.000127601
0.000126455
0.000125475
0.000124702
0.00012555
0.000129461
0.000111228
0.000104059
0.00010572
0.000117275
0.000127887
0.000125916
0.000126236
0.000126779
0.000128087
0.000129787
0.000130665
0.000131812
0.000133574
0.000134202
0.000134478
0.000135193
0.000135787
0.000135966
0.000136225
0.000136838
0.000136778
0.000135762
0.000132815
0.000126204
0.000112071
7.99531e-05
3.33227e-05
4.40366e-06
3.65364e-08
6.60123e-10
9.58575e-07
1.61336e-05
5.6593e-05
9.59696e-05
0.000116379
0.000125164
0.00012887
0.000129654
0.00012993
0.000130316
0.000130273
0.000129791
0.000129074
0.000128066
0.00012724
0.000125825
0.000123139
0.000121127
0.000118672
0.00011566
0.000114224
0.000111931
0.000112095
9.95023e-05
6.94669e-05
4.55434e-05
2.39808e-05
2.42044e-05
5.84905e-05
8.13324e-05
0.000114893
0.000113058
0.000113346
0.000115696
0.000118033
0.000119848
0.000122027
0.000124353
0.000125294
0.000125617
0.00012637
0.000126894
0.000127152
0.000127491
0.000128007
0.000128027
0.000127171
0.000124295
0.000117697
0.000103818
7.33254e-05
3.02432e-05
3.94384e-06
3.238e-08
4.76971e-10
8.11314e-07
1.42005e-05
5.12711e-05
8.82108e-05
0.000108167
0.00011696
0.000120758
0.00012158
0.000121633
0.000121648
0.000121349
0.000120725
0.000119928
0.000119014
0.000118189
0.000116272
0.000113459
0.000110824
0.000107848
0.000104758
0.000102543
0.000102673
9.32229e-05
3.22695e-05
1.56389e-06
1.43691e-09
1.41778e-08
1.24327e-05
4.17804e-05
0.000103432
0.00010202
0.000103843
0.00010665
0.000109721
0.000112315
0.000114787
0.000116421
0.00011685
0.000117695
0.000118271
0.000118648
0.000118999
0.000119469
0.000119595
0.000118898
0.000116176
0.000109701
9.60113e-05
6.7331e-05
2.74776e-05
3.53763e-06
2.87836e-08
1.15453e-10
4.82841e-07
1.16024e-05
4.51844e-05
7.96029e-05
9.88615e-05
0.000107662
0.000111427
0.00011219
0.000111894
0.000111487
0.000111007
0.00011026
0.000109411
0.000108479
0.000107504
0.000105232
0.000102301
9.9259e-05
9.60149e-05
9.32336e-05
9.28042e-05
8.13509e-05
2.36094e-05
1.3297e-06
2.14931e-10
5.70024e-06
5.99592e-05
8.82862e-05
9.1938e-05
9.50977e-05
9.85446e-05
0.000101772
0.000104501
0.00010612
0.000106769
0.000107754
0.000108471
0.000108939
0.00010924
0.000109669
0.000109954
0.000109486
0.000107022
0.000100837
8.7621e-05
6.15477e-05
2.52465e-05
3.15471e-06
2.3895e-08
1.55209e-10
5.68993e-07
1.0798e-05
4.01676e-05
6.92351e-05
8.5308e-05
9.33806e-05
9.64325e-05
9.67253e-05
9.63069e-05
9.54783e-05
9.48281e-05
9.44532e-05
9.31638e-05
9.19858e-05
9.03164e-05
8.87341e-05
8.68852e-05
8.38267e-05
8.03535e-05
7.84462e-05
7.44688e-05
4.91069e-05
6.66933e-06
1.1057e-07
1.15838e-06
2.47151e-05
6.80763e-05
7.71862e-05
7.92137e-05
8.19553e-05
8.55962e-05
8.7582e-05
8.87142e-05
8.97258e-05
9.09475e-05
9.1959e-05
9.26913e-05
9.343e-05
9.41626e-05
9.49393e-05
9.48003e-05
9.30205e-05
8.76753e-05
7.59518e-05
5.35287e-05
2.25381e-05
3.052e-06
2.66957e-08
3.35342e-10
5.75463e-07
1.05216e-05
3.73401e-05
6.29102e-05
7.77878e-05
8.51592e-05
8.82463e-05
8.84717e-05
8.77865e-05
8.74439e-05
8.67638e-05
8.59311e-05
8.49188e-05
8.34967e-05
8.16654e-05
8.06145e-05
7.89712e-05
7.56153e-05
7.28034e-05
7.07092e-05
6.20745e-05
3.01435e-05
3.66991e-06
1.45588e-07
4.36026e-10
4.45839e-09
9.18278e-07
1.4169e-05
4.9746e-05
6.85241e-05
7.17113e-05
7.39504e-05
7.71754e-05
7.8579e-05
8.02709e-05
8.09035e-05
8.18684e-05
8.33199e-05
8.45235e-05
8.54272e-05
8.63131e-05
8.68529e-05
8.66944e-05
8.50287e-05
7.99477e-05
6.90289e-05
4.84896e-05
2.04188e-05
2.73155e-06
2.21973e-08
3.69335e-10
5.42825e-07
9.68462e-06
3.41253e-05
5.72211e-05
7.10345e-05
7.81287e-05
8.10546e-05
8.13732e-05
8.09614e-05
8.05924e-05
7.97257e-05
7.88152e-05
7.78939e-05
7.66255e-05
7.50752e-05
7.37611e-05
7.24164e-05
6.95288e-05
6.66481e-05
6.42466e-05
5.32565e-05
2.2077e-05
3.0899e-06
4.31671e-07
9.23598e-08
2.01949e-08
1.43666e-08
1.23884e-08
2.27689e-08
1.43829e-07
1.22201e-06
1.04341e-05
3.97657e-05
6.07805e-05
6.56067e-05
6.80503e-05
7.09512e-05
7.241e-05
7.33274e-05
7.38363e-05
7.50548e-05
7.65257e-05
7.76933e-05
7.87242e-05
7.97568e-05
8.0303e-05
7.99704e-05
7.82777e-05
7.33345e-05
6.2892e-05
4.38621e-05
1.85569e-05
2.43584e-06
1.95433e-08
3.40583e-10
4.95865e-07
8.77116e-06
3.10039e-05
5.20891e-05
6.51456e-05
7.2158e-05
7.50043e-05
7.54461e-05
7.49951e-05
7.4459e-05
7.39576e-05
7.30523e-05
7.1956e-05
7.06243e-05
6.90219e-05
6.79336e-05
6.67518e-05
6.44208e-05
6.17857e-05
5.87399e-05
4.58359e-05
1.81621e-05
3.31178e-06
8.77026e-07
5.56108e-07
6.90558e-07
8.88159e-07
7.94291e-07
5.21704e-07
6.58384e-07
1.86705e-06
9.41567e-06
3.32023e-05
5.44536e-05
6.04049e-05
6.27854e-05
6.52401e-05
6.68133e-05
6.77543e-05
6.83549e-05
6.92784e-05
7.05555e-05
7.19208e-05
7.30498e-05
7.40805e-05
7.4551e-05
7.41025e-05
7.23836e-05
6.75085e-05
5.74728e-05
3.99417e-05
1.68583e-05
2.18005e-06
1.7414e-08
3.06797e-10
4.47373e-07
7.93832e-06
2.81298e-05
4.74598e-05
5.97253e-05
6.64739e-05
6.93164e-05
6.98678e-05
6.94456e-05
6.89704e-05
6.85878e-05
6.77396e-05
6.65955e-05
6.52875e-05
6.37884e-05
6.27453e-05
6.16866e-05
5.98098e-05
5.76294e-05
5.41725e-05
4.04076e-05
1.68832e-05
3.98901e-06
1.13713e-06
8.56791e-07
1.29513e-06
1.88603e-06
1.88476e-06
1.51857e-06
1.84594e-06
2.92718e-06
9.75182e-06
2.94849e-05
4.93744e-05
5.60407e-05
5.83704e-05
6.03449e-05
6.18257e-05
6.27033e-05
6.32893e-05
6.41125e-05
6.53526e-05
6.66968e-05
6.79005e-05
6.89159e-05
6.92555e-05
6.86517e-05
6.68489e-05
6.2163e-05
5.2621e-05
3.63945e-05
1.53098e-05
1.95954e-06
1.55999e-08
2.75339e-10
4.02114e-07
7.17627e-06
2.55133e-05
4.31809e-05
5.45981e-05
6.08839e-05
6.3641e-05
6.45057e-05
6.42289e-05
6.38114e-05
6.34852e-05
6.26603e-05
6.15512e-05
6.03408e-05
5.89485e-05
5.80044e-05
5.71097e-05
5.55528e-05
5.37073e-05
5.04374e-05
3.90236e-05
1.71441e-05
5.0396e-06
1.32388e-06
9.87792e-07
1.63339e-06
2.83462e-06
3.33047e-06
3.07104e-06
3.37397e-06
4.15991e-06
1.0944e-05
2.76884e-05
4.5374e-05
5.20081e-05
5.42359e-05
5.59599e-05
5.72204e-05
5.81031e-05
5.86203e-05
5.92901e-05
6.05964e-05
6.18872e-05
6.31139e-05
6.40258e-05
6.42235e-05
6.35397e-05
6.17147e-05
5.71893e-05
4.81328e-05
3.31539e-05
1.38769e-05
1.75805e-06
1.39509e-08
2.46651e-10
3.6078e-07
6.47203e-06
2.3041e-05
3.91284e-05
4.96428e-05
5.52589e-05
5.82924e-05
5.92146e-05
5.89361e-05
5.82681e-05
5.81109e-05
5.7469e-05
5.65523e-05
5.53292e-05
5.35162e-05
5.30686e-05
5.26983e-05
5.1344e-05
4.97559e-05
4.67836e-05
3.65727e-05
1.81456e-05
6.74208e-06
1.96879e-06
1.17405e-06
1.73251e-06
3.38285e-06
4.68113e-06
4.86411e-06
4.86932e-06
5.81545e-06
1.27974e-05
2.67201e-05
4.18784e-05
4.80886e-05
5.03339e-05
5.18358e-05
5.26865e-05
5.36676e-05
5.41424e-05
5.45935e-05
5.58181e-05
5.67463e-05
5.82637e-05
5.92153e-05
5.93447e-05
5.85145e-05
5.66423e-05
5.23684e-05
4.38346e-05
3.01301e-05
1.25659e-05
1.57561e-06
1.23258e-08
2.20713e-10
3.23425e-07
5.82675e-06
2.07446e-05
3.52608e-05
4.49189e-05
5.00341e-05
5.31042e-05
5.39683e-05
5.37443e-05
5.27507e-05
5.275e-05
5.19437e-05
5.13267e-05
5.06605e-05
4.853e-05
4.84329e-05
4.83465e-05
4.72414e-05
4.5617e-05
4.30119e-05
3.37775e-05
1.93453e-05
8.94173e-06
3.47873e-06
1.47598e-06
1.82154e-06
3.59036e-06
5.17523e-06
6.18125e-06
6.67999e-06
8.73458e-06
1.51037e-05
2.69684e-05
3.85048e-05
4.43054e-05
4.61208e-05
4.73704e-05
4.82251e-05
4.92812e-05
4.95774e-05
5.00996e-05
5.11023e-05
5.17332e-05
5.36002e-05
5.42602e-05
5.43267e-05
5.32879e-05
5.1407e-05
4.76374e-05
3.97178e-05
2.7278e-05
1.13374e-05
1.40326e-06
1.07882e-08
1.97388e-10
2.8995e-07
5.23558e-06
1.86808e-05
3.15696e-05
3.83739e-05
4.43524e-05
4.82411e-05
4.91304e-05
4.87207e-05
4.69915e-05
4.81047e-05
4.79539e-05
4.74388e-05
4.65767e-05
4.54963e-05
4.34792e-05
4.44978e-05
4.37193e-05
4.20696e-05
3.84745e-05
3.16349e-05
2.03627e-05
1.12815e-05
5.65344e-06
2.50304e-06
2.08439e-06
3.95239e-06
5.75343e-06
7.35271e-06
1.05199e-05
1.47856e-05
1.93231e-05
2.64584e-05
3.48158e-05
3.95584e-05
4.25195e-05
4.35326e-05
4.2541e-05
4.28125e-05
4.55908e-05
4.66199e-05
4.75153e-05
4.81629e-05
4.93165e-05
4.82598e-05
4.94716e-05
4.8453e-05
4.67403e-05
4.27384e-05
3.57871e-05
2.46424e-05
1.01547e-05
1.25066e-06
9.46745e-09
1.76578e-10
2.60035e-07
4.73488e-06
1.66338e-05
2.81052e-05
3.62191e-05
4.12479e-05
4.40181e-05
4.61922e-05
4.43314e-05
4.44241e-05
4.3616e-05
4.33401e-05
4.46637e-05
4.27101e-05
4.32448e-05
4.24608e-05
4.16145e-05
4.0853e-05
3.88302e-05
3.6763e-05
3.02062e-05
2.11955e-05
1.39137e-05
8.46748e-06
4.73159e-06
2.9122e-06
3.98808e-06
5.95856e-06
8.96326e-06
1.51875e-05
2.48592e-05
2.61727e-05
2.66426e-05
3.21868e-05
3.74912e-05
3.91346e-05
4.08621e-05
4.10413e-05
4.10125e-05
4.1733e-05
4.35477e-05
4.47343e-05
4.44728e-05
4.53046e-05
4.66831e-05
4.46615e-05
4.41211e-05
4.30264e-05
3.90298e-05
3.22175e-05
2.20122e-05
9.24198e-06
1.11673e-06
8.33416e-09
1.58166e-10
2.33631e-07
4.3021e-06
1.53934e-05
2.60145e-05
3.3398e-05
3.87414e-05
4.22706e-05
4.2396e-05
4.29452e-05
4.18325e-05
4.18161e-05
4.14726e-05
4.10097e-05
4.10922e-05
4.07554e-05
4.02463e-05
3.96269e-05
3.8783e-05
3.81272e-05
3.55893e-05
2.97088e-05
2.24123e-05
1.73695e-05
1.26649e-05
8.13421e-06
5.32377e-06
4.82842e-06
4.82798e-06
7.67985e-06
1.89223e-05
3.76973e-05
3.68228e-05
2.67117e-05
3.169e-05
3.54084e-05
3.82359e-05
3.86427e-05
3.9696e-05
4.00488e-05
4.06178e-05
4.11142e-05
4.23033e-05
4.38788e-05
4.43445e-05
4.42201e-05
4.27906e-05
4.23279e-05
4.17283e-05
3.67494e-05
3.08242e-05
2.05806e-05
8.3867e-06
1.00125e-06
7.3669e-09
1.42045e-10
2.10497e-07
3.92978e-06
1.45976e-05
2.50846e-05
3.26379e-05
3.76964e-05
4.02768e-05
4.15805e-05
4.16401e-05
4.16073e-05
4.10794e-05
4.08678e-05
4.02364e-05
3.96555e-05
3.82238e-05
3.77348e-05
3.69854e-05
3.65458e-05
3.58621e-05
3.39268e-05
2.98912e-05
2.45198e-05
2.21275e-05
1.93018e-05
1.37249e-05
9.6556e-06
8.22209e-06
5.01703e-06
5.33364e-06
1.4819e-05
4.5128e-05
4.39065e-05
2.81643e-05
3.03404e-05
3.44259e-05
3.62334e-05
3.63329e-05
3.77646e-05
3.82948e-05
3.87102e-05
3.92875e-05
4.0207e-05
4.1213e-05
4.21512e-05
4.20543e-05
4.24395e-05
4.15089e-05
3.93768e-05
3.57195e-05
2.90165e-05
1.96038e-05
7.71015e-06
9.01164e-07
6.53893e-09
1.27961e-10
1.90306e-07
3.58914e-06
1.36487e-05
2.40997e-05
3.12114e-05
3.60755e-05
3.83342e-05
3.92461e-05
3.97377e-05
3.95808e-05
3.91376e-05
3.88664e-05
3.83914e-05
3.77377e-05
3.63851e-05
3.55443e-05
3.51994e-05
3.47977e-05
3.40115e-05
3.24102e-05
2.87848e-05
2.69526e-05
3.07781e-05
2.89916e-05
2.19174e-05
1.61472e-05
1.42708e-05
8.14951e-06
5.5914e-06
1.00019e-05
4.07582e-05
5.41145e-05
2.93217e-05
3.08944e-05
3.27235e-05
3.44104e-05
3.54842e-05
3.56586e-05
3.60769e-05
3.6593e-05
3.72087e-05
3.79793e-05
3.88706e-05
3.96147e-05
3.99136e-05
3.9982e-05
3.91812e-05
3.71045e-05
3.33717e-05
2.7198e-05
1.83656e-05
7.13089e-06
8.14591e-07
5.83522e-09
1.15833e-10
1.72911e-07
3.29376e-06
1.26304e-05
2.24778e-05
2.93204e-05
3.38654e-05
3.63169e-05
3.72393e-05
3.74712e-05
3.72937e-05
3.68215e-05
3.64524e-05
3.60408e-05
3.55497e-05
3.46619e-05
3.37559e-05
3.35744e-05
3.31703e-05
3.25595e-05
3.08568e-05
2.81214e-05
3.0104e-05
4.05956e-05
4.26169e-05
3.32372e-05
2.51902e-05
2.22949e-05
1.36471e-05
8.43655e-06
1.00412e-05
3.6785e-05
4.97202e-05
2.97427e-05
2.98627e-05
3.22087e-05
3.28564e-05
3.36349e-05
3.39107e-05
3.4253e-05
3.4717e-05
3.52504e-05
3.59384e-05
3.672e-05
3.73665e-05
3.76849e-05
3.75235e-05
3.67499e-05
3.49732e-05
3.13147e-05
2.55448e-05
1.71466e-05
6.58003e-06
7.39796e-07
5.23561e-09
1.0534e-10
1.57856e-07
3.03435e-06
1.17502e-05
2.09291e-05
2.73785e-05
3.17676e-05
3.4271e-05
3.52126e-05
3.53935e-05
3.5202e-05
3.47859e-05
3.43915e-05
3.40083e-05
3.36101e-05
3.30196e-05
3.24047e-05
3.20995e-05
3.16985e-05
3.09591e-05
2.94001e-05
2.78146e-05
3.38362e-05
4.99597e-05
5.74537e-05
4.47896e-05
3.50758e-05
3.09472e-05
1.81264e-05
1.19312e-05
1.38609e-05
4.07266e-05
4.08495e-05
2.81413e-05
2.85613e-05
3.07404e-05
3.16593e-05
3.21349e-05
3.24041e-05
3.27102e-05
3.30565e-05
3.34455e-05
3.40058e-05
3.46692e-05
3.52132e-05
3.54725e-05
3.53117e-05
3.45883e-05
3.28587e-05
2.93469e-05
2.40019e-05
1.60541e-05
6.08723e-06
6.75015e-07
4.72334e-09
9.62237e-11
1.44716e-07
2.80449e-06
1.09562e-05
1.9569e-05
2.56103e-05
2.97938e-05
3.22452e-05
3.32087e-05
3.34063e-05
3.32107e-05
3.281e-05
3.24232e-05
3.20725e-05
3.17301e-05
3.13281e-05
3.09407e-05
3.06427e-05
3.02158e-05
2.93601e-05
2.79531e-05
2.75513e-05
3.81104e-05
6.33531e-05
6.71689e-05
5.17418e-05
4.09957e-05
3.32592e-05
2.17939e-05
1.61002e-05
2.52276e-05
4.79736e-05
4.11424e-05
2.82036e-05
2.75923e-05
2.93419e-05
3.01618e-05
3.05511e-05
3.08e-05
3.10741e-05
3.13813e-05
3.17216e-05
3.21716e-05
3.26907e-05
3.31374e-05
3.33579e-05
3.32169e-05
3.2542e-05
3.08469e-05
2.7507e-05
2.25246e-05
1.50607e-05
5.65372e-06
6.18638e-07
4.2842e-09
8.82686e-11
1.33192e-07
2.5999e-06
1.02394e-05
1.83201e-05
2.39604e-05
2.79161e-05
3.02901e-05
3.12767e-05
3.15062e-05
3.13148e-05
3.09132e-05
3.05531e-05
3.0257e-05
2.99718e-05
2.9669e-05
2.93794e-05
2.91553e-05
2.88329e-05
2.81277e-05
2.69675e-05
2.76971e-05
4.35333e-05
7.81694e-05
7.59333e-05
5.48611e-05
4.37116e-05
3.63021e-05
2.52524e-05
2.39952e-05
4.32397e-05
5.8041e-05
3.98931e-05
2.75517e-05
2.64815e-05
2.79252e-05
2.86497e-05
2.89747e-05
2.91999e-05
2.94756e-05
2.9774e-05
3.0081e-05
3.0434e-05
3.08048e-05
3.11558e-05
3.13551e-05
3.12535e-05
3.06258e-05
2.89628e-05
2.57841e-05
2.11546e-05
1.41502e-05
5.26925e-06
5.69568e-07
3.90585e-09
8.12999e-11
1.23066e-07
2.41803e-06
9.59266e-06
1.71803e-05
2.24374e-05
2.61646e-05
2.84549e-05
2.94544e-05
2.97189e-05
2.95495e-05
2.91611e-05
2.88304e-05
2.85813e-05
2.83532e-05
2.8123e-05
2.79061e-05
2.77334e-05
2.74775e-05
2.68995e-05
2.59716e-05
2.78729e-05
5.05276e-05
8.41187e-05
7.99903e-05
5.4799e-05
3.87789e-05
3.43422e-05
2.98278e-05
3.94712e-05
6.48573e-05
6.84071e-05
4.32411e-05
2.67263e-05
2.54488e-05
2.65669e-05
2.72236e-05
2.74947e-05
2.76964e-05
2.79581e-05
2.82397e-05
2.85159e-05
2.87822e-05
2.90414e-05
2.9308e-05
2.94975e-05
2.94416e-05
2.88545e-05
2.7215e-05
2.41846e-05
1.98881e-05
1.33196e-05
4.9274e-06
5.26846e-07
3.58035e-09
7.51223e-11
1.14061e-07
2.25548e-06
9.01029e-06
1.61457e-05
2.10459e-05
2.45574e-05
2.67691e-05
2.77728e-05
2.80696e-05
2.79452e-05
2.75916e-05
2.72757e-05
2.70466e-05
2.68615e-05
2.66878e-05
2.6528e-05
2.6405e-05
2.61991e-05
2.56964e-05
2.50182e-05
2.81276e-05
5.53964e-05
9.23548e-05
8.24005e-05
5.3159e-05
3.7043e-05
3.51688e-05
4.04327e-05
5.89608e-05
8.33379e-05
8.01263e-05
4.92101e-05
2.63523e-05
2.45187e-05
2.53228e-05
2.59016e-05
2.61243e-05
2.63062e-05
2.65481e-05
2.68047e-05
2.70363e-05
2.72291e-05
2.74076e-05
2.76208e-05
2.78083e-05
2.77873e-05
2.72251e-05
2.56037e-05
2.27124e-05
1.8726e-05
1.25684e-05
4.62285e-06
4.89297e-07
3.29706e-09
6.96241e-11
1.06044e-07
2.10938e-06
8.48139e-06
1.5205e-05
1.97773e-05
2.30935e-05
2.5242e-05
2.62463e-05
2.65682e-05
2.64976e-05
2.61925e-05
2.58814e-05
2.56434e-05
2.54784e-05
2.53463e-05
2.52284e-05
2.51443e-05
2.49885e-05
2.45453e-05
2.40882e-05
2.90172e-05
6.38694e-05
0.000102111
8.4048e-05
5.27907e-05
3.69315e-05
4.06017e-05
5.45447e-05
7.74061e-05
9.9173e-05
9.42139e-05
5.2496e-05
2.68674e-05
2.38134e-05
2.41764e-05
2.46581e-05
2.48483e-05
2.5015e-05
2.52418e-05
2.54768e-05
2.56581e-05
2.57847e-05
2.59158e-05
2.60968e-05
2.62817e-05
2.62763e-05
2.57211e-05
2.41218e-05
2.13655e-05
1.76663e-05
1.18896e-05
4.35271e-06
4.56315e-07
3.05151e-09
6.46706e-11
9.87753e-08
1.98004e-06
7.99715e-06
1.43399e-05
1.86082e-05
2.17484e-05
2.38513e-05
2.4858e-05
2.51947e-05
2.51706e-05
2.49217e-05
2.46188e-05
2.43568e-05
2.41908e-05
2.40861e-05
2.39977e-05
2.39425e-05
2.38358e-05
2.34514e-05
2.31988e-05
2.95809e-05
7.07962e-05
0.000111858
8.93616e-05
5.44178e-05
4.15796e-05
4.98396e-05
6.8648e-05
9.16441e-05
0.000113174
9.30496e-05
5.24363e-05
2.69304e-05
2.3179e-05
2.31362e-05
2.35085e-05
2.36545e-05
2.38005e-05
2.4016e-05
2.42389e-05
2.43788e-05
2.44523e-05
2.45563e-05
2.47193e-05
2.48964e-05
2.48844e-05
2.43231e-05
2.27559e-05
2.01399e-05
1.6709e-05
1.12845e-05
4.11835e-06
4.29199e-07
2.86503e-09
6.02189e-11
9.22281e-08
1.85596e-06
7.54852e-06
1.35327e-05
1.75129e-05
2.0487e-05
2.25533e-05
2.3568e-05
2.39122e-05
2.39205e-05
2.37315e-05
2.34511e-05
2.3175e-05
2.29986e-05
2.29096e-05
2.28445e-05
2.28215e-05
2.27614e-05
2.24384e-05
2.23881e-05
3.04177e-05
7.45443e-05
0.000120695
9.84466e-05
6.28068e-05
5.12991e-05
6.08612e-05
7.97005e-05
0.000103403
0.00012916
9.67254e-05
5.28147e-05
2.72999e-05
2.27089e-05
2.21949e-05
2.24587e-05
2.25486e-05
2.2655e-05
2.28539e-05
2.30685e-05
2.31819e-05
2.32219e-05
2.33139e-05
2.34718e-05
2.36248e-05
2.35926e-05
2.30168e-05
2.14915e-05
1.90229e-05
1.58455e-05
1.07411e-05
3.91191e-06
4.0607e-07
2.72006e-09
5.61788e-11
8.62884e-08
1.74534e-06
7.13081e-06
1.27741e-05
1.64748e-05
1.92848e-05
2.13133e-05
2.23408e-05
2.26894e-05
2.27177e-05
2.25851e-05
2.23495e-05
2.20868e-05
2.19033e-05
2.18175e-05
2.17681e-05
2.17752e-05
2.17566e-05
2.14971e-05
2.16474e-05
2.94864e-05
7.93949e-05
0.000130353
0.000111653
7.92181e-05
6.53326e-05
7.26189e-05
8.95992e-05
0.000116399
0.000145178
0.000108971
5.31864e-05
2.96388e-05
2.23086e-05
2.13281e-05
2.14805e-05
2.1516e-05
2.15713e-05
2.17471e-05
2.19516e-05
2.20501e-05
2.20778e-05
2.217e-05
2.2326e-05
2.24485e-05
2.23834e-05
2.17908e-05
2.03118e-05
1.79954e-05
1.50602e-05
1.02466e-05
3.72564e-06
3.85437e-07
2.59131e-09
5.25411e-11
8.08784e-08
1.64342e-06
6.7425e-06
1.20641e-05
1.54951e-05
1.814e-05
2.01277e-05
2.11685e-05
2.15198e-05
2.15597e-05
2.1475e-05
2.13026e-05
2.10786e-05
2.08956e-05
2.07973e-05
2.07492e-05
2.07759e-05
2.07879e-05
2.05987e-05
2.08923e-05
2.88082e-05
7.09913e-05
0.000129235
0.000124307
8.48162e-05
8.21476e-05
8.54847e-05
0.00010105
0.000128671
0.000141701
0.000112375
5.67583e-05
2.92065e-05
2.19899e-05
2.05042e-05
2.05473e-05
2.05319e-05
2.05403e-05
2.06934e-05
2.08837e-05
2.0971e-05
2.09999e-05
2.1101e-05
2.12566e-05
2.13485e-05
2.12373e-05
2.0633e-05
1.92034e-05
1.70434e-05
1.43391e-05
9.79019e-06
3.5528e-06
3.66635e-07
2.47446e-09
4.92235e-11
7.5888e-08
1.54915e-06
6.38275e-06
1.14069e-05
1.45843e-05
1.70641e-05
1.90072e-05
2.00635e-05
2.04197e-05
2.04663e-05
2.04198e-05
2.03145e-05
2.01354e-05
1.99544e-05
1.98304e-05
1.97666e-05
1.97976e-05
1.98299e-05
1.97164e-05
2.01025e-05
2.66259e-05
6.19141e-05
0.00012593
0.000125066
0.000108613
9.48176e-05
0.000100318
0.000113295
0.000137191
0.000144028
0.000112051
6.22535e-05
3.06111e-05
2.15914e-05
1.9686e-05
1.96428e-05
1.95834e-05
1.95592e-05
1.96956e-05
1.98652e-05
1.99358e-05
1.99682e-05
2.00823e-05
2.02409e-05
2.03033e-05
2.015e-05
1.95338e-05
1.81559e-05
1.61508e-05
1.36659e-05
9.36224e-06
3.39127e-06
3.49106e-07
2.36855e-09
4.61979e-11
7.13179e-08
1.46203e-06
6.04979e-06
1.0802e-05
1.37474e-05
1.60646e-05
1.79611e-05
1.90374e-05
1.9406e-05
1.94571e-05
1.94372e-05
1.93858e-05
1.92412e-05
1.90547e-05
1.88996e-05
1.88085e-05
1.88319e-05
1.88788e-05
1.88395e-05
1.93434e-05
2.5132e-05
5.55222e-05
0.000120466
0.000141123
0.000114153
0.000103099
0.000106491
0.000121065
0.000141786
0.000158315
0.000120109
7.03635e-05
3.64505e-05
2.10893e-05
1.8852e-05
1.87497e-05
1.86624e-05
1.8629e-05
1.87558e-05
1.88955e-05
1.89402e-05
1.89715e-05
1.90997e-05
1.92649e-05
1.93051e-05
1.91144e-05
1.84864e-05
1.71678e-05
1.5307e-05
1.30291e-05
8.95566e-06
3.2378e-06
3.32776e-07
2.27036e-09
4.34121e-11
6.71038e-08
1.38185e-06
5.74143e-06
1.02442e-05