/*--------------------------------*- C++ -*----------------------------------*\
  =========                 |
  \\      /  F ield         | OpenFOAM: The Open Source CFD Toolbox
   \\    /   O peration     | Website:  https://openfoam.org
    \\  /    A nd           | Version:  7
     \\/     M anipulation  |
\*---------------------------------------------------------------------------*/
FoamFile
{
    version     2.0;
    format      ascii;
    class       volScalarField;
    location    "65";
    object      p;
}
// * * * * * * * * * * * * * * * * * * * * * * * * * * * * * * * * * * * * * //

dimensions      [0 2 -2 0 0 0 0];

internalField   nonuniform List<scalar> 
17475
(
0.750148
0.435596
0.346245
0.30776
0.285279
0.270446
0.259983
0.252348
0.246692
0.242501
0.239436
0.23726
0.235802
0.234927
0.234528
0.234512
0.234802
0.235325
0.236014
0.236809
0.23765
0.238484
0.23926
0.239931
0.24046
0.240815
0.24097
0.240906
0.24062
0.240114
0.239403
0.238508
0.237461
0.236301
0.235074
0.233831
0.232628
0.231525
0.230587
0.229881
0.229484
0.229478
0.229955
0.231024
0.232818
0.235509
0.239324
0.24458
0.251743
0.261521
0.275047
0.294195
0.321794
0.364493
0.386348
0.312133
0.32663
0.312481
0.293861
0.278199
0.266241
0.257215
0.250392
0.245237
0.241377
0.238544
0.23654
0.235214
0.234446
0.234136
0.234199
0.23456
0.235147
0.235898
0.23675
0.237645
0.238528
0.239348
0.24006
0.240623
0.241002
0.24117
0.241112
0.24082
0.240299
0.239563
0.238635
0.237547
0.236341
0.235061
0.233761
0.232498
0.231331
0.230323
0.229545
0.229068
0.228971
0.229342
0.230281
0.231911
0.234383
0.237894
0.24271
0.249203
0.257915
0.269666
0.285781
0.308163
0.343815
0.353459
0.279324
0.276652
0.274558
0.268447
0.261707
0.255169
0.249441
0.244692
0.240905
0.237988
0.235834
0.234342
0.233418
0.232979
0.23295
0.23326
0.233844
0.234639
0.235583
0.236618
0.237684
0.238725
0.239687
0.240523
0.241184
0.241634
0.241845
0.241798
0.241487
0.240914
0.240096
0.239059
0.237838
0.236478
0.235028
0.233544
0.232085
0.230711
0.229484
0.228473
0.227742
0.227361
0.227401
0.227943
0.229072
0.230888
0.233503
0.237045
0.241648
0.247429
0.254407
0.262252
0.26987
0.274353
0.265977
0.232884
0.241239
0.246266
0.24669
0.244841
0.242184
0.239392
0.236817
0.234637
0.232922
0.23169
0.230924
0.230591
0.23065
0.231055
0.231756
0.232701
0.233834
0.235101
0.236442
0.237798
0.239109
0.240317
0.241363
0.242194
0.24277
0.243056
0.243028
0.242681
0.242017
0.241054
0.239826
0.238373
0.236746
0.235003
0.233205
0.231414
0.229693
0.228106
0.226716
0.22558
0.224754
0.22429
0.224239
0.224647
0.225551
0.226974
0.228912
0.231301
0.233968
0.23654
0.23824
0.237665
0.231697
0.216513
0.212086
0.218502
0.224809
0.228117
0.229316
0.229351
0.228794
0.228037
0.227323
0.226793
0.226529
0.226569
0.226925
0.227588
0.228538
0.229744
0.231168
0.232763
0.234477
0.236252
0.238025
0.239732
0.241299
0.242658
0.243748
0.244515
0.244915
0.244921
0.24452
0.24372
0.242542
0.241028
0.23923
0.237212
0.235042
0.232791
0.23053
0.228324
0.226246
0.22435
0.222686
0.221297
0.220218
0.219471
0.219067
0.218997
0.219224
0.219668
0.220181
0.220507
0.22022
0.218649
0.214715
0.206897
0.19676
0.198487
0.203133
0.20906
0.213311
0.215929
0.217492
0.218424
0.219022
0.219502
0.220012
0.220654
0.221493
0.222565
0.223886
0.225455
0.227256
0.229262
0.231434
0.233724
0.236072
0.238412
0.240656
0.242723
0.244527
0.245988
0.247033
0.247605
0.247664
0.247192
0.2462
0.244719
0.242803
0.240524
0.237964
0.235211
0.232354
0.229471
0.226642
0.223946
0.221431
0.219142
0.217111
0.215356
0.21388
0.212669
0.211686
0.210862
0.210093
0.209214
0.207989
0.206088
0.203076
0.198359
0.191429
0.184957
0.188246
0.191541
0.196519
0.200972
0.204244
0.20667
0.208548
0.210094
0.21148
0.212837
0.214266
0.21584
0.217607
0.219599
0.221828
0.224291
0.22697
0.229834
0.232835
0.235917
0.238988
0.241948
0.244695
0.247115
0.249101
0.250548
0.251371
0.251515
0.250952
0.249696
0.247794
0.245322
0.242385
0.239095
0.235571
0.231923
0.228248
0.224654
0.221215
0.217981
0.214994
0.212274
0.209827
0.207642
0.205687
0.203911
0.202238
0.200557
0.198728
0.19657
0.193852
0.190291
0.185569
0.179823
0.175439
0.17942
0.181888
0.186031
0.190308
0.193799
0.196666
0.199111
0.201288
0.203331
0.205349
0.207435
0.209659
0.212074
0.21472
0.217623
0.220791
0.224223
0.227895
0.231763
0.235749
0.239758
0.243663
0.247329
0.250605
0.253332
0.255359
0.256555
0.256833
0.256152
0.254529
0.252037
0.248794
0.244958
0.240687
0.236147
0.231484
0.226823
0.222305
0.217998
0.213956
0.210215
0.206786
0.203662
0.200818
0.198213
0.195785
0.193455
0.191128
0.188688
0.185995
0.182893
0.17919
0.174705
0.169837
0.166604
0.171246
0.17315
0.176596
0.180581
0.184112
0.187186
0.18995
0.192527
0.195023
0.197531
0.200132
0.202898
0.205891
0.209158
0.212736
0.216647
0.220895
0.22549
0.230371
0.235462
0.240666
0.245819
0.250735
0.255204
0.258994
0.261871
0.263628
0.264121
0.263281
0.261137
0.257803
0.253469
0.248383
0.242783
0.236903
0.230931
0.225064
0.219445
0.214146
0.209221
0.204693
0.20056
0.1968
0.193374
0.190224
0.187286
0.184483
0.181725
0.178917
0.175945
0.172703
0.16905
0.164949
0.160991
0.158541
0.163342
0.164842
0.167716
0.171362
0.174815
0.177943
0.180857
0.183661
0.186446
0.189292
0.192277
0.195471
0.198942
0.202752
0.206959
0.211603
0.216743
0.222357
0.228412
0.234842
0.241542
0.248345
0.254973
0.261132
0.266477
0.270637
0.273259
0.274102
0.27304
0.270122
0.265546
0.259626
0.252769
0.245342
0.237673
0.230035
0.222703
0.215794
0.20939
0.20353
0.198215
0.19342
0.189097
0.185187
0.181619
0.178318
0.175198
0.172179
0.169175
0.166104
0.162869
0.159368
0.155595
0.152231
0.150322
0.155489
0.156689
0.1591
0.162382
0.165662
0.168726
0.171655
0.174541
0.177463
0.180498
0.183722
0.18721
0.191043
0.195299
0.20006
0.205399
0.211394
0.218078
0.225447
0.233464
0.242031
0.250985
0.259981
0.268574
0.276249
0.282404
0.286416
0.287845
0.286456
0.282335
0.275842
0.267549
0.258117
0.248138
0.238073
0.228358
0.219258
0.210887
0.203305
0.196512
0.190466
0.1851
0.18033
0.176064
0.172221
0.16871
0.165451
0.162355
0.159334
0.156302
0.153176
0.14988
0.146484
0.143662
0.142124
0.147555
0.148518
0.150527
0.153431
0.156463
0.159368
0.162196
0.16503
0.167945
0.171015
0.174317
0.177936
0.181964
0.186504
0.191657
0.197572
0.204334
0.212041
0.220789
0.230593
0.24141
0.253101
0.265364
0.277526
0.288793
0.298172
0.304539
0.306997
0.305095
0.298982
0.289381
0.277394
0.264147
0.250549
0.237344
0.225082
0.213942
0.204013
0.195278
0.187651
0.181012
0.175241
0.1702
0.165791
0.16189
0.158377
0.155149
0.152118
0.149202
0.146324
0.143405
0.140386
0.137382
0.135021
0.133791
0.139456
0.140235
0.141882
0.144377
0.147092
0.14975
0.152369
0.155023
0.157782
0.160721
0.163918
0.167467
0.171471
0.176061
0.181371
0.187584
0.194861
0.203397
0.213378
0.225017
0.238384
0.253448
0.270032
0.287443
0.304394
0.31924
0.32982
0.334217
0.331446
0.321812
0.306895
0.288919
0.269891
0.251249
0.234093
0.218833
0.205549
0.194159
0.18447
0.176259
0.169329
0.163484
0.158506
0.154219
0.150477
0.147153
0.144139
0.141339
0.138674
0.136067
0.133447
0.13077
0.128182
0.126247
0.125281
0.131154
0.131767
0.133082
0.135155
0.137494
0.139816
0.142117
0.144458
0.146908
0.149537
0.152424
0.155662
0.159367
0.16367
0.168779
0.174871
0.182187
0.191044
0.201804
0.214856
0.230673
0.249509
0.271472
0.296314
0.322413
0.346913
0.365607
0.373966
0.369559
0.353156
0.32854
0.300565
0.272769
0.247514
0.225737
0.207435
0.19231
0.179919
0.169847
0.161689
0.155031
0.149546
0.144988
0.141145
0.137839
0.134952
0.132358
0.129956
0.127686
0.12547
0.123246
0.120989
0.118855
0.117292
0.116499
0.122663
0.123149
0.124156
0.125776
0.127655
0.129549
0.131428
0.133335
0.135327
0.137465
0.139821
0.142477
0.145541
0.149167
0.153559
0.158915
0.165531
0.173802
0.184262
0.197627
0.214724
0.236633
0.264399
0.298596
0.338894
0.38105
0.416665
0.433966
0.426101
0.395207
0.351754
0.307005
0.266979
0.234118
0.207995
0.18761
0.171899
0.159861
0.15057
0.143322
0.137648
0.133122
0.129489
0.126499
0.123975
0.12179
0.119834
0.118021
0.116287
0.114575
0.112837
0.111068
0.109426
0.10827
0.107681
0.113995
0.114366
0.115068
0.116214
0.117589
0.118985
0.120351
0.121709
0.123098
0.124563
0.126159
0.127955
0.130036
0.132551
0.135629
0.139479
0.144384
0.150746
0.159152
0.170466
0.186002
0.207643
0.238201
0.280945
0.339491
0.413329
0.486687
0.526239
0.51028
0.445151
0.363855
0.293116
0.2399
0.201564
0.174524
0.155603
0.142241
0.132703
0.125821
0.120819
0.117117
0.114332
0.112179
0.110438
0.109021
0.107797
0.10668
0.105597
0.104516
0.10341
0.102241
0.101023
0.0999047
0.0991325
0.098715
0.105191
0.105449
0.105838
0.106498
0.107343
0.108203
0.108997
0.10972
0.110392
0.111036
0.111684
0.112372
0.113147
0.114094
0.115269
0.116813
0.118885
0.121714
0.125755
0.131627
0.14037
0.154099
0.17645
0.21408
0.279495
0.396192
0.554307
0.654802
0.617952
0.465405
0.313846
0.221154
0.167915
0.137168
0.119132
0.10846
0.10205
0.0981229
0.0958597
0.0945651
0.0938111
0.0934797
0.0933491
0.0932965
0.0932789
0.0932283
0.0931126
0.0929064
0.0925913
0.0921533
0.0915919
0.090943
0.0903403
0.0899517
0.0897078
0.0959969
0.0960945
0.0962385
0.0965696
0.0969968
0.0973484
0.0975417
0.0975697
0.0974398
0.0971584
0.0967255
0.0961379
0.0953858
0.0944658
0.0933408
0.0919793
0.0903245
0.088288
0.0857501
0.0825
0.0782163
0.0726974
0.0651935
0.0545925
0.0396884
0.127065
0.396676
0.241481
0.0761068
0.0148254
0.0239413
0.032988
0.0408129
0.0474971
0.0533034
0.0581689
0.0623632
0.0659471
0.0690129
0.0716366
0.0738579
0.0757214
0.0772624
0.0785087
0.0794826
0.0802029
0.0806837
0.0809388
0.0809906
0.0808953
0.080785
0.080779
0.0807627
0.0852501
0.0854636
0.0860188
0.0865959
0.0868431
0.0866878
0.0862258
0.0854973
0.0845171
0.0832805
0.0817324
0.0798176
0.0774689
0.0745891
0.0710444
0.0666406
0.0610799
0.0538902
0.0443211
0.031071
0.0117687
-0.0181171
-0.0681713
-0.161981
-0.295596
-0.475597
-0.303512
-0.161669
-0.0882033
-0.0447941
-0.0166297
0.00302329
0.0174817
0.0285429
0.03724
0.0442122
0.0498774
0.054509
0.0582989
0.06143
0.0639931
0.0660713
0.0677461
0.0690277
0.069971
0.0706128
0.0709879
0.0711324
0.0710974
0.0709852
0.0796575
0.0793552
0.0790878
0.0783946
0.0774724
0.0764628
0.0753063
0.0739079
0.0721789
0.0700662
0.0675004
0.0644005
0.0606488
0.0560837
0.0505047
0.0436261
0.0350282
0.0240874
0.00985019
-0.00918605
-0.0354504
-0.0730585
-0.130509
-0.220479
-0.308883
-0.369704
-0.255789
-0.167034
-0.109731
-0.069957
-0.0410784
-0.0194258
-0.0027559
0.0103442
0.0207995
0.0292445
0.0361339
0.0417909
0.046432
0.0502513
0.0533847
0.0559212
0.0579798
0.059603
0.0608179
0.0616217
0.0619789
0.0618859
0.0616654
0.0694424
0.0694843
0.0691583
0.0685462
0.0676338
0.0663576
0.0647149
0.0626959
0.0602603
0.0573419
0.0538512
0.0496784
0.0446811
0.0386374
0.0313192
0.0224019
0.0114431
-0.0021673
-0.0192771
-0.0410156
-0.0687929
-0.104161
-0.147669
-0.196109
-0.220544
-0.233062
-0.346652
-0.321403
-0.26268
-0.196905
-0.144539
-0.103729
-0.0720775
-0.0472813
-0.0276703
-0.0119758
0.000714463
0.0110617
0.019562
0.0265854
0.0324061
0.0372383
0.0412509
0.0445738
0.0473176
0.0495722
0.0514203
0.0529322
0.0541425
0.0549569
0.0551171
0.0616262
0.0617777
0.0613974
0.0604132
0.0589728
0.0571877
0.0550566
0.0525239
0.0495169
0.0459507
0.0417236
0.0367164
0.0307793
0.0236693
0.0151744
0.00499063
-0.0072508
-0.0219935
-0.039825
-0.0613158
-0.0869004
-0.116868
-0.150694
-0.181174
-0.193519
-0.20243
-0.219129
-0.242421
-0.27408
-0.298154
-0.304347
-0.294447
-0.253077
-0.20045
-0.155646
-0.119019
-0.0890489
-0.0644873
-0.0444634
-0.028017
-0.0144103
-0.00316423
0.00619816
0.0140308
0.0205894
0.0260933
0.0307157
0.0345972
0.0378557
0.0405921
0.0428805
0.044742
0.0461097
0.0468703
0.0470208
0.054167
0.0542915
0.053818
0.0526405
0.0509077
0.0487612
0.0462312
0.0432704
0.0398003
0.0357259
0.0309427
0.0253301
0.0187393
0.010926
0.00169158
-0.00919072
-0.0220049
-0.0370744
-0.0547397
-0.0752967
-0.0989486
-0.12559
-0.153849
-0.174605
-0.181397
-0.19358
-0.217016
-0.245635
-0.274256
-0.289304
-0.287394
-0.271456
-0.235874
-0.192472
-0.154479
-0.122655
-0.0958837
-0.0733767
-0.0544609
-0.0385527
-0.0251367
-0.0138219
-0.00424274
0.00390309
0.0107906
0.0166383
0.0216064
0.0258375
0.029434
0.032486
0.0350687
0.0371923
0.0387637
0.0396347
0.0397625
0.0470041
0.0471233
0.0466208
0.0453559
0.0434551
0.0410766
0.0382772
0.0350227
0.031238
0.0268287
0.0216874
0.0156977
0.00871701
0.000585924
-0.00893686
-0.0200121
-0.032874
-0.0477598
-0.0649101
-0.0845349
-0.106729
-0.131393
-0.156908
-0.174354
-0.180158
-0.192186
-0.215172
-0.241681
-0.262787
-0.267421
-0.257409
-0.237972
-0.207423
-0.173314
-0.143068
-0.117095
-0.0946419
-0.0752129
-0.058438
-0.0439645
-0.0315234
-0.0208067
-0.0115926
-0.00365904
0.00317053
0.00904566
0.0140976
0.0184441
0.0221852
0.0254027
0.0281522
0.0304176
0.0320788
0.0329797
0.0331082
0.0404012
0.0405439
0.0400509
0.0387567
0.036766
0.0342558
0.0313004
0.0278784
0.0239221
0.0193456
0.0140501
0.0079283
0.000857681
-0.00732425
-0.0168207
-0.0277511
-0.040322
-0.0547485
-0.0712519
-0.0900386
-0.111387
-0.135531
-0.160851
-0.178368
-0.184935
-0.194678
-0.211107
-0.227902
-0.237083
-0.231051
-0.214001
-0.193857
-0.171129
-0.147254
-0.12517
-0.105378
-0.0876641
-0.0718457
-0.0577861
-0.0453435
-0.034369
-0.0247139
-0.0162486
-0.008839
-0.00235791
0.00328348
0.00819739
0.0124815
0.0162042
0.0194375
0.0222186
0.024512
0.026173
0.0270486
0.0271442
0.034405
0.0345667
0.0340965
0.0328167
0.0308208
0.028279
0.02528
0.0218182
0.0178355
0.0132535
0.00798452
0.00192841
-0.00501611
-0.0129705
-0.0221314
-0.0326373
-0.0446493
-0.0583883
-0.074083
-0.0920536
-0.112725
-0.136493
-0.162163
-0.181613
-0.189915
-0.196333
-0.204368
-0.208915
-0.20496
-0.188805
-0.166223
-0.14742
-0.132435
-0.11809
-0.103931
-0.090298
-0.0772924
-0.0651389
-0.0539385
-0.0437135
-0.0344534
-0.0261217
-0.0186645
-0.0120211
-0.00612378
-0.000903073
0.00370635
0.00776786
0.0113364
0.0144635
0.0171678
0.0193934
0.0209826
0.0217801
0.0218179
0.0290797
0.0292761
0.0288539
0.0276356
0.0257
0.0232083
0.020268
0.0168837
0.0130071
0.00856964
0.00349452
-0.0023041
-0.00891545
-0.0164441
-0.02503
-0.0348571
-0.046048
-0.0588126
-0.0734148
-0.0902062
-0.109641
-0.132283
-0.157307
-0.178341
-0.189072
-0.19343
-0.194457
-0.189001
-0.174266
-0.149861
-0.123044
-0.105019
-0.0964694
-0.0898705
-0.0823603
-0.0740368
-0.0653439
-0.0566003
-0.0481319
-0.0401034
-0.0325986
-0.0256651
-0.019318
-0.0135516
-0.00834455
-0.00366798
0.000512955
0.00423727
0.00754475
0.0104691
0.0130125
0.0151047
0.0165804
0.0172942
0.0172742
0.0244391
0.0246536
0.0242852
0.0231765
0.0213747
0.0190283
0.0162443
0.0130432
0.00938986
0.00522865
0.000494483
-0.00488478
-0.0109879
-0.0178945
-0.0257099
-0.0346007
-0.0446998
-0.0561782
-0.0692852
-0.0843379
-0.101793
-0.122186
-0.145201
-0.166137
-0.179154
-0.183513
-0.180551
-0.168834
-0.147987
-0.11889
-0.0893806
-0.071093
-0.066507
-0.0654694
-0.0628441
-0.0586318
-0.0533545
-0.0475251
-0.0414425
-0.0353915
-0.0295246
-0.0239362
-0.0186932
-0.0138321
-0.00936757
-0.00529807
-0.00161141
0.00171134
0.00469268
0.00734972
0.00966849
0.0115647
0.0128717
0.0134604
0.0133858
0.0204825
0.020723
0.0204295
0.019452
0.0178286
0.0156901
0.0131402
0.0102098
0.00687647
0.00309818
-0.0011754
-0.00599997
-0.0114385
-0.0175566
-0.0244321
-0.0321798
-0.0409391
-0.0508362
-0.0620601
-0.0748675
-0.0896217
-0.106792
-0.126286
-0.145113
-0.159299
-0.165137
-0.16133
-0.147614
-0.125542
-0.0961265
-0.0657883
-0.0467816
-0.044037
-0.0462592
-0.0466564
-0.0452327
-0.0424684
-0.0388168
-0.0346898
-0.0302857
-0.0258315
-0.0214556
-0.0172433
-0.0132546
-0.00952484
-0.00607215
-0.00290233
-1.25587e-05
0.00260565
0.00495552
0.00700988
0.00867535
0.00979627
0.010265
0.0101324
0.0171943
0.0174594
0.0172448
0.0164205
0.0150137
0.0131364
0.0108851
0.00829664
0.00536114
0.00204981
-0.00167292
-0.00584642
-0.0105139
-0.0157252
-0.0215353
-0.0280076
-0.0352306
-0.0433092
-0.0523656
-0.0625609
-0.0741181
-0.0873553
-0.102339
-0.117593
-0.131316
-0.138989
-0.136844
-0.124689
-0.104491
-0.0780854
-0.0502762
-0.031479
-0.0288515
-0.0323568
-0.0341778
-0.0343007
-0.0331483
-0.0310687
-0.0283398
-0.0252516
-0.021957
-0.0186172
-0.0153154
-0.0121189
-0.00907455
-0.00621286
-0.00355137
-0.00109777
0.00114595
0.00317244
0.00494471
0.00636675
0.00729593
0.0076422
0.00745865
0.0145359
0.0148227
0.0146948
0.014036
0.0128758
0.0112997
0.00939372
0.00719743
0.00471237
0.00192225
-0.00119449
-0.00466107
-0.00849873
-0.0127329
-0.0173901
-0.022504
-0.0281168
-0.0342911
-0.0410715
-0.0485103
-0.0566988
-0.0658155
-0.076009
-0.0868639
-0.0984937
-0.106975
-0.107674
-0.0993255
-0.0831155
-0.0612575
-0.0379849
-0.0214152
-0.0190801
-0.0228497
-0.0250859
-0.0258535
-0.0255489
-0.024442
-0.0227177
-0.0205754
-0.0181964
-0.0156882
-0.0131517
-0.0106441
-0.00821352
-0.005895
-0.00371157
-0.0016776
0.000198134
0.00190054
0.00338643
0.00456186
0.00529878
0.0055266
0.0053007
0.012457
0.0127586
0.0127188
0.0122469
0.011345
0.0100888
0.00855289
0.00677641
0.00476848
0.00252667
4.29051e-05
-0.00268895
-0.00567592
-0.00892301
-0.0124346
-0.0162112
-0.0202469
-0.0245276
-0.029065
-0.0338331
-0.0388098
-0.0440633
-0.0498165
-0.0564532
-0.0654623
-0.0736105
-0.0764166
-0.0719086
-0.0605823
-0.0443558
-0.0270083
-0.0146195
-0.0132762
-0.0167482
-0.0187689
-0.0195692
-0.0195727
-0.0189643
-0.0178734
-0.016406
-0.0146935
-0.0128386
-0.0109206
-0.00899224
-0.00709382
-0.00525878
-0.00351133
-0.00186819
-0.000342349
0.00104663
0.00225214
0.003188
0.00374054
0.0038613
0.00359842
0.0109092
0.0112195
0.0112584
0.010961
0.0103222
0.00939583
0.00823911
0.00689079
0.0053664
0.00367248
0.00181374
-0.000203829
-0.00237032
-0.00466992
-0.00708077
-0.0095749
-0.012117
-0.0146617
-0.0171463
-0.019506
-0.0216556
-0.0235963
-0.0256311
-0.0286504
-0.0351794
-0.0429252
-0.04711
-0.0458166
-0.0391776
-0.028748
-0.0174026
-0.0099715
-0.0101739
-0.0130476
-0.0144798
-0.0149601
-0.0149293
-0.0145151
-0.0137663
-0.0127421
-0.0115073
-0.01015
-0.00872198
-0.00726904
-0.00582264
-0.00440953
-0.00305166
-0.00176548
-0.000565441
0.000526299
0.00146398
0.0021683
0.00255196
0.00257725
0.00228574
0.00983171
0.0101504
0.0102631
0.0101242
0.00972833
0.00912049
0.00833425
0.00740106
0.0063419
0.00517157
0.00390523
0.00256215
0.00116602
-0.000253099
-0.00165704
-0.00299744
-0.00421196
-0.00522566
-0.00595054
-0.00627873
-0.00610847
-0.00543053
-0.00463528
-0.00504493
-0.00969032
-0.0168667
-0.0223172
-0.0239022
-0.0213919
-0.0161153
-0.0103233
-0.00719242
-0.00860094
-0.0107208
-0.0114276
-0.0114575
-0.0112342
-0.0108342
-0.0102587
-0.00951137
-0.00862288
-0.00763443
-0.0065944
-0.00553
-0.00446485
-0.00341709
-0.00240423
-0.00144065
-0.000540743
0.000273576
0.000959412
0.00145019
0.00167734
0.00161974
0.00130745
0.00916397
0.00947814
0.00965058
0.00965971
0.00949658
0.00917763
0.00873118
0.00818337
0.00755545
0.00686842
0.00614475
0.00541197
0.00470337
0.00406026
0.0035337
0.00318701
0.00309669
0.00335375
0.00406211
0.00533407
0.00727214
0.00987657
0.0126564
0.0140032
0.0104071
0.00323728
-0.00328995
-0.00714543
-0.00822221
-0.00721665
-0.00559367
-0.00556579
-0.0075391
-0.0088728
-0.00889897
-0.00851188
-0.00808143
-0.00763913
-0.00715398
-0.00659678
-0.00596282
-0.00526957
-0.00454195
-0.00380068
-0.00305751
-0.00232623
-0.00161848
-0.000945669
-0.000320616
0.000235664
0.000686799
0.000978861
0.00106642
0.00093956
0.000614211
0.0088309
0.00914672
0.00936749
0.00949543
0.00952705
0.00946656
0.00932663
0.009125
0.00888259
0.0086233
0.00837497
0.00817102
0.00805159
0.0080647
0.00826855
0.00873311
0.00954082
0.0107868
0.0125771
0.0150229
0.0182068
0.0220468
0.0260632
0.0283229
0.025238
0.017962
0.0103316
0.00440126
0.000656801
-0.00139957
-0.00276529
-0.00440364
-0.00621837
-0.00677974
-0.0063117
-0.00566428
-0.00511717
-0.00466827
-0.00426767
-0.00387217
-0.00345402
-0.00300683
-0.0025441
-0.00208012
-0.00161899
-0.00116493
-0.000728891
-0.000318906
5.40456e-05
0.00037218
0.000605575
0.000719186
0.000682361
0.000494404
0.000162674
0.00876405
0.00907481
0.00932939
0.00955843
0.00975566
0.00991406
0.0100352
0.010131
0.0102183
0.0103226
0.0104744
0.0107101
0.0110727
0.011613
0.0123906
0.013476
0.0149502
0.0169044
0.0194375
0.0226468
0.0265921
0.0311598
0.0356801
0.0383056
0.035339
0.0276823
0.0191645
0.0118466
0.006246
0.00227924
-0.000539118
-0.00271409
-0.00399602
-0.00398703
-0.00329313
-0.00259765
-0.00207923
-0.00171273
-0.00144204
-0.00122002
-0.00101175
-0.000796759
-0.000574587
-0.000358275
-0.000151417
5.12418e-05
0.000241933
0.000412179
0.000552703
0.000649351
0.000682115
0.000631826
0.000489213
0.000254816
-7.71143e-05
0.00889802
0.00919958
0.00948336
0.00978931
0.0101132
0.0104508
0.0107874
0.0111263
0.0114836
0.0118831
0.0123558
0.0129384
0.0136735
0.0146106
0.015807
0.017328
0.0192476
0.0216469
0.024611
0.0282201
0.0325089
0.0373381
0.0421167
0.0446774
0.0415072
0.0336532
0.0245494
0.0163513
0.00985757
0.00510029
0.00180406
-2.92244e-05
-0.000624451
-0.000318212
0.000314979
0.000841186
0.00117351
0.00135084
0.00142388
0.00143561
0.00142088
0.00140217
0.00138883
0.00137565
0.00134764
0.00131536
0.00127895
0.00122762
0.00115295
0.00104467
0.000892995
0.000695332
0.000458034
0.000188492
-0.000141829
0.00917219
0.00946506
0.00976429
0.010129
0.010552
0.0110226
0.011525
0.012054
0.0126208
0.0132472
0.0139623
0.0148009
0.0158028
0.0170132
0.0184833
0.0202702
0.0224362
0.0250483
0.0281747
0.0318764
0.0361739
0.0409188
0.0454852
0.0478259
0.0445933
0.0366757
0.0275277
0.0192048
0.0125855
0.00786978
0.00506819
0.00398911
0.00385645
0.00413776
0.00447183
0.00465046
0.00466345
0.00455371
0.00436263
0.00412409
0.00386536
0.00360489
0.0033554
0.00311558
0.00287049
0.00261736
0.00236839
0.00211147
0.00183748
0.00153886
0.00121841
0.000886744
0.000568055
0.000268502
-5.44901e-05
0.00953303
0.00981698
0.0101314
0.0105265
0.0110179
0.0115852
0.012207
0.0128742
0.0135926
0.0143809
0.0152648
0.0162752
0.0174474
0.0188201
0.0204362
0.0223417
0.0245859
0.0272197
0.0302933
0.0338498
0.0378924
0.0422796
0.0465055
0.0485998
0.0454625
0.0379899
0.0292688
0.0213675
0.0152222
0.0112082
0.0093475
0.00901121
0.0091065
0.00912444
0.00900341
0.00871879
0.00832424
0.00785817
0.00735326
0.00683157
0.00631078
0.00580289
0.00531741
0.00485381
0.00440215
0.00394387
0.00349375
0.00304554
0.00258862
0.00212454
0.00166241
0.00122893
0.000849141
0.000524295
0.000205323
0.00993866
0.0102102
0.0105246
0.0109412
0.0114733
0.0121015
0.0128028
0.0135613
0.0143796
0.0152716
0.016259
0.0173679
0.0186271
0.020068
0.0217238
0.0236292
0.0258195
0.0283297
0.0311928
0.0344363
0.038063
0.0419782
0.0457881
0.0476813
0.0448961
0.038172
0.030315
0.0233172
0.0183069
0.0154757
0.0145607
0.0146999
0.0147175
0.014327
0.0136738
0.0128792
0.012032
0.011177
0.0103338
0.00951364
0.00872319
0.00796859
0.00725257
0.00657243
0.00592043
0.00527405
0.00463577
0.00400993
0.00338254
0.00275531
0.00215263
0.00161145
0.00117698
0.000842044
0.000547912
0.0103375
0.0105993
0.01091
0.0113346
0.0118832
0.0125461
0.0132918
0.0141027
0.0149768
0.0159236
0.0169597
0.0181059
0.0193845
0.0208187
0.0224323
0.0242486
0.0262898
0.0285766
0.031129
0.0339628
0.0370785
0.0404281
0.0437404
0.0455159
0.0433183
0.0376858
0.0311495
0.0256044
0.0218935
0.0202026
0.0202783
0.0204035
0.0202699
0.0194155
0.0182333
0.016934
0.0156413
0.014399
0.0132197
0.0121051
0.011053
0.0100604
0.00912603
0.00824307
0.00740407
0.00659254
0.00578491
0.0049897
0.00421219
0.00345195
0.0027378
0.00212346
0.00164229
0.00129823
0.00101307
0.0106995
0.0109504
0.0112559
0.0116764
0.0122297
0.0129024
0.0136652
0.0144976
0.0153922
0.0163544
0.0173962
0.0185328
0.0197795
0.0211523
0.0226658
0.0243332
0.026166
0.0281739
0.0303624
0.0327355
0.0352936
0.0380527
0.0409091
0.042651
0.0412244
0.0370628
0.0321897
0.0281688
0.0257503
0.024943
0.025142
0.0255045
0.025404
0.0240664
0.0224482
0.0206977
0.019002
0.0174064
0.0159187
0.0145327
0.0132396
0.0120303
0.0108975
0.00983141
0.00882272
0.0078537
0.00690637
0.00596739
0.00505812
0.00418263
0.00337784
0.00269623
0.00218777
0.00183852
0.0015655
0.0110053
0.0112438
0.0115399
0.0119508
0.0124949
0.0131625
0.0139232
0.014753
0.0156418
0.0165907
0.0176069
0.0187003
0.0198804
0.0211561
0.0225343
0.024021
0.0256183
0.0273248
0.0291352
0.0310468
0.0330716
0.0352757
0.0376927
0.039463
0.0389519
0.0363021
0.0331111
0.0306088
0.029328
0.0292228
0.0298042
0.0301542
0.0292875
0.0279937
0.0262018
0.0240095
0.0219803
0.0200916
0.0183429
0.0167249
0.0152247
0.0138288
0.0125248
0.0113019
0.0101473
0.00904482
0.00797609
0.00692346
0.00590118
0.00493457
0.00405879
0.00333462
0.00280602
0.00245433
0.00219877
0.0112442
0.011469
0.0117513
0.0121464
0.0126731
0.0133232
0.0140686
0.0148805
0.015746
0.0166624
0.017633
0.0186626
0.0197559
0.0209161
0.022145
0.0234411
0.024799
0.0262103
0.0276645
0.0291522
0.0306889
0.0323778
0.034369
0.0361402
0.0364184
0.035177
0.0335016
0.0323622
0.0321191
0.032659
0.0334722
0.0337819
0.0329642
0.0310863
0.0288448
0.0267447
0.0244773
0.0223712
0.0204218
0.0186218
0.0169566
0.015411
0.0139699
0.0126201
0.0113475
0.0101376
0.00897053
0.00783521
0.00673295
0.00569208
0.00476692
0.0040161
0.00347516
0.00312887
0.00288817
0.0113932
0.0116076
0.0118759
0.012251
0.0127571
0.0133862
0.0141075
0.0148939
0.0157272
0.0166013
0.0175162
0.0184727
0.0194721
0.0205135
0.0215935
0.0227055
0.0238408
0.0249858
0.0261236
0.0272403
0.0283538
0.0295862
0.0311494
0.032836
0.0336965
0.0335526
0.0331377
0.0330988
0.0337503
0.0349369
0.0361132
0.0364937
0.0355319
0.0335895
0.0312055
0.0287269
0.026376
0.0241988
0.0221074
0.020178
0.0183941
0.0167396
0.0151985
0.0137565
0.0123983
0.0111087
0.00987106
0.00867193
0.00752462
0.0064372
0.00548358
0.00471793
0.00418057
0.00383847
0.00361208
0.0114483
0.01165
0.0119042
0.0122619
0.0127475
0.0133526
0.0140519
0.014811
0.0156093
0.0164384
0.017295
0.0181786
0.0190869
0.0200157
0.0209588
0.0219075
0.0228491
0.0237667
0.0246403
0.0254529
0.0262191
0.0270573
0.0282087
0.0296689
0.030828
0.0314358
0.0319597
0.0328693
0.0342839
0.0360124
0.037566
0.0381363
0.0371993
0.0351593
0.0326914
0.0301741
0.0277502
0.0254619
0.0233279
0.0213632
0.0195096
0.0177893
0.0161879
0.0146889
0.0132775
0.0119391
0.0106589
0.00942614
0.00825049
0.0071581
0.00618982
0.0054278
0.00489369
0.0045646
0.00435045
0.0114243
0.0116132
0.0118526
0.0121915
0.0126565
0.0132424
0.0139186
0.014651
0.0154155
0.0162015
0.0170045
0.0178208
0.0186468
0.0194771
0.020304
0.0211162
0.0218998
0.0226364
0.0233046
0.0238844
0.0243839
0.0249028
0.0256725
0.0268211
0.028024
0.029087
0.0302387
0.0317763
0.0337932
0.0360492
0.0379724
0.0387774
0.0379621
0.0359607
0.0334823
0.0309343
0.0284969
0.026223
0.0241085
0.0221243
0.0202783
0.0185511
0.0169259
0.0154052
0.0139717
0.0126148
0.0113203
0.0100801
0.0088997
0.0078252
0.00687121
0.00612
0.0056018
0.00528161
0.00508294
0.0113405
0.0115173
0.0117416
0.0120595
0.0125041
0.0130705
0.0137247
0.0144329
0.0151683
0.0159168
0.0166726
0.0174316
0.0181896
0.01894
0.0196742
0.0203808
0.0210454
0.0216497
0.0221717
0.0225906
0.0229064
0.0231928
0.0236427
0.0244452
0.0255122
0.0267103
0.0282081
0.0301735
0.032592
0.035206
0.037443
0.0384925
0.0378582
0.0359828
0.0335939
0.0311134
0.0287249
0.0264871
0.0244132
0.0224952
0.0206965
0.0189929
0.0174095
0.0159237
0.0144862
0.0131287
0.0118475
0.0106244
0.00946773
0.00841147
0.00750593
0.00677759
0.00627642
0.00597383
0.0057851
0.0112149
0.0113776
0.0115857
0.0118852
0.0123072
0.0128503
0.0134877
0.0141744
0.0148851
0.0156034
0.0163219
0.0170363
0.0177417
0.0184319
0.0190985
0.0197306
0.0203146
0.0208329
0.0212652
0.0215904
0.021802
0.0219439
0.0221559
0.0226263
0.0234321
0.0245816
0.0261672
0.0283146
0.0309615
0.033809
0.0362602
0.0374943
0.0370359
0.0353192
0.0330822
0.0307372
0.028469
0.0263351
0.0243456
0.0224976
0.0207763
0.0191607
0.0176236
0.0161601
0.0147746
0.0134766
0.0122386
0.0110543
0.00993648
0.00892181
0.00804495
0.0073695
0.00690417
0.00661277
0.00643475
0.0110455
0.0111987
0.0113917
0.0116717
0.0120752
0.0126016
0.0132201
0.0138912
0.0145828
0.0152784
0.0159692
0.0166509
0.0173192
0.0179684
0.0185911
0.0191776
0.0197156
0.0201901
0.0205828
0.0208736
0.0210497
0.021129
0.0211955
0.0214055
0.0219092
0.0228469
0.0243363
0.0264491
0.0291331
0.0320644
0.0346054
0.0359529
0.0356365
0.0340961
0.032045
0.0298836
0.027782
0.0257978
0.0239419
0.0222046
0.0205751
0.0190435
0.0176011
0.0162316
0.0149268
0.0136759
0.0124822
0.0113434
0.0101847
0.00935298
0.00852794
0.00789659
0.00745893
0.00718305
0.00701452
0.0108595
0.0109996
0.0111782
0.0114427
0.0118277
0.0123387
0.0129418
0.0135981
0.0142751
0.0149537
0.0156251
0.016285
0.0169298
0.0175549
0.0181543
0.0187199
0.019242
0.0197078
0.020102
0.0204065
0.0206045
0.02069
0.0206967
0.0207229
0.0209331
0.0215608
0.0228309
0.0248044
0.0273738
0.0302075
0.0326993
0.0340477
0.0338173
0.0324362
0.0305925
0.0286482
0.0267475
0.0249443
0.0232445
0.0216465
0.0201415
0.0187186
0.0173699
0.0160875
0.0148677
0.0137089
0.012603
0.0115557
0.0106091
0.00971723
0.00868465
0.00832905
0.00796459
0.00766866
0.00750364
0.0106728
0.0108015
0.0109684
0.0112144
0.011582
0.0120733
0.0126609
0.0133037
0.0139682
0.0146344
0.0152931
0.0159399
0.0165723
0.0171871
0.0177799
0.0183448
0.0188743
0.0193588
0.0197863
0.0201409
0.0204027
0.0205481
0.0205673
0.0205042
0.0204956
0.0208122
0.0217457
0.0234264
0.0257541
0.0283897
0.0307087
0.0319487
0.0317217
0.0304647
0.0288297
0.0271199
0.0254497
0.0238457
0.0223198
0.0208742
0.019506
0.0182083
0.0169741
0.0157961
0.0146701
0.0135945
0.0125701
0.0115994
0.0106935
0.00990214
0.0093034
0.00882043
0.00836811
0.00797298
0.00788764
0.0104758
0.0105941
0.0107483
0.010981
0.0113312
0.0118055
0.0123785
0.0130092
0.0136631
0.0143203
0.014971
0.0156114
0.0162398
0.0168546
0.0174533
0.0180319
0.0185857
0.0191081
0.0195902
0.0200187
0.0203717
0.0206133
0.0206998
0.0206221
0.0204734
0.0205176
0.02109
0.0223847
0.0243506
0.0266469
0.0286737
0.029718
0.02944
0.0282862
0.0268509
0.0253936
0.0239598
0.022568
0.0212276
0.0199437
0.018718
0.0175489
0.0164327
0.0153648
0.0143424
0.0133639
0.0124296
0.011545
0.0107227
0.00997768
0.00933603
0.00884456
0.00851769
0.00832185
0.00817802
0.010264
0.0103712