/*--------------------------------*- C++ -*----------------------------------*\
  =========                 |
  \\      /  F ield         | OpenFOAM: The Open Source CFD Toolbox
   \\    /   O peration     | Website:  https://openfoam.org
    \\  /    A nd           | Version:  7
     \\/     M anipulation  |
\*---------------------------------------------------------------------------*/
FoamFile
{
    version     2.0;
    format      ascii;
    class       surfaceScalarField;
    location    "65";
    object      phi;
}
// * * * * * * * * * * * * * * * * * * * * * * * * * * * * * * * * * * * * * //

dimensions      [0 3 -1 0 0 0 0];

internalField   nonuniform List<scalar> 
34768
(
8.19191e-05
0.000970006
-0.000149633
-4.45875e-05
2.593e-05
0.000920951
-1.58417e-05
1.08737e-05
0.000907463
-8.27625e-06
6.72711e-06
0.000904245
-5.35064e-06
4.61756e-06
0.00090353
-4.29264e-06
3.91272e-06
0.000903177
-3.62577e-06
3.51451e-06
0.00090311
-3.45048e-06
3.43265e-06
0.000903117
-3.14023e-06
3.07951e-06
0.000903261
-3.23237e-06
3.00936e-06
0.000903324
-3.09293e-06
2.9964e-06
0.000903299
-3.00176e-06
3.22478e-06
0.000903281
-3.04665e-06
2.98491e-06
0.000903566
-3.21962e-06
3.17019e-06
0.000903555
-3.21563e-06
3.37674e-06
0.000903546
-3.3312e-06
3.30147e-06
0.000903838
-3.56416e-06
3.54281e-06
0.000903731
-3.51281e-06
3.69915e-06
0.000903825
-3.6762e-06
3.66981e-06
0.000903919
-3.85329e-06
3.75365e-06
0.000904114
-4.14345e-06
4.75021e-06
0.000904109
-5.54565e-06
6.3582e-06
0.000905205
-5.20916e-06
4.36714e-06
0.000904881
-3.60277e-06
4.07528e-06
0.000904618
-5.33467e-06
-3.68782e-07
0.000909296
-6.94916e-07
1.27404e-06
0.000908645
-1.16976e-06
8.30623e-07
0.000909454
-5.2965e-07
-1.61761e-08
0.000909663
5.81195e-07
-8.61911e-07
0.000909397
1.22496e-06
-1.33516e-06
0.000909228
1.36974e-06
-1.41242e-06
0.000909171
1.41966e-06
-1.3959e-06
0.000909095
1.38648e-06
-1.36706e-06
0.0009091
1.31193e-06
-1.29771e-06
0.000909115
1.29734e-06
-1.28888e-06
0.000909121
1.29401e-06
-1.29195e-06
0.000909127
1.30292e-06
-1.30769e-06
0.000909133
1.32508e-06
-1.4372e-06
0.00090924
1.76132e-06
-1.18145e-06
0.000909947
7.1334e-07
-5.42025e-07
0.000910355
4.81584e-07
-4.19093e-07
0.000910363
4.67214e-07
-5.14655e-07
0.000910271
5.72625e-07
-6.31614e-07
0.000910282
7.01564e-07
-6.74619e-07
0.000910095
7.59615e-07
-8.50534e-07
0.000910112
9.55379e-07
-1.07002e-06
0.000910034
1.20205e-06
-1.34964e-06
0.000909966
1.52066e-06
-1.7162e-06
0.000910013
1.94546e-06
-2.31396e-06
0.000910085
2.53438e-06
-2.91918e-06
0.0009101
3.3878e-06
-4.06326e-06
0.00091029
4.67335e-06
-5.54394e-06
0.000910484
6.56687e-06
-7.67872e-06
0.000910625
8.70729e-06
-6.60339e-06
0.000907406
-4.1227e-06
-2.68661e-05
0.000940496
-0.000827641
0.000143788
0.000703672
-1.9876e-05
-0.000972502
-0.000148761
0.000116955
0.00100424
-0.000924985
-9.03282e-05
7.09499e-05
0.000944294
-0.000911515
-5.68924e-05
4.64662e-05
0.000921874
-0.000907112
-3.85598e-05
3.25619e-05
0.000913044
-0.000905392
-2.79213e-05
2.42173e-05
0.000909032
-0.000904445
-2.07618e-05
1.86247e-05
0.00090652
-0.000903914
-1.64334e-05
1.46449e-05
0.000905643
-0.000903787
-1.30447e-05
1.18333e-05
0.000904942
-0.000903671
-1.08199e-05
9.82996e-06
0.000904607
-0.00090372
-8.88332e-06
8.32268e-06
0.00090423
-0.000903608
-7.56955e-06
6.97931e-06
0.000904151
-0.000903523
-6.57352e-06
6.01685e-06
0.000904036
-0.000903754
-5.52716e-06
5.27908e-06
0.000903963
-0.000903696
-4.98571e-06
4.63014e-06
0.000904018
-0.000903647
-4.61878e-06
4.34431e-06
0.000903893
-0.000903803
-4.10558e-06
4.00515e-06
0.000903883
-0.000903764
-4.03181e-06
3.89938e-06
0.000903884
-0.000903828
-3.88651e-06
3.8185e-06
0.000903894
-0.000903896
-3.96117e-06
4.05324e-06
0.000903812
-0.000904167
-3.8477e-06
3.99657e-06
0.000904038
-0.000903942
-4.3378e-06
3.73862e-06
0.000904572
-0.000906999
-3.9024e-06
6.86018e-06
0.000904086
-0.000903343
-5.73938e-06
2.80435e-07
0.000908861
-0.00090787
-1.48066e-06
1.63329e-06
0.000907789
-0.000908344
-1.58333e-06
1.67994e-06
0.000908332
-0.000909632
-1.70234e-06
2.09395e-06
0.000909339
-0.000910133
-2.23568e-06
1.97151e-06
0.000910508
-0.00090957
-1.61492e-06
1.81939e-06
0.000909488
-0.000909385
-2.02299e-06
1.71056e-06
0.000909831
-0.000909178
-1.54939e-06
1.65203e-06
0.000909218
-0.000909056
-1.73646e-06
1.92478e-06
0.000909018
-0.000909078
-1.98769e-06
2.13454e-06
0.000909089
-0.000909133
-2.19918e-06
2.29742e-06
0.000909199
-0.000909171
-2.15868e-06
2.30317e-06
0.000909196
-0.000909212
-2.20642e-06
2.19214e-06
0.000909399
-0.000909254
-2.03416e-06
1.95749e-06
0.000909507
-0.000909698
-1.63498e-06
1.39217e-06
0.000910118
-0.000909944
-6.02733e-07
2.89767e-07
0.000910435
-0.000910293
-2.2794e-07
1.38954e-07
0.00091056
-0.000910545
3.2643e-11
-1.71351e-07
0.000910893
-0.000910603
5.95293e-07
-9.59129e-07
0.000911141
-0.00091057
1.47961e-06
-1.95064e-06
0.000911212
-0.000910552
2.58595e-06
-3.28726e-06
0.000911421
-0.000910556
4.06502e-06
-4.93093e-06
0.000911586
-0.000910596
5.89379e-06
-7.07763e-06
0.000911938
-0.00091079
8.29137e-06
-9.67551e-06
0.000912328
-0.000910974
1.12445e-05
-1.3162e-05
0.00091304
-0.000911407
1.52564e-05
-1.77269e-05
0.000914022
-0.000912001
2.06346e-05
-2.42413e-05
0.000915746
-0.000913164
2.85767e-05
-3.38207e-05
0.000918542
-0.000915187
4.04654e-05
-4.87471e-05
0.000923597
-0.000918949
5.9821e-05
-7.41261e-05
0.000933374
-0.000924703
9.38299e-05
-0.000124169
0.000955141
-0.000978568
0.000165368
-0.000143427
0.000956692
-0.000599524
8.48958e-05
0.000518739
-4.17701e-06
-0.00102173
-0.000134353
0.000131739
0.00102427
-0.000962558
-0.000111989
9.37605e-05
0.000980719
-0.000932985
-7.97549e-05
6.84721e-05
0.0009442
-0.000920201
-5.93023e-05
5.16095e-05
0.000927827
-0.000913929
-4.50614e-05
3.96712e-05
0.000919253
-0.000910349
-3.50217e-05
3.10066e-05
0.000914298
-0.000907827
-2.75737e-05
2.3965e-05
0.000911371
-0.000906802
-2.14741e-05
1.92785e-05
0.000908936
-0.000905933
-1.71817e-05
1.52936e-05
0.00090776
-0.000905442
-1.36326e-05
1.21239e-05
0.000906892
-0.000904925
-1.09926e-05
9.67641e-06
0.000906186
-0.000904823
-8.50258e-06
7.72226e-06
0.000905551
-0.000904496
-6.65846e-06
5.87325e-06
0.000905232
-0.00090432
-5.28799e-06
4.67255e-06
0.000904893
-0.000904281
-4.04238e-06
3.67839e-06
0.000904607
-0.000903966
-3.28899e-06
2.96488e-06
0.00090426
-0.000903971
-2.60475e-06
2.41114e-06
0.000904142
-0.000903892
-2.27265e-06
2.30353e-06
0.000903848
-0.000903926
-1.97921e-06
2.02771e-06
0.000903875
-0.000903675
-2.31155e-06
1.77237e-06
0.000904223
-0.000904737
-1.45827e-06
2.62299e-06
0.000903593
-0.000906031
-5.74532e-07
-9.86013e-07
0.000907626
-0.000907919
4.69835e-07
-3.62245e-08
0.000907533
-0.000907804
-5.499e-07
6.60192e-07
0.000907755
-0.000908088
-7.48026e-07
8.30693e-07
0.00090808
-0.00090867
-1.18349e-06
1.7078e-06
0.000908234
-0.000910721
-2.23888e-06
2.18573e-06
0.000910874
-0.000909295
-2.04427e-06
2.3642e-06
0.000909087
-0.000910001
-2.72269e-06
3.02324e-06
0.000909822
-0.000909051
-2.99867e-06
3.22085e-06
0.000908961
-0.000908817
-3.49342e-06
3.849e-06
0.000908602
-0.000908944
-4.06385e-06
4.33822e-06
0.000908818
-0.000909039
-4.51155e-06
4.59107e-06
0.000909114
-0.00090932
-4.7119e-06
4.78621e-06
0.000909405
-0.000909512
-4.69549e-06
4.65559e-06
0.000909715
-0.000909713
-4.4464e-06
4.18572e-06
0.00091014
-0.000910924
-3.35246e-06
2.06502e-06
0.000912379
-0.000910745
-1.99967e-06
1.9759e-06
0.000910938
-0.000910881
-1.47333e-06
1.00673e-06
0.000911516
-0.000911334
-4.57803e-07
-1.63429e-07
0.000912122
-0.000911715
8.72664e-07
-1.66548e-06
0.000912673
-0.000912041
2.65516e-06
-3.64431e-06
0.000913192
-0.000912434
4.84452e-06
-6.06751e-06
0.000913816
-0.000912931
7.62391e-06
-9.1362e-06
0.000914599
-0.000913487
1.09155e-05
-1.29007e-05
0.000915623
-0.00091439
1.51053e-05
-1.75887e-05
0.00091702
-0.00091559
2.0474e-05
-2.35463e-05
0.000918804
-0.000917541
2.72516e-05
-3.13135e-05
0.00092174
-0.000920509
3.62147e-05
-4.18441e-05
0.00092627
-0.000925578
4.8546e-05
-5.64084e-05
0.000933566
-0.000934291
6.57761e-05
-7.70933e-05
0.000945728
-0.000950333
9.09238e-05
-0.000108022
0.000967542
-0.000985909
0.000130142
-0.000154684
0.00101054
-0.000907069
0.000157544
-9.16426e-05
0.000841236
-0.0004581
4.89597e-05
0.000411882
-2.81533e-06
-0.00101355
-0.000100719
0.000120348
0.000993844
-0.000997208
-0.000114526
0.000101046
0.00101062
-0.000955233
-8.83174e-05
7.77508e-05
0.000965732
-0.000935737
-6.87388e-05
6.10085e-05
0.000943399
-0.000925038
-5.42849e-05
4.83396e-05
0.000930914
-0.00091868
-4.31198e-05
3.84585e-05
0.000923272
-0.000914647
-3.43415e-05
3.06344e-05
0.000918286
-0.000911981
-2.74467e-05
2.44627e-05
0.000914897
-0.000909753
-2.17044e-05
1.87739e-05
0.000912617
-0.000908567
-1.68119e-05
1.47262e-05
0.000910587
-0.000907629
-1.27532e-05
1.12253e-05
0.000909093
-0.000906723
-9.67577e-06
8.24497e-06
0.000908094
-0.000906076
-6.96807e-06
5.7943e-06
0.000907192
-0.000905737
-4.65609e-06
3.81239e-06
0.000906528
-0.00090507
-3.09003e-06
2.35681e-06
0.000905756
-0.000904757
-1.63339e-06
9.98138e-07
0.000905352
-0.000904382
-6.62731e-07
3.16736e-07
0.000904696
-0.000904139
3.85322e-08
-3.00992e-07
0.000904379
-0.000903724
1.8247e-07
-8.67986e-07
0.000904397
-0.000904435
1.17948e-06
-1.93505e-07
0.000903449
-0.00090569
2.36055e-06
-3.99319e-06
0.000907334
-0.000907063
3.50399e-06
-3.31864e-06
0.000906902
-0.000906978
2.76333e-06
-2.24872e-06
0.000906501
-0.000907162
1.83421e-06
-1.00084e-06
0.00090638
-0.000908367
3.27092e-07
-2.31283e-07
0.000908334
-0.000907397
-4.51621e-07
1.21856e-06
0.000906707
-0.000910653
-1.79298e-06
2.20606e-06
0.000910328
-0.000908602
-2.35544e-06
2.97212e-06
0.000908086
-0.000908857
-3.71805e-06
4.56967e-06
0.000908117
-0.000909051
-4.52461e-06
4.87377e-06
0.000908823
-0.000908212
-5.34199e-06
5.8966e-06
0.000907787
-0.000908526
-6.30598e-06
6.74463e-06
0.000908225
-0.000908956
-6.93461e-06
7.31738e-06
0.000908717
-0.000909383
-7.42123e-06
7.5434e-06
0.00090941
-0.000909839
-7.47871e-06
7.52834e-06
0.000909942
-0.000910418
-7.18567e-06
6.75432e-06
0.000911005
-0.000913516
-5.72697e-06
5.30748e-06
0.000914093
-0.000911443
-4.68826e-06
4.07295e-06
0.000912216
-0.000912196
-3.35538e-06
2.63601e-06
0.000913073
-0.00091289
-1.71068e-06
6.75077e-07
0.000914082
-0.000913746
4.72396e-07
-1.54093e-06
0.000914969
-0.000914496
2.93179e-06
-4.36134e-06
0.000916077
-0.000915492
6.12882e-06
-7.75824e-06
0.000917269
-0.000916604
9.84974e-06
-1.19385e-05
0.000918837
-0.000917944
1.43226e-05
-1.69546e-05
0.000920716
-0.000919784
1.98324e-05
-2.30264e-05
0.000923114
-0.000922501
2.65408e-05
-3.04679e-05
0.000926559
-0.00092645
3.48216e-05
-3.97233e-05
0.000931478
-0.000932412
4.53053e-05
-5.14191e-05
0.000938647
-0.000941663
5.85325e-05
-6.65427e-05
0.000949789
-0.000956925
7.57501e-05
-8.60347e-05
0.000967319
-0.000983387
9.75249e-05
-0.000111672
0.000997636
-0.00102551
0.00012654
-0.000130712
0.00102976
-0.00077225
0.000102275
-3.93568e-05
0.000709403
-0.000376066
2.9646e-05
0.000347993
-1.65639e-06
-0.000969004
-7.18198e-05
9.93662e-05
0.000941379
-0.00102096
-0.000104904
9.81014e-05
0.0010277
-0.000975545
-8.83142e-05
7.88621e-05
0.000984928
-0.000950765
-7.07369e-05
6.36061e-05
0.000957825
-0.000936861
-5.72209e-05
5.14944e-05
0.000942516
-0.000927984
-4.63187e-05
4.15634e-05
0.000932668
-0.000922123
-3.72526e-05
3.33762e-05
0.000925927
-0.000917947
-2.97636e-05
2.64163e-05
0.000921222
-0.000915018
-2.34759e-05
2.07496e-05
0.000917673
-0.000912847
-1.82811e-05
1.58876e-05
0.00091517
-0.000911085
-1.33119e-05
1.11883e-05
0.000913139
-0.00090967
-9.46246e-06
7.76518e-06
0.0009113
-0.000908693
-5.94012e-06
4.63555e-06
0.000909934
-0.000907375
-3.3904e-06
2.05529e-06
0.000908652
-0.000906572
-9.67619e-07
-1.11514e-07
0.000907598
-0.000905947
9.51656e-07
-1.4802e-06
0.00090643
-0.000905278
2.38025e-06
-2.76474e-06
0.000905625
-0.000904252
2.92585e-06
-4.06869e-06
0.000905367
-0.000904763
4.49171e-06
-3.59211e-06
0.000903846
-0.000905638
6.00872e-06
-7.9391e-06
0.000907563
-0.000906726
7.41748e-06
-7.35715e-06
0.000906672
-0.000906367
6.8158e-06
-6.16665e-06
0.000905738
-0.000905959
5.63978e-06
-4.81577e-06
0.000905168
-0.000905615
3.99325e-06
-3.16338e-06
0.000904831
-0.000907603
2.33926e-06
-1.57577e-06
0.000906899
-0.000905873
5.39484e-07
5.67627e-07
0.000904839
-0.000909831
-1.45454e-06
2.13103e-06
0.00090924
-0.00090739
-2.77535e-06
3.58223e-06
0.000906681
-0.000907384
-4.55988e-06
5.49143e-06
0.000906561
-0.000908285
-6.03325e-06
6.7788e-06
0.000907659
-0.000907171
-7.53214e-06
8.33799e-06
0.000906492
-0.000907755
-8.97385e-06
9.59979e-06
0.000907264
-0.000908436
-1.00693e-05
1.04907e-05
0.000908155
-0.000909224
-1.07031e-05
1.08999e-05
0.000909173
-0.000910062
-1.08798e-05
1.08408e-05
0.00091025
-0.000912338
-1.03803e-05
9.29629e-06
0.000913574
-0.000913651
-8.39067e-06
8.357e-06
0.000913838
-0.000912798
-7.6967e-06
7.00992e-06
0.000913638
-0.000913988
-5.99608e-06
5.05281e-06
0.000915084
-0.000915138
-3.88085e-06
2.57175e-06
0.000916598
-0.000916483
-1.13198e-06
-3.5443e-07
0.000918119
-0.000917773
2.07839e-06
-3.96403e-06
0.000919805
-0.000919385
5.99806e-06
-8.11319e-06
0.000921642
-0.000921224
1.05967e-05
-1.30885e-05
0.000923853
-0.00092355
1.58743e-05
-1.88065e-05
0.000926616
-0.0009265
2.20711e-05
-2.57384e-05
0.000930296
-0.000930746
2.95839e-05
-3.36908e-05
0.000934977
-0.000936454
3.82484e-05
-4.32533e-05
0.000941578
-0.000944878
4.87929e-05
-5.47852e-05
0.000950984
-0.00095751
6.0907e-05
-6.72025e-05
0.000963913
-0.000976427
7.50852e-05
-8.37528e-05
0.000985197
-0.00100985
9.35936e-05
-0.000103554
0.0010199
-0.00102508
0.000108781
-9.77088e-05
0.00101409
-0.000655622
6.22054e-05
-1.75794e-05
0.00061107
-0.000325617
1.91105e-05
0.00030746
-1.04612e-06
-0.00091319
-5.1266e-05
7.87377e-05
0.000885631
-0.00103125
-9.10069e-05
9.02626e-05
0.00103192
-0.000993139
-8.37552e-05
7.61914e-05
0.00100063
-0.000964646
-6.92298e-05
6.29299e-05
0.000970873
-0.000948519
-5.72178e-05
5.22199e-05
0.000953442
-0.000937312
-4.68992e-05
4.18786e-05
0.000942257
-0.000929891
-3.71003e-05
3.30877e-05
0.000933828
-0.000924514
-2.93741e-05
2.58676e-05
0.000927944
-0.000920584
-2.27274e-05
1.97636e-05
0.000923471
-0.000917563
-1.70357e-05
1.4462e-05
0.000920062
-0.00091527
-1.22033e-05
9.98071e-06
0.000917418
-0.000913306
-8.15707e-06
6.05561e-06
0.000915336
-0.000911437
-4.03627e-06
2.24146e-06
0.000913164
-0.000910074
-6.2007e-07
-8.8004e-07
0.000911511
-0.000908647
2.21373e-06
-3.32155e-06
0.000909698
-0.000907512
4.56933e-06
-5.48454e-06
0.000908378
-0.000905937
5.94036e-06
-7.46102e-06
0.000907416
-0.000905907
8.31766e-06
-7.62556e-06
0.000905183
-0.000906449
1.06247e-05
-1.2676e-05
0.000908479
-0.00090698
1.22431e-05
-1.2437e-05
0.000907165
-0.000906024
1.18937e-05
-1.14859e-05
0.000905619
-0.000905258
1.09644e-05
-1.00529e-05
0.000904363
-0.000904245
9.13541e-06
-8.15016e-06
0.000903289
-0.000903771
7.03278e-06
-5.9266e-06
0.000902709
-0.000905909
5.08585e-06
-3.59807e-06
0.000904479
-0.000903538
2.12883e-06
-5.82245e-07
0.000902064
-0.000908408
-7.93837e-07
1.99815e-06
0.00090729
-0.000905538
-3.03858e-06
4.48665e-06
0.000904189
-0.000905486
-5.79805e-06
7.35044e-06
0.000904044
-0.000906835
-8.76284e-06
9.40318e-06
0.000906316
-0.000905593
-1.03179e-05
1.14233e-05
0.000904617
-0.000906571
-1.23443e-05
1.32335e-05
0.00090582
-0.000907816
-1.38073e-05
1.45059e-05
0.000907261
-0.000908997
-1.48569e-05
1.52561e-05
0.000908746
-0.00091045
-1.5201e-05
1.48913e-05
0.000910911
-0.000915249
-1.35262e-05
1.23083e-05
0.000916621
-0.000913903
-1.27218e-05
1.258e-05
0.000914199
-0.000914685
-1.16858e-05
1.08381e-05
0.000915686
-0.000916312
-9.74056e-06
8.48881e-06
0.000917715
-0.00091801
-6.99055e-06
5.53687e-06
0.000919613
-0.000919824
-3.83907e-06
2.08076e-06
0.000921728
-0.000921817
2.44325e-08
-2.09725e-06
0.000924033
-0.000923987
4.41966e-06
-6.92626e-06
0.000926632
-0.00092667
9.58974e-06
-1.23545e-05
0.000929568
-0.000929855
1.54937e-05
-1.86576e-05
0.000933147
-0.000933924
2.22179e-05
-2.58326e-05
0.000937662
-0.000939182
2.97661e-05
-3.39991e-05
0.000943533
-0.000946471
3.8479e-05
-4.25962e-05
0.000950701
-0.000955787
4.68985e-05
-5.22829e-05
0.000961279
-0.00097069
5.82136e-05
-6.44958e-05
0.000977074
-0.000993246
7.11943e-05
-7.84969e-05
0.00100064
-0.00102764
8.60454e-05
-9.15724e-05
0.00103326
-0.000999008
8.93673e-05
-7.18225e-05
0.000981541
-0.000574595
4.00413e-05
-1.00318e-05
0.000544661
-0.000292433
1.3226e-05
0.000279822
-7.13062e-07
-0.000859292
-3.75375e-05
6.20472e-05
0.00083469
-0.00103022
-7.69778e-05
8.04605e-05
0.00102666
-0.00100744
-7.7087e-05
7.11684e-05
0.00101328
-0.000976695
-6.50894e-05
5.92906e-05
0.000982417
-0.000958498
-5.41814e-05
4.92651e-05
0.000963337
-0.000946603
-4.46665e-05
4.0376e-05
0.000950815
-0.000938291
-3.63469e-05
3.2485e-05
0.000942073
-0.000932265
-2.88599e-05
2.559e-05
0.000935455
-0.000926564
-2.15084e-05
1.75659e-05
0.000930426
-0.00092269
-1.34223e-05
1.06408e-05
0.000925392
-0.000919509
-8.05493e-06
5.58914e-06
0.000921897
-0.00091701
-3.41295e-06
1.35357e-06
0.000918994
-0.000915042
3.21854e-07
-1.7774e-06
0.000916426
-0.000912988
2.9534e-06
-4.61173e-06
0.00091458
-0.000911276
6.59649e-06
-8.14076e-06
0.000912759
-0.000909041
9.19914e-06
-1.12156e-05
0.000911003
-0.000908456
1.25353e-05
-1.21818e-05
0.000908056
-0.000908442
1.5712e-05
-1.72343e-05
0.000909928
-0.000908658
1.75467e-05
-1.84448e-05
0.000909531
-0.000906685
1.83474e-05
-1.81507e-05
0.000906475
-0.000905013
1.77799e-05
-1.70893e-05
0.000904321
-0.00090334
1.60333e-05
-1.51168e-05
0.000902437
-0.000902065
1.38917e-05
-1.24731e-05
0.000900673
-0.000901877
1.0948e-05
-9.48964e-06
0.000900461
-0.000902095
8.40314e-06
-6.16961e-06
0.00089992
-0.000900182
4.0382e-06
-1.90544e-06
0.000898123
-0.000905851
-5.81921e-08
1.8402e-06
0.000904157
-0.000902556
-3.55583e-06
5.59213e-06
0.000900623
-0.00090166
-7.56506e-06
9.6945e-06
0.000899646
-0.000906565
-1.18709e-05
1.27344e-05
0.000905827
-0.000903505
-1.39734e-05
1.54702e-05
0.000902144
-0.000904845
-1.6754e-05
1.79602e-05
0.000903783
-0.000906624
-1.88897e-05
1.97093e-05
0.000905953
-0.000908557
-2.02309e-05
2.06547e-05
0.000908286
-0.000911976
-2.07745e-05
2.03021e-05
0.000912604
-0.000916344
-1.90346e-05
1.91638e-05
0.000916372
-0.000914772
-1.86965e-05
1.80426e-05
0.000915582
-0.000916695
-1.7004e-05
1.5887e-05
0.000917966
-0.000919049
-1.45971e-05
1.31338e-05
0.000920664
-0.000921364
-1.15095e-05
9.71554e-06
0.000923307
-0.000923793
-7.77049e-06
5.65691e-06
0.000926051
-0.000926311
-3.40032e-06
9.72044e-07
0.000928879
-0.000929233
1.59539e-06
-4.23645e-06
0.000932009
-0.00093251
7.11739e-06
-1.01843e-05
0.000935706
-0.000936457
1.33917e-05
-1.67982e-05
0.000939987
-0.000941373
2.035e-05
-2.41168e-05
0.000945258
-0.000947388
2.69129e-05
-3.03505e-05
0.000950938
-0.000955151
3.48731e-05
-3.93365e-05
0.000959721
-0.000966694
4.41868e-05
-4.90004e-05
0.000971609
-0.000982915
5.4443e-05
-5.99042e-05
0.000988471
-0.00100738
6.58556e-05
-7.18426e-05
0.00101345
-0.00103675
7.72795e-05
-7.9099e-05
0.00103865
-0.000963137
7.25518e-05
-5.39201e-05
0.000944582
-0.000519744
2.78221e-05
-6.79315e-06
0.000498789
-0.000269149
9.6495e-06
0.000259902
-5.0894e-07
-0.000811955
-2.81994e-05
4.91451e-05
0.00079091
-0.00102163
-6.43035e-05
7.03006e-05
0.00101556
-0.00101846
-6.92693e-05
6.49407e-05
0.00102271
-0.000987802
-5.96938e-05
5.43816e-05
0.000993036
-0.00096804
-4.95297e-05
4.49111e-05
0.000972579
-0.000955065
-4.05515e-05
3.63306e-05
0.000959205
-0.000945746
-3.24182e-05
2.85093e-05
0.000949572
-0.000938795
-2.49955e-05
2.13713e-05
0.000942336
-0.000933453
-1.82372e-05
1.49899e-05
0.000936617
-0.000929351
-1.21237e-05
9.35108e-06
0.000932042
-0.00092586
-6.74965e-06
4.14176e-06
0.000928387
-0.000921127
-5.8103e-07
-3.07845e-06
0.000924708
-0.000918162
6.55928e-06
-1.00254e-05
0.000921553
-0.000915607
1.28983e-05
-1.47261e-05
0.000917364
-0.00091357
1.60604e-05
-1.66443e-05
0.000914088
-0.000913483
1.59165e-05
-1.3538e-05
0.000911045
-0.00091193
2.12574e-05
-2.34091e-05
0.00091403
-0.000910443
2.42418e-05
-2.51391e-05
0.000911298
-0.00090939
2.48914e-05
-2.47149e-05
0.000909182
-0.000906411
2.54831e-05
-2.55881e-05
0.000906496
-0.000903506
2.50581e-05
-2.42637e-05
0.000902705
-0.000901181
2.31313e-05
-2.16822e-05
0.00089974
-0.000899016
2.00477e-05
-1.81658e-05
0.000897157
-0.000898607
1.6134e-05
-1.39067e-05
0.00089642
-0.000897728
1.17871e-05
-9.21722e-06
0.000895215
-0.000895685
6.50498e-06
-3.64049e-06
0.000892895
-0.000902047
8.97009e-07
1.68148e-06
0.00089956
-0.000898261
-4.17123e-06
7.00609e-06
0.000895534
-0.000897329
-9.78344e-06
1.25317e-05
0.000894702
-0.00090425
-1.49033e-05
1.67776e-05
0.000902508
-0.000900433
-1.88188e-05
2.08692e-05
0.000898526
-0.000902457
-2.25982e-05
2.42068e-05
0.000901
-0.00090508
-2.54479e-05
2.66284e-05
0.000904055
-0.000907869
-2.72399e-05
2.75991e-05
0.000907669
-0.000913831
-2.6505e-05
2.44753e-05
0.000916022
-0.000915962
-2.55602e-05
2.63002e-05
0.000915383
-0.000916387
-2.58114e-05
2.49054e-05
0.000917451
-0.000919261
-2.36831e-05
2.23556e-05
0.000920744
-0.000922223
-2.08389e-05
1.923e-05
0.000923983
-0.000925104
-1.73514e-05
1.51908e-05
0.000927411
-0.000928167
-1.30818e-05
1.07001e-05
0.00093069
-0.000931404
-8.08156e-06
5.50262e-06
0.000934119
-0.000934936
-2.59487e-06
-2.70805e-07
0.000937932
-0.000938829
3.45548e-06
-6.59742e-06
0.000942095
-0.000943516
9.74178e-06
-1.2021e-05
0.000945913
-0.00094797
1.54335e-05
-1.91189e-05
0.000951768
-0.000955001
2.3006e-05
-2.70754e-05
0.000959177
-0.000964233
3.12434e-05
-3.54943e-05
0.000968585
-0.000976501
4.00673e-05
-4.47409e-05
0.000981269
-0.000993821
4.96586e-05
-5.48393e-05
0.000999091
-0.00101907
6.07224e-05
-6.59037e-05
0.00102434
-0.00103914
6.94676e-05
-6.92003e-05
0.00103896
-0.00092638
6.13118e-05
-4.38449e-05
0.000908987
-0.000480634
2.22383e-05
-5.91217e-06
0.00046438
-0.000251995
7.22122e-06
0.000245034
-3.7322e-07
-0.000771789
-2.16072e-05
3.89778e-05
0.000754312
-0.00100839
-5.32555e-05
6.06608e-05
0.0010009
-0.00102626
-6.17442e-05
5.87132e-05
0.00102921
-0.000997981
-5.42514e-05
4.93458e-05
0.00100281
-0.000977475
-4.47438e-05
4.06344e-05
0.000981504
-0.000963311
-3.62e-05
3.19711e-05
0.000967458
-0.000953307
-2.77971e-05
2.36899e-05
0.00095733
-0.000945829
-1.94116e-05
1.58263e-05
0.00094933
-0.000939771
-1.23824e-05
8.99633e-06
0.000943072
-0.000934854
-5.85797e-06
2.78196e-06
0.000937845
-0.000930854
4.48452e-08
-2.80323e-06
0.000933529
-0.000927639
5.20316e-06
-7.31669e-06
0.000929671
-0.000923797
1.01943e-05
-1.32803e-05
0.000926804
-0.000920324
1.50618e-05
-1.73368e-05
0.000922523
-0.000918228
2.07445e-05
-2.21617e-05
0.000919573
-0.000912678
2.21885e-05
-3.18822e-05
0.000922305
-0.000914454
3.22111e-05
-3.37813e-05
0.000915965
-0.000911614
3.42777e-05
-3.47401e-05
0.000912026
-0.000909101
3.49226e-05
-3.44226e-05
0.00090856
-0.000906629
3.3423e-05
-3.40601e-05
0.000907237
-0.000901571
3.43715e-05
-3.36464e-05
0.00090083
-0.000898131
3.22027e-05
-3.03705e-05
0.000896299
-0.000895006
2.82705e-05
-2.57641e-05
0.000892516
-0.000893869
2.30432e-05
-2.00435e-05
0.000890905
-0.000892259
1.70505e-05
-1.35679e-05
0.000888831
-0.000889568
9.87384e-06
-5.94777e-06
0.000885717
-0.000896519
2.10925e-06
1.54926e-06
0.000892955
-0.000892248
-5.13071e-06
9.03145e-06
0.000888461
-0.000891536
-1.28573e-05
1.66299e-05
0.000887891
-0.000900184
-1.99561e-05
2.29655e-05
0.000897317
-0.000896218
-2.54974e-05
2.81752e-05
0.000893692
-0.000899244
-3.04863e-05
3.25571e-05
0.000897333
-0.000902914
-3.41589e-05
3.55225e-05
0.000901715
-0.000907622
-3.61298e-05
3.51247e-05
0.000908794
-0.000917137
-3.31957e-05
3.47939e-05
0.000915706
-0.000915084
-3.59611e-05
3.56566e-05
0.000915553
-0.00091844
-3.47737e-05
3.35312e-05
0.000919843
-0.000922179
-3.21461e-05
3.05331e-05
0.000923947
-0.000926019
-2.87105e-05
2.67864e-05
0.000928093
-0.000929599
-2.44826e-05
2.21003e-05
0.000932124
-0.000933193
-1.95686e-05
1.68728e-05
0.000936025
-0.000937012
-1.40571e-05
1.10862e-05
0.000940114
-0.00094109
-8.01557e-06
5.42722e-06
0.000943803
-0.000944566
-3.06928e-06
-1.59152e-07
0.000947913
-0.000949553
3.76982e-06
-7.30887e-06
0.000953204
-0.00095564
1.11175e-05
-1.49581e-05
0.000959587
-0.00096328
1.91713e-05
-2.37499e-05
0.000967958
-0.000973037
2.81661e-05
-3.31783e-05
0.000978144
-0.000985994
3.88154e-05
-4.3756e-05
0.000991024
-0.00100473
4.82133e-05
-5.19556e-05
0.00100855
-0.00102946
5.50159e-05
-5.83051e-05
0.00103283
-0.00103605
6.00486e-05
-5.70425e-05
0.00103311
-0.0008916
4.70271e-05
-3.13723e-05
0.000876016
-0.000450991
1.47798e-05
-3.27263e-06
0.000439552
-0.000239044
5.4969e-06
0.000233712
-2.7865e-07
-0.000738366
-1.67769e-05
3.10271e-05
0.000724007
-0.000993037
-4.39925e-05
5.18961e-05
0.000985052
-0.00103158
-5.41101e-05
5.23539e-05
0.00103326
-0.00100748
-4.86161e-05
4.41851e-05
0.00101183
-0.000985826
-3.99815e-05
3.55348e-05
0.000990191
-0.000971503
-3.12669e-05
2.69548e-05
0.000975732
-0.000961186
-2.27721e-05
1.82981e-05
0.000965576
-0.000953232
-1.45775e-05
1.08775e-05
0.000956847
-0.000946909
-7.28465e-06
3.81974e-06
0.000950287
-0.000941712
-4.65473e-07
-2.75671e-06
0.000944848
-0.000936371
6.69615e-06
-1.05925e-05
0.000940181
-0.000932096
1.45643e-05
-1.88907e-05
0.000936338
-0.000928374
2.19282e-05
-2.43703e-05
0.000930733
-0.000926377
2.61353e-05
-2.62597e-05
0.00092642
-0.00091985
2.68441e-05
-3.76392e-05
0.000930567
-0.000921952
3.76529e-05
-4.03381e-05
0.000924564
-0.000918094
4.25322e-05
-4.39838e-05
0.000919477
-0.000912987
4.54582e-05
-4.67566e-05
0.000914224
-0.000908184
4.78047e-05
-4.83088e-05
0.000908635
-0.000906043
4.78274e-05
-4.66369e-05
0.000904811
-0.000900357
4.63574e-05
-4.60113e-05
0.000899982
-0.000894309
4.44281e-05
-4.20262e-05
0.000891895
-0.000889689
3.92758e-05
-3.60359e-05
0.000886455
-0.000887454
3.24264e-05
-2.83951e-05
0.00088345
-0.000884785
2.42038e-05
-1.95235e-05
0.000880153
-0.000881139
1.44365e-05
-9.0646e-06
0.00087584
-0.000888615
3.71254e-06
1.49625e-06
0.000883503
-0.000883901
-6.61233e-06
1.20505e-05
0.000878583
-0.000883579
-1.73058e-05
2.24032e-05
0.000878618
-0.000893808
-2.6909e-05
3.11487e-05
0.000889721
-0.000891021
-3.49835e-05
3.85299e-05
0.000887638
-0.000895062
-4.12491e-05
4.38602e-05
0.000892621
-0.00090049
-4.58471e-05
4.71827e-05
0.000899329
-0.00091023
-4.66656e-05
4.53342e-05
0.000911737
-0.000913775
-4.69681e-05
4.8184e-05
0.000912731
-0.000916266
-4.79294e-05
4.7146e-05
0.000917216
-0.000921131
-4.58239e-05
4.44084e-05
0.000922706
-0.000925833
-4.25241e-05
4.04868e-05
0.000928023
-0.000930399
-3.81356e-05
3.57734e-05
0.000932906
-0.000934682
-3.30395e-05
3.03329e-05
0.000937527
-0.000938981
-2.72905e-05
2.43015e-05
0.000942101
-0.000943005
-2.18614e-05
1.928e-05
0.00094571
-0.000946596
-1.57885e-05
1.2276e-05
0.000950226
-0.000951631
-8.40179e-06
4.09504e-06
0.000956048
-0.0009572
1.45911e-07
-4.82151e-06
0.00096198
-0.000963752
1.02739e-05
-1.46712e-05
0.000968247
-0.000973589
1.77849e-05
-1.98076e-05
0.000975704
-0.000981438
2.30031e-05
-2.67429e-05
0.000985265
-0.000994571
3.03752e-05
-3.44754e-05
0.000998753
-0.00101296
3.88259e-05
-4.3061e-05
0.00101727
-0.0010363
4.72291e-05
-5.03705e-05
0.00103952
-0.00102979
5.10181e-05
-4.71133e-05
0.00102596
-0.000861512
3.76758e-05
-2.42968e-05
0.0008482
-0.000429665
1.10862e-05
-2.3781e-06
0.00042102
-0.000229116
4.22458e-06
0.000224987
-2.08689e-07
-0.000710762
-1.31408e-05
2.49248e-05
0.000698869
-0.000977223
-3.62257e-05
4.39473e-05
0.000969421
-0.0010346
-4.69929e-05
4.61212e-05
0.0010354
-0.00101638
-4.30166e-05
3.91414e-05
0.00102018
-0.000994559
-3.47393e-05
3.04415e-05
0.000998775
-0.000979678
-2.6056e-05
2.17038e-05
0.000983948
-0.000969185
-1.71265e-05
1.31971e-05
0.00097303
-0.000960998
-9.34554e-06
5.58621e-06
0.000964671
-0.000954548
-1.79404e-06
-1.80101e-06
0.000958056
-0.000948258
5.4257e-06
-9.69017e-06
0.000952435
-0.000943256
1.39716e-05
-1.85599e-05
0.000947756
-0.000938845
2.33588e-05
-2.69785e-05
0.000942377
-0.000935122
2.99582e-05
-3.22716e-05
0.000937347
-0.000931465
3.28942e-05
-3.41019e-05
0.000932586
-0.000931448
4.67727e-05
-4.91323e-05
0.000933722
-0.000926741
5.20395e-05
-5.36556e-05
0.000928273
-0.000921859
5.52388e-05
-5.71545e-05
0.000923694
-0.000915479
5.94575e-05
-6.13756e-05
0.000917323
-0.000909255
6.25864e-05
-6.32989e-05
0.000909899
-0.00090358
6.35266e-05
-6.26807e-05
0.000902676
-0.000900217
6.07904e-05
-6.01827e-05
0.000899563
-0.000889592
5.98175e-05
-5.77943e-05
0.00088754
-0.000882687
5.45269e-05
-5.04751e-05
0.000878625
-0.000878504
4.55702e-05
-3.90367e-05
0.000871985
-0.000875241
3.11431e-05
-2.64316e-05
0.00087057
-0.000869548
2.06633e-05
-1.3406e-05
0.000862361
-0.000877307
5.88434e-06
1.5954e-06
0.000869927
-0.000872223
-8.97748e-06
1.65734e-05
0.000864755
-0.000873006
-2.36684e-05
2.92048e-05
0.000867617
-0.000884088
-3.31968e-05
4.12534e-05
0.000876197
-0.000883596
-4.78033e-05
5.26741e-05
0.000878902
-0.000889968
-5.6496e-05
5.94125e-05
0.000887235
-0.000898755
-6.09109e-05
5.9911e-05
0.000899939
-0.000911324
-5.86679e-05
6.19181e-05
0.000908256
-0.00091215
-6.37938e-05
6.38304e-05
0.000912289
-0.000918318
-6.27183e-05
6.1398e-05
0.000919805
-0.000924567
-5.95042e-05
5.73901e-05
0.000926839
-0.000930315
-5.48874e-05
5.23348e-05
0.000933015
-0.000935618
-4.94691e-05
4.64022e-05
0.000938824
-0.00094067
-4.3299e-05
4.06863e-05
0.000943414
-0.000944539
-3.75484e-05
3.36446e-05
0.000948565
-0.00094951
-2.87566e-05
2.37474e-05
0.000954634
-0.0009544
-1.77667e-05
1.33377e-05
0.000958938
-0.000961832
-1.04645e-05
8.88521e-06
0.000963515
-0.00096482
-5.86241e-06
2.24092e-06
0.000968539
-0.000971249
1.13653e-06
-4.90497e-06
0.000975108
-0.000979193
8.85329e-06
-1.28791e-05
0.000983305
-0.000989379
1.69751e-05
-2.1054e-05
0.000993538
-0.00100287
2.52146e-05
-2.93773e-05
0.00100711
-0.00102154
3.35028e-05
-3.76383e-05
0.00102575
-0.00104221
4.1383e-05
-4.38241e-05
0.00104472
-0.00102169
4.35095e-05
-3.91483e-05
0.00101739
-0.000835809
3.02765e-05
-1.88584e-05
0.000824454
-0.000413379
8.36889e-06
-1.66846e-06
0.000406737
-0.000221396
3.22537e-06
0.000218211
-1.54615e-07
-0.000688026
-1.03537e-05