/*--------------------------------*- C++ -*----------------------------------*\
  =========                 |
  \\      /  F ield         | OpenFOAM: The Open Source CFD Toolbox
   \\    /   O peration     | Website:  https://openfoam.org
    \\  /    A nd           | Version:  7
     \\/     M anipulation  |
\*---------------------------------------------------------------------------*/
FoamFile
{
    version     2.0;
    format      ascii;
    class       volVectorField;
    location    "65";
    object      U;
}
// * * * * * * * * * * * * * * * * * * * * * * * * * * * * * * * * * * * * * //

dimensions      [0 1 -1 0 0 0 0];

internalField   nonuniform List<vector> 
17475
(
(1.01828 0.205789 -1.68158e-20)
(0.996 0.0223678 -2.68816e-20)
(0.999792 0.00972977 0)
(0.999947 0.00487182 0)
(0.999984 0.00302824 0)
(0.999995 0.00206602 0)
(0.999999 0.00147842 0)
(1 0.00108166 0)
(1 0.00079523 -5.72352e-20)
(1 0.000578418 0)
(1 0.000408674 0)
(1 0.000272562 0)
(1 0.000161933 0)
(1 7.12546e-05 0)
(1 -2.79089e-06 0)
(1 -6.26957e-05 0)
(1 -0.000109834 0)
(1 -0.00014545 0)
(1 -0.000170197 0)
(1 -0.000184871 0)
(1 -0.000189821 -2.19028e-19)
(1 -0.000185955 3.61867e-22)
(1 -0.000173833 0)
(1 -0.000154416 -6.90046e-21)
(1 -0.000129501 0)
(1 -9.80672e-05 -1.37923e-20)
(1 -6.37802e-05 0)
(1 -2.75021e-05 0)
(0.999999 9.37041e-06 -1.72206e-21)
(0.999999 4.50744e-05 5.49336e-20)
(0.999999 7.81412e-05 5.39922e-20)
(0.999998 0.00010693 0)
(0.999998 0.000130242 0)
(0.999998 0.000146739 -5.401e-20)
(0.999998 0.000155542 -5.38679e-20)
(0.999998 0.000155625 0)
(0.999997 0.000146352 -4.15808e-22)
(0.999997 0.000126904 0)
(0.999997 9.66661e-05 5.26406e-20)
(0.999997 5.44013e-05 2.62399e-20)
(0.999997 -3.25096e-07 -2.61632e-20)
(0.999997 -6.88764e-05 0)
(0.999997 -0.000153318 -2.61683e-20)
(0.999997 -0.000256897 0)
(0.999997 -0.000384429 -1.31914e-20)
(0.999996 -0.000543311 0)
(0.999996 -0.000745006 2.71439e-20)
(0.999995 -0.00100793 0)
(0.999994 -0.00136237 0)
(0.999992 -0.00185994 0)
(0.999989 -0.00259039 0)
(0.999985 -0.00369464 -1.65458e-20)
(0.999949 -0.00538283 3.6741e-20)
(0.998948 -0.00295006 4.04602e-20)
(1.02904 -0.0897361 -3.94799e-20)
(0.871027 0.0788085 2.41315e-20)
(1.10022 0.0972477 0)
(1.03472 0.058481 0)
(1.01495 0.0373877 0)
(1.00777 0.025417 -1.73727e-19)
(1.00462 0.0181394 -1.67943e-19)
(1.00303 0.0133817 1.60908e-19)
(1.00212 0.0100709 0)
(1.00155 0.00764922 0)
(1.00118 0.00581013 0)
(1.00092 0.00437423 0)
(1.00072 0.00323136 0)
(1.00057 0.00231178 0)
(1.00045 0.00156936 0)
(1.00035 0.000974104 0)
(1.00027 0.00050507 0)
(1.00019 0.000148625 0)
(1.00012 -0.000105737 0)
(1.00006 -0.000265068 0)
(1 -0.000336151 0)
(0.999954 -0.000324372 0)
(0.999911 -0.000236947 0)
(0.999874 -8.07045e-05 2.82893e-19)
(0.999842 0.000136952 -7.06748e-20)
(0.999822 0.000405337 -1.40688e-19)
(0.999811 0.000710023 -2.5381e-22)
(0.99981 0.00103982 -1.73009e-20)
(0.999819 0.00137914 0)
(0.999838 0.00171429 -8.49359e-21)
(0.999869 0.00202971 8.40136e-21)
(0.999909 0.00231115 -1.33334e-19)
(0.999958 0.00254467 1.3376e-19)
(1.00001 0.00271852 0)
(1.00008 0.00282208 -2.55658e-19)
(1.00014 0.00284695 1.96913e-21)
(1.00022 0.00278584 2.4885e-19)
(1.00029 0.00263309 0)
(1.00037 0.00238326 1.2098e-19)
(1.00045 0.00203179 0)
(1.00053 0.00157116 -1.19134e-19)
(1.00062 0.000993484 1.18217e-19)
(1.00073 0.000287184 0)
(1.00084 -0.000565753 0)
(1.00099 -0.00159311 0)
(1.00117 -0.0028368 1.28618e-22)
(1.00142 -0.00436116 5.90282e-20)
(1.00175 -0.0062653 -5.98588e-20)
(1.00225 -0.00870631 -3.03918e-20)
(1.003 -0.0119403 0)
(1.0042 -0.0164012 0)
(1.00621 -0.0228632 0)
(1.00974 -0.0327947 -3.43673e-20)
(1.01629 -0.0495056 3.58539e-20)
(1.02838 -0.0727576 2.37781e-21)
(1.07068 -0.178122 2.81032e-21)
(0.609301 0.019656 1.28843e-20)
(1.13892 0.106546 -1.86501e-20)
(1.07818 0.075533 -7.75432e-20)
(1.04074 0.0544131 0)
(1.02428 0.0403161 0)
(1.0157 0.0303424 -1.5667e-19)
(1.0108 0.023054 0)
(1.00781 0.0175875 0)
(1.00586 0.013381 0)
(1.00453 0.0100683 3.02375e-19)
(1.00357 0.00740975 0)
(1.00286 0.00524654 0)
(1.0023 0.00347277 0)
(1.00184 0.00201667 0)
(1.00146 0.00083005 0)
(1.00112 -0.00012022 -2.92059e-19)
(1.00082 -0.000856226 0)
(1.00054 -0.00139392 0)
(1.00029 -0.00174501 0)
(1.00005 -0.00191953 0)
(0.999839 -0.00192699 5.76107e-19)
(0.999645 -0.00177778 0)
(0.999474 -0.00148518 2.13765e-19)
(0.999334 -0.00106298 -1.41551e-19)
(0.999227 -0.00053404 0)
(0.999158 7.93608e-05 -3.49483e-20)
(0.999129 0.000750655 0)
(0.999139 0.00145003 4.30545e-20)
(0.999194 0.0021483 2.56357e-20)
(0.999291 0.00281426 0)
(0.999429 0.00341804 -1.16763e-19)
(0.999602 0.00393172 4.1005e-21)
(0.999807 0.00433148 -2.01944e-21)
(1.00004 0.004596 -1.27913e-19)
(1.00029 0.00470804 1.26027e-19)
(1.00056 0.00465354 0)
(1.00084 0.00442139 2.36441e-19)
(1.00113 0.00400165 -2.40004e-19)
(1.00144 0.00338572 2.53691e-19)
(1.00177 0.00256201 0)
(1.00212 0.00151644 2.94291e-20)
(1.00251 0.000228867 -4.24842e-22)
(1.00297 -0.00133081 1.14876e-19)
(1.00351 -0.00320821 -5.51019e-22)
(1.0042 -0.00547172 -5.71777e-20)
(1.00511 -0.0082227 0)
(1.00635 -0.0116143 0)
(1.00813 -0.0158785 2.88173e-20)
(1.01078 -0.0213734 -2.98026e-20)
(1.01491 -0.028663 -4.84e-22)
(1.02168 -0.0386437 9.13778e-20)
(1.03332 -0.0527935 -6.27201e-20)
(1.05436 -0.0733525 6.14879e-20)
(1.10075 -0.105245 0)
(0.963503 -0.11774 3.18915e-20)
(0.480323 0.00950138 0)
(1.11534 0.0898431 0)
(1.11441 0.080409 3.45615e-20)
(1.06543 0.0611478 0)
(1.04204 0.047497 1.47329e-19)
(1.02901 0.0370968 0)
(1.02098 0.0289509 0)
(1.01574 0.022457 0)
(1.01216 0.0172042 0)
(1.0096 0.0128992 0)
(1.00772 0.00933398 0)
(1.00626 0.00635852 0)
(1.00511 0.00386842 2.91903e-19)
(1.00414 0.00178931 0)
(1.00332 7.08884e-05 0)
(1.00259 -0.00132172 0)
(1.00192 -0.00241167 0)
(1.0013 -0.00321623 0)
(1.00072 -0.00374571 0)
(1.00018 -0.00400975 -2.89294e-19)
(0.999672 -0.00401804 0)
(0.999207 -0.00378453 0)
(0.998795 -0.00332094 -1.42828e-19)
(0.998445 -0.00265469 0)
(0.998169 -0.00181538 -2.12336e-19)
(0.997976 -0.000838265 3.48969e-20)
(0.997876 0.000234757 -1.39341e-19)
(0.997874 0.00135891 2.69101e-22)
(0.99797 0.00248646 6.82194e-20)
(0.998166 0.00356489 5.08264e-20)
(0.998454 0.00455166 1.33608e-19)
(0.998827 0.00539963 4.10042e-21)
(0.999273 0.00607196 0)
(0.999778 0.00653681 -1.01489e-21)
(1.00033 0.00676882 0)
(1.00092 0.0067484 -1.14666e-19)
(1.00154 0.00646089 -1.20422e-19)
(1.00219 0.00589454 1.19195e-19)
(1.00286 0.00504253 2.34153e-19)
(1.00357 0.00389045 9.45857e-20)
(1.00434 0.00242488 -2.88016e-20)
(1.00518 0.000624459 -5.67227e-20)
(1.00614 -0.00154282 0)
(1.00728 -0.00412593 0)
(1.00869 -0.00719691 -5.54366e-20)
(1.01051 -0.0108602 5.52464e-20)
(1.01295 -0.0152658 1.37726e-19)
(1.01634 -0.0206278 2.79192e-20)
(1.02124 -0.02725 -1.29585e-22)
(1.02855 -0.0355614 -2.72565e-20)
(1.03992 -0.0461639 1.09651e-19)
(1.05823 -0.0599152 -8.15922e-20)
(1.09032 -0.078183 7.68268e-20)
(1.13363 -0.10049 4.90394e-20)
(0.813428 -0.0597224 -1.38789e-20)
(0.400042 0.00532254 0)
(1.06046 0.0687624 -3.27266e-20)
(1.13751 0.0765893 6.33422e-20)
(1.08776 0.0615611 6.68491e-20)
(1.05885 0.0493829 6.91492e-20)
(1.04241 0.0396378 1.40852e-19)
(1.03186 0.0315522 -1.42029e-19)
(1.02468 0.0247638 -1.432e-19)
(1.01957 0.0190233 0)
(1.0158 0.014139 -2.87847e-19)
(1.01293 0.00996436 -5.75692e-19)
(1.01066 0.00638837 -2.88494e-19)
(1.0088 0.00332983 -2.88777e-19)
(1.00723 0.000729568 0)
(1.00585 -0.00145198 0)
(1.00461 -0.00324296 0)
(1.00345 -0.00465935 -5.78111e-19)
(1.00237 -0.00570996 8.97295e-23)
(1.00133 -0.00639951 -5.77297e-19)
(1.00035 -0.00673249 -2.88618e-19)
(0.999413 -0.00671637 -7.17412e-20)
(0.998548 -0.00635614 1.43193e-19)
(0.997768 -0.00567508 -1.43538e-19)
(0.997096 -0.00470293 1.42597e-19)
(0.996554 -0.00347925 0)
(0.996165 -0.00205142 -7.09457e-20)
(0.995945 -0.000480271 1.40452e-19)
(0.995907 0.00116981 0)
(0.996055 0.00283002 -3.41491e-20)
(0.996386 0.00442089 -1.7021e-20)
(0.99689 0.00588241 -1.34111e-19)
(0.997551 0.00714477 1.23367e-20)
(0.998344 0.00815708 0)
(0.999244 0.00887656 1.35141e-19)
(1.00023 0.00927091 0)
(1.00127 0.00931684 0)
(1.00237 0.00899942 -2.37851e-19)
(1.0035 0.00831192 -5.64614e-20)
(1.00467 0.00724746 1.22299e-19)
(1.00589 0.00579997 1.07046e-19)
(1.00718 0.00396223 -1.25967e-19)
(1.00859 0.00172029 -1.11165e-19)
(1.01017 -0.000950484 -1.36597e-19)
(1.01201 -0.00408792 8.10423e-20)
(1.01423 -0.0077499 1.06978e-19)
(1.01704 -0.0120187 -2.6184e-20)
(1.02069 -0.017008 0)
(1.02562 -0.0228694 -5.20088e-20)
(1.03247 -0.0298002 -5.14994e-20)
(1.04232 -0.0380528 -2.586e-20)
(1.05696 -0.047935 -2.43922e-20)
(1.07963 -0.0598406 -7.26451e-20)
(1.1175 -0.0745452 -4.49422e-20)
(1.1234 -0.0825145 0)
(0.694621 -0.0290741 7.31906e-20)
(0.350517 0.00326006 0)
(0.998267 0.0512817 0)
(1.14581 0.0691136 -1.20268e-19)
(1.10666 0.0589817 -1.26142e-19)
(1.07396 0.0482193 0)
(1.05501 0.0393326 0)
(1.04261 0.0316598 1.3606e-19)
(1.03391 0.0249456 0)
(1.02753 0.0190493 0)
(1.02269 0.0138602 0)
(1.01889 0.00929198 -2.81587e-19)
(1.01581 0.00527744 -2.83009e-19)
(1.01323 0.00176664 0)
(1.01099 -0.00127495 0)
(1.00899 -0.00386954 -3.48979e-22)
(1.00714 -0.00602933 0)
(1.0054 -0.00775463 1.14696e-18)
(1.00372 -0.00904149 1.15314e-18)
(1.0021 -0.00988193 -5.7561e-19)
(1.00053 -0.010272 2.86858e-19)
(0.999019 -0.0101985 3.59226e-19)
(0.9976 -0.009673 -7.19137e-20)
(0.996304 -0.00871321 4.31858e-19)
(0.995172 -0.00735285 -7.11482e-20)
(0.994245 -0.00563988 -1.69387e-22)
(0.993564 -0.00363638 -1.4249e-19)
(0.993162 -0.00142698 1.78567e-19)
(0.993062 0.000898741 1.40407e-19)
(0.993273 0.00324352 -4.2736e-22)
(0.99379 0.0054914 6.83579e-20)
(0.994593 0.00755973 6.6858e-20)
(0.995652 0.00934909 0)
(0.996924 0.0107923 -1.16526e-19)
(0.998365 0.0118356 0)
(0.99993 0.0124404 0)
(1.00158 0.0125837 1.51515e-19)
(1.0033 0.0122569 -1.201e-19)
(1.00505 0.0114603 0)
(1.00684 0.0101945 7.10559e-21)
(1.00868 0.00846996 0)
(1.01059 0.00629202 0)
(1.01264 0.0036612 -1.21584e-19)
(1.01489 0.000568562 1.33424e-20)
(1.01746 -0.00300445 2.34874e-22)
(1.0205 -0.0070913 -1.2677e-20)
(1.02423 -0.0117417 -1.26246e-19)
(1.02896 -0.0170241 -1.22674e-20)
(1.03516 -0.0230242 1.09887e-19)
(1.04353 -0.0298471 -9.6194e-20)
(1.05518 -0.0376079 0)
(1.07194 -0.0464533 4.48885e-20)
(1.0974 -0.0566311 9.13796e-22)
(1.13455 -0.0679311 -4.13314e-20)
(1.09015 -0.0647478 -6.23314e-20)
(0.614262 -0.0165804 0)
(0.317204 0.00221681 1.27692e-20)
(0.940157 0.0384324 -3.27305e-20)
(1.14251 0.0603613 5.81501e-20)
(1.12199 0.0548916 0)
(1.08757 0.0454424 0)
(1.06667 0.0372915 -1.27658e-19)
(1.05292 0.0300668 0)
(1.04309 0.0235412 -2.65667e-19)
(1.03572 0.0176244 -2.69081e-19)
(1.02998 0.0122628 0)
(1.02537 0.00741617 -1.37731e-19)
(1.02155 0.00305709 2.77971e-19)
(1.01827 -0.000837042 -5.60103e-19)
(1.01536 -0.00428 0)
(1.01269 -0.00727049 0)
(1.01018 -0.00979862 0)
(1.00775 -0.0118435 -4.42699e-21)
(1.00537 -0.0133813 0)
(1.00302 -0.0143899 0)
(1.0007 -0.014832 2.86129e-19)
(0.998444 -0.0146901 -1.29063e-22)
(0.996287 -0.0139605 0)
(0.994289 -0.0126534 0)
(0.992519 -0.010801 4.36811e-19)
(0.991048 -0.00845897 2.91046e-19)
(0.989946 -0.00570437 3.62342e-20)
(0.989275 -0.00266132 0)
(0.989076 0.000553433 2.86611e-19)
(0.989368 0.00380048 1.06234e-19)
(0.99014 0.0069075 -1.58259e-23)
(0.991356 0.00976329 0)
(0.992963 0.0122352 0)
(0.994888 0.0142262 6.58033e-21)
(0.997054 0.0156731 0)
(0.999387 0.0165354 0)
(1.00182 0.016796 -1.74579e-22)
(1.00433 0.0164623 -2.30877e-19)
(1.00684 0.0155428 -1.15513e-19)
(1.00937 0.0140614 1.11296e-19)
(1.01192 0.0120485 6.7147e-21)
(1.01453 0.00953037 -1.05312e-19)
(1.01726 0.0065277 9.78828e-22)
(1.0202 0.00305319 8.68278e-22)
(1.02347 -0.000889574 1.26287e-20)
(1.02726 -0.00530615 -8.59224e-20)
(1.03179 -0.0102145 0)
(1.03741 -0.0156431 -1.06166e-19)
(1.04459 -0.0216231 0)
(1.05405 -0.0282019 -4.47784e-20)
(1.06691 -0.0354319 0)
(1.08509 -0.0433945 4.23218e-20)
(1.11225 -0.0522835 -2.16748e-22)
(1.14251 -0.0604359 -1.87255e-20)
(1.04964 -0.0504726 -5.9047e-20)
(0.559454 -0.0110984 2.88714e-20)
(0.293486 0.00158646 0)
(0.889785 0.0292305 -3.28762e-20)
(1.13154 0.0516991 0)
(1.13369 0.0500662 0)
(1.09998 0.0418492 5.96132e-20)
(1.07756 0.0342351 5.96626e-22)
(1.0628 0.0273611 0)
(1.05214 0.0210024 -1.27865e-19)
(1.04402 0.0150881 -2.60816e-19)
(1.03759 0.00959205 0)
(1.0323 0.00450306 0)
(1.02782 -0.000182514 0)
(1.02389 -0.00445814 0)
(1.02032 -0.00831405 -4.11498e-19)
(1.01698 -0.0117237 -1.37676e-19)
(1.01375 -0.0146537 0)
(1.01057 -0.0170633 1.74971e-20)
(1.00737 -0.0189158 4.20847e-19)
(1.00414 -0.0201366 -2.8031e-22)
(1.00089 -0.0206734 -1.4244e-19)
(0.997664 -0.0204754 0)
(0.994535 -0.01952 1.4492e-19)
(0.991589 -0.0177968 3.64547e-22)
(0.988936 -0.0153293 1.48838e-19)
(0.986696 -0.0121776 0)
(0.98499 -0.00843692 -7.41881e-20)
(0.983926 -0.00428166 -7.39271e-20)
(0.983573 0.000127133 1.4798e-19)
(0.983969 0.00458728 7.3096e-20)
(0.985097 0.00884484 -1.42197e-19)
(0.986895 0.0127432 0)
(0.989265 0.0160955 -1.69124e-20)
(0.992084 0.0187751 -1.31524e-19)
(0.995225 0.02071 1.58233e-20)
(0.998567 0.0218636 1.86156e-21)
(1.00201 0.022238 2.30781e-19)
(1.00549 0.0218624 1.15867e-19)
(1.00892 0.020765 1.11751e-19)
(1.01231 0.0190094 -1.06902e-19)
(1.01565 0.0166533 0)
(1.01901 0.0137502 1.07739e-19)
(1.02244 0.0103468 0)
(1.02605 0.0064803 0)
(1.02998 0.00217775 -9.61521e-20)
(1.03442 -0.0025426 0)
(1.03962 -0.00766923 4.49107e-20)
(1.04592 -0.0131971 8.88054e-20)
(1.05382 -0.0191367 2.21886e-20)
(1.06404 -0.025499 -8.3988e-20)
(1.07772 -0.03231 0)
(1.0969 -0.0396381 3.97781e-20)
(1.12464 -0.0475517 0)
(1.14335 -0.0528735 -1.71689e-20)
(1.00921 -0.0395022 3.72639e-20)
(0.519249 -0.0080341 0)
(0.275902 0.00116575 0)
(0.847438 0.0225465 -3.28978e-20)
(1.11632 0.0437219 -5.51657e-20)
(1.14205 0.0449162 5.50529e-20)
(1.11142 0.037869 -5.67533e-20)
(1.08792 0.0306281 -1.17326e-19)
(1.07236 0.023967 0)
(1.06111 0.0176917 0)
(1.05245 0.011731 0)
(1.04548 0.00607314 0)
(1.03967 0.000721481 2.60241e-19)
(1.03464 -0.0043127 0)
(1.03014 -0.00900885 -5.30333e-19)
(1.02596 -0.0133338 0)
(1.02194 -0.0172399 0)
(1.01797 -0.0206743 5.08132e-19)
(1.01395 -0.0235676 4.10793e-19)
(1.00981 -0.0258326 -1.39521e-19)
(1.00554 -0.0273758 -1.40326e-19)
(1.00116 -0.0281047 1.42445e-19)
(0.99671 -0.0279191 5.78312e-19)
(0.992296 -0.0267508 2.93332e-19)
(0.988063 -0.0245599 -1.47641e-19)
(0.984178 -0.0213419 0)
(0.980839 -0.0171524 2.05838e-21)
(0.97825 -0.012104 7.61943e-20)
(0.976598 -0.00644135 -7.54201e-20)
(0.97601 -0.000395938 -1.90915e-19)
(0.97655 0.00573051 2.13364e-22)
(0.97819 0.0115557 0)
(0.980824 0.0168477 -7.09928e-20)
(0.984279 0.021344 -1.35846e-19)
(0.988342 0.024878 1.30664e-19)
(0.992806 0.027376 -1.25472e-19)
(0.997481 0.0288197 -1.53016e-19)
(1.00222 0.0292554 -2.33405e-19)
(1.0069 0.0287348 5.60694e-20)
(1.01142 0.0273426 2.68432e-20)
(1.01578 0.0251919 0)
(1.02 0.0223788 0)
(1.02413 0.0189912 -6.16385e-21)
(1.02825 0.0151062 1.90123e-19)
(1.03249 0.0107863 9.32662e-20)
(1.037 0.00608142 0)
(1.04198 0.00103374 8.84849e-20)
(1.04769 -0.00432995 2.09776e-20)
(1.0545 -0.00999166 -2.14109e-20)
(1.06291 -0.0159419 5.08331e-21)
(1.07364 -0.0221796 7.69478e-20)
(1.08793 -0.028726 3.01571e-19)
(1.10784 -0.0356422 1.456e-19)
(1.13489 -0.0427537 -3.39354e-20)
(1.13906 -0.0457137 -3.38381e-20)
(0.972417 -0.0312304 -5.49387e-20)
(0.489542 -0.00593196 1.09232e-19)
(0.262572 0.000870385 0)
(0.812327 0.0175792 -6.56631e-20)
(1.09932 0.0366495 5.39416e-20)
(1.14753 0.0397087 -5.25707e-20)
(1.12201 0.0337376 1.08829e-19)
(1.09798 0.0267627 1.13283e-19)
(1.0818 0.020189 -2.32191e-19)
(1.07012 0.013899 6.30484e-22)
(1.06108 0.007818 -1.21256e-19)
(1.05374 0.00193349 -2.48694e-19)
(1.04753 -0.00374568 -2.51291e-19)
(1.04208 -0.00920168 0)
(1.0371 -0.014399 2.55502e-19)
(1.03238 -0.0192879 0)
(1.02774 -0.023806 -5.3861e-19)
(1.02303 -0.0278879 -6.54261e-20)
(1.01811 -0.031435 -2.68163e-19)
(1.01293 -0.0343117 4.09575e-19)
(1.00746 -0.0363803 -5.53745e-19)
(1.0017 -0.0374923 0)
(0.995703 -0.0374846 2.89007e-19)
(0.989592 -0.0361903 -4.41027e-19)
(0.983592 -0.0335269 1.49524e-19)
(0.977961 -0.0294286 0)
(0.973015 -0.0239196 -1.55628e-19)
(0.969098 -0.0171208 7.74983e-20)
(0.966544 -0.00937639 1.59984e-19)
(0.96558 -0.00103257 1.56761e-19)
(0.96633 0.0074424 -1.55532e-19)
(0.968739 0.0154501 0)
(0.972618 0.0226355 0)
(0.977662 0.0286159 1.7299e-19)
(0.983498 0.0331822 2.74108e-21)
(0.989789 0.0362764 -2.21688e-19)
(0.996247 0.0379407 -3.60688e-19)
(1.00264 0.0382827 5.77663e-20)
(1.00877 0.037409 -2.71656e-20)
(1.01457 0.0355114 0)
(1.02002 0.032758 0)
(1.02515 0.0292986 8.49714e-20)
(1.03005 0.0252634 1.03737e-19)
(1.03482 0.0207606 -9.63408e-21)
(1.03961 0.0158815 0)
(1.0446 0.010695 -8.48221e-20)
(1.05 0.00524825 6.06284e-20)
(1.05609 -0.000423602 1.593e-19)
(1.06326 -0.00629208 0)
(1.072 -0.0123322 0)
(1.08309 -0.0185375 4.52778e-21)
(1.09775 -0.0249417 -1.04625e-19)
(1.1181 -0.0316064 1.00681e-19)
(1.14309 -0.0380185 -1.63632e-20)
(1.13178 -0.0391475 1.41193e-19)
(0.940764 -0.0248875 -1.40568e-19)
(0.46777 -0.00455899 2.23856e-19)
(0.25234 0.000654569 0)
(0.783382 0.0138032 -3.24067e-20)
(1.08215 0.0305119 7.88586e-20)
(1.15075 0.0346459 -5.06471e-20)
(1.13184 0.0296168 -1.0504e-19)
(1.10791 0.0228426 -2.16475e-19)
(1.09126 0.0162565 -1.11724e-19)
(1.07929 0.00986193 -1.14599e-19)
(1.07003 0.00358164 0)
(1.06247 -0.00260465 0)
(1.05602 -0.00869303 0)
(1.05028 -0.014659 0)
(1.04495 -0.0204655 1.2268e-19)
(1.03979 -0.0260533 -2.48602e-19)
(1.03459 -0.0313524 0)
(1.02917 -0.0363048 1.92791e-19)
(1.02338 -0.0407434 -1.29671e-19)
(1.0171 -0.0445108 2.44127e-21)
(1.01027 -0.0474224 2.74291e-19)
(1.00286 -0.0492509 1.73818e-21)
(0.994931 -0.0497396 2.89661e-19)
(0.986592 -0.0485873 -2.97246e-19)
(0.978137 -0.0455584 0)
(0.969983 -0.0405042 -1.58099e-19)
(0.962622 -0.0333508 -1.64676e-19)
(0.956637 -0.0242039 0)
(0.952634 -0.0134993 -1.67901e-19)
(0.951051 -0.00182561 2.12514e-19)
(0.952122 0.0100691 4.13717e-20)
(0.955746 0.0212089 -2.16211e-19)
(0.961567 0.0310211 -7.63871e-20)
(0.969013 0.0389046 -1.23335e-19)
(0.977447 0.0446476 1.32885e-19)
(0.986305 0.0482656 0)
(0.995163 0.0499355 2.37664e-19)
(1.00364 0.0498349 -2.83056e-20)
(1.01152 0.0482535 2.65251e-20)
(1.01877 0.0454982 0)
(1.02538 0.0418207 2.39963e-20)
(1.03143 0.0374368 1.14092e-19)
(1.03705 0.0325228 0)
(1.04238 0.0272242 -8.41165e-20)
(1.04761 0.0216373 -7.97297e-20)
(1.05295 0.0158383 0)
(1.05863 0.00988942 7.51567e-20)
(1.06495 0.00383777 -3.66019e-20)
(1.07229 -0.00230145 0)
(1.08118 -0.00850943 -3.42375e-20)
(1.09243 -0.0147826 -6.73563e-20)
(1.10734 -0.0211568 -6.52418e-20)
(1.12779 -0.0276615 3.16599e-20)
(1.14956 -0.033443 8.92571e-20)
(1.12291 -0.033274 5.92089e-20)
(0.913711 -0.019964 -1.17171e-19)
(0.451064 -0.0035352 -7.47634e-20)
(0.244406 0.000490582 0)
(0.759579 0.0108876 0)
(1.06577 0.0252712 0)
(1.15229 0.0298842 0)
(1.14099 0.0256366 0)
(1.1178 0.0190248 0)
(1.10088 0.0123582 0)
(1.08876 0.00578932 0)
(1.07941 -0.000759086 2.24603e-19)
(1.07178 -0.00731995 0)
(1.06525 -0.0138937 -2.2886e-19)
(1.05938 -0.0204652 0)
(1.05386 -0.0269962 0)
(1.04842 -0.0334386 4.79796e-19)
(1.04283 -0.0397412 0)
(1.03681 -0.0458034 0)
(1.03022 -0.0514671 0)
(1.02287 -0.0565452 2.59368e-19)
(1.01459 -0.0607798 -2.6456e-19)
(1.0053 -0.0638601 0)
(0.994997 -0.0654038 -1.42432e-19)
(0.983779 -0.0649477 -3.04506e-19)
(0.971916 -0.0619421 0)
(0.960026 -0.0560272 -1.6048e-19)
(0.948908 -0.0469291 4.39708e-21)
(0.939552 -0.0346095 -5.28892e-19)
(0.933094 -0.0195942 -1.83569e-19)
(0.930431 -0.00288457 -1.41236e-21)
(0.932026 0.0141991 -8.9383e-20)
(0.937702 0.0299937 1.05644e-20)
(0.946717 0.0434854 1.55799e-19)
(0.95795 0.0537741 1.82101e-20)
(0.970278 0.0607125 4.22284e-21)
(0.982811 0.0645512 -7.41137e-19)
(0.99484 0.0656645 1.7005e-19)
(1.00589 0.0644966 2.66091e-20)
(1.01582 0.0616133 5.0006e-20)
(1.02462 0.0574585 2.31164e-20)
(1.03239 0.0523978 2.1045e-20)
(1.03928 0.0467211 -2.48618e-19)
(1.04549 0.0406337 -2.30884e-19)
(1.05122 0.0343042 -3.15547e-19)
(1.05671 0.0278364 -7.36899e-20)
(1.0622 0.0213039 0)
(1.06796 0.0147582 1.75975e-20)
(1.07431 0.00823787 0)
(1.08166 0.00175433 -3.23562e-20)
(1.09056 -0.00468722 -3.12629e-20)
(1.10185 -0.0110965 -1.53187e-20)
(1.11687 -0.0175155 5.92578e-20)
(1.13706 -0.0239177 0)
(1.15464 -0.0291466 0)
(1.11348 -0.0281362 0)
(0.890906 -0.016103 1.51673e-20)
(0.438223 -0.0027649 7.0985e-20)
(0.238254 0.000372869 0)
(0.740118 0.00862793 0)
(1.05077 0.0208815 2.49273e-20)
(1.15272 0.0255554 4.68375e-20)
(1.14952 0.0219201 0)
(1.12772 0.0154486 0)
(1.11073 0.00866656 1.01208e-19)
(1.09859 0.00187773 0)
(1.08932 -0.00498709 2.13032e-19)
(1.08179 -0.011973 0)
(1.07535 -0.0190925 -4.34253e-19)
(1.06955 -0.0263457 -1.09318e-19)
(1.06405 -0.0337084 4.45217e-19)
(1.05856 -0.0411528 9.40038e-19)
(1.05278 -0.0486777 -2.30944e-19)
(1.04643 -0.056147 5.95313e-20)
(1.03926 -0.0634297 1.19466e-19)
(1.03099 -0.0703333 0)
(1.02135 -0.0765771 0)
(1.01008 -0.081741 0)
(0.997016 -0.0852984 1.39734e-19)
(0.982164 -0.0865541 -1.54227e-19)
(0.965685 -0.0845775 -9.39188e-19)
(0.948222 -0.0783676 1.64724e-19)
(0.93107 -0.0672407 -3.59084e-19)
(0.915922 -0.050681 -7.56806e-19)
(0.905 -0.0291866 2.96619e-19)
(0.900295 -0.00442702 -2.04274e-19)
(0.902814 0.0208914 -1.96613e-19)
(0.912202 0.0439766 -2.57176e-20)
(0.926797 0.0627016 -8.44667e-20)
(0.944278 0.0758303 -1.52391e-19)
(0.962612 0.0835819 -2.77132e-19)
(0.980346 0.0867236 -4.99721e-19)
(0.996443 0.0861222 1.08279e-19)
(1.01056 0.08283 -1.02375e-19)
(1.0227 0.0776984 7.10935e-20)
(1.03301 0.0713736 -2.56999e-19)
(1.04177 0.0643255 -8.24182e-20)
(1.04927 0.0568948 -7.41095e-20)
(1.05578 0.0493095 1.46549e-19)
(1.06162 0.041707 0)
(1.06708 0.0341858 -5.01772e-20)
(1.07247 0.0267995 0)
(1.07809 0.0195783 0)
(1.08429 0.0125318 3.12825e-20)
(1.09149 0.00565735 4.52571e-20)
(1.10025 -0.00106033 2.81117e-20)
(1.11144 -0.00764825 2.70911e-20)
(1.12641 -0.0141511 2.6066e-20)
(1.14595 -0.0204759 0)
(1.15864 -0.0252289 -1.30979e-20)
(1.10415 -0.0237381 -2.56925e-20)
(0.871742 -0.0130864 5.89988e-20)
(0.428339 -0.00220998 -1.93242e-19)
(0.233417 0.000295718 0)
(0.724143 0.00690322 -3.02659e-20)
(1.03737 0.0172781 0)
(1.15248 0.0217591 0)
(1.15752 0.0185855 9.06197e-20)
(1.13767 0.0122427 9.38829e-20)
(1.12086 0.0053347 -4.82896e-20)
(1.10884 -0.00169249 0)
(1.09979 -0.00888841 4.99926e-20)
(1.09253 -0.0163121 -1.0072e-19)
(1.08639 -0.0239956 0)
(1.08089 -0.0319623 -1.02547e-19)
(1.07568 -0.0402268 -3.30741e-21)
(1.07044 -0.0488089 -7.94168e-20)
(1.06482 -0.0577092 5.21784e-20)
(1.05852 -0.0668566 -3.01844e-21)
(1.05121 -0.0761725 2.27939e-19)
(1.04246 -0.0855009 0)
(1.03183 -0.0945814 4.81209e-19)
(1.01884 -0.103009 -1.15634e-21)
(1.00297 -0.110092 0)
(0.983865 -0.114888 -4.32155e-19)
(0.961373 -0.115995 -1.54735e-19)
(0.935776 -0.111389 6.68562e-19)
(0.908653 -0.0990129 5.83078e-21)
(0.883011 -0.0772202 0)
(0.863273 -0.0456246 2.10998e-19)
(0.854287 -0.00714187 -1.21271e-19)
(0.85863 0.0325903 1.09701e-19)
(0.875397 0.0677118 -4.07848e-19)
(0.900477 0.0937528 1.72816e-19)
(0.928689 0.109488 3.13663e-19)
(0.956368 0.116483 5.26682e-19)
(0.981131 0.116676 -1.12102e-19)
(1.00216 0.112277 -1.111e-19)
(1.01955 0.105099 8.85996e-20)
(1.03371 0.09635 -3.23759e-19)
(1.04515 0.0868556 2.37124e-19)
(1.05439 0.0771236 7.28682e-20)
(1.06193 0.067454 0)
(1.06826 0.0580381 9.18613e-20)
(1.0738 0.0489672 -2.69421e-20)
(1.0789 0.0402764 0)
(1.0839 0.0319696 -5.59461e-20)
(1.08915 0.0240293 -5.67332e-20)
(1.09498 0.0164403 5.35497e-20)
(1.10183 0.00916545 -1.34044e-19)
(1.11031 0.00216674 -5.27226e-20)
(1.12127 -0.00460567 2.48834e-20)
(1.13603 -0.0111981 2.39813e-20)
(1.15453 -0.0174398 -1.1537e-20)
(1.16181 -0.0217747 -3.41029e-20)
(1.09511 -0.0200337 5.66374e-21)
(0.855138 -0.0107091 -6.63738e-21)
(0.419823 -0.00181996 0)
(0.229559 0.000232637 0)
(0.710972 0.00561998 0)
(1.02553 0.014423 -4.62328e-20)
(1.15187 0.0185812 0)
(1.16508 0.0157529 -4.29386e-20)
(1.14767 0.00954182 4.40655e-20)
(1.13128 0.00252987 9.04899e-20)
(1.11952 -0.00471277 0)
(1.11083 -0.0122165 1.85994e-19)
(1.10402 -0.0200543 0)
(1.09837 -0.0282836 -3.80884e-19)
(1.09343 -0.0369558 -1.92021e-19)
(1.08882 -0.0461292 -6.04277e-21)
(1.08419 -0.0558406 -1.97325e-19)
(1.07921 -0.0661959 1.96777e-19)
(1.07353 -0.0771837 2.02278e-19)
(1.06673 -0.0888331 -1.00542e-19)
(1.05831 -0.101116 -3.17679e-19)
(1.04762 -0.113922 -1.05553e-19)
(1.03384 -0.126965 2.28238e-19)
(1.01599 -0.139708 0)
(0.992907 -0.151063 -7.58399e-21)
(0.963366 -0.159116 2.91328e-19)
(0.926693 -0.160821 0)
(0.883274 -0.151098 0)
(0.837434 -0.124399 4.55182e-19)
(0.798497 -0.0768443 -9.50429e-21)
(0.779445 -0.0126611 4.36068e-21)
(0.787881 0.054851 -5.35934e-19)
(0.821177 0.111146 4.57309e-19)
(0.867603 0.146711 3.7736e-19)
(0.914746 0.162173 6.17249e-19)
(0.95615 0.1635 4.16523e-19)
(0.989583 0.156133 2.12801e-19)
(1.01571 0.144359 0)
(1.0357 0.130723 0)
(1.05081 0.116658 1.76167e-19)
(1.06222 0.102877 2.19518e-21)
(1.07095 0.0897744 -6.55364e-20)
(1.07779 0.077492 -5.21041e-20)
(1.0833 0.0660631 -1.03732e-19)
(1.08801 0.055447 7.6737e-20)
(1.0923 0.0455745 0)
(1.09655 0.036374 2.48497e-20)
(1.10111 0.0277683 -2.34412e-20)
(1.10632 0.0196832 0)
(1.11264 0.012055 0)
(1.12065 0.00481357 -1.68744e-21)
(1.13125 -0.00211071 0)
(1.14564 -0.00876728 0)
(1.16273 -0.0149109 -1.91186e-22)
(1.16437 -0.0188923 0)
(1.08676 -0.0170693 -2.99579e-20)
(0.841045 -0.00891528 0)
(0.412357 -0.00149494 -4.34447e-20)
(0.226396 0.000217642 0)
(0.700036 0.00473735 7.01141e-21)
(1.01522 0.0122895 5.53616e-21)
(1.15114 0.0160907 0)
(1.17225 0.0135243 5.06004e-21)
(1.15764 0.00745468 0)
(1.1419 0.000381505 0)
(1.13054 -0.00702465 0)
(1.12236 -0.0147692 0)
(1.11616 -0.0229391 0)
(1.11123 -0.0316144 0)
(1.1071 -0.0408773 0)
(1.10341 -0.0508176 0)
(1.09981 -0.0615879 2.67419e-19)
(1.096 -0.0733075 -9.04127e-20)
(1.09163 -0.086088 -1.82538e-19)
(1.08628 -0.100103 -1.8262e-19)
(1.07938 -0.115546 3.44939e-21)
(1.07018 -0.132613 -1.03743e-19)
(1.05764 -0.151454 -2.03618e-21)
(1.0402 -0.172046 4.35861e-19)
(1.01565 -0.193956 -2.53732e-19)
(0.980794 -0.215637 0)
(0.931651 -0.23347 2.8968e-19)
(0.864018 -0.239126 -1.5203e-18)
(0.77821 -0.21587 9.39986e-19)
(0.692812 -0.14466 5.89415e-19)
(0.646857 -0.0261904 2.2777e-18)
(0.66563 0.103222 0)
(0.741157 0.199514 9.87423e-19)
(0.834314 0.242014 -1.32741e-18)
(0.913839 0.244639 -3.83034e-19)
(0.972557 0.228078 -1.03216e-19)
(1.01393 0.204783 -5.21731e-19)
(1.04251 0.180393 3.6485e-21)
(1.0622 0.157237 3.84587e-19)
(1.07581 0.136221 -3.22703e-20)
(1.08533 0.117403 1.48893e-19)
(1.0921 0.100681 4.73676e-20)
(1.09705 0.0857662 8.38264e-20)
(1.10089 0.0724135 0)
(1.10409 0.0603953 2.14452e-20)
(1.1071 0.0494992 3.36122e-20)
(1.11026 0.0395488 3.60686e-20)
(1.11384 0.030413 -2.00498e-20)
(1.11822 0.0219609 6.67119e-20)
(1.12383 0.0140856 -1.73781e-20)
(1.13127 0.00668545 -7.90596e-20)
(1.1414 -0.000313804 -8.7441e-21)
(1.15525 -0.00697407 -1.82333e-20)
(1.1706 -0.012973 -1.70596e-20)
(1.16644 -0.0166251 9.24963e-21)
(1.07903 -0.0148007 9.28628e-21)
(0.828851 -0.00764843 7.42179e-22)
(0.40598 -0.0013217 2.02517e-20)
(0.223406 0.000269409 1.49978e-19)
(0.690501 0.00424126 -2.13863e-19)
(1.00604 0.0108553 1.52028e-22)
(1.15034 0.0143286 7.67779e-20)
(1.17907 0.0119737 -7.57605e-20)
(1.16755 0.00607529 -7.71285e-20)
(1.15267 -0.000984381 0)
(1.14181 -0.00846074 1.06421e-22)
(1.13424 -0.0163347 -3.97096e-20)
(1.12879 -0.0247034 1.99117e-20)
(1.12475 -0.0336677 -1.98891e-20)
(1.12165 -0.0433345 -1.97982e-20)
(1.11917 -0.0538352 1.00028e-20)
(1.11701 -0.0653626 3.87556e-20)
(1.11492 -0.0780968 6.23067e-20)
(1.11259 -0.0922755 1.22634e-19)
(1.10969 -0.108237 4.70653e-19)
(1.10579 -0.126413 8.19683e-20)
(1.10018 -0.147398 0)
(1.0919 -0.172043 0)
(1.07945 -0.20139 -1.64577e-19)
(1.05998 -0.236846 2.74453e-20)
(1.02859 -0.279902 -5.68433e-19)
(0.97615 -0.33107 2.38396e-19)
(0.884806 -0.385798 -2.98629e-19)
(0.724218 -0.408115 0)
(0.510706 -0.315622 3.85559e-18)
(0.384693 -0.0638845 -1.21664e-18)
(0.433414 0.2279 -5.13829e-18)
(0.637228 0.403058 1.96179e-18)
(0.831941 0.418062 0)
(0.956794 0.364309 -6.82805e-19)
(1.02587 0.306071 2.00574e-19)
(1.06515 0.255201 1.5815e-19)
(1.08803 0.213309 7.30278e-20)
(1.10158 0.179122 6.41088e-20)
(1.10971 0.150992 9.35514e-20)
(1.11467 0.127502 0)
(1.11758 0.107679 -2.15876e-20)
(1.11938 0.0906876 1.71638e-19)
(1.12068 0.0759279 0)
(1.12177 0.0629528 -1.42056e-21)
(1.12301 0.0514204 -6.44264e-21)
(1.12469 0.0410567 -2.21434e-20)
(1.12707 0.0316494 -7.27699e-21)
(1.13044 0.0230388 1.3786e-20)
(1.13521 0.0150841 -7.46349e-21)
(1.14194 0.00766895 -7.92096e-21)
(1.1515 0.000692833 -7.84024e-22)
(1.16468 -0.00588607 5.93239e-21)
(1.17806 -0.0116906 5.14584e-21)
(1.16817 -0.0150352 -1.06257e-20)
(1.0721 -0.013237 -1.54445e-20)
(0.818404 -0.00686451 -8.87574e-21)
(0.400456 -0.00126466 -1.65561e-20)
(0.216015 0.000346004 -2.2579e-18)
(0.678919 0.00407671 0)
(0.996128 0.00998342 -6.26153e-19)
(1.14899 0.013226 5.67325e-19)
(1.18551 0.0111217 5.59084e-19)
(1.17735 0.00547922 0)
(1.16346 -0.0014549 5.77067e-19)
(1.15317 -0.00887649 0)
(1.14627 -0.0167348 0)
(1.14166 -0.0251297 2.90197e-19)
(1.13862 -0.0341729 0)
(1.13671 -0.0439848 -2.80082e-19)
(1.13564 -0.0547146 -9.01997e-21)
(1.13518 -0.0665741 3.49296e-20)
(1.13517 -0.0797818 5.18585e-20)
(1.13544 -0.0946441 5.0907e-20)
(1.13582 -0.111582 3.229e-20)
(1.13612 -0.131192 -1.97959e-21)
(1.13611 -0.154337 -6.45959e-20)
(1.13549 -0.182376 5.72747e-20)
(1.13374 -0.217455 -2.7909e-19)
(1.1297 -0.263249 4.20916e-20)
(1.12134 -0.326461 0)
(1.1042 -0.423367 0)
(1.04569 -0.572997 -4.95088e-20)
(0.799479 -0.659973 0)
(0.207249 -0.35569 7.33895e-17)
(0.360967 0.457843 -3.11596e-20)
(0.914096 0.666723 4.89781e-20)
(1.11933 0.494522 1.40136e-19)
(1.14146 0.366357 -6.21051e-20)
(1.15053 0.285544 -5.88845e-20)
(1.15321 0.229314 2.30689e-20)
(1.15274 0.187766 -4.79183e-22)
(1.15081 0.155544 -1.53047e-21)
(1.14839 0.129776 5.66041e-21)
(1.14585 0.108615 -2.84281e-22)
(1.1435 0.0908647 -1.24097e-20)
(1.14153 0.0756909 2.10201e-21)
(1.14008 0.062516 -8.12279e-21)
(1.13929 0.0509181 -5.10212e-21)
(1.13933 0.0405752 -4.97713e-22)