# Wall shear stress
# Time        	patch         	min           	max           
2.000000e+03	top	(-9.283068e-03 -3.294000e-21 0.000000e+00)	(-9.283050e-03 -1.546471e-21 0.000000e+00)
