# Wall shear stress
# Time        	patch         	min           	max           
2.000000e+03	fixedWalls-bottom	(-6.667133e-03 -2.607117e-07 0.000000e+00)	(-6.640222e-03 6.313225e-07 0.000000e+00)
2.000000e+03	fixedWalls-top	(-8.340786e-03 -9.846516e-07 0.000000e+00)	(-8.312409e-03 1.005117e-06 0.000000e+00)
