/*--------------------------------*- C++ -*----------------------------------*\
  =========                 |
  \\      /  F ield         | OpenFOAM: The Open Source CFD Toolbox
   \\    /   O peration     | Website:  https://openfoam.org
    \\  /    A nd           | Version:  7
     \\/     M anipulation  |
\*---------------------------------------------------------------------------*/
FoamFile
{
    version     2.0;
    format      ascii;
    class       volScalarField;
    location    "52";
    object      k;
}
// * * * * * * * * * * * * * * * * * * * * * * * * * * * * * * * * * * * * * //

dimensions      [0 2 -2 0 0 0 0];

internalField   nonuniform List<scalar> 
12842
(
0.00569487
0.00512939
0.00475181
0.00451693
0.00432667
0.00420975
0.00411054
0.00405249
0.00399786
0.00396992
0.00393953
0.00392844
0.00391398
0.00391549
0.00392229
0.00393272
0.00394351
0.00395699
0.0039711
0.0039872
0.00400436
0.00401835
0.00403128
0.00568707
0.00508715
0.00471535
0.00449918
0.00432311
0.00420727
0.00410851
0.00405141
0.00399785
0.00396746
0.00393796
0.00392379
0.00391222
0.00391477
0.0039231
0.00393557
0.00394589
0.00396046
0.00397314
0.00399205
0.00400756
0.00402449
0.00403661
0.00566452
0.00505924
0.00466135
0.00443809
0.00428196
0.00417462
0.0040804
0.00403253
0.00398819
0.00396115
0.0039346
0.00391939
0.00390972
0.00391332
0.00392252
0.00393566
0.00394817
0.00396228
0.00397758
0.00399676
0.00401238
0.00403038
0.00404298
0.00561798
0.00502961
0.00464221
0.00441932
0.00426604
0.00416336
0.00407164
0.00402033
0.00397669
0.00395472
0.00393181
0.00391562
0.00390667
0.00391078
0.00392205
0.00393674
0.00394868
0.00396403
0.00398008
0.0040009
0.00401604
0.00403413
0.00404438
0.00558085
0.0049558
0.00457625
0.00436578
0.0042252
0.00413467
0.00405074
0.00400456
0.00396451
0.00394693
0.0039268
0.0039132
0.00390551
0.00391078
0.00392185
0.00393714
0.00395047
0.00397022
0.00398565
0.00400835
0.00402474
0.00404072
0.00404876
0.00554479
0.00492498
0.00454837
0.00434058
0.00420603
0.00412144
0.00404258
0.00399562
0.00395768
0.00394225
0.00392251
0.00390831
0.00390343
0.00390968
0.00392209
0.00393815
0.00395196
0.003972
0.00399487
0.00401364
0.00403333
0.00404539
0.00405248
0.00549851
0.00486174
0.00449119
0.00428463
0.00416531
0.00409399
0.00402692
0.00398514
0.00394848
0.00393539
0.003917
0.00390383
0.00390141
0.00390932
0.0039232
0.00394163
0.00395665
0.00397811
0.00399887
0.00402119
0.00403657
0.00405101
0.00405617
0.00546733
0.00483408
0.00446981
0.00425999
0.00414066
0.00407647
0.0040154
0.00397773
0.00394401
0.0039308
0.00391098
0.00389974
0.00389988
0.00390894
0.00392361
0.00394439
0.00396073
0.00398261
0.00400491
0.00402801
0.00404346
0.00405799
0.00406455
0.00541415
0.00478032
0.00442636
0.00422346
0.00411146
0.00405369
0.0040017
0.00396813
0.00393798
0.00392403
0.00390374
0.00389509
0.00389779
0.00390886
0.00392508
0.00394694
0.0039662
0.00398701
0.00401189
0.00403234
0.00404736
0.00405974
0.00406856
0.0053925
0.00474289
0.0044026
0.00420233
0.00409401
0.00403993
0.00399058
0.00395892
0.00393123
0.00391572
0.00389793
0.00389177
0.00389533
0.00390854
0.00392765
0.00395084
0.00397084
0.00399037
0.00401593
0.00403818
0.00405159
0.00406199
0.00406967
0.00533019
0.00469786
0.0043679
0.00417771
0.00407565
0.004024
0.00397868
0.00394782
0.00392264
0.00390849
0.00389196
0.00388793
0.00389331
0.00390846
0.0039312
0.00395392
0.00397459
0.0039942
0.0040187
0.00404421
0.00405708
0.00406631
0.00407097
0.00530834
0.00465498
0.00433932
0.00415991
0.00406335
0.00401207
0.00396666
0.00393644
0.00391428
0.00390181
0.00388797
0.00388554
0.00389149
0.00390865
0.00393391
0.00395735
0.00397884
0.003999
0.00402291
0.00405029
0.00406372
0.0040676
0.00407182
0.00524978
0.00461517
0.00431217
0.00414191
0.0040504
0.00399813
0.00395344
0.00392446
0.00390605
0.003896
0.00388463
0.00388213
0.00388981
0.00391046
0.00393921
0.00396
0.00398101
0.00400412
0.00402841
0.0040574
0.00406513
0.0040677
0.00407342
0.0052287
0.0045769
0.00428384
0.00412613
0.00403979
0.00398596
0.00394202
0.00391435
0.00390041
0.00389308
0.00388172
0.00387971
0.00388871
0.00391142
0.00394229
0.00396325
0.00398506
0.00400947
0.00403766
0.00405916
0.00406341
0.0040714
0.00409807
0.00517459
0.00454167
0.00426384
0.00411093
0.00402768
0.0039723
0.00392854
0.00390589
0.00389603
0.00388781
0.003879
0.00387781
0.00388796
0.00391309
0.00394593
0.00396634
0.00398899
0.00401777
0.00404107
0.00405715
0.00406736
0.00409004
0.00416331
0.00515537
0.00451198
0.00423981
0.00409357
0.00401529
0.00396005
0.00392156
0.00390083
0.0038941
0.00388429
0.00387751
0.00387658
0.00388741
0.00391434
0.00394851
0.00396916
0.0039923
0.00402074
0.00404627
0.00406156
0.00409
0.0041529
0.00426096
0.00510538
0.00448518
0.00422259
0.00407746
0.00400252
0.00394846
0.00391217
0.00389753
0.0038915
0.00388177
0.00387598
0.00387541
0.00388683
0.00391587
0.00395034
0.00397189
0.00399464
0.00402565
0.00404784
0.00407574
0.00413727
0.00424466
0.00439047
0.00508876
0.00446316
0.0042024
0.00405799
0.00399066
0.00393912
0.00390643
0.00389605
0.00388944
0.00387833
0.0038745
0.00387324
0.00388376
0.00391569
0.00395287
0.00397448
0.00399757
0.00402706
0.00405704
0.00412987
0.00423351
0.00437439
0.00454593
0.00504262
0.00444574
0.00418357
0.00404165
0.00398029
0.00393246
0.00389988
0.00389432
0.00388525
0.00387576
0.0038714
0.00386902
0.00388023
0.003919
0.0039547
0.00397729
0.00400245
0.00403573
0.0040965
0.00421317
0.0043493
0.00452679
0.00472123
0.00502936
0.00442912
0.00416448
0.00402523
0.00397289
0.00392752
0.00389782
0.00389253
0.00388009
0.00387269
0.00386712
0.00386371
0.00387573
0.00391948
0.00395701
0.00398197
0.0040117
0.00407888
0.00417323
0.00433396
0.0045035
0.00470529
0.00491364
0.00498734
0.00441537
0.0041429
0.00401117
0.00396799
0.00392554
0.00388963
0.00388973
0.0038712
0.00386389
0.00385925
0.00385813
0.00387381
0.00391914
0.00396147
0.00399278
0.0040463
0.00414989
0.00427796
0.00447812
0.00467281
0.00489556
0.00511406
0.00497752
0.00440119
0.00412458
0.00400462
0.00396449
0.00392288
0.0038954
0.00388359
0.00386023
0.00385505
0.00385352
0.00385488
0.00387243
0.00392077
0.00396653
0.00403183
0.00411474
0.00425715
0.00441459
0.0046431
0.00486549
0.00510016
0.00531856
0.00493974
0.00438564
0.00410353
0.00398941
0.00396387
0.00392201
0.003893
0.00387788
0.00385179
0.00384669
0.00384719
0.00385163
0.00387201
0.00392137
0.00398837
0.00409633
0.00420934
0.00438537
0.00457107
0.00482527
0.00506019
0.00530783
0.005527
0.00492949
0.00437399
0.00408962
0.00398762
0.00396158
0.00391962
0.00389493
0.0038678
0.00384073
0.00383916
0.00384262
0.00384977
0.00387243
0.00393357
0.00404939
0.00419331
0.00433638
0.00454092
0.00474499
0.0050124
0.00526254
0.00551044
0.00572274
0.00491451
0.00436015
0.00408212
0.00398705
0.00396148
0.00391598
0.00389216
0.00386161
0.00383582
0.00383447
0.00383985
0.0038499
0.00388202
0.00397598
0.00413876
0.00431487
0.00448388
0.00471066
0.00493393
0.00521346
0.00546125
0.00571487
0.00592529
0.00490053
0.00435016
0.00407809
0.00398686
0.00395741
0.00390676
0.00388485
0.00385413
0.00383098
0.00383109
0.00383945
0.00385861
0.00391907
0.00404999
0.00425568
0.00445783
0.00465015
0.00489327
0.00512581
0.00541044
0.00566705
0.00591122
0.0061068
0.00488561
0.00433957
0.00407446
0.00398688
0.00394428
0.00389489
0.00387625
0.00385049
0.00382727
0.0038303
0.00384674
0.00389212
0.00398553
0.00415028
0.00439525
0.00461777
0.0048286
0.00508339
0.00532562
0.00561022
0.00585304
0.00609735
0.00628574
0.00487308
0.00433049
0.00407113
0.00398967
0.00392514
0.00388162
0.00386794
0.00384566
0.00382723
0.00383806
0.00387534
0.00395355
0.00407851
0.00427482
0.00455258
0.00479043
0.00501446
0.00527333
0.00551647
0.00579737
0.00603975
0.00626615
0.00643364
0.00486042
0.00432417
0.00406632
0.00398289
0.00390382
0.00386944
0.00386132
0.00384474
0.00383523
0.00386421
0.00393205
0.00403995
0.00419488
0.00441646
0.00472155
0.00496803
0.00520073
0.00546001
0.00570219
0.00597199
0.00619527
0.00641644
0.00657214
0.00485051
0.00431631
0.00405717
0.00397209
0.00388306
0.00385774
0.00385558
0.00384794
0.00386567
0.00391977
0.00401273
0.00414852
0.00432847
0.00457035
0.00489516
0.00514695
0.00538191
0.00563544
0.00587278
0.00613244
0.00634764
0.00654802
0.00668337
0.00484218
0.00430877
0.0040443
0.00395478
0.00386512
0.00385126
0.00385353
0.00386796
0.00391778
0.00399784
0.00411528
0.00427359
0.0044745
0.00472963
0.00506995
0.00532039
0.00555434
0.00579913
0.00602696
0.00627026
0.00646689
0.00665725
0.00678118
0.00483664
0.00429658
0.00402775
0.00393931
0.00385172
0.00384506
0.00385683
0.00390762
0.00399668
0.00409797
0.00423499
0.00441121
0.00462665
0.0048903
0.00523853
0.00548607
0.00571348
0.00594657
0.00616687
0.00639705
0.00658192
0.00675306
0.00686219
0.00483237
0.00428044
0.00400998
0.00392557
0.00384271
0.00384339
0.00387319
0.00397341
0.00409246
0.00421686
0.0043671
0.00455475
0.00477987
0.00504611
0.0054006
0.00563938
0.00585809
0.00607698
0.00628296
0.00649851
0.00666584
0.00682673
0.00692887
0.00483062
0.00425898
0.00399173
0.00391479
0.00383702
0.00385073
0.00391917
0.00405567
0.00421018
0.0043464
0.00450775
0.00470107
0.00493007
0.00519591
0.00554982
0.00577947
0.00598649
0.0061917
0.00639005
0.00659053
0.00674739
0.00689475
0.00698845
0.00482849
0.00423573
0.00397545
0.00390599
0.00383841
0.00388119
0.00398591
0.00416186
0.00433581
0.00448733
0.00464989
0.00484395
0.00507277
0.00533414
0.00568797
0.00590451
0.00609847
0.0062883
0.00647201
0.0066628
0.00680357
0.00694602
0.00703488
0.0048276
0.00421091
0.0039626
0.00390345
0.00385442
0.00394331
0.00407682
0.00427754
0.00447329
0.00462709
0.00479364
0.00498216
0.00520646
0.00546227
0.00581078
0.00601433
0.00619472
0.00637208
0.00654991
0.00672385
0.00686002
0.00699512
0.00707725
0.00482502
0.0041876
0.00395233
0.00390626
0.0038925
0.00402621
0.00418468
0.00440665
0.00460918
0.00476834
0.00492864
0.00511046
0.00532823
0.00557625
0.00592097
0.00611004
0.00627654
0.00644126
0.00660642
0.00677546
0.00690128
0.00703377
0.00710987
0.00482119
0.00416596
0.00394976
0.0039252
0.00395272
0.00413165
0.00430496
0.00453837
0.00474449
0.00489997
0.00505866
0.00523001
0.00543772
0.00567855
0.00601619
0.0061911
0.00634458
0.00649963
0.00666208
0.00681535
0.00694182
0.00707079
0.00713876
0.00481248
0.00414861
0.0039488
0.00396299
0.00402897
0.00424493
0.00443049
0.00466948
0.0048712
0.00502339
0.00517459
0.00533604
0.00553457
0.00576717
0.00609979
0.00626086
0.00640233
0.00654943
0.00670283
0.00685369
0.00697804
0.00709944
0.0071601
0.00480331
0.00413557
0.00396764
0.00401752
0.00411997
0.00436681
0.00455941
0.00479574
0.00498868
0.005135
0.00527958
0.00543211
0.00561831
0.00584479
0.00617031
0.00631809
0.00644823
0.00658998
0.00674388
0.0068826
0.00700967
0.00712791
0.00718057
0.004786
0.00412613
0.00399628
0.00408741
0.00421846
0.00448487
0.00468054
0.00491222
0.00509257
0.00523349
0.00536945
0.00551347
0.00569059
0.00591026
0.00623066
0.00636671
0.00648828
0.00662575
0.0067779
0.00691569
0.00704292
0.00714908
0.00719684
0.0047671
0.00412594
0.00404993
0.00416794
0.00432144
0.00459912
0.00479848
0.00501702
0.00518622
0.0053201
0.00544864
0.00558559
0.00575156
0.00596729
0.00628077
0.00640587
0.00651826
0.00665565
0.00681039
0.00693897
0.0070739
0.00717478
0.00721568
0.00474548
0.00413273
0.00410631
0.00425631
0.00442606
0.00470329
0.00490306
0.00510876
0.00526637
0.00539485
0.00551318
0.00564381
0.00580218
0.00601362
0.00632232
0.00643843
0.00654617
0.00668046
0.00684182
0.00697208
0.00710258
0.00719248
0.00723344
0.00472647
0.00414801
0.00417772
0.00434918
0.00452707
0.0047973
0.00500129
0.0051889
0.00533811
0.00545923
0.00557229
0.00569512
0.00584572
0.00605522
0.00635596
0.00646438
0.00656549
0.00670327
0.00686887
0.00699328
0.00713595
0.00722168
0.00725671
0.00470802
0.00417886
0.00424822
0.00444159
0.00462691
0.00488231
0.00508742
0.00525611
0.00540094
0.00551338
0.00561917
0.00573459
0.00587912
0.00608682
0.00638346
0.00648608
0.00658506
0.00672079
0.00689624
0.00702558
0.00716301
0.0072402
0.00727804
0.00469337
0.00421858
0.00432459
0.00453573
0.00471982
0.00495896
0.00516719
0.00531869
0.00545845
0.00556044
0.0056624
0.00577042
0.00591056
0.00611683
0.00640464
0.00650198
0.00659672
0.00673938
0.00692265
0.00704818
0.00719383
0.00727103
0.00730418
0.00468224
0.00427767
0.00439973
0.00462316
0.00481211
0.00503218
0.00523837
0.00537307
0.00550903
0.00560056
0.00569544
0.00579677
0.00593193
0.00613765
0.00642235
0.00651672
0.00660949
0.00675356
0.00694345
0.00707887
0.00722331
0.00729457
0.0073324
0.00468432
0.00434609
0.00447879
0.00471358
0.00489934
0.0051008
0.00530461
0.00542767
0.00555273
0.0056349
0.00572441
0.00582233
0.00595514
0.00615923
0.00643516
0.00652605
0.00661729
0.00677224
0.00697344
0.00710864
0.00725058
0.00732546
0.00735901
0.00469222
0.00443194
0.00455986
0.0047985
0.00498921
0.00517084
0.00536633
0.00547593
0.00559051
0.00566416
0.00574705
0.00584137
0.00596976
0.00617276
0.00644507
0.00653459
0.00662508
0.00678428
0.00699009
0.0071324
0.00727385
0.00734836
0.00738879
0.00471416
0.00452987
0.00465191
0.00489335
0.00507935
0.00524145
0.00542517
0.00552472
0.00562168
0.00568925
0.00576686
0.00586129
0.00598745
0.00618725
0.00645113
0.00653929
0.0066303
0.00679806
0.0070167
0.00716234
0.00729906
0.00737389
0.00741017
0.00474927
0.00463817
0.00474661
0.00498379
0.00516696
0.00531014
0.00547922
0.00556387
0.00564674
0.00570823
0.00577956
0.0058771
0.00599855
0.00619428
0.00645346
0.00654116
0.00663516
0.00680358
0.00703201
0.00717389
0.00730996
0.00738689
0.00742547
0.00479538
0.00474415
0.00484644
0.00507658
0.00524686
0.00537414
0.00552612
0.00559882
0.00566658
0.00572454
0.0057902
0.0058923
0.00601124
0.00620217
0.00645423
0.006542
0.00664384
0.00680752
0.00704643
0.00719144
0.00732763
0.00740088
0.00743326
0.00484762
0.00484757
0.00494421
0.00516037
0.00531892
0.00543177
0.00556608
0.00562603
0.00568383
0.00573695
0.0057983
0.00590568
0.0060201
0.00620589
0.00645516
0.00654277
0.00665028
0.00680903
0.0070563
0.00719938
0.00733625
0.00740639
0.0074401
0.00490459
0.00494173
0.0050399
0.0052386
0.00538115
0.00548243
0.00559813
0.00564958
0.00569771
0.00574918
0.00580634
0.00591806
0.00603005
0.00621085
0.00645798
0.00654452
0.00666173
0.00680849
0.00706424
0.00721265
0.00735145
0.0074153
0.0074434
0.00496112
0.00502752
0.00512857
0.0053047
0.00543435
0.00552507
0.00562436
0.00566802
0.00571076
0.00575971
0.00581395
0.00592896
0.00603743
0.0062134
0.00645675
0.00654589
0.00666855
0.00681037
0.00706873
0.00721845
0.00735208
0.00741882
0.00744693
0.00501567
0.0051033
0.00521036
0.00536358
0.00547969
0.00556142
0.00564603
0.00568408
0.00572141
0.00577126
0.00582199
0.00593908
0.00604592
0.00621751
0.00645724
0.0065481
0.00667812
0.00681224
0.007078
0.00722467
0.00735408
0.00742605
0.00745289
0.00506431
0.0051666
0.00527772
0.00540959
0.00551485
0.00558836
0.00566326
0.00569644
0.00573114
0.00578103
0.0058292
0.00594631
0.006051
0.00621778
0.0064533
0.00654796
0.00668011
0.00680834
0.00707734
0.00721706
0.00733559
0.00742547
0.00745099
0.00510642
0.00522027
0.00533515
0.00544993
0.00554479
0.00561131
0.00567831
0.00570822
0.0057393
0.00579093
0.00583605
0.00595254
0.00605616
0.00621791
0.00644839
0.00654464
0.00668055
0.00680571
0.00707381
0.00720481
0.00731391
0.00741982
0.00745102
0.00514697
0.0052681
0.00538447
0.00548464
0.00557024
0.00562994
0.00569196
0.00571915
0.00574821
0.00580009
0.00584345
0.00595772
0.00605989
0.00621753
0.00644255
0.00653938
0.00668005
0.00680344
0.00706505
0.00718599
0.0072911
0.0074045
0.00744995
0.00518435
0.0053114
0.00542753
0.00551607
0.00559262
0.00564682
0.0057046
0.00573056
0.00575667
0.00580918
0.00585051
0.00596275
0.00606404
0.00621741
0.00643713
0.00653261
0.00667574
0.00680047
0.00705016
0.00716361
0.0072661
0.00738607
0.00744746
0.00522132
0.00534893
0.00546317
0.00554361
0.00561225
0.00566103
0.00571625
0.00574153
0.00576568
0.00581732
0.00585827
0.00596667
0.00606704
0.00621843
0.00643253
0.00652567
0.00666938
0.00679642
0.00703204
0.00713861
0.00724187
0.00736252
0.00744436
0.00525775
0.00538472
0.00549481
0.00556797
0.00562944
0.00567505
0.00572743
0.00575316
0.0057754
0.0058253
0.00586557
0.00597128
0.006071
0.00621986
0.00643014
0.00652325
0.00666211
0.00679189
0.00701432
0.00711598
0.00721905
0.00734301
0.0074419
0.00529319
0.00541409
0.00552045
0.00559018
0.00564581
0.00568762
0.00573837
0.00576402
0.00578489
0.00583271
0.00587365
0.00597486
0.00607393
0.00622069
0.00642883
0.00652044
0.00665624
0.00678783
0.00699806
0.00709952
0.00720086
0.00732545
0.00743221
0.00533002
0.00544389
0.00554429
0.00560944
0.00566039
0.00570084
0.00574871
0.00577555
0.00579561
0.00583973
0.005881
0.00597976
0.0060789
0.00622448
0.00642816
0.00652064
0.0066522
0.00678485
0.00698671
0.00708879
0.00718832
0.00731236
0.00742988
0.00536392
0.00546799
0.00556383
0.0056279
0.00567535
0.00571321
0.00575976
0.00578582
0.00580556
0.0058471
0.00588905
0.0059839
0.00608416
0.00622827
0.00642963
0.00652037
0.00665145
0.00678233
0.00698019
0.00708568
0.00718134
0.00730118
0.00742811
0.0053994
0.00549276
0.00558362
0.0056445
0.00568924
0.00572642
0.00576989
0.005797
0.00581609
0.00585382
0.00589617
0.00599021
0.00608448
0.00623531
0.00643438
0.0065231
0.00665092
0.00678179
0.00697705
0.007084
0.00717802
0.00729364
0.00742755
0.00543041
0.00551553
0.00560066
0.00566085
0.00570402
0.00573884
0.00578077
0.00580676
0.0058263
0.00586135
0.00590379
0.00599231
0.00608521
0.00624562
0.00644411
0.00653165
0.00665211
0.00678398
0.00697638
0.00708398
0.00718022
0.00728841
0.00741526
0.00546174
0.00553649
0.00561925
0.0056764
0.00571761
0.00575246
0.00579146
0.00581783
0.00583585
0.00586873
0.00591042
0.0059936
0.00608668
0.00625366
0.00645742
0.006544
0.00665792
0.0067918
0.006979
0.00709187
0.00718348
0.00728571
0.0074118
0.00548938
0.00556067
0.00563665
0.00569245
0.00573246
0.00576462
0.00580201
0.00582743
0.00584564
0.00587592
0.00591753
0.00599436
0.0060883
0.00626404
0.00647141
0.00655889
0.00666727
0.00680129
0.00698507
0.00710029
0.00718576
0.0072802
0.00741036
0.00551481
0.00557957
0.00565523
0.0057071
0.0057463
0.00577871
0.00581291
0.00583867
0.00585489
0.00588431
0.00592345
0.00599451
0.00608815
0.0062639
0.0064875
0.00657311
0.00667785
0.00681244
0.00698484
0.0071076
0.00718906
0.00727765
0.00740688
0.00553962
0.00560383
0.00567367
0.00572338
0.00575965
0.00579038
0.0058242
0.00584809
0.00586309
0.00589102
0.00592957
0.00599489
0.00608947
0.00626769
0.00649751
0.00658604
0.00668682
0.00682126
0.00698515
0.00711036
0.00718923
0.00727727
0.0074018
0.00555918
0.00562156
0.00569132
0.00573726
0.00577441
0.00580311
0.00583341
0.00585878
0.00587233
0.00589856
0.00593551
0.00599583
0.00608984
0.00627166
0.00650358
0.00659559
0.00669397
0.00682188
0.00698587
0.00711077
0.00718988
0.00727371
0.00739557
0.00557963
0.00564194
0.0057097
0.00575116
0.00578549
0.00581504
0.00584543
0.00586737
0.0058793
0.00590571
0.00593936
0.00599601
0.00608957
0.00626921
0.00650417
0.00660123
0.00669732
0.00682289
0.00698604
0.00711182
0.00719105
0.00727289
0.00739089
0.00559927
0.00566007
0.00572508
0.00576624
0.00580011
0.00582539
0.00585388
0.00587713
0.00588735
0.00591045
0.00594677
0.00599912
0.00608993
0.00627001
0.00650515
0.0066035
0.00669769
0.00682406
0.0069871
0.0071116
0.0071905
0.00726911
0.00736809
0.00561545
0.00567813
0.00574472
0.0057786
0.00581317
0.00583986
0.00586584
0.0058858
0.00589487
0.0059189
0.00595204
0.00599767
0.00608735
0.00626925
0.0065063
0.00660317
0.00669792
0.00682513
0.00698671
0.00710541
0.00718364
0.00726199
0.00733163
0.0056439
0.00569957
0.00576224
0.00579623
0.00582895
0.00585197
0.00587803
0.00589602
0.00590543
0.00592519
0.00595395
0.00599758
0.00608684
0.00626962
0.00650889
0.00660289
0.00669571
0.00682547
0.00697789
0.0070843
0.00715797
0.00723336
0.00728341
0.00566902
0.00572428
0.0057832
0.00581581
0.0058443
0.00586898
0.00589132
0.00590975
0.00591297
0.00592835
0.00595833
0.00599769
0.00608651
0.00626547
0.00650832
0.00659739
0.00668446
0.0068171
0.0069555
0.00704995
0.00711572
0.00718786
0.00722385
0.00568374
0.0057364
0.00580045
0.00582959
0.00585964
0.00587606
0.00590049
0.00591362
0.00591765
0.00593184
0.00595778
0.0059975
0.00608569
0.00626509
0.00650538
0.00658544
0.00666541
0.00679423
0.00692131
0.00700479
0.00706123
0.00712877
0.00715749
0.00569762
0.00574086
0.00581612
0.00583906
0.00586502
0.00588005
0.00590485
0.00591567
0.00592176
0.00593805
0.00595839
0.0059973
0.00608417
0.00626623
0.00649417
0.00656811
0.0066399
0.00676055
0.00687778
0.00695248
0.0069994
0.00706278
0.00708708
0.00569775
0.00575312
0.00581601
0.00584971
0.00586724
0.00588417
0.00590746
0.00592016
0.00592417
0.00593705
0.00596014
0.00599677
0.0060828
0.0062625
0.00647858
0.00654775
0.0066105
0.00671979
0.00682815
0.0068963
0.00693583
0.0069937
0.00701724
0.00570032
0.00575859
0.005822
0.00584891
0.0058712
0.00588616
0.00590595
0.0059188
0.00592759
0.00593973
0.00595968
0.00599636
0.00608242
0.00625355
0.00645798
0.00652505
0.00658012
0.00667753
0.00677638
0.00684063
0.00687499
0.00692865
0.00695177
0.00570403
0.00575931
0.00582632
0.00585346
0.00586977
0.00588557
0.0059069
0.00591942
0.00592572
0.00593705
0.00595943
0.0059968
0.0060783
0.00624388
0.0064366
0.0065025
0.00655161
0.00663727
0.00672579
0.00678699
0.00681911
0.00686946
0.00689311
0.00570654
0.00576083
0.00582142
0.00585672
0.0058697
0.00588598
0.00591014
0.0059204
0.00592581
0.00593926
0.00596217
0.00599352
0.00607768
0.0062317
0.00641303
0.0064803
0.00652641
0.00660241
0.00667936
0.00673937
0.00676995
0.00681939
0.0068439
0.00570738
0.00576861
0.00582693
0.00585198
0.00587256
0.00589122
0.00591109
0.00592011
0.00592593
0.00593801
0.00596074
0.00599301
0.00607844
0.00622114
0.00639155
0.00646104
0.00650655
0.00657243
0.00663888
0.00669658
0.00672854
0.00677678
0.0068019
0.00570913
0.00576287
0.00582333
0.00585183
0.00587795
0.00589047
0.00591114
0.00592
0.00592589
0.00593803
0.00596013
0.00599288
0.00607851
0.00620896
0.00636946
0.00644333
0.0064904
0.00654908
0.00660527
0.00666154
0.00669398
0.00674118
0.00676835
0.00571481
0.0057625
0.00582268
0.00585452
0.00587401
0.00588962
0.00591012
0.00591967
0.005929
0.00593826
0.0059608
0.00599177
0.00607718
0.0061997
0.00635108
0.00642934
0.00647813
0.00652972
0.00657805
0.00663176
0.00666725
0.00671252
0.00673939
0.0057067
0.00576156
0.00582297
0.0058563
0.00587568
0.00588771
0.00591109
0.00591984
0.00592688
0.00593933
0.00595981
0.00599063
0.00607384
0.00618895
0.00633247
0.00641607
0.00646782
0.00651561
0.00655742
0.00660819
0.00664463
0.00668741
0.0067166
0.00570732
0.00576289
0.00582191
0.00585321
0.00587003
0.00588744
0.00590616
0.00591973
0.0059266
0.00593804
0.0059606
0.00598895
0.0060714
0.00618188
0.00631825
0.00640617
0.00645983
0.00650426
0.00654074
0.00658953
0.00662898
0.00666857
0.00669649
0.00571204
0.00576153
0.00581979
0.00585044
0.00587124
0.00588568
0.00591131
0.00592147
0.00592667
0.00593785
0.00595597
0.00598891
0.00606739
0.00617275
0.00630336
0.00639557
0.00645175
0.006495
0.00652902
0.00657347
0.00661422
0.00665244
0.00667989
0.00570257
0.00576178
0.00581875
0.00585023
0.00586939
0.00589006
0.00590826
0.00591635
0.00592846
0.00593545
0.00595504
0.00598413
0.00606468
0.00616754
0.00629302
0.00638817
0.00644578
0.00648791
0.00651899
0.00656256
0.00660445
0.00664037
0.00666636
0.00570201
0.00576365
0.00581559
0.00585137
0.00587037
0.00588496
0.00591053
0.00591548
0.00592349
0.0059362
0.00595516
0.00598785
0.00606031
0.00615924
0.0062811
0.00637867
0.00643765
0.00647936
0.00651039
0.00655078
0.00659463
0.00662815
0.00665464
0.005705
0.00576685
0.00581476
0.00585161
0.00586291
0.00588655
0.00591136
0.005915
0.00592265
0.00593086
0.00594961
0.00598339
0.00605763
0.00615486
0.00627381
0.0063728
0.00643247
0.00647411
0.00650409
0.00654142
0.00658661
0.00662017
0.00664253
0.00569294
0.00576546
0.00580473
0.00584818
0.00586205
0.00588339
0.00590868
0.00591353
0.0059245
0.00593041
0.00594828
0.00598538
0.00605262
0.00614632
0.00626355
0.00636337
0.00642336
0.00646501
0.00649591
0.00653237
0.00657777
0.0066108
0.00663305
0.00569065
0.00576169
0.00580223
0.00584585
0.00586354
0.0058798
0.00590642
0.00591088
0.00592575
0.00593144
0.00594547
0.00598476
0.00604984
0.00614185
0.00625848
0.00635857
0.00641867
0.00646005
0.00649156
0.00652285
0.00656967
0.00660449
0.00662394
0.00569147
0.00575534
0.00580201
0.00583991
0.0058556
0.00587687
0.00590368
0.00590834
0.00591879
0.00593247
0.0059445
0.00598068
0.00604327
0.00613163
0.00624696
0.00634781
0.00640872
0.00645053
0.00648291
0.00651409
0.00655758
0.0065955
0.0066169
0.00567723
0.00575153
0.00579104
0.00583477
0.00585548
0.00587312
0.00589848
0.00590799
0.00591713
0.00593086
0.00594299
0.00597925
0.00604224
0.00612858
0.00624515
0.00634501
0.00640482
0.00644525
0.00647699
0.00650742
0.00654997
0.00658796
0.00661046
0.00568623
0.00574035
0.00578957
0.00583245
0.0058571
0.00586921
0.00589586
0.00589947
0.00591479
0.00592672
0.00594126
0.00597316
0.00603359
0.0061158
0.00623218
0.00633272
0.00639429
0.00643658
0.00646645
0.0064938
0.00653714
0.00657481
0.0065964
0.00567418
0.00573777
0.00579136
0.00581965
0.00585949
0.00586788
0.00588479
0.00589678
0.0059128
0.00592272
0.0059423
0.005966
0.00602459
0.00610236
0.00621678
0.00631887
0.00638238
0.00642509
0.00645552
0.00648176
0.00652206
0.00656171
0.00658403
0.00567962
0.00572061
0.0057902
0.00581629
0.00585353
0.00585485
0.00588112
0.00589671
0.00590512
0.00591458
0.00593844
0.0059593
0.00601401
0.00608739
0.00619837
0.00630337
0.00636863
0.00641353
0.00644805
0.00646985
0.00650909
0.00654689
0.00657282
0.00567407
0.00571574
0.00578218
0.00581736
0.00584193
0.00585071
0.00588241
0.00589289
0.00590529
0.00590153
0.00593289
0.00595286
0.0060023
0.00607074
0.00617556
0.00628355
0.00635353
0.00639567
0.0064344
0.00645848
0.00649315
0.00653682
0.00655839
0.00565598
0.00571769
0.00576828
0.00580828
0.00582432
0.00585247
0.00586712
0.00588487
0.0058994
0.00589646
0.00592494
0.00594488
0.00598976
0.00605249
0.00614897
0.00626048
0.00633808
0.00637661
0.00641573
0.00644663
0.00647797
0.00651836
0.00654413
0.00562661
0.0057044
0.00575339
0.00579379
0.00580003
0.00584467
0.0058554
0.00587585
0.00588857
0.00589531
0.00591523
0.00593286
0.00597455
0.00603249
0.006117
0.00622955
0.00631869
0.00635661
0.00639296
0.00643209
0.00645862
0.00649832
0.00653217
0.00561733
0.00567081
0.00573934
0.00577508
0.00579098
0.00583284
0.00584131
0.00586633
0.00587415
0.00588463
0.0059024
0.00591944
0.00595883
0.00601175
0.00608371
0.00619063
0.00629237
0.00633532
0.00636971
0.00640887
0.00643759
0.00647032
0.00651261
0.00562226
0.00565697
0.00572277
0.00575612
0.00579128
0.00582056
0.00582088
0.00585375
0.00585719
0.00587313
0.00588904
0.00590562
0.00594099
0.00598855
0.00604886
0.00614249
0.00625113
0.00631133
0.00634915
0.00638727
0.00641489
0.00645049
0.00649178
0.00561298
0.00562088
0.00570205
0.00574178
0.0057773
0.00580431
0.00581806
0.00583628
0.0058463
0.00585918
0.00587223
0.00588818
0.00592027
0.00596362
0.00601372
0.00609076
0.00619577
0.00627594
0.00631899
0.00636146
0.00639427
0.0064217
0.00646818
0.00559353
0.00562402
0.00568201
0.00572278
0.00575862
0.00578635
0.00580344
0.0058168
0.00583213
0.00584387
0.00585504
0.00586921
0.00589581
0.00593498
0.00597686
0.006036
0.00612803
0.00622401
0.00627811
0.00632633
0.00636651
0.00639534
0.00642649
0.00556376
0.00560462
0.00565655
0.00569651
0.00573276
0.00576214
0.00577882
0.00579205
0.00580931
0.00582149
0.00583099
0.00584439
0.00586814
0.00590394
0.00594033
0.00598507
0.00604988
0.00614822
0.0062159
0.00627156
0.00631731
0.00635047
0.00638351
0.0055279
0.00557697
0.00562577
0.00566773
0.00570351
0.00573366
0.00575044
0.00576475
0.00578353
0.00579589
0.00580536
0.00581682
0.005836
0.00586772
0.00590118
0.00593737
0.00598289
0.00605962
0.00613484
0.00619907
0.00625154
0.00628541
0.00632242
0.00547779
0.0055389
0.00558382
0.00563083
0.00566518
0.00569499
0.00571225
0.00572933
0.00574773
0.00576086
0.00576961
0.00578112
0.0057995
0.00582745
0.00585712
0.00588872
0.0059185
0.00596861
0.00603463
0.00609903
0.00615846
0.00619589
0.00623604
0.00542525
0.00549608
0.00553782
0.00559121
0.00562312
0.00565202
0.00567152
0.00569029
0.00570887
0.00572311
0.00573283
0.00574253
0.00575827
0.00578289
0.00581037
0.00583962
0.00586539
0.00589618
0.00594527
0.00599755
0.006056
0.00609371
0.00613347
0.00536725
0.0054422
0.00548356
0.00554067
0.00557015
0.00559785
0.00561975
0.00564039
0.0056578
0.00567324
0.00568372
0.0056945
0.00571073
0.00573009
0.0057545
0.00577905
0.00580283
0.00582251
0.00585513
0.00589063
0.00593993
0.00597497
0.0060129
0.00531145
0.00538419
0.00542817
0.00548622
0.00551422
0.00554177
0.00556546
0.00558713
0.0056048
0.00562155
0.0056328
0.00564266
0.00565902
0.00567477
0.00569818
0.00571842
0.00574399
0.00576054
0.00578587
0.00580828
0.00584649
0.00587447
0.0059075
0.0052445
0.00531256
0.00535972
0.00541602
0.00544481
0.00547176
0.00549631
0.00551953
0.00553675
0.00555422
0.00556691
0.00557666
0.00559375
0.00560548
0.00562537
0.00563962
0.00566329
0.00567694
0.0056978
0.00571241
0.00573889
0.00575977
0.00578762
0.00517149
0.00523732
0.0052864
0.00534098
0.00537288
0.00540027
0.00542355
0.00544828
0.00546808
0.00548628
0.00549908
0.00550813
0.00552509
0.0055363
0.00555447
0.00556579
0.00558592
0.00559928
0.00562096
0.00563329
0.00565498
0.00566954
0.00569097
0.00507472
0.0051436
0.00519254
0.00524553
0.00528233
0.00530944
0.00533123
0.0053564
0.00537733
0.00539723
0.00541173
0.00541995
0.00543531
0.0054448
0.00546151
0.00547077
0.00548708
0.00549659
0.00551321
0.00552274
0.00553985
0.00555094
0.00556989
0.004973
0.00504777
0.00509555
0.00514847
0.00519035
0.00521804
0.00523787
0.00526304
0.00528615
0.0053064
0.00532293
0.00533116
0.00534648
0.00535503
0.00536992
0.00537829
0.00539348
0.00540278
0.00541977
0.00542879
0.00544319
0.00545076
0.00546442
0.00484807
0.00492829
0.00497479
0.00502747
0.00507319
0.00510086
0.00511981
0.00514326
0.00516547
0.00518572
0.00520395
0.00521244
0.00522717
0.00523508
0.00524792
0.0052546
0.00526631
0.00527323
0.0052861
0.00529392
0.00530833
0.0053161
0.00533009
0.00472982