/*--------------------------------*- C++ -*----------------------------------*\
  =========                 |
  \\      /  F ield         | OpenFOAM: The Open Source CFD Toolbox
   \\    /   O peration     | Website:  https://openfoam.org
    \\  /    A nd           | Version:  7
     \\/     M anipulation  |
\*---------------------------------------------------------------------------*/
FoamFile
{
    version     2.0;
    format      ascii;
    class       volScalarField;
    location    "52";
    object      nut;
}
// * * * * * * * * * * * * * * * * * * * * * * * * * * * * * * * * * * * * * //

dimensions      [0 2 -1 0 0 0 0];

internalField   nonuniform List<scalar> 
12842
(
0.0018075
0.00179851
0.00178535
0.001783
0.0017689
0.00176744
0.00175785
0.00176028
0.00175459
0.00175801
0.00175423
0.00175801
0.00175571
0.00175993
0.00153513
0.000807512
0.000494094
0.000338347
0.000248521
0.0001916
0.000153743
0.000128097
0.00010979
0.00181045
0.00178875
0.00178094
0.00178478
0.00177551
0.00177183
0.00175938
0.00176085
0.00175506
0.00175716
0.00175375
0.00175597
0.00175497
0.00175932
0.00145362
0.000767252
0.000471092
0.000324117
0.000239151
0.00018552
0.000149578
0.000125722
0.000107886
0.00181416
0.00179178
0.00177008
0.00177306
0.00177289
0.00177314
0.00175867
0.00176061
0.0017565
0.00175889
0.00175558
0.001756
0.00175496
0.00175873
0.00139045
0.000739442
0.000457286
0.000316286
0.00023444
0.000182497
0.00014746
0.000124572
0.000106594
0.00180616
0.00180201
0.00177586
0.00177209
0.00177088
0.00177373
0.00175979
0.0017588
0.00175399
0.00175792
0.00175686
0.00175611
0.0017556
0.00175794
0.00131838
0.000706597
0.000439971
0.000306066
0.000227876
0.000178174
0.000144373
0.000122691
0.000104782
0.00180736
0.00179113
0.00177411
0.00177048
0.0017679
0.00177533
0.00176292
0.00176032
0.00175478
0.0017591
0.00175712
0.00175663
0.00175654
0.00175847
0.0012513
0.000674868
0.000422838
0.000295896
0.000221159
0.000173701
0.000141217
0.000120673
0.000102934
0.00180544
0.00179609
0.00177375
0.00176886
0.00176652
0.00177461
0.00176551
0.00176063
0.0017546
0.00175976
0.00175783
0.00175637
0.00175749
0.00175926
0.00119859
0.000649348
0.000408599
0.000286985
0.000215571
0.000169698
0.000138368
0.000118727
0.000101169
0.00180463
0.00179062
0.00177173
0.00176445
0.00176397
0.00177325
0.00176969
0.00176513
0.00175664
0.0017606
0.00175701
0.00175545
0.00175744
0.00175975
0.0011637
0.000631877
0.00039856
0.000280603
0.000211044
0.000166591
0.000135795
0.000116986
9.94997e-05
0.00180368
0.00179295
0.00177233
0.00176158
0.00176011
0.00176945
0.0017685
0.00176595
0.00175818
0.00176141
0.0017572
0.00175556
0.001758
0.00176052
0.00114613
0.000621051
0.000391111
0.000275172
0.000207023
0.000163546
0.00013329
0.000115107
9.78327e-05
0.00180222
0.0017905
0.00177114
0.00176005
0.0017583
0.00176711
0.00176916
0.00176815
0.00176096
0.00176235
0.00175662
0.00175585
0.00175821
0.00176129
0.0011318
0.000612407
0.000385409
0.000271017
0.000204056
0.000161269
0.000131388
0.000113634
9.65613e-05
0.0018015
0.00178855
0.00177282
0.00175898
0.00175678
0.001764
0.00176661
0.00176633
0.00176094
0.0017608
0.00175651
0.00175624
0.00175803
0.00176173
0.00111017
0.000601996
0.000379562
0.000267248
0.000201485
0.00015955
0.000129935
0.000112505
9.55261e-05
0.00180014
0.00178856
0.00177226
0.00176045
0.00175733
0.00176287
0.00176602
0.00176563
0.00176092
0.00176065
0.00175602
0.00175616
0.00175801
0.00176202
0.00109051
0.000592231
0.000373832
0.00026347
0.000198733
0.000157675
0.000128403
0.000111244
9.44203e-05
0.00179987
0.00178318
0.00177203
0.0017604
0.0017571
0.00176033
0.00176272
0.00176254
0.00175937
0.00175914
0.00175616
0.00175635
0.0017579
0.00176229
0.00107037
0.000582075
0.000367787
0.000259466
0.000195853
0.000155648
0.000126835
0.000109815
9.33049e-05
0.00179891
0.00178264
0.00177163
0.00176357
0.00175919
0.00175963
0.00176094
0.00176078
0.00175852
0.00175864
0.00175623
0.00175571
0.00175768
0.00176326
0.0010506
0.000571855
0.000361535
0.000255492
0.000193068
0.000153692
0.000125158
0.000108366
9.22713e-05
0.00179865
0.00177804
0.00177072
0.00176286
0.0017593
0.00175705
0.00175777
0.00175793
0.00175737
0.00175829
0.00175634
0.00175551
0.00175776
0.00176384
0.00103124
0.00056182
0.000355561
0.000251694
0.000190591
0.000151634
0.000123484
0.000107051
9.18513e-05
0.00179767
0.00177688
0.00177055
0.00176546
0.00176111
0.00175679
0.00175558
0.00175708
0.0017574
0.00175772
0.0017567
0.0017556
0.00175822
0.00176495
0.00101195
0.000551939
0.000349768
0.000248227
0.000187962
0.000149521
0.000122093
0.000106179
9.24559e-05
0.00179724
0.00177463
0.00177037
0.00176317
0.0017606
0.00175458
0.00175425
0.00175617
0.00175755
0.00175715
0.00175733
0.00175637
0.00175899
0.00176595
0.000992952
0.000542138
0.000344188
0.000244737
0.000185581
0.00014779
0.00012142
0.000106552
9.3953e-05
0.00179583
0.00177507
0.00176903
0.00176382
0.00176144
0.00175465
0.00175334
0.00175731
0.00175844
0.00175822
0.00175875
0.00175745
0.00175991
0.00176679
0.000974644
0.000532989
0.000339278
0.000241859
0.000183321
0.000146634
0.000121733
0.000107854
9.64222e-05
0.00179511
0.00177512
0.00176908
0.00176065
0.00176144
0.00175347
0.00175236
0.00175805
0.0017588
0.00175801
0.00175955
0.00175801
0.00175964
0.00176679
0.000958367
0.00052601
0.000335946
0.00023947
0.000181844
0.000147283
0.000123853
0.000110433
9.98562e-05
0.00179305
0.00177798
0.00176598
0.00175996
0.00176161
0.00175422
0.00175254
0.0017602
0.00175992
0.00175984
0.00176094
0.00175826
0.00175895
0.00176812
0.000949609
0.000523151
0.00033446
0.000238287
0.000182255
0.000149403
0.000127043
0.000114072
0.000104252
0.00179216
0.00177953
0.00176536
0.00175833
0.00176306
0.00175526
0.00175345
0.00176125
0.00175945
0.00176005
0.0017602
0.00175672
0.00175661
0.00176408
0.000952517
0.000525023
0.000335103
0.000239931
0.000184985
0.00015347
0.000132002
0.000119043
0.0001097
0.00178951
0.00178226
0.00176083
0.00175693
0.00176342
0.00175642
0.00175382
0.00176371
0.00175885
0.00175885
0.00175878
0.00175534
0.00175378
0.00174944
0.000966739
0.000530662
0.000339118
0.000244068
0.000189695
0.000159048
0.000138212
0.000125236
0.000116139
0.00178886
0.00178428
0.00175984
0.00175882
0.00176539
0.00175956
0.00175929
0.00176415
0.00175521
0.0017556
0.00175642
0.00175187
0.00173918
0.00172217
0.000988624
0.0005425
0.00034723
0.000251209
0.000196725
0.000166308
0.000146099
0.000132948
0.000123651
0.00178642
0.00178457
0.00175522
0.00175579
0.00176714
0.00176164
0.00176379
0.00176447
0.00175398
0.00175279
0.00175372
0.00174812
0.00171851
0.00168745
0.00101996
0.000559959
0.000358848
0.000260636
0.000205624
0.00017515
0.000155073
0.000142111
0.000132439
0.00178586
0.00178575
0.00175366
0.00175672
0.00176733
0.00176456
0.0017693
0.00176348
0.0017488
0.00174895
0.00174882
0.00173061
0.00168086
0.0016457
0.00105773
0.000581472
0.000373146
0.000272172
0.000216151
0.000185239
0.00016548
0.000152595
0.000142317
0.00178511
0.00178368
0.00175229
0.00175834
0.00176912
0.00176631
0.00177096
0.00176166
0.00174522
0.00174324
0.00173646
0.00170083
0.00164216
0.00161467
0.00109741
0.000604544
0.000389262
0.000285238
0.000228398
0.000197063
0.000177064
0.000164647
0.000153843
0.00178317
0.00178333
0.00175256
0.00175972
0.00176944
0.00176546
0.00177007
0.00175972
0.00173655
0.00172853
0.00170999
0.00166528
0.00161089
0.00159499
0.00114358
0.000631736
0.000407803
0.000300192
0.000242024
0.000210007
0.000190165
0.000177635
0.000166023
0.00178332
0.00178098
0.00175208
0.00176262
0.00176643
0.0017629
0.00176862
0.00175728
0.00171849
0.00170293
0.00167809
0.00163483
0.00158901
0.00158472
0.00119603
0.000661781
0.000428666
0.000316749
0.000257098
0.000224168
0.0002036
0.000191333
0.000179118
0.00178177
0.00177952
0.00175235
0.0017656
0.00176078
0.00175975
0.00176568
0.00174903
0.00169284
0.00167305
0.00164598
0.00161062
0.00157704
0.00158473
0.00125142
0.000694098
0.000450577
0.000334138
0.000272671
0.000238743
0.000217953
0.000205175
0.000192103
0.0017832
0.00177799
0.00175204
0.001767
0.00175361
0.00175515
0.0017617
0.00172873
0.00166303
0.00164283
0.00162197
0.00159549
0.00157432
0.00159197
0.00130859
0.000726834
0.000473385
0.000352159
0.000288724
0.000253605
0.000231937
0.000219055
0.000205414
0.0017827
0.0017769
0.00175102
0.00176463
0.00174452
0.00174939
0.00175132
0.00170013
0.00163583
0.00162094
0.00160353
0.00158775
0.00157951
0.0016061
0.00136535
0.000760237
0.000496216
0.000370279
0.000304899
0.00026865
0.000246478
0.000232722
0.000218389
0.00178611
0.00177529
0.00174943
0.00175962
0.00173324
0.00173952
0.00172898
0.00166782
0.00161447
0.00160466
0.00159399
0.0015877
0.001591
0.00162398
0.00142248
0.000793098
0.000519163
0.000388474
0.000320835
0.000283323
0.000260313
0.000245981
0.000231283
0.0017875
0.0017739
0.00174574
0.00175545
0.00171696
0.0017181
0.00170024
0.00163966
0.00160106
0.00159629
0.00159105
0.00159409
0.00160714
0.00164535
0.00147765
0.000825797
0.000541669
0.000406318
0.000336752
0.000298025
0.000274364
0.000258885
0.000243987
0.0017926
0.00176977
0.00174367
0.00174907
0.00169649
0.00169041
0.0016685
0.00161858
0.00159354
0.00159501
0.00159494
0.00160567
0.00162628
0.00166747
0.00153216
0.000857261
0.000563588
0.000423781
0.000351842
0.000311987
0.000287477
0.000271069
0.000256231
0.00179527
0.00176682
0.00173813
0.00173966
0.00166906
0.00165708
0.00164501
0.00160491
0.00159594
0.00159975
0.00160519
0.001621
0.0016473
0.00169066
0.00158405
0.000888203
0.000584991
0.000440697
0.0003669
0.000325675
0.000300483
0.000282772
0.000268365
0.00180062
0.0017613
0.00173471
0.00172411
0.00164296
0.00163135
0.00162829
0.00160143
0.00160149
0.00161041
0.00161823
0.00163971
0.0016688
0.00171256
0.00163481
0.000917583
0.000605415
0.00045702
0.000380857
0.000338619
0.000312513
0.00029376
0.000279858
0.00180337
0.00175451
0.00173013
0.00170528
0.00161778
0.00161455
0.00162025
0.00160483
0.00161526
0.00162455
0.00163736
0.00165927
0.00169017
0.00173409
0.00168317
0.000946552
0.000625446
0.00047274
0.000394723
0.000350863
0.000324188
0.000304088
0.000291052
0.00180812
0.00174977
0.0017227
0.0016839
0.00160293
0.0016074
0.00162051
0.00161538
0.00163024
0.00164249
0.00165519
0.00168028
0.00171061
0.0017532
0.00173052
0.000974017
0.000644499
0.00048796
0.000407542
0.000362623
0.00033508
0.000313693
0.000301461
0.00181046
0.00174035
0.00171434
0.00166691
0.00159583
0.00160946
0.0016271
0.00163099
0.00164895
0.00166132
0.00167739
0.00170047
0.00172947
0.0017712
0.0017762
0.00100146
0.000663369
0.000502536
0.000420143
0.00037337
0.00034526
0.000322421
0.000311329
0.00181298
0.00173538
0.00169905
0.00165518
0.00159608
0.00161703
0.00163788
0.00164917
0.00166808
0.0016804
0.00169605
0.00171955
0.00174699
0.00178644
0.0018215
0.00102778
0.000681499
0.000516879
0.000431981
0.000383928
0.000355034
0.000330264
0.000320086
0.00181573
0.00172549
0.00168817
0.00165
0.00160356
0.00163025
0.00165376
0.00166906
0.00168711
0.0016993
0.00171572
0.00173697
0.00176202
0.00180041
0.00184902
0.00105463
0.000699739
0.000530699
0.000443552
0.000393439
0.000363639
0.000337107
0.000328345
0.00181362
0.00171645
0.00167846
0.00164989
0.00161498
0.00164574
0.00166864
0.00168928
0.00170464
0.00171502
0.00173056
0.00175181
0.00177582
0.00181167
0.00185855
0.00108081
0.000717576
0.00054447
0.000454711
0.000402989
0.000372246
0.000343189
0.000335522
0.00181396
0.00170693
0.0016753
0.0016541
0.00162886
0.00166184
0.00168669
0.00170625
0.00172052
0.00172864
0.00174472
0.00176566
0.00178688
0.0018219
0.0018664
0.00110825
0.000735889
0.000558138
0.000465743
0.000411644
0.000379782
0.00034844
0.000342125
0.00180834
0.00169966
0.00167177
0.00166164
0.00164528
0.00167788
0.00170139
0.00172169
0.00173367
0.00174229
0.00175653
0.0017766
0.00179678
0.00182981
0.00187291
0.00113559
0.000754335
0.000571924
0.000476627
0.000420633
0.000387326
0.000353151
0.000348003
0.00180586
0.00169087
0.00167096
0.00166989
0.00165902
0.00169089
0.00171699
0.00173244
0.00174515
0.00175336
0.00176972
0.00178651
0.00180454
0.00183702
0.00187779
0.0011649
0.000773631
0.000586137
0.000487852
0.000429189
0.000394406
0.000357588
0.000353359
0.00179854
0.00168515
0.00166741
0.00167888
0.00167426
0.0017027
0.00172852
0.00174186
0.00175464
0.00176413
0.00177916
0.00179396
0.00181101
0.00184241
0.00188212
0.00119505
0.000793952
0.000600807
0.000499172
0.00043862
0.000401457
0.000361873
0.000358498
0.00178974
0.00167864
0.00166491
0.00168581
0.00168506
0.0017102
0.00173966
0.00174975
0.00176379
0.00177376
0.00178836
0.00180131
0.00181634
0.00184725
0.00188474
0.00122776
0.000815399
0.00061696
0.000511938
0.000448266
0.000409037
0.00036693
0.000363348
0.00177864
0.00167567
0.00166042
0.00169152
0.00169768
0.00171778
0.00174725
0.00175811
0.00177394
0.00178242
0.00179897
0.00180698
0.00182024
0.00185073
0.00188746
0.00126291
0.000839343
0.000633973
0.000524951
0.000459761
0.000417163
0.000372659
0.000368522
0.00176834
0.00167387
0.00165813
0.00169595
0.00170641
0.00172284
0.00175512
0.00176608
0.00178316
0.00178998
0.00180601
0.00181255
0.00182394
0.0018539
0.00188876
0.00129967
0.000865439
0.000654598
0.000541168
0.000472818
0.000427095
0.000380298
0.000373906
0.00175968
0.00167586
0.00165773
0.00169981
0.00171787
0.00173006
0.00176117
0.0017738
0.00179142
0.00179678
0.00181214
0.00181706
0.00182627
0.00185601
0.00189001
0.00134309
0.000894723
0.000675973
0.000557849
0.00048803
0.000438441
0.00038997
0.000380092
0.00175111
0.00168123
0.00166113
0.00170588
0.0017284
0.00173722
0.00176831
0.0017813
0.00179821
0.00180236
0.00181596
0.00182103
0.00182887
0.00185773
0.00189046
0.0013795
0.000922292
0.000699462
0.000576545
0.000504215
0.000451474
0.000400917
0.000386295
0.0017473
0.00169172
0.00166812
0.00171331
0.00174153
0.00174638
0.00177535
0.00178736
0.00180333
0.00180593
0.0018178
0.00182463
0.00183032
0.0018585
0.00189065
0.00141197
0.000946242
0.000717723
0.000593116
0.000518517
0.000463432
0.000412392
0.000392498
0.00174559
0.00170512
0.00167892
0.00172426
0.00175382
0.00175575
0.0017824
0.0017925
0.00180726
0.00180847
0.00181803
0.00182713
0.00183204
0.00185894
0.00189052
0.00144001
0.000969017
0.000736168
0.000609358
0.000531666
0.000475975
0.000423535
0.000399108
0.0017465
0.00172082
0.00169399
0.00173536
0.00176609
0.00176499
0.00178875
0.00179634
0.00180993
0.00181006
0.00181788
0.00182972
0.00183298
0.00185911
0.00189071
0.00146287
0.000986314
0.000750023
0.000623943
0.000543432
0.000487499
0.000433678
0.00040574
0.00174994
0.00173586
0.00171095
0.00174745
0.00177616
0.00177332
0.00179365
0.00179956
0.00181122
0.00181151
0.00181744
0.00183132
0.00183408
0.0018592
0.00189139
0.00147966
0.00100161
0.000761135
0.000635328
0.000553039
0.000497197
0.000442248
0.000411771
0.00175407
0.00175021
0.00172877
0.00175795
0.00178454
0.00178012
0.00179738
0.00180168
0.00181173
0.0018125
0.00181728
0.00183297
0.00183463
0.00185931
0.00189083
0.00150517
0.00101771
0.00077324
0.00064893
0.000565396
0.000507325
0.000453052
0.000419694
0.0017592
0.00176223
0.00174579
0.00176774
0.00179079
0.00178533
0.00179946
0.00180306
0.00181099
0.0018134
0.0018171
0.00183393
0.00183529
0.00185937
0.00189047
0.00150315
0.00101297
0.000769837
0.000647594
0.000565411
0.000505144
0.000452263
0.000417958
0.00176372
0.00177245
0.00176048
0.00177503
0.0017954
0.00178862
0.00180076
0.00180372
0.00181031
0.00181409
0.00181716
0.00183449
0.0018354
0.00185897
0.00188927
0.00150315
0.0010107
0.000768214
0.000644958
0.000567968
0.000503621
0.000453686
0.000415327
0.00176761
0.00178046
0.00177267
0.00178141
0.00179901
0.00179116
0.00180143
0.00180422
0.00180932
0.00181478
0.0018171
0.00183468
0.00183572
0.0018585
0.0018876
0.00154616
0.00104242
0.000793884
0.000666757
0.000588531
0.000521642
0.000473607
0.000432209
0.00177108
0.00178759
0.0017829
0.00178624
0.00180219
0.00179296
0.00180199
0.00180469
0.00180879
0.00181535
0.00181732
0.00183448
0.00183562
0.00185798
0.00188549
0.00157368
0.00106125
0.000808334
0.000679124
0.000600061
0.000532746
0.000488606
0.000445
0.00177413
0.00179328
0.00179098
0.00179056
0.00180451
0.00179483
0.00180251
0.0018052
0.00180843
0.00181594
0.0018174
0.00183428
0.00183578
0.00185744
0.00188305
0.00159601
0.00107565
0.000818657
0.000687973
0.000610309
0.000544513
0.00050403
0.000467981
0.00177658
0.00179736
0.00179644
0.00179352
0.00180692
0.00179634
0.00180295
0.00180593
0.00180848
0.00181618
0.00181769
0.00183351
0.0018356
0.00185738
0.00188076
0.00162828
0.00109783
0.000835021
0.000703114
0.000627699
0.000561956
0.000531685
0.000496962
0.00177967
0.00180079
0.00180041
0.00179596
0.00180786
0.00179835
0.00180365
0.00180663
0.00180891
0.00181639
0.0018179
0.00183315
0.00183582
0.00185701
0.00187847
0.00166644
0.00112488
0.000856905
0.000724197
0.00065103
0.000589606
0.000558287
0.000526405
0.00178146
0.00180164
0.00180199
0.00179761
0.00180938
0.00179997
0.0018042
0.00180733
0.00180926
0.00181627
0.001818
0.00183219
0.00183525
0.00185649
0.00187574
0.00170884
0.00116061
0.000886218
0.0007539
0.000685629
0.000623685
0.000586665
0.000560114
0.00178515
0.00180302
0.00180304
0.00179864
0.00180896
0.00180178
0.00180482
0.00180796
0.00181009
0.00181591
0.00181822
0.00183189
0.00183594
0.0018562
0.00187301
0.00176068
0.00120132
0.000921091
0.000789617
0.000719788
0.000651381
0.00061895
0.000596095
0.00178659
0.00180174
0.00180284
0.00179942
0.0018095
0.00180313
0.00180556
0.00180824
0.00181022
0.00181577
0.00181803
0.00183112
0.00183711
0.00185579
0.00186952
0.00181302
0.00124515
0.000964773
0.00082706
0.000754319
0.000682915
0.000654362
0.000636971
0.00179053
0.00180154
0.00180261
0.0017999
0.00180809
0.0018042
0.00180586
0.0018085
0.0018109
0.00181508
0.00181803
0.00183131
0.00183668
0.00185673
0.00186845
0.00181713
0.00129204
0.00100316
0.000866882
0.000791191
0.000723612
0.000694579
0.00068837
0.00179146
0.00180013
0.00180238
0.00180013
0.00180805
0.00180461
0.00180655
0.00180829
0.00181067
0.00181509
0.00181786
0.00183001
0.00183681
0.00185884
0.00186962
0.00181792
0.00133397
0.00104114
0.00089837
0.00082669
0.000768143
0.000737081
0.000727856
0.00179492
0.00179875
0.00180222
0.00180061
0.00180619
0.00180518
0.00180665
0.00180841
0.00181076
0.0018147
0.0018175
0.00182886
0.00183709
0.00186147
0.00187365
0.00181935
0.00137751
0.00108522
0.000941284
0.000868321
0.000807324
0.000790638
0.000784738
0.00179505
0.00179877
0.00180267
0.00180085
0.00180594
0.00180461
0.00180718
0.00180787
0.00181042
0.00181471
0.0018177
0.00182753
0.00183745
0.00186428
0.00187753
0.00182254
0.00142647
0.00113527
0.000979959
0.000919883
0.000853748
0.000837608
0.000854197
0.00179746
0.00179681
0.00180321
0.00180125
0.00180466
0.00180504
0.0018071
0.00180838
0.00181015
0.00181489
0.00181729
0.00182601
0.00183713
0.00186403
0.00188075
0.00182579
0.0014815
0.00118376
0.00103497
0.000976535
0.000907849
0.000901303
0.000940785
0.00179749
0.00179786
0.00180428
0.00180161
0.00180412
0.00180439
0.00180789
0.00180766
0.00180951
0.00181494
0.00181723
0.00182506
0.00183776
0.0018658
0.00188427
0.00182907
0.00154376
0.00124143
0.00108712
0.00103717
0.000976254
0.000970837
0.000941852
0.00179719
0.00179584
0.0018049
0.00180173
0.00180369
0.00180389
0.00180709
0.00180791
0.00180876
0.00181462
0.00181732
0.00182331
0.00183802
0.00186708
0.00188536
0.00183173
0.00161437
0.00130686
0.00115568
0.00111355
0.00104233
0.00104764
0.000955469
0.0017966
0.0017957
0.00180511
0.00180063
0.00180276
0.00180342
0.00180732
0.00180674
0.00180773
0.00181434
0.00181563
0.00182196
0.00183761
0.00186627
0.00188671
0.00183199
0.00169447
0.00138282
0.0012218
0.00119751
0.00112822
0.00104657
0.000956834
0.00179407
0.00179348
0.00180481
0.00180041
0.001802
0.00180165
0.00180629
0.00180589
0.00180609
0.00181254
0.00181588
0.00182153
0.00183827
0.00186735
0.00188711
0.00183449
0.00173625
0.00146946
0.00130729
0.00124593
0.00114671
0.00104166
0.000950485
0.0017901
0.00179164
0.00180294
0.00179852
0.00180142
0.00180169
0.00180459
0.00180498
0.00180527
0.00181211
0.00181624
0.00182138
0.00183747
0.0018673
0.00188751
0.00183388
0.00173473
0.0015572
0.00140747
0.00126294
0.00114469
0.00104081
0.000964961
0.00179031
0.00178931
0.00180225
0.00179691
0.00180071
0.00180094
0.0018048
0.00180513
0.00180613
0.00181046
0.00181663
0.00182059
0.00183704
0.00186758
0.00188833
0.00183515
0.00173409
0.00159425
0.00143845
0.0012901
0.00115831
0.00105684
0.000994267
0.00179595
0.00179151
0.00180618
0.00180009
0.00180124
0.00180321
0.00180696
0.00180936
0.00180806
0.00181087
0.00181762
0.00182116
0.00183759
0.00186632
0.00188951
0.00183537
0.00173741
0.00159599
0.00145108
0.00132392
0.00118681
0.00108748
0.00103395
0.00179828
0.00179278
0.00180707
0.00180303
0.00180358
0.00180366
0.00180832
0.0018102
0.00180901
0.00181147
0.00181659
0.00182112
0.00183677
0.0018672
0.00188893
0.00183734
0.00174427
0.00160647
0.00147227
0.00136106
0.00122385
0.00112738
0.0010806
0.00179769
0.00179115
0.00180995
0.00180408
0.00180316
0.00180427
0.00180855
0.00181026
0.00180954
0.00181313
0.00181569
0.00182063
0.00183687
0.0018677
0.00188802
0.00184024
0.00175317
0.00162199
0.00149817
0.00139964
0.00126611
0.00117341
0.00113132
0.00179662
0.00179556
0.00180961
0.00180517
0.00180453
0.00180574
0.00180958
0.00181142
0.00181006
0.00181164
0.0018166
0.00182047
0.00183619
0.00186622
0.00188669
0.00184308
0.00176231
0.0016392
0.00152478
0.00143708
0.00130967
0.00122127
0.00118293
0.00179659
0.0017956
0.0018086
0.00180558
0.00180582
0.00180651
0.00180902
0.00181081
0.0018102
0.00181294
0.00181654
0.00182019
0.00183695
0.0018641
0.00188462
0.00184604
0.00177208
0.00165823
0.00155133
0.001473
0.00135246
0.00126882
0.0012334
0.00179497
0.00179602
0.00181024
0.00180591
0.00180434
0.00180549
0.00180779
0.00180997
0.00180868
0.00181187
0.00181651
0.0018212
0.00183589
0.00186206
0.00188223
0.00184829
0.00178096
0.00167645
0.00157531
0.00150488
0.00139149
0.00131243
0.00127976
0.00179734
0.0017963
0.00180851
0.00180604
0.00180532
0.00180658
0.00180935
0.00181085
0.00180942
0.00181192
0.00181741
0.00182028
0.00183585
0.00185958
0.00187943
0.00185064
0.00179019
0.00169548
0.0015983
0.0015341
0.00142708
0.00135165
0.00132176
0.00179736
0.00179821
0.0018099
0.00180595
0.00180661
0.00180826
0.00180983
0.00181039
0.00180909
0.00181144
0.00181701
0.00181971
0.00183633
0.00185745
0.00187673
0.0018523
0.00179815
0.00171196
0.00161826
0.00155792
0.00145794
0.00138416
0.00135695
0.00179591
0.00179841
0.00180912
0.00180527
0.00180796
0.00180701
0.00180969
0.00181042
0.00181011
0.00181181
0.00181696
0.00181937
0.00183685
0.00185508
0.00187403
0.00185431
0.00180647
0.00172876
0.00163844
0.0015786
0.0014872
0.00141263
0.00138623
0.00179979
0.00179833
0.00180879
0.00180659
0.00180719
0.00180793
0.00180893
0.00181058
0.00181121
0.00181197
0.00181712
0.00182015
0.0018369
0.0018533
0.00187166
0.00185561
0.00181274
0.00174176
0.00165577
0.00159335
0.00151322
0.00143657
0.00140743
0.00179745
0.00179728
0.00180928
0.00180768
0.00180656
0.00180584
0.00180888
0.00181086
0.00180939
0.00181219
0.00181686
0.00182002
0.00183593
0.00185135
0.00186952
0.00185733
0.0018195
0.00175478
0.00167439
0.00160743
0.00153827
0.00146008
0.00142635
0.00179851
0.00179996
0.00180916
0.00180676
0.00180558
0.00180687
0.00180876
0.00181117
0.0018103
0.00181302
0.00181745
0.00181946
0.00183649
0.00185017
0.00186778
0.00185832
0.00182388
0.00176358
0.00168917
0.00161808
0.00155937
0.0014819
0.00144113
0.00180048
0.00179986
0.00180899
0.00180645
0.00180554
0.00180553
0.00181057
0.00181215
0.0018098
0.00181285
0.00181527
0.00182074
0.00183541
0.00184876
0.00186633
0.0018598
0.00182887
0.00177226
0.00170554
0.00163075
0.00157984
0.00150645
0.00145886
0.00179756
0.00179954
0.00180889
0.00180663
0.00180618
0.00180684
0.0018103
0.00181056
0.00181031
0.00181239
0.00181602
0.00181941
0.00183416
0.00184812
0.00186523
0.00186062
0.00183169
0.00177712
0.00171679
0.00164149
0.00159691
0.00152907
0.00147535
0.00179639
0.0018028
0.00180743
0.00180611
0.00180637
0.00180555
0.00181117
0.00181188
0.00180899
0.00181267
0.00181603
0.00181988
0.0018327
0.00184707
0.00186434
0.00186191
0.00183528
0.00178224
0.00172955
0.00165566
0.00161593
0.00155501
0.00149795
0.00180034
0.00180116
0.00180965
0.00180619
0.00180522
0.00180727
0.00181202
0.00181204
0.00180984
0.0018109
0.0018146
0.00181883
0.00183269
0.0018467
0.00186375
0.00186258
0.0018371
0.00178479
0.00173696
0.00166672
0.00163134
0.00157804
0.00151811
0.00179579
0.00180314
0.00180668
0.00180589
0.00180525
0.00180738
0.0018114
0.00181234
0.00181079
0.00181089
0.00181484
0.00181996
0.00183236
0.0018458
0.00186322
0.00186367
0.00183993
0.00178835
0.00174711
0.00168239
0.00165057
0.00160544
0.00154696
0.0017956
0.00180041
0.00180519
0.00180635
0.00180772
0.00180773
0.00180988
0.00181167
0.00181307
0.00181185
0.00181463
0.0018207
0.00183227
0.00184532
0.00186298
0.00186417
0.00184134
0.00179016
0.00175185
0.00169232
0.00166468
0.00162742
0.00157003
0.00179814
0.0017986
0.00180479
0.00180559
0.00180654
0.00180761
0.00180932
0.00181148
0.00181131
0.00181302
0.0018144
0.00182011
0.00183217
0.00184415
0.00186223
0.0018653
0.00184484
0.00179531
0.00176093
0.00170863
0.0016837
0.00165513
0.0016048
0.00179558
0.00179926
0.00180286
0.00180652
0.00180698
0.00180898
0.00180863
0.00181155
0.00181084
0.00181404
0.00181577
0.00182065
0.00183191
0.00184395
0.00186271
0.00186544
0.00184483
0.00179441
0.00176258
0.00171732
0.0016959
0.00167242
0.00162773
0.00180214
0.00179749
0.00180393
0.00180655
0.00180867
0.00180841
0.00180942
0.00180812
0.00181017
0.00181288
0.00181559
0.00181958
0.00183111
0.00184209
0.00186174
0.00186678
0.00184952
0.00180203
0.00177081
0.00173256
0.00171502
0.00169775
0.00166207
0.00179942
0.00179965
0.0018073
0.00180603
0.00181014
0.0018071
0.00180764
0.00180806
0.0018104
0.00181291
0.00181531
0.00181998
0.00182872
0.00184061
0.0018606
0.001868
0.00185409
0.00180974
0.00177829
0.00174592
0.00173085
0.00171963
0.00169325
0.00180612
0.00179955
0.00181195
0.00180601
0.00180736
0.00180406
0.00180943
0.00180963
0.00180984
0.00181118
0.00181497
0.00181877
0.00182703
0.00183871
0.00185856
0.00186897
0.00185885
0.00181972
0.00178813
0.00175923
0.00174729
0.00173928
0.00172219
0.00180563
0.00179956
0.00181109
0.00180585
0.00180516
0.00180521
0.00181433
0.0018103
0.00181199
0.00180893
0.00181483
0.00181659
0.00182601
0.00183716
0.00185609
0.00186934
0.00186395
0.0018297
0.00179796
0.00177224
0.00176227
0.00175882
0.00174679
0.00180049
0.00179937
0.00180658
0.00180612
0.00180266
0.0018094
0.00181119
0.00181014
0.0018118
0.00180943
0.0018148
0.00181609
0.00182491
0.00183469
0.00185218
0.001869
0.00186948
0.00184119
0.00180916
0.00178628
0.00177749
0.00177558
0.00176925
0.00179449
0.00179748
0.00180439
0.00180663
0.00179963
0.00181047
0.0018074
0.00181053
0.0018114
0.00181159
0.00181435
0.00181514
0.00182331
0.00183243
0.0018477
0.0018667
0.00187411
0.00185308
0.00182191
0.00180096
0.00179183
0.00179113
0.00179048
0.00179744
0.00179089
0.00180363
0.00180997
0.00180174
0.00181198
0.00180545
0.00181149
0.00181108
0.00181185
0.00181375
0.00181455
0.00182197
0.0018299
0.00184269
0.00186225
0.00187692
0.0018647
0.00183715
0.00181614
0.00180743
0.00180608
0.00180948
0.00180613
0.00179129
0.00180248
0.0018079
0.00180623
0.0018129
0.00180275
0.00181144
0.0018098
0.00181199
0.00181341
0.00181441
0.001821
0.00182827
0.00183847
0.00185511
0.001875
0.00187398
0.00185444
0.00183447
0.00182356
0.00182417
0.00182806
0.00180884
0.00178597
0.00180172
0.00181271
0.00180767
0.00181034
0.00180737
0.00181105
0.00181099
0.00181266
0.00181326
0.00181426
0.00182006
0.0018264
0.00183442
0.0018477
0.00186876
0.00187876
0.00186834
0.00185383
0.00184332
0.00184139
0.00184769
0.00180826
0.00179386
0.00180192
0.00180591
0.00180862
0.00181134
0.00180948
0.00181099
0.00181172
0.00181288
0.0018135
0.00181448
0.00181899
0.00182473
0.00183076
0.00183921
0.00185833
0.00187711
0.00187669
0.00186946
0.00186166
0.00185929
0.00186134
0.00180838
0.00179658
0.00180225
0.00180283
0.00180895
0.00181315
0.00181054
0.00181124
0.00181156
0.00181298
0.00181307
0.00181404
0.00181788
0.00182267
0.00182813
0.00183349
0.0018451
0.00186749
0.00187616
0.00187769
0.00187445
0.0018732
0.00187461
0.0018067
0.0017976
0.00180215
0.0018014
0.00180861
0.0018137
0.00181066
0.00181121
0.00181122
0.00181215
0.00181278
0.00181353
0.00181625
0.00182012
0.00182499
0.00182872
0.00183541
0.0018533
0.00186747
0.00187649
0.00187906
0.00187968
0.00188194
0.00180233
0.00179784
0.00180153
0.00180081
0.00180749
0.00181228
0.00180939
0.00181063
0.00181012
0.00181141
0.00181146
0.00181206
0.00181477
0.0018178
0.00182235
0.0018259
0.00182765
0.00183845
0.00185215
0.00186519
0.00187342
0.00187722
0.00188103
0.0017979
0.00179746
0.00180063
0.00180087
0.00180581
0.00180951
0.00180747
0.0018093
0.00180873
0.00181004
0.00181069
0.00181078
0.0018129
0.0018152
0.00181911
0.00182356
0.00182489
0.00183001
0.00183934
0.00185066
0.00186143
0.00186791
0.00187358
0.00179495
0.0017966
0.00179996
0.00180078
0.00180393
0.00180606
0.00180506
0.00180754
0.00180688
0.00180878
0.00180916
0.00180925
0.00181184
0.00181327
0.00181621
0.00182005
0.00182146
0.00182359
0.00182861
0.00183597
0.00184528
0.00185182
0.00185788
0.00179351
0.00179507
0.00179927
0.00180026
0.0018018
0.00180312
0.00180235
0.0018053
0.00180505
0.00180694
0.00180778
0.00180773
0.00181046
0.00181129
0.00181396
0.00181713
0.00181997
0.00182117
0.00182403
0.001828
0.00183523
0.00184129
0.0018474
0.00179253
0.00179292
0.00179817
0.00179871
0.00179979
0.00180018
0.00179956
0.00180305
0.00180301
0.00180504
0.0018059
0.0018054
0.00180893
0.00180905
0.00181076
0.00181269
0.00181583
0.00181704
0.00181847
0.00182004
0.00182341
0.00182685
0.0018313
0.00179066
0.0017902
0.00179615
0.00179642
0.00179755
0.0017979
0.0017963
0.00180011
0.0018012
0.00180288
0.00180389
0.00180339
0.00180601
0.00180706
0.00180806
0.00180875
0.00181124
0.00181326
0.00181615
0.00181781
0.00182084
0.00182326
0.00182616
0.00178696
0.00178681
0.00179298
0.00179318
0.00179535
0.00179531
0.00179339
0.00179719
0.00179855
0.00180059
0.00180183
0.00180095
0.00180312
0.00180342
0.00180516
0.00180552
0.00180674
0.00180773
0.00180942
0.00181035
0.0018122
0.00181391