/*--------------------------------*- C++ -*----------------------------------*\
  =========                 |
  \\      /  F ield         | OpenFOAM: The Open Source CFD Toolbox
   \\    /   O peration     | Website:  https://openfoam.org
    \\  /    A nd           | Version:  7
     \\/     M anipulation  |
\*---------------------------------------------------------------------------*/
FoamFile
{
    version     2.0;
    format      ascii;
    class       volScalarField;
    location    "52";
    object      omega;
}
// * * * * * * * * * * * * * * * * * * * * * * * * * * * * * * * * * * * * * //

dimensions      [0 0 -1 0 0 0 0];

internalField   nonuniform List<scalar> 
12842
(
3.15069
2.85202
2.66155
2.53333
2.44597
2.38184
2.3384
2.30218
2.27852
2.25819
2.24573
2.2346
2.22928
2.22479
2.2259
2.23069
2.23968
2.26198
2.28891
2.34292
2.38602
2.45332
2.4902
3.14124
2.84396
2.64767
2.52086
2.43485
2.37453
2.3352
2.30082
2.2779
2.25788
2.24545
2.23455
2.22922
2.22516
2.22679
2.2323
2.24321
2.26543
2.29579
2.35204
2.39696
2.46577
2.50233
3.12239
2.82358
2.63341
2.50307
2.41525
2.35436
2.32016
2.29042
2.27053
2.25207
2.24119
2.23199
2.22781
2.22508
2.2271
2.2333
2.24574
2.2684
2.30182
2.36031
2.40573
2.47397
2.5132
3.11046
2.79112
2.61406
2.49385
2.409
2.34724
2.3137
2.28583
2.26722
2.24965
2.23797
2.22971
2.22526
2.22463
2.22716
2.23425
2.24807
2.27167
2.30742
2.36792
2.41667
2.48876
2.5252
3.08784
2.76685
2.57946
2.46587
2.38996
2.32896
2.29775
2.27491
2.25926
2.24372
2.2348
2.22768
2.22341
2.22397
2.22717
2.23522
2.25071
2.27669
2.31599
2.38001
2.43183
2.50874
2.54125
3.07116
2.74205
2.56426
2.45389
2.38097
2.32245
2.28976
2.26942
2.25561
2.24022
2.23145
2.22522
2.22103
2.22234
2.2267
2.2361
2.25319
2.28122
2.3238
2.39291
2.44703
2.51809
2.55725
3.0469
2.71512
2.53492
2.42831
2.36132
2.30875
2.27549
2.2577
2.24775
2.23526
2.22936
2.22383
2.21994
2.22151
2.22654
2.23712
2.25614
2.28703
2.33347
2.40732
2.46618
2.52866
2.56862
3.03122
2.69615
2.52199
2.41828
2.3525
2.30381
2.27052
2.25247
2.24323
2.23162
2.22569
2.22136
2.21836
2.22033
2.22632
2.2381
2.25885
2.29238
2.34278
2.42162
2.47894
2.53986
2.57578
3.00416
2.66983
2.49916
2.39963
2.33832
2.29396
2.26192
2.24422
2.23626
2.22659
2.2223
2.21836
2.21691
2.21932
2.22613
2.23926
2.26211
2.29872
2.3515
2.43212
2.48231
2.54504
2.57833
2.99334
2.65181
2.48339
2.38907
2.33041
2.29021
2.25889
2.24132
2.23246
2.22383
2.21913
2.21597
2.21573
2.21858
2.22615
2.2405
2.26508
2.30408
2.35772
2.43783
2.48709
2.54932
2.58817
2.96099
2.62662
2.4646
2.37309
2.31923
2.28264
2.25291
2.23593
2.22761
2.21991
2.21635
2.21388
2.21461
2.21817
2.22647
2.24209
2.26818
2.30861
2.3626
2.44103
2.49139
2.56266
2.60335
2.94929
2.61049
2.44879
2.36305
2.31253
2.27916
2.2503
2.23339
2.22482
2.21802
2.2139
2.21229
2.21371
2.21794
2.22702
2.24371
2.27109
2.31195
2.36719
2.44898
2.50385
2.58899
2.65149
2.91832
2.58895
2.43401
2.34859
2.30242
2.27214
2.24507
2.22881
2.22121
2.21534
2.21191
2.21114
2.21304
2.21774
2.22759
2.24549
2.27352
2.31411
2.3721
2.45785
2.53235
2.6442
2.72362
2.90702
2.57413
2.41927
2.34059
2.29625
2.26855
2.24263
2.22668
2.21946
2.21413
2.21012
2.21002
2.21231
2.21755
2.22851
2.24704
2.27504
2.31696
2.38132
2.48774
2.57762
2.71673
2.81798
2.8785
2.55598
2.40821
2.32853
2.28701
2.26111
2.23775
2.22294
2.21693
2.21185
2.20811
2.20882
2.2113
2.2171
2.2292
2.24837
2.27646
2.32269
2.39984
2.5261
2.65003
2.81927
2.93521
2.8685
2.5425
2.39487
2.32172
2.28064
2.25697
2.23547
2.22122
2.21564
2.21057
2.20648
2.20715
2.21002
2.21656
2.22954
2.24909
2.27997
2.33697
2.43462
2.59506
2.74187
2.93694
3.07469
2.84291
2.52676
2.38695
2.31172
2.2723
2.25029
2.23127
2.2179
2.21304
2.20778
2.20382
2.20514
2.20854
2.21637
2.22997
2.25108
2.28662
2.36793
2.48571
2.67077
2.85062
3.08334
3.22387
2.83479
2.51429
2.37546
2.30483
2.26557
2.24647
2.22924
2.21612
2.21141
2.20609
2.20198
2.2032
2.20714
2.21628
2.23104
2.25502
2.30873
2.41738
2.55623
2.77866
2.97985
3.23185
3.40238
2.81231
2.50045
2.36898
2.29645
2.25946
2.24171
2.22528
2.21242
2.20763
2.20233
2.19848
2.20048
2.20599
2.21649
2.23515
2.27113
2.34704
2.4833
2.64039
2.88773
3.1177
3.40582
3.57518
2.80631
2.48893
2.359
2.28923
2.2534
2.23757
2.22294
2.2101
2.20529
2.20033
2.19698
2.19939
2.20637
2.22183
2.25408
2.30606
2.40549
2.56498
2.74106
3.0201
3.27009
3.57563
3.77757
2.78699
2.4774
2.35282
2.28305
2.25017
2.23496
2.2178
2.20542
2.20099
2.19684
2.19427
2.19794
2.20883
2.24023
2.2889
2.35582
2.47729
2.65614
2.84878
3.14748
3.42703
3.76106
3.9674
2.7825
2.46664
2.34373
2.27688
2.24568
2.22947
2.21418
2.2014
2.1993
2.19585
2.19397
2.20044
2.22659
2.27664
2.34059
2.4224
2.56314
2.75691
2.96592
3.28535
3.59216
3.9455
4.1773
2.76517
2.45754
2.3379
2.27215
2.24309
2.22634
2.20719
2.19775
2.19603
2.19461
2.19372
2.2033
2.25312
2.32385
2.40256
2.497
2.6546
2.85985
3.08364
3.41864
3.74068
4.13705
4.38603
2.76029
2.44939
2.33205
2.26992
2.24157
2.22131
2.2014
2.19328
2.19621
2.19512
2.19727
2.22451
2.30384
2.39021
2.47902
2.58438
2.75271
2.96664
3.20389
3.55266
3.89672
4.30661
4.59684
2.75305
2.44447
2.32959
2.26751
2.23923
2.21705
2.19777
2.19203
2.1979
2.19963
2.21131
2.26353
2.36397
2.46241
2.55854
2.67219
2.85138
3.07225
3.32351
3.68632
4.03825
4.48575
4.79624
2.74821
2.43935
2.32693
2.26562
2.23654
2.21289
2.19474
2.1902
2.20609
2.21639
2.24531
2.31709
2.43286
2.53919
2.64008
2.76193
2.9462
3.17391
3.43785
3.81058
4.18218
4.63682
4.97969
2.73961
2.43661
2.32549
2.2619
2.23291
2.20936
2.19168
2.19117
2.22712
2.24924
2.29233
2.38075
2.50818
2.61895
2.72201
2.84876
3.03927
3.27162
3.54632
3.92899
4.30868
4.78964
5.1514
2.73496
2.43351
2.32324
2.25967
2.22921
2.20578
2.19062
2.19874
2.26083
2.29404
2.35443
2.45468
2.58618
2.69751
2.80114
2.93317
3.12491
3.36228
3.64843
4.03799
4.4334
4.91888
5.30231
2.72567
2.43205
2.32091
2.25404
2.22616
2.20462
2.19182
2.22402
2.30618
2.35217
2.42424
2.5321
2.66456
2.77422
2.877
3.01111
3.20572
3.44649
3.73988
4.13626
4.54387
5.0451
5.44187
2.72088
2.42913
2.31704
2.25095
2.22586
2.20519
2.20153
2.26331
2.36313
2.41821
2.50244
2.61283
2.7404
2.84561
2.9468
3.08386
3.27797
3.52228
3.82636
4.22844
4.65032
5.15484
5.57083
2.71102
2.42708
2.31179
2.24752
2.23
2.21398
2.22878
2.31916
2.42667
2.4914
2.58176
2.69169
2.81239
2.91237
3.0117
3.14874
3.34354
3.59144
3.9012
4.31035
4.74682
5.25963
5.67908
2.70581
2.42211
2.30718
2.24405
2.24334
2.23798
2.2684
2.38319
2.49627
2.56719
2.66176
2.76723
2.87881
2.9722
3.06941
3.20784
3.40189
3.65227
3.97231
4.38612
4.83604
5.34928
5.79075
2.69574
2.41864
2.29974
2.24437
2.2651
2.27364
2.32136
2.45488
2.56816
2.64378
2.7381
2.83667
2.93915
3.02621
3.1218
3.25886
3.45261
3.70761
4.03361
4.45665
4.92254
5.4401
5.87825
2.69075
2.41053
2.29656
2.25032
2.29891
2.3238
2.38246
2.52705
2.63806
2.71693
2.80824
2.90011
2.99282
3.0733
3.16726
3.30489
3.49838
3.75558
4.09167
4.51909
4.99651
5.51135
5.97037
2.68156
2.40489
2.2917
2.26551
2.33627
2.37912
2.44791
2.59884
2.70737
2.78646
2.87344
2.95414
3.03978
3.11472
3.20764
3.34323
3.53659
3.79967
4.14288
4.58002
5.07265
5.59168
6.04713
2.67699
2.40005
2.29035
2.28904
2.38254
2.44236
2.51617
2.66541
2.7694
2.84823
2.92767
3.00262
3.08044
3.14994
3.24206
3.378
3.57191
3.83748
4.18987
4.63089
5.13321
5.65306
6.12405
2.66852
2.39323
2.29427
2.31978
2.42837
2.50479
2.58233
2.72794
2.8273
2.90312
2.97768
3.04143
3.11481
3.18061
3.27207
3.40593
3.60053
3.87301
4.23364
4.68369
5.19873
5.72146
6.18512
2.66296
2.39374
2.30395
2.35478
2.47691
2.56711
2.64578
2.78258
2.87728
2.94944
3.01579
3.07562
3.14416
3.20604
3.29731
3.43168
3.62787
3.90323
4.27174
4.72481
5.24467
5.77215
6.25044
2.65446
2.3906
2.32413
2.3943
2.5243
2.62515
2.70502
2.8314
2.92023
2.98941
3.05098
3.10317
3.16805
3.2283
3.31904
3.45165
3.64937
3.93187
4.30884
4.77134
5.30182
5.82728
6.29125
2.64539
2.39675
2.35026
2.43486
2.56927
2.67861
2.75699
2.87331
2.95695
3.02183
3.07719
3.12734
3.18857
3.24637
3.33707
3.47063
3.67085
3.95662
4.34147
4.80801
5.33235
5.85995
6.34026
2.63892
2.40388
2.38093
2.47738
2.61207
2.72515
2.80501
2.90788
2.98748
3.05156
3.10273
3.1473
3.20449
3.26232
3.35244
3.48476
3.6871
3.97958
4.3713
4.8477
5.38107
5.90456
6.37491
2.62801
2.41716
2.41744
2.51976
2.65306
2.76749
2.84491
2.94038
3.01434
3.07762
3.12292
3.16346
3.21877
3.27531
3.36518
3.49876
3.70384
3.99998
4.4011
4.88307
5.40514
5.92609
6.40765
2.62422
2.4315
2.45627
2.56151
2.69016
2.80312
2.88179
2.9673
3.03769
3.09642
3.13868
3.17675
3.2292
3.28648
3.37567
3.50866
3.71638
4.01867
4.42384
4.91746
5.44897
5.96864
6.44841
2.61729
2.45318
2.5002
2.60447
2.72876
2.83715
2.91283
2.99515
3.05884
3.11358
3.14869
3.18785
3.23946
3.29621
3.38481
3.5188
3.72871
4.0359
4.45272
4.95449
5.48032
5.99779
6.48496
2.61769
2.47982
2.5478
2.64556
2.76355
2.86739
2.94322
3.01753
3.0781
3.12528
3.15833
3.19662
3.24633
3.30373
3.39163
3.52594
3.73893
4.04969
4.47236
4.99641
5.51977
6.05019
6.5509
2.62238
2.51309
2.5975
2.69053
2.80098
2.89963
2.97023
3.03968
3.09473
3.13484
3.16625
3.20346
3.2541
3.31133
3.39816
3.53292
3.74693
4.0663
4.50323
5.03871
5.56914
6.11112
6.61475
2.63248
2.55282
2.64977
2.73313
2.83452
2.92946
2.99806
3.05616
3.10553
3.1421
3.16595
3.20799
3.25887
3.31634
3.40265
3.5382
3.75619
4.07548
4.52317
5.09407
5.61343
6.18722
6.69666
2.64899
2.59644
2.70112
2.77932
2.87114
2.96069
3.02236
3.0733
3.11399
3.14802
3.16964
3.21223
3.26498
3.3223
3.40709
3.54425
3.76332
4.09472
4.55535
5.14598
5.67821
6.26761
6.78047
2.66652
2.64458
2.75066
2.82297
2.9043
2.98882
3.04703
3.08712
3.12072
3.15239
3.17142
3.21473
3.26882
3.32582
3.41008
3.55014
3.77421
4.10816
4.57175
5.2046
5.73242
6.35948
6.86322
2.6921
2.69438
2.80044
2.86851
2.93877
3.01716
3.06799
3.10151
3.12626
3.15656
3.17566
3.21867
3.27386
3.33054
3.41247
3.55382
3.78285
4.12891
4.5978
5.25612
5.78992
6.41615
6.93905
2.71806
2.74169
2.84548
2.90886
2.96691
3.04065
3.08627
3.11291
3.13128
3.16082
3.17942
3.22098
3.27733
3.33294
3.41336
3.55379
3.78698
4.14442
4.61039
5.29596
5.82091
6.46912
6.98334
2.74713
2.78229
2.88664
2.94421
2.99168
3.06087
3.10038
3.12347
3.13546
3.16541
3.18488
3.2249
3.28117
3.3364
3.41399
3.55954
3.79613
4.15842
4.63193
5.31909
5.85595
6.50579
7.03274
2.77563
2.81701
2.91868
2.97366
3.01169
3.0775
3.11172
3.13195
3.14037
3.16948
3.18959
3.22764
3.28432
3.3381
3.41414
3.55383
3.79666
4.15448
4.64397
5.33891
5.87284
6.50582
7.04713
2.80273
2.84684
2.94567
2.99785
3.02965
3.09161
3.12109
3.13942
3.14578
3.1737
3.19478
3.23159
3.28778
3.3406
3.41442
3.55456
3.79642
4.16243
4.67297
5.35753
5.91877
6.55377
7.11331
2.82836
2.87253
2.9666
3.01755
3.04524
3.10376
3.1292
3.14597
3.15211
3.17778
3.19926
3.23462
3.29081
3.34178
3.41476
3.55321
3.78399
4.13887
4.67538
5.36405
5.92264
6.55662
7.1229
2.85111
2.89593
2.98452
3.03414
3.05993
3.11506
3.13762
3.15246
3.15928
3.18257
3.204
3.23844
3.29426
3.34389
3.41568
3.54954
3.77439
4.1296
4.67713
5.38867
5.92333
6.55821
7.13373
2.87138
2.91495
2.9979
3.04761
3.07166
3.1244
3.14494
3.15816
3.16584
3.18675
3.20786
3.24139
3.29683
3.34474
3.41577
3.54439
3.75802
4.10007
4.63721
5.36772
5.86467
6.50177
7.05462
2.88889
2.93198
3.00967
3.05933
3.08214
3.13278
3.15211
3.16381
3.17207
3.19097
3.21174
3.24446
3.29906
3.34567
3.41618
3.54115
3.7457
4.0735
4.58821
5.34324
5.8161
6.44578
6.9944
2.90612
2.94704
3.02006
3.0705
3.09082
3.14003
3.15871
3.16904
3.17792
3.19502
3.21542
3.24763
3.30127
3.34638
3.41691
3.53922
3.73771
4.05304
4.54904
5.31075
5.77254
6.44122
6.98217
2.9222
2.96183
3.03048
3.08064
3.09925
3.14617
3.1648
3.17447
3.18323
3.19899
3.21917
3.25074
3.30326
3.34731
3.41846
3.5399
3.73289
4.03904
4.51991
5.28247
5.77537
6.45889
7.14901
2.93897
2.97599
3.04111
3.09091
3.10597
3.15143
3.1705
3.17926
3.18813
3.20305
3.22292
3.25424
3.30521
3.34796
3.42018
3.53939
3.73181
4.02945
4.50873
5.29325
5.78974
6.62568
7.40051
2.95434
2.9902
3.05197
3.10027
3.11387
3.15569
3.17547
3.18447
3.19275
3.20707
3.22657
3.25738
3.30697
3.3494
3.42308
3.54463
3.73451
4.03265
4.51767
5.32316
5.89529
6.76812
7.58743
2.97127
3.00509
3.06353
3.10979
3.1203
3.15984
3.18056
3.18924
3.19738
3.21136
3.23083
3.26105
3.30959
3.35078
3.42736
3.54915
3.74924
4.05901
4.57432
5.43814
6.08144
6.85772
7.74837
2.98575
3.01932
3.07496
3.11872
3.12908
3.164
3.18519
3.19451
3.20183
3.21587
3.23448
3.26426
3.31105
3.35335
3.43199
3.56151
3.77441
4.09673
4.66206
5.53687
6.16575
6.91932
7.85304
3.00232
3.03484
3.08615
3.12763
3.13641
3.1685
3.19
3.19971
3.2071
3.22018
3.23925
3.26789
3.31181
3.35613
3.43919
3.57295
3.80069
4.16983
4.77084
5.62347
6.19321
6.97869
7.95961
3.01553
3.04893
3.09752
3.13601
3.14654
3.17394
3.19509
3.20542
3.21172
3.22511
3.24316
3.271
3.31275
3.35823
3.44369
3.58979
3.83275
4.22112
4.7905
5.62013
6.28032
6.94076
7.89619
3.03128
3.06396
3.10737
3.1447
3.1548
3.1801
3.19989
3.21118
3.21776
3.22924
3.24766
3.27447
3.31293
3.35996
3.44674
3.59293
3.84997
4.24548
4.81085
5.63154
6.28399
6.94014
7.91843
3.04289
3.07797
3.11795
3.15249
3.16557
3.18663
3.20563
3.2171
3.22287
3.234
3.25195
3.27722
3.31322
3.35953
3.44643
3.5969
3.85674
4.27689
4.83471
5.6573
6.32289
6.95328
7.93961
3.05806
3.09138
3.12683
3.16097
3.17423
3.19438
3.21053
3.22337
3.22888
3.23794
3.2555
3.28004
3.31344
3.36004
3.44676
3.59876
3.86067
4.27581
4.84281
5.71056
6.34493
6.94343
7.82202
3.06811
3.10526
3.1362
3.16842
3.18415
3.20144
3.21671
3.22867
3.23448
3.24224
3.25949
3.28285
3.31394
3.3604
3.44942
3.60016
3.8618
4.29617
4.85836
5.69075
6.30427
6.94073
7.82093
3.08186
3.11694
3.14456
3.17681
3.19251
3.20906
3.22155
3.23517
3.24016
3.24585
3.26297
3.28477
3.31353
3.35926
3.44829
3.60076
3.86381
4.2842
4.8617
5.69099
6.30678
6.93427
7.85877
3.09326
3.13033
3.15327
3.1843
3.20144
3.217
3.22807
3.24064
3.24661
3.25057
3.26608
3.28844
3.31327
3.35907
3.44952
3.60075
3.85982
4.29379
4.86748
5.69603
6.32222
6.94296
7.74026
3.10566
3.14191
3.16308
3.19398
3.20924
3.22444
3.23431
3.24748
3.25231
3.25503
3.27125
3.29097
3.31386
3.35923
3.44737
3.60331
3.85821
4.3069
4.88427
5.7035
6.27598
6.94926
7.72431
3.12098
3.15592
3.17212
3.20273
3.2187
3.23336
3.24082
3.25441
3.25973
3.26086
3.27487
3.29345
3.31286
3.35771
3.44714
3.59964
3.85757
4.29205
4.8524
5.70787
6.27056
6.97838
7.75193
3.13695
3.16924
3.18631
3.21297
3.22699
3.24133
3.2505
3.26087
3.26536
3.26631
3.27712
3.29293
3.3129
3.3574
3.44703
3.60067
3.86108
4.29575
4.84958
5.62607
6.27562
6.97725
7.59785
3.15248
3.18535
3.19725
3.22567
3.23703
3.24939
3.25688
3.26627
3.26967
3.27276
3.27748
3.2943
3.3134
3.35708
3.4469
3.59802
3.86123
4.2813
4.85099
5.49127
6.17968
6.8443
7.32541
3.15656
3.19523
3.2019
3.23085
3.2446
3.25474
3.26035
3.26622
3.27033
3.27375
3.27809
3.29333
3.31222
3.35713
3.44445
3.59459
3.84737
4.27138
4.79331
5.32506
5.99569
6.60964
6.98667
3.16065
3.19972
3.20987
3.23321
3.2489
3.25785
3.26297
3.26683
3.27122
3.27461
3.27965
3.29331
3.31325
3.35533
3.44396
3.58422
3.82132
4.22929
4.7011
5.14655
5.76967
6.3233
6.62359
3.16941
3.20513
3.2134
3.23658
3.25263
3.25896
3.26495
3.26786
3.27252
3.27503
3.28161
3.29408
3.31226
3.35506
3.43967
3.56915
3.78736
4.16806
4.5908
4.96732
5.52827
6.01905
6.26444
3.17138
3.20409
3.21397
3.24054
3.2514
3.25859
3.26454
3.26824
3.27292
3.27718
3.28093
3.29407
3.31273
3.35572
3.43384
3.55261
3.75104
4.09943
4.47812
4.79882
5.29587
5.72658
5.93209
3.17285
3.20706
3.21907
3.23936
3.25127
3.25831
3.26472
3.26859
3.27454
3.2763
3.28079
3.29436
3.31116
3.35473
3.42667
3.53463
3.71322
4.0269
4.36812
4.644
5.08332
5.4607
5.63626
3.17778
3.20671
3.21854
3.24128
3.25315
3.25982
3.26747
3.27045
3.27626
3.27675
3.28071
3.29277
3.31081
3.35321
3.41967
3.51811
3.6787
3.95913
4.26952
4.50998
4.90059
5.23416
5.38626
3.175
3.20705
3.21891
3.24285
3.25134
3.25808
3.26644
3.2694
3.27499
3.27788
3.28059
3.29263
3.31056
3.35113
3.41222
3.50166
3.64564
3.89412
4.17905
4.39304
4.7439
5.04525
5.17786
3.17543
3.20798
3.21947
3.2404
3.2506
3.25796
3.26609
3.27007
3.27563
3.27807
3.28052
3.29339
3.31009
3.34928
3.40568
3.48812
3.61846
3.83912
4.10248
4.29842
4.61511
4.89594
5.01264
3.17896
3.20442
3.21888
3.24153
3.25115
3.25978
3.26638
3.26996
3.27378
3.27741
3.28028
3.29393
3.3092
3.34701
3.39881
3.47478
3.59286
3.78832
4.03144
4.2199
4.50105
4.77209
4.88255
3.17526
3.20436
3.21911
3.24065
3.25036
3.25767
3.26719
3.2695
3.2735
3.27725
3.28036
3.29191
3.30839
3.34523
3.39329
3.46481
3.57366
3.74892
3.9728
4.16214
4.406
4.6726
4.78845
3.17489
3.20572
3.2184
3.23968
3.25242
3.26037
3.26782
3.26907
3.27562
3.27743
3.28027
3.29151
3.30832
3.34294
3.38722
3.45445
3.55472
3.71307
3.9163
4.11102
4.31955
4.58018
4.70894
3.17336
3.20167
3.21802
3.23963
3.25106
3.25836
3.2653
3.26846
3.27382
3.27522
3.27965
3.29161
3.30599
3.34126
3.38277
3.4473
3.54181
3.68809
3.87215
4.07244
4.25105
4.5
4.64668
3.17252
3.20109
3.21714
3.23863
3.25179
3.25981
3.26489
3.26766
3.27477
3.27542
3.28105
3.28926
3.30574
3.33885
3.37742
3.43885
3.52772
3.66482
3.82813
4.03095
4.18664
4.41598
4.57885
3.1724
3.2018
3.21675
3.2382
3.24961
3.25987
3.26368
3.26768
3.27483
3.27493
3.27916
3.28905
3.30651
3.33719
3.37387
3.43336
3.51904
3.65081
3.7972
3.99792
4.13577
4.34276
4.51849
3.17415
3.19706
3.2176
3.23977
3.24982
3.25938
3.26337
3.26482
3.27448
3.27484
3.27922
3.29024
3.30677
3.33459
3.36907
3.42588
3.50771
3.63551
3.76421
3.9566
4.08102
4.26246
4.44249
3.16884
3.20174
3.2132
3.23975
3.24776
3.25716
3.26231
3.26429
3.27247
3.27509
3.27875
3.28969
3.30532
3.3329
3.36624
3.42148
3.50143
3.62739
3.74453
3.92474
4.03756
4.19518
4.37551
3.17016
3.19745
3.21293
3.23839
3.24723
3.25521
3.26193
3.26293
3.27179
3.27485
3.27758
3.28874
3.30318
3.3299
3.36168
3.41444
3.49108
3.61508
3.71808
3.8828
3.98515
4.11775
4.28779
3.16922
3.20022
3.21419
3.23628
3.24361
3.25259
3.26343
3.26268
3.26836
3.2737
3.2764
3.28707
3.30183
3.32834
3.35938
3.41093
3.48587
3.60865
3.70555
3.85438
3.94651
4.05826
4.21898
3.16519
3.1999
3.21478
3.23434
3.24134
3.25118
3.26293
3.26162
3.26769
3.27215
3.27628
3.2859
3.29843
3.32491
3.35456
3.40311
3.47386
3.593
3.68152
3.81246
3.89474
3.98489
4.12318
3.16178
3.1966
3.21214
3.22985
3.24047
3.24665
3.26129
3.26129
3.26762
3.26942
3.27299
3.28413
3.29833
3.32361
3.35272
3.40134
3.47176
3.59185
3.67472
3.78929
3.86223
3.93918
4.06115
3.15527
3.19355
3.20943
3.22849
3.23834
3.2455
3.25842
3.26276
3.26754
3.26923
3.27237
3.28272
3.29504
3.32003
3.3475
3.39233
3.45727
3.57184
3.6517
3.7481
3.8117
3.87266
3.96878
3.15334
3.18827
3.20442
3.22234
3.23705
3.24713
3.2555
3.26139
3.26603
3.26697
3.27343
3.27806
3.29443
3.3154
3.34127
3.38269
3.44233
3.55028
3.63019
3.71251
3.76813
3.81576
3.8884
3.14465
3.17892
3.19556
3.22052
3.23872
3.24537
3.25027
3.25852
3.26279
3.26559
3.27193
3.27655
3.29168
3.31068
3.33505
3.37265
3.42611
3.52447
3.60604
3.67766
3.72524
3.76413
3.81656
3.14244
3.17619
3.19266
3.22141
3.23623
3.24101
3.24219
3.25521
3.25901
3.26245
3.26911
3.27695
3.28712
3.30441
3.32718
3.36137
3.40864
3.49548
3.57873
3.64425
3.68453
3.71659
3.75454
3.14136
3.17761
3.19292
3.2159
3.23095
3.23447
3.23937
3.25106
3.25609
3.25875
3.26479
3.27346
3.28223
3.29892
3.31986
3.34964
3.39029
3.4633
3.54624
3.60896
3.64446
3.67112
3.69882
3.13549
3.17355
3.18855
3.20695
3.22291
3.22825
3.23968
3.24538
3.25085
3.25422
3.26024
3.26854
3.27676
3.29208
3.3106
3.33721
3.37156
3.43029
3.50892
3.57149
3.60448
3.62805
3.64827
3.12518
3.16647
3.1821
3.19071
3.2141
3.21904
3.23537
3.23839
3.24344
3.24786
3.25426
3.26221
3.27053
3.28528
3.30154
3.32428
3.3525
3.39751
3.46717
3.52885
3.56173
3.58253
3.59917
3.11287
3.15804
3.17494
3.18387
3.20628
3.21063
3.22888
3.23155
3.23638
3.24126
3.2475
3.25484
3.26248
3.27553
3.29016
3.31113
3.33394
3.36787
3.42376
3.48181
3.51779
3.53613
3.55119
3.10309
3.14725
3.16478
3.16752
3.19599
3.2062
3.21907
3.2226
3.22823
3.23237
3.23849
3.24549
3.25279
3.26524
3.27826
3.29639
3.31543
3.34047
3.38214
3.43153
3.46888
3.48741
3.50068
3.09332
3.13514
3.1533
3.16892
3.18399
3.19452
3.20725
3.21195
3.21911
3.22352
3.22859
3.23466
3.24125
3.25253
3.26468
3.28184
3.2976
3.31574
3.34531
3.38405
3.4198
3.43966
3.45262
3.07665
3.11961
3.1386
3.15977
3.16911
3.17798
3.19176
3.19784
3.2068
3.21101
3.21608
3.22175
3.22802
3.23917
3.2494
3.26431
3.2789
3.29223
3.3131
3.34003
3.37023
3.39017
3.40525
3.05967
3.10246
3.1217
3.1463
3.15354
3.1613
3.17588
3.18282
3.19318
3.19835
3.20247
3.20746
3.21322
3.2238
3.23355
3.24673
3.25971
3.26965
3.28511
3.30355
3.32696
3.34387
3.35951
3.03928
3.08086
3.09949
3.12684
3.13429
3.14244
3.157
3.16428
3.17533
3.18032
3.18505
3.19035
3.19572
3.20576
3.21405
3.22511
3.23832
3.24654
3.25817
3.26993
3.28729
3.30057
3.31523
3.01755
3.05769
3.07549
3.10472
3.1139
3.12351
3.13783
3.14503
3.15628
3.16187
3.1661
3.1713
3.17627
3.18581
3.19408
3.20233
3.2141
3.22194
3.23228
3.24077
3.25342
3.26232
3.27367
2.99019
3.02917
3.04648
3.07682
3.08778
3.09949
3.11333
3.12048
3.13126
3.1365
3.14164
3.14744
3.15189
3.16008
3.16841
3.17522
3.18582
3.19289
3.20195
3.20845
3.21899
3.22654
3.23643
2.96148
2.99943
3.01687
3.04745
3.0604
3.07343
3.08789
3.09484
3.10507
3.11108
3.11587
3.1214
3.12574
3.13299
3.1413
3.14694
3.1561
3.1631
3.17203
3.17739
3.18569
3.1904
3.19773
2.92575
2.96309
2.98065
3.01106
3.02525
3.03956
3.05426
3.06123
3.07083
3.07706
3.08263
3.08887
3.0923
3.09857
3.10663
3.11118
3.11884
3.12427
3.13329
3.13863
3.14733
3.15284
3.16039
2.88803
2.92555
2.94318
2.97313
2.98899
3.00366
3.0193
3.02663
3.0358
3.04306
3.04845
3.05432
3.05927
3.0637
3.07206
3.07715
3.08402
3.08796
3.09499
3.09894
3.1057
3.10957
3.11635
2.83986
2.87865
2.89603
2.92526
2.94223
2.9574
2.97271
2.98042
2.98981
2.99748
3.00346
3.00949
3.0144
3.01916
3.0255
3.03003
3.037
3.04061
3.04696
3.05064
3.05697
3.0602
3.06574
2.78961
2.8302
2.84751
2.87636
2.89459
2.91029
2.92535
2.93408
2.94311
2.95196
2.95849
2.9638
2.97012
2.97419
2.982
2.98602
2.99292
2.99642
3.00174
3.00466
3.00998
3.01298
3.01888
2.72692
2.76894
2.78662
2.81423
2.83308
2.84895
2.863
2.87175
2.88215
2.89006
2.89723
2.90289
2.90858
2.91308
2.91925
2.92359
2.92944
2.93292
2.93788
2.9403
2.94431
2.94668
2.95126
2.66556
2.70761
2.72688
2.75297
2.77224
2.78889
2.80226
2.81165
2.82112
2.83176
2.83789
2.84361
2.84982
2.85382
2.8607
2.86545
2.87161
2.87534
2.88023
2.88297
2.88689
2.88876
2.89252
2.59012
2.63027
2.65163
2.67483
2.69372
2.70938
2.72208
2.73167
2.74138
2.74968
2.7586
2.76311
2.76934
2.77347
2.77855
2.78199
2.78756
2.79021
2.79446
2.79683
2.80062
2.80277
2.8066
2.52083
2.55741
2.58141
2.60246
2.62071
2.63584
2.64766
2.65766
2.66709
2.67627
2.68328
2.68963
2.69602
2.70036
2.70712
2.71147
2.71665
2.72049
2.7249
2.72683
2.73102
2.73272
2.737
2.43268
2.46398
2.48949
2.50796
2.52424
2.53707
2.54736
2.55732
2.56649
2.57384
2.58119
2.58548
2.59126
2.59629
2.60007
2.60527
2.60996
2.61326
2.61788
2.62049
2.62299
2.62727
2.6288
2.35693
2.38276
2.40898
2.42704
2.44267
2.4538
2.46252
2.47117
2.48048
2.48881
2.49483
2.50049
2.50427
2.51004
2.51469
2.51842
2.524
2.52691
2.53196
2.53522
2.53875
2.54145
2.54737
2.25316
2.2723
2.29584
2.31163
2.32506
2.33457
2.34132
2.34854
2.35532
2.36214
2.36782
2.37166
2.37462
2.37722
2.38118
2.38357
2.38746
2.38983
2.39367
2.39603
2.40022
2.40178
2.40599
2.17335
2.18725
2.20848
2.22417
2.23647
2.24517
2.2512
2.25806
2.26488
2.27199
2.27732
2.28238
2.28536
2.28715
2.28988
2.29174
2.2952
2.29792
2.30143
2.30457
2.30839
2.312
2.3161
2.0482
2.05572
2.06764
2.07884
2.08731
2.09251
2.0956
2.09883
2.10266
2.10714
2.11185
2.11463
2.11877
2.11974
2.12062
2.12146
2.12287
2.12542
2.12804
2.13181
2.13471
2.13807
2.1431
1.97677
1.97958
1.98764
1.99659
2.0039
2.00847
2.01121
2.01376
2.01682
2.02052
2.02517
2.02808
2.03217
2.03465
2.03593
2.03692
2.03789
2.04025
2.04222
2.04632
2.04882
2.05227
2.0568
1.79903
1.79822
1.79609
1.79592
1.79612
1.79585
1.79466
1.79376
1.79207
1.79181
1.79237
1.79329
1.79514
1.79756
1.79878
1.79894
1.80024
1.80194
1.80212
1.80423
1.80679
1.80936
1.81238
3.05039
2.71959
2.53778
2.43106
2.36312
2.31553
2.27917
2.25933
2.24367
2.23038
2.22215
2.21449
2.20963
2.2103
2.21348
2.22105
2.2353
2.25899
2.29634
2.34494
2.41917
2.46719
2.53513
3.06399
2.73622
2.55267
2.44538
2.37493
2.32065
2.2843
2.26313
2.24811
2.23406
2.22547
2.21768
2.21177
2.21225
2.21517
2.22234
2.23581
2.25881
2.29332
2.34583
2.4176
2.46674
2.51912
3.08481
2.76328
2.575
2.45949
2.38631
2.33379
2.29759
2.27286
2.25391
2.23886
2.22826
2.21984
2.21392
2.21424
2.21679
2.22345
2.23648
2.2589
2.29254
2.34867
2.4022
2.45878
2.50729
3.10097
2.78103
2.59628
2.48201
2.40309
2.34519
2.30425
2.27697
2.2593
2.24247
2.23133
2.22253
2.21666
2.21669
2.21895
2.22511
2.23739
2.25984
2.2919
2.35023
2.39276
2.46042
2.49702
3.11849
2.8135
2.62143
2.49287
2.41664
2.35636
2.31843
2.285
2.26284
2.24522
2.23351
2.22429
2.21944
2.21876
2.22083
2.22698
2.23827
2.26146
2.29153
2.34658
2.39229
2.46193
2.49849
3.13643
2.82955
2.63462
2.51825
2.43674
2.36854
2.32403
2.28713
2.26724
2.25057
2.23922
2.22984
2.22477
2.22239
2.22384
2.22898
2.23887
2.2637
2.29207
2.34681
2.39375
2.46001
2.49875
3.14783
2.84579
2.66122
2.53035
2.44207
2.3698
2.32834
2.29427
2.27527
2.25664
2.2449
2.23392
2.22845
2.22398
2.22495
2.23035
2.23896
2.26645
2.29369
2.34801
2.39596
2.46209
2.50444
3.15177
2.8572
2.66594
2.53632
2.4463
2.38154
2.33816
2.30314
2.27984
2.25928
2.24658
2.235
2.2294
2.22458
2.22547
2.23039
2.23875
2.26276
2.28881
2.34253
2.38591
2.45446
2.4918
2.81702
2.50596
2.36825
2.29345
2.26267
2.24039
2.2168
2.20178
2.19682
2.19323
2.19467
2.20873
2.25503
2.30573
2.36034
2.44562
2.54699
2.70254
2.87135
3.08687
3.33877
3.59524
3.87865
2.83289
2.51348
2.37416
2.29945
2.26645
2.24325
2.22078
2.20691
2.20136
2.19604
2.19158
2.19472
2.22218
2.25751
2.30083
2.3746
2.46481
2.61176
2.77253
2.98674
3.23614
3.48961
3.7698
2.8371
2.52168
2.38194
2.3056
2.27059
2.24789
2.22612
2.21045
2.20442
2.1993
2.19415
2.19441
2.2067
2.23045
2.2626
2.32148
2.39766
2.52979
2.67957
2.88457
3.12012
3.37153
3.65287
2.85511
2.53048
2.38843
2.31181
2.27354
2.25029
2.23068
2.21433
2.20738
2.20146
2.19613
2.19391
2.19678
2.20886
2.23111
2.27651
2.33978
2.45402
2.59026
2.78496
3.01377
3.25896
3.52949
2.86075
2.5398
2.3966
2.32001
2.27924
2.25363
2.23341
2.21783
2.21022
2.20471
2.19956
2.19608
2.19596
2.20081
2.21427
2.246
2.29552
2.38905
2.51043
2.69054
2.89917
3.13385
3.39635
2.88112
2.55105
2.40311
2.32628
2.28432
2.25772
2.23731
2.22091
2.21257
2.20623
2.20179
2.19722
2.19553
2.19828
2.20633
2.22698
2.26579
2.33905
2.44413
2.60226
2.80207
3.01778
3.26454
2.88835
2.56159
2.41375
2.33588
2.29023
2.26161
2.24057
2.2245
2.21547
2.20857
2.20462
2.19994
2.19764
2.19964
2.20562
2.21917
2.24682
2.30257
2.39186
2.53006
2.7077
2.89377
3.14071
2.91095
2.57526
2.42012
2.34168
2.2971
2.26555
2.2433
2.22664
2.21716
2.20973
2.20587
2.20126
2.19913
2.2005
2.20588
2.21789
2.24032
2.28237
2.35602
2.46773
2.63338
2.79434
3.02781
2.91961
2.58837
2.43442
2.35327
2.3043
2.27098
2.24752
2.23028
2.22036
2.21185
2.208
2.20415
2.20059
2.20235
2.20712
2.21781
2.2378
2.27277
2.33205
2.42793
2.56994
2.7021
2.91919
2.94445
2.60462
2.44268
2.35905
2.31049
2.27535
2.24984
2.23296
2.22286
2.21378
2.20891
2.20517
2.20219
2.20361
2.20808
2.21799
2.23674
2.26906
2.32128
2.39835
2.52575
2.63712
2.83166
2.95404
2.61903
2.45774
2.37197
2.31908
2.28107
2.25484
2.23611
2.22562
2.21588
2.21043
2.20688
2.203
2.20444
2.20888
2.21832
2.23589
2.26591
2.31313
2.38384
2.49492
2.58384
2.7391
2.98077
2.64017
2.47229
2.38081
2.32565
2.28696
2.258
2.2401
2.22901
2.21887
2.21245
2.20819
2.20421
2.20541
2.20951
2.21858
2.2356
2.26417
2.30889
2.37353
2.47158
2.54414
2.67691
2.99052
2.65432
2.4842
2.39209
2.33383
2.29208
2.26225
2.24312
2.23112
2.22088
2.21431
2.20914
2.2049
2.20605
2.2101
2.21896
2.23525
2.26215
2.30356
2.36439
2.45228
2.51382
2.61685
3.01838
2.67927
2.5052
2.40534
2.34304
2.29994
2.26753
2.24838
2.23534
2.22425
2.2167
2.21074
2.20628
2.20725
2.21097
2.21947
2.23526
2.26107
2.30054
2.35695
2.43362
2.48561
2.57046
3.02783
2.69573
2.51616
2.41566
2.35137
2.3046
2.27085
2.25138
2.23756
2.22623
2.21945
2.2123
2.20746
2.20831
2.21193
2.22018
2.23529
2.25998
2.29808
2.34964
2.42392
2.47211
2.54582
2.75566
2.77798
2.84491
2.90319
2.98137
3.05884
3.1031
3.13783
3.15022
3.1617
3.17392
3.1828
3.205
3.23439
3.28973
3.35436
3.45164
3.5982
3.81373
4.08911
4.4108
4.79638
5.13406
2.72942
2.73909
2.79036
2.85341
2.94656
3.03269
3.08301
3.1243
3.14786
3.1614
3.17366
3.18195
3.20217
3.2311
3.28723
3.35139
3.44696
3.592
3.80185
4.07327
4.38235
4.74668
5.07269
2.698
2.70479
2.75514
2.81967
2.91537
3.00976
3.06488
3.10279
3.13289
3.15736
3.169
3.1823
3.20151
3.23073
3.28359
3.34809
3.44293
3.58509
3.79054
4.05769
4.36652
4.72317
5.02913
2.68747
2.66475
2.70384
2.77336
2.87217
2.97807
3.03777
3.08553
3.12279
3.15106
3.16414
3.17742
3.20191
3.23106
3.27922
3.34404
3.4368
3.57703
3.77994
4.04092
4.33916
4.68434
5.00665
2.6778
2.62932
2.6588
2.72762
2.83301
2.94137
3.01421
3.06243
3.10253
3.13526
3.15671
3.17293
3.19915
3.22765
3.2746
3.33989
3.43194
3.56986
3.76879
4.02766
4.32515
4.66463
4.97395
2.68042
2.59163
2.61237
2.68058
2.78405
2.9019
2.98115
3.03394
3.0816
3.11735
3.14594
3.16778
3.19629
3.22331
3.26928
3.33426
3.42444
3.56071
3.75535
4.00947
4.30476
4.63035
4.94955
2.6838
2.55502
2.56399
2.62604
2.73202
2.85998
2.94301
3.00297
3.05159
3.09377
3.13169
3.15868
3.1878
3.2173
3.26271
3.32834
3.41757
3.55117
3.74327
3.99267
4.28508
4.60876
4.92707
2.69251
2.52445
2.51748
2.57346
2.6766
2.80644
2.89972
2.96397
3.01816
3.06559
3.10937
3.14724
3.17982
3.2092
3.25485
3.32029
3.40837
3.54125
3.72838
3.97555
4.26803
4.57308
4.89432
2.70004
2.49131
2.47317
2.51428
2.61536
2.75054
2.84782
2.92018
2.97817
3.02827
3.07996
3.12786
3.16229
3.1977
3.2448
3.31109
3.39826
3.52849
3.71293
3.95374
4.2441
4.55323
4.87192
2.71388
2.47104
2.42763
2.45871
2.55264
2.69091
2.78855
2.86809
2.92907
2.98816
3.04475
3.10152
3.14127
3.18458
3.23267
3.299
3.38603
3.51661
3.69709
3.93714
4.22588
4.51618
4.83541
2.72246
2.45039
2.38901
2.40238
2.49008
2.61898
2.72385
2.80938
2.87255
2.93536
3.00456
3.06795
3.11379
3.16313
3.21657
3.28448
3.37132
3.49981
3.67709
3.91188
4.19699
4.49359
4.80845
2.73511
2.4427
2.35248
2.35226
2.42772
2.55586
2.6523
2.74525
2.80996
2.87896
2.95384
3.03052
3.0815