/*--------------------------------*- C++ -*----------------------------------*\
  =========                 |
  \\      /  F ield         | OpenFOAM: The Open Source CFD Toolbox
   \\    /   O peration     | Website:  https://openfoam.org
    \\  /    A nd           | Version:  7
     \\/     M anipulation  |
\*---------------------------------------------------------------------------*/
FoamFile
{
    version     2.0;
    format      ascii;
    class       volScalarField;
    location    "52";
    object      p;
}
// * * * * * * * * * * * * * * * * * * * * * * * * * * * * * * * * * * * * * //

dimensions      [0 2 -2 0 0 0 0];

internalField   nonuniform List<scalar> 
12842
(
-0.0471461
-0.0492406
-0.0495986
-0.0498105
-0.0478307
-0.0392305
-0.0170917
0.0290472
0.114055
0.258054
0.487024
0.832356
1.32856
2.00858
2.89703
4.00199
5.30805
6.77494
8.34144
9.93383
11.4797
12.9147
14.2034
-0.0686145
-0.0743827
-0.0804677
-0.0911121
-0.105617
-0.12063
-0.130703
-0.126975
-0.096036
-0.0188809
0.130072
0.383031
0.776997
1.34931
2.13064
3.13597
4.35657
5.75729
7.27954
8.849
10.3908
11.8345
13.1425
-0.085571
-0.0944691
-0.106141
-0.127517
-0.158384
-0.196576
-0.238221
-0.276076
-0.298311
-0.287236
-0.217845
-0.0572509
0.233978
0.697532
1.36994
2.27256
3.40245
4.72845
6.19367
7.72267
9.23875
10.6655
11.9656
-0.0990654
-0.110073
-0.127596
-0.159828
-0.206611
-0.26722
-0.339388
-0.417546
-0.491639
-0.545615
-0.555433
-0.487975
-0.301785
0.0488607
0.606074
1.39728
2.42504
3.66201
5.05318
6.52241
7.99239
9.38183
10.6566
-0.10982
-0.121422
-0.14548
-0.187979
-0.249681
-0.331401
-0.432439
-0.549058
-0.6733
-0.791269
-0.880545
-0.908591
-0.832632
-0.603388
-0.173294
0.491365
1.39928
2.52784
3.82519
5.21574
6.62311
7.96132
9.20119
-0.11823
-0.128846
-0.16024
-0.211451
-0.286586
-0.387373
-0.514696
-0.666886
-0.838398
-1.01807
-1.18588
-1.31089
-1.34986
-1.25054
-0.960013
-0.437895
0.331549
1.33162
2.51519
3.8084
5.13702
6.41013
7.6045
-0.124565
-0.132966
-0.172159
-0.229747
-0.316594
-0.433667
-0.58382
-0.767624
-0.982158
-1.21956
-1.463
-1.68427
-1.84065
-1.8777
-1.73734
-1.37233
-0.759132
0.0924358
1.14142
2.31652
3.54728
4.73756
5.87249
-0.12908
-0.13454
-0.181418
-0.242827
-0.33967
-0.469763
-0.638882
-0.849817
-1.1024
-1.3926
-1.7075
-2.0228
-2.29719
-2.475
-2.4933
-2.29815
-1.85767
-1.17427
-0.281311
0.753099
1.86459
2.95108
4.01095
-0.132278
-0.134215
-0.187711
-0.250268
-0.354576
-0.492966
-0.67512
-0.905259
-1.18545
-1.51528
-1.88562
-2.27649
-2.64864
-2.9463
-3.103
-3.05965
-2.77724
-2.25193
-1.50932
-0.615151
0.375731
1.35013
2.3314
-0.13529
-0.133198
-0.192931
-0.255795
-0.366474
-0.510814
-0.703051
-0.947928
-1.24921
-1.60943
-2.02262
-2.4725
-2.92166
-3.31478
-3.5832
-3.6647
-3.51543
-3.12734
-2.52
-1.7565
-0.883784
-0.0179191
0.87343
-0.137073
-0.131611
-0.196854
-0.260256
-0.377007
-0.526628
-0.728519
-0.987327
-1.30852
-1.69756
-2.15159
-2.65811
-3.18178
-3.66835
-4.04796
-4.25654
-4.24662
-4.00687
-3.55098
-2.93876
-2.20858
-1.47587
-0.700824
-0.13767
-0.129789
-0.199429
-0.263781
-0.385867
-0.540136
-0.751124
-1.02288
-1.36266
-1.77891
-2.27189
-2.83309
-3.42956
-4.00892
-4.50109
-4.84133
-4.97948
-4.90149
-4.61502
-4.17575
-3.61253
-3.03772
-2.40335
-0.137451
-0.128024
-0.20101
-0.266679
-0.39307
-0.55145
-0.770835
-1.05439
-1.41131
-1.853
-2.38297
-2.99687
-3.66467
-4.33669
-4.94363
-5.42111
-5.71699
-5.81488
-5.71605
-5.47115
-5.09869
-4.70562
-4.23702
-0.13665
-0.126392
-0.202007
-0.269193
-0.398867
-0.561024
-0.788103
-1.08237
-1.45504
-1.9205
-2.48554
-3.15023
-3.88791
-4.65252
-5.37647
-5.99677
-6.45984
-6.74732
-6.8538
-6.82403
-6.66552
-6.47749
-6.19984
-0.135375
-0.124851
-0.202711
-0.271394
-0.403517
-0.569307
-0.803423
-1.10745
-1.49468
-1.9824
-2.58076
-3.29449
-4.10084
-4.95821
-5.8017
-6.57058
-7.21046
-7.70116
-8.03037
-8.236
-8.31405
-8.35337
-8.29033
-0.133723
-0.12339
-0.203301
-0.273244
-0.407253
-0.57662
-0.817153
-1.13012
-1.53087
-2.03954
-2.6697
-3.43102
-4.30518
-5.25596
-6.22198
-7.14565
-7.97206
-8.67931
-9.24772
-9.70735
-10.0422
-10.3281
-10.4999
-0.131821
-0.122042
-0.203859
-0.274687
-0.410274
-0.583149
-0.829495
-1.15068
-1.56401
-2.09244
-2.75304
-3.5607
-4.50214
-5.54735
-6.63925
-7.72401
-8.7464
-9.68245
-10.5045
-11.2336
-11.8413
-12.3882
-12.8095
-0.129786
-0.120871
-0.204381
-0.27568
-0.412711
-0.588933
-0.840474
-1.16916
-1.59413
-2.14109
-2.83071
-3.6834
-4.6915
-5.83201
-7.05283
-8.30433
-9.53081
-10.7057
-11.7924
-12.8016
-13.692
-14.5074
-15.1852
-0.127708
-0.11992
-0.204804
-0.27622
-0.414643
-0.593923
-0.850022
-1.18547
-1.62106
-2.1852
-2.90221
-3.79836
-4.87209
-6.10818
-7.45997
-8.88232
-10.3186
-11.7386
-13.0959
-14.3891
-15.5642
-16.6462
-17.5769
-0.125652
-0.119206
-0.205054
-0.276332
-0.416099
-0.598045
-0.858064
-1.19951
-1.64464
-2.22447
-2.96706
-3.90475
-5.0426
-6.37369
-7.85717
-9.45234
-11.1009
-12.7677
-14.3951
-15.9679
-17.4194
-18.7551
-19.9229
-0.123667
-0.118693
-0.205078
-0.276079
-0.417091
-0.601233
-0.864547
-1.21121
-1.66476
-2.25873
-3.02493
-4.00197
-5.20181
-6.62633
-8.24046
-10.0077
-11.8668
-13.7762
-15.6651
-17.5028
-19.2109
-20.7753
-22.1516
-0.12177
-0.118343
-0.204821
-0.275494
-0.417603
-0.603484
-0.869531
-1.22066
-1.68148
-2.28797
-3.07564
-4.08947
-5.3485
-6.86357
-8.60517
-10.5404
-12.6032
-14.7439
-16.8764
-18.9537
-20.8865
-22.6431
-24.1877
-0.119961
-0.118031
-0.204317
-0.274665
-0.417642
-0.604786
-0.873057
-1.22798
-1.69509
-2.31264
-3.11971
-4.16762
-5.48238
-7.08374
-8.94712
-11.0421
-13.2961
-15.6488
-17.9977
-20.2783
-22.3932
-24.2964
-25.9608
-0.118128
-0.117886
-0.203449
-0.273778
-0.417431
-0.605576
-0.875502
-1.2331
-1.70456
-2.33002
-3.15193
-4.22748
-5.58969
-7.26726
-9.24093
-11.4826
-13.9118
-16.4559
-18.9939
-21.4438
-23.7007
-25.7085
-27.4457
-0.117643
-0.118408
-0.203301
-0.273954
-0.418267
-0.607378
-0.878538
-1.23787
-1.71201
-2.34269
-3.17559
-4.27325
-5.67562
-7.41966
-9.49094
-11.8617
-14.4419
-17.1436
-19.8273
-22.394
-24.7353
-26.7913
-28.5488
-0.116658
-0.118738
-0.203164
-0.274698
-0.420113
-0.610759
-0.88382
-1.24558
-1.72319
-2.35976
-3.20393
-4.32267
-5.76174
-7.56425
-9.71844
-12.1939
-14.8891
-17.6994
-20.4695
-23.0879
-25.448
-27.4936
-29.2213
-0.115331
-0.11885
-0.203144
-0.275894
-0.422652
-0.615017
-0.890148
-1.25441
-1.73548
-2.3777
-3.23227
-4.36973
-5.84034
-7.69144
-9.91179
-12.4658
-15.2394
-18.1114
-20.9144
-23.5299
-25.8583
-27.8511
-29.5147
-0.114358
-0.119044
-0.203477
-0.277472
-0.425533
-0.619419
-0.896286
-1.26249
-1.74625
-2.39296
-3.25598
-4.40868
-5.90456
-7.79334
-10.0623
-12.6686
-15.4854
-18.3764
-21.167
-23.7367
-25.9964
-27.9084
-29.4873
-0.113939
-0.119432
-0.204157
-0.279277
-0.428435
-0.62351
-0.901631
-1.26911
-1.75469
-2.40464
-3.27403
-4.4383
-5.95287
-7.86806
-10.1677
-12.8004
-15.6269
-18.4987
-21.2388
-23.729
-25.8935
-27.7062
-29.1885
-0.113832
-0.119918
-0.204982
-0.28106
-0.431068
-0.627022
-0.905989
-1.27425
-1.76101
-2.41323
-3.28718
-4.45947
-5.98614
-7.9162
-10.2284
-12.862
-15.6669
-18.4857
-21.1433
-23.5284
-25.5786
-27.28
-28.6591
-0.113725
-0.120359
-0.205728
-0.282602
-0.433227
-0.62982
-0.909352
-1.27811
-1.76564
-2.41937
-3.29619
-4.47302
-6.00505
-7.93826
-10.245
-12.8548
-15.6092
-18.3455
-20.895
-23.1555
-25.079
-26.662
-27.9346
-0.113446
-0.120679
-0.206281
-0.283798
-0.434858
-0.631931
-0.911861
-1.28096
-1.76898
-2.42352
-3.30154
-4.47928
-6.00976
-7.93429
-10.2179
-12.7806
-15.4583
-18.0871
-20.508
-22.6304
-24.4195
-25.8809
-27.0467
-0.112947
-0.120861
-0.206619
-0.28467
-0.436046
-0.633521
-0.913784
-1.28316
-1.77143
-2.42605
-3.30346
-4.47831
-6.00019
-7.90428
-10.1476
-12.6416
-15.2194
-17.72
-19.9968
-21.9717
-23.6224
-24.9621
-26.023
-0.112264
-0.120935
-0.206795
-0.285305
-0.43695
-0.634823
-0.915427
-1.28506
-1.77333
-2.42723
-3.30209
-4.47012
-5.97625
-7.8484
-10.0352
-12.4408
-14.8985
-17.2538
-19.3749
-21.1966
-22.7076
-23.9272
-24.8861
-0.111456
-0.120943
-0.206878
-0.285823
-0.437745
-0.636059
-0.91705
-1.28692
-1.77489
-2.42719
-3.29748
-4.45467
-5.93803
-7.76718
-9.88227
-12.1818
-14.502
-16.6983
-18.6552
-20.3205
-21.6923
-22.7944
-23.6549
-0.110592
-0.120932
-0.206946
-0.286323
-0.438567
-0.637388
-0.918814
-1.28886
-1.77619
-2.42594
-3.2896
-4.43199
-5.88577
-7.66146
-9.69093
-11.8687
-14.0365
-16.0629
-17.8497
-19.3569
-20.5909
-21.5785
-22.3439
-0.10972
-0.120939
-0.207051
-0.286883
-0.439507
-0.638897
-0.920783
-1.2909
-1.77719
-2.42339
-3.27836
-4.40213
-5.81989
-7.53245
-9.46368
-11.5058
-13.5089
-15.3567
-16.9689
-18.3175
-19.4155
-20.2914
-20.9651
-0.108879
-0.120994
-0.207232
-0.287541
-0.440604
-0.640604
-0.922935
-1.29297
-1.77776
-2.4194
-3.26371
-4.36524
-5.74096
-7.38154
-9.20329
-11.0979
-12.926
-14.5881
-16.0226
-17.2124
-18.176
-18.9427
-19.5274
-0.108085
-0.121111
-0.207501
-0.28831
-0.441854
-0.642479
-0.9252
-1.29494
-1.77776
-2.41385
-3.24559
-4.32148
-5.64966
-7.21034
-8.91281
-10.6499
-12.2946
-13.7656
-15.0198
-16.0507
-16.881
-17.5401
-18.0375
-0.107343
-0.121297
-0.207855
-0.289177
-0.443229
-0.644464
-0.927484
-1.29669
-1.77703
-2.40661
-3.224
-4.27112
-5.54672
-7.0205
-8.59533
-10.1667
-11.6216
-12.8972
-13.9691
-14.8406
-15.5382
-16.0904
-16.5014
-0.106646
-0.121545
-0.208274
-0.290119
-0.444687
-0.646494
-0.929694
-1.29812
-1.77549
-2.39762
-3.19899
-4.21444
-5.43297
-6.81381
-8.25413
-9.65355
-10.9137
-11.9911
-12.879
-13.5903
-14.1551
-14.6008
-14.9259
-0.105988
-0.121849
-0.208738
-0.291103
-0.446182
-0.648504
-0.931753
-1.29913
-1.77306
-2.38688
-3.17066
-4.15178
-5.30924
-6.59208
-7.89252
-9.11542
-10.178
-11.0554
-11.7581
-12.3083
-12.74
-13.0789
-13.3186
-0.105357
-0.122192
-0.209221
-0.292103
-0.447676
-0.650447
-0.93361
-1.29969
-1.76974
-2.37443
-3.13916
-4.08356
-5.17649
-6.35722
-7.51395
-8.55766
-9.42133
-10.0983
-10.6154
-11.0038
-11.3014
-11.5328
-11.6864
-0.104747
-0.122565
-0.209702
-0.293094
-0.449138
-0.652288
-0.935235
-1.29979
-1.76554
-2.36035
-3.10467
-4.01019
-5.03567
-6.11117
-7.12188
-7.98557
-8.65094
-9.12848
-9.46021
-9.68595
-9.8479
-9.96961
-10.0348
-0.10415
-0.122951
-0.210164
-0.294064
-0.450552
-0.654013
-0.936625
-1.29945
-1.76052
-2.34474
-3.06744
-3.93218
-4.88783
-5.85598
-6.71987
-7.40459
-7.8741
-8.15474
-8.30231
-8.36471
-8.38843
-8.39643
-8.3686
-0.103566
-0.123342
-0.210597
-0.295001
-0.451908
-0.655618
-0.93779
-1.2987
-1.75474
-2.32774
-3.02769
-3.85002
-4.73402
-5.59368
-6.31146
-6.82006
-7.0981
-7.18616
-7.15187
-7.05063
-6.93317
-6.82239
-6.69557
-0.10299
-0.123726
-0.210997
-0.295908
-0.45321
-0.657119
-0.938762
-1.2976
-1.74831
-2.30949
-2.98569
-3.76424
-4.57535
-5.32633
-5.90018
-6.23736
-6.33031
-6.23219
-6.01987
-5.75606
-5.49514
-5.26106
-5.02989
-0.102414
-0.124095
-0.211361
-0.296786
-0.454466
-0.658534
-0.939579
-1.29621
-1.7413
-2.29013
-2.94172
-3.67539
-4.41291
-5.05597
-5.48945
-5.66171
-5.57794
-5.30275
-4.91852
-4.49591
-4.09182
-3.73267
-3.39371
-0.101797
-0.124445
-0.211681
-0.297636
-0.455691
-0.659925
-0.940392
-1.29483
-1.73435
-2.27092
-2.89821
-3.58812
-4.25496
-4.79611
-5.09961
-5.12151
-4.87807
-4.4447
-3.90406
-3.33662
-2.79865
-2.32306
-1.87926
-0.101416
-0.124877
-0.212111
-0.298596
-0.457072
-0.661548
-0.941601
-1.29418
-1.72877
-2.25445
-2.86032
-3.5121
-4.1184
-4.57369
-4.77008
-4.67014
-4.29881
-3.74164
-3.07644
-2.3946
-1.74822
-1.18219
-0.651389
-0.100917
-0.125218
-0.21247
-0.299588
-0.458621
-0.663569
-0.943586
-1.29491
-1.72565
-2.24252
-2.83106
-3.45226
-4.01078
-4.3993
-4.51421
-4.32325
-3.85775
-3.21174
-2.45835
-1.69435
-0.970591
-0.344406
0.24627
-0.100314
-0.125502
-0.2128
-0.300672
-0.460428
-0.666112
-0.946487
-1.29714
-1.72499
-2.23489
-2.80957
-3.4065
-3.92755
-4.26444
-4.31738
-4.05851
-3.52411
-2.81306
-2.00162
-1.17677
-0.400173
0.263711
0.891744
-0.0997461
-0.12581
-0.213205
-0.301953
-0.462589
-0.669252
-0.950313
-1.30074
-1.72647
-2.23079
-2.79437
-3.37204
-3.86367
-4.16056
-4.16606
-3.85627
-3.27177
-2.51074
-1.66457
-0.792979
0.0209095
0.710119
1.36006
-0.0992744
-0.12618
-0.213748
-0.303481
-0.465145
-0.672992
-0.954982
-1.30549
-1.72956
-2.22929
-2.78378
-3.34594
-3.81417
-4.0798
-4.04847
-3.69999
-3.0792
-2.27806
-1.41223
-0.506608
0.336785
1.04752
1.7101
-0.0988864
-0.126595
-0.214417
-0.305227
-0.468022
-0.677181
-0.960218
-1.31092
-1.73356
-2.22933
-2.77612
-3.32549
-3.7747
-4.01535
-3.95471
-3.57596
-2.92833
-2.09462
-1.21542
-0.28945
0.580448
1.31227
1.98323
-0.0985528
-0.12704
-0.215191
-0.307142
-0.47114
-0.681679
-0.96579
-1.31667
-1.73795
-2.23007
-2.77016
-3.30876
-3.74232
-3.96277
-3.87854
-3.4756
-2.80758
-1.94843
-1.05577
-0.123138
0.770262
1.52239
2.20072
-0.0982709
-0.127503
-0.216057
-0.309209
-0.474481
-0.686448
-0.971622
-1.3226
-1.74236
-2.23078
-2.76434
-3.29274
-3.71176
-3.91363
-3.8079
-3.38289
-2.69647
-1.81643
-0.906946
0.0238593
0.936555
1.70835
2.39522
-0.0979145
-0.127909
-0.21683
-0.311158
-0.477579
-0.690777
-0.976653
-1.32719
-1.74475
-2.22862
-2.75477
-3.27221
-3.67637
-3.86026
-3.73507
-3.29132
-2.59076
-1.69793
-0.773285
0.146434
1.0654
1.84867
2.54209
-0.0976289
-0.128371
-0.21772
-0.313211
-0.480738
-0.695043
-0.981384
-1.33113
-1.74608
-2.22497
-2.74327
-3.2493
-3.63833
-3.80423
-3.66017
-3.19864
-2.48503
-1.58369
-0.643448
0.264542
1.17917
1.96695
2.66325
-0.0974269
-0.128892
-0.218726
-0.315341
-0.483932
-0.699236
-0.985885
-1.33467
-1.74686
-2.22067
-2.73107
-3.22558
-3.59927
-3.74675
-3.5834
-3.10325
-2.37537
-1.4665
-0.509834
0.391335
1.29439
2.08132
2.7744
-0.0972271
-0.129401
-0.219713
-0.317389
-0.486962
-0.703138
-0.989948
-1.33765
-1.74704
-2.21584
-2.71846
-3.20156
-3.55994
-3.68897
-3.50643
-3.00747
-2.26481
-1.34945
-0.377785
0.521517
1.40838
2.18896
2.8747
-0.096986
-0.129868
-0.220608
-0.319267
-0.489729
-0.706656
-0.993515
-1.34007
-1.74671
-2.21065
-2.70569
-3.17761
-3.52102
-3.63214
-3.43145
-2.915
-2.15888
-1.23936
-0.256578
0.643888
1.5125
2.28242
2.95933
-0.0967021
-0.1303
-0.221414
-0.320998
-0.49228
-0.709887
-0.996757
-1.34221
-1.74623
-2.20554
-2.69329
-3.15436
-3.4833
-3.57741
-3.36016
-2.82873
-2.06195
-1.14171
-0.153349
0.749124
1.59984
2.35551
3.02187
-0.0963928
-0.130721
-0.222168
-0.32264
-0.49471
-0.712982
-0.999899
-1.34437
-1.74599
-2.20093
-2.68164
-3.13212
-3.44698
-3.52486
-3.29253
-2.74894
-1.97484
-1.05778
-0.0702018
0.832972
1.66644
2.40436
3.05571
-0.0960674
-0.131145
-0.222897
-0.324247
-0.497105
-0.716067
-1.00311
-1.34675
-1.74617
-2.19693
-2.6707
-3.11059
-3.41138
-3.47328
-3.22671
-2.67318
-1.89467
-0.984272
-0.0037775
0.897049
1.7135
2.42991
3.0601
-0.0957352
-0.13158
-0.223623
-0.325852
-0.499511
-0.719206
-1.00646
-1.34939
-1.74672
-2.19331
-2.65995
-3.08885
-3.37498
-3.42037
-3.15937
-2.59687
-1.8156
-0.914027
0.0542323
0.949038
1.74828
2.44073
3.04413
-0.0953994
-0.132025
-0.224352
-0.327474
-0.501955
-0.722418
-1.00993
-1.35221
-1.74743
-2.18967
-2.64868
-3.06575
-3.33609
-3.36365
-3.08703
-2.51506
-1.73101
-0.838538
0.114349
1.00002
1.7826
2.45087
3.02453
-0.0950666
-0.132481
-0.225092
-0.329116
-0.50443
-0.725682
-1.01348
-1.35507
-1.74803
-2.18552
-2.63616
-3.04024
-3.29321
-3.30108
-3.00688
-2.42376
-1.63537
-0.750395
0.186235
1.06093
1.82821
2.47468
3.01878
-0.0947382
-0.132942
-0.22584
-0.330775
-0.506929
-0.728969
-1.01701
-1.35783
-1.74828
-2.1805
-2.62188
-3.01165
-3.24554
-3.23171
-2.91767
-2.32114
-1.526
-0.645648
0.275614
1.13861
1.89257
2.52101
3.0383
-0.0944181
-0.133411
-0.226597
-0.332443
-0.509427
-0.732232
-1.02046
-1.36034
-1.74797
-2.17433
-2.60552
-2.9797
-3.19291
-3.15558
-2.81972
-2.20762
-1.40334
-0.524521
0.383063
1.23405
1.97613
2.59032
3.08467
-0.0941046
-0.13388
-0.227356
-0.334112
-0.511909
-0.735436
-1.02376
-1.36253
-1.74698
-2.16692
-2.58707
-2.94455
-3.13583
-3.07373
-2.71477
-2.08578
-1.27089
-0.391288
0.504048
1.34227
2.0726
2.67479
3.15003
-0.0937987
-0.134351
-0.228116
-0.335769
-0.514351
-0.738545
-1.02685
-1.36431
-1.74525
-2.15824
-2.56664
-2.90657
-3.07513
-2.98771
-2.60537
-1.95939
-1.13394
-0.252832
0.630552
1.45419
2.17095
2.76129
3.22014
-0.0934965
-0.134819
-0.228872
-0.33741
-0.516742
-0.741539
-1.02971
-1.36566
-1.74278
-2.14838
-2.54448
-2.86632
-3.01187
-2.89934
-2.49438
-1.83272
-0.998577
-0.11719
0.752997
1.55893
2.25861
2.83506
3.27879
-0.0931978
-0.135284
-0.229621
-0.339023
-0.519065
-0.744395
-1.03232
-1.36658
-1.7396
-2.13745
-2.52085
-2.82432
-2.94697
-2.81019
-2.38436
-1.70965
-0.87032
0.00818622
0.862399
1.6465
2.32434
2.88333
3.31178
-0.0928984
-0.135743
-0.230358
-0.340605
-0.521318
-0.74711
-1.03467
-1.36707
-1.73576
-2.12557
-2.496
-2.78103
-2.88125
-2.72158
-2.27734
-1.5932
-0.753498
0.117484
0.951834
1.70948
2.36047
2.89769
3.30969
-0.0925989
-0.136196
-0.231083
-0.342151
-0.523489
-0.749673
-1.03676
-1.36714
-1.7313
-2.11283
-2.47012
-2.73675
-2.81518
-2.63426
-2.17451
-1.48515
-0.650615
0.207332
1.01741
1.74419
2.3638
2.87522
3.26906
-0.0922958
-0.136641
-0.231793
-0.343661
-0.525582
-0.752088
-1.03859
-1.36681
-1.72625
-2.09932
-2.44331
-2.69169
-2.74905
-2.54862
-2.07635
-1.38613
-0.562433
0.276824
1.05838
1.75071
2.33567
2.81812
3.19213
-0.0919908
-0.137081
-0.232489
-0.34513
-0.527589
-0.754348
-1.04017
-1.36609
-1.72064
-2.08504
-2.41562
-2.64584
-2.68284
-2.46455
-1.98264
-1.29566
-0.488054
0.327325
1.0768
1.73236
2.28095
2.73263
3.08544
-0.0916814
-0.137512
-0.233169
-0.346562
-0.529516
-0.75646
-1.04149
-1.36498
-1.71447
-2.07001
-2.38703
-2.59917
-2.6164
-2.38176
-1.89276
-1.21255
-0.425444
0.361823
1.0768
1.69468
2.20679
2.62725
2.95802
-0.0913701
-0.137938
-0.233834
-0.347952
-0.531356
-0.758416
-1.04256
-1.36348
-1.70773
-2.05419
-2.35745
-2.55152
-2.54948
-2.29972
-1.80575
-1.13511
-0.371829
0.384311
1.06357
1.64421
2.12108
2.51104
2.81952
-0.0910549
-0.138357
-0.234484
-0.349303
-0.533115
-0.76022
-1.04337
-1.36157
-1.70039
-2.03754
-2.32682
-2.50276
-2.4818
-2.21794
-1.72069
-1.06161
-0.324282
0.399026
1.04254
1.58742
2.03121
2.39223
2.67867
-0.0907385
-0.138772
-0.23512
-0.350613
-0.534784
-0.761861
-1.04391
-1.35924
-1.69242
-2.01999
-2.29501
-2.45271
-2.4131
-2.13595
-1.63665
-0.990397
-0.28005
0.409889
1.01856
1.52981
1.94314
2.27727
2.54229
-0.0904187
-0.139181
-0.23574
-0.351883
-0.536368
-0.763341
-1.04417
-1.35647
-1.68379
-2.00148
-2.26196
-2.40126
-2.3432
-2.05342
-1.55302
-0.920198
-0.236943
0.420029
0.995356
1.47536
1.8609
2.17028
2.41486
-0.0900984
-0.139588
-0.236347
-0.353111
-0.537856
-0.764644
-1.04413
-1.35322
-1.67443
-1.98193
-2.22754
-2.34828
-2.27197
-1.97014
-1.46936
-0.850165
-0.193462
0.43156
0.975312
1.42635
1.78651
2.07321
2.29848
-0.089775
-0.13999
-0.236938
-0.354296
-0.539251
-0.765768
-1.04377
-1.34947
-1.66431
-1.9613
-2.19172
-2.29376
-2.19941
-1.88614
-1.38559
-0.779973
-0.1489
0.44549
0.959405
1.38343
1.72021
1.98605
2.19321
-0.0894515
-0.140389
-0.237514
-0.355435
-0.540541
-0.766697
-1.04308
-1.34519
-1.65338
-1.9395
-2.15442
-2.23767
-2.1256
-1.80154
-1.30184
-0.709732
-0.103271
0.461829
0.947411
1.34596
1.66088
1.9074
2.09771
-0.0891247
-0.140782
-0.238072
-0.356528
-0.541728
-0.767426
-1.04204
-1.34034
-1.6416
-1.91652
-2.11566
-2.18008
-2.0507
-1.71664
-1.21855
-0.639969
-0.0572133
0.479779
0.938207
1.3124
1.6066
1.83502
2.00975
-0.0887978
-0.141172
-0.238614
-0.357568
-0.542797
-0.767934
-1.04062
-1.33489
-1.62892
-1.8923
-2.07539
-2.12106
-1.97492
-1.63183
-1.13628
-0.571487
-0.011801
0.497983
0.930106
1.28074
1.55503
1.76643
1.92675
-0.0884675
-0.141554
-0.239135
-0.358557
-0.543748
-0.768216
-1.03881
-1.32881
-1.6153
-1.86681
-2.03367
-2.06075
-1.89858
-1.5476
-1.05573
-0.505288
0.0316379
0.514821
0.921214
1.24888
1.50392
1.6992
1.84624
-0.088137
-0.141931
-0.239636
-0.359486
-0.544567
-0.768252
-1.03657
-1.32206
-1.60071
-1.84004
-1.99051
-1.99929
-1.82197
-1.46445
-0.977668
-0.442435
0.0717079
0.528641
0.909716
1.2149
1.45131
1.63129
1.76611
-0.0878025
-0.142299
-0.240114
-0.360356
-0.545254
-0.768033
-1.03389
-1.31462
-1.58512
-1.81198
-1.946
-1.93689
-1.74549
-1.38296
-0.902847
-0.383951
0.107123
0.537995
0.894113
1.17734
1.39573
1.56124
1.68483
-0.087468
-0.142659
-0.240568
-0.361159
-0.545791
-0.767539
-1.03075
-1.30645
-1.5685
-1.78264
-1.90021
-1.87375
-1.66948
-1.30365
-0.831971
-0.330729
0.136815
0.541754
0.873352
1.13523
1.33634
1.48821
1.6015
-0.0871287
-0.143008
-0.240995
-0.361894
-0.546178
-0.766759
-1.02711
-1.29753
-1.55083
-1.75203
-1.85323
-1.8101
-1.59435
-1.22704
-0.765647
-0.283465
0.160045
0.539236
0.846888
1.08822
1.27288
1.41198
1.51582
-0.0867905
-0.143348
-0.241396
-0.362555
-0.546401
-0.765676
-1.02296
-1.28783
-1.53208
-1.72015
-1.80517
-1.74616
-1.52043
-1.1536
-0.704366
-0.242636
0.176399
0.530183
0.814642
1.0364
1.20557
1.3328
1.42795
-0.0864438
-0.143672
-0.241764
-0.363135
-0.546449
-0.764265
-1.01826
-1.2773
-1.51224
-1.68706
-1.75616
-1.68222
-1.44814
-1.08375
-0.648468
-0.208443
0.185854
0.514789
0.777019
0.980264
1.13499
1.25124
1.33843
-0.0861141
-0.144
-0.242127
-0.363671
-0.546359
-0.762558
-1.01301
-1.26588
-1.49118
-1.65264
-1.70621
-1.61847
-1.3779
-1.01806
-0.598484
-0.181243
0.188317
0.493237
0.734412
0.920389
1.06179
1.16798
1.24781
-0.0858058
-0.144313
-0.24253
-0.364186
-0.546091
-0.760236
-1.0064
-1.25216
-1.46689
-1.61451
-1.6531
-1.55343
-1.30935
-0.957267
-0.555843
-0.162534
0.18271
0.465461
0.688004
0.859102
0.989281
1.0875
1.16206
-0.0852409
-0.14433
-0.242456
-0.363793
-0.544253
-0.755279
-0.995725
-1.23275
-1.43559
-1.56923
-1.59487
-1.48804
-1.24745
-0.910511
-0.533139
-0.167064
0.15311
0.415219
0.621991
0.781624
0.903844
0.996773
1.06817
-0.0848788
-0.144435
-0.242467
-0.36307
-0.541472
-0.748316
-0.981628
-1.20837
-1.39801
-1.51714
-1.53071
-1.4193
-1.18612
-0.868563
-0.5188
-0.182423
0.111268
0.352269
0.543337
0.691866
0.806472
0.894345
0.962764
-0.0847304
-0.144665
-0.242601
-0.362147
-0.537958
-0.739718
-0.96468
-1.17974
-1.35482
-1.45847
-1.45976
-1.34452
-1.12036
-0.824163
-0.503718
-0.198421
0.0676881
0.28676
0.461482
0.598501
0.705384
0.788269
0.853897
-0.0845126
-0.144779
-0.24248
-0.360638
-0.533229
-0.728951
-0.944292
-1.14622
-1.30534
-1.39246
-1.38123
-1.26292
-1.04935
-0.776301
-0.486542
-0.213227
0.0247377
0.221508
0.379744
0.505177
0.604395
0.682332
0.745123
-0.0841195
-0.144633
-0.241868
-0.358223
-0.52683
-0.715423
-0.91973
-1.10697
-1.24875
-1.31854
-1.29502
-1.17493
-0.973721
-0.725262
-0.466746
-0.225191
-0.0149312
0.159949
0.301852
0.415484
0.506371
0.578401
0.637108
-0.0836399
-0.144252
-0.240783
-0.354873
-0.518673
-0.699003
-0.890857
-1.06197
-1.18526
-1.23733
-1.20212
-1.08156
-0.893835
-0.67015
-0.441953
-0.230693
-0.0469426
0.106582
0.231968
0.333015
0.414362
0.479129
0.532337
-0.0832032
-0.143716
-0.239329
-0.35066
-0.50883
-0.679813
-0.85794
-1.01177
-1.11594
-1.15049
-1.10466
-0.98487
-0.811065
-0.611337
-0.411659
-0.228795
-0.0702785
0.0622849
0.170923
0.258821
0.329966
0.3869
0.434068
-0.0828422
-0.143041
-0.237534
-0.345594
-0.497315
-0.65794
-0.821267
-0.957092
-1.04217
-1.06026
-1.00566
-0.888378
-0.729086
-0.552558
-0.379798
-0.223577
-0.0890314
0.0233427
0.115605
0.190595
0.251681
0.300969
0.3422
-0.0825378
-0.142192
-0.235334
-0.339554
-0.483976
-0.633278
-0.78094
-0.898493
-0.965293
-0.969039
-0.908569
-0.796449
-0.652995
-0.499445
-0.352326
-0.220943
-0.108535
-0.0147359
0.0625248
0.125735
0.177697
0.220095
0.255993
-0.082228
-0.141085
-0.232585
-0.332341
-0.468562
-0.605622
-0.736981
-0.836495
-0.886621
-0.879054
-0.816473
-0.712751
-0.586724
-0.455922
-0.33279
-0.223837
-0.130863
-0.0531205
0.0113563
0.0646021
0.108908
0.145533
0.176959
-0.0818714
-0.139629
-0.229121
-0.323704
-0.450778
-0.574765
-0.689471
-0.77169
-0.807382
-0.792038
-0.731182
-0.638695
-0.530937
-0.421763
-0.320143
-0.2305
-0.153785
-0.0892119
-0.0351354
0.0100371
0.0480844
0.0799317
0.107536
-0.0814107
-0.13771
-0.224741
-0.3134
-0.430382
-0.540625
-0.638676
-0.704802
-0.728607
-0.708851
-0.652713
-0.572925
-0.48291
-0.393139
-0.310006
-0.236457
-0.173097
-0.119252
-0.0737154
-0.0352546
-0.00256353
0.0250662
0.0491294
-0.0808116
-0.135222
-0.219252
-0.301201
-0.407212
-0.503289
-0.58507
-0.636619
-0.650986
-0.629395
-0.57952
-0.512319
-0.438295
-0.36521
-0.29762
-0.237554
-0.185434
-0.140772
-0.102692
-0.0702805
-0.0425586
-0.0189971
0.00156203
-0.0800103
-0.132028
-0.212444
-0.286934
-0.381246
-0.463049
-0.529309
-0.56792
-0.574876
-0.552979
-0.509597
-0.453761
-0.393503
-0.33453
-0.280112
-0.231662
-0.18946
-0.153136
-0.122037
-0.0954714
-0.0726937
-0.0532897
-0.0363701
-0.0789603
-0.128009
-0.204137
-0.270497
-0.352612
-0.420396
-0.472202
-0.499507
-0.500601
-0.479128
-0.441756
-0.395734
-0.347142
-0.300101
-0.256927
-0.218551
-0.18511
-0.156276
-0.131544
-0.110371
-0.0921924
-0.0766749
-0.0631577
-0.0775698
-0.123017
-0.19417
-0.2519
-0.321623
-0.376028
-0.414731
-0.432383
-0.42892
-0.408347
-0.376438
-0.338921
-0.300264
-0.263386
-0.229813
-0.200124
-0.174299
-0.152051
-0.132945
-0.116572
-0.102486
-0.0904374
-0.0799298
-0.0757757
-0.116948
-0.182453
-0.231278
-0.288794
-0.330863
-0.358141
-0.367941
-0.361326
-0.342267
-0.315588
-0.285655
-0.255651
-0.227535
-0.202252
-0.180088
-0.160923
-0.144471
-0.130365
-0.118276
-0.107863
-0.0989292
-0.0911221
-0.0734613
-0.109695
-0.168976
-0.208939
-0.254855
-0.286056
-0.303934
-0.307937
-0.299758
-0.283007
-0.261503
-0.238409
-0.215873
-0.195124
-0.176679
-0.160619
-0.14677
-0.134868
-0.124616
-0.115762
-0.108067
-0.101388
-0.0954988
-0.0705609
-0.101239
-0.153865
-0.185367
-0.22074
-0.242927
-0.253696
-0.254038
-0.245822
-0.232027
-0.215494
-0.198395
-0.182111
-0.167367
-0.154413
-0.14322
-0.133604
-0.125342
-0.118206
-0.11201
-0.106589
-0.10185
-0.0976499
-0.066976
-0.0916213
-0.137393
-0.161224
-0.187508
-0.202754
-0.20869
-0.207197
-0.200001
-0.18931
-0.177125
-0.16488
-0.153436
-0.143201
-0.134277
-0.126587
-0.119971
-0.11425
-0.109262
-0.104875
-0.100992
-0.0975507
-0.0944837
-0.0626864
-0.081025
-0.120003
-0.137285
-0.156175
-0.166489
-0.169485
-0.16737
-0.161575
-0.153604
-0.144804
-0.13612
-0.128094
-0.120963
-0.114758
-0.109403
-0.10477
-0.100729
-0.097167
-0.0940011
-0.0911723
-0.0886454
-0.0863947
-0.0576956
-0.0697382
-0.102266
-0.114329
-0.127528
-0.134584
-0.135978
-0.133855
-0.129398
-0.123578
-0.11728
-0.111135
-0.105502
-0.100521
-0.0961979
-0.0924592
-0.0892096
-0.0863516
-0.0838103
-0.0815292
-0.0794784
-0.0776352
-0.0759992
-0.0520996
-0.0581872
-0.0848146
-0.0930146
-0.10202
-0.107043
-0.107706
-0.105862
-0.102556
-0.098417
-0.0939993
-0.0897187
-0.0858166
-0.0823773
-0.0793939
-0.0768054
-0.0745409
-0.0725311
-0.0707276
-0.0690954
-0.0676223
-0.0662966
-0.0651296
-0.046065
-0.0468422
-0.0682577
-0.0737802
-0.0797813
-0.083585
-0.0840704
-0.0826384
-0.0802771
-0.0774234
-0.0744026
-0.0714661
-0.0687767
-0.0663869
-0.0642919
-0.0624454
-0.0608018
-0.0593143
-0.0579576
-0.056712
-0.0555785
-0.0545527
-0.0536512
-0.0397907
-0.0361816
-0.0530573
-0.0568306
-0.0606634
-0.0637278
-0.0643478
-0.0633879
-0.0617698
-0.0598879
-0.057915
-0.0559984
-0.0542296
-0.0526561
-0.051268
-0.0500438
-0.0489463
-0.0479538
-0.0470452
-0.0462173
-0.045468
-0.0448029
-0.0442302
-0.0335349
-0.0265755
-0.0395207
-0.0421682
-0.0443701
-0.0468883
-0.0477855
-0.0473067
-0.0462691
-0.0450947
-0.0438991
-0.0427487
-0.0416809
-0.0407257
-0.0398747
-0.039118
-0.0384305
-0.0378027
-0.0372216
-0.0366907
-0.03621
-0.0357881
-0.0354314
-0.0274519
-0.0181999
-0.0276997
-0.0295809
-0.0304226
-0.032331
-0.0334427
-0.0333692
-0.0327198
-0.0319715
-0.0312583
-0.0306084
-0.030017
-0.0294936
-0.0290271
-0.0286138
-0.0282368
-0.0278937
-0.0275764
-0.0272906
-0.0270369
-0.0268235
-0.0266542
-0.021751
-0.0112841
-0.0178217
-0.0192278
-0.0189714
-0.0202071
-0.0215011
-0.0218897
-0.0216333
-0.0212169
-0.0208347
-0.0205218
-0.0202478
-0.0200051
-0.0197762
-0.0195627
-0.0193544
-0.0191573
-0.0189682
-0.0187973
-0.0186456
-0.0185232
-0.018431
-0.0157859
-0.00487504
-0.00891751
-0.00993268
-0.00853141
-0.00862868
-0.00961153
-0.0101537
-0.0100815
-0.00981561
-0.00962516
-0.00959004
-0.00966712
-0.0098217
-0.0100086
-0.0102133
-0.0104128
-0.0106069
-0.0107859
-0.010957
-0.0111168
-0.0112746
-0.0114282
-0.00996562
-0.00275827
-0.004285
-0.00539004
-0.00431085
-0.00396345
-0.00473225
-0.00555043
-0.00581999
-0.00567465
-0.00535069
-0.00501132
-0.00467852
-0.00436689
-0.00405615
-0.00375719
-0.00346138
-0.00318471
-0.00292443
-0.00269577
-0.00249646
-0.00233787
-0.00221462
0.0632423
0.0477069
0.0841584
0.123857
0.186364
0.279617
0.409222
0.583594
0.809418
1.09787
1.46548
1.9404
2.55994
3.3674
4.40003
5.67545
7.17917
8.86171
10.648
12.444
14.1715
15.7419
17.1574
0.0578631
0.0477594
0.0768539
0.118659
0.180078
0.271344
0.399984
0.57491
0.805307
1.10464
1.49194
1.99609
2.6539
3.50587
4.58513
5.90451
7.44506
9.15432
10.9549
12.7536
14.4714
16.0265
17.4153
0.0512463
0.0465767
0.0687284
0.109707
0.169064
0.256604
0.381599
0.553927
0.7849
1.09012
1.49071
2.01596
2.70157
3.58479
4.69452
6.03916
7.59635
9.31192
11.1079
12.8934
14.5898
16.1217
17.4811
0.0430676
0.0430266
0.0596526
0.0969807
0.152614
0.234472
0.352799
0.518613
0.744979
1.04931
1.45442
1.98979
2.6898
3.58855
4.71102
6.06194
7.61666
9.32061
11.0968
12.857
14.5243
16.0287
17.3587
0.0327769
0.035795
0.0487468
0.0803646
0.130036
0.203838
0.31203
0.466546
0.681802
0.976589
1.37495
1.90647
2.60426
3.49987
4.61518
5.95249
7.48631
9.16316
10.9083
12.6369
14.2733
15.7519
17.0567
0.0194231
0.0236008
0.0342662
0.0591066
0.100384
0.163299
0.257476
0.395237
0.59187
0.867052
1.24557
1.75701
2.43353
3.30487
4.39099
5.6932
7.18681
8.82098
10.5247
12.2171
13.8245
15.2841
16.5739
0.00161984
0.00530234
0.0138663
0.0315388
0.062282
0.111288
0.187384
0.302744
0.473039
0.718432
1.06413
1.53978
2.17706
3.00484
4.04238
5.29127
6.72872
8.30738
9.96057
11.6119
13.19
14.6343
15.9187
-0.0217762
-0.0200133
-0.014736
-0.00490208
0.0131744
0.0447031
0.0977743
0.18405
0.319225
0.523802
0.823526
1.24869
1.83162
2.60189
3.57965
4.76795
6.14623
7.67001
9.27553
10.8888
12.4392
13.8666
15.1405
0.100474
0.0290434
0.0981107
0.113191
0.181912
0.279581
0.404438
0.571815
0.752822
0.935519
1.09939
1.2216
1.29354
1.30461
1.2578
1.15212
0.987127
0.751394
0.447645
0.0797261
-0.332585
-0.75149
-1.17481
0.0996596
0.0290924
0.095579
0.112211
0.180731
0.278399
0.403185
0.572016
0.756307
0.947126