/*--------------------------------*- C++ -*----------------------------------*\
  =========                 |
  \\      /  F ield         | OpenFOAM: The Open Source CFD Toolbox
   \\    /   O peration     | Website:  https://openfoam.org
    \\  /    A nd           | Version:  7
     \\/     M anipulation  |
\*---------------------------------------------------------------------------*/
FoamFile
{
    version     2.0;
    format      ascii;
    class       surfaceScalarField;
    location    "52";
    object      phi;
}
// * * * * * * * * * * * * * * * * * * * * * * * * * * * * * * * * * * * * * //

dimensions      [0 3 -1 0 0 0 0];

internalField   nonuniform List<scalar> 
25449
(
70.6356
32.2256
-6.827
52.304
23.5158
-5.18422
38.9399
17.3001
-3.93602
29.1169
12.8137
-2.99068
21.8489
9.54343
-2.27545
16.4431
7.14024
-1.73446
12.4058
5.36257
-1.32521
9.38061
4.04064
-1.0155
7.10815
3.05339
-0.780924
5.3977
2.31345
-0.602997
4.10827
1.75715
-0.467728
3.13512
1.3377
-0.364542
2.40007
1.02051
-0.285466
1.84463
0.779946
-0.224506
1.42489
0.596916
-0.177174
1.10779
0.457237
-0.140142
0.868397
0.350344
-0.110947
0.687813
0.26836
-0.0877759
0.551718
0.205393
-0.0692986
0.449236
0.157013
-0.0545312
0.372112
0.119858
-0.0427339
0.314082
0.0913683
-0.0333378
0.0695305
-0.0258841
0.270435
57.0715
52.211
42.4984
38.0889
31.7848
28.0137
23.8566
20.7419
17.959
15.441
13.5539
11.5453
10.253
8.66346
7.77331
6.52035
5.90681
4.91989
4.49971
3.72056
3.43766
2.8192
2.63534
2.14002
2.02888
1.62698
1.57035
1.23848
1.2237
0.943565
0.96175
0.719184
0.76396
0.548134
0.614755
0.417564
0.502314
0.317834
0.417651
0.241676
0.353943
0.183566
0.306011
0.139301
0.10558
0.269961
45.0162
67.4269
33.7652
49.3399
25.4009
36.378
19.1563
26.9865
14.4788
20.1185
10.9662
15.058
8.32299
11.3067
6.33089
8.51246
4.82763
6.42315
3.69212
4.85606
2.83375
3.67757
2.1845
2.78927
1.69327
2.11821
1.32158
1.61016
1.04043
1.22472
0.827895
0.931719
0.667375
0.708655
0.546267
0.538672
0.45499
0.409111
0.386255
0.310411
0.334525
0.235296
0.295596
0.17823
0.134868
0.266308
35.1104
78.6981
26.6
57.8503
20.1695
42.8086
15.3081
31.8479
11.6314
23.7952
8.84982
17.8395
6.74485
13.4116
5.15147
10.1058
3.94504
7.62958
3.03136
5.76973
2.33926
4.36968
1.81492
3.31361
1.41767
2.51546
1.11678
1.91106
0.888982
1.45251
0.716666
1.10403
0.586453
0.838868
0.488167
0.636958
0.41406
0.483219
0.358229
0.366242
0.316189
0.277336
0.284536
0.209883
0.158699
0.260705
27.3051
86.8131
20.9746
64.1807
16.0741
47.7091
12.3021
35.6199
9.41076
26.6865
7.2011
20.0492
5.51612
15.0966
4.23325
11.3887
3.25762
8.60521
2.51622
6.51113
1.9531
4.93279
1.52557
3.74114
1.2011
2.83993
0.954967
2.15719
0.768402
1.63908
0.627124
1.24531
0.520264
0.945728
0.439535
0.717688
0.378612
0.544142
0.332674
0.41218
0.298051
0.311958
0.271959
0.235975
0.178363
0.252295
21.3018
92.4466
16.6709
68.8116
12.9542
51.4257
10.0197
38.5544
7.72867
28.9776
5.9542
21.8237
4.58761
16.4632
3.53944
12.4369
2.73785
9.4068
2.12611
7.12287
1.65993
5.39897
1.30505
4.09602
1.03512
3.10986
0.829972
2.36233
0.674208
1.79484
0.556071
1.36345
0.466584
1.03522
0.39888
0.785391
0.347714
0.595308
0.309078
0.450817
0.279917
0.34112
0.257911
0.257981
0.194969
0.241305
16.7556
96.1475
13.4343
72.133
10.621
54.2389
8.32025
40.8552
6.48011
30.8177
5.0305
23.2733
3.9004
17.5933
3.02585
13.3114
2.35259
10.0801
1.83621
7.63925
1.44118
5.794
1.13952
4.39768
0.909467
3.33991
0.734226
2.53758
0.600884
1.92818
0.499544
1.46479
0.422623
1.11214
0.364308
0.843706
0.320146
0.63947
0.28673
0.484233
0.261459
0.366391
0.242354
0.277085
0.209412
0.227912
13.3434
98.3484
11.0258
74.4506
8.89696
56.3678
7.07115
42.681
5.56584
32.323
4.35558
24.4835
3.39857
18.5503
2.65043
14.0596
2.07022
10.6603
1.62275
8.08672
1.279
6.13776
1.01561
4.66107
0.814167
3.54135
0.660318
2.69142
0.542961
2.04554
0.453546
1.5542
0.385501
1.18018
0.333779
0.895429
0.294504
0.678744
0.264707
0.51403
0.242117
0.388981
0.224997
0.294205
0.222379
0.212029
10.6798
102.206
7.91355
77.2168
5.90628
58.375
4.43678
44.1505
3.35272
33.4071
2.54822
25.288
1.94824
19.1503
1.49904
14.5088
1.16167
10.9976
0.907619
8.34077
0.715871
6.32951
0.570856
4.80609
0.460998
3.65121
0.377662
2.77476
0.31439
2.10881
0.266327
1.60227
0.229812
1.2167
0.20207
0.923171
0.180995
0.699819
0.164986
0.530039
0.152827
0.401141
0.143597
0.303435
0.229391
0.136586
8.28102
105.196
6.13979
79.358
4.58784
59.927
3.45284
45.2855
2.61615
34.2438
1.99559
25.9086
1.53294
19.6129
1.18663
14.8551
0.92654
11.2577
0.730647
8.53667
0.582736
6.47742
0.470794
4.91803
0.385896
3.7361
0.321391
2.83926
0.272309
2.15789
0.234917
1.63966
0.206405
1.24521
0.184647
0.944929
0.168031
0.716435
0.155338
0.542732
0.145637
0.410841
0.13823
0.310842
0.235049
0.132572
6.41369
107.5
4.76352
81.0082
3.56734
61.1231
2.69248
46.1604
2.04748
34.8888
1.56902
26.3871
1.21224
19.9697
0.945107
15.1222
0.744404
11.4584
0.593161
8.68791
0.478875
6.5917
0.39228
5.00462
0.326494
3.80189
0.27639
2.88937
0.23814
2.19614
0.208876
1.66892
0.186443
1.26764
0.169212
0.96216
0.155957
0.72969
0.14575
0.55294
0.137884
0.418707
0.13183
0.316896
0.239707
0.127171
4.96576
109.262
3.70058
82.2734
2.78146
62.0423
2.10804
46.8338
1.61081
35.386
1.2415
26.7564
0.965808
20.2454
0.759177
15.3289
0.603784
11.6138
0.486561
8.80513
0.397866
6.6804
0.33054
5.07195
0.279263
3.85317
0.240073
2.92856
0.210013
2.2262
0.186875
1.69206
0.169002
1.28551
0.155151
0.976011
0.144387
0.740453
0.136011
0.561317
0.129486
0.425232
0.124413
0.321969
0.24365
0.12047
3.84716
110.596
2.88315
83.2374
2.17898
62.7464
1.66075
47.352
1.27672
35.77
0.990653
27.0424
0.776574
20.4595
0.615791
15.4896
0.494655
11.735
0.403108
8.89668
0.3337
6.7498
0.280876
5.12477
0.240503
3.89354
0.209497
2.95957
0.185563
2.25014
0.166988
1.71064
0.152498
1.3
0.141139
0.98737
0.132201
0.749391
0.125155
0.568363
0.119596
0.43079
0.115223
0.326343
0.247085
0.111788
2.99247
111.592
2.26235
83.9675
1.72335
63.2854
1.32331
47.7521
1.02485
36.0685
0.801318
27.266
0.633305
20.6275
0.50667
15.6163
0.410972
11.8307
0.338446
8.96921
0.283295
6.80496
0.24117
5.1669
0.208822
3.92589
0.18382
2.98457
0.164361
2.2696
0.1491
1.7259
0.137048
1.31206
0.127468
0.996949
0.11982
0.75704
0.113702
0.574481
0.108808
0.435684
0.104909
0.330242
0.250182
0.101812
2.32873
112.32
1.78339
84.5129
1.37339
63.6954
1.06473
48.0607
0.831871
36.3014
0.655946
27.4419
0.522809
20.7606
0.42191
15.7172
0.345317
11.9073
0.287037
9.02749
0.242538
6.84945
0.208388
5.20105
0.182004
3.95227
0.161449
3.00512
0.145284
2.28576
0.132445
1.73873
0.122156
1.32235
0.113848
1.00526
0.107107
0.763781
0.101631
0.579957
0.0971883
0.440127
0.0936051
0.333825
0.253058
0.0907286
1.82856
112.835
1.42598
84.9154
1.11401
64.0074
0.873781
48.301
0.689434
36.4857
0.548341
27.583
0.440497
20.8685
0.358133
15.7995
0.29522
11.9702
0.247093
9.07561
0.210159
6.88639
0.18165
5.22956
0.159467
3.97445
0.142025
3.02257
0.128149
2.29964
0.116976
1.74991
0.107883
1.33144
0.100422
1.01272
0.0942734
0.769929
0.0892077
0.585023
0.0850471
0.444288
0.0816573
0.337215
0.255802
0.078913
1.448
113.181
1.1573
85.2061
0.920693
64.244
0.732154
48.4895
0.583884
36.634
0.468349
27.6985
0.378857
20.958
0.309815
15.8686
0.256662
12.0233
0.215736
9.11654
0.184138
6.91799
0.159591
5.2541
0.140341
3.9937
0.125055
3.03785
0.112747
2.31195
0.102697
1.75996
0.0943944
1.33974
0.0874807
1.01963
0.0817049
0.775705
0.0768904
0.589837
0.0728986
0.44828
0.069623
0.34049
0.258469
0.0669565
1.1595
113.39
0.956799
85.4088
0.778105
64.4227
0.628401
48.6392
0.506673
36.7557
0.409597
27.7956
0.333146
21.0344
0.273445
15.9283
0.227061
12.0697
0.191084
9.15252
0.163128
6.94594
0.141263
5.27597
0.123986
4.01098
0.110135
3.0517
0.0988564
2.32322
0.0895287
1.76929
0.0817223
1.34755
0.0751427
1.02621
0.0695893
0.781258
0.0649235
0.594503
0.0610334
0.45217
0.0578304
0.343693
0.261081
0.0552181
0.94381
113.489
0.810255
85.5424
0.675698
64.5572
0.554699
48.7602
0.452014
36.8584
0.367816
27.8798
0.300238
21.102
0.246754
15.9818
0.204791
12.1117
0.171999
9.18531
0.146355
6.97159
0.126177
5.29615
0.110123
4.02704
0.0971493
3.06468
0.0864846
2.33389
0.0775755
1.77819
0.0700469
1.35508
0.0636494
1.03261
0.0582175
0.78669
0.0536385
0.599082
0.049816
0.455992
0.0466711
0.346838
0.263641
0.044111
0.783816
113.497
0.704953
85.6213
0.604014
64.6582
0.504
48.8602
0.414653
36.9477
0.339095
27.9554
0.277227
21.1639
0.227592
16.0314
0.188275
12.151
0.157332
9.21625
0.133001
6.99592
0.113758
5.31539
0.0983675
4.04243
0.0858552
3.07719
0.0755014
2.34424
0.0667935
1.7869
0.0593927
1.36248
0.0530801
1.03892
0.0477131
0.792057
0.0431946
0.6036
0.0394345
0.459752
0.0363551
0.349918
0.266134
0.0338625
0.668369
113.432
0.632631
85.657
0.556893
64.7339
0.471691
48.9454
0.39112
37.0283
0.320815
28.0257
0.26213
21.2226
0.214451
16.0791
0.176359
12.1891
0.146202
9.24641
0.122384
7.01974
0.103482
5.33429
0.088315
4.05759
0.0759434
3.08956
0.0656721
2.35451
0.0570097
1.79556
0.0496383
1.36985
0.0433569
1.0452
0.0380351
0.797379
0.0335813
0.608054
0.0299027
0.463431
0.0269155
0.352905
0.26853
0.0245191
0.584513
113.304
0.583644
85.6579
0.527125
64.7904
0.452363
49.0202
0.377352
37.1033
0.309916
28.0931
0.252639
21.2798
0.205591
16.1261
0.167733
12.2269
0.137619
9.27652
0.113762
7.04359
0.0947911
5.35326
0.0795508
4.07283
0.0671091
3.102
0.056778
2.36485
0.0480729
1.80427
0.0406858
1.37724
0.0344238
1.05147
0.0291595
0.802643
0.0247977
0.612416
0.0212352
0.466993
0.0183756
0.355765
0.270797
0.0161086
0.524837
113.122
0.55253
85.6302
0.510662
64.8323
0.442997
49.0879
0.371078
37.1752
0.304681
28.1595
0.247448
21.3371
0.200015
16.1736
0.161633
12.2653
0.130999
9.30716
0.106687
7.06791
0.0873442
5.3726
0.0718139
4.08836
0.0591547
3.11466
0.0486709
2.37533
0.0398735
1.81307
0.0324554
1.38466
0.0262225
1.0577
0.0210419
0.807824
0.0168067
0.616651
0.0133976
0.470402
0.0107013
0.358461
0.2729
0.00859822
-0.0811849
113.086
-0.0546613
85.6037
-0.0348023
64.8124
-0.0198837
49.0729
-0.0086845
37.164
-0.000295275
28.1511
0.00595092
21.3308
0.0105542
16.169
0.0138821
12.262
0.0161871
9.30485
0.017625
7.06647
0.0182748
5.37195
0.0181809
4.08846
0.0173839
3.11546
0.0159704
2.37674
0.014081
1.81496
0.0119138
1.38682
0.00967925
1.05993
0.00755965
0.809944
0.00568305
0.618528
0.0041034
0.471982
0.00282909
0.359735
0.2739
0.0018298
-0.0809276
113.053
-0.0571675
85.5799
-0.0393682
64.7946
-0.0259897
49.0596
-0.0159428
37.154
-0.0084166
28.1436
-0.00281646
21.3252
0.00130536
16.1648
0.00428011
12.259
0.00633679
9.30279
0.00761774
7.06519
0.00819714
5.37138
0.00812005
4.08853
0.00743206
3.11615
0.00622471
2.37795
0.00464088
1.81654
0.00287132
1.38859
0.00110912
1.06169
-0.000494096
0.811547
-0.00184663
0.61988
-0.00292785
0.473063
-0.00375517
0.360563
0.274516
-0.00437137
-0.0804232
113.025
-0.0591401
85.5586
-0.0431845
64.7787
-0.0311828
49.0476
-0.0221652
37.145
-0.0154088
28.1368
-0.0103836
21.3202
-0.00668818
16.1611
-0.00402336
12.2563
-0.00217981
9.30095
-0.00102565
7.06403
-0.000488546
5.37084
-0.000520302
4.08857
-0.00106817
3.11669
-0.0020356
2.37892
-0.00327943
1.81778
-0.0046217
1.38993
-0.00589347
1.06297
-0.00697928
0.812633
-0.00782537
0.620726
-0.00843917
0.473677
-0.00885788
0.360981
0.274789
-0.00913091
-0.0797348
112.999
-0.0606911
85.5396
-0.0464007
64.7644
-0.0356416
49.0368
-0.0275516
37.1369
-0.0214879
28.1308
-0.0169788
21.3157
-0.0136646
16.1578
-0.0112743
12.254
-0.0096151
9.29929
-0.00856297
7.06298
-0.00804496
5.37032
-0.00800753
4.08853
-0.00838936
3.11708
-0.00908964
2.37962
-0.00996829
1.81866
-0.0108661
1.39083
-0.0116444
1.06374
-0.0122263
0.813215
-0.0125949
0.621095
-0.012781
0.473863
-0.0128355
0.361036
0.274763
-0.0128099
-0.0789069
112.976
-0.0619024
85.5226
-0.049127
64.7516
-0.0394969
49.0272
-0.0322489
37.1296
-0.0268129
28.1253
-0.0227704
21.3116
-0.0197993
16.1548
-0.0176535
12.2518
-0.0161547
9.29779
-0.0151838
7.06201
-0.0146654
5.3698
-0.0145387
4.0884
-0.0147332
3.11727
-0.0151451
2.38003
-0.0156416
1.81916
-0.016088
1.39128
-0.0163808
1.06404
-0.0164827
0.813316
-0.0164106
0.621023
-0.0162133
0.473666
-0.0159496
0.360772
0.274483
-0.0156688
-0.0779727
112.955
-0.0628355
85.5074
-0.0514465
64.7402
-0.0428481
49.0186
-0.0363687
37.1232
-0.0315049
28.1205
-0.0278866
21.308
-0.0252259
16.1522
-0.0232993
12.2499
-0.0219402
9.29643
-0.021033
7.0611
-0.0204976
5.36927
-0.0202648
4.08817
-0.0202547
3.11726
-0.0203628
2.38014
-0.0204679
1.81926
-0.0204648
1.39128
-0.0202889
1.06386
-0.0199414
0.812969
-0.019469
0.62055
-0.018933
0.47313
-0.0183948
0.360234
0.273986
-0.0178979
-0.0769574
112.937
-0.0635381
85.494
-0.0534227
64.7301
-0.0457718
49.0109
-0.0399972
37.1174
-0.0356573
28.1161
-0.0324264
21.3048
-0.030048
16.1498
-0.0283186
12.2482
-0.0270814
9.2952
-0.0262226
7.06024
-0.0256561
5.3687
-0.0253033
4.08782
-0.0250755
3.11703
-0.0248697
2.37993
-0.0245811
1.81898
-0.0241378
1.39083
-0.0235163
1.06324
-0.0227542
0.812207
-0.0219226
0.619719
-0.0210903
0.472298
-0.0203175
0.359461
0.273307
-0.019639
-0.0758807
112.921
-0.0640474
85.4822
-0.0551074
64.7212
-0.0483297
49.0041
-0.0432041
37.1123
-0.0393457
28.1123
-0.0364701
21.3019
-0.0343492
16.1477
-0.0327977
12.2466
-0.0316671
9.29407
-0.0308436
7.05942
-0.0302341
5.36809
-0.0297502
4.08733
-0.0292954
3.11658
-0.0287708
2.37941
-0.0280921
1.8183
-0.0272241
1.38996
-0.0261847
1.0622
-0.0250446
0.811067
-0.0238939
0.618568
-0.0228047
0.471208
-0.0218325
0.358489
0.272477
-0.0210022
-0.074758
112.907
-0.0643944
85.4718
-0.0565427
64.7133
-0.0505723
48.9982
-0.0460462
37.1077
-0.042632
28.1089
-0.0400831
21.2994
-0.038198
16.1458
-0.0368075
12.2452
-0.03577
9.29303
-0.0349705
7.05862
-0.0343083
5.36743
-0.0336848
4.08671
-0.0329973
3.11589
-0.0321537
2.37856
-0.0310942
1.81724
-0.0298217
1.38869
-0.0283948
1.06077
-0.0269134
0.809586
-0.0254814
0.617136
-0.0241708
0.469898
-0.0230301
0.357348
0.27152
-0.0220733
-0.0736025
112.895
-0.0646045
85.4628
-0.0577628
64.7065
-0.0525416
48.993
-0.0485709
37.1038
-0.0455676
28.1059
-0.0433202
21.2971
-0.0416516
16.1441
-0.0404071
12.244
-0.0394509
9.29207
-0.0386658
7.05784
-0.0379428
5.36671
-0.0371739
4.08594
-0.0362514
3.11497
-0.0350931
2.37741
-0.0336664
1.81581
-0.0320132
1.38704
-0.0302307
1.05899
-0.0284438
0.807799
-0.0267655
0.615458
-0.0252649
0.468397
-0.0239819
0.356065
0.270458
-0.0229197
-0.0724253
112.885
-0.0646997
85.4551
-0.0587982
64.7006
-0.054274
48.9884
-0.0508195
37.1003
-0.0481974
28.1032
-0.046229
21.2952
-0.0447598
16.1427
-0.0436481
12.2429
-0.0427627
9.29119
-0.0419839
7.05706
-0.0411939
5.36592
-0.040276
4.08502
-0.0391197
3.11381
-0.037655
2.37594
-0.0358787
1.81403
-0.0338713
1.38503
-0.0317656
1.05689
-0.029707
0.80574
-0.0278139
0.613565
-0.0261505
0.466734
-0.0247475
0.354662
0.269307
-0.023597
-0.0712351
112.876
-0.0646985
85.4485
-0.0596755
64.6956
-0.0558012
48.9846
-0.0528278
37.0973
-0.0505605
28.101
-0.048851
21.2934
-0.0475658
16.1414
-0.0465752
12.2419
-0.0457517
9.29036
-0.0449722
7.05628
-0.0441108
5.36505
-0.0430426
4.08395
-0.0416568
3.11243
-0.0398976
2.37418
-0.0377924
1.81193
-0.0354591
1.3827
-0.0330621
1.05449
-0.0307636
0.803442
-0.0286839
0.611485
-0.026881
0.464931
-0.0253764
0.353158
0.268083
-0.0241521
-0.0700404
112.868
-0.064618
85.4431
-0.0604172
64.6914
-0.0571513
48.9813
-0.0546276
37.0948
-0.0526914
28.099
-0.0512229
21.292
-0.0501081
16.1403
-0.0492282
12.241
-0.0484587
9.28959
-0.047673
7.05549
-0.0467371
5.36412
-0.0455198
4.08274
-0.0439114
3.11082
-0.0418729
2.37214
-0.0394622
1.80952
-0.0368325
1.38007
-0.0341755
1.05183
-0.0316664
0.800933
-0.0294251
0.609244
-0.0275028
0.463009
-0.025912
0.351567
0.266796
-0.0246251
-0.0688484
112.863
-0.0644731
85.4387
-0.0610447
64.6879
-0.0583499
48.9786
-0.056248
37.0927
-0.0546217
28.0974
-0.0533784
21.2907
-0.0524218
16.1393
-0.0516436
12.2402
-0.0509215
9.28887
-0.0501251
7.0547
-0.0491134
5.36311
-0.0477499
4.08137
-0.0459288
3.109
-0.0436288
2.36984
-0.0409383
1.80683
-0.0380423
1.37717
-0.0351557
1.04895
-0.0324631
0.79824
-0.0300822
0.606863
-0.0280576
0.460984
-0.0263932
0.349902
0.265456
-0.0250529
-0.0676653
112.858
-0.0642772
85.4354
-0.0615769
64.6852
-0.05942
48.9764
-0.057715
37.091
-0.0563801
28.0961
-0.0553476
21.2897
-0.0545387
16.1385
-0.0538541
12.2395
-0.0531736
9.28819
-0.0523634
7.05389
-0.051276
5.36202
-0.0497714
4.07987
-0.0477496
3.10697
-0.0452086
2.3673
-0.0422656
1.80389
-0.0391338
1.37404
-0.0360471
1.04586
-0.0331959
0.795389
-0.0306949
0.604362
-0.0285826
0.458872
-0.0268548
0.348175
0.264069
-0.0254682
-0.0664972
112.855
-0.0640438
85.4329
-0.0620321
64.6832
-0.0603837
48.9748
-0.0590537
37.0897
-0.0579936
28.095
-0.0571597
21.2889
-0.0564891
16.1378
-0.0558912
12.2389
-0.0552478
9.28755
-0.0544215
7.05306
-0.0532597
5.36086
-0.0516207
4.07823
-0.0494127
3.10477
-0.0466532
2.36454
-0.0434864
1.80072
-0.0401497
1.3707
-0.0368915
1.0426
-0.0339051
0.792402
-0.0313017
0.601758
-0.029114
0.456684
-0.0273312
0.346392
0.262642
-0.025904
-0.0653497
112.853
-0.0637839
85.4313
-0.0624265
64.6819
-0.0612609
48.9736
-0.0602867
37.0887
-0.059487
28.0942
-0.0588408
21.2882
-0.0583004
16.1373
-0.0577834
12.2384
-0.0571732
9.28694
-0.0563297
7.05222
-0.0550961
5.35962
-0.0533313
4.07647
-0.0509532
3.10239
-0.0479995
2.36159
-0.0446389
1.79736
-0.0411287
1.36719
-0.0377269
1.0392
-0.0346278
0.789303
-0.0319381
0.599069
-0.0296863
0.454432
-0.0278558
0.344561
0.261179
-0.0263928
-0.0642275
112.852
-0.0635093
85.4306
-0.0627759
64.6811
-0.062071
48.9729
-0.0614358
37.0881
-0.0608842
28.0937
-0.0604163
21.2878
-0.0599992
16.1369
-0.0595582
12.238
-0.0589784
9.28636
-0.0581174
7.05136
-0.0568159
5.35832
-0.054935
4.07458
-0.0524047
3.09986
-0.0492826
2.35847
-0.0457594
1.79383
-0.0421073
1.36354
-0.03859
1.03568
-0.0353999
0.786113
-0.0326398
0.596309
-0.0303344
0.452127
-0.028463
0.34269
0.259684
-0.0269682
-0.063136
112.853
-0.0632301
85.4307
-0.0630954
64.681
-0.062832
48.9727
-0.0625219
37.0878
-0.0622076
28.0933
-0.0619102
21.2875
-0.0616106
16.1366
-0.0612415
12.2376
-0.06069
9.28581
-0.0598122
7.05048
-0.0584476
5.35696
-0.0564619
4.0726
-0.0537984
3.09719
-0.0505352
2.3552
-0.0468813
1.79018
-0.0431195
1.35978
-0.039515
1.03208
-0.0362564
0.782854
-0.0334417
0.593494
-0.0310934
0.449779
-0.0291875
0.340784
0.258162
-0.0276649
-0.0620796
112.854
-0.0629571
85.4316
-0.0633992
64.6814
-0.0635615
48.9728
-0.0635646
37.0878
-0.063479
28.0933
-0.0633456
21.2873
-0.0631587
16.1364
-0.0628585
12.2373
-0.0623341
9.28528
-0.0614409
7.04958
-0.0600189
5.35554
-0.0579405
4.07052
-0.0551642
3.09442
-0.0517878
2.35183
-0.048036
1.78643
-0.0441976
1.35594
-0.0405351
1.02841
-0.037231
0.77955
-0.0343787
0.590642
-0.0319988
0.447399
-0.0300655
0.338851
0.256615
-0.0285191
-0.0610625
112.856
-0.0626991
85.4332
-0.0637007
64.6824
-0.0642758
48.9734
-0.0645825
37.0881
-0.0647185
28.0934
-0.0647439
21.2873
-0.064666
16.1363
-0.0644324
12.2371
-0.0639347
9.28478
-0.0630282
7.04868
-0.0615553
5.35406
-0.0593974
4.06836
-0.0565293
3.09155
-0.0530683
2.34837
-0.049252
1.78261
-0.0453708
1.35206
-0.0416809
1.02472
-0.0383562
0.776226
-0.0354851
0.587771
-0.0330867
0.445
-0.0311345
0.336898
0.25505
-0.0295697
-0.0600893
112.86
-0.0624663
85.4356
-0.0640136
64.684
-0.0649912
48.9744
-0.0655943
37.0887
-0.0659466
28.0937
-0.0661268
21.2875
-0.0661552
16.1363
-0.0659868
12.2369
-0.0655158
9.28431
-0.0645989
7.04776
-0.0630824
5.35255
-0.0608586
4.06614
-0.0579203
3.08861
-0.0544038
2.34485
-0.0505567
1.77877
-0.0466673
1.34817
-0.0429823
1.02104
-0.0396646
0.772908
-0.0367963
0.584902
-0.0343959
0.4426
-0.0324364
0.334939
0.253475
-0.0308616
-0.0591639
112.864
-0.0622668
85.4387
-0.0643496
64.6861
-0.0657231
48.9757
-0.0666173
37.0896
-0.067182
28.0943
-0.0675143
21.2879
-0.0676474
16.1365
-0.0675434
12.2368
-0.0671001
9.28387
-0.0661763
7.04684
-0.0646239
5.35099
-0.0623484
4.06386
-0.0593615
3.08562
-0.0558186
2.34131
-0.0519746
1.77492
-0.0481126
1.34431
-0.044467
1.01739
-0.0411871
0.769628
-0.038348
0.582063
-0.0359665
0.440218
-0.0340162
0.332989
0.251903
-0.0324437
-0.0582905
112.87
-0.0621102
85.4425
-0.064722
64.6887
-0.0664863
48.9775
-0.0676684
37.0907
-0.0684433
28.0951
-0.0689263
21.2883
-0.0691631
16.1367
-0.0691235
12.2368
-0.0687093
9.28346
-0.0677825
7.04591
-0.0662026
5.34941
-0.0638898
4.06155
-0.0608761
3.08261
-0.0573352
2.33777
-0.0535281
1.77111
-0.0497295
1.34051
-0.0461599
1.01382
-0.0429525
0.766421
-0.0401741
0.579285
-0.0378386
0.437883
-0.0359197
0.33107
0.25035
-0.034367
-0.0574722
112.876
-0.0620039
85.4471
-0.0651414
64.6918
-0.0672946
48.9797
-0.0687634
37.0922
-0.0697477
28.0961
-0.0703811
21.289
-0.0707218
16.137
-0.0707475
12.2368
-0.0703644
9.28307
-0.0694392
7.04498
-0.0678403
5.34781
-0.0655048
4.05921
-0.0624857
3.07959
-0.058975
2.33426
-0.0552381
1.76738
-0.0515397
1.33681
-0.0480843
1.01037
-0.0449892
0.763325
-0.0423091
0.576605
-0.0400527
0.435626
-0.0381955
0.329213
0.248841
-0.0366861
-0.0546005
112.881
-0.0582674
85.4507
-0.0609728
64.6945
-0.06293
48.9816
-0.0643275
37.0936
-0.0653022
28.097
-0.0659531
21.2896
-0.0663232
16.1374
-0.0663872
12.2368
-0.0660572
9.28274
-0.0652121
7.04414
-0.0637375
5.34634
-0.0615897
4.05707
-0.058835
3.07684
-0.0556639
2.33108
-0.0523228
1.76404
-0.0490461
1.33353
-0.0460056
1.00733
-0.0432971
0.760617
-0.0409584
0.574266
-0.0389874
0.433655
-0.0373669
0.327592
0.247519
-0.0360451
-0.0436957
112.885
-0.0468416
85.4539
-0.0491665
64.6968
-0.050853
48.9833
-0.0520604
37.0948
-0.052905
28.0979
-0.0534711
21.2902
-0.0537969
16.1377
-0.053865
12.2369
-0.0536069
9.28248
-0.0529289
7.04346
-0.051746
5.34516
-0.0500344
4.05535
-0.0478595
3.07466
-0.0453822
2.32861
-0.0427999
1.76145
-0.0402938
1.33103
-0.0379856
1.00502
-0.0359466
0.758578
-0.0341967
0.572516
-0.0327232
0.432182
-0.0315154
0.326384
0.246535
-0.0305318
-0.0349317
112.888
-0.0375887
85.4565
-0.0395551
64.6988
-0.0409842
48.9847
-0.0420093
37.0958
-0.0427279
28.0986
-0.0432107
21.2907
-0.0434911
16.138
-0.0435572
12.237
-0.043356
9.28228
-0.0428148
7.04292
-0.0418701
5.34421
-0.0405101
4.05399
-0.0387953
3.07295
-0.0368592
2.32667
-0.0348594
1.75945
-0.0329384
1.32911
-0.0311804
1.00326
-0.0296427
0.75704
-0.028333
0.571206
-0.027234
0.431083
-0.0263371
0.325487
0.245808
-0.0256093
-0.0278906
112.891
-0.0301009
85.4587
-0.0317385
64.7004
-0.0329302
48.9859
-0.033786
37.0967
-0.0343868
28.0992
-0.0347908
21.2911
-0.0350269
16.1383
-0.035087
12.237
-0.0349297
9.28213
-0.034499
7.04249
-0.0337469
5.34346
-0.0326688
4.05292
-0.0313179
3.0716
-0.029804
2.32516
-0.0282523
1.7579
-0.0267759
1.32763
-0.0254328
1.00192
-0.0242689
0.755876
-0.0232859
0.570223
-0.0224662
0.430263
-0.0217996
0.324821
0.24527
-0.0212618
-0.0222451
112.894
-0.0240626
85.4606
-0.0254105
64.7018
-0.0263923
48.9869
-0.0270979
37.0974
-0.0275934
28.0997
-0.0279269
21.2914
-0.0281224
16.1385
-0.0281745
12.2371
-0.0280513
9.282
-0.0277089
7.04215
-0.0271113
5.34286
-0.0262575
4.05206
-0.0251933
3.07053
-0.0240081
2.32397
-0.022801
1.7567
-0.0216618
1.32649
-0.0206323
1.00089
-0.0197463
0.75499
-0.0190044
0.569482
-0.018391
0.42965
-0.017893
0.324323
0.244872
-0.0174947
-0.0177074
112.896
-0.0191736
85.462
-0.0202616
64.7029
-0.0210543
48.9877
-0.0216241
37.098
-0.022024
28.1001
-0.0222927
21.2917
-0.0224501
16.1386
-0.0224923
12.2371
-0.0223945
9.2819
-0.0221226
7.04188
-0.0216491
5.34239
-0.020975
4.05139
-0.0201387
3.0697
-0.0192121
2.32304
-0.0182739
1.75576
-0.0173937
1.32561
-0.0166047
1.0001
-0.0159281
0.754314
-0.0153662
0.56892
-0.0149058
0.429189
-0.0145323
0.323949
0.244576
-0.014237
-0.0141749
112.897
-0.0154176
85.4633
-0.016341
64.7038
-0.0170152
48.9884
-0.0175007
37.0985
-0.0178424
28.1004
-0.0180728
21.2919
-0.0182094
16.1387
-0.0182501
12.2372
-0.0181757
9.28183
-0.0179596
7.04166
-0.0175803
5.34201
-0.0170402
4.05085
-0.0163714
3.06903
-0.0156329
2.32231
-0.0148884
1.75501
-0.0141928
1.32492
-0.0135742
0.999481
-0.0130448
0.753784
-0.0126082
0.568483
-0.0122534
0.428835
-0.0119657
0.323661
0.244352
-0.0117414
-0.0111908
112.898
-0.0121224
85.4642
-0.0128142
64.7045
-0.0133183
48.9889
-0.0136802
37.0988
-0.0139336
28.1007
-0.0141031
21.2921
-0.0142015
16.1388
-0.0142269
12.2372
-0.0141642
9.28177
-0.0139927
7.04149
-0.0136959
5.34171
-0.0132762
4.05043
-0.0127591
3.06851
-0.0121908
2.32174
-0.0116207
1.75444
-0.0110898
1.32439
-0.0106218
0.999013
-0.0102223
0.753385
-0.00989377
0.568155
-0.00962882
0.42857
-0.0094143
0.323447
0.244187
-0.00924952
-0.00546864
112.895
-0.00245027
85.4612
6.77191e-05
64.702
0.00216271
48.9868
0.00390119
37.0971
0.00534454
28.0993
0.00654774
21.2909
0.00756279
16.1378
0.00844455
12.2363
0.00925044
9.28096
0.0100332
7.04071
0.01083
5.34092
0.0116496
4.04961
0.0124718
3.06769
0.013257
2.32095
0.0139672
1.75373
0.0145748
1.32378
0.0150737
0.998514
0.0154755
0.752983
0.0157844
0.567846
0.0160227
0.428331
0.0162087
0.323261
0.244052
0.016344
-0.00574341
112.891
-0.00257417
85.458
6.9347e-05
64.6993
0.00226898
48.9846
0.0040946
37.0953
0.00561071
28.0977
0.00687509
21.2896
0.00794218
16.1368
0.00886933
12.2354
0.00971644
9.28011
0.0105384
7.03988
0.0113737
5.34008
0.0122306
4.04875
0.0130874
3.06683
0.0139024
2.32014
0.0146361
1.753
0.0152613
1.32315
0.0157699
0.998006
0.0161786
0.752574
0.0164898
0.567534
0.0167267
0.428094
0.0169099
0.323078
0.243919
0.0170431
-0.00603213
112.887
-0.00270449
85.4547
7.09953e-05
64.6966
0.00238047
48.9823
0.00429754
37.0933
0.00589005
28.0961
0.00721869
21.2883
0.00834051
16.1356
0.00931534
12.2344
0.0102058
9.27922
0.0110689
7.03902
0.0119443
5.33921
0.0128399
4.04786
0.0137324
3.06594
0.0145777
2.31929
0.015335
1.75224
0.0159774
1.32251
0.0164953
0.997488
0.0169094
0.75216
0.0172227
0.567221
0.0174576
0.42786
0.0176374
0.322898
0.243789
0.0177675
-0.00633546
112.883
-0.00284125
85.4512
7.27273e-05
64.6937
0.0024974
48.9799
0.00451049
37.0913
0.00618323
28.0945
0.00757942
21.2869
0.00875875
16.1345
0.00978376
12.2334
0.0107197
9.27829
0.011626
7.03811
0.0125433
5.33829
0.0134791
4.04692
0.0144083
3.06501
0.0152844
2.31842
0.0160651
1.75146
0.0167244
1.32185
0.0172511
0.996961
0.0176688
0.751742
0.0179838
0.566906
0.0182159
0.427627
0.0183915
0.322722
0.243662
0.0185175
-0.00665377
112.878
-0.00298501
85.4475
7.42491e-05
64.6906
0.00262005
48.9773
0.00473395
37.0892
0.00649097
28.0927
0.00795811
21.2854
0.00919792
16.1332
0.0102757
12.2323
0.0112596
9.2773
0.0122111
7.03716
0.0131723
5.33733
0.0141498
4.04594
0.0151167
3.06404
0.0160241
2.31751
0.0168281
1.75066
0.0175037
1.32118
0.0180387
0.996426
0.0184584
0.751323
0.018774
0.56659
0.0190027
0.427399
0.0191731
0.322552
0.243542
0.0192939
-0.00698844
112.874
-0.00313607
85.4437
7.58517e-05
64.6874
0.00274872
48.9746
0.00496845
37.087
0.00681396
28.0909
0.00835567
21.2839
0.00965906
16.1319
0.0107924
12.2312
0.0118266
9.27627
0.0128258
7.03616
0.0138328
5.33632
0.0148536
4.04492
0.0158591
3.06304
0.0167983
2.31657
0.0176256
1.74983
0.0183168
1.32048
0.0188596
0.995883
0.01928
0.750902
0.0195949
0.566276
0.0198195
0.427174
0.0199837
0.322388
0.243427
0.0200982
-0.0073395
112.869
-0.00329475
85.4396
7.73173e-05
64.684
0.00288369
48.9718
0.00521455
37.0847
0.00715297
28.0889
0.00877302
21.2823
0.0101433
16.1305
0.0113351
12.23
0.0124223
9.27518
0.0134714
7.03511
0.0145262
5.33527
0.015592
4.04386
0.0166373
3.06199
0.0176087
2.3156
0.0184591
1.74898
0.0191652
1.31978
0.0197154
0.995333
0.0201353
0.750483
0.0204479
0.565963
0.0206678
0.426954
0.020825
0.322231
0.24332
0.0209323
-0.00770859
112.864
-0.00346145
85.4354
7.90118e-05
64.6805
0.00302528
48.9689
0.0054728
37.0822
0.00750882
28.0869
0.00921121
21.2806
0.0106518
16.1291
0.0119051
12.2287
0.0130481
9.27404
0.0141495
7.03401
0.0152543
5.33416
0.0163666
4.04274
0.0174527
3.06091
0.0184568
2.31459
0.01933
1.74811
0.0200502
1.31906
0.0206072
0.994776
0.0210257
0.750064
0.0213344
0.565654
0.0215488
0.42674
0.0216983
0.322081
0.24322
0.0217984
-0.008096
112.859
-0.0036366
85.4309
8.04796e-05
64.6768
0.00317384
48.9658
0.00574385
37.0797
0.00788238
28.0848
0.00967129
21.2788
0.0111859
16.1276
0.0125039
12.2274
0.0137054
9.27284
0.0148617
7.03286
0.0160187
5.333
0.0171791
4.04158
0.0183069
3.05978
0.0193438
2.31356
0.0202395
1.74721
0.0209729
1.31832
0.0215358
0.994213
0.021952
0.749648
0.0222554
0.565351
0.0224633
0.426532
0.0226051
0.321939
0.243127
0.0226978
-0.00850286
112.853
-0.00382052
85.4262
8.19961e-05
64.6728
0.0033297
48.9625
0.0060283
37.077
0.00827447
28.0825
0.0101543
21.2769
0.0117467
16.126
0.0131328
12.226
0.0143959
9.27158
0.0156097
7.03164
0.0168209
5.33179
0.018031
4.04037
0.0192012
3.05861
0.020271
2.31249
0.0211886
1.74629
0.0219339
1.31758
0.0225017
0.993645
0.0229148
0.749235
0.0232113
0.565054
0.023412
0.426331
0.0235456
0.321806
0.243042
0.0236311
-0.00893008
112.847
-0.0040136
85.4213
8.3319e-05
64.6688
0.0034932
48.9591
0.00632686
37.0741
0.00868609
28.0802
0.0106615
21.2749
0.0123356
16.1243
0.0137933
12.2246
0.0151211
9.27025
0.0163952
7.03037
0.0176628
5.33053
0.0189239
4.03911
0.0201371
3.05739
0.0212396
2.31139
0.0221781
1.74535
0.022934
1.31682
0.0235051
0.993074
0.0239141
0.748826
0.0242025
0.564766
0.0243949
0.426139
0.02452
0.32168
0.242963
0.0245983
-0.00937906
112.841
-0.00421659
85.4162
8.49389e-05
64.6644
0.00366476
48.9556
0.00664018
37.0711
0.00911816
28.0777
0.0111939
21.2728
0.0129541
16.1226
0.014487
12.223
0.0158828
9.26885
0.0172198
7.02903
0.018546
5.3292
0.0198596
4.0378
0.0211162
3.05614
0.0222508
2.31025
0.0232091
1.7444
0.0239737
1.31606
0.0245464
0.992501
0.0249501
0.748422
0.0252293
0.564487
0.0254123
0.425956
0.0255283
0.321564
0.242892
0.0255994
-0.00985022
112.834
-0.00442985
85.4107
8.61972e-05
64.6599
0.00384478
48.9518
0.00696907
37.068
0.00957172
28.0751
0.011753
21.2707
0.0136035
16.1207
0.0152156
12.2214
0.0166826
9.26738
0.0180854
7.02763
0.0194724
5.32781
0.0208397
4.03643
0.02214
3.05484
0.0233061
2.30908
0.0242829
1.74342
0.0250542
1.31529
0.0256264
0.991929
0.0260235
0.748025
0.0262922
0.564218
0.0264649
0.425783
0.0265714
0.321458
0.242828
0.0266352
-0.0103451
112.828
-0.00465363
85.4051
8.76284e-05
64.6552
0.00403366
48.9479
0.00731422
37.0647
0.0100478
28.0723
0.0123399
21.2684
0.0142855
16.1188
0.0159807
12.2197
0.0175225