/*--------------------------------*- C++ -*----------------------------------*\
  =========                 |
  \\      /  F ield         | OpenFOAM: The Open Source CFD Toolbox
   \\    /   O peration     | Website:  https://openfoam.org
    \\  /    A nd           | Version:  7
     \\/     M anipulation  |
\*---------------------------------------------------------------------------*/
FoamFile
{
    version     2.0;
    format      ascii;
    class       volVectorField;
    location    "52";
    object      U;
}
// * * * * * * * * * * * * * * * * * * * * * * * * * * * * * * * * * * * * * //

dimensions      [0 1 -1 0 0 0 0];

internalField   nonuniform List<vector> 
12842
(
(15.6106 0.545981 2.71143e-19)
(15.6111 0.54905 6.69615e-20)
(15.6114 0.551971 2.19452e-20)
(15.6115 0.555723 -5.24551e-20)
(15.6113 0.560855 2.26219e-19)
(15.6105 0.567887 0)
(15.6085 0.577422 0)
(15.6049 0.590183 -6.05327e-21)
(15.5986 0.606996 -1.99235e-20)
(15.5885 0.628757 -6.70916e-22)
(15.5729 0.656361 4.55331e-20)
(15.5497 0.6906 -2.29547e-20)
(15.5167 0.732013 1.15616e-19)
(15.4719 0.780719 4.68156e-20)
(15.4136 0.83624 -6.43314e-20)
(15.3413 0.89748 -1.97362e-19)
(15.2556 0.962709 -1.90266e-19)
(15.1591 1.02969 0)
(15.0554 1.09593 1.9458e-20)
(14.949 1.15909 1.40426e-19)
(14.845 1.21712 1.84145e-20)
(14.747 1.26893 -9.21806e-20)
(14.6592 1.3127 6.61144e-20)
(15.6109 0.545928 -2.12919e-19)
(15.612 0.548746 0)
(15.613 0.551566 3.46779e-19)
(15.6141 0.555325 -2.29083e-19)
(15.6152 0.560603 -1.84055e-19)
(15.6159 0.567984 0)
(15.6161 0.578187 3.68814e-19)
(15.6151 0.592097 0)
(15.6121 0.610758 1.77658e-19)
(15.6058 0.635334 2.29362e-20)
(15.5948 0.667022 -6.83717e-20)
(15.5769 0.706886 -2.98058e-20)
(15.5497 0.755636 -1.08176e-19)
(15.5109 0.813363 1.31748e-19)
(15.4585 0.879297 0)
(15.3915 0.951779 2.03291e-19)
(15.3103 1.02829 2.71424e-19)
(15.2171 1.10574 -3.61892e-19)
(15.1155 1.1809 0)
(15.0101 1.25094 -1.71713e-19)
(14.9061 1.31356 -2.81892e-19)
(14.8074 1.36829 2.45157e-19)
(14.7188 1.41172 -2.56992e-19)
(15.6112 0.54582 0)
(15.6128 0.548274 0)
(15.6144 0.550895 1.22693e-19)
(15.6163 0.554527 1.30679e-18)
(15.6186 0.559766 0)
(15.6209 0.567252 0)
(15.6231 0.577798 1.73845e-19)
(15.6247 0.592425 -4.01445e-19)
(15.6249 0.612364 -1.073e-19)
(15.6227 0.639021 -1.01716e-19)
(15.6164 0.673872 -1.95401e-19)
(15.604 0.718263 2.86154e-20)
(15.5829 0.773114 2.24246e-20)
(15.5505 0.838566 -1.55356e-19)
(15.5044 0.913678 0)
(15.4432 0.996368 -7.84312e-20)
(15.3671 1.08349 1.0034e-19)
(15.2778 1.17122 2.29817e-19)
(15.1791 1.25564 3.06656e-19)
(15.0756 1.33348 -2.42171e-19)
(14.9728 1.40206 2.06543e-19)
(14.8746 1.46145 0)
(14.7865 1.50661 9.41352e-20)
(15.6115 0.545656 -9.37854e-20)
(15.6134 0.547674 1.83184e-19)
(15.6155 0.550035 -5.49686e-19)
(15.6182 0.553432 -2.21008e-18)
(15.6215 0.558478 2.00702e-19)
(15.6253 0.565853 -7.20883e-19)
(15.6294 0.57645 1.65794e-20)
(15.6335 0.591411 3.90542e-19)
(15.6369 0.612125 7.02378e-19)
(15.6387 0.640219 -3.97064e-19)
(15.6373 0.677436 5.42195e-19)
(15.6306 0.725412 -3.56781e-20)
(15.6159 0.78531 4.64997e-20)
(15.5903 0.857389 1.01835e-19)
(15.5511 0.940621 3.96483e-20)
(15.4965 1.03262 -5.1031e-20)
(15.4262 1.12971 -5.10246e-20)
(15.3419 1.22746 -1.53083e-19)
(15.2472 1.32133 -1.01459e-19)
(15.1468 1.4076 -5.21151e-20)
(15.0463 1.48318 -8.79307e-20)
(14.9498 1.54851 -1.1989e-19)
(14.8632 1.59697 2.23569e-19)
(15.6118 0.545435 -1.00277e-18)
(15.6139 0.547006 0)
(15.6164 0.549071 1.01775e-19)
(15.6197 0.552143 7.99617e-19)
(15.624 0.55686 8.39096e-20)
(15.6291 0.56393 1.9656e-18)
(15.635 0.574314 1.32205e-19)
(15.6415 0.589254 -1.25432e-18)
(15.6481 0.610279 -7.7073e-19)
(15.6538 0.639216 4.72652e-19)
(15.6574 0.678073 -7.42262e-19)
(15.6566 0.728787 -5.12042e-19)
(15.6487 0.792803 9.36214e-20)
(15.6305 0.870552 -3.65632e-19)
(15.5989 0.961007 -1.1784e-19)
(15.5518 1.06155 1.72007e-20)
(15.4884 1.1681 0)
(15.4102 1.27567 1.21426e-19)
(15.3207 1.37911 0)
(15.2245 1.4743 4.58523e-20)
(15.1275 1.55762 -4.03747e-20)
(15.0336 1.62988 9.81066e-20)
(14.9493 1.68278 -1.95704e-20)
(15.6121 0.545166 8.56227e-19)
(15.6141 0.54632 0)
(15.617 0.54807 0)
(15.621 0.550747 1.40176e-18)
(15.6261 0.555022 -1.06788e-18)
(15.6324 0.561615 -1.16598e-18)
(15.6399 0.571542 -1.76657e-18)
(15.6486 0.586122 1.38016e-18)
(15.6582 0.606999 0)
(15.6678 0.63618 7.56375e-19)
(15.6763 0.675921 7.31101e-19)
(15.6816 0.728472 2.563e-19)
(15.6808 0.795595 0)
(15.6705 0.87796 2.59846e-19)
(15.6473 0.974624 9.84558e-20)
(15.6085 1.08285 4.39555e-21)
(15.5532 1.19822 1.0826e-20)
(15.4824 1.31528 -4.82886e-20)
(15.3993 1.42834 0)
(15.3086 1.53285 2.0369e-19)
(15.2161 1.62461 1.74473e-21)
(15.1257 1.70471 -2.88489e-19)
(15.0444 1.76312 2.60321e-20)
(15.6123 0.544864 -9.59996e-20)
(15.6143 0.545648 0)
(15.6175 0.547083 0)
(15.6218 0.549314 -1.38459e-18)
(15.6276 0.553062 1.2204e-18)
(15.635 0.559037 -1.57661e-19)
(15.644 0.568297 1.06902e-18)
(15.6547 0.582218 1.03177e-19)
(15.667 0.602529 -1.35554e-19)
(15.6804 0.631391 -8.41666e-19)
(15.6937 0.671286 -9.31683e-20)
(15.705 0.724777 6.84643e-19)
(15.7115 0.793973 0)
(15.7095 0.879846 -5.61288e-19)
(15.6953 0.981623 3.34361e-20)
(15.6659 1.09656 -4.30841e-20)
(15.6197 1.21998 1.01836e-19)
(15.5575 1.3461 2.61038e-20)
(15.4822 1.46868 -5.02157e-21)
(15.3982 1.58279 2.34444e-20)
(15.3115 1.68354 2.59392e-21)
(15.2256 1.77233 9.32285e-20)
(15.1481 1.83716 7.71198e-20)
(15.6125 0.544549 0)
(15.6143 0.545015 -7.2827e-20)
(15.6178 0.546135 8.93594e-19)
(15.6225 0.547896 -3.01443e-20)
(15.6289 0.551061 -1.33104e-18)
(15.637 0.556314 2.14147e-19)
(15.6473 0.564735 -4.10132e-20)
(15.6598 0.577728 -9.07209e-19)
(15.6745 0.597061 0)
(15.6913 0.625011 -1.12226e-18)
(15.7091 0.664248 9.11851e-20)
(15.7264 0.717641 9.10259e-20)
(15.7402 0.787668 0)
(15.7468 0.87568 5.47697e-19)
(15.7422 0.981183 -4.65773e-19)
(15.723 1.10155 0)
(15.6871 1.23204 -9.98145e-20)
(15.6348 1.36658 0)
(15.5688 1.49848 -3.96866e-21)
(15.4931 1.62245 0)
(15.4135 1.73277 4.03265e-20)
(15.3336 1.83121 -1.2063e-20)
(15.2608 1.90348 -3.03858e-20)
(15.6126 0.5442 0)
(15.6142 0.544435 0)
(15.6179 0.54531 2.54883e-20)
(15.6227 0.546676 -6.11546e-20)
(15.6295 0.549318 1.50502e-18)
(15.6382 0.5539 1.2787e-18)
(15.6494 0.561518 0)
(15.6633 0.573607 8.5227e-19)
(15.68 0.591972 0)
(15.6994 0.618976 2.32131e-18)
(15.7208 0.657428 8.87319e-19)
(15.7427 0.710435 -6.26963e-19)
(15.7624 0.780776 -6.30859e-20)
(15.7762 0.870126 0)
(15.7797 0.978243 4.97192e-19)
(15.7694 1.10263 3.81843e-19)
(15.7428 1.23848 -2.37079e-20)
(15.6998 1.37959 1.7467e-19)
(15.6427 1.51886 1.17788e-19)
(15.5752 1.65081 0)
(15.5029 1.76889 -5.57756e-21)
(15.429 1.87544 3.7105e-21)
(15.3613 1.95422 2.15896e-20)
(15.6128 0.543833 -1.41351e-20)
(15.6141 0.543922 8.98908e-19)
(15.618 0.544596 -8.47242e-19)
(15.6229 0.545651 0)
(15.63 0.547883 2.77463e-20)
(15.6392 0.55195 5.58861e-20)
(15.6511 0.558947 -1.18284e-18)
(15.666 0.570326 0)
(15.6842 0.587899 0)
(15.7056 0.61408 -1.17388e-18)
(15.7297 0.651775 -9.37545e-19)
(15.7553 0.70427 -2.64064e-20)
(15.7798 0.774574 6.89451e-19)
(15.7993 0.86462 -2.31462e-20)
(15.8095 0.974374 -7.64351e-20)
(15.8066 1.10148 1.14392e-19)
(15.788 1.24111 -2.5314e-19)
(15.7533 1.387 -1.71126e-19)
(15.7044 1.53181 -1.32401e-19)
(15.6446 1.66996 -9.6579e-20)
(15.5795 1.7942 9.16424e-21)
(15.5119 1.90728 -2.42715e-20)
(15.4496 1.99157 -2.10249e-22)
(15.6128 0.543459 1.13656e-18)
(15.614 0.543464 -1.01423e-18)
(15.6181 0.543939 2.55474e-20)
(15.6231 0.544708 8.92222e-19)
(15.6305 0.546542 -4.28983e-20)
(15.64 0.550119 -1.3181e-18)
(15.6526 0.556521 2.25551e-18)
(15.6685 0.567211 6.10282e-20)
(15.6879 0.583995 -4.46834e-20)
(15.7112 0.609319 -1.30324e-18)
(15.738 0.646162 3.63298e-20)
(15.7671 0.697967 -8.97395e-19)
(15.7961 0.767958 -6.14151e-19)
(15.8213 0.858319 0)
(15.8383 0.969234 7.06503e-19)
(15.8432 1.0985 -9.19281e-19)
(15.8331 1.24135 -8.68708e-20)
(15.8074 1.3915 2.34106e-19)
(15.7677 1.54139 3.56622e-21)
(15.7169 1.68541 1.28073e-19)
(15.6606 1.81565 0)
(15.6007 1.9352 1.6287e-20)
(15.5453 2.02511 0)
(15.6129 0.543091 -1.76396e-18)
(15.6139 0.543057 -1.00963e-18)
(15.6181 0.543332 4.3888e-20)
(15.6232 0.543838 -1.76039e-18)
(15.6308 0.545287 8.30817e-19)
(15.6408 0.548391 -3.87816e-20)
(15.6539 0.55421 -1.156e-18)
(15.6706 0.564219 1.76264e-20)
(15.6913 0.580204 -5.22431e-20)
(15.7163 0.604631 1.33971e-18)
(15.7456 0.64053 0)
(15.7781 0.691478 8.18181e-19)
(15.8116 0.760897 6.35529e-20)
(15.8425 0.851215 -3.07256e-20)
(15.8664 0.962836 -7.28219e-19)
(15.8793 1.09375 -2.65354e-20)
(15.8783 1.23924 2.4408e-19)
(15.8625 1.39309 -3.98454e-19)
(15.8332 1.54753 0)
(15.7929 1.69697 -1.2975e-19)
(15.7467 1.83287 1.53462e-19)
(15.6961 1.95862 0)
(15.649 2.05413 -4.5265e-20)
(15.6129 0.542738 5.98667e-19)
(15.6139 0.542698 -1.7905e-20)
(15.6181 0.542774 4.44094e-20)
(15.6233 0.543039 8.5247e-19)
(15.6311 0.544109 -1.63257e-18)
(15.6414 0.546755 6.89549e-21)
(15.6551 0.551996 1.70843e-20)
(15.6725 0.561325 1.04467e-18)
(15.6943 0.576495 -2.39835e-20)
(15.721 0.599977 0)
(15.7526 0.634832 1.14371e-18)
(15.7884 0.684754 2.65777e-20)
(15.8263 0.753341 2.53081e-20)
(15.8629 0.843254 5.06622e-21)
(15.8939 0.955122 -7.71862e-20)
(15.9154 1.08713 5.63102e-19)
(15.9241 1.23465 -3.30848e-19)
(15.9191 1.39155 -7.30806e-20)
(15.9013 1.54989 -8.42302e-20)
(15.8727 1.70414 2.11057e-19)
(15.8382 1.8451 -1.03019e-19)
(15.7984 1.97654 2.27574e-19)
(15.761 2.0774 -1.33638e-19)
(15.6128 0.542409 6.03436e-19)
(15.6138 0.54238 9.90702e-19)
(15.6181 0.542264 3.70887e-21)
(15.6233 0.542304 9.22717e-19)
(15.6313 0.543003 1.66264e-18)
(15.6418 0.545201 -6.99534e-21)
(15.656 0.549869 -1.74906e-20)
(15.6742 0.558514 2.77364e-20)
(15.6971 0.572847 -8.7718e-19)
(15.7253 0.59533 7.42876e-19)
(15.7591 0.629037 -1.20126e-18)
(15.7981 0.677753 -9.64751e-19)
(15.8403 0.745236 7.96828e-19)
(15.8827 0.834364 0)
(15.9211 0.945989 4.70033e-19)
(15.9514 1.0785 0)
(15.9705 1.22737 4.33182e-19)
(15.9772 1.38657 2.49841e-19)
(15.972 1.54798 -4.86164e-22)
(15.9564 1.70618 -2.5816e-19)
(15.9349 1.85138 1.50743e-21)
(15.9075 1.98762 1.38129e-20)
(15.8813 2.09329 -6.65323e-20)
(15.6127 0.542107 -9.16122e-21)
(15.6137 0.542102 9.94247e-21)
(15.6181 0.5418 -3.67351e-21)
(15.6233 0.541628 -9.21923e-19)
(15.6315 0.541964 -8.30237e-19)
(15.6422 0.543723 0)
(15.6568 0.54782 1.14943e-20)
(15.6757 0.555774 -1.06695e-18)
(15.6995 0.569246 -2.35767e-20)
(15.7291 0.590672 -7.42695e-19)
(15.7651 0.62312 6.43986e-19)
(15.8072 0.670444 1.50923e-18)
(15.8538 0.736533 -7.68276e-19)
(15.902 0.824472 6.21799e-19)
(15.9479 0.93532 6.66338e-20)
(15.9876 1.06768 4.73129e-21)
(16.0177 1.21711 -2.82224e-20)
(16.0369 1.3777 -8.8192e-20)
(16.0454 1.54117 5.82207e-20)
(16.0441 1.70223 -1.04894e-19)
(16.037 1.8505 -1.03308e-20)
(16.0234 1.9903 7.0711e-20)
(16.0098 2.09986 0)
(15.6127 0.541834 -1.60286e-20)
(15.6136 0.541856 0)
(15.6181 0.541378 0)
(15.6233 0.541006 -9.35036e-19)
(15.6316 0.540986 -8.63196e-19)
(15.6425 0.542313 7.58151e-19)
(15.6575 0.54584 9.10631e-21)
(15.677 0.553097 -9.84893e-21)
(15.7017 0.56568 9.11793e-19)
(15.7327 0.585989 -1.38e-20)
(15.7707 0.61706 3.81427e-20)
(15.8158 0.662791 -5.16817e-19)
(15.8667 0.727179 0)
(15.9209 0.813489 -6.59402e-19)
(15.9746 0.922978 -1.0439e-18)
(16.0239 1.05445 -4.30926e-19)
(16.0657 1.20353 -2.61706e-19)
(16.0983 1.36444 0)
(16.1215 1.5287 0)
(16.1357 1.69119 1.71132e-19)
(16.1443 1.84102 1.03807e-19)
(16.1457 1.98269 -2.29333e-19)
(16.146 2.09484 0)
(15.6126 0.541591 -6.29046e-19)
(15.6135 0.541638 5.05443e-21)
(15.618 0.540995 -1.8272e-21)
(15.6232 0.54043 9.27645e-19)
(15.6316 0.540062 1.71983e-18)
(15.6428 0.540964 -1.51276e-18)
(15.6581 0.543918 -9.26214e-21)
(15.6781 0.550467 -1.00481e-20)
(15.7036 0.562131 1.32314e-20)
(15.7359 0.581256 0)
(15.7758 0.610825 -6.45395e-19)
(15.8239 0.654751 5.54345e-19)
(15.8792 0.717105 0)
(15.9394 0.801308 0)
(16.001 0.908787 5.01444e-19)
(16.0605 1.03852 1.91283e-20)
(16.1146 1.1862 2.9653e-19)
(16.1612 1.34613 2.33804e-19)
(16.2001 1.50966 -3.30632e-19)
(16.2308 1.67181 -1.11108e-19)
(16.2561 1.82128 4.26086e-19)
(16.2736 1.96268 -3.87437e-19)
(16.2887 2.07568 2.48951e-19)
(15.6125 0.541376 3.11246e-19)
(15.6134 0.541447 4.97278e-19)
(15.6179 0.540648 4.91459e-21)
(15.6231 0.539897 -6.50307e-21)
(15.6316 0.539189 -8.686e-19)
(15.6429 0.539667 7.70518e-19)
(15.6586 0.542047 -6.06948e-21)
(15.679 0.547875 -2.22027e-21)
(15.7054 0.558584 1.34609e-20)
(15.7388 0.576455 7.25653e-21)
(15.7807 0.604389 -9.53122e-21)
(15.8317 0.646281 -5.53952e-19)
(15.8912 0.70624 4.88693e-19)
(15.9575 0.787808 -2.15253e-20)
(16.0273 0.892546 0)
(16.0973 1.01959 -6.11318e-20)
(16.1641 1.16461 3.99471e-20)
(16.2255 1.32204 -2.35034e-19)
(16.2808 1.48298 4.26091e-19)
(16.3286 1.64266 2.47772e-19)
(16.3713 1.78947 -1.651e-19)
(16.4057 1.92803 -2.36511e-19)
(16.4361 2.03975 3.0017e-19)
(15.6124 0.541189 -2.13944e-21)
(15.6134 0.541277 -5.00993e-19)
(15.6178 0.540332 0)
(15.623 0.539402 0)
(15.6316 0.53836 0)
(15.643 0.538418 0)
(15.659 0.540219 6.14888e-21)
(15.6799 0.545309 -2.92165e-21)
(15.7069 0.555029 -6.82733e-21)
(15.7415 0.57157 7.40294e-21)
(15.7851 0.597725 -9.7258e-21)
(15.8389 0.637338 0)
(15.9027 0.69451 -9.60025e-19)
(15.9751 0.772858 2.75063e-20)
(16.0533 0.87403 -5.76069e-20)
(16.134 0.997272 5.29696e-19)
(16.2139 1.13822 -4.30656e-20)
(16.2906 1.29137 7.22717e-20)
(16.3626 1.44758 -7.48731e-20)
(16.4281 1.60231 1.46961e-19)
(16.4884 1.74384 -2.06088e-19)
(16.5396 1.87668 0)
(16.5852 1.98463 1.85893e-19)
(15.6123 0.541029 -6.18189e-19)
(15.6133 0.541127 -2.49515e-19)
(15.6178 0.540047 -3.41128e-21)
(15.6229 0.538943 4.80778e-19)
(15.6315 0.537572 4.44823e-19)
(15.6431 0.53721 3.64245e-21)
(15.6592 0.538426 -6.9026e-19)
(15.6805 0.542761 5.85248e-19)
(15.7082 0.551451 4.81944e-19)
(15.7439 0.566582 0)
(15.7892 0.590808 1.27744e-20)
(15.8457 0.627878 -6.15731e-19)
(15.9137 0.681834 5.05419e-19)
(15.9922 0.756318 3.91352e-19)
(16.0787 0.853004 3.35155e-19)
(16.1703 0.971204 0)
(16.2635 1.10646 0)
(16.3556 1.25331 -3.06279e-19)
(16.4445 1.40239 -3.21848e-19)
(16.5274 1.54946 1.65126e-19)
(16.605 1.68289 1.11827e-19)
(16.6723 1.80698 1.6113e-19)
(16.7323 1.90847 -2.15666e-19)
(15.6122 0.54089 3.10299e-19)
(15.6132 0.540992 2.50356e-19)
(15.6177 0.539782 -2.49568e-21)
(15.6228 0.538506 5.43456e-21)
(15.6314 0.536813 -4.44123e-19)
(15.6431 0.53603 -3.95184e-19)
(15.6594 0.536655 3.34042e-19)
(15.6811 0.540219 -5.7875e-19)
(15.7093 0.547836 -4.78837e-19)
(15.7459 0.561472 -1.17943e-20)
(15.7929 0.583605 0)
(15.852 0.617848 5.98036e-19)
(15.9241 0.668121 5.1617e-19)
(16.0086 0.738034 -4.14354e-19)
(16.1035 0.829215 -2.86982e-19)
(16.2059 0.940996 -1.38192e-19)
(16.3124 1.06878 -1.18524e-19)
(16.4197 1.20713 6.36738e-19)
(16.525 1.34654 0)
(16.6246 1.48312 0)
(16.7183 1.60562 1.39035e-19)
(16.8004 1.71806 -3.30451e-19)
(16.8734 1.81041 -2.44889e-19)
(15.6121 0.540781 -3.04148e-19)
(15.6132 0.540881 0)
(15.6176 0.539556 0)
(15.6226 0.538118 -9.65279e-19)
(15.6312 0.536106 4.45401e-19)
(15.6429 0.534895 4.03617e-19)
(15.6595 0.534911 -2.5718e-21)
(15.6814 0.537671 2.88434e-19)
(15.7102 0.544168 1.15352e-20)
(15.7478 0.556223 -4.28198e-19)
(15.7962 0.576104 1.32218e-20)
(15.8578 0.607234 -1.73601e-20)
(15.9338 0.653346 -5.15435e-19)
(16.0242 0.717946 4.42921e-19)
(16.1272 0.802536 3.39032e-19)
(16.2403 0.90642 -2.99492e-19)
(16.3597 1.02482 2.69028e-19)
(16.4815 1.15239 -3.30297e-19)
(16.6023 1.27953 0)
(16.7171 1.40284 0)
(16.8251 1.51179 -1.28995e-19)
(16.9199 1.61006 9.82252e-20)
(17.0036 1.69086 -2.72424e-19)
(15.612 0.54066 3.13563e-21)
(15.6131 0.540744 -2.56587e-19)
(15.6175 0.539288 0)
(15.6225 0.537671 2.40354e-19)
(15.6311 0.535351 -9.0044e-19)
(15.6429 0.533734 3.70741e-21)
(15.6596 0.533176 -7.3703e-21)
(15.6818 0.535145 -2.98255e-19)
(15.7109 0.540487 7.04749e-21)
(15.7492 0.550852 4.28811e-19)
(15.799 0.568271 -1.02383e-20)
(15.8629 0.59593 -3.03558e-19)
(15.9426 0.637308 -3.44689e-20)
(16.0386 0.695741 -4.16818e-19)
(16.1494 0.772539 -3.90097e-19)
(16.2727 0.86695 2.16195e-20)
(16.4043 0.974029 0)
(16.5396 1.08857 -4.91832e-20)
(16.6742 1.20108 6.4324e-20)
(16.8022 1.30874 0)
(16.9222 1.40204 1.48942e-19)
(17.0271 1.4843 -9.95353e-20)
(17.1188 1.55155 0)
(15.6119 0.540668 3.09114e-19)
(15.613 0.540762 2.57974e-19)
(15.6173 0.539283 0)
(15.6223 0.537588 2.44355e-19)
(15.6308 0.535003 9.14163e-19)
(15.6427 0.532999 4.09162e-19)
(15.6595 0.531855 7.0572e-19)
(15.682 0.533086 0)
(15.7116 0.537427 5.06042e-19)
(15.7505 0.546355 -4.31829e-19)
(15.8014 0.561596 3.70535e-19)
(15.8673 0.586001 3.21127e-19)
(15.9502 0.622652 -5.02191e-21)
(16.0513 0.674544 6.58156e-21)
(16.1693 0.742609 -3.92862e-19)
(16.302 0.825923 3.09345e-19)
(16.4448 0.919331 0)
(16.5924 1.01791 1.9676e-19)
(16.7392 1.11251 0)
(16.8783 1.2012 0)
(17.0076 1.27583 -1.51333e-19)
(17.1199 1.33974 -3.42848e-19)
(17.217 1.39116 3.02108e-19)
(15.6118 0.540632 0)
(15.613 0.540757 -1.02865e-23)
(15.6173 0.539239 3.34609e-23)
(15.6222 0.537487 -2.47721e-19)
(15.6308 0.534745 -2.27098e-19)
(15.6426 0.532504 -4.08669e-19)
(15.6595 0.530981 -3.53695e-19)
(15.6821 0.531669 -3.40908e-22)
(15.7119 0.535185 -2.52048e-19)
(15.7513 0.542831 -1.4796e-21)
(15.8031 0.556024 2.67121e-21)
(15.8706 0.577234 0)
(15.9562 0.609051 5.12621e-21)
(16.0616 0.654 -6.7222e-21)
(16.186 0.712503 5.81922e-19)
(16.3271 0.783385 1.86773e-20)
(16.4797 0.861307 0)
(16.6376 0.941786 6.20361e-20)
(16.7941 1.01628 -7.19843e-20)
(16.9414 1.08401 0)
(17.077 1.13846 0)
(17.1934 1.18319 2.29042e-19)
(17.293 1.21814 -1.64382e-19)
(15.6118 0.540589 3.09699e-19)
(15.613 0.540748 2.62466e-19)
(15.6173 0.539187 0)
(15.6222 0.537376 2.47722e-19)
(15.6307 0.53448 -2.31107e-19)
(15.6426 0.532011 -4.15283e-19)
(15.6595 0.530118 3.58475e-19)
(15.6822 0.530271 -3.02525e-19)
(15.7123 0.532959 -2.54249e-19)
(15.7522 0.539301 6.52693e-19)
(15.8047 0.550391 -3.74835e-19)
(15.8737 0.568287 -3.29698e-19)
(15.9618 0.595038 -2.88541e-19)
(16.0711 0.632645 0)
(16.2009 0.680978 -2.02342e-19)
(16.3489 0.738636 3.394e-19)
(16.5091 0.800215 1.85063e-20)
(16.6744 0.861875 -2.28353e-19)
(16.8372 0.915986 0)
(16.9887 0.962986 0)
(17.1267 0.998074 0)
(17.2438 1.02501 -3.50914e-19)
(17.3429 1.0448 3.20682e-19)
(15.6118 0.540547 -3.0977e-19)
(15.613 0.540739 1.43935e-21)
(15.6172 0.539136 0)
(15.6221 0.537267 -2.52689e-19)
(15.6307 0.53422 -2.51345e-23)
(15.6425 0.531524 6.24502e-19)
(15.6596 0.529265 -7.19045e-19)
(15.6824 0.528882 9.10602e-19)
(15.7128 0.530739 -2.93054e-22)
(15.753 0.53576 -2.17488e-19)
(15.8063 0.544701 -1.90933e-19)
(15.8766 0.559181 3.30424e-19)
(15.9668 0.580667 2.85025e-19)
(16.0794 0.610594 -2.48637e-19)
(16.2136 0.648265 3.72042e-21)
(16.3668 0.692107 -3.42758e-19)
(16.5325 0.736826 0)
(16.7024 0.779422 0)
(16.8681 0.813459 1.59009e-19)
(17.0206 0.840586 0)
(17.1578 0.857662 0)
(17.2729 0.868571 5.52813e-20)
(17.3694 0.874866 1.57298e-19)
(15.6117 0.54051 0)
(15.613 0.540733 -2.63994e-19)
(15.6172 0.53909 6.83653e-24)
(15.622 0.537164 -2.29722e-21)
(15.6306 0.533968 -1.73288e-23)
(15.6425 0.531045 -4.19514e-19)
(15.6596 0.528421 3.60548e-19)
(15.6826 0.527502 -6.07933e-19)
(15.7131 0.52852 -2.57076e-19)
(15.7538 0.532203 0)
(15.8077 0.538952 1.89907e-19)
(15.879 0.549927 6.77626e-22)
(15.9709 0.56598 1.6122e-22)
(16.0861 0.587952 2.4722e-19)
(16.2236 0.614592 0)
(16.3806 0.644235 1.76568e-19)
(16.5495 0.671903 -3.96344e-21)
(16.7213 0.695613 0)
(16.8872 0.710339 -1.58068e-19)
(17.038 0.718876 0)
(17.172 0.719583 0)
(17.2832 0.716378 0)
(17.3757 0.710932 -5.23395e-22)
(15.6117 0.540479 0)
(15.613 0.54073 1.33414e-19)
(15.6171 0.53905 -1.2868e-24)
(15.622 0.537068 2.55039e-19)
(15.6305 0.533724 2.38538e-19)
(15.6424 0.530577 4.21591e-19)
(15.6596 0.527588 0)
(15.6827 0.52613 -3.05186e-19)
(15.7134 0.526304 5.143e-19)
(15.7543 0.528633 -7.58102e-24)
(15.8087 0.533156 1.91536e-19)
(15.8809 0.540552 -1.6783e-19)
(15.9742 0.55104 0)
(16.0912 0.56485 0)
(16.2309 0.580219 2.1227e-19)
(16.3899 0.595487 -1.73007e-19)
(16.5601 0.606204 0)
(16.7315 0.61155 -2.11475e-19)
(16.8951 0.608047 -1.59319e-19)
(17.0421 0.599525 0)
(17.1711 0.585611 2.64972e-21)
(17.2771 0.570172 2.05696e-22)
(17.3647 0.554644 -8.24363e-20)
(15.6116 0.540454 1.40446e-24)
(15.6129 0.54073 -2.67429e-19)
(15.6171 0.539015 -3.51052e-24)
(15.6219 0.536979 0)
(15.6304 0.53349 9.96988e-22)
(15.6424 0.53012 -4.22967e-19)
(15.6595 0.526766 -8.00328e-23)
(15.6827 0.524768 3.05067e-19)
(15.7136 0.524094 -2.57134e-19)
(15.7548 0.525057 2.20379e-19)
(15.8096 0.527328 3.88273e-22)
(15.8823 0.53109 3.36111e-19)
(15.9765 0.535915 -2.94627e-19)
(16.0946 0.541429 8.84257e-22)
(16.2355 0.545415 -4.26164e-19)
(16.395 0.546332 1.79483e-19)
(16.5644 0.540454 -8.73016e-21)
(16.7333 0.528236 2.17943e-19)
(16.8926 0.507798 1.57668e-19)
(17.034 0.483865 0)
(17.1567 0.45707 7.94206e-20)
(17.2566 0.431146 0)
(17.3389 0.407034 -3.59402e-20)
(15.6116 0.540434 0)
(15.6129 0.540734 1.34013e-19)
(15.617 0.538985 1.35021e-19)
(15.6218 0.536896 1.37559e-23)
(15.6303 0.533265 -4.79832e-19)
(15.6423 0.529673 2.11806e-19)
(15.6595 0.525956 0)
(15.6827 0.523417 0)
(15.7137 0.521892 -1.47439e-22)
(15.7551 0.521482 -2.20105e-19)
(15.8102 0.521481 2.49111e-22)
(15.8833 0.521572 -1.67979e-19)
(15.9779 0.520677 2.93127e-19)
(16.0964 0.517837 0)
(16.2373 0.510455 2.12077e-19)
(16.3957 0.497231 -1.7362e-19)
(16.5625 0.475332 1.26916e-19)
(16.7271 0.446559 1.22555e-20)
(16.8804 0.410604 0)
(17.015 0.37293 0)
(17.1305 0.33492 -3.86413e-20)
(17.2237 0.300098 -1.06004e-19)
(17.3003 0.268717 7.43108e-20)
(15.6115 0.54042 0)
(15.6129 0.54074 -5.36706e-24)
(15.617 0.53896 -1.35032e-19)
(15.6218 0.536821 1.30378e-19)
(15.6303 0.533049 2.40228e-19)
(15.6422 0.529238 4.63625e-23)
(15.6594 0.525158 1.82119e-19)
(15.6827 0.522078 1.52868e-19)
(15.7138 0.5197 -2.57587e-19)
(15.7553 0.517912 0)
(15.8105 0.515629 1.22136e-22)
(15.8838 0.51203 -1.6815e-19)
(15.9785 0.505398 0)
(16.0966 0.494221 -4.57219e-21)
(16.2363 0.475612 2.16322e-19)
(16.3923 0.448625 0)
(16.5549 0.411461 -2.03585e-20)
(16.7134 0.367287 -3.53709e-21)
(16.8594 0.317287 1.85973e-19)
(16.9862 0.267494 0)
(17.0939 0.219812 0)
(17.1802 0.177506 5.32448e-20)
(17.251 0.13999 -1.79335e-19)
(15.6115 0.54041 -2.82332e-24)
(15.6129 0.54075 3.72792e-24)
(15.617 0.53894 0)
(15.6217 0.536752 1.31293e-19)
(15.6302 0.532842 -1.22294e-22)
(15.6421 0.528813 9.29149e-23)
(15.6593 0.524371 -1.82011e-19)
(15.6827 0.520751 -1.52988e-19)
(15.7138 0.51752 2.57531e-19)
(15.7554 0.514353 -2.20133e-19)
(15.8106 0.509786 -1.92465e-19)
(15.8838 0.502499 1.69604e-19)
(15.978 0.490154 1.43861e-19)
(16.0951 0.470731 1.20267e-19)
(16.2326 0.441152 -2.11639e-19)
(16.3847 0.400929 9.73327e-21)
(16.5416 0.349401 -1.52426e-19)
(16.6928 0.291072 -7.57798e-20)
(16.8304 0.228499 -7.70805e-20)
(16.9487 0.168117 5.50882e-20)
(17.0483 0.112159 -7.1608e-20)
(17.1276 0.0635986 0)
(17.1926 0.0209096 6.81328e-20)
(15.6115 0.540405 0)
(15.6129 0.540762 1.35561e-19)
(15.6169 0.538926 1.36708e-19)
(15.6216 0.53669 -1.30376e-19)
(15.6301 0.532645 1.21193e-19)
(15.642 0.528399 0)
(15.6592 0.523598 2.06441e-22)
(15.6826 0.519437 -2.72079e-22)
(15.7138 0.515354 1.29059e-19)
(15.7553 0.51081 3.30912e-19)
(15.8105 0.503966 -1.90628e-19)
(15.8833 0.493011 -1.16953e-21)
(15.9767 0.475018 -8.21009e-22)
(16.092 0.447516 -1.24717e-19)
(16.2263 0.407332 0)
(16.3733 0.354532 1.65282e-19)
(16.5231 0.289648 -1.28471e-19)
(16.6658 0.21846 9.94852e-20)
(16.7942 0.144748 3.52376e-20)
(16.9036 0.075189 3.92317e-21)
(16.9948 0.0121929 -6.89919e-20)
(17.0672 -0.0415668 4.73704e-20)
(17.1265 -0.0886231 6.76246e-20)
(15.6114 0.540405 7.78653e-20)
(15.6128 0.540778 4.99013e-22)
(15.6169 0.538915 -1.36732e-19)
(15.6216 0.536635 -1.31225e-19)
(15.63 0.532456 -2.42879e-19)
(15.6418 0.527996 -2.14413e-19)
(15.6591 0.522836 -2.0695e-22)
(15.6825 0.518137 2.72729e-22)
(15.7137 0.513204 -1.2903e-19)
(15.7552 0.507289 -1.10305e-19)
(15.8101 0.498184 3.82525e-19)
(15.8823 0.483602 -1.66404e-19)
(15.9745 0.460066 -1.44907e-19)
(16.0873 0.424719 1.21952e-19)
(16.2173 0.374395 -7.18515e-21)
(16.3581 0.309786 -1.44539e-19)
(16.4998 0.232637 1.30927e-19)
(16.633 0.149904 -1.4091e-19)
(16.7517 0.0664212 -3.74302e-20)
(16.8518 -0.0110279 0)
(16.9347 -0.0799769 6.98832e-20)
(17.0002 -0.13804 -9.30936e-20)
(17.0539 -0.188794 1.28033e-19)
(15.6114 0.540409 -7.78646e-20)
(15.6128 0.540797 -2.04435e-19)
(15.6168 0.53891 -1.38049e-19)
(15.6215 0.536586 1.32475e-19)
(15.6298 0.532277 1.21665e-19)
(15.6417 0.527604 2.14377e-19)
(15.659 0.522088 1.84312e-19)
(15.6824 0.516852 0)
(15.7136 0.511073 1.29383e-19)
(15.7549 0.503796 -1.10226e-19)
(15.8095 0.492454 -1.91012e-19)
(15.8809 0.474306 1.66334e-19)
(15.9713 0.44537 0)
(16.081 0.402478 -1.1322e-19)
(16.206 0.342567 8.7085e-20)
(16.3395 0.267012 -7.83736e-20)
(16.4721 0.178746 3.31667e-20)
(16.5951 0.0857749 5.00059e-20)
(16.7035 -0.00618558 -1.33867e-19)
(16.7941 -0.0903635 9.03275e-20)
(16.8687 -0.164319 0)
(16.9275 -0.225928 -1.81772e-19)
(16.9758 -0.279825 2.62124e-19)
(15.6113 0.540418 0)
(15.6128 0.540818 6.83525e-20)
(15.6168 0.538909 1.38022e-19)
(15.6214 0.536543 -1.325e-19)
(15.6297 0.532106 -1.87956e-23)
(15.6416 0.527224 9.42746e-23)
(15.6588 0.521354 -9.16899e-20)
(15.6822 0.515582 0)
(15.7134 0.508962 -1.29354e-19)
(15.7545 0.500336 1.40461e-22)
(15.8086 0.48679 0)
(15.8789 0.465156 -8.19606e-20)
(15.9673 0.431001 0)
(16.0732 0.380924 8.50013e-21)
(16.1923 0.312058 -1.91795e-19)
(16.3177 0.226494 6.0563e-20)
(16.4403 0.128299 3.18106e-20)
(16.5525 0.0263757 -1.26842e-19)
(16.6504 -0.0728485 6.46613e-20)
(16.7314 -0.16271 9.15852e-20)
(16.7977 -0.240846 -1.4873e-19)
(16.85 -0.305367 1.25974e-19)
(16.893 -0.361951 -4.69507e-19)
(15.6113 0.540431 -7.73262e-20)
(15.6128 0.540842 6.91772e-20)
(15.6167 0.538913 -6.98175e-20)
(15.6213 0.536507 -6.85047e-23)
(15.6296 0.531945 1.2481e-22)
(15.6414 0.526854 -2.18789e-22)
(15.6587 0.520633 -9.24769e-20)
(15.6821 0.514328 6.24632e-22)
(15.7131 0.506875 -4.60071e-22)
(15.754 0.496916 2.39947e-22)
(15.8075 0.481207 -9.42407e-20)
(15.8766 0.456184 7.89446e-20)
(15.9624 0.417025 3.9191e-21)
(16.0641 0.360178 -8.28654e-21)
(16.1765 0.283057 1.06729e-19)
(16.2929 0.188483 0)
(16.405 0.0815713 5.51851e-20)
(16.5059 -0.0280451 8.54704e-20)
(16.5929 -0.133394 -6.21067e-20)
(16.6644 -0.227996 1.67043e-19)
(16.7225 -0.309592 -8.23887e-20)
(16.7683 -0.376489 1.86513e-20)
(16.8062 -0.435388 2.36282e-19)
(15.6113 0.540448 1.54632e-19)
(15.6128 0.540869 -6.91875e-20)
(15.6167 0.538922 -4.52449e-22)
(15.6213 0.536477 0)
(15.6295 0.531792 0)
(15.6413 0.526497 -1.09344e-19)
(15.6585 0.519925 -9.31582e-20)
(15.6818 0.513092 0)
(15.7128 0.504812 -5.89177e-22)
(15.7534 0.493541 1.10535e-19)
(15.8062 0.475718 9.59427e-20)
(15.8737 0.447422 -2.26673e-21)
(15.9567 0.403504 -4.93909e-21)
(16.0536 0.340351 1.45121e-20)
(16.1588 0.255734 -1.05219e-20)
(16.2656 0.153197 0)
(16.3664 0.0387953 -7.89095e-20)
(16.4557 -0.0772828 3.7992e-21)
(16.5317 -0.187681 -1.66207e-19)
(16.5935 -0.286163 7.58644e-20)
(16.6435 -0.370581 1.09061e-19)
(16.683 -0.439399 -1.77549e-19)
(16.7158 -0.500299 0)
(15.6112 0.540469 -1.54655e-19)
(15.6128 0.540899 7.5781e-24)
(15.6167 0.538934 7.03035e-20)
(15.6212 0.536454 0)
(15.6294 0.531649 0)
(15.6411 0.526151 -4.14281e-22)
(15.6583 0.519233 1.86451e-19)
(15.6816 0.511874 0)
(15.7124 0.502776 6.4651e-20)
(15.7527 0.490215 0)
(15.8046 0.470336 0)
(15.8705 0.438897 -2.89882e-21)
(15.9503 0.390496 3.79897e-21)
(16.0419 0.321542 4.67553e-20)
(16.1393 0.230235 1.01864e-20)
(16.2359 0.120818 -1.84481e-20)
(16.3251 0.000164589 7.66205e-20)
(16.4025 -0.121167 0)
(16.4673 -0.235587 5.41755e-20)
(16.5194 -0.337149 0)
(16.5613 -0.423803 2.35251e-20)
(16.5945 -0.494142 3.30726e-20)
(16.6223 -0.556766 0)
(15.6112 0.540494 1.16054e-19)
(15.6127 0.540932 -3.53733e-20)
(15.6166 0.538952 0)
(15.6211 0.536437 6.82039e-20)
(15.6293 0.531514 -6.27614e-20)
(15.641 0.525816 1.09858e-19)
(15.6581 0.518554 -9.3457e-20)
(15.6813 0.510675 -7.813e-20)
(15.712 0.500769 -6.41785e-20)
(15.7518 0.486944 -9.91857e-22)
(15.8029 0.465073 1.30329e-21)
(15.8668 0.430635 7.79311e-20)
(15.9432 0.378051 4.69369e-21)
(16.0291 0.303837 -6.82141e-20)
(16.1182 0.206684 9.82581e-21)
(16.2043 0.091499 0)
(16.2815 -0.034163 0)
(16.3468 -0.159553 0)
(16.4003 -0.276995 0)
(16.4427 -0.38087 -1.5813e-20)
(16.4764 -0.469205 -1.04493e-19)
(16.5034 -0.540695 1.03069e-19)
(16.526 -0.604786 0)
(15.6112 0.540523 -3.87099e-20)
(15.6127 0.540967 7.10119e-20)
(15.6166 0.538973 0)
(15.621 0.536426 -6.82394e-20)
(15.6292 0.531389 1.25952e-19)
(15.6408 0.525493 0)
(15.6579 0.517891 0)
(15.681 0.509494 7.77677e-20)
(15.7115 0.498792 0)
(15.7509 0.483731 -5.28581e-20)
(15.8009 0.459939 -4.67594e-20)
(15.8628 0.422662 -3.96028e-20)
(15.9355 0.366215 6.34425e-20)
(16.0153 0.287312 0)
(16.0958 0.185183 0)
(16.1709 0.0653594 1.63425e-20)
(16.236 -0.0640635 -2.14144e-20)
(16.289 -0.192323 0)
(16.3312 -0.31179 -2.1009e-20)
(16.3637 -0.417218 1.58611e-20)
(16.3894 -0.506683 8.1303e-20)
(16.41 -0.578968 -1.07021e-19)
(16.4274 -0.644269 0)
(15.6111 0.540555 5.83039e-24)
(15.6127 0.541005 -7.15444e-20)
(15.6165 0.538998 -2.21428e-23)
(15.621 0.536421 -3.44412e-20)
(15.6291 0.531272 -6.31906e-20)
(15.6407 0.525182 5.54796e-20)
(15.6577 0.517242 1.66435e-22)
(15.6807 0.508334 -3.92273e-20)
(15.711 0.496848 6.51727e-20)
(15.7499 0.480582 5.30689e-20)
(15.7987 0.454944 4.54594e-20)
(15.8584 0.414998 -3.83148e-20)
(15.9271 0.355026 -6.34471e-20)
(16.0006 0.272025 -6.90448e-21)
(16.0723 0.165809 9.03985e-21)
(16.1363 0.0424867 1.52325e-20)
(16.1891 -0.0894467 -1.99715e-20)
(16.2298 -0.219381 0)
(16.2606 -0.339861 2.10661e-20)
(16.2831 -0.446058 0)
(16.3006 -0.536077 -9.60838e-21)
(16.3147 -0.608789 0)
(16.3268 -0.675024 -3.6356e-21)
(15.6111 0.540591 1.94456e-20)
(15.6127 0.541045 3.58848e-20)
(15.6165 0.539028 3.62088e-20)
(15.6209 0.536423 -1.01883e-22)
(15.6289 0.531164 -1.0947e-22)
(15.6405 0.524882 3.14098e-22)
(15.6574 0.516608 -4.70908e-20)
(15.6804 0.507193 -2.50794e-22)
(15.7104 0.494937 -6.41234e-20)
(15.7487 0.477501 -9.63717e-22)
(15.7964 0.450099 4.5624e-20)
(15.8537 0.407661 0)
(15.9183 0.344517 -4.25781e-21)