/*--------------------------------*- C++ -*----------------------------------*\
  =========                 |
  \\      /  F ield         | OpenFOAM: The Open Source CFD Toolbox
   \\    /   O peration     | Website:  https://openfoam.org
    \\  /    A nd           | Version:  7
     \\/     M anipulation  |
\*---------------------------------------------------------------------------*/
FoamFile
{
    version     2.0;
    format      ascii;
    class       volScalarField;
    location    "52";
    object      yPlus;
}
// * * * * * * * * * * * * * * * * * * * * * * * * * * * * * * * * * * * * * //

dimensions      [0 0 0 0 0 0 0];

internalField   uniform 0;

boundaryField
{
    inlet
    {
        type            calculated;
        value           uniform 0;
    }
    outlet
    {
        type            calculated;
        value           uniform 0;
    }
    suction_side
    {
        type            calculated;
        value           nonuniform List<scalar> 
56
(
4.87277
5.0542
5.47449
5.67992
6.16577
6.58314
6.92429
8.0556
8.24542
10.2126
10.4367
14.267
17.1505
27.6192
38.8358
46.8794
51.9139
52.9048
51.5104
48.861
45.6438
42.5986
40.5163
39.6771
39.8865
40.7852
41.6092
41.9865
41.9837
41.774
41.3662
40.8636
40.3309
39.7853
39.2276
38.6646
38.1011
37.5387
36.9852
36.43
35.8977
35.3313
34.7784
34.1792
33.55
32.874
32.1261
31.2825
30.3244
29.306
28.3381
27.3492
26.5446
25.5617
25.1109
24.1283
)
;
    }
    pressure_side
    {
        type            calculated;
        value           nonuniform List<scalar> 
56
(
26.189
26.9995
27.3824
28.2777
28.9617
29.8087
30.6175
31.4788
32.2818
32.9633
33.556
34.0893
34.5771
35.0322
35.4597
35.8625
36.2461
36.6195
36.9778
37.3223
37.6511
37.9594
38.2539
38.5309
38.7611
38.8964
38.8979
38.7375
38.616
38.7318
39.2863
40.457
42.226
44.1558
45.9328
47.4776
48.462
48.6377
47.048
43.8435
39.0095
32.9143
25.7381
17.747
11.2481
10.1929
7.6265
6.36088
5.60947
4.88472
4.56641
4.38768
4.33032
4.38888
4.51025
4.63539
)
;
    }
    trailing_edge
    {
        type            calculated;
        value           nonuniform List<scalar> 2(100.13 97.5297);
    }
    defaultFaces
    {
        type            empty;
    }
}


// ************************************************************************* //
