/*--------------------------------*- C++ -*----------------------------------*\
  =========                 |
  \\      /  F ield         | OpenFOAM: The Open Source CFD Toolbox
   \\    /   O peration     | Website:  https://openfoam.org
    \\  /    A nd           | Version:  7
     \\/     M anipulation  |
\*---------------------------------------------------------------------------*/
FoamFile
{
    version     2.0;
    format      ascii;
    class       volScalarField;
    location    "100";
    object      k;
}
// * * * * * * * * * * * * * * * * * * * * * * * * * * * * * * * * * * * * * //

dimensions      [0 2 -2 0 0 0 0];

internalField   nonuniform List<scalar> 
12842
(
0.00568142
0.00505602
0.0046836
0.00445787
0.0043138
0.00418329
0.004094
0.00401978
0.00397132
0.0039562
0.00394724
0.00395882
0.00399338
0.00405011
0.00410785
0.00418681
0.00425709
0.00433739
0.00439931
0.00447028
0.0045192
0.00457451
0.00461846
0.00562179
0.00503302
0.00463894
0.00438806
0.00425561
0.00415194
0.0040824
0.00400811
0.00396433
0.00394983
0.00393777
0.00394985
0.00398856
0.00404619
0.00412046
0.00420155
0.00426731
0.00434443
0.00440588
0.00448047
0.00453819
0.00459616
0.00463573
0.00556012
0.00494623
0.00459901
0.00436258
0.00422382
0.00411822
0.00405692
0.00399041
0.00395079
0.00393665
0.00393135
0.00394512
0.00398505
0.00404687
0.00412883
0.00422153
0.00430367
0.00437542
0.00443645
0.00450443
0.00456403
0.00462657
0.00466534
0.00549388
0.0048609
0.0045091
0.00430092
0.00417751
0.00408871
0.00403117
0.00397283
0.00394049
0.00393032
0.00392187
0.00393773
0.00398575
0.00405355
0.00414224
0.00423253
0.00431981
0.00440369
0.00447126
0.00453826
0.00459289
0.00465259
0.00468701
0.00542491
0.00478702
0.00445309
0.00425519
0.00413446
0.00405678
0.00400631
0.00395473
0.00392698
0.00391689
0.0039164
0.00393853
0.00399351
0.00408406
0.00417213
0.0042643
0.0043543
0.0044344
0.00450711
0.00456903
0.00462164
0.004679
0.00471291
0.00534294
0.00470001
0.00437678
0.00420815
0.00409531
0.00402829
0.00398094
0.00393918
0.00391939
0.00390471
0.0039082
0.00393718
0.00400003
0.00409856
0.00421026
0.00430353
0.00439931
0.00447784
0.00455079
0.00461317
0.00465838
0.00470547
0.00473604
0.00527386
0.00463411
0.00431977
0.00416171
0.00405668
0.00400249
0.0039585
0.00392438
0.00390866
0.00389883
0.00390562
0.00394052
0.00401622
0.00413015
0.00424604
0.00434683
0.00444023
0.00451556
0.00458674
0.00464388
0.00468904
0.0047328
0.00475664
0.00519117
0.00456044
0.00426423
0.00412708
0.00402624
0.0039802
0.00393849
0.00391239
0.00390002
0.00388647
0.00390197
0.00394621
0.00403456
0.004169
0.00429587
0.00439691
0.00449171
0.00456028
0.00462645
0.00468057
0.00471673
0.00475596
0.00477864
0.00512117
0.0045042
0.00421309
0.00408854
0.0039967
0.00396279
0.00392226
0.0039017
0.00389294
0.00388558
0.00390362
0.00395505
0.00405139
0.00421264
0.00435089
0.00444671
0.00453658
0.00460373
0.00466309
0.00471075
0.00474518
0.00477813
0.00479513
0.00502807
0.00443556
0.00417318
0.0040623
0.00397652
0.00394884
0.00391141
0.00389498
0.00388839
0.00389036
0.00391539
0.00397078
0.00408209
0.00426366
0.00439646
0.00449214
0.00457597
0.00463682
0.00469355
0.00473666
0.00476353
0.00479576
0.00481237
0.00495003
0.00438273
0.00412704
0.00403063
0.00395469
0.00393588
0.00390059
0.00388866
0.00387928
0.00389946
0.00393351
0.00399701
0.00413209
0.00431455
0.00444395
0.00452823
0.00460428
0.00466533
0.00471488
0.00475559
0.0047823
0.00481356
0.00482645
0.00485677
0.00432457
0.00409768
0.00400829
0.00393962
0.00392498
0.00389224
0.00388414
0.00387059
0.00390928
0.00395956
0.00403385
0.00420503
0.00437452
0.00448807
0.00456647
0.00463586
0.00468836
0.00473868
0.00477683
0.00479836
0.00482695
0.00484397
0.00478017
0.00427852
0.00405806
0.00398197
0.00392256
0.00391386
0.00388327
0.00388023
0.00387204
0.00392147
0.00398116
0.00407553
0.00427314
0.00443093
0.00453433
0.00460097
0.00465847
0.00471168
0.00475519
0.00479164
0.00481482
0.00484774
0.00486356
0.00470591
0.00423059
0.00403576
0.00396276
0.00391127
0.00390457
0.00387626
0.00387774
0.00387781
0.0039367
0.00401308
0.00412791
0.00435072
0.00448362
0.004573
0.00463148
0.00468531
0.00472904
0.00477413
0.00481141
0.00483612
0.00486164
0.00487994
0.00464619
0.00419213
0.00400403
0.00394196
0.00389814
0.003894
0.00386947
0.00387602
0.00388442
0.00394947
0.00403791
0.00418292
0.00440859
0.00452897
0.00461302
0.00466561
0.0047066
0.0047504
0.00479217
0.0048292
0.00485194
0.0048852
0.00490934
0.00459178
0.00415317
0.00398643
0.00392556
0.00388881
0.00388486
0.0038637
0.0038751
0.00389517
0.00397049
0.00407421
0.00424467
0.00447118
0.00457239
0.00464776
0.00469011
0.00473102
0.00476838
0.00480932
0.00484771
0.00488125
0.00491063
0.00492916
0.00454278
0.00412134
0.00396187
0.00390965
0.00387793
0.00387478
0.00385834
0.00387499
0.00390225
0.0039814
0.00410475
0.00430659
0.00451068
0.00460437
0.00467874
0.0047215
0.00475384
0.00478724
0.00483012
0.00487604
0.00490321
0.00493204
0.00496442
0.00450404
0.00409026
0.00394739
0.00389562
0.00386917
0.00386557
0.00385363
0.00387367
0.00391427
0.0040065
0.00414574
0.00436314
0.00455639
0.00464586
0.00471518
0.00474591
0.00477411
0.00481109
0.00485158
0.00489337
0.00493164
0.00497686
0.00499892
0.00446249
0.00406395
0.00392833
0.003883
0.00385929
0.00385619
0.00384893
0.00387432
0.0039196
0.00401782
0.00417586
0.00441795
0.00458078
0.00467265
0.00474006
0.00477154
0.00479849
0.0048263
0.00487071
0.00493001
0.00497385
0.00500313
0.00502482
0.00443465
0.00403983
0.00391553
0.00387074
0.00385029
0.00384773
0.0038451
0.00387293
0.00393169
0.00404199
0.00422429
0.00446193
0.00461685
0.00471783
0.00478172
0.00480112
0.00481559
0.00485569
0.00490329
0.00495952
0.00499884
0.00505224
0.00508784
0.00440013
0.00401747
0.00390023
0.00385968
0.00384076
0.00383922
0.00384068
0.00387305
0.00393581
0.00405394
0.00424902
0.00450041
0.00463595
0.00474996
0.00480549
0.00482372
0.00484072
0.00487164
0.00492254
0.00499251
0.00504656
0.00510252
0.00512385
0.0043786
0.00399892
0.00388773
0.00384844
0.00383161
0.00383153
0.00383758
0.0038712
0.00394521
0.00408014
0.00429951
0.00453225
0.00467135
0.00479975
0.00484939
0.00485296
0.00485983
0.00490399
0.00496197
0.00503383
0.00509311
0.0051415
0.00520664
0.0043512
0.00397943
0.00387481
0.00383794
0.00382249
0.00382363
0.00383312
0.00386761
0.00394905
0.00409284
0.00432602
0.00456044
0.00469398
0.00483629
0.00487811
0.0048861
0.00488926
0.00492941
0.00499412
0.00508726
0.00513926
0.0052564
0.00535447
0.00433588
0.00396831
0.00386537
0.00383004
0.00381556
0.00381847
0.00383215
0.00386759
0.00395785
0.00411839
0.00437098
0.00457544
0.004727
0.0048883
0.0049209
0.00490678
0.00490928
0.00496174
0.00504742
0.00514399
0.00527373
0.00539419
0.00552334
0.00432023
0.00395755
0.00385872
0.00382464
0.00381043
0.00381534
0.00383132
0.00386775
0.00396722
0.00414139
0.0044041
0.00460255
0.00476289
0.00492227
0.00495565
0.00495211
0.00495148
0.0050272
0.00512964
0.00527119
0.0054472
0.00566476
0.00610858
0.00430844
0.00395028
0.0038519
0.00381908
0.00380565
0.00381249
0.00383025
0.00386931
0.00397565
0.00417171
0.0044556
0.00462173
0.00480455
0.00497299
0.0049973
0.00497924
0.00498428
0.0050772
0.00521429
0.00545946
0.00577993
0.00667078
0.00950992
0.00429453
0.00394009
0.00384512
0.00381351
0.00380053
0.0038098
0.00382875
0.00387056
0.0039854
0.00420375
0.0044889
0.00465518
0.00485326
0.0050084
0.00503937
0.00503822
0.00506539
0.00520211
0.00539548
0.00574141
0.00674337
0.0108508
0.025707
0.0042829
0.00393248
0.00383835
0.00380767
0.00379592
0.00380733
0.00382725
0.00387218
0.00399686
0.00423333
0.00453649
0.00468001
0.00490736
0.00506119
0.00508233
0.00507939
0.00512861
0.00531244
0.00559571
0.00646483
0.0108021
0.0326208
0.116188
0.00427026
0.00392298
0.00383172
0.00380211
0.00379119
0.00380483
0.00382524
0.00387335
0.00400773
0.00426259
0.00456006
0.00470543
0.00494633
0.00509669
0.00512544
0.00517627
0.0052993
0.00556897
0.00602325
0.00892615
0.0279511
0.124601
0.430702
0.00425911
0.00391484
0.00382542
0.00379647
0.00378708
0.00380242
0.0038235
0.00387522
0.00401935
0.00428679
0.00460196
0.00474055
0.0049931
0.00514936
0.00519798
0.00528212
0.00542255
0.00579388
0.00704984
0.0159558
0.0700816
0.271841
0.700887
0.00424734
0.00390593
0.00381935
0.0037913
0.00378303
0.00379994
0.0038214
0.00387649
0.00402926
0.00431192
0.00462205
0.00476241
0.00503139
0.00519121
0.00524559
0.0053844
0.00566847
0.00645454
0.0104718
0.0370633
0.152991
0.460601
1.00679
0.00423689
0.00389771
0.00381371
0.00378625
0.00377962
0.0037974
0.00381994
0.00387854
0.00404239
0.00434314
0.00466225
0.00480591
0.00506142
0.00523527
0.00539287
0.00560585
0.00595285
0.00731325
0.0155724
0.059501
0.225871
0.569791
1.07197
0.00422584
0.00388912
0.00380839
0.00378175
0.00377634
0.00379479
0.0038181
0.0038798
0.0040535
0.00436655
0.00468322
0.00484948
0.00513361
0.0053248
0.00548059
0.00572412
0.00629281
0.0099836
0.0298129
0.107177
0.295397
0.62001
1.10562
0.00421606
0.00388136
0.00380355
0.0037775
0.00377369
0.00379216
0.00381713
0.00388171
0.00406288
0.00439511
0.00472847
0.00489821
0.0051753
0.00538714
0.00565388
0.00603907
0.00704133
0.0128045
0.0425058
0.133041
0.329086
0.680505
0.981741
0.00420584
0.00387317
0.00379891
0.00377373
0.00377104
0.00378949
0.00381583
0.00388261
0.00406921
0.00440811
0.0047543
0.00498537
0.0052838
0.00551794
0.00579844
0.00636739
0.00782323
0.0174419
0.0629183
0.165884
0.348759
0.657956
0.869768
0.00419654
0.003866
0.0037947
0.00377037
0.00376895
0.00378687
0.00381501
0.00388448
0.00407576
0.00443171
0.00481381
0.00505587
0.00534408
0.00558189
0.00592952
0.00674206
0.0101969
0.0257992
0.0886196
0.192984
0.360014
0.601954
0.796149
0.00418726
0.00385852
0.00379056
0.00376718
0.00376677
0.00378417
0.00381374
0.00388541
0.0040799
0.00444382
0.00485369
0.0051664
0.00546712
0.00576225
0.00632281
0.00863682
0.0123909
0.0357109
0.109564
0.212983
0.376353
0.595873
0.786021
0.00417839
0.00385206
0.00378681
0.00376456
0.00376497
0.00378191
0.00381297
0.00388834
0.00409165
0.00447988
0.00493384
0.00526866
0.00553218
0.00584722
0.00656711
0.0105558
0.0303122
0.0924045
0.192408
0.299762
0.452685
0.615015
0.76803
0.00416993
0.0038453
0.00378287
0.0037618
0.00376275
0.00377933
0.00381159
0.00389068
0.00410054
0.00450504
0.00501173
0.00536224
0.00564731
0.006674
0.00944002
0.0281767
0.0883032
0.232399
0.305352
0.395674
0.531086
0.6587
0.770333
0.00416159
0.00383958
0.00377942
0.00375963
0.00376132
0.00377752
0.00381138
0.00389919
0.0041323
0.00457885
0.00509814
0.00551091
0.00611847
0.00748016
0.015392
0.0995019
0.281797
0.39677
0.466667
0.5534
0.666475
0.768741
0.84873
0.00415379
0.00383367
0.00377558
0.00375681
0.00375866
0.00377559
0.00381128
0.00390778
0.00415576
0.00462785
0.00523512
0.00566375
0.0068721
0.0166039
0.0837869
0.24006
0.47969
0.636926
0.718544
0.769888
0.835543
0.909335
0.954814
0.00414606
0.0038284
0.00377241
0.00375514
0.0037572
0.00377434
0.00381371
0.00392585
0.00421198
0.00473947
0.005347
0.00609402
0.0122183
0.0475894
0.210376
0.491149
0.741169
0.863078
0.860094
0.882299
0.933312
0.985
1.01601
0.0041387
0.00382312
0.00376822
0.00375187
0.00375429
0.00377232
0.00381568
0.00394292
0.00425363
0.00481054
0.00549612
0.00699611
0.0247122
0.134396
0.414837
0.897074
0.978002
0.954278
0.929113
0.950132
0.976134
1.01697
1.05147
0.00413151
0.00381836
0.00376577
0.0037502
0.00375263
0.00377043
0.00382318
0.00397102
0.00432508
0.00494884
0.00586656
0.0100999
0.0464891
0.207844
0.749164
1.32629
1.41817
1.22363
1.1295
1.14479
1.17926
1.19257
1.19972
0.00412466
0.00381323
0.00376125
0.00374685
0.00374905
0.00376722
0.00383101
0.00399915
0.0043839
0.0050547
0.00612966
0.0121355
0.0650276
0.365604
1.31546
1.92775
1.87467
1.53838
1.48158
1.48575
1.48438
1.47972
1.47381
0.00411751
0.00380848
0.00375902
0.00374493
0.00374692
0.00376764
0.00384667
0.00403995
0.00446828
0.00519177
0.00658142
0.018724
0.112871
0.714038
1.93246
2.44279
2.15567
1.82529
1.76281
1.72358
1.74462
1.73692
1.72436
0.00411099
0.00380352
0.00375473
0.00374079
0.00374234
0.00376645
0.00386329
0.00408151
0.00454471
0.00536388
0.00756004
0.0289777
0.199586
0.999895
2.58538
2.6568
2.29614
1.96016
1.84177
1.88395
1.8761
1.86083
1.85079
0.00410417
0.00379858
0.00375231
0.00373827
0.00374052
0.00377189
0.00388954
0.00413658
0.00464232
0.00551125
0.0084438
0.0435957
0.275428
1.54617
3.14581
2.74197
2.31852
1.99523
1.8961
1.91876
1.90826
1.89594
1.89773
0.00409722
0.00379287
0.00374753
0.00373294
0.00373733
0.00377878
0.00391806
0.00419291
0.00473494
0.00576611
0.0105989
0.0668316
0.548629
2.29122
3.24099
2.82967
2.36699
2.04094
1.93559
1.97739
1.95431
1.93523
1.92471
0.00409137
0.00378798
0.00374507
0.00373086
0.00373894
0.00379727
0.00395912
0.004265
0.00484881
0.00598754
0.012736
0.11079
1.03783
3.01805
3.33014
2.78106
2.37605
2.05142
1.96232
1.97364
1.9501
1.93041
1.91339
0.00408582
0.00378269
0.00374091
0.00372807
0.00374011
0.00381846
0.00400317
0.00433674
0.00495452
0.00629727
0.01774
0.182302
1.33584
3.32872
3.39621
2.74154
2.20535
1.91677
1.86571
1.85355
1.81195
1.78842
1.74805
0.00408031
0.00377748
0.00373989
0.00372896
0.00375065
0.00385289
0.0040589
0.00441895
0.00507275
0.00661014
0.0211003
0.224408
1.45121
3.36435
3.41088
2.41467
1.82454
1.60357
1.56675
1.55149
1.50705
1.48505
1.44376
0.004075
0.00377244
0.00373809
0.00373111
0.00376856
0.00389092
0.00411868
0.00450127
0.00518151
0.00685168
0.0245944
0.237901
1.47224
3.37076
3.12331
1.91341
1.39654
1.24765
1.20606
1.19604
1.16019
1.14363
1.10888
0.00406968
0.00376863
0.00373966
0.00374289
0.00380179
0.00394354
0.00419023
0.0045916
0.00529696
0.00702932
0.026625
0.235869
1.38933
3.20159
2.57958
1.42506
1.02524
0.932797
0.884912
0.87505
0.853625
0.842991
0.812823
0.0040641
0.00376628
0.00374682
0.00376422
0.00384213
0.00400217
0.00426621
0.00468323
0.00540306
0.00710679
0.0253898
0.205494
1.18808
2.68095
1.94423
1.00049
0.729946
0.670487
0.618308
0.606399
0.595486
0.59063
0.56403
0.00405813
0.0037657
0.00376625
0.00379852
0.00389745
0.00407509
0.00435285
0.00477994
0.0055092
0.00712597
0.0224927
0.166546
0.982551
2.09541
1.39658
0.69454
0.528063
0.483402
0.434296
0.421946
0.415951
0.413539
0.395367
0.00405309
0.00376639
0.00379761
0.00384023
0.0039583
0.00414962
0.00443607
0.00486764
0.00559897
0.00715303
0.019111
0.130026
0.776173
1.55076
0.981212
0.48916
0.394325
0.355095
0.310198
0.294795
0.292036
0.29135
0.26927
0.0040493
0.00377434
0.00383537
0.00388914
0.00402606
0.00422905
0.00452092
0.0049551
0.00568701
0.00714022
0.0164348
0.0987934
0.585034
1.0944
0.669265
0.343273
0.295828
0.260538
0.222712
0.20804
0.200141
0.200278
0.181389
0.00404654
0.00379215
0.0038829
0.00394571
0.00410042
0.00431318
0.0046078
0.00504138
0.00577243
0.0071586
0.014753
0.0751192
0.423279
0.760389
0.459467
0.244492
0.223137
0.192276
0.161954
0.150544
0.139769
0.135988
0.129195
0.00404462
0.00382049
0.00393582
0.00400906
0.0041805
0.00440039
0.00469492
0.0051251
0.00585557
0.00720197
0.0135063
0.0575774
0.301018
0.532787
0.327212
0.17926
0.169645
0.143463
0.11989
0.111975
0.100366
0.0947551
0.0930142
0.00404509
0.00385655
0.0039967
0.00407768
0.00426391
0.00448926
0.00478161
0.00520583
0.00593392
0.00726956
0.0129611
0.047677
0.219605
0.383189
0.246458
0.136934
0.129481
0.108489
0.0910171
0.0857952
0.074306
0.0678896
0.0651854
0.00405117
0.00390113
0.00406063
0.00415104
0.00435
0.004578
0.0048662
0.00528305
0.00600695
0.00735083
0.012658
0.0416034
0.167598
0.288737
0.196681
0.109534
0.100325
0.0836905
0.0706907
0.0670343
0.057046
0.0512495
0.0483138
0.00406342
0.00395124
0.00412984
0.00422685
0.0044363
0.00466559
0.00494831
0.00535627
0.00607482
0.00744773
0.0126972
0.0405038
0.139647
0.225853
0.165557
0.0914353
0.0793934
0.0662544
0.0568281
0.0534739
0.0448313
0.0405933
0.0388308
0.00408503
0.00400812
0.00420061
0.00430559
0.0045229
0.00475093
0.00502685
0.00542511
0.00613814
0.00755388
0.012604
0.0398824
0.124065
0.195081
0.142698
0.0775623
0.0637463
0.0537653
0.0466718
0.0439493
0.0366944
0.0334517
0.032079
0.0041109
0.00406898
0.00427385
0.00438474
0.00460733
0.00483308
0.00510161
0.00548936
0.00619745
0.00768022
0.0128029
0.0389713
0.120742
0.179834
0.125041
0.0682699
0.0529097
0.0443456
0.039899
0.0365081
0.0318349
0.0297091
0.0291799
0.00414514
0.00413516
0.00434773
0.00446485
0.00469069
0.00491183
0.00517229
0.00554888
0.0062524
0.00780199
0.0133997
0.0397249
0.118281
0.16691
0.109373
0.0589048
0.0438607
0.0377995
0.0348073
0.0321063
0.0286242
0.0278395
0.0277332
0.00418273
0.00420407
0.00442203
0.00454443
0.00477
0.00498639
0.00523843
0.00560374
0.00630459
0.00796279
0.0141787
0.0422116
0.116276
0.152473
0.0931421
0.0520515
0.0375812
0.0327649
0.0306585
0.0297054
0.0273355
0.0267528
0.0267177
0.00422611
0.00427628
0.00449548
0.00462275
0.00484757
0.00505656
0.0053005
0.0056539
0.006352
0.00808805
0.0151261
0.0451318
0.113977
0.140645
0.0805591
0.044475
0.0341485
0.0300266
0.0288916
0.0281198
0.0267795
0.0264808
0.0266641
0.00427431
0.00435064
0.00456851
0.00469989
0.00491976
0.00512268
0.00535775
0.00569973
0.00639793
0.0082797
0.0160931
0.0491605
0.114776
0.12157
0.0685355
0.0437814
0.0321858
0.0286429
0.0280117
0.0273401
0.0264289
0.0262019
0.026571
0.00432393
0.00442544
0.00463892
0.00477442
0.00498961
0.0051833
0.00541107
0.00574117
0.00643903
0.00840634
0.0171328
0.0520823
0.117198
0.102665
0.058871
0.0417489
0.031922
0.0280657
0.0274759
0.0270219
0.0264492
0.0263233
0.0267616
0.0043813
0.00450225
0.00470795
0.00484589
0.00505373
0.0052407
0.00545974
0.00577892
0.00647933
0.00860406
0.0179711
0.0548511
0.11959
0.0854026
0.0537342
0.0413901
0.0311047
0.0277098
0.0270189
0.0268196
0.0265876
0.0329761
0.0279227
0.00443527
0.00457664
0.00477411
0.00491561
0.00511449
0.00529196
0.00550471
0.00581278
0.00651541
0.00873281
0.0190465
0.0562227
0.121317
0.0754716
0.0504081
0.0405698
0.0309722
0.0278068
0.0270164
0.0268914
0.0269501
0.0347617
0.0554446
0.00449839
0.00465206
0.00483685
0.00497889
0.00517042
0.00534054
0.00554527
0.00584367
0.00655159
0.00893738
0.0195451
0.0574652
0.121965
0.0691005
0.0507096
0.0397895
0.031582
0.0280203
0.027271
0.0268852
0.0426651
0.0811653
0.13854
0.0045558
0.00472407
0.00489726
0.00504244
0.00522166
0.00538337
0.00558281
0.00587142
0.00658432
0.00905731
0.0201745
0.0572158
0.122149
0.0686077
0.0506425
0.0403561
0.0321697
0.0277427
0.0269574
0.0327618
0.0617981
0.159596
0.33143
0.00461986
0.00479432
0.00495389
0.00509718
0.00526935
0.00542361
0.00561587
0.00589679
0.00661747
0.00924608
0.0203539
0.0561185
0.119797
0.0658025
0.0505923
0.0470746
0.0465468
0.0360597
0.0477153
0.0482723
0.182268
0.3981
0.686354
0.00467913
0.00486217
0.00500601
0.00515244
0.00531245
0.00545888
0.00564683
0.0059199
0.00664801
0.00934115
0.0204162
0.0545388
0.118439
0.0669586
0.0512776
0.0709751
0.0567325
0.0459878
0.0662789
0.147979
0.352033
0.697814
1.17827
0.00474045
0.00492498
0.00505778
0.00519981
0.00535128
0.00549211
0.00567367
0.00594103
0.00667776
0.0094869
0.0202071
0.0517933
0.112316
0.0675725
0.0587967
0.107463
0.114609
0.110889
0.176643
0.300155
0.604881
1.09636
1.61504
0.00479884
0.00498668
0.00510139
0.00524566
0.0053885
0.00552051
0.0056982
0.00596062
0.00670566
0.00954082
0.0197509
0.0490363
0.106898
0.0762881
0.0964456
0.160413
0.153793
0.172092
0.303053
0.546914
0.988723
1.55181
1.95401
0.00485482
0.00504174
0.00514713
0.00528619
0.00541935
0.00554818
0.00572058
0.00597867
0.00673098
0.00959824
0.0192308
0.0450678
0.102113
0.084272
0.161298
0.234093
0.276897
0.365461
0.531562
0.853022
1.37253
1.89048
2.22754
0.00491068
0.00509413
0.00518515
0.00532392
0.00545061
0.00557091
0.0057391
0.00599543
0.00675472
0.00962071
0.018408
0.0418902
0.10228
0.100761
0.223854
0.333934
0.383863
0.509924
0.83238
1.21322
1.77777
2.22331
2.4918
0.00495883
0.0051434
0.00522392
0.00535687
0.00547619
0.00559385
0.00575736
0.00601113
0.00677661
0.00965956
0.0176178
0.0368828
0.10205
0.119268
0.269155
0.453543
0.556449
0.764977
1.11323
1.51437
2.0029
2.35683
2.52183
0.0050103
0.00518413
0.00525682
0.00538869
0.00550209
0.0056121
0.00577197
0.0060256
0.00679676
0.00960666
0.0168074
0.0359602
0.10101
0.146097
0.350613
0.55656
0.756775
1.04823
1.36844
1.81259
2.17046
2.42003
2.64473
0.00505208
0.00522795
0.00529054
0.0054149
0.00552377
0.00563139
0.00578598
0.0060391
0.0068145
0.00960381
0.0157605
0.0350904
0.0985478
0.189192
0.424525
0.659423
0.932908
1.33303
1.65897
1.97757
2.16307
2.47568
2.58566
0.00509781
0.00526434
0.00531913
0.00544268
0.0055489
0.00564628
0.00579793
0.00605167
0.00683084
0.00959964
0.0148658
0.0324999
0.101938
0.223516
0.51177
0.819894
1.12528
1.46579
1.76315
2.01043
2.16975
2.44291
2.68419
0.00513619
0.00530177
0.00534805
0.00546633
0.00557155
0.00566309
0.00581098
0.00606296
0.00684507
0.00959329
0.0149897
0.0332457
0.112559
0.275418
0.567643
0.915454
1.20403
1.52483
1.8216
2.1078
2.21065
2.44315
2.6154
0.00518484
0.00533217
0.00537737
0.00549324
0.00558781
0.00567799
0.0058191
0.00607359
0.0068585
0.00954812
0.0149604
0.0382019
0.232214
0.34937
0.632853
0.971624
1.23986
1.55362
1.81262
2.03291
2.21264
2.52987
2.63522
0.00521454
0.00536621
0.00541108
0.00550936
0.00559962
0.00569447
0.00582242
0.00608291
0.00687038
0.00953641
0.0143939
0.0479031
0.452459
0.480701
0.705097
0.967309
1.31161
1.58512
1.8344
2.03607
2.21437
2.45112
2.6608
0.0052309
0.00537786
0.00541713
0.00551627
0.00559676
0.00569714
0.00582737
0.00609169
0.00688242
0.0094667
0.0148524
0.0561226
0.681763
0.667148
0.797693
0.997955
1.2868
1.59445
1.83131
2.08681
2.22522
2.46752
2.58195
0.00524099
0.00538449
0.00542392
0.00551999
0.00559887
0.00570033
0.00582666
0.00609901
0.00689244
0.00945407
0.0148229
0.078538
0.838598
0.835354
0.877198
1.01563
1.27657
1.61969
1.84554
2.01744
2.23329
2.36455
2.44396
0.00525238
0.00538686
0.00543083
0.00551839
0.00559957
0.00570427
0.00582716
0.00610623
0.00690631
0.00942358
0.0160147
0.0838582
0.958397
0.962249
0.977597
1.03025
1.27637
1.55102
1.8607
1.98934
2.10727
2.20539
2.27742
0.00524523
0.00539316
0.00543375
0.0055215
0.00560133
0.00570193
0.00582838
0.0061118
0.00692084
0.00954119
0.016111
0.07694
1.06029
1.03525
0.995536
1.07741
1.30001
1.54472
1.7302
1.84246
1.95355
2.03854
2.1177
0.00525047
0.00538837
0.00543835
0.00553155
0.00561082
0.0057011
0.00583141
0.00611784
0.00693881
0.00954246
0.0155297
0.0786753
1.11309
1.11622
1.0531
1.05827
1.2375
1.42513
1.56956
1.67548
1.79484
1.88573
1.94517
0.00525175
0.00538939
0.00544854
0.00552665
0.00560711
0.00570242
0.00582896
0.00612207
0.0069534
0.00955617
0.015725
0.0847628
1.18318
1.13632
1.07775
1.07421
1.17005
1.29902
1.41663
1.5362
1.65363
1.75466
1.75947
0.00525046
0.00539348
0.00544237
0.00553057
0.00560683
0.00570136
0.0058287
0.00612776
0.00697571
0.00955158
0.016652
0.0979656
1.19946
1.18645
1.10703
1.0702
1.11052
1.19041
1.29424
1.4169
1.51993
1.60265
1.57292
0.00525262
0.00539519
0.00544514
0.00552949
0.00561387
0.00569952
0.00582916
0.00612985
0.00699616
0.00955226
0.0176166
0.110285
1.23599
1.16931
1.08556
1.04794
1.07667
1.13088
1.20487
1.31498
1.41857
1.44736
1.39321
0.005241
0.00538761
0.00544505
0.00552899
0.00560876
0.00569819
0.005833
0.00614139
0.00704947
0.00964804
0.0207926
0.144846
1.31032
1.17339
1.09489
1.02489
1.03961
1.07033
1.12228
1.21547
1.29799
1.2613
1.18283
0.00524098
0.00539062
0.00545396
0.00552161
0.00560902
0.00569629
0.00582706
0.00613454
0.00705389
0.00949811
0.0220104
0.157909
1.30973
1.19024
1.0664
0.996563
1.00136
1.02227
1.04249
1.08966
1.15529
1.08732
0.993458
0.00523994
0.00537839
0.00544522
0.00551846
0.00560339
0.00569737
0.00582529
0.00613415
0.00704984
0.00923983
0.0231936
0.196167
1.26714
1.19773
1.04541
0.950431
0.950261
0.951354
0.9675
0.988856
1.02619
0.942423
0.846425
0.00523845
0.00537513
0.00544011
0.00551701
0.00560443
0.00569319
0.0058136
0.0061309
0.00704745
0.00918016
0.023335
0.227483
1.20861
1.11879
0.993794
0.896345
0.899472
0.889223
0.895351
0.903691
0.895726
0.800444
0.715955
0.00524129
0.00537941
0.00543544
0.0055011
0.00559035
0.00568514
0.00581007
0.00612548
0.00704609
0.00914164
0.0263761
0.293998
1.17837
1.0585
0.931013
0.849763
0.84256
0.812336
0.812261
0.812777
0.759906
0.657553
0.595496
0.00523676
0.00537613
0.00543772
0.00549644
0.00558735
0.00566751
0.00581193
0.00611798
0.00703712
0.00910117
0.0272916
0.389814
1.14313
1.0136
0.875723
0.804558
0.77455
0.738022
0.715722
0.709939
0.624971
0.536462
0.490285
0.00522664
0.0053658
0.00543197
0.00549878
0.00559141
0.00566212
0.00580874
0.00610904
0.00704312
0.00921788
0.0282785
0.437862
1.06899
0.950527
0.823174
0.748621
0.704478
0.65749
0.621112
0.582859
0.492609
0.428044
0.392076
0.00521391
0.00534873
0.00542193
0.00548891
0.00558707
0.00566283
0.00579876
0.00609941
0.0070391
0.00923108
0.0316429
0.546103
0.948614
0.856995
0.754741
0.695257
0.634518
0.56597
0.508545
0.452371
0.38011
0.340305
0.307756
0.0051923
0.00531574
0.00540041
0.00546576
0.00557022
0.0056596
0.00578359
0.00608625
0.00704626
0.0093664
0.0339799
0.640349
0.852924
0.784779
0.664611
0.622509
0.544692
0.46604
0.405608
0.348569
0.294192
0.261317
0.220449
0.00515391
0.00529525
0.00536409
0.00543086
0.00554283
0.00565225
0.0057636
0.00607547
0.00706242
0.0100037
0.0397039
0.638444
0.765244
0.69748
0.629579
0.558206
0.453761
0.360547
0.300394
0.257552
0.218782
0.18105
0.133703
0.00514123
0.00528069
0.00535202
0.00541868
0.0055037
0.00563393
0.00574197
0.00606089
0.00710323
0.0107764
0.0462555
0.586671
0.644334
0.60604
0.587618
0.452248
0.324759
0.259604
0.224668
0.194671
0.158905
0.116124
0.0705024
0.00513182
0.00526485
0.00534917
0.00542119
0.00548998
0.00561342
0.00571973
0.00604844
0.00715646
0.0119358
0.0539094
0.498297
0.515336
0.572385
0.457507
0.302794
0.227908
0.198159
0.178192
0.150965
0.113296
0.0705257
0.0335717
0.00510835
0.00522415
0.00532914
0.00539898
0.00549361
0.00558209
0.00569849
0.00604406
0.00732335
0.0131604
0.0652085
0.388343
0.417691
0.457517
0.295667
0.210912
0.17875
0.164987
0.147004
0.117647
0.0775715
0.0398559
0.0179278
0.00505744
0.00518829
0.0052835
0.00537051
0.00547689
0.00554177
0.00567051
0.00602836
0.00751169
0.0168855
0.105718
0.278923
0.3651
0.29791
0.199255
0.16268
0.149625
0.139469
0.121508
0.0901604
0.0506328
0.0205556
0.0127362
0.00501662
0.00514259
0.00524923
0.00533731
0.00544464
0.00549437
0.00564541
0.00603534
0.00777952
0.0213596
0.130193
0.204708
0.272658
0.201007
0.151384
0.137014
0.131339
0.121205
0.100089
0.065221
0.0278713
0.0130118
0.0107811
0.00496994
0.00510736
0.00519339
0.00529767
0.00539833
0.00543617
0.00560608
0.00605398
0.00828782
0.0285268
0.112438
0.167097
0.189688
0.149781
0.126743
0.119487
0.114899
0.104475
0.0810437
0.0409126
0.0151789
0.0107269
0.00982021
0.00495423
0.00508086
0.00515097
0.00524766
0.00534001
0.00538874
0.00557238
0.00608479
0.00914495
0.0431425
0.104924
0.137842
0.1393
0.122038
0.109573
0.107789
0.10354
0.0902838
0.0573983
0.0211232
0.0110236
0.00964806
0.00921266
0.00491043
0.00503261
0.00508466
0.00518153
0.00526461
0.00533427
0.00552885
0.0063182
0.011728
0.047298
0.093653
0.118695
0.111847
0.105654
0.100046
0.0986122
0.0923078
0.0702978
0.0352228
0.0123012
0.00962326
0.00905581
0.0088318
0.00484695
0.00496054
0.0050059
0.00510605
0.00518889
0.00528181
0.00548665
0.00642615
0.0128983
0.0431379
0.0836117
0.101933
0.0919775
0.0882634
0.0885637
0.0865736
0.0780308
0.0525848
0.0175841
0.00987273
0.00892575
0.00862403
0.00848321
0.00478032
0.00488321
0.00490725
0.0050221
0.00510387
0.00521666
0.00543221
0.00638707
0.0130095
0.042614
0.075603
0.0860532
0.078791
0.0779291
0.0769853
0.0748378
0.0650131
0.0306085
0.0109613
0.00879236
0.00836358
0.00819072
0.00811108
0.00468809
0.0047811
0.0048058
0.00493888
0.00502831
0.00513774
0.00537929
0.00650923
0.0154666
0.0468572
0.0738976
0.0786891
0.0680135
0.0660265
0.0694838
0.0660333
0.0481072
0.0151895
0.00902813
0.00822923
0.00799283
0.00787253
0.00777559
0.00459095
0.00469758
0.00472923
0.00484164
0.00492828
0.00505255
0.00532446
0.00693751
0.0197044
0.0553868
0.0811432
0.083547
0.0659008
0.0629114
0.0651734
0.0549827
0.029061
0.00990797
0.00811015
0.00771223
0.00753601
0.00738662
0.00721344
0.0044637
0.00458225
0.00462792
0.0047408
0.00483829
0.00494641
0.00530355
0.00751043
0.0261939
0.0782681
0.0966318
0.0752347
0.0612806
0.0624324
0.0581038
0.0407539
0.0134338
0.00806922
0.0073591
0.00709205
0.00691787
0.00672273
0.00653773
0.00433726
0.00448981
0.0045407
0.00461934
0.00470302
0.00484214
0.0053699
0.00959529
0.0463393
0.0939221
0.0904819
0.0753427
0.0647424
0.0601953
0.0503469
0.0233398
0.00859957
0.00695078
0.00657666
0.00639378
0.00621691
0.00604181
0.00591586
0.00419982
0.00434537
0.00439556
0.00448863
0.00459085
0.00473952
0.00563285
0.014347
0.0656123
0.112213
0.0903156
0.0811561
0.0590124
0.0569276
0.0360533
0.0110361
0.00678953
0.00618979
0.00597794
0.00583608
0.0056801
0.00556937
0.00549529
0.00405962
0.00422991
0.00427982
0.00434055
0.00442069
0.00462638
0.00607398
0.0220333
0.0990232
0.111802
0.113384
0.0749992
0.0610381
0.0439217
0.0182668
0.00709367
0.00581495
0.00554352
0.00541288
0.00528906
0.0051829
0.00512785
0.0050778
0.00392078
0.00404611
0.00408497
0.00417453
0.00429644
0.00482791
0.0077286
0.0392208
0.123057
0.117573
0.117525
0.0752237
0.0567503
0.0293698
0.00896585
0.00565846
0.0052279
0.00508788
0.00499478
0.00490288
0.00485431
0.00482633
0.00479516
0.00375392
0.00390589
0.00394791
0.00399863
0.00412025
0.00497602
0.0119407
0.0681443
0.129692
0.127817
0.129306
0.0770658
0.0415168
0.0129399
0.00580492
0.00485378
0.00467858
0.00460305
0.00453872
0.00449601
0.00447915
0.00446132
0.00445066
0.00360771
0.0036881
0.00371365
0.00382866
0.00419212
0.0061842
0.0219926
0.105115
0.129178
0.140697
0.117002
0.0616471
0.0203333
0.00690256
0.0047145
0.00442636
0.00435179
0.00431312
0.00428087
0.00426785
0.00425976
0.0042493
0.00424394
0.00340667
0.00352997
0.00356659
0.00365067
0.00432422
0.00876914
0.0423959
0.135527
0.136243
0.143652
0.120101
0.0371375
0.00936716
0.00463281
0.00402848
0.00394249
0.00391517
0.00389804
0.00388636
0.00388243
0.00387579
0.00387005
0.00386615
0.00326073
0.00327783
0.00332675
0.00383428
0.00633673
0.0188269
0.0814071
0.131761
0.14144
0.142472
0.0818253
0.015561
0.00537373
0.00394669