/*--------------------------------*- C++ -*----------------------------------*\
  =========                 |
  \\      /  F ield         | OpenFOAM: The Open Source CFD Toolbox
   \\    /   O peration     | Website:  https://openfoam.org
    \\  /    A nd           | Version:  7
     \\/     M anipulation  |
\*---------------------------------------------------------------------------*/
FoamFile
{
    version     2.0;
    format      ascii;
    class       volScalarField;
    location    "100";
    object      nut;
}
// * * * * * * * * * * * * * * * * * * * * * * * * * * * * * * * * * * * * * //

dimensions      [0 2 -1 0 0 0 0];

internalField   nonuniform List<scalar> 
12842
(
0.00181625
0.00178592
0.00177344
0.00177528
0.0017832
0.00176835
0.00176696
0.00175859
0.00175901
0.00176329
0.0017654
0.00176994
0.00178075
0.00105303
0.000512176
0.000291048
0.000190979
0.000138698
0.000107075
8.68364e-05
7.27115e-05
6.3482e-05
5.55912e-05
0.00180635
0.00180654
0.00177526
0.00175871
0.00176642
0.00176504
0.00176902
0.00175819
0.00175872
0.00176244
0.00176354
0.00176869
0.00178106
0.00105381
0.000511806
0.00029168
0.000191317
0.000138694
0.000107128
8.69302e-05
7.29272e-05
6.39785e-05
5.56691e-05
0.00180338
0.00179511
0.00179176
0.00177333
0.00177096
0.00176275
0.00176737
0.00175861
0.00176051
0.00176125
0.00176397
0.00176852
0.00178029
0.00103188
0.000504992
0.000289677
0.00019108
0.000138822
0.00010738
8.71552e-05
7.32027e-05
6.46089e-05
5.59097e-05
0.0018019
0.00179011
0.00177341
0.00176917
0.00176486
0.00176266
0.00176451
0.00175743
0.00176105
0.00176217
0.00176327
0.00176815
0.00178214
0.00099641
0.000492259
0.000284987
0.000189471
0.000138367
0.000107497
8.74287e-05
7.34636e-05
6.51384e-05
5.60272e-05
0.00180116
0.00179375
0.00178147
0.00177141
0.00176502
0.00176165
0.00176404
0.00175806
0.00176091
0.00176028
0.00176273
0.00176976
0.00178445
0.000962143
0.000480831
0.000280707
0.000187918
0.00013799
0.000107628
8.76766e-05
7.37422e-05
6.56663e-05
5.62007e-05
0.00179615
0.00178372
0.0017706
0.00177203
0.00176022
0.0017609
0.00176017
0.00175813
0.00176239
0.00175819
0.00176228
0.00177159
0.00178774
0.000935606
0.000472252
0.000278602
0.000187954
0.000138381
0.000108424
8.85388e-05
7.43966e-05
6.63877e-05
5.65438e-05
0.00179817
0.00178941
0.00177138
0.0017702
0.00175926
0.00176076
0.0017591
0.00175911
0.00176136
0.00175862
0.00176296
0.0017743
0.00179479
0.000913269
0.000466123
0.000276898
0.000187671
0.000138786
0.000108673
8.87436e-05
7.45718e-05
6.66584e-05
5.65658e-05
0.0017914
0.00178017
0.00176802
0.00177219
0.00175634
0.00176066
0.00175628
0.00175941
0.00176202
0.00175516
0.00176374
0.00177829
0.001803
0.00091912
0.000471492
0.000282501
0.000192851
0.000143079
0.000112405
9.16109e-05
7.65305e-05
6.84172e-05
5.78409e-05
0.00179489
0.00178451
0.00176381
0.00176901
0.00175467
0.00176118
0.00175524
0.00175972
0.00176206
0.00175842
0.00176748
0.00178255
0.00180903
0.000920315
0.000471775
0.000283363
0.000194661
0.000145425
0.000114469
9.35332e-05
7.80466e-05
6.98209e-05
5.86783e-05
0.00178646
0.00177696
0.00176562
0.00177044
0.00175393
0.00176159
0.00175481
0.00175977
0.00176137
0.00176111
0.00177274
0.00178916
0.00182012
0.000904312
0.000467784
0.000281704
0.00019287
0.000143832
0.000113187
9.238e-05
7.69242e-05
6.89668e-05
5.79115e-05
0.00179083
0.00177933
0.0017592
0.00176703
0.00175247
0.00176182
0.00175433
0.00175976
0.0017613
0.00176793
0.00177966
0.00179582
0.00183429
0.000899259
0.000467018
0.000282911
0.000194639
0.000145781
0.000114622
9.37215e-05
7.79742e-05
6.99781e-05
5.86585e-05
0.001782
0.00177355
0.00176346
0.00176796
0.0017532
0.00176233
0.00175458
0.00175978
0.00175809
0.00177089
0.00178789
0.00180597
0.00185581
0.000895567
0.000469623
0.000285399
0.000197057
0.000148405
0.000116984
9.5728e-05
7.93959e-05
7.13111e-05
5.99266e-05
0.00178631
0.00177453
0.00175678
0.00176482
0.00175216
0.00176222
0.001754
0.0017598
0.00176013
0.00177498
0.00179279
0.00181542
0.00187178
0.000890651
0.000469294
0.000287929
0.000199688
0.000151197
0.000119237
9.77704e-05
8.11111e-05
7.31426e-05
6.13882e-05
0.00177876
0.00177
0.00176162
0.00176521
0.00175374
0.00176239
0.00175425
0.00176011
0.00176352
0.00177998
0.00180238
0.00182926
0.00189179
0.000888913
0.000471872
0.000289729
0.000202164
0.000154325
0.000122265
0.000100949
8.38063e-05
7.56774e-05
6.35296e-05
0.00178232
0.00177013
0.00175621
0.00176287
0.00175329
0.00176155
0.00175389
0.00176036
0.0017657
0.0017833
0.00180699
0.00184357
0.00189855
0.000881022
0.000471117
0.000293418
0.000206136
0.000158459
0.000126207
0.000104467
8.72031e-05
7.88841e-05
6.71801e-05
0.00177708
0.00176652
0.00176056
0.00176287
0.00175492
0.00176096
0.00175406
0.00176109
0.0017709
0.00179013
0.0018176
0.00185808
0.00187727
0.000880912
0.000473831
0.000294776
0.000208666
0.000161827
0.000130036
0.000108731
9.23378e-05
8.23657e-05
7.08481e-05
0.00177882
0.00176599
0.00175699
0.00176169
0.00175482
0.00175964
0.00175382
0.00176178
0.00177383
0.00179251
0.00182384
0.00187541
0.00185399
0.000869275
0.000471265
0.000298286
0.000213884
0.000167616
0.000136548
0.00011494
9.87701e-05
8.65687e-05
7.66169e-05
0.00177597
0.00176341
0.00176033
0.00176141
0.00175595
0.00175845
0.00175397
0.00176218
0.00178119
0.00180002
0.00183513
0.00188559
0.00183581
0.000870618
0.00047632
0.000301883
0.00021777
0.000172545
0.000142944
0.000122534
0.000108326
9.49357e-05
8.52988e-05
0.00177572
0.00176252
0.00175841
0.00176122
0.00175588
0.00175703
0.00175382
0.00176324
0.00178222
0.00180337
0.00184132
0.00190089
0.00180873
0.000859244
0.000472496
0.000303631
0.000223508
0.00018068
0.000154209
0.000136511
0.000123314
0.000105824
9.6944e-05
0.00177449
0.00176119
0.0017604
0.0017608
0.00175619
0.00175582
0.00175405
0.00176348
0.00178559
0.00181014
0.00185414
0.0019057
0.00178967
0.0008584
0.000478787
0.000311013
0.000229941
0.000189212
0.000166216
0.000153506
0.000141783
0.000125248
0.000121798
0.00177314
0.00175989
0.00175963
0.00176109
0.00175587
0.0017547
0.00175402
0.00176455
0.00178873
0.00181355
0.0018588
0.00191536
0.00176906
0.000851603
0.000476012
0.000311199
0.000234527
0.000199399
0.00018564
0.000181473
0.000176852
0.000164246
0.000166515
0.00177254
0.00175976
0.00176011
0.00176044
0.00175574
0.00175371
0.00175448
0.00176457
0.00179284
0.00182034
0.00187183
0.00191559
0.00172973
0.0008407
0.000481659
0.000319795
0.00024471
0.000214264
0.000205529
0.000217401
0.000231009
0.000232925
0.000265924
0.00177105
0.00175821
0.00176001
0.00176075
0.00175533
0.00175297
0.00175455
0.00176432
0.00179413
0.00182376
0.00187718
0.00192166
0.00177715
0.000856726
0.000480713
0.000318372
0.000244828
0.000220383
0.000227987
0.000264345
0.000321946
0.000412161
0.000606565
0.00177054
0.0017587
0.00175929
0.00176014
0.00175505
0.00175236
0.00175529
0.0017647
0.00179625
0.00182906
0.00188839
0.00191629
0.00180794
0.000850574
0.000485208
0.000325071
0.000252663
0.000235867
0.000243829
0.000291772
0.000439145
0.000617017
0.000558619
0.00176964
0.00175805
0.0017591
0.00176014
0.00175444
0.00175243
0.00175579
0.00176518
0.00179819
0.00183346
0.00189362
0.00191943
0.00172811
0.000845914
0.000487961
0.000322328
0.000251749
0.000236166
0.00024354
0.000299796
0.000426664
0.0005695
0.000504269
0.00176925
0.00175832
0.00175804
0.00175938
0.00175395
0.00175254
0.00175629
0.00176656
0.00180024
0.00184083
0.00190618
0.00191453
0.00172191
0.000834397
0.000486326
0.00033418
0.000265417
0.000250475
0.000246654
0.000275081
0.000361536
0.000467812
0.00050578
0.00176862
0.00175785
0.00175786
0.00175914
0.00175328
0.00175297
0.00175674
0.00176804
0.00180324
0.00185051
0.00191106
0.00191839
0.0017138
0.000849295
0.000507128
0.000338491
0.000266115
0.000245993
0.000237067
0.000278434
0.000350515
0.000586345
0.000877592
0.00176826
0.00175759
0.00175676
0.00175812
0.00175272
0.00175345
0.00175729
0.00176997
0.00180726
0.00185917
0.00192145
0.00191428
0.00172233
0.000844635
0.000506375
0.000348307
0.000284225
0.000264589
0.000244356
0.00029015
0.00048791
0.00103282
0.00147715
0.00176791
0.00175741
0.00175675
0.00175762
0.0017522
0.00175401
0.00175778
0.00177189
0.00181135
0.00186977
0.00192426
0.00191453
0.00172756
0.000866082
0.000535615
0.000378246
0.000303147
0.000266331
0.000267241
0.000381223
0.00105741
0.00172197
0.00260285
0.00176758
0.00175653
0.00175584
0.0017566
0.00175181
0.00175457
0.00175845
0.00177424
0.00181559
0.0018768
0.00193231
0.00191015
0.00173099
0.000878618
0.000545304
0.000384644
0.000310652
0.000297818
0.000307306
0.000673821
0.00133064
0.00199815
0.00288484
0.00176742
0.00175663
0.00175608
0.00175599
0.00175156
0.00175507
0.00175907
0.00177638
0.00181942
0.00188605
0.00193534
0.00190825
0.0017356
0.000893502
0.000584998
0.000427623
0.000357897
0.000325571
0.000432709
0.00110675
0.00168406
0.00246703
0.00375907
0.00176715
0.00175541
0.00175546
0.00175519
0.0017515
0.00175547
0.00176
0.00177879
0.00182441
0.00189612
0.00194324
0.00190633
0.00177308
0.000940516
0.000611233
0.00044553
0.000376062
0.000385984
0.000823585
0.00116975
0.00184019
0.0027029
0.00368597
0.00176708
0.00175558
0.00175595
0.00175465
0.00175155
0.00175576
0.00176077
0.00178083
0.00182872
0.00190431
0.00194637
0.00190468
0.00176675
0.000953115
0.00065636
0.000526549
0.000456482
0.000607962
0.00103365
0.00145587
0.00194394
0.0026222
0.00401689
0.00176687
0.00175443
0.00175563
0.00175413
0.00175181
0.00175589
0.00176187
0.00178286
0.0018318
0.00191224
0.0019563
0.00190922
0.00173417
0.00101396
0.000739973
0.00057239
0.000558522
0.00080174
0.00111599
0.00149725
0.00203361
0.00295282
0.00385445
0.00176681
0.00175449
0.00175633
0.00175385
0.00175212
0.00175596
0.00176275
0.00178448
0.00183383
0.00191528
0.00196028
0.00190836
0.0016944
0.00109624
0.000791198
0.000636248
0.000715523
0.000869188
0.00120632
0.00153592
0.0019723
0.00301799
0.00361137
0.00176664
0.00175366
0.00175618
0.00175365
0.00175252
0.00175578
0.00176367
0.00178616
0.0018351
0.00191983
0.0019744
0.00191488
0.00167979
0.00112475
0.000881391
0.000749831
0.000810662
0.000843974
0.00126705
0.00160296
0.00208501
0.0028898
0.00349284
0.00176652
0.00175356
0.00175697
0.00175364
0.001753
0.00175567
0.00176428
0.00178756
0.001836
0.00192219
0.00198346
0.00191038
0.00164702
0.00127494
0.000937131
0.000860224
0.000712767
0.000747882
0.0012804
0.00165409
0.0022627
0.00300722
0.00360965
0.00176637
0.00175317
0.00175692
0.00175371
0.00175338
0.00175531
0.00176489
0.00178933
0.00183968
0.00193197
0.00200476
0.00192432
0.00162776
0.00130323
0.0010189
0.000881264
0.000872636
0.00131403
0.0018501
0.00226507
0.00282016
0.00326008
0.00370193
0.00176618
0.00175294
0.00175759
0.00175392
0.00175375
0.00175508
0.00176505
0.00179092
0.00184288
0.00193992
0.00202951
0.00191271
0.00157085
0.00131511
0.00124857
0.00125782
0.00158102
0.0025864
0.002709
0.00294767
0.00339388
0.00366463
0.00388666
0.00176598
0.00175285
0.00175756
0.00175409
0.00175409
0.00175473
0.00176561
0.00179528
0.00185551
0.00196552
0.00205066
0.00193141
0.00159566
0.00129313
0.00109786
0.00228123
0.00353194
0.00392755
0.00396419
0.00412834
0.00437242
0.00451566
0.004601
0.00176578
0.00175275
0.00175794
0.00175433
0.00175415
0.00175464
0.00176597
0.00179941
0.00186514
0.00198319
0.00209614
0.00193134
0.00161843
0.00170341
0.00291507
0.003403
0.00491058
0.00584639
0.00585097
0.00575211
0.00557836
0.00558966
0.00543897
0.00176544
0.0017527
0.00175796
0.00175451
0.00175433
0.0017545
0.00176752
0.00180728
0.00188792
0.0020221
0.00211661
0.00196574
0.00202271
0.00304946
0.00397917
0.00536366
0.00668456
0.0072861
0.00669935
0.006555
0.00630908
0.00624877
0.00611628
0.00176528
0.00175272
0.00175772
0.00175449
0.00175409
0.00175438
0.00176902
0.00181526
0.00190515
0.00204704
0.00215476
0.00208929
0.00334807
0.00507445
0.00544265
0.00833143
0.00840916
0.00788407
0.00719703
0.00706984
0.00671657
0.00655825
0.00653521
0.00176472
0.00175281
0.00175803
0.0017546
0.00175412
0.00175401
0.0017731
0.00182716
0.00193231
0.00208932
0.00224529
0.00264788
0.00390381
0.00490072
0.00756403
0.010987
0.0119757
0.0100372
0.0085416
0.00851439
0.00811412
0.0078651
0.0076111
0.00176468
0.00175268
0.0017573
0.00175428
0.00175357
0.00175352
0.00177737
0.00183971
0.00195534
0.00212341
0.00229603
0.00265238
0.00416808
0.00584378
0.0114374
0.0157223
0.0152337
0.0125088
0.0113304
0.0110584
0.0103856
0.00992956
0.00949836
0.00176372
0.00175275
0.00175753
0.00175427
0.0017533
0.00175436
0.00178494
0.00185565
0.0019824
0.00215046
0.00235283
0.00344478
0.00487161
0.00866047
0.0155214
0.0195976
0.0175912
0.0147598
0.0134088
0.0127732
0.0121984
0.0118179
0.011368
0.00176367
0.00175257
0.00175689
0.00175343
0.00175225
0.00175521
0.00179307
0.00187257
0.00200721
0.00220245
0.00260412
0.00423882
0.00647518
0.00982072
0.0195283
0.020338
0.0186862
0.0157107
0.0140484
0.0140137
0.0132669
0.0128484
0.0125236
0.00176262
0.0017524
0.00175688
0.00175311
0.00175235
0.00175855
0.00180447
0.00189088
0.00202907
0.00221493
0.00267712
0.00513563
0.00675971
0.0134979
0.0239875
0.0211685
0.0186548
0.0159995
0.0144855
0.0143006
0.01355
0.0131609
0.0129456
0.00176198
0.00175187
0.00175594
0.00175172
0.00175229
0.00176337
0.00181797
0.00191078
0.00205179
0.00228304
0.0031907
0.00649696
0.010136
0.0183463
0.0245775
0.0218687
0.0190438
0.0163206
0.0149006
0.014857
0.0142413
0.013794
0.0133312
0.00176123
0.00175141
0.00175588
0.00175142
0.00175444
0.00177252
0.00183546
0.00193138
0.00207154
0.00230884
0.00347232
0.00810713
0.0158185
0.0234173
0.0249181
0.021447
0.018778
0.0162084
0.0150953
0.0147652
0.0141543
0.0137546
0.013254
0.00176001
0.00175054
0.00175499
0.00175114
0.00175659
0.0017831
0.00185436
0.00195215
0.00208894
0.00237547
0.00452512
0.0112166
0.018883
0.0253497
0.024838
0.0211137
0.0175984
0.0151775
0.014372
0.01391
0.0131654
0.0127302
0.0121834
0.00175871
0.00174953
0.00175557
0.00175252
0.00176198
0.0017989
0.00187519
0.00197062
0.0021027
0.00242383
0.00499169
0.0128178
0.0200364
0.0251361
0.0250736
0.0189199
0.0146918
0.012682
0.0120788
0.0116572
0.0109271
0.0105261
0.0100689
0.0017572
0.00174857
0.00175599
0.00175458
0.00177091
0.00181628
0.00189598
0.0019882
0.00211272
0.00245677
0.00557258
0.0137591
0.0205328
0.0252922
0.023514
0.0161334
0.0121121
0.0102369
0.00967575
0.00938114
0.00876025
0.0083953
0.008115
0.00175553
0.00174797
0.00175808
0.00176078
0.00178593
0.00183761
0.00191561
0.00200164
0.00211821
0.00246118
0.00604842
0.0148097
0.0205694
0.0241169
0.0214726
0.0133344
0.00978207
0.00814567
0.00763893
0.00740572
0.00700331
0.00670147
0.0064932
0.001754
0.00174807
0.00176274
0.00177087
0.00180249
0.00185741
0.00193369
0.00201262
0.00211967
0.00243796
0.00583364
0.014515
0.0197271
0.0215057
0.0181369
0.010361
0.00756086
0.0063386
0.00585715
0.00566856
0.00547944
0.00533529
0.00516037
0.00175261
0.00174905
0.00177283
0.00178642
0.00182067
0.0018765
0.00194885
0.00201845
0.0021162
0.00239271
0.00527331
0.0134932
0.0184801
0.0187353
0.0144314
0.00793006
0.00584068
0.00501818
0.00455936
0.00440477
0.00432627
0.00426841
0.00414698
0.00175205
0.00175053
0.00178815
0.00180256
0.00183629
0.00189216
0.00195927
0.00202008
0.00210992
0.00235826
0.00456607
0.0116106
0.0169245
0.0156677
0.0111642
0.00608078
0.00464832
0.004056
0.00361877
0.003445
0.00346502
0.00347653
0.00327834
0.00175242
0.00175525
0.00180615
0.00181782
0.00185075
0.00190551
0.00196634
0.00201885
0.002102
0.00230968
0.00394958
0.00965206
0.0149704
0.0126114
0.0083366
0.00463464
0.00374427
0.00330289
0.00289138
0.00271219
0.00270111
0.00274755
0.00254379
0.00175372
0.00176435
0.00182795
0.00183276
0.00186406
0.00191667
0.00197022
0.00201492
0.0020927
0.00227047
0.0035431
0.00768067
0.0126172
0.00989326
0.00618961
0.00357866
0.00307388
0.0027183
0.00234087
0.00218546
0.00212227
0.00210658
0.00204203
0.00175586
0.00177828
0.00184979
0.00184689
0.00187557
0.001925
0.00197108
0.00200878
0.0020826
0.00223802
0.00323806
0.00590851
0.00993865
0.00768323
0.004711
0.00283827
0.00256477
0.00226583
0.00192801
0.00179615
0.00169538
0.00162448
0.00161699
0.00175926
0.00179531
0.00187044
0.00185988
0.00188531
0.00193116
0.00196948
0.00200093
0.00207171
0.00221214
0.00302802
0.00493852
0.00764429
0.0059767
0.00375459
0.00235019
0.00217133
0.00191221
0.00162656
0.00151721
0.001378
0.00126603
0.00122535
0.00176499
0.00181559
0.00188899
0.00187172
0.00189298
0.00193447
0.0019656
0.00199209
0.00206038
0.00218933
0.00283334
0.00422435
0.00586028
0.00479261
0.00316542
0.00202308
0.0018744
0.0016396
0.00140592
0.00130315
0.00115774
0.00104107
0.000982871
0.00177304
0.0018364
0.00190529
0.00188176
0.00189868
0.00193594
0.00196031
0.0019825
0.00204894
0.00217061
0.0026833
0.00384678
0.00487368
0.00391289
0.00282121
0.0018328
0.00164948
0.00142831
0.00123705
0.00114348
0.000991002
0.000896044
0.000853661
0.00178456
0.00185657
0.00191913
0.00189062
0.0019027
0.00193521
0.00195361
0.00197277
0.00203776
0.00215376
0.00250088
0.00342864
0.00412675
0.00350573
0.00259315
0.00168644
0.00147598
0.00127583
0.00109932
0.00101918
0.000876654
0.000796708
0.000757438
0.00179734
0.00187551
0.00193022
0.00189735
0.00190461
0.00193289
0.00194632
0.00196289
0.00202717
0.00214213
0.0023696
0.00301269
0.00375851
0.00333985
0.00244379
0.00162208
0.00135704
0.00115998
0.00101133
0.000911441
0.000809498
0.00075575
0.000733016
0.00181338
0.00189275
0.00193857
0.00190287
0.00190558
0.00192919
0.00193845
0.00195333
0.00201702
0.00212981
0.00231758
0.0027407
0.00341433
0.00319215
0.00233797
0.00154352
0.00124397
0.0010865
0.000950057
0.000858187
0.000773549
0.000749982
0.000731848
0.00182947
0.00190773
0.00194428
0.00190634
0.00190429
0.00192423
0.00193041
0.00194401
0.00200796
0.00212551
0.00228048
0.00261331
0.00314096
0.00300689
0.00220418
0.001503
0.00117351
0.00103485
0.000901197
0.000846726
0.00077664
0.000751394
0.000728358
0.00184671
0.00192062
0.00194668
0.0019086
0.00190276
0.00191836
0.00192243
0.00193518
0.00199917
0.00211714
0.00228855
0.00253043
0.00289572
0.00295279
0.0021393
0.00142118
0.00115695
0.00102367
0.000906405
0.000846128
0.000788943
0.000760916
0.000741087
0.00186175
0.00193036
0.00194725
0.00190895
0.00189904
0.00191197
0.00191458
0.00192691
0.00199183
0.00211733
0.00226976
0.00252687
0.00277209
0.00275689
0.00206231
0.0015417
0.00118463
0.00104419
0.000926359
0.000859366
0.0007911
0.00076062
0.00074494
0.00187476
0.00193798
0.00194431
0.00190866
0.0018956
0.00190471
0.00190708
0.00191911
0.00198454
0.00211401
0.00230264
0.00249287
0.00273184
0.00268341
0.00203583
0.00159327
0.001246
0.00105949
0.000942169
0.000873435
0.00078358
0.000765151
0.000745782
0.00188672
0.00194213
0.00194032
0.00190602
0.0018903
0.00189785
0.00190005
0.00191213
0.00197879
0.00211432
0.00227712
0.00246886
0.0027464
0.00256607
0.00207463
0.0016709
0.00124932
0.00106327
0.000944385
0.000879572
0.000791243
0.000961372
0.000722391
0.00189434
0.00194454
0.00193375
0.00190423
0.00188567
0.00189021
0.00189337
0.00190556
0.00197306
0.00211529
0.0023108
0.00243752
0.00276076
0.00267343
0.00213697
0.00168494
0.00125324
0.00107662
0.000957775
0.00086657
0.000777876
0.000860153
0.00104546
0.00190269
0.0019438
0.00192643
0.00189907
0.00187976
0.00188354
0.00188747
0.00189992
0.00196888
0.00211953
0.00228291
0.00242719
0.00277974
0.00269878
0.00224314
0.00165689
0.00127911
0.00108079
0.000940812
0.000869052
0.00110064
0.00157293
0.00163768
0.00190575
0.00194205
0.00191777
0.0018965
0.00187478
0.00187645
0.00188188
0.00189467
0.0019647
0.00211923
0.00228072
0.00239374
0.00279565
0.00291909
0.00226429
0.00163213
0.00123423
0.00107099
0.000930315
0.000942211
0.0011299
0.00190633
0.00248841
0.00191005
0.00193768
0.00190931
0.00188986
0.00186913
0.00187055
0.00187707
0.00189029
0.00196198
0.00212225
0.00223807
0.00234695
0.00278384
0.00280968
0.00231011
0.00188989
0.00151532
0.00108088
0.00145564
0.00113499
0.00247494
0.00315767
0.00392198
0.00191026
0.00193335
0.00189935
0.00188656
0.00186478
0.00186453
0.00187266
0.00188631
0.00195922
0.00212055
0.00223138
0.0023147
0.00286056
0.00288929
0.00234632
0.00258668
0.00165093
0.00120845
0.0014132
0.00230225
0.00313519
0.00387711
0.004997
0.00191054
0.00192665
0.00189181
0.00187992
0.00185979
0.00185992
0.00186887
0.00188301
0.00195764
0.00212322
0.00219616
0.00226124
0.00282069
0.00293856
0.00256844
0.00339574
0.00268412
0.00203575
0.00279219
0.00307873
0.0037687
0.00489726
0.0058738
0.00190942
0.00192148
0.00188179
0.00187567
0.00185686
0.00185517
0.00186544
0.00188018
0.00195631
0.00211233
0.00216165
0.00223315
0.00287848
0.00331319
0.003582
0.00430561
0.00300882
0.0024712
0.00321397
0.00404985
0.00515042
0.00603973
0.00661882
0.00190653
0.0019138
0.0018755
0.00187014
0.001853
0.00185208
0.00186256
0.00187781
0.00195579
0.00211855
0.00214808
0.00215873
0.00288124
0.00348969
0.00519052
0.00479261
0.00423568
0.0039447
0.00428624
0.00465005
0.0059822
0.00724356
0.00723665
0.00190468
0.00190808
0.00186729
0.00186523
0.00185109
0.00184859
0.00186003
0.00187589
0.00195575
0.00212759
0.00209802
0.00214644
0.00320443
0.00385175
0.00635669
0.00588831
0.00449257
0.00411727
0.00506616
0.00622347
0.00733541
0.00834417
0.00829055
0.00190048
0.00190169
0.00186215
0.00186074
0.00184869
0.00184697
0.00185761
0.00187438
0.00195653
0.00211945
0.00207388
0.00202566
0.0035255
0.00421466
0.0068634
0.00652035
0.00539453
0.0053191
0.00593451
0.00743605
0.00808989
0.0087003
0.00837193
0.0018972
0.00189452
0.00185598
0.00185643
0.00184791
0.00184451
0.00185615
0.00187318
0.00195719
0.00211103
0.00207943
0.00214808
0.00364687
0.00484243
0.00794342
0.00680277
0.00598757
0.00660356
0.00690085
0.00838511
0.00857008
0.00871139
0.00873439
0.00189363
0.00189068
0.0018527
0.00185222
0.00184625
0.00184394
0.00185404
0.00187237
0.00195891
0.00212407
0.00201866
0.00227219
0.00361577
0.0056076
0.00845579
0.0071945
0.00693298
0.00836637
0.00806581
0.00872058
0.00852747
0.00887613
0.00853914
0.00189038
0.00188458
0.00184883
0.00184982
0.00184771
0.00184285
0.00185296
0.00187184
0.00196037
0.00214273
0.00195504
0.00217583
0.00381169
0.00585058
0.00922063
0.00822611
0.00814922
0.00905471
0.00878434
0.00885563
0.00858113
0.00872633
0.00848793
0.00188719
0.00188272
0.00184606
0.00184625
0.00184799
0.00184245
0.00185233
0.00187145
0.00196174
0.00213122
0.00205681
0.00228941
0.00417733
0.0065381
0.0090998
0.00908605
0.00840113
0.00911618
0.00883542
0.00932281
0.00845995
0.00867724
0.0084228
0.00188823
0.00187715
0.00184667
0.00184579
0.00184678
0.00184325
0.00184976
0.0018714
0.00196275
0.00212197
0.00208034
0.00270369
0.00733637
0.00748876
0.00928886
0.0094605
0.00884134
0.00884595
0.00913687
0.00866486
0.00865169
0.0089045
0.00833445
0.00188369
0.00187611
0.00184566
0.00183994
0.00184553
0.0018439
0.00184868
0.00187138
0.00196316
0.00212428
0.00202785
0.00346102
0.0110724
0.00951467
0.0097149
0.00922324
0.00922921
0.00932257
0.00920478
0.00894341
0.00831872
0.00846474
0.00838128
0.00187355
0.00186725
0.00183913
0.00183646
0.0018368
0.00184016
0.00184935
0.00187161
0.00196299
0.00211772
0.00206061
0.00394758
0.0138045
0.0117056
0.0109051
0.00954626
0.0089353
0.00931667
0.00920696
0.0087391
0.00862708
0.00848074
0.00832176
0.00186111
0.00185415
0.001837
0.00183463
0.00183482
0.00183706
0.00184708
0.00187189
0.0019629
0.00211687
0.00205066
0.00530915
0.014793
0.0133469
0.011793
0.0095312
0.00928273
0.00949671
0.00901785
0.00873774
0.00852874
0.00832467
0.00815388
0.00186262
0.00184787
0.00183522
0.00182953
0.00183307
0.0018387
0.0018474
0.00187245
0.00196357
0.00210889
0.00221234
0.00565073
0.0155813
0.0149481
0.0128311
0.00927426
0.00923848
0.00903926
0.00921761
0.00844364
0.00819652
0.00801763
0.00790263
0.00185725
0.0018465
0.00183094
0.00182632
0.00183381
0.00183761
0.00184755
0.00187295
0.00196346
0.00212182
0.00222016
0.00509265
0.0167262
0.015067
0.0127884
0.0101218
0.00947479
0.00899313
0.00833357
0.00798275
0.00788639
0.00773714
0.00769029
0.00185357
0.00184055
0.00183289
0.00182914
0.00183669
0.00183713
0.00184758
0.00187384
0.00196431
0.002138
0.00213478
0.00519177
0.0172434
0.0156579
0.0132949
0.00990684
0.00900205
0.00803622
0.0077263
0.00757711
0.00756386
0.00746981
0.0074045
0.00184988
0.00184233
0.00183597
0.00182472
0.00183472
0.00183749
0.00184676
0.00187442
0.00196553
0.00212065
0.0021624
0.00572729
0.018464
0.0159765
0.0128684
0.00951559
0.00850503
0.00748825
0.00731896
0.00731238
0.00730652
0.00730903
0.00703554
0.00184969
0.00184363
0.00183304
0.00182699
0.00183463
0.00183509
0.00184679
0.00187531
0.00196626
0.00211858
0.00230126
0.00664184
0.0189215
0.0166313
0.0131637
0.00990167
0.00789683
0.00718522
0.00706114
0.00708739
0.00704225
0.00700841
0.00660869
0.00185041
0.0018424
0.00183177
0.00182526
0.00183692
0.00183561
0.00184651
0.00187573
0.00196862
0.00211469
0.00238881
0.00721581
0.0204455
0.0164877
0.0128939
0.00940813
0.00792434
0.00727556
0.00702505
0.00699387
0.00695064
0.00669377
0.00616634
0.00184332
0.00183958
0.00183411
0.0018252
0.00183537
0.00183529
0.00184775
0.00187792
0.00197475
0.00214952
0.00280844
0.00842178
0.0224768
0.0166041
0.0129208
0.00930438
0.00803036
0.00731045
0.0069105
0.00676402
0.00663664
0.00610261
0.00547104
0.00184198
0.00184083
0.00183687
0.00182298
0.0018357
0.00183499
0.00184697
0.00187678
0.00198
0.00215849
0.00308267
0.00866193
0.0236006
0.0169431
0.01224
0.00948241
0.00827279
0.00751589
0.00684373
0.00641624
0.0062278
0.00554329
0.00482416
0.00184053
0.00183691
0.00183493
0.00182273
0.0018346
0.00183433
0.00184733
0.00187841
0.00198542
0.00214061
0.00328641
0.0102905
0.0237657
0.0170768
0.0123329
0.00961603
0.00841539
0.00750855
0.00675883
0.00614009
0.00583079
0.00504293
0.00431042
0.00184234
0.0018331
0.00183348
0.00182301
0.00183567
0.00183345
0.00184359
0.00187946
0.00199213
0.00216085
0.00331915
0.0114686
0.0241097
0.0164944
0.0123941
0.00973293
0.00857995
0.00753649
0.00663
0.00591208
0.0053698
0.00449418
0.00383326
0.00184356
0.00183908
0.00183293
0.00181943
0.00183107
0.0018325
0.00184523
0.00188023
0.00199964
0.00219245
0.00378812
0.0143598
0.0249195
0.0162218
0.0123242
0.00987742
0.00862353
0.00731599
0.00631216
0.00559563
0.00480391
0.00388109
0.00337446
0.00184135
0.0018387
0.00183318
0.00182023
0.00183522
0.00182913
0.0018462
0.00188072
0.00200387
0.00219819
0.00384834
0.0174211
0.02453
0.0170126
0.0124057
0.00994453
0.00836104
0.00696468
0.00580407
0.00512872
0.00416873
0.00333671
0.00295392
0.00184483
0.0018333
0.00183748
0.00182438
0.00183784
0.00183374
0.00184842
0.00188084
0.00201304
0.00222526
0.00390851
0.0177394
0.0230852
0.0163613
0.0121164
0.00965167
0.00789891
0.00641592
0.00521284
0.00442312
0.00344146
0.00284647
0.00254105
0.00184232
0.00182762
0.00183028
0.00182523
0.00183646
0.00183661
0.00185074
0.00188143
0.00201656
0.00223366
0.00428667
0.020063
0.0213627
0.015596
0.012466
0.00936531
0.00726656
0.00561528
0.00441534
0.00358703
0.00283369
0.00244008
0.00225124
0.00183512
0.00181964
0.00183008
0.0018266
0.00183363
0.00184236
0.00185413
0.00188078
0.00202548
0.00227082
0.00467556
0.0224848
0.0189735
0.0144357
0.0114684
0.00842025
0.00626604
0.00470745
0.00365263
0.00293675
0.00238354
0.00217064
0.00194897
0.0018327
0.00181909
0.00181549
0.00181767
0.00182969
0.00183965
0.00185067
0.00188206
0.00203336
0.00239781
0.00525468
0.0208344
0.0176716
0.0142425
0.0109883
0.0073873
0.00525566
0.00375067
0.00289721
0.00241039
0.00212215
0.00191723
0.00161987
0.001831
0.00182789
0.00181671
0.00181242
0.00182441
0.00183823
0.00184376
0.00188164
0.00204689
0.00254543
0.00590055
0.0183389
0.014931
0.0134455
0.00935448
0.00597365
0.0039875
0.00292625
0.00245748
0.00220249
0.00198525
0.00169734
0.0013285
0.00182413
0.00182956
0.00182554
0.00181741
0.00182857
0.00183791
0.00184185
0.00188333
0.00206163
0.00272827
0.00649316
0.0161388
0.0147513
0.0116071
0.00705646
0.0044583
0.00309131
0.00255333
0.00230963
0.00217543
0.00189315
0.00152788
0.00107101
0.00182051
0.00182669
0.00183722
0.00182008
0.00183592
0.00183417
0.00184259
0.00188675
0.00210928
0.00285767
0.00676905
0.0134199
0.0114621
0.00881873
0.00519988
0.00355175
0.00275173
0.00250348
0.00238746
0.00218315
0.00181735
0.00136977
0.00103625
0.00181267
0.0018179
0.00183001
0.00181762
0.0018394
0.0018291
0.00184207
0.00188816
0.00215216
0.00340513
0.00921622
0.0109443
0.00942735
0.00648779
0.00408701
0.00309097
0.00267379
0.00255849
0.00247906
0.00222304
0.00175929
0.00117405
0.00124022
0.0018094
0.00181078
0.00183499
0.00182069
0.00183912
0.00182472
0.00184364
0.00189562
0.00220697
0.00398841
0.00922829
0.00837049
0.00750956
0.00516042
0.00356999
0.00296042
0.00277225
0.00272368
0.00259287
0.00223524
0.00151502
0.00124467
0.00142705
0.0018056
0.00181901
0.00181708
0.00182008
0.00183622
0.00181935
0.00184289
0.0019085
0.00231761
0.00483308
0.00710073
0.0071183
0.00597773
0.00445472
0.00335372
0.00297385
0.00287976
0.00288267
0.00275321
0.00206313
0.00137251
0.00149559
0.00160867
0.00181647
0.0018286
0.00181617
0.0018243
0.00183065
0.00181973
0.00184714
0.00192619
0.00252929
0.00677283
0.00694254
0.00630467
0.00512776
0.00408831
0.00326303
0.00312202
0.00312163
0.00311558
0.00268886
0.00172229
0.00158079
0.00170942
0.00182011
0.00182106
0.00183331
0.00181197
0.00182444
0.00182418
0.00181921
0.00184998
0.00201046
0.00309394
0.00673188
0.00686732
0.00590546
0.00475353
0.00388832
0.00339918
0.00335064
0.0033664
0.00314807
0.00249184
0.00172689
0.00182505
0.00194812
0.00204562
0.00181987
0.00182221
0.00180358
0.00182674
0.00182075
0.00182125
0.00185504
0.00205133
0.00322062
0.00588291
0.00653794
0.00556988
0.00439509
0.00359001
0.00348596
0.00349072
0.0035181
0.00328505
0.00218101
0.00195274
0.00205731
0.00213028
0.00217728
0.0018221
0.00180946
0.00179433
0.00182301
0.00181709
0.00182129
0.00185811
0.00205034
0.00304071
0.00573033
0.00616561
0.00519447
0.00412342
0.00358396
0.00352125
0.0035877
0.00382572
0.00309242
0.00214183
0.00211804
0.00216956
0.00219527
0.00221359
0.00181357
0.00179774
0.00178491
0.0018145
0.00181848
0.00181996
0.00186286
0.00209137
0.00343789
0.00630595
0.00630679
0.00518932
0.00387682
0.003487
0.00371006
0.00388763
0.00404656
0.00270239
0.00222149
0.00222084
0.0022309
0.00223186
0.00222829
0.00181242
0.00180702
0.0017918
0.00180625
0.00181434
0.00182046
0.00187065