/*--------------------------------*- C++ -*----------------------------------*\
  =========                 |
  \\      /  F ield         | OpenFOAM: The Open Source CFD Toolbox
   \\    /   O peration     | Website:  https://openfoam.org
    \\  /    A nd           | Version:  7
     \\/     M anipulation  |
\*---------------------------------------------------------------------------*/
FoamFile
{
    version     2.0;
    format      ascii;
    class       surfaceScalarField;
    location    "100";
    object      phi;
}
// * * * * * * * * * * * * * * * * * * * * * * * * * * * * * * * * * * * * * //

dimensions      [0 3 -1 0 0 0 0];

internalField   nonuniform List<scalar> 
25449
(
63.8187
64.0144
-41.4489
47.4061
47.7256
-31.3127
35.3693
35.6992
-23.6624
26.4837
26.7681
-17.8824
19.8885
20.113
-13.5178
14.9718
15.1435
-10.2268
11.2934
11.4269
-7.7485
8.53342
8.6439
-5.88393
6.45765
6.55745
-4.48169
4.89359
4.99058
-3.42651
3.71357
3.81109
-2.63106
2.82269
2.92038
-2.02949
2.15009
2.24505
-1.57245
1.64262
1.73075
-1.22327
1.26019
1.33724
-0.954804
0.972436
1.03476
-0.747006
0.756304
0.801253
-0.585121
0.594252
0.620328
-0.458276
0.472938
0.479754
-0.35844
0.382229
0.370379
-0.27967
0.31445
0.285254
-0.217476
0.263801
0.219162
-0.168513
0.167807
-0.129969
0.225964
47.7759
80.624
35.6162
59.8854
26.6536
44.6619
20.0123
33.4093
15.0685
25.0568
11.3741
18.8379
8.60447
14.1965
6.5223
10.7261
4.95309
8.12665
3.76813
6.17553
2.87214
4.70708
2.19425
3.59826
1.68154
2.75776
1.29424
2.11805
1.00225
1.62923
0.78266
1.25434
0.617971
0.965942
0.494783
0.743516
0.402854
0.571682
0.334374
0.43886
0.283414
0.336213
0.245494
0.257082
0.196016
0.217285
34.8497
92.403
26.1292
68.6062
19.6474
51.1438
14.8135
38.2431
11.1971
28.6732
8.48414
21.5509
6.44368
16.2369
4.90507
12.2647
3.74202
9.2897
2.86108
7.05647
2.19298
5.37519
1.68611
4.10514
1.30189
3.14198
1.01124
2.4087
0.792006
1.84846
0.62722
1.41913
0.503806
1.08936
0.411689
0.835633
0.343128
0.640244
0.292205
0.489783
0.254426
0.373993
0.226397
0.28511
0.216813
0.2056
25.0196
100.45
18.9394
74.6865
14.3519
55.7314
10.8919
41.7032
8.28064
31.2844
6.30874
23.5228
4.81776
17.7279
3.68815
13.3943
2.83036
10.1475
2.17772
7.7091
1.68066
5.87223
1.3021
4.48369
1.01426
3.42982
0.796046
2.62691
0.631297
2.0132
0.507476
1.54295
0.414832
1.182
0.345784
0.904681
0.294482
0.691546
0.256444
0.52782
0.228268
0.402169
0.207393
0.305985
0.232292
0.191914
17.7975
105.69
13.6854
78.7989
10.498
58.919
8.04623
44.1549
6.16861
33.1621
4.73535
24.956
3.64249
18.8207
2.80849
14.2283
2.17091
10.7851
1.68272
8.19729
1.30873
6.24623
1.02236
4.77006
0.803659
3.64853
0.637332
2.79324
0.511509
2.13903
0.416869
1.63759
0.346056
1.25281
0.293294
0.957443
0.2541
0.73074
0.225038
0.556883
0.203498
0.423709
0.187529
0.321954
0.244153
0.175668
12.6163
108.852
9.94417
81.4712
7.76912
61.0941
6.0396
45.8844
4.68334
34.5183
3.63072
26.0086
2.81799
19.6334
2.19134
14.8549
1.70782
11.2685
1.3344
8.57069
1.04613
6.53448
0.823809
4.99237
0.652977
3.81935
0.522432
2.92377
0.423336
2.23812
0.348633
1.71229
0.292651
1.3088
0.250874
0.99922
0.219777
0.761836
0.196656
0.580003
0.179463
0.440903
0.166674
0.334743
0.253692
0.157135
8.97107
110.49
7.33867
83.1039
5.88336
62.5495
4.66056
47.1072
3.66612
35.5127
2.87556
26.7992
2.25449
20.2545
1.76912
15.3402
1.39025
11.6474
1.09461
8.86633
0.864322
6.76477
0.685155
5.17154
0.546435
3.95807
0.439736
3.03048
0.358306
2.31955
0.296654
1.77394
0.250278
1.35517
0.215529
1.03397
0.189542
0.787824
0.170112
0.599433
0.155573
0.455442
0.144691
0.345625
0.261863
0.13652
6.45102
111.016
5.56177
83.9933
4.61089
63.5004
3.73713
47.981
2.98838
36.2615
2.37391
27.4136
1.88055
20.7478
1.48874
15.732
1.17869
11.9574
0.933855
9.11115
0.741198
6.95741
0.589783
5.32294
0.471517
4.07632
0.379866
3.12211
0.309485
2.38992
0.255924
1.8275
0.215433
1.39566
0.184916
1.06448
0.161931
0.810807
0.144593
0.61677
0.131506
0.468529
0.121609
0.355521
0.269339
0.114133
4.07846
112.284
3.11217
84.9598
2.37923
64.2333
1.82641
48.5338
1.40914
36.6787
1.09547
27.7273
0.858382
20.9849
0.677612
15.9128
0.537979
12.0971
0.429079
9.22005
0.343817
7.04268
0.276744
5.39001
0.22422
4.12885
0.183385
3.16295
0.151951
2.42136
0.128028
1.85143
0.109986
1.4137
0.0964371
1.07803
0.0862616
0.820982
0.0785916
0.624439
0.0727828
0.474338
0.0683799
0.359923
0.27273
0.0649886
2.32269
112.994
1.78063
85.502
1.36952
64.6445
1.06049
48.8428
0.827975
36.9112
0.654276
27.901
0.523153
21.116
0.422686
16.0132
0.343883
12.1759
0.281135
9.28278
0.230958
7.09283
0.19052
5.43043
0.158181
4.16116
0.132573
3.18854
0.112564
2.44136
0.0971713
1.86681
0.0854675
1.4254
0.0766017
1.0869
0.0698667
0.827716
0.0647062
0.629599
0.0607141
0.478329
0.0576172
0.36302
0.275177
0.0551701
1.06128
113.306
0.82259
85.7408
0.641828
64.8253
0.507352
48.9773
0.407296
37.0113
0.333969
27.9743
0.278876
21.1711
0.236039
16.0561
0.200891
12.211
0.171268
9.31242
0.146287
7.11782
0.124973
5.45175
0.107112
4.17903
0.0923972
3.20326
0.0805267
2.45323
0.0711775
1.87616
0.0639363
1.43264
0.0583446
1.09249
0.0539935
0.832066
0.0505549
0.633037
0.0477929
0.48109
0.0455754
0.365237
0.276998
0.0437543
0.172678
113.34
0.146206
85.7674
0.12664
64.8449
0.114413
48.9895
0.107266
37.0184
0.104363
27.9772
0.102697
21.1728
0.1004
16.0584
0.095995
12.2154
0.0897168
9.31868
0.0825108
7.125
0.0746738
5.45957
0.0669843
4.18669
0.0598762
3.21035
0.0536364
2.45946
0.0484243
1.88136
0.0442049
1.43686
0.0408079
1.09588
0.038038
0.834833
0.03573
0.635343
0.0337658
0.483053
0.0321095
0.366892
0.278427
0.0306796
-0.437012
113.187
-0.319641
85.6501
-0.229904
64.7551
-0.159128
48.9187
-0.103062
36.9624
-0.058013
27.9322
-0.023188
21.138
0.00226368
16.0329
0.0189442
12.1987
0.0286827
9.30895
0.0336903
7.12001
0.0350995
5.45817
0.0343585
4.18744
0.0323971
3.21232
0.0299124
2.46194
0.0274152
1.88386
0.0251511
1.43912
0.0231611
1.09787
0.0213992
0.836593
0.0198113
0.636929
0.0183554
0.484508
0.0170517
0.368195
0.279612
0.0158661
-0.841254
112.913
-0.630524
85.4394
-0.469682
64.5943
-0.344773
48.7938
-0.247363
36.865
-0.17089
27.8557
-0.11204
21.0791
-0.0682499
15.9891
-0.0375782
12.168
-0.0172014
9.28856
-0.00407405
7.10686
0.00345054
5.45062
0.00726097
4.18361
0.0086099
3.21095
0.00847376
2.46207
0.00762119
1.8847
0.00651045
1.44022
0.00534194
1.09903
0.00416996
0.837762
0.00301708
0.63808
0.00187591
0.485648
0.000808001
0.369262
0.280644
-0.000225247
-1.09126
112.569
-0.82505
85.1733
-0.621782
64.391
-0.46444
48.6364
-0.34215
36.7427
-0.246687
27.7602
-0.173198
21.0056
-0.118146
15.9341
-0.0788183
12.1287
-0.0518368
9.2616
-0.0336456
7.08868
-0.0223291
5.43932
-0.0157419
4.17703
-0.0124459
3.20766
-0.0112852
2.46091
-0.0113001
1.88472
-0.0118673
1.44079
-0.0126633
1.09983
-0.0135701
0.838667
-0.0145213
0.639029
-0.0155146
0.48664
-0.0164649
0.370211
0.281586
-0.017408
-1.23372
112.188
-0.938473
84.8781
-0.712766
64.1653
-0.538104
48.4618
-0.402387
36.6069
-0.296555
27.6544
-0.214937
20.924
-0.153527
15.8726
-0.109261
12.0844
-0.0785057
9.23083
-0.0574009
7.06756
-0.0439355
5.42583
-0.0358294
4.1689
-0.0315521
3.20336
-0.0298389
2.45918
-0.029586
1.88445
-0.030034
1.44123
-0.0307599
1.10055
-0.0316017
0.839506
-0.0324768
0.639902
-0.0333778
0.48754
-0.0342388
0.371071
0.282434
-0.0350876
-1.29849
111.796
-0.993217
84.5728
-0.759463
63.9315
-0.578382
48.2807
-0.437505
36.4661
-0.327523
27.5444
-0.242472
20.8389
-0.178231
15.8084
-0.131696
12.0379
-0.0991958
9.19834
-0.0767128
7.04509
-0.0622681
5.4114
-0.0535383
4.16018
-0.0489714
3.1988
-0.0472463
2.45746
-0.0471461
1.88436
-0.0477893
1.44187
-0.0486647
1.10142
-0.0495738
0.840413
-0.0504392
0.640766
-0.0512545
0.488354
-0.0520161
0.371831
0.283158
-0.0527421
-1.30699
111.41
-1.0054
84.2712
-0.773972
63.7001
-0.594341
48.101
-0.454268
36.326
-0.344622
27.4348
-0.259522
20.7538
-0.194984
15.7439
-0.148094
11.991
-0.115305
9.16554
-0.0925373
7.0223
-0.0779415
5.39678
-0.0692176
4.15144
-0.0648471
3.19442
-0.0634941
2.45609
-0.0638502
1.8847
-0.0649165
1.44293
-0.0660942
1.1026
-0.0671495
0.841465
-0.0680213
0.641635
-0.0687208
0.489052
-0.0693342
0.372444
0.283697
-0.0698742
-1.27854
111.042
-0.98959
83.9823
-0.767262
63.4778
-0.594217
47.928
-0.458839
36.1906
-0.352443
27.3284
-0.269487
20.6709
-0.206283
15.6807
-0.160275
11.9449
-0.128142
9.13343
-0.105792
6.99997
-0.0915761
5.38258
-0.0832611
4.14313
-0.0794016
3.19056
-0.078678
2.45537
-0.0797041
1.88573
-0.0813605
1.44459
-0.0829511
1.10419
-0.0842006
0.842712
-0.0850664
0.642499
-0.0856066
0.489591
-0.0860037
0.37284
0.283966
-0.0862735
-1.22565
110.699
-0.955233
83.7119
-0.746474
63.269
-0.583407
47.7649
-0.45529
36.0625
-0.354067
27.2272
-0.274692
20.5915
-0.213884
15.6198
-0.169555
11.9006
-0.138691
9.10255
-0.117201
6.97847
-0.103692
5.36906
-0.0960318
4.13545
-0.0928794
3.18739
-0.0929591
2.45544
-0.094817
1.88757
-0.0972046
1.44697
-0.09931
1.10629
-0.100802
0.844201
-0.101657
0.643351
-0.102008
0.489941
-0.102119
0.37295
0.283875
-0.102031
-1.16218
110.386
-0.912832
83.4625
-0.719565
63.0757
-0.567921
47.6133
-0.448144
35.9427
-0.352877
27.1319
-0.277648
20.5163
-0.219637
15.5618
-0.177294
11.8583
-0.147956
9.07323
-0.1275
6.95803
-0.114827
5.3564
-0.107914
4.12855
-0.105545
3.18504
-0.106509
2.45641
-0.109297
1.89037
-0.112524
1.4502
-0.115238
1.109
-0.11703
0.84599
-0.117888
0.64421
-0.118044
0.490095
-0.117829
0.372736
0.283386
-0.117344
-1.08789
110.104
-0.862189
83.2368
-0.686399
62.9
-0.547711
47.4746
-0.437456
35.8325
-0.349036
27.0435
-0.278595
20.4458
-0.223806
15.507
-0.18374
11.8182
-0.156168
9.04565
-0.136885
6.93873
-0.125124
5.34462
-0.11899
4.1224
-0.117429
3.18346
-0.119333
2.4583
-0.123157
1.89418
-0.127371
1.45441
-0.130854
1.11248
-0.133084
0.848215
-0.134063
0.645186
-0.134131
0.490165
-0.133682
0.372282
0.282571
-0.132867
-1.00676
109.857
-0.806407
83.0364
-0.649318
62.7428
-0.524417
47.3497
-0.424236
35.7323
-0.343023
26.9623
-0.277656
20.3805
-0.226426
15.4558
-0.189021
11.7808
-0.163511
9.02016
-0.145497
6.92074
-0.134695
5.33384
-0.129401
4.11713
-0.128712
3.18278
-0.131626
2.46122
-0.136594
1.89915
-0.141966
1.45979
-0.146432
1.11695
-0.149339
0.851119
-0.150691
0.646539
-0.150892
0.490366
-0.150335
0.371723
0.281513
-0.14928
-0.901116
109.591
-0.704684
82.84
-0.560645
62.5988
-0.453025
47.242
-0.371556
35.6508
-0.308846
26.8996
-0.260118
20.3317
-0.222398
15.4181
-0.19417
11.7525
-0.174034
9.00002
-0.15968
6.90638
-0.150644
5.32479
-0.145961
4.11243
-0.145499
3.1823
-0.148905
2.46461
-0.154977
1.90521
-0.162053
1.46686
-0.168496
1.12338
-0.173248
0.855866
-0.176056
0.649345
-0.177216
0.491525
-0.177188
0.371692
0.280772
-0.176451
-0.875433
109.339
-0.688903
82.6534
-0.551944
62.4618
-0.449464
47.1396
-0.371755
35.5731
-0.311789
26.8396
-0.265029
20.285
-0.228644
15.3817
-0.20128
11.7252
-0.181755
8.98051
-0.167722
6.89237
-0.158743
5.31583
-0.15387
4.10757
-0.153158
3.1816
-0.156444
2.46791
-0.162687
1.91146
-0.170304
1.47448
-0.177579
1.13066
-0.183268
0.861552
-0.186961
0.653041
-0.18891
0.493473
-0.189582
0.372362
0.280558
-0.189373
-0.850371
109.1
-0.67321
82.4763
-0.542937
62.3316
-0.445302
47.0419
-0.371129
35.4989
-0.313737
26.7822
-0.26881
20.24
-0.233668
15.3466
-0.207122
11.6986
-0.18817
8.96155
-0.174391
6.87858
-0.165386
5.30682
-0.160231
4.1024
-0.159168
3.18053
-0.162228
2.47095
-0.168568
1.91779
-0.176751
1.48266
-0.185043
1.13894
-0.192052
0.868556
-0.197272
0.658258
-0.200764
0.496964
-0.2026
0.374196
0.280934
-0.202982
-0.825957
108.873
-0.657694
82.308
-0.533764
62.2076
-0.440722
46.9489
-0.369901
35.4281
-0.314947
26.7273
-0.271751
20.1968
-0.237784
15.3126
-0.212004
11.6728
-0.193576
8.94315
-0.179991
6.86502
-0.170886
5.29773
-0.165345
4.09689
-0.163808
3.17901
-0.166506
2.47366
-0.172827
1.92412
-0.181533
1.49137
-0.190972
1.14838
-0.199744
0.877325
-0.207144
0.665662
-0.212581
0.502399
-0.21565
0.377263
0.282372
-0.217094
-0.802207
108.659
-0.642417
82.1482
-0.524522
62.0898
-0.43585
46.8602
-0.368219
35.3605
-0.315584
26.6746
-0.274035
20.1553
-0.241179
15.2798
-0.216111
11.6477
-0.198159
8.92519
-0.184716
6.85157
-0.175445
5.28845
-0.169413
4.09084
-0.167271
3.17685
-0.169447
2.47582
-0.175577
1.93024
-0.184653
1.50043
-0.195278
1.15899
-0.206141
0.888184
-0.216043
0.675561
-0.223721
0.510075
-0.229116
0.382657
0.28688
-0.23363
-0.779127
108.456
-0.627422
81.9965
-0.515281
61.9776
-0.430774
46.7757
-0.366188
35.2959
-0.315768
26.6242
-0.275787
20.1153
-0.243984
15.248
-0.219579
11.6233
-0.202061
8.90769
-0.188713
6.83824
-0.179218
5.27898
-0.172587
4.08424
-0.169702
3.17399
-0.171173
2.47731
-0.176868
1.93595
-0.18605
1.50962
-0.19772
1.17067
-0.210651
0.901111
-0.223144
0.688059
-0.233991
0.520918
-0.243741
0.392407
0.295882
-0.252748
-0.756717
108.264
-0.612737
81.8525
-0.50609
61.871
-0.425563
46.6952
-0.363886
35.2342
-0.315584
26.5759
-0.2771
20.0768
-0.246299
15.2172
-0.222513
11.5995
-0.205391
8.89057
-0.192098
6.82495
-0.182321
5.2692
-0.174982
4.07689
-0.171213
3.1702
-0.171768
2.47785
-0.176708
1.94087
-0.185612
1.51852
-0.197904
1.18295
-0.212401
0.915605
-0.227319
0.702973
-0.241943
0.53554
-0.256222
0.406685
0.307548
-0.267893
-0.73497
108.083
-0.598382
81.7159
-0.496988
61.7695
-0.420267
46.6185
-0.361375
35.1754
-0.315102
26.5296
-0.278052
20.0398
-0.248204
15.1873
-0.224997
11.5763
-0.208238
8.87383
-0.194961
6.81169
-0.18485
5.25911
-0.176694
4.06876
-0.171901
3.16543
-0.1713
2.47727
-0.175103
1.94469
-0.183216
1.52664
-0.195378
1.19511
-0.210439
0.930663
-0.226862
0.719401
-0.24396
0.552635
-0.259791
0.422516
0.318074
-0.27032
-0.713877
107.912
-0.584369
81.5864
-0.488004
61.6732
-0.414927
46.5454
-0.358705
35.1191
-0.314377
26.4853
-0.278701
20.0041
-0.249762
15.1584
-0.227098
11.5537
-0.210672
8.8574
-0.197378
6.7984
-0.186888
5.24862
-0.177805
4.05967
-0.17185
3.15947
-0.169833
2.47524
-0.172077
1.94692
-0.17878
1.53333
-0.189781
1.20611
-0.203936
0.944818
-0.220056
0.735516
-0.236901
0.569478
-0.250832
0.436446
0.325161
-0.257923
-0.693429
107.75
-0.570708
81.4637
-0.47916
61.5816
-0.409577
46.4758
-0.355916
35.0655
-0.313457
26.4429
-0.279099
19.9697
-0.251028
15.1303
-0.228871
11.5315
-0.212754
8.84131
-0.199414
6.78508
-0.188505
5.23773
-0.178388
4.04958
-0.171136
3.15224
-0.167442
2.47157
-0.167702
1.9472
-0.172289
1.53792
-0.180948
1.21477
-0.192488
0.956356
-0.205968
0.749001
-0.219634
0.583142
-0.229414
0.446225
0.328473
-0.232728
-0.673613
107.598
-0.557403
81.3475
-0.470474
61.4947
-0.404244
46.4095
-0.353042
35.0143
-0.312379
26.4022
-0.279288
19.9366
-0.252047
15.1031
-0.230367
11.5098
-0.214537
8.82548
-0.201127
6.77167
-0.189766
5.22637
-0.178509
4.03832
-0.169834
3.14356
-0.164215
2.46594
-0.1621
1.94507
-0.163877
1.53969
-0.169037
1.21993
-0.17628
0.963601
-0.184899
0.757614
-0.193113
0.591354
-0.197769
0.450881
0.328552
-0.197849
-0.654416
107.454
-0.544457
81.2375
-0.461963
61.4122
-0.39895
46.3465
-0.350113
34.9654
-0.311179
26.3633
-0.279306
19.9048
-0.25286
15.0767
-0.231629
11.4886
-0.216067
8.80993
-0.202566
6.7582
-0.190728
5.21456
-0.17823
4.02585
-0.168025
3.13338
-0.160261
2.4582
-0.155439
1.94027
-0.153833
1.5381
-0.154487
1.22059
-0.156158
0.965272
-0.158439
0.759898
-0.160052
0.592966
-0.159469
0.450299
0.326093
-0.157009
-0.635826
107.319
-0.531872
81.1336
-0.453636
61.334
-0.393716
46.2866
-0.347153
34.9189
-0.309885
26.326
-0.279186
19.8741
-0.253502
15.051
-0.232693
11.4678
-0.217385
8.79463
-0.203776
6.74459
-0.191443
5.20223
-0.17761
4.01202
-0.16578
3.12155
-0.155683
2.4481
-0.147922
1.9325
-0.14256
1.53273
-0.138008
1.21604
-0.133479
0.960747
-0.128929
0.755342
-0.123886
0.587924
-0.118507
0.444919
0.321477
-0.113889
-0.617829
107.192
-0.519647
81.0353
-0.445503
61.2598
-0.388557
46.2297
-0.344185
34.8745
-0.308522
26.2903
-0.278956
19.8445
-0.254004
15.026
-0.233593
11.4474
-0.218528
8.77958
-0.204799
6.73088
-0.191966
5.18942
-0.176701
3.99678
-0.163171
3.10805
-0.150609
2.43556
-0.139814
1.92172
-0.130468
1.5234
-0.120447
1.20603
-0.109735
0.950038
-0.0985564
0.744166
-0.0873064
0.576673
-0.0775654
0.43518
0.314317
-0.0704019
-0.600411
107.073
-0.507781
80.9427
-0.437574
61.1896
-0.38349
46.1756
-0.341228
34.8322
-0.307115
26.2562
-0.278642
19.816
-0.254395
15.0018
-0.23436
11.4273
-0.21953
8.76476
-0.205674
6.71703
-0.192342
5.17609
-0.175545
3.97999
-0.160269
3.09278
-0.145163
2.42046
-0.131404
1.90796
-0.11794
1.50993
-0.102709
1.1908
-0.0863669
0.933701
-0.0692895
0.727084
-0.0525536
0.559939
-0.0380524
0.42068
0.303451
-0.0271806
-0.58356
106.962
-0.496273
80.8554
-0.429855
61.1231
-0.378526
46.1242
-0.3383
34.792
-0.305685
26.2236
-0.278268
19.7886
-0.254701
14.9782
-0.235021
11.4077
-0.220421
8.75017
-0.206437
6.70307
-0.192614
5.16229
-0.174186
3.96159
-0.157153
3.07577
-0.139486
2.40282
-0.122954
1.89145
-0.105414
1.4924
-0.0856692
1.17107
-0.0646667
0.912703
-0.0430237
0.705443
-0.0223758
0.539291
-0.00442661
0.402734
0.290114
0.00891565
-0.56726
106.858
-0.48512
80.7733
-0.422352
61.0604
-0.373679
46.0756
-0.335417
34.7538
-0.304251
26.1924
-0.277856
19.7622
-0.254944
14.9553
-0.235601
11.3883
-0.221233
8.73581
-0.207118
6.68896
-0.192821
5.148
-0.172658
3.94144
-0.153862
3.05698
-0.133795
2.38275
-0.114677
1.87233
-0.0933785
1.4711
-0.0700726
1.14776
-0.0456871
0.888324
-0.0212744
0.681026
0.00149446
0.516524
0.0209993
0.383232
0.275979
0.0351408
-0.551499
106.761
-0.47432
80.6961
-0.415069
61.0011
-0.368959
46.0295
-0.332594
34.7174
-0.30283
26.1627
-0.277426
19.7368
-0.255148
14.9331
-0.236124
11.3693
-0.22199
8.72169
-0.207746
6.67474
-0.192997
5.13328
-0.170987
3.91945
-0.150462
3.03648
-0.128366
2.36068
-0.1067
1.85068
-0.0822404
1.44665
-0.0563944
1.12193
-0.0300398
0.861975
-0.00440003
0.655388
0.0189234
0.493201
0.0383313
0.363827
0.262113
0.0522039
-0.536264
106.671
-0.46387
80.6237
-0.408014
60.9453
-0.364376
45.9858
-0.329845
34.6829
-0.301441
26.1343
-0.276997
19.7124
-0.255333
14.9114
-0.236613
11.3506
-0.222716
8.7078
-0.208346
6.66038
-0.193186
5.11813
-0.169234
3.89552
-0.147085
3.01435
-0.123348
2.33696
-0.0991222
1.82646
-0.0722352
1.41976
-0.0447079
1.09441
-0.0174587
0.834735
0.00812019
0.629805
0.0307722
0.470551
0.0490765
0.345526
0.249179
0.062019
-0.521542
106.588
-0.453769
80.5559
-0.401189
60.8927
-0.359941
45.9446
-0.327185
34.6501
-0.3001
26.1072
-0.276589
19.6889
-0.255519
14.8903
-0.237088
11.3321
-0.223437
8.69417
-0.208953
6.64591
-0.193434
5.10263
-0.16741
3.86952
-0.143856
2.99082
-0.118683
2.31181
-0.0920167
1.79981
-0.0633797
1.39114
-0.0348547
1.0659
-0.00750658
0.807394
0.0171838
0.605115
0.0383614
0.449375
0.055021
0.328871
0.23749
0.0667189
-0.507321
106.511
-0.444012
80.4926
-0.394599
60.8433
-0.355661
45.9056
-0.324624
34.6191
-0.298821
26.0814
-0.276217
19.6663
-0.255724
14.8699
-0.237568
11.314
-0.224177
8.68079
-0.209601
6.63135
-0.193752
5.0868
-0.165446
3.84123
-0.140839
2.96623
-0.114248
2.28523
-0.0854807
1.77105
-0.055735
1.3614
-0.0268868
1.03707
-0.000227982
0.780746
0.0229741
0.58191
0.0422351
0.430117
0.0570716
0.314038
0.227082
0.0674903
-0.49359
106.44
-0.434599
80.4336
-0.388248
60.7969
-0.351547
45.8689
-0.322178
34.5897
-0.29762
26.0568
-0.275899
19.6446
-0.255967
14.8499
-0.238074
11.2961
-0.224962
8.66769
-0.210324
6.61673
-0.194152
5.07064
-0.163363
3.81046
-0.138036
2.94093
-0.11001
2.25723
-0.0796562
1.74071
-0.0493154
1.33106
-0.020698
1.00846
0.00471798
0.755339
0.0261776
0.56045
0.0435009
0.412796
0.0565479
0.300995
0.21798
0.0656608
-0.480336
106.375
-0.425524
80.3788
-0.38214
60.7535
-0.347607
45.8344
-0.319856
34.562
-0.29651
26.0335
-0.27565
19.6237
-0.256264
14.8306
-0.238624
11.2784
-0.225811
8.65488
-0.211131
6.60206
-0.194654
5.05418
-0.161322
3.77715
-0.135504
2.91513
-0.106166
2.22791
-0.0746549
1.70921
-0.0440114
1.30043
-0.0159256
0.980392
0.00818964
0.731235
0.027836
0.540801
0.0432289
0.397407
0.0545586
0.289669
0.210115
0.0624346
-0.467548
106.315
-0.416787
80.328
-0.376278
60.713
-0.343848
45.8019
-0.317671
34.5358
-0.295508
26.0113
-0.27549
19.6037
-0.256637
14.8117
-0.239233
11.261
-0.226736
8.6424
-0.212041
6.58738
-0.195271
5.03742
-0.159479
3.74138
-0.133343
2.88901
-0.102887
2.19747
-0.070419
1.67675
-0.0395985
1.26961
-0.0121982
0.953008
0.0106898
0.708357
0.0286406
0.522849
0.0423192
0.383732
0.0521683
0.279824
0.203349
0.058945
-0.455218
106.262
-0.408386
80.2812
-0.370665
60.6753
-0.340275
45.7715
-0.315624
34.5111
-0.294611
25.9903
-0.275409
19.5845
-0.257062
14.7934
-0.239891
11.2439
-0.227773
8.63029
-0.213103
6.57272
-0.195805
5.02014
-0.157666
3.70326
-0.13149
2.86286
-0.100229
2.16623
-0.0667224
1.64326
-0.0355937
1.2385
-0.00884237
0.926274
0.0129876
0.686538
0.02946
0.506381
0.0415103
0.371678
0.0499752
0.271366
0.197508
0.0558228
-0.428254
106.194
-0.376039
80.2289
-0.337421
60.6366
-0.308242
45.7424
-0.285685
34.4886
-0.267087
25.9717
-0.250319
19.5677
-0.234284
14.7773
-0.219257
11.2288
-0.208663
8.6197
-0.195694
6.55976
-0.179116
5.00358
-0.143319
3.66748
-0.118738
2.83829
-0.089617
2.13712
-0.0584045
1.61205
-0.0299016
1.20999
-0.00621047
0.902598
0.0127961
0.667544
0.0268401
0.49233
0.0367378
0.361796
0.0433813
0.264706
0.192907
0.0480025
-0.340586
106.14
-0.299336
80.1877
-0.268861
60.6062
-0.245863
45.7194
-0.228117
34.4708
-0.213502
25.9571
-0.200269
19.5545
-0.187549
14.7646
-0.17568
11.217
-0.166962
8.611
-0.156877
6.54969
-0.142725
4.98944
-0.114481
3.63926
-0.0927954
2.81663
-0.068915
2.11326
-0.0446396
1.58779
-0.0230498
1.18841
-0.00546629
0.885033
0.00853856
0.653552
0.0189971
0.481882
0.0264123
0.354371
0.0312735
0.259854
0.189697
0.034475
-0.270839
106.097
-0.238241
80.1551
-0.214181
60.5821
-0.196048
45.7012
-0.182086
34.4569
-0.170607
25.9456
-0.160185
19.5441
-0.15012
14.7546
-0.140731
11.2076
-0.133567
8.60384
-0.125834
6.54197
-0.113934
4.97754
-0.0916754
3.61701
-0.0724716
2.79743
-0.0528728
2.09367
-0.0341809
1.56911
-0.0180765
1.17231
-0.00504648
0.872016
0.00529967
0.643215
0.0132628
0.473923
0.0190932
0.348547
0.0228411
0.256101
0.187465
0.025077
-0.21533
106.063
-0.189537
80.1293
-0.170517
60.5631
-0.156201
45.6869
-0.145203
34.4459
-0.136183
25.9366
-0.127984
19.5358
-0.120029
14.7466
-0.1126
11.2001
-0.106752
8.598
-0.100939
6.53616
-0.0910509
4.96767
-0.0733017
3.59928
-0.0564464
2.7806
-0.040427
2.07767
-0.0261539
1.55485
-0.0143318
1.16049
-0.00474636
0.862449
0.00286344
0.635618
0.00898701
0.46781
0.0136063
0.343926
0.0166282
0.253082
0.185833
0.0182613
-0.171166
106.037
-0.150737
80.1088
-0.135684
60.548
-0.12437
45.6756
-0.115698
34.4372
-0.108607
25.9295
-0.102161
19.5294
-0.0958821
14.7404
-0.0900052
11.1943
-0.0852701
8.59328
-0.0809813
6.53188
-0.0728767
4.95957
-0.0585127
3.58492
-0.0438711
2.76596
-0.0308341
2.06464
-0.020064
1.54408
-0.0115143
1.15194
-0.00452477
0.855469
0.00107623
0.630022
0.00580438
0.463086
0.00943542
0.340301
0.0119443
0.250572
0.184529
0.01325
-0.135984
106.015
-0.119748
80.0926
-0.107791
60.5361
-0.0988142
45.6666
-0.0919512
34.4304
-0.0863604
25.9239
-0.0812883
19.5243
-0.0763346
14.7354
-0.0716892
11.1896
-0.067889
8.58949
-0.0647659
6.52877
-0.0582278
4.95305
-0.046506
3.57322
-0.0339414
2.75342
-0.0233833
2.0541
-0.0153845
1.5361
-0.00931773
1.14588
-0.0042933
0.850463
-0.000172477
0.625913
0.00344491
0.45948
0.00625263
0.337494
0.00834777
0.24848
0.183387
0.00948964
-0.108269
105.999
-0.0955455
80.0799
-0.0861868
60.5267
-0.0791736
45.6596
-0.0738262
34.425
-0.0694811
25.9196
-0.0655326
19.5204
-0.0616461
14.7315
-0.0579775
11.1859
-0.0549437
8.58646
-0.0526687
6.5265
-0.0474035
4.94778
-0.0376314
3.56345
-0.0268174
2.7426
-0.0181486
2.04543
-0.0120815
1.53004
-0.00768349
1.14147
-0.00399099
0.846779
-0.00085739
0.622783
0.00196365
0.456662
0.00416912
0.335295
0.00590504
0.246743
0.182367
0.00692726
-0.0857808
105.985
-0.0754902
80.0696
-0.0679182
60.5191
-0.0622472
45.6539
-0.0579338
34.4207
-0.0544505
25.9161
-0.0513123
19.5172
-0.0482392
14.7285
-0.0453424
11.183
-0.0429446
8.58407
-0.0413268
6.52489
-0.0372089
4.94368
-0.0292248
3.55548
-0.0202878
2.73369
-0.0134447
2.03861
-0.00908111
1.52569
-0.00609148
1.13849
-0.00350831
0.844213
-0.0012147
0.620499
0.000880102
0.454578
0.00256303
0.333612
0.00394752
0.245363
0.181371
0.00494318
-0.0747632
105.97
-0.0626126
80.0574
-0.0534625
60.51
-0.0465063
45.647
-0.0411816
34.4154
-0.0369239
25.9119
-0.0331708
19.5135
-0.029499
14.7248
-0.0258661
11.1794
-0.0228657
8.58107
-0.0208653
6.5229
-0.0169551
4.93977
-0.00825244
3.54678
0.00173187
2.7237
0.00846662
2.03187
0.0124377
1.52172
0.0151264
1.13579
0.0174693
0.841876
0.0195263
0.618442
0.0214392
0.452666
0.0230712
0.331987
0.0244989
0.243934
0.180383
0.0254891
-0.0784976
105.953
-0.0657475
80.0447
-0.0561489
60.5004
-0.0488594
45.6397
-0.0432912
34.4098
-0.0388549
25.9074
-0.034958
19.5096
-0.0311391
14.721
-0.0273317
11.1756
-0.0242361
8.57799
-0.0222923
6.52096
-0.0181159
4.9356
-0.00870948
3.5374
0.00222125
2.71279
0.00957643
2.02454
0.0137928
1.51752
0.0164205
1.13317
0.0186185
0.839695
0.0206431
0.616426
0.0224866
0.450833
0.0241062
0.330367
0.0254781
0.242568
0.179342
0.0265193
-0.0824187
105.936
-0.0690392
80.0313
-0.0589698
60.4903
-0.0513305
45.632
-0.0455073
34.404
-0.0408845
25.9028
-0.0368383
19.5055
-0.0328667
14.717
-0.0288812
11.1716
-0.0256946
8.57481
-0.0238219
6.51909
-0.0193417
4.93112
-0.00915026
3.52721
0.00278845
2.70085
0.010832
2.01649
0.0153112
1.51304
0.017855
1.13062
0.0198786
0.837675
0.0218156
0.614487
0.0235309
0.449119
0.0250789
0.328826
0.0263111
0.241335
0.178328
0.0273281
-0.0865359
105.918
-0.0724954
80.0173
-0.0619318
60.4797
-0.0539256
45.624
-0.0478352
34.3979
-0.0430176
25.898
-0.0388161
19.5013
-0.0346864
14.7129
-0.0305187
11.1674
-0.0272464
8.57154
-0.0254617
6.51732
-0.0206401
4.92631
-0.00957748
3.51616
0.00343135
2.68787
0.0122361
2.00771
0.0169817
1.50832
0.0194071
1.1282
0.0212157
0.835883
0.0229589
0.61275
0.0244936
0.447594
0.025864
0.327455
0.0268862
0.240318
0.177467
0.0277476
-0.0908586
105.899
-0.0761247
80.0025
-0.0650423
60.4686
-0.056651
45.6156
-0.0502804
34.3915
-0.0452594
25.893
-0.0408965
19.497
-0.0366031
14.7086
-0.0322493
11.1631
-0.0288978
8.5682
-0.027221
6.51564
-0.0220233
4.92112
-0.00999636
3.50414
0.00413961
2.67373
0.0137792
1.99807
0.0188018
1.50329
0.0210739
1.12592
0.0226269
0.834332
0.0240715
0.611301
0.0253593
0.446306
0.0264346
0.326388
0.0271829
0.239569
0.176852
0.0278009
-0.0953979
105.879
-0.0799357
79.9871
-0.0683087
60.457
-0.0595132
45.6068
-0.052849
34.3849
-0.0476154
25.8877
-0.0430847
19.4924
-0.0386218
14.7042
-0.0340787
11.1585
-0.0306563
8.56478
-0.0291098
6.51411
-0.0234998
4.91552
-0.0104064
3.49107
0.00490811
2.65844
0.0154523
1.98754
0.0207698
1.49799
0.0228632
1.12384
0.02412
0.83309
0.025197
0.610229
0.0261554
0.445359
0.0268625
0.32568
0.027299
0.239139
0.1765
0.0276523
-0.100164
105.858
-0.0839374
79.9708
-0.0717388
60.4448
-0.0625191
45.5976
-0.0555471
34.3779
-0.0500914
25.8823
-0.0453862
19.4877
-0.040748
14.6995
-0.0360128
11.1538
-0.0325299
8.5613
-0.0311367
6.51272
-0.0250723
4.90945
-0.0107914
3.47679
0.00574791
2.6419
0.0172541
1.97603
0.0228926
1.49235
0.024802
1.12193
0.0256936
0.832198
0.0263522
0.609565
0.0269076
0.444804
0.0272528
0.325343
0.0273879
0.239003
0.176395
0.0274961
-0.105168
105.836
-0.0881394
79.9538
-0.0753405
60.432
-0.0656759
45.5879
-0.0583813
34.3706
-0.0526933
25.8766
-0.0478068
19.4828
-0.0429872
14.6947
-0.0380575
11.1488
-0.0345264
8.55778
-0.0333099
6.51151
-0.0267412
4.9029
-0.0111636
3.46123
0.006651
2.6241
0.01918
1.96353
0.0251781
1.48637
0.0269129
1.12021
0.0273461
0.831779
0.0275352
0.609381
0.0276452
0.444705
0.0276658
0.325321
0.0275586
0.239117
0.176484
0.0274714
-0.110423
105.813
-0.0925519
79.9359
-0.0791229
60.4185
-0.0689912
45.5778
-0.0613582
34.363
-0.0554274
25.8707
-0.0503523
19.4778
-0.045345
14.6897
-0.0402188
11.1437
-0.0366538
8.55422
-0.0356375
6.51049
-0.0285066
4.89576
-0.0116232
3.44435
0.0075394
2.60494
0.0212114
1.94985
0.0276307
1.47995
0.0292117
1.11862
0.0291164
0.831872
0.0287884
0.609702
0.0284368
0.445057
0.0281549
0.325613
0.0278659
0.239405
0.176706
0.0276457
-0.11594
105.789
-0.0971851
79.9172
-0.0830947
60.4045
-0.0724729
45.5672
-0.0644852
34.355
-0.0583005
25.8645
-0.0530289
19.4725
-0.0478272
14.6845
-0.042503
11.1384
-0.03892
8.55065
-0.0381303
6.50972
-0.0303654
4.88801
-0.0121033
3.42611
0.00846409
2.58439
0.0233314
1.93501
0.0302583
1.47304
0.0317424
1.11715
0.0310932
0.832535
0.0301896
0.610612
0.0293759
0.445883
0.0287954
0.326192
0.0283631
0.239844
0.177015
0.0280567
-0.121734
105.764
-0.10205
79.8975
-0.0872658
60.3897
-0.0761294
45.556
-0.0677696
34.3466
-0.0613193
25.858
-0.0558431
19.467
-0.05044
14.6791
-0.0449165
11.1329
-0.0413333
8.54707
-0.0407967
6.50918
-0.032309
4.87952
-0.0123086
3.4061
0.00965622
2.56243
0.0255483
1.91911
0.0330703
1.46551
0.0345396
1.11567
0.0333582
0.833713
0.031832
0.612132
0.0305542
0.44716
0.0296727
0.327084
0.0290934
0.240423
0.17739
0.0287202
-0.127817
105.737
-0.107159
79.8768
-0.0916456
60.3742
-0.0799694
45.5443
-0.0712194
34.3379
-0.0644912
25.8513
-0.0588017
19.4613
-0.0531897
14.6735
-0.0474662
11.1271
-0.0439019
8.54352
-0.0436358
6.50893
-0.0343291
4.87023
-0.0123426
3.38414
0.0110311
2.53908
0.0278492
1.90231
0.0360537
1.45733
0.0375789
1.11416
0.0359306
0.835373
0.0337888
0.61428
0.0320575
0.448904
0.030854
0.328285
0.030092
0.241192
0.177854
0.0296305
-0.134205
105.709
-0.112524
79.8551
-0.0962452
60.3579
-0.0840022
45.5321
-0.0748429
34.3287
-0.0678237
25.8443
-0.0619118
19.4554
-0.0560829
14.6677
-0.0501593
11.1212
-0.0466348
8.53999
-0.0466455
6.50893
-0.0364222
4.86001
-0.0126504
3.36037
0.0122252
2.5142
0.0301853
1.88435
0.0392132
1.44829
0.0408699
1.1125
0.038819
0.837419
0.0360932
0.617001
0.0339232
0.451072
0.0323845
0.329834
0.0313947
0.24218
0.178461
0.0307893
-0.140912
105.68
-0.118157
79.8324
-0.101075
60.3408
-0.0882375
45.5192
-0.0786488
34.3191
-0.071325
25.8369
-0.0651808
19.4493
-0.0591265
14.6616
-0.0530033
11.1151
-0.0495413
8.53654
-0.0498312
6.50924
-0.0385841
4.84877
-0.013257
3.33506
0.0131952
2.48777
0.0325437
1.86502
0.0426043
1.43825
0.0444919
1.11062
0.0420884
0.839834
0.038789
0.620306
0.0361638
0.45371
0.0342671
0.331728
0.0330266
0.243427