/*--------------------------------*- C++ -*----------------------------------*\
  =========                 |
  \\      /  F ield         | OpenFOAM: The Open Source CFD Toolbox
   \\    /   O peration     | Website:  https://openfoam.org
    \\  /    A nd           | Version:  7
     \\/     M anipulation  |
\*---------------------------------------------------------------------------*/
FoamFile
{
    version     2.0;
    format      ascii;
    class       volScalarField;
    location    "100";
    object      yPlus;
}
// * * * * * * * * * * * * * * * * * * * * * * * * * * * * * * * * * * * * * //

dimensions      [0 0 0 0 0 0 0];

internalField   uniform 0;

boundaryField
{
    inlet
    {
        type            calculated;
        value           uniform 0;
    }
    outlet
    {
        type            calculated;
        value           uniform 0;
    }
    suction_side
    {
        type            calculated;
        value           nonuniform List<scalar> 
56
(
30.8431
34.3712
37.7273
41.3477
44.7331
48.4322
52.3514
55.8845
58.8488
55.0116
31.4884
31.6579
37.5453
39.9289
40.3817
43.5377
44.9261
47.3408
47.046
45.3558
41.7273
37.426
31.8892
26.6546
23.8005
21.9712
23.9734
25.6441
26.8264
28.1893
32.8909
35.4247
24.3442
23.856
29.9829
33.5262
35.2692
36.0301
35.7121
34.8717
33.7107
32.3539
30.8776
29.347
27.767
26.1494
24.6533
23.4592
22.1483
19.9541
17.7867
17.6934
21.7713
12.8324
15.8606
16.4135
)
;
    }
    pressure_side
    {
        type            calculated;
        value           nonuniform List<scalar> 
56
(
39.2575
38.9579
37.8451
38.0269
37.2423
37.1454
36.7517
36.5371
36.3747
36.2716
36.1814
36.1096
36.0398
35.9774
35.9111
35.8458
35.779
35.7103
35.6329
35.5339
35.4073
35.2446
35.0671
34.9024
34.7963
34.7668
34.8453
34.9924
35.1489
35.2725
35.2669
34.9942
34.4146
33.0929
31.4917
29.3059
26.1044
22.5514
18.4111
14.0129
10.8283
6.61353
4.93817
5.79156
6.49474
7.44421
8.13369
8.60362
9.70056
10.6842
10.2897
10.4547
12.7927
17.0254
21.8906
26.6748
)
;
    }
    trailing_edge
    {
        type            calculated;
        value           nonuniform List<scalar> 2(136.932 74.0707);
    }
    defaultFaces
    {
        type            empty;
    }
}


// ************************************************************************* //
