/*--------------------------------*- C++ -*----------------------------------*\
  =========                 |
  \\      /  F ield         | OpenFOAM: The Open Source CFD Toolbox
   \\    /   O peration     | Website:  https://openfoam.org
    \\  /    A nd           | Version:  7
     \\/     M anipulation  |
\*---------------------------------------------------------------------------*/
FoamFile
{
    version     2.0;
    format      ascii;
    class       volScalarField;
    location    "75";
    object      k;
}
// * * * * * * * * * * * * * * * * * * * * * * * * * * * * * * * * * * * * * //

dimensions      [0 2 -2 0 0 0 0];

internalField   nonuniform List<scalar> 
17475
(
0.00763367
0.0124983
0.0125514
0.0125508
0.0125506
0.0125505
0.0125505
0.0125505
0.0125504
0.0125502
0.0125503
0.0125506
0.0125503
0.0125503
0.0125505
0.0125503
0.0125503
0.0125504
0.0125503
0.0125502
0.0125508
0.0125509
0.0125495
0.0125515
0.0125469
0.0125587
0.0125588
0.012559
0.0125591
0.0125588
0.0125587
0.0125586
0.0125586
0.0125586
0.0125585
0.0125584
0.0125583
0.0125581
0.0125585
0.0125628
0.0125695
0.012576
0.0125821
0.0125878
0.0125928
0.0125975
0.0126017
0.0126057
0.0126092
0.0126126
0.0126156
0.0126185
0.0126207
0.01261
0.0120188
0.000246132
0.00440842
0.00528567
0.00530444
0.00529499
0.00529065
0.0052886
0.00528731
0.00528658
0.00528605
0.00528573
0.00528544
0.00528523
0.00528508
0.0052849
0.00528479
0.00528466
0.00528454
0.00528441
0.00528433
0.00528425
0.00528415
0.00528514
0.00528287
0.0052868
0.00529071
0.00529361
0.00529374
0.00529376
0.00529331
0.00529313
0.00529309
0.00529308
0.00529307
0.00529308
0.00529303
0.00529301
0.00529276
0.00529182
0.00529271
0.00529458
0.00529673
0.005299
0.00530119
0.00530335
0.00530542
0.00530751
0.00530965
0.00531205
0.00531489
0.00531873
0.00532407
0.00532131
0.00502945
0.00162959
3.09168e-05
0.00184636
0.00307706
0.00319507
0.0031863
0.00317738
0.00317238
0.00316939
0.00316756
0.00316627
0.00316537
0.00316471
0.00316421
0.00316377
0.00316341
0.0031631
0.0031628
0.00316253
0.00316228
0.00316203
0.00316177
0.00316206
0.00316165
0.00316321
0.00316425
0.00316568
0.00316757
0.0031684
0.0031684
0.00316824
0.00316805
0.00316811
0.00316823
0.00316836
0.0031685
0.00316865
0.00316879
0.0031685
0.00316816
0.00316846
0.00316906
0.00316984
0.00317079
0.00317189
0.00317313
0.00317454
0.00317624
0.00317844
0.00318146
0.00318595
0.00319293
0.00320135
0.00315737
0.00249674
0.000283299
9.86035e-06
0.000848579
0.00201165
0.00223577
0.00224413
0.00223403
0.00222721
0.00222291
0.00222007
0.0022181
0.00221672
0.00221568
0.00221484
0.00221415
0.00221357
0.00221305
0.00221257
0.00221212
0.0022117
0.00221128
0.00221115
0.00221077
0.00221145
0.00221218
0.00221292
0.00221349
0.00221417
0.00221493
0.00221519
0.00221523
0.00221506
0.0022152
0.00221545
0.00221573
0.00221601
0.00221634
0.00221663
0.00221653
0.00221655
0.002217
0.00221752
0.00221817
0.00221898
0.00221999
0.00222124
0.00222281
0.00222485
0.00222766
0.00223173
0.00223789
0.00224703
0.00224982
0.00213825
0.00133318
8.90482e-05
4.4648e-06
0.00043948
0.00138524
0.0016858
0.00171887
0.00171186
0.00170431
0.0016992
0.00169569
0.00169322
0.00169143
0.00169006
0.00168896
0.00168803
0.00168723
0.00168652
0.00168587
0.00168524
0.00168462
0.00168422
0.00168366
0.00168383
0.00168402
0.00168424
0.00168452
0.00168487
0.00168518
0.00168549
0.00168584
0.00168598
0.00168595
0.00168619
0.00168656
0.00168696
0.00168739
0.00168788
0.00168826
0.00168832
0.00168878
0.0016894
0.00169005
0.00169081
0.00169173
0.00169287
0.00169432
0.00169618
0.00169861
0.00170198
0.00170683
0.00171392
0.00172256
0.00171129
0.0015374
0.000771483
4.18876e-05
2.4437e-06
0.000256104
0.000986435
0.00132558
0.00138423
0.0013832
0.00137591
0.00137042
0.00136649
0.00136365
0.00136158
0.00135997
0.00135865
0.00135753
0.00135654
0.00135565
0.00135484
0.00135402
0.00135336
0.00135261
0.00135238
0.0013522
0.00135203
0.00135192
0.00135187
0.00135194
0.00135203
0.0013522
0.00135242
0.00135272
0.00135283
0.00135318
0.00135365
0.00135418
0.00135476
0.00135542
0.00135584
0.00135624
0.00135696
0.00135773
0.00135855
0.00135946
0.00136052
0.00136182
0.00136349
0.00136563
0.00136838
0.00137211
0.00137738
0.0013845
0.00138998
0.00136158
0.00114419
0.000485072
2.44133e-05
1.51552e-06
0.000164691
0.000723805
0.00106971
0.00115112
0.00115756
0.00115167
0.00114616
0.00114202
0.00113895
0.00113669
0.00113491
0.00113341
0.00113213
0.00113099
0.00112994
0.00112898
0.00112809
0.00112713
0.0011265
0.00112602
0.00112559
0.00112514
0.00112477
0.00112447
0.00112433
0.00112421
0.00112425
0.00112445
0.00112485
0.00112514
0.00112555
0.00112614
0.00112682
0.00112754
0.00112835
0.00112891
0.00112961
0.00113052
0.00113146
0.00113243
0.00113348
0.00113469
0.00113615
0.00113798
0.00114035
0.00114332
0.00114715
0.00115241
0.00115903
0.00115992
0.00111463
0.000874192
0.000329428
1.60205e-05
1.02827e-06
0.000114516
0.000546964
0.000878889
0.000978741
0.000993052
0.000989339
0.000984118
0.000979978
0.000976852
0.000974462
0.000972561
0.000970883
0.000969414
0.000968187
0.000966993
0.000965896
0.000964759
0.000963842
0.000962992
0.000962265
0.0009616
0.00096091
0.000960265
0.000959741
0.000959454
0.000959178
0.000959108
0.000959276
0.000959725
0.000960194
0.000960684
0.000961408
0.000962268
0.000963188
0.000964092
0.000964862
0.00096585
0.000966954
0.000968039
0.000969167
0.000970347
0.000971702
0.000973292
0.00097525
0.000977718
0.00098066
0.000984516
0.000989704
0.000995118
0.000990658
0.000930686
0.00068392
0.000237463
1.12272e-05
7.44764e-07
8.42489e-05
0.000425193
0.000732403
0.000846057
0.000868022
0.00086707
0.000862399
0.000858358
0.000855201
0.000852803
0.000850834
0.000848978
0.000847321
0.000846047
0.000844682
0.000843291
0.000842186
0.00084099
0.000839833
0.000838837
0.000837928
0.000836939
0.000836017
0.000835367
0.000834914
0.000834438
0.000834253
0.000834409
0.000834988
0.000835614
0.000836251
0.00083712
0.000838199
0.000839302
0.000840327
0.000841408
0.00084264
0.000843862
0.000845084
0.000846398
0.000847652
0.000849065
0.000850753
0.000852723
0.000855203
0.000858219
0.000861989
0.000866846
0.00087053
0.000860576
0.000788271
0.000546459
0.000179793
8.3719e-06
5.66178e-07
6.46758e-05
0.000339332
0.000618083
0.000740991
0.000770022
0.000772196
0.000768475
0.000764454
0.000761228
0.000758944
0.000756929
0.000754986
0.000753186
0.000751882
0.00075034
0.000748835
0.000747503
0.00074588
0.000744345
0.000743083
0.000741993
0.000740719
0.000739486
0.000738601
0.000737876
0.000737124
0.000736853
0.0007371
0.000737825
0.000738618
0.000739432
0.000740439
0.000741755
0.000743024
0.00074432
0.000745769
0.000747147
0.000748348
0.000749722
0.000751225
0.000752515
0.000753917
0.000755566
0.000757522
0.000760167
0.000763256
0.000766717
0.000770996
0.000772919
0.000757881
0.000676689
0.000447173
0.000141783
6.54649e-06
4.46286e-07
5.1329e-05
0.000277344
0.000527847
0.000655858
0.000691323
0.000696597
0.000694041
0.000690082
0.000686724
0.000684554
0.000682763
0.000680961
0.000678976
0.000677542
0.000676064
0.000674367
0.000672844
0.000670857
0.000668847
0.000667216
0.000665912
0.00066443
0.00066301
0.000661844
0.000660796
0.000659653
0.00065929
0.000659636
0.000660425
0.000661341
0.000662373
0.000663665
0.000665309
0.000666657
0.000668378
0.000669964
0.000671389
0.000672598
0.00067409
0.000675595
0.000676922
0.000678266
0.000679811
0.000682074
0.00068487
0.000688025
0.000691116
0.000694695
0.000694577
0.000675063
0.000587648
0.000373592
0.000115297
5.29914e-06
3.62248e-07
4.18691e-05
0.000231551
0.000455994
0.00058565
0.000627014
0.000635001
0.000633496
0.000629716
0.00062643
0.000624527
0.000623152
0.000621412
0.000619178
0.000617627
0.00061614
0.000614146
0.000612454
0.000610113
0.00060781
0.000606026
0.000604312
0.000602509
0.000600982
0.0005997
0.000598304
0.000596913
0.000596391
0.000596621
0.00059755
0.00059862
0.000599957
0.000601537
0.000603438
0.000605036
0.000607
0.000608845
0.000610233
0.000611358
0.000612981
0.000614599
0.000615776
0.000616827
0.000618602
0.000621339
0.000624292
0.000627494
0.000630084
0.000632646
0.000630741
0.000607129
0.000515698
0.000318017
9.61547e-05
4.41322e-06
3.01376e-07
3.49746e-05
0.000196966
0.000398276
0.000526853
0.000573452
0.000583769
0.000583603
0.000579853
0.000576267
0.000574785
0.000574342
0.000572533
0.000570187
0.000568598
0.000566776
0.000564572
0.000562731
0.000560192
0.000557916
0.000556091
0.00055379
0.000551419
0.00055021
0.000549277
0.000547203
0.000545443
0.000545128
0.000545624
0.000546371
0.000547373
0.000549143
0.000550921
0.000552898
0.000554822
0.000556882
0.000558986
0.000560486
0.000561487
0.000562509
0.000564121
0.000565474
0.000566746
0.000568441
0.000571165
0.000574762
0.000577882
0.000579867
0.000581663
0.0005781
0.000550637
0.000456808
0.000275055
8.18467e-05
3.76402e-06
2.5554e-07
2.97525e-05
0.00017024
0.000351435
0.000477639
0.000527672
0.00053992
0.000540911
0.000537373
0.000534517
0.00053325
0.000532793
0.000531113
0.000528944
0.000527273
0.000525043
0.000522713
0.000520384
0.000517726
0.000515207
0.000513088
0.000510744
0.000508425
0.000507256
0.000506759
0.000504877
0.000502761
0.000501882
0.000502278
0.000503365
0.000504898
0.000506521
0.00050832
0.000510267
0.000512251
0.000514343
0.000516489
0.000517929
0.000519102
0.00052036
0.000521865
0.000523364
0.000524723
0.000526161
0.00052882
0.00053271
0.000535431
0.000537328
0.000538169
0.000532829
0.000502377
0.000407875
0.000240692
7.05693e-05
3.23546e-06
2.20078e-07
2.56904e-05
0.000149074
0.000312814
0.000433347
0.000485894
0.000500341
0.000502031
0.000499122
0.000496388
0.000495436
0.00049505
0.000493496
0.00049149
0.000489655
0.00048737
0.000484876
0.000482263
0.000479483
0.000476893
0.000474573
0.000472467
0.00047074
0.000470135
0.000471065
0.000471045
0.000469269
0.000468531
0.000468667
0.00046935
0.000470541
0.000470034
0.000470896
0.00047261
0.000474229
0.000476197
0.000478208
0.000479871
0.000481358
0.000482652
0.000484138
0.000485684
0.000487086
0.000488566
0.000491003
0.000494542
0.000497146
0.000498798
0.000498938
0.000491757
0.000458842
0.000366276
0.000213189
6.16884e-05
2.81092e-06
1.92033e-07
2.24817e-05
0.000131925
0.000280331
0.000394205
0.000448154
0.000464292
0.000466754
0.000464403
0.00046203
0.000461225
0.000460779
0.000459316
0.000457416
0.000455496
0.000453266
0.000450757
0.000447965
0.000445188
0.000442762
0.000440579
0.000439442
0.000439608
0.000441247
0.000446948
0.000459987
0.00046855
0.000473068
0.000471989
0.000465304
0.00045411
0.000441964
0.000440929
0.000440175
0.00044076
0.000442345
0.000444045
0.000445723
0.000447327
0.000448626
0.00044997
0.000451521
0.000452953
0.00045435
0.000456569
0.000459806
0.000462293
0.000463669
0.000463074
0.000454424
0.000419582
0.000330031
0.000190397
5.4406e-05
2.46524e-06
1.67554e-07
1.979e-05
0.00011762
0.000252375
0.00035935
0.000413749
0.000431333
0.000434545
0.000432728
0.000430707
0.000429978
0.000429442
0.000428053
0.000426263
0.000424338
0.000422244
0.000419792
0.000416915
0.000414316
0.000412328
0.000411082
0.000412024
0.000415896
0.000432215
0.000467532
0.000477995
0.000438137
0.000396105
0.000397845
0.00047097
0.000483408
0.000448165
0.000421827
0.000413984
0.000412083
0.0004123
0.000413446
0.000414878
0.000416512
0.000417802
0.000418892
0.000420341
0.000421757
0.000423137
0.000425169
0.000428088
0.000430427
0.000431599
0.00043038
0.000420479
0.000384454
0.000298875
0.000171404
4.84265e-05
2.18281e-06
1.31308e-07
1.70471e-05
0.00010422
0.000227419
0.000327562
0.000382107
0.000401019
0.000404993
0.000403669
0.000401934
0.000401234
0.000400618
0.000399287
0.00039763
0.000395788
0.000393896
0.000391518
0.000388699
0.000386428
0.000384946
0.000385125
0.000390011
0.000407254
0.000438091
0.000374051
0.00012021
2.20077e-06
1.22479e-05
0.000314892
0.000435281
0.000430869
0.000396249
0.000387346
0.000385502
0.000385751
0.000386865
0.000388471
0.0003897
0.000390625
0.000391948
0.000393251
0.000394562
0.000396403
0.000399016
0.000401192
0.00040215
0.000400369
0.000389437
0.000352653
0.000271635
0.000155011
4.3263e-05
1.93944e-06
4.84958e-08
1.20524e-05
8.83392e-05
0.000202208
0.000296483
0.000352297
0.000372838
0.000377711
0.00037689
0.00037537
0.000374663
0.000373973
0.000372694
0.000371186
0.000369508
0.00036782
0.000365388
0.000362696
0.000360718
0.000359973
0.000362089
0.000374003
0.000397766
0.000327373
8.9135e-05
4.04404e-07
0.000193958
0.000403076
0.000386746
0.00036616
0.000361175
0.000360564
0.000361206
0.000362666
0.000363886
0.000364589
0.000365768
0.000366935
0.00036813
0.000369772
0.00037211
0.000374141
0.000374933
0.000372699
0.000360992
0.000323648
0.000247649
0.000140806
3.82936e-05
1.5996e-06
6.48773e-08
1.27097e-05
8.2029e-05
0.00018501
0.000272288
0.000324282
0.000345247
0.000350742
0.000350429
0.000349015
0.000348011
0.000347281
0.000346154
0.00034453
0.000342985
0.000341122
0.000338892
0.00033658
0.000334702
0.000334566
0.000339134
0.000356019
0.000344353
0.000151305
1.02301e-05
5.18895e-05
0.000286421
0.000362085
0.000344706
0.000336028
0.000334393
0.000335234
0.000336498
0.000337709
0.000338404
0.000339437
0.000340629
0.000341783
0.000343323
0.000345437
0.000347319
0.000347944
0.000345263
0.000332745
0.000296865
0.000225532
0.000128316
3.6316e-05
1.76673e-06
9.25973e-08
1.23906e-05
7.74395e-05
0.000171261
0.000250228
0.000298781
0.000319351
0.000324988
0.000324779
0.000323522
0.000322661
0.00032173
0.00032072
0.000319271
0.000317687
0.000315785
0.000313849
0.000311741
0.000309887
0.000310064
0.000316203
0.00032358
0.000261528
7.68669e-05
4.98815e-06
9.02984e-08
3.72465e-07
2.76858e-05
0.000188799
0.000316099
0.000321632
0.000311984
0.000309598
0.000310359
0.000311272
0.000312349
0.000312969
0.000314066
0.000315213
0.000316404
0.000317923
0.000319883
0.000321765
0.000322302
0.000319335
0.000306422
0.000271393
0.000205418
0.000116767
3.27704e-05
1.49037e-06
9.33144e-08
1.12703e-05
7.06839e-05
0.000156421
0.000228607
0.000274529
0.000295028
0.000301076
0.000301126
0.000300028
0.000299246
0.000298189
0.000297162
0.000295863
0.000294336
0.000292462
0.000290665
0.000288868
0.000287108
0.0002875
0.000293331
0.000286983
0.000197144
5.21461e-05
7.27935e-06
1.40518e-06
6.03415e-07
5.8804e-07
5.13643e-07
4.87521e-07
2.36534e-06
2.43794e-05
0.000134641
0.000265917
0.000294236
0.000288797
0.000286262
0.000287128
0.00028791
0.000288846
0.000289447
0.000290597
0.000291841
0.000293084
0.000294605
0.000296509
0.000298272
0.000298616
0.000295347
0.000282149
0.000248213
0.000187199
0.000106309
2.94597e-05
1.31309e-06
8.53579e-08
1.01654e-05
6.4048e-05
0.000142551
0.000208694
0.000252139
0.000272594
0.000279033
0.00027942
0.000278427
0.000277617
0.000276621
0.000275572
0.000274315
0.00027278
0.000270934
0.000269357
0.0002678
0.000266206
0.00026664
0.000270181
0.000252009
0.00015655
4.41297e-05
9.36519e-06
3.84445e-06
4.57615e-06
5.29297e-06
4.38036e-06
3.132e-06
6.44344e-06
2.70008e-05
0.00010737
0.000223504
0.000266507
0.000266826
0.000264712
0.000265603
0.000266501
0.000267375
0.00026792
0.000268988
0.000270281
0.000271661
0.000273213
0.000275068
0.000276682
0.000276837
0.000273284
0.000259859
0.000227128
0.000170789
9.67923e-05
2.6472e-05
1.169e-06
7.68088e-08
9.14498e-06
5.80068e-05
0.000129917
0.000190584
0.000231564
0.000251847
0.000258652
0.000259394
0.00025849
0.000257665
0.000256754
0.000255713
0.000254454
0.000252885
0.000251082
0.000249648
0.000248284
0.000246831
0.000247161
0.000248159
0.000222808
0.000133466
4.32045e-05
9.7339e-06
5.75536e-06
7.68681e-06
9.18333e-06
9.02807e-06
8.93628e-06
1.44544e-05
3.28702e-05
9.4048e-05
0.000189904
0.000240083
0.000246055
0.000244989
0.000245875
0.000246868
0.000247694
0.000248222
0.000249239
0.000250563
0.000251982
0.00025358
0.0002554
0.000256841
0.000256742
0.000252872
0.00023935
0.000207974
0.000155995
8.81621e-05
2.38223e-05
1.04583e-06
6.88721e-08
8.21394e-06
5.25364e-05
0.000118451
0.000174123
0.000212631
0.000232635
0.000239724
0.000240811
0.000240036
0.000239214
0.000238372
0.000237329
0.000236072
0.000234466
0.000232715
0.000231358
0.00023014
0.000228773
0.000228792
0.000227682
0.000200613
0.000122099
4.787e-05
1.1822e-05
7.00281e-06
9.74592e-06
1.34954e-05
1.63501e-05
1.92501e-05
2.55234e-05
4.01046e-05
8.74728e-05
0.000164767
0.000215911
0.000226707
0.000226898
0.000227804
0.000228836
0.000229604
0.000230094
0.000231036
0.000232426
0.000233875
0.00023552
0.000237282
0.000238532
0.000238183
0.000233999
0.000220423
0.000190435
0.000142478
8.01922e-05
2.13971e-05
9.34557e-07
6.16464e-08
7.36753e-06
4.75331e-05
0.000107923
0.000159018
0.000195067
0.000214606
0.000221986
0.000223473
0.000222864
0.000222076
0.000221242
0.000220176
0.00021894
0.000217329
0.000215574
0.00021429
0.000213205
0.000211869
0.000211453
0.000208871
0.00018325
0.000116916
5.56103e-05
1.9565e-05
8.66594e-06
1.05124e-05
1.54576e-05
2.23396e-05
3.05068e-05
3.80325e-05
5.05855e-05
8.80835e-05
0.00014666
0.000195115
0.00020883
0.000210197
0.000211158
0.000212103
0.000212885
0.000213334
0.000214171
0.000215699
0.000217084
0.000218797
0.000220462
0.000221535
0.000220927
0.000216464
0.000202913
0.000174384
0.000130168
7.28961e-05
1.92016e-05
8.289e-07
5.51233e-08
6.60146e-06
4.2965e-05
9.82654e-05
0.000145137
0.000178731
0.000197253
0.00020526
0.000207172
0.000206677
0.000205331
0.000205003
0.000203958
0.000202866
0.000201219
0.000199233
0.000198134
0.000197308
0.000195968
0.000195068
0.000191457
0.000168274
0.000114234
6.40079e-05
3.14016e-05
1.33995e-05
1.11427e-05
1.60246e-05
2.48671e-05
3.90191e-05
5.44795e-05
7.13956e-05
9.49107e-05
0.000135614
0.000177264
0.000192435
0.00019464
0.00019566
0.000196465
0.000197257
0.000197701
0.000198496
0.000199729
0.000201182
0.00020317
0.00020474
0.000205693
0.000204664
0.000199901
0.000186513
0.000159517
0.000118754
6.60931e-05
1.71476e-05
7.29565e-07
4.92624e-08
5.91182e-06
3.87848e-05
8.93697e-05
0.000132294
0.000163172
0.000181535
0.000189614
0.000191598
0.000191072
0.000190039
0.000189639
0.000188703
0.000187547
0.000186148
0.000184053
0.000182903
0.000182298
0.000180993
0.000179685
0.000175216
0.000154412
0.000111599
7.14124e-05
4.36775e-05
2.40668e-05
1.39811e-05
1.60858e-05
2.54985e-05
4.71349e-05
7.86597e-05
0.000110799
0.000117381
0.000130658
0.000162441
0.000177127
0.00017999
0.000181002
0.000181473
0.000182173
0.000183042
0.000183828
0.000185031
0.000186476
0.000188528
0.000189877
0.000190459
0.000189274
0.000184311
0.000171175
0.000145612
0.000108265
5.98259e-05
1.5302e-05
6.43038e-07
4.40211e-08
5.29227e-06
3.50003e-05
8.11329e-05
0.000120343
0.000149387
0.000167084
0.000175002
0.000177215
0.000176689
0.000176117
0.000175305
0.000174548
0.00017352
0.000172032
0.000170247
0.000168965
0.000168373
0.000167248
0.000165454
0.000160724
0.000141961
0.000108907
7.97806e-05
5.86616e-05
3.96898e-05
2.41868e-05
1.7581e-05
2.23093e-05
4.18554e-05
9.35805e-05
0.000159882
0.000158325
0.000128976
0.000149937
0.000163524
0.000166459
0.000167445
0.000168093
0.000168825
0.000169407
0.000170337
0.000171642
0.000172991
0.00017476
0.000175996
0.000176233
0.00017492
0.000169944
0.000156931
0.000132846
9.85243e-05
5.41436e-05
1.36568e-05
5.67718e-07
3.93739e-08
4.74197e-06
3.16158e-05
7.36923e-05
0.000109506
0.000136505
0.000153612
0.000161703
0.000164073
0.000163956
0.000162937
0.000162356
0.000161579
0.000160623
0.000159254
0.000157801
0.000156672
0.000155969
0.000154722
0.000152939
0.000147748
0.000131106
0.000106394
9.56397e-05
8.29629e-05
6.23178e-05
4.17974e-05
2.78558e-05
2.03898e-05
2.64737e-05
7.33943e-05
0.000202592
0.000209316
0.000126721
0.00013959
0.00015103
0.000154233
0.000155115
0.000155899
0.000156246
0.000157062
0.00015804
0.000159449
0.000161025
0.000162438
0.00016356
0.000163364
0.000162004
0.000157052
0.000144119
0.000121417
8.98055e-05
4.901e-05
1.22013e-05
5.02399e-07
3.52873e-08
4.25635e-06
2.86106e-05
6.73145e-05
0.00010024
0.000125056
0.000141457
0.000149686
0.000152373
0.000152297
0.000151458
0.000150753
0.000150056
0.000148985
0.00014774
0.000146343
0.000145285
0.000144537
0.000143321
0.000141516
0.000136235
0.000122305
0.000109519
0.000120432
0.000121276
9.61908e-05
6.8195e-05
4.78759e-05
3.13355e-05
2.45169e-05
4.34616e-05
0.000172669
0.000193963
0.000122739
0.00012994
0.000140011
0.000143054
0.000143849
0.000144715
0.000145223
0.000145932
0.000146907
0.000148359
0.000149934
0.000151343
0.00015214
0.000152045
0.000150466
0.000145283
0.000132735
0.000111359
8.22063e-05
4.44452e-05
1.09231e-05
4.45774e-07
3.1709e-08
3.83097e-06
2.59698e-05
6.17745e-05
9.21274e-05
0.000115093
0.000130743
0.00013879
0.0001416
0.000141805
0.000141115
0.000140384
0.000139723
0.000138652
0.000137457
0.000135973
0.000134836
0.000133958
0.000132981
0.000131125
0.000126054
0.000114937
0.000115926
0.000157249
0.000171367
0.00013999
9.9944e-05
7.27222e-05
4.97603e-05
3.48346e-05
4.04492e-05
0.000137731
0.000209758
0.000117288
0.000121332
0.000129779
0.000132668
0.000133728
0.000134427
0.000134973
0.000135672
0.000136703
0.000138174
0.000139732
0.000141074
0.00014179
0.000141661
0.000139931
0.000134488
0.000122273
0.000102322
7.55523e-05
4.04831e-05
9.8088e-06
3.97084e-07
2.86124e-08
3.46209e-06
2.36466e-05
5.67806e-05
8.4838e-05
0.000106085
0.000120936
0.000128873
0.000131782
0.000132138
0.000131573
0.000130816
0.000130144
0.000129139
0.000127984
0.000126537
0.000125309
0.000124512
0.000123593
0.000121755
0.00011703
0.000109814
0.000127429
0.000200421
0.000220111
0.000180865
0.000133893
9.61547e-05
6.89877e-05
4.91203e-05
5.27772e-05
0.000149684
0.000161669
0.00011064
0.000113408
0.000120656
0.000123268
0.00012438
0.000125003
0.000125565
0.000126273
0.000127337
0.000128816
0.00013035
0.000131628
0.000132288
0.000132049
0.000130171
0.00012465
0.000112819
9.42432e-05
6.95971e-05
3.69984e-05
8.84364e-06
3.55346e-07
2.59263e-08
3.14169e-06
2.16011e-05
5.23237e-05
7.82739e-05
9.78922e-05
0.00011195
0.000119769
0.000122767
0.000123238
0.000122766
0.000122021
0.00012133
0.000120395
0.000119305
0.000117942
0.000116691
0.00011591
0.000115087
0.000113321
0.000109023
0.000105828
0.000137329
0.000232108
0.000243626
0.00019918
0.00014624
0.000109835
8.17696e-05
6.50496e-05
8.94054e-05
0.00016951
0.000161807
0.000103135
0.000106114
0.000112271
0.000114739
0.000115776
0.000116375
0.000116989
0.000117714
0.000118766
0.000120196
0.000121695
0.000122909
0.000123499
0.000123173
0.000121178
0.00011563
0.000104252
8.70466e-05
6.43079e-05
3.3913e-05
8.00808e-06
3.19597e-07
2.35922e-08
2.8623e-06
1.97915e-05
4.83341e-05
7.23814e-05
9.04708e-05
0.000103731
0.000111386
0.000114452
0.000115023
0.000114623
0.0001139
0.000113198
0.000112325
0.000111309
0.000110074
0.000108912
0.000108138
0.000107316
0.000105598
0.000101811
0.00010232
0.0001559
0.000252545
0.000252766
0.00019644
0.000141175
0.00010708
8.55679e-05
8.58119e-05
0.000142589
0.000196588
0.000146354
9.71809e-05
9.94852e-05
0.000104586
0.000106909
0.000107901
0.000108505
0.000109131
0.000109863
0.000110886
0.000112256
0.000113687
0.000114833
0.000115351
0.000114957
0.000112876
0.000107348
9.64863e-05
8.06044e-05
5.96096e-05
3.11996e-05
7.28516e-06
2.89027e-07
2.15602e-08
2.61825e-06
1.81919e-05
4.47741e-05
6.7099e-05
8.37504e-05
9.62063e-05
0.000103655
0.000106767
0.000107426
0.000107082
0.00010638
0.000105676
0.00010486
0.000103924
0.00010282
0.000101773
0.000101037
0.000100234
9.85511e-05
9.53751e-05
9.97329e-05
0.000159507
0.000261301
0.000249676
0.000178456
0.000123683
9.60029e-05
9.06653e-05
0.00011879
0.000179757
0.000192574
0.00012868
9.38606e-05
9.35814e-05
9.75245e-05
9.96879e-05
0.000100648
0.000101256
0.000101885
0.000102626
0.000103621
0.000104914
0.000106257
0.000107331
0.000107783
0.00010734
0.000105206
9.9744e-05
8.94434e-05
7.48315e-05
5.54337e-05
2.88176e-05
6.66081e-06
2.6285e-07
1.97906e-08
2.40512e-06
1.67803e-05
4.1595e-05
6.2359e-05
7.76654e-05
8.93156e-05
9.65213e-05
9.96615e-05
0.000100399
0.0001001
9.9417e-05
9.87198e-05
9.79576e-05
9.71036e-05
9.61274e-05
9.51955e-05
9.4509e-05
9.37477e-05
9.21653e-05
8.96032e-05
9.68936e-05
0.000172358
0.000273773
0.000230179
0.000153585
0.000106373
8.90223e-05
9.8456e-05
0.000149619
0.000194685
0.000180761
0.000122604
8.90795e-05
8.84659e-05
9.1044e-05
9.30297e-05
9.39621e-05
9.45699e-05
9.52022e-05
9.59489e-05
9.6918e-05
9.81193e-05
9.93531e-05
0.000100348
0.000100754
0.00010028
9.81242e-05
9.27683e-05
8.30515e-05
6.96462e-05
5.17038e-05
2.67161e-05
6.12153e-06
2.40459e-07
1.8237e-08
2.21788e-06
1.55312e-05
3.87542e-05
5.8102e-05
7.21544e-05
8.30098e-05
8.9947e-05
9.30961e-05
9.39033e-05
9.36522e-05
9.29885e-05
9.22998e-05
9.15846e-05
9.0809e-05
8.99519e-05
8.91336e-05
8.85073e-05
8.77974e-05
8.63404e-05
8.44072e-05
9.51612e-05
0.00018163
0.000271392
0.000207693
0.000129884
9.00616e-05
8.42203e-05
0.000111202
0.000160913
0.000197931
0.000167479
0.000111139
8.57119e-05
8.39674e-05
8.51216e-05
8.69153e-05
8.78139e-05
8.84155e-05
8.90491e-05
8.97933e-05
9.07258e-05
9.18352e-05
9.29462e-05
9.38532e-05
9.42286e-05
9.37489e-05
9.15937e-05
8.63729e-05
7.72499e-05
6.49818e-05
4.83662e-05
2.48569e-05
5.6525e-06
2.21129e-07
1.68696e-08
2.05319e-06
1.44213e-05
3.62025e-05
5.42744e-05
6.71663e-05
7.72463e-05
8.38994e-05
8.70438e-05
8.79158e-05
8.77171e-05
8.70766e-05
8.63936e-05
8.57131e-05
8.5007e-05
8.42574e-05
8.35483e-05
8.29926e-05
8.23468e-05
8.1034e-05
7.97516e-05
9.45626e-05
0.00019041
0.000260622
0.000182626
0.000118733
8.36796e-05
8.89722e-05
0.000121084
0.000169889
0.000192371
0.000158842
0.000106038
8.4233e-05
7.95938e-05
7.97548e-05
8.13251e-05
8.21799e-05
8.27729e-05
8.34021e-05
8.41348e-05
8.50167e-05
8.60248e-05
8.70214e-05
8.78334e-05
8.81838e-05
8.77131e-05
8.55814e-05
8.05189e-05
7.19827e-05
6.07761e-05
4.5369e-05
2.32072e-05
5.24281e-06
2.04404e-07
1.56507e-08
1.90613e-06
1.3432e-05
3.39065e-05
5.08244e-05
6.26479e-05
7.19849e-05
7.83484e-05
8.14789e-05
8.24131e-05
8.22709e-05
8.16585e-05
8.09785e-05
8.03188e-05
7.96697e-05
7.90144e-05
7.84077e-05
7.79292e-05
7.7358e-05
7.6197e-05
7.54629e-05
9.13202e-05
0.000183941
0.00024227
0.000170898
0.000104773
8.21055e-05
9.04664e-05
0.000128615
0.000173619
0.000187911
0.000156383
0.000105912
8.19911e-05
7.56995e-05
7.49045e-05
7.62341e-05
7.70362e-05
7.76152e-05
7.82377e-05
7.89507e-05
7.97692e-05
8.0668e-05
8.15534e-05
8.22762e-05
8.26012e-05
8.21474e-05
8.00484e-05
7.51673e-05
6.72143e-05
5.69959e-05
4.26926e-05
2.17615e-05
4.89796e-06
1.91079e-07
1.45639e-08
1.77498e-06
1.25374e-05
3.18306e-05
4.76987e-05
5.85473e-05
6.71808e-05
7.32591e-05
7.63703e-05
7.73648e-05
7.72812e-05
7.67024e-05
7.60253e-05
7.53772e-05
7.47733e-05
7.41989e-05
7.36867e-05
7.32889e-05
7.27993e-05
7.17954e-05
7.15337e-05
8.62037e-05
0.0001647
0.000227993
0.000165227
0.000105266
8.67456e-05
9.58926e-05
0.000131592
0.00017268
0.000188506
0.000157674
0.000105971
7.87048e-05
7.23129e-05
7.05767e-05
7.1623e-05
7.23612e-05
7.29183e-05
7.35276e-05
7.42141e-05
7.49607e-05
7.57467e-05
7.65238e-05
7.71747e-05
7.74693e-05
7.70231e-05
7.49643e-05
7.02809e-05
6.28965e-05
5.35934e-05
4.0292e-05
2.04858e-05
4.60075e-06
1.80252e-07
1.35836e-08
1.65677e-06
1.17298e-05
2.99354e-05
4.48537e-05
5.48173e-05
6.27933e-05
6.85947e-05
7.16837e-05
7.27361e-05
7.2712e-05
7.21726e-05
7.15041e-05
7.0866e-05
7.02986e-05
6.97928e-05
6.93655e-05
6.90475e-05
6.86403e-05
6.77914e-05
6.80007e-05
8.11492e-05
0.00014685
0.000211936
0.000152296
0.000114867
9.38619e-05
9.98041e-05
0.00013403
0.000174969
0.000194698
0.000161386
0.000110427
7.71408e-05
6.92619e-05
6.67215e-05
6.7465e-05
6.81271e-05
6.865e-05
6.92373e-05
6.98894e-05
7.05627e-05
7.12399e-05
7.19154e-05
7.25037e-05
7.27671e-05
7.23183e-05
7.03032e-05
6.58223e-05
5.89815e-05
5.05194e-05
3.81229e-05
1.9339e-05
4.33705e-06
1.70671e-07
1.27008e-08
1.54993e-06
1.09956e-05
2.81965e-05
4.22522e-05
5.14162e-05
5.87829e-05
6.43169e-05
6.73796e-05
6.84857e-05
6.85209e-05
6.80285e-05
6.73788e-05
6.67555e-05
6.62192e-05
6.57696e-05
6.54156e-05
6.51699e-05
6.48379e-05
6.41413e-05
6.46923e-05
7.60944e-05
0.000130806
0.000195741
0.00015296
0.000113997
0.000101777
0.000102088
0.000133814
0.000171207
0.00019533
0.000180551
0.000150848
7.87223e-05
6.69921e-05
6.33089e-05
6.37213e-05
6.42929e-05
6.47676e-05
6.53242e-05
6.5939e-05
6.65385e-05
6.71173e-05
6.77038e-05
6.8238e-05
6.84771e-05
6.80156e-05
6.60326e-05
6.17525e-05
5.54325e-05
4.77422e-05
3.6159e-05
1.83053e-05
4.10201e-06
1.62104e-07
1.18944e-08
1.45187e-06
1.03231e-05
2.65955e-05
3.98651e-05
4.83087e-05
5.51123e-05
6.03865e-05
6.34163e-05
6.45711e-05
6.46655e-05
6.42305e-05
6.36117e-05
6.3009e-05
6.24985e-05
6.20916e-05
6.17966e-05
6.16114e-05
6.1346e-05
6.07936e-05
6.14663e-05
7.12647e-05
0.00011686
0.000182379
0.000161661
0.00012673
0.000111247
0.00010579
0.000129172
0.000162853
0.000198155
0.000210204
0.000154432
8.11705e-05
6.5321e-05
6.02708e-05
6.03478e-05
6.08134e-05
6.1227e-05
6.17444e-05
6.23172e-05
6.28472e-05
6.334e-05
6.38547e-05
6.43445e-05
6.45591e-05
6.40771e-05
6.21246e-05
5.80371e-05
5.22117e-05
4.52278e-05
3.43744e-05
1.73679e-05
3.88859e-06
1.54438e-07
1.1159e-08
1.3624e-06
9.70665e-06
2.51178e-05
3.76706e-05
4.54656e-05
5.17449e-05
5.67648e-05
5.97531e-05
6.09526e-05
6.11077e-05
6.07418e-05
6.01644e-05
5.95845e-05
5.90919e-05
5.87134e-05
5.84619e-05
5.83253e-05
5.81205e-05
5.77237e-05
5.86133e-05
6.64667e-05
0.00010616
0.000178126
0.000165265
0.000145989
0.000116418
0.000112215
0.000125194
0.000154013
0.000195036
0.000210553
0.000144298
8.47771e-05
6.34019e-05
5.7518e-05
5.72985e-05
5.76419e-05
5.79823e-05
5.84531e-05
5.89807e-05
5.94442e-05
5.98666e-05
6.03283e-05
6.07839e-05
6.09678e-05
6.04592e-05
5.85358e-05
5.46433e-05
4.92816e-05
4.29412e-05
3.27407e-05
1.65079e-05
3.69481e-06
1.47473e-07
1.0482e-08
1.28017e-06
9.14025e-06
2.37501e-05
3.56467e-05
4.28556e-05
4.86433e-05
5.34089e-05
5.63496e-05
5.75917e-05
5.78109e-05
5.75223e-05
5.69933e-05
5.64342e-05
5.59499e-05
5.55867e-05
5.53647e-05
5.52671e-05
5.51217e-05
5.4906e-05
5.61602e-05
6.29895e-05
9.88543e-05
0.000169732
0.000180664
0.000134599
0.000116291
0.000111517
0.000120761
0.00015001
0.00018906
0.000213472
0.000160497
9.29092e-05
6.18332e-05
5.50432e-05
5.45566e-05
5.47442e-05
5.49949e-05
5.54094e-05
5.58888e-05
5.62873e-05
5.66559e-05