/*--------------------------------*- C++ -*----------------------------------*\
  =========                 |
  \\      /  F ield         | OpenFOAM: The Open Source CFD Toolbox
   \\    /   O peration     | Website:  https://openfoam.org
    \\  /    A nd           | Version:  7
     \\/     M anipulation  |
\*---------------------------------------------------------------------------*/
FoamFile
{
    version     2.0;
    format      ascii;
    class       volScalarField;
    location    "75";
    object      nut;
}
// * * * * * * * * * * * * * * * * * * * * * * * * * * * * * * * * * * * * * //

dimensions      [0 2 -1 0 0 0 0];

internalField   nonuniform List<scalar> 
17475
(
3.12042e-05
0.00018885
0.000188081
0.000188028
0.000188026
0.000188026
0.000188026
0.000188025
0.000188025
0.000188025
0.000188025
0.000188025
0.000188025
0.000188025
0.000188025
0.000188025
0.000188025
0.000188025
0.000188025
0.000188025
0.000188025
0.000188025
0.000188024
0.000188025
0.000188023
0.000188027
0.000188026
0.000188026
0.000188026
0.000188026
0.000188026
0.000188026
0.000188026
0.000188026
0.000188026
0.000188026
0.000188026
0.000188026
0.000188026
0.000188028
0.000188029
0.000188031
0.000188033
0.000188034
0.000188035
0.000188037
0.000188038
0.000188039
0.00018804
0.000188041
0.000188042
0.000188043
0.000188053
0.000188285
0.000150675
9.21676e-07
0.00011539
0.000172096
0.000176596
0.000176758
0.000176762
0.00017676
0.000176757
0.000176755
0.000176753
0.000176752
0.000176751
0.00017675
0.000176749
0.000176748
0.000176748
0.000176747
0.000176746
0.000176745
0.000176743
0.000176742
0.000176741
0.000176743
0.000176736
0.000176744
0.000176746
0.000176751
0.00017675
0.000176749
0.000176748
0.000176747
0.000176747
0.000176746
0.000176746
0.000176746
0.000176746
0.000176746
0.000176745
0.000176743
0.000176742
0.000176742
0.000176742
0.000176743
0.000176744
0.000176746
0.000176747
0.000176748
0.000176751
0.000176754
0.000176757
0.000176756
0.000176694
0.000175356
0.000153948
1.68139e-05
1.20089e-07
5.92104e-05
0.000151133
0.000168227
0.000169905
0.000170014
0.000170017
0.000170012
0.000170005
0.000169998
0.000169994
0.000169991
0.000169989
0.000169986
0.000169985
0.000169983
0.000169981
0.000169979
0.000169978
0.000169975
0.000169972
0.000169974
0.000169974
0.000169979
0.000169981
0.000169982
0.000169988
0.000169991
0.000169992
0.000169991
0.00016999
0.00016999
0.000169991
0.000169994
0.000169995
0.000169995
0.000169997
0.000169995
0.000169993
0.000169992
0.000169992
0.000169988
0.000169985
0.000169987
0.00016999
0.000169992
0.000169994
0.000169999
0.000170005
0.000170011
0.000169973
0.00016934
0.000161171
0.000102869
3.04321e-06
3.85938e-08
3.04448e-05
0.000127821
0.000159089
0.000164764
0.000165342
0.000165401
0.0001654
0.000165386
0.000165372
0.000165366
0.00016536
0.000165354
0.000165347
0.000165345
0.000165341
0.000165336
0.000165332
0.00016533
0.000165323
0.000165321
0.000165321
0.000165328
0.000165331
0.000165333
0.000165335
0.000165338
0.000165343
0.000165344
0.000165341
0.000165338
0.00016534
0.000165345
0.000165351
0.000165353
0.000165354
0.000165358
0.000165355
0.000165353
0.000165355
0.000165357
0.00016535
0.000165347
0.000165354
0.000165364
0.000165371
0.000165376
0.000165383
0.00016539
0.00016538
0.000165155
0.000162513
0.000144076
6.41454e-05
1.07937e-06
1.75474e-08
1.70603e-05
0.000104918
0.000148981
0.000159908
0.000161709
0.000161935
0.000161957
0.000161939
0.000161923
0.000161919
0.000161912
0.000161903
0.000161887
0.000161884
0.000161879
0.000161871
0.000161861
0.000161856
0.00016185
0.000161843
0.000161845
0.000161845
0.000161842
0.000161855
0.000161858
0.000161852
0.000161851
0.000161846
0.000161836
0.000161836
0.000161841
0.000161854
0.000161862
0.000161864
0.000161871
0.000161873
0.000161865
0.000161868
0.000161873
0.000161877
0.000161874
0.000161877
0.00016189
0.000161907
0.000161923
0.000161931
0.000161939
0.000161935
0.000161854
0.000161058
0.000154841
0.000126114
4.19255e-05
5.50126e-07
9.62027e-09
1.05185e-05
8.50127e-05
0.000138705
0.00015474
0.000158559
0.000159151
0.000159239
0.00015922
0.000159198
0.000159204
0.000159203
0.000159194
0.000159173
0.000159166
0.000159156
0.000159152
0.000159126
0.000159119
0.000159117
0.000159109
0.0001591
0.000159084
0.000159076
0.000159105
0.000159108
0.000159083
0.000159053
0.000159031
0.000159029
0.000159046
0.000159062
0.000159084
0.00015909
0.000159093
0.00015912
0.000159116
0.0001591
0.000159109
0.00015912
0.000159122
0.000159125
0.000159132
0.000159144
0.000159168
0.000159204
0.000159211
0.000159214
0.000159178
0.000158913
0.000156983
0.000146669
0.000109039
2.90883e-05
3.32727e-07
5.97131e-09
7.04435e-06
6.89414e-05
0.00012847
0.000149315
0.000155593
0.000156864
0.000157094
0.000157053
0.000156998
0.000157028
0.000157044
0.000157025
0.00015701
0.000157011
0.000156981
0.000156995
0.000156966
0.00015693
0.000156895
0.000156885
0.000156883
0.000156835
0.00015684
0.00015686
0.000156848
0.000156796
0.000156724
0.000156696
0.000156735
0.000156777
0.000156813
0.000156839
0.000156844
0.000156838
0.000156909
0.000156929
0.00015689
0.000156892
0.000156901
0.000156907
0.000156897
0.000156877
0.000156887
0.000156915
0.00015702
0.000157037
0.000156988
0.000156886
0.000156273
0.000152675
0.00013853
9.39977e-05
2.12807e-05
2.22559e-07
4.05318e-09
5.04376e-06
5.64115e-05
0.000118616
0.000144186
0.00015297
0.00015525
0.000155731
0.000155685
0.000155644
0.00015571
0.000155743
0.000155641
0.000155569
0.000155615
0.000155554
0.000155579
0.000155518
0.000155398
0.000155264
0.000155229
0.000155272
0.000155174
0.000155146
0.000155098
0.000155074
0.000154976
0.000154851
0.000154857
0.000155006
0.000155055
0.000155059
0.000155098
0.000155129
0.000155121
0.000155234
0.000155272
0.000155213
0.000155216
0.000155222
0.000155239
0.000155204
0.000155166
0.000155153
0.000155206
0.000155414
0.000155436
0.000155306
0.000155082
0.000153896
0.000148414
0.000130771
8.13276e-05
1.61822e-05
1.56978e-07
2.93603e-09
3.79199e-06
4.67339e-05
0.000109417
0.000139796
0.000151101
0.000154755
0.000155575
0.000155589
0.000155548
0.00015568
0.000155834
0.000155622
0.000155431
0.000155599
0.000155462
0.000155358
0.000155088
0.000154757
0.000154468
0.000154378
0.000154478
0.000154376
0.000154252
0.000154194
0.000154116
0.000153793
0.000153535
0.00015359
0.000154017
0.000154171
0.000154027
0.000154085
0.000154211
0.000154271
0.000154408
0.000154387
0.000154286
0.000154272
0.000154331
0.000154346
0.000154146
0.00015407
0.000154077
0.000154288
0.00015457
0.000154527
0.000154319
0.000153876
0.000151853
0.000144626
0.000123591
7.07439e-05
1.27615e-05
1.1828e-07
2.2317e-09
2.96092e-06
3.92509e-05
0.000101012
0.000136135
0.000149815
0.000155375
0.000156852
0.000156499
0.000156228
0.000156699
0.000157037
0.000156795
0.000156391
0.000156599
0.000156318
0.000155937
0.000155803
0.000155147
0.00015458
0.000154426
0.000154438
0.000154253
0.000154236
0.000154338
0.000154056
0.000153503
0.000153144
0.00015324
0.000153844
0.000154102
0.000153978
0.000154001
0.000154134
0.000154138
0.000154381
0.000154499
0.00015429
0.000153976
0.000154109
0.000154465
0.000154027
0.000153665
0.000153587
0.000153974
0.000154781
0.000154912
0.000154089
0.000153183
0.000150441
0.000141651
0.000117304
6.23287e-05
1.03998e-05
9.34135e-08
1.75891e-09
2.38146e-06
3.34429e-05
9.34201e-05
0.000132882
0.000148596
0.000155842
0.000158018
0.000157723
0.000157297
0.000157768
0.000158507
0.000158661
0.000158057
0.000158104
0.000158115
0.000157673
0.000157469
0.000156502
0.000155658
0.000155317
0.000155278
0.000155133
0.000154807
0.000155028
0.000155267
0.000154508
0.000154042
0.000154091
0.000154544
0.000154902
0.000154741
0.0001547
0.000154975
0.000154802
0.0001551
0.000154839
0.000154766
0.00015437
0.000154537
0.0001547
0.000154371
0.000154065
0.000154111
0.0001551
0.000156012
0.000156079
0.000154987
0.00015335
0.000149366
0.000139589
0.000111902
5.54607e-05
8.68387e-06
7.63445e-08
1.42757e-09
1.96283e-06
2.88932e-05
8.64352e-05
0.000129628
0.00014786
0.000156211
0.000158604
0.000158488
0.000158119
0.000159188
0.000160475
0.000162162
0.000159662
0.000159627
0.000160458
0.000158152
0.000158929
0.000157614
0.000156853
0.000156981
0.000156381
0.000156414
0.000157442
0.000157752
0.000157133
0.00015531
0.000156673
0.00015701
0.000155169
0.000154948
0.000155955
0.000154999
0.000156466
0.000156601
0.000156676
0.00015695
0.000156871
0.000155571
0.000155421
0.000155662
0.000155625
0.000154823
0.000154812
0.000156253
0.000156809
0.000158179
0.000155713
0.00015407
0.000148788
0.000137017
0.00010671
4.97455e-05
7.40178e-06
6.41876e-08
1.18765e-09
1.65449e-06
2.52681e-05
7.99952e-05
0.000125392
0.00014864
0.000156739
0.000160926
0.000160165
0.000156651
0.000158321
0.000164069
0.000163853
0.000162954
0.000162703
0.000161502
0.000160231
0.000160086
0.000159595
0.00015884
0.000158654
0.000158079
0.000156897
0.000157382
0.000159574
0.00015855
0.000157547
0.00015784
0.000158333
0.000157735
0.000157098
0.000158305
0.00015925
0.000159084
0.000158858
0.000158995
0.000159707
0.000159151
0.000158029
0.000156926
0.000156835
0.000157154
0.000157574
0.000157446
0.000158045
0.000160754
0.000161424
0.000159163
0.000156121
0.000151272
0.000137315
0.000101171
4.4747e-05
6.41349e-06
5.5268e-08
1.00692e-09
1.41671e-06
2.2324e-05
7.38758e-05
0.000121952
0.000143026
0.000150969
0.000155308
0.000154834
0.000156292
0.000157921
0.000159121
0.000158894
0.000158553
0.000157953
0.000156234
0.000155066
0.000153286
0.000151895
0.000150695
0.000149944
0.000149302
0.000149197
0.000149681
0.000151028
0.000151231
0.000150506
0.000149575
0.000149584
0.00014973
0.000150119
0.000150589
0.000151289
0.000151095
0.000151222
0.000151379
0.000151746
0.00015188
0.000152576
0.000152651
0.000152663
0.000153321
0.000153937
0.000153597
0.000153965
0.000156245
0.000155321
0.000153948
0.000151033
0.000144861
0.000130795
9.54406e-05
4.03241e-05
5.59655e-06
4.76309e-08
8.67149e-10
1.22925e-06
1.99109e-05
6.83113e-05
0.000111715
0.000133267
0.000142623
0.00014604
0.000146679
0.000146955
0.000148192
0.000148914
0.000148723
0.000148203
0.00014731
0.000146251
0.000144805
0.00014289
0.000141249
0.000139905
0.000138747
0.00013792
0.000137618
0.000137881
0.000138666
0.000139637
0.000139425
0.000139131
0.000139099
0.000138866
0.000138781
0.000138631
0.00013857
0.000139526
0.000140076
0.000140618
0.000140952
0.000141687
0.000143113
0.000143536
0.000143897
0.000144637
0.000145102
0.000145318
0.000145486
0.000146092
0.000145864
0.000144777
0.000142014
0.000135192
0.000120848
8.7369e-05
3.63698e-05
4.93829e-06
4.14261e-08
7.56536e-10
1.08109e-06
1.78203e-05
6.20647e-05
0.000103417
0.000124688
0.000133583
0.000137236
0.000137946
0.000138352
0.000139112
0.000139422
0.000139114
0.000138506
0.000137534
0.000136601
0.000135219
0.000132942
0.000131001
0.000129399
0.000127671
0.000126533
0.000125559
0.000124775
0.00012562
0.000129509
0.000111297
0.000104064
0.000105722
0.000117195
0.000127929
0.000125954
0.000126275
0.000126819
0.000128126
0.000129821
0.000130692
0.000131832
0.000133585
0.000134204
0.000134472
0.000135178
0.000135763
0.000135935
0.000136189
0.000136796
0.000136729
0.000135707
0.000132751
0.000126114
0.000111928
7.97816e-05
3.32226e-05
4.38364e-06
3.63401e-08
6.55757e-10
9.52564e-07
1.60639e-05
5.64213e-05
9.57753e-05
0.000116249
0.00012508
0.000128809
0.000129603
0.000129883
0.000130274
0.000130241
0.000129771
0.000129064
0.000128069
0.000127257
0.000125855
0.000123184
0.000121185
0.000118743
0.000115745
0.000114324
0.000112041
0.000112194
9.96035e-05
6.94301e-05
4.55799e-05
2.40038e-05
2.42268e-05
5.83865e-05
8.10395e-05
0.000114389
0.000113114
0.000113389
0.000115737
0.000118071
0.000119878
0.000122048
0.000124365
0.000125295
0.000125608
0.000126352
0.000126867
0.000127117
0.00012745
0.000127959
0.000127973
0.00012711
0.000124222
0.000117593
0.000103655
7.314e-05
3.01386e-05
3.92335e-06
3.21833e-08
4.73351e-10
8.05425e-07
1.41294e-05
5.10901e-05
8.7994e-05
0.000108015
0.000116863
0.000120687
0.000121521
0.000121578
0.0001216
0.000121311
0.0001207
0.000119915
0.000119015
0.000118206
0.000116307
0.000113512
0.000110892
0.000107938
0.000104864
0.00010267
0.000102623
9.3372e-05
3.23353e-05
1.56929e-06
1.44328e-09
1.42225e-08
1.2455e-05
4.18538e-05
0.000103538
0.000102065
0.000103888
0.000106691
0.000109754
0.000112336
0.000114797
0.00011642
0.000116838
0.000117673
0.000118239
0.000118608
0.000118953
0.000119417
0.000119535
0.00011883
0.000116093
0.000109583
9.58291e-05
6.71343e-05
2.73694e-05
3.51678e-06
2.85891e-08
1.14513e-10
4.78899e-07
1.15346e-05
4.50005e-05
7.93688e-05
9.8689e-05
0.000107552
0.000111348
0.000112125
0.000111833
0.000111432
0.000110962
0.000110228
0.000109394
0.000108477
0.00010752
0.000105268
0.000102355
9.9336e-05
9.61098e-05
9.33491e-05
9.29502e-05
8.15718e-05
2.37356e-05
1.3413e-06
2.17009e-10
5.74778e-06
6.00831e-05
8.83638e-05
9.20098e-05
9.51559e-05
9.85874e-05
0.000101799
0.000104514
0.000106119
0.000106757
0.00010773
0.000108436
0.000108896
0.000109192
0.000109614
0.000109891
0.000109414
0.000106932
0.000100707
8.74217e-05
6.13409e-05
2.51349e-05
3.13369e-06
2.37276e-08
1.53485e-10
5.63679e-07
1.07274e-05
3.99821e-05
6.89969e-05
8.51263e-05
9.32615e-05
9.63466e-05
9.66537e-05
9.62399e-05
9.54167e-05
9.47759e-05
9.44145e-05
9.31388e-05
9.19756e-05
9.03246e-05
8.87629e-05
8.69347e-05
8.39003e-05
8.04488e-05
7.85625e-05
7.46396e-05
4.93897e-05
6.76479e-06
1.12089e-07
1.18428e-06
2.48975e-05
6.82138e-05
7.7292e-05
7.92903e-05
8.20146e-05
8.56327e-05
8.7601e-05
8.87151e-05
8.97134e-05
9.09229e-05
9.19233e-05
9.2647e-05
9.33796e-05
9.41054e-05
9.48733e-05
9.47242e-05
9.29241e-05
8.75345e-05
7.57498e-05
5.33258e-05
2.24253e-05
3.02954e-06
2.64625e-08
3.31438e-10
5.69513e-07
1.04464e-05
3.71499e-05
6.26656e-05
7.75959e-05
8.50312e-05
8.8155e-05
8.83947e-05
8.77135e-05
8.73757e-05
8.67061e-05
8.58866e-05
8.48896e-05
8.34827e-05
8.16722e-05
8.06444e-05
7.90253e-05
7.56997e-05
7.29119e-05
7.08353e-05
6.22942e-05
3.04491e-05
3.73578e-06
1.47352e-07
4.42737e-10
4.70097e-09
9.60537e-07
1.44273e-05
4.99945e-05
6.86394e-05
7.17869e-05
7.4006e-05
7.72084e-05
7.85925e-05
8.02642e-05
8.0884e-05
8.18366e-05
8.32768e-05
8.44719e-05
8.53695e-05
8.62493e-05
8.67803e-05
8.66111e-05
8.49225e-05
7.97944e-05
6.8815e-05
4.82822e-05
2.03053e-05
2.70895e-06
2.19841e-08
3.64947e-10
5.36703e-07
9.60832e-06
3.39343e-05
5.69707e-05
7.08301e-05
7.79897e-05
8.09549e-05
8.12896e-05
8.08817e-05
8.05175e-05
7.96606e-05
7.8763e-05
7.78589e-05
7.66082e-05
7.50813e-05
7.37932e-05
7.24796e-05
6.96289e-05
6.67755e-05
6.44328e-05
5.36327e-05
2.2467e-05
3.15716e-06
4.39594e-07
9.38202e-08
2.53683e-08
2.11082e-08
1.85766e-08
3.02994e-08
1.66979e-07
1.32919e-06
1.07565e-05
4.01271e-05
6.09027e-05
6.56619e-05
6.80916e-05
7.09736e-05
7.24125e-05
7.33115e-05
7.3807e-05
7.50141e-05
7.64741e-05
7.76339e-05
7.8659e-05
7.96861e-05
8.02237e-05
7.98797e-05
7.81623e-05
7.31696e-05
6.26692e-05
4.36549e-05
1.84441e-05
2.41383e-06
1.93421e-08
3.36212e-10
4.89807e-07
8.69582e-06
3.08155e-05
5.18363e-05
6.49307e-05
7.20087e-05
7.48968e-05
7.53567e-05
7.49096e-05
7.43777e-05
7.38843e-05
7.29901e-05
7.19103e-05
7.05977e-05
6.90199e-05
6.79584e-05
6.68121e-05
6.45172e-05
6.19132e-05
5.89804e-05
4.64223e-05
1.87132e-05
3.40909e-06
8.57945e-07
6.22675e-07
1.04995e-06
1.37303e-06
1.11738e-06
6.72738e-07
8.30503e-07
2.06256e-06
9.78481e-06
3.36121e-05
5.46014e-05
6.04533e-05
6.28208e-05
6.52598e-05
6.68114e-05
6.77334e-05
6.83198e-05
6.92318e-05
7.04978e-05
7.18551e-05
7.29785e-05
7.40039e-05
7.44662e-05
7.40057e-05
7.22599e-05
6.73334e-05
5.72441e-05
3.97367e-05
1.67474e-05
2.15874e-06
1.72222e-08
3.02578e-10
4.41516e-07
7.86499e-06
2.79469e-05
4.72093e-05
5.95049e-05
6.63186e-05
6.92054e-05
6.97772e-05
6.93592e-05
6.88856e-05
6.85084e-05
6.76691e-05
6.65393e-05
6.52495e-05
6.37728e-05
6.27544e-05
6.17309e-05
5.98858e-05
5.77328e-05
5.44534e-05
4.12176e-05
1.76449e-05
4.14183e-06
1.11442e-06
1.11905e-06
2.00422e-06
2.74649e-06
2.64511e-06
2.1349e-06
2.30127e-06
3.21586e-06
1.01343e-05
2.99019e-05
4.95597e-05
5.61052e-05
5.84101e-05
6.03681e-05
6.18244e-05
6.26799e-05
6.32496e-05
6.40599e-05
6.52874e-05
6.66229e-05
6.78207e-05
6.88313e-05
6.91638e-05
6.85479e-05
6.67165e-05
6.19773e-05
5.23867e-05
3.6192e-05
1.52005e-05
1.93879e-06
1.54157e-08
2.71347e-10
3.9656e-07
7.10591e-06
2.53381e-05
4.29375e-05
5.43782e-05
6.07289e-05
6.35333e-05
6.44205e-05
6.41489e-05
6.37298e-05
6.34047e-05
6.25854e-05
6.14872e-05
6.02927e-05
5.89181e-05
5.79936e-05
5.71293e-05
5.55972e-05
5.37838e-05
5.07518e-05
4.00739e-05
1.80781e-05
5.49438e-06
1.51676e-06
1.31895e-06
2.2855e-06
3.83544e-06
4.52689e-06
4.24311e-06
4.1961e-06
4.60127e-06
1.11878e-05
2.81194e-05
4.56263e-05
5.21036e-05
5.4287e-05
5.59884e-05
5.72202e-05
5.8077e-05
5.8575e-05
5.92295e-05
6.05206e-05
6.18009e-05
6.30213e-05
6.39295e-05
6.41227e-05
6.34277e-05
6.15722e-05
5.69913e-05
4.78918e-05
3.29521e-05
1.37682e-05
1.7378e-06
1.37736e-08
2.4293e-10
3.55586e-07
6.40514e-06
2.28749e-05
3.88956e-05
4.94288e-05
5.51106e-05
5.81945e-05
5.91428e-05
5.88703e-05
5.81972e-05
5.8036e-05
5.73953e-05
5.64865e-05
5.52749e-05
5.34738e-05
5.30378e-05
5.26887e-05
5.13533e-05
4.9797e-05
4.70878e-05
3.77003e-05
1.92567e-05
7.43834e-06
2.67882e-06
1.57234e-06
2.3245e-06
4.24793e-06
5.88178e-06
6.31826e-06
6.01578e-06
6.56783e-06
1.31812e-05
2.72505e-05
4.22286e-05
4.82276e-05
5.03971e-05
5.18676e-05
5.2685e-05
5.36369e-05
5.40894e-05
5.45224e-05
5.57283e-05
5.66438e-05
5.81532e-05
5.91029e-05
5.9232e-05
5.83935e-05
5.64886e-05
5.21555e-05
4.35837e-05
2.9925e-05
1.24558e-05
1.55567e-06
1.2156e-08
2.17269e-10
3.18595e-07
5.76306e-06
2.05866e-05
3.50394e-05
4.47135e-05
4.98962e-05
5.30221e-05
5.3917e-05
5.36996e-05
5.26964e-05
5.26868e-05
5.1878e-05
5.12651e-05
5.06048e-05
4.84774e-05
4.8381e-05
4.83054e-05
4.72129e-05
4.56192e-05
4.32749e-05
3.48058e-05
2.05406e-05
9.78641e-06
4.63011e-06
2.29157e-06
2.30301e-06
4.25107e-06
6.17251e-06
7.43752e-06
8.34992e-06
1.05051e-05
1.62253e-05
2.76922e-05
3.89843e-05
4.44907e-05
4.61913e-05
4.73995e-05
4.82178e-05
4.92429e-05
4.95147e-05
5.00156e-05
5.09953e-05
5.161e-05
5.34663e-05
5.41273e-05
5.41997e-05
5.31568e-05
5.12399e-05
4.74043e-05
3.94497e-05
2.70621e-05
1.12227e-05
1.38341e-06
1.06248e-08
1.94197e-10
2.85443e-07
5.17416e-06
1.85268e-05
3.13568e-05
3.81859e-05
4.42277e-05
4.81769e-05
4.91022e-05
4.86997e-05
4.69579e-05
4.8057e-05
4.78994e-05
4.73838e-05
4.65226e-05
4.54332e-05
4.34062e-05
4.44236e-05
4.36503e-05
4.20379e-05
3.86843e-05
3.24908e-05
2.15415e-05
1.22475e-05
6.9713e-06
4.00792e-06
2.76695e-06
4.1976e-06
6.02128e-06
8.42551e-06
1.25875e-05
1.84788e-05
2.24443e-05
2.74915e-05
3.54123e-05
3.97764e-05
4.25905e-05
4.35519e-05
4.2523e-05
4.27656e-05
4.55162e-05
4.6519e-05
4.73864e-05
4.80119e-05
4.9154e-05
4.81065e-05
4.93279e-05
4.83089e-05
4.65535e-05
4.24788e-05
3.54913e-05
2.44052e-05
1.00315e-05
1.2304e-06
9.3066e-09
1.7359e-10
2.55777e-07
4.67382e-06
1.64796e-05
2.78937e-05
3.60225e-05
4.11247e-05
4.39668e-05
4.61828e-05
4.43306e-05
4.4409e-05
4.35836e-05
4.33004e-05
4.46176e-05
4.26577e-05
4.31723e-05
4.23622e-05
4.15054e-05
4.07486e-05
3.8771e-05
3.69397e-05
3.09116e-05
2.23023e-05
1.51813e-05
1.02999e-05
6.87668e-06
4.72806e-06
4.56714e-06
5.13238e-06
7.46822e-06
1.61535e-05
2.96802e-05
3.21921e-05
2.7903e-05
3.28557e-05
3.77369e-05
3.91986e-05
4.08653e-05
4.10064e-05
4.09493e-05
4.16447e-05
4.34266e-05
4.45788e-05
4.4293e-05
4.5111e-05
4.64938e-05
4.44999e-05
4.39592e-05
4.28092e-05
3.87276e-05
3.18809e-05
2.17446e-05
9.10332e-06
1.09549e-06
8.1714e-09
1.5531e-10
2.29521e-07
4.23932e-06
1.52263e-05
2.57856e-05
3.31849e-05
3.8606e-05
4.22183e-05
4.23955e-05
4.29571e-05
4.18299e-05
4.17953e-05
4.14435e-05
4.09737e-05
4.10404e-05
4.0674e-05
4.01265e-05
3.94877e-05
3.86465e-05
3.80432e-05
3.57406e-05
3.03297e-05
2.35636e-05
1.99695e-05
1.60853e-05
1.15087e-05
8.36117e-06
7.32009e-06
4.64367e-06
4.96655e-06
1.39374e-05
4.15517e-05
4.53059e-05
2.79687e-05
3.23927e-05
3.56562e-05
3.82859e-05
3.86236e-05
3.96375e-05
3.99629e-05
4.05059e-05
4.09689e-05
4.21186e-05
4.36569e-05
4.41073e-05
4.39972e-05
4.2599e-05
4.21332e-05
4.14571e-05
3.6382e-05
3.04117e-05
2.02597e-05
8.22866e-06
9.78517e-07
7.19813e-09
1.39245e-10
2.06426e-07
3.86327e-06
1.44066e-05
2.4816e-05
3.23793e-05
3.75255e-05
4.02058e-05
4.15725e-05
4.16503e-05
4.16072e-05
4.1063e-05
4.08446e-05
4.02048e-05
3.96026e-05
3.81322e-05
3.75959e-05
3.68188e-05
3.63808e-05
3.57564e-05
3.40504e-05
3.04913e-05
2.67882e-05
2.76927e-05
2.57743e-05
1.9099e-05
1.42893e-05
1.28399e-05
7.247e-06
4.91498e-06
9.01476e-06
3.86158e-05
4.51856e-05
2.90154e-05
3.09806e-05
3.46574e-05
3.62578e-05
3.62866e-05
3.76786e-05
3.81836e-05
3.85718e-05
3.91123e-05
3.9991e-05
4.09606e-05
4.18793e-05
4.17985e-05
4.2207e-05
4.12671e-05
3.90454e-05
3.52606e-05
2.85225e-05
1.92148e-05
7.52851e-06
8.766e-07
6.36134e-09
1.25151e-10
1.86182e-07
3.51771e-06
1.34302e-05
2.37788e-05
3.08938e-05
3.58499e-05
3.82224e-05
3.92089e-05
3.9726e-05
3.95666e-05
3.91135e-05
3.88393e-05
3.83572e-05
3.76788e-05
3.62789e-05
3.53826e-05
3.5001e-05
3.46005e-05
3.38758e-05
3.24909e-05
2.93147e-05
2.93025e-05
3.8742e-05
3.89753e-05
2.9774e-05
2.2283e-05
2.02303e-05
1.1983e-05
7.49937e-06
9.07143e-06
3.2742e-05
5.28674e-05
2.93593e-05
3.14547e-05
3.29055e-05
3.43964e-05
3.54009e-05
3.55411e-05
3.5936e-05
3.64219e-05
3.6999e-05
3.77312e-05
3.85902e-05
3.93172e-05
3.9629e-05
3.97168e-05
3.88913e-05
3.67034e-05
3.28309e-05
2.66215e-05
1.79127e-05
6.92512e-06
7.88175e-07
5.64785e-09
1.12961e-10
1.68663e-07
3.21658e-06
1.23837e-05
2.21059e-05
2.89359e-05
3.35711e-05
3.61433e-05
3.71498e-05
3.74144e-05
3.72435e-05
3.67711e-05
3.64057e-05
3.59905e-05
3.5474e-05
3.45326e-05
3.35629e-05
3.33379e-05
3.29283e-05
3.2374e-05
3.08684e-05
2.86527e-05
3.30095e-05
4.96981e-05
5.27426e-05
4.10889e-05
3.18655e-05
2.79965e-05
1.74602e-05
1.12955e-05
1.26055e-05
3.8049e-05
4.18636e-05
2.94109e-05
3.0286e-05
3.23142e-05
3.27849e-05
3.35029e-05
3.37516e-05
3.40712e-05
3.4501e-05
3.49964e-05
3.56535e-05
3.64132e-05
3.70483e-05
3.73758e-05
3.72241e-05
3.64058e-05
3.44962e-05
3.06914e-05
2.48906e-05
1.66377e-05
6.35415e-06
7.11807e-07
5.0397e-09
1.02385e-10
1.53456e-07
2.95159e-06
1.14757e-05
2.05071e-05
2.69253e-05
3.13941e-05
3.40195e-05
3.50501e-05
3.52676e-05
3.50901e-05
3.46862e-05
3.43048e-05
3.39227e-05
3.35007e-05
3.28528e-05
3.21639e-05
3.1807e-05
3.13894e-05
3.06943e-05
2.93052e-05
2.82036e-05
3.61448e-05
5.98509e-05
6.19091e-05
4.77512e-05
3.70481e-05
3.35205e-05
2.17425e-05
1.58052e-05
2.22582e-05
4.4073e-05
4.30304e-05
2.77938e-05
2.88208e-05
3.07277e-05
3.15004e-05
3.19333e-05
3.21849e-05
3.24678e-05
3.27768e-05
3.3132e-05
3.36757e-05
3.4334e-05
3.48759e-05
3.51389e-05
3.49721e-05
3.41809e-05
3.23042e-05
2.86488e-05
2.32822e-05
1.54997e-05
5.84645e-06
6.45968e-07
4.52187e-09
9.31932e-11
1.40181e-07
2.71719e-06
1.06581e-05
1.91021e-05
2.50918e-05
2.93384e-05
3.19057e-05
3.29558e-05
3.31876e-05
3.30093e-05
3.26349e-05
3.22724e-05
3.19278e-05
3.15651e-05
3.11039e-05
3.06323e-05
3.02676e-05
2.98093e-05
2.89802e-05
2.77164e-05
2.77479e-05
4.20808e-05
6.82575e-05
6.55925e-05
4.97454e-05
3.7841e-05
3.36874e-05
2.39417e-05
2.19153e-05
3.71567e-05
5.26672e-05
3.99377e-05
2.68598e-05
2.76786e-05
2.91736e-05
2.98833e-05
3.02545e-05
3.04953e-05
3.0745e-05
3.10139e-05
3.13284e-05
3.17819e-05
3.23184e-05
3.2775e-05
3.29921e-05
3.2827e-05
3.20623e-05
3.02143e-05
2.67433e-05
2.17552e-05
1.44735e-05
5.40361e-06
5.89152e-07
4.08105e-09
8.51945e-11
1.28574e-07
2.50979e-06
9.92486e-06
1.78193e-05
2.33861e-05
2.7381e-05
2.9856e-05
3.09187e-05
3.1172e-05
3.09972e-05
3.06355e-05
3.03125e-05
3.0027e-05
2.97249e-05
2.93632e-05
2.8979e-05
2.86668e-05
2.82917e-05
2.75964e-05
2.65506e-05
2.75855e-05
4.38821e-05
7.23608e-05
6.82016e-05
4.68177e-05
3.46551e-05
3.10113e-05
2.673e-05
3.1625e-05
4.81048e-05
5.2771e-05
3.58254e-05
2.63631e-05
2.64019e-05
2.75679e-05
2.82196e-05
2.85533e-05
2.87791e-05
2.90294e-05
2.92918e-05
2.95851e-05
2.99651e-05
3.03788e-05
3.07528e-05
3.09413e-05
3.07978e-05
3.00632e-05
2.82512e-05
2.49636e-05
2.03484e-05
1.35417e-05
5.01487e-06
5.40205e-07
3.70475e-09
7.82325e-11
1.18441e-07
2.32714e-06
9.26982e-06
1.66578e-05
2.18175e-05
2.55527e-05
2.79206e-05
2.89795e-05
2.9252e-05
2.90925e-05
2.87547e-05
2.84745e-05
2.824e-05
2.79963e-05
2.77088e-05
2.73874e-05
2.7105e-05
2.67751e-05
2.61937e-05
2.53639e-05
2.73109e-05
4.84966e-05
7.72049e-05
6.39716e-05
4.21187e-05
3.10107e-05
2.92114e-05
2.97626e-05
4.17283e-05
5.43514e-05
5.06259e-05
3.46751e-05
2.53378e-05
2.52302e-05
2.59965e-05
2.66133e-05
2.69193e-05
2.71291e-05
2.73672e-05
2.76187e-05
2.78953e-05
2.82131e-05
2.85395e-05
2.8841e-05
2.90127e-05
2.89003e-05
2.81975e-05
2.64227e-05
2.33128e-05
1.90534e-05
1.26975e-05
4.67227e-06
4.98012e-07
3.38424e-09
7.21183e-11
1.09518e-07
2.16578e-06
8.68654e-06
1.56125e-05
2.03896e-05
2.38709e-05
2.61302e-05
2.71741e-05
2.74614e-05
2.73338e-05
2.70345e-05
2.67816e-05
2.65719e-05
2.63707e-05
2.61408e-05
2.58695e-05
2.5619e-05
2.53229e-05
2.48131e-05
2.42027e-05
2.72751e-05
5.21714e-05
7.79575e-05
5.89123e-05
3.64301e-05
2.68648e-05
2.79576e-05
3.44591e-05
4.60614e-05
5.63549e-05
4.79825e-05
3.1889e-05
2.46342e-05
2.41601e-05
2.45243e-05
2.50903e-05
2.53722e-05
2.55714e-05
2.57953e-05
2.60297e-05
2.62762e-05
2.65426e-05
2.68074e-05
2.70625e-05
2.72261e-05
2.71402e-05
2.64632e-05
2.47288e-05
2.17919e-05
1.7867e-05
1.19365e-05
4.36888e-06
4.61227e-07
3.10776e-09
6.67321e-11
1.01654e-07
2.02242e-06
8.16243e-06
1.46691e-05
1.90918e-05
2.23352e-05
2.44975e-05
2.55238e-05
2.58195e-05
2.57289e-05
2.54717e-05
2.52326e-05
2.50215e-05
2.48396e-05
2.46511e-05
2.44194e-05
2.41989e-05
2.39433e-05
2.35005e-05
2.31019e-05
2.7451e-05
5.54776e-05
7.59233e-05
5.27491e-05
3.41061e-05
2.5514e-05
2.97456e-05
3.82337e-05
4.98694e-05
5.59982e-05
4.63315e-05
3.08136e-05
2.44402e-05
2.30952e-05
2.315e-05
2.36379e-05
2.39102e-05
2.41072e-05
2.4325e-05
2.4546e-05
2.47558e-05
2.49726e-05
2.52002e-05
2.54232e-05
2.55796e-05
2.55075e-05
2.48478e-05
2.31636e-05
2.03976e-05
1.67845e-05
1.12493e-05
4.10054e-06
4.29079e-07
2.86951e-09
6.19262e-11
9.45938e-08
1.89668e-06
7.6865e-06
1.38072e-05
1.79011e-05
2.09262e-05
2.30086e-05
2.40225e-05
2.43199e-05
2.42565e-05
2.40376e-05
2.38097e-05
2.35853e-05
2.34052e-05
2.3243e-05
2.30431e-05
2.2851e-05
2.26417e-05
2.22691e-05
2.20554e-05
2.67804e-05
5.41523e-05
7.13851e-05
5.00825e-05
3.06593e-05
2.54186e-05
3.03511e-05
4.11202e-05
5.19021e-05
5.55849e-05
4.61868e-05
3.1098e-05
2.3999e-05
2.21342e-05
2.18859e-05
2.22864e-05
2.25379e-05
2.27325e-05
2.29502e-05
2.31662e-05
2.33458e-05
2.35187e-05
2.37182e-05
2.39173e-05
2.40627e-05
2.39884e-05
2.33392e-05
2.17179e-05
1.91275e-05
1.58058e-05
1.06363e-05
3.86781e-06
4.02659e-07
2.68845e-09
5.76366e-11
8.82792e-08
1.7769e-06
7.2478e-06
1.30069e-05
1.67939e-05
1.96177e-05
2.16335e-05
2.26442e-05
2.294e-05
2.28893e-05
2.27011e-05
2.24914e-05
2.22655e-05
2.20843e-05
2.19379e-05
2.17656e-05
2.16097e-05
2.14467e-05
2.11387e-05
2.10726e-05
2.547e-05
4.88485e-05
6.78028e-05
4.90054e-05
3.1293e-05
2.71763e-05
3.2187e-05
4.23797e-05
5.23455e-05
5.64352e-05
4.70197e-05
3.13873e-05
2.32156e-05
2.12762e-05
2.07414e-05
2.10561e-05
2.12763e-05
2.14549e-05
2.16678e-05
2.18819e-05
2.20438e-05
2.21831e-05
2.23597e-05
2.2543e-05
2.2665e-05
2.25786e-05
2.19344e-05
2.03845e-05
1.79728e-05
1.4925e-05
1.00873e-05
3.66331e-06
3.8015e-07
2.54739e-09
5.376e-11
8.25748e-08
1.67046e-06
6.84031e-06
1.22586e-05
1.57577e-05
1.83949e-05
2.03501e-05
2.13652e-05
2.16594e-05
2.16097e-05
2.14433e-05
2.12641e-05
2.10642e-05
2.08915e-05
2.0752e-05
2.06e-05
2.04784e-05
2.03549e-05
2.00985e-05
2.0164e-05
2.40957e-05
4.37526e-05
6.34916e-05
4.5652e-05
3.46035e-05
2.96618e-05
3.34476e-05
4.33544e-05
5.3596e-05
5.88195e-05
4.84849e-05
3.2937e-05
2.28965e-05
2.0474e-05
1.9701e-05
1.99357e-05
2.01237e-05
2.02756e-05
2.04766e-05
2.06885e-05
2.08414e-05
2.09601e-05
2.11195e-05
2.12889e-05
2.13843e-05
2.12767e-05
2.06356e-05
1.91556e-05
1.69207e-05
1.41309e-05
9.59246e-06
3.48036e-06
3.60183e-07
2.42272e-09
5.02756e-11
7.73889e-08
1.57249e-06
6.462e-06
1.15624e-05
1.47958e-05
1.72609e-05
1.91588e-05
2.01776e-05
2.04721e-05
2.04183e-05
2.0267e-05
2.01278e-05
1.99759e-05
1.98225e-05
1.96791e-05
1.95341e-05
1.94349e-05
1.93377e-05
1.91241e-05
1.92787e-05
2.2665e-05
3.90772e-05
5.89701e-05
4.62652e-05
3.47211e-05
3.23501e-05
3.41054e-05
4.33648e-05
5.28558e-05
5.9379e-05
5.45069e-05
4.5214e-05
2.34788e-05
1.98751e-05
1.87623e-05
1.89117e-05
1.90672e-05
1.91885e-05
1.9375e-05
1.95831e-05
1.97294e-05
1.98362e-05
1.9985e-05
2.01436e-05
2.02152e-05
2.00768e-05
1.94409e-05
1.80255e-05
1.59624e-05
1.34135e-05
9.14378e-06
3.31336e-06
3.42199e-07
2.31076e-09
4.70984e-11
7.26071e-08
1.48189e-06
6.11183e-06
1.09221e-05
1.39171e-05
1.62234e-05
1.80627e-05
1.90831e-05
1.9384e-05
1.93303e-05
1.91925e-05
1.90903e-05
1.89864e-05
1.8853e-05
1.86957e-05
1.85421e-05
1.84505e-05
1.83698e-05
1.81956e-05
1.83781e-05
2.12753e-05
3.4993e-05
5.51872e-05
4.92466e-05
3.89421e-05
3.54989e-05
3.52003e-05
4.188e-05
5.05624e-05
6.05253e-05
6.3696e-05
4.64678e-05
2.42806e-05
1.9425e-05
1.79163e-05
1.79745e-05
1.80977e-05
1.81901e-05
1.83615e-05
1.85621e-05
1.86977e-05
1.87952e-05
1.89389e-05
1.90917e-05
1.91419e-05
1.89776e-05
1.83429e-05
1.69867e-05
1.50852e-05
1.27587e-05
8.73252e-06
3.16053e-06
3.25721e-07
2.21102e-09
4.41989e-11
6.82259e-08
1.39811e-06
5.78805e-06
1.03364e-05
1.31212e-05
1.52788e-05
1.7056e-05
1.8077e-05
1.83973e-05
1.8355e-05
1.82313e-05
1.81495e-05
1.80748e-05
1.79506e-05
1.77741e-05
1.7601e-05
1.75082e-05
1.74426e-05
1.73147e-05
1.7561e-05
1.98882e-05
3.18782e-05
5.40897e-05
5.06181e-05
4.51622e-05
3.724e-05
3.71758e-05
4.05589e-05
4.79954e-05
5.97538e-05
6.39632e-05
4.35397e-05
2.54228e-05
1.8902e-05
1.71316e-05
1.71105e-05
1.72056e-05
1.72764e-05
1.74326e-05
1.76189e-05
1.77371e-05
1.78254e-05
1.79671e-05
1.81175e-05
1.81519e-05
1.79643e-05
1.73283e-05
1.60348e-05
1.42778e-05
1.21533e-05
8.34988e-06
3.01817e-06
3.1065e-07
2.12045e-09
4.15277e-11
6.41839e-08
1.32095e-06
5.48824e-06
9.79774e-06
1.23951e-05