/*--------------------------------*- C++ -*----------------------------------*\
  =========                 |
  \\      /  F ield         | OpenFOAM: The Open Source CFD Toolbox
   \\    /   O peration     | Website:  https://openfoam.org
    \\  /    A nd           | Version:  7
     \\/     M anipulation  |
\*---------------------------------------------------------------------------*/
FoamFile
{
    version     2.0;
    format      ascii;
    class       volScalarField;
    location    "75";
    object      p;
}
// * * * * * * * * * * * * * * * * * * * * * * * * * * * * * * * * * * * * * //

dimensions      [0 2 -2 0 0 0 0];

internalField   nonuniform List<scalar> 
17475
(
0.746754
0.4322
0.342844
0.304354
0.281868
0.267029
0.256561
0.248921
0.243261
0.239066
0.235999
0.233824
0.232368
0.231497
0.231105
0.231101
0.231404
0.231944
0.232655
0.233475
0.234346
0.235214
0.236027
0.236739
0.237313
0.237717
0.237923
0.237914
0.237685
0.237238
0.236587
0.235753
0.234769
0.233671
0.232507
0.231325
0.230183
0.229139
0.228258
0.227608
0.227265
0.227309
0.227833
0.228947
0.230784
0.233513
0.237364
0.242653
0.249845
0.259649
0.273198
0.292367
0.319984
0.362698
0.384563
0.308768
0.323217
0.309084
0.290454
0.274787
0.262823
0.253792
0.246963
0.241804
0.237941
0.235106
0.233101
0.231777
0.231013
0.230711
0.230784
0.231158
0.231764
0.232536
0.233413
0.234337
0.235254
0.236112
0.236866
0.237474
0.237902
0.238122
0.238119
0.237885
0.237424
0.236748
0.235882
0.234858
0.233714
0.232498
0.23126
0.230057
0.22895
0.228
0.227278
0.226854
0.226808
0.227226
0.228211
0.229883
0.232394
0.235941
0.240789
0.247311
0.256049
0.267823
0.283958
0.306363
0.342015
0.351686
0.275915
0.27327
0.27115
0.265047
0.258296
0.251752
0.246017
0.241262
0.237469
0.234548
0.232392
0.230898
0.229975
0.22954
0.229516
0.229836
0.230433
0.231246
0.232211
0.233271
0.234367
0.235442
0.236444
0.237322
0.23803
0.23853
0.238794
0.238804
0.238552
0.23804
0.237285
0.236312
0.235156
0.23386
0.232474
0.231053
0.229656
0.228342
0.227174
0.22622
0.225543
0.225212
0.225301
0.225887
0.227059
0.228913
0.231564
0.235138
0.23977
0.245577
0.252578
0.260444
0.268075
0.272589
0.264218
0.229536
0.237866
0.242893
0.243295
0.241438
0.238773
0.235973
0.233391
0.231203
0.229482
0.228245
0.227476
0.227142
0.227203
0.227612
0.228321
0.229278
0.230428
0.231715
0.23308
0.234465
0.235811
0.237058
0.238146
0.239026
0.239653
0.239993
0.240024
0.239737
0.239136
0.238238
0.237076
0.235689
0.234129
0.232451
0.230718
0.228991
0.227331
0.225804
0.224472
0.22339
0.222616
0.222201
0.222196
0.222646
0.223589
0.225048
0.227018
0.229436
0.23213
0.234724
0.236449
0.235883
0.22993
0.214768
0.208735
0.215158
0.221454
0.224745
0.225939
0.225959
0.225391
0.224624
0.2239
0.223361
0.22309
0.223124
0.223476
0.224138
0.225089
0.226301
0.227734
0.229342
0.231074
0.232872
0.234673
0.236413
0.238018
0.239419
0.240557
0.241375
0.241831
0.241896
0.241557
0.240821
0.23971
0.238263
0.236534
0.234584
0.232481
0.230297
0.228101
0.225958
0.223942
0.222104
0.220496
0.219161
0.218131
0.217431
0.21707
0.21704
0.217304
0.217782
0.218325
0.218678
0.218415
0.216862
0.212959
0.205153
0.195025
0.195186
0.199818
0.205723
0.209974
0.212579
0.21413
0.21505
0.215636
0.216102
0.2166
0.217231
0.21806
0.219124
0.22044
0.222006
0.223809
0.22582
0.228001
0.230306
0.232672
0.235037
0.237312
0.239414
0.241259
0.242766
0.243862
0.244489
0.244607
0.244198
0.243272
0.241859
0.240012
0.237803
0.235313
0.232629
0.22984
0.227024
0.224261
0.221628
0.219173
0.216942
0.214966
0.213263
0.211835
0.210669
0.209727
0.208942
0.208208
0.207361
0.206165
0.204291
0.201297
0.196598
0.189692
0.183228
0.185
0.188302
0.193271
0.1977
0.200946
0.203355
0.205216
0.206745
0.208115
0.209456
0.210869
0.212429
0.214184
0.216165
0.218386
0.220844
0.223523
0.226391
0.229401
0.232496
0.235587
0.238573
0.241352
0.243811
0.24584
0.247336
0.248214
0.248416
0.247916
0.246726
0.244894
0.242492
0.239627
0.236409
0.232956
0.229379
0.225773
0.222247
0.218873
0.215703
0.212775
0.210112
0.20772
0.205585
0.203678
0.201946
0.200314
0.198671
0.196877
0.194749
0.19206
0.188527
0.183824
0.178096
0.173721
0.176231
0.178697
0.182825
0.187082
0.190559
0.193409
0.195833
0.19799
0.200012
0.202009
0.204074
0.206279
0.208675
0.211304
0.214192
0.217349
0.220773
0.224442
0.228311
0.232304
0.236326
0.240251
0.243945
0.247254
0.250022
0.252096
0.253345
0.253681
0.253063
0.251508
0.249086
0.245916
0.242152
0.237955
0.233489
0.228899
0.224311
0.219863
0.215625
0.211649
0.207971
0.204603
0.201536
0.198747
0.196192
0.193812
0.191527
0.189242
0.186839
0.184181
0.181111
0.177441
0.172984
0.168134
0.164905
0.168129
0.17003
0.173456
0.177422
0.180937
0.183991
0.186733
0.189287
0.191758
0.194241
0.196816
0.199556
0.202523
0.205765
0.209321
0.213212
0.217443
0.222025
0.226898
0.231987
0.237197
0.242363
0.247299
0.251797
0.255624
0.258547
0.260355
0.260906
0.26013
0.258054
0.254791
0.250531
0.245521
0.239997
0.234193
0.228299
0.222508
0.216963
0.211737
0.206882
0.202422
0.198355
0.194657
0.19129
0.188196
0.185311
0.182556
0.179844
0.177078
0.174146
0.170938
0.167315
0.163246
0.159311
0.156869
0.16031
0.161813
0.164676
0.1683
0.171725
0.174825
0.177712
0.180489
0.183244
0.18606
0.189013
0.192174
0.195611
0.199389
0.203564
0.208177
0.213289
0.218879
0.224915
0.231332
0.238027
0.244834
0.251476
0.257659
0.263037
0.267239
0.269912
0.270813
0.269815
0.266967
0.262465
0.256621
0.249842
0.242495
0.234906
0.227349
0.220098
0.213269
0.206943
0.201159
0.195919
0.191195
0.186941
0.183097
0.179591
0.176349
0.173283
0.170315
0.167358
0.164331
0.161136
0.15767
0.153929
0.15059
0.148688
0.15255
0.153754
0.156155
0.159412
0.162661
0.165695
0.168593
0.171446
0.174334
0.177333
0.180518
0.183966
0.187758
0.191971
0.19669
0.201987
0.207941
0.214587
0.221924
0.229914
0.238464
0.24741
0.256411
0.265021
0.272725
0.278921
0.282984
0.284472
0.283149
0.2791
0.272683
0.264468
0.255117
0.245222
0.235241
0.225613
0.2166
0.208315
0.200819
0.19411
0.188147
0.182862
0.17817
0.173978
0.170204
0.166759
0.163561
0.160522
0.157552
0.154569
0.151489
0.148234
0.144872
0.142074
0.140541
0.144718
0.145684
0.147678
0.150554
0.153556
0.15643
0.159225
0.162022
0.164898
0.167926
0.171183
0.174755
0.178733
0.183222
0.188321
0.194181
0.200888
0.208541
0.217239
0.227
0.237783
0.249452
0.261708
0.27388
0.285173
0.294593
0.301013
0.303533
0.301701
0.295662
0.286138
0.274231
0.261067
0.247555
0.23444
0.22227
0.211225
0.201392
0.192752
0.185221
0.178676
0.172997
0.168045
0.16372
0.159898
0.156458
0.153298
0.15033
0.147472
0.144646
0.141775
0.1388
0.135833
0.133496
0.132272
0.136734
0.137517
0.139149
0.141614
0.144296
0.146919
0.149501
0.152114
0.15483
0.157721
0.160868
0.164363
0.16831
0.172838
0.178082
0.184226
0.191433
0.199897
0.209808
0.221382
0.234693
0.249716
0.266277
0.283688
0.300662
0.315553
0.326195
0.330661
0.327964
0.318406
0.303565
0.285666
0.266719
0.248164
0.231102
0.215942
0.202763
0.191481
0.181903
0.173804
0.166984
0.161245
0.156368
0.152178
0.148525
0.145284
0.142346
0.139615
0.137012
0.134461
0.131891
0.129259
0.126711
0.124801
0.12384
0.128559
0.129179
0.130482
0.132525
0.134826
0.137107
0.139365
0.141662
0.144064
0.146642
0.149474
0.152652
0.156292
0.160525
0.165558
0.171567
0.178796
0.187561
0.198228
0.211187
0.226919
0.245683
0.2676
0.292427
0.318548
0.343106
0.361883
0.370331
0.366007
0.349679
0.325128
0.297215
0.26949
0.244317
0.222635
0.204442
0.189437
0.177175
0.167236
0.159211
0.152683
0.147323
0.142884
0.139152
0.135948
0.133153
0.130644
0.128316
0.126113
0.123958
0.121786
0.119575
0.11748
0.115942
0.115152
0.120206
0.120701
0.121698
0.123287
0.125125
0.126976
0.12881
0.130669
0.13261
0.134692
0.136989
0.139581
0.142575
0.146124
0.150431
0.155693
0.162207
0.170366
0.180706
0.193944
0.210915
0.232707
0.260382
0.294532
0.334851
0.377099
0.412854
0.430295
0.422534
0.391702
0.348276
0.303548
0.263561
0.230765
0.204739
0.184481
0.168916
0.157037
0.14791
0.140826
0.135311
0.130934
0.12744
0.124577
0.122167
0.120085
0.11822
0.116488
0.114824
0.113175
0.111492
0.10977
0.108166
0.107031
0.106445
0.111689
0.11207
0.112763
0.113879
0.115213
0.116564
0.117884
0.119192
0.120528
0.121936
0.12347
0.125197
0.127206
0.129639
0.132627
0.136375
0.141165
0.147398
0.155657
0.166806
0.182161
0.203613
0.233994
0.276611
0.335142
0.409138
0.482796
0.52264
0.506843
0.441725
0.360343
0.289515
0.236264
0.197968
0.171038
0.15228
0.139113
0.129787
0.123119
0.118323
0.114815
0.112207
0.110215
0.108617
0.107327
0.106214
0.105193
0.104195
0.103187
0.102145
0.10103
0.0998591
0.0987765
0.098024
0.0976078
0.10305
0.103318
0.103702
0.104335
0.105139
0.105954
0.106702
0.107375
0.107991
0.108577
0.109161
0.109781
0.110481
0.111346
0.112428
0.113866
0.115817
0.118505
0.122379
0.128051
0.13655
0.149984
0.171994
0.209266
0.274424
0.391302
0.550166
0.651456
0.614946
0.462265
0.310292
0.21725
0.163852
0.133138
0.115279
0.104864
0.0987465
0.0951166
0.0931378
0.0921054
0.0915877
0.0914642
0.091515
0.0916197
0.091737
0.0918022
0.0917853
0.0916631
0.0914195
0.0910432
0.0905351
0.0899311
0.0893619
0.0889904
0.0887462
0.0940326
0.0941447
0.0942871
0.0945934
0.0949823
0.0952909
0.0954384
0.0954166
0.0952327
0.0948929
0.094397
0.0937418
0.0929164
0.0919143
0.0906967
0.0892314
0.0874579
0.0852818
0.0825735
0.0791039
0.074525
0.0685882
0.0604723
0.0489697
0.0327763
0.119557
0.390533
0.238233
0.0721091
0.00988527
0.0188849
0.0281597
0.0364056
0.0435577
0.0498261
0.0551176
0.0596882
0.0635969
0.0669391
0.0697963
0.0722139
0.0742415
0.0759197
0.0772805
0.0783499
0.0791498
0.079697
0.0800088
0.0801096
0.0800561
0.0799769
0.0799844
0.0799637
0.0834856
0.0837155
0.0842661
0.0848211
0.0850354
0.0848409
0.0843355
0.0835596
0.0825282
0.081236
0.0796276
0.077647
0.0752257
0.072267
0.0686357
0.0641363
0.0584684
0.0511546
0.0414345
0.0279843
0.00838695
-0.0219842
-0.0729384
-0.168471
-0.305065
-0.484495
-0.312023
-0.168736
-0.0942506
-0.0498812
-0.020887
-0.000529614
0.014508
0.0260402
0.0351169
0.0423953
0.0483067
0.0531367
0.0570866
0.0603468
0.0630142
0.0651768
0.06692
0.0682575
0.0692474
0.0699304
0.0703425
0.0705164
0.070496
0.0703788
0.0780029
0.077717
0.0774451
0.0767299
0.0757723
0.0747207
0.0735185
0.072071
0.0702874
0.068117
0.0654897
0.0623244
0.0585038
0.053869
0.0482221
0.0412825
0.0326358
0.0216657
0.00743039
-0.0115629
-0.0377416
-0.0752349
-0.132597
-0.223419
-0.314191
-0.384756
-0.266611
-0.175081
-0.115788
-0.0745446
-0.0445983
-0.022159
-0.00490771
0.00862369
0.0194007
0.0280869
0.0351563
0.0409466
0.0456868
0.049581
0.0527719
0.0553527
0.0574451
0.0590943
0.0603269
0.0611432
0.0615119
0.0614336
0.0612245
0.0680213
0.0680783
0.0677581
0.0671344
0.0661956
0.0648867
0.0632084
0.0611513
0.0586747
0.0557125
0.0521747
0.0479495
0.0428947
0.0367914
0.0294159
0.0204458
0.00944209
-0.00419832
-0.021313
-0.0430182
-0.0706961
-0.105847
-0.148884
-0.196802
-0.220742
-0.233192
-0.366787
-0.338843
-0.274394
-0.204944
-0.150104
-0.10768
-0.0749259
-0.0493576
-0.0291988
-0.0131124
-0.000140654
0.0104087
0.0190523
0.026176
0.032067
0.0369486
0.0409948
0.0443401
0.0470984
0.0493628
0.0512155
0.0527255
0.0539243
0.0547172
0.0548561
0.0604335
0.0606018
0.0602315
0.059243
0.0577874
0.0559819
0.0538292
0.0512737
0.0482414
0.0446465
0.0403887
0.0353468
0.0293676
0.0222082
0.0136576
0.00341181
-0.0089005
-0.0237249
-0.0416487
-0.0632378
-0.0889011
-0.118828
-0.152354
-0.182327
-0.193915
-0.20403
-0.224371
-0.250816
-0.285412
-0.312181
-0.319449
-0.306987
-0.261052
-0.205479
-0.158909
-0.121187
-0.0905017
-0.0654619
-0.0451079
-0.0284325
-0.0146679
-0.00331267
0.0061225
0.0140017
0.0205889
0.0261084
0.0307375
0.0346195
0.037875
0.040606
0.042886
0.0447355
0.046087
0.0468284
0.0469602
0.0532096
0.0533479
0.0528888
0.0517204
0.0499886
0.0478399
0.0453084
0.0423466
0.0388755
0.0347976
0.0300062
0.0243809
0.0177681
0.00991908
0.000629372
-0.0103357
-0.0232708
-0.0385157
-0.0564353
-0.0773557
-0.101506
-0.128787
-0.157828
-0.179554
-0.186448
-0.199398
-0.224562
-0.253581
-0.28199
-0.295892
-0.29186
-0.273485
-0.235989
-0.192082
-0.153975
-0.122111
-0.0953467
-0.072862
-0.0539721
-0.0380889
-0.0246981
-0.013409
-0.00385629
0.00426197
0.0111226
0.0169436
0.0218859
0.0260923
0.029667
0.0326995
0.0352637
0.0373683
0.0389185
0.0397695
0.0398846
0.0462988
0.0464334
0.0459524
0.0447143
0.0428394
0.0404847
0.0377088
0.034479
0.0307197
0.0263361
0.0212169
0.0152414
0.00826198
0.000110402
-0.00946466
-0.0206396
-0.0336703
-0.0488271
-0.0664011
-0.0866804
-0.10988
-0.136076
-0.16404
-0.184787
-0.19176
-0.20346
-0.225226
-0.248379
-0.265026
-0.264815
-0.250095
-0.228878
-0.1994
-0.167236
-0.138566
-0.113695
-0.0920224
-0.0731494
-0.056775
-0.0425948
-0.0303719
-0.0198227
-0.0107383
-0.0029074
0.00383908
0.00964526
0.0146393
0.0189389
0.0226411
0.0258257
0.0285463
0.0307835
0.0324158
0.0332926
0.033407
0.0399516
0.0401117
0.0396476
0.0383916
0.0364454
0.0339837
0.0310802
0.0277135
0.0238141
0.0192941
0.0140533
0.00798098
0.000948905
-0.00721813
-0.0167368
-0.0277467
-0.0404823
-0.0552044
-0.0722054
-0.0918152
-0.114476
-0.140709
-0.169474
-0.191858
-0.200979
-0.209894
-0.223191
-0.233587
-0.234935
-0.221706
-0.198787
-0.177301
-0.157425
-0.137048
-0.11764
-0.0997399
-0.083356
-0.0684898
-0.0551227
-0.0431898
-0.0325959
-0.023229
-0.0149847
-0.00774724
-0.00140281
0.00413019
0.0089583
0.0131729
0.0168387
0.020026
0.0227706
0.0250345
0.0266698
0.0275236
0.0276048
0.0342119
0.0343903
0.0339583
0.0327368
0.0308112
0.0283466
0.0254299
0.0220556
0.0181651
0.0136779
0.00850313
0.00253892
-0.00432199
-0.0122108
-0.0213347
-0.0318544
-0.0439584
-0.0579128
-0.0740165
-0.0926798
-0.114493
-0.140092
-0.168931
-0.193516
-0.205862
-0.212236
-0.216751
-0.214444
-0.20183
-0.17774
-0.14904
-0.128687
-0.116648
-0.10609
-0.0949463
-0.0834626
-0.0719992
-0.0609711
-0.050599
-0.0409944
-0.0322052
-0.0242345
-0.0170572
-0.0106322
-0.00490604
0.000178617
0.00467825
0.00865063
0.0121475
0.0152176
0.0178769
0.0200661
0.0216246
0.0223982
0.0224224
0.0291405
0.0293512
0.0289715
0.0278287
0.0259906
0.0236062
0.0207787
0.0175136
0.0137639
0.00946122
0.00452711
-0.00112725
-0.00759383
-0.0149824
-0.0234395
-0.0331591
-0.044286
-0.0570564
-0.07177
-0.0888408
-0.10882
-0.132429
-0.159438
-0.184512
-0.199908
-0.206
-0.204801
-0.193871
-0.172565
-0.141509
-0.108762
-0.0882244
-0.0819022
-0.0785446
-0.0735664
-0.0671551
-0.0598745
-0.0521922
-0.0445313
-0.0371211
-0.0300942
-0.0235333
-0.0174792
-0.0119453
-0.00692552
-0.0024012
0.001656
0.00528038
0.00850759
0.0113676
0.013859
0.0159073
0.0173458
0.0180328
0.0179995
0.0247462
0.0249731
0.0246489
0.023624
0.021936
0.01972
0.0170764
0.0140255
0.0105342
0.00654867
0.00200545
-0.00316632
-0.00904587
-0.0157143
-0.0232766
-0.0318986
-0.0417161
-0.052904
-0.0657209
-0.0804975
-0.0977047
-0.11793
-0.141284
-0.164269
-0.181536
-0.189014
-0.185773
-0.171559
-0.147642
-0.114584
-0.0801601
-0.0588109
-0.0552976
-0.0565568
-0.0555913
-0.0526675
-0.0484219
-0.0434005
-0.0379613
-0.0324265
-0.0269736
-0.0217198
-0.0167498
-0.0121131
-0.00783383
-0.00391737
-0.000356965
0.00286199
0.0057587
0.00834749
0.0106112
0.0124619
0.0137318
0.0142948
0.0142075
0.021025
0.021275
0.0210261
0.0201379
0.0186403
0.0166511
0.0142661
0.0115155
0.00837903
0.00481758
0.000784648
-0.00377053
-0.00890589
-0.014682
-0.0211703
-0.0284749
-0.0367216
-0.0460241
-0.0565506
-0.0685268
-0.0822661
-0.098185
-0.116479
-0.135256
-0.152231
-0.161944
-0.159978
-0.146499
-0.123954
-0.0940855
-0.0618573
-0.0404096
-0.0372442
-0.0404756
-0.0415781
-0.0407448
-0.038501
-0.0353141
-0.0315896
-0.0275393
-0.0233918
-0.0192795
-0.0152936
-0.0114989
-0.00793514
-0.00462417
-0.00157494
0.00121285
0.00374582
0.00602565
0.00802307
0.00964207
0.0107259
0.0111689
0.0110244
0.0179567
0.0182277
0.0180563
0.0173254
0.0160549
0.0143431
0.0122776
0.00989373
0.00718453
0.00412583
0.000687723
-0.00316198
-0.00745732
-0.0122367
-0.0175414
-0.0234186
-0.0299358
-0.0371655
-0.0451934
-0.0541271
-0.0641036
-0.0753486
-0.0880807
-0.101688
-0.116255
-0.126771
-0.127834
-0.118439
-0.0999247
-0.0749115
-0.0479382
-0.0286292
-0.0257239
-0.0294769
-0.0312669
-0.0313762
-0.0302871
-0.0283246
-0.0257558
-0.0228401
-0.0197271
-0.0165616
-0.013423
-0.0103769
-0.00746925
-0.00473033
-0.00217776
0.000180396
0.00234156
0.00429752
0.00600981
0.00738128
0.00827038
0.00859024
0.00839589
0.0154987
0.0157883
0.0157006
0.0151353
0.0141168
0.0127165
0.0110102
0.00903549
0.00679732
0.00428565
0.0014863
-0.00161513
-0.00502882
-0.00876616
-0.0128368
-0.0172538
-0.0220329
-0.0271974
-0.0327494
-0.0386815
-0.045
-0.051807
-0.0593375
-0.0679072
-0.0792765
-0.089163
-0.0924588
-0.0872849
-0.0742494
-0.0555219
-0.0353053
-0.0206573
-0.018752
-0.0222563
-0.023948
-0.024261
-0.0236783
-0.0224233
-0.0206479
-0.0185263
-0.0162082
-0.0137903
-0.0113544
-0.00895188
-0.00662599
-0.00440822
-0.00231925
-0.000372023
0.00142524
0.00305716
0.00447982
0.0056001
0.006294
0.0064954
0.00626024
0.0135984
0.0139002
0.0138971
0.0135147
0.0127529
0.0116744
0.0103436
0.00879687
0.00704676
0.00509723
0.0029483
0.000602958
-0.00193378
-0.00465225
-0.0075388
-0.0105722
-0.0137214
-0.0169392
-0.0201911
-0.0233987
-0.0264793
-0.029456
-0.0326058
-0.0368305
-0.0450253
-0.0541237
-0.0588639
-0.0571751
-0.0494061
-0.0372556
-0.0239483
-0.0149972
-0.0148002
-0.0176522
-0.018797
-0.0188914
-0.0184134
-0.0174968
-0.0162165
-0.014657
-0.012921
-0.0110891
-0.00922277
-0.00736202
-0.00554087
-0.00378719
-0.00212132
-0.000557413
0.000893005
0.00221084
0.00334995
0.00422714
0.00473515
0.00483052
0.00456037
0.0122028
0.0125114
0.0125834
0.0123695
0.011864
0.0111104
0.0101561
0.00903669
0.00777007
0.00636864
0.004845
0.00321453
0.00149811
-0.000275386
-0.00206854
-0.0038345
-0.00551425
-0.00703381
-0.00829804
-0.00920126
-0.00962223
-0.00954957
-0.00934204
-0.0104025
-0.0161754
-0.0243234
-0.0302414
-0.0317183
-0.0285867
-0.0222775
-0.0153524
-0.0113591
-0.0125547
-0.0145767
-0.0149971
-0.0146976
-0.0141217
-0.0133385
-0.012348
-0.0111762
-0.00987439
-0.00850112
-0.00709531
-0.00568736
-0.00430062
-0.00295631
-0.00167198
-0.000461062
0.00066388
0.00168187
0.00254898
0.00319108
0.00352926
0.00353059
0.00323413
0.0112486
0.0115638
0.0117056
0.0116427
0.0113703
0.0109246
0.0103307
0.00961637
0.00880421
0.0079137
0.00696645
0.00598943
0.00501526
0.00408496
0.00324964
0.00257326
0.002136
0.0020338
0.00237666
0.00329491
0.00491168
0.00723496
0.00982072
0.0109045
0.00655736
-0.00136456
-0.008333
-0.0122675
-0.0131333
-0.0116618
-0.00950307
-0.0091222
-0.0109441
-0.0120922
-0.011821
-0.0111435
-0.0104275
-0.00968846
-0.00888661
-0.00799654
-0.00703144
-0.00602171
-0.00499568
-0.00397026
-0.00295877
-0.00197557
-0.00103427
-0.000146383
0.000675541
0.00141108
0.00202053
0.00244463
0.00262505
0.00254515
0.00223053
0.0106745
0.0109839
0.011181
0.0112566
0.0112035
0.0110313
0.0107604
0.0104132
0.0100112
0.00957866
0.00914276
0.00873692
0.00840134
0.0081853
0.00814892
0.00836568
0.00892377
0.00992679
0.0114921
0.0137438
0.0167881
0.0206186
0.0246811
0.026925
0.0232797
0.0153708
0.00726744
0.00107002
-0.00272859
-0.00471109
-0.00597124
-0.00750798
-0.00915648
-0.00947479
-0.00870082
-0.00778184
-0.00699254
-0.00630761
-0.00566309
-0.00501009
-0.00432875
-0.00362929
-0.00292729
-0.00223268
-0.00154912
-0.000886633
-0.000254579
0.000337632
0.000878532
0.00134879
0.00171646
0.00193714
0.00197693
0.00182972
0.00150482
0.0104033
0.0107132
0.0109541
0.0111379
0.0112638
0.0113305
0.0113439
0.0113178
0.0112723
0.0112332
0.0112314
0.0113041
0.0114956
0.0118582
0.0124549
0.0133608
0.014664
0.0164655
0.018876
0.0220101
0.0259492
0.0306015
0.0354554
0.0381518
0.0346512
0.0263632
0.0173505
0.00968261
0.0038053
-0.000319177
-0.0032237
-0.00541193
-0.00651329
-0.00622107
-0.00522985
-0.00428744
-0.00355923
-0.00300029
-0.00253871
-0.00211868
-0.00170542
-0.00128696
-0.000875238
-0.00047709
-9.08248e-05
0.000283052
0.000633885
0.000954393
0.00123428
0.00145763
0.00160011
0.00163795
0.00155289
0.00134679
0.00101823
0.0103648
0.0106688
0.0109388
0.0112128
0.0114873
0.0117514
0.0120008
0.0122433
0.0124943
0.0127798
0.0131316
0.0135875
0.014192
0.014997
0.0160632
0.0174616
0.0192734
0.021589
0.0245053
0.0281163
0.0324799
0.037479
0.0424131
0.0450917
0.0415725
0.0331372
0.0235303
0.0149001
0.00808906
0.00308499
-0.000412815
-0.00227246
-0.00267671
-0.00212319
-0.00122717
-0.000486411
2.54275e-05
0.000360673
0.000584393
0.000749454
0.000892086
0.00103296
0.00117214
0.0012968
0.00140856
0.0015152
0.00160766
0.00167709
0.00171416
0.00170677
0.00164168
0.00151216
0.00132142
0.00107108
0.000744852
0.0104947
0.0107889
0.0110835
0.0114235
0.0118078
0.0122295
0.0126685
0.0131243
0.0136109
0.0141512
0.0147759
0.0155213
0.0164291
0.0175474
0.0189314
0.0206432
0.0227521
0.0253331
0.0284637
0.0322155
0.0366179
0.0415448
0.0464237
0.0487878
0.0450926
0.0366554
0.0270209
0.0183234
0.0113609
0.00636216
0.00336814
0.00226286
0.00229406
0.00277314
0.00330246
0.00364864
0.00380443
0.00382111
0.00374699
0.00362369
0.00348364
0.00334557
0.00321592
0.00308653
0.0029419
0.00279616
0.00264784
0.00248396
0.00229571
0.0020752
0.00182022
0.00154132
0.00125686
0.0009736
0.000651298
0.010734
0.0110191
0.011325
0.0117139
0.0121817
0.0127157
0.013296
0.0139132
0.0145759
0.0153042
0.0161257
0.0170732
0.0181839
0.0194996
0.0210668
0.0229366
0.0251634
0.0278047
0.0309172
0.0345506
0.0387213
0.0432956
0.04769
0.0497244
0.0461736
0.0382452
0.0291434
0.0209091
0.0144914
0.0102595
0.00822903
0.00786302
0.00806751
0.0081978
0.00819693
0.00802443
0.00772874
0.00735438
0.00693494
0.00649648
0.00606123
0.0056424
0.00524654
0.0048686
0.00448964
0.00410775
0.00373495
0.00335572
0.00296008
0.00254343
0.00211681
0.00170409
0.00134021
0.00102932
0.0007163
0.011032
0.0113076
0.011625
0.0120355
0.0125581
0.013171
0.0138487
0.0145783
0.0153626
0.0162179
0.0171677
0.0182395
0.0194649
0.0208779
0.0225151
0.0244149
0.0266171
0.0291612
0.0320839
0.0354154
0.0391487
0.0431786
0.0470885
0.0489203
0.0457728
0.0386549
0.0305041
0.023256
0.0180239
0.0150809
0.0140476
0.0141263
0.0141948
0.0138323
0.0132225
0.0124772
0.0116867
0.0108854
0.0100948
0.00932719
0.00859262
0.00789722
0.00724362
0.00662516
0.00602752
0.00542977
0.00484752
0.00427074
0.00368785
0.00310359
0.00253567
0.00202344
0.00160132
0.00126751
0.000960234
0.0113525
0.0116151
0.0119287
0.012353
0.012905
0.013564
0.0143031
0.0151023
0.0159611
0.0168905
0.0179093
0.0190399
0.0203067
0.0217355
0.0233527
0.0251851
0.0272577
0.0295932
0.0322105
0.0351214
0.0383211
0.0417594
0.0451607
0.0468043
0.0442768
0.0383811
0.0316734
0.0260243
0.0222866
0.0204307
0.0201182
0.0203975
0.0202051
0.0193231
0.0181151
0.0168135
0.0155305
0.0143048
0.0131456
0.0120544
0.0110295
0.0100706
0.00917411
0.00833068
0.00752705
0.0067368
0.00596259
0.00520659
0.0044535
0.00370837
0.00300404
0.0023891
0.00191648
0.00157483
0.00129342
0.0116487
0.011901
0.0122077
0.0126337
0.0131932
0.0138756
0.014645
0.0154796
0.0163737
0.0173342
0.0183743
0.019511
0.020762
0.022145
0.0236771
0.0253737
0.0272471
0.0293061
0.0315572
0.0340025
0.0366374
0.0394612
0.0423217
0.0439563
0.0423208
0.0379798
0.0329999
0.0289124
0.0264715
0.0256963
0.0260746
0.026166
0.0257221
0.0243603
0.0226369
0.020838
0.0191105
0.0174951
0.0159958
0.0146059
0.0133155
0.0121155
0.0109986
0.00995227
0.00896289
0.00801048
0.00706853
0.00614678
0.00524846
0.00437663
0.00356829
0.00288734
0.00237306
0.00202463
0.00175311
0.0118953
0.0121359
0.0124347
0.0128523
0.0134104
0.0140946
0.0148715
0.0157153
0.016615
0.0175733
0.018599
0.0197036
0.0208983
0.0221938
0.0235987
0.0251185
0.0267564
0.0285119
0.0303792
0.0323503
0.0344232
0.0366642
0.0391054
0.0408192
0.0401581
0.0373843
0.0341067
0.0315506
0.0302191
0.0300564
0.0305292
0.0308521
0.0304447
0.0286739
0.0265803
0.0243828
0.0222887
0.0203462
0.0185578
0.0169113
0.0153919
0.0139846
0.0126774
0.0114559
0.0103049
0.0092033
0.00813054
0.00707295
0.00605227
0.00507558
0.00418703
0.00344771
0.00291163
0.00256025
0.00230129
0.0120804
0.0123077
0.0125949
0.0129995
0.0135444
0.014219
0.0149879
0.0158216
0.0167062
0.0176399
0.0186272
0.0196749
0.0207887
0.0219728
0.023229
0.024557
0.0259522
0.0274051
0.0289013
0.0304286
0.0320009
0.0337194
0.0357385
0.0374922
0.037697
0.0363693
0.0346085
0.033367
0.0330316
0.0334857
0.0342763
0.0346337
0.0336624
0.0320479
0.0298917
0.0273209
0.0249541
0.022767
0.0207563
0.0189086
0.017207
0.0156337
0.0141725
0.0128091
0.0115266
0.0103047
0.00912376
0.00796505
0.0068448
0.00579044
0.00484361
0.00407172
0.00352151
0.00316973
0.00292831
0.0122005
0.0124131
0.0126841
0.0130705
0.0135957
0.0142508
0.0150021
0.0158147
0.0166717
0.0175677
0.0185035
0.0194814
0.020503
0.0215676
0.0226731
0.0238132
0.0249772
0.0261506
0.0273161
0.0284585
0.0295921
0.0308415
0.032435
0.0341362
0.0349661
0.0347566
0.0342482
0.0341008
0.0346206
0.0356799
0.0367819
0.0372429
0.0364556
0.0344323
0.0319241
0.0295675
0.027033
0.0246944
0.0225367
0.0205506
0.0187193
0.0170255
0.0154515
0.0139821
0.0126009
0.0112893
0.0100263
0.00880096
0.00761626
0.00650357
0.00552145
0.00473374
0.00417728
0.0038328
0.00360601
0.0122388
0.0124398
0.0126949
0.0130593
0.0135627
0.0141967
0.0149243
0.0157118
0.0165368
0.0173902
0.0182702
0.0191756
0.0201053
0.0210557
0.0220205
0.0229894
0.02395
0.0248847
0.0257725
0.0265949
0.0273654
0.0282073
0.0293758
0.0308582
0.0320078
0.0325807
0.0330172
0.0338147
0.035094
0.0366864
0.0381575
0.038797
0.038035
0.0361089
0.0336218
0.0309814
0.0284635
0.0261215
0.0238734
0.021808
0.0199003
0.0181324
0.0164878
0.0149512
0.0135062
0.0121357
0.0108212
0.00955065
0.00833809
0.00719572
0.0061997
0.00540789
0.00486097
0.00452236
0.00430941
0.0121936
0.012381
0.0126208
0.0129667
0.0134498
0.0140611
0.0147691
0.0155324
0.0163259
0.0171382
0.0179645
0.0188029
0.0196495
0.0204985
0.0213415
0.0221677
0.0229621
0.0237059
0.0243766
0.0249534
0.0254433
0.0259499
0.0267217
0.0278827
0.0290872
0.0301198
0.0312101
0.0326444
0.0345331
0.0366589
0.0385081
0.0393898
0.0387439
0.0368381
0.0343925
0.0318333
0.0293333
0.0269577
0.0247342
0.0226758
0.020737
0.0189399
0.0172668
0.0157003
0.0142257
0.0128283
0.0114918
0.0102063
0.00898396
0.00785312
0.00685717
0.0060792
0.00554105
0.00521705
0.00501582
0.0120829
0.0122562
0.0124798
0.012807
0.0132708
0.0138654
0.0145542
0.0152961
0.0160618
0.0168379
0.0176187
0.0183997
0.0191764
0.0199426
0.0206895
0.0214052
0.0220748
0.0226792
0.0231959
0.0236026
0.0238983
0.0241584
0.0245892
0.0253818
0.0264406
0.0276235
0.0290726
0.0309621
0.0332769
0.0357636
0.0379421
0.0390806
0.0386181
0.0368415
0.0344798
0.0319916
0.0295707
0.0272827
0.0251374
0.0231169
0.0212267
0.0194525
0.0177845
0.0162234
0.0147507
0.0133565
0.0120265
0.0107525
0.00954315
0.00844573
0.00747753
0.00672002
0.00620288
0.00588924
0.00570278
0.0119281
0.0120884
0.0122962
0.0126028
0.0130479
0.0136261
0.0142977
0.0150215
0.0157654
0.0165126
0.0172564
0.0179923
0.018716
0.0194208
0.0200983
0.0207373
0.0213235
0.021839
0.0222626
0.0225718
0.0227575
0.0228654
0.0230422
0.0234843
0.0242714
0.0254073
0.0269527
0.0290238
0.031572
0.0343233
0.0367375
0.0380712
0.0377841
0.0361621
0.0339461
0.0315959
0.0293002
0.0271225
0.0250785
0.0231662
0.0213628
0.0196509
0.0180524
0.0165482
0.0150919
0.0137169
0.0124195
0.0111811
0.0100115
0.00894702
0.00803853
0.00731238
0.0068168
0.00652201
0.00634492
0.0117509
0.0118964
0.0120878
0.0123769
0.0128009
0.0133586
0.0140174
0.0147253
0.0154518
0.0161778
0.016895
0.0175994
0.0182865
0.0189509
0.0195851
0.0201789
0.02072
0.0211924
0.0215774
0.021853
0.0220054
0.0220498
0.0220754
0.022237
0.0227013
0.023615
0.0250674
0.027112
0.029693
0.0325263
0.0350488
0.0365175
0.0363815
0.0349259
0.0328875
0.0307125
0.0285848
0.0265624
0.0246575
0.0228663
0.0211767
0.019577
0.0180498
0.0165928
0.0152112
0.0139137
0.0126738
0.0114886
0.0103726
0.00936203
0.00849207
0.0078253
0.00736928
0.00708694
0.00691992
0.0115514
0.011687
0.0118631
0.0121331
0.0125394
0.0130815
0.0137239
0.0144206
0.0151344
0.015846
0.016546
0.0172307
0.0178965
0.0185392
0.0191527
0.019729
0.0202577
0.020726
0.0211177
0.0214133
0.0215925
0.0216481
0.0216118
0.0215838
0.0217425
0.0223313
0.023549
0.025442
0.0279031
0.0306368
0.0331159
0.0345946
0.0345495
0.0332556
0.0314115
0.0294444
0.0275111
0.0256676
0.0239276
0.0222831
0.0207238
0.0192407
0.0178298
0.0164826
0.0151947
0.0139587
0.0127792
0.0116548
0.0105126
0.00968896
0.00887787
0.00826054
0.00783534
0.00756954
0.0074116
0.0113526
0.0114745
0.0116359
0.0118905
0.0122784
0.0128057
0.0134343
0.0141193
0.0148235
0.0155252
0.0162151
0.0168895
0.0175462
0.0181822
0.0187934
0.0193739
0.0199161
0.02041
0.0208427
0.0211965
0.0214495
0.0215735
0.0215566
0.0214347
0.0213623
0.0216222
0.0224835
0.024061
0.0262667
0.0287975
0.0311006
0.0324713
0.0324318
0.0312595
0.0296198
0.0278801
0.0261657
0.0245225
0.0229563
0.0214687
0.0200544
0.0187043
0.0174118
0.0161723
0.0149855
0.0138518
0.0127677
0.0117404
0.0108131
0.00994359
0.00893338
0.00859101
0.00824085
0.00795576
0.00780095
0.0111679
0.0112784
0.0114283
0.0116647
0.0120353
0.0125425
0.0131554
0.0138279
0.0145226
0.0152169
0.0159011
0.0165719
0.017228
0.0178682
0.0184902
0.0190904
0.0196638
0.0202036
0.0207002
0.0211383
0.0214929
0.0217214
0.0217766
0.0216377
0.0214113
0.0213892
0.021879
0.0230544
0.0248749
0.0270413
0.0290413
0.0302115
0.0301169
0.0290474
0.0276063
0.0261005
0.0246255
0.0231925
0.0218115
0.0204872
0.0192197
0.0180055
0.01684
0.0157186
0.0146397
0.0136031
0.0126108
0.0116678
0.0107855
0.010014
0.00943583
0.00897395
0.00853733
0.00815124
0.00807672
0.0109892
0.0110899
0.0112284
0.0114519
0.0118036
0.0122912
0.0128868
0.0135457
0.0142299
0.0149174
0.0155979
0.0162685
0.016929
0.0175797
0.0182201
0.0188488
0.0194636
0.0200604
0.0206324
0.0211662
0.0216351
0.0219878
0.0221452
0.0220462
0.0217497
0.0215161
0.0216756
0.0224243
0.0237571
0.0254474
0.0270326
0.0279034
0.0277066
0.0267171
0.0254614
0.0242006
0.022958
0.0217386
0.0205473
0.0193905
0.0182717
0.0171919
0.0161502
0.0151444
0.0141745
0.0132412
0.0123455
0.0114939
0.0106997
0.00997872
0.00935654
0.00888189
0.00857083
0.00838759
0.00825342
0.0108071
0.0108977
0.0110276
0.0112443
0.011581
0.0120502
0.012625
0.0132673
0.0139396
0.014619
0.0152955
0.0159666