/*--------------------------------*- C++ -*----------------------------------*\
  =========                 |
  \\      /  F ield         | OpenFOAM: The Open Source CFD Toolbox
   \\    /   O peration     | Website:  https://openfoam.org
    \\  /    A nd           | Version:  7
     \\/     M anipulation  |
\*---------------------------------------------------------------------------*/
FoamFile
{
    version     2.0;
    format      ascii;
    class       surfaceScalarField;
    location    "75";
    object      phi;
}
// * * * * * * * * * * * * * * * * * * * * * * * * * * * * * * * * * * * * * //

dimensions      [0 3 -1 0 0 0 0];

internalField   nonuniform List<scalar> 
34768
(
8.19194e-05
0.000970004
-0.000149632
-4.45899e-05
2.59319e-05
0.00092095
-1.58431e-05
1.08755e-05
0.000907461
-8.27808e-06
6.72908e-06
0.000904244
-5.35255e-06
4.61971e-06
0.000903529
-4.29468e-06
3.91498e-06
0.000903177
-3.62785e-06
3.51682e-06
0.000903109
-3.45254e-06
3.43494e-06
0.000903117
-3.1422e-06
3.08172e-06
0.000903261
-3.23419e-06
3.01142e-06
0.000903324
-3.09453e-06
2.99826e-06
0.000903299
-3.00308e-06
3.22636e-06
0.000903281
-3.04762e-06
2.98614e-06
0.000903567
-3.22017e-06
3.17102e-06
0.000903556
-3.2157e-06
3.3771e-06
0.000903547
-3.33072e-06
3.30129e-06
0.000903839
-3.56308e-06
3.54205e-06
0.000903733
-3.51107e-06
3.69772e-06
0.000903827
-3.67374e-06
3.66768e-06
0.000903921
-3.85006e-06
3.75076e-06
0.000904116
-4.13941e-06
4.74652e-06
0.000904112
-5.54075e-06
6.35366e-06
0.000905208
-5.20338e-06
4.36174e-06
0.000904885
-3.59609e-06
4.06902e-06
0.000904622
-5.32709e-06
-3.75925e-07
0.0009093
-6.86498e-07
1.26607e-06
0.000908649
-1.16046e-06
8.21803e-07
0.000909459
-5.19502e-07
-2.58122e-08
0.000909668
5.92125e-07
-8.72282e-07
0.000909402
1.23663e-06
-1.34624e-06
0.000909233
1.38208e-06
-1.42413e-06
0.000909176
1.4326e-06
-1.40817e-06
0.0009091
1.39993e-06
-1.3798e-06
0.000909105
1.32581e-06
-1.31084e-06
0.00090912
1.31154e-06
-1.3023e-06
0.000909126
1.30844e-06
-1.30557e-06
0.000909132
1.31746e-06
-1.32139e-06
0.000909138
1.33963e-06
-1.45088e-06
0.000909244
1.77576e-06
-1.19501e-06
0.000909952
7.27544e-07
-5.55308e-07
0.000910359
4.95412e-07
-4.31995e-07
0.000910367
4.80581e-07
-5.27107e-07
0.000910275
5.8545e-07
-6.43535e-07
0.000910286
7.13783e-07
-6.85953e-07
0.000910098
7.71166e-07
-8.61217e-07
0.000910115
9.6621e-07
-1.08001e-06
0.000910037
1.21211e-06
-1.35889e-06
0.000909969
1.52991e-06
-1.72466e-06
0.000910015
1.95386e-06
-2.3216e-06
0.000910087
2.5419e-06
-2.92597e-06
0.000910102
3.3944e-06
-4.06915e-06
0.000910292
4.67902e-06
-5.54897e-06
0.000910486
6.57149e-06
-7.68259e-06
0.000910626
8.71106e-06
-6.60607e-06
0.000907407
-4.12078e-06
-2.68688e-05
0.000940498
-0.000827627
0.000143788
0.000703643
-1.98722e-05
-0.000972492
-0.000148769
0.000116965
0.00100421
-0.000924974
-9.03453e-05
7.09658e-05
0.00094427
-0.000911504
-5.69152e-05
4.64897e-05
0.000921849
-0.000907101
-3.85903e-05
3.25924e-05
0.00091302
-0.000905381
-2.79582e-05
2.42544e-05
0.000909008
-0.000904434
-2.0805e-05
1.86679e-05
0.000906496
-0.000903903
-1.64824e-05
1.46939e-05
0.000905619
-0.000903776
-1.30991e-05
1.18877e-05
0.000904918
-0.00090366
-1.0879e-05
9.88906e-06
0.000904584
-0.000903709
-8.94674e-06
8.38597e-06
0.000904207
-0.000903598
-7.63653e-06
7.04597e-06
0.000904129
-0.000903512
-6.6433e-06
6.08623e-06
0.000904015
-0.000903743
-5.59895e-06
5.35026e-06
0.000903942
-0.000903686
-5.05867e-06
4.70246e-06
0.000903999
-0.000903637
-4.69212e-06
4.41691e-06
0.000903875
-0.000903794
-4.17857e-06
4.07753e-06
0.000903866
-0.000903755
-4.1038e-06
3.97086e-06
0.000903869
-0.00090382
-3.95695e-06
3.88879e-06
0.00090388
-0.000903889
-4.02963e-06
4.12187e-06
0.0009038
-0.000904161
-3.91389e-06
4.06352e-06
0.000904028
-0.000903937
-4.40157e-06
3.80373e-06
0.000904565
-0.000906995
-3.96374e-06
6.92365e-06
0.000904081
-0.00090334
-5.7983e-06
3.42127e-07
0.000908858
-0.000907868
-1.53731e-06
1.69357e-06
0.00090779
-0.000908343
-1.63772e-06
1.73862e-06
0.000908336
-0.000909633
-1.75472e-06
2.15134e-06
0.000909345
-0.000910134
-2.286e-06
2.02742e-06
0.000910516
-0.000909573
-1.66326e-06
1.87409e-06
0.0009095
-0.000909389
-2.06972e-06
1.76416e-06
0.000909844
-0.000909183
-1.5947e-06
1.70482e-06
0.000909234
-0.000909062
-1.78056e-06
1.97674e-06
0.000909037
-0.000909084
-2.03075e-06
2.1859e-06
0.000909109
-0.000909141
-2.24134e-06
2.34807e-06
0.000909221
-0.00090918
-2.19993e-06
2.3531e-06
0.00090922
-0.000909221
-2.2467e-06
2.24106e-06
0.000909424
-0.000909264
-2.0733e-06
2.00525e-06
0.000909533
-0.000909708
-1.6728e-06
1.4384e-06
0.000910145
-0.000909955
-6.38919e-07
3.34227e-07
0.000910463
-0.000910304
-2.62497e-07
1.81597e-07
0.000910588
-0.000910557
-3.28995e-08
-1.30551e-07
0.000910921
-0.000910615
5.64096e-07
-9.20436e-07
0.000911169
-0.000910582
1.45031e-06
-1.91417e-06
0.000911241
-0.000910563
2.55865e-06
-3.25319e-06
0.000911449
-0.000910568
4.03984e-06
-4.89934e-06
0.000911613
-0.000910606
5.87079e-06
-7.04866e-06
0.000911965
-0.000910801
8.27067e-06
-9.64928e-06
0.000912355
-0.000910984
1.12262e-05
-1.31387e-05
0.000913066
-0.000911417
1.52408e-05
-1.77069e-05
0.000914046
-0.00091201
2.06219e-05
-2.42248e-05
0.00091577
-0.000913173
2.85674e-05
-3.38082e-05
0.000918565
-0.000915196
4.04598e-05
-4.87388e-05
0.00092362
-0.000918958
5.98203e-05
-7.41239e-05
0.000933397
-0.000924715
9.38347e-05
-0.000124175
0.000955166
-0.000978578
0.000165383
-0.000143436
0.000956708
-0.000599479
8.49002e-05
0.000518675
-4.17608e-06
-0.0010217
-0.000134367
0.00013175
0.00102423
-0.000962527
-0.000112005
9.37744e-05
0.000980676
-0.000932952
-7.9774e-05
6.84882e-05
0.000944157
-0.00092017
-5.93225e-05
5.16268e-05
0.000927784
-0.000913898
-4.50827e-05
3.96894e-05
0.00091921
-0.000910317
-3.50432e-05
3.10245e-05
0.000914257
-0.000907796
-2.75942e-05
2.39815e-05
0.000911331
-0.000906772
-2.14926e-05
1.92924e-05
0.000908896
-0.000905903
-1.71968e-05
1.53037e-05
0.000907722
-0.000905413
-1.36431e-05
1.21289e-05
0.000906855
-0.000904897
-1.0997e-05
9.67469e-06
0.00090615
-0.000904796
-8.49947e-06
7.71258e-06
0.000905517
-0.00090447
-6.64643e-06
5.85414e-06
0.000905201
-0.000904296
-5.26567e-06
4.64286e-06
0.000904863
-0.000904258
-4.00855e-06
3.63693e-06
0.00090458
-0.000903945
-3.2426e-06
2.91089e-06
0.000904236
-0.000903952
-2.54493e-06
2.34374e-06
0.000904121
-0.000903874
-2.19871e-06
2.22236e-06
0.00090383
-0.000903911
-1.89072e-06
1.93241e-06
0.00090386
-0.000903662
-2.2084e-06
1.66317e-06
0.000904212
-0.000904726
-1.34069e-06
2.50016e-06
0.000903585
-0.000906023
-4.42194e-07
-1.12185e-06
0.000907622
-0.000907914
6.14962e-07
-1.84044e-07
0.000907532
-0.000907802
-3.93097e-07
5.01836e-07
0.000907759
-0.000908089
-5.80428e-07
6.63031e-07
0.000908087
-0.000908674
-1.00696e-06
1.53295e-06
0.000908244
-0.000910728
-2.05538e-06
2.00483e-06
0.000910889
-0.000909304
-1.85436e-06
2.1784e-06
0.000909105
-0.000910013
-2.52816e-06
2.83404e-06
0.000909844
-0.000909066
-2.80116e-06
3.03016e-06
0.000908985
-0.000908833
-3.29491e-06
3.65849e-06
0.000908628
-0.000908962
-3.86596e-06
4.14946e-06
0.000908847
-0.00090906
-4.31579e-06
4.40532e-06
0.000909145
-0.000909342
-4.51962e-06
4.60482e-06
0.000909438
-0.000909536
-4.50795e-06
4.47954e-06
0.00090975
-0.000909739
-4.26465e-06
4.01603e-06
0.000910177
-0.000910951
-3.17732e-06
1.90194e-06
0.000912418
-0.000910773
-1.83162e-06
1.82054e-06
0.000910977
-0.000910909
-1.31341e-06
8.59485e-07
0.000911555
-0.000911363
-3.0634e-07
-3.02195e-07
0.000912162
-0.000911745
1.01521e-06
-1.79544e-06
0.000912713
-0.00091207
2.78851e-06
-3.76524e-06
0.000913232
-0.000912463
4.9685e-06
-6.17935e-06
0.000913855
-0.00091296
7.73846e-06
-9.23894e-06
0.000914637
-0.000913515
1.10206e-05
-1.29945e-05
0.00091566
-0.000914419
1.52012e-05
-1.76737e-05
0.000917057
-0.000915617
2.0561e-05
-2.3623e-05
0.000918839
-0.000917568
2.733e-05
-3.13823e-05
0.000921774
-0.000920535
3.62851e-05
-4.19056e-05
0.000926303
-0.000925604
4.8609e-05
-5.64633e-05
0.000933599
-0.000934317
6.58327e-05
-7.71421e-05
0.00094576
-0.000950359
9.09734e-05
-0.000108066
0.000967576
-0.000985939
0.000130189
-0.000154726
0.00101058
-0.000907077
0.000157576
-9.16548e-05
0.000841233
-0.000458022
4.89677e-05
0.000411779
-2.81268e-06
-0.0010135
-0.00010074
0.000120365
0.000993785
-0.000997159
-0.000114546
0.000101062
0.00101056
-0.000955186
-8.83357e-05
7.7765e-05
0.000965675
-0.00093569
-6.87561e-05
6.10211e-05
0.000943342
-0.000924991
-5.42993e-05
4.83482e-05
0.000930859
-0.000918634
-4.31293e-05
3.84615e-05
0.000923219
-0.000914603
-3.43445e-05
3.063e-05
0.000918234
-0.000911938
-2.74413e-05
2.4449e-05
0.000914848
-0.000909712
-2.16887e-05
1.87489e-05
0.00091257
-0.000908527
-1.67838e-05
1.46879e-05
0.000910543
-0.000907592
-1.27107e-05
1.11716e-05
0.000909052
-0.000906688
-9.61671e-06
8.17396e-06
0.000908055
-0.000906044
-6.89042e-06
5.70388e-06
0.000907158
-0.000905707
-4.55792e-06
3.70095e-06
0.000906497
-0.000905043
-2.96967e-06
2.2226e-06
0.00090573
-0.000904733
-1.48896e-06
8.39452e-07
0.00090533
-0.000904362
-4.92693e-07
1.32499e-07
0.000904679
-0.000904122
2.34802e-07
-5.11028e-07
0.000904367
-0.000903711
4.05312e-07
-1.10417e-06
0.000904389
-0.000904426
1.42878e-06
-4.55057e-07
0.000903445
-0.000905684
2.63668e-06
-4.2794e-06
0.000907334
-0.00090706
3.80418e-06
-3.62852e-06
0.000906907
-0.000906979
3.0867e-06
-2.58027e-06
0.00090651
-0.000907167
2.17921e-06
-1.35199e-06
0.000906393
-0.000908374
6.90964e-07
-5.99783e-07
0.000908351
-0.000907408
-7.06692e-08
8.35031e-07
0.000906727
-0.000910667
-1.39772e-06
1.81063e-06
0.000910351
-0.00090862
-1.94943e-06
2.5677e-06
0.000908114
-0.000908877
-3.30365e-06
4.15877e-06
0.000908147
-0.000909073
-4.1045e-06
4.45908e-06
0.000908855
-0.000908236
-4.91932e-06
5.48128e-06
0.00090782
-0.000908552
-5.88389e-06
6.33176e-06
0.00090826
-0.000908984
-6.51604e-06
6.90957e-06
0.000908753
-0.000909413
-7.00887e-06
7.14331e-06
0.000909447
-0.00090987
-7.0751e-06
7.13817e-06
0.000909981
-0.000910451
-6.793e-06
6.37611e-06
0.000911045
-0.000913551
-5.34687e-06
4.94254e-06
0.000914134
-0.000911478
-4.32273e-06
3.72353e-06
0.000912257
-0.000912231
-3.0061e-06
2.30317e-06
0.000913114
-0.000912925
-1.37871e-06
3.59758e-07
0.000914122
-0.000913781
7.86188e-07
-1.83789e-06
0.000915008
-0.000914531
3.22653e-06
-4.63922e-06
0.000916116
-0.000915526
6.40389e-06
-8.01659e-06
0.000917307
-0.000916638
1.01048e-05
-1.2177e-05
0.000918874
-0.000917977
1.45574e-05
-1.71732e-05
0.000920752
-0.000919816
2.00469e-05
-2.32252e-05
0.000923148
-0.000922532
2.67352e-05
-3.06472e-05
0.000926592
-0.000926481
3.49964e-05
-3.98836e-05
0.00093151
-0.000932442
4.5461e-05
-5.15611e-05
0.000938677
-0.000941693
5.86698e-05
-6.66668e-05
0.000949819
-0.000956954
7.58696e-05
-8.61424e-05
0.000967349
-0.000983419
9.76288e-05
-0.000111766
0.000997669
-0.00102553
0.000126629
-0.000130778
0.00102978
-0.000772229
0.000102312
-3.93655e-05
0.000709364
-0.000375943
2.96542e-05
0.000347844
-1.65504e-06
-0.000968936
-7.18443e-05
9.93937e-05
0.000941291
-0.0010209
-0.000104938
9.81289e-05
0.00102763
-0.000975485
-8.83425e-05
7.88842e-05
0.00098486
-0.000950705
-7.07596e-05
6.36215e-05
0.000957758
-0.000936803
-5.7236e-05
5.15013e-05
0.000942452
-0.000927929
-4.63244e-05
4.15599e-05
0.000932606
-0.00092207
-3.72468e-05
3.33598e-05
0.000925869
-0.000917896
-2.97438e-05
2.63847e-05
0.000921167
-0.000914972
-2.34395e-05
2.07e-05
0.000917622
-0.000912804
-1.82254e-05
1.58174e-05
0.000915124
-0.000911045
-1.32341e-05
1.10947e-05
0.000913098
-0.000909634
-9.35978e-06
7.64562e-06
0.000911265
-0.000908662
-5.80989e-06
4.48734e-06
0.000909904
-0.000907349
-3.23006e-06
1.87602e-06
0.000908628
-0.000906551
-7.74346e-07
-3.24646e-07
0.000907582
-0.000905931
1.18004e-06
-1.72869e-06
0.000906421
-0.000905267
2.6453e-06
-3.05007e-06
0.000905621
-0.000904246
3.22871e-06
-4.39155e-06
0.00090537
-0.000904762
4.8328e-06
-3.95253e-06
0.000903855
-0.000905642
6.38929e-06
-8.33642e-06
0.000907577
-0.000906734
7.83453e-06
-7.79122e-06
0.000906691
-0.000906379
7.26889e-06
-6.63492e-06
0.000905762
-0.000905975
6.12714e-06
-5.31647e-06
0.000905196
-0.000905633
4.51223e-06
-3.69349e-06
0.000904862
-0.000907624
2.88697e-06
-2.13224e-06
0.000906933
-0.000905897
1.11223e-06
-1.12998e-08
0.000904876
-0.000909857
-8.60167e-07
1.53291e-06
0.000909278
-0.000907418
-2.16312e-06
2.96983e-06
0.000906721
-0.000907414
-3.93487e-06
4.86812e-06
0.000906603
-0.000908316
-5.39888e-06
6.14879e-06
0.000907701
-0.000907202
-6.89295e-06
7.70571e-06
0.000906533
-0.000907786
-8.3342e-06
8.96964e-06
0.000907305
-0.000908467
-9.4336e-06
9.86661e-06
0.000908195
-0.000909256
-1.00752e-05
1.02858e-05
0.000909212
-0.000910094
-1.02637e-05
1.02402e-05
0.000910289
-0.000912371
-9.77913e-06
8.71193e-06
0.000913612
-0.000913684
-7.80702e-06
7.79208e-06
0.000913875
-0.00091283
-7.13456e-06
6.46742e-06
0.000913673
-0.000914019
-5.45753e-06
4.53453e-06
0.000915117
-0.000915169
-3.36769e-06
2.07945e-06
0.00091663
-0.000916513
-6.45787e-07
-8.1943e-07
0.000918148
-0.000917802
2.53622e-06
-4.40043e-06
0.000919832
-0.000919412
6.42636e-06
-8.52004e-06
0.000921667
-0.00092125
1.09947e-05
-1.34651e-05
0.000923876
-0.000923575
1.62413e-05
-1.91524e-05
0.000926636
-0.000926523
2.24069e-05
-2.60535e-05
0.000930314
-0.000930769
2.98885e-05
-3.39753e-05
0.000934994
-0.000936476
3.85221e-05
-4.35075e-05
0.000941593
-0.000944899
4.90362e-05
-5.50098e-05
0.000950998
-0.00095753
6.11209e-05
-6.73985e-05
0.000963927
-0.000976449
7.52705e-05
-8.39215e-05
0.000985212
-0.00100987
9.37532e-05
-0.000103697
0.00101992
-0.00102507
0.000108905
-9.77931e-05
0.00101405
-0.000655557
6.22488e-05
-1.75906e-05
0.000610982
-0.000325447
1.91183e-05
0.000307263
-1.04483e-06
-0.000913087
-5.12964e-05
7.87758e-05
0.000885503
-0.00103118
-9.1054e-05
9.03048e-05
0.00103184
-0.000993069
-8.37976e-05
7.62258e-05
0.00100055
-0.000964578
-6.92638e-05
6.29551e-05
0.000970799
-0.000948454
-5.72419e-05
5.2234e-05
0.000953372
-0.00093725
-4.69108e-05
4.18786e-05
0.000942191
-0.000929834
-3.70963e-05
3.30704e-05
0.000933767
-0.000924461
-2.93515e-05
2.58301e-05
0.000927889
-0.000920536
-2.26828e-05
1.97024e-05
0.000923422
-0.000917522
-1.69658e-05
1.4374e-05
0.00092002
-0.000915235
-1.21047e-05
9.86221e-06
0.000917384
-0.000913277
-8.02618e-06
5.90338e-06
0.00091531
-0.000911415
-3.86966e-06
2.05188e-06
0.000913146
-0.000910059
-4.13914e-07
-1.11055e-06
0.000911504
-0.00090864
2.46269e-06
-3.59585e-06
0.0009097
-0.000907513
4.86375e-06
-5.80486e-06
0.000908389
-0.000905945
6.28241e-06
-7.82945e-06
0.000907436
-0.000905922
8.70888e-06
-8.0427e-06
0.000905212
-0.000906471
1.10675e-05
-1.31425e-05
0.000908515
-0.000907007
1.27349e-05
-1.29532e-05
0.000907208
-0.000906055
1.24349e-05
-1.205e-05
0.000905668
-0.000905293
1.15538e-05
-1.06631e-05
0.000904416
-0.000904283
9.77032e-06
-8.8039e-06
0.000903346
-0.000903812
7.71046e-06
-6.62024e-06
0.000902768
-0.000905951
5.8023e-06
-4.32781e-06
0.000904539
-0.000903582
2.88014e-06
-1.34351e-06
0.000902126
-0.000908452
-1.25843e-08
1.21034e-06
0.000907351
-0.000905582
-2.23265e-06
3.67734e-06
0.00090425
-0.00090553
-4.97328e-06
6.52573e-06
0.000904103
-0.000906878
-7.92433e-06
8.5677e-06
0.000906374
-0.000905633
-9.47074e-06
1.05827e-05
0.00090467
-0.000906609
-1.14948e-05
1.23936e-05
0.000905869
-0.000907852
-1.29608e-05
1.3672e-05
0.000907306
-0.00090903
-1.4019e-05
1.44335e-05
0.000908787
-0.000910481
-1.43768e-05
1.40846e-05
0.000910948
-0.000915279
-1.27195e-05
1.15206e-05
0.000916656
-0.000913929
-1.19376e-05
1.18177e-05
0.000914227
-0.000914708
-1.09287e-05
1.01041e-05
0.00091571
-0.000916333
-9.01368e-06
7.78609e-06
0.000917735
-0.000918028
-6.29669e-06
4.86813e-06
0.000919628
-0.000919839
-3.18067e-06
1.44787e-06
0.00092174
-0.00092183
6.45681e-07
-2.69264e-06
0.00092404
-0.000923997
5.00198e-06
-7.48243e-06
0.000926634
-0.000926678
1.01317e-05
-1.28703e-05
0.000929567
-0.00092986
1.59942e-05
-1.9132e-05
0.000933142
-0.000933927
2.26764e-05
-2.62654e-05
0.000937653
-0.000939183
3.01824e-05
-3.439e-05
0.000943521
-0.000946471
3.88531e-05
-4.2946e-05
0.000950688
-0.000955786
4.72316e-05
-5.25923e-05
0.000961265
-0.000970689
5.85062e-05
-6.47659e-05
0.000977059
-0.000993247
7.14484e-05
-7.873e-05
0.00100063
-0.00102764
8.62625e-05
-9.17629e-05
0.00103324
-0.000998921
8.95221e-05
-7.1923e-05
0.000981407
-0.000574477
4.00917e-05
-1.00453e-05
0.000544513
-0.000292217
1.32308e-05
0.000279581
-7.11137e-07
-0.000859141
-3.75688e-05
6.20944e-05
0.000834504
-0.00103013
-7.7043e-05
8.05259e-05
0.00102656
-0.00100736
-7.71538e-05
7.12258e-05
0.0010132
-0.00097662
-6.5145e-05
5.93361e-05
0.000982337
-0.000958428
-5.42247e-05
4.9297e-05
0.000963261
-0.000946538
-4.46949e-05
4.03911e-05
0.000950746
-0.000938233
-3.63569e-05
3.24798e-05
0.000942012
-0.000932214
-2.88479e-05
2.55607e-05
0.000935402
-0.000926521
-2.14703e-05
1.75084e-05
0.000930383
-0.000922655
-1.3354e-05
1.05511e-05
0.000925359
-0.000919483
-7.95228e-06
5.46311e-06
0.000921874
-0.000916994
-3.27179e-06
1.18685e-06
0.000918984
-0.000915037
5.06448e-07
-1.98966e-06
0.000916428
-0.000912994
3.18586e-06
-4.87347e-06
0.000914596
-0.000911292
6.88089e-06
-8.45592e-06
0.000912788
-0.000909068
9.53898e-06
-1.15872e-05
0.000911045
-0.000908493
1.29335e-05
-1.2612e-05
0.00090811
-0.000908489
1.61723e-05
-1.77251e-05
0.000909992
-0.000908712
1.8068e-05
-1.89981e-05
0.000909605
-0.000906745
1.89312e-05
-1.87652e-05
0.000906557
-0.000905079
1.8426e-05
-1.77647e-05
0.00090441
-0.00090341
1.67398e-05
-1.58506e-05
0.00090253
-0.000902137
1.46565e-05
-1.32625e-05
0.00090077
-0.00090195
1.17675e-05
-1.03304e-05
0.000900559
-0.000902169
9.27266e-06
-7.05714e-06
0.000900017
-0.000900255
4.9529e-06
-2.83426e-06
0.000898219
-0.000905921
8.95859e-07
8.75835e-07
0.000904251
-0.000902624
-2.5683e-06
4.59861e-06
0.000900713
-0.000901724
-6.55152e-06
8.67937e-06
0.000899729
-0.000906626
-1.08385e-05
1.17032e-05
0.000905908
-0.000903559
-1.29274e-05
1.44299e-05
0.000902215
-0.000904893
-1.57023e-05
1.6918e-05
0.000903845
-0.000906665
-1.78392e-05
1.86719e-05
0.000906007
-0.000908592
-1.91883e-05
1.96284e-05
0.000908331
-0.000912005
-1.97461e-05
1.92925e-05
0.000912641
-0.000916369
-1.80253e-05
1.81768e-05
0.000916401
-0.000914788
-1.7714e-05
1.70846e-05
0.000915599
-0.000916704
-1.60532e-05
1.49624e-05
0.000917974
-0.000919053
-1.36823e-05
1.22467e-05
0.000920665
-0.000921363
-1.06347e-05
8.86977e-06
0.000923299
-0.000923787
-6.9392e-06
4.85548e-06
0.000926036
-0.000926299
-2.61497e-06
2.16925e-07
0.000928857
-0.000929215
2.33261e-06
-4.94302e-06
0.000931979
-0.000932488
7.80444e-06
-1.08404e-05
0.000935669
-0.000936431
1.4027e-05
-1.74025e-05
0.000939944
-0.000941344
2.09324e-05
-2.46685e-05
0.00094521
-0.000947355
2.74427e-05
-3.08504e-05
0.000950887
-0.000955117
3.535e-05
-3.97837e-05
0.000959667
-0.000966658
4.46109e-05
-4.93956e-05
0.000971553
-0.00098288
5.48154e-05
-6.02492e-05
0.000988417
-0.00100735
6.6179e-05
-7.21398e-05
0.0010134
-0.0010367
7.75517e-05
-7.93322e-05
0.00103857
-0.000962946
7.27344e-05
-5.40378e-05
0.000944331
-0.000519559
2.78823e-05
-6.81018e-06
0.000498567
-0.000268888
9.65591e-06
0.000259613
-5.07146e-07
-0.000811739
-2.82362e-05
4.92044e-05
0.000790651
-0.00102152
-6.439e-05
7.03945e-05
0.00101542
-0.00101838
-6.93689e-05
6.50319e-05
0.00102262
-0.000987723
-5.9783e-05
5.44596e-05
0.000992952
-0.000967966
-4.96049e-05
4.49738e-05
0.0009725
-0.000954999
-4.06102e-05
3.63749e-05
0.000959135
-0.000945688
-3.24568e-05
2.85312e-05
0.000949513
-0.000938748
-2.50098e-05
2.13667e-05
0.000942289
-0.000933417
-1.82227e-05
1.49539e-05
0.000936582
-0.000929327
-1.20755e-05
9.27905e-06
0.00093202
-0.000925849
-6.6628e-06
4.02825e-06
0.000928381
-0.000921129
-4.49809e-07
-3.23911e-06
0.000924718
-0.00091818
6.74079e-06
-1.02389e-05
0.000921581
-0.00091564
1.31354e-05
-1.49971e-05
0.00091741
-0.000913618
1.63574e-05
-1.69771e-05
0.000914151
-0.000913545
1.62774e-05
-1.39363e-05
0.000911125
-0.000912007
2.16886e-05
-2.38774e-05
0.000914125
-0.000910531
2.47444e-05
-2.56808e-05
0.000911408
-0.000909487
2.54685e-05
-2.5331e-05
0.000909303
-0.000906516
2.6136e-05
-2.62787e-05
0.000906628
-0.000903618
2.57863e-05
-2.50285e-05
0.000902844
-0.000901296
2.39341e-05
-2.25189e-05
0.000899885
-0.000899134
2.09221e-05
-1.90713e-05
0.000897305
-0.000898725
1.70764e-05
-1.48763e-05
0.000896568
-0.000897843
1.27921e-05
-1.02456e-05
0.00089536
-0.000895797
7.56675e-06
-4.72109e-06
0.000893037
-0.000902154
2.00896e-06
5.5515e-07
0.000899696
-0.000898362
-3.0162e-06
5.84163e-06
0.000895663
-0.000897421
-8.5936e-06
1.13373e-05
0.000894819
-0.000904336
-1.36868e-05
1.55613e-05
0.000902619
-0.000900507
-1.75834e-05
1.96383e-05
0.000898621
-0.00090252
-2.13523e-05
2.29699e-05
0.000901081
-0.000905131
-2.41998e-05
2.53933e-05
0.000904122
-0.000907908
-2.59976e-05
2.63738e-05
0.000907722
-0.000913861
-2.52757e-05
2.32646e-05
0.000916063
-0.000915979
-2.43507e-05
2.51155e-05
0.000915405
-0.000916391
-2.46318e-05
2.37523e-05
0.000917457
-0.000919254
-2.25386e-05
2.12401e-05
0.000920735
-0.000922205
-1.97354e-05
1.81575e-05
0.000923959
-0.000925076
-1.62942e-05
1.41662e-05
0.000927373
-0.00092813
-1.20755e-05
9.72779e-06
0.00093064
-0.000931359
-7.13012e-06
4.58594e-06
0.000934058
-0.000934882
-1.70105e-06
-1.12958e-06
0.00093786
-0.000938767
4.2895e-06
-7.39573e-06
0.000942013
-0.000943447
1.05139e-05
-1.27582e-05
0.000945823
-0.000947896
1.61433e-05
-1.97929e-05
0.00095167
-0.000954923
2.36514e-05
-2.76853e-05
0.000959073
-0.000964152
3.18242e-05
-3.60402e-05
0.000968478
-0.000976418
4.0584e-05
-4.52237e-05
0.000981161
-0.000993741
5.01126e-05
-5.52611e-05
0.000998986
-0.001019
6.11165e-05
-6.62647e-05
0.00102424
-0.00103902
6.97924e-05
-6.94722e-05
0.00103879
-0.000926062
6.15183e-05
-4.3976e-05
0.000908598
-0.00048037
2.23047e-05
-5.93032e-06
0.000464072
-0.000251684
7.22863e-06
0.000244692
-3.7114e-07
-0.000771492
-2.16519e-05
3.90535e-05
0.000753963
-0.00100823
-5.33684e-05
6.07898e-05
0.00100071
-0.00102617
-6.1885e-05
5.88481e-05
0.00102911
-0.000997898
-5.43851e-05
4.94681e-05
0.00100272
-0.000977399
-4.48633e-05
4.07413e-05
0.000981423
-0.000963245
-3.63032e-05
3.20599e-05
0.000967388
-0.000953252
-2.78803e-05
2.37561e-05
0.000957274
-0.000945788
-1.947e-05
1.5865e-05
0.000949289
-0.000939744
-1.24109e-05
9.00225e-06
0.000943047
-0.000934844
-5.85112e-06
2.74948e-06
0.000937839
-0.000930861
9.3287e-08
-2.88086e-06
0.000933542
-0.000927666
5.30005e-06
-7.44582e-06
0.000929707
-0.000923844
1.0346e-05
-1.34674e-05
0.000926862
-0.00092039
1.52746e-05
-1.75879e-05
0.000922604
-0.000918314
2.10249e-05
-2.24827e-05
0.000919676
-0.000912782
2.2542e-05
-3.22796e-05
0.000922431
-0.000914576
3.26451e-05
-3.42604e-05
0.00091611
-0.000911752
3.47948e-05
-3.53032e-05
0.000912189
-0.000909251
3.55267e-05
-3.50734e-05
0.000908739
-0.000906789
3.4117e-05
-3.47998e-05
0.000907428
-0.000901739
3.51553e-05
-3.44746e-05
0.000901031
-0.000898304
3.30759e-05
-3.12855e-05
0.000896506
-0.000895181
2.92306e-05
-2.67628e-05
0.000892726
-0.000894042
2.4086e-05
-2.11204e-05
0.000891114
-0.000892427
1.81702e-05
-1.47171e-05
0.000889036
-0.00088973
1.10636e-05
-7.16169e-06
0.000885915
-0.000896673
3.36118e-06
2.78221e-07
0.000893144
-0.000892392
-3.8245e-06
7.71215e-06
0.000888639
-0.000891666
-1.15062e-05
1.52706e-05
0.000888055
-0.000900305
-1.85687e-05
2.15749e-05
0.000897468
-0.000896319
-2.40833e-05
2.67638e-05
0.000893822
-0.000899328
-2.90552e-05
3.11336e-05
0.000897442
-0.000902981
-3.27203e-05
3.40959e-05
0.000901803
-0.000907671
-3.46927e-05
3.37032e-05
0.000908862
-0.000917172
-3.17662e-05
3.3386e-05
0.000915753
-0.000915094
-3.45543e-05
3.4275e-05
0.00091557
-0.000918432
-3.33968e-05
3.21824e-05
0.000919837
-0.000922152
-3.08068e-05
2.92248e-05
0.000923918
-0.000925975
-2.74163e-05
2.55258e-05
0.000928041
-0.000929538
-2.32404e-05
2.08938e-05
0.000932051
-0.000933117
-1.83843e-05
1.57261e-05
0.000935933
-0.000936923
-1.29359e-05
1.0004e-05
0.000940004
-0.000940989
-6.96186e-06
4.41276e-06
0.000943678
-0.000944453
-2.08408e-06
-1.10432e-06
0.000947774
-0.00094943
4.68281e-06
-8.18107e-06
0.000953052
-0.00095551
1.19558e-05
-1.57554e-05
0.000959425
-0.000963143
1.99336e-05
-2.44716e-05
0.000967789
-0.000972897
2.88522e-05
-3.38243e-05
0.00097797
-0.000985853
3.9426e-05
-4.43276e-05
0.000990849
-0.00100459
4.875e-05
-5.24547e-05
0.00100838
-0.00102933
5.54798e-05
-5.87274e-05
0.00103266
-0.00103582
6.04227e-05
-5.73509e-05
0.00103283
-0.000891135
4.72583e-05
-3.15204e-05
0.00087547
-0.000450633
1.48559e-05
-3.29463e-06
0.000439142
-0.00023868
5.50497e-06
0.000233316
-2.76504e-07
-0.000737968
-1.68285e-05
3.11198e-05
0.000723548
-0.000992816
-4.41347e-05
5.20661e-05
0.000984788
-0.00103147
-5.43013e-05
5.25449e-05
0.00103314
-0.00100739
-4.88083e-05
4.43667e-05
0.00101174
-0.000985747
-4.01609e-05
3.57022e-05
0.000990107
-0.000971436
-3.14315e-05
2.71056e-05
0.000975661
-0.000961135
-2.29183e-05
1.84278e-05
0.000965522
-0.000953197
-1.47002e-05
1.09807e-05
0.000956811
-0.000946893
-7.37826e-06
3.89053e-06
0.000950273
-0.000941717
-5.23591e-07
-2.7253e-06
0.000944857
-0.000936399
6.6811e-06
-1.06082e-05
0.000940217
-0.000932149
1.45999e-05
-1.8961e-05
0.0009364
-0.000928453
2.20221e-05
-2.45024e-05
0.000930824
-0.000926481
2.62944e-05
-2.64604e-05
0.000926539
-0.000919979
2.70761e-05
-3.79182e-05
0.000930715
-0.000922106
3.79671e-05
-4.07016e-05
0.00092474
-0.00091827
4.2935e-05
-4.44382e-05
0.000919678
-0.000913183
4.59555e-05
-4.73079e-05
0.000914449
-0.000908397
4.84026e-05
-4.8962e-05
0.000908879
-0.000906269
4.85301e-05
-4.73948e-05
0.000905071
-0.000900593
4.71664e-05
-4.68734e-05
0.000900254
-0.000894551
4.53422e-05
-4.29908e-05
0.000892176
-0.000889933
4.02932e-05
-3.71008e-05
0.000886739
-0.000887694
3.35435e-05
-2.95545e-05
0.000883733
-0.000885019
2.54142e-05
-2.07703e-05
0.00088043
-0.000881363
1.57317e-05
-1.03903e-05
0.000876107
-0.000888829
5.084e-06
1.0037e-07
0.000883759
-0.0008841
-5.17359e-06
1.0594e-05
0.000878824
-0.00088376
-1.58102e-05
2.08957e-05
0.00087884
-0.000893975
-2.53659e-05
2.95989e-05
0.000889927
-0.000891161
-3.34028e-05
3.69491e-05
0.000887814
-0.000895179
-3.96432e-05
4.22594e-05
0.000892771
-0.000900582
-4.42253e-05
4.55709e-05
0.000899449
-0.000910299
-4.50368e-05
4.37181e-05
0.000911832
-0.000913815
-4.53439e-05
4.65818e-05
0.000912786
-0.000916273
-4.63253e-05
4.55665e-05
0.000917234
-0.00092111
-4.42482e-05
4.28615e-05
0.000922689
-0.000925785
-4.09871e-05
3.89823e-05
0.000927972
-0.000930325
-3.66469e-05
3.43205e-05
0.000932823
-0.000934583
-3.1608e-05
2.894e-05
0.000937412
-0.00093886
-2.59239e-05
2.2976e-05
0.000941958
-0.000942863
-2.05651e-05
1.80259e-05
0.000945543
-0.000946438
-1.45683e-05
1.11003e-05
0.000950037
-0.000951456
-7.26284e-06
3.00094e-06
0.000955841
-0.000957011
1.2012e-06
-5.83109e-06
0.000961756
-0.000963551
1.12435e-05
-1.55946e-05
0.000968009
-0.000973381
1.86662e-05
-2.06421e-05
0.000975456
-0.000981225
2.37951e-05
-2.74891e-05
0.000985012
-0.000994358
3.10792e-05
-3.51348e-05
0.0009985
-0.00101275
3.94441e-05
-4.36358e-05
0.00101702
-0.00103609
4.77609e-05
-5.08514e-05
0.00103925
-0.00102943
5.14383e-05
-4.7456e-05
0.00102552
-0.000860881
3.79306e-05
-2.44609e-05
0.00084748
-0.0004292
1.11709e-05
-2.40297e-06
0.000420496
-0.000228698
4.23519e-06
0.000224535
-2.06554e-07
-0.000710244
-1.32012e-05
2.50376e-05
0.00069828
-0.000976915
-3.64008e-05
4.41641e-05
0.000969056
-0.00103447
-4.72426e-05
4.63794e-05
0.00103524
-0.00101629
-4.3281e-05
3.9398e-05
0.00102008
-0.000994476
-3.49953e-05
3.06871e-05
0.000998686
-0.000979609
-2.63003e-05
2.1936e-05
0.000983873
-0.000969135
-1.73557e-05
1.34115e-05
0.000972976
-0.000960969
-9.55463e-06
5.77716e-06
0.000964641
-0.000954543
-1.97678e-06
-1.64036e-06
0.000958051
-0.00094828
5.27678e-06
-9.56771e-06
0.00095246
-0.000943307
1.38647e-05
-1.8484e-05
0.000947814
-0.000938927
2.33026e-05
-2.69578e-05
0.000942468
-0.000935235
2.99609e-05
-3.23143e-05
0.000937472
-0.00093161
3.29641e-05
-3.42168e-05
0.000932746
-0.000931625
4.69222e-05
-4.93326e-05
0.000933918
-0.000926948
5.22773e-05
-5.39478e-05
0.000928504
-0.000922095
5.55733e-05
-5.75474e-05
0.000923956
-0.000915741
5.98971e-05
-6.18772e-05
0.000917615
-0.000909539
6.31393e-05
-6.3916e-05
0.000910217
-0.000903881
6.41988e-05
-6.34181e-05
0.000903016
-0.00090053
6.15871e-05
-6.10437e-05
0.000899917
-0.000889914
6.07387e-05
-5.87768e-05
0.000887905
-0.000883011
5.55708e-05
-5.15766e-05
0.000878995
-0.000878824
4.67326e-05
-4.02507e-05
0.000872353
-0.000875553
3.24166e-05
-2.77497e-05
0.000870931
-0.000869848
2.20389e-05
-1.48192e-05
0.000862711
-0.000877593
7.3522e-06
9.70581e-08
0.000870264
-0.000872491
-7.42779e-06
1.50012e-05
0.000865074
-0.000873252
-2.20488e-05
2.75683e-05
0.000867914
-0.000884315
-3.15138e-05
3.95611e-05
0.000876472
-0.000883788
-4.60723e-05
5.09383e-05
0.000879141
-0.00089013
-5.47257e-05
5.76438e-05
0.000887439
-0.000898885
-5.91132e-05
5.81166e-05
0.000900111
-0.000911424
-5.68474e-05
6.01127e-05
0.000908385
-0.000912202
-6.19768e-05
6.20321e-05
0.000912364
-0.000918329
-6.09136e-05
5.96166e-05
0.000919831
-0.000924538
-5.77249e-05
5.56392e-05
0.000926815
-0.000930245
-5.31464e-05
5.0627e-05
0.000932943
-0.000935511
-4.77789e-05
4.47497e-05
0.000938705
-0.000940527
-4.16708e-05
3.90982e-05
0.000943252
-0.000944364
-3.59904e-05
3.21314e-05
0.000948364
-0.000949306
-2.72785e-05
2.23161e-05
0.000954399
-0.000954172
-1.63741e-05
1.19943e-05
0.000958673
-0.000961584
-9.16549e-06
7.63853e-06
0.000963224
-0.000964552
-4.66258e-06
1.09294e-06
0.000968226
-0.000970965
2.23649e-06
-5.95282e-06
0.000974779
-0.0009789
9.85231e-06
-1.3826e-05
0.000982964
-0.00098908
1.78727e-05
-2.19002e-05
0.000993192
-0.00100257
2.60119e-05
-3.01244e-05
0.00100676
-0.00102125
3.4202e-05
-3.82874e-05
0.00102541
-0.00104189
4.19804e-05
-4.43605e-05
0.00104434
-0.00102117
4.39731e-05
-3.95231e-05
0.00101679
-0.000834996
3.05536e-05
-1.90374e-05
0.000823543
-0.000412794
8.4613e-06
-1.6956e-06
0.000406086
-0.000220919
3.23955e-06
0.000217696
-1.52032e-07
-0.000687367
-1.04263e-05
2.02366e-05
0.000677429
-0.000961429