/*--------------------------------*- C++ -*----------------------------------*\
  =========                 |
  \\      /  F ield         | OpenFOAM: The Open Source CFD Toolbox
   \\    /   O peration     | Website:  https://openfoam.org
    \\  /    A nd           | Version:  7
     \\/     M anipulation  |
\*---------------------------------------------------------------------------*/
FoamFile
{
    version     2.0;
    format      ascii;
    class       volVectorField;
    location    "75";
    object      U;
}
// * * * * * * * * * * * * * * * * * * * * * * * * * * * * * * * * * * * * * //

dimensions      [0 1 -1 0 0 0 0];

internalField   nonuniform List<vector> 
17475
(
(1.01828 0.205789 -1.67293e-20)
(0.996001 0.0223694 -2.66941e-20)
(0.999792 0.00973095 0)
(0.999948 0.00487325 0)
(0.999984 0.00302976 0)
(0.999995 0.00206763 0)
(0.999999 0.00148006 0)
(1 0.00108329 0)
(1 0.000796797 -5.64648e-20)
(1 0.000579872 0)
(1 0.000409968 0)
(1 0.000273643 0)
(1 0.000162756 0)
(1 7.17679e-05 0)
(1 -2.63183e-06 0)
(1 -6.29417e-05 0)
(1 -0.000110527 0)
(1 -0.000146639 0)
(1 -0.000171919 0)
(1 -0.000187167 0)
(1 -0.000192716 -2.16048e-19)
(1 -0.000189489 3.7647e-22)
(1 -0.000178022 0)
(1 -0.000159272 -6.81004e-21)
(1 -0.000135019 0)
(1 -0.000104227 -1.3617e-20)
(1 -7.05928e-05 0)
(0.999999 -3.49446e-05 0)
(0.999999 1.36107e-06 -1.70124e-21)
(0.999999 3.65174e-05 5.42829e-20)
(0.999998 6.90963e-05 5.33579e-20)
(0.999998 9.74504e-05 0)
(0.999998 0.000120395 0)
(0.999998 0.000136585 -5.34121e-20)
(0.999997 0.000145151 -5.32767e-20)
(0.999997 0.000145076 0)
(0.999997 0.000135735 -4.11422e-22)
(0.999997 0.00011629 0)
(0.999997 8.61395e-05 5.21077e-20)
(0.999997 4.40488e-05 2.59781e-20)
(0.999997 -1.04143e-05 -2.59075e-20)
(0.999996 -7.86431e-05 0)
(0.999996 -0.000162699 -2.59236e-20)
(0.999996 -0.000265842 0)
(0.999996 -0.000392888 -1.30735e-20)
(0.999996 -0.000551244 0)
(0.999995 -0.000752372 2.69174e-20)
(0.999995 -0.0010147 0)
(0.999994 -0.00136851 0)
(0.999992 -0.00186542 0)
(0.999988 -0.00259519 0)
(0.999984 -0.00369875 -1.64402e-20)
(0.999949 -0.00538611 3.6532e-20)
(0.998947 -0.0029525 4.02526e-20)
(1.02904 -0.0897378 -3.93776e-20)
(0.871003 0.0787958 2.4402e-20)
(1.1002 0.0972578 0)
(1.03469 0.0584925 0)
(1.01493 0.0374052 0)
(1.00775 0.0254399 -1.75866e-19)
(1.0046 0.0181672 -1.70072e-19)
(1.00301 0.0134141 1.6299e-19)
(1.0021 0.0101076 0)
(1.00153 0.00769002 0)
(1.00116 0.00585451 0)
(1.0009 0.00442176 0)
(1.0007 0.0032815 0)
(1.00055 0.00236397 0)
(1.00043 0.00162299 0)
(1.00033 0.0010286 0)
(1.00025 0.000559801 0)
(1.00017 0.000203144 0)
(1.00011 -5.19411e-05 0)
(1.00005 -0.000212298 0)
(0.999994 -0.000284762 0)
(0.999946 -0.000274452 0)
(0.999904 -0.000188646 0)
(0.99987 -3.39367e-05 2.83652e-19)
(0.99984 0.000182114 -7.0831e-20)
(0.999822 0.0004492 -1.40875e-19)
(0.999813 0.000752494 -2.93774e-22)
(0.999814 0.00108108 -1.72845e-20)
(0.999825 0.00141909 0)
(0.999846 0.00175301 -8.46519e-21)
(0.999879 0.00206742 8.36284e-21)
(0.999921 0.00234802 -1.32593e-19)
(0.999972 0.00258075 1.32842e-19)
(1.00003 0.002754 0)
(1.00009 0.00285693 -2.53145e-19)
(1.00016 0.00288121 1.9469e-21)
(1.00024 0.00281936 2.45739e-19)
(1.00031 0.00266573 0)
(1.00039 0.00241482 1.19113e-19)
(1.00047 0.00206207 0)
(1.00056 0.00160017 -1.17047e-19)
(1.00065 0.00102121 1.16039e-19)
(1.00075 0.000313461 0)
(1.00087 -0.000541027 0)
(1.00101 -0.00157004 0)
(1.00119 -0.00281546 1.33891e-22)
(1.00144 -0.00434162 5.77012e-20)
(1.00178 -0.00624765 -5.84897e-20)
(1.00227 -0.00869069 -2.96924e-20)
(1.00302 -0.0119269 0)
(1.00422 -0.0163902 0)
(1.00623 -0.0228549 0)
(1.00976 -0.0327896 -3.36486e-20)
(1.01631 -0.0495037 3.51463e-20)
(1.0284 -0.0727627 2.37584e-21)
(1.0707 -0.178128 2.81202e-21)
(0.609245 0.0196551 1.30537e-20)
(1.13887 0.106552 -1.88956e-20)
(1.07814 0.0755472 -7.85671e-20)
(1.0407 0.054425 0)
(1.02424 0.0403306 0)
(1.01566 0.0303572 -1.58809e-19)
(1.01076 0.0230688 0)
(1.00777 0.0176014 0)
(1.00582 0.0133932 0)
(1.00449 0.0100777 3.06416e-19)
(1.00354 0.00741554 0)
(1.00282 0.00524754 0)
(1.00226 0.00346797 0)
(1.00181 0.00200499 0)
(1.00143 0.000810514 0)
(1.00109 -0.000148499 -2.9509e-19)
(1.00079 -0.000893924 0)
(1.00052 -0.00144169 0)
(1.00027 -0.00180327 0)
(1.00004 -0.00198855 0)
(0.999825 -0.00200672 5.79611e-19)
(0.999635 -0.0018681 0)
(0.999467 -0.00158601 2.14413e-19)
(0.999331 -0.00117313 -1.41787e-19)
(0.999228 -0.00065266 0)
(0.999162 -4.66823e-05 -3.49235e-20)
(0.999137 0.000618574 0)
(0.999151 0.00131289 4.29732e-20)
(0.999209 0.00200688 2.55596e-20)
(0.999309 0.00266981 0)
(0.999449 0.00327192 -1.16109e-19)
(0.999626 0.00378531 4.06963e-21)
(0.999833 0.00418596 -2.00075e-21)
(1.00007 0.00445242 -1.2666e-19)
(1.00032 0.00456741 1.24615e-19)
(1.00059 0.00451672 0)
(1.00087 0.00428912 2.33051e-19)
(1.00117 0.0038744 -2.36155e-19)
(1.00148 0.00326403 2.49454e-19)
(1.00181 0.00244659 0)
(1.00216 0.00140738 2.88684e-20)
(1.00255 0.000126556 -4.55558e-22)
(1.00301 -0.00142624 1.12332e-19)
(1.00355 -0.00329668 -5.8133e-22)
(1.00424 -0.00555321 -5.58495e-20)
(1.00514 -0.00829728 0)
(1.00639 -0.0116821 0)
(1.00816 -0.0159398 2.81013e-20)
(1.01081 -0.0214286 -2.9093e-20)
(1.01495 -0.0287123 -4.81137e-22)
(1.02172 -0.0386882 8.92344e-20)
(1.03335 -0.052832 -6.13029e-20)
(1.05439 -0.0733889 6.00986e-20)
(1.10079 -0.105279 0)
(0.963506 -0.117752 3.11582e-20)
(0.480218 0.00950097 0)
(1.11528 0.0898582 0)
(1.11435 0.0804203 3.50908e-20)
(1.06537 0.0611612 0)
(1.04198 0.047508 1.49546e-19)
(1.02895 0.0371055 0)
(1.02093 0.0289556 0)
(1.01569 0.0224565 0)
(1.0121 0.017197 0)
(1.00955 0.0128839 0)
(1.00767 0.00930909 0)
(1.00622 0.00632242 0)
(1.00506 0.00381958 2.95664e-19)
(1.00411 0.0017262 0)
(1.00328 -7.82908e-06 0)
(1.00256 -0.00141732 0)
(1.00189 -0.00252551 0)
(1.00128 -0.00334929 0)
(1.00071 -0.00389832 0)
(1.00017 -0.00418214 -2.91451e-19)
(0.999665 -0.00421003 0)
(0.999204 -0.0039958 0)
(0.998797 -0.00355035 -1.43301e-19)
(0.998451 -0.00290101 0)
(0.998179 -0.00207716 -2.12468e-19)
(0.997989 -0.00111383 3.48655e-20)
(0.997893 -5.27851e-05 -1.39054e-19)
(0.997895 0.00106164 2.68199e-22)
(0.997994 0.00218144 6.7941e-20)
(0.998192 0.00325425 5.05999e-20)
(0.998483 0.00423748 1.32799e-19)
(0.998858 0.00508427 4.06884e-21)
(0.999305 0.00575775 0)
(0.999813 0.00622585 -1.10009e-21)
(1.00037 0.00646311 0)
(1.00096 0.00644972 -1.13018e-19)
(1.00158 0.00617081 -1.18517e-19)
(1.00223 0.00561417 1.17223e-19)
(1.00291 0.00477361 2.29779e-19)
(1.00362 0.00363399 9.27584e-20)
(1.00438 0.00218165 -2.81998e-20)
(1.00522 0.000395008 -5.54227e-20)
(1.00618 -0.00175786 0)
(1.00732 -0.0043262 0)
(1.00873 -0.00738216 -5.40224e-20)
(1.01055 -0.0110303 5.38156e-20)
(1.01299 -0.0154209 1.34064e-19)
(1.01638 -0.020768 2.71912e-20)
(1.02127 -0.0273757 -1.22414e-22)
(1.02859 -0.0356729 -2.65018e-20)
(1.03995 -0.0462623 1.06703e-19)
(1.05827 -0.0599991 -7.94252e-20)
(1.09035 -0.0782587 7.46936e-20)
(1.13366 -0.10055 4.76686e-20)
(0.813395 -0.059733 -1.34338e-20)
(0.399894 0.00532093 0)
(1.06037 0.0687838 -3.33187e-20)
(1.13743 0.0766113 6.44547e-20)
(1.08769 0.0615815 6.80021e-20)
(1.05878 0.0493963 7.0322e-20)
(1.04234 0.0396464 1.43229e-19)
(1.0318 0.031553 -1.44387e-19)
(1.02462 0.0247555 -1.45564e-19)
(1.01951 0.019004 0)
(1.01575 0.0141067 -2.92433e-19)
(1.01288 0.00991706 -5.84573e-19)
(1.01061 0.006324 -2.92844e-19)
(1.00876 0.00324632 -2.92975e-19)
(1.0072 0.000624941 0)
(1.00582 -0.00157952 0)
(1.00458 -0.00339573 0)
(1.00344 -0.00483855 -5.84152e-19)
(1.00236 -0.00591678 3.88014e-22)
(1.00133 -0.00663462 -5.82076e-19)
(1.00035 -0.00699628 -2.90832e-19)
(0.999423 -0.0070087 -7.21693e-20)
(0.998564 -0.0066763 1.43868e-19)
(0.997788 -0.00602179 -1.44111e-19)
(0.99712 -0.0050746 1.42891e-19)
(0.996583 -0.00387387 0)
(0.996196 -0.00246663 -7.08695e-20)
(0.995979 -0.000913639 1.40117e-19)
(0.995943 0.000721188 0)
(0.996093 0.0023694 -3.3965e-20)
(0.996425 0.00395101 -1.69257e-20)
(0.996929 0.00540654 -1.33237e-19)
(0.99759 0.00666625 1.22288e-20)
(0.998383 0.00767922 0)
(0.999283 0.00840246 1.33571e-19)
(1.00027 0.00880359 0)
(1.00131 0.00885899 0)
(1.00241 0.00855333 -2.33698e-19)
(1.00354 0.00787983 -5.51874e-20)
(1.00471 0.006832 1.19782e-19)
(1.00593 0.00540262 1.04755e-19)
(1.00722 0.00358435 -1.23023e-19)
(1.00862 0.0013628 -1.08373e-19)
(1.0102 -0.00128644 -1.32964e-19)
(1.01203 -0.00440159 7.88117e-20)
(1.01426 -0.00804074 1.03971e-19)
(1.01706 -0.0122863 -2.54026e-20)
(1.02071 -0.0172524 0)
(1.02564 -0.0230904 -5.04495e-20)
(1.03249 -0.0299983 -4.99385e-20)
(1.04234 -0.0382284 -2.50944e-20)
(1.05698 -0.048088 -2.36117e-20)
(1.07965 -0.0599743 -7.03815e-20)
(1.11752 -0.0746577 -4.34666e-20)
(1.12337 -0.0825966 0)
(0.694537 -0.0290888 7.06068e-20)
(0.350312 0.00325734 0)
(0.998143 0.0513078 0)
(1.14573 0.069149 -1.22671e-19)
(1.10658 0.0590094 -1.28601e-19)
(1.07388 0.0482418 0)
(1.05493 0.0393471 0)
(1.04254 0.0316641 1.38618e-19)
(1.03384 0.0249377 0)
(1.02747 0.0190267 0)
(1.02263 0.0138205 0)
(1.01884 0.00923262 -2.86408e-19)
(1.01577 0.00519579 -2.87697e-19)
(1.0132 0.00166013 0)
(1.01097 -0.00140884 0)
(1.00898 -0.0040338 -1.03981e-22)
(1.00714 -0.00622612 0)
(1.00541 -0.00798581 1.1608e-18)
(1.00374 -0.00930865 1.16573e-18)
(1.00213 -0.0101862 -5.81002e-19)
(1.00056 -0.0106139 2.89349e-19)
(0.999059 -0.0105779 3.61792e-19)
(0.997645 -0.0100891 -7.22835e-20)
(0.996354 -0.0091647 4.33585e-19)
(0.995226 -0.00783785 -7.12591e-20)
(0.994302 -0.0061559 -2.2662e-22)
(0.993622 -0.00418047 -1.42373e-19)
(0.993221 -0.00199603 1.78137e-19)
(0.993121 0.000308513 1.39832e-19)
(0.993331 0.00263595 -4.08437e-22)
(0.993845 0.00487042 6.79197e-20)
(0.994647 0.00692952 6.62644e-20)
(0.995703 0.00871388 0)
(0.996971 0.0101565 -1.15133e-19)
(0.998408 0.0112032 0)
(0.99997 0.0118155 0)
(1.00162 0.0119699 1.48955e-19)
(1.00333 0.0116571 -1.17957e-19)
(1.00508 0.0108786 0)
(1.00687 0.0096337 6.94927e-21)
(1.0087 0.00793239 0)
(1.01061 0.00577978 0)
(1.01265 0.00317594 -1.18301e-19)
(1.0149 0.000111355 1.29561e-20)
(1.01747 -0.00343215 2.51116e-22)
(1.0205 -0.00748856 -1.22614e-20)
(1.02423 -0.0121079 -1.22133e-19)
(1.02896 -0.0173588 -1.18464e-20)
(1.03515 -0.0233272 1.06153e-19)
(1.04352 -0.0301186 -9.28932e-20)
(1.05517 -0.037849 0)
(1.07194 -0.0466633 4.32489e-20)
(1.0974 -0.056814 9.34667e-22)
(1.13454 -0.0680858 -3.9786e-20)
(1.09003 -0.0648452 -5.99437e-20)
(0.614116 -0.0165998 0)
(0.31695 0.00221268 1.30681e-20)
(0.939969 0.0384639 -3.34876e-20)
(1.1424 0.060412 5.94548e-20)
(1.1219 0.0549376 0)
(1.08749 0.0454809 0)
(1.06659 0.0373194 -1.30402e-19)
(1.05285 0.0300831 0)
(1.04303 0.023543 -2.71151e-19)
(1.03566 0.0176088 -2.74528e-19)
(1.02993 0.0122268 0)
(1.02534 0.00735679 -1.40384e-19)
(1.02153 0.00297111 2.83156e-19)
(1.01826 -0.00095281 -5.70172e-19)
(1.01536 -0.0044294 0)
(1.01271 -0.00745662 0)
(1.01021 -0.0100244 0)
(1.00779 -0.0121113 -4.49009e-21)
(1.00542 -0.0136934 0)
(1.00309 -0.0147477 0)
(1.00078 -0.0152368 2.88974e-19)
(0.998524 -0.0151416 -2.3292e-22)
(0.996373 -0.0144582 0)
(0.994381 -0.0131958 0)
(0.992614 -0.0113862 4.3808e-19)
(0.991144 -0.00908399 2.91352e-19)
(0.990041 -0.00636573 3.61888e-20)
(0.989369 -0.00335514 0)
(0.989167 -0.000168398 2.85301e-19)
(0.989454 0.00305544 1.05707e-19)
(0.990221 0.00614404 3.14532e-23)
(0.991431 0.00898634 0)
(0.99303 0.0114499 0)
(0.994947 0.0134381 6.35983e-21)
(0.997105 0.0148873 0)
(0.99943 0.0157568 0)
(1.00186 0.016029 -2.41787e-22)
(1.00435 0.0157111 -2.25816e-19)
(1.00686 0.0148129 -1.12973e-19)
(1.00938 0.013356 1.08511e-19)
(1.01192 0.011371 6.52459e-21)
(1.01452 0.0088835 -1.02194e-19)
(1.01725 0.00591397 1.02699e-21)
(1.02018 0.00247425 9.08579e-22)
(1.02345 -0.00143208 1.22018e-20)
(1.02723 -0.00581074 -8.28531e-20)
(1.03176 -0.0106802 0)
(1.03737 -0.016069 -1.02207e-19)
(1.04454 -0.0220092 0)
(1.054 -0.0285482 -4.30254e-20)
(1.06686 -0.035739 0)
(1.08504 -0.0436632 4.06201e-20)
(1.1122 -0.0525155 -2.16726e-22)
(1.14245 -0.0606282 -1.79045e-20)
(1.0494 -0.0505858 -5.64402e-20)
(0.559232 -0.0111239 2.75663e-20)
(0.293182 0.00158227 0)
(0.889524 0.0292668 -3.37232e-20)
(1.1314 0.051769 0)
(1.1336 0.0501388 0)
(1.09989 0.0419119 6.10605e-20)
(1.07748 0.0342866 5.89169e-22)
(1.06272 0.0273999 0)
(1.05208 0.0210251 -1.30855e-19)
(1.04397 0.0150916 -2.6675e-19)
(1.03755 0.00957292 0)
(1.03228 0.0044576 0)
(1.02781 -0.000258216 0)
(1.0239 -0.00456814 0)
(1.02035 -0.00846262 -4.19485e-19)
(1.01702 -0.0119147 -1.40229e-19)
(1.01382 -0.0148905 0)
(1.01065 -0.0173496 1.77831e-20)
(1.00746 -0.0192543 4.27047e-19)
(1.00425 -0.02053 -1.58382e-22)
(1.00101 -0.0211232 -1.43837e-19)
(0.997796 -0.0209817 0)
(0.994675 -0.0200826 1.45944e-19)
(0.991734 -0.0184143 4.70318e-22)
(0.989084 -0.0159997 1.49327e-19)
(0.986843 -0.0128976 0)
(0.985135 -0.0092025 -7.41741e-20)
(0.984066 -0.0050882 -7.36815e-20)
(0.983708 -0.000715283 1.47244e-19)
(0.984095 0.00371487 7.26906e-20)
(0.985213 0.00794776 -1.41237e-19)
(0.987 0.0118275 0)
(0.989357 0.0151671 -1.6709e-20)
(0.992162 0.0178406 -1.29748e-19)
(0.995289 0.0197754 1.55529e-20)
(0.998616 0.0209348 1.97965e-21)
(1.00205 0.0213202 2.25357e-19)
(1.00551 0.0209618 1.13136e-19)
(1.00893 0.0198875 1.08857e-19)
(1.0123 0.0181593 -1.03766e-19)
(1.01563 0.015835 0)
(1.01897 0.0129675 1.04134e-19)
(1.02239 0.0096029 0)
(1.02599 0.0057781 0)
(1.02991 0.00151908 -9.2476e-20)
(1.03434 -0.00315597 0)
(1.03953 -0.0082358 4.29909e-20)
(1.04583 -0.0137159 8.50401e-20)
(1.05372 -0.0196073 2.12806e-20)
(1.06393 -0.0259212 -8.0294e-20)
(1.07762 -0.0326842 0)
(1.0968 -0.0399665 3.8016e-20)
(1.12455 -0.0478348 0)
(1.14319 -0.0530998 -1.63085e-20)
(1.00882 -0.039629 3.5384e-20)
(0.518934 -0.00806372 0)
(0.27554 0.00116073 0)
(0.847081 0.0225921 -3.38407e-20)
(1.11613 0.0438155 -5.67106e-20)
(1.14194 0.0450209 5.65678e-20)
(1.11133 0.0379646 -5.83028e-20)
(1.08783 0.0307132 -1.20483e-19)
(1.07229 0.0240391 0)
(1.06105 0.0177478 0)
(1.0524 0.0117675 0)
(1.04545 0.00608599 0)
(1.03966 0.000706546 2.66673e-19)
(1.03465 -0.00436036 0)
(1.03017 -0.00909434 -5.42663e-19)
(1.02601 -0.0134618 0)
(1.02202 -0.0174151 0)
(1.01807 -0.0209013 5.17893e-19)
(1.01407 -0.0238505 4.18351e-19)
(1.00995 -0.0261762 -1.41632e-19)
(1.00571 -0.027783 -1.42474e-19)
(1.00134 -0.0285779 1.44343e-19)
(0.996906 -0.0284597 5.84518e-19)
(0.992501 -0.0273584 2.95711e-19)
(0.988274 -0.0252336 -1.48543e-19)
(0.984392 -0.0220798 0)
(0.981051 -0.0179508 2.11171e-21)
(0.978457 -0.0129585 7.61999e-20)
(0.976798 -0.00734636 -7.52449e-20)
(0.976199 -0.00134574 -1.89938e-19)
(0.976727 0.00474322 1.60447e-22)
(0.978352 0.0105358 0)
(0.98097 0.0158026 -7.03146e-20)
(0.984405 0.0202804 -1.34005e-19)
(0.988447 0.0238035 1.28529e-19)
(0.992891 0.0262976 -1.23061e-19)
(0.997543 0.0277439 -1.49851e-19)
(1.00226 0.0281884 -2.27901e-19)
(1.00691 0.0276857 5.45431e-20)
(1.01141 0.0263173 2.6011e-20)
(1.01575 0.024196 0)
(1.01994 0.021418 0)
(1.02405 0.0180704 -5.94083e-21)
(1.02816 0.0142298 1.82636e-19)
(1.03238 0.00995798 8.94629e-20)
(1.03687 0.00530423 0)
(1.04184 0.00030943 8.45113e-20)
(1.04754 -0.0049996 1.99432e-20)
(1.05434 -0.0106051 -2.04426e-20)
(1.06274 -0.0164983 4.83754e-21)
(1.07347 -0.0226789 7.30349e-20)
(1.08776 -0.0291685 2.86414e-19)
(1.10767 -0.0360301 1.38186e-19)
(1.13472 -0.0430869 -3.21134e-20)
(1.13877 -0.0459719 -3.20673e-20)
(0.971862 -0.0313706 -5.19564e-20)
(0.489121 -0.00596566 1.03154e-19)
(0.26215 0.00086631 0)
(0.811851 0.017634 -6.77437e-20)
(1.09905 0.03677 5.56191e-20)
(1.14741 0.0398536 -5.41876e-20)
(1.12191 0.0338778 1.12127e-19)
(1.09789 0.0268931 1.16651e-19)
(1.08172 0.0203074 -2.39029e-19)
(1.07006 0.0140026 6.25357e-22)
(1.06104 0.00790293 -1.24741e-19)
(1.05372 0.00199522 -2.55661e-19)
(1.04754 -0.00371217 -2.58321e-19)
(1.04212 -0.00920204 0)
(1.03717 -0.0144388 2.62258e-19)
(1.03247 -0.0193728 0)
(1.02786 -0.0239419 -5.51373e-19)
(1.02318 -0.0280807 -6.70408e-20)
(1.01829 -0.0316905 -2.73801e-19)
(1.01314 -0.0346348 4.17404e-19)
(1.00769 -0.0367756 -5.63392e-19)
(1.00195 -0.0379635 0)
(0.995973 -0.0380348 2.92824e-19)
(0.989874 -0.0368196 -4.45601e-19)
(0.983881 -0.0342345 1.50604e-19)
(0.978253 -0.030213 0)
(0.973304 -0.0247771 -1.56107e-19)
(0.969381 -0.0180461 7.75161e-20)
(0.966816 -0.0103632 1.59492e-19)
(0.965839 -0.00207419 1.55912e-19)
(0.966572 0.00635393 -1.54596e-19)
(0.968961 0.0143202 0)
(0.972817 0.0214722 0)
(0.977835 0.0274268 1.70447e-19)
(0.983643 0.0319754 2.91424e-21)
(0.989904 0.0350595 -2.17127e-19)
(0.99633 0.0367207 -3.51881e-19)
(1.00269 0.0370693 5.63326e-20)
(1.00878 0.0362115 -2.62947e-20)
(1.01455 0.034337 0)
(1.01996 0.0316142 0)
(1.02507 0.0281925 8.16182e-20)
(1.02993 0.0242014 9.92819e-20)
(1.03468 0.0197485 -9.09155e-21)
(1.03944 0.014924 0)
(1.04441 0.00979599 -8.07047e-20)
(1.04979 0.00441061 5.74577e-20)
(1.05586 -0.00119799 1.50759e-19)
(1.06302 -0.00700124 0)
(1.07175 -0.0129751 0)
(1.08283 -0.019114 4.2759e-21)
(1.0975 -0.0254525 -9.86834e-20)
(1.11785 -0.0320532 9.4916e-20)
(1.14282 -0.0383994 -1.54363e-20)
(1.13135 -0.0394354 1.32796e-19)
(0.940022 -0.0250418 -1.32114e-19)
(0.467226 -0.00459674 2.10231e-19)
(0.251857 0.000651705 0)
(0.782768 0.0138678 -3.35393e-20)
(1.08177 0.0306622 8.15636e-20)
(1.15059 0.034839 -5.23612e-20)
(1.13174 0.0298129 -1.08532e-19)
(1.10781 0.0230311 -2.23617e-19)
(1.09118 0.0164354 -1.15364e-19)
(1.07924 0.0100287 -1.18292e-19)
(1.07 0.00373205 0)
(1.06246 -0.00247564 0)
(1.05604 -0.00859109 0)
(1.05034 -0.0145902 0)
(1.04504 -0.0204362 1.26378e-19)
(1.03992 -0.0260703 -2.55855e-19)
(1.03476 -0.0314232 0)
(1.02938 -0.0364362 1.97631e-19)
(1.02362 -0.0409426 -1.32979e-19)
(1.01737 -0.0447852 2.0953e-21)
(1.01057 -0.0477773 2.7968e-19)
(1.0032 -0.0496919 1.57447e-21)
(0.995286 -0.0502712 2.9382e-19)
(0.986963 -0.0492127 -3.01059e-19)
(0.978517 -0.0462755 0)
(0.970366 -0.041312 -1.58974e-19)
(0.963004 -0.0342457 -1.65418e-19)
(0.957009 -0.0251797 0)
(0.952993 -0.0145493 -1.6746e-19)
(0.951393 -0.00294158 2.1137e-19)
(0.952443 0.00889584 4.10705e-20)
(0.956044 0.0199842 -2.13992e-19)
(0.961836 0.0297532 -7.54467e-20)
(0.969251 0.037601 -1.2129e-19)
(0.977649 0.0433167 1.3018e-19)
(0.986466 0.0469149 0)
(0.995279 0.0485735 2.3135e-19)
(1.0037 0.0484753 -2.75093e-20)
(1.01154 0.046905 2.56134e-20)
(1.01874 0.0441707 0)
(1.0253 0.040524 2.30008e-20)
(1.03131 0.0361801 1.08838e-19)
(1.03688 0.0313144 0)
(1.04217 0.0260714 -7.98336e-20)
(1.04736 0.020546 -7.52894e-20)
(1.05267 0.0148135 0)
(1.05833 0.00893534 7.07335e-20)
(1.06463 0.00295752 -3.44038e-20)
(1.07195 -0.00310701 0)
(1.08083 -0.00923904 -3.20713e-20)
(1.09208 -0.0154363 -6.31691e-20)
(1.10699 -0.0217357 -6.11842e-20)
(1.12745 -0.0281668 2.96941e-20)
(1.14918 -0.0338694 8.35065e-20)
(1.12229 -0.0335897 5.53299e-20)
(0.912762 -0.0201316 -1.09407e-19)
(0.450384 -0.00357615 -6.97335e-20)
(0.243856 0.000487194 0)
(0.758801 0.0109651 0)
(1.06526 0.0254559 0)
(1.15208 0.0301326 0)
(1.14087 0.0258989 0)
(1.11769 0.0192842 0)
(1.10079 0.0126122 0)
(1.0887 0.00603545 0)
(1.07938 -0.000525313 2.32663e-19)
(1.07179 -0.00710388 0)
(1.06529 -0.0137016 -2.37026e-19)
(1.05947 -0.0203038 0)
(1.05399 -0.0268728 0)
(1.0486 -0.0333614 4.95699e-19)
(1.04305 -0.0397182 0)
(1.03708 -0.0458438 0)
(1.03053 -0.0515801 0)
(1.02321 -0.0567394 2.66016e-19)
(1.01497 -0.0610639 -2.71301e-19)
(1.00572 -0.0642403 0)
(0.995446 -0.0658866 -1.44906e-19)
(0.98425 -0.0655391 -3.08296e-19)
(0.9724 -0.0626428 0)
(0.960516 -0.0568344 -1.61666e-19)
(0.949396 -0.0478398 4.53418e-21)
(0.940029 -0.0356168 -5.29626e-19)
(0.933556 -0.0206891 -1.83163e-19)
(0.930872 -0.00405642 -1.40332e-21)
(0.932445 0.0129589 -8.89355e-20)
(0.938094 0.0286904 1.04665e-20)
(0.947078 0.0421265 1.53599e-19)
(0.958273 0.0523672 1.79032e-20)
(0.970557 0.0592642 4.13302e-21)
(0.983039 0.0630677 -7.2027e-19)
(0.995008 0.0641612 1.64401e-19)
(1.00599 0.0629854 2.55713e-20)
(1.01585 0.060106 4.78921e-20)
(1.02459 0.0559686 2.19813e-20)
(1.03229 0.0509383 1.98149e-20)
(1.03911 0.0453039 -2.34699e-19)
(1.04526 0.0392689 -2.16618e-19)
(1.05094 0.0330022 -2.97112e-19)
(1.05638 0.0266051 -6.90629e-20)
(1.06183 0.0201497 0)
(1.06755 0.0136855 1.64527e-20)
(1.07388 0.0072495 0)
(1.08121 0.000851639 -3.00791e-20)
(1.0901 -0.0055036 -2.90212e-20)
(1.10138 -0.0118267 -1.42428e-20)
(1.1164 -0.0181612 5.50663e-20)
(1.1366 -0.0244799 0)
(1.15411 -0.0296161 0)
(1.11266 -0.028478 0)
(0.889735 -0.0162836 1.39798e-20)
(0.437393 -0.00280912 6.57725e-20)
(0.237629 0.000370732 0)
(0.739149 0.00872059 0)
(1.0501 0.0211047 2.59571e-20)
(1.15242 0.0258658 4.87477e-20)
(1.14938 0.0222593 0)
(1.1276 0.0157923 0)
(1.11064 0.00901108 1.05246e-19)
(1.09853 0.00222038 0)
(1.08929 -0.00465074 2.21691e-19)
(1.0818 -0.0116487 0)
(1.0754 -0.0187871 -4.51767e-19)
(1.06966 -0.0260665 -1.13701e-19)
(1.06421 -0.033464 4.6282e-19)
(1.05877 -0.0409533 9.76336e-19)
(1.05305 -0.0485315 -2.39347e-19)
(1.04675 -0.0560654 6.16386e-20)
(1.03964 -0.0634244 1.23509e-19)
(1.03142 -0.0704147 0)
(1.02182 -0.0767561 0)
(1.01059 -0.0820284 0)
(0.997569 -0.0857004 1.42736e-19)
(0.982745 -0.0870791 -1.56689e-19)
(0.966287 -0.0852324 -9.51161e-19)
(0.948833 -0.0791484 1.66271e-19)
(0.93168 -0.0681438 -3.6107e-19)
(0.91652 -0.0516988 -7.58271e-19)
(0.905579 -0.0303064 2.95949e-19)
(0.90085 -0.00563394 -2.03311e-19)
(0.903346 0.0196076 -1.95646e-19)
(0.91271 0.0426172 -2.56595e-20)
(0.927275 0.0612727 -8.32217e-20)
(0.944718 0.0743355 -1.4918e-19)
(0.963003 0.0820228 -2.70484e-19)
(0.980673 0.0851101 -4.84581e-19)
(0.996691 0.0844707 1.03917e-19)
(1.01072 0.0811539 -9.77878e-20)
(1.02276 0.0760158 6.75181e-20)
(1.03298 0.069703 -2.42221e-19)
(1.04164 0.0626835 -7.75617e-20)
(1.04905 0.0552991 -6.89253e-20)
(1.05548 0.0477761 1.36482e-19)
(1.06124 0.0402468 0)
(1.06664 0.0328077 -4.64759e-20)
(1.07198 0.0255104 0)
(1.07757 0.0183831 0)
(1.08373 0.0114334 2.89668e-20)
(1.09091 0.00465712 4.18368e-20)
(1.09966 -0.00196273 2.5805e-20)
(1.11084 -0.00845359 2.48636e-20)
(1.12582 -0.0148616 2.39156e-20)
(1.14536 -0.0210923 0)
(1.15795 -0.0257391 -1.20973e-20)
(1.1031 -0.0241046 -2.36494e-20)
(0.870331 -0.0132798 5.42245e-20)
(0.427345 -0.00225747 -1.77123e-19)
(0.232714 0.000296309 0)
(0.722953 0.00701203 -3.16525e-20)
(1.03649 0.0175434 0)
(1.15208 0.0221382 0)
(1.15734 0.0190124 9.46185e-20)
(1.13753 0.012685 9.80089e-20)
(1.12074 0.00578595 -5.04118e-20)
(1.10876 -0.00123492 0)
(1.09975 -0.00842852 5.22687e-20)
(1.09254 -0.0158563 -1.05318e-19)
(1.08645 -0.0235514 0)
(1.08102 -0.0315382 -1.0725e-19)
(1.07587 -0.0398327 -3.45369e-21)
(1.07069 -0.0484546 -8.30704e-20)
(1.06513 -0.057407 5.46393e-20)
(1.05891 -0.0666198 -3.02926e-21)
(1.05165 -0.0760138 2.37439e-19)
(1.04297 -0.085435 0)
(1.0324 -0.0946206 4.99543e-19)
(1.01946 -0.103167 -1.43728e-21)
(1.00364 -0.110381 0)
(0.98457 -0.115315 -4.42968e-19)
(0.962105 -0.116569 -1.57858e-19)
(0.936525 -0.112118 6.7671e-19)
(0.909402 -0.0998848 6.10793e-21)
(0.883748 -0.0782265 0)
(0.863985 -0.0467479 2.1107e-19)
(0.85497 -0.00835657 -1.20618e-19)
(0.85929 0.0312951 1.08959e-19)
(0.876041 0.0663331 -4.04191e-19)
(0.901108 0.0922871 1.70139e-19)
(0.929293 0.107927 3.0707e-19)
(0.956924 0.114821 5.10201e-19)
(0.981607 0.114928 -1.0737e-19)
(1.00253 0.110457 -1.05283e-19)
(1.01979 0.103229 8.30407e-20)
(1.03381 0.0944575 -3.01751e-19)
(1.04512 0.0849702 2.20717e-19)
(1.05422 0.0752735 6.74695e-20)
(1.06165 0.0656603 0)
(1.06787 0.0563181 8.35491e-20)
(1.07332 0.0473344 -2.40912e-20)
(1.07834 0.0387414 0)
(1.08328 0.0305394 -5.0876e-20)
(1.08848 0.0227083 -5.18155e-20)
(1.09427 0.0152311 4.86965e-20)
(1.1011 0.00806835 -1.22216e-19)
(1.10956 0.00118053 -4.81128e-20)
(1.12052 -0.00548325 2.26118e-20)
(1.13529 -0.0119702 2.17966e-20)
(1.15378 -0.018107 -1.04857e-20)
(1.16093 -0.0223223 -3.10479e-20)
(1.09381 -0.0204233 5.1427e-21)
(0.853471 -0.0109144 -6.02637e-21)
(0.418654 -0.00187025 0)
(0.228771 0.000231907 0)
(0.70953 0.00574565 0)
(1.02441 0.0147329 -4.84985e-20)
(1.15131 0.0190347 0)
(1.16483 0.0162778 -4.50005e-20)
(1.14749 0.0100968 4.61804e-20)
(1.13113 0.00310488 9.4848e-20)
(1.1194 -0.00412036 0)
(1.11077 -0.0116107 1.95414e-19)
(1.10402 -0.0194419 0)
(1.09844 -0.0276728 -4.00792e-19)
(1.09356 -0.036356 -2.02185e-19)
(1.08903 -0.0455509 -6.36616e-21)
(1.08448 -0.0552982 -2.0752e-19)
(1.07958 -0.0657022 2.07408e-19)
(1.07398 -0.0767549 2.13115e-19)
(1.06726 -0.0884849 -1.06175e-19)
(1.05892 -0.100865 -3.33698e-19)
(1.0483 -0.113785 -1.11161e-19)
(1.03458 -0.12696 2.38633e-19)
(1.01679 -0.139846 0)
(0.993747 -0.151361 -6.28555e-21)
(0.964241 -0.15958 2.99587e-19)
(0.927592 -0.161461 0)
(0.884182 -0.151917 0)
(0.838328 -0.125381 4.5724e-19)
(0.799351 -0.0779568 -1.01705e-20)
(0.780252 -0.0138482 3.78304e-21)
(0.788665 0.053593 -5.33748e-19)
(0.821976 0.109809 4.52385e-19)
(0.86844 0.145268 3.71263e-19)
(0.915596 0.160583 6.0141e-19)
(0.956961 0.161747 3.98875e-19)
(0.990286 0.154225 2.01987e-19)
(1.01625 0.14232 0)
(1.03606 0.128601 0)
(1.05097 0.114505 1.60549e-19)
(1.06219 0.100733 2.47764e-21)
(1.07073 0.0876743 -5.93521e-20)
(1.07741 0.0754643 -4.58256e-20)
(1.08279 0.06413 -9.19877e-20)
(1.08739 0.0536245 6.81953e-20)
(1.09158 0.0438726 0)
(1.09576 0.0347986 2.22146e-20)
(1.10026 0.026322 -2.0836e-20)
(1.10544 0.0183661 0)
(1.11174 0.0108655 0)
(1.11974 0.00374843 -1.70592e-21)
(1.13034 -0.00305561 0)
(1.14474 -0.0095963 0)
(1.16182 -0.0156245 -1.67489e-22)
(1.16328 -0.0194734 0)
(1.0852 -0.0174793 -2.67836e-20)
(0.839109 -0.00913079 0)
(0.411003 -0.00154748 -3.88315e-20)
(0.225512 0.000220299 0)
(0.698306 0.00488119 7.3873e-21)
(1.0138 0.0126465 5.82945e-21)
(1.15039 0.0166237 0)
(1.17191 0.0141563 5.32344e-21)
(1.15741 0.00813591 0)
(1.1417 0.00109776 0)
(1.13038 -0.00627576 0)
(1.12226 -0.013992 0)
(1.11613 -0.0221405 0)
(1.11128 -0.0308035 0)
(1.10724 -0.0400655 0)
(1.10364 -0.0500186 0)
(1.10013 -0.0608172 2.84351e-19)
(1.09643 -0.0725805 -9.59779e-20)
(1.09217 -0.0854243 -1.94404e-19)
(1.08691 -0.0995238 -1.94898e-19)
(1.0801 -0.115072 3.25208e-21)
(1.07099 -0.132265 -1.09471e-19)
(1.05852 -0.151252 -2.08133e-21)
(1.04114 -0.172009 4.59915e-19)
(1.01664 -0.194099 -2.63592e-19)
(0.981818 -0.215973 0)
(0.932703 -0.234001 2.97902e-19)
(0.865089 -0.239877 -1.54002e-18)
(0.779278 -0.216832 9.46281e-19)
(0.693816 -0.145762 5.89644e-19)
(0.647737 -0.0272796 2.27237e-18)
(0.666463 0.102101 0)
(0.742099 0.198361 9.76148e-19)
(0.835452 0.240724 -1.29259e-18)
(0.915102 0.243093 -3.6762e-19)
(0.97379 0.226214 -9.74483e-20)
(1.01499 0.202633 -4.82896e-19)
(1.04332 0.178041 3.64146e-21)
(1.06271 0.154765 3.32505e-19)
(1.07603 0.133712 -2.90931e-20)
(1.08527 0.114918 1.27363e-19)
(1.0918 0.098272 4.06341e-20)
(1.09655 0.0834657 7.04744e-20)
(1.10021 0.0702437 0)
(1.10328 0.0583699 1.83628e-20)
(1.10618 0.0476243 2.7732e-20)
(1.10927 0.0378267 3.0465e-20)
(1.11279 0.0288435 -1.74195e-20)
(1.11714 0.0205407 5.77004e-20)
(1.12274 0.0128101 -1.51373e-20)
(1.13017 0.00554858 -6.97424e-20)
(1.14031 -0.00131856 -7.60682e-21)
(1.15417 -0.00785291 -1.60358e-20)
(1.16951 -0.0137265 -1.49579e-20)
(1.16512 -0.0172347 8.21716e-21)
(1.07719 -0.0152276 8.22497e-21)
(0.826634 -0.00787169 7.3726e-22)
(0.404434 -0.00137567 1.79362e-20)
(0.222424 0.000277999 1.58541e-19)
(0.688447 0.00440185 -2.26184e-19)
(1.00428 0.01126 1.72261e-22)
(1.14935 0.0149453 8.11166e-20)
(1.1786 0.0127216 -8.00185e-20)
(1.16724 0.0068964 -8.14917e-20)
(1.15239 -0.00010879 0)
(1.14158 -0.00753325 1.40343e-22)
(1.13408 -0.0153589 -4.21826e-20)
(1.12871 -0.0236863 2.12093e-20)
(1.12477 -0.0326193 -2.12326e-20)
(1.12178 -0.0422702 -2.11616e-20)
(1.11941 -0.0527708 1.07122e-20)
(1.11737 -0.0643137 4.17852e-20)
(1.11541 -0.0770838 6.68051e-20)
(1.11322 -0.091326 1.32193e-19)
(1.11045 -0.107377 5.11988e-19)
(1.10666 -0.125672 8.88658e-20)
(1.10116 -0.146806 0)
(1.09298 -0.17162 0)
(1.08059 -0.201165 -1.79729e-19)
(1.06115 -0.236843 2.49885e-20)
(1.02979 -0.280134 -6.10882e-19)
(0.977354 -0.331526 2.48901e-19)
(0.88601 -0.386477 -3.06028e-19)
(0.725273 -0.40904 0)
(0.511877 -0.316697 3.85474e-18)
(0.385467 -0.0646757 -1.21387e-18)
(0.433975 0.227318 -5.12734e-18)
(0.638434 0.40251 1.94275e-18)
(0.833595 0.417272 0)
(0.958852 0.362898 -6.32396e-19)
(1.02783 0.303963 1.67739e-19)
(1.06675 0.252608 1.23156e-19)
(1.08917 0.210427 5.51472e-20)
(1.10225 0.176115 4.62807e-20)
(1.10994 0.147981 6.80554e-20)
(1.11452 0.12457 0)
(1.11712 0.104886 -1.58631e-20)
(1.11867 0.0880647 1.28987e-19)
(1.11977 0.0734938 0)
(1.12071 0.0607138 -1.46232e-21)
(1.12185 0.0493746 -4.92609e-21)
(1.12346 0.0391991 -1.79009e-20)
(1.12578 0.0299721 -5.91765e-21)
(1.12913 0.0215324 1.12278e-20)
(1.1339 0.013739 -6.26393e-21)
(1.14064 0.00647528 -6.75416e-21)
(1.15022 -0.00035918 -7.77634e-22)
(1.16342 -0.00680446 5.11763e-21)
(1.17677 -0.0124759 4.37398e-21)
(1.16662 -0.015667 -9.11454e-21)
(1.06996 -0.013676 -1.3343e-20)
(0.815896 -0.00709189 -7.63887e-21)
(0.398712 -0.00131862 -1.42703e-20)
(0.214951 0.000350301 -2.3953e-18)
(0.676509 0.00424796 0)
(0.993972 0.0104339 -6.64329e-19)
(1.1477 0.0139294 6.01593e-19)
(1.18486 0.0119939 5.9302e-19)
(1.17693 0.00645367 0)
(1.1631 -0.000401688 6.13179e-19)
(1.15285 -0.00774871 0)
(1.14602 -0.0155338 0)
(1.14151 -0.0238614 3.10781e-19)
(1.13858 -0.0328495 0)
(1.13679 -0.0426218 -3.02277e-19)
(1.13587 -0.0533274 -9.75363e-21)
(1.13557 -0.0651821 3.80475e-20)
(1.13573 -0.0784129 5.67819e-20)
(1.13618 -0.0933328 5.61289e-20)
(1.13672 -0.110367 3.59428e-20)
(1.13719 -0.130113 -1.77879e-21)
(1.13732 -0.153439 -7.27727e-20)
(1.13682 -0.1817 6.64606e-20)
(1.13515 -0.217039 -3.26136e-19)
(1.13115 -0.26313 5.26131e-20)
(1.12281 -0.326688 0)
(1.10567 -0.424036 0)
(1.04746 -0.574018 -9.14922e-20)
(0.802624 -0.662695 0)
(0.208281 -0.35767 7.38597e-17)
(0.361123 0.45836 -5.32139e-20)
(0.915662 0.666393 6.05589e-20)
(1.12342 0.493082 1.88829e-19)
(1.14465 0.363478 -1.06185e-19)
(1.15285 0.282022 -1.55221e-19)
(1.1547 0.225508 -4.04042e-20)
(1.15348 0.183945 1.25984e-20)
(1.15094 0.151844 -2.01055e-21)
(1.14803 0.126289 3.5894e-21)
(1.14511 0.105383 -3.96692e-22)
(1.14248 0.0879023 -4.68252e-21)
(1.1403 0.072996 3.19458e-22)
(1.1387 0.0600789 -4.8335e-21)
(1.13783 0.0487242 -3.5806e-21)