/*--------------------------------*- C++ -*----------------------------------*\
  =========                 |
  \\      /  F ield         | OpenFOAM: The Open Source CFD Toolbox
   \\    /   O peration     | Website:  https://openfoam.org
    \\  /    A nd           | Version:  7
     \\/     M anipulation  |
\*---------------------------------------------------------------------------*/
FoamFile
{
    version     2.0;
    format      ascii;
    class       volScalarField;
    location    "100";
    object      omega;
}
// * * * * * * * * * * * * * * * * * * * * * * * * * * * * * * * * * * * * * //

dimensions      [0 0 -1 0 0 0 0];

internalField   nonuniform List<scalar> 
12842
(
3.12811
2.83105
2.64097
2.51109
2.41913
2.36565
2.31698
2.28579
2.2577
2.24364
2.2359
2.23669
2.24253
2.2621
2.29144
2.35897
2.44473
2.57336
2.70244
2.88167
3.0286
3.24415
3.38522
3.11223
2.78601
2.6131
2.49505
2.40917
2.35233
2.30772
2.27969
2.2541
2.24112
2.23287
2.23321
2.23944
2.25815
2.29305
2.35777
2.45624
2.57607
2.73169
2.88838
3.02814
3.24859
3.38482
3.08316
2.75539
2.56676
2.46011
2.38504
2.33625
2.29545
2.26907
2.24412
2.23515
2.2287
2.23074
2.23842
2.25788
2.29727
2.36513
2.46458
2.58793
2.74822
2.91456
3.06749
3.28236
3.42771
3.04894
2.71542
2.54261
2.43103
2.36705
2.31962
2.28458
2.26059
2.23758
2.23039
2.2242
2.22703
2.23649
2.25834
2.29983
2.37277
2.48421
2.6032
2.77709
2.93557
3.11344
3.30117
3.44809
3.01189
2.66873
2.49968
2.40214
2.34244
2.30283
2.27109
2.24949
2.23008
2.22515
2.22178
2.22546
2.23795
2.26156
2.3075
2.38221
2.49147
2.62677
2.80384
2.95848
3.1784
3.37975
3.5429
2.97466
2.63494
2.47192
2.37476
2.32659
2.28763
2.26168
2.24055
2.22391
2.22087
2.21769
2.2224
2.23748
2.26374
2.31494
2.39889
2.51942
2.64484
2.85369
3.0169
3.2409
3.42648
3.66565
2.93291
2.58973
2.43864
2.35099
2.30589
2.27316
2.2503
2.23088
2.21912
2.21699
2.21537
2.22089
2.23771
2.2686
2.32239
2.40886
2.53203
2.68788
2.8833
3.06713
3.35121
3.54815
3.7738
2.89783
2.56181
2.41186
2.32881
2.29241
2.26063
2.24251
2.2237
2.21338
2.21431
2.21232
2.21911
2.23769
2.27505
2.33785
2.43215
2.5623
2.7169
2.95622
3.12739
3.39973
3.64123
3.91687
2.8532
2.52405
2.38863
2.31121
2.27775
2.25008
2.23461
2.21722
2.20931
2.2097
2.20858
2.21876
2.23953
2.27965
2.34531
2.44432
2.58777
2.76372
3.00097
3.20627
3.51601
3.77732
4.05295
2.81455
2.49615
2.36358
2.29451
2.2672
2.24163
2.22897
2.21335
2.2076
2.20904
2.20866
2.21936
2.24276
2.28779
2.36124
2.46724
2.61347
2.80687
3.079
3.28355
3.59219
3.87747
4.20758
2.7641
2.46314
2.34598
2.28102
2.25663
2.23398
2.22341
2.20977
2.20251
2.20567
2.21026
2.22573
2.25269
2.29974
2.37212
2.48625
2.64688
2.85668
3.12801
3.35271
3.70615
4.0262
4.34765
2.72546
2.43837
2.32365
2.26718
2.2471
2.22716
2.21833
2.20717
2.20158
2.20752
2.21466
2.23361
2.26587
2.31939
2.40026
2.51634
2.68373
2.92373
3.2159
3.46566
3.82388
4.14031
4.50776
2.67601
2.41107
2.30994
2.25631
2.2387
2.22098
2.21395
2.20493
2.19986
2.2093
2.22065
2.24495
2.28293
2.33801
2.42235
2.55664
2.7401
2.99791
3.29521
3.54382
3.93837
4.33086
4.71849
2.64562
2.39017
2.29094
2.24492
2.23025
2.21549
2.20964
2.20312
2.1989
2.21166
2.22655
2.2566
2.29979
2.36608
2.46084
2.5922
2.78464
3.07004
3.37682
3.67965
4.11076
4.48384
4.86209
2.60683
2.36826
2.27992
2.2361
2.22333
2.21055
2.20622
2.20184
2.19993
2.2147
2.2346
2.26893
2.31815
2.3837
2.48821
2.64932
2.86961
3.1815
3.50891
3.8001
4.24299
4.67965
5.14745
2.58389
2.35105
2.26429
2.22681
2.21595
2.2061
2.20271
2.2004
2.19954
2.21798
2.24153
2.28443
2.33715
2.41889
2.53663
2.69709
2.9276
3.25175
3.58286
3.93553
4.47758
4.94658
5.34636
2.55381
2.33372
2.25493
2.21926
2.20987
2.20203
2.19996
2.19948
2.19991
2.22113
2.25061
2.29635
2.35371
2.43692
2.56457
2.75742
3.02908
3.39049
3.76456
4.14817
4.69069
5.11795
5.62766
2.5361
2.31952
2.24241
2.21164
2.20346
2.19828
2.1971
2.19822
2.19756
2.22581
2.2591
2.31394
2.37595
2.47605
2.62635
2.83391
3.11612
3.47942
3.85942
4.2881
4.91999
5.48895
6.01683
2.51306
2.30576
2.23403
2.20472
2.19792
2.19473
2.1946
2.19728
2.19927
2.22795
2.26787
2.32415
2.39105
2.49851
2.65806
2.88713
3.2155
3.6253
4.07753
4.59489
5.27469
5.75393
6.24191
2.49912
2.29381
2.22423
2.19828
2.19242
2.19141
2.19213
2.19618
2.2019
2.23297
2.2783
2.34137
2.41543
2.53906
2.72864
2.99571
3.3423
3.76328
4.21459
4.80223
5.46451
6.05418
6.76997
2.48154
2.28279
2.2165
2.19165
2.18738
2.18796
2.18964
2.19492
2.20033
2.23536
2.2859
2.34964
2.43155
2.56994
2.76748
3.05204
3.42669
3.90247
4.48449
5.12961
5.84574
6.58937
7.29683
2.47024
2.27243
2.2088
2.18607
2.18233
2.18481
2.18731
2.19385
2.20054
2.24142
2.29696
2.36598
2.45887
2.60607
2.85234
3.18016
3.60842
4.14589
4.70621
5.40893
6.20301
7.01637
7.71449
2.45684
2.26335
2.20158
2.17971
2.17765
2.18123
2.18467
2.19212
2.20109
2.24417
2.30452
2.37318
2.47484
2.65597
2.90441
3.24784
3.70112
4.28462
4.9923
5.82687
6.62391
7.60539
8.82754
2.44891
2.25639
2.19712
2.17598
2.17405
2.17904
2.1832
2.19164
2.2034
2.25164
2.31466
2.38765
2.50672
2.6861
2.98941
3.41071
3.92859
4.64668
5.38537
6.16169
7.27499
8.74237
9.88748
2.44131
2.2511
2.19358
2.17292
2.17188
2.17718
2.18211
2.19114
2.20623
2.25879
2.32575
2.39788
2.52653
2.75286
3.09664
3.50583
4.07236
4.87575
5.71763
6.84612
8.22964
9.94689
11.4657
2.43518
2.24662
2.19101
2.17069
2.16976
2.17541
2.18088
2.19031
2.2084
2.26621
2.33744
2.41403
2.56293
2.79124
3.16378
3.69417
4.39465
5.3627
6.24991
7.4594
9.6004
11.7838
15.6175
2.42817
2.24143
2.18739
2.16783
2.16768
2.17334
2.17947
2.18919
2.21014
2.27167
2.34891
2.4266
2.59523
2.8737
3.32654
3.87727
4.62164
5.66436
6.78961
8.74279
11.3846
16.5027
29.2927
2.42209
2.23743
2.18491
2.16576
2.16573
2.17134
2.17793
2.18771
2.21156
2.277
2.36097
2.44479
2.63606
2.92717
3.41696
4.04623
4.99667
6.30638
7.59335
10.2474
15.6034
31.5842
78.6568
2.41543
2.23225
2.18115
2.16321
2.16368
2.16922
2.17618
2.186
2.21257
2.27974
2.36978
2.45774
2.67851
3.02197
3.61595
4.41663
5.48734
6.80329
8.80214
12.9832
26.4337
72.3595
165.473
2.40957
2.22874
2.17868
2.16126
2.16181
2.16715
2.17436
2.18415
2.2138
2.28409
2.38158
2.48177
2.72514
3.12121
3.7503
4.60967
5.8067
7.67592
10.2683
19.0408
52.6677
136.046
242.955
2.40313
2.22353
2.17492
2.15907
2.1598
2.16512
2.1724
2.18224
2.21458
2.28622
2.38823
2.49569
2.76269
3.2025
3.99367
5.04519
6.54611
8.67905
13.2059
33.4884
90.8461
186.702
267.83
2.39759
2.2204
2.17249
2.15718
2.15793
2.16318
2.17042
2.18044
2.21572
2.29054
2.39921
2.52103
2.83528
3.36641
4.21761
5.32226
7.02682
9.80622
18.9081
50.8665
122.743
210.808
290.825
2.39143
2.21529
2.16885
2.15527
2.156
2.16135
2.16843
2.17865
2.21658
2.29298
2.40613
2.54609
2.90569
3.47363
4.44348
5.88869
7.94571
12.6722
28.8424
73.6173
151.958
236.447
275.243
2.38617
2.21232
2.16649
2.15349
2.15416
2.15968
2.16652
2.17724
2.21797
2.2984
2.41704
2.56555
2.98431
3.63233
4.85835
6.48764
9.08464
15.9709
38.0879
88.857
161.823
230.46
254.704
2.38047
2.20757
2.16299
2.15168
2.15228
2.15808
2.16471
2.17577
2.21896
2.30155
2.42532
2.61239
3.11839
3.87725
5.12021
6.93692
10.4505
20.0669
52.1575
108.003
176.828
218.012
240.842
2.37544
2.20454
2.16076
2.15002
2.15058
2.1568
2.1631
2.17477
2.221
2.30839
2.43811
2.6403
3.1814
4.00376
5.57529
7.86185
12.5784
30.5688
69.9419
120.392
172.667
208.303
227.937
2.37034
2.20039
2.15744
2.1482
2.14876
2.1554
2.16164
2.17359
2.22217
2.31186
2.44708
2.70438
3.3194
4.31277
5.82767
8.59572
17.3842
47.7493
85.5705
128.761
166.329
198.147
217.755
2.36552
2.1972
2.15536
2.14662
2.14727
2.15455
2.16046
2.17308
2.22411
2.31882
2.46106
2.73794
3.39864
4.48673
6.44529
11.978
34.7363
70.3213
103.999
132.341
160.517
188.65
207.467
2.36099
2.19364
2.15231
2.1448
2.14554
2.15336
2.15948
2.17244
2.22507
2.32228
2.46942
2.80347
3.59507
5.07488
7.56065
22.4013
55.8521
89.8543
112.717
134.233
156.483
179.745
198.199
2.35654
2.19047
2.15038
2.14335
2.14431
2.15277
2.15868
2.17191
2.22704
2.32959
2.48609
2.85331
3.83445
5.78456
14.02
43.6176
79.7854
101.022
117.721
134.049
152.427
170.239
184.466
2.35238
2.18723
2.14773
2.14145
2.14273
2.15177
2.15817
2.17171
2.22813
2.33354
2.4975
2.93255
4.24615
9.74747
28.7427
70.5436
97.6849
108.943
122.808
133.845
149.783
162.682
175.551
2.34846
2.18428
2.1459
2.14028
2.14167
2.15123
2.15767
2.17224
2.23101
2.34384
2.52621
3.10012
6.04059
15.6059
52.8693
91.5698
110.878
118.455
128.385
134.599
147.931
157.631
166.115
2.3445
2.18125
2.14381
2.13844
2.14031
2.15023
2.15695
2.17209
2.2327
2.34999
2.55069
3.34856
7.38104
26.4848
76.2196
107.674
116.302
121.039
129.097
134.392
145.332
155.068
160.894
2.34116
2.17842
2.14204
2.13736
2.13932
2.14961
2.15621
2.17333
2.23829
2.36864
2.61282
3.81433
11.9086
42.4109
99.043
120.714
118.421
121.909
132.235
134.453
145.334
151.628
157.627
2.33734
2.17566
2.14035
2.13584
2.13795
2.14838
2.15544
2.1738
2.24202
2.38046
2.66968
4.57533
15.6013
62.5629
115.014
122.613
123.061
122.984
130.762
134.355
142.928
149.022
155.165
2.33456
2.17286
2.1388
2.13475
2.13706
2.14759
2.15506
2.17711
2.25397
2.41426
2.79724
5.43545
23.1691
82.448
124.503
124.648
122.542
123.666
131.467
134.937
143.021
146.974
151.686
2.33092
2.17025
2.13715
2.13342
2.13573
2.14586
2.15456
2.17963
2.2642
2.43541
2.90311
6.83627
30.8232
101.815
132.391
130.632
122.879
124.766
131.102
134.437
141.412
144.829
147.783
2.32845
2.16764
2.13578
2.13236
2.13458
2.14488
2.1555
2.18765
2.28791
2.48823
3.15407
8.48887
40.7455
114.55
131.144
129.531
124.285
124.706
130.897
134.174
140.831
144.059
146.592
2.32535
2.16504
2.1342
2.13102
2.13283
2.14293
2.15518
2.19435
2.30772
2.52563
3.3218
10.2866
54.1268
124.887
131.868
129.394
124.292
125.053
129.9
133.095
137.228
140.295
144.376
2.32302
2.16282
2.13287
2.13019
2.13113
2.1423
2.15701
2.20827
2.34068
2.5933
3.66788
13.6658
65.609
128.881
133.644
129.672
126.534
126.565
129.995
133.669
137.775
140.347
144.364
2.32148
2.16087
2.13158
2.12893
2.12918
2.14146
2.15878
2.22152
2.37178
2.65096
3.92033
16.2529
70.743
131.312
136.734
129.846
125.316
126.29
129.816
133.253
137.629
140.486
143.478
2.32006
2.15914
2.1303
2.12777
2.12866
2.1418
2.16452
2.24242
2.41249
2.72714
4.22708
17.5076
72.4286
133.845
136.034
127.626
124.187
126.445
129.711
133.093
137.918
141.082
143.388
2.31903
2.15744
2.12877
2.1265
2.12804
2.14224
2.17231
2.264
2.45253
2.7889
4.41347
17.2905
71.7022
133.273
132.828
118.599
115.301
121.877
124.648
127.494
132.438
136.223
136.646
2.31821
2.156
2.12712
2.1257
2.12875
2.14601
2.18742
2.29393
2.50067
2.85607
4.40198
15.9267
67.5438
132.753
120.133
106.87
104.808
114.514
115.842
118.159
121.889
125.792
125.181
2.31704
2.15454
2.12557
2.12563
2.13157
2.15471
2.20625
2.32693
2.54901
2.91506
4.35231
14.1574
60.2259
124.662
107.198
96.5636
96.5427
105.778
105.565
106.976
108.677
110.702
109.3
2.31547
2.153
2.12443
2.12633
2.14066
2.17164
2.23355
2.36813
2.60335
2.9782
4.26538
12.3429
53.1682
111.843
96.774
87.5832
90.4112
96.3302
95.2537
95.7931
96.1455
96.8836
95.3385
2.31334
2.15157
2.12376
2.13043
2.1556
2.19306
2.26415
2.40962
2.65365
3.03319
4.18543
11.1988
45.8608
98.9786
87.889
80.4436
84.8317
87.548
85.7193
85.5718
84.2813
83.8048
82.1361
2.31069
2.15031
2.1235
2.13945
2.17536
2.21938
2.29915
2.45442
2.70552
3.09143
4.16114
10.2355
39.0793
86.7787
80.2803
74.0667
79.0082
78.8818
77.026
76.7055
74.0958
72.8932
71.3065
2.3074
2.14932
2.12418
2.15288
2.19972
2.25035
2.33873
2.50202
2.75837
3.15291
4.16387
9.78028
33.5478
76.8593
74.2321
68.3193
72.5914
70.7339
69.1851
68.8845
65.8582
64.554
63.2679
2.3035
2.14842
2.12771
2.17072
2.22892
2.28592
2.38191
2.55134
2.81167
3.21801
4.1711
9.74482
30.2876
69.3441
69.4569
63.1583
66.1442
63.3158
62.1836
62.3417
59.1998
58.3293
57.5231
2.29931
2.14812
2.13678
2.19244
2.26165
2.32464
2.42786
2.6017
2.86426
3.28621
4.28037
9.6541
28.728
64.1137
65.6416
58.265
59.6323
56.7353
55.9568
56.548
53.9232
53.6241
53.1975
2.29529
2.14869
2.14963
2.21777
2.29796
2.36654
2.47569
2.65201
2.91546
3.35758
4.46752
9.84848
28.599
60.2462
62.1343
54.1421
53.5235
51.0434
50.2809
51.4402
49.2735
49.2276
49.1558
2.29178
2.15162
2.16757
2.24623
2.33652
2.40999
2.52425
2.70177
2.96486
3.43117
4.73194
10.5293
28.6534
57.7202
58.6829
49.8882
48.1324
46.3867
45.9386
46.7641
45.2384
45.3028
45.4874
2.2891
2.15889
2.18881
2.27734
2.37709
2.45499
2.57311
2.75
3.01221
3.5073
5.03983
11.6321
30.0636
55.6464
55.0289
45.9917
43.1892
42.1413
42.4553
43.122
41.8573
41.9874
42.352
2.28721
2.16954
2.21417
2.31098
2.41904
2.50044
2.62115
2.79657
3.0572
3.58532
5.40298
12.9357
32.1249
53.8451
51.1666
42.0878
38.9891
38.2296
39.452
40.0554
39.3268
39.3107
39.808
2.28587
2.18474
2.24275
2.34638
2.46156
2.54606
2.66826
2.84073
3.09982
3.66322
5.78179
14.4944
34.6425
52.2876
46.781
38.1627
35.2587
34.7901
36.6371
37.4118
37.0037
37.1202
37.8947
2.28631
2.20371
2.27438
2.38385
2.50487
2.59136
2.71363
2.88256
3.1398
3.74629
6.21739
16.1525
37.0192
50.708
42.2571
34.6317
32.0247
31.6616
34.0198
35.0827
35.1972
35.6042
36.682
2.28846
2.22651
2.30931
2.42206
2.54765
2.63588
2.75718
2.92164
3.17731
3.82028
6.60946
17.8357
39.3606
47.6314
37.6567
31.2945
29.516
29.3324
31.875
33.2336
33.9435
34.8012
35.9797
2.29586
2.2538
2.34614
2.46203
2.59065
2.67927
2.7984
2.95797
3.21209
3.91045
7.09023
19.4551
41.4043
44.0969
33.2323
28.3981
27.1694
27.4307
30.2385
31.8142
33.4078
34.448
35.6686
2.30639
2.28353
2.3859
2.50145
2.63221
2.7213
2.83736
2.99158
3.2446
3.97649
7.4405
20.8925
42.9006
38.259
28.9175
26.2032
25.6196
26.4899
29.1623
30.9375
33.7543
34.4027
35.8839
2.32218
2.3182
2.42638
2.54241
2.67351
2.76139
2.87347
3.02224
3.2744
4.06942
7.89206
22.2172
43.5442
33.2815
25.9007
24.7712
24.8972
26.061
28.6101
30.4916
33.6023
34.3011
38.6532
2.34133
2.35358
2.46883
2.58141
2.7123
2.79966
2.90736
3.05043
3.30218
4.12842
8.24238
23.0656
43.9431
28.2302
23.5886
24.0779
24.7137
25.8279
28.2074
31.032
34.6458
40.4134
53.0336
2.36423
2.39329
2.51079
2.62176
2.75057
2.83537
2.93793
3.07574
3.32757
4.21667
8.5615
23.6756
43.8763
25.6043
22.6065
24.0145
24.6906
25.9259
28.9866
30.9362
38.7638
51.6014
84.5956
2.39055
2.43251
2.55362
2.65882
2.78522
2.86891
2.96661
3.09892
3.35132
4.27387
8.84569
23.9022
43.6925
23.5031
22.3658
24.726
26.0645
25.9038
28.9766
34.7712
54.6933
83.7188
133.189
2.41871
2.47426
2.59459
2.69712
2.81915
2.89947
2.99182
3.11952
3.37285
4.35673
9.09437
23.9113
43.033
23.4199
21.9004
24.9087
30.7175
33.3615
32.7797
42.5308
73.6457
126.074
175.002
2.44947
2.51489
2.63564
2.73113
2.84882
2.92775
3.01541
3.13834
3.39319
4.40506
9.14958
23.562
41.4042
23.1747
21.8545
27.4387
34.3639
38.0552
46.8999
64.276
112.284
179.983
235.795
2.48122
2.55623
2.67351
2.76598
2.87735
2.95287
3.03588
3.15507
3.41112
4.46817
9.20109
22.9049
39.8185
22.9951
22.892
31.6464
42.6989
54.4709
63.2634
97.4931
160.501
223.872
274.957
2.51324
2.59523
2.71093
2.79669
2.90195
2.97574
3.05462
3.17024
3.42771
4.51672
9.13696
21.9584
37.1371
23.0256
26.9251
37.2568
51.1141
69.6391
94.2921
135.046
191.97
256.934
295.22
2.54642
2.63441
2.74441
2.82663
2.92464
2.99566
3.07135
3.18386
3.44157
4.53056
8.95255
20.877
35.4408
24.1489
31.0755
48.8445
65.3724
92.646
124.016
183.444
229.436
260.988
307.814
2.57822
2.66976
2.77683
2.85429
2.94454
3.0136
3.08549
3.19605
3.45377
4.52189
8.77396
19.5161
31.9183
26.1598
35.2154
56.7114
85.4441
123.85
164.302
194.943
242.355
266.451
300.559
2.60926
2.70465
2.80531
2.8789
2.9622
3.02866
3.09933
3.20699
3.46358
4.55759
8.49508
18.2079
28.9462
28.2983
39.2159
69.5581
103.151
143.817
187.585
203.653
247.581
270.89
301.225
2.6409
2.73638
2.83236
2.90272
2.97747
3.0426
3.10965
3.21679
3.47271
4.55069
8.08266
16.7406
27.6976
30.1702
44.1388
81.8137
126.391
158.736
198.3
216.168
253.261
277.8
302.795
2.66794
2.76511
2.85559
2.92346
2.99189
3.05401
3.12074
3.22539
3.47872
4.52142
7.80742
15.4434
27.255
33.7385
50.2052
91.6565
134.561
159.332
205.679
226.771
253.659
278.915
302.801
2.69671
2.79338
2.87702
2.94227
3.00313
3.06388
3.12901
3.23301
3.48446
4.4801
7.60386
14.9368
26.7435
38.2041
55.5027
99.6696
138.085
161.881
200.715
227.022
252.852
279.948
316.236
2.72161
2.81602
2.897
2.96078
3.01493
3.07368
3.13711
3.2397
3.48929
4.50132
7.28783
14.5215
26.9451
42.125
62.3797
100.754
143.318
167.266
206.17
226.09
261.307
281.559
310.514
2.74587
2.84056
2.91193
2.97609
3.0257
3.08042
3.14587
3.24548
3.49434
4.49964
7.1913
14.1295
31.6524
46.6526
68.1303
102.703
140.234
175.631
198.385
234.615
255.746
284.112
316.184
2.76826
2.86029
2.93179
2.99432
3.03415
3.08828
3.1495
3.2505
3.49964
4.48925
7.09807
13.8407
40.8636
50.5221
72.5789
104.877
142.115
170.03
199.288
227.662
266.191
289.568
317.469
2.79197
2.88009
2.94548
3.00375
3.04702
3.09601
3.15103
3.25478
3.50609
4.47024
7.20776
14.2169
49.3869
56.994
73.1486
104.539
144.013
171.14
198.905
238.79
257.935
290.955
310.265
2.81606
2.90402
2.95259
3.00878
3.05146
3.10296
3.15453
3.2582
3.51136
4.46607
7.22835
14.793
56.6889
62.5879
74.3832
106.558
137.521
170.552
204.654
230.888
261.855
284.041
299.73
2.81989
2.91517
2.95923
3.01628
3.05475
3.10233
3.15425
3.26109
3.51722
4.4685
7.23879
14.8402
61.5094
64.3726
76.1899
111.087
138.158
171.587
201.863
235.603
257.093
275.067
288.185
2.82419
2.92075
2.96774
3.0233
3.05447
3.1029
3.15465
3.26319
3.52481
4.4967
7.25669
15.108
63.3912
68.7102
77.8465
106.445
137.207
171.766
207.618
230.806
247.711
263.474
275.373
2.83263
2.92759
2.9671
3.02412
3.05486
3.10326
3.15623
3.26487
3.53244
4.46326
7.27461
15.1538
64.5517
71.2879
79.2109
106.822
137.468
177.339
203.145
221.124
237.291
252.446
262.7
2.83896
2.92531
2.96767
3.02876
3.0561
3.10337
3.15631
3.26611
3.53767
4.50624
7.27202
14.7998
64.0805
71.1246
83.7514
112.889
137.572
173.474
193.556
210.083
226.323
240.067
250.083
2.83856
2.92547
2.96904
3.02714
3.05611
3.10685
3.15613
3.2676
3.54771
4.50848
7.23605
14.7498
63.3912
71.3385
84.0969
108.083
140.629
165.674
183.291
199.918
215.83
228.675
238.008
2.83863
2.92835
2.97261
3.02943
3.05613
3.10498
3.15685
3.26799
3.55384
4.51709
7.37465
15.2837
60.453
70.9201
84.1914
111.387
135.869
155.435
171.511
188.019
204.092
216.225
225.938
2.84324
2.92873
2.96877
3.02926
3.05593
3.10479
3.15681
3.27032
3.56981
4.48846
7.40361
17.1989
58.2967
70.6683
84.7384
110.151
129.459
146.411
162.402
179.696
195.579
206.682
216.198
2.8453
2.92836
2.96916
3.0289
3.05552
3.10426
3.15492
3.26865
3.56257
4.40034
7.14004
18.2302
55.4956
70.2492
87.1243
105.096
121.042
136.014
152.328
169.829
185.505
196.151
205.934
2.84697
2.92795
2.96753
3.02758
3.05429
3.10597
3.15336
3.26561
3.5508
4.31645
7.05743
19.0629
53.318
70.1381
84.7659
98.8382
112.919
126.703
143.146
161.049
175.995
186.88
196.367
2.84337
2.93226
2.96709
3.02631
3.05307
3.10519
3.15342
3.26205
3.53765
4.24841
7.03041
19.8352
50.1295
67.8283
80.1828
92.0941
104.834
117.989
135.045
152.855
166.808
178.107
186.774
2.84303
2.92505
2.96544
3.02353
3.05304
3.1024
3.1487
3.25784
3.52368
4.16959
6.96283
20.4736
47.287
65.2521
75.5433
86.0308
97.7048
111.036
128.682
145.252
158.185
169.425
176.471
2.84398
2.92388
2.96628
3.01964
3.04452
3.09847
3.14805
3.25301
3.51177
4.1403
7.09178
22.376
46.6011
59.5795
70.5904
80.9046
92.638
105.966
123.314
138.424
149.919
160.775
165.978
2.83313
2.92686
2.9562
3.01405
3.04237
3.08774
3.14253
3.24804
3.49875
4.14239
7.2351
24.6831
46.3061
58.0962
67.9391
77.5639
89.1868
102.478
119.15
131.776
143.14
150.377
154.297
2.83008
2.92662
2.96235
3.00725
3.04231
3.0833
3.13322
3.24189
3.49065
4.13272
7.3817
27.2193
44.4052
54.9495
60.544
74.2374
87.3204
100.791
115.177
126.113
134.14
139.465
136.705
2.82941
2.92131
2.95092
2.99232
3.0378
3.07193
3.11931
3.23603
3.47881
4.12467
7.26755
28.4792
44.9535
54.3637
57.9517
73.93
86.9277
99.0006
111.045
118.692
123.426
120.387
113.111
2.81219
2.91093
2.95462
2.98781
3.02938
3.07246
3.11433
3.22809
3.47328
4.17201
7.55591
30.6437
43.3035
48.9719
57.2952
75.5629
86.3376
96.1287
103.684
106.851
103.095
94.4332
82.5395
2.80787
2.88895
2.946
2.98975
3.01671
3.06487
3.11427
3.22107
3.47025
4.23361
7.83919
31.9905
43.154
45.0739
62.8168
75.7071
81.4443
88.7154
91.4219
88.3869
80.043
68.4153
53.069
2.8133
2.87766
2.93018
2.98292
3.00233
3.05424
3.10542
3.21157
3.47127
4.37485
8.30249
30.8757
34.9349
49.3135
64.8353
67.9168
73.7253
77.608
77.1518
69.3955
59.8453
46.1591
31.3458
2.806
2.85989
2.90066
2.96634
2.99229
3.04339
3.09265
3.20342
3.47196
4.60529
9.63332
28.9378
36.4411
51.8802
56.8604
59.3823
64.9592
65.903
61.5734
53.8889
42.6839
29.0967
17.3007
2.79005
2.854
2.88714
2.9547
2.97755
3.02978
3.07833
3.19272
3.4903
4.95884
11.4708
25.4857
38.7278
45.9185
48.7531
52.6307
55.9598
54.5121
49.0138
40.5573
28.7802
17.5083
10.2694
2.77254
2.83999
2.86063
2.93147
2.96047
3.01108
3.06209
3.18383
3.52498
5.35541
14.108
24.456
36.3081
38.9517
42.4047
46.2818
47.3765
44.5004
38.6014
29.1785
18.3967
10.454
7.55481
2.75252
2.80776
2.85809
2.91068
2.93992
2.98797
3.042
3.17212
3.57602
5.9024
15.8347
23.4742
31.7324
33.623
37.7919
40.1792
39.8989
36.2424
29.4361
19.8304
11.0592
7.1724
6.10454
2.72739
2.77856
2.83617
2.87653
2.917
2.96129
3.01677
3.15897
3.61562
6.36994
15.1132
21.8634
27.1659
29.8504
33.5801
34.5253
33.1685
28.9782
21.3467
12.2646
6.97346
5.64407
5.06159
2.69648
2.74509
2.80615
2.84006
2.88601
2.93219
2.9886
3.14267
3.79064
7.02597
13.6375
20.0992
23.5292
27.1721
29.4323
29.4309
27.4203
22.3304
14.1353
7.1233
5.27286
4.64848
4.31742
2.66336
2.72227
2.77554
2.79518
2.84985
2.9001
2.95771
3.13268
4.00492
7.33275
12.7887
18.3008
20.9273
24.5858
25.4058
24.8011
22.1798
16.0073
8.06237
5.05584
4.33855
4.0483
3.89624
2.62352
2.69871
2.73486
2.75483
2.80882
2.86426
2.92352
3.11512
4.27846
7.43657
12.262
16.5663
19.1082
21.7439
21.8631
20.8596
16.9937
9.8979
5.11775
4.15118
3.85497
3.73107
3.66422
2.58501
2.6595
2.69247
2.7219
2.76512
2.82301
2.88764
3.11242
4.49885
7.43064
11.7172
15.1637
17.5436
18.935
18.7285
16.9855
11.8884
5.62076
4.06399
3.70546
3.58279
3.52734
3.48948
2.53304
2.59962
2.63938
2.68049
2.71629
2.77542
2.84632
3.15523
4.7654
7.59097
11.167
13.984
15.9395
16.3807
15.8908
13.0268
6.9867
4.10156
3.58192
3.44507
3.38996
3.357
3.32396
2.48049
2.54299
2.58988
2.63548
2.66279
2.71986
2.79988
3.17432
5.02022
7.93771
10.5878
12.9776
14.0798
14.0723
13.0894
8.65321
4.40132
3.5049
3.32108
3.25849
3.22661
3.19433
3.16362
2.41219
2.47587
2.52584
2.57333
2.60155
2.65938
2.75804
3.3262
5.53003
8.06386
10.0973
11.9809
12.3602
12.1352
9.93537
5.09611
3.49042
3.18875
3.11562
3.08297
3.05444
3.02504
3.00447
2.35113
2.42041
2.46692
2.50906
2.53263
2.58778
2.71172
3.52688
5.91834
7.81975
9.64663
10.6441
10.6572
9.98059
6.42867
3.62455
3.1089
3.00276
2.96652
2.94074
2.91247
2.89366
2.88022
2.27206
2.34553
2.38464
2.42452
2.45717
2.51618
2.66974
3.87089
6.65221
7.56949
9.11813
9.47518
9.34822
7.3605
3.96058
3.02621
2.85293
2.80606
2.78273
2.75822
2.74046
2.73139
2.72157
2.20742
2.28287
2.31264
2.34442
2.37128
2.44076
2.80531
4.32413
6.44229
7.27578
8.32327
8.29796
7.58205
4.78469
3.0541
2.75068
2.68825
2.66527
2.64826
2.6336
2.62794
2.62301
2.61842
2.11587
2.18484
2.20798
2.24145
2.28536
2.3823
2.88315
4.99122
6.19878
7.00476
7.41334
7.1239
5.42685
3.16717
2.61144
2.51604
2.49176
2.48095
2.47163
2.46737
2.46594
2.46231
2.45975
2.04907
2.11101
2.12729
2.15062
2.18464
2.30215
3.21478
5.45326
6.01706
6.5895
6.55797
5.71014
3.53914
2.58372
2.41341
2.38407
2.37505
2.3698
2.36508
2.36323
2.36325
2.35924
2.35792
1.93902
1.98546
1.99969
2.03847
2.10308
2.41101
3.57325
5.20505
5.36338
5.69733
5.35455
3.95631
2.52582
2.22942
2.18352
2.17511
2.17177
2.16813
2.16586
2.16464
2.16539
2.16458
2.16387
1.87353
1.9142
1.92269
1.93697
2.0435
2.51998
4.32135
4.73198
5.1001
5.10586
4.35554
2.68177
2.19158
2.1001
2.08237
2.07816
2.07662
2.07386
2.07239
2.07088
2.0733
2.07233
2.07272
1.72455
1.74694
1.76761
1.8705
2.21283
3.26616
3.89068
3.91501
4.01051
3.48496
2.42026
1.93292
1.82749
1.81188
1.81183
1.81234
1.81348
1.81261
1.81534
1.81431
1.81557
1.81632
1.81868
3.10987
2.79495
2.60958
2.48296
2.40004
2.34318
2.30227
2.27865
2.25702
2.24789
2.23856
2.24198
2.25439
2.28219
2.33309
2.41572
2.5313
2.68642
2.81651
3.02035
3.15367
3.35074
3.4586
3.11744
2.80205
2.61405
2.49317
2.40848
2.35191
2.3081
2.28473
2.26035
2.24914
2.23871
2.24183
2.25379
2.28106
2.33115
2.41327
2.52494
2.68123
2.80933
3.00215
3.13182
3.32609
3.43397
3.12531
2.82035
2.6311
2.50557
2.41418
2.35647
2.31328
2.28947
2.2621
2.25123
2.23909
2.24169
2.2524
2.27751
2.32426
2.40272
2.50692
2.66434
2.78769
2.97245
3.09643
3.28653
3.39191
3.13582
2.83139
2.63625
2.51017
2.42027
2.36951
2.32197
2.29417
2.26472
2.25218
2.23848
2.24039
2.24978
2.27307
2.31627
2.39205
2.49246
2.64481
2.77058
2.95728
3.08633
3.27797
3.38979
3.14295
2.84377
2.64927
2.52777
2.4356
2.37709
2.32502
2.29529
2.26607
2.2526
2.23807
2.23949
2.24722
2.26952
2.3066
2.38378
2.47509
2.62166
2.74377
2.92678
3.05379
3.24288
3.35117
3.15014
2.8522
2.65942
2.53318
2.43805
2.37806
2.3257
2.29629
2.2669
2.25275
2.23727
2.23792
2.24279
2.26859
2.29695
2.37535
2.45584
2.59382
2.70823
2.88552
3.00677
3.19005
3.30347
3.15203
2.8554
2.66246
2.53703
2.44209
2.38284
2.33096
2.30024
2.27198
2.25572
2.24094
2.24007
2.24502
2.26555
2.29225
2.36117
2.44307
2.57884
2.69555
2.87272
2.99687
3.18124
3.30252
3.14715
2.84783
2.64867
2.52321
2.43086
2.37184
2.31806
2.28865
2.26466
2.25242
2.24005
2.23939
2.24467
2.26662
2.29345
2.37943
2.45327
2.59252
2.71073
2.8934
3.02454
3.20789
3.33877
2.99124
2.6525
2.48164
2.38489
2.32542
2.27935
2.25732
2.23455
2.2296
2.22325
2.22887
2.24662
2.2768
2.33679
2.43998
2.59838
2.85351
3.09915
3.48604
3.78279
4.22174
4.53492
4.93526
3.00035
2.6587
2.48659
2.38827
2.32843
2.28175
2.26003
2.23685
2.2314
2.2247
2.23008
2.24584
2.27579
2.33437
2.43397
2.58532
2.82356
3.06357
3.43713
3.70947
4.11814
4.43119
4.80245
3.00138
2.66264
2.49297
2.39302
2.33353
2.28468
2.26317
2.23886
2.23324
2.22566
2.23063
2.24551
2.27382
2.32883
2.42261
2.56564
2.79476
3.01765
3.36442
3.63555
4.02642
4.34388
4.66982
3.01164
2.67007
2.49884
2.39615
2.3365
2.28737
2.26546
2.2413
2.23454
2.22676
2.23131
2.2451
2.27243
2.32541
2.41532
2.55192
2.76624
2.98106
3.31994
3.5735
3.91392
4.25538
4.52891
3.01384
2.67476
2.50583
2.40215
2.34197
2.2911
2.26868
2.24342
2.23657
2.22801
2.23206
2.24476
2.27043
2.32008
2.40419
2.53233
2.73563
2.93713
3.24913
3.49407
3.83027
4.17269
4.38513
3.02514
2.68367
2.51282
2.40559
2.3454
2.29395
2.27089
2.24595
2.23762
2.22914
2.23275
2.24424
2.26897
2.31653
2.39684
2.51926
2.7111
2.90272
3.20165
3.44199
3.73465
4.05577
4.25304
3.02834
2.68933
2.52069
2.41289
2.35113
2.29867
2.27387
2.24847
2.23958
2.2305
2.23342
2.24392
2.2669
2.31082
2.38523
2.50001
2.68029
2.86057
3.13598
3.36942
3.63341
3.9636
4.1517
3.04083
2.70018
2.52859
2.41692
2.35501
2.30171
2.27627
2.25098
2.24056
2.23183
2.23419
2.24343
2.26546
2.30731
2.37836
2.48852
2.6594
2.82971
3.08694
3.32287
3.54775
3.86423
4.04496
3.0448
2.7067
2.53769
2.42575
2.36116
2.30727
2.27894
2.25417
2.24263
2.23336
2.23483
2.2432
2.26393
2.30364
2.37075
2.47508
2.63565
2.79709
3.03529
3.26611
3.45971
3.79513
3.96214
3.05847
2.72025
2.54637
2.43032
2.36539
2.31078
2.28165
2.25671
2.24371
2.23502
2.23528
2.24297
2.26282
2.30097
2.36529
2.46577
2.61917
2.77273
2.99073
3.21965
3.4042
3.71219
3.86564
3.06285
2.72698
2.55653
2.44086
2.37212
2.31693
2.28427
2.26056
2.24604
2.23686
2.23566
2.24284
2.26186
2.29847
2.36025
2.45674
2.60187
2.75015
2.94821
3.17762
3.34569
3.62675
3.77155
3.07704
2.74366
2.56622
2.44602
2.3765
2.32107
2.28739
2.26325
2.24751
2.23896
2.23617
2.24272
2.26065
2.296
2.35617
2.44994
2.5898
2.73562
2.91079
3.14228
3.29911
3.5572
3.69774
3.08191
2.75069
2.57669
2.45804
2.38401
2.32767
2.29045
2.26753
2.25007
2.24083
2.23676
2.24261
2.25922
2.29286
2.35052
2.44076
2.57392
2.71719
2.8777
3.1054
3.25395
3.49427
3.62276
3.09522
2.76964
2.58774
2.46375
2.38793
2.33202
2.29399
2.27045
2.25199
2.24337
2.23761
2.24275
2.25799
2.28991
2.34548
2.43317
2.56064
2.70445
2.85138
3.06656
3.20666
3.43043
3.54817
3.10057
2.77669
2.59705
2.47647
2.3963
2.33924
2.29805
2.27522
2.25484
2.24534
2.23816
2.24281
2.25696
2.2871
2.34069
2.4263
2.54845
2.69535
2.82861
3.03919
3.17174
3.37744
3.48904
2.92697
2.59128
2.42339
2.34053
2.28179
2.25112
2.22622
2.20931
2.20256
2.20673
2.22167
2.26143
2.32355
2.46426
2.6917
3.02298
3.54198
4.05491
4.73249
5.4228
6.1246
6.76906
7.38406
2.92946
2.59308
2.42514
2.34199
2.28338
2.25195
2.22725
2.2104
2.20361
2.20723
2.22108
2.26058
2.32174
2.4603
2.68524
3.01267
3.49625
3.9871
4.63485
5.31325
6.01639
6.62949
7.23145
2.93012
2.5947
2.42706
2.34337
2.28511
2.2524
2.22845
2.21108
2.20458
2.20804
2.22187
2.25907
2.31901
2.45347
2.67165
2.98886
3.48026
3.96764
4.59388
5.2439
5.93479
6.55513
7.14252
2.9327
2.59659
2.42909
2.34467
2.28681
2.25302
2.2293
2.21191
2.2052
2.20841
2.22213
2.25573
2.3168
2.44788
2.65981
2.97059
3.43754
3.91225
4.49815
5.15679
5.84937
6.42027
6.96934
2.93349
2.59803
2.43137
2.34607
2.28899
2.25375
2.23069
2.21288
2.20622
2.20907
2.22238
2.25502
2.31501
2.44346
2.65195
2.95736
3.41757
3.88096
4.45002
5.09576
5.75957
6.3278
6.89072
2.93636
2.59992
2.43353
2.34706
2.29068
2.25433
2.23144
2.21356
2.20673
2.20939
2.22235
2.25475
2.31244
2.43787
2.64034
2.9358
3.39138
3.84918
4.3875
5.0342
5.68869
6.22265
6.74908
2.93736
2.60133
2.43593
2.34848
2.29298
2.25529
2.2327
2.21474
2.20773
2.20998
2.22243
2.25563
2.31057
2.43233
2.62975
2.92481
3.36181
3.80459
4.3306
4.98105
5.59263
6.13297
6.67035
2.94055
2.60311
2.43827
2.3495
2.29474
2.25624
2.23347
2.21552
2.20823
2.21028
2.22236
2.2534
2.30847
2.42728
2.62144
2.90334
3.34372
3.77993
4.2971
4.93585
5.52183
6.04393
6.55565
2.94173
2.60457
2.44052
2.35078
2.29672
2.25732
2.23444
2.2168
2.20925
2.21089
2.22189
2.25534
2.30635
2.42162
2.60902
2.89268
3.3147
3.73682
4.2451
4.88793
5.42027
5.9696
6.49308
2.94513
2.60632
2.44302
2.35214
2.29847
2.2587
2.23517
2.21779
2.20982
2.21119
2.2225
2.25582
2.30443
2.41607
2.60078
2.87203
3.29323
3.70547
4.22686
4.8467
5.34842
5.90589
6.39621
2.9465
2.6079
2.44497
2.35344
2.30006
2.26004
2.23601
2.21914
2.21092
2.21182
2.22274
2.25487
2.3023
2.41114
2.58973
2.86163
3.26982
3.67279
4.1793
4.79568
5.24608
5.83476
6.33656
2.94994
2.60982
2.44749
2.35512
2.30156
2.26164
2.2366
2.22021
2.2116