/*--------------------------------*- C++ -*----------------------------------*\
  =========                 |
  \\      /  F ield         | OpenFOAM: The Open Source CFD Toolbox
   \\    /   O peration     | Website:  https://openfoam.org
    \\  /    A nd           | Version:  7
     \\/     M anipulation  |
\*---------------------------------------------------------------------------*/
FoamFile
{
    version     2.0;
    format      ascii;
    class       volScalarField;
    location    "100";
    object      p;
}
// * * * * * * * * * * * * * * * * * * * * * * * * * * * * * * * * * * * * * //

dimensions      [0 2 -2 0 0 0 0];

internalField   nonuniform List<scalar> 
12842
(
1.11945
1.24346
1.42513
1.73252
2.11625
2.52503
2.93448
3.32994
3.69747
4.02672
4.31692
4.58029
4.84262
5.14082
5.51492
5.99557
6.59025
7.27566
8.00035
8.70079
9.31843
9.81791
10.1865
1.10778
1.2534
1.43305
1.74521
2.11054
2.46301
2.76975
3.00242
3.13345
3.14482
3.03873
2.84189
2.60521
2.39739
2.29441
2.36087
2.62758
3.07895
3.65776
4.28652
4.8926
5.42085
5.86106
1.08229
1.23703
1.42572
1.74783
2.09606
2.39767
2.61276
2.69731
2.60927
2.32328
1.84693
1.22319
0.528088
-0.141191
-0.678235
-0.991848
-1.03681
-0.828715
-0.432969
0.0624595
0.58193
1.05699
1.49305
1.04392
1.20355
1.41016
1.74651
2.08165
2.34174
2.47915
2.43018
2.13746
1.56864
0.740297
-0.2865
-1.40943
-2.50666
-3.44631
-4.11707
-4.4671
-4.51808
-4.34365
-4.03623
-3.66546
-3.30483
-2.92927
0.993961
1.16509
1.3924
1.74652
2.07273
2.30146
2.3751
2.20496
1.71825
0.87616
-0.29107
-1.7028
-3.22906
-4.72776
-6.04709
-7.0615
-7.71883
-8.0506
-8.13575
-8.0642
-7.89017
-7.69012
-7.41501
0.936457
1.13004
1.37587
1.75165
2.07241
2.28061
2.30442
2.02463
1.3548
0.250063
-1.24038
-3.01688
-4.91989
-6.79453
-8.47497
-9.82662
-10.8011
-11.4403
-11.8226
-12.0282
-12.0903
-12.0867
-11.9451
0.875932
1.10155
1.36237
1.76442
2.08359
2.28487
2.27439
1.89877
1.06046
-0.291716
-2.08501
-4.2036
-6.45626
-8.68367
-10.7127
-12.403
-13.7114
-14.6883
-15.4039
-15.9246
-16.2572
-16.4857
-16.5066
0.817454
1.07956
1.35091
1.781
2.10052
2.30747
2.27609
1.82008
0.833478
-0.741929
-2.80714
-5.23621
-7.80357
-10.3574
-12.7234
-14.7567
-16.4169
-17.7585
-18.8364
-19.7028
-20.3348
-20.8314
-21.0419
0.754724
1.06123
1.34495
1.80788
2.13848
2.37275
2.34227
1.83739
0.74176
-1.00764
-3.28993
-5.97638
-8.80644
-11.6386
-14.3001
-16.6409
-18.6227
-20.302
-21.7146
-22.9072
-23.8158
-24.5863
-24.9674
0.696764
1.04629
1.34673
1.8425
2.19119
2.46287
2.4398
1.90415
0.72405
-1.1603
-3.61511
-6.51132
-9.56014
-12.6292
-15.5466
-18.1575
-20.4258
-22.4069
-24.1194
-25.6065
-26.7734
-27.7885
-28.3678
0.649803
1.03577
1.3529
1.87481
2.24268
2.55083
2.52949
1.96455
0.701863
-1.30768
-3.92328
-7.01702
-10.2749
-13.5732
-16.7432
-19.6256
-22.1861
-24.4767
-26.499
-28.2963
-29.7477
-31.0371
-31.8587
0.613132
1.02717
1.36019
1.90118
2.2887
2.62794
2.60198
2.00732
0.663734
-1.46203
-4.22506
-7.50195
-10.9539
-14.4684
-17.8809
-21.0296
-23.88
-26.4794
-28.8135
-30.9291
-32.6848
-34.2744
-35.3689
0.58477
1.01874
1.36561
1.92105
2.32897
2.69268
2.65913
2.03449
0.613677
-1.61977
-4.51534
-7.96014
-11.5904
-15.3068
-18.9531
-22.3641
-25.5018
-28.4072
-31.0528
-33.4906
-35.565
-37.4731
-38.8622
0.562369
1.01062
1.36735
1.93577
2.36389
2.74504
2.70393
2.04847
0.555033
-1.779
-4.79245
-8.39158
-12.1863
-16.0947
-19.9714
-23.6458
-27.0718
-30.2822
-33.2393
-36.0005
-38.4013
-40.637
-42.3308
0.544571
1.00336
1.36564
1.94751
2.39436
2.78682
2.74012
2.05292
0.491426
-1.93781
-5.05673
-8.80053
-12.7506
-16.8461
-20.9559
-24.9001
-28.6199
-32.1384
-35.4113
-38.4964
-41.2297
-43.7909
-45.8048
0.530918
0.997017
1.362
1.95869
2.42211
2.82198
2.77287
2.05421
0.429042
-2.09116
-5.30647
-9.19065
-13.293
-17.5773
-21.9282
-26.1526
-30.1739
-34.0044
-37.5963
-41.0017
-44.0689
-46.9415
-49.2858
0.520761
0.991337
1.35838
1.97066
2.44838
2.85436
2.80639
2.05826
0.373405
-2.23418
-5.54008
-9.56522
-13.8225
-18.3024
-22.9075
-27.4257
-31.7567
-35.8983
-39.8027
-43.5105
-46.8922
-50.0426
-52.6998
0.513398
0.986039
1.35632
1.98396
2.47407
2.88688
2.84325
2.06923
0.328189
-2.36364
-5.75675
-9.92744
-14.3462
-19.0319
-23.9072
-28.7346
-33.3822
-37.8275
-42.0229
-45.9956
-49.645
-53.0186
-55.9328
0.508031
0.981104
1.35678
1.99806
2.49914
2.92064
2.88379
2.08865
0.294466
-2.47865
-5.95665
-10.2791
-14.8674
-19.7683
-24.9294
-30.0809
-35.0486
-39.7823
-44.2331
-48.4138
-52.2536
-55.7681
-58.8408
0.504005
0.976684
1.35997
2.01244
2.52376
2.9563
2.92809
2.11733
0.272937
-2.57853
-6.13869
-10.6191
-15.3827
-20.5049
-25.9635
-31.4504
-36.7385
-41.739
-46.398
-50.7122
-54.6379
-58.1865
-61.2854
0.500778
0.973022
1.36512
2.02565
2.54668
2.99212
2.97396
2.15341
0.262109
-2.6642
-6.30141
-10.9426
-15.8824
-21.2235
-26.9847
-32.8143
-38.4216
-43.6658
-48.4804
-52.8485
-56.7425
-60.1878
-63.1501
0.497886
0.970789
1.37269
2.03934
2.57096
3.03207
3.02637
2.20239
0.26774
-2.72976
-6.4366
-11.2404
-16.3531
-21.905
-27.9687
-34.147
-40.0753
-45.5448
-50.4676
-54.817
-58.5601
-61.7494
-64.4325
0.495594
0.969658
1.37931
2.04911
2.59043
3.06763
3.07617
2.25545
0.283538
-2.77955
-6.54386
-11.5043
-16.7776
-22.5213
-28.8827
-35.4194
-41.682
-47.379
-52.3867
-56.65
-60.1462
-62.9904
-65.2829
0.492952
0.97356
1.39601
2.07407
2.63151
3.13116
3.15863
2.34834
0.344879
-2.7751
-6.5768
-11.6852
-17.118
-23.0475
-29.7058
-36.6134
-43.239
-49.1951
-54.2965
-58.4458
-61.6792
-64.1625
-65.9655
0.48831
0.982167
1.41886
2.10896
2.68423
3.20631
3.25182
2.45254
0.422926
-2.74503
-6.57212
-11.8159
-17.4074
-23.5178
-30.4686
-37.758
-44.7861
-51.0415
-56.2534
-60.3404
-63.3781
-65.475
-66.7426
0.492152
0.998566
1.44905
2.15162
2.74357
3.28371
3.33932
2.53933
0.470373
-2.75932
-6.61687
-11.9949
-17.7354
-24.006
-31.2334
-38.9103
-46.3706
-52.947
-58.3366
-62.5343
-65.4834
-67.2262
-68.0332
0.502656
1.01948
1.481
2.19399
2.79864
3.34959
3.40587
2.5937
0.47475
-2.82732
-6.71616
-12.2226
-18.0963
-24.4971
-31.9804
-40.0524
-47.9695
-54.9244
-60.6728
-65.2025
-68.2506
-69.8582
-70.3379
0.513008
1.03994
1.50971
2.23144
2.84503
3.40062
3.45047
2.61863
0.443925
-2.93561
-6.85084
-12.4759
-18.4601
-24.9551
-32.6725
-41.1415
-49.5354
-56.9878
-63.3116
-68.4197
-71.8984
-73.6139
-74.035
0.520175
1.05766
1.53333
2.26251
2.88193
3.43746
3.47613
2.62068
0.388389
-3.06958
-7.00202
-12.7312
-18.7971
-25.3447
-33.2734
-42.1233
-51.0157
-59.1512
-66.3172
-72.2379
-76.4618
-78.7247
-79.5097
0.52484
1.07282
1.55282
2.28879
2.91181
3.46419
3.48918
2.60917
0.320846
-3.21336
-7.15055
-12.9667
-19.0815
-25.6385
-33.7492
-42.9454
-52.3712
-61.4029
-69.6412
-76.5324
-81.7934
-85.1364
-86.8648
0.528682
1.08663
1.57043
2.3129
2.93835
3.48619
3.49734
2.59467
0.255063
-3.35081
-7.27851
-13.1652
-19.2974
-25.821
-34.0735
-43.5714
-53.5697
-63.6421
-73.0584
-81.1002
-87.7388
-92.7259
-96.0807
0.533039
1.1001
1.58804
2.33713
2.96476
3.50805
3.50699
2.58559
0.201749
-3.47008
-7.37397
-13.3182
-19.4405
-25.8899
-34.2308
-43.9841
-54.5949
-65.7316
-76.3747
-85.6862
-93.841
-100.758
-106.245
0.538801
1.11394
1.60689
2.36253
2.99249
3.5319
3.5211
2.58574
0.165317
-3.5673
-7.43492
-13.4286
-19.5188
-25.8552
-34.2222
-44.192
-55.4401
-67.5411
-79.2509
-89.854
-99.7153
-108.579
-116.153
0.546332
1.12839
1.62722
2.38913
3.02156
3.55791
3.53972
2.59485
0.144567
-3.64534
-7.46689
-13.5064
-19.5447
-25.7307
-34.0576
-44.2101
-56.0564
-69.0208
-81.4996
-93.3715
-104.909
-115.423
-124.488
0.555473
1.14336
1.64868
2.41614
3.05097
3.58492
3.56106
2.61035
0.135184
-3.71061
-7.479
-13.5638
-19.5302
-25.531
-33.7534
-44.0431
-56.4296
-70.1578
-83.0579
-95.923
-108.744
-120.385
-130.276
0.565615
1.15847
1.67055
2.44273
3.07976
3.61181
3.58332
2.62951
0.132794
-3.76912
-7.47889
-13.6099
-19.4812
-25.2649
-33.3213
-43.6845
-56.6255
-70.7108
-83.7377
-97.1668
-110.576
-122.71
-132.869
0.576043
1.17339
1.69222
2.46827
3.10722
3.63789
3.60533
2.65063
0.134487
-3.82484
-7.47108
-13.6503
-19.3998
-24.9319
-32.7542
-43.1394
-56.6795
-70.372
-83.3317
-96.8682
-110.136
-122.015
-131.821
0.586162
1.18791
1.7133
2.49272
3.13349
3.66336
3.6271
2.67332
0.139409
-3.87894
-7.45626
-13.686
-19.2843
-24.5233
-32.0269
-42.4713
-56.3377
-69.038
-81.6844
-94.8993
-107.438
-118.423
-127.435
0.595703
1.20209
1.73384
2.51636
3.15901
3.68882
3.64922
2.69803
0.147979
-3.93108
-7.43318
-13.7176
-19.1355
-24.046
-31.1418
-41.8086
-55.1634
-66.7175
-78.9076
-91.3792
-102.784
-112.561
-120.451
0.604647
1.21611
1.75403
2.53983
3.18463
3.71517
3.67258
2.72545
0.16118
-3.98016
-7.39957
-13.7452
-18.9512
-23.5061
-30.0775
-41.162
-53.1551
-63.8275
-75.4365
-86.8453
-96.8524
-105.222
-111.854
0.613202
1.23025
1.77425
2.56363
3.21092
3.74291
3.69773
2.7559
0.179609
-4.02568
-7.35411
-13.7719
-18.7245
-22.8902
-28.954
-40.4603
-50.9349
-60.9465
-71.8481
-81.9807
-90.61
-97.4483
-102.729
0.621616
1.24469
1.79476
2.5882
3.23833
3.77231
3.72481
2.78919
0.203365
-4.06761
-7.29581
-13.8018
-18.4393
-22.1928
-28.1653
-39.6866
-49.043
-58.4729
-68.4479
-77.1355
-84.2838
-89.6954
-93.5181
0.630154
1.25962
1.81576
2.61367
3.26685
3.80308
3.75347
2.82462
0.231931
-4.10675
-7.22449
-13.8389
-18.0741
-21.443
-27.7643
-38.7136
-47.2405
-55.8753
-64.3679
-71.2544
-76.4564
-80.1752
-82.69
0.638981
1.27503
1.83726
2.64
3.29635
3.83483
3.78316
2.86135
0.26469
-4.14385
-7.13953
-13.8847
-17.6157
-20.7244
-27.2906
-37.3729
-45.0683
-52.5874
-59.2103
-63.9857
-67.2433
-69.3177
-70.787
0.648211
1.2909
1.85925
2.66697
3.32645
3.86697
3.81327
2.89864
0.301072
-4.17965
-7.03992
-13.9395
-17.0681
-20.2161
-26.5376
-35.6253
-42.3919
-48.6374
-53.5029
-56.3855
-58.2625
-59.1889
-59.7982
0.657877
1.3071
1.8816
2.69437
3.35687
3.89912
3.84338
2.93603
0.340912
-4.21438
-6.92315
-14.001
-16.4316
-20.0695
-25.634
-33.5306
-39.3193
-44.3073
-47.7759
-49.3648
-50.2396
-50.5041
-50.6678
0.667905
1.32355
1.90425
2.72198
3.38738
3.93107
3.87344
2.97362
0.384544
-4.24797
-6.78556
-14.069
-15.6429
-20.2402
-24.7639
-31.4027
-36.0151
-39.7308
-42.0591
-42.857
-42.9624
-42.9745
-43.0855
0.678433
1.34025
1.9272
2.7498
3.41799
3.96293
3.90363
3.01173
0.432542
-4.28
-6.62366
-14.1495
-14.5579
-20.4942
-23.9903
-29.4119
-32.5131
-34.6921
-35.9139
-36.2094
-36.0244
-36.0127
-36.2294
0.688599
1.35659
1.95024
2.77776
3.44905
3.9956
3.93534
3.05185
0.486499
-4.3078
-6.42959
-14.2348
-13.0829
-20.7997
-23.1742
-27.0928
-28.3371
-28.812
-28.8714
-28.9249
-28.9396
-29.1278
-29.4614
0.69823
1.37315
1.97418
2.80753
3.48324
4.03305
3.9736
3.09932
0.551138
-4.32432
-6.18884
-14.2996
-11.3356
-21.1392
-21.8738
-23.6044
-22.7191
-21.668
-20.7444
-20.762
-21.1422
-21.8189
-22.4921
0.710094
1.3915
2.00112
2.84122
3.52318
4.07834
4.02122
3.155
0.622226
-4.33548
-5.92116
-14.4018
-9.73545
-21.2483
-19.9832
-19.1856
-16.2324
-14.0755
-12.7246
-13.0638
-13.8971
-15.2251
-16.3473
0.724351
1.41179
2.03144
2.8793
3.56929
4.13138
4.07663
3.21404
0.688809
-4.35854
-5.66393
-14.6307
-8.69267
-21.0849
-17.967
-14.7531
-10.2547
-7.55891
-6.49587
-7.45384
-8.78517
-10.7532
-12.2798
0.739825
1.43322
2.06417
2.92056
3.61983
4.18933
4.135
3.2682
0.73719
-4.41343
-5.45839
-15.0224
-8.44364
-20.9893
-16.3107
-10.8974
-5.66717
-3.19284
-3.04399
-4.61708
-6.46782
-8.98268
-10.8608
0.755785
1.45525
2.09847
2.96398
3.67325
4.24969
4.19212
3.31082
0.75666
-4.51581
-5.33405
-15.574
-9.06408
-21.25
-15.211
-7.93421
-2.66046
-1.19991
-2.25641
-4.2777
-6.62574
-9.61275
-11.8185
0.772026
1.47765
2.13366
3.00847
3.72774
4.30975
4.2443
3.33758
0.742746
-4.66915
-5.30287
-16.24
-10.4057
-21.9372
-14.8594
-6.21942
-1.39109
-1.37647
-3.48746
-5.75819
-8.55889
-11.908
-14.56
0.788331
1.50025
2.16945
3.05375
3.78289
4.36883
4.29051
3.34722
0.694038
-4.87364
-5.3596
-17.0046
-12.3168
-22.7733
-14.963
-5.62988
-1.61656
-2.97695
-5.75416
-7.98082
-11.2202
-14.7262
-18.0287
0.80513
1.52365
2.2063
3.1004
3.83929
4.42782
4.33261
3.34437
0.619568
-5.11694
-5.4882
-17.7883
-14.3954
-23.4274
-15.181
-5.67962
-2.64093
-5.06141
-8.14692
-10.2899
-13.9705
-17.5444
-21.4104
0.822634
1.54778
2.24442
3.14822
3.89648
4.48588
4.37022
3.33115
0.528486
-5.38199
-5.67312
-18.6358
-16.6034
-24.1841
-15.9636
-6.57265
-4.49894
-7.63959
-10.8041
-13.346
-17.2616
-21.1297
-25.1678
0.839603
1.57135
2.28139
3.19417
3.95017
4.53752
4.39678
3.30055
0.414387
-5.67295
-5.90988
-19.4912
-18.7386
-25.0911
-17.3895
-8.34835
-7.06585
-10.5349
-13.5723
-16.7562
-20.5822
-24.6085
-28.354
0.855711
1.59399
2.31664
3.23775
3.99992
4.58282
4.41355
3.25606
0.283875
-5.97766
-6.1699
-20.3093
-20.6885
-26.0006
-19.0605
-10.5483
-9.72303
-13.0988
-15.757
-19.1232
-22.5029
-26
-28.8786
0.871588
1.61636
2.35117
3.28021
4.04755
4.6246
4.42527
3.20577
0.150168
-6.27536
-6.42013
-21.0469
-22.3889
-26.8829
-20.7347
-12.8067
-12.1357
-15.0449
-17.1468
-19.8981
-22.544
-24.8939
-26.4289
0.887559
1.63879
2.38557
3.32233
4.0942
4.66473
4.43525
3.15541
0.0228606
-6.551
-6.63709
-21.6654
-23.8038
-27.7162
-22.2786
-14.9412
-14.1829
-16.3536
-17.8885
-19.5153
-21.1676
-21.9838
-22.002
0.903678
1.66128
2.4199
3.36415
4.14007
4.7038
4.44478
3.10747
-0.0938015
-6.79844
-6.8098
-22.1444
-24.9248
-28.4808
-23.6201
-16.9408
-15.8231
-17.0834
-18.1018
-18.6019
-18.9957
-18.2743
-16.811
0.919875
1.68369
2.45405
3.40553
4.1851
4.74192
4.45435
3.06292
-0.198515
-7.01719
-6.93591
-22.4862
-25.7733
-29.1657
-24.7314
-18.7373
-17.0392
-17.3033
-17.6623
-17.26
-16.3522
-14.3972
-11.7561
0.936128
1.70594
2.48792
3.44631
4.2292
4.77914
4.4642
3.02208
-0.291561
-7.21045
-7.01965
-22.7055
-26.3964
-29.7653
-25.6111
-20.2295
-17.8453
-17.1134
-16.6643
-15.4911
-13.4048
-10.5959
-7.27272
0.952338
1.72792
2.52135
3.48637
4.27231
4.8155
4.47445
2.98491
-0.374038
-7.38303
-7.07124
-22.8229
-26.8518
-30.2961
-26.2693
-21.3849
-18.3073
-16.6838
-15.3612
-13.4839
-10.533
-7.18086
-3.54532
0.968439
1.74958
2.55425
3.52559
4.31442
4.85103
4.48511
2.95103
-0.447641
-7.5404
-7.10587
-22.8661
-27.2003
-30.8316
-26.7367
-22.2154
-18.5246
-16.224
-13.971
-11.4852
-8.07206
-4.49423
-0.734751
0.984317
1.77086
2.58654
3.56399
4.35559
4.88583
4.49618
2.92005
-0.513956
-7.68727
-7.13682
-22.8618
-27.4948
-31.4216
-27.0824
-22.7629
-18.5834
-15.8147
-12.7289
-9.70014
-6.12175
-2.60675
1.13593
0.999961
1.79182
2.61826
3.60165
4.39601
4.92009
4.50774
2.8916
-0.574307
-7.82743
-7.17058
-22.8272
-27.7594
-32.0176
-27.3962
-23.1339
-18.4775
-15.3844
-11.7592
-8.2814
-4.64243
-1.28393
2.34121
1.01534
1.81249
2.64951
3.63875
4.43588
4.954
4.51984
2.86549
-0.629557
-7.96328
-7.20698
-22.771
-27.9975
-32.5382
-27.7042
-23.4672
-18.271
-14.9001
-11.0583
-7.29053
-3.61677
-0.332165
3.14545
1.03053
1.83297
2.68041
3.67545
4.47538
4.98769
4.53243
2.84139
-0.68048
-8.09664
-7.24499
-22.7034
-28.209
-32.9316
-27.9868
-23.7085
-18.1015
-14.4689
-10.5632
-6.6362
-2.97257
0.299217
3.62388
1.04551
1.85332
2.71105
3.71186
4.51456
5.02112
4.54529
2.81895
-0.727743
-8.22872
-7.28652
-22.6358
-28.3984
-33.173
-28.2063
-23.616
-17.992
-14.1842
-10.2196
-6.18052
-2.53359
0.723085
3.85372
1.06035
1.87357
2.74149
3.74797
4.55337
5.05413
4.55807
2.79763
-0.772105
-8.36081
-7.33758
-22.5775
-28.5744
-33.2533
-28.3101
-23.1833
-17.8792
-14.0701
-10.0295
-5.85483
-2.16512
1.08682
4.00227
1.07503
1.8937
2.77168
3.78373
4.59163
5.08642
4.57034
2.77698
-0.814132
-8.49367
-7.40523
-22.5317
-28.7422
-33.1856
-28.2583
-22.7349
-17.8019
-14.1287
-10.003
-5.67006
-1.85465
1.42007
4.14213
1.08957
1.9137
2.8016
3.81901
4.62915
5.11772
4.58172
2.75653
-0.854232
-8.6275
-7.49417
-22.4909
-28.8987
-33.0026
-28.1147
-22.4099
-17.8035
-14.3081
-10.0809
-5.57389
-1.6126
1.68885
4.24919
1.10393
1.93352
2.83116
3.8537
4.6657
5.14776
4.59193
2.73614
-0.892386
-8.76151
-7.60472
-22.4342
-29.0357
-32.7266
-27.9798
-22.1084
-17.873
-14.5692
-10.1767
-5.4607
-1.35249
1.9814
4.40734
1.11813
1.95312
2.86027
3.88766
4.70114
5.17638
4.60087
2.71576
-0.92832
-8.89444
-7.73482
-22.3343
-29.1457
-32.3625
-27.8808
-21.8598
-18.026
-14.9267
-10.2824
-5.30463
-1.02495
2.33537
4.64418
1.13211
1.97244
2.88888
3.9208
4.73532
5.20347
4.60853
2.6956
-0.961419
-9.02435
-7.88266
-22.1674
-29.2264
-31.9065
-27.8132
-21.7514
-18.2753
-15.3628
-10.4442
-5.14772
-0.67747
2.67244
4.88361
1.14588
1.99148
2.91691
3.95304
4.7682
5.22903
4.61504
2.67588
-0.99103
-9.14906
-8.04874
-21.9179
-29.2749
-31.3566
-27.7276
-21.7816
-18.6324
-15.8213
-10.6032
-4.96728
-0.349115
2.95604
5.0996
1.1594
2.01018
2.94433
3.98434
4.79973
5.25307
4.62051
2.65693
-1.01645
-9.26631
-8.23538
-21.5699
-29.2949
-30.7462
-27.5733
-21.8961
-19.1122
-16.2626
-10.6707
-4.75134
-0.0597213
3.18325
5.29178
1.17268
2.02854
2.97111
4.01468
4.82994
5.27564
4.6251
2.63893
-1.0372
-9.37435
-8.44988
-21.1092
-29.2968
-30.1804
-27.3818
-22.034
-19.6954
-16.6917
-10.6847
-4.5584
0.128496
3.30153
5.38699
1.18567
2.04653
2.99722
4.04404
4.85879
5.29675
4.62887
2.62201
-1.05293
-9.47181
-8.70342
-20.5801
-29.3377
-29.8108
-27.2264
-22.2129
-20.3385
-17.0937
-10.7274
-4.48424
0.138784
3.23794
5.31765
1.19839
2.06417
3.02265
4.0724
4.88631
5.31642
4.63184
2.60614
-1.0636
-9.55766
-9.01027
-20.1032
-29.5062
-29.6033
-27.1326
-22.4876
-20.9867
-17.4107
-10.8019
-4.5397
-0.00358987
3.02883
5.12213
1.21079
2.08142
3.04737
4.09975
4.91244
5.33458
4.63395
2.59125
-1.06922
-9.63097
-9.3847
-19.7754
-29.8327
-29.4344
-27.0848
-22.8687
-21.5744
-17.676
-10.9417
-4.75391
-0.303119
2.68465
4.78986
1.2229
2.09828
3.07137
4.12605
4.93718
5.35118
4.63509
2.57711
-1.06996
-9.69071
-9.83394
-19.6415
-30.2866
-29.3056
-27.0884
-23.3659
-22.0436
-17.9723
-11.2413
-5.15878
-0.803238
2.13761
4.25843
1.23466
2.11473
3.09463
4.15126
4.96042
5.36609
4.63511
2.56355
-1.06593
-9.73521
-10.3552
-19.6618
-30.7825
-29.2568
-27.1629
-23.9824
-22.364
-18.2781
-11.7082
-5.73006
-1.46745
1.43595
3.56742
1.24609
2.13077
3.11709
4.17534
4.98212
5.3792
4.63384
2.55031
-1.05711
-9.76173
-10.9378
-19.7583
-31.2223
-29.2654
-27.3321
-24.6313
-22.5614
-18.5245
-12.2332
-6.43179
-2.26296
0.617175
2.75031
1.25714
2.14636
3.13874
4.1982
5.00213
5.39034
4.63111
2.53726
-1.04323
-9.76614
-11.5667
-19.8649
-31.5149
-29.2976
-27.6155
-25.1648
-22.7258
-18.7903
-12.7892
-7.24073
-3.20704
-0.369978
1.76003
1.26783
2.16148
3.15952
4.21979
5.02038
5.39941
4.62681
2.52425
-1.02375
-9.7428
-12.2248
-19.9476
-31.5794
-29.3186
-27.9941
-25.5122
-22.9248
-19.1757
-13.4786
-8.19262
-4.30688
-1.52066
0.610698
1.27809
2.1761
3.17937
4.24002
5.03672
5.40624
4.6208
2.51129
-0.997753
-9.68483
-12.8936
-20.0009
-31.3753
-29.3473
-28.3452
-25.7408
-23.1848
-19.634
-14.2625
-9.24423
-5.48784
-2.7455
-0.610117
1.28795
2.19019
3.19826
4.2588
5.05107
5.41074
4.61304
2.49836
-0.96409
-9.58465
-13.5525
-20.0327
-30.9204
-29.4019
-28.5264
-25.934
-23.4836
-20.0901
-15.0622
-10.325
-6.69745
-4.00082
-1.87403
1.29732
2.20371
3.2161
4.27605
5.0633
5.41277
4.60349
2.4856
-0.921188
-9.43449
-14.1802
-20.0592
-30.3153
-29.4359
-28.4952
-26.0929
-23.7775
-20.5274
-15.8575
-11.4
-7.91834
-5.28171
-3.17856
1.30626
2.21663
3.23285
4.29168
5.0733
5.41226
4.59213
2.4731
-0.867647
-9.22667
-14.7493
-20.0706
-29.6765
-29.4054
-28.3565
-26.2044
-24.0301
-20.9523
-16.6313
-12.426
-9.0965
-6.5368
-4.4716
1.31462
2.2289
3.24845
4.30562
5.08099
5.40916
4.57901
2.461
-0.801054
-8.95413
-15.2463
-20.0407
-29.0361
-29.2703
-28.1897
-26.2478
-24.2064
-21.3033
-17.3038
-13.3488
-10.1795
-7.71071
-5.69766
1.32265
2.24059
3.26285
4.3177
5.08613
5.40317
4.56399
2.44927
-0.722635
-8.61216
-15.6222
-19.9239
-28.3548
-29.0026
-28.0247
-26.2071
-24.2826
-21.5617
-17.8743
-14.2002
-11.2005
-8.83407
-6.88303
1.32997
2.25162
3.27615
4.32819
5.089
5.39418
4.54596
2.43586
-0.630318
-8.20486
-15.9488
-19.8343
-27.6028
-28.5889
-27.7791
-25.9927
-24.1145
-21.5723
-18.2001
-14.8258
-12.0185
-9.7751
-7.89985
1.33959
2.26369
3.28935
4.33678
5.08765
5.37813
4.52061
2.41427
-0.574923
-7.78382
-15.8287
-19.2546
-26.4498
-27.8721
-27.4474
-25.8801
-24.127
-21.8051
-18.7379
-15.6221
-12.9629
-10.8044
-8.97936
1.34787
2.27311
3.29873
4.33765
5.07522
5.34813
4.4862
2.39961
-0.532926
-7.44143
-15.662
-18.6415
-25.3473
-27.1208
-26.9229
-25.4368
-23.6411
-21.4303
-18.6295
-15.7788
-13.3069
-11.2766
-9.53283
1.35266
2.278
3.30016
4.32603
5.04451
5.29462
4.43027
2.37622
-0.506782
-7.10612
-15.2373
-17.7783
-24.0077
-26.1726
-26.1821
-24.7438
-22.8868
-20.7238
-18.1274
-15.5007
-13.2159
-11.3221
-9.67522
1.35311
2.27751
3.29226
4.30063
4.99364
5.21459
4.34622
2.32958
-0.497654
-6.71303
-14.4785
-16.6429
-22.3094
-24.8661
-25.1819
-23.8414
-21.962
-19.8109
-17.3713
-14.9458
-12.8293
-11.0543
-9.49118
1.3514
2.27308
3.27666
4.26311
4.92492
5.11168
4.23948
2.2662
-0.482219
-6.21775
-13.4108
-15.3747
-20.3266
-23.2452
-23.8474
-22.6675
-20.8528
-18.7851
-16.4829
-14.2166
-12.232
-10.5554
-9.06037
1.34845
2.2654
3.25416
4.21433
4.83994
4.98932
4.11731
2.20044
-0.432227
-5.59947
-12.0813
-14.0713
-18.2317
-21.3062
-22.1348
-21.222
-19.5882
-17.634
-15.4307
-13.2927
-11.4438
-9.89156
-8.50268
1.34363
2.25369
3.22381
4.15309
4.73804
4.84827
3.98405
2.14539
-0.325104
-4.85387
-10.5557
-12.6904
-16.1413
-19.058
-20.0853
-19.4857
-18.0841
-16.2461
-14.2043
-12.2491
-10.5706
-9.16698
-7.90329
1.3357
2.23658
3.18384
4.07724
4.61729
4.68792
3.84224
2.11047
-0.149762
-3.99113
-8.88372
-11.1539
-13.9588
-16.6361
-17.7301
-17.4201
-16.2586
-14.6155
-12.764
-11.0061
-9.52072
-8.28681
-7.16904
1.32387
2.21283
3.13249
3.98457
4.47591
4.50819
3.69459
2.10092
0.0903985
-3.0433
-7.06221
-9.42634
-11.6669
-14.0795
-15.1675
-15.0714
-14.1212
-12.6511
-11.0095
-9.49967
-8.25774
-7.23162
-6.29717
1.30732
2.18116
3.06798
3.87307
4.31258
4.30975
3.54363
2.11695
0.380343
-2.07048
-5.22944
-7.52345
-9.39708
-11.4738
-12.5192
-12.5101
-11.6895
-10.429
-9.09199
-7.92386
-6.99233
-6.22534
-5.52254
1.28546
2.14025
2.98856
3.74092
4.12652
4.09377
3.39043
2.15294
0.698796
-1.14184
-3.51358
-5.61877
-7.19909
-8.98522
-9.87323
-9.87757
-9.23362
-8.30711
-7.39469
-6.64679
-6.07213
-5.601
-5.16277
1.25749
2.08874
2.89248
3.58668
3.91747
3.86129
3.23317
2.19583
1.01743
-0.325508
-2.02122
-3.86946
-5.21217
-6.67884
-7.42193
-7.50777
-7.16045
-6.66674
-6.21714
-5.88196
-5.64408
-5.45122
-5.25997
1.22299
2.02538
2.77836
3.40952
3.68596
3.6131
3.06658
2.22456
1.2967
0.317329
-0.84878
-2.39916
-3.51131
-4.72399
-5.42572
-5.68613
-5.67984
-5.59645
-5.53637
-5.5239
-5.54172
-5.55876
-5.5515
1.1813
1.94892
2.64513
3.20932
3.43302
3.34902
2.88159
2.21145
1.48778
0.742781
-0.0707932
-1.2918
-2.20651
-3.27555
-4.0095
-4.45521
-4.72559
-4.93165
-5.12559
-5.31677
-5.49482
-5.64444
-5.75332
1.13203
1.85837
2.49221
2.9866
3.15985
3.06742
2.66649
2.12848
1.54731
0.934517
0.298367
-0.57481
-1.37857
-2.35747
-3.11182
-3.66925
-4.09814
-4.45822
-4.77894
-5.06851
-5.32388
-5.53895
-5.70725
1.07442
1.75259
2.31935
2.74236
2.86722
2.76507
2.4101
1.95692
1.45569
0.908977
0.348548
-0.247726
-0.986275
-1.86345
-2.57593
-3.14698
-3.61919
-4.02425
-4.37931
-4.69196
-4.96341
-5.19214
-5.37461
1.0081
1.63104
2.12697
2.47803
2.55549
2.43858
2.10682
1.69564
1.22666
0.717007
0.212007
-0.223475
-0.893275
-1.63729
-2.25291
-2.7668
-3.20553
-3.58628
-3.91989
-4.21215
-4.4647
-4.6776
-4.84947
0.932462
1.4934
1.9161
2.19558
2.22525
2.08695
1.76057
1.36281
0.90183
0.427103
-0.00777719
-0.367285
-0.949215
-1.54674
-2.04538
-2.47301
-2.84473
-3.17051
-3.45754
-3.70939
-3.92729
-4.11213
-4.26347
0.847751
1.34046
1.68889
1.89792
1.87889
1.71434
1.38556
0.990055
0.53469
0.10407
-0.251418
-0.569486
-1.04944
-1.51043
-1.89943
-2.23984
-2.53885
-2.80267
-3.03599
-3.24113
-3.41936
-3.57211
-3.69894
0.754287
1.17377
1.44864
1.5897
1.52244
1.33163
1.00334
0.6138
0.175701
-0.201938
-0.483925
-0.762946
-1.13944
-1.48526
-1.7818
-2.04485
-2.27709
-2.48236
-2.66355
-2.82297
-2.96254
-3.08377
-3.18597
0.653581
0.996565
1.2004
1.27813
1.16683
0.95583
0.638356
0.267606
-0.136328
-0.457643
-0.681341
-0.917147
-1.20279
-1.45941
-1.68431
-1.88601
-2.06491
-2.22261
-2.36135
-2.48378
-2.59165
-2.68636
-2.76745
0.547593
0.813303
0.951116
0.973534
0.827489
0.607363
0.313602
-0.0228252
-0.377215
-0.643807
-0.825224
-1.01807
-1.23157
-1.42174
-1.59169
-1.74514
-1.88106
-2.00012
-2.10464
-2.19674
-2.27798
-2.34983
-2.41205
0.439442
0.630282
0.70973
0.688546
0.521668
0.305922
0.0469417
-0.24224
-0.537065
-0.75268
-0.902555
-1.05755
-1.21802
-1.36068
-1.48992
-1.60671
-1.70955
-1.79948
-1.87825
-1.94733
-2.00826
-2.06235
-2.10949
0.332885
0.454819
0.486162
0.435734
0.26419
0.0655422
-0.151774
-0.386641
-0.61917
-0.789641
-0.912961
-1.0374
-1.16071
-1.27001
-1.37013
-1.46017
-1.53906
-1.60792
-1.66798
-1.72044
-1.76661
-1.80748
-1.84304
0.232227
0.294765
0.289435
0.224349
0.0627153
-0.10952
-0.283638
-0.464489
-0.638886
-0.769921
-0.869248
-0.968687
-1.06467
-1.14992
-1.22866
-1.29892
-1.36035
-1.41378
-1.46023
-1.50078
-1.5363
-1.56742
-1.59419
0.141793
0.156538
0.125681
0.0576428
-0.0836247
-0.224627
-0.358217
-0.491493
-0.617537
-0.714714
-0.79051
-0.867696
-0.941034
-1.00739
-1.06881
-1.12317
-1.1704
-1.21138
-1.24718
-1.27861
-1.30603
-1.32984
-1.3501
0.0656977
0.0454754
-0.00184229
-0.0657417
-0.182551
-0.292985
-0.393013
-0.488937
-0.577783
-0.64637
-0.701192
-0.759131
-0.813968
-0.865299
-0.912763
-0.954167
-0.989914
-1.0211
-1.04862
-1.07285
-1.09387
-1.11194
-1.12721
0.00492143
-0.0379301
-0.0935141
-0.146971
-0.235552
-0.315955
-0.390053
-0.462415
-0.528654
-0.575595
-0.613999
-0.656426
-0.697721
-0.737472
-0.773281
-0.803859
-0.830252
-0.8535
-0.874098
-0.892177
-0.907708
-0.920878
-0.931931
-0.028677
-0.0818153
-0.137938
-0.180392
-0.248131
-0.311257
-0.371006
-0.422966
-0.463103
-0.487019
-0.510376
-0.538022
-0.565906
-0.592451
-0.615222
-0.634303
-0.6508
-0.665327
-0.678099
-0.689134
-0.698308
-0.705731
-0.71175
-0.0745769
-0.125952
-0.16691
-0.160347
-0.150264
-0.145129
-0.188878
-0.279099
-0.367052
-0.419635
-0.452408
-0.478672
-0.501886
-0.521971
-0.538472
-0.552336
-0.564315
-0.574793
-0.583891
-0.591553
-0.597628
-0.602295
-0.606
0.0485528
0.019793
-0.0363522
-0.105184
-0.192648
-0.242865
-0.221878
-0.149233
-0.0846333
-0.0631224
-0.0758428
-0.0950279
-0.108311
-0.117115
-0.123829
-0.12921
-0.133455
-0.136922
-0.139636
-0.1415
-0.14233
-0.142227
-0.141567
0.471363
0.420016
0.562201
0.827699
1.20883
1.76314
2.56803
3.6937
5.20372
7.16141
9.56
12.3801
15.5286
18.9103
22.3943
25.8586
29.1712
32.214
34.8879
37.1338
38.931
40.3094
41.3174
0.548477
0.554317
0.690969
0.97065
1.36643
1.92119
2.70404
3.77922
5.20438
7.03257
9.26608
11.8847
14.8126
17.9589
21.2029
24.4217
27.486
30.2766
32.6957
34.6871
36.2348
37.3792
38.1683
0.637259
0.69571
0.83683
1.12383
1.53062
2.082
2.83494
3.84612
5.16605
6.83882
8.87272
11.2506
13.9128
16.7779
19.7379
22.6754
25.4662
27.9936
30.1622
31.9174
33.2446
34.191
34.8017
0.737359
0.836112
0.99113
1.28128
1.69357
2.23732
2.95435
3.89182
5.09213
6.59108
8.39982
10.5058
12.8641
15.4067
18.041
20.6599
23.1489
25.3979
27.3155
28.8487
29.9836
30.7674
31.2416
0.845657
0.964503
1.13671
1.42808
1.83925
2.3695
3.04437
3.8998
4.96912
6.28051
7.84509
9.6555
11.6798
13.8657
16.1383
18.4067
20.5699
22.5267
24.1907
25.5102
26.4695
27.109
27.4671
0.953025
1.06653
1.24955
1.54025
1.94344
2.45248
3.07914
3.84714
4.78005
5.89698
7.20702
8.70585
10.3727
12.1707
14.045
15.9255
17.7292
19.3678
20.7633
21.8655
22.6541
23.1589
23.4115
1.045
1.14282
1.32897
1.62111
2.01569
2.49853
3.06971
3.74079
4.52389
5.42793
6.45751
7.61054
8.8764
10.2358
11.6577
13.0981
14.4989
15.7931
16.9163
17.8209
18.48
18.9084
19.1224
1.105
1.20636
1.3933
1.69434
2.08696
2.54119
3.04492
3.59704
4.19718
4.84399
5.53761
6.2799
7.07437
7.92546
8.83377
9.78951
10.767
11.7246
12.6094
13.3711
13.97
14.3979
14.6534
-0.0432372
-0.451304
-0.300111
-0.29876
-0.0121633
0.496543
1.19623
2.48156
4.25543
6.78208
9.8798
13.6369
17.7391
22.1563
26.6666
31.1916
35.5625
39.6508
43.3343
46.5403
49.2368
51.4511
53.2189
-0.035093
-0.420415
-0.263098
-0.255992
0.0453084
0.554796
1.27137
2.55382
4.32656
6.84109
9.9193
13.6541
17.7444
22.1651
26.7104
31.3036
35.7867
40.0297
43.9075
47.3351
50.2671
52.7137
54.6957
-0.0248557
-0.385405
-0.218131
-0.204305
0.113958
0.626881
1.36098
2.63831
4.40683
6.90072
9.95215
13.6503
17.7142
22.1169
26.671
31.2993
35.8549
40.2075
44.2315
47.8329
50.9557
53.5945
55.7605
-0.0127232
-0.347699
-0.166446
-0.145109
0.191098
0.711886
1.46571
2.73938
4.50438
6.97428
9.99575
13.6477
17.6725
22.0381
26.5749
31.2047
35.7913
40.2056
44.3227
48.0427
51.3032
54.0842
56.3929
0.00180801
-0.308297
-0.108979
-0.0791744
0.274995
0.807619
1.58395
2.85665
4.61944
7.06468
10.0543
13.6545
17.6305
21.9436
26.4402
31.0411
35.6194
40.0483
44.2049
47.9863
51.3258
54.1939
56.5964
0.0192141
-0.26841
-0.0474667
-0.0072101
0.362977
0.910579
1.71186
2.98701
4.75018
7.17239
10.1314
13.6781
17.5996
21.8494
26.287
30.8324
35.3663
39.7654
43.9096
47.6951
51.0551
53.9524
56.3936
0.0401692
-0.228888
0.0146891
0.0683477
0.450738
1.0139
1.84052
3.12055
4.88597
7.28763
10.2185
13.7138
17.5799
21.7615
26.1281
30.5981
35.0584
39.389
43.4735
47.2101
50.5336
53.4034
55.8289
0.0651839
-0.190408
0.0729391
0.1434
0.532233
1.10854
1.95834
3.24459
5.01445
7.40032
10.3096
13.7615
17.5787
21.6956
25.9877
30.371
34.7359
38.9664
42.95
46.5887
49.8219
52.6102
54.9701
0.0947428
-0.150765
0.12586
0.216898
0.606396
1.19152
2.05954
3.35042
5.12314
7.49474
10.3855
13.8005
17.575
21.633
25.8523
30.1449
34.4029
38.513
42.3673
45.8728
48.9748
51.6374
53.8858
0.129469
-0.105897
0.17484
0.290036
0.675172
1.26353
2.14194
3.43145
5.19966
7.55137
10.419
13.7961
17.5283
21.53
25.6778
29.8791
34.0249
38.0042
41.7122
45.062
48.0045
50.5106
52.6124
0.170091
-0.0522873
0.221645
0.364199
0.741922
1.32754
2.20692
3.48661
5.23836
7.55956
10.3915
13.7228
17.4046
21.3467
25.4199
29.5283
33.5582
37.4009
40.9532
44.1343
46.9008
49.2306
51.1632
0.217274
0.013521
0.269341
0.441399
0.811735
1.39041
2.26255
3.52306
5.24586
7.52121
10.3013
13.57
17.187
21.0568
25.0468
29.055
32.9641
36.6645
40.0554
43.0608
45.642
47.7865
49.5364
0.271065
0.0936146
0.321075
0.522148
0.887808
1.45782
2.31662
3.5507
5.23277
7.44819
10.1579
13.3455
16.8779
20.6591
24.5516
28.4496
32.2298
35.7825
39.0068
41.8318
44.2236
46.178
47.7412
0.331193
0.188219
0.381233
0.607664
0.972534
1.53381
2.37508
3.57622
5.20791
7.34917
9.97162
13.0579