/*--------------------------------*- C++ -*----------------------------------*\
  =========                 |
  \\      /  F ield         | OpenFOAM: The Open Source CFD Toolbox
   \\    /   O peration     | Website:  https://openfoam.org
    \\  /    A nd           | Version:  7
     \\/     M anipulation  |
\*---------------------------------------------------------------------------*/
FoamFile
{
    version     2.0;
    format      ascii;
    class       volVectorField;
    location    "100";
    object      U;
}
// * * * * * * * * * * * * * * * * * * * * * * * * * * * * * * * * * * * * * //

dimensions      [0 1 -1 0 0 0 0];

internalField   nonuniform List<vector> 
12842
(
(14.6742 5.34357 -4.09528e-18)
(14.6661 5.33449 -1.17666e-18)
(14.6581 5.32635 -3.36583e-19)
(14.6468 5.31856 8.47236e-19)
(14.633 5.31235 -2.89866e-18)
(14.6178 5.3109 0)
(14.6006 5.31817 0)
(14.58 5.33884 -3.22744e-20)
(14.5534 5.37796 -2.55951e-19)
(14.5176 5.4403 -5.83009e-20)
(14.4688 5.52985 -5.67926e-19)
(14.4029 5.64929 1.60013e-20)
(14.3167 5.79957 -4.62689e-19)
(14.2085 5.97986 -5.13616e-20)
(14.0781 6.18743 8.90943e-20)
(13.9274 6.41746 2.50425e-19)
(13.7604 6.66308 1.75528e-19)
(13.5824 6.91559 0)
(13.4 7.16513 -7.60709e-21)
(13.2204 7.40221 -6.89877e-20)
(13.0498 7.6178 1.39101e-21)
(12.8943 7.80865 3.07917e-20)
(12.7556 7.96346 -9.56908e-21)
(14.6716 5.34595 3.36436e-18)
(14.6605 5.34073 0)
(14.6516 5.3343 -3.93934e-18)
(14.6394 5.32721 1.95967e-18)
(14.6266 5.32118 2.3202e-18)
(14.6153 5.31962 0)
(14.6057 5.32696 -8.72399e-19)
(14.5969 5.34863 0)
(14.5866 5.39047 9.13001e-19)
(14.5713 5.45796 4.35531e-20)
(14.5463 5.55549 1.00681e-18)
(14.5064 5.68582 1.95281e-18)
(14.4469 5.84946 4.58078e-19)
(14.3644 6.04469 -1.12516e-18)
(14.2574 6.26774 0)
(14.1269 6.5128 -2.84009e-19)
(13.9761 6.7721 -2.94927e-19)
(13.8102 7.03626 5.6551e-19)
(13.6357 7.29491 0)
(13.4599 7.53838 7.45943e-20)
(13.2898 7.75747 2.41559e-19)
(13.1314 7.94987 -1.23324e-19)
(12.9902 8.10161 1.66428e-19)
(14.6689 5.34921 0)
(14.6565 5.34764 0)
(14.6463 5.34232 -3.09267e-19)
(14.6326 5.33522 -1.16791e-17)
(14.6201 5.32839 0)
(14.6116 5.32523 0)
(14.6082 5.33063 3.11018e-19)
(14.6099 5.35086 -6.83295e-19)
(14.6145 5.39274 -4.45067e-19)
(14.6183 5.46262 -9.9882e-19)
(14.6157 5.56545 -2.55212e-18)
(14.6003 5.70432 -1.95357e-18)
(14.5659 5.87937 -4.86995e-19)
(14.5077 6.08807 1.75596e-18)
(14.4231 6.32563 0)
(14.3125 6.58519 3.04231e-19)
(14.1786 6.85808 -3.90929e-19)
(14.0265 7.1342 -4.05814e-19)
(13.8628 7.40266 -7.57496e-19)
(13.6947 7.65358 4.84708e-19)
(13.5296 7.87745 -2.0101e-19)
(13.3729 8.07315 0)
(13.2331 8.22337 -7.73296e-20)
(14.6664 5.35356 9.42432e-19)
(14.6539 5.35497 -1.85868e-18)
(14.6418 5.35046 5.66252e-18)
(14.6263 5.34311 1.74758e-17)
(14.6134 5.33503 -1.30787e-18)
(14.6068 5.32945 2.26347e-18)
(14.6086 5.33163 4.60913e-19)
(14.6197 5.34875 6.86877e-19)
(14.6383 5.38869 3.09004e-18)
(14.6601 5.45875 -2.81398e-18)
(14.6789 5.56458 6.31435e-18)
(14.687 5.70972 -8.39181e-19)
(14.6767 5.89407 1.09247e-18)
(14.6417 6.11435 3.78481e-18)
(14.5789 6.36482 -6.06223e-19)
(14.4879 6.63764 7.82232e-19)
(14.3717 6.92325 2.62487e-19)
(14.2353 7.21093 7.6755e-19)
(14.085 7.48925 1.00498e-19)
(13.9277 7.74821 4.39217e-19)
(13.771 7.97788 1.82109e-19)
(13.6194 8.17846 2.638e-19)
(13.4842 8.329 -4.15955e-19)
(14.6645 5.35894 8.35433e-18)
(14.6526 5.36237 0)
(14.6381 5.35867 -8.0403e-19)
(14.6204 5.35112 -6.43743e-18)
(14.6068 5.34167 -8.41288e-19)
(14.6013 5.33321 -5.68813e-18)
(14.6073 5.3313 1.49924e-19)
(14.6268 5.34396 -2.7723e-18)
(14.6584 5.38022 -3.67869e-18)
(14.6975 5.44848 3.4497e-18)
(14.7368 5.55505 -7.04341e-18)
(14.7676 5.70422 -5.75985e-18)
(14.7805 5.89573 1.31529e-18)
(14.7683 6.12566 -8.20845e-18)
(14.7269 6.38736 -3.0856e-18)
(14.656 6.67196 2.08711e-18)
(14.5585 6.96906 0)
(14.4393 7.26736 -7.61075e-19)
(14.3046 7.55507 0)
(14.1604 7.82224 1.58115e-19)
(14.0148 8.05847 2.82259e-19)
(13.871 8.26535 -2.988e-19)
(13.743 8.41802 -3.77779e-20)
(14.6632 5.3651 -7.58747e-18)
(14.6521 5.36955 0)
(14.6352 5.36679 0)
(14.6149 5.35916 -9.72468e-18)
(14.6002 5.34836 5.34523e-18)
(14.595 5.33675 3.28419e-18)
(14.6043 5.33004 1.48609e-19)
(14.6313 5.33701 2.98622e-18)
(14.6753 5.36791 0)
(14.731 5.43233 4.85351e-18)
(14.79 5.53734 6.4793e-18)
(14.8429 5.68828 2.96098e-18)
(14.8786 5.88482 0)
(14.8888 6.12246 4.4121e-18)
(14.8687 6.39366 2.65034e-18)
(14.818 6.68852 -1.53421e-18)
(14.7399 6.99574 -3.84543e-19)
(14.6394 7.30362 2.65448e-18)
(14.5222 7.60012 0)
(14.3936 7.87557 -1.26334e-18)
(14.2614 8.11902 3.79126e-19)
(14.1278 8.33355 1.4765e-18)
(14.0094 8.48983 -2.91729e-19)
(14.6626 5.37167 6.55375e-19)
(14.652 5.37631 0)
(14.633 5.3747 0)
(14.6103 5.36729 9.75291e-18)
(14.5942 5.35548 -5.92704e-18)
(14.5882 5.34092 1.53643e-19)
(14.5995 5.32912 -3.25078e-19)
(14.6324 5.32955 3.93042e-19)
(14.6869 5.35369 -5.16193e-19)
(14.7573 5.41251 -5.65956e-18)
(14.8346 5.51376 -8.08418e-19)
(14.909 5.66409 5.89264e-18)
(14.9674 5.86317 0)
(15.0005 6.10616 -5.46445e-18)
(15.0027 6.38484 4.72791e-19)
(14.9732 6.68824 -6.11587e-19)
(14.9154 7.00405 1.79987e-18)
(14.8344 7.32019 -1.5646e-18)
(14.7358 7.62455 -2.03265e-18)
(14.6242 7.90799 -5.13731e-19)
(14.5073 8.15888 6.82816e-20)
(14.3859 8.382 -8.4045e-19)
(14.2791 8.54294 -5.68374e-19)
(14.6628 5.37835 0)
(14.6523 5.38259 6.39958e-19)
(14.6313 5.38219 -7.72345e-18)
(14.606 5.37498 2.37359e-21)
(14.5882 5.36204 6.28526e-18)
(14.5812 5.34409 -5.29681e-19)
(14.5946 5.32646 2.12737e-19)
(14.6339 5.31924 -2.00587e-18)
(14.6995 5.33535 0)
(14.7846 5.38702 -7.18018e-18)
(14.8792 5.48256 6.55739e-19)
(14.9738 5.63054 3.67756e-19)
(15.0535 5.83076 0)
(15.1079 6.0777 5.41513e-18)
(15.1312 6.36228 -4.13743e-18)
(15.1228 6.67237 0)
(15.0867 6.99479 -1.79355e-18)
(15.028 7.31746 0)
(14.9513 7.62846 1.68031e-18)
(14.8602 7.91961 0)
(14.7619 8.17826 -8.30583e-19)
(14.6558 8.41149 5.04023e-19)
(14.5624 8.5778 7.17983e-19)
(14.6629 5.38537 0)
(14.6528 5.38832 0)
(14.6305 5.3892 -2.5799e-19)
(14.6025 5.38311 3.4776e-19)
(14.582 5.37079 -7.45562e-18)
(14.5711 5.35213 -3.58952e-18)
(14.5815 5.33153 0)
(14.6208 5.31892 1.94637e-18)
(14.6909 5.32774 0)
(14.7859 5.37157 1.45161e-17)
(14.8951 5.45959 6.37201e-18)
(15.0087 5.60204 -5.00121e-18)
(15.1094 5.79902 -4.98584e-19)
(15.1854 6.04559 0)
(15.2286 6.33323 4.3407e-18)
(15.2372 6.64908 3.19368e-18)
(15.2156 6.97826 -2.81858e-19)
(15.1706 7.30755 2.12041e-18)
(15.1084 7.62427 1.92085e-18)
(15.0327 7.92116 0)
(14.9506 8.18428 5.06723e-19)
(14.8592 8.42475 4.02182e-20)
(14.7801 8.59452 -4.12678e-19)
(14.6632 5.39281 -6.29468e-21)
(14.6533 5.39357 -8.74227e-18)
(14.6296 5.39526 7.39989e-18)
(14.5994 5.3896 0)
(14.577 5.37691 -1.0158e-19)
(14.5636 5.35661 -1.79058e-19)
(14.5732 5.33255 4.60075e-19)
(14.6141 5.3149 0)
(14.6895 5.3179 0)
(14.7929 5.35615 -7.3534e-18)
(14.913 5.43895 -6.79044e-18)
(15.0407 5.57793 -2.02044e-19)
(15.1568 5.77327 5.17562e-18)
(15.249 6.02002 -1.76415e-19)
(15.3082 6.30975 -5.93329e-19)
(15.3317 6.6289 5.75184e-19)
(15.3247 6.96145 -2.07409e-18)
(15.2944 7.2938 -1.96545e-18)
(15.2475 7.61303 -2.19874e-18)
(15.1876 7.91311 -1.63452e-18)
(15.1214 8.17879 5.5719e-19)
(15.0438 8.42487 -2.54199e-18)
(14.9796 8.59726 4.73391e-19)
(14.6637 5.39999 -1.12168e-17)
(14.6539 5.39835 9.91051e-18)
(14.6289 5.40099 -2.35455e-19)
(14.5968 5.39586 -6.63436e-18)
(14.5726 5.38282 2.5713e-19)
(14.5569 5.36084 3.91114e-18)
(14.5658 5.3331 -8.10256e-19)
(14.6081 5.31009 1.65914e-19)
(14.6884 5.30702 -1.69715e-19)
(14.7995 5.33962 -8.14097e-18)
(14.9296 5.41722 2.6574e-19)
(15.0704 5.55269 -6.56135e-18)
(15.2011 5.74629 -4.64495e-18)
(15.309 5.99292 0)
(15.384 6.28426 4.94808e-18)
(15.4229 6.60586 -6.80173e-18)
(15.4311 6.94047 -4.50171e-19)
(15.4167 7.27419 1.9772e-18)
(15.3865 7.59394 -2.41833e-20)
(15.344 7.89538 2.07559e-18)
(15.2959 8.16182 0)
(15.2346 8.41206 7.74507e-19)
(15.188 8.5856 0)
(14.6644 5.40688 1.87758e-17)
(14.6545 5.40262 1.00095e-17)
(14.6284 5.40638 -3.87323e-19)
(14.5946 5.40195 1.33437e-17)
(14.5687 5.3887 -4.42621e-18)
(14.5508 5.36523 1.49447e-19)
(14.5588 5.33395 3.99012e-19)
(14.6024 5.30559 6.86928e-20)
(14.6872 5.2964 -2.57406e-19)
(14.8056 5.32326 8.42554e-18)
(14.945 5.39542 0)
(15.0983 5.52698 6.04064e-18)
(15.2431 5.71835 4.57316e-19)
(15.3664 5.96426 -2.18733e-19)
(15.4573 6.25662 -5.15402e-18)
(15.5118 6.57999 7.38796e-20)
(15.5355 6.91565 1.89267e-18)
(15.5372 7.24937 -3.25753e-18)
(15.5245 7.5678 0)
(15.5006 7.86857 -1.43171e-18)
(15.4724 8.13345 1.94913e-18)
(15.4294 8.38592 0)
(15.4025 8.5583 -1.22116e-18)
(14.6655 5.41269 -6.39376e-18)
(14.655 5.40647 1.43783e-19)
(14.6281 5.41143 -3.92582e-19)
(14.5927 5.40789 -6.45471e-18)
(14.565 5.39464 8.80407e-18)
(14.5449 5.36993 -6.06325e-20)
(14.5521 5.33526 -2.15091e-20)
(14.5967 5.30157 2.63738e-18)
(14.6859 5.28614 -9.58592e-20)
(14.8111 5.30715 0)
(14.9592 5.37359 7.98171e-18)
(15.1246 5.5008 1.8927e-19)
(15.283 5.68927 1.75948e-19)
(15.4218 5.9337 2.65042e-20)
(15.5288 6.22642 -5.15059e-19)
(15.5991 6.55099 3.81155e-18)
(15.6385 6.88696 -2.1316e-18)
(15.6567 7.21958 -3.05589e-19)
(15.6619 7.53497 -7.06917e-19)
(15.6573 7.83295 1.95234e-18)
(15.6503 8.09362 -1.40758e-18)
(15.6271 8.34594 2.94752e-18)
(15.6211 8.51464 -1.98856e-18)
(14.667 5.41758 -6.5414e-18)
(14.6556 5.40998 -9.7973e-18)
(14.6279 5.41619 -4.64073e-20)
(14.591 5.41367 -7.02774e-18)
(14.5617 5.40059 -9.02049e-18)
(14.5393 5.37488 6.22917e-20)
(14.5454 5.33703 2.13247e-20)
(14.5908 5.29815 1.41965e-19)
(14.6839 5.27641 -4.34873e-18)
(14.8157 5.29129 4.7813e-18)
(14.9721 5.35157 -8.41877e-18)
(15.1493 5.47386 -6.84428e-18)
(15.3213 5.65879 5.5344e-18)
(15.4756 5.90098 0)
(15.5991 6.19344 2.97998e-18)
(15.6857 6.51872 0)
(15.7411 6.85433 2.86477e-18)
(15.7758 7.1847 1.76918e-18)
(15.7991 7.49507 -3.24043e-20)
(15.8141 7.78763 -2.18079e-18)
(15.8292 8.04017 -5.41602e-20)
(15.8268 8.28953 -7.68676e-22)
(15.8447 8.44901 -8.06443e-19)
(14.6686 5.42174 -6.57276e-20)
(14.6561 5.41319 -9.3191e-20)
(14.6279 5.42068 4.59088e-20)
(14.5897 5.41932 7.02958e-18)
(14.5585 5.4066 4.53722e-18)
(14.534 5.3801 0)
(14.5388 5.33927 1.84437e-20)
(14.5847 5.29528 -2.72259e-18)
(14.6813 5.26719 -1.75866e-19)
(14.8193 5.27581 -4.7773e-18)
(14.9836 5.32948 4.44451e-18)
(15.1722 5.44615 1.06404e-17)
(15.3578 5.62664 -5.33119e-18)
(15.528 5.86567 4.05397e-18)
(15.6687 6.15722 3.29376e-19)
(15.7721 6.48281 2.19132e-20)
(15.8438 6.81762 -1.68463e-19)
(15.8947 7.14495 -5.4703e-19)
(15.9355 7.44901 3.72822e-19)
(15.9691 7.73403 -6.21553e-19)
(16.005 7.97689 -4.09582e-20)
(16.0225 8.219 5.54229e-19)
(16.0615 8.3718 0)
(14.6703 5.42531 1.28321e-21)
(14.6566 5.41613 0)
(14.628 5.42493 0)
(14.5885 5.42483 7.2196e-18)
(14.5556 5.41263 4.79376e-18)
(14.529 5.38552 -2.32652e-18)
(14.5324 5.34184 -1.06954e-20)
(14.5785 5.2928 -4.14153e-20)
(14.6784 5.25825 4.57889e-18)
(14.8222 5.26048 -9.33223e-20)
(14.9939 5.30715 2.39193e-19)
(15.1938 5.4175 -3.61301e-18)
(15.3929 5.59263 0)
(15.5795 5.82747 -4.28338e-18)
(15.738 6.11734 -6.3139e-18)
(15.859 6.44278 -2.42642e-18)
(15.9472 6.77648 -1.413e-18)
(16.0141 7.10001 0)
(16.0715 7.39662 0)
(16.1228 7.67126 1.09055e-18)
(16.178 7.90262 7.84038e-19)
(16.2155 8.13042 -1.5753e-18)
(16.2736 8.27784 0)
(14.672 5.42835 6.79291e-18)
(14.6571 5.41885 -4.74832e-20)
(14.6283 5.42898 2.25514e-20)
(14.5876 5.43024 -7.18537e-18)
(14.553 5.41872 -9.66202e-18)
(14.5243 5.39117 4.64549e-18)
(14.5259 5.34476 1.09453e-20)
(14.572 5.29068 -4.27816e-20)
(14.6748 5.24954 5.62823e-20)
(14.8243 5.24517 0)
(15.0029 5.2844 -4.44176e-18)
(15.2141 5.38764 3.82134e-18)
(15.4268 5.55642 0)
(15.6302 5.78599 0)
(15.8076 6.07335 2.9913e-18)
(15.9471 6.39822 1.76545e-19)
(16.0522 6.73051 1.58337e-18)
(16.1345 7.04944 1.15365e-18)
(16.2072 7.3372 -1.61755e-18)
(16.2746 7.59824 -5.865e-19)
(16.3466 7.81527 2.32969e-18)
(16.4031 8.02187 -2.14579e-18)
(16.4778 8.16298 1.40162e-18)
(14.6737 5.43092 -3.43972e-18)
(14.6575 5.42136 -4.76363e-18)
(14.6287 5.43284 -4.10844e-20)
(14.5869 5.43557 5.4375e-20)
(14.5506 5.42488 4.91886e-18)
(14.5197 5.39707 -2.38327e-18)
(14.5195 5.34807 -1.01238e-20)
(14.5653 5.28894 -3.0561e-20)
(14.6707 5.24104 5.77578e-20)
(14.8255 5.22986 4.92594e-20)
(15.0106 5.26111 -6.43027e-20)
(15.2329 5.35637 -3.82115e-18)
(15.4594 5.51768 3.25859e-18)
(15.6802 5.74074 -1.38223e-19)
(15.8776 6.02469 0)
(16.0366 6.34855 -2.61999e-19)
(16.159 6.6793 2.01897e-19)
(16.256 6.99308 -1.13534e-18)
(16.3419 7.27077 1.97618e-18)
(16.4225 7.51529 1.12687e-18)
(16.5072 7.71438 -7.46401e-19)
(16.58 7.89455 -1.09217e-18)
(16.6676 8.02542 1.36536e-18)
(14.6752 5.43307 -1.60161e-20)
(14.658 5.42369 4.81747e-18)
(14.6291 5.43654 0)
(14.5863 5.44083 0)
(14.5484 5.4311 0)
(14.5153 5.4032 0)
(14.513 5.35172 1.01392e-20)
(14.5582 5.28751 9.03473e-21)
(14.666 5.23264 -2.94621e-20)
(14.8258 5.21439 5.04399e-20)
(15.017 5.23711 -6.57918e-20)
(15.2503 5.32343 0)
(15.4908 5.47603 -6.40478e-18)
(15.7297 5.6912 1.63598e-19)
(15.9482 5.97068 -3.2776e-19)
(16.1279 6.29312 2.74068e-18)
(16.268 6.62244 -2.07951e-19)
(16.3785 6.93101 3.06161e-19)
(16.4747 7.19793 -3.74897e-19)
(16.5642 7.42387 5.58108e-19)
(16.6558 7.6014 -7.59886e-19)
(16.7401 7.75223 0)
(16.8354 7.86697 6.98673e-19)
(14.6767 5.43483 6.85199e-18)
(14.6585 5.42585 2.36456e-18)
(14.6297 5.44008 3.26139e-20)
(14.5859 5.44602 -3.93991e-18)
(14.5465 5.43741 -2.64535e-18)
(14.5111 5.40959 -4.82028e-21)
(14.5066 5.35578 2.281e-19)
(14.5508 5.28649 1.54783e-18)
(14.6605 5.22448 2.53884e-18)
(14.8251 5.19893 0)
(15.022 5.21249 8.8386e-20)
(15.2662 5.28874 -4.22709e-18)
(15.5207 5.43118 3.36777e-18)
(15.7783 5.63679 2.44144e-18)
(16.0193 5.91053 1.88213e-18)
(16.2213 6.23115 0)
(16.3796 6.5595 0)
(16.5022 6.8636 -1.20377e-18)
(16.6051 7.12003 -1.21851e-18)
(16.6975 7.32675 5.56816e-19)
(16.7891 7.48053 3.87192e-19)
(16.8778 7.60123 4.86791e-19)
(16.9728 7.69341 -6.63549e-19)
(14.6781 5.43634 -3.4364e-18)
(14.659 5.4279 -2.3796e-18)
(14.6302 5.44355 2.18536e-20)
(14.5856 5.4512 -9.46517e-20)
(14.5446 5.4438 2.65484e-18)
(14.5069 5.41613 1.35413e-18)
(14.5 5.36 -7.6712e-20)
(14.5431 5.28544 -1.53035e-18)
(14.6547 5.21587 -2.52053e-18)
(14.8239 5.1826 -7.34146e-20)
(15.0256 5.18624 0)
(15.2806 5.25131 4.11543e-18)
(15.5495 5.38225 3.45691e-18)
(15.8266 5.57665 -2.58358e-18)
(16.0913 5.84329 -1.62232e-18)
(16.317 6.16168 -6.64593e-19)
(16.4941 6.48995 -4.74411e-19)
(16.6276 6.79137 2.39749e-18)
(16.7328 7.03923 0)
(16.8212 7.22824 0)
(16.9046 7.35859 3.5853e-19)
(16.988 7.45058 -9.22845e-19)
(17.0718 7.51632 -6.17118e-19)
(14.6794 5.43743 3.37243e-18)
(14.6597 5.4297 0)
(14.6311 5.44677 0)
(14.5859 5.45631 8.13021e-18)
(14.5435 5.45045 -2.77144e-18)
(14.5033 5.42345 -1.38858e-18)
(14.4936 5.36554 3.34693e-20)
(14.5344 5.28585 7.13311e-19)
(14.6468 5.20829 5.88488e-20)
(14.8203 5.16687 -2.92927e-18)
(15.027 5.16006 9.18379e-20)
(15.2923 5.21261 -1.18942e-19)
(15.5748 5.32983 -3.45529e-18)
(15.8718 5.51025 2.7762e-18)
(16.1625 5.76763 1.89431e-18)
(16.4147 6.08322 -1.41048e-18)
(16.6126 6.41294 1.12798e-18)
(16.7561 6.71501 -1.19356e-18)
(16.8594 6.9584 0)
(16.9357 7.13426 0)
(17.0015 7.24589 -3.38635e-19)
(17.0684 7.31522 2.07743e-19)
(17.1305 7.35676 -5.5811e-19)
(14.6808 5.43888 -4.26876e-20)
(14.6598 5.43178 2.43905e-18)
(14.6309 5.45027 0)
(14.5846 5.46112 -2.01674e-18)
(14.5404 5.45587 5.67463e-18)
(14.4983 5.42799 -6.01889e-21)
(14.4871 5.36644 4.75854e-20)
(14.5273 5.28015 -7.61572e-19)
(14.6433 5.1952 3.02301e-20)
(14.8225 5.14778 2.95175e-18)
(15.0307 5.13023 -7.03013e-20)
(15.3064 5.16826 -2.09092e-18)
(15.6044 5.2706 -2.28101e-19)
(15.922 5.43624 -2.60656e-18)
(16.2383 5.68329 -2.14873e-18)
(16.5171 5.99566 1.13855e-19)
(16.736 6.32841 0)
(16.8889 6.63526 -1.52011e-19)
(16.987 6.88038 1.91467e-19)
(17.0461 7.05185 0)
(17.0888 7.15553 2.98833e-19)
(17.1307 7.21141 -2.00547e-19)
(17.1614 7.23194 0)
(14.6819 5.43829 -3.35243e-18)
(14.661 5.43241 -2.44681e-18)
(14.6329 5.45212 0)
(14.5862 5.46655 -2.09954e-18)
(14.5407 5.46556 -5.82257e-18)
(14.4955 5.44247 -1.52691e-18)
(14.4799 5.38357 -4.4582e-19)
(14.5164 5.29655 0)
(14.6302 5.20493 2.6653e-18)
(14.8114 5.14459 -3.00023e-18)
(15.0254 5.11357 2.52805e-18)
(15.3082 5.13879 2.1822e-18)
(15.616 5.2229 -3.24821e-20)
(15.954 5.36519 4.17603e-20)
(16.3021 5.59329 -2.16477e-18)
(16.6169 5.89753 1.43053e-18)
(16.8662 6.23405 0)
(17.0338 6.55238 6.08958e-19)
(17.126 6.8103 0)
(17.1614 6.99061 0)
(17.1698 7.09785 -2.86281e-19)
(17.1694 7.14808 -4.89341e-19)
(17.1531 7.15404 3.96589e-19)
(14.6826 5.4383 0)
(14.6611 5.43311 1.03591e-22)
(14.6331 5.45374 -3.20247e-22)
(14.5859 5.46985 2.16252e-18)
(14.5395 5.47079 1.44496e-18)
(14.4928 5.4497 1.52879e-18)
(14.4753 5.39181 2.32911e-19)
(14.5098 5.30334 -1.44438e-21)
(14.6236 5.20655 -1.31429e-18)
(14.8078 5.13862 -6.55351e-20)
(15.0235 5.09722 3.51484e-20)
(15.3124 5.10904 0)
(15.6309 5.17493 3.34423e-20)
(15.9881 5.29428 -4.29534e-20)
(16.3656 5.50181 3.2071e-18)
(16.7163 5.79441 9.1196e-20)
(17.0001 6.13219 0)
(17.1898 6.46407 1.63472e-19)
(17.2832 6.74343 -1.85628e-19)
(17.2982 6.94661 0)
(17.27 7.07525 0)
(17.2249 7.14333 2.85617e-19)
(17.1652 7.15921 -1.5836e-19)
(14.6833 5.43845 -3.3533e-18)
(14.6612 5.43391 -2.54959e-18)
(14.6333 5.45553 0)
(14.5857 5.47324 -2.16693e-18)
(14.5385 5.47598 1.49943e-18)
(14.4903 5.45664 1.57117e-18)
(14.471 5.39936 -2.2724e-19)
(14.5039 5.30894 -7.30155e-19)
(14.6177 5.20691 -1.35718e-18)
(14.804 5.13211 4.65757e-18)
(15.0215 5.08053 -2.57268e-18)
(15.3162 5.07792 -2.26333e-18)
(15.6438 5.12404 -1.96515e-18)
(16.0192 5.2184 0)
(16.4267 5.40262 -1.11897e-18)
(16.816 5.68071 1.60078e-18)
(17.14 6.01886 6.23762e-20)
(17.3596 6.36801 -6.87928e-19)
(17.4616 6.67797 0)
(17.4635 6.92053 0)
(17.4085 7.0969 0)
(17.328 7.20847 -3.52216e-19)
(17.2176 7.24168 2.49875e-19)
(14.684 5.4386 3.36118e-18)
(14.6614 5.43475 -2.97142e-20)
(14.6336 5.45738 0)
(14.5857 5.4767 2.21359e-18)
(14.5377 5.48125 1.82963e-22)
(14.4881 5.46365 -2.35666e-18)
(14.4671 5.40694 4.26009e-19)
(14.4983 5.31454 2.26046e-18)
(14.6118 5.20741 -1.97309e-21)
(14.8001 5.12602 -1.57888e-18)
(15.0193 5.06413 -1.34316e-18)
(15.3188 5.0463 2.27327e-18)
(15.6541 5.07109 1.9458e-18)
(16.0465 5.13779 -1.62658e-18)
(16.484 5.29492 1.94652e-20)
(16.9146 5.55427 -1.61877e-18)
(17.2856 5.89015 0)
(17.5455 6.25792 0)
(17.6712 6.60639 3.68113e-19)
(17.6808 6.90834 0)
(17.6148 7.1578 0)
(17.4873 7.31931 6.43771e-20)
(17.2971 7.3668 9.07793e-20)
(14.6846 5.43874 0)
(14.6616 5.43559 2.59057e-18)
(14.634 5.45924 -6.52756e-23)
(14.5857 5.48018 8.681e-21)
(14.537 5.48659 8.09182e-23)
(14.4862 5.47077 1.55562e-18)
(14.4634 5.41471 -1.9849e-19)
(14.4929 5.32041 -1.53115e-18)
(14.6059 5.20822 -1.4783e-18)
(14.7961 5.12027 0)
(15.0164 5.04785 1.33863e-18)
(15.3199 5.01417 4.75713e-21)
(15.6613 5.01619 1.06277e-21)
(16.0694 5.05239 1.62103e-18)
(16.5366 5.17807 0)
(17.0109 5.41321 8.80275e-19)
(17.4351 5.74154 -1.68614e-20)
(17.7488 6.12506 0)
(17.9217 6.51687 -3.6357e-19)
(17.9654 6.89392 0)
(17.8947 7.22731 0)
(17.7133 7.45091 0)
(17.4897 7.56598 -9.10852e-21)
(14.6852 5.43887 0)
(14.6618 5.43644 -1.31603e-18)
(14.6344 5.46111 1.19298e-23)
(14.5858 5.48368 -2.23095e-18)
(14.5365 5.49197 -1.52821e-18)
(14.4845 5.47801 -1.53113e-18)
(14.4599 5.42267 0)
(14.4874 5.32654 -8.43345e-19)
(14.5998 5.20929 3.00077e-18)
(14.7918 5.1148 -6.67772e-23)
(15.0126 5.03166 1.38683e-18)
(15.3191 4.98162 -1.18458e-18)
(15.6648 4.95946 0)
(16.0871 4.96215 0)
(16.5833 5.05159 1.29777e-18)
(17.1026 5.25574 -8.64922e-19)
(17.586 5.56801 0)
(17.9693 5.95911 -7.15428e-19)
(18.2166 6.3919 -4.08009e-19)
(18.3197 6.84579 0)
(18.2663 7.27235 2.468e-21)
(18.1003 7.60764 -1.07955e-21)
(17.9617 7.86737 -2.98483e-20)
(14.6859 5.43898 -1.43099e-23)
(14.6621 5.43728 2.64253e-18)
(14.6349 5.46298 3.59496e-23)
(14.5861 5.48719 0)
(14.5361 5.49739 7.30631e-21)
(14.4828 5.48534 1.50153e-18)
(14.4564 5.43082 1.14923e-22)
(14.482 5.33294 8.44456e-19)
(14.5934 5.21066 -1.5221e-18)
(14.787 5.10966 1.78191e-18)
(15.0077 5.01569 1.5896e-20)
(15.3161 4.94882 2.38315e-18)
(15.6641 4.90106 -2.11899e-18)
(16.0988 4.86714 6.15525e-21)
(16.6226 4.91518 -2.65339e-18)
(17.187 5.08032 9.72336e-19)
(17.7343 5.36444 -3.72351e-20)
(18.2029 5.74838 7.37166e-19)
(18.5502 6.20753 4.01133e-19)
(18.7421 6.72336 0)
(18.7682 7.24668 1.18698e-19)
(18.7277 7.72369 0)
(18.6969 8.11933 -3.11303e-20)
(14.6866 5.43907 0)
(14.6624 5.43812 -1.3264e-18)
(14.6354 5.46484 -1.40003e-18)
(14.5864 5.4907 -1.26925e-22)
(14.5358 5.50285 3.0447e-18)
(14.4812 5.49278 -7.43768e-19)
(14.453 5.43917 0)
(14.4764 5.33963 0)
(14.5869 5.21235 -1.10478e-21)
(14.7818 5.10491 -1.78328e-18)
(15.0017 5.00002 1.13607e-20)
(15.3109 4.91594 -1.19649e-18)
(15.6589 4.8412 2.11477e-18)
(16.1037 4.76757 0)
(16.6527 4.76885 1.3458e-18)
(17.2606 4.88581 -9.43917e-19)
(17.8745 5.12631 6.2041e-19)
(18.44 5.48108 4.9637e-20)
(18.9053 5.93857 0)
(19.2197 6.48297 0)
(19.3975 7.07124 -5.94042e-20)
(19.522 7.63674 -1.43094e-19)
(19.4767 8.05472 3.9555e-20)
(14.6872 5.43915 0)
(14.6627 5.43895 5.48852e-23)
(14.6359 5.46669 1.40242e-18)
(14.5867 5.49421 -1.12336e-18)
(14.5356 5.50833 -1.52063e-18)
(14.4798 5.50031 -2.05076e-22)
(14.4496 5.4477 3.01263e-21)
(14.4708 5.3466 4.68461e-19)
(14.58 5.21438 -1.60811e-18)
(14.7762 5.10057 0)
(14.9946 4.9847 7.49311e-21)
(15.3033 4.88312 -1.20591e-18)
(15.6486 4.78013 0)
(16.1011 4.66373 -3.23999e-20)
(16.672 4.61283 1.48275e-18)
(17.3197 4.6717 0)
(17.9995 4.85072 -4.46476e-20)
(18.6651 5.14906 -6.30806e-22)
(19.2556 5.56621 6.90868e-19)
(19.7177 6.08738 0)
(20.0769 6.67038 0)
(20.3105 7.22239 7.59135e-20)
(20.1003 7.56241 -2.21191e-19)
(14.6879 5.43922 2.9047e-23)
(14.663 5.43978 -3.83765e-23)
(14.6364 5.46854 0)
(14.587 5.49772 -1.125e-18)
(14.5354 5.51385 6.73448e-22)
(14.4783 5.50793 -4.05959e-22)
(14.4462 5.45643 -2.81209e-21)
(14.4651 5.35388 -4.69529e-19)
(14.5727 5.21674 1.61086e-18)
(14.77 5.09666 -1.88971e-18)
(14.9862 4.96979 -1.43489e-18)
(15.2932 4.85059 1.2198e-18)
(15.6331 4.71814 1.07769e-18)
(16.0903 4.55599 9.25457e-19)
(16.6786 4.4477 -1.45383e-18)
(17.3605 4.43843 6.25091e-20)
(18.1013 4.53723 -7.99414e-19)
(18.8594 4.74952 -3.80123e-19)
(19.5671 5.08231 -2.42785e-19)
(20.1764 5.5171 1.86092e-19)
(20.6942 6.00764 -2.23484e-19)
(20.9462 6.4501 0)
(20.4892 6.66687 1.49509e-19)
(14.6885 5.43927 0)
(14.6633 5.44061 -1.35188e-18)
(14.637 5.47038 -1.41773e-18)
(14.5874 5.50123 1.12732e-18)
(14.5352 5.51939 -7.5223e-19)
(14.4769 5.51564 0)
(14.4428 5.46535 4.25446e-22)
(14.4593 5.36145 -5.60934e-22)
(14.5652 5.21945 8.19881e-19)
(14.7633 5.09319 2.85999e-18)
(14.9766 4.95539 -1.43296e-18)
(15.2807 4.81855 -8.51518e-21)
(15.6118 4.65546 6.1221e-21)
(16.0709 4.44483 -9.62345e-19)
(16.6708 4.27454 0)
(17.3795 4.18745 1.13517e-18)
(18.1713 4.18859 -7.974e-19)
(19.0035 4.28772 4.99683e-19)
(19.8024 4.49311 2.19118e-19)
(20.5288 4.77779 1.4904e-20)
(21.1489 5.09747 -2.83669e-19)
(21.3482 5.36676 2.05124e-19)
(20.646 5.45776 2.19703e-19)
(14.6891 5.43931 -8.74234e-19)
(14.6636 5.44143 -4.39484e-21)
(14.6376 5.47221 1.41999e-18)
(14.5878 5.50474 1.12714e-18)
(14.5351 5.52495 1.50268e-18)
(14.4757 5.52344 6.8027e-19)
(14.4395 5.47446 -4.3871e-22)
(14.4534 5.36933 5.78485e-22)
(14.5574 5.22251 -8.21257e-19)
(14.7562 5.09021 -9.64761e-19)
(14.9659 4.94157 2.88563e-18)
(15.2658 4.78717 -1.20898e-18)
(15.5847 4.59238 -1.10619e-18)
(16.0422 4.33102 1.00974e-18)
(16.6472 4.09481 -5.43052e-20)
(17.3736 3.92129 -9.95784e-19)
(18.2013 3.81048 8.15903e-19)
(19.0813 3.77603 -8.75276e-19)
(19.9298 3.81876 -1.83163e-19)
(20.7209 3.90415 0)
(21.3754 4.00472 3.82755e-19)
(21.4915 4.07511 -4.26348e-19)
(20.6086 4.05457 6.01634e-19)
(14.6897 5.43934 8.75458e-19)
(14.664 5.44225 2.0425e-18)
(14.6381 5.47403 1.42784e-18)
(14.5883 5.50823 -1.1266e-18)
(14.5351 5.53053 -7.50457e-19)
(14.4745 5.53131 -6.81497e-19)
(14.4363 5.48375 6.32533e-20)
(14.4474 5.37752 0)
(14.5493 5.22593 8.30858e-19)
(14.7487 5.08773 -9.95811e-19)
(14.9541 4.92838 -1.44611e-18)
(15.2485 4.75668 1.2118e-18)
(15.5514 4.52935 0)
(16.0039 4.21545 -9.41135e-19)
(16.6066 3.90997 7.34328e-19)
(17.3401 3.64305 -6.17775e-19)
(18.1854 3.41132 2.34963e-19)
(19.0799 3.23173 3.04879e-19)
(19.9302 3.09165 -9.31901e-19)
(20.7247 2.95386 5.96961e-19)
(21.3524 2.82297 0)
(21.3909 2.70064 -1.23439e-18)
(20.4401 2.5784 1.82875e-18)
(14.6903 5.43935 0)
(14.6643 5.44307 -6.83031e-19)
(14.6387 5.47583 -1.42947e-18)
(14.5888 5.51172 1.1281e-18)
(14.5352 5.53612 -6.86218e-23)
(14.4734 5.53926 -3.90874e-22)
(14.4331 5.49322 -2.49127e-20)
(14.4415 5.38601 0)
(14.5411 5.22971 -8.32212e-19)
(14.7409 5.08575 -1.50524e-20)
(14.9413 4.91589 0)
(15.2288 4.72738 -6.02472e-19)
(15.5116 4.46688 0)
(15.9557 4.09891 7.56171e-20)
(16.5482 3.72163 -1.66581e-18)
(17.2778 3.35725 4.76449e-19)
(18.1214 3.00115 2.48616e-19)
(18.9893 2.67391 -9.83511e-19)
(19.7959 2.34785 4.69913e-19)
(20.5351 1.98828 7.76523e-19)
(21.0865 1.63829 -1.26457e-18)
(21.069 1.33744 1.20116e-18)
(20.1443 1.10387 -4.52262e-18)
(14.6908 5.43936 8.86412e-19)
(14.6647 5.44388 -6.87427e-19)
(14.6394 5.47763 7.17213e-19)
(14.5894 5.5152 5.31237e-22)
(14.5353 5.54172 -6.55499e-22)
(14.4724 5.54728 4.86787e-22)
(14.43 5.50288 -3.92411e-20)
(14.4356 5.39482 2.49169e-21)
(14.5326 5.23385 -2.44472e-21)
(14.7328 5.0843 -1.52673e-20)
(14.9275 4.9042 -7.24092e-19)
(15.2068 4.69966 5.80532e-19)
(15.4648 4.40531 3.0534e-20)
(15.897 3.98204 -7.76122e-20)
(16.471 3.53176 9.59132e-19)
(17.1861 3.06789 0)
(18.0082 2.59095 4.77048e-19)
(18.8076 2.12301 6.85584e-19)
(19.5315 1.62166 -5.7798e-19)
(20.1633 1.06382 1.60932e-18)
(20.5929 0.519771 -8.37362e-19)
(20.5198 0.0438013 2.21885e-19)
(19.5927 -0.326201 2.84121e-18)
(14.6914 5.43935 -1.77652e-18)
(14.665 5.44468 6.88363e-19)
(14.64 5.47941 7.27252e-22)
(14.59 5.51866 0)
(14.5356 5.54733 0)
(14.4714 5.55537 3.21606e-19)
(14.427 5.51271 -5.16448e-20)
(14.4296 5.40393 0)
(14.5239 5.23835 -4.97847e-21)
(14.7244 5.0834 1.03727e-18)
(14.9126 4.89343 7.38483e-19)
(15.1825 4.67378 -1.69985e-20)
(15.4108 4.34493 -4.55114e-20)
(15.8279 3.86587 1.3802e-19)
(16.3754 3.34239 -1.01272e-19)
(17.0658 2.77862 0)
(17.8411 2.19186 -7.01351e-19)
(18.5424 1.5986 6.23632e-20)
(19.1521 0.943828 -1.69437e-18)
(19.638 0.226301 8.06072e-19)
(19.9183 -0.470021 1.38243e-18)
(19.7228 -1.06299 -2.24265e-18)
(18.7932 -1.5161 0)
(14.6919 5.43933 1.78157e-18)
(14.6654 5.44548 -7.92171e-23)
(14.6407 5.48118 -7.19928e-19)
(14.5906 5.52211 0)
(14.5359 5.55294 0)
(14.4706 5.56351 -4.26855e-21)
(14.4241 5.52271 1.09661e-19)
(14.4236 5.41335 0)
(14.515 5.24319 4.22509e-19)
(14.7156 5.08308 0)
(14.8967 4.88368 0)
(15.156 4.65001 -2.31833e-20)
(15.3493 4.28603 3.03001e-20)
(15.7485 3.75104 4.82991e-19)
(16.2611 3.15419 1.03283e-19)
(16.9202 2.49501 -1.82885e-19)
(17.618 1.81431 7.22663e-19)
(18.2067 1.11454 0)
(18.6823 0.337806 5.79325e-19)
(19.0028 -0.49216 0)
(19.1182 -1.26411 3.3135e-19)
(18.8083 -1.90925 4.59777e-19)
(17.913 -2.40452 0)
(14.6925 5.43931 -1.3394e-18)
(14.6658 5.44628 3.48152e-19)
(14.6413 5.48294 0)
(14.5913 5.52554 -5.62502e-19)
(14.5362 5.55855 3.66119e-19)
(14.4699 5.57172 -3.18146e-19)
(14.4212 5.53288 -5.7908e-20)
(14.4176 5.42307 -2.7298e-19)
(14.5059 5.2484 -4.20648e-19)
(14.7067 5.08336 -8.53699e-21)
(14.8798 4.875 1.10939e-20)
(15.1274 4.62856 5.87119e-19)
(15.2799 4.22885 4.62626e-20)
(15.6589 3.63784 -7.0804e-19)
(16.128 2.9685 1.04635e-19)
(16.7498 2.22379 0)
(17.3472 1.4641 0)
(17.8208 0.677481 0)
(18.1546 -0.184624 0)
(18.3109 -1.06664 -2.24779e-19)
(18.2739 -1.85748 -1.59125e-18)
(17.8654 -2.51354 1.5168e-18)
(17.0161 -3.00056 0)
(14.693 5.43927 4.4743e-19)
(14.6662 5.44706 -6.98328e-19)
(14.642 5.48468 0)
(14.592 5.52895 5.63335e-19)
(14.5366 5.56416 -7.3244e-19)
(14.4692 5.57997 0)
(14.4184 5.54322 0)
(14.4115 5.4331 2.71439e-19)
(14.4965 5.25396 0)
(14.6975 5.08426 -5.40529e-19)
(14.862 4.86736 -3.66905e-19)
(15.0968 4.60968 -2.98451e-19)
(15.2021 4.17429 5.29465e-19)
(15.5593 3.52824 0)
(15.982 2.78763 0)
(16.5551 1.96907 1.7829e-19)
(17.046 1.14503 -2.2922e-19)
(17.407 0.290255 0)
(17.6042 -0.621758 -2.8949e-19)
(17.613 -1.50917 2.32326e-19)
(17.447 -2.2746 1.36538e-18)
(16.9668 -2.90592 -1.70037e-18)
(16.1695 -3.35965 0)
(14.6935 5.43923 -6.06675e-23)
(14.6665 5.44784 7.01815e-19)
(14.6427 5.4864 1.95057e-22)
(14.5928 5.53234 2.8116e-19)
(14.5371 5.56977 3.663e-19)
(14.4687 5.58828 -1.53577e-19)
(14.4157 5.55371 -8.68344e-23)
(14.4055 5.44343 -1.41688e-19)
(14.4869 5.25986 4.32479e-19)
(14.6881 5.08576 5.43016e-19)
(14.8433 4.86085 3.5636e-19)
(15.0645 4.59392 -2.90727e-19)
(15.1156 4.12302 -5.31742e-19)
(15.4514 3.42257 -8.22699e-20)
(15.8303 2.61381 1.05531e-19)
(16.338 1.73203 1.71322e-19)
(16.7246 0.857889 -2.21909e-19)
(16.9756 -0.046822 0)
(17.0453 -0.977048 2.99312e-19)
(16.9298 -1.83837 0)
(16.6565 -2.55389 -1.61596e-19)
(16.1302 -3.12951 0)
(15.3832 -3.53712 -6.55297e-20)
(14.694 5.43917 -2.25932e-19)
(14.6669 5.44862 -3.51773e-19)
(14.6434 5.48811 -3.63977e-19)
(14.5935 5.53571 -6.52568e-22)
(14.5376 5.57536 7.1876e-22)
(14.4682 5.59663 1.90881e-21)
(14.413 5.56436 -4.04783e-20)
(14.3994 5.45407 -2.90211e-21)
(14.4771 5.26609 -4.25322e-19)
(14.6786 5.08784 -8.58137e-21)
(14.8237 4.85561 3.59032e-19)
(15.0306 4.582 0)
(15.0198 4.07396 -4.60101e-20)
(15.336 3.31762 5.93966e-20)
(15.6705 2.44847 2.19403e-19)
(16.098 1.51229 0)
(16.3846 0.602429 0)
(16.5285 -0.330623 -1.67121e-19)
(16.4806 -1.25021 0)
(16.2628 -2.05992 8.81343e-19)
(15.9046 -2.71011 -9.76883e-19)
(15.3505 -3.21637 9.35326e-20)
(14.6547 -3.57013 2.15306e-18)
(14.6945 5.43911 4.531e-19)
(14.6673 5.44938 1.77481e-19)
(14.6442 5.48979 5.46471e-19)
(14.5943 5.53905 -2.82609e-19)
(14.5382 5.58093 -1.80659e-19)
(14.4678 5.60501 2.26905e-19)
(14.4105 5.57517 4.11426e-20)
(14.3934 5.465 1.40359e-19)
(14.4671 5.27264 7.89139e-21)
(14.669 5.09055 -6.96891e-21)
(14.8035 4.85187 -3.48408e-19)
(14.9953 4.57452 -1.38283e-19)
(14.9141 4.02671 1.90405e-19)
(15.2145 3.21196 3.51231e-19)
(15.4962 2.29027 -2.19022e-19)
(15.8382 1.31052 0)
(16.0298 0.3795 0)
(16.0731 -0.564223 -3.40606e-19)
(15.9269 -1.45096 4.81946e-19)
(15.6279 -2.19553 0)