/*--------------------------------*- C++ -*----------------------------------*\
  =========                 |
  \\      /  F ield         | OpenFOAM: The Open Source CFD Toolbox
   \\    /   O peration     | Website:  https://openfoam.org
    \\  /    A nd           | Version:  7
     \\/     M anipulation  |
\*---------------------------------------------------------------------------*/
FoamFile
{
    version     2.0;
    format      ascii;
    class       volScalarField;
    location    "80";
    object      k;
}
// * * * * * * * * * * * * * * * * * * * * * * * * * * * * * * * * * * * * * //

dimensions      [0 2 -2 0 0 0 0];

internalField   nonuniform List<scalar> 
12842
(
0.00568719
0.00510287
0.00473404
0.00448911
0.00431061
0.00418297
0.00409907
0.00403159
0.00400095
0.00396619
0.003968
0.00398416
0.00402762
0.00409048
0.00416356
0.00418847
0.00422705
0.00425061
0.00426958
0.00427469
0.0043019
0.00429996
0.00429488
0.00564917
0.0050626
0.00468514
0.00447167
0.00430307
0.00417907
0.00409466
0.00402715
0.00399624
0.00396294
0.003966
0.00398505
0.00403096
0.00409628
0.00415741
0.00420665
0.00423632
0.00425121
0.00427697
0.00428735
0.00429788
0.00430226
0.00430123
0.00561663
0.00499598
0.00462632
0.00440576
0.00425481
0.0041471
0.00406825
0.00400771
0.00397912
0.00395282
0.00395981
0.00398522
0.00403802
0.0041088
0.0041568
0.0042066
0.0042525
0.00426514
0.00427766
0.00429929
0.0042971
0.00430425
0.00430168
0.00556099
0.00494496
0.00456602
0.00437439
0.0042285
0.00413126
0.0040558
0.0039991
0.00397147
0.00394824
0.00395665
0.00398406
0.00404372
0.00411342
0.00415657
0.00421688
0.00425755
0.00426886
0.00427767
0.00430613
0.00430175
0.00430707
0.00430581
0.00550752
0.00487661
0.00451034
0.0043116
0.0041864
0.00409596
0.00402616
0.00397881
0.00395424
0.00393861
0.00395071
0.00398865
0.00405943
0.00412379
0.00416301
0.00421355
0.00426077
0.00427674
0.00429087
0.00431416
0.00431767
0.00431277
0.00430712
0.00544755
0.00481262
0.00445737
0.00428018
0.00414411
0.00407727
0.0040128
0.00396983
0.00394657
0.00393415
0.00394781
0.00398854
0.0040673
0.00412889
0.00416664
0.00421455
0.0042705
0.00428372
0.00429611
0.0043223
0.00432429
0.0043272
0.00431312
0.00539333
0.00474769
0.00440468
0.00423452
0.00412245
0.00404693
0.00398591
0.00395155
0.00393128
0.00392573
0.00394335
0.00398972
0.00408037
0.00414456
0.00417316
0.00422067
0.00427313
0.00428682
0.00430056
0.00432549
0.00432692
0.00433123
0.00432937
0.00533567
0.00469181
0.00435886
0.00420001
0.00408257
0.00403119
0.00397468
0.00394395
0.00392446
0.00392161
0.00393915
0.00399499
0.00408894
0.00416568
0.00418319
0.00423457
0.00428361
0.00429306
0.00430697
0.00434216
0.00432099
0.00433359
0.00433174
0.00528168
0.00463785
0.00431704
0.00416857
0.00406529
0.00400907
0.00395445
0.00393024
0.00391324
0.00391494
0.00393568
0.00399688
0.00409382
0.0041526
0.00418426
0.0042408
0.00429194
0.00430191
0.00431575
0.00433448
0.0043361
0.00433365
0.00432886
0.00521834
0.00458291
0.00427686
0.0041383
0.00403946
0.00399523
0.00394599
0.00392492
0.00390842
0.00391191
0.00393646
0.00399413
0.00409753
0.00416949
0.00419068
0.00425636
0.00429563
0.00430538
0.00431442
0.00433658
0.00433234
0.00433039
0.00434362
0.0051579
0.00453206
0.00424121
0.00411166
0.00402252
0.00398005
0.00393161
0.00391456
0.00390044
0.00390656
0.00393687
0.00399489
0.00410282
0.00415615
0.00419517
0.00425768
0.00429925
0.00432059
0.00432816
0.00433795
0.00433233
0.00435018
0.00437896
0.00509478
0.00448568
0.00420776
0.00408476
0.00400259
0.00396571
0.00392354
0.00390981
0.00389652
0.00390382
0.00393609
0.00399874
0.00410998
0.00415211
0.0042042
0.00425015
0.00430058
0.00432292
0.0043306
0.00433474
0.00435695
0.00437978
0.00442056
0.00503472
0.00443885
0.00417711
0.00406223
0.00398686
0.00395355
0.00391284
0.00390067
0.0038898
0.00389932
0.00393811
0.00400202
0.00411658
0.004153
0.00421295
0.0042506
0.00429584
0.00431911
0.00433031
0.00435344
0.00438542
0.00442791
0.00447724
0.00497623
0.00440135
0.00415012
0.00403842
0.0039697
0.00394073
0.00390461
0.00389637
0.00388656
0.00389666
0.00393771
0.00400859
0.00412594
0.00415988
0.00422318
0.00426038
0.00429897
0.00433135
0.00434883
0.0043869
0.0044409
0.00448925
0.00454939
0.00491894
0.00435962
0.00412436
0.0040197
0.00395703
0.00392964
0.00389699
0.00388818
0.00388078
0.00389311
0.00393704
0.00401689
0.00413677
0.0041661
0.00423293
0.00426936
0.0043116
0.00434446
0.00438453
0.00443673
0.00448726
0.0045542
0.00462098
0.00486791
0.00432932
0.00410183
0.00399955
0.00394144
0.00391897
0.00388907
0.003884
0.00387796
0.00389027
0.00394149
0.00402304
0.00415242
0.00417995
0.00425142
0.00429166
0.00433544
0.0043892
0.004433
0.00449819
0.00456731
0.0046419
0.00471641
0.0048146
0.00429276
0.00408123
0.00398364
0.00393097
0.00390899
0.00388245
0.00387706
0.00387277
0.00388775
0.00394208
0.00402886
0.00416286
0.00419084
0.00426419
0.0043093
0.00437809
0.00442475
0.00448958
0.00456657
0.00463568
0.0047291
0.00481492
0.00477509
0.00426889
0.00406142
0.00396659
0.0039176
0.00389908
0.0038759
0.00387208
0.00387022
0.00388473
0.00394205
0.0040355
0.00418176
0.00421612
0.00429448
0.00435232
0.00442052
0.00450366
0.00456952
0.00465757
0.00474684
0.00485216
0.00494956
0.00473044
0.00423619
0.00404499
0.00395321
0.00390799
0.00389018
0.00386928
0.00386694
0.0038654
0.00388298
0.00394321
0.00404082
0.00420241
0.00423383
0.00431653
0.00439396
0.00449827
0.00456098
0.00464585
0.00475132
0.00484782
0.00497812
0.00509586
0.00470341
0.00421765
0.00402748
0.00393901
0.00389636
0.00388093
0.0038631
0.0038611
0.00386296
0.0038802
0.00394405
0.00404838
0.00422756
0.00427754
0.00437673
0.00446869
0.00455595
0.00466824
0.00476358
0.00487658
0.0050019
0.00514566
0.00528124
0.00466552
0.00418893
0.00401357
0.00392725
0.00388775
0.00387202
0.00385741
0.00385629
0.0038588
0.00387965
0.00394584
0.00405621
0.00424361
0.00430644
0.00441927
0.00453965
0.00467264
0.00475536
0.00486348
0.00500536
0.00514047
0.00532413
0.0054872
0.00464632
0.00417323
0.00399803
0.00391549
0.00387701
0.00386295
0.00385105
0.00385167
0.00385557
0.0038793
0.0039499
0.00407428
0.0042785
0.00437897
0.00451591
0.00464183
0.00474791
0.00489126
0.00501785
0.00516468
0.00534883
0.00554842
0.00573615
0.00461549
0.00414873
0.00398549
0.00390553
0.0038685
0.00385497
0.00384512
0.00384569
0.00385286
0.00387869
0.00395544
0.00409103
0.0043052
0.00442867
0.00458592
0.0047377
0.00490023
0.0050106
0.00515184
0.00534323
0.00553595
0.00578784
0.00600264
0.00460284
0.00413698
0.00397452
0.00389783
0.00386102
0.00384689
0.00384081
0.00384157
0.00384966
0.00388121
0.00396866
0.00412619
0.0043693
0.00453761
0.00471653
0.00487302
0.00500272
0.00518066
0.00533792
0.00553115
0.00578983
0.00606417
0.0063067
0.00458442
0.0041223
0.00396791
0.00389345
0.00385643
0.00384177
0.00383789
0.00383934
0.00384742
0.00388792
0.00399587
0.00417578
0.00443751
0.00462241
0.00481508
0.00499418
0.00518233
0.00532486
0.00551046
0.00576681
0.00604534
0.00636687
0.00664412
0.0045751
0.00411331
0.00396039
0.00388932
0.00385109
0.00383735
0.00383395
0.00383595
0.00384785
0.00390488
0.00403367
0.00423267
0.00452873
0.00475372
0.00496609
0.00515574
0.00531287
0.00553306
0.00573303
0.00598732
0.00631169
0.00666013
0.00695171
0.00455864
0.00410094
0.00395353
0.00388517
0.00384615
0.00383296
0.00383114
0.00383193
0.00385474
0.00392985
0.00408415
0.00431051
0.00462847
0.00487707
0.00509146
0.0052943
0.00551176
0.00568803
0.0059132
0.00622546
0.00657948
0.00693137
0.00723258
0.00454883
0.00408989
0.0039467
0.00388038
0.00384194
0.00382766
0.00382895
0.00383307
0.00387702
0.00396754
0.00414254
0.00439099
0.00474212
0.00501941
0.00525661
0.00547926
0.00565981
0.00591148
0.00616244
0.00646745
0.00682041
0.00717771
0.00746873
0.0045353
0.00408034
0.00393987
0.00387631
0.00383615
0.0038242
0.00382388
0.00384469
0.00391066
0.0040155
0.00421354
0.00449343
0.00487079
0.00517818
0.00541301
0.00562887
0.00587246
0.00609115
0.00634405
0.0066857
0.0070554
0.00740427
0.00769105
0.00452421
0.00406751
0.00393235
0.00387224
0.00383112
0.00382098
0.00382232
0.00387474
0.00395537
0.00407632
0.00429089
0.00459508
0.00500443
0.00533123
0.00558112
0.00582879
0.00603607
0.00629787
0.00658901
0.00691816
0.00728861
0.007627
0.00789936
0.00451332
0.0040588
0.00392628
0.0038668
0.00382757
0.00381502
0.00382942
0.00391303
0.00400918
0.0041463
0.00438123
0.0047171
0.00515283
0.00550357
0.00575433
0.00598085
0.0062341
0.00649275
0.00677523
0.00713634
0.00749855
0.00783147
0.00809633
0.00450214
0.00404712
0.00392009
0.00386175
0.00382264
0.00381318
0.00385367
0.00396386
0.00407395
0.00422752
0.00447559
0.00483766
0.00530539
0.00567906
0.00593347
0.0061886
0.00642819
0.00669611
0.00700612
0.00735104
0.00771936
0.00803876
0.00830834
0.0044916
0.0040375
0.00391184
0.00385881
0.00381596
0.00381931
0.00389179
0.00402215
0.00414568
0.0043145
0.00458253
0.00497189
0.00546276
0.0058401
0.0060956
0.00633321
0.00658332
0.00686231
0.00718288
0.00754468
0.00790919
0.0082454
0.00848813
0.00448179
0.00402618
0.00390638
0.0038521
0.00381712
0.00384352
0.00394062
0.00409139
0.00422748
0.00441206
0.00469095
0.00510761
0.00562756
0.00603244
0.00628743
0.00653886
0.00680267
0.00707296
0.00737793
0.00773917
0.00811254
0.00840969
0.00869272
0.00447124
0.00401794
0.00390091
0.00384542
0.00382947
0.00387789
0.00399823
0.00416645
0.00431262
0.00451041
0.00480802
0.00524493
0.00578747
0.00618639
0.00644017
0.00668166
0.00691709
0.00718694
0.00752095
0.00788644
0.00825058
0.00858813
0.00890323
0.00446107
0.00400762
0.00389405
0.00385116
0.00385906
0.00392394
0.00406707
0.00425004
0.0044068
0.00461962
0.00492684
0.00539054
0.00595456
0.00636785
0.00661354
0.00685165
0.00711402
0.00736174
0.00768388
0.00804964
0.00842108
0.00878715
0.00916357
0.00445144
0.00399688
0.00388517
0.00387047
0.00389721
0.00397748
0.00414189
0.00433681
0.00450054
0.00472365
0.00504521
0.0055225
0.00610744
0.00652113
0.00677418
0.00700402
0.00720415
0.00746322
0.00777923
0.00816175
0.00861148
0.00899164
0.00950792
0.00444157
0.00398957
0.00388997
0.00390697
0.0039449
0.00404179
0.00422652
0.0044295
0.00460164
0.0048384
0.00516898
0.00567135
0.00627426
0.0066888
0.00692431
0.00713237
0.00737204
0.00759959
0.00794405
0.00837428
0.00881597
0.0092866
0.0102346
0.00443023
0.00398271
0.00390575
0.00394809
0.00400177
0.00411344
0.00431356
0.00452245
0.00469936
0.00494262
0.00528214
0.00579328
0.00640648
0.00681746
0.00706011
0.00727296
0.00744443
0.00765304
0.00808191
0.00859941
0.00920902
0.0112983
0.023473
0.00442066
0.00397142
0.00393552
0.00400242
0.00406635
0.00419325
0.00440819
0.00461861
0.0048016
0.00505605
0.00540324
0.0059372
0.00657125
0.00699036
0.00723165
0.00743139
0.00761768
0.00783117
0.00829706
0.00897143
0.0114087
0.0284814
0.153654
0.00441091
0.00396965
0.00397055
0.00406136
0.00413851
0.00427882
0.0045013
0.00471265
0.00489852
0.00515515
0.00550745
0.00604788
0.00668124
0.00708664
0.00732405
0.00752387
0.007729
0.00800987
0.00878848
0.0104364
0.0210967
0.111725
0.646909
0.00439883
0.00398162
0.0040145
0.00413009
0.00421731
0.00436905
0.00459923
0.00480688
0.00499672
0.00526144
0.00562046
0.00618127
0.00683404
0.00725411
0.0075067
0.00773926
0.00801349
0.00843542
0.00935763
0.0134965
0.0428086
0.245221
0.588615
0.00438884
0.004009
0.00406369
0.00420362
0.00429939
0.0044618
0.00469284
0.00489753
0.00508799
0.00535089
0.00571207
0.00627907
0.00692864
0.00733957
0.00759994
0.00785258
0.0081829
0.00872265
0.0100875
0.0168276
0.0667761
0.205921
0.451454
0.00438281
0.00404811
0.00411989
0.00428227
0.00438744
0.00455626
0.004788
0.00498533
0.00517812
0.00544582
0.00581515
0.00640069
0.00706582
0.00749645
0.007782
0.00809217
0.00858392
0.00936577
0.0111075
0.0184275
0.0664438
0.18302
0.473002
0.00437297
0.00409044
0.00417984
0.00436505
0.0044733
0.00464904
0.00487711
0.0050688
0.00525987
0.00552313
0.005893
0.00648544
0.00714684
0.00757463
0.00787572
0.00823122
0.00883332
0.00978729
0.0118006
0.0186255
0.0510008
0.15078
0.456679
0.0043597
0.0041468
0.004246
0.00444834
0.00456449
0.00474161
0.00496514
0.00514721
0.0053391
0.00560438
0.00598421
0.00659378
0.00727179
0.00773001
0.00807662
0.00856632
0.00940848
0.0106425
0.0129467
0.0197588
0.0542671
0.143548
0.328846
0.00436174
0.00420133
0.00431271
0.00453434
0.0046489
0.00482874
0.00504585
0.00522076
0.00540937
0.00566884
0.00605047
0.00666869
0.00734239
0.00781047
0.00819566
0.00877303
0.0098463
0.0115533
0.0149609
0.020572
0.0450387
0.127132
0.235835
0.00438106
0.00427108
0.00438627
0.0046178
0.00473792
0.00491476
0.00512435
0.00528878
0.00547656
0.00573672
0.00613046
0.00676462
0.00745822
0.007974
0.00845653
0.00930372
0.0108557
0.0131085
0.0160534
0.0224049
0.0398417
0.0937021
0.225091
0.00440732
0.00433719
0.0044588
0.00470477
0.00482099
0.00499626
0.00519728
0.00535377
0.00553754
0.00579102
0.00618726
0.00683042
0.00751694
0.00806594
0.0086216
0.00967121
0.0116814
0.0144321
0.0192236
0.0248367
0.0399217
0.0913707
0.167826
0.00444795
0.00441956
0.00454172
0.0047913
0.00490922
0.00507785
0.00526975
0.00541575
0.00559664
0.00584886
0.00625927
0.00691574
0.00761496
0.00823633
0.008986
0.0105976
0.0135014
0.0172992
0.0214126
0.0287891
0.0424516
0.0807501
0.170003
0.00449178
0.00449905
0.00462072
0.00487508
0.0049887
0.00515117
0.00533289
0.00547102
0.00564732
0.00589295
0.00630585
0.00696655
0.00766021
0.00833366
0.00922701
0.0112577
0.0147358
0.018993
0.0251944
0.0349819
0.0523848
0.0903138
0.149924
0.00454398
0.00458169
0.00470171
0.00495328
0.00506502
0.00521829
0.00539069
0.00552051
0.00569323
0.00593602
0.00636117
0.00703144
0.00773213
0.0085065
0.00973497
0.0126347
0.0172317
0.0223396
0.0288843
0.0372586
0.0563377
0.0972018
0.157681
0.00459771
0.00466096
0.00477905
0.00502596
0.00513337
0.00527808
0.0054402
0.00556396
0.00573222
0.00596939
0.00639983
0.00707286
0.00776932
0.00861773
0.0101087
0.0137064
0.0189498
0.0244431
0.031148
0.0452735
0.078232
0.135971
0.181678
0.00465717
0.00473788
0.00485512
0.00509302
0.0051971
0.00533135
0.00548403
0.00560253
0.00576743
0.00600156
0.00644271
0.00712193
0.00782758
0.00880433
0.0107925
0.015597
0.0217182
0.0275311
0.0368044
0.0537815
0.0868538
0.151092
0.219378
0.00471582
0.00480982
0.00492725
0.0051537
0.00525333
0.0053784
0.00552097
0.00563576
0.00579735
0.00602721
0.00647603
0.00715828
0.00786492
0.00894062
0.0113734
0.0171744
0.0236073
0.0295916
0.0389042
0.0592083
0.109761
0.193111
0.259191
0.00477672
0.00487702
0.00499615
0.00520883
0.00530475
0.00541962
0.00555284
0.00566542
0.00582421
0.00605168
0.0065115
0.00719916
0.00791846
0.00915711
0.0122818
0.0191003
0.0259761
0.0319422
0.0428022
0.0759161
0.129026
0.208391
0.309463
0.00483302
0.00493434
0.0050564
0.00525446
0.0053462
0.00545304
0.00557681
0.00568791
0.00584508
0.00606986
0.00653845
0.00722935
0.00795845
0.00932124
0.0129315
0.0206727
0.0276813
0.0337999
0.0479064
0.079775
0.140105
0.223458
0.332962
0.00488489
0.00498458
0.00511065
0.00529434
0.0053827
0.00548158
0.0055972
0.00570835
0.00586328
0.00608629
0.0065647
0.00725954
0.00800202
0.00950173
0.0137164
0.0222416
0.0293842
0.0354206
0.050151
0.0851034
0.140975
0.221239
0.343294
0.00493661
0.00503067
0.00516188
0.00533093
0.005416
0.00550829
0.00561475
0.00572549
0.00588021
0.00610154
0.0065907
0.00728994
0.00804877
0.00969905
0.0145037
0.023802
0.0309798
0.0369864
0.0510979
0.0846168
0.141853
0.221307
0.336698
0.00498519
0.005073
0.00520967
0.00536405
0.00544544
0.00553167
0.00562997
0.00574176
0.00589463
0.00611543
0.00661656
0.00732011
0.00809819
0.00990704
0.0152701
0.0252916
0.0324721
0.0383257
0.0530443
0.0860281
0.142456
0.223849
0.332469
0.00503345
0.00511248
0.00525411
0.00539498
0.00547368
0.00555403
0.00564385
0.00575543
0.00590857
0.00612854
0.00664228
0.00735056
0.00814965
0.0101177
0.0160798
0.02685
0.033908
0.0393119
0.0527501
0.0864758
0.144361
0.227188
0.330075
0.00507826
0.00514848
0.00529508
0.00542286
0.00549773
0.0055744
0.00565612
0.00576815
0.00592001
0.00614054
0.00666788
0.00738027
0.00820158
0.0103312
0.0169175
0.0281883
0.0350315
0.0400747
0.052791
0.0846401
0.141143
0.222006
0.328776
0.00512209
0.00518325
0.00533292
0.00544972
0.00552231
0.00559379
0.00566808
0.00577979
0.00593141
0.0061518
0.00669331
0.00740957
0.00825343
0.0105447
0.0175759
0.0293518
0.0360907
0.0403421
0.0527774
0.0823495
0.129687
0.205701
0.315362
0.00516284
0.00521583
0.00536798
0.0054745
0.00554337
0.00561282
0.00567956
0.00578994
0.00594058
0.00616246
0.0067184
0.00743791
0.00830427
0.0107407
0.0182574
0.0305305
0.0372334
0.0404651
0.05265
0.0765319
0.1149
0.17766
0.279429
0.00520207
0.00524678
0.00539898
0.00549796
0.00556464
0.00563002
0.00569046
0.00579999
0.00594953
0.0061721
0.00674302
0.00746488
0.00835208
0.0109137
0.0189858
0.0315515
0.0377119
0.0405447
0.0510926
0.0696716
0.0993377
0.148669
0.227923
0.00523994
0.00527828
0.00543023
0.00552147
0.00558492
0.00564892
0.00570245
0.00580917
0.00595767
0.00618168
0.00676684
0.00749053
0.00839563
0.0110784
0.0192827
0.0318176
0.0377931
0.0404974
0.0488765
0.0627011
0.084748
0.121921
0.181296
0.00527385
0.00530706
0.00545532
0.00554289
0.00560355
0.0056645
0.00571321
0.00581748
0.00596331
0.0061902
0.00678966
0.00751441
0.00843427
0.0112193
0.0194307
0.0318743
0.0378872
0.0403979
0.0463646
0.0560463
0.0717836
0.0988633
0.141879
0.0053104
0.0053375
0.00548336
0.00556456
0.00562319
0.00568303
0.00572558
0.00582682
0.00597064
0.00619852
0.00681132
0.00753613
0.0084671
0.0112838
0.0195473
0.0320084
0.0378834
0.039845
0.0436836
0.050123
0.0609395
0.0800762
0.110688
0.00534049
0.00536578
0.00550572
0.00558621
0.00564118
0.00569849
0.00573688
0.00583394
0.00597537
0.00620659
0.00683105
0.00755557
0.00849268
0.0113008
0.0195162
0.0319506
0.0373424
0.0385702
0.040891
0.0448403
0.0518715
0.0651401
0.0864261
0.00537413
0.00539581
0.00553058
0.00560593
0.00565904
0.00571514
0.00574985
0.00584314
0.00597721
0.00621365
0.00684818
0.00757228
0.00850753
0.0112902
0.0195213
0.0315711
0.0360412
0.0369706
0.0381398
0.040193
0.0445097
0.0536409
0.0689914
0.00540321
0.00542295
0.00555154
0.00562632
0.0056775
0.00573128
0.00576078
0.00585058
0.00597984
0.006221
0.0068633
0.00758675
0.00849249
0.0111764
0.0192565
0.0304798
0.0341737
0.0350576
0.0351566
0.036043
0.0385783
0.0446442
0.0562597
0.00543479
0.00545358
0.00557601
0.0056476
0.00569368
0.00574667
0.0057749
0.00585838
0.00597959
0.00622761
0.00687604
0.00759793
0.0084559
0.010994
0.018648
0.0289308
0.0320951
0.0327202
0.0319392
0.0323457
0.0336716
0.0376857
0.0468035
0.00545965
0.00547953
0.00559404
0.00566366
0.00571172
0.00576082
0.00578596
0.00586711
0.00597985
0.00623358
0.00688385
0.00760078
0.00840035
0.0107357
0.0177689
0.0271213
0.0296743
0.0301671
0.0289549
0.0289063
0.0296984
0.0324263
0.0409912
0.00549218
0.00550932
0.00561958
0.0056867
0.00572753
0.00577731
0.00579803
0.00587414
0.00598044
0.00623921
0.00688756
0.00759305
0.00833144
0.0104608
0.0168236
0.0250986
0.0271968
0.0275367
0.0262176
0.0258597
0.0264747
0.0284901
0.0349507
0.00551478
0.00553605
0.00563658
0.00570044
0.00574287
0.00578887
0.00581258
0.00588305
0.00598154
0.00624423
0.00688546
0.00757443
0.0082597
0.0101459
0.0157473
0.023024
0.0247545
0.0249103
0.0235936
0.0232859
0.0239188
0.0256481
0.0303159
0.00553738
0.00556
0.00565758
0.00571962
0.00576068
0.0058049
0.00582079
0.00588436
0.0059823
0.00624811
0.00687711
0.00754885
0.00816284
0.00983537
0.0146917
0.0209675
0.0224305
0.0223868
0.0212537
0.0212199
0.0222401
0.0237828
0.0271728
0.00556621
0.00558639
0.00567985
0.00573481
0.00576352
0.00580747
0.00583639
0.00588623
0.00598068
0.0062513
0.00686456
0.00751752
0.00808576
0.00951257
0.013666
0.0190491
0.0201306
0.0202139
0.0194794
0.0195425
0.0209344
0.022589
0.0253487
0.00557622
0.0056106
0.0056825
0.0057476
0.00576679
0.00581062
0.00583806
0.00588853
0.00598149
0.0062536
0.00684894
0.00748098
0.00798057
0.00922137
0.0127035
0.0173112
0.0181441
0.0183051
0.0179408
0.0181849
0.0201767
0.0218184
0.0245663
0.00558171
0.00562109
0.00568601
0.00574675
0.00577319
0.00581788
0.00584038
0.00588941
0.00598108
0.00625395
0.00683132
0.00744185
0.00789503
0.00894554
0.0118599
0.0158012
0.0164458
0.0166363
0.0166618
0.0171691
0.0194945
0.0216903
0.0244097
0.00558755
0.00562454
0.00569475
0.00574764
0.00578063
0.00582216
0.00584613
0.00589114
0.00598067
0.00625465
0.00681219
0.00739732
0.00781701
0.00871605
0.0111412
0.0145424
0.0150903
0.0153315
0.0156225
0.0164115
0.0191268
0.0216156
0.0252009
0.00558407
0.00562533
0.00570104
0.00574983
0.00578188
0.00582685
0.00584532
0.00589546
0.00598119
0.00625455
0.00679273
0.00735811
0.00771729
0.00852312
0.0105558
0.0135371
0.01404
0.0143833
0.0149048
0.0159231
0.0186943
0.021534
0.0254684
0.00558954
0.00562679
0.00570272
0.00575396
0.00578164
0.00582403
0.00584558
0.0058931
0.00598299
0.00625486
0.00677371
0.00730932
0.00767685
0.00834928
0.0100802
0.0127415
0.013309
0.0137308
0.0143797
0.0155409
0.0184177
0.0217621
0.0271627
0.00558285
0.00563429
0.00570955
0.00575714
0.00578087
0.00582265
0.00584673
0.00589389
0.00598119
0.00625457
0.00675411
0.00727725
0.00765625
0.00828306
0.00976271
0.0121534
0.0127742
0.013302
0.0140812
0.0154059
0.0183321
0.0230666
0.0286722
0.00558307
0.00563576
0.00570555
0.00575218
0.00578185
0.00582458
0.00584942
0.00589354
0.00598169
0.00625455
0.00673834
0.00722919
0.00763243
0.0082602
0.00954064
0.0117439
0.0124187
0.0130441
0.0139031
0.0154027
0.0182673
0.0235912
0.0295612
0.00559007
0.00563812
0.00570788
0.00575491
0.00578477
0.00582353
0.0058514
0.00589347
0.00597914
0.00625382
0.00671999
0.00720833
0.00761646
0.00822982
0.00940371
0.0114671
0.0121917
0.0130353
0.0139211
0.0153931
0.0182439
0.0238439
0.0309778
0.00558274
0.00563556
0.00570187
0.00575786
0.00578711
0.00582271
0.0058471
0.00589218
0.00597856
0.00625264
0.00670685
0.00719948
0.007617
0.00820767
0.00931144
0.0112897
0.012087
0.0130181
0.0139252
0.0155104
0.01857
0.0243317
0.0306354
0.0055816
0.00563873
0.00570144
0.00575224
0.0057818
0.00582246
0.00584706
0.00589191
0.00597931
0.00624963
0.00669494
0.00718182
0.00761556
0.008219
0.0092862
0.0111847
0.0120004
0.0129896
0.0139197
0.0159887
0.0198856
0.0245912
0.030565
0.00557971
0.00563129
0.00569901
0.00575058
0.00578559
0.00582054
0.00584822
0.00589328
0.00597885
0.00624634
0.00668046
0.00716988
0.00759988
0.00820796
0.00928102
0.0111159
0.0119483
0.0129723
0.0138906
0.0163851
0.0205927
0.0253013
0.0307379
0.00557824
0.00563079
0.00569904
0.00574936
0.00578053
0.00582013
0.00584972
0.00588922
0.0059787
0.00624185
0.00667538
0.00715397
0.00758982
0.00820175
0.00927839
0.0110824
0.0119181
0.0129491
0.0139076
0.017066
0.0209643
0.025337
0.0317323
0.00558451
0.0056335
0.00569705
0.00575204
0.00578047
0.00581816
0.00584447
0.00588814
0.00597495
0.00623675
0.00667276
0.00715525
0.00758872
0.00822024
0.0092765
0.0110693
0.0119205
0.0129324
0.0139501
0.0180707
0.0214965
0.0253419
0.0309501
0.00557451
0.00562451
0.00569675
0.00575501
0.00578086
0.0058167
0.00584368
0.00588738
0.00597389
0.00623127
0.00666921
0.00715375
0.00757747
0.00822147
0.00927723
0.011068
0.0119143
0.0129143
0.014187
0.0186153
0.0219154
0.0258483
0.0309423
0.00558373
0.00562329
0.00570028
0.00574751
0.00577351
0.00581889
0.00584466
0.00588747
0.0059736
0.00622464
0.00666911
0.00715004
0.00758225
0.0082245
0.00927991
0.0111349
0.011927
0.0129294
0.0142917
0.0185364
0.0224741
0.0257141
0.0307995
0.00557401
0.00562526
0.00569516
0.00574706
0.00577206
0.00581987
0.00583829
0.0058866
0.00596965
0.0062187
0.00666815
0.00714929
0.00757975
0.00822008
0.00937072
0.0112015
0.0119496
0.0129245
0.0146437
0.0189863
0.0227037
0.0263729
0.0310002
0.00557498
0.00561499
0.00569334
0.00574654
0.00577056
0.00581384
0.00583741
0.00588481
0.00596917
0.00621138
0.00666448
0.0071484
0.00756545
0.00820228
0.00945749
0.0114527
0.0120947
0.0130609
0.0147411
0.0194923
0.0230351
0.0260923
0.0313061
0.00557509
0.00562501
0.00568879
0.00575034
0.00577205
0.0058121
0.00583915
0.00588322
0.00597107
0.00620376
0.00666512
0.00714808
0.00757583
0.00821401
0.00967432
0.0115233
0.0123042
0.0131189
0.0148247
0.0196952
0.022952
0.0260924
0.0310915
0.00556877
0.00561581
0.0056873
0.00574936
0.005771
0.00581071
0.00583972
0.00588194
0.00597153
0.00620459
0.00666795
0.00714529
0.00757206
0.00820872
0.00989091
0.0118854
0.0126214
0.013411
0.0147893
0.0197613
0.0229851
0.026392
0.0322949
0.00556272
0.00562075
0.00568285
0.00574383
0.00577068
0.00580303
0.00583736
0.00587811
0.00596763
0.00619023
0.00664804
0.00711868
0.00753052
0.00814296
0.0100022
0.0120232
0.0129185
0.01366
0.0148896
0.0193177
0.022871
0.0259596
0.0313488
0.00556237
0.00561952
0.0056802
0.00573903
0.00577336
0.00580027
0.0058328
0.00587323
0.00596072
0.00617493
0.00662774
0.00708949
0.00748759
0.00807943
0.00983787
0.0120046
0.0132749
0.0140196
0.0149066
0.0183595
0.0230454
0.0257155
0.0308758
0.00554465
0.00561133
0.00568396
0.00572679
0.00577526
0.00578669
0.00582562
0.00586801
0.00595211
0.00615831
0.00660783
0.00706028
0.0074405
0.00801069
0.00986754
0.0119224
0.0135704
0.0144283
0.0149724
0.0180856
0.0228809
0.0255479
0.0307772
0.0055401
0.0056046
0.00567935
0.00571971
0.0057731
0.00578268
0.00581001
0.00585616
0.00594344
0.00614121
0.00658497
0.00703029
0.00739513
0.00794795
0.00978541
0.0118744
0.0136265
0.0149405
0.0153086
0.0176555
0.0223816
0.0256946
0.0304376
0.00554436
0.00558786
0.00567166
0.00570291
0.00576503
0.00578549
0.00580485
0.00583838
0.00593115
0.00612174
0.00656183
0.00700077
0.00734809
0.00788353
0.00963155
0.0117503
0.0138608
0.0150371
0.0160302
0.0176945
0.0219929
0.0252413
0.0299504
0.00554067
0.00556033
0.00565775
0.0056954
0.00575552
0.00578115
0.00580587
0.00583162
0.00592067
0.00610192
0.006536
0.00697102
0.00730497
0.00782359
0.00949106
0.0116547
0.0139152
0.0149979
0.0165326
0.0182379
0.0208863
0.0238929
0.0291156
0.00552688
0.00556392
0.00563259
0.00568741
0.00574395
0.00576724
0.00580167
0.00583131
0.00590855
0.00607924
0.00650258
0.00693956
0.00725979
0.00776384
0.00921369
0.0111869
0.0139056
0.0154233
0.0172878
0.0190688
0.0210144
0.0243471
0.027067
0.00550527
0.00554189
0.00559759
0.00565375
0.00572565
0.00575241
0.00578874
0.00581932
0.00589381
0.00605565
0.00646665
0.00690535
0.00721608
0.00771073
0.0088778
0.0110532
0.01354
0.0160211
0.0173569
0.0186769
0.0220602
0.0247505
0.0285474
0.00548441
0.00554683
0.00558591
0.00563836
0.00570592
0.00572842
0.00577088
0.00580222
0.00587437
0.00602755
0.00642386
0.00686621
0.00716777
0.00764532
0.00879017
0.0111574
0.0134991
0.0172345
0.0179779
0.0201584
0.0221296
0.02492
0.0281345
0.00545668
0.00553134
0.00559179
0.00563617
0.00568463
0.00571193
0.00575281
0.00578524
0.00585359
0.00599723
0.00637717
0.00682319
0.00711737
0.00757144
0.00882158
0.0110135
0.0131997
0.0170672
0.0195078
0.0206814
0.0239867
0.0266972
0.0319949
0.005425
0.00551076
0.00557638
0.00561534
0.0056533
0.00567565
0.00572627
0.00576134
0.00582632
0.00596035
0.00631957
0.00676947
0.00705936
0.00748441
0.00870972
0.0108068
0.0126189
0.0166046
0.0214018
0.023696
0.0255772
0.0270897
0.0360175
0.00539529
0.00548151
0.00555132
0.00558286
0.00562332
0.0056396
0.00569748
0.00573452
0.00579688
0.00592198
0.00625658
0.0067108
0.00699794
0.00739742
0.00845889
0.0105747
0.0118593
0.0164201
0.0223067
0.0258151
0.0299593
0.0306252
0.0391365
0.00535911
0.00543998
0.00551483
0.00554433
0.00558866
0.00560708
0.00566093
0.0056986
0.00575845
0.0058744
0.0061788
0.00663808
0.00692423
0.00730068
0.0082158
0.0102102
0.0115783
0.0164961
0.023359
0.0302116
0.0358608
0.0381621
0.045677
0.00531702
0.00539577
0.00547442
0.00550693
0.00555277
0.0055575
0.00562072
0.00566102
0.00571801
0.00582484
0.00609645
0.00655465
0.00684631
0.00720664
0.00796463
0.00972359
0.0116479
0.0163142
0.0211801
0.0332314
0.040276
0.04354
0.0506998
0.00526346
0.00534229
0.00542318
0.00546018
0.00550529
0.00550985
0.00557065
0.00561239
0.00566607
0.00576346
0.00600174
0.00645234
0.00674342
0.00709344
0.00776438
0.00913681
0.0111325
0.0159114
0.0207642
0.0356448
0.0445419
0.0508364
0.0585405
0.00520454
0.00528092
0.00536926
0.00541029
0.00545367
0.00547621
0.00552047
0.00556174
0.00561287
0.00570176
0.0059082
0.00633324
0.00664361
0.00697744
0.00758501
0.00876471
0.0106883
0.0153045
0.0199588
0.0408247
0.0530985
0.0595926
0.0646892
0.00513119
0.00520909
0.0053015
0.0053446
0.00538665
0.00542162
0.00545514
0.00549557
0.00554391
0.00562441
0.00580091
0.00619231
0.00651339
0.00682975
0.00738718
0.00840791
0.0101705
0.0143601
0.0196539
0.0389173
0.0520989
0.0628103
0.0721779
0.00505667
0.00514087
0.00523111
0.0052754
0.00531741
0.00535944
0.00538832
0.00542768
0.00547371
0.00554724
0.00569721
0.00604335
0.00638224
0.00667901
0.00719965
0.00799695
0.00958726
0.0137164
0.0189751
0.0413729
0.0520163
0.0581926
0.0683824
0.00496825
0.00505839
0.0051423
0.00518621
0.00522871
0.00527301
0.00530084
0.00533795
0.00538087
0.00544718
0.0055736
0.00586757
0.00621652
0.00650074
0.00696522
0.00772238
0.00890853
0.0121886
0.0186824
0.0399926
0.0519914
0.0578203
0.0734686
0.00488102
0.00497536
0.00505216
0.00509547
0.00513936
0.00518328
0.00521281
0.00524777
0.00528842
0.00534834
0.00545563
0.00569231
0.00605324
0.00632241
0.00673194
0.00754759
0.00867361
0.0106185
0.0185034
0.0387302
0.0547616
0.0572537
0.0671496
0.00477304
0.00486705
0.00493785
0.00497911
0.00502355
0.00506482
0.00509599
0.00512801
0.00516516
0.00521806
0.00530825
0.00549344
0.00583162
0.0061207
0.0064713
0.00715195
0.0085011
0.0103907
0.0195074
0.0388301
0.0542173
0.0583439
0.0704853
0.00466616
0.0047591
0.00482567
0.00486546
0.00491052
0.00494864
0.00498217
0.00501249
0.00504737
0.00509448
0.00517141
0.00531772
0.00561395
0.00591023
0.00624669
0.00682741
0.00801724
0.0107176
0.0169791
0.0337281
0.0507352
0.0587344
0.0785177
0.0045298
0.00461798
0.00468134
0.00471826
0.00476173
0.00479553
0.00482923
0.00485694
0.0048881
0.0049283
0.00499233
0.0051071
0.00535589
0.00563611
0.00597378
0.00646145
0.00754834
0.00968365
0.0187765
0.0333094
0.0431507
0.0565109
0.0786325
0.00439978
0.00448595
0.0045465
0.00458203
0.00462414
0.00465393
0.00468846
0.00471538
0.00474468
0.00478072
0.00483468
0.00492655
0.00512017
0.00539892
0.00574209
0.00616113
0.00715017
0.00836739
0.0156082