/*--------------------------------*- C++ -*----------------------------------*\
  =========                 |
  \\      /  F ield         | OpenFOAM: The Open Source CFD Toolbox
   \\    /   O peration     | Website:  https://openfoam.org
    \\  /    A nd           | Version:  7
     \\/     M anipulation  |
\*---------------------------------------------------------------------------*/
FoamFile
{
    version     2.0;
    format      ascii;
    class       volScalarField;
    location    "80";
    object      nut;
}
// * * * * * * * * * * * * * * * * * * * * * * * * * * * * * * * * * * * * * //

dimensions      [0 2 -1 0 0 0 0];

internalField   nonuniform List<scalar> 
12842
(
0.00180931
0.00179634
0.00178641
0.00177357
0.00176684
0.00176041
0.00176353
0.00175758
0.00176604
0.00176062
0.00177084
0.00177682
0.00179
0.00104857
0.000530846
0.000305936
0.000201852
0.000145162
0.00011133
8.88957e-05
7.39724e-05
6.30518e-05
5.5679e-05
0.00180653
0.00179472
0.00178479
0.00178832
0.00177429
0.00176272
0.00176316
0.00175656
0.00176469
0.00175974
0.00177049
0.00177738
0.00179099
0.00101823
0.000514436
0.0002985
0.000197671
0.000142314
0.000109699
8.80506e-05
7.31899e-05
6.28048e-05
5.54552e-05
0.00180885
0.00178976
0.00177517
0.00177388
0.00176983
0.00176355
0.00176154
0.00175522
0.00176219
0.00175859
0.00176957
0.00177838
0.00179334
0.000976725
0.000495485
0.000289286
0.000192704
0.000139576
0.000107612
8.69099e-05
7.22586e-05
6.2412e-05
5.50037e-05
0.00180585
0.00179386
0.00177519
0.00178276
0.00177453
0.00176586
0.00176131
0.00175508
0.00176116
0.00175816
0.0017689
0.0017779
0.00179436
0.000931454
0.000474911
0.000279944
0.000187068
0.000135984
0.000105282
8.54891e-05
7.12863e-05
6.19322e-05
5.4518e-05
0.00180428
0.00179224
0.00176908
0.00176934
0.00176928
0.00176466
0.00175957
0.00175485
0.00175917
0.00175772
0.0017679
0.00178041
0.00179985
0.00089189
0.000457533
0.000270715
0.000182102
0.000132859
0.000103394
8.4128e-05
7.04739e-05
6.1476e-05
5.39887e-05
0.00180162
0.00179207
0.00177351
0.00177635
0.00176612
0.00176731
0.00176004
0.00175503
0.0017583
0.00175755
0.00176738
0.0017802
0.00180154
0.000860163
0.000443251
0.000263231
0.000177287
0.000129889
0.000101333
8.27971e-05
6.94835e-05
6.10696e-05
5.3471e-05
0.00180069
0.00178835
0.0017681
0.00176996
0.00176708
0.00176453
0.00175722
0.00175496
0.00175657
0.00175752
0.00176688
0.00178089
0.00180547
0.000847494
0.000436464
0.000259476
0.000175303
0.000128426
0.000100429
8.21395e-05
6.8978e-05
6.09148e-05
5.33497e-05
0.00179843
0.00178799
0.00177013
0.00177216
0.00176281
0.0017681
0.00175889
0.00175589
0.00175598
0.00175748
0.00176581
0.00178322
0.00180227
0.000823916
0.000425622
0.000252828
0.000170531
0.00012509
9.7965e-05
8.06399e-05
6.74898e-05
6.00026e-05
5.26199e-05
0.00179783
0.0017843
0.00176684
0.00176933
0.00176277
0.0017654
0.00175639
0.00175561
0.00175444
0.0017574
0.00176555
0.00178428
0.00176957
0.000808549
0.000416955
0.000247515
0.000166902
0.000122758
9.62452e-05
7.91372e-05
6.67152e-05
5.94013e-05
5.205e-05
0.00179557
0.00178432
0.0017664
0.00176981
0.00176114
0.00176697
0.00175769
0.00175712
0.00175456
0.00175752
0.00176667
0.00178311
0.00176664
0.000812057
0.000417484
0.000248958
0.00016722
0.00012297
9.63064e-05
7.94577e-05
6.68459e-05
5.96754e-05
5.24111e-05
0.00179456
0.00178057
0.00176479
0.0017672
0.00175989
0.0017655
0.00175591
0.00175641
0.00175346
0.00175743
0.00176829
0.00178241
0.00174236
0.000798533
0.000411599
0.000245465
0.000164803
0.000121845
9.54108e-05
7.86522e-05
6.62407e-05
5.96029e-05
5.24824e-05
0.00179276
0.00178162
0.00176334
0.00176738
0.00175936
0.00176528
0.0017565
0.00175802
0.00175401
0.00175776
0.00176876
0.00178387
0.00171406
0.000784567
0.000405827
0.000241698
0.000162701
0.000120245
9.42785e-05
7.79729e-05
6.61479e-05
5.98192e-05
5.27578e-05
0.00179087
0.00177746
0.00176263
0.0017647
0.00175813
0.00176456
0.00175554
0.00175684
0.00175309
0.00175782
0.00177117
0.0017851
0.00168423
0.000770839
0.000398951
0.000237332
0.000159682
0.000118522
9.31792e-05
7.7623e-05
6.61604e-05
6.03763e-05
5.33354e-05
0.00179007
0.00177923
0.00176133
0.00176462
0.00175754
0.00176371
0.00175501
0.00175813
0.00175381
0.00175818
0.00177175
0.00178777
0.00165244
0.000756098
0.000392287
0.000233722
0.000157376
0.000116914
9.23017e-05
7.77248e-05
6.67452e-05
6.14037e-05
5.44249e-05
0.00178721
0.00177483
0.00176105
0.00176209
0.0017573
0.00176322
0.00175505
0.00175674
0.00175293
0.00175836
0.00177286
0.00179061
0.00162025
0.000742489
0.000385304
0.000229645
0.000154639
0.000115391
9.18908e-05
7.80059e-05
6.7165e-05
6.25387e-05
5.55388e-05
0.0017875
0.00177656
0.00176009
0.00176206
0.00175616
0.0017625
0.00175394
0.00175747
0.00175366
0.00175849
0.00177544
0.00179293
0.00159315
0.00072843
0.000378925
0.000226211
0.000152798
0.000114374
9.15344e-05
7.86e-05
6.83383e-05
6.38991e-05
5.71623e-05
0.0017839
0.00177206
0.00176034
0.00175988
0.00175661
0.00176246
0.00175424
0.00175642
0.00175283
0.0017589
0.00177705
0.00179525
0.00156718
0.000716311
0.000373131
0.000222836
0.00015058
0.000112844
9.12499e-05
7.89676e-05
6.95169e-05
6.53429e-05
5.96427e-05
0.00178536
0.00177365
0.00175955
0.00175988
0.00175547
0.00176148
0.00175356
0.00175641
0.00175345
0.00175881
0.00177747
0.00179536
0.00154447
0.000704272
0.000367202
0.000219473
0.00014917
0.000112472
9.13307e-05
7.98143e-05
7.16358e-05
6.75416e-05
6.33493e-05
0.00178125
0.00176895
0.00176015
0.00175831
0.00175603
0.00176174
0.00175365
0.00175612
0.00175277
0.0017595
0.00177904
0.00179711
0.00152357
0.000693782
0.000362668
0.000217256
0.000147544
0.000110881
9.09364e-05
8.00508e-05
7.29823e-05
6.96899e-05
6.78808e-05
0.00178377
0.00177029
0.00175954
0.00175835
0.00175511
0.0017606
0.00175322
0.00175564
0.00175334
0.0017595
0.00178035
0.00180156
0.00150638
0.000685444
0.000358512
0.000214921
0.000146397
0.000110589
9.0771e-05
8.02408e-05
7.46535e-05
7.24229e-05
7.3299e-05
0.00177942
0.00176596
0.00176005
0.00175734
0.00175588
0.00176043
0.00175359
0.00175539
0.00175297
0.00176075
0.00178192
0.00180482
0.0014938
0.00067806
0.000355181
0.000213845
0.0001452
0.000108679
8.95013e-05
7.92395e-05
7.38701e-05
7.35038e-05
7.67152e-05
0.00178222
0.00176664
0.00175954
0.00175718
0.00175507
0.00175904
0.00175324
0.00175544
0.00175326
0.00176197
0.0017834
0.00181189
0.00147266
0.000673558
0.000353954
0.000212769
0.000144488
0.00010832
8.82251e-05
7.70652e-05
7.22851e-05
7.23783e-05
7.48897e-05
0.00177844
0.00176308
0.00175976
0.00175721
0.00175567
0.00175884
0.0017534
0.00175453
0.00175357
0.00176321
0.00178569
0.00181817
0.00145086
0.000666195
0.000350057
0.000211787
0.000142961
0.00010561
8.56211e-05
7.39727e-05
6.76637e-05
6.76534e-05
6.74942e-05
0.00178073
0.00176284
0.00175917
0.00175659
0.00175525
0.00175699
0.00175363
0.0017543
0.00175365
0.00176568
0.00179209
0.00183275
0.00141123
0.000658574
0.00034867
0.00021095
0.000141979
0.000104476
8.24872e-05
6.91261e-05
6.32593e-05
6.28076e-05
6.10494e-05
0.0017784
0.00176073
0.00175939
0.00175715
0.00175565
0.00175611
0.00175396
0.00175422
0.00175381
0.00176979
0.00180451
0.00185387
0.00139162
0.000657079
0.000347948
0.000211574
0.000141854
0.000102405
8.00843e-05
6.67649e-05
6.0178e-05
5.95826e-05
5.72097e-05
0.00178004
0.00176014
0.00175843
0.00175692
0.00175484
0.00175506
0.00175353
0.00175362
0.00175503
0.00177847
0.00182124
0.00187836
0.0013762
0.000658091
0.000351613
0.000215365
0.000143713
0.000103591
7.94901e-05
6.54459e-05
5.95895e-05
5.86371e-05
5.63659e-05
0.00177836
0.00175885
0.00175851
0.00175769
0.00175468
0.00175429
0.00175371
0.00175259
0.00175921
0.00179071
0.00184363
0.0019121
0.00137195
0.000663794
0.00035469
0.000218477
0.000146933
0.000104874
8.0411e-05
6.68821e-05
6.12673e-05
5.95341e-05
5.69508e-05
0.00177924
0.00175732
0.00175741
0.00175696
0.00175413
0.00175262
0.00175374
0.00175371
0.00177012
0.00180872
0.00187073
0.00194602
0.00137166
0.000673014
0.000363284
0.000226863
0.00015185
0.000108869
8.34862e-05
7.02742e-05
6.48742e-05
6.20194e-05
5.92203e-05
0.00177864
0.00175706
0.00175764
0.00175776
0.00175302
0.00175214
0.00175252
0.00175966
0.00178631
0.00183147
0.00190206
0.00199014
0.00137491
0.000686728
0.000371922
0.000235084
0.000161162
0.000115862
8.93803e-05
7.5768e-05
6.96916e-05
6.62583e-05
6.32729e-05
0.00177838
0.00175463
0.00175597
0.00175723
0.00175201
0.00175127
0.00175238
0.00177384
0.00180753
0.00186019
0.00193687
0.00203293
0.00137711
0.00070392
0.000386497
0.000249415
0.000171232
0.000124492
9.70708e-05
8.29226e-05
7.63497e-05
7.23207e-05
6.84403e-05
0.00177885
0.00175451
0.00175666
0.00175728
0.00175143
0.00174951
0.00175645
0.00179204
0.00183322
0.00189309
0.00197796
0.00208525
0.00137934
0.000712562
0.000403137
0.00026625
0.000188827
0.00013857
0.000108289
9.24888e-05
8.42089e-05
7.94238e-05
7.52364e-05
0.00177782
0.00175238
0.0017556
0.00175635
0.00175043
0.00174925
0.00176812
0.00181606
0.00186402
0.00193108
0.00202088
0.002136
0.00138784
0.000719056
0.000425409
0.000290135
0.000209419
0.000155331
0.000121516
0.000103183
9.30005e-05
8.74521e-05
8.28236e-05
0.00177841
0.00175161
0.00175535
0.00175741
0.00174826
0.00175311
0.00178662
0.00184403
0.00189827
0.00197111
0.00206759
0.00219148
0.00139753
0.000733012
0.000453685
0.00031822
0.000237297
0.000177255
0.000137774
0.000114932
0.000102086
9.56565e-05
9.11428e-05
0.00177728
0.00174942
0.00175465
0.00175569
0.00174992
0.00176502
0.00181012
0.00187707
0.00193706
0.00201582
0.0021157
0.00224174
0.00143161
0.000765995
0.000487444
0.000357936
0.000276986
0.000207458
0.000156793
0.000127288
0.000111412
0.000104633
9.99865e-05
0.00177753
0.00174901
0.00175567
0.00175509
0.00175659
0.00178209
0.00183815
0.00191308
0.00197746
0.00206079
0.0021653
0.00228952
0.00146546
0.00079777
0.000524165
0.000398523
0.000324116
0.000246083
0.000178916
0.000140097
0.000122081
0.000114711
0.000109047
0.00177607
0.00174708
0.00175433
0.00175909
0.00177159
0.00180505
0.00187101
0.0019531
0.00202102
0.00210709
0.00220225
0.00231768
0.00153767
0.000849978
0.00057301
0.000459573
0.000402562
0.000308116
0.000207977
0.000155077
0.000134
0.000126569
0.000119821
0.00177584
0.00174549
0.00175367
0.00177065
0.00179056
0.00183116
0.00190734
0.00199448
0.00206364
0.00214731
0.00223445
0.00234431
0.00159143
0.000890259
0.000612332
0.000516739
0.000511928
0.000408216
0.000244471
0.000173169
0.000150005
0.000145261
0.000135269
0.00177488
0.00174471
0.00175746
0.00178928
0.0018142
0.00186248
0.00194807
0.00203658
0.00210436
0.00218134
0.00225286
0.00235019
0.00169265
0.00095786
0.000673413
0.000593489
0.000688296
0.000611556
0.000297999
0.00020118
0.000178749
0.000167464
0.000154671
0.00177303
0.00174493
0.00176781
0.00181121
0.00184261
0.00189751
0.00198807
0.00207599
0.00213703
0.00220547
0.00226677
0.0023576
0.00175914
0.000999086
0.000708569
0.000652927
0.000960018
0.00112116
0.000358311
0.000240038
0.00020294
0.000204604
0.000283797
0.00177252
0.0017423
0.00178295
0.00183899
0.00187413
0.00193618
0.00202809
0.00210937
0.00216255
0.00222239
0.00226874
0.00234657
0.001883
0.00107639
0.000769048
0.000716031
0.00112196
0.00130339
0.000430899
0.000283903
0.000301134
0.000465645
0.00123905
0.00177094
0.00174532
0.0018022
0.00186908
0.00191012
0.00197522
0.00206091
0.00213446
0.00217938
0.00222834
0.00226579
0.00233958
0.00195836
0.00111438
0.000792909
0.000729779
0.00104082
0.00117956
0.000460261
0.000351773
0.000444012
0.00118928
0.00435924
0.00176944
0.00175301
0.00182402
0.00190305
0.0019473
0.00201302
0.00208929
0.00215146
0.00218729
0.00222826
0.00225439
0.0023174
0.00209427
0.00119283
0.000841977
0.000748939
0.000845864
0.000773393
0.000483873
0.000468366
0.000867452
0.0030637
0.0034841
0.00176774
0.00176979
0.00185025
0.00193987
0.00198706
0.0020455
0.00210849
0.00215968
0.00218712
0.00221826
0.00223923
0.00230233
0.0021754
0.0012274
0.000851296
0.000720168
0.000711711
0.000615739
0.000470338
0.000582607
0.00154855
0.00242123
0.00273528
0.00176909
0.00179024
0.00187821
0.00197871
0.00202423
0.00207312
0.00212163
0.00215984
0.00217931
0.00220471
0.00221986
0.00227493
0.00230641
0.0013029
0.000889602
0.000719206
0.000634043
0.000539069
0.000474133
0.000632397
0.00182833
0.00199503
0.00292504
0.00176758
0.00181438
0.00190816
0.00201724
0.0020559
0.00209243
0.00212585
0.0021528
0.0021659
0.00218417
0.00219815
0.00225757
0.00228766
0.00133284
0.000891663
0.000688825
0.000585755
0.00049569
0.000454728
0.000646895
0.00139092
0.00174822
0.00337306
0.00176661
0.00184358
0.00194107
0.00205179
0.00208247
0.00210608
0.00212443
0.00213991
0.00214753
0.00216253
0.00217559
0.00222896
0.00225342
0.00140846
0.000929296
0.00069864
0.000555906
0.000480065
0.000442423
0.000650564
0.00149643
0.00177623
0.00296523
0.00177051
0.00187365
0.00197427
0.00208291
0.00210041
0.0021106
0.00211635
0.00212291
0.00212647
0.0021371
0.00215244
0.00221351
0.00223582
0.00144049
0.000936262
0.000686991
0.000565577
0.000459724
0.000444589
0.000690137
0.00125174
0.00184911
0.00252408
0.00178382
0.00190869
0.00200681
0.00210486
0.00211252
0.00211035
0.00210478
0.0021028
0.0021032
0.00211275
0.00213075
0.00218689
0.00220526
0.0015244
0.000989364
0.000721232
0.00055595
0.0004637
0.000449712
0.000714741
0.00110489
0.00158905
0.00248425
0.00179853
0.00194213
0.00203664
0.00212477
0.00211615
0.00210343
0.00208899
0.00208124
0.00207919
0.00208628
0.00210825
0.00217301
0.00218912
0.00156125
0.00100851
0.00072872
0.000580351
0.000471405
0.000482503
0.000792859
0.0010577
0.00155675
0.00215133
0.00182119
0.00198206
0.00206558
0.00213447
0.0021144
0.0020925
0.00207145
0.002058
0.00205434
0.00206156
0.00208896
0.00215114
0.0021606
0.0016457
0.0010808
0.000793838
0.000611204
0.000510667
0.000572089
0.000975354
0.00106661
0.00144107
0.00214259
0.00184452
0.00201982
0.00208658
0.00213985
0.00210523
0.00207721
0.00205173
0.00203563
0.0020306
0.00203699
0.0020689
0.00213633
0.00214506
0.00168507
0.00111721
0.000827142
0.000654828
0.00064333
0.000851888
0.0010327
0.00110578
0.00156413
0.00196427
0.00187036
0.002055
0.0021025
0.00213666
0.00209136
0.00205969
0.00203242
0.00201395
0.0020085
0.00201557
0.00205343
0.00212055
0.00212015
0.00176554
0.0012063
0.000926917
0.000774644
0.000826306
0.00113927
0.00092294
0.00109098
0.00152992
0.00197225
0.00189594
0.00208681
0.00211207
0.00212983
0.00207388
0.00204065
0.00201289
0.00199407
0.0019881
0.00199534
0.00203815
0.00210811
0.00210557
0.00180066
0.00124901
0.000978416
0.00088316
0.00137334
0.000930023
0.000867816
0.00123178
0.00177456
0.00194619
0.00192275
0.0021093
0.00211619
0.00211822
0.0020539
0.00202122
0.00199442
0.00197557
0.00196994
0.00197803
0.00202644
0.00209622
0.00208473
0.00186981
0.00134634
0.00114459
0.00135347
0.00116713
0.000839741
0.000875712
0.00120785
0.00167772
0.00207257
0.00194819
0.00212289
0.00211564
0.00210439
0.00203317
0.00200205
0.00197694
0.00195903
0.00195379
0.00196247
0.0020158
0.00208665
0.00207001
0.00188556
0.00140165
0.00130469
0.0016025
0.00097189
0.000728632
0.000826422
0.00129799
0.00188504
0.00219111
0.0019729
0.00212699
0.00211039
0.00208801
0.00201157
0.00198323
0.00196031
0.00194392
0.00193962
0.00194928
0.00200777
0.00207827
0.00205288
0.00194638
0.00158886
0.00183054
0.00135321
0.000797346
0.000670159
0.000911581
0.00132675
0.00177343
0.00247287
0.00199162
0.0021227
0.00210127
0.00207083
0.00199186
0.0019665
0.00194591
0.00193125
0.00192831
0.00193878
0.00200157
0.00207185
0.00203909
0.00192507
0.0017964
0.0017916
0.00114804
0.000721438
0.000668564
0.000901737
0.00131821
0.00178952
0.0025037
0.00200272
0.00211187
0.00208937
0.0020532
0.00197303
0.00195083
0.0019323
0.00191993
0.00191823
0.00192972
0.00199669
0.00206621
0.00202415
0.00189712
0.00185591
0.00162155
0.00101025
0.000658233
0.000668496
0.000926323
0.00128656
0.00168473
0.00243845
0.00200958
0.00209617
0.00207496
0.0020347
0.00195555
0.00193612
0.00191965
0.00190917
0.0019094
0.00192184
0.00199299
0.00206117
0.00200776
0.00185741
0.00177581
0.00146592
0.000913098
0.000636198
0.000666985
0.000909514
0.00128787
0.00169292
0.00229063
0.00201169
0.00207664
0.00205878
0.00201611
0.00193886
0.0019226
0.00190767
0.00189984
0.00190143
0.00191517
0.00199043
0.00205645
0.00198905
0.00180976
0.00167426
0.00134576
0.000836368
0.000638269
0.000675036
0.000918409
0.00128873
0.00171264
0.00225053
0.0020106
0.00205538
0.00204124
0.00199777
0.0019246
0.0019103
0.00189708
0.00189095
0.00189457
0.00190948
0.00198878
0.00205201
0.00196887
0.00175641
0.00158302
0.00125309
0.000805494
0.000633498
0.000671159
0.000917105
0.0012976
0.00173806
0.00222646
0.00200632
0.00203242
0.00202307
0.00197982
0.00191102
0.00189961
0.00188726
0.00188337
0.00188826
0.0019046
0.001988
0.00204757
0.00194623
0.00169777
0.00150469
0.00117524
0.000780061
0.000638681
0.000664662
0.000905421
0.00125174
0.00170039
0.00220039
0.00200053
0.00201073
0.00200491
0.00196317
0.0019003
0.00189003
0.00187903
0.00187641
0.00188293
0.0019006
0.0019879
0.00204322
0.001923
0.00164534
0.00141952
0.00111584
0.000774959
0.000639097
0.000667647
0.000880937
0.00115856
0.00157643
0.00211245
0.00199293
0.00198901
0.00198734
0.00194759
0.00189043
0.0018824
0.00187183
0.00187048
0.00187794
0.00189705
0.00198841
0.00203883
0.00189864
0.00158638
0.0013578
0.00106424
0.000781756
0.000637143
0.000670037
0.000828744
0.00104012
0.00136635
0.00187657
0.00198549
0.00196996
0.00197052
0.00193353
0.00188277
0.0018755
0.0018659
0.00186531
0.00187374
0.00189427
0.00198932
0.00203449
0.00187421
0.00153566
0.00129811
0.00103015
0.000782198
0.000641907
0.000668233
0.000784043
0.000942225
0.00119613
0.00155748
0.00197756
0.00195252
0.00195616
0.00192163
0.00187667
0.00187081
0.00186139
0.00186114
0.00187007
0.00189175
0.00199057
0.00203018
0.00184941
0.00147936
0.00123093
0.000975745
0.000776944
0.000641021
0.000663064
0.000741332
0.000855792
0.00104831
0.00126051
0.00196982
0.00193783
0.001942
0.00191095
0.00187158
0.00186627
0.00185756
0.00185741
0.00186636
0.00188987
0.00199197
0.00202595
0.00182439
0.00142923
0.00115269
0.000929136
0.000776064
0.000649804
0.000656632
0.000701229
0.00077914
0.000919245
0.00105102
0.00196379
0.00192539
0.00193201
0.00190259
0.00186843
0.00186386
0.00185518
0.00185495
0.00186386
0.00188809
0.00199338
0.0020216
0.00179831
0.00136866
0.00108795
0.000913424
0.000774643
0.000655962
0.00064698
0.000665305
0.000713266
0.000808593
0.000886788
0.00195667
0.00191572
0.0019216
0.00189605
0.00186574
0.00186155
0.00185306
0.00185239
0.00186103
0.00188693
0.00199461
0.00201697
0.00177216
0.00131046
0.00102898
0.000888837
0.000762487
0.00065235
0.000633408
0.000631383
0.00065407
0.000714929
0.000752882
0.00195246
0.0019081
0.00191561
0.00189067
0.00186435
0.00186029
0.00185231
0.00185115
0.00185808
0.00188574
0.00199524
0.00201191
0.0017439
0.00125503
0.000993857
0.000869884
0.000736657
0.000643434
0.000617154
0.000599425
0.000602742
0.000638417
0.000656047
0.00194686
0.0019025
0.00190888
0.00188719
0.00186358
0.00185996
0.00185119
0.00184978
0.00185539
0.00188485
0.00199545
0.0020065
0.00171216
0.00120143
0.000959786
0.000833152
0.000700282
0.000628238
0.000593802
0.000568514
0.00055919
0.00057442
0.000580739
0.00194422
0.00189914
0.00190645
0.00188534
0.00186328
0.00185945
0.00185156
0.00184901
0.00185284
0.00188406
0.00199493
0.00200068
0.00167914
0.00115089
0.000922562
0.000788476
0.000658234
0.000604859
0.000562915
0.000539039
0.000521904
0.000524185
0.000527344
0.00193883
0.00189625
0.00190202
0.00188279
0.00186357
0.00185993
0.00185141
0.00184869
0.00185019
0.00188316
0.00199292
0.00199318
0.00164663
0.00110798
0.000875305
0.000740763
0.000617411
0.000577962
0.000534199
0.000509802
0.000492555
0.000487915
0.000503648
0.00193791
0.00189562
0.00190207
0.00188381
0.00186399
0.00186048
0.00185144
0.00184839
0.00184819
0.00188207
0.00198972
0.00198407
0.00161702
0.00107088
0.000824416
0.000686316
0.000580163
0.000548518
0.000507454
0.00048347
0.000470702
0.000464765
0.000470891
0.00193312
0.00189482
0.00189937
0.00188204
0.00186451
0.00186113
0.00185303
0.00184851
0.0018472
0.00188228
0.00198495
0.00197326
0.0015926
0.00103921
0.000774729
0.000629785
0.000547997
0.000519439
0.000481791
0.000463356
0.000457009
0.000453648
0.000448022
0.00192971
0.00189382
0.00189899
0.00188259
0.00186569
0.00186219
0.00185211
0.00184669
0.00184633
0.00188269
0.00197872
0.0019621
0.00156801
0.00100721
0.000719671
0.000575465
0.000520713
0.000492305
0.000460466
0.000450833
0.000456729
0.000454774
0.000435438
0.00192775
0.00189406
0.00189869
0.00188272
0.00186303
0.00186005
0.00185424
0.0018453
0.00184516
0.00188289
0.0019718
0.00195103
0.00155068
0.000974043
0.000671242
0.00053709
0.000495984
0.000473061
0.000451047
0.000445476
0.000462587
0.000464332
0.00044161
0.00192121
0.00189332
0.0018929
0.00188098
0.00185967
0.00185807
0.0018515
0.00184345
0.00184476
0.00188304
0.00196483
0.00193981
0.00153016
0.000947544
0.000634398
0.000511453
0.000479863
0.000460206
0.000447109
0.000446495
0.000478304
0.000479287
0.000455033
0.00191129
0.00188897
0.00188636
0.00187622
0.00185824
0.00185672
0.00184965
0.00184234
0.00184379
0.0018832
0.00195791
0.00192875
0.00151696
0.00093585
0.000616515
0.000497346
0.0004717
0.000453057
0.000450019
0.00045638
0.000494369
0.000503515
0.00049092
0.00190512
0.00188146
0.00188249
0.00187129
0.00185708
0.00185599
0.00184812
0.00184052
0.00184412
0.00188335
0.00195131
0.0019175
0.00151223
0.000939505
0.000612078
0.000494481
0.00047376
0.000456051
0.000459964
0.000473606
0.000515424
0.000527144
0.000546745
0.00189189
0.00187365
0.00187786
0.00186609
0.0018532
0.00185319
0.00184539
0.00183897
0.00184438
0.00188294
0.00194527
0.00190956
0.00151074
0.00095546
0.00062113
0.000502756
0.000485946
0.000470841
0.000480816
0.000497915
0.00052925
0.000547423
0.000586004
0.00188703
0.00186605
0.00187035
0.00186275
0.00185029
0.00184936
0.00184227
0.00183823
0.00184413
0.00188269
0.00193979
0.00190162
0.00152685
0.000980857
0.000641782
0.000520844
0.000510294
0.000497012
0.000508505
0.000524832
0.000544576
0.00057405
0.000657812
0.00187372
0.00185958
0.00186511
0.00185659
0.00184503
0.00184413
0.00183874
0.00183809
0.00184415
0.00188205
0.00193429
0.00189975
0.00155195
0.00102584
0.000677797
0.000548947
0.000543584
0.000533854
0.000544859
0.000555363
0.000559084
0.0006285
0.000719863
0.00186352
0.00184992
0.00185724
0.00184897
0.00183975
0.00183989
0.00183633
0.00183688
0.00184456
0.00188249
0.00193048
0.0018955
0.00158196
0.00108209
0.000725424
0.000586
0.000585281
0.000578337
0.000584715
0.000589494
0.000572537
0.000658877
0.000762935
0.00185882
0.00184174
0.00184824
0.00184522
0.00184033
0.0018399
0.00183416
0.00183501
0.00184322
0.0018821
0.00192688
0.00189968
0.00161525
0.00114352
0.000783019
0.000629614
0.000633063
0.000635134
0.000629025
0.000615084
0.000582066
0.000680853
0.000819924
0.0018504
0.00183477
0.0018411
0.00184446
0.00184027
0.00183927
0.00183044
0.00183518
0.00184348
0.00188238
0.00192508
0.00190792
0.00165576
0.00120958
0.000846
0.000676755
0.00068492
0.000688754
0.000670862
0.000645543
0.00060408
0.000703881
0.000823041
0.00185011
0.001831
0.00184172
0.00184177
0.0018361
0.00183759
0.00183102
0.00183383
0.00184325
0.00188161
0.00192426
0.0019146
0.0016957
0.001282
0.000911647
0.000724413
0.000734106
0.00073818
0.000704916
0.000684008
0.000655961
0.000722881
0.000833786
0.00184857
0.00182969
0.00184083
0.00183961
0.00183576
0.00183609
0.00183141
0.00183533
0.00184308
0.00188095
0.00192271
0.00192287
0.00173164
0.00134925
0.00097554
0.000768619
0.0007781
0.000779775
0.00073324
0.000721447
0.000688583
0.00075415
0.000848207
0.00184658
0.0018296
0.00183939
0.00183929
0.0018331
0.00183602
0.0018301
0.0018342
0.00184358
0.0018797
0.0019241
0.00192962
0.00176772
0.00141242
0.00102766
0.000806972
0.000816623
0.000814971
0.000756713
0.000764517
0.000709618
0.000764249
0.000886424
0.00184543
0.00182724
0.00183721
0.00183787
0.00183281
0.00183392
0.00182956
0.00183411
0.00184244
0.00187846
0.00192625
0.00194131
0.00180086
0.00147041
0.00107272
0.000839966
0.000847795
0.000840326
0.0007785
0.000828403
0.000735114
0.000773272
0.000875505
0.00184118
0.00182616
0.00183505
0.00183986
0.00183415
0.00183498
0.00182894
0.00183406
0.00184228
0.00187697
0.00192783
0.00195011
0.00182441
0.00151419
0.00110286
0.000864305
0.000872182
0.00086101
0.000807297
0.000863748
0.000762484
0.000796686
0.000883533
0.00184616
0.00182654
0.00183496
0.00183589
0.00183233
0.00183533
0.00182928
0.00183306
0.00184229
0.00187476
0.00193066
0.00195901
0.00184515
0.00154757
0.00112813
0.00088847
0.000889513
0.000875308
0.000821024
0.000877607
0.00079189
0.000800993
0.000887141
0.00184341
0.00182708
0.00183508
0.00183487
0.0018315
0.00183384
0.00182757
0.00183425
0.00184252
0.00187364
0.0019327
0.00196578
0.00185888
0.00156844
0.0011544
0.000907017
0.000904858
0.000887906
0.000857295
0.000909337
0.000815956
0.000842711
0.000903577
0.00184424
0.0018242
0.00183554
0.00183726
0.00183129
0.00183368
0.00182757
0.00183389
0.00184272
0.00187202
0.00193412
0.00197364
0.00186774
0.00158226
0.00117571
0.000936917
0.000923241
0.000903573
0.000870146
0.00093565
0.000835986
0.000844641
0.000921304
0.00184471
0.00182629
0.00183441
0.00183675
0.00183236
0.00183329
0.00182807
0.00183271
0.00184325
0.00187082
0.00193597
0.00197772
0.00187164
0.00158937
0.00121399
0.000951011
0.000945743
0.000916161
0.000881664
0.000960394
0.000852337
0.000872492
0.000936684
0.00184052
0.00182658
0.00183307
0.00183859
0.00183236
0.00183102
0.00182986
0.00183216
0.00184501
0.00187062
0.00193707
0.00197651
0.00186899
0.00158242
0.00122625
0.000978829
0.000969959
0.000933647
0.000873188
0.000948572
0.000854605
0.000889888
0.000974244
0.00183876
0.00182597
0.00183488
0.00183661
0.00183201
0.00183083
0.00182969
0.0018314
0.00184455
0.0018679
0.00193541
0.00197577
0.00187456
0.00159917
0.00127512
0.00100537
0.00100234
0.000960978
0.00091247
0.000949361
0.000876596
0.000905405
0.000982198
0.00184123
0.00182925
0.0018311
0.00183506
0.0018363
0.00182963
0.00182953
0.00183175
0.00184221
0.00186548
0.00193382
0.0019743
0.00187948
0.00161518
0.00128154
0.00101804
0.00103705
0.000995138
0.000919035
0.000941464
0.000909233
0.00091776
0.00100114
0.0018366
0.00182743
0.00183599
0.00183484
0.00183797
0.00182906
0.00182891
0.00183121
0.00184187
0.00186339
0.0019328
0.00197327
0.00188394
0.00163119
0.00131891
0.00102744
0.00107204
0.00103766
0.000917571
0.000929338
0.0009243
0.000934532
0.00103233
0.00183503
0.00182431
0.00183292
0.00183329
0.00183773
0.00182875
0.00182611
0.00183174
0.00184359
0.00186165
0.00193129
0.00197243
0.00188943
0.00164937
0.0013492
0.00104132
0.00108559
0.00108541
0.000947079
0.000892003
0.000927353
0.00096585
0.00104574
0.00184346
0.00182039
0.00183108
0.00183386
0.00183499
0.0018288
0.00182507
0.00182748
0.00184133
0.00185968
0.00193085
0.00197263
0.00189539
0.00166938
0.00137445
0.00105178
0.00111899
0.00111309
0.00100786
0.000900904
0.000943867
0.000978706
0.00105713
0.00184408
0.00181564
0.00182941
0.00183345
0.001835
0.00182957
0.00183049
0.00182517
0.00183793
0.00185832
0.00192969
0.00197328
0.00190302
0.00169263
0.00141721
0.00107657
0.00115657
0.00111064
0.00105267
0.000957859
0.000922
0.000963521
0.00105623
0.00183771
0.00182614
0.00182495
0.00183066
0.00183585
0.0018281
0.0018293
0.0018275
0.00183725
0.00185702
0.00192746
0.00197485
0.00191141
0.00171776
0.00144985
0.00108655
0.00116843
0.0011522
0.00111718
0.00103388
0.000966421
0.00102089
0.00103083
0.00183287
0.00182199
0.00181886
0.00182342
0.00183439
0.00182974
0.00182818
0.00182886
0.00183707
0.00185574
0.00192469
0.00197614
0.00192074
0.00174214
0.00149861
0.0011436
0.00114051
0.00120296
0.00113271
0.00103862
0.00104748
0.00107271
0.00114032
0.00183218
0.00182365
0.00182203
0.00182303
0.00183528
0.00182893
0.00182718
0.00182909
0.00183702
0.00185456
0.0019214
0.00197789
0.00193071
0.00176453
0.00154638
0.00122936
0.00115912
0.00129354
0.00119845
0.00114711
0.00110725
0.00111218
0.00116947
0.00182884
0.00182572
0.00182975
0.00183162
0.00183738
0.00183003
0.00182655
0.00183132
0.00183664
0.00185257
0.00191755
0.00197917
0.00194041
0.00178858
0.00163834
0.0013162
0.00117109
0.00133024
0.00132223
0.00120457
0.00123867
0.00123665
0.00136278
0.00182635
0.00182899
0.00183152
0.00183159
0.00183011
0.0018237
0.0018251
0.00182987
0.001835
0.00185029
0.00191295
0.00198
0.00194986
0.00181874
0.00163422
0.00143255
0.00117067
0.00130279
0.00147073
0.0014235
0.00137756
0.00130187
0.00159239
0.00182593
0.00182903
0.00183132
0.00182737
0.00182876
0.00181917
0.00182359
0.00182741
0.0018327
0.0018477
0.00190738
0.00198016
0.0019584
0.00184653
0.00168841
0.00144994
0.00115402
0.00128291
0.00155961
0.0016133
0.00165614
0.0015226
0.00178214
0.00182786
0.00182989
0.00182977
0.00182863
0.00182839
0.00181841
0.00182238
0.00182509
0.0018306
0.00184509
0.00190023
0.00197943
0.00196625
0.00187082
0.00172178
0.00139198
0.00117357
0.00131437
0.00166458
0.00193618
0.00207068
0.00196981
0.00215293
0.00182525
0.00183219
0.00182791
0.00183149
0.00182754
0.00181255
0.0018207
0.00182345
0.00182894
0.00184254
0.00189177
0.00197585
0.00197304
0.00189218
0.00176428
0.00137221
0.00126694
0.0013741
0.00158599
0.00220971
0.00240383
0.00232455
0.00247506
0.00182144
0.00181799
0.0018269
0.00183327
0.00182577
0.00181139
0.00181967
0.0018226
0.00182796
0.00184031
0.00188299
0.00197044
0.00197623
0.00191431
0.00177438
0.00136933
0.00129135
0.00141001
0.00161273
0.00250326
0.00277305
0.00281984
0.00297378
0.0018177
0.0018099
0.00182665
0.00183126
0.00182293
0.0018164
0.00181943
0.00182208
0.00182731
0.00183835
0.00187421
0.00195951
0.00198
0.00193649
0.00181037
0.00143583
0.00134464
0.00143719
0.00159509
0.00306737
0.00343537
0.00341561
0.00344153
0.00181423
0.00180506
0.0018263
0.00182351
0.0018199
0.00181986
0.00181911
0.0018216
0.00182666
0.00183643
0.00186571
0.00194677
0.00197998
0.00195328
0.00185663
0.00153547
0.00141793
0.00142231
0.0016947
0.00299845
0.00350633
0.00377487
0.00411315
0.00181139
0.00180389
0.00182485
0.00181718
0.00181717
0.00182114
0.0018184
0.0018206
0.00182541
0.00183423
0.00185763
0.00193011
0.00197827
0.00196535
0.00190185
0.00163827
0.00144824
0.00143493
0.00169809
0.00315967