/*--------------------------------*- C++ -*----------------------------------*\
  =========                 |
  \\      /  F ield         | OpenFOAM: The Open Source CFD Toolbox
   \\    /   O peration     | Website:  https://openfoam.org
    \\  /    A nd           | Version:  7
     \\/     M anipulation  |
\*---------------------------------------------------------------------------*/
FoamFile
{
    version     2.0;
    format      ascii;
    class       volScalarField;
    location    "80";
    object      omega;
}
// * * * * * * * * * * * * * * * * * * * * * * * * * * * * * * * * * * * * * //

dimensions      [0 0 -1 0 0 0 0];

internalField   nonuniform List<scalar> 
12842
(
3.14329
2.8407
2.65002
2.53112
2.43974
2.37614
2.32435
2.29384
2.2655
2.25272
2.24075
2.2423
2.25007
2.27121
2.30814
2.38323
2.48638
2.60409
2.76793
2.92619
3.08511
3.24552
3.37843
3.12709
2.82082
2.62504
2.50049
2.42523
2.37081
2.32234
2.29263
2.26455
2.25201
2.24006
2.2421
2.25069
2.27213
2.3113
2.38303
2.49567
2.60743
2.76302
2.92226
3.08041
3.22698
3.39759
3.10508
2.79143
2.60613
2.48369
2.40408
2.35156
2.30948
2.2833
2.25805
2.24771
2.23773
2.24093
2.25167
2.27593
2.32035
2.39511
2.51079
2.63784
2.78734
2.93897
3.1056
3.22112
3.4002
3.07943
2.7566
2.57213
2.45372
2.38288
2.33953
2.30272
2.27858
2.25503
2.24566
2.23678
2.24088
2.25358
2.28077
2.32978
2.41011
2.52861
2.65427
2.81792
2.95561
3.15096
3.25556
3.39183
3.05248
2.72096
2.54953
2.43684
2.36617
2.3211
2.28815
2.26732
2.24779
2.24075
2.23469
2.24029
2.25543
2.28642
2.34082
2.42685
2.55823
2.68448
2.85869
2.98042
3.16172
3.2895
3.40251
3.02369
2.68551
2.51331
2.40953
2.34645
2.30705
2.27995
2.26197
2.24453
2.23843
2.2337
2.2405
2.25768
2.29173
2.3517
2.44698
2.57276
2.71129
2.89049
3.02289
3.20669
3.33256
3.44109
2.99515
2.65479
2.4912
2.39243
2.33292
2.29349
2.2683
2.25164
2.23804
2.23368
2.23181
2.24029
2.26
2.29875
2.36351
2.46126
2.60224
2.74005
2.9362
3.05186
3.22929
3.37598
3.49448
2.96685
2.62406
2.46246
2.37
2.31595
2.27996
2.25977
2.24612
2.2349
2.23138
2.23079
2.24033
2.26144
2.30245
2.3739
2.4802
2.61815
2.76818
2.9574
3.10421
3.28057
3.40827
3.53732
2.93781
2.59926
2.44337
2.35601
2.3062
2.27092
2.25146
2.23867
2.23048
2.22769
2.22915
2.24005
2.26385
2.30883
2.38237
2.49073
2.63417
2.80107
2.99436
3.12391
3.32191
3.45442
3.60315
2.90623
2.56843
2.42123
2.33828
2.29366
2.26106
2.24499
2.23373
2.22758
2.22581
2.22818
2.23998
2.26533
2.31226
2.39005
2.50484
2.64862
2.81975
3.00506
3.16161
3.36278
3.48422
3.62997
2.87418
2.54529
2.40324
2.32666
2.28566
2.25435
2.23907
2.22873
2.22442
2.22288
2.22637
2.24128
2.26748
2.31671
2.39539
2.51203
2.6583
2.85045
3.036
3.18105
3.40032
3.52618
3.69869
2.84186
2.51775
2.38625
2.3112
2.27502
2.24651
2.23373
2.22399
2.22149
2.2209
2.22534
2.24161
2.26901
2.31979
2.40306
2.52667
2.68081
2.87072
3.05143
3.23403
3.45574
3.59581
3.74493
2.81133
2.4973
2.36982
2.30193
2.26767
2.24053
2.22885
2.22028
2.21883
2.21826
2.22346
2.24191
2.27107
2.3241
2.40875
2.53532
2.69115
2.90267
3.09149
3.26381
3.49899
3.64502
3.83749
2.77991
2.47374
2.35624
2.28855
2.25867
2.23435
2.22484
2.21621
2.21607
2.2163
2.2225
2.24223
2.27326
2.32674
2.4161
2.55044
2.72088
2.92945
3.12078
3.3402
3.58384
3.7636
3.93223
2.75231
2.45636
2.342
2.28121
2.25177
2.22867
2.22044
2.21329
2.21388
2.21406
2.22072
2.24331
2.27465
2.33134
2.42426
2.56366
2.73568
2.95966
3.17128
3.3836
3.63659
3.82886
4.03766
2.7233
2.43691
2.33046
2.26982
2.24435
2.22353
2.21734
2.21
2.21135
2.21227
2.22001
2.24384
2.27751
2.33417
2.43147
2.57855
2.77301
3.00344
3.22596
3.48931
3.76962
3.9968
4.20812
2.69891
2.42247
2.31843
2.26358
2.23782
2.21791
2.21318
2.20737
2.20944
2.21033
2.21833
2.24418
2.28023
2.33912
2.44333
2.59963
2.79291
3.03443
3.294
3.55459
3.84475
4.09124
4.34816
2.67458
2.40684
2.30821
2.2539
2.23165
2.21353
2.21031
2.20454
2.2072
2.20872
2.21779
2.24774
2.28478
2.34363
2.45228
2.61516
2.84019
3.09909
3.37718
3.68721
4.02987
4.31734
4.59802
2.65569
2.39475
2.29809
2.2483
2.22546
2.20814
2.20642
2.20198
2.2053
2.20687
2.21648
2.24852
2.28969
2.34867
2.46689
2.64325
2.86584
3.13772
3.46825
3.79677
4.14032
4.46338
4.80476
2.63678
2.38246
2.28894
2.24018
2.22
2.20432
2.20343
2.19926
2.2032
2.20529
2.21532
2.24714
2.29205
2.35606
2.48032
2.66311
2.92534
3.22948
3.58254
3.95544
4.39776
4.77296
5.16319
2.62193
2.37205
2.28037
2.23477
2.21412
2.19948
2.19972
2.19683
2.2013
2.2034
2.21437
2.24743
2.30284
2.36292
2.49425
2.69647
2.95849
3.28388
3.7085
4.13716
4.57431
5.03105
5.4864
2.60704
2.36224
2.2722
2.22828
2.20904
2.19606
2.19654
2.19414
2.19909
2.20169
2.21481
2.24864
2.30562
2.37332
2.51465
2.7258
3.03675
3.40993
3.85737
4.33761
4.94705
5.49004
6.07619
2.59524
2.35312
2.26479
2.22258
2.20343
2.19177
2.19295
2.19187
2.19715
2.19979
2.21507
2.25008
2.31036
2.38347
2.52711
2.76194
3.07479
3.48055
4.03525
4.63666
5.28901
5.98744
6.74992
2.5848
2.34677
2.25931
2.21897
2.1997
2.18948
2.19021
2.18981
2.19523
2.19813
2.21454
2.25136
2.31325
2.39797
2.55161
2.80389
3.17005
3.64332
4.23994
4.92989
5.83844
6.76888
7.88638
2.57784
2.34125
2.25527
2.21578
2.19659
2.18766
2.18812
2.18864
2.19375
2.19682
2.21438
2.25247
2.31445
2.40983
2.56429
2.83558
3.22567
3.75577
4.4915
5.3941
6.50569
7.77408
9.35834
2.57022
2.33691
2.25223
2.21372
2.19455
2.18645
2.18641
2.18745
2.19247
2.19564
2.2148
2.25338
2.3122
2.42395
2.58967
2.88996
3.32151
3.9261
4.75694
5.83351
7.24163
8.86934
10.916
2.56339
2.3316
2.24823
2.21038
2.19194
2.1849
2.18459
2.18644
2.19118
2.19457
2.21528
2.25433
2.31309
2.44086
2.60419
2.91973
3.40385
4.09012
5.05477
6.3153
7.9583
9.88362
12.1814
2.55662
2.32734
2.24575
2.20858
2.19022
2.18396
2.1833
2.18569
2.19025
2.19357
2.2144
2.2564
2.31958
2.4623
2.63367
2.97827
3.48332
4.24046
5.31364
6.7628
8.60664
10.6819
13.0817
2.54987
2.32225
2.24157
2.20525
2.18831
2.18259
2.18193
2.18491
2.18923
2.1925
2.21525
2.25784
2.32884
2.48405
2.65299
3.02002
3.60597
4.44377
5.61848
7.17606
9.11147
11.2753
13.7081
2.54401
2.31815
2.23942
2.2036
2.1867
2.18184
2.18122
2.18439
2.18828
2.19134
2.21537
2.26033
2.33819
2.5128
2.68905
3.08069
3.67905
4.58353
5.84812
7.5138
9.53561
11.7223
14.0672
2.5372
2.31336
2.23508
2.20045
2.18539
2.18062
2.18021
2.18356
2.18696
2.19023
2.21503
2.26212
2.34476
2.54673
2.7253
3.14376
3.81695
4.77847
6.10201
7.82701
9.8694
12.0216
14.2975
2.5324
2.3095
2.23291
2.19874
2.18383
2.1799
2.17953
2.18267
2.18557
2.1892
2.21467
2.26482
2.35448
2.55532
2.76825
3.22335
3.92152
4.92595
6.29066
8.0664
10.118
12.2312
14.3843
2.52562
2.30503
2.22853
2.19573
2.18271
2.17859
2.17829
2.18117
2.18392
2.18887
2.21636
2.26873
2.36366
2.55518
2.82895
3.29585
4.02898
5.0535
6.44983
8.24453
10.2896
12.3376
14.4134
2.52171
2.30144
2.2263
2.19406
2.18131
2.1776
2.17699
2.17968
2.18242
2.18872
2.21721
2.27842
2.38641
2.58459
2.90331
3.41625
4.16417
5.17393
6.56034
8.35852
10.3806
12.4262
14.5334
2.51543
2.29726
2.22189
2.19101
2.18006
2.17604
2.17514
2.17787
2.18089
2.18868
2.22048
2.29085
2.4089
2.61985
2.96821
3.48245
4.23595
5.23464
6.61473
8.43133
10.5061
12.5999
14.7559
2.51177
2.29389
2.21968
2.1893
2.17831
2.17387
2.17373
2.17605
2.18049
2.19242
2.23719
2.32584
2.46632
2.70115
3.08605
3.62739
4.35312
5.32174
6.67762
8.53924
10.7081
12.9335
15.3407
2.50666
2.28983
2.21545
2.1859
2.17653
2.17211
2.17155
2.17441
2.18087
2.1998
2.25792
2.3557
2.50626
2.75346
3.15036
3.70815
4.46459
5.38988
6.77975
8.71958
11.0549
13.6317
16.5025
2.50246
2.28667
2.2134
2.18354
2.17445
2.17011
2.1696
2.17496
2.18672
2.21808
2.29441
2.41315
2.5881
2.86212
3.29659
3.86694
4.55464
5.49571
7.0029
9.10425
11.8506
14.7643
18.6906
2.49868
2.28245
2.20937
2.17981
2.17179
2.16781
2.16973
2.17846
2.19901
2.24107
2.33025
2.45728
2.63886
2.92313
3.37305
3.97901
4.79955
5.74891
7.26162
9.77052
12.8741
17.3047
26.4509
2.494
2.27941
2.2073
2.17642
2.16972
2.16573
2.17357
2.18957
2.22034
2.27505
2.3816
2.53016
2.73588
3.04874
3.533
4.17736
4.94026
6.00829
7.91417
10.8142
15.9161
27.6827
59.743
2.49071
2.27446
2.20317
2.17291
2.16662
2.16625
2.18413
2.20789
2.24767
2.31345
2.4307
2.58503
2.79403
3.11382
3.61782
4.30189
5.24609
6.50829
8.62139
12.6739
20.3643
40.5101
105.779
2.486
2.27131
2.20091
2.17024
2.16573
2.1704
2.20133
2.23424
2.28444
2.36124
2.49312
2.66733
2.89746
3.24561
3.79217
4.54672
5.52615
6.99436
9.75544
14.9196
29.1013
80.041
168.943
2.48274
2.26524
2.19629
2.16696
2.16369
2.18127
2.22569
2.26771
2.32635
2.4122
2.55091
2.72727
2.95887
3.31366
3.88029
4.68054
5.84429
7.60725
10.7335
17.0715
32.9345
85.0481
165.049
2.47744
2.26121
2.19352
2.16417
2.16746
2.19777
2.25676
2.3082
2.37603
2.47008
2.6196
2.81358
3.06356
3.44547
4.05797
4.94564
6.2007
8.24449
11.8381
18.6219
36.3412
91.7377
161.708
2.47399
2.25445
2.1905
2.16387
2.17583
2.22184
2.2942
2.35451
2.42849
2.52871
2.68089
2.87276
3.12409
3.51143
4.14881
5.09044
6.57865
8.78739
12.5508
19.5682
36.6671
86.2475
135.39
2.46784
2.24932
2.18745
2.16803
2.19187
2.25139
2.33717
2.40534
2.48616
2.59158
2.75062
2.95823
3.227
3.64248
4.33475
5.37914
6.88014
9.46351
13.2638
20.0182
36.2643
80.8157
110.901
2.46355
2.24232
2.18446
2.17693
2.21333
2.28785
2.38422
2.45924
2.54383
2.65259
2.81098
3.01272
3.28398
3.70845
4.43279
5.54541
7.39698
9.90135
13.8355
20.7994
35.9808
68.753
93.4341
2.456
2.2377
2.18569
2.19387
2.24278
2.32888
2.43463
2.51511
2.60392
2.71528
2.87714
3.09326
3.38201
3.84141
4.63625
5.88331
7.68776
10.3912
14.4404
21.7619
36.0593
58.9673
88.5602
2.45051
2.23322
2.18929
2.21425
2.27819
2.3753
2.48794
2.5724
2.66332
2.77577
2.93479
3.1433
3.43378
3.91194
4.75131
6.08059
8.17474
10.9839
15.5655
23.8629
37.7441
58.6934
78.0104
2.44234
2.22978
2.19876
2.24472
2.3218
2.4267
2.54399
2.63156
2.72431
2.83711
2.99637
3.21492
3.52447
4.04195
4.97604
6.46712
8.57152
11.4891
16.9552
26.8504
39.8006
56.0349
79.3445
2.43521
2.22745
2.21449
2.27824
2.36967
2.47985
2.59922
2.68762
2.78112
2.89298
3.04793
3.261
3.57109
4.11419
5.09766
6.66394
8.897
12.8004
20.1226
33.8742
47.3738
57.7405
76.3254
2.42947
2.22954
2.23625
2.31824
2.42187
2.53353
2.65235
2.74114
2.83456
2.94508
3.09783
3.31585
3.64697
4.24063
5.33184
7.08799
9.71356
14.3404
25.3533
40.3694
51.6397
63.5341
79.9497
2.42503
2.23353
2.26273
2.3598
2.47524
2.58647
2.70268
2.79025
2.88327
2.99166
3.14002
3.35507
3.68988
4.3212
5.47216
7.33327
10.2483
17.7984
33.4917
52.1695
63.5112
76.6224
93.3503
2.42214
2.24619
2.29427
2.40439
2.53036
2.6377
2.74969
2.8359
2.92771
3.03411
3.17933
3.39752
3.75472
4.45348
5.73062
7.92368
12.2954
23.5887
43.8283
61.4146
71.9076
90.0576
105.848
2.42061
2.2657
2.32897
2.44903
2.58381
2.68644
2.79268
2.87681
2.96723
3.07124
3.21263
3.43052
3.79945
4.55854
5.95042
8.48239
14.7316
30.4475
53.3935
71.6442
84.5624
102.444
118.292
2.42116
2.29293
2.36741
2.49464
2.63712
2.73273
2.83263
2.91443
3.00276
3.10458
3.24315
3.46401
3.85725
4.7047
6.31082
9.72295
19.1959
40.0607
63.8688
83.2796
97.25
117.507
125.143
2.42668
2.32456
2.40635
2.53736
2.68403
2.77296
2.86592
2.9452
3.03119
3.13077
3.26666
3.48932
3.90295
4.84201
6.73531
11.5387
24.1119
46.8507
71.6557
88.4681
106.284
124.87
132.988
2.43913
2.36027
2.44603
2.57858
2.72814
2.80987
2.89664
2.97321
3.05661
3.15398
3.28779
3.51347
3.95327
5.00851
7.39063
13.7163
29.0861
53.8117
75.0207
91.8722
109.575
131.32
140.784
2.45654
2.39994
2.4877
2.62001
2.76956
2.84501
2.92489
2.99894
3.07961
3.17484
3.30694
3.53679
4.00884
5.22181
8.16737
16.237
33.9283
58.1366
76.6103
93.0352
110.146
130.725
146.989
2.47811
2.44289
2.53046
2.66059
2.80858
2.87718
2.95122
3.02223
3.1001
3.19316
3.3242
3.55959
4.07138
5.47421
9.12053
18.7935
38.8251
60.0464
78.58
93.6708
110.54
130.705
147.729
2.50346
2.48737
2.57398
2.70049
2.84406
2.90741
2.97502
3.04367
3.11868
3.20954
3.33988
3.58213
4.13926
5.76044
10.1576
21.427
42.096
62.0553
78.5956
94.2921
111.253
130.714
148.251
2.53113
2.53318
2.61735
2.73906
2.87685
2.9345
2.997
3.06268
3.13517
3.22407
3.35406
3.6044
4.21408
6.08516
11.2432
23.985
44.9087
62.746
79.4253
93.4816
112.757
130.561
149.417
2.56037
2.5778
2.65993
2.77598
2.90602
2.95963
3.0165
3.08024
3.15009
3.23678
3.36703
3.62642
4.29196
6.40881
12.3816
26.3046
46.5711
63.1236
79.0498
93.4794
111.938
130.485
149.287
2.59058
2.62232
2.70109
2.81091
2.93234
2.98174
3.03423
3.09543
3.16335
3.24845
3.37879
3.64813
4.37379
6.77059
13.4463
28.6875
47.6279
63.5103
78.5778
92.3469
110.468
130.025
148.904
2.62004
2.6634
2.73988
2.84349
2.95556
3.00188
3.0497
3.10939
3.17522
3.2583
3.3896
3.66916
4.45632
7.10683
14.6257
30.6281
48.2127
63.1629
76.4593
88.862
105.429
124.292
146.341
2.6497
2.70332
2.77597
2.87333
2.97597
3.01951
3.06355
3.12129
3.1858
3.26771
3.39945
3.68958
4.53964
7.48863
15.6651
32.6086
48.6433
63.1764
73.7131
84.5789
99.0287
116.302
143.828
2.67733
2.73866
2.80912
2.90059
2.99402
3.03519
3.07566
3.13205
3.19515
3.27547
3.40852
3.70909
4.62306
7.84987
16.8568
34.3053
48.8197
62.1694
70.6098
79.9258
92.1318
107.548
134.992
2.70415
2.77216
2.83816
2.92473
3.00959
3.04907
3.08626
3.14123
3.20337
3.28295
3.41697
3.7278
4.70837
8.24439
17.9672
35.0422
48.9043
60.7428
67.5191
75.3384
85.4373
99.0315
124.819
2.72937
2.80092
2.86518
2.94623
3.02356
3.06116
3.09589
3.14941
3.21078
3.28925
3.42475
3.74599
4.79229
8.62356
18.9666
35.9465
48.9745
59.125
64.5572
71.0192
79.3058
91.1141
114.794
2.75249
2.82785
2.88711
2.96505
3.0354
3.07218
3.10416
3.1565
3.21688
3.29508
3.43225
3.76373
4.87844
8.99599
19.642
36.2934
48.9253
57.4583
61.7996
67.0526
73.8453
84.0217
105.162
2.77535
2.85043
2.90827
2.98132
3.04657
3.08139
3.11194
3.16286
3.22296
3.30053
3.43947
3.78108
4.9601
9.30259
20.0634
36.5836
48.7999
55.803
59.2059
63.3986
68.9896
77.7206
96.8761
2.79536
2.87161
2.92482
2.99553
3.05574
3.09053
3.11894
3.16839
3.22727
3.30542
3.44675
3.79768
5.03586
9.55261
20.2133
36.692
48.7594
54.0956
56.739
60.0062
64.5168
71.8939
88.7532
2.81596
2.88966
2.9411
3.00813
3.06493
3.09732
3.12517
3.17366
3.23203
3.31016
3.45415
3.8134
5.10155
9.68937
20.3002
36.6126
48.0624
52.1957
54.2025
56.7009
60.2946
66.4588
81.3885
2.83407
2.90634
2.95445
3.01873
3.07273
3.10529
3.13163
3.17798
3.23584
3.31508
3.46158
3.827
5.15234
9.76844
20.4066
36.5701
46.8779
50.202
51.6651
53.4878
56.2451
61.2999
74.2224
2.85279
2.92167
2.9676
3.02887
3.0801
3.11041
3.13679
3.18259
3.23817
3.31738
3.46884
3.83853
5.1863
9.76311
20.3262
36.5586
45.1727
47.9562
48.9705
50.2549
52.3377
56.5375
67.666
2.86954
2.93587
2.97926
3.03816
3.08769
3.11724
3.14278
3.18644
3.2401
3.31872
3.47553
3.84733
5.20587
9.765
20.4144
36.4358
43.0765
45.4735
46.157
47.0682
48.6944
52.2959
62.4035
2.88741
2.94944
2.99147
3.04602
3.09362
3.12222
3.14758
3.18985
3.24127
3.32005
3.48136
3.85311
5.21432
9.76606
20.3593
35.4672
40.5872
42.7301
43.187
43.8689
45.2551
48.6485
57.4006
2.90245
2.96337
3.002
3.05565
3.10098
3.12723
3.15315
3.1943
3.24241
3.32102
3.48576
3.85655
5.21551
9.73187
20.0245
33.847
37.811
39.7759
40.1261
40.7281
42.1839
45.5226
53.9879
2.92039
2.97574
3.01427
3.06295
3.10681
3.13342
3.15756
3.19671
3.24391
3.32091
3.48909
3.85838
5.2045
9.55874
19.2371
31.7711
34.8651
36.7201
37.0246
37.6202
39.4331
43.0777
49.7222
2.93291
2.98945
3.02512
3.07148
3.11276
3.13695
3.16328
3.2008
3.2431
3.32103
3.49108
3.8578
5.1692
9.27728
18.2023
29.4095
31.8522
33.6178
33.9647
34.6522
37.1089
41.0052
46.0925
2.95158
3.00234
3.03593
3.08122
3.11995
3.14423
3.16752
3.20585
3.24293
3.32169
3.49193
3.85331
5.1083
8.92044
16.9945
26.9258
28.8922
30.5482
30.999
31.9797
35.3222
39.3371
43.4611
2.96208
3.01534
3.04902
3.08896
3.12472
3.14922
3.17303
3.20585
3.24434
3.3223
3.49198
3.84373
5.0279
8.51223
15.7066
24.4632
26.0811
27.6266
28.2783
29.6113
33.8202
37.9097
41.2925
2.97956
3.02988
3.06124
3.10092
3.13322
3.1574
3.17974
3.20652
3.24334
3.32328
3.49179
3.83064
4.93331
8.07438
14.4036
22.1394
23.4999
24.917
25.8438
27.7402
32.7895
36.701
39.8301
2.99598
3.04649
3.07206
3.11103
3.14274
3.16571
3.18539
3.20845
3.24288
3.32248
3.4905
3.81386
4.82468
7.63355
13.1518
20.0409
21.2184
22.5546
23.7775
26.1288
31.9059
35.8051
38.7467
3.00732
3.06131
3.08828
3.11881
3.14334
3.16513
3.19023
3.21168
3.24387
3.32278
3.48749
3.7945
4.71535
7.19693
12.0095
18.2129
19.2582
20.5237
22.1312
25.026
31.3433
35.0207
37.7813
3.01705
3.07153
3.097
3.12171
3.1447
3.16577
3.19438
3.21067
3.24308
3.32166
3.48394
3.77348
4.60031
6.78553
11.0064
16.6821
17.6473
18.9009
20.7572
24.0269
30.741
34.5679
37.2222
3.0169
3.07959
3.09572
3.12322
3.14895
3.16854
3.19334
3.21291
3.24389
3.32142
3.47923
3.75107
4.4911
6.41107
10.1862
15.4397
16.347
17.5967
19.7466
23.375
30.3153
34.0184
36.658
3.01839
3.07772
3.09588
3.12598
3.1516
3.17008
3.19328
3.21102
3.24395
3.32084
3.4745
3.72874
4.38882
6.08334
9.51372
14.4622
15.3557
16.6359
18.9441
22.7114
29.9059
33.5494
36.2387
3.02085
3.07761
3.09833
3.12586
3.15342
3.16998
3.19639
3.21078
3.24297
3.32066
3.46935
3.70744
4.29357
5.80688
9.02863
13.7333
14.5944
15.8891
18.3789
22.3226
29.5432
33.1527
35.7981
3.02613
3.08306
3.10092
3.12973
3.15389
3.17252
3.19448
3.21035
3.24296
3.32013
3.46412
3.68579
4.21395
5.59044
8.64763
13.1783
14.0606
15.3898
17.9193
21.8139
29.2424
32.7723
35.3512
3.02768
3.07997
3.10442
3.12797
3.15179
3.16989
3.19513
3.21003
3.24266
3.31985
3.45944
3.66838
4.15337
5.4296
8.41196
12.8056
13.6604
14.999
17.5735
21.5518
28.7421
32.4447
35.0211
3.02452
3.07866
3.10649
3.13064
3.15091
3.17048
3.19506
3.21183
3.24249
3.32022
3.45432
3.64982
4.10928
5.31448
8.22593
12.5327
13.4085
14.7713
17.4071
21.1215
28.3804
32.1028
34.7177
3.02376
3.07882
3.10349
3.13214
3.15155
3.1736
3.19456
3.20928
3.23993
3.31904
3.45018
3.63687
4.07759
5.24092
8.11741
12.3498
13.2061
14.5562
17.0812
20.8793
27.8247
31.2953
34.3083
3.02292
3.07805
3.10173
3.12777
3.15108
3.17059
3.19408
3.20893
3.23933
3.31801
3.44575
3.62193
4.05059
5.18389
8.04405
12.2239
13.1003
14.4547
16.941
20.8329
27.5544
30.8915
33.9802
3.02221
3.08002
3.10115
3.13071
3.15007
3.17031
3.19416
3.21012
3.23942
3.31607
3.44279
3.6143
4.04769
5.1681
7.969
12.1169
13.0101
14.3194
16.8144
20.5074
26.9283
29.9057
33.1932
3.02565
3.07449
3.10261
3.12705
3.14949
3.17348
3.19134
3.21039
3.23659
3.31686
3.44229
3.61511
4.05141
5.18746
8.06597
12.1425
13.0123
14.3641
16.9372
20.8327
26.8956
29.6577
33.1487
3.02525
3.07822
3.09713
3.12741
3.14992
3.16962
3.19036
3.20963
3.23528
3.314
3.43495
3.60299
4.01721
5.092
7.84406
11.959
12.8883
14.2147
16.318
20.3481
26.0907
28.6718
31.917
3.02101
3.07204
3.10208
3.12743
3.14402
3.17019
3.18813
3.20634
3.23564
3.3101
3.42728
3.59088
3.98387
5.00218
7.67659
11.7918
12.8007
14.0881
16.2199
19.501
25.346
28.0198
30.8407
3.01898
3.07061
3.09586
3.12115
3.1422
3.16375
3.18529
3.20444
3.23155
3.3049
3.41879
3.57796
3.94945
4.91095
7.48161
11.604
12.6585
13.9047
16.3175
19.4607
24.7549
27.3377
29.8133
3.01907
3.07217
3.09852
3.11991
3.14143
3.16209
3.18163
3.19704
3.22384
3.2988
3.40961
3.56429
3.91394
4.81877
7.25276
11.4032
12.5521
13.7648
16.1641
19.7931
24.135
26.6031
29.1063
3.00758
3.0696
3.09745
3.10979
3.14172
3.16354
3.18062
3.19478
3.22112
3.29183
3.39842
3.54895
3.87682
4.72243
7.00754
11.1718
12.3869
13.5094
15.9052
19.6408
23.3009
25.7905
28.3319
3.00457
3.06246
3.09266
3.10638
3.13653
3.15985
3.17175
3.19511
3.22139
3.28357
3.38706
3.53271
3.83861
4.62215
6.69703
10.8257
12.0314
13.5038
15.7054
19.0403
22.6533
24.7975
27.5656
3.00748
3.04683
3.08644
3.10675
3.12876
3.15478
3.17152
3.19086
3.21597
3.27366
3.37366
3.51397
3.79814
4.51974
6.35493
10.2958
11.9011
13.386
15.4744
18.444
21.7446
23.8488
26.2575
3.00364
3.04167
3.07753
3.10062
3.12129
3.14384
3.16639
3.18193
3.20826
3.26319
3.35985
3.49436
3.75694
4.426
5.92404
9.66527
11.8719
13.3181
15.3233
17.9825
21.0603
23.0729
25.0345
2.99338
3.04161
3.06576
3.09286
3.10902
3.13211
3.15835
3.17219
3.19777
3.25012
3.34331
3.47149
3.7125
4.33279
5.68435
9.07581
11.646
13.3235
15.001
17.5731
19.9862
22.4065
24.0576
2.98368
3.02967
3.05605
3.07716
3.09388
3.12122
3.14954
3.15905
3.18712
3.23726
3.3257
3.44751
3.66798
4.23321
5.38445
8.36765
11.2713
12.8301
14.7538
17.1691
19.3649
21.5883
23.4777
2.97041
3.01301
3.04467
3.06583
3.08904
3.11216
3.1375
3.14849
3.17511
3.2213
3.30358
3.41892
3.62044
4.11516
5.32957
7.54373
10.7792
12.7454
14.5518
16.6462
18.567
20.8083
22.6186
2.95482
2.99695
3.03133
3.05513
3.07493
3.1001
3.12431
3.13805
3.16303
3.20505
3.28019
3.38902
3.57329
4.00612
5.00999
7.29316
10.2765
12.7991
14.3027
16.0013
18.0899
20.1137
21.9604
2.93191
2.97284
3.01394
3.03195
3.05661
3.08351
3.10634
3.12237
3.14566
3.1838
3.2516
3.35353
3.52154
3.9024
4.77168
7.33498
9.86583
12.5506
14.033
15.6037
17.3184
19.3735
21.2162
2.91304
2.94498
2.99491
3.0068
3.03838
3.06612
3.08712
3.10457
3.1264
3.16132
3.22261
3.31738
3.46993
3.80865
4.51438
7.08608
9.19373
11.8727
13.3545
15.0388
16.7549
18.7305
20.4843
2.88972
2.93856
2.96852
2.97838
3.01533
3.04177
3.06135
3.07934
3.09967
3.13179
3.18735
3.27457
3.41227
3.70547
4.37582
6.67245
8.62087
11.2846
12.8752
14.2394
16.0624
18.0281
19.6856
2.86325
2.91779
2.93941
2.95441
2.99171
3.01488
3.03417
3.05241
3.07166
3.10157
3.15237
3.23206
3.35537
3.60314
4.18975
6.10428
7.94883
10.6489
12.5126
13.3094
15.4564
17.4471
18.7966
2.8283
2.88582
2.90287
2.93095
2.95986
2.97914
2.99879
3.01689
3.035
3.06268
3.10923
3.18082
3.28962
3.49655
3.97882
5.47578
7.17278
10.0964
11.5973
12.9791
14.8586
16.6391
17.5481
2.79159
2.84988
2.86659
2.90306
2.9262
2.94291
2.96322
2.98126
2.99862
3.02429
3.06692
3.13109
3.22617
3.39838
3.78559
4.88135
6.61994
9.55892
11.1744
13.094
14.2674
15.6185
15.9415
2.74643
2.80219
2.82235
2.86241
2.88127
2.89696
2.91729
2.93492
2.95126
2.97435
3.01263
3.06913
3.15114
3.29396
3.60048
4.40085
6.08068
8.38899
10.2012
12.5685
13.3035
14.6371
15.3476
2.70154
2.75373
2.77933
2.81958
2.83578
2.85224
2.87238
2.88981
2.90556
2.92639
2.96022
3.01027
3.08075
3.19944
3.44097
4.03151
5.41515
7.52281
10.2201
11.7986
11.8886
13.8109
15.4063
2.64596
2.69369
2.72432
2.7621
2.77629
2.79387
2.81303
2.82968
2.84434
2.86228
2.89131
2.93401
2.99369
3.09212
3.28178
3.72212
4.79171
6.67269
9.81068
10.6791
11.3251
12.7073
14.6903
2.59181
2.63729
2.67097
2.70562
2.71897
2.73809
2.75653
2.77271
2.78694
2.80277
2.82749
2.86429
2.91466
2.99607
3.14616
3.47712
4.32205
5.823
8.96252
9.97036
11.3814
12.1527
14.0072
2.52298
2.56602
2.60017
2.6308
2.64318
2.66272
2.67961
2.6944
2.7074
2.72075
2.74052
2.77067
2.81206
2.87793
2.99588
3.24483
3.89104
5.36834
8.41553
8.98092
10.7935
10.9027
13.2615
2.45836
2.50156
2.53404
2.5616
2.57383
2.59387
2.60984
2.62385
2.63646
2.64859
2.66518
2.68993
2.7243
2.77771
2.87136
3.06092
3.5436
4.88319
7.46159
8.79111
10.0081
10.8681
12.5038
2.37374
2.41487
2.44394
2.46755
2.4787
2.49743
2.51126
2.52317
2.53411
2.54409
2.55672
2.5759
2.60233
2.644
2.71659
2.85973
3.21797
4.29956
6.57331
8.02603
9.11751
10.1494
11.4593
2.2995
2.34115
2.36611
2.38737
2.39822
2.41633
2.42916
2.44013
2.45057
2.46008
2.47069
2.48651
2.50796
2.54086
2.59811
2.70817
2.97778
3.80227
5.89633
7.26771
8.25295
9.30285
10.2597
2.19712
2.23438
2.25424
2.27128
2.28018
2.29509
2.30518
2.31337
2.32136
2.32876
2.33613
2.34707
2.36303
2.38738
2.42998
2.51183
2.7116
3.36321
4.81652
6.39038
7.33345
8.24487
9.02468
2.11695
2.15439
2.16946
2.1849
2.19317
2.20705
2.2163
2.22368
2.23092
2.2381
2.24491
2.25345
2.26627
2.28617
2.32036
2.38555
2.53816
3.08429
4.1905
5.7183
6.58989
7.3406
8.4274
1.99497
2.0235
2.03233
2.04222
2.04717
2.05594
2.06194
2.06615
2.07022
2.07452
2.07875
2.08366
2.09162
2.10476
2.12899
2.1769
2.28461
2.69448
3.80733
4.94635
5.62862
6.32187
7.73237
1.92373
1.9515
1.95741
1.9645
1.96712
1.97424
1.97927
1.98283
1.9864
1.99014
1.99391
1.99803
2.00508
2.01449
2.04007
2.07241
2.18023
2.52648
3.63846
4.53674
5.11506
5.92226
7.36539
1.75059
1.76038
1.7584
1.76138
1.7606
1.76199
1.76318
1.76304
1.76236
1.76257
1.76315
1.76428
1.76592
1.77495
1.78207
1.81482
1.85955
2.08828
2.81649
3.61473
4.05404
5.05171
6.10592
3.0894
2.76629
2.57881
2.4584
2.38683
2.33319
2.29714
2.27178
2.24923
2.23774
2.2304
2.233
2.24237
2.26324
2.30191
2.36661
2.48025
2.59429
2.76523
2.88372
3.05873
3.16279
3.28093
3.0992
2.77489
2.58888
2.47478
2.39598
2.34132
2.30483
2.27705
2.2521
2.24117
2.23341
2.236
2.24503
2.26522
2.30282
2.36867
2.47829
2.59582
2.76568
2.88705
3.05325
3.15741
3.27981
3.11255
2.79764
2.61031
2.48698
2.40549
2.3512
2.30884
2.28062
2.25536
2.24515
2.23576
2.23781
2.24647
2.26593
2.30182
2.36728
2.47534
2.58614
2.75009
2.86606
3.04079
3.15136
3.28976
3.1259
2.80843
2.61845
2.50078
2.41907
2.36047
2.31634
2.28706
2.25976
2.24874
2.23854
2.24048
2.24804
2.26726
2.30046
2.37194
2.47469
2.58666
2.74912
2.86989
3.04611
3.15616
3.28692
3.13552
2.82744
2.64756
2.52154
2.43016
2.36991
2.32101
2.29112
2.26288
2.25413
2.24153
2.24254
2.24912
2.2682
2.30148
2.37294
2.47314
2.58756
2.7493
2.873
3.04898
3.16533
3.30726
3.14408
2.84832
2.6559
2.52582
2.43271
2.37275
2.32332
2.29504
2.26825
2.25717
2.24298
2.24369
2.24978
2.26991
2.3046
2.37833
2.47551
2.58868
2.74981
2.87243
3.05001
3.16248
3.31406
3.15193
2.85596
2.66323
2.53575
2.44285
2.38265
2.33115
2.30193
2.27243
2.2595
2.24465
2.24528
2.25069
2.27432
2.3094
2.38869
2.4839
2.60464
2.77278
2.9042
3.08952
3.20069
3.35833
3.15098
2.85444
2.66203
2.53353
2.4384
2.37785
2.32709
2.29846
2.27056
2.25792
2.24421
2.24523
2.25112
2.27491
2.30919
2.39316
2.48837
2.61093
2.78056
2.90769
3.09058
3.22286
3.36872
2.92877
2.59158
2.43582
2.34599
2.29555
2.26026
2.24355
2.22548
2.21897
2.21252
2.21139
2.21623
2.23065
2.26219
2.3157
2.41229
2.57897
2.73808
2.9769
3.19962
3.51114
3.74804
3.98865
2.94102
2.59841
2.44206
2.35025
2.29915
2.26343
2.24631
2.22823
2.22012
2.21399
2.21243
2.21717
2.23128
2.26153
2.31464
2.40911
2.58248
2.72495
2.95203
3.16421
3.4698
3.67454
3.91272
2.9427
2.60427
2.44891
2.35441
2.30374
2.26732
2.2496
2.23056
2.22255
2.21539
2.21333
2.21784
2.23171
2.2612
2.31628
2.40323
2.58023
2.71203
2.92372
3.12192
3.41175
3.58508
3.82769
2.95563
2.61256
2.45538
2.35894
2.30728
2.27013
2.25229
2.23333
2.22377
2.21686
2.21421
2.21861
2.23212
2.26079
2.31514
2.40053
2.56235
2.70072
2.9019
3.08883
3.35555
3.51076
3.74881
2.95874
2.61962
2.46325
2.36439
2.31279
2.275
2.25572
2.23589
2.22632
2.21837
2.21508
2.21931
2.23242
2.2604
2.31218
2.39871
2.55496
2.6885
2.88194
3.05808
3.30353
3.4517
3.67726
2.97298
2.62981
2.47002
2.36936
2.31632
2.27773
2.25865
2.23877
2.22761
2.21992
2.216
2.22013
2.23274
2.26008
2.31023
2.38997
2.53565
2.6713
2.86826
3.02333
3.25083
3.39262
3.61031
2.97738
2.6383
2.47914
2.37648
2.32313
2.28334
2.2622
2.2415
2.23028
2.22148
2.21683
2.22081
2.23303
2.25981
2.30864
2.38767
2.52964
2.65954
2.85486
2.99723
3.22286
3.35734
3.55489
2.99323
2.65078
2.48636
2.38222
2.32684
2.28621
2.26535
2.24442
2.23163
2.22311
2.218
2.22186
2.23344
2.25963
2.30565
2.38212
2.5198
2.64768
2.84321
2.98361
3.19751
3.33504
3.52334
2.99871
2.66048
2.49719
2.39097
2.33462
2.29247
2.26932
2.2475
2.23432
2.22484
2.21902
2.22271
2.23415
2.25967
2.30459
2.37897
2.50785
2.63457
2.83105
2.96692
3.17154
3.30841
3.47306
3.01631
2.6757
2.50507
2.39782
2.33929
2.29565
2.27231
2.25024
2.23575
2.22635
2.22031
2.22387
2.23476
2.25949
2.30343
2.37621
2.498
2.625
2.816
2.95038
3.15086
3.28292
3.43634
3.02249
2.68601
2.51785
2.40809
2.34721
2.30281
2.27716
2.25405
2.23854
2.22844
2.2219
2.2253
2.23574
2.25937
2.30304
2.37535
2.49468
2.61956
2.79747
2.92953
3.12719
3.25089
3.38771
3.04149
2.70451
2.52671
2.4159
2.35364
2.30637
2.27978
2.25648
2.23998
2.22973
2.22324
2.22654
2.23695
2.26001
2.303
2.37482
2.48967
2.61968
2.79055
2.92049
3.11752
3.22183
3.34798
3.04813
2.71435
2.541
2.42792
2.36126
2.31417
2.28529
2.26111
2.24296
2.23213
2.22522
2.22832
2.23837
2.26093
2.30286
2.37085
2.48736
2.62027
2.78088
2.9043
3.09992
3.21761
3.33298
3.06721
2.73615
2.55135
2.43601
2.3695
2.31879
2.28794
2.26353
2.24438
2.23337
2.22659
2.22959
2.23951
2.26129
2.3022
2.36908
2.4875
2.60597
2.77353
2.89864
3.08951
3.2221
3.32357
3.07429
2.74486
2.56572
2.45023
2.37723
2.32663
2.29392
2.26858
2.24751
2.236
2.2288
2.23161
2.24113
2.26228
2.30202
2.3686
2.4806
2.604
2.76875
2.89749
3.0862
3.20972
3.31216
2.83988
2.52228
2.36523
2.29285
2.254
2.22489
2.22226
2.23965
2.29589
2.34671
2.38616
2.44449
2.54543
2.69705
2.88859
3.10329
3.3867
3.69906
4.07127
4.56074
4.98625
5.49576
5.95155
2.84389
2.52629
2.37025
2.29594
2.25643
2.22257
2.20805
2.21165
2.2557
2.29378
2.3247
2.37387
2.46436
2.60991
2.79776
3.01286
3.31041
3.64164
4.02146
4.51811
4.937
5.43207
5.87257
2.84518
2.52787
2.37349
2.29804
2.25747
2.22052
2.20234
2.20097
2.2319
2.25961
2.2847
2.32748
2.40869
2.54519
2.73285
2.95186
3.24547
3.56959
3.94693
4.45677
4.87238
5.38436
5.83402
2.84942
2.53075
2.37731
2.30132
2.26005
2.22283
2.20283
2.19987
2.21491
2.23233
2.24881
2.283
2.35278
2.47698
2.65363
2.86863
3.16386
3.50416
3.88491
4.39364
4.8199
5.33005
5.75903
2.85085
2.53228
2.37955
2.30308
2.26118
2.22438
2.20285
2.19604
2.20207
2.21118
2.22323
2.25107
2.31026
2.42077
2.58923
2.80139
3.09224
3.42812
3.80666
4.32719
4.74967
5.26775
5.70658
2.85533
2.53415
2.38191
2.30499
2.26305
2.22627
2.20477
2.19772
2.19625
2.19886
2.20469
2.2261
2.27518
2.3706
2.52277
2.72753
3.01176
3.35701
3.72986
4.25535
4.69023
5.20834
5.63783
2.85692
2.53612
2.38416
2.30697
2.26456
2.22911
2.20741
2.19977
2.19552
2.19265
2.19549
2.21151
2.2525
2.33397
2.47174
2.66586
2.94013
3.28398
3.65469
4.17689
4.61822
5.13928
5.56696
2.86154
2.53735
2.38562
2.30811
2.26544
2.23058
2.20923
2.20092
2.19463
2.19067
2.19111
2.2026
2.2357
2.30353
2.42395
2.60763
2.87037
3.21394
3.57305
4.10644
4.55093
5.06584
5.49621
2.86323
2.53961
2.38818
2.31006
2.26674
2.2333
2.21166
2.20251
2.19648
2.19159
2.1912
2.2005
2.22855
2.28598
2.39223
2.55958
2.80757
3.14949
3.504
4.02157
4.48088
4.99343
5.41196
2.86789
2.54067
2.38998
2.31151
2.26768
2.23522
2.21396
2.20427
2.19784
2.19338
2.19206
2.20046
2.22532
2.27333
2.36562
2.52163
2.75557
3.08921
3.43241
3.95475
4.40796
4.90657
5.33093
2.86978
2.54313
2.39225
2.3132
2.26854
2.23703
2.21547
2.20544
2.19904
2.19523
2.19366
2.20171
2.22536
2.26978
2.35149
2.49066
2.70918
3.03757
3.37357
3.87673
4.34249
4.83123
5.239
2.87416
2.54433
2.39505
2.31507
2.26978
2.239
2.21795
2.20733
2.2002
2.19696
2.19544