/*--------------------------------*- C++ -*----------------------------------*\
  =========                 |
  \\      /  F ield         | OpenFOAM: The Open Source CFD Toolbox
   \\    /   O peration     | Website:  https://openfoam.org
    \\  /    A nd           | Version:  7
     \\/     M anipulation  |
\*---------------------------------------------------------------------------*/
FoamFile
{
    version     2.0;
    format      ascii;
    class       volScalarField;
    location    "80";
    object      p;
}
// * * * * * * * * * * * * * * * * * * * * * * * * * * * * * * * * * * * * * //

dimensions      [0 2 -2 0 0 0 0];

internalField   nonuniform List<scalar> 
12842
(
0.290944
0.293802
0.271239
0.235785
0.192255
0.139055
0.0769132
0.0156082
-0.02292
-0.00430392
0.115912
0.387301
0.857675
1.56375
2.52105
3.71677
5.10805
6.62641
8.18954
9.71459
11.135
12.3977
13.492
0.118545
0.103696
0.0469837
-0.0449156
-0.169863
-0.334329
-0.543597
-0.792698
-1.0616
-1.31438
-1.50116
-1.56241
-1.4354
-1.06462
-0.414162
0.522097
1.71509
3.10239
4.59954
6.11432
7.56828
8.89025
10.0639
-0.0113102
-0.0492443
-0.137137
-0.280733
-0.479321
-0.745516
-1.09096
-1.51468
-1.99771
-2.50274
-2.97551
-3.34829
-3.54548
-3.49534
-3.14437
-2.47043
-1.49132
-0.264994
1.12233
2.57115
3.99652
5.31282
6.50791
-0.110647
-0.169161
-0.287338
-0.479426
-0.744812
-1.1051
-1.57809
-2.16573
-2.84965
-3.59175
-4.33466
-5.00409
-5.51342
-5.77666
-5.72468
-5.32108
-4.5738
-3.537
-2.29771
-0.960585
0.387215
1.64792
2.82008
-0.188915
-0.260586
-0.409863
-0.645887
-0.970108
-1.41667
-2.0078
-2.74751
-3.61833
-4.58262
-5.58164
-6.53668
-7.3519
-7.92893
-8.18388
-8.06658
-7.57486
-6.75843
-5.70347
-4.51798
-3.2878
-2.12228
-1.00662
-0.251546
-0.328394
-0.509958
-0.782525
-1.15639
-1.68021
-2.3774
-3.25391
-4.29449
-5.46352
-6.70322
-7.93307
-9.05015
-9.94548
-10.5207
-10.7113
-10.5034
-9.9405
-9.10571
-8.10892
-7.03203
-5.99613
-4.96599
-0.301783
-0.377451
-0.591385
-0.89059
-1.30482
-1.89565
-2.6842
-3.67916
-4.86967
-6.22317
-7.68607
-9.17873
-10.5937
-11.8134
-12.7245
-13.2474
-13.3535
-13.078
-12.4984
-11.7262
-10.8368
-9.96547
-9.04955
-0.341748
-0.412138
-0.656589
-0.971591
-1.41772
-2.06384
-2.9269
-4.02001
-5.33935
-6.85582
-8.52396
-10.2672
-11.9763
-13.5265
-14.7892
-15.6682
-16.1175
-16.162
-15.8707
-15.3583
-14.6903
-14.0226
-13.2491
-0.376355
-0.435662
-0.705224
-1.02367
-1.49252
-2.17724
-3.09203
-4.2537
-5.66745
-7.30467
-9.13193
-11.0754
-13.0278
-14.8588
-16.4262
-17.6189
-18.3733
-18.7051
-18.6743
-18.4039
-17.9415
-17.4855
-16.8523
-0.411462
-0.4544
-0.747304
-1.06337
-1.5536
-2.26807
-3.22372
-4.43849
-5.92726
-7.65851
-9.61199
-11.714
-13.8614
-15.9186
-17.7333
-19.1829
-20.1898
-20.7639
-20.9589
-20.9046
-20.6357
-20.369
-19.8931
-0.44043
-0.46758
-0.781231
-1.09322
-1.60697
-2.34691
-3.34068
-4.60464
-6.16459
-7.98447
-10.059
-12.3131
-14.6499
-16.9284
-18.9887
-20.6988
-21.9691
-22.8042
-23.2511
-23.4457
-23.4086
-23.3684
-23.0901
-0.463667
-0.47616
-0.806046
-1.11384
-1.65167
-2.41174
-3.44042
-4.74938
-6.37563
-8.27872
-10.469
-12.8699
-15.3924
-17.8906
-20.2
-22.1811
-23.733
-24.8557
-25.5874
-26.0682
-26.3022
-26.5269
-26.4782
-0.483083
-0.481466
-0.822871
-1.12805
-1.68882
-2.46405
-3.52485
-4.87516
-6.56288
-8.5447
-10.8462
-13.3905
-16.0977
-18.818
-21.3854
-23.654
-25.5125
-26.9548
-28.0068
-28.8106
-29.351
-29.8738
-30.0853
-0.500035
-0.484212
-0.833478
-1.139
-1.72011
-2.50698
-3.59785
-4.98692
-6.732
-8.78947
-11.1987
-13.8844
-16.7769
-19.7241
-22.5608
-25.1367
-27.3296
-29.1246
-30.5316
-31.6913
-32.568
-33.4159
-33.9151
-0.515035
-0.48462
-0.839811
-1.14895
-1.74665
-2.54329
-3.66249
-5.08843
-6.8871
-9.01779
-11.5313
-14.3567
-17.4351
-20.6142
-23.7326
-26.6366
-29.1931
-31.375
-33.171
-34.7175
-35.9562
-37.1521
-37.9607
-0.528384
-0.482872
-0.843794
-1.15907
-1.76891
-2.5748
-3.72039
-5.18147
-7.02997
-9.23143
-11.8454
-14.8084
-18.0725
-21.4883
-24.9008
-28.1547
-31.1052
-33.7093
-35.9285
-37.8884
-39.5086
-41.0596
-42.1844
-0.5402
-0.479278
-0.847153
-1.16952
-1.787
-2.60241
-3.77196
-5.26625
-7.16055
-9.42987
-12.1396
-15.2376
-18.6868
-22.344
-26.0633
-29.6896
-33.0664
-36.1285
-38.8037
-41.1962
-43.2072
-45.0983
-46.5289
-0.550576
-0.474227
-0.851123
-1.17979
-1.80106
-2.62653
-3.81713
-5.34234
-7.2783
-9.61209
-12.4126
-15.6427
-19.276
-23.1793
-27.2183
-31.2397
-35.0754
-38.6315
-41.7948
-44.6352
-47.0427
-49.2483
-50.9656
-0.559197
-0.468309
-0.856357
-1.18905
-1.81137
-2.64728
-3.85578
-5.40936
-7.38283
-9.77719
-12.6634
-16.0224
-19.8387
-23.9928
-28.3636
-32.8022
-37.1291
-41.216
-44.9005
-48.2023
-51.0043
-53.4896
-55.4474
-0.56572
-0.462272
-0.86284
-1.19654
-1.81846
-2.66473
-3.88814
-5.46743
-7.47466
-9.9256
-12.8925
-16.3775
-20.3758
-24.7847
-29.498
-34.3732
-39.2205
-43.8724
-48.1105
-51.8878
-55.0778
-57.8052
-59.9348
-0.569834
-0.456905
-0.870025
-1.20179
-1.82288
-2.67877
-3.91432
-5.51651
-7.55407
-10.0573
-13.1003
-16.7078
-20.8863
-25.5521
-30.6145
-35.9398
-41.3307
-46.5802
-51.4081
-55.6891
-59.2757
-62.2277
-64.4668
-0.571571
-0.452838
-0.877316
-1.20458
-1.82519
-2.68963
-3.93529
-5.5579
-7.62287
-10.1742
-13.2885
-17.0144
-21.3697
-26.2913
-31.7037
-37.4844
-43.4341
-49.3118
-54.777
-59.6189
-63.6528
-66.864
-69.2011
-0.570852
-0.450263
-0.883478
-1.2051
-1.82558
-2.69655
-3.95019
-5.59032
-7.67996
-10.275
-13.4559
-17.2951
-21.8217
-26.9935
-32.7494
-38.9808
-45.4948
-52.0299
-58.1977
-63.7033
-68.3091
-71.9112
-74.4557
-0.567109
-0.449928
-0.888145
-1.20361
-1.82608
-2.70346
-3.96557
-5.62137
-7.73205
-10.3628
-13.5989
-17.536
-22.2154
-27.6174
-33.6958
-40.3604
-47.4363
-54.6624
-61.6287
-67.9732
-73.3936
-77.6853
-80.7736
-0.569292
-0.454178
-0.894894
-1.2055
-1.83147
-2.71527
-3.98606
-5.6552
-7.78299
-10.4415
-13.7226
-17.7437
-22.5592
-28.1719
-34.5483
-41.6163
-49.2283
-57.1468
-64.9836
-72.3501
-78.8873
-84.3003
-88.4846
-0.568665
-0.458456
-0.900088
-1.2085
-1.84057
-2.73283
-4.01567
-5.70049
-7.84834
-10.5356
-13.8619
-17.9632
-22.9053
-28.7096
-35.3495
-42.7658
-50.8435
-59.3861
-68.0686
-76.5263
-84.3644
-91.2392
-97.0415
-0.56496
-0.461758
-0.902663
-1.21156
-1.85113
-2.75222
-4.04808
-5.74769
-7.91502
-10.628
-13.996
-18.1692
-23.2247
-29.1966
-36.059
-43.7557
-52.2018
-61.2483
-70.6556
-80.1167
-89.2236
-97.6163
-105.191
-0.560731
-0.464526
-0.903772
-1.21518
-1.86247
-2.77161
-4.07956
-5.79092
-7.97462
-10.7078
-14.1116
-18.3468
-23.501
-29.615
-36.6554
-44.5538
-53.2428
-62.6119
-72.5004
-82.6662
-92.6983
-102.229
-111.143
-0.557551
-0.467089
-0.904734
-1.22015
-1.87484
-2.79102
-4.10958
-5.82959
-8.02629
-10.7746
-14.2084
-18.4959
-23.7339
-29.9637
-37.1346
-45.1477
-53.9293
-63.385
-73.4045
-83.7965
-94.1542
-104.103
-113.506
-0.555968
-0.469494
-0.906418
-1.22687
-1.88842
-2.81074
-4.13848
-5.86486
-8.07197
-10.832
-14.2907
-18.6217
-23.9286
-30.2467
-37.4989
-45.5351
-54.2448
-63.5184
-73.261
-83.3154
-93.2926
-102.834
-111.806
-0.556203
-0.47183
-0.909289
-1.23506
-1.9027
-2.83031
-4.16577
-5.89696
-8.11232
-10.8815
-14.3603
-18.7259
-24.0856
-30.4636
-37.747
-45.7168
-54.1906
-63.0132
-72.0753
-81.245
-90.1857
-98.6013
-106.398
-0.558218
-0.474134
-0.913327
-1.24403
-1.91673
-2.84872
-4.19037
-5.92525
-8.14681
-10.923
-14.4165
-18.8075
-24.203
-30.6125
-37.8789
-45.701
-53.792
-61.9257
-69.96
-77.7983
-85.2083
-92.0057
-98.168
-0.561571
-0.476353
-0.918158
-1.25282
-1.92944
-2.86494
-4.21131
-5.9491
-8.17489
-10.956
-14.4584
-18.8649
-24.2786
-30.6918
-37.8968
-45.5036
-53.0964
-60.3604
-67.1184
-73.328
-78.9158
-83.8482
-88.1868
-0.565489
-0.478294
-0.923184
-1.26064
-1.94015
-2.87846
-4.22841
-5.96869
-8.19701
-10.981
-14.4864
-18.8983
-24.3124
-30.7034
-37.8091
-45.1513
-52.1732
-58.4617
-63.8144
-68.263
-71.924
-74.9348
-77.4494
-0.569176
-0.479824
-0.927905
-1.26701
-1.94868
-2.88944
-4.24228
-5.98503
-8.21453
-10.9992
-14.5017
-18.9086
-24.3057
-30.6509
-37.6269
-44.6763
-51.1047
-56.396
-60.341
-63.0555
-64.8474
-66.0196
-66.8235
-0.572048
-0.480897
-0.932017
-1.27196
-1.95543
-2.89862
-4.25414
-5.99961
-8.22928
-11.0126
-14.5062
-18.8979
-24.2608
-30.5394
-37.3642
-44.1145
-49.9791
-54.3384
-56.9951
-58.1385
-58.2428
-57.768
-57.0404
-0.573871
-0.481644
-0.935508
-1.2758
-1.96107
-2.907
-4.26537
-6.01388
-8.24287
-11.0224
-14.5012
-18.8671
-24.1795
-30.3727
-37.0342
-43.4993
-48.8788
-52.4541
-54.0444
-53.8957
-52.6029
-50.7616
-48.7437
-0.574682
-0.482238
-0.93851
-1.27906
-1.96641
-2.91554
-4.27709
-6.02886
-8.25629
-11.0293
-14.4873
-18.8171
-24.0628
-30.1544
-36.6489
-42.86
-47.8729
-50.8847
-51.7141
-50.6722
-48.4161
-45.5888
-42.589
-0.574722
-0.482898
-0.941258
-1.28223
-1.97206
-2.92486
-4.2899
-6.04483
-8.26962
-11.0331
-14.4643
-18.7472
-23.911
-29.8862
-36.2167
-42.2179
-47.0084
-49.7399
-50.1959
-48.7467
-46.0834
-42.8006
-39.2591
-0.57428
-0.483754
-0.943935
-1.28567
-1.9784
-2.93521
-4.30388
-6.06149
-8.28227
-11.0329
-14.4311
-18.6569
-23.7242
-29.5693
-35.7432
-41.5872
-46.3087
-49.0825
-49.6291
-48.3375
-45.9075
-42.8459
-39.3897
-0.573649
-0.484899
-0.946686
-1.28956
-1.9855
-2.94646
-4.31864
-6.07808
-8.29323
-11.0275
-14.3865
-18.545
-23.5023
-29.2039
-35.2293
-40.9725
-45.7722
-48.9108
-50.0499
-49.5432
-48.0895
-46.0595
-43.5229
-0.573033
-0.486311
-0.949547
-1.29391
-1.99325
-2.95826
-4.33361
-6.09374
-8.30145
-11.0157
-14.3298
-18.4113
-23.2456
-28.7905
-34.6725
-40.3684
-45.3723
-49.1541
-51.3686
-52.2708
-52.5208
-52.3296
-51.5868
-0.572579
-0.487954
-0.952525
-1.29864
-2.00139
-2.9702
-4.34818
-6.10771
-8.30613
-10.9969
-14.2604
-18.2558
-22.9547
-28.3292
-34.0664
-39.7559
-45.0579
-49.6789
-53.3409
-56.1726
-58.6752
-60.8633
-62.3896
-0.572332
-0.489724
-0.955556
-1.30359
-2.00967
-2.98187
-4.36187
-6.11952
-8.30686
-10.9709
-14.1787
-18.079
-22.6309
-27.8205
-33.4021
-39.1044
-44.7529
-50.3057
-55.5939
-60.6368
-65.6637
-70.3789
-74.1466
-0.572306
-0.491551
-0.958603
-1.30862
-2.01785
-2.99301
-4.37441
-6.12902
-8.30368
-10.9382
-14.0853
-17.8824
-22.2753
-27.2646
-32.6698
-38.3737
-44.3574
-50.8208
-57.7153
-64.9714
-72.4477
-79.4891
-85.1651
-0.572449
-0.493335
-0.9616
-1.31361
-2.02577
-3.00349
-4.38574
-6.13633
-8.29691
-10.8993
-13.9813
-17.6671
-21.8894
-26.6615
-31.8593
-37.5207
-43.7731
-51.0076
-59.2968
-68.5121
-78.0657
-86.9841
-94.1363
-0.572714
-0.49505
-0.964543
-1.31848
-2.03338
-3.01332
-4.39601
-6.14184
-8.2872
-10.8552
-13.8681
-17.4351
-21.475
-26.0112
-30.9629
-36.5057
-42.9029
-50.6431
-59.9355
-70.6025
-81.7283
-92.0298
-100.23
-0.572984
-0.496616
-0.967384
-1.3232
-2.04069
-3.02262
-4.4055
-6.14606
-8.27527
-10.807
-13.747
-17.1881
-21.034
-25.3142
-29.9773
-35.302
-41.6525
-49.5624
-59.3781
-70.8319
-82.9117
-94.1169
-103.032
-0.572914
-0.49807
-0.970074
-1.3277
-2.04775
-3.03174
-4.41507
-6.15077
-8.26432
-10.7603
-13.6277
-16.9426
-20.5932
-24.6086
-28.9594
-33.9622
-40.0523
-47.7987
-57.6214
-69.2144
-81.5954
-93.2411
-102.556
-0.574194
-0.500073
-0.973412
-1.3326
-2.05542
-3.04204
-4.42705
-6.16004
-8.2614
-10.7275
-13.5324
-16.7366
-20.216
-23.9922
-28.0588
-32.6837
-38.4003
-45.7373
-55.1272
-66.4142
-78.6261
-90.3901
-99.8474
-0.575012
-0.501753
-0.976597
-1.33747
-2.06379
-3.05433
-4.44332
-6.17719
-8.27184
-10.717
-13.4749
-16.5927
-19.9399
-23.5255
-27.3687
-31.6377
-37.0043
-43.8349
-52.5537
-63.3115
-75.0648
-86.6986
-96.0409
-0.575251
-0.503118
-0.979581
-1.34237
-2.07307
-3.06901
-4.46436
-6.2026
-8.29548
-10.7276
-13.4522
-16.5052
-19.7559
-23.1975
-26.8738
-30.8773
-35.9443
-42.2636
-50.2461
-60.3471
-71.4637
-82.7581
-91.7425
-0.575171
-0.504421
-0.982519
-1.34746
-2.08342
-3.08614
-4.4899
-6.23524
-8.32999
-10.7547
-13.4562
-16.4611
-19.6437
-22.9781
-26.5353
-30.3901
-35.1853
-41.0567
-48.3794
-57.7696
-68.1558
-78.9127
-87.3613
-0.574814
-0.505771
-0.985499
-1.35296
-2.09506
-3.10584
-4.51969
-6.27408
-8.37294
-10.7938
-13.4787
-16.4469
-19.5807
-22.8337
-26.3053
-30.099
-34.6507
-40.1765
-46.9768
-55.6489
-65.2792
-75.3454
-83.16
-0.574233
-0.507226
-0.988605
-1.35897
-2.10797
-3.12782
-4.55278
-6.31719
-8.42104
-10.8396
-13.5113
-16.4502
-19.5472
-22.7358
-26.1475
-29.9041
-34.2576
-39.5508
-45.9509
-53.9338
-62.8275
-72.1241
-79.248
-0.57344
-0.508827
-0.991904
-1.36566
-2.12225
-3.15203
-4.58885
-6.3638
-8.47282
-10.8898
-13.5502
-16.4654
-19.5337
-22.6738
-26.0547
-29.7496
-33.9696
-39.1448
-45.2448
-52.6354
-60.8623
-69.4114
-75.8515
-0.572837
-0.510692
-0.995708
-1.37326
-2.13812
-3.17852
-4.62762
-6.41312
-8.52672
-10.9414
-13.59
-16.483
-19.5245
-22.6208
-25.9808
-29.5776
-33.7073
-38.7956
-44.5941
-51.4194
-58.9262
-66.638
-72.3016
-0.571742
-0.512341
-0.99911
-1.3807
-2.15379
-3.20444
-4.66466
-6.45853
-8.57331
-10.9814
-13.6122
-16.4769
-19.4834
-22.5298
-25.8561
-29.3274
-33.3861
-38.3613
-43.8699
-50.2218
-57.0244
-63.9127
-68.8003
-0.57092
-0.514356
-1.00304
-1.3889
-2.17019
-3.23063
-4.70064
-6.50062
-8.61335
-11.0108
-13.6187
-16.4493
-19.4116
-22.3948
-25.6597
-28.9992
-32.9763
-37.7603
-42.9431
-48.8291
-54.9142
-60.9759
-65.1278
-0.570428
-0.516714
-1.00752
-1.39782
-2.18714
-3.25682
-4.73539
-6.53965
-8.64808
-11.032
-13.6142
-16.4059
-19.3167
-22.2212
-25.3931
-28.6078
-32.4522
-36.955
-41.7498
-47.105
-52.4422
-57.6648
-61.1456
-0.570149
-0.519196
-1.01223
-1.40695
-2.20394
-3.28214
-4.76803
-6.57498
-8.67757
-11.0462
-13.6011
-16.3506
-19.2056
-22.0206
-25.0737
-28.1826
-31.8088
-35.9542
-40.3144
-45.0737
-49.6332
-54.0004
-56.8444
-0.570003
-0.521632
-1.01696
-1.41592
-2.2201
-3.30602
-4.79813
-6.60652
-8.70242
-11.0547
-13.5822
-16.2877
-19.0852
-21.8072
-24.7217
-27.7452
-31.0641
-34.7982
-38.6959
-42.8198
-46.5819
-50.0723
-52.2392
-0.570007
-0.523995
-1.02161
-1.42454
-2.23541
-3.32834
-4.82588
-6.63502
-8.72417
-11.0601
-13.5616
-16.2228
-18.9625
-21.5935
-24.3527
-27.2946
-30.2487
-33.5391
-36.944
-40.4054
-43.3526
-45.9953
-47.4484
-0.570097
-0.526227
-1.02606
-1.43268
-2.24981
-3.3492
-4.85176
-6.66143
-8.74436
-11.0646
-13.542
-16.1596
-18.8415
-21.3855
-23.9773
-26.8167
-29.393
-32.2305
-35.101
-37.8827
-40.025
-41.835
-42.546
-0.570218
-0.528315
-1.03023
-1.44026
-2.26333
-3.36881
-4.87626
-6.68665
-8.76417
-11.0698
-13.5249
-16.0999
-18.7237
-21.1851
-23.6051
-26.3026
-28.5247
-30.9236
-33.2248
-35.3094
-36.6953
-37.6265
-37.5904
-0.570276
-0.530228
-1.03408
-1.44732
-2.27609
-3.3875
-4.89993
-6.71139
-8.78429
-11.0761
-13.5099
-16.0428
-18.6085
-20.9898
-23.2426
-25.7517
-27.6617
-29.6494
-31.3783
-32.741
-33.4194
-33.4939
-32.8078
-0.570267
-0.532026
-1.03768
-1.45399
-2.28836
-3.40567
-4.92331
-6.73628
-8.80508
-11.0836
-13.4958
-15.9866
-18.4941
-20.7952
-22.8919
-25.1723
-26.8125
-28.4145
-29.5957
-30.2291
-30.2065
-29.56
-28.3468
-0.570171
-0.533749
-1.04109
-1.46047
-2.30043
-3.42374
-4.94682
-6.76162
-8.82646
-11.0915
-13.481
-15.9285
-18.3765
-20.5941
-22.5467
-24.5696
-25.9735
-27.2001
-27.8577
-27.8046
-27.1008
-25.8228
-24.1754
-0.570039
-0.535482
-1.04448
-1.46694
-2.31253
-3.44196
-4.97064
-6.78737
-8.84792
-11.0989
-13.4631
-15.8649
-18.2509
-20.3777
-22.1959
-23.9404
-25.1259
-25.974
-26.1193
-25.461
-24.1251
-22.2997
-20.2988
-0.569867
-0.537242
-1.04789
-1.47352
-2.3248
-3.46042
-4.99467
-6.81313
-8.86851
-11.1039
-13.4395
-15.7916
-18.1105
-20.1352
-21.8258
-23.2832
-24.2378
-24.7019
-24.3405
-23.1703
-21.3111
-19.0903
-16.7689
-0.569702
-0.539068
-1.0514
-1.48026
-2.33725
-3.47903
-5.0186
-6.83825
-8.88714
-11.1049
-13.4078
-15.7049
-17.9492
-19.8569
-21.4198
-22.5973
-23.2851
-23.3595
-22.5016
-20.9104
-18.688
-16.1998
-13.5837
-0.569525
-0.540931
-1.055
-1.48715
-2.34979
-3.49759
-5.04201
-6.86202
-8.90275
-11.1005
-13.3661
-15.6018
-17.7616
-19.5351
-20.9586
-21.8677
-22.2555
-21.9347
-20.6038
-18.6486
-16.1844
-13.4124
-10.6362
-0.56937
-0.542836
-1.05868
-1.49411
-2.3623
-3.51584
-5.0645
-6.88383
-8.91458
-11.0896
-13.3133
-15.4809
-17.5456
-19.1676
-20.4292
-21.0742
-21.1457
-20.4308
-18.6677
-16.356
-13.6511
-10.6585
-7.91059
-0.569203
-0.544737
-1.06238
-1.50109
-2.37465
-3.53356
-5.08572
-6.90325
-8.92221
-11.0719
-13.2495
-15.3425
-17.3015
-18.7571
-19.8307
-20.2085
-19.9574
-18.8593
-16.7196
-14.0916
-11.1745
-8.12014
-5.49549
-0.569054
-0.546639
-1.06609
-1.508
-2.3867
-3.55057
-5.10546
-6.92006
-8.92558
-11.0477
-13.1757
-15.1886
-17.0329
-18.3106
-19.1756
-19.2827
-18.7036
-17.2441
-14.7914
-11.9161
-8.90359
-5.92665
-3.43583
-0.568883
-0.548501
-1.06976
-1.5148
-2.39838
-3.56677
-5.12362
-6.93423
-8.92487
-11.0173
-13.0929
-15.0214
-16.7445
-17.8383
-18.4824
-18.32
-17.4102
-15.6206
-12.9269
-9.89159
-6.85179
-3.99982
-1.61805
-0.56872
-0.55034
-1.07338
-1.52144
-2.40964
-3.58209
-5.1402
-6.94587
-8.92045
-10.9817
-13.0028
-14.844
-16.4424
-17.3523
-17.7696
-17.3461
-16.1153
-14.0346
-11.1724
-8.07069
-5.01216
-2.27138
0.0155746
-0.568524
-0.55213
-1.07692
-1.52791
-2.42047
-3.59656
-5.15526
-6.95511
-8.91262
-10.9412
-12.9065
-14.6587
-16.1311
-16.8623
-17.0549
-16.3785
-14.8576
-12.5295
-9.56079
-6.47344
-3.42827
-0.780625
1.42559
-0.568331
-0.553896
-1.0804
-1.5342
-2.43086
-3.61017
-5.16886
-6.96211
-8.90166
-10.8964
-12.8048
-14.4673
-15.8149
-16.3722
-16.3526
-15.4293
-13.6558
-11.1391
-8.11162
-5.07869
-2.11008
0.44172
2.55918
-0.568096
-0.555618
-1.08379
-1.54033
-2.44083
-3.62297
-5.18106
-6.96693
-8.88764
-10.8472
-12.6979
-14.2701
-15.496
-15.8871
-15.6627
-14.5046
-12.5122
-9.87991
-6.84325
-3.85155
-1.02565
1.4103
3.43924
-0.567861
-0.557326
-1.08712
-1.54629
-2.45039
-3.63497
-5.19189
-6.96959
-8.87054
-10.7937
-12.5856
-14.0673
-15.1753
-15.4129
-14.987
-13.621
-11.4435
-8.74916
-5.74192
-2.80271
-0.119933
2.18752
4.11667
-0.567578
-0.559
-1.09036
-1.55211
-2.45955
-3.64619
-5.20133
-6.96999
-8.85011
-10.7353
-12.467
-13.8574
-14.8503
-14.9468
-14.3327
-12.798
-10.4727
-7.73471
-4.76767
-1.93367
0.636453
2.81166
4.6084
-0.567294
-0.560667
-1.09356
-1.55777
-2.46832
-3.65659
-5.20931
-6.96802
-8.82608
-10.6715
-12.3413
-13.6392
-14.5185
-14.4805
-13.6963
-12.038
-9.6076
-6.83557
-3.91523
-1.20734
1.24691
3.27639
4.91303
-0.566957
-0.562304
-1.09668
-1.5633
-2.47668
-3.66616
-5.21576
-6.96344
-8.79802
-10.6016
-12.2075
-13.4111
-14.1772
-14.008
-13.0628
-11.3211
-8.8323
-6.05317
-3.20238
-0.606742
1.71003
3.57762
5.05974
-0.566615
-0.563936
-1.09973
-1.56866
-2.48462
-3.67484
-5.22054
-6.95605
-8.76556
-10.5251
-12.0647
-13.1719
-13.8248
-13.5312
-12.4252
-10.6267
-8.12383
-5.37783
-2.61912
-0.144645
2.02684
3.73952
5.08921
-0.566213
-0.565535
-1.10271
-1.57388
-2.4921
-3.68255
-5.22352
-6.94558
-8.72827
-10.4414
-11.912
-12.9204
-13.4594
-13.0547
-11.7909
-9.9468
-7.46437
-4.79015
-2.14226
0.191612
2.21715
3.78935
5.02601
-0.565803
-0.567124
-1.10562
-1.57891
-2.49909
-3.68923
-5.22454
-6.9318
-8.68584
-10.3501
-11.7492
-12.6565
-13.0801
-12.5817
-11.1754
-9.28663
-6.84617
-4.27085
-1.7517
0.441386
2.31804
3.76166
4.89349
-0.565325
-0.568671
-1.10842
-1.58377
-2.50555
-3.69479
-5.22346
-6.91446
-8.63792
-10.2509
-11.5758
-12.3802
-12.6858
-12.1105
-10.5886
-8.65493
-6.26431
-3.80197
-1.42956
0.633375
2.36218
3.68242
4.71282
-0.564831
-0.570198
-1.11114
-1.58841
-2.51144
-3.69914
-5.22013
-6.89337
-8.58432
-10.1436
-11.3921
-12.0925
-12.2773
-11.6379
-10.031
-8.05973
-5.71734
-3.37265
-1.1576
0.777058
2.3619
3.56657
4.50197
-0.564257
-0.571673
-1.11374
-1.59283
-2.5167
-3.7022
-5.21439
-6.86831
-8.52478
-10.0281
-11.1982
-11.7945
-11.8553
-11.1611
-9.49617
-7.50164
-5.20895
-2.97918
-0.921693
0.880382
2.32634
3.42265
4.27529
-0.563659
-0.573117
-1.11623
-1.59698
-2.52129
-3.70387
-5.20611
-6.83914
-8.45921
-9.90457
-10.9945
-11.488
-11.4223
-10.6762
-8.98047
-6.9768
-4.74378
-2.62056
-0.713336
0.953152
2.26722
3.26344
4.04124
-0.562966
-0.574498
-1.11857
-1.60087
-2.52516
-3.70408
-5.19517
-6.80566
-8.38747
-9.77293
-10.7814
-11.1743
-10.9819
-10.1773
-8.48182
-6.48029
-4.31956
-2.29477
-0.52787
1.00567
2.19475
3.09857
3.80513
-0.562237
-0.575836
-1.12078
-1.60445
-2.52825
-3.70272
-5.1814
-6.76774
-8.30945
-9.63342
-10.5596
-10.8552
-10.5402
-9.66521
-7.99531
-6.00936
-3.93126
-2.00129
-0.364123
1.04001
2.11264
2.93194
3.57042
-0.561396
-0.577103
-1.12282
-1.60773
-2.53054
-3.69976
-5.16476
-6.72528
-8.22515
-9.48616
-10.3294
-10.5317
-10.1033
-9.14922
-7.51488
-5.55984
-3.57792
-1.74661
-0.227352
1.05235
2.01787
2.76074
3.33895
-0.560516
-0.578309
-1.12469
-1.61063
-2.53191
-3.69497
-5.14492
-6.67792
-8.1342
-9.33111
-10.0916
-10.2046
-9.67457
-8.64175
-7.03813
-5.12764
-3.25401
-1.52463
-0.113148
1.04602
1.91454
2.58888
3.11248
-0.559582
-0.5795
-1.12646
-1.61334
-2.53268
-3.68883
-5.12243
-6.62612
-8.03704
-9.16868
-9.84646
-9.87513
-9.25804
-8.15644
-6.57096
-4.71703
-2.98444
-1.37732
-0.0398117
1.01234
1.79754
2.41337
2.88819
-0.559122
-0.580694
-1.12832
-1.61597
-2.53251
-3.6797
-5.09327
-6.56263
-7.92286
-8.98551
-9.58105
-9.52906
-8.83032
-7.67749
-6.11828
-4.33466
-2.67544
-1.15673
0.075876
1.00189
1.70441
2.2638
2.69775
-0.556295
-0.580027
-1.12698
-1.61447
-2.52509
-3.65817
-5.04428
-6.47052
-7.77215
-8.76192
-9.2806
-9.1711
-8.43148
-7.27065
-5.77119
-4.11289
-2.59058
-1.20864
-0.0665992
0.812319
1.48575
2.01409
2.42305
-0.554166
-0.579756
-1.12536
-1.61139
-2.51264
-3.62583
-4.976
-6.34931
-7.58319
-8.49418
-8.93327
-8.77469
-8.01432
-6.86494
-5.44845
-3.92706
-2.53921
-1.29193
-0.246057
0.584519
1.22866
1.72884
2.11808
-0.552819
-0.580312
-1.12414
-1.60777
-2.49663
-3.58468
-4.89094
-6.20166
-7.35772
-8.18215
-8.53444
-8.32312
-7.54528
-6.41035
-5.08232
-3.67931
-2.39742
-1.26799
-0.331845
0.416989
1.00587
1.46597
1.83092
-0.551345
-0.580998
-1.12247
-1.60256
-2.4757
-3.53311
-4.7872
-6.02538
-7.0928
-7.82264
-8.0846
-7.821
-7.03669
-5.92447
-4.67946
-3.38304
-2.20392
-1.18729
-0.360369
0.297551
0.820859
1.23464
1.56845
-0.549116
-0.58124
-1.11952
-1.5946
-2.4481
-3.46869
-4.66176
-5.81717
-6.78526
-7.41324
-7.58564
-7.27588
-6.50431
-5.4347
-4.27152
-3.08781
-2.02256
-1.11679
-0.386145
0.191969
0.655243
1.02484
1.32509
-0.546211
-0.580904
-1.11494
-1.58311
-2.41258
-3.38971
-4.5128
-5.57575
-6.43538
-6.956
-7.04039
-6.68926
-5.94455
-4.94213
-3.87279
-2.8136
-1.86925
-1.07058
-0.423823
0.0875387
0.499041
0.828062
1.09627
-0.542497
-0.579805
-1.10832
-1.56744
-2.36813
-3.29494
-4.33938
-5.30131
-6.04584
-6.45622
-6.45479
-6.066
-5.35548
-4.44082
-3.48446
-2.55659
-1.73388
-1.03788
-0.468455
-0.0169982
0.347505
0.639695
0.879397
-0.537947
-0.577718
-1.09917
-1.54673
-2.31359
-3.18313
-4.14079
-4.99468
-5.62041
-5.92179
-5.84125
-5.42383
-4.75508
-3.93909
-3.10782
-2.31165
-1.607
-1.00898
-0.513288
-0.117914
0.203227
0.462916
0.67681
-0.532316
-0.574347
-1.08688
-1.52017
-2.24789
-3.05325
-3.91681
-4.65757
-5.16423
-5.36321
-5.21755
-4.78779
-4.17077
-3.45502
-2.74615
-2.07601
-1.48166
-0.975859
-0.550266
-0.207914
0.0728918
0.302698
0.492979
-0.525708
-0.569578
-1.07106
-1.487
-2.17016
-2.90489
-3.66844
-4.29371
-4.68515
-4.79379
-4.60252
-4.17904
-3.62176
-3.00242
-2.40354
-1.84673
-1.35248
-0.931572
-0.571615
-0.278213
-0.0348462
0.166555
0.334847
-0.517973
-0.563203
-1.05121
-1.44657
-2.07985
-2.73838
-3.39821
-3.90927
-4.19376
-4.22784
-4.01141
-3.61003
-3.11568
-2.58583
-2.08348
-1.62396
-1.21735
-0.871824
-0.572825
-0.325144
-0.117377
0.0570244
0.204406
-0.509141
-0.555065
-1.02686
-1.39811
-1.9766
-2.55484
-3.11018
-3.51252
-3.70233
-3.67873
-3.45461
-3.08683
-2.65553
-2.20652
-1.78847
-1.41182
-1.07956
-0.798351
-0.553596
-0.347765
-0.173092
-0.0245903
0.101853
-0.498797
-0.544663
-0.997221
-1.3408
-1.86028
-2.35608
-2.80955
-3.11271
-3.22297
-3.15762
-2.93894
-2.61218
-2.24315
-1.86669
-1.52064
-1.21341
-0.943081
-0.714972
-0.516383
-0.346945
-0.201996
-0.0773076
0.0298532
-0.486713
-0.53155
-0.961483
-1.27374
-1.73106
-2.14469
-2.50234
-2.71906
-2.76622
-2.67325
-2.46867
-2.18641
-1.8775
-1.56641
-1.28149
-1.03088
-0.811057
-0.625501
-0.46453
-0.325311
-0.205542
-0.101738
-0.0118462
-0.472261
-0.514864
-0.918638
-1.19626
-1.58975
-1.92408
-2.19491
-2.33977
-2.34029
-2.23156
-2.04587
-1.80748
-1.55403
-1.3012
-1.06885
-0.864441
-0.684943
-0.532529
-0.40116
-0.286334
-0.186984
-0.100161
-0.0246604
-0.455183
-0.494014
-0.867965
-1.10812
-1.43795
-1.69843
-1.89357
-1.98147
-1.95051
-1.83556
-1.67036
-1.47206
-1.26726
-1.065
-0.877879
-0.712355
-0.566268
-0.44072
-0.332755
-0.237606
-0.154863
-0.0822003
-0.0187482
-0.434773
-0.468095
-0.808863
-1.00982
-1.27819
-1.47247
-1.60412
-1.64899
-1.5995
-1.48581
-1.3407
-1.17697
-1.01299
-0.85344
-0.704975
-0.572506
-0.454801
-0.35201
-0.263113
-0.184524
-0.115801
-0.0552222
-0.00224895
-0.410885
-0.436705
-0.741411
-0.902627
-1.11378
-1.25114
-1.33167
-1.34555
-1.28789
-1.18135
-1.05552
-0.920804
-0.789951
-0.665353
-0.549233
-0.444831
-0.351411
-0.268466
-0.195864
-0.131531
-0.0749206
-0.0246842
0.0195537
-0.382939
-0.39934
-0.666146
-0.788765
-0.948686
-1.03928
-1.08056
-1.07345
-1.01527
-0.920546
-0.813645
-0.703545
-0.599237
-0.502552
-0.412934
-0.332069
-0.259271
-0.193709
-0.135424
-0.0835396
-0.037714
0.00311879
0.0391335
-0.351035
-0.356246
-0.584523
-0.671219
-0.787189
-0.84144
-0.854478
-0.834335
-0.780694
-0.700914
-0.612949
-0.524372
-0.441515
-0.366523
-0.297806
-0.2358
-0.179866
-0.129073
-0.0832728
-0.0422172
-0.00566271
0.0271385
0.0562625
-0.315107
-0.307899
-0.498636
-0.553647
-0.633742
-0.661632
-0.656319
-0.629332
-0.582797
-0.51908
-0.449662
-0.380417
-0.315494
-0.257407
-0.20485
-0.157509
-0.114803
-0.075897
-0.040444
-0.00851893
0.0199511
0.0455375
0.068424
-0.275762
-0.255694
-0.411406
-0.44016
-0.492571
-0.50316
-0.487807
-0.458709
-0.419836
-0.371266
-0.318965
-0.267032
-0.217672
-0.173231
-0.133213
-0.0971271
-0.0645478
-0.0349504
-0.00778827
0.016871
0.0388532
0.0585431
0.0761112
-0.233911
-0.201513
-0.32628
-0.334834
-0.367419
-0.36815
-0.349275
-0.32151
-0.289805
-0.253941
-0.216236
-0.179098
-0.143319
-0.110407
-0.0805342
-0.0533152
-0.0285769
-0.00610075
0.0146138
0.0335402
0.0502937
0.0651982
0.0785713
-0.190938
-0.148081
-0.246752
-0.241456
-0.260885
-0.257367
-0.239413
-0.215418
-0.19011
-0.164037
-0.137696
-0.112263
-0.0877058
-0.0645478
-0.0431366
-0.0232191
-0.00478067
0.0121763
0.0278991
0.0423507
0.0551171
0.0664776
0.0766752
-0.148932
-0.0981457
-0.176191
-0.162584
-0.174261
-0.169977
-0.155457
-0.136584
-0.117165
-0.098352
-0.0803155
-0.063443
-0.0474936
-0.0322194
-0.0178377
-0.00411491
0.00890852
0.021179
0.0327069
0.0434463
0.0529663
0.0614313
0.0689388
-0.109661
-0.0545678
-0.116958
-0.0995567
-0.107172
-0.104006
-0.0936039
-0.0801656
-0.066104
-0.0527306
-0.0403951
-0.0292499
-0.0191107
-0.00947
-0.000284856
0.00866037
0.0173916
0.0258549
0.0339752
0.0416927
0.048676
0.0549862
0.0605229
-0.0752845
-0.0193481
-0.0703211
-0.0522656
-0.0581663
-0.0568772
-0.050299
-0.0417704
-0.0325674
-0.0235963
-0.0153933
-0.00810968
-0.00173626
0.00416412
0.00976656
0.0152655
0.0207538
0.0262117
0.031572
0.0367927
0.0416057
0.0459836
0.0498749
-0.0471188
0.00656577
-0.0362061
-0.0193779
-0.0248539
-0.0256639
-0.0222016
-0.0174929
-0.0122662
-0.00681504
-0.00164758
0.00306421
0.00715139
0.0108648
0.0143486
0.0177355
0.0211186
0.0245323
0.0279356
0.0313151
0.0344877
0.0373759
0.0401272
-0.0274903
0.0212067
-0.0151436
-0.000164222
-0.00608531
-0.00952098
-0.00956955
-0.00913029
-0.00880766
-0.00829611
-0.00777587
-0.00723648
-0.0068222
-0.00642117
-0.00594633
-0.00522629
-0.00427156
-0.00318734
-0.00200063
-0.000662998
0.000673608
0.00197008
0.00352921
-0.0149996
0.0247216
-0.00252051
0.0106895
0.00734262
0.00520282
0.00661513
0.00899512
0.0111495
0.0134899
0.0158629
0.0183753
0.0207399
0.0230772
0.0253011
0.0273577
0.0291796
0.0309313
0.0325906
0.0341931
0.0356164
0.0368347
0.0378912
1.23542
1.23496
1.41019
1.7311
2.14342
2.67215
3.34942
4.21709
5.30842
6.65132
8.27014
10.1818
12.4003
14.9186
17.7015
20.6708
23.7156
26.7041
29.5107
32.0326
34.2154
36.0279
37.5331
1.18775
1.21364
1.36444
1.65674
2.04175
2.53805
3.17694
3.99653
5.03127
6.3112
7.86144
9.69845
11.8305
14.2444
16.8981
19.7112
22.5732
25.3577
27.9462
30.2466
32.2133
33.8279
35.1546
1.12669
1.17186
1.30031
1.55854
1.90783
2.36059
2.9465
3.70039
4.65683
5.84771
7.29977
9.03011
11.0439
13.3242
15.8247
18.4642
21.1342
23.7136
26.0912
28.1839
29.9532
31.3904
32.5587
1.05036
1.10427
1.21249
1.432
1.73737
2.13579
2.65401
3.32401
4.17952
5.25362
6.57504
8.1628
10.0219
12.1348
14.4545
16.9018
19.3719
21.7493
23.9294
25.836
27.4347
28.7234
29.7614
0.956387
1.00647
1.09556
1.27264
1.52588
1.8593
2.29538
2.86305
3.59471
4.5238
5.6813
7.08918
8.75522
10.6647
12.7742
15.0095
17.2723
19.4533
21.4536
23.2015
24.6634
25.8387
26.7806
0.839765
0.875937
0.94474
1.07649
1.26949
1.52716
1.86673
2.31353
2.89782
3.65311
4.61214
5.80114
7.23285
8.89938
10.7652
12.7657
14.8121
16.8043
18.649
20.276
21.6479
22.7589
23.6502
0.690859
0.712261
0.757003
0.839661
0.96408
1.13386
1.36098
1.666
2.07648
2.62533
3.34745
4.27409
5.42594
6.80554
8.39012
10.1291
11.9478
13.7579
15.4723
17.0205
18.3596
19.4729
20.3851
0.499427
0.512519
0.527572
0.555096
0.601152
0.668146
0.762736
0.90019
1.10505
1.41022
1.85417
2.47552
3.30618
4.3631
5.64021
7.10425
8.69638
10.3398
11.9525
13.4604
14.8114
15.9733
16.9537
1.3429
1.1271
1.63934
2.01226
2.52743
3.18999
4.00602
5.06446
6.36558
7.88948
9.67883
11.6806
13.9805
16.5656
19.449
22.5427
25.7211
28.825
31.7081
34.2643
36.435
38.2244
39.6462
1.34896
1.13417
1.64112
2.00994
2.51808
3.1775
3.98915
5.0438
6.3417
7.87058
9.67327
11.7101
14.0612
16.7231
19.7049
22.9257
26.2632
29.5612
32.6712
35.4765
37.9061
39.9474
41.6004
1.35508
1.14033
1.64318
2.00966
2.5101
3.16503
3.9711
5.01953
6.31095
7.84032
9.64993
11.7138
14.1059
16.831
19.8943
23.2198
26.6882
30.1469
33.4476
36.4662
39.1226
41.388
43.2546
1.36123
1.14507
1.64359
2.01027
2.50327
3.15254
3.95239
4.99263
6.27478
7.80004
9.6097
11.6909
14.1124
16.886
20.0126
23.4199
26.9906
30.5756
34.0277
37.2182
40.0612
42.5136
44.5639
1.36745
1.14874
1.64042
2.00941
2.49528
3.1379
3.93081
4.96133
6.23205
7.74941
9.55316
11.6423
14.0812
16.8872
20.0582
23.5236
27.1679
30.8441
34.4067
37.7245
40.7085
43.3037
45.4988
1.37334
1.15231
1.63288
2.0057
2.48562
3.12149
3.90785
4.92831
6.18696
7.69418
9.48759
11.5762
14.0204
16.8426
20.0382
23.5378
27.2265
30.959
34.5913
37.9905
41.0669
43.7567
46.0512
1.37846
1.15711
1.62145