/*--------------------------------*- C++ -*----------------------------------*\
  =========                 |
  \\      /  F ield         | OpenFOAM: The Open Source CFD Toolbox
   \\    /   O peration     | Website:  https://openfoam.org
    \\  /    A nd           | Version:  7
     \\/     M anipulation  |
\*---------------------------------------------------------------------------*/
FoamFile
{
    version     2.0;
    format      ascii;
    class       surfaceScalarField;
    location    "80";
    object      phi;
}
// * * * * * * * * * * * * * * * * * * * * * * * * * * * * * * * * * * * * * //

dimensions      [0 3 -1 0 0 0 0];

internalField   nonuniform List<scalar> 
25449
(
67.6909
50.5361
-26.4196
50.2193
37.5784
-20.1069
37.441
28.0867
-15.3084
28.0235
21.086
-11.6685
21.0405
15.893
-8.91003
15.8375
12.0226
-6.81963
11.9458
9.12642
-5.23476
9.02613
6.95163
-4.03197
6.83054
5.31327
-3.11769
5.17652
4.07506
-2.42104
3.92893
3.13603
-1.88844
2.98723
2.42118
-1.47947
2.27629
1.8746
-1.16366
1.73979
1.45471
-0.918209
1.33533
1.13057
-0.726109
1.03086
0.87921
-0.574735
0.802053
0.683542
-0.454737
0.630426
0.530823
-0.359195
0.501901
0.411475
-0.282949
0.405772
0.318221
-0.222091
0.333922
0.245464
-0.173614
0.280216
0.188827
-0.13512
0.14491
-0.104774
0.240081
52.5735
68.8703
39.1808
50.971
29.3198
37.9477
22.0129
28.393
16.5713
21.3346
12.5027
16.0912
9.45109
12.178
7.15657
9.24615
5.42799
7.04185
4.12393
5.37911
3.13926
4.1207
2.3955
3.16494
1.83385
2.43625
1.41013
1.87843
1.09098
1.44972
0.85111
1.11909
0.671258
0.863394
0.536736
0.665346
0.436329
0.511883
0.361497
0.393054
0.305771
0.301191
0.264263
0.230336
0.175824
0.233349
39.8862
82.3438
29.9206
60.9365
22.5091
45.3592
16.9735
33.9286
12.825
25.4831
9.70795
19.2083
7.36077
14.5252
5.59033
11.0166
4.25319
8.37899
3.2424
6.3899
2.47797
4.88514
1.89991
3.743
1.46313
2.87303
1.13361
2.20795
0.885566
1.69776
0.699394
1.30526
0.560093
1.0027
0.45617
0.76927
0.378826
0.589228
0.321354
0.450527
0.278676
0.343869
0.246967
0.262044
0.199389
0.223403
29.9054
91.9444
22.6576
68.1843
17.1801
50.8367
13.0378
38.0708
9.90382
28.6171
7.53131
21.5808
5.73431
16.3222
4.37258
12.3783
3.34029
9.41128
2.55762
7.17257
1.96431
5.47846
1.51482
4.19249
1.17476
3.21309
0.918045
2.46467
0.724825
1.89098
0.579917
1.45017
0.471651
1.11096
0.391036
0.849885
0.331167
0.649098
0.28677
0.494924
0.25386
0.37678
0.229445
0.286459
0.217519
0.211315
22.3351
98.546
17.1754
73.3438
13.1731
54.839
10.0876
41.1563
7.71919
30.9855
5.9064
23.3936
4.52165
17.7069
3.46535
13.4346
2.66039
10.2162
2.04751
7.78546
1.58129
5.94467
1.22711
4.54667
0.958563
3.48165
0.75551
2.66773
0.602543
2.04395
0.487801
1.56491
0.40211
1.19666
0.338356
0.91364
0.291051
0.696403
0.255999
0.529977
0.230025
0.402754
0.210759
0.305726
0.231834
0.196444
16.722
102.861
13.1376
76.9282
10.2375
57.7391
7.93546
43.4583
6.13065
32.7904
4.72767
24.7965
3.64339
18.7912
2.80889
14.2691
2.16848
10.8566
1.67814
8.27579
1.30341
6.3194
1.01761
4.83247
0.800176
3.69908
0.635306
2.83259
0.510819
2.16844
0.417282
1.65845
0.347344
1.26659
0.295266
0.965719
0.256592
0.735078
0.227905
0.558664
0.206618
0.424041
0.190805
0.321539
0.243609
0.17903
12.6274
105.448
10.2177
79.3378
8.1295
59.8273
6.39863
45.1891
5.00102
34.188
3.89196
25.9056
3.02187
19.6613
2.34469
14.9463
1.82049
11.3808
1.41638
8.67991
1.10576
6.63002
0.867656
5.07057
0.685682
3.88105
0.547114
2.97116
0.442078
2.27348
0.362874
1.73765
0.303465
1.32601
0.259096
1.01009
0.22605
0.768125
0.201462
0.583254
0.183155
0.442349
0.169509
0.335185
0.253808
0.159311
9.67459
106.733
8.1354
80.877
6.64002
61.3226
5.32062
46.5085
4.21284
35.2957
3.31092
26.8075
2.59048
20.3817
2.02246
15.5143
1.57842
11.8249
1.23348
9.02485
0.966634
6.89686
0.760919
5.27629
0.602834
4.03913
0.481804
3.09219
0.389563
2.36572
0.319636
1.80758
0.266918
1.37872
0.227352
1.04966
0.197747
0.797731
0.175608
0.605393
0.15905
0.458907
0.146638
0.347596
0.263127
0.137319
7.14268
109.19
5.35224
82.6674
4.02991
62.645
3.05018
47.4883
2.31928
36.0266
1.77171
27.3551
1.35951
20.7939
1.04812
15.8257
0.812063
12.0609
0.632716
9.2042
0.496135
7.03344
0.392002
5.38042
0.312583
4.11855
0.252096
3.15268
0.206165
2.41165
0.171439
1.84231
0.145323
1.40484
0.125766
1.06921
0.11116
0.812338
0.100253
0.6163
0.0920937
0.467067
0.085992
0.353698
0.267723
0.0813964
5.07475
110.945
3.80297
83.9391
2.86598
63.582
2.17405
48.1802
1.65865
36.542
1.273
27.7407
0.982652
21.0843
0.763159
16.0452
0.5965
12.2276
0.469604
9.3311
0.372669
7.13037
0.298483
5.4546
0.241635
4.17539
0.198096
3.19622
0.164822
2.44492
0.139488
1.86764
0.120294
1.42403
0.105812
1.0837
0.0949079
0.823242
0.0866924
0.624516
0.0804834
0.473276
0.0757908
0.358391
0.271296
0.0722181
3.52348
112.167
2.64257
84.82
1.99507
64.2295
1.51869
48.6566
1.16434
36.8964
0.899481
28.0056
0.699935
21.2838
0.548844
16.1963
0.4338
12.3426
0.345884
9.41902
0.278384
7.19788
0.226392
5.5066
0.186222
4.21557
0.155149
3.22729
0.131121
2.46895
0.112586
1.88617
0.0983494
1.43827
0.0874561
1.09459
0.0791382
0.831561
0.0727793
0.630876
0.0678968
0.478159
0.064152
0.362136
0.274193
0.0612559
2.37027
112.99
1.78154
85.4087
1.34958
64.6614
1.03301
48.9731
0.797763
37.1316
0.622041
28.1813
0.489383
21.4165
0.388613
16.297
0.311502
12.4197
0.252195
9.47832
0.206261
7.24381
0.170485
5.54237
0.142445
4.2436
0.120374
3.24936
0.102952
2.48637
0.0892018
1.89992
0.07839
1.44908
0.0699263
1.10305
0.0633222
0.838165
0.0581675
0.636031
0.054127
0.4822
0.0509679
0.365296
0.276684
0.0484763
1.52193
113.514
1.14944
85.7811
0.876132
64.9347
0.676564
49.1727
0.528231
37.28
0.417345
28.2922
0.33324
21.5006
0.268929
16.3613
0.21926
12.4694
0.180613
9.51698
0.150217
7.27421
0.126081
5.56651
0.106696
4.26299
0.0909875
3.26507
0.0781677
2.49919
0.0676829
1.91041
0.0591467
1.45762
0.0522493
1.10995
0.0467171
0.843698
0.0422938
0.640455
0.0387498
0.485744
0.0359251
0.368121
0.278955
0.0336545
0.907804
113.818
0.693158
85.9957
0.534764
65.0931
0.419328
49.2881
0.333208
37.3661
0.268521
28.3569
0.21891
21.5502
0.180425
16.3998
0.150153
12.4997
0.126063
9.54107
0.106576
7.29369
0.0905607
5.58252
0.0771541
4.27639
0.0657706
3.27645
0.0560007
2.50896
0.0475984
1.91881
0.0404369
1.46478
0.0344244
1.11596
0.0294557
0.848666
0.0253903
0.64452
0.0220744
0.48906
0.0193903
0.370805
0.281141
0.0172048
0.466185
113.958
0.366189
86.0957
0.290419
65.1689
0.234888
49.3436
0.192787
37.4082
0.16059
28.3891
0.135142
21.5756
0.114683
16.4203
0.0979077
12.5164
0.0839056
9.55507
0.0719393
7.30566
0.0614695
5.593
0.0520838
4.28578
0.0435338
3.28501
0.0356735
2.51682
0.0284779
1.926
0.022016
1.47124
0.0163705
1.12161
0.0115726
0.853465
0.00757752
0.648515
0.00428065
0.492358
0.00159884
0.373488
0.283344
-0.000604071
0.158782
113.982
0.139788
86.1147
0.121485
65.1872
0.10703
49.3581
0.0948048
37.4204
0.0844463
28.3995
0.075134
21.5849
0.0666328
16.4288
0.0587627
12.5243
0.0513689
9.56247
0.0442845
7.31274
0.0373586
5.59992
0.030476
4.29266
0.0236089
3.29187
0.016785
2.52364
0.010129
1.93266
0.00385085
1.47752
-0.00181936
1.12728
-0.00673026
0.858375
-0.0108486
0.652633
-0.0142529
0.495762
-0.0170188
0.376254
0.285632
-0.0193065
-0.0510035
113.921
-0.0135083
86.0772
0.00737094
65.1663
0.0203388
49.3451
0.0277414
37.413
0.0315206
28.3957
0.0325442
21.5839
0.0316254
16.4297
0.0293502
12.5266
0.0260602
9.56576
0.0219606
7.31684
0.0171404
5.60475
0.011671
4.29813
0.00565881
3.29789
-0.000759472
2.53006
-0.00735727
1.93925
-0.0138216
1.48398
-0.0198103
1.13327
-0.0250733
0.863639
-0.0294986
0.657059
-0.033131
0.499395
-0.0360703
0.379194
0.288032
-0.0384694
-0.187626
113.801
-0.112031
86.0016
-0.0656593
65.1199
-0.0354697
49.3149
-0.0160924
37.3936
-0.003914
28.3835
0.0031273
21.5769
0.00653693
16.4263
0.0073982
12.5257
0.00635614
9.5668
0.00384029
7.31936
6.9183e-05
5.60852
-0.00477992
4.30298
-0.0105282
3.30363
-0.0169824
2.53651
-0.0238646
1.94613
-0.0307978
1.49091
-0.0373448
1.13981
-0.0431545
0.869448
-0.0480362
0.66194
-0.0519946
0.503353
-0.0551646
0.382364
0.290548
-0.0576805
-0.27055
113.64
-0.170342
85.9014
-0.108504
65.0581
-0.0685432
49.275
-0.0427754
37.3679
-0.0263742
28.3671
-0.0164576
21.567
-0.0110851
16.4209
-0.0088741
12.5235
-0.00901392
9.56695
-0.0109589
7.32131
-0.0144397
5.612
-0.0192335
4.30778
-0.025137
3.30954
-0.0319386
2.54332
-0.0393458
1.95354
-0.0469521
1.49852
-0.0542481
1.14711
-0.0607807
0.875981
-0.0662686
0.667428
-0.070666
0.507752
-0.074132
0.385831
0.293196
-0.0767797
-0.314515
113.451
-0.199498
85.7863
-0.129458
64.9881
-0.0851135
49.2306
-0.0569855
37.3397
-0.0393667
28.3495
-0.0288341
21.5564
-0.0231955
16.4153
-0.0209146
12.5212
-0.0211131
9.56715
-0.0232079
7.3234
-0.0269344
5.61573
-0.032067
4.31291
-0.0384111
3.31588
-0.0457649
2.55067
-0.0538544
1.96163
-0.0622792
1.50694
-0.0704859
1.15532
-0.0779243
0.883419
-0.0842062
0.67371
-0.0892196
0.512765
-0.093105
0.389717
0.296046
-0.0959549
-0.33225
113.244
-0.209053
85.6631
-0.135709
64.9147
-0.0905943
49.1855
-0.0628005
37.3119
-0.0459686
28.3326
-0.0363289
21.5468
-0.0315572
16.4105
-0.0300599
12.5197
-0.0309536
9.56804
-0.0336694
7.32612
-0.0379835
5.62005
-0.0436941
4.31862
-0.0506358
3.32283
-0.0586354
2.55867
-0.0674659
1.97046
-0.0767717
1.51625
-0.0859976
1.16454
-0.0945167
0.891938
-0.101829
0.681023
-0.107723
0.51866
-0.112253
0.394247
0.299276
-0.115483
-0.329603
113.027
-0.203401
85.5369
-0.130569
64.8419
-0.0875055
49.1425
-0.0621406
37.2866
-0.0476408
28.3181
-0.0400462
21.5392
-0.0369986
16.4075
-0.0369282
12.5197
-0.0389932
9.57011
-0.0426793
7.32981
-0.0478282
5.62519
-0.0542816
4.32507
-0.0619157
3.33046
-0.0705971
2.56735
-0.0801699
1.98003
-0.0903689
1.52645
-0.100696
1.17487
-0.110496
0.901739
-0.119175
0.689701
-0.126379
0.525865
-0.131994
0.399862
0.303343
-0.13606
-0.311998
112.803
-0.186555
85.4115
-0.117017
64.7723
-0.0780569
49.1035
-0.0566637
37.2652
-0.0456664
28.3071
-0.0410115
21.5345
-0.0403565
16.4068
-0.042204
12.5215
-0.0457899
9.5737
-0.0506882
7.33471
-0.0568302
5.63134
-0.0641162
4.33236
-0.0724716
3.33882
-0.0818067
2.57669
-0.092051
1.99028
-0.103071
1.53747
-0.114495
1.1863
-0.125726
0.91297
-0.136128
0.700105
-0.145182
0.534918
-0.152531
0.407212
0.308973
-0.158161
-0.534056
112.638
-0.413214
85.2906
-0.324039
64.6832
-0.257602
49.0371
-0.207959
37.2155
-0.171013
28.2702
-0.143734
21.5073
-0.123933
16.387
-0.109976
12.5075
-0.100716
9.56444
-0.0953679
7.32936
-0.0934595
5.62943
-0.0945946
4.3335
-0.0984186
3.34265
-0.104589
2.58286
-0.112846
1.99854
-0.12299
1.54762
-0.134681
1.19799
-0.147337
0.925628
-0.160181
0.712947
-0.17229
0.547028
-0.182847
0.41777
0.317667
-0.191541
-0.519758
112.482
-0.405623
85.1765
-0.321246
64.5988
-0.258292
48.9741
-0.211185
37.1684
-0.176089
28.2351
-0.150163
21.4813
-0.131348
16.3682
-0.1181
12.4943
-0.109325
9.55567
-0.104274
7.32431
-0.102488
5.62765
-0.103569
4.33459
-0.107143
3.34622
-0.112836
2.58856
-0.120405
2.00611
-0.129777
1.55699
-0.140874
1.20909
-0.153459
0.938213
-0.166981
0.726471
-0.180493
0.56054
-0.193071
0.430349
0.32888
-0.204283
-0.505679
112.336
-0.397824
85.0686
-0.317931
64.5189
-0.258227
48.9144
-0.213482
37.1237
-0.180106
28.2017
-0.155434
21.4567
-0.137524
16.3503
-0.124921
12.4817
-0.116573
9.54732
-0.111762
7.3195
-0.11004
5.62593
-0.110999
4.33555
-0.114232
3.34946
-0.119307
2.59363
-0.12594
2.01274
-0.134113
1.56517
-0.143947
1.21892
-0.155506
0.949774
-0.168476
0.73944
-0.182024
0.574088
-0.195336
0.443662
0.341497
-0.207951
-0.491874
112.197
-0.389927
84.9667
-0.314247
64.4432
-0.257592
48.8577
-0.21506
37.0812
-0.183289
28.17
-0.159784
21.4332
-0.142712
16.3332
-0.130696
12.4697
-0.122724
9.53936
-0.118105
7.31489
-0.116394
5.62422
-0.117172
4.33633
-0.119983
3.35227
-0.12431
2.59796
-0.129771
2.01821
-0.136306
1.5717
-0.144108
1.22673
-0.15339
0.959058
-0.163963
0.750014
-0.175178
0.585303
-0.186462
0.454947
0.352471
-0.197434
-0.478372
112.067
-0.382004
84.8703
-0.3103
64.3715
-0.25652
48.804
-0.216067
37.0407
-0.185804
28.1397
-0.163388
21.4107
-0.147092
16.3169
-0.135612
12.4582
-0.127972
9.53172
-0.123502
7.31042
-0.121757
5.62248
-0.1223
4.33687
-0.12462
3.3546
-0.128093
2.60144
-0.132181
2.0223
-0.136679
1.5762
-0.141707
1.23176
-0.147449
0.964803
-0.153757
0.75632
-0.160233
0.59178
-0.166671
0.461385
0.358708
-0.172906
-0.465195
111.944
-0.37411
84.7792
-0.30617
64.3036
-0.255106
48.7529
-0.216616
37.0022
-0.187772
28.1108
-0.166377
21.3893
-0.150805
16.3013
-0.139816
12.4472
-0.132468
9.52437
-0.128108
7.30606
-0.126287
5.62066
-0.126549
4.33714
-0.128324
3.35638
-0.130866
2.60398
-0.133444
2.02488
-0.135623
1.57838
-0.13734
1.23348
-0.138661
0.966127
-0.139501
0.75716
-0.139835
0.592115
-0.139918
0.461469
0.358708
-0.139914
-0.452353
111.828
-0.366284
84.6931
-0.301915
64.2392
-0.253425
48.7044
-0.216792
36.9656
-0.189287
28.0833
-0.168852
21.3689
-0.153954
16.2864
-0.143416
12.4367
-0.136326
9.51728
-0.132042
7.30178
-0.130109
5.61873
-0.13005
4.33708
-0.131243
3.35757
-0.132814
2.60556
-0.133829
2.0259
-0.133585
1.57814
-0.131797
1.2317
-0.128428
0.962761
-0.123566
0.752297
-0.117639
0.586189
-0.11136
0.455191
0.352567
-0.105216
-0.439852
111.719
-0.358553
84.6118
-0.297579
64.1782
-0.251535
48.6584
-0.216662
36.9307
-0.190424
28.0571
-0.170893
21.3494
-0.156627
16.2722
-0.146504
12.4265
-0.139639
9.51042
-0.135398
7.29754
-0.133321
5.61666
-0.132911
4.33668
-0.1335
3.35816
-0.134105
2.60617
-0.133604
2.0254
-0.131042
1.57558
-0.12594
1.2266
-0.118251
0.955074
-0.108351
0.742395
-0.0971473
0.574986
-0.0857424
0.443787
0.341678
-0.0748491
-0.427693
111.617
-0.350939
84.5351
-0.293199
64.1205
-0.24948
48.6146
-0.21628
36.8975
-0.191244
28.0321
-0.172566
21.3307
-0.158891
16.2585
-0.149149
12.4168
-0.142481
9.50376
-0.138256
7.29332
-0.136006
5.61441
-0.13522
4.33589
-0.135201
3.35815
-0.134887
2.60586
-0.133017
2.02353
-0.128445
1.57101
-0.120566
1.21872
-0.109422
0.943933
-0.0957432
0.728715
-0.0808771
0.56012
-0.0662028
0.429113
0.328012
-0.0525337
-0.415876
111.52
-0.343459
84.4627
-0.288803
64.0658
-0.247298
48.5731
-0.21569
36.8659
-0.191795
28.0082
-0.173924
21.3128
-0.160805
16.2454
-0.151414
12.4074
-0.144917
9.49726
-0.140681
7.28909
-0.138234
5.61196
-0.137053
4.33472
-0.136436
3.35753
-0.13529
2.60471
-0.132286
2.02053
-0.126176
1.5649
-0.116307
1.20886
-0.102857
0.930485
-0.0868884
0.712745
-0.0700805
0.543313
-0.0539545
0.412987
0.313353
-0.039291
-0.404399
111.43
-0.336125
84.3944
-0.284413
64.0141
-0.245022
48.5337
-0.214931
36.8358
-0.192121
27.9854
-0.175013
21.2957
-0.162416
16.2328
-0.153349
12.3983
-0.146999
9.49091
-0.14273
7.28482
-0.140063
5.6093
-0.138475
4.33313
-0.137285
3.35634
-0.135423
2.60286
-0.131583
2.01669
-0.124521
1.55784
-0.113587
1.19793
-0.0990751
0.915975
-0.0822749
0.695945
-0.0650532
0.526092
-0.0489329
0.396868
0.298981
-0.0345577
-0.393259
111.345
-0.328948
84.3301
-0.28005
63.9652
-0.242678
48.4964
-0.214034
36.8072
-0.192258
27.9636
-0.175874
21.2793
-0.16377
16.2207
-0.155002
12.3896
-0.148777
9.48469
-0.144453
7.2805
-0.141549
5.6064
-0.139545
4.33113
-0.137812
3.35461
-0.135371
2.60042
-0.131031
2.01235
-0.123655
1.55046
-0.112628
1.1869
-0.0982718
0.901621
-0.0819427
0.679613
-0.0655063
0.509656
-0.0503585
0.38172
0.285599
-0.0369739
-0.382452
111.266
-0.321936
84.2695
-0.275731
63.919
-0.24029
48.4609
-0.213029
36.7799
-0.192238
27.9428
-0.176543
21.2637
-0.164902
16.2091
-0.15641
12.3811
-0.15029
9.47858
-0.145895
7.27611
-0.142736
5.60324
-0.140312
4.32871
-0.138072
3.35238
-0.135192
2.59754
-0.130692
2.00785
-0.123639
1.54341
-0.113462
1.17673
-0.100396
0.888557
-0.0856721
0.66489
-0.0709958
0.49498
-0.0575586
0.368283
0.273722
-0.0456787
-0.371973
111.192
-0.315095
84.2127
-0.27147
63.8754
-0.237878
48.4273
-0.211941
36.754
-0.192091
27.923
-0.177052
21.2486
-0.165848
16.1979
-0.157612
12.3728
-0.15158
9.47255
-0.147096
7.27163
-0.143669
5.59982
-0.140823
4.32587
-0.138109
3.34967
-0.134922
2.59436
-0.130574
2.0035
-0.12442
1.53726
-0.115955
1.16827
-0.105222
0.877826
-0.0932199
0.652885
-0.0813846
0.483145
-0.0705011
0.357399
0.26378
-0.0605573
-0.361818
111.123
-0.308432
84.1593
-0.267281
63.8342
-0.235462
48.3955
-0.210794
36.7293
-0.191844
27.904
-0.177429
21.2342
-0.166638
16.1871
-0.158639
12.3648
-0.152678
9.46659
-0.148092
7.26704
-0.144386
5.59611
-0.141116
4.3226
-0.137956
3.34651
-0.134569
2.59097
-0.130628
1.99957
-0.125839
1.53247
-0.119805
1.16223
-0.112384
0.870405
-0.104281
0.644783
-0.0963935
0.475258
-0.0886651
0.349671
0.255948
-0.0808325
-0.351982
111.058
-0.30195
84.1092
-0.263177
63.7954
-0.23306
48.3654
-0.209608
36.7059
-0.191521
27.8859
-0.177702
21.2204
-0.167303
16.1767
-0.159523
12.3571
-0.153619
9.46068
-0.148919
7.26235
-0.144923
5.59212
-0.141228
4.31891
-0.137639
3.34292
-0.134122
2.58745
-0.130761
1.99621
-0.127643
1.52935
-0.124556
1.15915
-0.121268
0.867118
-0.118069
0.641582
-0.114859
0.472048
-0.1108
0.345611
0.251094
-0.105945
-0.342462
110.999
-0.295655
84.0624
-0.259166
63.7589
-0.230687
48.3369
-0.208404
36.6836
-0.191144
27.8687
-0.177895
21.2071
-0.167867
16.1666
-0.160292
12.3495
-0.154432
9.45483
-0.149609
7.25753
-0.145314
5.58783
-0.141191
4.31479
-0.137179
3.33891
-0.133554
2.58383
-0.130834
1.99349
-0.129501
1.52802
-0.129609
1.15926
-0.130966
0.868474
-0.133338
0.643954
-0.135664
0.474373
-0.136893
0.34684
0.25127
-0.137069
-0.33325
110.943
-0.289549
84.0187
-0.255261
63.7247
-0.228357
48.31
-0.2072
36.6624
-0.190735
27.8522
-0.178031
21.1944
-0.168356
16.157
-0.160971
12.3421
-0.155144
9.449
-0.15019
7.25257
-0.145592
5.58323
-0.141035
4.31023
-0.136592
3.33447
-0.132829
2.58007
-0.130685
1.99134
-0.131025
1.52836
-0.134236
1.16247
-0.140265
0.874503
-0.148444
0.652132
-0.157115
0.483044
-0.164806
0.354531
0.256846
-0.170383
-0.324343
110.892
-0.283637
83.978
-0.25147
63.6925
-0.226086
48.2846
-0.206014
36.6424
-0.190313
27.8365
-0.178133
21.1822
-0.168794
16.1476
-0.161587
12.3349
-0.155784
9.4432
-0.150692
7.24748
-0.145785
5.57833
-0.14079
4.30524
-0.135892
3.32957
-0.131908
2.57609
-0.130143
1.98958
-0.131798
1.53002
-0.137594
1.16826
-0.147624
0.884531
-0.1608
0.665309
-0.174716
0.49696
-0.186559
0.366374
0.264283
-0.193998
-0.315736
110.846
-0.277921
83.9402
-0.247803
63.6624
-0.223886
48.2607
-0.204861
36.6233
-0.189898
27.8215
-0.178221
21.1706
-0.169203
16.1386
-0.162163
12.3279
-0.156377
9.43742
-0.151143
7.24225
-0.145924
5.57311
-0.140483
4.2998
-0.135093
3.32418
-0.130763
2.57176
-0.129059
1.98787
-0.131433
1.53239
-0.138857
1.17568
-0.151462
0.897135
-0.167625
0.681472
-0.183831
0.513166
-0.195902
0.378444
0.270082
-0.201701
-0.307424
110.803
-0.272404
83.9052
-0.244267
63.6342
-0.22177
48.2382
-0.203758
36.6053
-0.189507
27.8073
-0.178316
21.1594
-0.169605
16.1299
-0.162722
12.321
-0.156946
9.43165
-0.151569
7.23688
-0.146038
5.56758
-0.140141
4.29391
-0.134214
3.31826
-0.129377
2.56692
-0.127325
1.98582
-0.129633
1.5347
-0.137389
1.18344
-0.15062
0.910363
-0.16712
0.697973
-0.182443
0.528489
-0.192009
0.388009
0.27289
-0.194818
-0.299402
110.764
-0.267089
83.8729
-0.240872
63.608
-0.21975
48.2171
-0.202719
36.5883
-0.189159
27.7937
-0.178436
21.1487
-0.17002
16.1215
-0.163286
12.3142
-0.157517
9.42588
-0.151996
7.23136
-0.146154
5.56174
-0.139795
4.28755
-0.133278
3.31174
-0.127754
2.56139
-0.1249
1.98297
-0.126257
1.53605
-0.132874
1.19005
-0.14458
0.922069
-0.158795
0.712189
-0.170836
0.540529
-0.176794
0.393967
0.272961
-0.176867
-0.291665
110.729
-0.261978
83.8432
-0.237624
63.5837
-0.217837
48.1973
-0.20176
36.5722
-0.188869
27.7808
-0.1786
21.1384
-0.170469
16.1134
-0.163877
12.3076
-0.158111
9.42012
-0.152447
7.2257
-0.146298
5.5556
-0.139474
4.28073
-0.132313
3.30458
-0.125928
2.55501
-0.121816
1.97885
-0.121338
1.53557
-0.125341
1.19405
-0.133475
0.930201
-0.143227
0.721941
-0.15064
0.547942
-0.153085
0.39641
0.271234
-0.15136
-0.284211
110.697
-0.257074
83.816
-0.234532
63.5611
-0.216044
48.1788
-0.200894
36.5571
-0.188654
27.7686
-0.178826
21.1286
-0.170971
16.1055
-0.164516
12.3012
-0.15875
9.41435
-0.152948
7.2199
-0.146497
5.54915
-0.139207
4.27344
-0.131357
3.29673
-0.123951
2.5476
-0.118179
1.97308
-0.115081
1.53247
-0.115177
1.19415
-0.118024
0.933046
-0.121678
0.725596
-0.123718
0.549981
-0.123089
0.395781
0.268775
-0.120631
-0.277032
110.669
-0.252379
83.7914
-0.2316
63.5403
-0.214378
48.1616
-0.200132
36.5428
-0.188528
27.757
-0.17913
21.1192
-0.171544
16.0979
-0.165222
12.2949
-0.159458
9.40859
-0.15352
7.21396
-0.146776
5.54241
-0.139027
4.26569
-0.130456
3.28816
-0.121914
2.53906
-0.114186
1.96535
-0.107887
1.52618
-0.103123
1.18938
-0.0994456
0.929368
-0.0959875
0.722137
-0.0923966
0.546391
-0.0892047
0.392588
0.2664
-0.0868301
-0.260858
110.633
-0.232896
83.7634
-0.211546
63.519
-0.195026
48.1451
-0.181986
36.5298
-0.171679
27.7467
-0.163473
21.111
-0.156894
16.0913
-0.151387
12.2894
-0.146276
9.40348
-0.140874
7.20856
-0.134577
5.53611
-0.127186
4.2583
-0.118763
3.27974
-0.109909
2.53021
-0.10095
1.95639
-0.0920354
1.51726
-0.0829062
1.18025
-0.0731634
0.919623
-0.0631923
0.712168
-0.0545599
0.537756
-0.0490237
0.387055
0.263833
-0.0464598
-0.207576
110.604
-0.185583
83.7414
-0.168785
63.5022
-0.155785
48.1321
-0.145504
36.5195
-0.137358
27.7385
-0.130844
21.1044
-0.125589
16.0861
-0.121156
12.2849
-0.116996
9.39932
-0.112558
7.20413
-0.107346
5.5309
-0.101179
4.25214
-0.0940313
3.27259
-0.0862296
2.52241
-0.0777902
1.94795
-0.0685718
1.50804
-0.0582342
1.16991
-0.0464391
0.907826
-0.0339969
0.699723
-0.0228093
0.52657
-0.0148362
0.379079
0.259406
-0.0104091
-0.165152
110.581
-0.147835
83.7241
-0.134607
63.489
-0.124368
48.1218
-0.116258
36.5114
-0.109816
27.7321
-0.104646
21.0993
-0.100452
16.0819
-0.0968898
12.2814
-0.0935192
9.39595
-0.0898995
7.20051
-0.0856285
5.52663
-0.0805444
4.24705
-0.0745895
3.26664
-0.0679202
2.51574
-0.0604367
1.94047
-0.0518779
1.49948
-0.0419549
1.15999
-0.0303744
0.896245
-0.0179249
0.687274
-0.00630687
0.51495
0.0025129
0.37026
0.254119
0.00779788
-0.13136
110.563
-0.117696
83.7104
-0.107259
63.4785
-0.0991796
48.1138
-0.0927715
36.505
-0.0876715
27.727
-0.0835631
21.0952
-0.0802153
16.0786
-0.0773564
12.2785
-0.074634
9.39323
-0.0716971
7.19758
-0.0682219
5.52316
-0.0640687
4.2429
-0.0591746
3.26174
-0.0535962
2.51016
-0.0472069
1.93408
-0.0397169
1.49199
-0.0309166
1.15119
-0.0205769
0.885904
-0.00931942
0.676015
0.00147431
0.504157
0.00988684
0.361846
0.248895
0.0151102
-0.104456
110.549
-0.0936556
83.6996
-0.0854059
63.4703
-0.0790209
48.1074
-0.0739507
36.4999
-0.0699082
27.723
-0.0666414
21.0919
-0.0639684
16.0759
-0.0616753
12.2762
-0.0594812
9.39104
-0.0571069
7.1952
-0.0542936
5.52034
-0.0509222
4.23953
-0.0469368
3.25776
-0.0423398
2.50556
-0.0370094
1.92875
-0.0306801
1.48566
-0.0231991
1.1437
-0.0144246
0.877129
-0.00478827
0.666379
0.00459887
0.494769
0.0120705
0.354375
0.244095
0.0168698
-0.0830056
110.538
-0.0744255
83.691
-0.067873
63.4637
-0.0628028
48.1023
-0.0587741
36.4959
-0.0555579
27.7197
-0.0529524
21.0893
-0.0508135
16.0737
-0.0489725
12.2744
-0.0472062
9.38928
-0.0452931
7.19329
-0.0430276
5.51808
-0.0403092
4.23682
-0.0370924
3.25454
-0.033354
2.50182
-0.0289866
1.92438
-0.0237721
1.48045
-0.0175953
1.13753
-0.0103962
0.869929
-0.00245761
0.658439
0.00535241
0.48696
0.0117256
0.348001
0.239886
0.0159344
-0.0661268
110.529
-0.0594373
83.6844
-0.0543288
63.4586
-0.0503751
48.0983
-0.0472274
36.4927
-0.0447073
27.7172
-0.0426564
21.0872
-0.0409633
16.0721
-0.0394963
12.2729
-0.0380784
9.38786
-0.0365328
7.19174
-0.0346952
5.51624
-0.032481
4.2346
-0.0298537
3.25192
-0.0267818
2.49875
-0.0231712
1.92077
-0.0188493
1.47612
-0.0137247
1.1324
-0.00778678
0.863992
-0.00123526
0.651888
0.00523457
0.480489
0.0106279
0.342609
0.236259
0.0142544
-0.0523761
110.522
-0.0469324
83.6789
-0.0427775
63.4544
-0.039565
48.0951
-0.0370105
36.4902
-0.0349673
27.7152
-0.0333053
21.0856
-0.0319335
16.0707
-0.030747
12.2717
-0.0296054
9.38672
-0.02837
7.19051
-0.0269119
5.51479
-0.0251614
4.23285
-0.0230899
3.24985
-0.0206644
2.49633
-0.0178075
1.91791
-0.014396
1.47271
-0.0103585
1.12836
-0.00571724
0.859349
-0.000616215
0.646786
0.00443896
0.475435
0.00877857
0.338268
0.233299
0.011739
-0.0436666
110.511
-0.0353623
83.6706
-0.0288185
63.4479
-0.0236214
48.0899
-0.0194074
36.486
-0.0159567
27.7117
-0.0130758
21.0827
-0.0106246
16.0682
-0.00846069
12.2696
-0.00641506
9.38468
-0.00432362
7.18842
-0.00203846
5.5125
0.000518964
4.2303
0.00339533
3.24697
0.00663009
2.49309
0.0102949
1.91425
0.0144939
1.46851
0.0192127
1.12364
0.0242766
0.854286
0.0292804
0.641783
0.0334352
0.471279
0.036043
0.335661
0.232633
0.0367088
-0.0458507
110.5
-0.0371316
83.6619
-0.0302624
63.441
-0.0248076
48.0845
-0.0203835
36.4816
-0.0167582
27.7081
-0.0137275
21.0797
-0.0111443
16.0657
-0.00886032
12.2673
-0.00669907
9.38252
-0.00448946
7.18621
-0.00207593
5.51009
0.000624222
4.2276
0.00366317
3.24393
0.00708515
2.48967
0.0109667
1.91037
0.0154093
1.46407
0.0203859
1.11867
0.0257066
0.848965
0.0309487
0.63654
0.0353129
0.466916
0.0380952
0.332878
0.231776
0.0389523
-0.0481439
110.488
-0.0389893
83.6527
-0.0317783
63.4338
-0.0260531
48.0787
-0.0214087
36.4769
-0.0176002
27.7043
-0.014412
21.0765
-0.01169
16.0629
-0.00927948
12.2649
-0.00699624
9.38023
-0.00466211
7.18388
-0.00211365
5.50754
0.000735993
4.22475
0.0039434
3.24072
0.00756095
2.48605
0.0116644
1.90626
0.0163512
1.45938
0.0215827
1.11344
0.0271488
0.843399
0.032604
0.631086
0.0371409
0.462378
0.0400747
0.329945
0.230719
0.0411318
-0.0505515
110.476
-0.0409393
83.6431
-0.0333697
63.4262
-0.0273609
48.0727
-0.0224853
36.472
-0.0184845
27.7003
-0.0151308
21.0731
-0.0122628
16.0601
-0.00971887
12.2623
-0.00730692
9.37783
-0.00484144
7.18142
-0.00215095
5.50486
0.000855492
4.22175
0.0042377
3.23734
0.00806041
2.48223
0.0123897
1.90194
0.0173206
1.45445
0.0228015
1.10795
0.0285939
0.837606
0.0342287
0.625451
0.0388924
0.457716
0.0419431
0.326894
0.229476
0.0431862
-0.0530787
110.463
-0.0429867
83.633
-0.0350407
63.4183
-0.0287341
48.0664
-0.0236159
36.4669
-0.0194131
27.6961
-0.0158857
21.0696
-0.012864
16.057
-0.0101794
12.2596
-0.00763149
9.37528
-0.0050274
7.17881
-0.00218727
5.50201
0.000983787
4.21858
0.00454777
3.23378
0.00858527
2.47819
0.013143
1.89738
0.0183166
1.44928
0.0240382
1.10223
0.0300332
0.831612
0.0358108
0.619675
0.0405552
0.452971
0.0436823
0.323768
0.228078
0.0450798
-0.0557322
110.45
-0.0451361
83.6224
-0.0367948
63.4099
-0.0301759
48.0598
-0.0248032
36.4616
-0.0203885
27.6917
-0.0166785
21.0659
-0.0134949
16.0539
-0.0106619
12.2568
-0.00797037
9.37259
-0.00521991
7.17606
-0.00222213
5.49902
0.00112194
4.21523
0.00487535
3.23003
0.00913586
2.47393
0.0139244
1.89259
0.0193381
1.44387
0.0252878
1.09628
0.0314587
0.825441
0.0373392
0.613794
0.0421219
0.448189
0.0452809
0.320608
0.226569
0.0467897
-0.0585175
110.436
-0.0473925
83.6113
-0.0386366
63.4012
-0.0316897
48.0529
-0.0260499
36.4559
-0.0214128
27.687
-0.0175109
21.062
-0.0141569
16.0505
-0.0111674
12.2538
-0.00832399
9.36975
-0.00541887
7.17316
-0.00225499
5.49586
0.00127088
4.21171
0.00522211
3.22608
0.00971131
2.46944
0.0147344
1.88757
0.0203843
1.43822
0.026545
1.09012
0.0328618
0.819125
0.0388033
0.607854
0.043582
0.44341
0.046732
0.317459
0.224992
0.0483098
-0.0614419
110.421
-0.0497614
83.5996
-0.0405698
63.392
-0.0332791
48.0456
-0.0273591
36.45
-0.0224885
27.6822
-0.0183849
21.0579
-0.0148515
16.047
-0.0116967
12.2506
-0.00869281
9.36675
-0.00562432
7.17009
-0.00228544
5.49252
0.00143129
4.20799
0.0055895
3.22192
0.0103103
2.46473
0.0155729
1.88231
0.0214538
1.43234
0.0278051
1.08377
0.0342335
0.812696
0.0401933
0.601895
0.0449231
0.438682
0.0480274
0.314355
0.22338
0.0496397
-0.0645117
110.405
-0.0522482
83.5874
-0.0425995
63.3824
-0.0349479
48.0379
-0.0287337
36.4438
-0.0236181
27.6771
-0.0193024
21.0536
-0.0155801
16.0433
-0.0122509
12.2473
-0.00907741
9.36357
-0.0058363
7.16685
-0.00231315
5.489
0.00160358
4.20408
0.0059785
3.21755
0.010932
2.45977
0.0164395
1.8768
0.0225441
1.42623
0.0290629
1.07726
0.0355648
0.806194
0.0415007
0.595961
0.0461375
0.434045
0.0491653
0.311328
0.221766
0.0507787
-0.0677343
110.389
-0.0548588
83.5745
-0.0447303
63.3722
-0.0366998
48.0299
-0.0301771
36.4373
-0.0248041
27.6717
-0.0202656
21.049
-0.0163443
16.0393
-0.012831
12.2438
-0.00947838
9.36022
-0.00605509
7.16343
-0.00233795
5.48528
0.00178786
4.19995
0.00638957
3.21295
0.0115759
2.45459
0.0173325
1.87104
0.0236504
1.41991
0.0303123
1.07059
0.0368477
0.799659
0.0427132
0.590096
0.047221
0.429539
0.0501483
0.308401
0.220184
0.0517309
-0.0711172
110.372
-0.0575991
83.561
-0.0469673
63.3616
-0.0385391
48.0215
-0.0316926
36.4304
-0.0260494
27.666
-0.0212766
21.0443
-0.0171457
16.0352
-0.0134383
12.2401
-0.00989651
9.35668
-0.00628097
7.15981
-0.00235987
5.48136
0.00198403
4.19561
0.00682237
3.20811
0.0122421
2.44917
0.018249
1.86504
0.0247662
1.4134
0.0315434
1.06382
0.038074
0.793128
0.0438201
0.584351
0.04817
0.425189
0.0509732
0.305598
0.218666
0.0524911
-0.0746688
110.354
-0.0604761
83.5468
-0.0493152
63.3504
-0.0404701
48.0126
-0.0332837
36.4232
-0.0273568
27.6601
-0.0223378
21.0392
-0.0179862
16.0309
-0.0140739
12.2362
-0.0103326
9.35294
-0.00651446
7.156
-0.00237907
5.47723
0.00219171
4.19104
0.00727576
3.20303
0.0129301
2.44351
0.0191843
1.85878
0.0258828
1.4067
0.0327428
1.05696
0.039232
0.786639
0.0448154
0.578768
0.0489818
0.421024
0.051633
0.302947
0.217249
0.0530507
-0.0783967
110.335
-0.0634961
83.5319
-0.0517803
63.3387
-0.0424972
48.0033
-0.034954
36.4157
-0.0287293
27.6539
-0.0234515
21.034
-0.0188676
16.0263
-0.0147394
12.2321
-0.0107876
9.34899
-0.00675614
7.15197
-0.00239605
5.47287
0.0024102
4.18624
0.00774781
3.19769
0.0136385
2.43762
0.0201314
1.85229
0.0269897
1.39984
0.0338953
1.05005
0.0403073
0.780227
0.0456931
0.573384
0.0496503
0.417068
0.0521233
0.300475
0.215958
0.0534148
-0.0823101
110.315
-0.0666662
83.5162
-0.0543677
63.3264
-0.0446251
47.9936
-0.0367076
36.4078
-0.0301701
27.6474
-0.0246202
21.0284
-0.0197919
16.0214
-0.015436
12.2277
-0.0112626
9.34482
-0.00700673
7.14771
-0.00241147
5.46827
0.00263847
4.18119
0.00823575
3.19209
0.0143652
2.4315
0.0210819
1.84557
0.0280752
1.39285
0.0349872
1.04314
0.0412845
0.77393
0.0464451