/*--------------------------------*- C++ -*----------------------------------*\
  =========                 |
  \\      /  F ield         | OpenFOAM: The Open Source CFD Toolbox
   \\    /   O peration     | Website:  https://openfoam.org
    \\  /    A nd           | Version:  7
     \\/     M anipulation  |
\*---------------------------------------------------------------------------*/
FoamFile
{
    version     2.0;
    format      ascii;
    class       volVectorField;
    location    "80";
    object      U;
}
// * * * * * * * * * * * * * * * * * * * * * * * * * * * * * * * * * * * * * //

dimensions      [0 1 -1 0 0 0 0];

internalField   nonuniform List<vector> 
12842
(
(15.279 3.25542 -8.13132e-19)
(15.2813 3.27542 3.10598e-19)
(15.2822 3.29721 1.22261e-19)
(15.2821 3.32359 -2.89e-19)
(15.2801 3.35706 1.29313e-18)
(15.2756 3.39999 0)
(15.2674 3.45495 0)
(15.2539 3.5247 7.37235e-20)
(15.2328 3.61215 -7.98598e-19)
(15.2011 3.72011 -2.10006e-20)
(15.1555 3.85101 -1.99527e-19)
(15.0924 4.0065 -2.87176e-20)
(15.0085 4.18682 4.3124e-20)
(14.9015 4.39053 5.82064e-20)
(14.7706 4.61431 -7.33985e-20)
(14.6174 4.8529 -2.30521e-19)
(14.4456 5.09951 -2.27214e-19)
(14.2613 5.34646 0)
(14.0718 5.58602 2.22501e-20)
(13.8849 5.81122 1.61376e-19)
(13.708 6.01676 2.30121e-20)
(13.5457 6.19864 -1.059e-19)
(13.4054 6.35825 7.73404e-20)
(15.2806 3.25542 5.06523e-19)
(15.2869 3.2746 0)
(15.2922 3.29636 1.79395e-18)
(15.2975 3.32293 -1.2168e-18)
(15.3021 3.35691 -1.08403e-18)
(15.3057 3.40091 0)
(15.3074 3.45783 2.20621e-18)
(15.3056 3.53083 0)
(15.2981 3.62323 1.68984e-18)
(15.2818 3.73827 1.67193e-19)
(15.2529 3.87872 4.04078e-19)
(15.2072 4.04635 6.16652e-19)
(15.1408 4.24124 -4.19153e-20)
(15.0503 4.46135 -6.52894e-20)
(14.934 4.7024 0)
(14.7928 4.95794 2.44774e-19)
(14.6301 5.21995 3.28435e-19)
(14.4518 5.47977 -3.94566e-19)
(14.2655 5.72903 0)
(14.0793 5.96064 -2.09755e-19)
(13.9013 6.16931 -3.12606e-19)
(13.7363 6.35226 2.85413e-19)
(13.5936 6.50831 -2.90825e-19)
(15.2824 3.25506 0)
(15.2919 3.27291 0)
(15.3008 3.294 6.21002e-19)
(15.3107 3.32002 6.989e-18)
(15.3213 3.35365 0)
(15.3324 3.39772 0)
(15.3433 3.45545 7.56195e-19)
(15.3527 3.53037 -2.30855e-18)
(15.3582 3.62626 -8.46036e-19)
(15.3568 3.74682 -7.67613e-19)
(15.3443 3.89523 -1.3336e-18)
(15.3159 4.07351 -6.07577e-19)
(15.2668 4.28166 -8.62147e-20)
(15.1926 4.5172 1.7614e-19)
(15.0909 4.77494 0)
(14.9618 5.04725 -5.72423e-20)
(14.8086 5.32488 7.34051e-20)
(14.6372 5.59815 2.51152e-19)
(14.4557 5.85805 2.84757e-19)
(14.2724 6.09735 -2.36705e-19)
(14.0962 6.31067 2.34747e-19)
(13.9316 6.49652 0)
(13.7899 6.65077 1.07319e-19)
(15.2843 3.25443 -1.93051e-19)
(15.2961 3.27068 9.00958e-19)
(15.3081 3.29072 -2.95736e-18)
(15.322 3.31568 -1.17766e-17)
(15.338 3.3483 1.06671e-18)
(15.3559 3.39158 -3.78481e-18)
(15.3755 3.44907 -7.37245e-20)
(15.3955 3.52467 2.28872e-18)
(15.4137 3.62263 3.82062e-18)
(15.4268 3.74711 -2.1228e-18)
(15.4304 3.90178 3.38312e-18)
(15.4192 4.08902 -2.97753e-19)
(15.3876 4.3089 3.86996e-19)
(15.3301 4.55859 1.03289e-18)
(15.2434 4.83213 -5.95687e-20)
(15.1271 5.12072 7.67373e-20)
(14.9841 5.41388 -2.68206e-20)
(14.8209 5.70093 -8.35743e-20)
(14.6457 5.97219 -1.24882e-19)
(14.4674 6.22031 1.73055e-21)
(14.2951 6.43972 -8.35503e-20)
(14.1333 6.6303 -1.08067e-19)
(13.995 6.78464 2.2107e-19)
(15.2863 3.25358 -2.60686e-18)
(15.2995 3.26813 0)
(15.3141 3.28689 5.42665e-19)
(15.3316 3.31039 4.28875e-18)
(15.3522 3.3414 4.38357e-19)
(15.3764 3.38311 1.03831e-17)
(15.4041 3.43936 5.88612e-19)
(15.4341 3.51441 -6.62438e-18)
(15.4644 3.613 -4.29344e-18)
(15.4916 3.73976 2.67642e-18)
(15.5112 3.89894 -3.93557e-18)
(15.5174 4.09336 -2.60516e-18)
(15.5036 4.32332 5.19261e-19)
(15.4636 4.5858 -2.45238e-18)
(15.3929 4.87414 -8.12371e-19)
(15.2905 5.17845 4.14693e-19)
(15.1592 5.48702 0)
(15.0055 5.78815 4.69052e-20)
(14.8383 6.07146 0)
(14.6666 6.32952 8.63191e-20)
(14.5001 6.55641 -1.14498e-20)
(14.3427 6.75349 8.06953e-20)
(14.2096 6.90968 -2.86991e-20)
(15.2882 3.25256 2.50199e-18)
(15.3021 3.26545 0)
(15.3191 3.2828 0)
(15.3393 3.30451 7.35058e-18)
(15.3641 3.33343 -5.5277e-18)
(15.3939 3.37283 -6.15215e-18)
(15.4289 3.42689 -9.33531e-18)
(15.4683 3.5002 7.36461e-18)
(15.51 3.59795 0)
(15.5509 3.72529 3.71598e-18)
(15.5863 3.88707 3.6729e-18)
(15.6099 4.08669 1.30485e-18)
(15.6145 4.32481 0)
(15.5928 4.59843 1.41324e-18)
(15.5393 4.90035 6.95811e-19)
(15.4521 5.21968 -2.72571e-19)
(15.3339 5.54345 -4.79556e-20)
(15.1914 5.85894 3.55355e-19)
(15.0337 6.15501 0)
(14.8703 6.42415 8.21117e-20)
(14.7114 6.65993 5.61446e-20)
(14.5598 6.86532 -1.55894e-19)
(14.4333 7.02501 -9.55453e-21)
(15.2901 3.25139 -3.00997e-19)
(15.304 3.26279 0)
(15.323 3.27868 0)
(15.3454 3.2984 -7.32289e-18)
(15.3735 3.32484 6.38659e-18)
(15.4081 3.36132 -8.2941e-19)
(15.4497 3.41235 5.6479e-18)
(15.4976 3.48278 5.29575e-19)
(15.5501 3.57831 -6.93439e-19)
(15.6041 3.70453 -4.18064e-18)
(15.655 3.86697 -4.16681e-19)
(15.6963 4.06972 2.92425e-18)
(15.7199 4.31397 0)
(15.7176 4.59695 -2.13676e-18)
(15.6828 4.91113 1.41756e-19)
(15.6128 5.24476 -1.83193e-19)
(15.5097 5.58364 4.5167e-19)
(15.3801 5.91392 -2.1136e-19)
(15.2339 6.22355 -3.10505e-19)
(15.0805 6.50497 -4.37171e-20)
(14.9306 6.75097 1.63528e-20)
(14.7863 6.96638 3.68282e-21)
(14.6675 7.13087 1.58972e-20)
(15.2917 3.25021 0)
(15.3053 3.26027 -3.94098e-19)
(15.326 3.27462 4.84922e-18)
(15.35 3.29217 -1.50808e-19)
(15.3811 3.31588 -6.92911e-18)
(15.4198 3.349 1.12429e-18)
(15.4671 3.39639 -2.18254e-19)
(15.5224 3.46306 -4.67993e-18)
(15.5845 3.55518 0)
(15.6503 3.6787 -5.26932e-18)
(15.7156 3.83983 4.16188e-19)
(15.7738 4.04338 2.65352e-19)
(15.8162 4.29128 0)
(15.8336 4.58121 2.10304e-18)
(15.8182 4.90558 -1.57567e-18)
(15.7661 5.25199 0)
(15.679 5.60504 -4.47108e-19)
(15.5638 5.94981 0)
(15.4305 6.27323 2.41672e-19)
(15.2889 6.56773 0)
(15.1501 6.82498 -6.75695e-20)
(15.0151 7.0524 5.35082e-20)
(14.9058 7.22336 6.31499e-20)
(15.2933 3.24871 0)
(15.3059 3.25792 0)
(15.3279 3.27114 1.21172e-19)
(15.3525 3.28702 -3.18922e-19)
(15.3852 3.30834 7.83098e-18)
(15.4267 3.33829 6.68953e-18)
(15.4785 3.38193 0)
(15.5401 3.44447 4.37358e-18)
(15.6107 3.53251 0)
(15.6871 3.65236 1.07635e-17)
(15.7655 3.81086 3.79058e-18)
(15.8389 4.01349 -2.54207e-18)
(15.8987 4.2629 -2.39304e-19)
(15.9348 4.55739 0)
(15.9385 4.88959 1.65826e-18)
(15.9047 5.24682 1.15668e-18)
(15.8339 5.61273 -7.75306e-20)
(15.7327 5.97123 5.59654e-19)
(15.6115 6.30785 4.22239e-19)
(15.4803 6.61487 0)
(15.3511 6.88222 6.46069e-20)
(15.2238 7.12048 9.55263e-21)
(15.122 7.29722 -3.24924e-20)
(15.2951 3.24725 -2.47308e-20)
(15.3066 3.25601 4.92339e-18)
(15.3298 3.26821 -4.62673e-18)
(15.3548 3.28273 0)
(15.389 3.30216 1.45853e-19)
(15.4326 3.32969 2.79277e-19)
(15.4878 3.37061 -6.191e-18)
(15.5539 3.43018 0)
(15.6305 3.51531 0)
(15.7145 3.63252 -5.44303e-18)
(15.8024 3.78906 -4.036e-18)
(15.8872 3.99095 -9.87496e-20)
(15.96 4.24139 2.46481e-18)
(16.0103 4.53914 -8.65182e-20)
(16.0286 4.87697 -2.38209e-19)
(16.0089 5.24196 2.77376e-19)
(15.9514 5.61701 -7.01962e-19)
(15.8622 5.98522 -5.31789e-19)
(15.7522 6.33109 -4.82793e-19)
(15.6315 6.6471 -3.38154e-19)
(15.5126 6.92169 8.68654e-20)
(15.3939 7.16819 -3.77111e-19)
(15.3008 7.34964 6.48401e-20)
(15.2967 3.24577 5.57014e-18)
(15.3071 3.25439 -5.57573e-18)
(15.3315 3.26557 1.39372e-19)
(15.3567 3.27884 4.60917e-18)
(15.3923 3.29642 -2.23749e-19)
(15.4378 3.32162 -6.96299e-18)
(15.496 3.35994 1.18479e-17)
(15.5663 3.41666 3.09374e-19)
(15.6485 3.49899 -2.22211e-19)
(15.7396 3.61356 -5.95395e-18)
(15.8364 3.76804 1.4628e-19)
(15.9321 3.9689 -3.47019e-18)
(16.0177 4.21992 -2.20657e-18)
(16.0822 4.5204 0)
(16.1157 4.86331 2.12082e-18)
(16.1113 5.23563 -2.61497e-18)
(16.0684 5.6195 -1.87946e-19)
(15.9931 5.99715 6.10622e-19)
(15.8963 6.35195 5.22678e-21)
(15.7881 6.67665 4.37461e-19)
(15.6816 6.9581 0)
(15.5735 7.21259 1.24419e-19)
(15.4913 7.39818 0)
(15.2982 3.24431 -9.07983e-18)
(15.3074 3.25302 -5.47907e-18)
(15.3329 3.26317 2.35644e-19)
(15.3582 3.2753 -9.09767e-18)
(15.3951 3.29107 4.36357e-18)
(15.4422 3.31399 -2.04299e-19)
(15.5032 3.34974 -6.09031e-18)
(15.5773 3.40363 8.79835e-20)
(15.6646 3.48313 -2.51849e-19)
(15.7624 3.59496 6.15276e-18)
(15.8678 3.74712 0)
(15.9741 3.94656 3.17868e-18)
(16.0723 4.19762 2.24406e-19)
(16.1514 4.50016 -1.02798e-19)
(16.2007 4.84751 -2.19491e-18)
(16.2128 5.22663 -3.38329e-20)
(16.1862 5.61899 6.55927e-19)
(16.1265 6.00592 -1.00692e-18)
(16.0446 6.36942 0)
(15.9508 6.70258 -3.47275e-19)
(15.8588 6.99044 4.42896e-19)
(15.7632 7.25279 0)
(15.6939 7.44183 -2.24958e-19)
(15.2994 3.24293 3.2457e-18)
(15.3076 3.25187 -1.30904e-20)
(15.334 3.26099 2.37297e-19)
(15.3594 3.27207 4.40363e-18)
(15.3974 3.28607 -8.60741e-18)
(15.4459 3.30676 3.62856e-20)
(15.5095 3.33997 8.99551e-20)
(15.587 3.39101 5.34624e-18)
(15.6792 3.46761 -1.19139e-19)
(15.7832 3.57651 0)
(15.8969 3.72607 4.79847e-18)
(16.0135 3.92363 1.05285e-19)
(16.1245 4.17411 8.397e-20)
(16.2184 4.47801 6.36939e-21)
(16.2845 4.82908 -2.2802e-19)
(16.3144 5.21445 1.55159e-18)
(16.3057 5.61495 -8.22547e-19)
(16.2635 6.01101 -1.53981e-19)
(16.1983 6.383 -2.04393e-19)
(16.1205 6.72434 5.23006e-19)
(16.0444 7.01792 -3.08866e-19)
(15.9631 7.28778 6.7591e-19)
(15.9085 7.47932 -4.38571e-19)
(15.3004 3.24166 3.52411e-18)
(15.3079 3.25091 5.33816e-18)
(15.335 3.259 2.12343e-20)
(15.3604 3.26911 4.73536e-18)
(15.3993 3.28139 8.79358e-18)
(15.4491 3.29988 -3.69116e-20)
(15.515 3.33056 -9.22007e-20)
(15.5957 3.37873 1.33315e-19)
(15.6924 3.45233 -4.29183e-18)
(15.8024 3.55815 3.38501e-18)
(15.9241 3.70478 -5.05225e-18)
(16.0509 3.9 -3.68352e-18)
(16.1747 4.14928 2.77503e-18)
(16.2841 4.45379 0)
(16.3678 4.80783 1.36376e-18)
(16.4171 5.19885 0)
(16.4281 5.60714 1.08675e-18)
(16.405 6.01222 6.00802e-19)
(16.3581 6.39248 1.50453e-21)
(16.2976 6.74165 -6.05873e-19)
(16.239 7.03996 -2.8966e-21)
(16.1734 7.31657 1.78863e-20)
(16.1352 7.50932 -1.98366e-19)
(15.3013 3.24053 2.87624e-20)
(15.308 3.25013 5.32712e-20)
(15.3358 3.2572 -2.06e-20)
(15.3612 3.26642 -4.7482e-18)
(15.4009 3.27699 -4.40515e-18)
(15.4518 3.29332 0)
(15.5198 3.32147 5.98753e-20)
(15.6036 3.36673 -5.49699e-18)
(15.7045 3.43722 -1.09844e-19)
(15.8202 3.53974 -3.39638e-18)
(15.9496 3.6831 2.70535e-18)
(16.0866 3.87547 5.78302e-18)
(16.2234 4.12286 -2.69091e-18)
(16.3487 4.42718 1.97013e-18)
(16.4514 4.78333 1.7803e-19)
(16.5215 5.17931 1.75299e-21)
(16.5542 5.595 -7.81998e-20)
(16.5521 6.009 -2.02519e-19)
(16.525 6.39737 1.32463e-19)
(16.4828 6.75403 -2.16707e-19)
(16.4421 7.05564 -1.56984e-20)
(16.3921 7.33826 1.70158e-19)
(16.3705 7.52934 0)
(15.302 3.23953 -2.11642e-20)
(15.3082 3.2495 0)
(15.3365 3.25556 0)
(15.3618 3.26396 -4.82395e-18)
(15.4021 3.27285 -4.58372e-18)
(15.4541 3.28706 4.02005e-18)
(15.524 3.31265 4.81668e-20)
(15.6106 3.35496 -4.94725e-20)
(15.7155 3.42223 4.48872e-18)
(15.8367 3.52123 -6.0142e-20)
(15.9737 3.66096 1.59707e-19)
(16.1208 3.84992 -1.98329e-18)
(16.2708 4.09469 0)
(16.4128 4.39789 -2.1011e-18)
(16.5354 4.75516 -3.02087e-18)
(16.6282 5.15524 -1.13022e-18)
(16.6846 5.57788 -6.27849e-19)
(16.7054 6.00085 0)
(16.6995 6.39715 0)
(16.677 6.76044 3.68857e-19)
(16.6555 7.0643 2.36361e-19)
(16.6232 7.34976 -5.07317e-19)
(16.6202 7.54169 0)
(15.3026 3.2387 -3.9419e-18)
(15.3083 3.24898 2.67975e-20)
(15.337 3.25407 -9.80239e-21)
(15.3622 3.26168 4.79963e-18)
(15.4031 3.26892 9.15256e-18)
(15.4559 3.28103 -8.04312e-18)
(15.5276 3.30405 -4.91093e-20)
(15.6168 3.34335 -5.06544e-20)
(15.7255 3.40725 6.63733e-20)
(15.8521 3.50249 0)
(15.9964 3.63818 -2.72413e-18)
(16.1536 3.82315 2.12975e-18)
(16.3172 4.06448 0)
(16.4764 4.36553 0)
(16.6202 4.72277 1.45869e-18)
(16.7375 5.12584 5.87158e-20)
(16.8202 5.55438 7.09991e-19)
(16.8667 5.98545 5.07543e-19)
(16.8841 6.38957 -6.63539e-19)
(16.8819 6.7591 -2.10918e-19)
(16.8787 7.06577 8.13461e-19)
(16.8639 7.35003 -7.32617e-19)
(16.8775 7.54523 4.74214e-19)
(15.3031 3.23806 1.96335e-18)
(15.3084 3.24856 2.45129e-18)
(15.3374 3.25272 2.58854e-20)
(15.3626 3.25959 -3.41935e-20)
(15.4039 3.2652 -4.62504e-18)
(15.4574 3.27521 4.10398e-18)
(15.5307 3.29562 -3.19433e-20)
(15.6224 3.33184 -9.80775e-21)
(15.7346 3.39221 6.78128e-20)
(15.8664 3.48343 3.18371e-20)
(16.018 3.61465 -4.1579e-20)
(16.1853 3.79497 -2.13468e-18)
(16.3626 4.03192 1.70799e-18)
(16.5397 4.32957 -7.08925e-20)
(16.706 4.68512 0)
(16.85 5.08945 -1.54322e-19)
(16.9615 5.52279 9.69749e-20)
(17.0363 5.9617 -4.97396e-19)
(17.0787 6.37426 8.29235e-19)
(17.0974 6.74997 4.41737e-19)
(17.1111 7.06038 -2.84636e-19)
(17.1134 7.34071 -3.83063e-19)
(17.1406 7.53972 4.81188e-19)
(15.3035 3.23754 -1.04097e-20)
(15.3085 3.24822 -2.47114e-18)
(15.3378 3.25149 0)
(15.3628 3.25764 0)
(15.4043 3.26165 0)
(15.4586 3.26957 0)
(15.5333 3.28733 3.24537e-20)
(15.6272 3.32037 -1.62853e-20)
(15.7429 3.37705 -3.45202e-20)
(15.8796 3.46396 3.25838e-20)
(16.0383 3.59022 -4.2532e-20)
(16.2157 3.76514 0)
(16.407 3.99664 -3.35365e-18)
(16.6026 4.28941 8.20869e-20)
(16.7927 4.64149 -1.64467e-19)
(16.9654 5.04518 1.35335e-18)
(17.1087 5.48185 -1.02842e-19)
(17.2149 5.9281 1.39526e-19)
(17.2848 6.34998 -1.4842e-19)
(17.3252 6.73288 2.40018e-19)
(17.3544 7.04882 -3.05138e-19)
(17.3717 7.32532 0)
(17.408 7.5269 2.456e-19)
(15.3038 3.23714 -3.82572e-18)
(15.3085 3.24794 -1.20478e-18)
(15.338 3.25038 -1.80234e-20)
(15.3629 3.25583 2.50446e-18)
(15.4046 3.25826 2.36275e-18)
(15.4595 3.26409 1.9522e-20)
(15.5354 3.27915 -3.69845e-18)
(15.6314 3.30892 3.0774e-18)
(15.7503 3.3617 2.41154e-18)
(15.8918 3.44397 0)
(16.0574 3.56476 5.13716e-20)
(16.2449 3.73348 -2.38352e-18)
(16.4503 3.95836 1.75829e-18)
(16.6651 4.24462 1.2358e-18)
(16.8802 4.59109 9.55403e-19)
(17.0836 4.99169 0)
(17.2621 5.42961 0)
(17.4037 5.88235 -6.17376e-19)
(17.5046 6.31477 -5.56152e-19)
(17.5683 6.70745 2.49887e-19)
(17.6119 7.03284 1.45753e-19)
(17.6409 7.30958 1.91571e-19)
(17.6792 7.51278 -2.35416e-19)
(15.304 3.23684 1.90294e-18)
(15.3086 3.2477 1.21025e-18)
(15.3382 3.24934 -1.32905e-20)
(15.3629 3.25411 2.61705e-20)
(15.4047 3.25495 -2.36406e-18)
(15.4601 3.25869 -2.12149e-18)
(15.5372 3.271 1.78855e-18)
(15.6352 3.2974 -3.05008e-18)
(15.757 3.34611 -2.40203e-18)
(15.9031 3.42343 -5.6475e-20)
(16.0754 3.53817 0)
(16.273 3.69983 2.31077e-18)
(16.4927 3.91678 1.80988e-18)
(16.7271 4.19466 -1.30482e-18)
(16.9681 4.53294 -8.19099e-19)
(17.2045 4.92729 -3.46437e-19)
(17.4216 5.36347 -2.63664e-19)
(17.6036 5.82114 1.26544e-18)
(17.7405 6.26533 0)
(17.8309 6.67223 0)
(17.8897 7.01444 1.60491e-19)
(17.9268 7.30038 -3.70059e-19)
(17.9592 7.50747 -2.18569e-19)
(15.3043 3.23664 -1.81813e-18)
(15.3086 3.24754 0)
(15.3383 3.24845 0)
(15.3628 3.25258 -5.03879e-18)
(15.4044 3.25191 2.37413e-18)
(15.4601 3.25352 2.17223e-18)
(15.5381 3.26297 -2.00594e-20)
(15.638 3.28581 1.53672e-18)
(15.7626 3.33014 5.79837e-20)
(15.9131 3.40209 -2.02237e-18)
(16.0921 3.51018 5.36966e-20)
(16.2998 3.66383 -6.97574e-20)
(16.5337 3.87147 -1.80352e-18)
(16.788 4.13888 1.40905e-18)
(17.0558 4.46598 9.76369e-19)
(17.3269 4.85011 -7.63111e-19)
(17.5865 5.28035 6.10337e-19)
(17.8151 5.74013 -6.47551e-19)
(17.9958 6.19685 0)
(18.1206 6.6241 0)
(18.2 6.99486 -1.52409e-19)
(18.2444 7.30494 9.28744e-20)
(18.2648 7.52603 -1.97181e-19)
(15.3042 3.23644 4.58063e-20)
(15.3089 3.24724 -1.2542e-18)
(15.3385 3.2473 0)
(15.3628 3.25066 1.26048e-18)
(15.4049 3.24835 -4.81348e-18)
(15.4612 3.24789 2.0174e-20)
(15.5402 3.25464 -4.85149e-20)
(15.6417 3.27415 -1.59156e-18)
(15.7688 3.31421 3.64682e-20)
(15.9233 3.38062 2.02625e-18)
(16.1086 3.4815 -4.56267e-20)
(16.3259 3.6261 -1.19583e-18)
(16.574 3.8228 -1.19715e-19)
(16.8482 4.07727 -1.31797e-18)
(17.1432 4.38956 -1.1084e-18)
(17.4504 4.7584 4.27491e-20)
(17.7558 5.17661 0)
(18.0375 5.63299 -9.17631e-20)
(18.2724 6.09999 1.15086e-19)
(18.4453 6.55219 0)
(18.5599 6.96427 1.73905e-19)
(18.6212 7.3171 -8.86533e-20)
(18.6386 7.57077 0)
(15.3043 3.23671 1.77702e-18)
(15.3084 3.24773 1.25224e-18)
(15.3381 3.24761 0)
(15.3621 3.25082 1.25873e-18)
(15.4035 3.2476 4.82522e-18)
(15.4598 3.24524 2.18872e-18)
(15.5394 3.24905 3.79572e-18)
(15.6423 3.26464 0)
(15.7719 3.29997 2.55743e-18)
(15.9304 3.36058 -2.03015e-18)
(16.1213 3.4541 1.58822e-18)
(16.3476 3.58923 1.23696e-18)
(16.609 3.77391 -1.65739e-20)
(16.9023 4.01323 2.1391e-20)
(17.2242 4.30663 -1.12523e-18)
(17.5686 4.65353 7.84218e-19)
(17.9246 5.0507 0)
(18.27 5.49436 4.09148e-19)
(18.5773 5.96609 0)
(18.8233 6.44649 0)
(19.0003 6.91269 -1.65648e-19)
(19.1021 7.32611 -2.79445e-19)
(19.1384 7.63084 2.04791e-19)
(15.3044 3.23676 0)
(15.3086 3.24794 -5.52731e-23)
(15.3382 3.24756 1.77899e-22)
(15.3621 3.25058 -1.26924e-18)
(15.4035 3.24669 -1.19971e-18)
(15.4599 3.24317 -2.18853e-18)
(15.5399 3.24513 -1.90714e-18)
(15.6438 3.25807 -1.76633e-21)
(15.775 3.28981 -1.26569e-18)
(15.9362 3.3455 -1.85516e-20)
(16.1318 3.43221 2.14871e-20)
(16.3658 3.55799 0)
(16.6391 3.73008 1.70185e-20)
(16.9502 3.95254 -2.19391e-20)
(17.2973 4.22342 1.66397e-18)
(17.6776 4.54131 4.97908e-20)
(18.0844 4.90506 0)
(18.4993 5.31734 1.50916e-19)
(18.8955 5.77092 -1.36266e-19)
(19.2454 6.25785 0)
(19.5267 6.76075 0)
(19.7166 7.22843 2.34279e-19)
(19.8222 7.59674 -1.04488e-19)
(15.3045 3.2368 1.70915e-18)
(15.3087 3.24811 1.30228e-18)
(15.3384 3.24747 0)
(15.3621 3.25026 1.27065e-18)
(15.4035 3.24568 -1.22343e-18)
(15.4601 3.241 -2.2341e-18)
(15.5406 3.24115 1.94928e-18)
(15.6454 3.25149 -1.61887e-18)
(15.7782 3.27966 -1.29214e-18)
(15.9422 3.33038 3.08597e-18)
(16.1423 3.4101 -1.6108e-18)
(16.3836 3.52611 -1.28829e-18)
(16.6683 3.68481 -1.01861e-18)
(16.9958 3.88891 0)
(17.3658 4.13444 -5.81129e-19)
(17.7783 4.41771 9.1296e-19)
(18.2317 4.73742 4.38998e-20)
(18.7142 5.1001 -4.96583e-19)
(19.2047 5.50836 0)
(19.6753 5.96579 0)
(20.0904 6.45892 0)
(20.4138 6.93566 -4.44196e-19)
(20.6523 7.34302 3.21676e-19)
(15.3046 3.23684 -1.71152e-18)
(15.3088 3.24827 1.19907e-20)
(15.3384 3.24736 0)
(15.3621 3.24994 -1.29066e-18)
(15.4034 3.24466 -1.31612e-22)
(15.4601 3.23882 3.36557e-18)
(15.5411 3.23716 -3.92107e-18)
(15.6468 3.2449 4.88963e-18)
(15.7813 3.26947 -1.44179e-21)
(15.9478 3.31514 -1.03231e-18)
(16.1522 3.38764 -8.29149e-19)
(16.4005 3.49344 1.29099e-18)
(16.6956 3.63797 1.00616e-18)
(17.038 3.82233 -8.06366e-19)
(17.428 4.03999 1.06518e-20)
(17.8676 4.28353 -9.2252e-19)
(18.3602 4.54886 0)
(18.9018 4.8425 0)
(19.4801 5.17255 3.77189e-19)
(20.069 5.5493 0)
(20.6236 5.95871 0)
(21.1014 6.35858 7.28421e-20)
(21.511 6.72699 2.6162e-19)
(15.3046 3.23688 0)
(15.3089 3.24843 -1.3176e-18)
(15.3384 3.24726 3.6044e-23)
(15.362 3.24962 -1.12207e-20)
(15.4033 3.24366 -9.34021e-23)
(15.4602 3.23666 -2.26967e-18)
(15.5415 3.23318 1.97162e-18)
(15.6481 3.23832 -3.27141e-18)
(15.784 3.25923 -1.32576e-18)
(15.953 3.29974 0)
(16.1613 3.3648 8.25109e-19)
(16.416 3.45998 2.6319e-21)
(16.7206 3.58961 4.14447e-22)
(17.0762 3.75306 8.01797e-19)
(17.4828 3.94082 0)
(17.9431 4.14057 5.02638e-19)
(18.4641 4.34278 -1.06613e-20)
(19.0488 4.54979 0)
(19.6928 4.76963 -3.77258e-19)
(20.3708 5.01349 0)
(21.0311 5.26531 0)
(21.6317 5.50075 0)
(22.1816 5.73736 4.49149e-20)
(15.3047 3.23694 0)
(15.309 3.24859 6.68886e-19)
(15.3385 3.24716 -6.75083e-24)
(15.3619 3.24933 1.30478e-18)
(15.4032 3.24268 1.27663e-18)
(15.4601 3.23454 2.29059e-18)
(15.5418 3.22924 0)
(15.6491 3.23174 -1.6566e-18)
(15.7864 3.24895 2.65948e-18)
(15.9576 3.2842 -2.61602e-23)
(16.1696 3.34161 8.40396e-19)
(16.4301 3.42577 -6.68498e-19)
(16.7432 3.53988 0)
(17.11 3.68148 0)
(17.5296 3.83799 6.56803e-19)
(18.0032 3.9914 -4.93175e-19)
(18.5391 4.12484 0)
(19.1441 4.2332 -6.01247e-19)
(19.8178 4.32046 -4.60166e-19)
(20.5324 4.39602 0)
(21.2326 4.44561 7.93473e-21)
(21.8817 4.46726 1.28242e-21)
(22.4885 4.51385 -2.18899e-19)
(15.3048 3.237 7.23528e-24)
(15.3091 3.24876 -1.343e-18)
(15.3385 3.24708 -1.87333e-23)
(15.3619 3.24904 0)
(15.403 3.24173 1.04381e-20)
(15.46 3.23245 -2.30888e-18)
(15.542 3.22533 -4.40033e-22)
(15.65 3.22518 1.65726e-18)
(15.7885 3.23864 -1.33321e-18)
(15.9618 3.26853 1.06438e-18)
(16.177 3.3181 5.70943e-21)
(16.4427 3.39089 1.34382e-18)
(16.7634 3.48892 -1.08038e-18)
(17.1396 3.60804 3.03903e-21)
(17.5681 3.73269 -1.33193e-18)
(18.0472 3.83915 5.39591e-19)
(18.5826 3.90239 -2.57467e-20)
(19.1811 3.90854 6.24031e-19)
(19.841 3.85622 4.61427e-19)
(20.5299 3.75419 0)
(21.1931 3.59593 2.77149e-19)
(21.8039 3.40162 0)
(22.3728 3.24721 -1.40079e-19)
(15.3048 3.23707 0)
(15.3091 3.24892 6.74081e-19)
(15.3385 3.247 7.42358e-19)
(15.3618 3.24878 7.24108e-23)
(15.4028 3.24081 -2.58794e-18)
(15.4598 3.2304 1.15948e-18)
(15.5421 3.22146 0)
(15.6507 3.21864 0)
(15.7904 3.22832 -7.38676e-22)
(15.9655 3.25276 -1.06371e-18)
(16.1837 3.2943 5.08941e-21)
(16.4541 3.3554 -6.74205e-19)
(16.7812 3.43692 1.07549e-18)
(17.1647 3.53319 0)
(17.5983 3.62621 6.69613e-19)
(18.0749 3.68721 -5.22931e-19)
(18.5945 3.6836 3.86665e-19)
(19.1592 3.59338 3.70759e-20)
(19.7626 3.4111 0)
(20.3678 3.14808 0)
(20.9263 2.81071 -1.25866e-19)
(21.426 2.43846 -4.25933e-19)
(21.8803 2.11671 3.11445e-19)
(15.3049 3.23715 0)
(15.3092 3.24909 -2.8815e-23)
(15.3385 3.24692 -7.43083e-19)
(15.3617 3.24853 6.76231e-19)
(15.4027 3.23992 1.29926e-18)
(15.4597 3.22839 2.53599e-22)
(15.5421 3.21763 1.01731e-18)
(15.6513 3.21212 8.39451e-19)
(15.7921 3.21798 -1.34901e-18)
(15.9688 3.23689 0)
(16.1896 3.27025 4.55041e-21)
(16.464 3.31938 -6.85064e-19)
(16.7964 3.38405 0)
(17.1854 3.45738 -1.54229e-20)
(17.6204 3.51978 7.08845e-19)
(18.0874 3.53889 0)
(18.5772 3.47637 -5.7035e-20)
(19.0843 3.30424 -1.75604e-20)
(19.5956 3.01548 6.29548e-19)
(20.0733 2.62694 0)
(20.482 2.1602 0)
(20.827 1.66963 2.30978e-19)
(21.1249 1.23986 -8.87353e-19)
(15.305 3.23724 -1.47256e-23)
(15.3093 3.24925 1.94309e-23)
(15.3385 3.24685 0)
(15.3617 3.24829 6.84498e-19)
(15.4024 3.23906 -6.65327e-22)
(15.4594 3.22642 5.09837e-22)
(15.5421 3.21384 -1.01745e-18)
(15.6518 3.20563 -8.40701e-19)
(15.7934 3.20763 1.34964e-18)
(15.9716 3.22094 -1.0757e-18)
(16.1947 3.24596 -8.58493e-19)
(16.4724 3.28291 6.91094e-19)
(16.809 3.33048 5.4611e-19)
(17.2016 3.38104 4.26205e-19)
(17.6349 3.41452 -6.93659e-19)
(18.0864 3.39705 3.11147e-20)
(18.5357 3.28735 -4.80564e-19)
(18.9673 3.05439 -2.47972e-19)
(19.362 2.69167 -2.68056e-19)
(19.6866 2.22239 2.19557e-19)
(19.9249 1.68189 -2.85247e-19)
(20.1017 1.13424 0)
(20.2361 0.65713 3.34425e-19)
(15.305 3.23733 0)
(15.3094 3.24941 6.86432e-19)
(15.3385 3.24679 7.57179e-19)
(15.3616 3.24807 -6.78241e-19)
(15.4022 3.23823 6.60204e-19)
(15.4591 3.22448 0)
(15.5419 3.21009 1.14959e-21)
(15.6521 3.19917 -1.50484e-21)
(15.7945 3.19728 6.7892e-19)
(15.974 3.20492 1.61959e-18)
(16.1989 3.22149 -8.59535e-19)
(16.4792 3.24606 -4.95116e-21)
(16.819 3.27638 3.74577e-21)
(17.2136 3.30454 -4.4174e-19)
(17.6425 3.31131 0)
(18.0744 3.26384 5.3804e-19)
(18.4765 3.12132 -4.11352e-19)
(18.8224 2.85264 3.26274e-19)
(19.0884 2.45268 1.21145e-19)
(19.2507 1.94904 2.98145e-20)
(19.3178 1.38668 -2.71069e-19)
(19.3352 0.834026 1.99638e-19)
(19.3202 0.359033 3.4653e-19)
(15.3051 3.23742 4.33993e-19)
(15.3094 3.24958 1.92415e-21)
(15.3386 3.24674 -7.57904e-19)
(15.3615 3.24786 -6.84285e-19)
(15.4019 3.23742 -1.32378e-18)
(15.4588 3.22259 -1.18751e-18)
(15.5417 3.20638 -1.15387e-21)
(15.6522 3.19274 1.51031e-21)
(15.7953 3.18694 -6.79219e-19)
(15.9759 3.18885 -5.41353e-19)
(16.2022 3.19688 1.73053e-18)
(16.4846 3.20893 -6.96671e-19)
(16.8264 3.2219 -5.57698e-19)
(17.2214 3.22818 4.46662e-19)
(17.6442 3.21073 -2.4349e-20)
(18.0547 3.14051 -4.70717e-19)
(18.4075 2.98078 4.21364e-19)
(18.6655 2.70304 -4.53478e-19)
(18.8018 2.30302 -1.32279e-19)
(18.806 1.80868 0)
(18.7141 1.26833 2.74575e-19)
(18.5896 0.748881 -3.93086e-19)
(18.4425 0.308143 5.90968e-19)
(15.3052 3.23752 -4.34324e-19)
(15.3095 3.24974 -1.0353e-18)
(15.3386 3.24668 -7.64628e-19)
(15.3614 3.24767 6.90057e-19)
(15.4016 3.23665 6.63433e-19)
(15.4584 3.22073 1.18812e-18)
(15.5414 3.20271 1.03375e-18)
(15.6522 3.18634 0)
(15.7959 3.1766 6.83999e-19)
(15.9773 3.17276 -5.45528e-19)
(16.2047 3.17215 -8.67225e-19)
(16.4883 3.17158 6.96839e-19)
(16.8312 3.1672 0)
(17.2254 3.15218 -4.15368e-19)
(17.6412 3.11306 3.07217e-19)
(18.0303 3.02726 -2.62245e-19)
(18.3368 2.86576 1.06235e-19)
(18.5124 2.60504 1.6209e-19)
(18.5282 2.24024 -4.20227e-19)
(18.388 1.79445 2.91495e-19)
(18.1543 1.3128 0)
(17.9041 0.856317 -6.80184e-19)
(17.6378 0.474428 9.62625e-19)
(15.3052 3.23762 0)
(15.3096 3.24989 3.46004e-19)
(15.3386 3.24664 7.65027e-19)
(15.3612 3.24749 -6.90658e-19)
(15.4013 3.2359 -1.12194e-22)
(15.458 3.21891 5.18707e-22)
(15.541 3.19909 -5.14559e-19)
(15.652 3.17998 0)
(15.7962 3.16629 -6.84293e-19)
(15.9782 3.15665 -1.9351e-21)
(16.2062 3.14737 0)
(16.4905 3.13412 -3.50838e-19)
(16.8334 3.1124 0)
(17.2258 3.07667 3.13668e-20)
(17.6343 3.01821 -6.85778e-19)
(18.0046 2.92328 2.01749e-19)
(18.2719 2.77385 9.95268e-20)
(18.3784 2.55362 -3.83002e-19)
(18.2915 2.25587 1.97881e-19)
(18.0281 1.89482 2.59146e-19)
(17.6755 1.50882 -4.12024e-19)
(17.3207 1.14883 3.3873e-19)
(16.9493 0.84986 -1.30599e-18)
(15.3053 3.23772 -4.27064e-19)
(15.3096 3.25005 3.48768e-19)
(15.3385 3.24659 -3.85384e-19)
(15.3611 3.24732 -3.66124e-22)
(15.401 3.23517 6.80437e-22)
(15.4575 3.21713 -1.21706e-21)
(15.5405 3.19551 -5.19394e-19)
(15.6517 3.17367 3.42881e-21)
(15.7962 3.15601 -2.47739e-21)
(15.9786 3.14056 -1.76468e-21)
(16.2069 3.12256 -4.37888e-19)
(16.4911 3.09661 3.38476e-19)
(16.8331 3.05762 1.61495e-20)
(17.2228 3.00169 -3.12306e-20)
(17.6245 2.92578 3.8588e-19)
(17.9803 2.82681 0)
(18.2197 2.70038 1.75591e-19)
(18.2765 2.53942 2.54658e-19)
(18.1133 2.33583 -1.5549e-19)
(17.7596 2.09444 3.9646e-19)
(17.3245 1.84428 -1.78113e-19)
(16.8863 1.61242 2.87262e-20)
(16.3995 1.40467 4.29393e-19)
(15.3053 3.23782 8.51586e-19)
(15.3097 3.25019 -3.49052e-19)
(15.3385 3.24655 -1.44946e-21)
(15.361 3.24717 0)
(15.4006 3.23447 0)
(15.457 3.21539 -6.06738e-19)
(15.5399 3.19197 -5.24401e-19)
(15.6513 3.1674 0)
(15.796 3.14576 -3.04826e-21)
(15.9786 3.1245 5.53867e-19)
(16.2068 3.09778 4.4591e-19)
(16.4902 3.05913 -1.00797e-20)
(16.8302 3.00296 -1.99898e-20)
(17.2165 2.92721 5.67368e-20)
(17.6125 2.83508 -3.97486e-20)
(17.9593 2.73525 0)
(18.1848 2.63873 -2.57433e-19)
(18.2167 2.54922 -4.36334e-21)
(18.0131 2.45975 -3.81474e-19)
(17.6156 2.36791 1.57899e-19)
(17.1374 2.28731 1.35059e-19)
(16.6143 2.20414 -2.09139e-19)
(15.9901 2.09884 0)
(15.3054 3.23792 -8.46217e-19)
(15.3097 3.25034 3.92524e-23)
(15.3385 3.2465 3.87484e-19)
(15.3608 3.24702 0)
(15.4003 3.2338 0)
(15.4565 3.21369 -2.71715e-21)
(15.5393 3.18849 1.05102e-18)
(15.6507 3.16118 0)
(15.7956 3.13557 3.47492e-19)
(15.9781 3.10848 0)
(16.2057 3.07306 0)
(16.4877 3.02178 -1.25371e-20)
(16.8249 2.94853 1.61537e-20)
(17.2071 2.85317 1.91299e-19)
(17.5987 2.74528 3.94923e-20)
(17.9428 2.64542 -6.26977e-20)
(18.1699 2.58056 2.47659e-19)
(18.2053 2.56672 0)
(18.0056 2.60121 1.21039e-19)
(17.6183 2.67734 0)
(17.1331 2.79121 1.32183e-20)
(16.5479 2.89499 9.14608e-21)
(15.8479 2.94592 0)
(15.3054 3.23802 6.31679e-19)
(15.3098 3.25048 -1.77492e-19)
(15.3385 3.24646 0)
(15.3607 3.24688 3.54114e-19)
(15.3999 3.23315 -3.42025e-19)
(15.456 3.21202 6.10748e-19)
(15.5386 3.18505 -5.27535e-19)
(15.65 3.15501 -4.38738e-19)
(15.7949 3.12542 -3.45153e-19)
(15.9772 3.09253 -4.88124e-21)
(16.2038 3.04845 6.33077e-21)
(16.4836 2.98461 3.51489e-19)
(16.8171 2.89441 1.98512e-20)
(17.1946 2.77948 -2.78559e-19)
(17.583 2.65543 3.92185e-20)
(17.9309 2.55385 0)
(18.1749 2.51661 0)
(18.2435 2.573 0)
(18.0959 2.7271 0)
(17.7774 2.97169 -1.74745e-20)
(17.3439 3.29183 2.01866e-21)
(16.7801 3.61593 -1.34862e-20)
(16.0744 3.85096 0)
(15.3055 3.23811 -2.09866e-19)
(15.3098 3.25062 3.562e-19)
(15.3385 3.24642 0)
(15.3606 3.24676 -3.54495e-19)
(15.3995 3.23253 6.86962e-19)
(15.4554 3.2104 0)
(15.5379 3.18167 0)
(15.6492 3.1489 4.37029e-19)
(15.794 3.11534 0)
(15.9758 3.07667 -2.7227e-19)
(16.201 3.02398 -2.25953e-19)
(16.478 2.94772 -1.76471e-19)
(16.8069 2.8407 2.79621e-19)
(17.1789 2.70609 0)
(17.5651 2.56465 0)
(17.9222 2.45715 5.9916e-20)
(18.1968 2.43767 -7.6408e-20)
(18.3262 2.54772 0)
(18.2767 2.79888 -4.51019e-20)
(18.086 3.18442 1.70598e-20)
(17.7744 3.67746 -3.13749e-20)
(17.2869 4.1687 3.74434e-20)
(16.5318 4.51343 0)
(15.3055 3.2382 2.99492e-23)
(15.3099 3.25074 -3.58476e-19)
(15.3385 3.24638 -1.1733e-22)
(15.3604 3.24664 -1.79053e-19)
(15.3992 3.23193 -3.44931e-19)
(15.4548 3.20882 3.09901e-19)
(15.537 3.17834 9.37746e-22)
(15.6482 3.14285 -2.2196e-19)
(15.7928 3.10533 3.55757e-19)
(15.9739 3.06092 2.7331e-19)
(16.1973 2.99971 2.19774e-19)
(16.4708 2.91118 -1.75488e-19)
(16.7942 2.7875 -2.79888e-19)
(17.1599 2.63298 -3.01737e-20)
(17.5443 2.4722 3.86805e-20)
(17.9145 2.35244 5.96179e-20)
(18.2296 2.33579 -7.59008e-20)
(18.441 2.47256 0)
(18.5255 2.78059 4.46037e-20)
(18.5067 3.25127 0)
(18.3483 3.83828 -2.22145e-21)
(17.8971 4.3888 0)
(16.9834 4.73245 2.37854e-21)
(15.3056 3.23828 1.03821e-19)
(15.3099 3.25087 1.79748e-19)
(15.3385 3.24634 1.98397e-19)
(15.3603 3.24653 -6.08289e-22)
(15.3988 3.23135 -5.88165e-22)
(15.4541 3.20728 2.21592e-21)
(15.5361 3.17505 -2.6852e-19)
(15.6471 3.13685 -2.13782e-21)
(15.7913 3.0954 -3.50344e-19)
(15.9715 3.04528 -4.87564e-21)
(16.1928 2.97568 2.25212e-19)
(16.4622 2.87506 0)
(16.779 2.73496 -1.94879e-20)
(17.1374 2.5602 2.51121e-20)
(17.5196 2.37768 8.19114e-20)
(17.9043 2.2378 0)
(18.2649 2.20547 0)
(18.5695 2.3348 -4.89226e-20)
(18.8062 2.64735 0)
(18.9723 3.13087 7.70404e-20)
(18.9436 3.71787 -7.93196e-20)
(18.4375 4.23332 6.15443e-21)
(17.2677 4.51041 -5.05355e-20)
(15.3057 3.23836 -2.07477e-19)
(15.31 3.25098 -9.08842e-20)
(15.3384 3.2463 -2.98026e-19)
(15.3601 3.24643 1.81065e-19)
(15.3984 3.2308 1.74765e-19)
(15.4535 3.20577 -4.69264e-19)
(15.5352 3.17183 2.68904e-19)
(15.6459 3.13093 2.1887e-19)
(15.7896 3.08555 5.61324e-21)
(15.9687 3.02979 -4.007e-21)
(16.1874 2.95191 -2.19053e-19)
(16.452 2.83946 -8.65094e-20)
(16.7614 2.6832 1.17861e-19)
(17.1112 2.48791 1.32255e-19)
(17.4898 2.28106 -8.21254e-20)
(17.8876 2.11254 0)
(18.2924 2.04456 0)
(18.6892 2.12941 -1.03245e-19)
(19.0741 2.38936 1.23469e-19)
(19.4057 2.80961 0)
(19.4511 3.31411 -1.41719e-20)