/*--------------------------------*- C++ -*----------------------------------*\
  =========                 |
  \\      /  F ield         | OpenFOAM: The Open Source CFD Toolbox
   \\    /   O peration     | Website:  https://openfoam.org
    \\  /    A nd           | Version:  7
     \\/     M anipulation  |
\*---------------------------------------------------------------------------*/
FoamFile
{
    version     2.0;
    format      ascii;
    class       volScalarField;
    location    "80";
    object      yPlus;
}
// * * * * * * * * * * * * * * * * * * * * * * * * * * * * * * * * * * * * * //

dimensions      [0 0 0 0 0 0 0];

internalField   uniform 0;

boundaryField
{
    inlet
    {
        type            calculated;
        value           uniform 0;
    }
    outlet
    {
        type            calculated;
        value           uniform 0;
    }
    suction_side
    {
        type            calculated;
        value           nonuniform List<scalar> 
56
(
10.9879
11.8404
11.5335
12.4268
12.8027
13.4054
15.3151
16.7342
21.6093
27.5931
26.2315
17.9678
21.5584
24.758
23.745
23.9428
24.7332
27.827
34.8005
40.7517
43.4834
44.4244
43.9283
46.5725
44.6173
51.9566
46.6498
36.3304
41.7924
44.3538
43.3572
41.4634
38.8437
35.6734
32.2385
29.0215
26.781
25.2141
23.9546
23.7218
24.9224
27.207
32.4398
35.632
31.0008
20.9377
25.5657
29.1745
29.1093
25.1455
20.6792
19.1904
21.3095
22.1793
22.3984
23.1412
)
;
    }
    pressure_side
    {
        type            calculated;
        value           nonuniform List<scalar> 
56
(
49.4598
46.8156
44.7563
44.0115
42.7299
41.8988
40.8692
39.9747
39.2459
38.7803
38.4215
38.1434
37.9216
37.7357
37.5798
37.4434
37.3261
37.225
37.1339
37.0407
36.9232
36.7655
36.5582
36.3168
36.0745
35.893
35.8487
35.9703
36.2895
36.7512
37.2614
37.6675
37.7546
36.9537
35.589
33.5684
30.7911
27.2518
23.0325
18.4274
13.8622
9.95236
6.31287
5.30911
4.91965
5.37075
5.94408
7.23216
7.66579
9.00139
9.6274
9.57868
10.4265
10.3033
10.9952
10.9505
)
;
    }
    trailing_edge
    {
        type            calculated;
        value           nonuniform List<scalar> 2(155.356 109.804);
    }
    defaultFaces
    {
        type            empty;
    }
}


// ************************************************************************* //
