/*--------------------------------*- C++ -*----------------------------------*\
  =========                 |
  \\      /  F ield         | OpenFOAM: The Open Source CFD Toolbox
   \\    /   O peration     | Website:  https://openfoam.org
    \\  /    A nd           | Version:  7
     \\/     M anipulation  |
\*---------------------------------------------------------------------------*/
FoamFile
{
    version     2.0;
    format      ascii;
    class       volScalarField;
    location    "183";
    object      k;
}
// * * * * * * * * * * * * * * * * * * * * * * * * * * * * * * * * * * * * * //

dimensions      [0 2 -2 0 0 0 0];

internalField   nonuniform List<scalar> 
12842
(
0.00567244
0.00506277
0.00471819
0.00445954
0.00429399
0.00415872
0.0040801
0.00401933
0.00398712
0.00397621
0.0039896
0.00403121
0.00412533
0.0042286
0.00432742
0.00439362
0.00444495
0.00446411
0.00449339
0.00450825
0.00452224
0.00453416
0.0045363
0.00563037
0.00498929
0.00465046
0.00441825
0.00427874
0.00415043
0.00407302
0.0040135
0.00397724
0.00396966
0.00398595
0.00403325
0.00413482
0.00424278
0.00432964
0.00439499
0.00444728
0.00446567
0.00449511
0.00450551
0.00452122
0.0045315
0.00453732
0.00557938
0.00492803
0.00458373
0.00435381
0.0042284
0.00411711
0.0040472
0.00399468
0.00396078
0.00396103
0.00398128
0.00403847
0.00415444
0.00426912
0.00434899
0.00440975
0.00445654
0.00447477
0.00449684
0.00450839
0.00452193
0.00453124
0.00453689
0.00550506
0.00484231
0.00451661
0.0043025
0.00419133
0.0040908
0.00402996
0.00398281
0.00395026
0.00395451
0.00398193
0.00404531
0.00416506
0.0042897
0.00436074
0.00441713
0.00446147
0.00447978
0.00450122
0.00450944
0.00452104
0.00453099
0.00453476
0.00544222
0.00476749
0.00444904
0.00424236
0.00414546
0.00405833
0.00400512
0.00396627
0.00393917
0.00394794
0.00398292
0.00405809
0.0041916
0.0043205
0.00438583
0.00443569
0.004472
0.00448797
0.00450843
0.00451547
0.00452648
0.00453363
0.0045388
0.00535699
0.00468531
0.00438828
0.00419495
0.00410765
0.00403106
0.00398788
0.00395343
0.00393054
0.00394248
0.00398163
0.00406737
0.00420441
0.00433886
0.00440169
0.00444773
0.00447774
0.00449343
0.00451534
0.00452247
0.00453236
0.00453851
0.00454838
0.00529003
0.00461534
0.00433023
0.00414634
0.00407011
0.00400254
0.00396678
0.00393977
0.0039217
0.00393766
0.00398365
0.00408407
0.0042325
0.00436504
0.00441969
0.00446236
0.00448839
0.00450291
0.00452007
0.00452808
0.00454257
0.00454998
0.00455833
0.0052061
0.00454561
0.0042798
0.00410683
0.00403808
0.00397918
0.00395182
0.00392765
0.00391467
0.00393343
0.00398462
0.00409301
0.00424652
0.00438177
0.0044353
0.00447561
0.0044951
0.0045105
0.00452946
0.00453656
0.00454931
0.00455818
0.00457209
0.00513697
0.00448699
0.00423509
0.00407155
0.00401061
0.003957
0.00393718
0.00391692
0.00390749
0.00392928
0.00398767
0.0041104
0.00426626
0.00439809
0.00444212
0.00448083
0.00449781
0.00451597
0.00453245
0.00454148
0.00455993
0.00457103
0.00458291
0.00504285
0.00442104
0.00419169
0.00404072
0.00398761
0.00394034
0.00392623
0.00390835
0.0039023
0.00392693
0.00399179
0.00411905
0.00427789
0.00440749
0.00444878
0.00448529
0.00449979
0.00451886
0.00453786
0.00454789
0.00456739
0.00457938
0.00459595
0.00496467
0.00436817
0.00415461
0.0040132
0.00396695
0.00392347
0.0039153
0.00390043
0.00389744
0.00392389
0.00400081
0.00413193
0.0042923
0.00441801
0.00445186
0.00448761
0.00450212
0.00452477
0.00454176
0.0045571
0.00457927
0.00459455
0.00460956
0.00487096
0.00431175
0.00411741
0.00398742
0.00394805
0.00390943
0.00390513
0.00389318
0.00389318
0.00392508
0.00401579
0.004139
0.00430527
0.00442543
0.00445741
0.00449233
0.00450616
0.00453094
0.00455087
0.00456909
0.00459175
0.0046075
0.00462729
0.0047939
0.00426693
0.00408629
0.00396444
0.00393087
0.00389499
0.00389563
0.0038856
0.00388924
0.0039231
0.00401865
0.00415276
0.0043207
0.0044326
0.00446021
0.00449486
0.00451043
0.00453973
0.0045585
0.00458437
0.0046078
0.00462907
0.00464716
0.00471717
0.00422044
0.00405477
0.0039435
0.0039152
0.00388319
0.00388661
0.00387924
0.00388589
0.00392653
0.00401423
0.00416279
0.00433384
0.00443818
0.00446506
0.00450064
0.00451711
0.0045504
0.00457299
0.00460271
0.00462683
0.00464862
0.00467098
0.00465878
0.00418365
0.00402867
0.00392452
0.00390044
0.00387083
0.00387786
0.00387176
0.00388248
0.00392588
0.00401394
0.00418162
0.0043485
0.00444271
0.00446959
0.00450483
0.00452511
0.00456271
0.00458765
0.00462426
0.0046486
0.00467802
0.0046973
0.00459889
0.00414585
0.00400205
0.00390774
0.00388722
0.00386092
0.00386989
0.00386606
0.00387981
0.00392582
0.00401915
0.00419893
0.00435844
0.00444591
0.00447612
0.00451408
0.00453677
0.00457991
0.00460981
0.00465073
0.00467712
0.00470671
0.0047319
0.00455432
0.00411582
0.00398019
0.00389192
0.00387416
0.00385025
0.00386148
0.00385871
0.00387641
0.00392457
0.00402617
0.00422014
0.0043702
0.00445065
0.00448132
0.0045203
0.00455158
0.00459847
0.00463351
0.00467785
0.00470543
0.00474364
0.00475928
0.00450701
0.00408479
0.00395776
0.00387821
0.00386288
0.00384198
0.00385437
0.0038535
0.00387381
0.00393025
0.00403662
0.00423521
0.00437791
0.00445384
0.00449262
0.00453572
0.00457086
0.00462316
0.00466379
0.00471298
0.00474627
0.00477957
0.00481253
0.00447247
0.00406015
0.00393938
0.00386473
0.00385117
0.00383278
0.00384629
0.00384655
0.00387003
0.00393126
0.00405208
0.0042655
0.00438744
0.00446136
0.00450211
0.00454638
0.00459453
0.00465023
0.00469774
0.00474664
0.00478149
0.00483267
0.00484941
0.004435
0.00403427
0.00392046
0.00385312
0.00384164
0.00382586
0.00383983
0.00384178
0.00386709
0.00393077
0.00406562
0.00428488
0.0043959
0.00446856
0.00451914
0.00456943
0.00462273
0.00468228
0.00473419
0.00478941
0.0048398
0.00486934
0.00490916
0.00440758
0.00401389
0.00390472
0.00384128
0.0038312
0.00381797
0.00383238
0.0038355
0.00386255
0.00393883
0.00407769
0.00431726
0.00440595
0.00448159
0.00453713
0.00458904
0.00465482
0.0047174
0.00477896
0.00483769
0.00488168
0.00495258
0.00500578
0.00437784
0.00399184
0.00388852
0.00383092
0.00382315
0.00381196
0.00382641
0.00383111
0.00385925
0.00393999
0.00409689
0.00433864
0.00441857
0.00449298
0.0045611
0.0046201
0.00469141
0.00475775
0.00482389
0.00489006
0.00497748
0.00503437
0.00507089
0.0043556
0.00397482
0.0038745
0.00382028
0.00381396
0.00380515
0.00381988
0.00382576
0.00385462
0.00394333
0.00409873
0.00437242
0.00443188
0.00451548
0.00458722
0.00464783
0.00473072
0.00480197
0.00488382
0.00497736
0.00504316
0.00511198
0.00520862
0.00433584
0.00395968
0.00386364
0.00381336
0.00380911
0.00380141
0.00381515
0.00382167
0.00384962
0.00394401
0.00412983
0.00438135
0.00444839
0.00453549
0.00461512
0.00468445
0.0047752
0.00485613
0.00495287
0.00502889
0.00514282
0.00535241
0.00592573
0.00432171
0.00394978
0.00385565
0.00380885
0.00380619
0.00379954
0.00381261
0.00381901
0.0038466
0.00394082
0.00412784
0.00441237
0.0044618
0.00456016
0.0046445
0.00471749
0.0048218
0.00490709
0.00501841
0.00514579
0.00552889
0.0070217
0.0120988
0.00430832
0.00394012
0.00384834
0.00380465
0.00380384
0.00379784
0.00381026
0.00381696
0.00384384
0.00393824
0.00413177
0.00441773
0.00448554
0.0045859
0.00467253
0.00475641
0.00487269
0.00494824
0.00502672
0.00557511
0.00806693
0.0186235
0.0529333
0.00429498
0.00393113
0.00384005
0.00380028
0.00380129
0.00379652
0.00380864
0.00381507
0.00384103
0.00394436
0.00410749
0.00442294
0.00450359
0.00461243
0.00470375
0.00479417
0.00493783
0.00506971
0.00558022
0.00827041
0.024607
0.0919521
0.28714
0.00428339
0.00392239
0.00383264
0.00379607
0.00379908
0.00379521
0.00380688
0.00381362
0.00384119
0.00394071
0.00412556
0.00441554
0.00453508
0.0046412
0.00473214
0.00484026
0.00498166
0.00523428
0.00737673
0.0239691
0.108334
0.438142
1.39285
0.00427082
0.00391415
0.00382432
0.00379159
0.00379653
0.00379426
0.00380585
0.00381246
0.00384088
0.00394951
0.00410935
0.00441889
0.0045574
0.00466868
0.00476549
0.00488608
0.00521594
0.0069902
0.0180792
0.0896242
0.455327
1.56255
3.51772
0.00426074
0.00390615
0.0038171
0.00378724
0.00379418
0.0037932
0.00380436
0.00381148
0.00384023
0.00394953
0.00410339
0.00441689
0.0045906
0.0046954
0.00479438
0.0049523
0.00554195
0.0105485
0.0472561
0.271438
1.08662
2.85631
5.52145
0.00424895
0.00389844
0.00380904
0.00378261
0.00379153
0.0037924
0.00380339
0.00381083
0.00383984
0.00395222
0.00410611
0.00440612
0.00461713
0.00472602
0.00483579
0.00507256
0.00672952
0.0216024
0.125853
0.566142
1.81584
4.15176
7.37643
0.00423997
0.00389107
0.00380221
0.00377809
0.00378882
0.00379141
0.00380189
0.00381021
0.00383982
0.00395423
0.00411616
0.00439857
0.00464726
0.0047488
0.0048745
0.00530933
0.00941845
0.0474335
0.235315
0.929533
2.66743
5.4208
8.50123
0.00422896
0.00388381
0.00379466
0.00377342
0.00378593
0.00379049
0.00380058
0.00380971
0.00383755
0.00394768
0.00412504
0.00440799
0.00467952
0.00478633
0.00492801
0.00568096
0.0134538
0.0719277
0.349695
1.31172
3.56805
5.9277
8.0526
0.00422067
0.00387701
0.00378847
0.00376882
0.00378269
0.0037894
0.00379897
0.00380916
0.00383902
0.00395451
0.0041426
0.00443224
0.00470611
0.00480893
0.00499617
0.00646848
0.0225975
0.116898
0.503988
1.82999
4.06448
6.22915
7.49875
0.00421043
0.00387019
0.00378172
0.00376424
0.00377958
0.0037882
0.00379726
0.00380839
0.00383813
0.00395182
0.00415382
0.00445677
0.00474605
0.004856
0.00511232
0.00709776
0.0273193
0.157983
0.657018
2.28141
4.4093
6.49221
7.14293
0.00420246
0.00386396
0.00377643
0.00375963
0.00377587
0.00378686
0.00379562
0.00380779
0.00383789
0.00395036
0.00417663
0.00448845
0.00477246
0.00488326
0.0052489
0.00945795
0.0513635
0.192061
0.886752
2.54949
4.86489
6.6289
7.06707
0.00419295
0.00385766
0.00377072
0.00375526
0.00377258
0.00378521
0.00379374
0.00380684
0.00383831
0.00395259
0.00418945
0.00452
0.00481877
0.00493241
0.00542884
0.012913
0.0601556
0.27576
1.03755
2.82828
5.1956
6.76799
6.96362
0.00418506
0.003852
0.00376651
0.00375082
0.00376854
0.00378338
0.0037922
0.00380617
0.00383985
0.00396112
0.00421535
0.00455785
0.00484702
0.00497511
0.00576624
0.0148386
0.0799827
0.363676
1.13222
3.20521
5.53551
6.86028
6.83763
0.00417621
0.00384634
0.00376196
0.00374674
0.00376503
0.00378114
0.00379048
0.00380508
0.00384117
0.00396676
0.00422994
0.00459537
0.00489596
0.00501586
0.00576216
0.015816
0.0635737
0.407079
1.4891
3.76267
5.95372
6.77115
6.65681
0.00416829
0.00384121
0.00375885
0.00374271
0.00376084
0.00377867
0.00378903
0.00380395
0.00384436
0.00397906
0.00425999
0.00463807
0.0049265
0.00505827
0.00570611
0.0169273
0.0862585
0.37734
1.89842
3.89603
6.2566
6.70858
6.48169
0.00416006
0.00383625
0.00375543
0.00373897
0.00375698
0.00377578
0.00378757
0.00380189
0.00384682
0.00398633
0.00427705
0.00468507
0.00497536
0.00509806
0.00618646
0.0162578
0.0628827
0.334348
1.62349
4.5818
6.40413
6.54547
6.13612
0.00415216
0.00383158
0.0037533
0.0037355
0.00375277
0.00377267
0.00378621
0.00380051
0.00385275
0.0040017
0.00431149
0.00472511
0.00500748
0.00514397
0.00593433
0.016949
0.0930559
0.50662
1.92526
3.97769
6.33834
6.57627
5.94087
0.00414449
0.00382728
0.00375083
0.00373212
0.00374858
0.00376923
0.00378502
0.00380048
0.00385712
0.0040106
0.00433362
0.00478359
0.00505674
0.00516846
0.00593252
0.0127783
0.0756815
0.481102
1.98291
4.25366
6.43515
6.84978
5.90487
0.00413679
0.00382297
0.00374945
0.00372916
0.00374439
0.00376569
0.00378382
0.00380123
0.00386507
0.00402934
0.0043721
0.00481703
0.00508937
0.00521573
0.00611757
0.0149418
0.0818814
0.480124
1.91621
4.20166
6.3186
7.04916
5.98644
0.00412963
0.0038192
0.0037477
0.00372613
0.00374014
0.00376194
0.00378272
0.00380211
0.00387077
0.00403994
0.00439935
0.00487943
0.00513618
0.00526307
0.00637555
0.0138114
0.0746852
0.419423
1.62024
3.9302
5.82427
6.73601
5.97386
0.00412237
0.00381518
0.00374677
0.00372356
0.00373597
0.0037583
0.00378168
0.00380347
0.00388011
0.00406197
0.00444121
0.00491339
0.00518156
0.00537064
0.00792559
0.014793
0.0799804
0.396344
1.63682
3.77779
5.36867
6.05804
5.68218
0.00411568
0.00381175
0.00374548
0.00372081
0.00373208
0.00375461
0.00378056
0.00380491
0.00388619
0.00407422
0.00447211
0.00497393
0.00524012
0.00563918
0.00949478
0.0269927
0.149462
0.531685
1.8062
3.39395
4.53536
5.45652
5.45808
0.00410901
0.003808
0.00374462
0.00371856
0.00372805
0.00375115
0.00377955
0.00380667
0.00389649
0.00409852
0.00451615
0.00501015
0.00534966
0.00628703
0.016826
0.0666203
0.284395
0.777672
2.06362
3.2033
4.19785
5.14193
5.54392
0.00410285
0.00380482
0.00374367
0.00371609
0.00372482
0.00374794
0.00377891
0.00380874
0.00390205
0.00411167
0.00454871
0.00508015
0.00559616
0.0086504
0.0292824
0.148456
0.460454
1.12445
2.43513
3.40693
4.38225
5.29521
5.74086
0.00409735
0.00380196
0.00374323
0.00371457
0.0037217
0.00374508
0.00377738
0.00381087
0.00391151
0.00413219
0.00458764
0.00513269
0.00594607
0.0122138
0.0547419
0.249519
0.681655
1.57814
2.85837
3.74721
4.73063
5.53548
6.01862
0.00409319
0.00379989
0.00374314
0.00371319
0.00371966
0.003743
0.0037769
0.00381368
0.00391601
0.00414308
0.00461056
0.00522217
0.00679013
0.0193387
0.0942755
0.369862
0.948042
2.07322
3.28508
4.10596
5.09488
5.833
6.35486
0.00408974
0.0037983
0.00374338
0.00371245
0.00371817
0.00374119
0.00377687
0.0038158
0.00392304
0.00415681
0.00463719
0.00532273
0.00758603
0.0276174
0.139597
0.513478
1.23817
2.58447
3.71286
4.48831
5.44845
6.16424
6.75928
0.00408733
0.00379702
0.003743
0.00371204
0.00371746
0.00373997
0.00377689
0.00381846
0.00392675
0.00416566
0.00465043
0.005407
0.00876753
0.0345875
0.188084
0.666617
1.57708
3.10145
4.12834
4.8543
5.80276
6.558
7.25851
0.00408517
0.00379606
0.00374327
0.00371191
0.00371628
0.00373895
0.0037775
0.00382039
0.00393268
0.00417699
0.00466912
0.00552278
0.0100119
0.0463378
0.241481
0.831275
1.92577
3.58701
4.48206
5.21365
6.19602
7.02456
7.81218
0.00408379
0.00379524
0.0037431
0.0037118
0.00371594
0.00373828
0.00377786
0.00382226
0.00393609
0.00418462
0.00467869
0.00558606
0.0107733
0.0533437
0.285691
0.993382
2.32111
4.03349
4.77583
5.58157
6.64626
7.54668
8.35876
0.00408238
0.00379456
0.00374268
0.0037117
0.00371525
0.00373773
0.00377836
0.00382429
0.00394174
0.00419612
0.00469343
0.00566278
0.0120591
0.0641296
0.338775
1.16777
2.65235
4.34326
5.10461
5.97884
7.12741
8.0664
8.85733
0.00408143
0.00379391
0.00374195
0.00371155
0.00371515
0.00373743
0.00377811
0.0038252
0.00394507
0.00420419
0.00470418
0.00570087
0.0126181
0.0709869
0.377081
1.3027
2.92517
4.63608
5.41172
6.36712
7.60916
8.57614
9.33856
0.00408008
0.00379311
0.00374084
0.00371143
0.00371504
0.00373692
0.0037782
0.00382608
0.00394916
0.00421307
0.00471636
0.0057183
0.0129959
0.0767098
0.411572
1.43439
3.18918
4.92845
5.72036
6.78111
8.10378
9.05988
9.75187
0.00407898
0.00379222
0.00373953
0.00371121
0.00371503
0.00373655
0.00377773
0.0038262
0.00395206
0.0042214
0.0047322
0.00574439
0.0132766
0.0807347
0.439023
1.55535
3.44536
5.23606
6.04619
7.21955
8.59002
9.49831
10.0914
0.00407732
0.0037911
0.00373792
0.00371105
0.00371552
0.00373633
0.00377689
0.00382636
0.00395569
0.00423093
0.00474912
0.00575223
0.0134275
0.0830481
0.457468
1.66895
3.69145
5.56184
6.40445
7.68572
9.06087
9.89478
10.3858
0.00407599
0.00378987
0.00373617
0.00371068
0.00371497
0.00373571
0.00377576
0.00382654
0.00395783
0.00423928
0.00476891
0.00577476
0.0135628
0.0839147
0.466809
1.7443
3.92322
5.90277
6.80344
8.17416
9.51543
10.2601
10.6467
0.00407404
0.00378843
0.00373423
0.00371033
0.00371494
0.00373558
0.0037744
0.00382646
0.00396092
0.00424966
0.00478881
0.00577747
0.0136548
0.0839824
0.469179
1.78995
4.13878
6.25025
7.24132
8.67292
9.94673
10.5944
10.8871
0.00407251
0.00378684
0.00373222
0.00370975
0.00371495
0.00373575
0.00377291
0.00382645
0.0039625
0.00425878
0.00480892
0.00580486
0.0136885
0.0843469
0.470942
1.82304
4.33859
6.59675
7.70882
9.16697
10.3454
10.9006
11.101
0.00407034
0.00378513
0.00373009
0.00370914
0.00371499
0.00373566
0.00377134
0.00382647
0.00396544
0.00427037
0.00483016
0.00581001
0.0138232
0.0844349
0.46937
1.81835
4.52263
6.93362
8.18962
9.6409
10.7056
11.1622
11.2906
0.00406867
0.0037832
0.00372799
0.00370899
0.00371533
0.0037354
0.00376981
0.00382641
0.00396697
0.00428058
0.00484962
0.0058125
0.0138513
0.084387
0.466434
1.81956
4.6911
7.25119
8.66311
10.0797
11.0246
11.3751
11.4432
0.00406638
0.00378127
0.00372582
0.00370788
0.0037152
0.00373506
0.0037683
0.00382639
0.0039704
0.00429307
0.00487297
0.00583288
0.0138354
0.0840391
0.463544
1.82057
4.84367
7.54244
9.10899
10.4725
11.2929
11.5421
11.5459
0.0040646
0.0037791
0.0037238
0.00370759
0.00371461
0.00373467
0.00376695
0.00382663
0.00397241
0.00430377
0.00489631
0.00589267
0.0139112
0.0843682
0.461709
1.81321
4.97506
7.80496
9.51092
10.8114
11.5212
11.648
11.6252
0.00406228
0.00377702
0.00372172
0.00370706
0.00371409
0.00373426
0.0037657
0.00382644
0.00397684
0.00431665
0.00492614
0.00607147
0.0147811
0.0855657
0.46289
1.82488
5.08679
8.03973
9.85922
11.0942
11.6806
11.7417
11.6903
0.00406038
0.00377477
0.00371992
0.00370689
0.00371336
0.00373384
0.00376459
0.00382652
0.00397932
0.00432694
0.00495974
0.00637115
0.0166693
0.0926359
0.474553
1.83451
5.17844
8.24738
10.1511
11.323
11.782
11.7935
11.7199
0.00405813
0.00377261
0.00371802
0.00370647
0.0037127
0.00373343
0.00376359
0.00382634
0.00398449
0.00434017
0.00500187
0.00673927
0.0199029
0.107266
0.507349
1.85539
5.25288
8.42454
10.3883
11.4931
11.8369
11.8032
11.6947
0.00405607
0.00377043
0.00371643
0.00370629
0.00371192
0.00373298
0.00376276
0.00382621
0.00398727
0.00434975
0.00505002
0.00730041
0.0244926
0.129883
0.563129
1.89785
5.31588
8.57171
10.5756
11.605
11.8426
11.7818
11.6305
0.00405394
0.00376827
0.00371476
0.00370679
0.00371127
0.00373259
0.0037619
0.00382648
0.00399308
0.00436389
0.0051074
0.00786999
0.0301008
0.159679
0.641896
1.96869
5.37376
8.68919
10.7226
11.661
11.828
11.7366
11.5325
0.00405165
0.00376625
0.00371326
0.00370666
0.00371034
0.00373225
0.00376116
0.00382638
0.00399611
0.00437335
0.00517055
0.00867378
0.0371264
0.196988
0.744274
2.07165
5.43422
8.77977
10.834
11.6806
11.7906
11.6576
11.4011
0.00404961
0.00376413
0.00371178
0.00370612
0.00370964
0.00373183
0.00376036
0.0038273
0.00400262
0.0043891
0.00524147
0.00937392
0.0448087
0.239593
0.866034
2.20676
5.5067
8.84969
10.8743
11.6835
11.7397
11.546
11.239
0.00404709
0.00376226
0.00371032
0.00370539
0.00370856
0.0037315
0.00375969
0.00382806
0.00400609
0.00439933
0.0053127
0.0102728
0.0529942
0.288881
1.00548
2.37295
5.59901
8.90514
10.8837
11.6588
11.6581
11.4018
11.0481
0.00404502
0.00376024
0.00370885
0.00370452
0.00370772
0.00373105
0.00375895
0.00383036
0.00401359
0.00441718
0.00539342
0.0111006
0.062287
0.341483
1.15973
2.56709
5.71776
8.95207
10.868
11.5924
11.5424
11.2259
10.8308
0.00404231
0.00375842
0.0037074
0.00370345
0.00370682
0.00373031
0.00375839
0.00383208
0.00401779
0.00442874
0.00546745
0.0119233
0.0702919
0.396861
1.32474
2.78678
5.86927
8.99637
10.8296
11.4901
11.3957
11.0226
10.5906
0.00404004
0.00375656
0.00370583
0.00370213
0.00370566
0.0037298
0.00375771
0.00383546
0.00402663
0.00444887
0.00554935
0.0127622
0.0791064
0.44944
1.49806
3.02956
6.05662
9.0442
10.7713
11.3533
11.22
10.796
10.3317
0.00403718
0.00375461
0.00370431
0.00370051
0.00370451
0.00372884
0.00375708
0.00383801
0.0040319
0.00446188
0.00562524
0.0136118
0.0873251
0.500686
1.6761
3.29361
6.27963
9.09982
10.6966
11.1933
11.0201
10.5478
10.059
0.00403459
0.0037529
0.00370263
0.00369857
0.00370367
0.00372801
0.00375653
0.00384228
0.0040424
0.0044843
0.00570638
0.0145878
0.0949733
0.546004
1.84812
3.57748
6.53578
9.16467
10.6073
11.0147
10.802
10.2884
9.77754
0.00403154
0.00375069
0.00370104
0.00369632
0.00370167
0.00372703
0.00375583
0.00384553
0.00404907
0.00449874
0.00578313
0.0155451
0.102404
0.586365
2.01741
3.88093
6.81476
9.23587
10.5082
10.8209
10.5682
10.0201
9.49382
0.00402857
0.00374895
0.00369922
0.00369391
0.00370036
0.00372625
0.00375507
0.00385052
0.0040615
0.00452326
0.00586255
0.0166035
0.110112
0.626778
2.17637
4.20401
7.10878
9.30654
10.3993
10.6186
10.3242
9.74582
9.20885
0.00402523
0.00374654
0.00369757
0.00369131
0.00369965
0.00372492
0.00375452
0.00385431
0.0040697
0.00453884
0.00593773
0.0174659
0.116889
0.666046
2.33094
4.54572
7.41038
9.37848
10.2857
10.4022
10.0687
9.46838
8.92426
0.00402183
0.00374442
0.00369566
0.00368847
0.00369746
0.0037229
0.00375372
0.00385984
0.00408403
0.00456528
0.00601302
0.0183924
0.123423
0.701943
2.4715
4.8982
7.72006
9.42528
10.1587
10.1872
9.80341
9.1898
8.64046
0.00401815
0.00374192
0.00369361
0.00368765
0.00369703
0.00372243
0.00375301
0.00386396
0.00409353
0.00458162
0.00608939
0.0193302
0.129652
0.736072
2.60675
5.26309
8.01784
9.46588
10.0239
9.96483
9.52928
8.90734
8.35487
0.00401423
0.00373915
0.00369151
0.00368799
0.00369768
0.00372284
0.0037522
0.00386981
0.00410934
0.00461035
0.00617648
0.0202899
0.135162
0.76357
2.72525
5.62866
8.31198
9.52272
9.88718
9.73648
9.24355
8.61917
8.06611
0.00401016
0.0037366
0.00368917
0.00368674
0.00369687
0.0037222
0.0037514
0.00387396
0.00411951
0.00462758
0.00624918
0.0212165
0.140841
0.794169
2.84052
6.00373
8.60626
9.51
9.74289
9.50444
8.95472
8.32458
7.76945
0.00400565
0.00373309
0.0036869
0.00368438
0.00369509
0.00372139
0.00375064
0.00387981
0.00413609
0.00465951
0.00636087
0.0224863
0.147336
0.818857
2.94463
6.34954
8.68384
9.50427
9.60577
9.27061
8.67596
8.03801
7.47808
0.0040011
0.00373032
0.00368451
0.00368129
0.00369262
0.00371873
0.00374995
0.00388367
0.0041462
0.00467818
0.00643111
0.0233335
0.153065
0.848705
3.06482
6.71551
8.77612
9.50164
9.47437
9.04108
8.41137
7.764
7.19531
0.00399601
0.00372614
0.00368169
0.00367784
0.00368968
0.00371703
0.00374933
0.00388921
0.00416292
0.00471362
0.00656834
0.0248732
0.161489
0.875978
3.18026
7.08657
8.91854
9.51336
9.34087
8.82031
8.16141
7.5024
6.92107
0.00399088
0.00372284
0.0036783
0.00367407
0.00368653
0.00371605
0.00374877
0.00389247
0.00417237
0.00473319
0.00664234
0.0258061
0.166925
0.903169
3.31854
7.15438
8.99692
9.44922
9.19296
8.60587
7.92124
7.24606
6.64663
0.00398526
0.00371811
0.00367447
0.00366993
0.00368314
0.00371323
0.00374826
0.00389748
0.00418892
0.00477138
0.00681162
0.0275256
0.176531
0.939978
3.44605
7.25095
9.08569
9.36168
9.02777
8.38956
7.68
6.98201
6.35998
0.00397942
0.00371422
0.00367083
0.00366878
0.00367947
0.00371263
0.00374801
0.00390009
0.00419736
0.004791
0.00690753
0.0284877
0.182324
0.968367
3.59153
7.42581
8.98069
9.23909
8.84549
8.1701
7.43776
6.71803
6.07326
0.00397323
0.00370924
0.00366715
0.00366928
0.00367847
0.00371349
0.00374722
0.00390453
0.00421414
0.00483302
0.00712048
0.0306917
0.196691
1.02987
3.72363
7.55296
9.02993
9.09025
8.63418
7.9282
7.16517
6.41301
5.74107
0.00396665
0.0037048
0.00366372
0.00366807
0.00367916
0.00371328
0.00374634
0.00390673
0.00422196
0.0048551
0.00726157
0.0320098
0.2043
1.08035
3.9187
7.67209
8.94793
8.91827
8.42041
7.69314
6.90903
6.13441
5.44326
0.00395984
0.00369972
0.00366103
0.0036665
0.00367853
0.00371147
0.00374611
0.00391188
0.00424115
0.00491445
0.00769316
0.0356457
0.228813
1.17905
3.98492
7.53473
8.81023
8.67898
8.11388
7.34695
6.52711
5.72799
5.01933
0.00395289
0.00369488
0.00365799
0.00366303
0.00367622
0.00370968
0.00374433
0.00390838
0.00424433
0.00492097
0.00767263
0.0354751
0.225192
1.11139
3.97752
7.47529
8.59447
8.46038
7.89221
7.09941
6.25796
5.43491
4.70351
0.00394612
0.00368988
0.00365531
0.00365975
0.00367421
0.00370627
0.00374237
0.00390938
0.00424864
0.00492339
0.00765361
0.0353465
0.222933
1.09226
3.81395
7.50291
8.34668
8.20601
7.64065
6.82981
5.96826
5.12617
4.38292
0.00393797
0.00368391
0.00365145
0.00365519
0.00366943
0.00370272
0.00373981
0.00390899
0.00425481
0.00493089
0.00763269
0.0348074
0.218526
1.10307
3.46506
7.2671
8.01691
7.8762
7.31949
6.50026
5.6334
4.79498
4.05533
0.00392928
0.00367753
0.00364688
0.00365016
0.00366599
0.0036988
0.00373756
0.00391012
0.00426405
0.0049396
0.00762336
0.0334671
0.204688
1.08266
3.37351
6.88798
7.5785
7.44521
6.92255
6.11833
5.27049
4.45248
3.72241
0.00391883
0.00366976
0.00364165
0.00364475
0.0036595
0.00369288
0.00373285
0.00391121
0.00427923
0.00498476
0.00769147
0.0330609
0.20054
1.05808
3.43952
6.41143
7.04643
6.92374
6.43954
5.68093
4.87286
4.09296
3.40083
0.00390764
0.00366142
0.00363431
0.00363737
0.00365425
0.00368829
0.00372946
0.00391532
0.00430303
0.00508014
0.00809895
0.0336638
0.188071
0.970018
3.36207
5.86993
6.42882
6.31997
5.89104
5.19933
4.44779
3.72181
3.06676
0.00389422
0.00365138
0.00362726
0.00363079
0.00364578
0.00367983
0.0037224
0.00391986
0.00433456
0.00525199
0.00915463
0.0380756
0.195661
0.963807
3.25889
5.31836
5.79079
5.69049
5.30384
4.66914
3.98126
3.29917
2.688
0.00387964
0.00364035
0.00361695
0.00362064
0.00363823
0.00367183
0.00371716
0.00392934
0.00438152
0.00551344
0.0108285
0.0464419
0.21501
0.98482
3.16439
4.79221
5.16204
5.05955
4.71057
4.1491
3.4959
2.84397
2.2653
0.00386244
0.00362742
0.00360711
0.00361159
0.0036273
0.00366236
0.00371102
0.00393903
0.0044345
0.00587977
0.013551
0.0601384
0.240324
1.03354
3.07952
4.31815
4.58534
4.47402
4.12744
3.56711
2.98413
2.41028
1.8984
0.00384327
0.00361283
0.00359356
0.00359847
0.0036165
0.00364944
0.00369811
0.00395416
0.00450633
0.00635168
0.0170001
0.0749714
0.282165
1.10154
2.99808
3.89737
4.06363
3.90371
3.54616
3.07884
2.49464
1.8993
1.37829
0.00382118
0.00359608
0.00357969
0.00358528
0.00360288
0.00363669
0.00369198
0.00397141
0.00458465
0.0069452
0.0219859
0.0960042
0.331323
1.33444
2.9066
3.52096
3.58714
3.41742
3.02149
2.49011
1.85846
1.2386
0.788147
0.00379584
0.00357685
0.00356214
0.00356803
0.00358716
0.00361976
0.00368703
0.00399081
0.0046812
0.00772962
0.0276212
0.114187
0.389796
1.38031
2.77172
3.17955
3.16092
2.87508
2.36959
1.65575
1.05514
0.688497
0.45061
0.00376748
0.0035551
0.00354287
0.00354981
0.00357008
0.00360507
0.00368044
0.00401772
0.00480046
0.00869295
0.0344368
0.141182
0.488637
1.46024
2.58438
2.83362
2.71558
2.23507
1.47585
0.904392
0.576946
0.344913
0.16892
0.00373418
0.00352985
0.00351986
0.00352788
0.00354822
0.00358774
0.0036791
0.00404225
0.00494134
0.0101006
0.0434871
0.171026
0.599893
1.55068
2.35602
2.46099
2.13834
1.45311
0.885485
0.519916
0.343694
0.184798
0.107337
0.00369779
0.00350216
0.00349493
0.00350355
0.00352399
0.00356496
0.00368399
0.00407914
0.00514201
0.0116231
0.0514548
0.206027
0.751805
1.53009
2.09327
1.99222
1.50835
0.932506
0.549365
0.366102
0.265668
0.186635
0.135729
0.00365496
0.00346898
0.00346313
0.0034779
0.00349679
0.0035443
0.00368639
0.00411539
0.00538226
0.0139824
0.0661428
0.269414
0.937042
1.55004
1.74381
1.51286
1.06838
0.676757
0.459645
0.329176
0.263069
0.190233
0.146226
0.00360875
0.00343408
0.00343132
0.00344488
0.00346392
0.00352207
0.00365501
0.00416932
0.00568355
0.0164515
0.0796158
0.323462
0.990636
1.45188
1.42636
1.25682
0.802546
0.540652
0.400848
0.301925
0.24427
0.185484
0.138809
0.00355447
0.00339277
0.00339161
0.0034129
0.00343436
0.00349455
0.003648
0.00422936
0.00614214
0.0204006
0.10314
0.407714
1.00618
1.26607
1.22997
1.04135
0.627971
0.445996
0.370303
0.288335
0.244933
0.181384
0.122523
0.00349706
0.00334945
0.00334972
0.00336818
0.00339824
0.00346923
0.00364541
0.00429626
0.00667686
0.025609
0.13198
0.489638
0.985352
1.1063
1.12477
0.812874
0.481166
0.383387
0.34513
0.278625
0.211103
0.13115
0.0498921
0.00343001
0.00329996
0.00330703
0.00332883
0.00336461
0.00343569
0.00363355
0.00439338
0.00761135
0.032721
0.166354
0.567775
0.947235
1.02588
1.03809
0.620874
0.412278
0.354332
0.319865
0.241974
0.116143
0.0424933
0.018816
0.00336197
0.00324705
0.00325278
0.00327522
0.0033173
0.00341143
0.00361517
0.0045277
0.00893654
0.0434393
0.212761
0.611823
0.874533
0.959376
0.827516
0.503126
0.383644
0.319738
0.25878
0.0967376
0.0374737
0.0155236
0.00963119
0.00328147
0.00318557
0.00320378
0.0032265
0.00328315
0.00336736
0.00362967
0.00468636
0.0110491
0.0586443
0.258679
0.625701
0.819106
0.866071
0.652974
0.441257
0.366032
0.265028
0.10122
0.0318572
0.0136093
0.00826808
0.00692111
0.00320373
0.003124
0.00314196
0.00317063
0.0032066
0.00334189
0.00367572
0.00516251
0.015298
0.0800148
0.303063
0.617998
0.764458
0.757746
0.537089
0.390698
0.283797
0.101073
0.0316257
0.0119622
0.00737284
0.00620999
0.00587324
0.00310872
0.00304689
0.00307632
0.00309014
0.00314314
0.00329059
0.00371938
0.00565981
0.0199309
0.104778
0.345558
0.613647
0.716293
0.645731
0.444518
0.289662
0.119929
0.0325625
0.0114441
0.0067226
0.00569856
0.00542663
0.00531996
0.00302333
0.00297827
0.00299306
0.00301263
0.0030711
0.00326121
0.00386094
0.00721298
0.0319334
0.146458
0.392187
0.607878
0.64875
0.543534
0.34059
0.124198
0.0386664
0.0114877
0.00622591
0.00523391
0.00499407
0.00491495
0.00486958
0.00291402
0.00287663
0.00290369
0.00292326
0.00296399
0.00323888
0.00411424
0.00970723
0.0470561
0.195166
0.458829
0.574254
0.571595
0.418928
0.161942
0.0443985
0.0128791
0.00604929
0.00492172
0.00471241
0.00464293
0.00460963
0.00458088
0.00282042
0.00280313
0.00281249
0.00283198
0.00292246
0.0032604
0.00487814
0.0172036
0.0871652
0.270441
0.473957
0.543025
0.475422
0.229767
0.0581804
0.0147974
0.00600783
0.00456509
0.00432833
0.00427323
0.00424614
0.00422282
0.00420569
0.00269946
0.00267726
0.00270983
0.00276219
0.00288192
0.0034789
0.00699553
0.0307815
0.132117
0.360505
0.468481
0.466344
0.309355
0.0818102
0.0187902
0.00635867
0.00438118
0.00410595
0.00404777
0.00402926
0.00401269
0.004001
0.00399165
0.00259681
0.00261254
0.00265564
0.00267535
0.00291575
0.00404807
0.0126005
0.0605659
0.230284
0.376619
0.415028
0.358391
0.110493
0.0253424
0.00695626
0.00410546
0.00371989
0.0036674
0.00365089
0.00364077
0.00363214
0.00362553
0.00362028
0.00247419
0.00245043
0.00253563
0.00268644
0.00327033
0.00675896
0.0295446
0.1379
0.291756
0.362208
0.362384
0.143494
0.0344959
0.00845343
0.00415504
0.00358319
0.00350235
0.00348169
0.00347217
0.00346405
0.00345774
0.00345253
0.00344815
0.00234203
0.00246721
0.00278003
0.00396832
0.00922839
0.0302542
0.0948296
0.204146
0.260026
0.258094
0.134236
0.0385948
0.00815808
0.00394101
0.00306385
0.00301225
0.00299454
0.00299233
0.00298735
0.00298357
0.00297953
0.00297704
0.00297344
0.00562942
0.00500027
0.00465555
0.00439573
0.00425277
0.00412727
0.0040631