/*--------------------------------*- C++ -*----------------------------------*\
  =========                 |
  \\      /  F ield         | OpenFOAM: The Open Source CFD Toolbox
   \\    /   O peration     | Website:  https://openfoam.org
    \\  /    A nd           | Version:  7
     \\/     M anipulation  |
\*---------------------------------------------------------------------------*/
FoamFile
{
    version     2.0;
    format      ascii;
    class       volScalarField;
    location    "183";
    object      omega;
}
// * * * * * * * * * * * * * * * * * * * * * * * * * * * * * * * * * * * * * //

dimensions      [0 0 -1 0 0 0 0];

internalField   nonuniform List<scalar> 
12842
(
3.13115
2.82733
2.63925
2.51597
2.4271
2.36294
2.31503
2.28177
2.26407
2.25084
2.2504
2.25713
2.27658
2.31413
2.38825
2.49291
2.65805
2.82233
3.07148
3.25029
3.47859
3.69358
3.90263
3.10989
2.79467
2.60551
2.49137
2.412
2.35737
2.31166
2.27857
2.26078
2.24738
2.24849
2.25655
2.27735
2.31914
2.39253
2.50057
2.66458
2.82446
3.06538
3.28097
3.50598
3.69068
3.92401
3.08049
2.76018
2.57317
2.46135
2.38648
2.33857
2.29896
2.26771
2.25153
2.24171
2.24545
2.2575
2.282
2.32972
2.41063
2.52898
2.70642
2.86888
3.1053
3.29631
3.54869
3.71379
3.95431
3.0467
2.71754
2.53707
2.4353
2.366
2.32468
2.28913
2.26234
2.24669
2.23801
2.24288
2.25723
2.28478
2.33647
2.42155
2.5461
2.72323
2.90229
3.14637
3.36471
3.60423
3.75526
3.98503
3.00974
2.67783
2.50179
2.40562
2.34232
2.30622
2.2751
2.25133
2.23865
2.23374
2.24059
2.25844
2.29064
2.3501
2.44613
2.58093
2.77524
2.95088
3.20812
3.39955
3.68097
3.83637
4.03223
2.97114
2.63637
2.46916
2.38182
2.32352
2.29299
2.26538
2.24469
2.23337
2.23049
2.23863
2.25942
2.29448
2.35763
2.45884
2.60488
2.79555
2.99115
3.26932
3.48018
3.73561
3.89166
4.12727
2.93191
2.59971
2.4381
2.35687
2.30394
2.27716
2.25291
2.23554
2.22633
2.22686
2.23725
2.26141
2.30121
2.37292
2.48507
2.64168
2.8479
3.05673
3.32576
3.53007
3.83671
4.00385
4.19574
2.89353
2.56412
2.4113
2.33698
2.28841
2.26611
2.24439
2.22925
2.22181
2.22396
2.235
2.2626
2.30444
2.37905
2.49796
2.67053
2.8678
3.09472
3.40624
3.61309
3.89707
4.06691
4.34149
2.85365
2.53354
2.3871
2.31854
2.27415
2.25449
2.23501
2.22268
2.21632
2.22076
2.23526
2.26467
2.31029
2.39123
2.51586
2.69371
2.90689
3.15644
3.4384
3.66798
4.00532
4.19434
4.4078
2.80988
2.49914
2.36439
2.30274
2.2629
2.24668
2.22873
2.21811
2.21322
2.21835
2.23528
2.26602
2.31321
2.39901
2.5326
2.72328
2.92993
3.18971
3.49723
3.73168
4.05642
4.24521
4.54468
2.76607
2.47171
2.3444
2.28842
2.25221
2.23812
2.22183
2.21347
2.20923
2.21615
2.23513
2.26806
2.31826
2.40782
2.54425
2.73852
2.96247
3.24583
3.52627
3.80169
4.15797
4.38091
4.6232
2.72146
2.44156
2.32511
2.27485
2.2428
2.23142
2.21637
2.20951
2.20659
2.21416
2.23563
2.27002
2.32182
2.4183
2.56594
2.77284
2.99511
3.28926
3.59938
3.88723
4.23786
4.45819
4.81033
2.67926
2.41853
2.30853
2.26302
2.234
2.2243
2.21057
2.20557
2.20318
2.21241
2.2361
2.27382
2.32668
2.42536
2.57656
2.78869
3.03156
3.35179
3.64174
3.98522
4.35756
4.6406
4.95241
2.64247
2.39292
2.2924
2.25145
2.2261
2.21845
2.20584
2.2022
2.20093
2.21092
2.23539
2.28001
2.33051
2.43801
2.60073
2.82603
3.07416
3.40989
3.73427
4.09831
4.47538
4.75212
5.16847
2.61068
2.37423
2.27879
2.24156
2.21885
2.2124
2.2009
2.19869
2.19801
2.20945
2.23557
2.28519
2.33469
2.44432
2.61232
2.84419
3.11671
3.47685
3.79945
4.22
4.61822
5.003
5.43072
2.5819
2.35281
2.26536
2.23169
2.21212
2.20711
2.19684
2.19583
2.19612
2.20844
2.2369
2.28955
2.33873
2.45803
2.63918
2.88751
3.17162
3.55482
3.9211
4.37521
4.80644
5.18379
5.67244
2.55769
2.33779
2.25413
2.22327
2.20603
2.20182
2.19261
2.19257
2.19355
2.20715
2.23803
2.29676
2.34292
2.46545
2.65284
2.91048
3.22685
3.62983
4.01986
4.51934
4.98106
5.51282
6.12056
2.5349
2.31998
2.2429
2.2148
2.20013
2.1969
2.18904
2.19007
2.19195
2.20646
2.24049
2.30583
2.347
2.48004
2.68453
2.96378
3.29582
3.73118
4.17461
4.73163
5.29715
5.84507
6.41212
2.51607
2.30788
2.23348
2.20747
2.19484
2.19219
2.18538
2.18697
2.18974
2.20541
2.24207
2.30282
2.35281
2.49127
2.70165
2.99433
3.37154
3.82896
4.33272
4.93573
5.51385
6.19454
7.03636
2.49791
2.29311
2.22405
2.20018
2.18953
2.18752
2.18205
2.18468
2.18835
2.20465
2.24721
2.30821
2.35683
2.50545
2.7406
3.06353
3.457
3.95792
4.50749
5.17197
5.96447
6.82598
7.57953
2.48295
2.28327
2.21601
2.19367
2.18473
2.18325
2.17882
2.18181
2.18654
2.20432
2.24802
2.30432
2.36521
2.52457
2.76551
3.10508
3.56059
4.09404
4.74709
5.54136
6.38401
7.22102
8.24551
2.46835
2.27087
2.20791
2.18728
2.1798
2.17875
2.17557
2.17957
2.18531
2.2042
2.24921
2.30443
2.37038
2.53861
2.81004
3.19651
3.67186
4.26965
4.98221
5.81292
6.82192
8.05214
9.35197
2.45637
2.2627
2.20094
2.18146
2.17524
2.1748
2.1726
2.17706
2.1839
2.20487
2.24777
2.30583
2.38123
2.56641
2.85489
3.25766
3.81282
4.46136
5.2747
6.27084
7.55766
8.89346
10.1215
2.44638
2.25446
2.19556
2.17713
2.17175
2.17131
2.17002
2.17513
2.18281
2.20483
2.24708
2.3083
2.38725
2.5826
2.89836
3.37116
3.96818
4.70397
5.61071
6.79709
8.24395
9.72942
11.6474
2.43904
2.24954
2.19228
2.17451
2.16945
2.16914
2.16844
2.17404
2.18217
2.20366
2.24857
2.31033
2.39878
2.61466
2.96314
3.466
4.15891
4.97888
6.05734
7.42039
9.12489
11.6715
15.9563
2.43192
2.24434
2.18912
2.172
2.1672
2.16693
2.16671
2.173
2.18164
2.20459
2.2503
2.31437
2.40628
2.63377
3.0146
3.60612
4.39093
5.39898
6.66264
8.29769
11.1843
17.6703
31.9755
2.42521
2.23967
2.1862
2.16963
2.16487
2.16485
2.16516
2.17218
2.18116
2.20397
2.25328
2.31845
2.41776
2.66848
3.08918
3.73447
4.67402
5.86959
7.42024
10.3244
18.1766
40.2681
96.2248
2.41864
2.23495
2.18334
2.16731
2.16268
2.16271
2.16355
2.17135
2.18082
2.20557
2.25566
2.32347
2.43049
2.69673
3.1589
3.91643
5.00126
6.49702
9.08832
16.3777
42.5769
124.75
269.423
2.41252
2.2305
2.18074
2.16514
2.16041
2.16068
2.16206
2.17066
2.18046
2.20561
2.26099
2.32877
2.43989
2.72827
3.24055
4.0792
5.37513
7.41495
13.0379
36.2076
109.277
256.14
436.383
2.40641
2.2262
2.17813
2.16297
2.15835
2.15864
2.16067
2.16989
2.18019
2.2062
2.26305
2.33394
2.45818
2.76919
3.3255
4.29993
5.96559
9.92007
24.1409
70.8643
186.73
375.999
520.82
2.4008
2.22199
2.17578
2.16096
2.15622
2.1567
2.15928
2.16919
2.17991
2.20622
2.26651
2.34074
2.46833
2.7967
3.42033
4.53525
6.73622
12.9424
35.4416
104.352
253.968
460.509
518.69
2.39507
2.21807
2.17337
2.15889
2.15431
2.1548
2.15815
2.16833
2.17963
2.20678
2.27052
2.35276
2.48934
2.8464
3.50784
4.77691
7.66917
16.9049
48.1873
134.203
298.158
432.408
450.958
2.38987
2.21413
2.17116
2.15701
2.15238
2.15303
2.1569
2.16751
2.17936
2.2049
2.27106
2.3593
2.50099
2.87652
3.62282
5.06724
8.70211
20.7211
60.7676
162.624
314.652
377.554
371.344
2.38446
2.21052
2.16886
2.15502
2.15064
2.15132
2.15602
2.16648
2.17909
2.20681
2.27343
2.36626
2.5262
2.92992
3.70602
5.36264
10.0238
27.4384
69.9412
181.505
313.042
333.539
316.466
2.37959
2.20689
2.16671
2.15322
2.14895
2.1498
2.15495
2.16554
2.17886
2.20573
2.26825
2.36915
2.54006
2.96273
3.83966
5.69248
12.2353
33.1588
82.7577
214.334
305.592
303.4
291.237
2.37452
2.20351
2.16443
2.15134
2.14741
2.14837
2.15426
2.16439
2.17861
2.2057
2.27441
2.36592
2.56935
3.02391
3.92466
6.1136
14.7326
35.8052
97.9202
242.822
292.294
286.24
276.79
2.36991
2.20018
2.16226
2.14961
2.14596
2.14718
2.15337
2.16338
2.1785
2.20635
2.27101
2.36855
2.58522
3.05869
4.0506
6.40396
15.8603
38.3296
112.342
263.056
275.619
270.595
262.588
2.36521
2.19696
2.15996
2.14786
2.14466
2.14608
2.15279
2.16226
2.17834
2.20733
2.27207
2.37797
2.61918
3.1296
4.15712
6.79088
16.8073
51.737
160.45
251.804
264.321
259.393
251.757
2.36084
2.19391
2.15778
2.14622
2.14342
2.14525
2.15205
2.16125
2.17826
2.20806
2.27419
2.38514
2.63785
3.16905
4.24512
6.6563
17.3965
63.4517
164.008
249.721
254.616
250.433
243.319
2.35653
2.19081
2.15546
2.14463
2.14236
2.14447
2.15147
2.16025
2.17807
2.20979
2.28066
2.40129
2.67701
3.24968
4.40895
8.05889
21.196
55.2048
163.851
238.238
245.166
238.256
229.367
2.35242
2.18799
2.15328
2.14309
2.14131
2.14393
2.15083
2.15928
2.17806
2.21096
2.28457
2.41075
2.69895
3.29369
4.49015
8.16139
20.728
64.7035
164.29
230.515
232.701
227.034
216.693
2.3485
2.18501
2.15099
2.14164
2.1404
2.14338
2.15019
2.1584
2.17805
2.21358
2.2929
2.4308
2.74456
3.3822
4.60013
7.67537
20.7085
63.7164
139.225
220.962
223.271
225.71
206.914
2.34469
2.18238
2.14883
2.14022
2.13954
2.14299
2.14959
2.15757
2.17807
2.21523
2.29773
2.44219
2.77024
3.43297
4.66616
7.34445
20.0027
61.6537
148.456
210.703
224.528
233.45
204.394
2.34112
2.17954
2.14662
2.13887
2.13864
2.14256
2.14889
2.15687
2.178
2.21898
2.30796
2.46617
2.82353
3.53625
4.77829
7.32422
18.4211
52.6602
134.579
203.344
223.366
241.252
207.789
2.33766
2.17707
2.14449
2.13757
2.13793
2.14215
2.14827
2.15627
2.17812
2.22113
2.31378
2.47969
2.85446
3.60913
4.96704
7.68758
18.2255
56.0566
131.899
191.376
214.72
236.643
203.994
2.33438
2.17438
2.14245
2.13623
2.13699
2.14171
2.14755
2.15576
2.17857
2.22577
2.32592
2.50812
2.9193
3.75966
5.26976
9.71919
24.0705
66.7991
131.078
176.328
199.619
212.359
187.952
2.33129
2.17207
2.14037
2.13501
2.13623
2.14118
2.14688
2.15539
2.17896
2.22834
2.33271
2.52419
2.96068
3.9087
6.32265
13.2023
34.1793
79.2199
131.354
161.001
176.175
187.304
179.384
2.32826
2.16954
2.13851
2.13364
2.13525
2.14061
2.14618
2.15503
2.17993
2.23364
2.34681
2.55785
3.05302
4.25595
7.55327
19.0533
46.8466
91.4394
132.027
152.146
165.605
176.558
173.696
2.32551
2.16743
2.13654
2.13249
2.13435
2.14001
2.14547
2.15473
2.18052
2.23642
2.3545
2.57781
3.12022
4.62451
10.1579
26.1178
61.5685
103.222
133.464
149.617
162.557
169.284
168.556
2.32304
2.16538
2.13508
2.13133
2.13356
2.13949
2.14499
2.15479
2.18165
2.24127
2.3681
2.61467
3.26468
5.42473
13.2781
34.788
77.6602
113.468
135.525
149.164
160.552
164.249
164.688
2.32128
2.16398
2.13368
2.1305
2.13281
2.13907
2.14453
2.15429
2.18225
2.24348
2.37455
2.63671
3.36573
6.12026
16.8022
45.4856
92.5972
121.272
137.592
149.246
158.8
161.018
162.663
2.31985
2.16273
2.13275
2.12965
2.13214
2.13868
2.14428
2.15428
2.18329
2.24699
2.38493
2.67214
3.56909
7.37762
21.5861
56.8695
105.016
127.271
139.642
149.621
157.191
159.742
162.597
2.31884
2.1619
2.13182
2.129
2.13148
2.13836
2.14406
2.15444
2.1839
2.24869
2.38999
2.69887
3.70496
8.36313
25.9758
68.1242
115.214
132.27
141.893
149.983
156.749
160.122
165.168
2.31801
2.16114
2.1312
2.12828
2.13084
2.13803
2.14391
2.15447
2.18489
2.2514
2.39803
2.73013
3.95074
9.7464
30.9191
78.6829
122.993
136.457
144.205
150.917
157.983
163.032
170.226
2.31738
2.16064
2.13056
2.12767
2.13021
2.13773
2.14383
2.15432
2.18544
2.25303
2.4027
2.75499
4.08008
10.6849
34.8616
87.9531
129.656
140.328
146.429
152.914
161.197
167.567
176.555
2.31683
2.16015
2.13011
2.12698
2.1296
2.13741
2.14374
2.15445
2.18635
2.2559
2.41013
2.78028
4.26939
11.7337
38.9097
95.9164
134.388
143.13
148.898
156.278
165.784
172.838
182.491
2.31633
2.15976
2.1296
2.12635
2.12905
2.13708
2.14363
2.15434
2.1869
2.25831
2.41581
2.79844
4.34529
12.251
41.2484
101.379
137.86
145.779
151.841
160.275
170.928
178.396
188.218
2.31574
2.15928
2.12919
2.12566
2.12853
2.13669
2.14346
2.15436
2.18769
2.26149
2.422
2.80985
4.41256
12.6212
43.1128
105.647
140.966
148.313
154.707
164.148
175.632
182.982
191.862
2.31512
2.15879
2.12864
2.12495
2.12805
2.13627
2.14327
2.15451
2.18833
2.26442
2.4286
2.82564
4.44805
12.8714
44.4033
109.178
143.773
150.851
157.609
167.758
179.356
186.069
193.672
2.31431
2.15821
2.12817
2.12421
2.12762
2.13579
2.14307
2.15435
2.18916
2.26788
2.43556
2.83679
4.48759
13.0223
45.1807
110.787
146.29
153.37
160.581
171.15
182.384
188.355
194.832
2.31357
2.15758
2.12756
2.12347
2.12722
2.13531
2.14284
2.15433
2.18976
2.27067
2.44225
2.85019
4.50664
13.107
45.7392
111.668
148.52
155.786
163.526
174.301
184.955
190.195
195.582
2.3126
2.15691
2.12706
2.12275
2.12688
2.13479
2.14262
2.15442
2.19056
2.2739
2.44919
2.86473
4.54355
13.1635
45.7705
111.792
150.522
158.034
166.347
177.159
187.096
191.593
195.931
2.31177
2.15615
2.12641
2.12201
2.12654
2.1343
2.14239
2.15449
2.19108
2.27632
2.45614
2.88179
4.5782
13.2408
45.8292
111.94
152.239
160.065
168.945
179.65
188.763
192.471
196.489
2.31066
2.15543
2.12587
2.12136
2.12625
2.13382
2.14217
2.15427
2.19181
2.27939
2.46353
2.90672
4.67539
13.4476
45.9762
112.099
153.871
161.866
171.248
181.714
189.904
193.082
196.999
2.30975
2.15456
2.12521
2.12065
2.12594
2.13337
2.14194
2.15423
2.19224
2.28178
2.4725
2.93752
4.82832
13.8039
46.1498
111.876
154.969
163.415
173.219
183.305
190.517
193.313
196.599
2.30857
2.15381
2.12465
2.1201
2.12566
2.13298
2.1417
2.15419
2.19292
2.28522
2.48218
2.98201
5.03802
14.4543
46.5678
112.301
155.607
164.711
174.84
184.401
190.454
193.134
195.616
2.30756
2.15285
2.12398
2.11945
2.12534
2.1326
2.14147
2.1542
2.19328
2.28812
2.49472
3.03436
5.35533
15.3034
47.4565
112.511
155.509
165.771
176.122
184.864
190.072
192.114
193.95
2.30637
2.15211
2.12339
2.119
2.12503
2.13226
2.14119
2.15434
2.19392
2.2924
2.50818
3.10665
5.68841
16.5283
48.9792
112.696
155.489
166.626
177.067
184.835
189.538
190.211
191.928
2.30526
2.1511
2.12274
2.11842
2.1247
2.13194
2.14089
2.15431
2.19422
2.29604
2.52426
3.18189
6.14637
17.9224
51.1416
113.024
155.951
167.348
177.587
184.585
188.208
188.236
189.588
2.30411
2.15037
2.12211
2.11805
2.12436
2.1316
2.14057
2.1541
2.19483
2.3011
2.54098
3.27821
6.59688
19.6327
53.923
113.628
155.416
167.922
177.584
183.956
186.407
185.986
186.837
2.30289
2.14935
2.1215
2.11751
2.12401
2.13128
2.14022
2.15393
2.19513
2.30513
2.55892
3.37195
7.13069
21.44
57.1903
114.571
155.502
168.059
177.163
183
184.067
183.502
183.888
2.30179
2.14865
2.12082
2.11719
2.12364
2.13091
2.13988
2.15352
2.1959
2.31045
2.57681
3.47786
7.66462
23.4041
60.8734
115.841
155.235
168.058
176.387
181.405
181.699
180.669
180.595
2.30048
2.14764
2.12024
2.11667
2.12327
2.13054
2.13955
2.15328
2.19635
2.31426
2.59411
3.57715
8.22181
25.4915
64.7971
117.367
154.755
167.789
175.309
179.356
179.09
177.514
176.872
2.29942
2.14695
2.11949
2.11634
2.12287
2.13014
2.13923
2.1529
2.19754
2.31925
2.6107
3.68244
8.79422
27.5765
68.8457
119.338
154.679
167.589
173.989
176.951
176.211
174.099
172.933
2.29805
2.14596
2.11895
2.11583
2.12245
2.12974
2.13891
2.15274
2.19832
2.32237
2.62596
3.77114
9.30943
29.7456
72.9144
121.154
153.332
166.767
172.38
174.306
173.123
170.491
168.878
2.29698
2.14525
2.11813
2.11541
2.122
2.12932
2.13865
2.15234
2.2001
2.32682
2.64027
3.86914
9.83262
31.7434
76.9457
123.722
153.137
165.627
170.528
171.365
169.838
166.743
164.762
2.29558
2.14429
2.1176
2.1149
2.12155
2.12891
2.13832
2.15254
2.20132
2.32927
2.65366
3.93971
10.2888
33.6778
80.8118
125.754
153.558
164.202
168.266
168.408
166.395
162.932
160.647
2.29443
2.1435
2.11669
2.11434
2.12108
2.12852
2.13811
2.15293
2.20366
2.33344
2.66589
4.02987
10.733
35.4013
84.5073
127.588
151.992
162.469
165.643
165.34
162.847
159.113
156.591
2.29299
2.14257
2.11616
2.11382
2.12057
2.12811
2.13765
2.15343
2.20533
2.33561
2.67805
4.09543
11.1038
36.9666
87.8316
127.097
151.747
160.493
162.777
162.131
159.212
155.294
152.629
2.29171
2.14165
2.11516
2.11304
2.11995
2.12767
2.13731
2.15318
2.20815
2.34001
2.68944
4.1709
11.5195
38.317
90.757
127.314
149.701
158.302
159.631
158.749
155.464
151.481
148.799
2.29018
2.14073
2.1146
2.11249
2.11919
2.12714
2.1367
2.15317
2.21016
2.34236
2.70111
4.23761
11.8455
39.4478
93.1904
127.85
149.302
155.922
156.451
155.216
151.605
147.673
145.077
2.28873
2.13962
2.11349
2.11152
2.11819
2.12659
2.13594
2.15324
2.21333
2.34745
2.71274
4.30745
12.1482
40.3642
95.075
128.893
147.012
153.357
153.185
151.388
147.675
143.887
141.467
2.28704
2.13867
2.11286
2.11089
2.11728
2.1259
2.13526
2.15327
2.2155
2.35033
2.72377
4.38197
12.4903
41.1505
97.108
127.436
146.602
150.714
149.824
147.383
143.694
140.142
137.991
2.28537
2.13733
2.11164
2.10977
2.11569
2.1253
2.13452
2.1534
2.21885
2.35643
2.73645
4.45265
12.7471
41.7871
96.8352
128.927
144.419
148.025
146.366
143.318
139.644
136.479
134.679
2.28346
2.13629
2.1109
2.10902
2.11487
2.12458
2.13372
2.15358
2.22104
2.35991
2.74684
4.53145
13.0232
42.3492
97.0658
127.376
144.391
145.359
142.834
139.285
135.67
132.934
131.57
2.28153
2.1347
2.10957
2.10783
2.11392
2.12403
2.13257
2.15414
2.22449
2.36693
2.76159
4.59919
13.3007
42.8055
97.4012
127.742
142.943
142.635
139.273
135.356
131.902
129.666
128.787
2.27935
2.1335
2.10864
2.1069
2.11252
2.12344
2.13184
2.15385
2.22665
2.3711
2.77416
4.67009
13.5356
43.317
97.7229
125.623
140.92
139.789
135.716
131.588
128.403
126.71
126.294
2.27711
2.13167
2.10724
2.1057
2.11219
2.1228
2.13183
2.15398
2.23017
2.37897
2.78871
4.73531
13.749
43.6529
97.7405
125.336
138.572
136.803
132.197
128.033
125.237
124.091
124.123
2.27462
2.13023
2.10604
2.10456
2.11248
2.12212
2.13084
2.15401
2.23224
2.38349
2.80296
4.79378
14.0357
44.2135
98.6374
125.581
135.977
133.682
128.749
124.711
122.369
121.78
122.167
2.27205
2.12818
2.1046
2.10335
2.1121
2.12125
2.13097
2.15416
2.23582
2.39211
2.82766
4.86104
14.3708
44.6616
98.3384
123.265
133.157
130.451
125.402
121.646
119.819
119.692
120.28
2.26921
2.12643
2.10309
2.10204
2.11098
2.12001
2.13027
2.15416
2.23779
2.39679
2.84382
4.90208
14.7307
45.2574
98.1431
123.098
130.252
127.132
122.151
118.794
117.495
117.763
118.678
2.2663
2.12417
2.1016
2.10075
2.11002
2.11878
2.12954
2.15468
2.24143
2.40572
2.86709
4.9611
14.8476
46.3145
98.1487
123.571
127.311
123.743
119.017
116.152
115.354
115.988
117.075
2.26309
2.1221
2.0998
2.09934
2.10848
2.11756
2.12877
2.15449
2.24323
2.41032
2.88002
5.00545
14.8912
47.2175
97.9913
123.509
124.304
120.352
115.944
113.53
113.106
113.937
115.198
2.25985
2.11965
2.09819
2.09787
2.10722
2.11626
2.12753
2.15477
2.24698
2.42022
2.90825
5.10911
15.027
48.925
97.9758
121.913
121.121
116.897
112.935
110.975
110.913
111.876
113.012
2.25627
2.11725
2.09617
2.09642
2.1056
2.11462
2.12596
2.15445
2.24862
2.42541
2.92691
5.19326
15.279
49.7115
97.4762
119.324
117.854
113.55
110.008
108.427
108.555
109.843
111.095
2.25273
2.11459
2.09438
2.09477
2.10414
2.11298
2.12559
2.15515
2.253
2.44019
2.98085
5.44874
16.2031
50.9981
98.6726
116.43
114.152
109.978
107.079
106.094
106.513
107.779
109.393
2.24894
2.11193
2.09218
2.09313
2.10234
2.11077
2.12564
2.15453
2.25317
2.44283
3.00508
5.57931
16.5776
50.4844
96.9404
112.549
110.839
107.014
104.522
103.717
104.04
105.212
107.199
2.24544
2.1092
2.09002
2.09111
2.10051
2.10786
2.12462
2.1537
2.25314
2.45157
3.06401
5.93321
17.4244
49.6104
95.426
108.284
107.137
103.88
101.85
101.452
102.009
103.079
104.782
2.241
2.10594
2.0873
2.08886
2.09808
2.10681
2.12261
2.15245
2.25355
2.46088
3.16552
6.45357
18.7095
48.4059
92.3875
103.342
102.732
100.239
98.8294
98.613
99.038
100.653
102.913
2.23644
2.10241
2.08441
2.08626
2.0958
2.10656
2.12041
2.15117
2.25278
2.47926
3.31581
7.21995
20.5169
48.6731
88.6816
97.7975
97.6123
96.0262
94.8849
95.2764
96.1836
97.9515
100.243
2.23084
2.09824
2.08093
2.08324
2.09267
2.10534
2.1173
2.1492
2.25341
2.498
3.5021
8.11386
22.1699
46.3494
84.4718
91.8125
91.8585
90.9425
90.3173
90.5249
91.7548
94.5888
97.6821
2.22483
2.09363
2.07706
2.0797
2.08942
2.10234
2.11434
2.14694
2.25295
2.52773
3.728
9.23771
25.2385
46.2397
80.0579
85.5402
85.8217
85.3867
85.3487
85.8354
87.2836
88.7731
90.4697
2.21776
2.08835
2.07264
2.0758
2.08561
2.09911
2.11177
2.14357
2.25432
2.55763
3.98729
10.4057
25.5704
47.0315
75.4231
79.2681
79.717
79.4227
79.8299
80.8477
81.7973
83.9448
85.5635
2.20988
2.08228
2.06741
2.07096
2.08086
2.09502
2.10876
2.13986
2.25508
2.59974
4.30073
11.6947
26.2602
44.481
70.4987
73.0762
73.5733
73.998
74.2606
75.5031
77.3939
79.1949
82.1433
2.20087
2.07556
2.06178
2.0658
2.076
2.09003
2.10451
2.13573
2.25915
2.64351
4.65033
12.8942
27.5703
44.1056
65.4729
67.1727
67.8685
68.3458
69.6899
70.4024
72.5748
76.3053
80.1464
2.19067
2.06763
2.05482
2.05941
2.06957
2.08457
2.09898
2.12973
2.26177
2.69862
5.03948
14.0407
28.8828
44.5479
60.3973
61.4908
62.2587
63.6011
64.3685
66.0637
67.1279
70.0247
78.0821
2.17906
2.05895
2.04745
2.05221
2.06289
2.07783
2.09212
2.12431
2.27064
2.76267
5.4621
15.1196
29.8251
41.5304
55.2624
56.2175
57.3733
58.6645
60.789
61.4669
65.2514
67.9227
69.2029
2.16601
2.04872
2.03834
2.04374
2.05426
2.07006
2.08454
2.11836
2.27668
2.83499
5.88696
16.0317
30.3367
40.9178
50.3531
51.3365
53.2788
55.0631
56.0469
57.7064
61.343
67.9643
67.8783
2.15099
2.03739
2.02851
2.03397
2.04616
2.06056
2.07612
2.10662
2.29174
2.9338
6.38002
17.1192
29.4123
41.6966
45.7376
46.8093
47.9046
48.5282
51.2625
58.7757
63.5457
54.9757
38.9263
2.13437
2.02431
2.01665
2.02258
2.03393
2.04952
2.06757
2.09896
2.3062
3.04532
6.91278
17.843
29.0232
39.7864
41.3456
42.8736
44.3677
45.668
53.6666
56.3317
47.2942
35.6393
28.2362
2.11498
2.00955
2.00357
2.0102
2.02353
2.03695
2.05777
2.09729
2.32742
3.2009
7.53102
19.0716
28.7401
36.6415
37.1957
38.7434
41.0331
47.028
49.1358
42.0437
33.8041
28.4035
25.2889
2.09387
1.99291
1.98808
1.99489
2.00616
2.02375
2.04778
2.08339
2.35794
3.37809
8.2477
19.7386
28.9209
33.138
33.0421
35.5568
40.0045
42.838
38.0253
32.3431
28.561
26.1821
24.0905
2.06906
1.9739
1.97092
1.97921
1.99141
2.00876
2.03397
2.08034
2.38765
3.61041
9.04541
20.6648
27.6096
29.3233
29.5766
33.5341
36.8287
34.4946
30.6175
28.2555
26.6874
25.216
23.2108
2.04236
1.95284
1.95079
1.95904
1.96867
1.99179
2.02201
2.07543
2.44319
3.88615
9.79868
20.1237
25.3713
25.4194
27.5136
30.7069
30.8588
28.1447
26.593
25.8651
25.1207
23.4224
20.2742
2.0111
1.9288
1.92878
1.93928
1.95021
1.97006
2.00254
2.07385
2.49183
4.22305
10.8115
20.0545
22.5244
22.4431
25.3735
26.8631
25.4829
24.5289
24.0791
23.7832
22.4097
18.75
12.7758
1.97775
1.90236
1.90265
1.91357
1.92355
1.94338
1.98835
2.07
2.58507
4.6556
11.9871
18.8036
19.5725
20.4998
22.5905
22.7926
22.221
21.8973
21.5986
20.0639
15.695
9.55836
5.79747
1.93892
1.87244
1.87505
1.88906
1.89991
1.90992
1.96573
2.07423
2.68079
5.20411
12.6721
16.9491
16.9145
18.7468
19.8359
19.6057
19.3822
19.0575
17.3689
13.0025
7.34378
4.75873
3.77782
1.89859
1.83989
1.8421
1.85784
1.87024
1.87322
1.95149
2.09688
2.84847
5.7603
12.6043
14.792
15.0581
16.7874
17.0819
16.8818
16.539
15.087
11.0276
5.97812
4.07566
3.4215
3.19571
1.85109
1.80231
1.80829
1.82618
1.83815
1.82016
1.92424
2.11704
3.0389
6.59899
12.0599
12.8942
13.6434
14.6276
14.5906
14.2761
13.1415
9.65637
5.18441
3.63784
3.14014
2.99917
2.94452
1.8047
1.76359
1.76964
1.78858
1.80305
1.795
1.90969
2.17865
3.38329
7.38967
10.9274
11.2853
12.277
12.5695
12.3548
11.5309
8.74983
4.77032
3.3465
2.96451
2.84561
2.80983
2.79086
1.74773
1.71648
1.72891
1.7492
1.76599
1.75819
1.88287
2.25163
3.7691
7.82377
9.59461
10.0923
10.7063
10.6563
10.1368
8.0965
4.43344
3.13143
2.76037
2.67581
2.64515
2.63245
2.62192
1.69716
1.67288
1.68581
1.70328
1.71711
1.75048
1.87912
2.41314
4.35291
7.60217
8.47526
9.06679
9.22221
8.9093
7.53457
4.34882
2.99202
2.6459
2.56043
2.54019
2.5303
2.52263
2.51655
1.63043
1.61468
1.63431
1.6546
1.67136
1.73168
1.90071
2.68745
5.07108
7.03915
7.52786
7.87159
7.76906
6.83015
4.3246
2.84655
2.4687
2.39151
2.36955
2.36243
2.35562
2.35044
2.34643
1.57976
1.56979
1.58578
1.59359
1.61032
1.6894
1.9642
3.03575
5.33398
6.35875
6.70454
6.73641
6.1755
4.28374
2.7866
2.37322
2.28422
2.26725
2.2607
2.25639
2.25265
2.25007
2.24783
1.50175
1.49672
1.51303
1.53507
1.58252
1.69648
2.17525
3.68361
5.1034
5.48909
5.67236
5.45186
4.05938
2.64087
2.18858
2.09629
2.0765
2.07207
2.06909
2.06639
2.06443
2.06275
2.06122
1.45709
1.45449
1.47025
1.47503
1.53685
1.74316
2.45337
4.04
4.72073
4.99452
4.92943
3.92837
2.59961
2.13398
2.01751
1.99349
1.9845
1.9819
1.97948
1.97751
1.97594
1.97448
1.97312
1.35477
1.36144
1.37862
1.42938
1.58952
2.03562
2.97167
3.60636
3.75514
3.67392
3.10657
2.25889
1.84785
1.76615
1.73394
1.73341
1.73372
1.73265
1.73069
1.72958
1.7282
1.72705
1.72594
3.10719
2.7986
2.60753
2.48706
2.3996
2.34337
2.30316
2.27737
2.26102
2.24652
2.24495
2.25183
2.27175
2.31276
2.38522
2.49468
2.66163
2.81605
3.04879
3.21362
3.46463
3.61399
3.82891
3.11532
2.80521
2.61308
2.49441
2.4082
2.35114
2.31138
2.28373
2.2651
2.24854
2.24636
2.25312
2.27266
2.31296
2.38614
2.49476
2.6609
2.81718
3.04815
3.20984
3.45693
3.60089
3.81349
3.12346
2.82253
2.63128
2.50567
2.41438
2.35619
2.31588
2.28671
2.26735
2.25059
2.2474
2.25362
2.27239
2.3111
2.38334
2.49046
2.6607
2.81563
3.04687
3.21197
3.4621
3.60993
3.82531
3.13423
2.83374
2.63702
2.50915
2.42307
2.36795
2.32567
2.29265
2.27102
2.25274
2.24792
2.25361
2.27213
2.3086
2.38474
2.48954
2.65544
2.80692
3.03479
3.2043
3.46019
3.61352
3.84109
3.14191
2.84551
2.64956
2.52705
2.43819
2.37539
2.329
2.29417
2.27169
2.25321
2.248
2.25294
2.27252
2.30495
2.39073
2.49092
2.6545
2.80929
3.04611
3.21627
3.47909
3.63067
3.85553
3.14954
2.85306
2.66057
2.53228
2.44092
2.37616
2.32975
2.29483
2.27215
2.25437
2.24836
2.25165
2.27639
2.30815
2.40094
2.49282
2.65263
2.80583
3.03864
3.21035
3.47327
3.63376
3.86976
3.15096
2.85703
2.66383
2.5352
2.4453
2.3813
2.3351
2.29969
2.27659
2.25855
2.25206
2.25684
2.27601
2.30647
2.39015
2.48726
2.64861
2.79675
3.02408
3.19604
3.45517
3.6165
3.86076
3.14625
2.84713
2.65328
2.5234
2.4309
2.36804
2.32284
2.29414
2.27438
2.25769
2.25246
2.2581
2.27762
2.31037
2.39222
2.49264
2.66071
2.82481
3.05673
3.22759
3.49496
3.63899
3.85751
2.99046
2.65333
2.48185
2.38674
2.32282
2.28367
2.25434
2.23712
2.22698
2.22153
2.22687
2.24419
2.27682
2.3407
2.4518
2.63175
2.84763
3.18324
3.46835
3.91288
4.2196
4.69109
4.98611
2.99985
2.65979
2.48544
2.39019
2.32548
2.2864
2.25612
2.23891
2.2286
2.22292
2.22814
2.24446
2.27626
2.33822
2.4457
2.61982
2.82603
3.14885
3.4197
3.84224
4.13199
4.57838
4.86104
3.00046
2.66438
2.49196
2.39551
2.33002
2.28968
2.25909
2.24131
2.23014
2.22443
2.22911
2.24464
2.27588
2.33418
2.43644
2.60176
2.79935
3.10749
3.36547
3.76911
4.0453
4.47532
4.72596
3.01047
2.67226
2.49624
2.39969
2.33288
2.29259
2.26091
2.24321
2.23175
2.22585
2.23023
2.24485
2.27648
2.33206
2.43041
2.58989
2.77867
3.07352
3.31889
3.70211
3.96223
4.36317
4.60631
3.01231
2.67755
2.50376
2.40542
2.33799
2.29618
2.26419
2.2458
2.23346
2.22753
2.23141
2.24511
2.27611
2.32921
2.42252
2.57381
2.75432
3.03599
3.26886
3.63306
3.88021
4.2654
4.48942
3.0232
2.68719
2.50883
2.4104
2.34125
2.29938
2.26609
2.24789
2.23525
2.22903
2.23249
2.24522
2.2744
2.32753
2.4175
2.5628
2.73545
3.0046
3.22648
3.57249
3.80597
4.16701
4.37383
3.0261
2.69319
2.51761
2.41679
2.34693
2.30337
2.2698
2.2507
2.23715
2.23066
2.23361
2.24565
2.27378
2.32506
2.41152
2.54935
2.71516
2.9727
3.18349
3.51015
3.73413
4.074
4.271
3.03818
2.70495
2.5236
2.42258
2.35079
2.30694
2.27184
2.25301
2.23926
2.23228
2.23481
2.24576
2.27266
2.32406
2.40896
2.5403
2.70328
2.94824
3.14949
3.45653
3.67982
3.98553
4.18444
3.04193
2.71149
2.53373
2.42989
2.3571
2.31137
2.27607
2.25607
2.2414
2.23382
2.23591
2.24617
2.27221
2.32311
2.40548
2.52835
2.70135
2.92519
3.11839
3.40019
3.63919
3.88294
4.11996
3.05526
2.72579
2.54089
2.43644
2.36155
2.31533
2.27834
2.25854
2.24382
2.23549
2.23723
2.24692
2.27203
2.32234
2.40405
2.52172
2.70353
2.90607
3.10212
3.35546
3.61326
3.79923
4.07899
3.05968
2.73244
2.55211
2.44488
2.36874
2.32025
2.28316
2.26196
2.2462
2.23708
2.23847
2.24765
2.27253
2.32073
2.40097
2.51574
2.70264
2.87986
3.1057
3.31934
3.57602
3.74833
4.00539
3.07367
2.74915
2.56091
2.45203
2.37347
2.3244
2.28571
2.26442
2.24893
2.23884
2.23984
2.24823
2.27241
2.31815
2.39703
2.51356
2.70153
2.85834
3.10507
3.29086
3.54772
3.71589
3.95358
3.07877
2.75605
2.57245
2.46155
2.38193
2.32992
2.29118
2.26835
2.2516
2.24063
2.24128
2.24934
2.27212
2.31742
2.39503
2.5115
2.69036
2.84456
3.09554
3.2619
3.52589
3.68112
3.90761
3.09207
2.77452
2.58345
2.46906
2.38617
2.33363
2.29387
2.2705
2.25455
2.24249
2.24263
2.25064
2.27258
2.31619
2.39326
2.50743
2.67856
2.83709
3.07379
3.24213
3.50266
3.65638
3.87422
3.09773
2.78121
2.59366
2.47906
2.39534
2.34015
2.29999
2.27501
2.25764
2.24454
2.24403
2.25141
2.27259
2.31482
2.38764
2.49725
2.6712
2.83539
3.07079
3.23652
3.48813
3.63884
3.85284
2.92731
2.58988
2.42643
2.33941
2.28482
2.24994
2.22481
2.20879
2.20262
2.20448
2.2163
2.25021
2.31358
2.42751
2.60783
2.89286
3.31293
3.73933
4.35093
4.85687
5.42357
6.03267
6.41119
2.93026
2.59164
2.42789
2.34064
2.28606
2.25089
2.22597
2.20982
2.20357
2.2054
2.21706
2.25066
2.31261
2.4266
2.60785
2.8872
3.31064
3.74612
4.34193
4.86133
5.38894
6.03197
6.40212
2.93086
2.59306
2.42986
2.34199
2.28772
2.2519
2.22693
2.21083
2.20455
2.20624
2.21782
2.25045
2.31139
2.42416
2.61018
2.88505
3.30857
3.75035
4.32159
4.85544
5.37515
6.02697
6.35339
2.93364
2.59484
2.4314
2.34339
2.2889
2.253
2.228
2.21197
2.20541
2.20704
2.21832
2.25057
2.31062
2.42278
2.60677
2.88212
3.29654
3.75662
4.31131
4.8584
5.35665
5.99917
6.34581
2.93439
2.59636
2.43339
2.34477
2.29045
2.25398
2.22902
2.21295
2.20645
2.20795
2.21913
2.25036
2.30952
2.42067
2.60403
2.87919
3.28946
3.76291
4.28721
4.8404
5.3395
5.97236
6.33523
2.93729
2.59822
2.43508
2.34634
2.29169
2.25519
2.22998
2.21416
2.20733
2.20864
2.21955
2.25035
2.30895
2.41872
2.60038
2.87609
3.27528
3.7705
4.26538
4.85198
5.31307
5.95553
6.32303
2.93815
2.59992
2.43701
2.34786
2.29302
2.25618
2.23108
2.21513
2.20834
2.20954
2.22022
2.2505
2.30766
2.41641
2.59717
2.87239
3.26302
3.76076
4.2415
4.82108
5.2947
5.93703
6.31587
2.94117
2.60186
2.43885
2.34946
2.29436
2.25747
2.232
2.21637
2.20925
2.21014
2.22061
2.25019
2.30685
2.41386
2.59232
2.86847
3.24741
3.75928
4.21223
4.82331
5.26469
5.90733
6.30249
2.94212
2.60378
2.44078
2.35122
2.29553
2.2585
2.23317
2.21735
2.21022
2.21098
2.22115
2.24978
2.3052
2.4111
2.58844
2.86356
3.23002
3.74533
4.18938
4.80689
5.24479
5.88989
6.2897
2.94527
2.60587
2.4427
2.35281
2.29691
2.25986
2.23414
2.21859
2.21115
2.21153
2.22149
2.24921
2.30387
2.40803
2.58262
2.85786
3.21525
3.73783
4.16167
4.79656
5.2148
5.85096
6.27502
2.94633
2.60802
2.44471
2.35474
2.29806
2.26094
2.23535
2.21958
2.21208
2.21223
2.22188
2.24836
2.30205
2.40483
2.57763
2.85114
3.19502
3.71752
4.14031
4.77316
5.19299
5.8231
6.25255
2.94964
2.61029
2.44666
2.35638
2.29945
2.26234
2.23638
2.22081
2.21301
2.21275
2.22218
2.24813