/*--------------------------------*- C++ -*----------------------------------*\
  =========                 |
  \\      /  F ield         | OpenFOAM: The Open Source CFD Toolbox
   \\    /   O peration     | Website:  https://openfoam.org
    \\  /    A nd           | Version:  7
     \\/     M anipulation  |
\*---------------------------------------------------------------------------*/
FoamFile
{
    version     2.0;
    format      ascii;
    class       surfaceScalarField;
    location    "183";
    object      phi;
}
// * * * * * * * * * * * * * * * * * * * * * * * * * * * * * * * * * * * * * //

dimensions      [0 3 -1 0 0 0 0];

internalField   nonuniform List<scalar> 
25449
(
63.8191
64.1031
-41.5371
47.4092
47.9925
-31.5827
35.3713
36.0533
-24.0154
26.4797
27.1636
-18.2721
19.8759
20.5215
-13.9176
14.9493
15.5451
-10.6185
11.2609
11.8075
-8.11911
8.49175
8.99391
-6.22474
6.40825
6.87073
-4.78723
4.83837
5.26406
-3.69418
3.65466
4.0443
-2.86059
2.76222
3.11487
-2.22243
2.09004
2.40381
-1.73163
1.58465
1.85767
-1.35228
1.20556
1.4367
-1.05761
0.921997
1.1112
-0.82764
0.710481
0.858964
-0.647449
0.553115
0.663221
-0.505856
0.436282
0.511257
-0.394422
0.349656
0.393349
-0.306721
0.285457
0.302003
-0.237804
0.23785
0.231377
-0.183769
0.176946
-0.141635
0.20254
47.7821
80.7174
35.6208
60.1537
26.6532
45.0208
20.002
33.8148
15.0455
25.478
11.338
19.2526
8.55613
14.5894
6.46349
11.0866
4.88631
8.4479
3.69621
6.45417
2.79789
4.94263
2.12029
3.79247
1.61007
2.91403
1.22695
2.2408
0.940232
1.72341
0.726463
1.32497
0.567663
1.01776
0.450083
0.780802
0.363252
0.598089
0.299236
0.457366
0.252071
0.349169
0.217296
0.266152
0.202596
0.191646
34.8625
92.5042
26.1385
68.8776
19.649
51.5102
14.8025
38.6613
11.1713
29.1091
8.4433
21.9806
6.38902
16.6437
4.83895
12.6366
3.66755
9.61931
2.78159
7.34012
2.11167
5.61254
1.60588
4.29826
1.2251
3.29481
0.93956
2.52634
0.726448
1.93652
0.568148
1.48327
0.451084
1.13483
0.364842
0.867043
0.301492
0.661439
0.255039
0.503819
0.220994
0.383213
0.19602
0.291127
0.220934
0.177682
25.0382
100.56
18.9548
74.9608
14.3581
56.1068
10.8839
42.1355
8.25687
31.7362
6.26887
23.9686
4.76302
18.1495
3.6211
13.7785
2.75437
10.486
2.09641
7.99809
1.59743
6.11152
1.22001
4.67569
0.935738
3.57908
0.722826
2.73925
0.56434
2.09501
0.447061
1.60055
0.360721
1.22117
0.297418
0.930347
0.251143
0.707715
0.21737
0.537592
0.192725
0.407858
0.174722
0.309129
0.234114
0.161542
17.8211
105.809
13.7072
79.0746
10.51
59.3039
8.04381
44.6017
6.15016
33.6298
4.70028
25.4184
3.59181
19.258
2.74473
14.6256
2.09751
11.1332
1.60338
8.49222
1.22689
6.48801
0.941172
4.96141
0.725636
3.79462
0.564257
2.90063
0.444377
2.21489
0.35595
1.68898
0.291092
1.28603
0.243717
0.977722
0.209207
0.742225
0.184101
0.562698
0.165829
0.426129
0.152516
0.322442
0.243853
0.142778
12.644
108.977
9.97171
81.7467
7.78739
61.4882
6.044
46.3451
4.67221
35.0016
3.60289
26.4878
2.77406
20.0868
2.1336
15.2661
1.63962
11.6272
1.25939
8.87245
0.967691
6.77971
0.745138
5.18397
0.576678
3.96308
0.450387
3.02692
0.356628
2.30865
0.287585
1.75802
0.237035
1.33658
0.200162
1.0146
0.173324
0.769064
0.153804
0.582218
0.13959
0.440343
0.12923
0.332801
0.251449
0.121634
9.00212
110.618
7.37107
83.3777
5.9076
62.9516
4.67232
47.5803
3.66339
36.0106
2.85645
27.2947
2.21915
20.7241
1.71943
15.7658
1.32928
12.0174
1.02582
9.17591
0.790886
7.01465
0.610274
5.36458
0.47277
4.10058
0.369308
3.13039
0.292361
2.3856
0.235646
1.81474
0.194076
1.37815
0.163689
1.04498
0.141502
0.791249
0.125301
0.598419
0.113448
0.452194
0.104769
0.341481
0.257851
0.098367
6.48449
111.144
5.59797
84.2641
4.64057
63.909
3.75615
48.4647
2.99415
36.7726
2.36372
27.9251
1.85398
21.2339
1.44716
16.1726
1.12496
12.3396
0.871301
9.42957
0.672796
7.21315
0.518766
5.51861
0.400595
4.21876
0.311165
3.21982
0.244376
2.45239
0.194963
1.86415
0.158577
1.41453
0.13181
1.07175
0.11212
0.81094
0.0976121
0.612927
0.0869196
0.462887
0.078996
0.349405
0.263743
0.0731053
4.11367
112.419
3.14416
85.2335
2.4015
64.6517
1.83835
49.0279
1.41033
37.2006
1.0851
28.2504
0.836929
21.482
0.646344
16.3632
0.498982
12.4869
0.384566
9.54399
0.295682
7.30204
0.227041
5.58725
0.174675
4.27112
0.135422
3.25907
0.106527
2.48128
0.0855204
1.88516
0.0703152
1.42974
0.0592786
1.08279
0.0512276
0.81899
0.045318
0.618836
0.040955
0.46725
0.0377475
0.352613
0.26617
0.0353198
2.35842
113.139
1.81129
85.7805
1.38996
65.073
1.07083
49.347
0.827974
37.4434
0.643314
28.435
0.501756
21.6236
0.392039
16.4729
0.305987
12.573
0.238029
9.61195
0.184276
7.35579
0.142116
5.62942
0.109617
4.30363
0.0851935
3.2835
0.0673034
2.49918
0.0544044
1.89806
0.0451133
1.43903
0.038341
1.08956
0.0333309
0.824001
0.0295692
0.622599
0.0267143
0.470106
0.0245556
0.354772
0.267857
0.0228687
1.09694
113.46
0.851789
86.0256
0.660782
65.264
0.516559
49.4912
0.40655
37.5534
0.322802
28.5188
0.257796
21.6886
0.206147
16.5246
0.164113
12.615
0.12949
9.64657
0.100901
7.38438
0.0776473
5.65267
0.0592568
4.32201
0.0452887
3.29746
0.03509
2.50937
0.0277971
1.90535
0.0225382
1.44429
0.018619
1.09348
0.0155921
0.827027
0.0131897
0.625001
0.0112508
0.472045
0.00971104
0.356312
0.269131
0.00843679
0.207798
113.504
0.173879
86.0594
0.144456
65.2934
0.122902
49.5128
0.106228
37.5701
0.0934312
28.5316
0.0822802
21.6998
0.0715036
16.5353
0.06045
12.6261
0.0492602
9.65776
0.0383031
7.39534
0.0282131
5.66276
0.0195468
4.33068
0.0126927
3.30432
0.00765027
2.51442
0.00405281
1.90895
0.00139213
1.44695
-0.000746583
1.09562
-0.00259517
0.828877
-0.00423549
0.626641
-0.00570564
0.473515
-0.00695362
0.357559
0.270231
-0.00805365
-0.402937
113.36
-0.293462
85.9499
-0.212919
65.2128
-0.150996
49.4509
-0.103985
37.5231
-0.0683184
28.4959
-0.0426344
21.6741
-0.0254331
16.5181
-0.015279
12.6159
-0.0104598
9.65294
-0.00943108
7.39431
-0.0106591
5.66399
-0.0128777
4.3329
-0.0151061
3.30655
-0.0168677
2.51618
-0.0181675
1.91025
-0.0192609
1.44804
-0.0203735
1.09673
-0.0215957
0.830098
-0.0228787
0.627924
-0.0241703
0.474806
-0.0253484
0.358737
0.271319
-0.0264363
-0.808539
113.095
-0.605661
85.747
-0.453245
65.0604
-0.336688
49.3343
-0.247844
37.4343
-0.180288
28.4283
-0.130315
21.6241
-0.0946455
16.4825
-0.0704975
12.5918
-0.0551597
9.63761
-0.0463327
7.38548
-0.0419037
5.65956
-0.0401291
4.33113
-0.0396043
3.30602
-0.0394976
2.51608
-0.0395486
1.9103
-0.039844
1.44834
-0.0404934
1.09738
-0.0415004
0.831106
-0.0427347
0.629159
-0.0440685
0.47614
-0.0453608
0.360029
0.272515
-0.0465571
-1.06022
112.757
-0.801425
85.4882
-0.605745
64.8647
-0.456189
49.1847
-0.341926
37.32
-0.254931
28.3413
-0.190084
21.5592
-0.143076
16.4354
-0.110335
12.559
-0.0885835
9.61585
-0.0750876
7.37198
-0.0674012
5.65187
-0.0634799
4.3272
-0.0616213
3.30416
-0.0607239
2.51518
-0.0603277
1.9099
-0.0604102
1.44842
-0.0610236
1.09799
-0.062128
0.83221
-0.0635503
0.630581
-0.0651015
0.477691
-0.0666476
0.361575
0.273917
-0.0680496
-1.20436
112.383
-0.915847
85.1996
-0.696924
64.6458
-0.529472
49.0173
-0.401265
37.1918
-0.303527
28.2436
-0.230389
21.4861
-0.177037
16.3821
-0.139498
12.5215
-0.114229
9.59058
-0.0982795
7.35603
-0.0890385
5.64263
-0.084281
4.32245
-0.08209
3.30197
-0.0811484
2.51424
-0.08084
1.9096
-0.0810768
1.44866
-0.081903
1.09882
-0.0832742
0.833582
-0.0850045
0.632311
-0.0868648
0.479551
-0.0887268
0.363436
0.275562
-0.090372
-1.27079
111.996
-0.971435
84.9003
-0.743684
64.4181
-0.569212
48.8428
-0.435337
37.0579
-0.333123
28.1414
-0.256431
21.4094
-0.200326
16.326
-0.160715
12.4819
-0.134007
9.56387
-0.1172
7.33922
-0.107639
5.63307
-0.10301
4.31782
-0.101238
3.3002
-0.100819
2.51382
-0.101002
1.90978
-0.101659
1.44932
-0.102867
1.10003
-0.104613
0.835327
-0.106724
0.634422
-0.10896
0.481785
-0.111169
0.365645
0.277476
-0.113084
-1.28091
111.614
-0.984345
84.6037
-0.758151
64.1918
-0.584506
48.6692
-0.450938
36.9243
-0.348766
28.0392
-0.271936
21.3326
-0.215659
16.2697
-0.175933
12.4422
-0.149276
9.53722
-0.132751
7.3227
-0.123758
5.62408
-0.119957
4.31402
-0.119156
3.2994
-0.119678
2.51434
-0.120636
1.91074
-0.121877
1.45056
-0.12354
1.10169
-0.125684
0.837472
-0.128184
0.636922
-0.130805
0.484406
-0.133346
0.368186
0.279661
-0.13553
-1.25397
111.248
-0.969127
84.3188
-0.751281
63.974
-0.583599
48.5015
-0.454253
36.795
-0.355076
27.94
-0.280336
21.2578
-0.225572
16.2149
-0.187009
12.4036
-0.161377
9.51158
-0.145887
7.30721
-0.138056
5.61624
-0.135565
4.31152
-0.136131
3.29996
-0.137894
2.5161
-0.139818
1.91266
-0.14172
1.45246
-0.143828
1.1038
-0.146314
0.839957
-0.149137
0.639745
-0.152076
0.487345
-0.154876
0.370986
0.282087
-0.157303
-1.20246
110.907
-0.935249
84.0516
-0.730225
63.769
-0.571906
48.3432
-0.449372
36.6725
-0.355139
27.8458
-0.283955
21.1867
-0.231807
16.1628
-0.195242
12.367
-0.171272
9.48761
-0.157313
7.29325
-0.151044
5.60997
-0.15021
4.31069
-0.152443
3.3022
-0.15569
2.51935
-0.158724
1.9157
-0.161315
1.45506
-0.163789
1.10627
-0.166477
0.842645
-0.16946
0.642728
-0.172564
0.49045
-0.175531
0.373953
0.28476
-0.178204
-1.14017
110.594
-0.893152
83.8046
-0.702893
63.5787
-0.555413
48.1957
-0.440809
36.5578
-0.352348
27.7573
-0.28534
21.1196
-0.236278
16.1137
-0.20207
12.3328
-0.18004
9.46558
-0.167831
7.28104
-0.163314
5.60545
-0.164319
4.31169
-0.168405
3.30628
-0.17329
2.52423
-0.177506
1.91991
-0.180728
1.45828
-0.183381
1.10893
-0.185999
0.845263
-0.188854
0.645582
-0.191864
0.493459
-0.194825
0.376914
0.287563
-0.197628
-1.06697
110.311
-0.842755
83.5803
-0.669236
63.4052
-0.534124
48.0606
-0.428623
36.4523
-0.346808
27.6755
-0.284611
21.0574
-0.239088
16.0682
-0.207559
12.3013
-0.187704
9.44573
-0.177428
7.27076
-0.174825
5.60285
-0.177847
4.31471
-0.183988
3.31242
-0.190712
2.53096
-0.19623
1.92543
-0.200046
1.46209
-0.202678
1.11156
-0.204906
0.84749
-0.207199
0.647875
-0.209623
0.495882
-0.212137
0.379428
0.290108
-0.214682
-0.986809
110.062
-0.787104
83.3806
-0.631574
63.2497
-0.509732
47.9387
-0.413978
36.3566
-0.339299
27.6008
-0.282326
21.0005
-0.240697
16.0266
-0.212138
12.2727
-0.194678
9.42827
-0.186492
7.26257
-0.185933
5.60229
-0.191112
4.31989
-0.199491
3.3208
-0.208254
2.53972
-0.215218
1.93239
-0.219636
1.46651
-0.222058
1.11398
-0.223422
0.848854
-0.224424
0.648876
-0.225521
0.496979
-0.226986
0.380894
0.291879
-0.228757
-0.891027
109.797
-0.697053
83.1866
-0.55471
63.1073
-0.448941
47.833
-0.369566
36.2772
-0.309856
27.5411
-0.265235
20.9559
-0.232757
15.9941
-0.210343
12.2503
-0.196632
9.41455
-0.190684
7.25662
-0.191795
5.6034
-0.198971
4.32706
-0.210309
3.33213
-0.223005
2.55241
-0.234208
1.94359
-0.242205
1.47451
-0.246826
1.1186
-0.248908
0.850935
-0.24965
0.649618
-0.25008
0.49741
-0.250664
0.381477
0.292641
-0.251427
-0.865442
109.547
-0.681251
83.0025
-0.545876
62.9719
-0.445146
47.7322
-0.369435
36.2015
-0.312383
27.4841
-0.269668
20.9131
-0.238544
15.963
-0.217077
12.2288
-0.204032
9.40151
-0.198577
7.25117
-0.200147
5.60497
-0.207906
4.33482
-0.220052
3.34428
-0.233705
2.56606
-0.245648
1.95553
-0.25359
1.48245
-0.257004
1.12201
-0.256964
0.850895
-0.254978
0.647632
-0.252032
0.494463
-0.248857
0.378302
0.289822
-0.246038
-0.840466
109.309
-0.66553
82.8275
-0.536727
62.8431
-0.440742
47.6363
-0.368476
36.1292
-0.313917
27.4295
-0.272986
20.8722
-0.243123
15.9331
-0.222529
12.2083
-0.210081
9.38906
-0.20505
7.24613
-0.207009
5.60692
-0.215293
4.3431
-0.228248
3.35723
-0.242961
2.58077
-0.255855
1.96843
-0.26412
1.49071
-0.266975
1.12486
-0.265255
0.849174
-0.260131
0.642509
-0.253273
0.487604
-0.246741
0.37177
0.284208
-0.241128
-0.816131
109.084
-0.649983
82.6614
-0.52741
62.7206
-0.435918
47.5448
-0.36691
36.0602
-0.314703
27.3773
-0.27545
20.8329
-0.246762
15.9044
-0.226969
12.1885
-0.215049
9.37714
-0.210371
7.24145
-0.212642
5.60919
-0.221389
4.35185
-0.235146
3.37098
-0.25104
2.59667
-0.265283
1.98267
-0.274646
1.50007
-0.277472
1.12769
-0.273604
0.845305
-0.265358
0.634262
-0.256894
0.47914
-0.249888
0.364763
0.276841
-0.242521
-0.792458
108.871
-0.634675
82.5035
-0.518022
62.6039
-0.430801
47.4575
-0.364885
35.9943
-0.314906
27.3273
-0.277236
20.7953
-0.249646
15.8768
-0.230588
12.1694
-0.219132
9.36568
-0.214736
7.23706
-0.21724
5.61169
-0.226378
4.36098
-0.240921
3.38552
-0.258182
2.61392
-0.274338
1.99882
-0.285291
1.51103
-0.287749
1.13014
-0.282381
0.839935
-0.275157
0.62704
-0.269492
0.473474
-0.2619
0.357171
0.263991
-0.249052
-0.769455
108.669
-0.619649
82.3538
-0.508637
62.4929
-0.425484
47.3744
-0.362511
35.9313
-0.314649
27.2794
-0.278476
20.7591
-0.251916
15.8503
-0.233532
12.151
-0.222478
9.35463
-0.218297
7.23287
-0.220952
5.61435
-0.230397
4.37042
-0.245714
3.40084
-0.264564
2.63277
-0.282973
2.01723
-0.295412
1.52346
-0.298535
1.13326
-0.296827
0.838225
-0.295507
0.62572
-0.289497
0.467464
-0.272359
0.340032
0.23789
-0.246259
-0.747122
108.478
-0.604935
82.2115
-0.499308
62.3872
-0.420035
47.2951
-0.359868
35.8712
-0.314021
27.2336
-0.279269
20.7244
-0.253675
15.8247
-0.23591
12.1333
-0.225202
9.34392
-0.221168
7.22884
-0.223888
5.61706
-0.233549
4.38008
-0.249621
3.41691
-0.270158
2.6533
-0.29078
2.03785
-0.305517
1.5382
-0.314018
1.14176
-0.320905
0.84511
-0.319916
0.624732
-0.29948
0.447029
-0.26198
0.302531
0.195421
-0.219512
-0.725455
108.297
-0.590553
82.0767
-0.490073
62.2868
-0.414509
47.2195
-0.357021
35.8137
-0.313096
27.1897
-0.279693
20.6909
-0.255008
15.8
-0.23781
12.1161
-0.227394
9.3335
-0.223443
7.22489
-0.226138
5.61976
-0.235914
4.38986
-0.25267
3.43366
-0.274769
2.6754
-0.29783
2.06091
-0.317926
1.55829
-0.336489
1.16032
-0.347044
0.855664
-0.330604
0.608292
-0.284581
0.401006
-0.228017
0.245966
0.145569
-0.178167
-0.704445
108.126
-0.576517
81.9487
-0.480963
62.1912
-0.408946
47.1475
-0.354021
35.7588
-0.31193
27.1476
-0.279811
20.6588
-0.255981
15.7762
-0.239303
12.0994
-0.229129
9.32333
-0.225195
7.22095
-0.227774
5.62233
-0.237548
4.39963
-0.254817
3.45093
-0.278289
2.69887
-0.304941
2.08755
-0.334008
1.58736
-0.360822
1.18713
-0.361503
0.856343
-0.319316
0.566105
-0.254569
0.336259
-0.196889
0.188285
0.10555
-0.156872
-0.684081
107.965
-0.562836
81.8275
-0.472
62.1004
-0.403381
47.0789
-0.350908
35.7063
-0.310572
27.1072
-0.279674
20.6279
-0.25665
15.7531
-0.240447
12.0832
-0.230468
9.31335
-0.226489
7.21697
-0.228855
5.6247
-0.238479
4.40925
-0.256004
3.46845
-0.280833
2.7237
-0.3128
2.11952
-0.351696
1.62625
-0.378371
1.21381
-0.358966
0.836936
-0.297598
0.504738
-0.234871
0.273532
-0.193207
0.14662
0.0814248
-0.169084
-0.66435
107.813
-0.549514
81.7126
-0.463203
62.014
-0.397839
47.0135
-0.347716
35.6562
-0.309059
27.0686
-0.279326
20.5982
-0.257062
15.7309
-0.241294
12.0674
-0.231464
9.30351
-0.227377
7.21288
-0.229433
5.62675
-0.238725
4.41854
-0.256206
3.48593
-0.282601
2.75009
-0.321031
2.15795
-0.366733
1.67195
-0.384555
1.23162
-0.346488
0.798867
-0.283755
0.442005
-0.238064
0.22784
-0.212469
0.121025
0.0657508
-0.196798
-0.64524
107.67
-0.536555
81.6039
-0.454585
61.9321
-0.392344
46.9513
-0.344475
35.6083
-0.307426
27.0315
-0.278806
20.5696
-0.257259
15.7093
-0.241887
12.052
-0.232164
9.29379
-0.22791
7.20863
-0.22955
5.62839
-0.238296
4.42728
-0.255446
3.50308
-0.283641
2.77828
-0.32824
2.20254
-0.375682
1.71939
-0.380894
1.23683
-0.334208
0.752177
-0.283841
0.391639
-0.254336
0.198334
-0.235384
0.102073
0.0510647
-0.220701
-0.626737
107.535
-0.52396
81.5011
-0.446157
61.8543
-0.386914
46.8921
-0.341208
35.5626
-0.305702
26.996
-0.278144
20.542
-0.257275
15.6885
-0.242264
12.037
-0.232609
9.28414
-0.22813
7.20415
-0.229244
5.6295
-0.237209
4.43525
-0.253765
3.51963
-0.283741
2.80825
-0.33277
2.25157
-0.377295
1.76391
-0.371218
1.23075
-0.325395
0.706352
-0.288939
0.355181
-0.266947
0.176342
-0.248388
0.0835131
0.0351042
-0.23243
-0.608827
107.408
-0.511727
81.4041
-0.43793
61.7805
-0.381567
46.8357
-0.337939
35.5189
-0.303914
26.962
-0.277372
20.5155
-0.257144
15.6682
-0.242461
12.0223
-0.232837
9.27451
-0.228077
7.19939
-0.228551
5.62997
-0.235497
4.44219
-0.251198
3.53533
-0.282499
2.83955
-0.333267
2.30234
-0.371609
1.80226
-0.357174
1.21632
-0.315728
0.664902
-0.287077
0.326533
-0.266142
0.155405
-0.247223
0.0645942
0.0190595
-0.231182
-0.591495
107.289
-0.499857
81.3124
-0.42991
61.7105
-0.376316
46.7821
-0.334687
35.4773
-0.302084
26.9294
-0.276515
20.4899
-0.256895
15.6486
-0.24251
12.0079
-0.232882
9.26488
-0.227788
7.19429
-0.227507
5.62969
-0.233203
4.44788
-0.247751
3.54987
-0.27942
2.87122
-0.328832
2.35175
-0.35905
1.83247
-0.338643
1.1959
-0.300305
0.626563
-0.27338
0.299607
-0.25138
0.133404
-0.232849
0.0460631
0.00401274
-0.217805
-0.574729
107.178
-0.488348
81.226
-0.422106
61.6443
-0.371176
46.7311
-0.33147
35.4376
-0.300236
26.8982
-0.2756
20.4653
-0.256556
15.6296
-0.24244
11.9938
-0.232777
9.25522
-0.2273
7.18881
-0.226152
5.62854
-0.230379
4.45211
-0.243398
3.56289
-0.274039
2.90186
-0.319052
2.39676
-0.340226
1.85365
-0.315587
1.17126
-0.278954
0.589926
-0.252065
0.272721
-0.229918
0.111256
-0.211802
0.0279468
-0.0113264
-0.196466
-0.558515
107.074
-0.477196
81.1447
-0.414522
61.5816
-0.366158
46.6828
-0.328305
35.3998
-0.298388
26.8683
-0.274648
20.4415
-0.256151
15.6111
-0.242278
11.98
-0.232552
9.24549
-0.226646
7.18291
-0.224526
5.62642
-0.227082
4.45466
-0.238105
3.57391
-0.266043
2.92979
-0.30395
2.43466
-0.315812
1.86551
-0.288429
1.14388
-0.253847
0.555343
-0.228579
0.24745
-0.208224
0.0909006
-0.191088
0.0108104
-0.0290628
-0.173354
-0.54284
106.976
-0.466401
81.0683
-0.407164
61.5224
-0.361273
46.6369
-0.325207
35.3637
-0.29656
26.8396
-0.273681
20.4187
-0.255704
15.5931
-0.242051
11.9663
-0.232236
9.23568
-0.225859
7.17653
-0.222675
5.62324
-0.223373
4.45536
-0.231856
3.58239
-0.255343
2.95328
-0.283962
2.46328
-0.286774
1.86832
-0.258257
1.11536
-0.225655
0.522738
-0.202664
0.224463
-0.185482
0.0737184
-0.171536
-0.00313531
-0.0489607
-0.151641
-0.527691
106.886
-0.455958
80.9965
-0.400038
61.4664
-0.356533
46.5934
-0.32219
35.3294
-0.29477
26.8122
-0.272718
20.3966
-0.255237
15.5756
-0.241783
11.9529
-0.231856
9.22575
-0.224971
7.16964
-0.220646
5.61891
-0.219321
4.45404
-0.224679
3.58775
-0.24204
2.97063
-0.259682
2.48092
-0.253638
1.86227
-0.224571
1.08629
-0.192636
0.490803
-0.169245
0.20107
-0.155038
0.0595117
-0.147081
-0.0110923
-0.0671398
-0.128903
-0.513055
106.802
-0.445866
80.9293
-0.393148
61.4137
-0.351946
46.5522
-0.31927
35.2967
-0.293033
26.786
-0.27178
20.3753
-0.25477
15.5586
-0.241497
11.9396
-0.231439
9.21569
-0.224016
7.16222
-0.218489
5.61338
-0.214997
4.45055
-0.216647
3.5894
-0.22639
2.98038
-0.231701
2.48624
-0.216544
1.84712
-0.186611
1.05636
-0.154787
0.458976
-0.128938
0.175225
-0.116454
0.0470276
-0.11328
-0.0142654
-0.0804775
-0.0999434
-0.498921
106.724
-0.436122
80.8665
-0.386496
61.3641
-0.347522
46.5132
-0.316457
35.2656
-0.291365
26.7609
-0.270883
20.3549
-0.254324
15.542
-0.241214
11.9265
-0.231008
9.20548
-0.223025
7.15424
-0.216255
5.60661
-0.210476
4.44476
-0.207884
3.5868
-0.208821
2.98131
-0.200952
2.47836
-0.176606
1.82277
-0.14685
1.0266
-0.118328
0.430455
-0.093637
0.150532
-0.0829763
0.0363683
-0.0756169
-0.0216241
-0.0897416
-0.0663533
-0.485276
106.653
-0.426723
80.808
-0.380089
61.3174
-0.343269
46.4764
-0.313765
35.2361
-0.289783
26.7369
-0.270045
20.3351
-0.253919
15.5259
-0.240956
11.9135
-0.23059
9.19512
-0.222032
7.14568
-0.213997
5.59857
-0.205843
4.43661
-0.198585
3.57955
-0.189939
2.97267
-0.168674
2.4571
-0.135585
1.78968
-0.106938
0.997955
-0.0853858
0.408902
-0.0668289
0.131981
-0.0591601
0.0286998
-0.0367279
-0.0440546
-0.0964867
-0.0299828
-0.472109
106.587
-0.417665
80.7535
-0.373929
61.2737
-0.339197
46.4416
-0.311205
35.2081
-0.288298
26.714
-0.269281
20.3161
-0.25357
15.5102
-0.240743
11.9007
-0.230207
9.18458
-0.221065
7.13653
-0.211764
5.58927
-0.201192
4.42604
-0.188987
3.56734
-0.170381
2.95406
-0.135887
2.4226
-0.0942309
1.74802
-0.0646747
0.968398
-0.0482696
0.3925
-0.0310725
0.114781
-0.0168561
0.0144854
0.00727776
-0.0681877
-0.0987601
0.00955257
-0.459409
106.527
-0.408947
80.703
-0.368019
61.2328
-0.335312
46.4089
-0.308788
35.1816
-0.286927
26.6921
-0.26861
20.2978
-0.253299
15.4949
-0.240595
11.888
-0.229883
9.17387
-0.220157
7.12681
-0.20961
5.57873
-0.196627
4.41306
-0.179382
3.5501
-0.150821
2.9255
-0.103532
2.37532
-0.0523254
1.69682
-0.0173087
0.933384
-0.000248006
0.375441
0.0151692
0.0993697
0.0326779
-0.00302296
0.0437488
-0.0792573
-0.0973874
0.0423781
-0.447165
106.472
-0.400566
80.6564
-0.362362
61.1945
-0.33162
46.3782
-0.306522
35.1565
-0.285676
26.6713
-0.268037
20.2802
-0.253111
15.48
-0.240524
11.8754
-0.229633
9.16298
-0.21933
7.1165
-0.207573
5.56697
-0.192223
4.3977
-0.169949
3.52782
-0.131591
2.88714
-0.0721039
2.31583
-0.0111799
1.63589
0.0278052
0.894398
0.0432549
0.359993
0.0544686
0.0881501
0.0704235
-0.0189794
0.0744962
-0.0833285
-0.0944775
0.0715868
-0.420563
106.403
-0.368721
80.6046
-0.329733
61.1556
-0.300252
46.3487
-0.277247
35.1335
-0.258698
26.6527
-0.243238
20.2647
-0.230189
15.4669
-0.21909
11.8643
-0.209275
9.15316
-0.199617
7.10684
-0.188083
5.55543
-0.172245
4.38187
-0.147795
3.50337
-0.10501
2.84436
-0.0410969
2.25192
0.023224
1.57157
0.0611202
0.856506
0.0732387
0.347876
0.0802038
0.0811898
0.091986
-0.0307664
0.0930887
-0.0844406
-0.0917278
0.0903456
-0.334368
106.349
-0.293413
80.5636
-0.26261
61.1247
-0.239336
46.3254
-0.22117
35.1153
-0.206499
26.638
-0.194219
20.2524
-0.183777
15.4565
-0.174792
11.8553
-0.166719
9.14509
-0.158586
7.09871
-0.148717
5.54556
-0.134875
4.36802
-0.112967
3.48146
-0.0750704
2.80646
-0.0195518
2.1964
0.0374118
1.5146
0.0700289
0.823886
0.0794994
0.338405
0.0828409
0.0778382
0.0898015
-0.0377285
0.0900297
-0.084672
-0.0900746
0.088368
-0.265821
106.306
-0.233454
80.5313
-0.209109
61.1004
-0.190729
46.307
-0.176383
35.101
-0.164784
26.6264
-0.15504
20.2427
-0.1467
15.4481
-0.139452
11.8481
-0.132856
9.13849
-0.126098
7.09195
-0.117824
5.53729
-0.106084
4.35629
-0.0872917
3.46268
-0.0552266
2.7744
-0.00867671
2.14985
0.0397582
1.46617
0.0672878
0.796361
0.0754707
0.330226
0.0773869
0.0759314
0.0813206
-0.0416733
0.0812793
-0.0846343
-0.0891658
0.0803676
-0.211285
106.272
-0.185673
80.5056
-0.166408
61.0811
-0.151875
46.2925
-0.140536
35.0896
-0.13136
26.6173
-0.123629
20.2349
-0.116975
15.4415
-0.111144
11.8422
-0.105781
9.13313
-0.100217
7.08639
-0.0933716
5.53044
-0.0835958
4.34651
-0.0678822
3.44696
-0.0414302
2.74795
-0.0032338
2.11165
0.0368816
1.42605
0.0599919
0.773248
0.0675622
0.322653
0.0691574
0.0743306
0.0711182
-0.0436263
0.0708611
-0.0843836
-0.0885022
0.0701947
-0.16791
106.245
-0.147621
80.4853
-0.13236
61.0659
-0.120858
46.281
-0.111888
35.0807
-0.104625
26.61
-0.0984922
20.2288
-0.0931874
15.4362
-0.0885042
11.8375
-0.0841596
9.12879
-0.0796091
7.08184
-0.0739951
5.52483
-0.0659516
4.33847
-0.0530181
3.43403
-0.031524
2.72646
-0.000626628
2.08076
0.0320654
1.39336
0.0514687
0.753849
0.0585889
0.315537
0.0602828
0.0726455
0.0610579
-0.0444071
0.0605068
-0.0838292
-0.0876705
0.0596732
-0.133366
106.223
-0.117238
80.4692
-0.105107
61.0537
-0.0959709
46.2719
-0.088851
35.0736
-0.0830879
26.6042
-0.0782143
20.2239
-0.0739833
15.432
-0.070226
11.8338
-0.0667165
9.12528
-0.0630161
7.07813
-0.0584484
5.52026
-0.0519008
4.33192
-0.041399
3.42352
-0.0241683
2.70922
0.000488691
2.0561
0.0267513
1.36709
0.0429839
0.737614
0.049558
0.30896
0.0513594
0.0708406
0.0514839
-0.0445234
0.0505747
-0.0829238
-0.0864609
0.0493655
-0.106162
106.206
-0.0935191
80.4566
-0.0840113
61.0442
-0.0768592
46.2647
-0.0712872
35.068
-0.0667719
26.5997
-0.0629386
20.2201
-0.0595887
15.4286
-0.0565868
11.8308
-0.0537541
9.12245
-0.0507365
7.07512
-0.0469937
5.51652
-0.0416122
4.32654
-0.0329934
3.41491
-0.0190016
2.69524
0.000932922
2.03617
0.0222524
1.34577
0.0359828
0.723888
0.04196
0.302987
0.0437359
0.0690718
0.0434838
-0.0442746
0.0422572
-0.0816931
-0.0848977
0.0406927
-0.0840906
106.193
-0.0738655
80.4463
-0.0661736
61.0365
-0.0603903
46.2589
-0.0558918
35.0635
-0.0522552
26.5961
-0.0491752
20.217
-0.0464865
15.4259
-0.0440753
11.8284
-0.0417979
9.12017
-0.0393743
7.07269
-0.0363854
5.51353
-0.0321113
4.32227
-0.0253225
3.40812
-0.0144605
2.68437
0.000928779
2.02077
0.0174673
1.32923
0.0285793
0.712774
0.0336334
0.297931
0.0351149
0.0675882
0.034629
-0.0437817
0.0333
-0.0803667
-0.0832238
0.0316272
-0.0731656
106.177
-0.0610063
80.4342
-0.0516379
61.0271
-0.0444362
46.2517
-0.0387445
35.0578
-0.0340811
26.5914
-0.0300611
20.213
-0.0264407
15.4223
-0.0230443
11.825
-0.0196803
9.11681
-0.016036
7.06905
-0.0116467
5.50914
-0.00571876
4.31634
0.00294829
3.39945
0.0151915
2.67213
0.0295466
2.00642
0.0413309
1.31745
0.0453782
0.708731
0.0432831
0.30003
0.0385073
0.0723714
0.0330057
-0.0382822
0.028204
-0.0755605
-0.0790935
0.0240728
-0.0768025
106.16
-0.0640396
80.4214
-0.0542066
61.0173
-0.0466522
46.2442
-0.0406862
35.0518
-0.0357998
26.5865
-0.0315841
20.2088
-0.027778
15.4185
-0.0241937
11.8214
-0.0206288
9.11324
-0.0167557
7.06517
-0.0120913
5.50448
-0.00581079
4.31006
0.00332177
3.39032
0.0161591
2.65929
0.0311745
1.9914
0.0434024
1.30522
0.0476371
0.704495
0.0455467
0.302119
0.0405358
0.0773816
0.0345537
-0.0322929
0.0293713
-0.0703802
-0.0747185
0.0249975
-0.0806201
106.143
-0.0672235
80.408
-0.0569026
61.007
-0.048978
46.2362
-0.0427243
35.0456
-0.0376043
26.5814
-0.0331837
20.2044
-0.029183
15.4145
-0.0254013
11.8176
-0.0216248
9.10947
-0.0175108
7.06106
-0.0125571
5.49952
-0.00590896
4.30341
0.00370238
3.38071
0.0171355
2.64586
0.032785
1.97576
0.0454197
1.29258
0.0498407
0.700078
0.0477545
0.30421
0.0425016
0.0826422
0.0360599
-0.0258522
0.0304882
-0.0648039
-0.0700939
0.0258632
-0.0846273
106.124
-0.0705653
80.3939
-0.0597321
60.9961
-0.0514191
46.2279
-0.0448636
35.039
-0.0394989
26.5761
-0.0348636
20.1997
-0.0306588
15.4103
-0.0266697
11.8136
-0.0226705
9.10547
-0.0183026
7.05669
-0.0130447
5.49426
-0.00601295
4.29638
0.00409059
3.37061
0.0181191
2.63183
0.0343694
1.95951
0.047365
1.27958
0.0519495
0.695493
0.0498513
0.306307
0.044375
0.0881192
0.0375557
-0.0190261
0.0316197
-0.0588691
-0.0652231
0.0267502
-0.0888334
106.105
-0.0740731
80.3792
-0.0627021
60.9848
-0.0539812
46.2192
-0.0471092
35.0321
-0.041488
26.5704
-0.0366277
20.1949
-0.0322091
15.4059
-0.028002
11.8094
-0.023768
9.10123
-0.0191326
7.05206
-0.0135546
5.48869
-0.00612271
4.28895
0.0044859
3.36
0.0191099
2.61721
0.035926
1.94269
0.0492241
1.26629
0.0539369
0.690784
0.0518085
0.30844
0.0461251
0.0938106
0.0389938
-0.0118947
0.0326977
-0.0525684
-0.060131
0.0276057
-0.0932489
106.085
-0.0777553
80.3637
-0.0658194
60.9728
-0.0566704
46.21
-0.0494663
35.0249
-0.0435762
26.5645
-0.0384804
20.1898
-0.0338375
15.4012
-0.0294012
11.805
-0.0249199
9.09675
-0.0200024
7.04714
-0.0140874
5.48277
-0.00623771
4.2811
0.00488864
3.34887
0.0201058
2.60199
0.0374495
1.92535
0.0509844
1.25275
0.0557789
0.68599
0.0535997
0.310619
0.0477285
0.0996837
0.0403615
-0.00452103
0.0336917
-0.0458989
-0.0548365
0.0283985
-0.0978835
106.064
-0.0816203
80.3474
-0.0690915
60.9603
-0.0594929
46.2004
-0.0519405
35.0174
-0.0457687
26.5584
-0.040426
20.1844
-0.0355478
15.3964
-0.0308707
11.8003
-0.0261285
9.09201
-0.0209135
7.04192
-0.0146434
5.4765
-0.00635688
4.27282
0.00530037
3.33722
0.0211031
2.5862
0.0389297
1.90753
0.0526297
1.23905
0.0574504
0.681173
0.0552009
0.312872
0.0491669
0.105726
0.0416479
0.00299902
0.0346159
-0.0388627
-0.0493281
0.0291083
-0.102749
106.041
-0.0856773
80.3303
-0.0725257
60.9471
-0.0624554
46.1904
-0.0545376
35.0095
-0.0480704
26.5519
-0.0424691
20.1788
-0.0373442
15.3912
-0.0324138
11.7954
-0.0273962
9.08699
-0.0218671
7.03639
-0.0152228
5.46986
-0.00647914
4.26407
0.00572267
3.32502
0.0220973
2.56982
0.040355
1.88927
0.0541452
1.22526
0.0589358
0.676383
0.0565971
0.31521
0.0504233
0.111902
0.0427945
0.010634
0.0354639
-0.0315315
-0.0435827
0.0297198
-0.107856
106.018
-0.089936
80.3124
-0.0761304
60.9333
-0.0655647
46.1798
-0.0572636
35.0012
-0.0504868
26.5451
-0.0446145
20.1729
-0.0392306
15.3859
-0.0340336
11.7902
-0.0287255
9.08169
-0.0228645
7.03053
-0.0158257
5.46282
-0.00660383
4.25485
0.00615541
3.31226
0.0230832
2.5529
0.041714
1.87064
0.0555204
1.21146
0.0602286
0.671678
0.0577817
0.31766
0.051486
0.118205
0.0437589
0.018363
0.0362175
-0.0239864
-0.0375816
0.0302176
-0.113217
105.993
-0.0944062
80.2936
-0.079914
60.9188
-0.0688283
46.1687
-0.060125
34.9925
-0.0530236
26.538
-0.0468671
20.1668
-0.0412114
15.3802
-0.0357338
11.7847
-0.0301187
9.07607
-0.0239071
7.02432
-0.0164527
5.45537
-0.00673109
4.24513
0.00659638
3.29893
0.0240542
2.53544
0.0429986
1.85169
0.0567532
1.1977
0.0613321
0.6671
0.0587568
0.320236
0.0523491
0.124616
0.0445452
0.0261724
0.0368859
-0.0163256
-0.0313019
0.0306077
-0.118844
105.967
-0.0990984
80.2738
-0.0838854
60.9036
-0.0722536
46.1571
-0.0631283
34.9833
-0.0556865
26.5306
-0.049232
20.1603
-0.0432908
15.3743
-0.0375177
11.7789
-0.0315787
9.07013
-0.0249965
7.01774
-0.0171043
5.44748
-0.00686219
4.23489
0.00704097
3.28503
0.0249994
2.51748
0.0441963
1.8325
0.0578448
1.18406
0.0622576
0.66269
0.0595297
0.322966
0.0530146
0.131138
0.0451555
0.0340341
0.0374556
-0.00862251
-0.02477
0.0309251
-0.124751
105.94
-0.104024
80.2531
-0.0880537
60.8876
-0.0758488
46.1449
-0.0662806
34.9738
-0.0584818
26.5228
-0.0517147
20.1536
-0.0454736
15.368
-0.0393893
11.7728
-0.0331081
9.06385
-0.0261345
7.01076
-0.0177819
5.43912
-0.00700028
4.22411
0.00748151
3.27055
0.0259046
2.49906
0.0452941
1.81311
0.0587999
1.17055
0.0630163
0.658475
0.0601055
0.325877
0.0534866
0.13776
0.0455882
0.0419371
0.0378722
-0.000904552
-0.018086
0.0311898
-0.130952
105.912
-0.109194
80.2313
-0.0924291
60.8709
-0.0796222
46.132
-0.0695891
34.9637
-0.0614157
26.5146
-0.0543207
20.1465
-0.0477644
15.3615
-0.0413524
11.7664
-0.0347101
9.05721
-0.0273235
7.00338
-0.0184879
5.43029
-0.00715
4.21278
0.00790773
3.2555
0.0267567
2.48022
0.0462834
1.79359
0.0596171
1.15722
0.063606
0.654489
0.0604869
0.328998
0.0537686
0.144483
0.0458361
0.0498728
0.0381147
0.00681943
-0.0113624
0.0313926
-0.137462
105.882
-0.114622
80.2085
-0.0970215
60.8533
-0.0835826
46.1186
-0.0730615
34.9532
-0.0644951
26.506
-0.0570559
20.139
-0.0501684
15.3546
-0.0434111
11.7597
-0.0363881
9.05019
-0.028566
6.99555
-0.019225
5.42095
-0.00731671
4.20087
0.00830925
3.23987
0.0275425