/*--------------------------------*- C++ -*----------------------------------*\
  =========                 |
  \\      /  F ield         | OpenFOAM: The Open Source CFD Toolbox
   \\    /   O peration     | Website:  https://openfoam.org
    \\  /    A nd           | Version:  7
     \\/     M anipulation  |
\*---------------------------------------------------------------------------*/
FoamFile
{
    version     2.0;
    format      ascii;
    class       volVectorField;
    location    "183";
    object      U;
}
// * * * * * * * * * * * * * * * * * * * * * * * * * * * * * * * * * * * * * //

dimensions      [0 1 -1 0 0 0 0];

internalField   nonuniform List<vector> 
12842
(
(14.6761 5.35545 -3.59094e-18)
(14.6718 5.38294 -1.22071e-18)
(14.6674 5.41081 -2.85101e-19)
(14.6581 5.44251 7.83143e-19)
(14.6435 5.48128 -2.53873e-18)
(14.6229 5.53072 0)
(14.5942 5.59457 0)
(14.5543 5.67661 -1.90524e-19)
(14.499 5.78042 8.57322e-19)
(14.4234 5.90898 -2.82275e-20)
(14.3224 6.06419 2.01928e-19)
(14.1914 6.24655 -8.69311e-20)
(14.0274 6.45471 3.0136e-19)
(13.8298 6.68561 1.11713e-19)
(13.6009 6.93449 -1.41366e-19)
(13.346 7.19508 -3.91988e-19)
(13.0729 7.45998 -3.55207e-19)
(12.7912 7.72131 0)
(12.5112 7.97146 3.06244e-20)
(12.2427 8.20394 2.26078e-19)
(11.9943 8.4141 3.16025e-20)
(11.7703 8.5987 -1.49174e-19)
(11.5814 8.75982 1.09455e-19)
(14.6769 5.35734 2.88122e-18)
(14.6777 5.38648 0)
(14.6786 5.41581 -2.46354e-18)
(14.6755 5.44915 9.10367e-19)
(14.6685 5.4901 1.96037e-18)
(14.6575 5.54265 0)
(14.6409 5.61119 -5.63431e-19)
(14.6157 5.70028 0)
(14.5775 5.81424 -4.00358e-19)
(14.5208 5.95653 -3.05148e-20)
(14.4395 6.12913 -3.89292e-19)
(14.3279 6.33208 7.17635e-20)
(14.182 6.56296 -2.99303e-19)
(14.0002 6.81729 2.13748e-19)
(13.7846 7.08874 0)
(13.5401 7.36963 4.31608e-19)
(13.2744 7.65143 5.22626e-19)
(12.9969 7.92549 -6.29232e-19)
(12.7183 8.18383 0)
(12.4483 8.42017 -3.00565e-19)
(12.1967 8.63017 -4.57157e-19)
(11.9677 8.81251 4.14907e-19)
(11.7762 8.96565 -4.32935e-19)
(14.6782 5.35931 0)
(14.6839 5.38889 0)
(14.689 5.4186 7.52616e-19)
(14.6911 5.4524 -5.34795e-18)
(14.691 5.49416 0)
(14.689 5.54819 0)
(14.684 5.61953 9.47646e-19)
(14.6731 5.71358 -7.68308e-19)
(14.6519 5.83553 3.81762e-21)
(14.6139 5.98949 -3.30354e-19)
(14.5521 6.17766 -9.75986e-19)
(14.4595 6.39967 -7.18598e-20)
(14.3308 6.65207 -5.55579e-22)
(14.164 6.92891 -2.13109e-19)
(13.9607 7.22231 0)
(13.7261 7.52325 -1.29091e-19)
(13.468 7.82227 1.6692e-19)
(13.1961 8.1101 4.08596e-19)
(12.9207 8.37841 4.69041e-19)
(12.6522 8.62108 -3.73118e-19)
(12.4009 8.83377 3.51763e-19)
(12.1705 9.0171 0)
(11.9802 9.16495 1.64676e-19)
(14.6799 5.36147 4.15526e-19)
(14.6899 5.39038 -1.00242e-18)
(14.6985 5.41981 2.72344e-18)
(14.705 5.4533 5.48727e-18)
(14.711 5.49483 -3.3172e-19)
(14.7173 5.54901 -4.64317e-19)
(14.7234 5.6215 7.486e-19)
(14.7267 5.71861 7.71681e-19)
(14.7224 5.84651 2.7162e-18)
(14.7033 6.0101 -1.86781e-18)
(14.6611 6.21196 2.74756e-18)
(14.5874 6.45142 -2.34686e-19)
(14.4758 6.72402 3.06283e-19)
(14.3236 7.02227 8.18858e-19)
(14.1324 7.33675 1.14048e-20)
(13.908 7.65722 -1.4808e-20)
(13.6584 7.97344 -6.76489e-20)
(13.3933 8.2757 -1.86473e-19)
(13.1232 8.55537 -1.89267e-19)
(12.8584 8.80647 -2.82129e-20)
(12.6101 9.02433 -1.35635e-19)
(12.3808 9.21164 -1.81095e-19)
(12.1942 9.35686 3.68028e-19)
(14.6822 5.36367 2.79575e-18)
(14.6953 5.39114 0)
(14.7069 5.41986 -1.81143e-19)
(14.7171 5.45247 -1.7471e-18)
(14.7285 5.49293 -2.29589e-19)
(14.7425 5.54607 2.09006e-18)
(14.7592 5.61813 7.93414e-19)
(14.7763 5.7164 -4.56701e-18)
(14.7888 5.84814 -3.07211e-18)
(14.7888 6.01922 2.18652e-18)
(14.7667 6.23281 -3.85489e-18)
(14.7124 6.48808 -2.68114e-18)
(14.6182 6.77961 5.08755e-19)
(14.481 7.09832 -2.20378e-18)
(14.3025 7.43311 -7.20205e-19)
(14.089 7.77258 3.21981e-19)
(13.8491 8.10589 0)
(13.5924 8.42309 1.42759e-19)
(13.3295 8.71532 0)
(13.0704 8.97675 1.20596e-19)
(12.8272 9.20206 -3.41311e-20)
(12.6006 9.39617 1.43476e-19)
(12.4193 9.54115 -4.371e-20)
(14.6847 5.36572 -2.63707e-18)
(14.6998 5.39132 0)
(14.7143 5.41904 0)
(14.7276 5.45036 -3.9409e-19)
(14.7435 5.48906 -7.74572e-19)
(14.7644 5.54011 -1.69711e-18)
(14.7911 5.61025 -5.22389e-18)
(14.8216 5.70776 5.10637e-18)
(14.8508 5.84112 0)
(14.87 6.01735 3.96656e-18)
(14.8682 6.24043 3.85905e-18)
(14.8339 6.50962 1.36455e-18)
(14.7579 6.81861 0)
(14.6363 7.15668 1.38055e-18)
(14.4713 7.51092 6.20482e-19)
(14.2699 7.8688 -1.94192e-19)
(14.0412 8.21904 -3.3371e-20)
(13.7948 8.55169 2.9645e-19)
(13.541 8.85767 0)
(13.2895 9.13134 2.0388e-19)
(13.053 9.36633 6.60321e-20)
(12.8304 9.57012 -3.39448e-19)
(12.6556 9.71718 2.94257e-21)
(14.6873 5.36748 1.73055e-19)
(14.7036 5.3911 0)
(14.7208 5.4176 0)
(14.7363 5.44735 3.95104e-19)
(14.756 5.48383 1.00567e-18)
(14.7828 5.5319 -4.66165e-19)
(14.8182 5.59876 3.35622e-18)
(14.8612 5.69361 4.96697e-19)
(14.9064 5.82627 -6.5063e-19)
(14.9447 6.00514 -4.49207e-18)
(14.9639 6.23532 -4.88929e-19)
(14.9508 6.51644 3.50903e-18)
(14.8946 6.84148 0)
(14.7901 7.198 -2.40539e-18)
(14.6399 7.57108 1.4667e-19)
(14.4519 7.94688 -1.91505e-19)
(14.2359 8.31383 4.87144e-19)
(14.0015 8.66224 -1.76299e-19)
(13.7586 8.98289 -3.38064e-19)
(13.5165 9.27045 -3.64823e-20)
(13.2885 9.5171 2.26028e-20)
(13.0711 9.73336 5.39415e-20)
(12.904 9.88437 6.43851e-20)
(14.69 5.3689 0)
(14.7066 5.39055 7.22693e-20)
(14.7263 5.41573 -3.64186e-19)
(14.7433 5.44371 -1.10844e-19)
(14.7664 5.47754 -2.06188e-18)
(14.7986 5.52189 5.52119e-19)
(14.8424 5.58433 -6.23208e-20)
(14.8973 5.67499 -4.32232e-18)
(14.958 5.80504 0)
(15.0146 5.98423 -6.36894e-18)
(15.0541 6.21899 5.05011e-19)
(15.0615 6.50949 4.35323e-19)
(15.0247 6.8483 0)
(14.9377 7.22133 2.38351e-18)
(14.8032 7.61164 -1.79129e-18)
(14.6302 8.00426 0)
(14.4291 8.38746 -4.86772e-19)
(14.209 8.75211 0)
(13.9793 9.08877 2.6787e-19)
(13.7486 9.39251 0)
(13.5305 9.65307 -6.578e-20)
(13.32 9.88582 6.42847e-20)
(13.1613 10.043 6.79417e-20)
(14.6924 5.36997 0)
(14.709 5.38985 0)
(14.7307 5.41379 2.5132e-19)
(14.7482 5.44057 -7.15362e-20)
(14.7726 5.47244 2.15207e-18)
(14.8071 5.51373 3.57555e-18)
(14.8556 5.57187 0)
(14.9189 5.65751 4.07038e-18)
(14.9925 5.78298 0)
(15.0661 5.95956 1.31479e-17)
(15.1258 6.19539 4.87092e-18)
(15.1546 6.49185 -3.17328e-18)
(15.1379 6.84162 -2.96315e-19)
(15.0678 7.22919 0)
(14.9471 7.63515 1.86655e-18)
(14.7863 8.04251 1.3361e-18)
(14.5977 8.43889 -9.31861e-20)
(14.3911 8.8159 7.0343e-19)
(14.1751 9.16432 5.64303e-19)
(13.9572 9.48054 0)
(13.751 9.75129 8.13736e-20)
(13.549 9.99826 1.70211e-20)
(13.3994 10.1611 -3.12907e-20)
(14.6951 5.3709 1.79009e-20)
(14.7113 5.38935 -8.75953e-19)
(14.7347 5.41213 7.34045e-21)
(14.7523 5.43793 0)
(14.7782 5.468 6.881e-20)
(14.8149 5.50664 3.78897e-19)
(14.8677 5.56132 -4.88431e-18)
(14.9378 5.64323 0)
(15.0212 5.76563 0)
(15.1074 5.9408 -6.77216e-18)
(15.1817 6.17803 -5.19924e-18)
(15.2258 6.47949 -1.24355e-19)
(15.2237 6.83781 3.08828e-18)
(15.1663 7.23637 -1.09684e-19)
(15.0564 7.65387 -2.79274e-19)
(14.906 8.07206 3.59156e-19)
(14.7285 8.47838 -8.73183e-19)
(14.534 8.86525 -6.7906e-19)
(14.3306 9.22353 -6.47538e-19)
(14.1246 9.5508 -4.9336e-19)
(13.9301 9.83039 1.22599e-19)
(13.7362 10.09 -5.38487e-19)
(13.5972 10.2579 9.2226e-20)
(14.6977 5.37145 -1.7816e-18)
(14.7135 5.38888 9.89847e-19)
(14.7383 5.41056 -2.81032e-21)
(14.756 5.43558 6.3118e-19)
(14.7831 5.46387 -6.07734e-20)
(14.8217 5.49983 -3.93377e-18)
(14.8783 5.55097 9.58089e-18)
(14.9548 5.62903 3.24096e-19)
(15.0474 5.74822 -2.5099e-19)
(15.1454 5.92185 -7.79365e-18)
(15.2337 6.16034 1.93279e-19)
(15.2927 6.46659 -4.60166e-18)
(15.3051 6.83326 -2.77959e-18)
(15.2607 7.24254 0)
(15.1623 7.67116 2.54485e-18)
(15.023 8.09954 -3.15977e-18)
(14.8577 8.51505 -2.68705e-19)
(14.677 8.91128 8.33661e-19)
(14.4883 9.27918 3.9901e-21)
(14.2967 9.61789 6.46973e-19)
(14.1166 9.90671 0)
(13.9331 10.1803 1.87436e-19)
(13.808 10.3527 0)
(14.7 5.37169 3.18518e-18)
(14.7154 5.38841 4.35428e-19)
(14.7415 5.40902 1.11139e-20)
(14.7592 5.43346 -1.23355e-18)
(14.7873 5.46002 1.61983e-18)
(14.8275 5.49337 -1.0524e-19)
(14.8876 5.54093 -5.02618e-18)
(14.9699 5.61502 1.02209e-19)
(15.0711 5.73078 -3.09733e-19)
(15.1804 5.90251 8.07816e-18)
(15.2823 6.14184 0)
(15.3563 6.45246 4.2326e-18)
(15.3835 6.82716 2.89895e-19)
(15.3525 7.24698 -1.29788e-19)
(15.2661 7.68653 -2.6454e-18)
(15.1389 8.12473 -6.97812e-20)
(14.9871 8.54886 8.43491e-19)
(14.822 8.95394 -1.41921e-18)
(14.6505 9.33105 0)
(14.476 9.68134 -5.47428e-19)
(14.3135 9.97921 7.11752e-19)
(14.1429 10.2673 0)
(14.0344 10.4438 -3.51125e-19)
(14.702 5.37158 -9.99075e-19)
(14.7172 5.38793 -1.93671e-19)
(14.7443 5.40752 1.34468e-20)
(14.7619 5.43154 6.15632e-19)
(14.7909 5.45646 -3.19063e-18)
(14.8325 5.48727 2.62751e-21)
(14.8957 5.53125 6.90338e-20)
(14.9834 5.60122 5.8031e-18)
(15.0928 5.7133 -1.41022e-19)
(15.213 5.88274 0)
(15.3283 6.12238 6.68923e-18)
(15.4172 6.43685 1.44146e-19)
(15.4597 6.81919 1.06671e-19)
(15.4429 7.24932 2.77947e-21)
(15.3693 7.69962 -2.81585e-19)
(15.2549 8.14729 1.90968e-18)
(15.118 8.57937 -1.08027e-18)
(14.9704 8.99235 -2.19675e-19)
(14.8187 9.37778 -3.00872e-19)
(14.6643 9.73836 7.95141e-19)
(14.5218 10.0459 -4.67107e-19)
(14.3686 10.3449 1.02991e-18)
(14.2764 10.5305 -6.58181e-19)
(14.704 5.37118 -6.43687e-19)
(14.7189 5.38743 -2.52125e-19)
(14.7467 5.40606 -3.92237e-21)
(14.7644 5.42976 6.94921e-19)
(14.794 5.45313 3.30567e-18)
(14.8367 5.48147 -2.56299e-21)
(14.9028 5.52187 -7.15176e-20)
(14.9954 5.5876 2.3079e-19)
(15.1127 5.69571 -5.44198e-18)
(15.2434 5.86239 4.63795e-18)
(15.3721 6.10178 -6.98374e-18)
(15.4763 6.41951 -5.07359e-18)
(15.5347 6.8091 3.66995e-18)
(15.5328 7.24944 0)
(15.4728 7.7105 1.67508e-18)
(15.3721 8.16738 0)
(15.2511 8.60674 1.39684e-18)
(15.1227 9.02648 8.15137e-19)
(14.993 9.41932 -4.65598e-21)
(14.8616 9.78847 -8.99611e-19)
(14.7412 10.1065 -3.67894e-21)
(14.6099 10.4119 3.12904e-20)
(14.5335 10.6129 -2.67631e-19)
(14.7059 5.37059 2.07543e-19)
(14.7205 5.3869 1.10711e-21)
(14.7488 5.40465 4.07416e-21)
(14.7666 5.42809 -6.94865e-19)
(14.7967 5.45 -1.65733e-18)
(14.8403 5.47594 0)
(14.9089 5.51273 6.08248e-20)
(15.0062 5.57409 -5.98299e-18)
(15.1309 5.67794 -2.13962e-19)
(15.272 5.84141 -4.63271e-18)
(15.4141 6.07996 3.82358e-18)
(15.5339 6.40039 7.94928e-18)
(15.609 6.79687 -3.5313e-18)
(15.623 7.24737 2.49094e-18)
(15.5774 7.71926 2.32898e-19)
(15.491 8.18511 5.68494e-21)
(15.3868 8.63091 -9.26576e-20)
(15.2792 9.05591 -2.72979e-19)
(15.1737 9.45475 1.8141e-19)
(15.0683 9.83037 -3.18363e-19)
(14.9723 10.1589 -2.82938e-20)
(14.8673 10.4672 2.30689e-19)
(14.8071 10.687 0)
(14.7077 5.36987 2.20089e-19)
(14.7219 5.38634 0)
(14.7507 5.40327 0)
(14.7686 5.42651 -7.44373e-19)
(14.799 5.44703 -1.75276e-18)
(14.8433 5.4706 2.49884e-18)
(14.9142 5.50375 3.8045e-20)
(15.0159 5.56061 -6.04312e-20)
(15.1477 5.65992 5.72926e-18)
(15.299 5.81973 -8.47265e-20)
(15.4546 6.05686 2.78155e-19)
(15.5905 6.37939 -2.73717e-18)
(15.6832 6.7824 0)
(15.714 7.24306 -2.63367e-18)
(15.6838 7.72593 -3.66272e-18)
(15.6123 8.20048 -1.36486e-18)
(15.5255 8.65165 -7.81053e-19)
(15.4399 9.07998 0)
(15.3609 9.48262 0)
(15.2844 9.86217 5.13513e-19)
(15.2155 10.1994 3.20934e-19)
(15.1405 10.5089 -6.82897e-19)
(15.098 10.7463 0)
(14.7093 5.36905 2.25782e-19)
(14.7232 5.38575 2.54856e-22)
(14.7524 5.40194 2.52187e-21)
(14.7705 5.425 7.42464e-19)
(14.801 5.4442 3.49112e-18)
(14.8459 5.46543 -5.02803e-18)
(14.9188 5.4949 -3.91047e-20)
(15.0246 5.54709 -6.25757e-20)
(15.1633 5.64154 8.18139e-20)
(15.3246 5.7972 0)
(15.4938 6.03226 -3.87902e-18)
(15.6464 6.35626 3.01171e-18)
(15.7576 6.76543 0)
(15.8066 7.23631 0)
(15.7925 7.73039 1.75399e-18)
(15.7364 8.2134 7.53692e-20)
(15.6675 8.66864 8.73244e-19)
(15.6049 9.09778 6.57236e-19)
(15.5541 9.50111 -9.15746e-19)
(15.5093 9.8813 -3.07498e-19)
(15.4709 10.224 1.16443e-18)
(15.429 10.5337 -1.02945e-18)
(15.4057 10.7836 6.41404e-19)
(14.7108 5.36817 9.48948e-20)
(14.7243 5.38512 -1.33558e-19)
(14.7539 5.40063 2.95109e-21)
(14.7721 5.42355 -3.89077e-21)
(14.8026 5.44149 -1.77423e-18)
(14.848 5.46043 2.57745e-18)
(14.9226 5.48616 -3.34687e-20)
(15.0322 5.5335 -2.07964e-20)
(15.1775 5.62273 8.45104e-20)
(15.3488 5.77369 4.59579e-20)
(15.5317 6.00598 -5.96908e-20)
(15.7017 6.33073 -3.00819e-18)
(15.8327 6.74562 2.3203e-18)
(15.9012 7.22677 -9.21355e-20)
(15.9043 7.73241 0)
(15.8638 8.22371 -1.73407e-19)
(15.8126 8.68146 1.16619e-19)
(15.7734 9.10821 -6.45485e-19)
(15.7524 9.50787 1.13755e-18)
(15.7419 9.88434 6.44849e-19)
(15.7378 10.2279 -4.16936e-19)
(15.7311 10.5364 -5.71901e-19)
(15.7295 10.7918 6.91779e-19)
(14.7122 5.36724 8.63355e-20)
(14.7253 5.38447 1.34178e-19)
(14.7553 5.39934 0)
(14.7736 5.42216 0)
(14.804 5.43891 0)
(14.8497 5.45556 0)
(14.9259 5.47749 3.44109e-20)
(15.039 5.51979 -1.17447e-20)
(15.1907 5.60342 -4.35591e-20)
(15.3718 5.74909 4.77239e-20)
(15.5687 5.97783 -6.19199e-20)
(15.7568 6.3025 0)
(15.9089 6.72257 -4.59588e-18)
(15.9983 7.21407 1.01529e-19)
(16.0197 7.73174 -2.00352e-19)
(15.9948 8.23125 1.59769e-18)
(15.9606 8.68974 -1.22275e-19)
(15.9444 9.11015 1.88694e-19)
(15.9539 9.50052 -1.98281e-19)
(15.9801 9.86753 3.60528e-19)
(16.0142 10.2058 -4.8692e-19)
(16.0442 10.5086 0)
(16.0669 10.7621 3.88653e-19)
(14.7135 5.36628 -4.34209e-19)
(14.7261 5.38378 1.22545e-19)
(14.7566 5.39807 1.23027e-23)
(14.775 5.4208 4.14796e-19)
(14.8052 5.43643 9.05455e-19)
(14.851 5.45082 1.59511e-20)
(14.9285 5.46888 -3.37937e-18)
(15.0448 5.50593 3.58262e-18)
(15.2026 5.58354 3.2734e-18)
(15.3934 5.72327 0)
(15.6046 5.94757 7.60589e-20)
(15.8116 6.2712 -3.50686e-18)
(15.9863 6.69582 2.42416e-18)
(16.0987 7.19773 1.59724e-18)
(16.1395 7.72809 1.14726e-18)
(16.1299 8.23599 0)
(16.1111 8.69341 0)
(16.1161 9.10286 -7.66019e-19)
(16.1558 9.47676 -7.88609e-19)
(16.2201 9.826 3.87255e-19)
(16.295 10.1496 2.53354e-19)
(16.3624 10.4397 3.40029e-19)
(16.4145 10.6864 -4.18459e-19)
(14.7147 5.36533 2.52359e-19)
(14.7269 5.3831 -1.22982e-19)
(14.7578 5.39685 -1.65618e-21)
(14.7762 5.41949 3.43195e-21)
(14.8061 5.43402 -9.08585e-19)
(14.852 5.44611 -1.35283e-18)
(14.9306 5.46018 1.63642e-18)
(15.0501 5.49172 -3.5586e-18)
(15.2138 5.56289 -3.26381e-18)
(15.4143 5.69602 -8.10409e-20)
(15.6399 5.91494 0)
(15.8667 6.23647 3.40526e-18)
(16.0656 6.66484 2.55765e-18)
(16.2027 7.17719 -1.68911e-18)
(16.2642 7.72112 -9.88141e-19)
(16.2694 8.23806 -3.99175e-19)
(16.2632 8.69288 -2.92756e-19)
(16.2859 9.08609 1.54422e-18)
(16.3529 9.43428 0)
(16.4545 9.75461 0)
(16.5715 10.0518 2.98911e-19)
(16.6801 10.3206 -6.58893e-19)
(16.772 10.5561 -4.49973e-19)
(14.7156 5.36425 -3.38663e-19)
(14.7276 5.38227 0)
(14.7589 5.3955 0)
(14.7774 5.41816 -8.35411e-19)
(14.8069 5.43176 8.98967e-19)
(14.8525 5.44174 1.3901e-18)
(14.9316 5.45188 -2.28575e-20)
(15.0536 5.47768 1.8196e-18)
(15.2227 5.5418 7.91993e-20)
(15.4329 5.66736 -3.04724e-18)
(15.6734 5.87961 8.18628e-20)
(15.9213 6.1976 -1.05489e-19)
(16.1466 6.62867 -2.54977e-18)
(16.3113 7.15154 1.84608e-18)
(16.3955 7.71046 1.16288e-18)
(16.4146 8.23804 -8.36696e-19)
(16.4166 8.68937 6.84682e-19)
(16.45 9.06078 -7.77915e-19)
(16.5376 9.37353 0)
(16.6728 9.65174 0)
(16.8313 9.90463 -2.65279e-19)
(16.9841 10.1341 1.89973e-19)
(17.1231 10.3439 -4.84053e-19)
(14.7166 5.36352 -1.87101e-20)
(14.7282 5.38177 1.74773e-19)
(14.7601 5.39452 0)
(14.7781 5.41686 2.13509e-19)
(14.8076 5.42897 -1.82431e-18)
(14.8538 5.43609 1.67293e-20)
(14.9346 5.44168 -4.65057e-20)
(15.0602 5.46158 -1.89707e-18)
(15.2352 5.51875 4.81457e-20)
(15.455 5.63678 3.06318e-18)
(15.71 5.84196 -7.02607e-20)
(15.9787 6.15541 -1.83822e-18)
(16.2309 6.58805 -1.69175e-19)
(16.4243 7.12103 -1.72093e-18)
(16.5319 7.69598 -1.30987e-18)
(16.5633 8.23597 7.18723e-20)
(16.5682 8.68419 0)
(16.604 9.03102 -1.09579e-19)
(16.7028 9.29922 1.36693e-19)
(16.86 9.5147 0)
(17.0483 9.69492 2.91435e-19)
(17.241 9.86182 -1.84617e-19)
(17.4286 10.0294 0)
(14.7172 5.3619 3.59688e-19)
(14.7287 5.38062 -1.75303e-19)
(14.7606 5.39325 0)
(14.7789 5.4166 2.04879e-19)
(14.8074 5.42971 1.8249e-18)
(14.852 5.43691 1.41478e-18)
(14.9318 5.44026 3.56487e-18)
(15.0581 5.45466 0)
(15.2371 5.50358 3.64518e-18)
(15.4654 5.61152 -3.15525e-18)
(15.735 5.80634 2.53778e-18)
(16.0262 6.11166 1.91163e-18)
(16.3089 6.54262 -2.30043e-20)
(16.5367 7.08454 2.94315e-20)
(16.6731 7.67826 -1.32484e-18)
(16.7177 8.23702 8.40555e-19)
(16.7183 8.68827 0)
(16.7415 9.00878 3.96904e-19)
(16.8295 9.21453 0)
(16.9845 9.33828 0)
(17.1894 9.42075 -2.8111e-19)
(17.4215 9.50278 -6.12137e-19)
(17.6569 9.60058 4.86108e-19)
(14.7179 5.36079 0)
(14.7292 5.37989 -8.39528e-25)
(14.7613 5.39238 1.47685e-23)
(14.7795 5.41602 -1.97074e-19)
(14.8076 5.42919 -4.54952e-19)
(14.8521 5.43584 -1.41569e-18)
(14.9321 5.43729 -1.79505e-18)
(15.0599 5.44794 -2.39743e-21)
(15.2423 5.49106 -1.78956e-18)
(15.4771 5.59131 -6.21401e-20)
(15.7585 5.77727 6.24185e-20)
(16.0687 6.07441 0)
(16.3795 6.50186 2.3787e-20)
(16.6413 7.04984 -3.03587e-20)
(16.8087 7.66074 1.95236e-18)
(16.8689 8.2408 5.37337e-20)
(16.8621 8.7005 0)
(16.8561 8.99636 9.54947e-20)
(16.9048 9.13901 -1.31011e-19)
(17.0307 9.17472 0)
(17.2259 9.15088 0)
(17.4559 9.11224 3.84509e-19)
(17.6944 9.09583 -2.81845e-19)
(14.7186 5.35969 3.57711e-19)
(14.7297 5.37918 -1.77993e-19)
(14.762 5.39151 0)
(14.78 5.41538 1.97472e-19)
(14.808 5.42849 -4.5947e-19)
(14.8523 5.43443 -1.46e-18)
(14.9326 5.43383 1.85919e-18)
(15.0617 5.44065 -2.00564e-18)
(15.2473 5.47797 -1.86088e-18)
(15.4888 5.57047 4.8698e-18)
(15.7818 5.74726 -2.6034e-18)
(16.1115 6.03545 -2.05841e-18)
(16.4512 6.45826 -1.52956e-18)
(16.7493 7.01155 0)
(16.9506 7.64119 -6.75557e-19)
(17.027 8.24778 8.84656e-19)
(17.0044 8.72411 3.59827e-20)
(16.9504 9.01058 -4.22914e-19)
(16.938 9.11446 0)
(17.0008 9.06736 0)
(17.1204 8.91077 0)
(17.2831 8.7405 -5.59616e-19)
(17.4897 8.63296 5.03251e-19)
(14.7191 5.35854 -3.58545e-19)
(14.7301 5.37845 -8.89886e-22)
(14.7626 5.39062 0)
(14.7806 5.41473 -1.91975e-19)
(14.8083 5.42777 -3.97538e-23)
(14.8525 5.43297 2.20835e-18)
(14.9329 5.43029 -3.76072e-18)
(15.0633 5.43323 6.10638e-18)
(15.252 5.46462 -2.24113e-21)
(15.4998 5.54911 -1.64161e-18)
(15.8044 5.71616 -1.37009e-18)
(16.1536 5.99429 2.06168e-18)
(16.5233 6.41089 1.50837e-18)
(16.86 6.96837 -1.09477e-18)
(17.0989 7.61806 1.09674e-20)
(17.1934 8.2577 -8.88978e-19)
(17.152 8.76885 0)
(17.0406 9.07636 0)
(16.9358 9.14732 2.0449e-19)
(16.866 8.98941 0)
(16.8604 8.72864 0)
(16.9773 8.53548 8.27223e-20)
(17.1475 8.4156 1.87248e-19)
(14.7195 5.35735 0)
(14.7305 5.3777 1.79659e-19)
(14.7632 5.38971 3.42676e-24)
(14.7811 5.41407 -7.19719e-22)
(14.8086 5.42706 -5.28838e-23)
(14.8526 5.43152 -1.5089e-18)
(14.9331 5.42675 1.90147e-18)
(15.0646 5.42578 -4.10315e-18)
(15.2563 5.45111 -1.9723e-18)
(15.5102 5.52727 0)
(15.826 5.68389 1.36396e-18)
(16.1947 5.95071 4.21297e-21)
(16.5952 6.35923 3.71905e-22)
(16.973 6.91925 1.08477e-18)
(17.254 7.58997 0)
(17.3727 8.27293 4.55385e-19)
(17.3161 8.84368 -8.37815e-21)
(17.1295 9.18143 0)
(16.8748 9.19579 -2.0287e-19)
(16.6506 8.98854 0)
(16.607 8.81319 0)
(16.7073 8.70277 0)
(16.654 8.49042 -3.21948e-20)
(14.72 5.35614 0)
(14.7309 5.37692 -8.9792e-20)
(14.7637 5.38878 -8.29243e-25)
(14.7817 5.4134 1.93453e-19)
(14.8089 5.42635 4.9534e-19)
(14.8526 5.43011 1.54386e-18)
(14.9331 5.42326 0)
(15.0656 5.41833 -2.12625e-18)
(15.26 5.43747 3.98083e-18)
(15.5198 5.50497 -5.51617e-23)
(15.8465 5.65046 1.42099e-18)
(16.2347 5.90459 -1.10722e-18)
(16.6668 6.3029 0)
(17.0884 6.86324 0)
(17.4179 7.55629 7.62979e-19)
(17.5706 8.2945 -4.43501e-19)
(17.4991 8.93546 0)
(17.2065 9.29236 -2.30037e-19)
(16.8005 9.32252 -9.92928e-20)
(16.5436 9.29799 0)
(16.5053 9.30327 1.23526e-21)
(16.3001 9.04314 2.9034e-22)
(15.5978 8.41072 -5.77356e-20)
(14.7204 5.35489 -1.33086e-25)
(14.7313 5.37612 1.79228e-19)
(14.7642 5.38784 -1.98523e-25)
(14.7822 5.41272 0)
(14.8092 5.42566 1.40738e-20)
(14.8526 5.42874 -1.58006e-18)
(14.933 5.41982 -3.89156e-22)
(15.0664 5.4109 2.12879e-18)
(15.2633 5.42372 -2.00785e-18)
(15.5286 5.48224 1.76906e-18)
(15.8661 5.61586 2.56516e-20)
(16.2736 5.85585 2.23987e-18)
(16.7379 6.24152 -1.7092e-18)
(17.2065 6.79952 4.41e-21)
(17.5922 7.51595 -1.55077e-18)
(17.7887 8.31435 4.74067e-19)
(17.6986 9.0214 -1.40117e-20)
(17.3126 9.4509 2.34263e-19)
(16.8723 9.71847 9.53154e-20)
(16.627 9.96741 0)
(16.2224 9.78677 -3.3067e-20)
(15.1583 8.89631 0)
(13.5116 7.59963 2.8722e-20)
(14.7208 5.3536 0)
(14.7317 5.3753 -8.94265e-20)
(14.7647 5.38688 5.41102e-20)
(14.7827 5.41202 9.29088e-24)
(14.8094 5.42497 -1.03735e-18)
(14.8525 5.4274 8.00076e-19)
(14.9329 5.41644 0)
(15.0669 5.4035 0)
(15.2662 5.40989 -1.20116e-21)
(15.5368 5.4591 -1.76916e-18)
(15.8845 5.58012 2.49408e-20)
(16.3111 5.80443 -1.13086e-18)
(16.8082 6.17475 1.69869e-18)
(17.327 6.72728 0)
(17.7769 7.46529 7.81726e-19)
(18.026 8.31885 -4.54665e-19)
(17.9361 9.11105 2.12527e-19)
(17.5492 9.76995 1.29242e-20)
(17.1415 10.4002 0)
(16.5522 10.5516 0)
(15.1349 9.63181 1.54776e-21)
(12.8887 7.94293 1.10396e-19)
(10.4603 6.19005 -3.62661e-20)
(14.7212 5.35229 0)
(14.7321 5.37445 -3.79782e-25)
(14.7652 5.3859 -5.42075e-20)
(14.7832 5.41132 1.14539e-19)
(14.8097 5.4243 5.26911e-19)
(14.8525 5.42611 1.53205e-22)
(14.9326 5.41311 1.04359e-18)
(15.0673 5.39614 1.11361e-18)
(15.2687 5.39597 -2.09603e-18)
(15.5443 5.43557 0)
(15.9019 5.54325 2.43722e-20)
(16.347 5.75026 -1.1813e-18)
(16.8774 6.10232 0)
(17.4494 6.64533 -2.03914e-20)
(17.9706 7.39823 8.77215e-19)
(18.2877 8.30199 0)
(18.2599 9.24853 -1.48487e-20)
(17.9629 10.2754 2.3663e-20)
(17.3774 11.0484 -9.69154e-20)
(15.8362 10.5626 0)
(13.0695 8.79666 0)
(9.97196 6.78694 -7.42985e-20)
(7.42687 5.24151 3.3234e-19)
(14.7216 5.35095 1.35144e-25)
(14.7325 5.37358 -1.78131e-25)
(14.7657 5.3849 0)
(14.7837 5.41061 1.27409e-19)
(14.8099 5.42365 -3.32253e-22)
(14.8523 5.42486 3.13232e-22)
(14.9322 5.40985 -1.04443e-18)
(15.0674 5.38883 -1.11609e-18)
(15.2708 5.38198 2.09868e-18)
(15.551 5.41166 -1.84165e-18)
(15.9179 5.50526 -1.50273e-18)
(16.3811 5.69336 1.19133e-18)
(16.9448 6.024 9.12529e-19)
(17.5725 6.5519 6.49476e-19)
(18.1721 7.30896 -8.44251e-19)
(18.5881 8.27013 3.20785e-20)
(18.706 9.45887 -2.31137e-19)
(18.4621 10.8184 -1.0327e-20)
(17.2649 11.314 2.12258e-20)
(14.3922 10.0148 -1.13855e-19)
(10.6265 7.92713 1.63527e-19)
(7.49551 6.33046 0)
(5.41209 5.42232 -1.65622e-19)
(14.7219 5.34958 0)
(14.7329 5.37269 -8.70175e-20)
(14.7662 5.38388 6.43841e-20)
(14.7842 5.40988 -1.15197e-19)
(14.8102 5.423 2.85616e-19)
(14.8522 5.42365 0)
(14.9318 5.40665 1.42075e-21)
(15.0673 5.38156 -1.85636e-21)
(15.2724 5.36794 1.07424e-18)
(15.5568 5.3874 2.78271e-18)
(15.9326 5.46621 -1.53884e-18)
(16.4131 5.63372 -8.70696e-21)
(17.0099 5.93953 2.75542e-20)
(17.6947 6.44496 -6.67882e-19)
(18.3821 7.1943 0)
(18.9427 8.23194 5.52691e-19)
(19.2614 9.70555 -2.43238e-19)
(18.8845 11.1917 2.90018e-20)
(16.6969 11.132 -8.22761e-20)
(12.6311 9.36295 -4.61888e-20)
(8.63304 7.66926 2.06443e-19)
(5.97751 6.7509 -1.61392e-19)
(4.28966 6.27526 -1.8897e-19)
(14.7223 5.34819 9.77802e-20)
(14.7332 5.37178 -1.28446e-22)
(14.7667 5.38285 -6.44947e-20)
(14.7847 5.40915 -1.27338e-19)
(14.8104 5.42237 -5.77761e-19)
(14.852 5.42248 -8.7708e-19)
(14.9312 5.40352 -1.43753e-21)
(15.0669 5.37436 1.87822e-21)
(15.2735 5.35387 -1.07557e-18)
(15.5619 5.36283 -9.35991e-19)
(15.9458 5.42614 3.11651e-18)
(16.4427 5.57141 -1.25591e-18)
(17.0719 5.84865 -9.50279e-19)
(17.8144 6.32269 7.23754e-19)
(18.6022 7.05365 -2.95686e-20)
(19.3561 8.18557 -4.7696e-19)
(19.871 9.90749 2.17037e-19)
(19.1206 11.2806 -3.98177e-20)
(15.826 10.6891 6.96308e-20)
(11.0805 9.01053 0)
(7.36028 8.01869 -2.58047e-19)
(5.037 7.4794 3.17743e-19)
(3.4234 7.09551 -3.79267e-19)
(14.7226 5.34677 -9.79201e-20)
(14.7336 5.37085 1.31392e-19)
(14.7671 5.3818 -7.32706e-20)
(14.7852 5.40841 1.37651e-19)
(14.8106 5.42174 2.91989e-19)
(14.8518 5.42135 8.77925e-19)
(14.9305 5.40046 1.09977e-18)
(15.0663 5.36721 0)
(15.2741 5.33976 1.09928e-18)
(15.566 5.33797 -9.59023e-19)
(15.9574 5.38513 -1.57094e-18)
(16.4696 5.50652 1.25605e-18)
(17.1298 5.7511 0)
(17.9302 6.18397 -6.71901e-19)
(18.8333 6.88722 4.65915e-19)
(19.8183 8.11484 -3.29062e-19)
(20.4711 9.98606 4.13061e-20)
(19.1589 11.0884 -1.65436e-20)
(14.8895 10.1912 2.08475e-19)
(9.94985 8.95421 -2.09506e-19)
(6.52353 8.45292 0)
(4.19427 7.97175 6.58097e-19)
(2.47602 7.55173 -8.22716e-19)
(14.7229 5.34533 0)
(14.7339 5.36989 -4.4054e-20)
(14.7676 5.38074 7.33312e-20)
(14.7857 5.40765 -1.37935e-19)
(14.8108 5.42113 -1.50251e-22)
(14.8515 5.42027 3.34024e-22)
(14.9297 5.39747 -5.44933e-19)
(15.0654 5.36014 0)
(15.2743 5.32566 -1.10062e-18)
(15.5692 5.31287 -1.09684e-20)
(15.9674 5.34324 0)
(16.4936 5.43917 -6.52405e-19)
(17.1827 5.64676 0)
(18.0405 6.02852 5.22445e-20)
(19.0737 6.69446 -1.07636e-18)
(20.3081 7.99455 2.40142e-19)
(21.0133 9.88997 5.6477e-20)
(19.0414 10.663 -1.97124e-19)
(14.0327 9.67861 -7.33587e-20)
(9.13286 8.8899 -2.54549e-19)
(5.78849 8.5298 4.26213e-19)
(3.29157 8.01988 -4.15942e-19)
(1.44036 7.58978 1.39914e-18)
(14.7232 5.34387 -1.1139e-19)
(14.7343 5.36892 -4.51918e-20)
(14.768 5.37965 -4.05324e-20)
(14.7862 5.40689 -1.05836e-22)
(14.811 5.42053 3.62461e-22)
(14.8512 5.41923 -1.00529e-21)
(14.9287 5.39456 -5.56716e-19)
(15.0643 5.35314 4.85856e-21)
(15.274 5.31156 -3.79276e-21)
(15.5716 5.28755 -1.09119e-20)
(15.9756 5.30059 -8.20667e-19)
(16.5143 5.3695 6.29011e-19)
(17.2298 5.53568 2.97556e-20)
(18.1438 5.85681 -5.53851e-20)
(19.3184 6.47306 6.23706e-19)
(20.7982 7.79779 0)
(21.4671 9.59644 2.36404e-19)
(18.8159 10.0465 1.25251e-19)
(13.2669 9.0996 3.88326e-20)
(8.43672 8.56551 -2.1552e-19)
(5.05573 8.1575 1.29243e-19)
(2.43627 7.64108 -3.4592e-20)
(0.498783 7.23608 -6.25333e-19)
(14.7235 5.34239 2.25596e-19)
(14.7346 5.36793 4.52434e-20)
(14.7685 5.37856 -1.61056e-21)
(14.7866 5.40611 0)
(14.8112 5.41994 0)
(14.8508 5.41823 -4.59924e-19)
(14.9277 5.39172 -5.67452e-19)
(15.063 5.34623 0)
(15.2733 5.29749 -5.32151e-21)
(15.573 5.26208 9.90887e-19)
(15.9821 5.25726 8.36379e-19)
(16.5314 5.2977 -1.89979e-20)
(17.2701 5.4182 -3.84399e-20)
(18.2385 5.66982 1.06212e-19)
(19.559 6.21927 -7.08773e-20)
(21.2597 7.50229 0)
(21.8157 9.10523 -4.18154e-19)
(18.5102 9.27239 -6.235e-20)
(12.5454 8.41942 -3.44043e-19)
(7.76428 7.99566 8.24663e-20)
(4.34329 7.54434 -1.06793e-19)
(1.68546 7.06726 1.73994e-19)
(-0.316102 6.65821 0)
(14.7237 5.34089 -2.30058e-19)
(14.7349 5.36691 5.56676e-25)
(14.7689 5.37745 4.22596e-20)
(14.7871 5.40532 0)
(14.8114 5.41936 0)
(14.8504 5.41727 -4.10384e-21)
(14.9266 5.38896 1.14097e-18)
(15.0614 5.33941 0)
(15.272 5.28347 5.75159e-19)
(15.5734 5.23649 0)
(15.9866 5.21337 0)
(16.5447 5.224 -2.47812e-20)
(17.3027 5.2949 3.11038e-20)
(18.3222 5.46881 3.79119e-19)
(19.7846 5.92917 7.48924e-20)
(21.6655 7.09546 -1.2721e-19)
(22.0494 8.42939 4.4691e-19)
(18.1409 8.36673 0)
(11.8551 7.62666 1.57348e-19)
(7.10271 7.30305 0)
(3.62473 6.92385 9.1914e-20)
(0.891538 6.55738 4.41664e-20)
(-1.28165 6.08169 0)
(14.724 5.33937 1.74426e-19)
(14.7352 5.36588 2.35491e-20)
(14.7693 5.37632 0)
(14.7876 5.40452 7.63488e-20)
(14.8115 5.41878 -1.58513e-19)
(14.85 5.41635 4.65738e-19)
(14.9254 5.38628 -5.74395e-19)
(15.0597 5.33269 -6.18824e-19)
(15.2703 5.26952 -5.71906e-19)
(15.573 5.21082 -9.31929e-21)
(15.9892 5.16905 1.19255e-20)
(16.5537 5.14869 6.97305e-19)
(17.327 5.16661 4.11692e-20)
(18.3922 5.25534 -5.58202e-19)
(19.9831 5.60047 7.90727e-20)
(21.9928 6.57572 0)
(22.1678 7.59416 0)
(17.7406 7.35469 0)
(11.2097 6.74098 0)
(6.46359 6.51154 -1.53759e-19)
(2.91989 6.29429 -5.51313e-19)
(0.0780706 6.14837 7.02104e-19)
(-2.54037 5.56763 0)
(14.7242 5.33783 -5.85047e-20)
(14.7355 5.36484 -4.73315e-20)
(14.7697 5.37518 0)
(14.788 5.40371 -7.65082e-20)
(14.8117 5.41821 3.19611e-19)
(14.8496 5.41548 0)
(14.9241 5.38368 0)
(15.0577 5.32607 6.16501e-19)
(15.2682 5.25564 0)
(15.5715 5.18514 -5.04899e-19)
(15.9898 5.12442 -4.44073e-19)
(16.5584 5.07211 -3.44614e-19)
(17.3422 5.03438 5.81044e-19)
(18.4457 5.03122 0)
(20.1424 5.23343 0)
(22.2239 5.95027 1.73768e-19)
(22.1759 6.62394 -2.16766e-19)
(17.3255 6.23881 0)
(10.5916 5.72535 -3.17415e-19)
(5.88689 5.54335 1.75958e-19)
(2.32479 5.45147 1.19441e-18)
(-0.544744 5.57167 -1.63738e-18)
(-3.84989 4.95124 0)
(14.7244 5.33628 4.1575e-25)
(14.7358 5.36377 4.76632e-20)
(14.7701 5.37402 -2.16877e-23)
(14.7885 5.40289 -3.94453e-20)
(14.8118 5.41765 -1.61096e-19)
(14.8491 5.41465 2.40682e-19)
(14.9228 5.38117 9.25701e-22)
(15.0555 5.31957 -3.17733e-19)
(15.2655 5.24187 6.03663e-19)
(15.569 5.15948 5.07748e-19)
(15.9884 5.07962 4.32532e-19)
(16.5586 4.99465 -3.54048e-19)
(17.3478 4.89943 -5.8213e-19)
(18.4795 4.79865 -7.30855e-20)
(20.2515 4.83097 8.7534e-20)
(22.3445 5.23227 1.99453e-19)
(22.0686 5.53535 -2.52617e-19)
(16.8805 5.01091 0)
(9.93702 4.56626 3.44673e-19)
(5.20665 4.42867 0)
(1.84619 4.36886 -2.12234e-19)
(-0.794824 4.66494 0)
(-4.86688 4.0537 -7.34425e-20)
(14.7246 5.33471 2.94117e-20)
(14.7361 5.36269 -2.39061e-20)
(14.7705 5.37285 2.43595e-20)
(14.7889 5.40205 -5.66338e-22)
(14.812 5.4171 -2.29339e-22)
(14.8487 5.41385 3.63887e-21)
(14.9213 5.37874 -2.99654e-19)
(15.0531 5.31318 -5.04327e-21)
(15.2624 5.22822 -5.94758e-19)
(15.5656 5.1339 -9.63098e-21)
(15.9848 5.03478 4.53529e-19)
(16.554 4.91674 0)
(17.3433 4.76305 -4.47955e-20)
(18.4907 4.56012 5.5258e-20)
(20.3011 4.39905 2.12581e-19)
(22.3438 4.44198 0)
(21.8422 4.35917 0)
(16.4088 3.70515 -3.06242e-19)
(9.27605 3.38574 0)
(4.4077 3.44367 1.92695e-18)
(1.31054 3.46766 -2.67042e-18)
(-0.926491 3.70895 3.22277e-19)
(-5.49986 2.98896 3.1887e-18)
(14.7248 5.33313 -5.88851e-20)
(14.7364 5.36159 1.19275e-20)
(14.7708 5.37166 -3.68766e-20)
(14.7893 5.4012 4.05462e-20)
(14.8121 5.41655 8.39431e-20)
(14.8482 5.4131 -3.6864e-19)
(14.9198 5.3764 3.00592e-19)
(15.0504 5.30692 3.15141e-19)
(15.2588 5.21471 9.75958e-21)
(15.5612 5.10846 -7.31812e-21)
(15.9792 4.99005 -4.41809e-19)
(16.5448 4.83885 -1.82877e-19)
(17.3283 4.62664 2.59468e-19)
(18.477 4.31868 3.13157e-19)
(20.2845 3.9469 -2.14414e-19)
(22.2171 3.60697 0)
(21.5027 3.13921 0)
(15.9572 2.37525 -7.18911e-19)
(8.77764 2.22695 1.37235e-18)
(3.9239 2.63569 0)
(1.34527 2.86674 -5.74681e-19)