/*--------------------------------*- C++ -*----------------------------------*\
  =========                 |
  \\      /  F ield         | OpenFOAM: The Open Source CFD Toolbox
   \\    /   O peration     | Website:  https://openfoam.org
    \\  /    A nd           | Version:  7
     \\/     M anipulation  |
\*---------------------------------------------------------------------------*/
FoamFile
{
    version     2.0;
    format      ascii;
    class       volScalarField;
    location    "183";
    object      yPlus;
}
// * * * * * * * * * * * * * * * * * * * * * * * * * * * * * * * * * * * * * //

dimensions      [0 0 0 0 0 0 0];

internalField   uniform 0;

boundaryField
{
    inlet
    {
        type            calculated;
        value           uniform 0;
    }
    outlet
    {
        type            calculated;
        value           uniform 0;
    }
    suction_side
    {
        type            calculated;
        value           nonuniform List<scalar> 
56
(
20.65
21.723
25.9203
29.7078
34.6048
37.428
40.2769
34.727
21.9256
26.0338
29.1279
30.0468
32.5779
30.8793
26.4713
26.0265
30.8392
32.5127
32.0264
29.3976
25.2069
23.5717
21.9143
31.0299
34.4318
34.644
33.9432
31.145
26.8227
25.1301
25.2768
24.3561
23.4076
23.2961
24.2345
26.832
28.7129
25.4609
21.1174
24.1652
28.003
30.7791
32.4705
33.7512
34.4847
34.8678
34.5591
33.4567
31.6782
31.3699
33.0529
36.1384
38.1047
37.7993
37.8946
36.4327
)
;
    }
    pressure_side
    {
        type            calculated;
        value           nonuniform List<scalar> 
56
(
55.7985
50.6336
49.5096
48.0601
46.7618
45.3745
43.8808
42.4606
41.2666
40.3904
39.6808
39.0954
38.6068
38.1688
37.7935
37.4386
37.1128
36.7888
36.4595
36.117
35.7568
35.3955
35.0453
34.741
34.5005
34.355
34.2844
34.2659
34.2493
34.1729
33.9581
33.413
32.3652
30.5424
28.1084
25.0535
21.3876
17.349
13.4804
11.235
4.95459
4.00601
4.27915
5.07452
7.07965
7.80563
10.5185
10.4771
12.8069
12.5504
14.3433
14.19
15.6205
15.7696
17.6619
18.163
)
;
    }
    trailing_edge
    {
        type            calculated;
        value           nonuniform List<scalar> 2(166.318 148.574);
    }
    defaultFaces
    {
        type            empty;
    }
}


// ************************************************************************* //
