/*--------------------------------*- C++ -*----------------------------------*\
  =========                 |
  \\      /  F ield         | OpenFOAM: The Open Source CFD Toolbox
   \\    /   O peration     | Website:  https://openfoam.org
    \\  /    A nd           | Version:  7
     \\/     M anipulation  |
\*---------------------------------------------------------------------------*/
FoamFile
{
    version     2.0;
    format      ascii;
    class       volScalarField;
    location    "0.4";
    object      p;
}
// * * * * * * * * * * * * * * * * * * * * * * * * * * * * * * * * * * * * * //

dimensions      [0 2 -2 0 0 0 0];

internalField   nonuniform List<scalar> 
100
(
1.94773e-06
-0.014299
-0.0161244
-0.00210363
0.0238803
0.0549724
0.0826308
0.0984148
0.0968849
0.0815586
0.0140103
-0.00258267
-0.00458285
0.00685489
0.027121
0.0513162
0.0733363
0.0866507
0.0848878
0.0669102
0.0187614
-0.00423484
-0.00716301
0.00473095
0.0250284
0.0494062
0.0725112
0.0877114
0.0856363
0.0604062
0.00545206
-0.0237938
-0.0255772
-0.00933836
0.016328
0.0472086
0.078036
0.101056
0.102395
0.0702381
-0.0355608
-0.0672415
-0.0627641
-0.0371282
-0.000922398
0.0423222
0.0879226
0.127074
0.140299
0.106892
-0.1195
-0.14373
-0.123285
-0.0811504
-0.028633
0.0330757
0.101571
0.168426
0.208853
0.189489
-0.271067
-0.263332
-0.209095
-0.140407
-0.0651104
0.0208433
0.120433
0.229112
0.321532
0.351113
-0.542125
-0.432767
-0.311464
-0.203642
-0.0999806
0.0133872
0.149149
0.313394
0.498201
0.662428
-1.07596
-0.643933
-0.387337
-0.234369
-0.110562
0.0184685
0.180458
0.406067
0.757572
1.29461
-1.99465
-0.850959
-0.363008
-0.185643
-0.0793446
0.0262644
0.176013
0.443454
1.04955
2.30862
)
;

boundaryField
{
    movingWall
    {
        type            zeroGradient;
    }
    fixedWalls
    {
        type            zeroGradient;
    }
    frontAndBack
    {
        type            empty;
    }
}


// ************************************************************************* //
