/*--------------------------------*- C++ -*----------------------------------*\
  =========                 |
  \\      /  F ield         | OpenFOAM: The Open Source CFD Toolbox
   \\    /   O peration     | Website:  https://openfoam.org
    \\  /    A nd           | Version:  7
     \\/     M anipulation  |
\*---------------------------------------------------------------------------*/
FoamFile
{
    version     2.0;
    format      ascii;
    class       surfaceScalarField;
    location    "0.4";
    object      phi;
}
// * * * * * * * * * * * * * * * * * * * * * * * * * * * * * * * * * * * * * //

dimensions      [0 3 -1 0 0 0 0];

internalField   nonuniform List<scalar> 
180
(
-2.01761e-07
2.01709e-07
-1.11809e-06
9.16325e-07
-2.27658e-06
1.15849e-06
-3.19424e-06
9.17658e-07
-3.56686e-06
3.72625e-07
-3.26804e-06
-2.98822e-07
-2.36552e-06
-9.02517e-07
-1.16123e-06
-1.20429e-06
-1.98895e-07
-9.62335e-07
-1.98897e-07
-9.86039e-07
1.18775e-06
-3.21619e-06
3.14648e-06
-5.71098e-06
3.65327e-06
-7.61856e-06
2.82524e-06
-8.37787e-06
1.13193e-06
-7.75714e-06
-9.19543e-07
-5.88882e-06
-2.77083e-06
-3.31989e-06
-3.77322e-06
-9.95666e-07
-3.28655e-06
-1.19457e-06
-1.71743e-06
2.90518e-06
-5.09682e-06
6.52587e-06
-8.63394e-06
7.1904e-06
-1.12514e-05
5.4427e-06
-1.2295e-05
2.1755e-06
-1.14922e-05
-1.72232e-06
-8.96693e-06
-5.2961e-06
-5.32823e-06
-7.41192e-06
-1.7712e-06
-6.84358e-06
-2.96577e-06
-2.45169e-06
5.35686e-06
-6.90898e-06
1.09832e-05
-1.13128e-05
1.15942e-05
-1.44685e-05
8.59842e-06
-1.57532e-05
3.46019e-06
-1.48996e-05
-2.57583e-06
-1.19539e-05
-8.24186e-06
-7.42824e-06
-1.19376e-05
-2.63623e-06
-1.16356e-05
-5.602e-06
-3.29984e-06
8.6567e-06
-8.69428e-06
1.63776e-05
-1.36088e-05
1.65087e-05
-1.69684e-05
1.1958e-05
-1.83783e-05
4.87004e-06
-1.76558e-05
-3.29829e-06
-1.4699e-05
-1.11987e-05
-9.69184e-06
-1.69447e-05
-3.75178e-06
-1.75756e-05
-9.35377e-06
-4.31955e-06
1.29762e-05
-1.0213e-05
2.2271e-05
-1.48188e-05
2.11145e-05
-1.76627e-05
1.48019e-05
-1.88874e-05
6.09477e-06
-1.85265e-05
-3.65923e-06
-1.62862e-05
-1.3439e-05
-1.17228e-05
-2.1508e-05
-5.14954e-06
-2.41489e-05
-1.45033e-05
-5.43784e-06
1.84141e-05
-1.06444e-05
2.74776e-05
-1.3302e-05
2.37721e-05
-1.43462e-05
1.58461e-05
-1.47879e-05
6.53653e-06
-1.50098e-05
-3.43733e-06
-1.45719e-05
-1.38769e-05
-1.2193e-05
-2.3887e-05
-6.51182e-06
-2.98301e-05
-2.10151e-05
-6.09995e-06
2.4514e-05
-7.6688e-06
2.90464e-05
-5.66022e-06
2.17636e-05
-3.20147e-06
1.33873e-05
-2.09343e-06
5.42849e-06
-3.00234e-06
-2.52841e-06
-5.56906e-06
-1.13101e-05
-7.98543e-06
-2.14706e-05
-6.6704e-06
-3.11451e-05
-2.76855e-05
-2.14133e-06
2.66554e-05
5.54267e-06
2.13624e-05
1.49558e-05
1.23505e-05
2.16913e-05
6.65175e-06
2.45495e-05
2.5703e-06
2.31294e-05
-1.10823e-06
1.72892e-05
-5.47002e-06
7.88623e-06
-1.20676e-05
-7.42139e-07
-2.25168e-05
-2.84277e-05
2.66554e-05
4.80178e-05
6.03683e-05
6.702e-05
6.95903e-05
6.84821e-05
6.30121e-05
5.09444e-05
2.84277e-05
)
;

boundaryField
{
    movingWall
    {
        type            calculated;
        value           uniform 0;
    }
    fixedWalls
    {
        type            calculated;
        value           uniform 0;
    }
    frontAndBack
    {
        type            empty;
        value           nonuniform 0();
    }
}


// ************************************************************************* //
