/*--------------------------------*- C++ -*----------------------------------*\
  =========                 |
  \\      /  F ield         | OpenFOAM: The Open Source CFD Toolbox
   \\    /   O peration     | Website:  https://openfoam.org
    \\  /    A nd           | Version:  7
     \\/     M anipulation  |
\*---------------------------------------------------------------------------*/
FoamFile
{
    version     2.0;
    format      ascii;
    class       volVectorField;
    location    "0.4";
    object      U;
}
// * * * * * * * * * * * * * * * * * * * * * * * * * * * * * * * * * * * * * //

dimensions      [0 1 -1 0 0 0 0];

internalField   nonuniform List<vector> 
100
(
(-0.000373267 0.000306322 0)
(-0.00571701 0.00331259 0)
(-0.0169798 0.00450367 0)
(-0.0281649 0.00365947 0)
(-0.0350373 0.00153211 0)
(-0.0354498 -0.00113471 0)
(-0.0290712 -0.00353386 0)
(-0.0176977 -0.00466017 0)
(-0.00587646 -0.00347664 0)
(-0.000307992 -0.000270351 0)
(-0.00367101 0.00553175 0)
(-0.019289 0.0176672 0)
(-0.0448907 0.021418 0)
(-0.0687541 0.0168449 0)
(-0.083006 0.00684759 0)
(-0.08379 -0.00540673 0)
(-0.0705387 -0.016411 0)
(-0.0464439 -0.0220612 0)
(-0.0198118 -0.0183896 0)
(-0.00363686 -0.00546771 0)
(-0.00693496 0.0190909 0)
(-0.0319464 0.0458272 0)
(-0.0693364 0.0518612 0)
(-0.102542 0.0397677 0)
(-0.121946 0.0159497 0)
(-0.123285 -0.0127317 0)
(-0.105731 -0.0387413 0)
(-0.0724397 -0.0533357 0)
(-0.0333924 -0.0477483 0)
(-0.00710975 -0.0192318 0)
(-0.0104106 0.0399707 0)
(-0.0446328 0.0854359 0)
(-0.0923718 0.0923136 0)
(-0.132811 0.069308 0)
(-0.156032 0.0278024 0)
(-0.158374 -0.0214159 0)
(-0.138652 -0.0669324 0)
(-0.0986979 -0.0949514 0)
(-0.0483975 -0.0897639 0)
(-0.0112846 -0.0411248 0)
(-0.0148585 0.0686803 0)
(-0.0584194 0.135369 0)
(-0.113601 0.140139 0)
(-0.157255 0.102974 0)
(-0.181672 0.0416398 0)
(-0.185308 -0.0298923 0)
(-0.166709 -0.0978299 0)
(-0.124846 -0.144133 0)
(-0.0664196 -0.144133 0)
(-0.0172539 -0.0728143 0)
(-0.0209676 0.10691 0)
(-0.0730221 0.193441 0)
(-0.128384 0.19028 0)
(-0.166582 0.136061 0)
(-0.186523 0.0555496 0)
(-0.190925 -0.0362451 0)
(-0.178553 -0.126325 0)
(-0.144087 -0.195261 0)
(-0.0862356 -0.20906 0)
(-0.0256317 -0.117547 0)
(-0.0287155 0.157761 0)
(-0.0847617 0.252819 0)
(-0.124157 0.230921 0)
(-0.140904 0.158574 0)
(-0.146524 0.065056 0)
(-0.149606 -0.0379035 0)
(-0.150022 -0.143034 0)
(-0.138265 -0.235432 0)
(-0.0998403 -0.276395 0)
(-0.0348514 -0.179518 0)
(-0.0333899 0.224633 0)
(-0.0790718 0.295721 0)
(-0.0711585 0.23917 0)
(-0.0432048 0.15382 0)
(-0.0225352 0.0628694 0)
(-0.0208904 -0.0318065 0)
(-0.0399127 -0.133597 0)
(-0.070483 -0.240411 0)
(-0.0841628 -0.322541 0)
(-0.0353857 -0.257632 0)
(0.000652523 0.277736 0)
(0.0019993 0.279501 0)
(0.100215 0.186983 0)
(0.189732 0.108122 0)
(0.239818 0.0435334 0)
(0.247717 -0.0175484 0)
(0.211053 -0.0878623 0)
(0.127033 -0.181114 0)
(0.023405 -0.294132 0)
(0.0155738 -0.302147 0)
(0.29391 0.147401 0)
(0.386012 0.12727 0)
(0.540311 0.074268 0)
(0.64329 0.0388854 0)
(0.690088 0.0156227 0)
(0.697242 -0.0035069 0)
(0.665061 -0.0262231 0)
(0.573237 -0.0630291 0)
(0.414599 -0.12315 0)
(0.309559 -0.151143 0)
)
;

boundaryField
{
    movingWall
    {
        type            fixedValue;
        value           uniform (1 0 0);
    }
    fixedWalls
    {
        type            noSlip;
    }
    frontAndBack
    {
        type            empty;
    }
}


// ************************************************************************* //
