/*--------------------------------*- C++ -*----------------------------------*\
  =========                 |
  \\      /  F ield         | OpenFOAM: The Open Source CFD Toolbox
   \\    /   O peration     | Website:  https://openfoam.org
    \\  /    A nd           | Version:  7
     \\/     M anipulation  |
\*---------------------------------------------------------------------------*/
FoamFile
{
    version     2.0;
    format      ascii;
    class       volScalarField;
    location    "82";
    object      k;
}
// * * * * * * * * * * * * * * * * * * * * * * * * * * * * * * * * * * * * * //

dimensions      [0 2 -2 0 0 0 0];

internalField   nonuniform List<scalar> 
12842
(
0.00568541
0.00510856
0.00473595
0.00449688
0.0043063
0.00419435
0.00409623
0.00403915
0.00398904
0.00396291
0.00394722
0.00395395
0.00397823
0.00401988
0.00407459
0.00410449
0.00414173
0.0041657
0.00419715
0.00421721
0.00422655
0.00423408
0.00424033
0.00565267
0.00506964
0.00468139
0.00447283
0.00429739
0.00419008
0.00409347
0.00403655
0.00398628
0.00395957
0.00394463
0.00395225
0.00397701
0.00401875
0.00407103
0.0041075
0.0041578
0.00417407
0.00419536
0.00421665
0.00422693
0.00423243
0.0042397
0.00561972
0.00500445
0.00464001
0.00441813
0.00425415
0.00415885
0.00407043
0.00401928
0.00397239
0.00394816
0.00393838
0.00394871
0.00397793
0.00402533
0.00407362
0.00410518
0.00415815
0.00417619
0.00419761
0.00421634
0.00422723
0.00423172
0.00423926
0.00556783
0.00494981
0.00456627
0.00437304
0.00422395
0.00414243
0.00405907
0.00401102
0.00396607
0.00394306
0.0039355
0.0039473
0.00397922
0.00402838
0.00407848
0.00410825
0.00415533
0.00417682
0.00419844
0.004221
0.00422894
0.00423583
0.00424045
0.00551748
0.004885
0.00452562
0.00432181
0.0041878
0.00410704
0.00403153
0.00399061
0.00395063
0.00393163
0.00392992
0.00394468
0.0039825
0.00403729
0.00408323
0.00411274
0.00415791
0.00417772
0.00420518
0.0042229
0.00423309
0.00423803
0.00424503
0.00546088
0.00481825
0.00445897
0.00427577
0.00414773
0.00408723
0.00401879
0.00398109
0.00394345
0.00392641
0.0039272
0.00394308
0.00398384
0.00404366
0.00408922
0.0041163
0.00415893
0.00418223
0.00420629
0.0042233
0.00423383
0.00424103
0.00425049
0.00540859
0.00476157
0.00441859
0.00423893
0.00412103
0.0040574
0.00399327
0.00396135
0.0039286
0.00391617
0.00392154
0.00394061
0.00398861
0.00405123
0.00409543
0.00412302
0.00416408
0.00418759
0.00421097
0.00422473
0.00423603
0.00424324
0.0042513
0.00535407
0.00470243
0.00436329
0.00419508
0.0040898
0.00403691
0.00398162
0.00395253
0.00392192
0.00391157
0.00391788
0.00394008
0.00399091
0.00405595
0.00410103
0.00412744
0.00416697
0.00419321
0.00421489
0.00422657
0.00423733
0.00424719
0.0042516
0.00530084
0.00465588
0.00433261
0.00416943
0.00406913
0.00401831
0.00396308
0.00393668
0.0039101
0.00390391
0.00391244
0.00393856
0.00399477
0.0040583
0.00410228
0.00412956
0.00417216
0.00419609
0.00421984
0.00423033
0.00424052
0.00425063
0.00425634
0.00524174
0.00459641
0.004284
0.00413527
0.00404617
0.00399975
0.00395255
0.00392918
0.00390468
0.0039008
0.00390982
0.00393786
0.00400501
0.0040615
0.00410562
0.00413182
0.00418028
0.00419978
0.00422629
0.00423465
0.00424462
0.00425407
0.00426575
0.00518165
0.004552
0.00425727
0.0041138
0.00403186
0.00398766
0.00393993
0.00391712
0.00389594
0.00389506
0.0039062
0.00393732
0.00400774
0.0040636
0.00410778
0.00413356
0.00419194
0.00420279
0.0042321
0.00424472
0.00425386
0.00426602
0.00428038
0.00512301
0.00450047
0.00421538
0.00408513
0.00401126
0.0039708
0.00392945
0.00390939
0.00389101
0.00389233
0.00390367
0.00393977
0.00400599
0.00406797
0.00411254
0.00413988
0.00419481
0.00420893
0.00424122
0.00425253
0.00426407
0.00428486
0.00430312
0.00506341
0.00445937
0.00419212
0.00406669
0.00399966
0.00396046
0.00391922
0.00389963
0.00388395
0.00388734
0.00390108
0.00393944
0.00400918
0.00407074
0.00411576
0.0041446
0.00419298
0.00421467
0.00424762
0.00427204
0.00428988
0.00431326
0.00433478
0.00500886
0.00441771
0.00415705
0.004043
0.00398218
0.00394662
0.00390941
0.00389171
0.00387934
0.00388471
0.00389874
0.00394148
0.00401484
0.004077
0.00412282
0.00415623
0.00419718
0.00423114
0.00426137
0.0042871
0.00431403
0.00435375
0.0043794
0.00495237
0.00437944
0.00413657
0.00402746
0.0039721
0.00393716
0.00390053
0.00388405
0.00387394
0.00388037
0.0038968
0.00394206
0.00401913
0.00408094
0.00412781
0.00416459
0.00421305
0.00424377
0.00427898
0.00432418
0.00435665
0.00440052
0.00443541
0.00490428
0.00434786
0.00410786
0.00400774
0.00395687
0.00392549
0.00389169
0.00387665
0.00386943
0.00387804
0.00389473
0.0039437
0.00403291
0.00408946
0.00413892
0.00418226
0.0042257
0.00427655
0.00431029
0.00435656
0.00439983
0.00446229
0.0045058
0.00485276
0.00431213
0.00408964
0.00399511
0.0039483
0.00391731
0.00388383
0.00387005
0.00386529
0.00387422
0.00389294
0.00394435
0.00403607
0.00409685
0.00414885
0.00420143
0.00425758
0.00430133
0.00435129
0.00441459
0.00446499
0.00453048
0.00458757
0.0048118
0.00428816
0.00406608
0.00397795
0.00393484
0.00390645
0.00387582
0.003864
0.00386133
0.0038722
0.00389131
0.00394547
0.00405364
0.00410534
0.0041619
0.00422241
0.00428075
0.0043528
0.00440302
0.00446966
0.004529
0.00461375
0.00468167
0.00476965
0.00425691
0.00405013
0.00396737
0.00392637
0.00389963
0.00386874
0.00385818
0.00385744
0.00386884
0.00389002
0.00394411
0.00405681
0.00412263
0.00418668
0.00426445
0.00433251
0.00440172
0.00446417
0.00454785
0.00461785
0.00470324
0.00478698
0.00473825
0.00423599
0.00403075
0.00395248
0.00391527
0.00388918
0.00386163
0.00385278
0.00385438
0.00386684
0.00388841
0.00394497
0.0040563
0.00413441
0.00420327
0.0042914
0.00437556
0.00447301
0.0045421
0.00462907
0.00470728
0.00481429
0.00491399
0.00470628
0.00421152
0.00401689
0.00394242
0.00390599
0.00388253
0.00385522
0.00384804
0.00385073
0.00386424
0.0038877
0.00394796
0.00405882
0.00416186
0.00424395
0.00435848
0.00444983
0.0045462
0.00462398
0.00473324
0.00482548
0.00493731
0.00505117
0.00468029
0.00419096
0.00400059
0.00392954
0.00389621
0.00387311
0.00384859
0.00384325
0.00384741
0.00386166
0.00388784
0.00395478
0.00406805
0.00418424
0.00427809
0.00440027
0.00451562
0.00464189
0.00473456
0.00484388
0.00494837
0.0050803
0.00521573
0.00465692
0.00417221
0.00398884
0.00391963
0.0038871
0.00386548
0.00384283
0.00383819
0.00384441
0.00385958
0.00388875
0.00396582
0.00409377
0.00422626
0.00433487
0.0044921
0.00461573
0.00473976
0.00483991
0.00497873
0.00509555
0.00524407
0.00539224
0.00463863
0.0041565
0.00397785
0.00391075
0.00387923
0.00385842
0.00383836
0.00383506
0.00384199
0.00385774
0.00389509
0.00397984
0.00411821
0.00427343
0.0044007
0.00456194
0.00470804
0.00486297
0.00498365
0.00511978
0.0052608
0.00542389
0.00558828
0.00462419
0.0041445
0.00397236
0.00390579
0.00387412
0.00385341
0.00383501
0.00383279
0.00383973
0.00385573
0.00390697
0.00400618
0.00416088
0.00433017
0.00447458
0.00467363
0.00483635
0.00499352
0.00512413
0.00529588
0.00544191
0.00563066
0.00581659
0.00461204
0.00413377
0.00396511
0.00390016
0.00386897
0.00384868
0.00383227
0.00382981
0.00383803
0.00385557
0.00392453
0.00403605
0.00420837
0.00440779
0.00456896
0.00477781
0.00495834
0.00514231
0.00529456
0.00546675
0.0056528
0.00586081
0.00604901
0.00459701
0.00412302
0.00396034
0.00389513
0.00386367
0.00384322
0.00382977
0.00382702
0.00383659
0.00386032
0.00395007
0.00408091
0.00427063
0.00448514
0.00467039
0.004905
0.00510417
0.00530199
0.0054718
0.00568157
0.00586799
0.00609117
0.00630185
0.00458753
0.00411223
0.00395305
0.00389005
0.00385783
0.00383887
0.00382662
0.00382543
0.00383321
0.00387729
0.00398737
0.0041329
0.00434711
0.00459117
0.0047863
0.00504269
0.00526244
0.00547479
0.00566081
0.00587291
0.00610064
0.00635324
0.00656879
0.00457182
0.00410215
0.00394847
0.00388519
0.00385279
0.00383422
0.00382349
0.00382197
0.00383218
0.00390563
0.00402988
0.00419627
0.00443132
0.00469789
0.00492333
0.00518855
0.00541132
0.00565137
0.00586324
0.00611577
0.00635187
0.00661038
0.00682979
0.00456407
0.00409145
0.00394126
0.00387966
0.00384732
0.00382915
0.00382167
0.00381839
0.00383669
0.00394438
0.00408921
0.00427277
0.00453405
0.00482704
0.00505625
0.00534404
0.00560123
0.00585185
0.00607623
0.00632992
0.00659087
0.00686746
0.00708264
0.004549
0.00408158
0.00393651
0.0038753
0.00384125
0.00382477
0.00381787
0.00382089
0.00385527
0.00399015
0.00414878
0.00435336
0.00464163
0.00496125
0.00521595
0.00551273
0.00575089
0.00602108
0.00627533
0.0065638
0.00683918
0.00711093
0.00732801
0.0045418
0.00407052
0.00393002
0.0038705
0.00383598
0.00382194
0.00381384
0.00383783
0.0038904
0.0040495
0.00422964
0.00445419
0.00476691
0.00511361
0.00537469
0.00567047
0.00594728
0.00623473
0.00649548
0.00678275
0.00706207
0.00734932
0.0075488
0.00452785
0.00406094
0.00392389
0.00386478
0.00383214
0.00381664
0.00381668
0.00386776
0.0039339
0.00411263
0.00430591
0.00455026
0.00489435
0.00526248
0.00553148
0.0058517
0.00610665
0.00639018
0.00667501
0.00698774
0.00729262
0.00755971
0.00775641
0.00452088
0.00405027
0.00391824
0.00385967
0.00382499
0.00381201
0.00383335
0.00391
0.00399086
0.00419185
0.00440534
0.00467155
0.00503903
0.00543717
0.00571836
0.00600913
0.00628821
0.00659559
0.00688391
0.00719408
0.0074759
0.00775021
0.0079299
0.00450835
0.00403981
0.00391251
0.00385671
0.00382256
0.00381567
0.00386256
0.00395879
0.00405519
0.00427112
0.00449635
0.00478
0.00517686
0.00558795
0.00586206
0.00618301
0.00644121
0.00673509
0.00703797
0.00735939
0.00767697
0.00793248
0.00810328
0.00450019
0.00402951
0.00390559
0.00384967
0.0038233
0.00383408
0.00390278
0.0040205
0.00413241
0.00436669
0.00460937
0.0049149
0.00533687
0.00577527
0.00605534
0.00633667
0.00661554
0.00691353
0.00721407
0.00753495
0.00781058
0.00805406
0.00821341
0.00449051
0.00402047
0.00389927
0.0038437
0.00383986
0.00386699
0.00395013
0.00408805
0.00421489
0.00445888
0.00471034
0.0050304
0.00547367
0.00591884
0.00618996
0.00649082
0.00673747
0.00703943
0.00734827
0.00765912
0.00797194
0.00820744
0.00836848
0.00447976
0.00400935
0.00389539
0.00384658
0.00386673
0.00390869
0.00400906
0.004167
0.00430788
0.00456532
0.00483099
0.00517145
0.00564155
0.00610709
0.00637411
0.00664131
0.00690277
0.00717638
0.00747437
0.00780358
0.00807805
0.0082899
0.00845977
0.00447206
0.00399938
0.00388769
0.00386401
0.00390497
0.00396065
0.00407466
0.00425013
0.00440345
0.00466525
0.00493544
0.00528765
0.00577055
0.00623583
0.00649088
0.00675808
0.00700157
0.00729746
0.00760311
0.00789581
0.00817694
0.00840681
0.00861041
0.00446123
0.00399228
0.00388094
0.00389536
0.00395043
0.00402159
0.00415093
0.00434174
0.004506
0.00477627
0.00505743
0.0054281
0.00593509
0.00641387
0.00666463
0.00691336
0.00714267
0.0073921
0.0076936
0.00800993
0.00832574
0.00856501
0.00886832
0.00445218
0.00398275
0.00388284
0.00393384
0.00400257
0.00409118
0.00423189
0.00443468
0.00460818
0.00487786
0.00515947
0.00553967
0.00605376
0.00652647
0.00676319
0.00699773
0.00722707
0.00751457
0.00779274
0.00812445
0.00841566
0.00867322
0.00904504
0.00444172
0.00397189
0.00390196
0.0039831
0.00406636
0.0041692
0.00432118
0.00453305
0.00471381
0.00498706
0.00527679
0.00567383
0.00620688
0.00668647
0.00691892
0.00714014
0.00735798
0.0075887
0.00793387
0.00828432
0.00870357
0.00925569
0.01069
0.00443342
0.00397029
0.00392661
0.00403809
0.00413219
0.00425254
0.00441208
0.0046292
0.00481592
0.00508474
0.00537222
0.00577753
0.00631153
0.00678028
0.00700359
0.00721568
0.00743212
0.0077292
0.00803211
0.00844427
0.00896822
0.0098551
0.0125068
0.00442193
0.00398486
0.00396684
0.00410248
0.00421064
0.00434218
0.00450811
0.00472815
0.00491859
0.00518636
0.0054803
0.00590157
0.00645126
0.00692143
0.00714879
0.00735246
0.00757052
0.00781929
0.00821004
0.0088962
0.0101031
0.0135235
0.0228459
0.00441193
0.00401026
0.00400585
0.00417326
0.00428795
0.00443351
0.00460232
0.00482167
0.00501487
0.0052758
0.00556633
0.00599528
0.00653908
0.00699775
0.00722165
0.00742194
0.00765457
0.0080246
0.00858263
0.0095949
0.0115199
0.0175624
0.0326141
0.00440585
0.00404683
0.0040599
0.00424831
0.00437457
0.00452776
0.00469863
0.00491552
0.00510963
0.00536602
0.00566316
0.00610895
0.00666604
0.00712241
0.00735981
0.00756615
0.00784862
0.00824352
0.00885865
0.0104631
0.0156614
0.0309863
0.0606694
0.00439655
0.00408706
0.00411367
0.00433098
0.00445957
0.00462094
0.0047902
0.00500213
0.00519596
0.00544422
0.00573799
0.00619054
0.00673797
0.00718605
0.00743108
0.00765024
0.00797038
0.00849986
0.00990432
0.0133098
0.0221816
0.0429265
0.0782698
0.00438384
0.00413685
0.00418062
0.00441253
0.00454807
0.00471387
0.0048816
0.00508725
0.00528004
0.0055221
0.00582426
0.00629662
0.00685407
0.00730141
0.00757671
0.00784102
0.00831937
0.009281
0.0109345
0.0165178
0.0324702
0.0675986
0.119017
0.00438826
0.00419124
0.00424843
0.00450389
0.00463961
0.00480717
0.00496996
0.00516744
0.00535734
0.00559051
0.00589053
0.00636964
0.00691736
0.00736309
0.00765934
0.00796702
0.0085916
0.00984184
0.0132059
0.0212009
0.0428157
0.0869456
0.152875
0.00440414
0.00425972
0.0043319
0.00459526
0.00473202
0.00490096
0.00505855
0.00524725
0.00543433
0.00565994
0.0059686
0.0064679
0.00702107
0.00747346
0.00783176
0.0082742
0.00930504
0.0113084
0.0157051
0.0292768
0.0628129
0.126338
0.219311
0.00443632
0.00433006
0.00441221
0.00468907
0.00482402
0.00498899
0.00513966
0.00531829
0.00550074
0.00571779
0.00602715
0.00653624
0.00708003
0.00753402
0.0079339
0.00849275
0.0098651
0.012617
0.019272
0.0365109
0.079572
0.169264
0.318337
0.00447301
0.00440908
0.00450087
0.0047776
0.00490896
0.00507094
0.00521397
0.00538334
0.00556185
0.00577151
0.00608841
0.00661504
0.007162
0.0076422
0.00815037
0.00899657
0.0111613
0.0152355
0.0253652
0.0473986
0.103541
0.213492
0.381469
0.00451592
0.0044867
0.00458338
0.00486347
0.00499055
0.00514549
0.00528076
0.00544083
0.00561408
0.00581673
0.0061365
0.00667621
0.00722055
0.00771901
0.00831601
0.00944306
0.0123503
0.0178258
0.0279649
0.0525082
0.116833
0.246187
0.465042
0.00456308
0.00456927
0.00467024
0.00494377
0.00506493
0.00521342
0.00534027
0.00549184
0.00566115
0.00585766
0.0061847
0.00674162
0.00728984
0.00784185
0.00862845
0.0103187
0.0144817
0.0213278
0.0331048
0.0623078
0.139025
0.275267
0.498676
0.00461246
0.00464846
0.00475003
0.0050189
0.0051337
0.00527369
0.00539257
0.00553679
0.00570107
0.00589209
0.00622326
0.00679517
0.00734512
0.00794042
0.0088939
0.011106
0.0163228
0.024327
0.0374322
0.0693049
0.149763
0.288419
0.524697
0.00466347
0.00472771
0.00482967
0.005088
0.00519559
0.00532759
0.00543838
0.00557583
0.00573678
0.00592337
0.00626144
0.00685079
0.00740604
0.00806863
0.00931659
0.0123887
0.01909
0.0285678
0.0437462
0.0794121
0.166427
0.304465
0.526325
0.00471258
0.0047983
0.00489793
0.00514684
0.00524711
0.00537059
0.00547415
0.00560678
0.00576388
0.00594677
0.00628928
0.00689297
0.0074514
0.00817093
0.0096733
0.0134574
0.0211682
0.031517
0.0470442
0.0858184
0.175541
0.301954
0.487243
0.00475739
0.00486263
0.00496106
0.00519838
0.00529172
0.00540809
0.00550514
0.00563318
0.00578803
0.0059679
0.0063152
0.00693372
0.00749604
0.00827957
0.0100675
0.0146484
0.0233891
0.0345793
0.0512751
0.0910372
0.185266
0.299356
0.452393
0.00480334
0.00492448
0.00501976
0.00524677
0.00533277
0.00544147
0.00553223
0.00565718
0.0058092
0.00598641
0.00633882
0.00697308
0.00753957
0.00839291
0.0104977
0.0159026
0.0254942
0.0373408
0.0545554
0.100071
0.18419
0.291268
0.426833
0.00484634
0.004982
0.00507597
0.00529024
0.0053695
0.00547127
0.00555641
0.00567772
0.00582812
0.00600365
0.00636118
0.00701136
0.0075823
0.00851064
0.0109523
0.0171715
0.0276182
0.0396265
0.0587965
0.103173
0.184626
0.290481
0.410474
0.00488991
0.00503727
0.00512713
0.00533086
0.00540254
0.00549772
0.00557757
0.00569671
0.00584505
0.00601872
0.00638186
0.00704875
0.00762434
0.00863314
0.0114276
0.0184377
0.0294051
0.0420164
0.0603001
0.104674
0.185753
0.292572
0.399541
0.00493138
0.00508746
0.0051766
0.0053675
0.00543344
0.00552179
0.00559698
0.00571278
0.00585975
0.00603288
0.00640153
0.00708534
0.00766563
0.00876005
0.0118936
0.0196941
0.0310939
0.0434246
0.0603035
0.10603
0.189179
0.287911
0.390475
0.00497182
0.00513561
0.00522039
0.0054012
0.00546025
0.0055434
0.00561453
0.00572843
0.00587355
0.00604541
0.00642011
0.00712122
0.00770629
0.00888967
0.0124006
0.0209022
0.0324705
0.0441723
0.0603839
0.104258
0.18774
0.283797
0.382887
0.00501235
0.00517882
0.00526366
0.00543255
0.00548712
0.00556337
0.00563082
0.00574135
0.00588496
0.00605717
0.00643775
0.00715627
0.00774599
0.00901847
0.0128387
0.0219834
0.033596
0.0441308
0.0604257
0.104243
0.181131
0.268798
0.371673
0.00505097
0.00522025
0.00530128
0.00546061
0.00550986
0.00558226
0.00564672
0.00575481
0.00589618
0.00606752
0.0064546
0.00719031
0.00778394
0.00914693
0.0133062
0.0229248
0.0343944
0.0441973
0.0605691
0.100225
0.167643
0.247862
0.354062
0.00508958
0.00525734
0.00533897
0.00548772
0.00553414
0.00559943
0.00566105
0.0057662
0.0059052
0.00607739
0.00647067
0.00722328
0.00782002
0.00927332
0.0136689
0.0238114
0.0344162
0.0442997
0.0598985
0.0935569
0.151215
0.223178
0.328731
0.0051292
0.00529268
0.00537223
0.0055119
0.00555473
0.00561678
0.0056764
0.00577762
0.00591445
0.00608625
0.006486
0.00725499
0.0078548
0.00938892
0.0140492
0.0245317
0.0344671
0.0445326
0.0578667
0.0857652
0.133526
0.196592
0.296528
0.00516421
0.00532568
0.00540512
0.00553576
0.00557678
0.00563289
0.00569
0.00578899
0.00592119
0.00609376
0.00650066
0.00728502
0.00788577
0.00948932
0.0143067
0.0247791
0.0345297
0.0444604
0.0553047
0.0776612
0.115971
0.169739
0.25993
0.00520555
0.00535511
0.00543488
0.00555664
0.00559739
0.00564846
0.00570423
0.00579855
0.00592852
0.00610189
0.00651441
0.00731211
0.00791183
0.00958283
0.014523
0.0249128
0.0346687
0.0437582
0.0524218
0.0698061
0.0995774
0.143909
0.222268
0.00523883
0.00538556
0.00546478
0.00557926
0.00561657
0.00566479
0.00571887
0.00580994
0.00593483
0.00610789
0.00652807
0.00734031
0.00793638
0.00966884
0.0145367
0.0248608
0.0345835
0.0424894
0.0494656
0.0625109
0.0849169
0.12023
0.185927
0.00527715
0.00541193
0.00549135
0.00559707
0.00563752
0.00567944
0.00573103
0.00581871
0.00593903
0.00611316
0.0065396
0.00736002
0.0079569
0.0096834
0.0145496
0.0248587
0.0341816
0.0408064
0.0464279
0.0559061
0.0722147
0.0994424
0.152627
0.00531402
0.00543763
0.00551799
0.00561795
0.00565612
0.00569438
0.00574639
0.00582948
0.00593879
0.00611996
0.00655203
0.00738243
0.00796603
0.00969184
0.0145178
0.02466
0.0331182
0.0388047
0.0434248
0.05
0.0614668
0.0817647
0.123471
0.00534547
0.00546546
0.0055446
0.0056366
0.00567363
0.00571086
0.00575854
0.00583798
0.0059393
0.0061219
0.00656231
0.00739792
0.00796867
0.0096788
0.0142845
0.0239707
0.031678
0.036512
0.0404157
0.0447575
0.0525084
0.0673148
0.0992324
0.00538284
0.00548664
0.00556615
0.00565202
0.00569372
0.00572261
0.00577128
0.00584674
0.00594037
0.00612306
0.00657068
0.00741077
0.00796392
0.00959907
0.0139148
0.022996
0.0299278
0.0340149
0.0374287
0.0400797
0.0451338
0.0556654
0.0794074
0.00541603
0.00551256
0.00559159
0.00567375
0.0057097
0.00574066
0.00578569
0.0058578
0.00594281
0.00612384
0.00658024
0.00741557
0.00794573
0.00948113
0.0134448
0.0218174
0.0279595
0.0313789
0.0344488
0.0358938
0.0390234
0.0465234
0.0642166
0.00544086
0.00553723
0.00561434
0.00568594
0.00572437
0.00575111
0.00579538
0.00585823
0.00594115
0.0061257
0.00658593
0.00741565
0.00791065
0.00932861
0.012916
0.0205104
0.0258661
0.0287089
0.0315308
0.0321766
0.0341132
0.0395115
0.0522399
0.00547641
0.00555376
0.00563034
0.00570332
0.00574412
0.0057664
0.00580799
0.00585956
0.00594304
0.00612454
0.00658949
0.00741306
0.00786999
0.00915679
0.0123468
0.0191407
0.0237358
0.026082
0.0287331
0.0288847
0.0300473
0.034132
0.0441484
0.00549877
0.00558023
0.00565446
0.00571801
0.00574602
0.00578077
0.0058189
0.00586362
0.00594102
0.00612398
0.00658952
0.00740022
0.00781876
0.00897122
0.0117679
0.0177782
0.021666
0.0236147
0.0260999
0.0260222
0.026845
0.0300879
0.0371527
0.00550891
0.00559758
0.00566865
0.00572858
0.00574877
0.00578129
0.0058269
0.00586763
0.00594066
0.00612382
0.00658973
0.0073793
0.00776212
0.00877847
0.0112016
0.01648
0.0197291
0.0213419
0.0236764
0.0236064
0.024336
0.0274008
0.0332457
0.0055184
0.0056044
0.00567746
0.0057341
0.00575564
0.00578276
0.00582529
0.00586702
0.00594206
0.00612479
0.00658985
0.00735289
0.00770121
0.00858818
0.01067
0.0152896
0.0179791
0.0193594
0.0215545
0.0215755
0.0223619
0.0251733
0.0311928
0.00552552
0.00561158
0.00567501
0.00573938
0.00576179
0.005785
0.00582545
0.00586955
0.00594179
0.00612538
0.00659
0.00732216
0.00763675
0.00840754
0.0101881
0.0142394
0.0164582
0.0176484
0.0197584
0.0199891
0.0209891
0.0239819
0.0305478
0.0055296
0.00562261
0.00567489
0.00573615
0.00575866
0.00579075
0.00582699
0.00587485
0.00594381
0.00612315
0.00658774
0.00728807
0.00757404
0.00824231
0.0097682
0.0133386
0.0151805
0.0162658
0.0183035
0.0187252
0.0199219
0.0232778
0.0303678
0.00552558
0.00561963
0.00567472
0.00573863
0.00575826
0.00579612
0.00583135
0.00587233
0.00594103
0.00612303
0.00658243
0.00725253
0.00751012
0.00809572
0.00941543
0.0126
0.0141414
0.0151475
0.0172066
0.0178267
0.0192954
0.023075
0.0304871
0.00552412
0.00561886
0.00567413
0.00573357
0.00575785
0.00579292
0.00582806
0.00587388
0.00594116
0.00612381
0.006576
0.00721576
0.00745255
0.00797296
0.00913074
0.0120074
0.0133265
0.0143196
0.0163555
0.0171277
0.0190269
0.0231452
0.0307897
0.00552401
0.00561941
0.00567393
0.00573386
0.00575748
0.00579455
0.00582888
0.00587438
0.00594282
0.00612129
0.00656834
0.0071806
0.00739954
0.00787308
0.00891082
0.0115469
0.012708
0.0136919
0.0157814
0.0167224
0.0189049
0.0233387
0.0312614
0.00552294
0.00561754
0.00567343
0.00573269
0.00575706
0.00578976
0.00583222
0.00587124
0.00593931
0.00612076
0.0065607
0.00714644
0.00735254
0.00780035
0.0087523
0.0112096
0.0122538
0.0132696
0.0153688
0.016336
0.0188752
0.0238148
0.0325392
0.00553162
0.00561805
0.0056751
0.00573201
0.00575757
0.00578934
0.0058282
0.00587014
0.00593865
0.00612012
0.00655246
0.00711525
0.00731328
0.0077457
0.00864082
0.0109585
0.0119304
0.0129866
0.0151007
0.0162358
0.0189461
0.0247521
0.0350425
0.005525
0.00561633
0.00568275
0.00573118
0.00576155
0.00578875
0.00582797
0.00587008
0.00594102
0.00611961
0.00654485
0.00708756
0.00728262
0.0077106
0.00856817
0.0107819
0.0117186
0.0127772
0.014935
0.0161875
0.0193062
0.0255296
0.0370565
0.0055286
0.00561689
0.00567741
0.00573055
0.00576367
0.00579491
0.00583015
0.00586505
0.00593731
0.00611983
0.00653694
0.00706254
0.00725965
0.00768678
0.00852313
0.0106687
0.0115632
0.0126987
0.0147843
0.0161605
0.019602
0.0263584
0.0399299
0.00552319
0.00561975
0.00567982
0.00573121
0.00576119
0.00579075
0.00582939
0.00586451
0.00594197
0.00611901
0.00653056
0.00704207
0.00724304
0.00767185
0.00849458
0.0105834
0.0114771
0.0126584
0.0147311
0.0162842
0.0203077
0.027043
0.043279
0.00551937
0.00561867
0.0056717
0.00572801
0.00576135
0.00579151
0.0058285
0.0058651
0.00593839
0.00611751
0.00652344
0.00702329
0.00723057
0.00766223
0.0084768
0.0105296
0.0114129
0.0126531
0.0147322
0.0164345
0.0208742
0.0275396
0.0475949
0.00551738
0.00561779
0.00566995
0.00572398
0.00575835
0.00579089
0.00582275
0.00586417
0.00594065
0.00611611
0.00651882
0.00701009
0.00722232
0.00765614
0.00846448
0.0104917
0.0113709
0.0126625
0.0147747
0.016907
0.0214529
0.0281632
0.0527821
0.00551533
0.00561165
0.00566924
0.00572187
0.00575939
0.0057897
0.00582068
0.00586484
0.00594048
0.00611498
0.00651251
0.00699624
0.00721462
0.00765147
0.00845445
0.010474
0.0113364
0.0126713
0.0148228
0.0175246
0.0219784
0.0291674
0.0570678
0.00551375
0.00561397
0.00566874
0.00572572
0.00575132
0.00578781
0.00581986
0.00585844
0.00593826
0.00611185
0.00650955
0.00698793
0.00721096
0.00764913
0.00845423
0.0104557
0.0113175
0.012716
0.015033
0.0180311
0.0224182
0.029781
0.0689086
0.00550833
0.00560299
0.00565898
0.00571756
0.00575056
0.00578746
0.00581654
0.0058568
0.00593372
0.00610875
0.00650375
0.00698007
0.00720509
0.00764604
0.00845045
0.0104717
0.0113195
0.0127297
0.0152098
0.0189086
0.0228133
0.0312188
0.0636369
0.00550644
0.00561283
0.00565334
0.00572019
0.00575334
0.00577918
0.0058154
0.00585811
0.00593208
0.00611198
0.00650796
0.006981
0.00720797
0.00765794
0.008476
0.0105014
0.0113758
0.0128661
0.0154358
0.0195292
0.023552
0.0315611
0.0614844
0.00550179
0.00560266
0.00565073
0.00571631
0.00574658
0.00577651
0.00580789
0.00585615
0.00592794
0.00610595
0.0064909
0.00696452
0.00719248
0.0076272
0.00841234
0.0104098
0.0113718
0.0127563
0.0154019
0.0193785
0.023208
0.0294916
0.0511362
0.00549806
0.00560614
0.00564487
0.00571945
0.0057445
0.0057743
0.00580544
0.00585209
0.00591718
0.00609742
0.00647312
0.00694805
0.0071768
0.00759654
0.0083526
0.0103247
0.0113638
0.0126923
0.015279
0.0194549
0.0230161
0.028271
0.0452103
0.00549937
0.005603
0.0056409
0.00571605
0.00573035
0.0057715
0.00579251
0.00584721
0.00591173
0.00608562
0.00645192
0.00692902
0.00715766
0.00756151
0.00828792
0.0101537
0.0112172
0.0125477
0.0149934
0.0192864
0.0224763
0.0271549
0.0416021
0.00549531
0.00559161
0.00564487
0.00570845
0.00572655
0.00576395
0.00578871
0.00583543
0.00589667
0.00607347
0.00642829
0.00690833
0.00713578
0.00752186
0.00821422
0.0101444
0.0112141
0.0124399
0.014688
0.0188388
0.02221
0.0262651
0.0388445
0.0054859
0.00556814
0.00564102
0.00569625
0.00573035
0.00576175
0.00579014
0.00581693
0.0058952
0.00605625
0.00640061
0.00688315
0.00710965
0.00747651
0.00813175
0.009955
0.0112624
0.0122718
0.0144057
0.0183268
0.0215916
0.0254455
0.0373949
0.00547476
0.00556043
0.00563341
0.00567527
0.00572811
0.00575715
0.0057858
0.00581008
0.00588767
0.00603883
0.00637023
0.00685538
0.00707944
0.00742731
0.0080426
0.00972097
0.0112357
0.0121354
0.0140758
0.0178293
0.0216434
0.0249061
0.0359888
0.00544953
0.00556198
0.00561573
0.00564609
0.00571794
0.00574444
0.00577185
0.00580997
0.00587159
0.0060166
0.00633464
0.00682243
0.00704572
0.00737382
0.00793688
0.00948671
0.0112051
0.0120433
0.0134394
0.0173482
0.0211162
0.0240713
0.0339008
0.00541249
0.00554772
0.00559415
0.00563534
0.00570534
0.00572984
0.00574738
0.0057975
0.00585346
0.00599337
0.00629664
0.00678545
0.00700938
0.00731504
0.00783654
0.0093283
0.0110102
0.0120261
0.0133381
0.0164587
0.0204743
0.0228392
0.0377014
0.00540131
0.00552305
0.0055766
0.00563298
0.005687
0.00571282
0.00571297
0.00578344
0.00583342
0.00596668
0.0062522
0.00673921
0.00696843
0.00726003
0.00769947
0.00900716
0.0108682
0.0117081
0.0132902
0.015567
0.0200894
0.0228304
0.0391079
0.00540822
0.00548224
0.00555097
0.00562138
0.00566848
0.00569528
0.00570081
0.00576133
0.00581988
0.0059408
0.00620499
0.00668871
0.00692283
0.00720492
0.00759116
0.00867915
0.0105798
0.0116581
0.013397
0.0159344
0.0189429
0.0231839
0.0405304
0.00539734
0.00542694
0.00550661
0.00557973
0.00564288
0.00566744
0.00570176
0.00573022
0.00579581
0.00590818
0.00615039
0.00662284
0.00687113
0.00715012
0.00748732
0.00838041
0.0103711
0.0116349
0.013394
0.016078
0.0188523
0.0247078
0.0372373
0.00537325
0.00540644
0.00544629
0.00554723
0.00561476
0.00563739
0.00568456
0.00570472
0.00576961
0.00587311
0.00609342
0.00655414
0.00681022
0.00708266
0.00738526
0.00813398
0.00977061
0.0115761
0.0132635
0.0161813
0.0222084
0.026943
0.0378015
0.00533742
0.00540558
0.0054234
0.00551134
0.00557859
0.00559718
0.00565199
0.00567657
0.00573461
0.00582861
0.00602702
0.00646307
0.0067454
0.00699698
0.00731268
0.0079513
0.00932497
0.0110235
0.0130186
0.0164341
0.0216418
0.0272962
0.0397272
0.00529741
0.00537829
0.00542482
0.00545597
0.00553948
0.00555691
0.00561497
0.00564326
0.00569636
0.00578219
0.00595928
0.00636775
0.00666729
0.00691032
0.00721718
0.00777994
0.00898314
0.0102851
0.0122723
0.0161284
0.0224494
0.0301475
0.040359
0.00524647
0.00533355
0.00538942
0.00541688
0.00548933
0.00551231
0.00556728
0.00559629
0.00564527
0.00572356
0.00587953
0.00625076
0.00656894
0.00681724
0.00709495
0.00758905
0.00861561
0.00990392
0.0118812
0.0144046
0.0226755
0.0278299
0.0411415
0.00519173
0.00528317
0.00534168
0.00538901
0.005436
0.00546739
0.00551735
0.00554606
0.00559172
0.00566344
0.00579966
0.00612662
0.00645945
0.0067232
0.00697461
0.00740907
0.0082931
0.00955072
0.0115804
0.0142642
0.0201677
0.0277427
0.041236
0.00512301
0.00521768
0.00527557
0.00533075
0.00536813
0.00540672
0.00545137
0.00547955
0.00552227
0.00558698
0.0057042
0.00598554
0.00631627
0.00659732
0.0068352
0.00722631
0.00796004
0.00933564
0.0109074
0.0146571
0.0199149
0.0296309
0.0364514
0.00505051
0.00514863
0.00520501
0.00526547
0.00529889
0.005342
0.00538324
0.00541114
0.00545155
0.00550987
0.00561024
0.00583337
0.0061832
0.00645452
0.00668847
0.00705323
0.00771254
0.00876778
0.0104256
0.0138855
0.0206726
0.0290668
0.0369067
0.0049605
0.00506067
0.00511508
0.00517855
0.0052111
0.00525553
0.00529381
0.00532131
0.00535924
0.00541062
0.00549548
0.0056696
0.00599504
0.00628361
0.00650396
0.00683646
0.00743464
0.00840638
0.00980569
0.0122676
0.019697
0.0295034
0.0352811
0.00486885
0.00497074
0.00502382
0.00508915
0.00512317
0.0051671
0.00520405
0.00523133
0.00526748
0.00531315
0.00538497
0.00552066
0.00580595
0.00609736
0.00632207
0.00661607
0.00712897
0.00809056
0.00927603
0.0104935
0.0189024
0.0255599
0.0341743
0.00475645
0.00485665
0.00490885
0.00497379
0.00500936
0.00505093
0.00508602
0.00511243
0.00514612
0.00518582
0.00524503
0.00534948
0.00556828
0.00588037
0.00610049
0.00635714
0.00678386
0.00769562
0.00882501
0.0102118
0.0177731
0.0254716
0.0350399
0.00464676
0.00474476
0.00479706
0.00486053
0.00489814
0.00493755
0.00497188
0.00499768
0.00502989
0.00506582
0.00511469
0.00519635
0.00535375
0.00564285
0.00590047
0.00612391
0.00647766
0.00724311
0.00832778
0.0105999
0.0166507
0.0274139
0.0301254
0.00451066
0.00460218
0.00465454
0.00471367
0.00475152
0.00478742
0.00481972
0.00484355
0.00487284
0.0049042
0.00494338
0.00500552
0.00511796
0.00534258
0.00562156
0.00585977
0.00615268
0.00673802
0.00775584
0.0101875
0.0127235
0.025744
0.0295209
0.00438319
0.00447006
0.00452257
0.00457721
0.00461532
0.0046489
0.00468023
0.00470304
0.0047306
0.00476006
0.00479323
0.00484111
0.00492319
0.00508894