/*--------------------------------*- C++ -*----------------------------------*\
  =========                 |
  \\      /  F ield         | OpenFOAM: The Open Source CFD Toolbox
   \\    /   O peration     | Website:  https://openfoam.org
    \\  /    A nd           | Version:  7
     \\/     M anipulation  |
\*---------------------------------------------------------------------------*/
FoamFile
{
    version     2.0;
    format      ascii;
    class       volScalarField;
    location    "82";
    object      nut;
}
// * * * * * * * * * * * * * * * * * * * * * * * * * * * * * * * * * * * * * //

dimensions      [0 2 -1 0 0 0 0];

internalField   nonuniform List<scalar> 
12842
(
0.00180684
0.00179882
0.00178631
0.00178018
0.00176408
0.0017677
0.00176106
0.00176236
0.00175848
0.0017591
0.00176204
0.00176799
0.00177595
0.00123337
0.00059637
0.000334338
0.000214323
0.000151413
0.000114465
9.04351e-05
7.40676e-05
6.2865e-05
5.4447e-05
0.00180687
0.00179607
0.00177502
0.00178529
0.00177231
0.00177141
0.00176209
0.00176262
0.00175837
0.0017587
0.00176182
0.00176812
0.00177596
0.00120945
0.00058546
0.000327257
0.000210899
0.000149021
0.000112679
8.92233e-05
7.32078e-05
6.23709e-05
5.39144e-05
0.00180718
0.00179527
0.00178098
0.00177511
0.00176298
0.00176859
0.0017612
0.00176244
0.00175758
0.00175826
0.00176233
0.0017686
0.00177764
0.00116659
0.00056592
0.00031738
0.000205357
0.000145639
0.000110416
8.76262e-05
7.20714e-05
6.16983e-05
5.32375e-05
0.00180474
0.00179193
0.00177069
0.00177975
0.00176834
0.00177291
0.0017617
0.00176235
0.00175712
0.00175788
0.00176236
0.00176877
0.00177823
0.00111912
0.000545066
0.000307106
0.000199281
0.000141953
0.000107925
8.598e-05
7.08354e-05
6.09799e-05
5.24937e-05
0.00180508
0.00179361
0.00177652
0.0017728
0.00176548
0.00176827
0.00175933
0.0017612
0.00175582
0.00175718
0.00176283
0.00176892
0.00177992
0.0010779
0.000527475
0.000298676
0.000194347
0.000138749
0.000105752
8.43417e-05
6.9637e-05
6.01837e-05
5.17559e-05
0.00180209
0.00178696
0.00176659
0.00177339
0.00176394
0.00177202
0.00176081
0.00176148
0.00175523
0.0017568
0.00176288
0.0017689
0.00178057
0.00104858
0.000514301
0.000291915
0.000190161
0.000136119
0.000103757
8.28668e-05
6.84758e-05
5.94172e-05
5.10446e-05
0.00180283
0.00179034
0.00177089
0.00177139
0.00176482
0.0017685
0.00175723
0.00175891
0.00175357
0.00175613
0.00176277
0.00176905
0.00178252
0.00103112
0.000506481
0.000287908
0.000187542
0.000134177
0.000102139
8.15532e-05
6.73989e-05
5.862e-05
5.02593e-05
0.00180012
0.00178466
0.00176254
0.00176804
0.00176319
0.00177028
0.00175941
0.00176008
0.00175336
0.00175598
0.00176227
0.00176971
0.00178361
0.0010393
0.000508704
0.000287962
0.000186694
0.000133387
0.000101214
8.06689e-05
6.65222e-05
5.79368e-05
4.95791e-05
0.00179982
0.00178712
0.00176684
0.00176794
0.00176467
0.0017693
0.00175664
0.00175718
0.00175152
0.00175548
0.00176169
0.00177028
0.00178546
0.00104587
0.000510545
0.000288184
0.000186388
0.000132638
0.000100431
7.99643e-05
6.58176e-05
5.73271e-05
4.90311e-05
0.00179807
0.00178296
0.00176022
0.00176514
0.00176293
0.00176882
0.00175741
0.00175777
0.00175128
0.00175567
0.00176128
0.00177058
0.00179027
0.00102752
0.00050205
0.00028388
0.000183891
0.000131055
9.92754e-05
7.9052e-05
6.50413e-05
5.66789e-05
4.84339e-05
0.0017961
0.00178304
0.00176385
0.00176499
0.00176525
0.00176909
0.00175618
0.0017555
0.00175001
0.00175527
0.00176105
0.00177115
0.00179046
0.00101486
0.000496977
0.000281295
0.000182914
0.000129911
9.84583e-05
7.85222e-05
6.45555e-05
5.63024e-05
4.80535e-05
0.00179555
0.00178106
0.00175839
0.00176279
0.00176316
0.00176802
0.00175596
0.00175551
0.00174992
0.00175557
0.00176068
0.00177285
0.00178948
0.00100419
0.0004924
0.000279338
0.000181465
0.000129154
9.7817e-05
7.79524e-05
6.40769e-05
5.59928e-05
4.78036e-05
0.00179258
0.00177917
0.00176152
0.00176249
0.00176511
0.00176822
0.00175558
0.00175399
0.00174907
0.0017551
0.0017607
0.00177337
0.00179147
0.000993536
0.000488138
0.000277071
0.00018014
0.00012814
9.70841e-05
7.75932e-05
6.38137e-05
5.57766e-05
4.76656e-05
0.00179269
0.0017789
0.00175682
0.00176096
0.00176362
0.00176734
0.00175471
0.00175332
0.00174898
0.00175538
0.00176055
0.00177485
0.00179388
0.000982945
0.000483492
0.000275433
0.000178597
0.000127656
9.64898e-05
7.71382e-05
6.35402e-05
5.57069e-05
4.77001e-05
0.00178939
0.00177566
0.00175954
0.00176065
0.00176477
0.00176727
0.00175464
0.00175251
0.00174856
0.00175489
0.00176071
0.00177575
0.00179554
0.000971772
0.000479151
0.000273199
0.000178
0.000126921
9.61614e-05
7.72057e-05
6.3641e-05
5.57718e-05
4.79413e-05
0.0017899
0.00177662
0.00175532
0.00175957
0.00176355
0.00176647
0.00175364
0.00175164
0.00174828
0.00175519
0.00176074
0.00177703
0.00180091
0.000964428
0.000475217
0.000272165
0.000177071
0.000127086
9.61154e-05
7.72438e-05
6.38343e-05
5.61066e-05
4.84403e-05
0.00178658
0.00177243
0.00175781
0.00175971
0.00176435
0.0017665
0.00175365
0.0017511
0.00174839
0.00175478
0.0017609
0.00177799
0.00180146
0.000956053
0.000471982
0.000270959
0.000177313
0.000127071
9.6605e-05
7.79729e-05
6.45637e-05
5.66754e-05
4.92309e-05
0.00178742
0.00177383
0.00175401
0.0017586
0.00176315
0.00176552
0.00175275
0.00175061
0.00174807
0.00175509
0.00176112
0.00177892
0.00180753
0.000946483
0.000469417
0.000270635
0.00017744
0.000128065
9.74274e-05
7.88207e-05
6.55449e-05
5.76805e-05
5.05018e-05
0.0017845
0.00176975
0.00175637
0.00175924
0.00176343
0.00176575
0.00175276
0.00175035
0.00174841
0.00175484
0.00176152
0.00177922
0.00180776
0.000944092
0.000467745
0.000271302
0.00017874
0.000129442
9.90099e-05
8.05752e-05
6.74629e-05
5.91292e-05
5.22638e-05
0.00178535
0.00177013
0.00175324
0.00175806
0.00176259
0.00176457
0.00175212
0.00175008
0.00174841
0.00175514
0.00176171
0.00177949
0.00180582
0.000937743
0.000468027
0.000272147
0.000180852
0.000131785
0.000101299
8.25914e-05
6.97126e-05
6.12533e-05
5.46631e-05
0.0017834
0.00176748
0.00175538
0.0017588
0.00176231
0.00176459
0.00175214
0.00175034
0.00174891
0.00175521
0.00176239
0.00178144
0.00180599
0.000929915
0.000469369
0.00027509
0.000183641
0.000134696
0.000104298
8.58619e-05
7.31944e-05
6.43234e-05
5.78672e-05
0.0017836
0.00176626
0.00175292
0.00175756
0.00176157
0.00176344
0.00175162
0.00175031
0.00174889
0.0017554
0.00176336
0.00178406
0.00180909
0.000924898
0.000471079
0.000277743
0.000188097
0.000139201
0.000108714
8.97995e-05
7.73611e-05
6.85503e-05
6.23816e-05
0.00178276
0.00176493
0.00175498
0.00175834
0.00176136
0.00176286
0.00175171
0.00175048
0.00174973
0.00175574
0.00176479
0.00178932
0.00181689
0.000932022
0.000478426
0.00028366
0.000193343
0.000144061
0.000113723
9.53923e-05
8.3056e-05
7.41628e-05
6.81841e-05
0.00178277
0.00176305
0.00175337
0.00175713
0.00176038
0.00176156
0.00175162
0.00175077
0.00174998
0.00175621
0.00176854
0.00179569
0.0018271
0.00093278
0.000482704
0.000288997
0.000200236
0.000151234
0.000120806
0.000101933
8.98385e-05
8.12784e-05
7.60366e-05
0.00178206
0.00176206
0.00175477
0.00175776
0.00176025
0.0017605
0.00175139
0.00175114
0.00175028
0.00175627
0.00177465
0.0018079
0.00184601
0.000927242
0.000486083
0.000294561
0.000207232
0.000158385
0.000128329
0.000110614
9.88256e-05
9.06948e-05
8.59206e-05
0.0017825
0.00176065
0.00175348
0.00175673
0.00175957
0.00175932
0.00175144
0.00175085
0.00175052
0.00175724
0.0017833
0.00182048
0.00186328
0.000928487
0.000492317
0.000302137
0.00021626
0.000168139
0.000138574
0.000120627
0.000108961
0.000101288
9.75129e-05
0.00178143
0.00175999
0.0017549
0.00175725
0.00175934
0.00175805
0.00175139
0.00175073
0.00175099
0.00176038
0.00179563
0.00184127
0.0018929
0.000931825
0.000500222
0.000311075
0.000226328
0.000178421
0.00014886
0.000131858
0.000120894
0.000114356
0.000111723
0.00178239
0.00175851
0.00175338
0.00175634
0.00175822
0.00175684
0.00175113
0.00175082
0.00175037
0.0017692
0.00181333
0.0018641
0.00192335
0.000937879
0.000507811
0.000320723
0.000237253
0.000190402
0.000162113
0.000145762
0.000135016
0.000129433
0.000128477
0.00178095
0.00175794
0.00175465
0.00175677
0.00175803
0.00175586
0.0017506
0.00175012
0.00175091
0.0017832
0.00183349
0.00189295
0.00196196
0.000944816
0.00052073
0.000333142
0.000250229
0.000204456
0.000176124
0.00016053
0.00015146
0.000147848
0.000148371
0.00178205
0.00175642
0.00175302
0.00175561
0.00175687
0.00175418
0.00175075
0.00174905
0.001754
0.00180196
0.00186129
0.00192753
0.00200669
0.000953988
0.000536744
0.0003451
0.000263904
0.000219386
0.000193079
0.000179532
0.000170699
0.00016834
0.000170849
0.00178086
0.00175572
0.00175409
0.00175608
0.00175596
0.00175324
0.0017498
0.00175087
0.00176351
0.00182422
0.0018892
0.00196348
0.00205249
0.000963813
0.000547864
0.000361116
0.000279148
0.000236361
0.000211496
0.000198316
0.00019254
0.000192826
0.000197086
0.00178149
0.00175388
0.00175274
0.00175537
0.00175465
0.00175249
0.00174887
0.00175925
0.00178076
0.00185258
0.00192688
0.00200736
0.00208079
0.000979595
0.00055745
0.000377097
0.000297236
0.000255915
0.000232681
0.000223475
0.000218121
0.000220112
0.000226409
0.00178082
0.00175307
0.00175316
0.00175494
0.00175441
0.00175112
0.00175108
0.0017735
0.00180216
0.00188263
0.00196199
0.0020495
0.00209609
0.000994599
0.000571747
0.00039511
0.00031408
0.000275237
0.000255492
0.000247227
0.000246542
0.00025162
0.000259635
0.00178086
0.00175117
0.00175219
0.00175432
0.00175209
0.00174958
0.0017597
0.00179382
0.00182944
0.00192022
0.00200685
0.00209864
0.00213926
0.00102712
0.000597869
0.000418833
0.000337921
0.000300102
0.000282481
0.000279706
0.000280365
0.000286913
0.000295636
0.00178066
0.00174969
0.00175281
0.00175503
0.00175219
0.00175248
0.00177436
0.00181716
0.00186025
0.00195785
0.00204801
0.00214303
0.00217488
0.00105274
0.000617767
0.000438418
0.000357066
0.000323095
0.000309603
0.000310051
0.000316706
0.000324945
0.000337161
0.00177982
0.00174769
0.00175128
0.00175363
0.00175349
0.00176174
0.00179434
0.00184624
0.00189737
0.00200143
0.00209252
0.00218322
0.0022687
0.00111118
0.00065805
0.000467992
0.000384775
0.000350207
0.000342491
0.00035
0.000358184
0.000370289
0.000383955
0.00178035
0.00174656
0.00175159
0.00175315
0.00176251
0.00177818
0.00181726
0.0018786
0.00193648
0.00204117
0.00212931
0.00221738
0.00231941
0.00115012
0.00068389
0.000490659
0.000406756
0.000380575
0.000376501
0.00038979
0.000409101
0.000420326
0.00044058
0.0017783
0.00174406
0.00175138
0.00175645
0.00177581
0.00179888
0.00184602
0.00191677
0.00197801
0.00207882
0.00216157
0.00223777
0.00232818
0.00122876
0.000732204
0.000526199
0.000437575
0.000405224
0.000410001
0.000436094
0.000459771
0.000480036
0.000512655
0.00177909
0.00174234
0.00175097
0.00176696
0.00179492
0.00182385
0.00187837
0.00195536
0.00201511
0.00210959
0.00218713
0.00225771
0.00234198
0.00127932
0.000763641
0.000548953
0.000459667
0.00043974
0.000451749
0.000489387
0.000529987
0.000560065
0.000614237
0.00177708
0.00174173
0.00174942
0.00178356
0.00181777
0.00185355
0.0019142
0.00199489
0.00204816
0.0021365
0.00220612
0.00226229
0.0023321
0.00137852
0.000823598
0.000590211
0.000492668
0.000463967
0.000483508
0.000535105
0.000603218
0.000664294
0.00071691
0.00177661
0.00174014
0.00175329
0.00180398
0.00184294
0.00188789
0.00194959
0.0020277
0.00207509
0.00215467
0.00221678
0.00226731
0.00233163
0.00143813
0.000857702
0.000613237
0.00051123
0.000489538
0.000515003
0.000596367
0.000698037
0.00075367
0.000678476
0.00177524
0.00173835
0.00176342
0.00182946
0.001874
0.00192423
0.00198263
0.0020571
0.00209663
0.00216733
0.00222047
0.00225789
0.00230993
0.00155117
0.00092443
0.000656521
0.000544111
0.000517248
0.000550994
0.00063315
0.000773374
0.000747901
0.000726743
0.00177443
0.00174052
0.00177763
0.00185721
0.00190691
0.00195947
0.00201028
0.00207879
0.00211019
0.00217082
0.00221659
0.00225103
0.0022997
0.00161761
0.000961254
0.000678761
0.0005591
0.000530169
0.000565307
0.000681152
0.00078735
0.000697691
0.000704264
0.00177303
0.00175031
0.00179738
0.00188924
0.00194377
0.00199097
0.00203487
0.00209562
0.00211754
0.00216883
0.00220723
0.00223247
0.00227145
0.001741
0.00103432
0.000725656
0.000593122
0.000560521
0.000603749
0.000733506
0.000782948
0.000766554
0.000815752
0.00177167
0.00176527
0.00181827
0.00192493
0.00197678
0.00201875
0.00205258
0.00210347
0.0021171
0.0021597
0.00219238
0.0022183
0.00225637
0.0018122
0.00107244
0.000749377
0.000609609
0.000586068
0.000648718
0.000856051
0.000696001
0.000623579
0.000668929
0.00177254
0.00178517
0.00184441
0.00196072
0.00200778
0.00204126
0.00206517
0.00210609
0.00211171
0.00214647
0.00217494
0.00219654
0.0022263
0.00194462
0.00115072
0.00080385
0.000656303
0.000624962
0.000763472
0.000756035
0.000660362
0.000697958
0.000823893
0.00177202
0.00180735
0.00187203
0.00199836
0.00203214
0.00205924
0.00207099
0.0021013
0.0021005
0.00212905
0.00215391
0.00217909
0.00221059
0.00201956
0.00119317
0.000833966
0.000689155
0.000737072
0.000924971
0.000736555
0.000617433
0.000647473
0.000784177
0.00177074
0.00183407
0.00190375
0.00202894
0.00205252
0.00206956
0.0020709
0.0020923
0.00208669
0.00210956
0.00213349
0.00215902
0.00218174
0.00212417
0.00128696
0.000914872
0.000785717
0.000834224
0.000846738
0.000644618
0.000639662
0.000772803
0.00093903
0.00177641
0.00186244
0.00193685
0.0020596
0.00206784
0.00207583
0.0020663
0.0020787
0.00206873
0.00208746
0.00210997
0.00214081
0.00216687
0.00210424
0.00134784
0.000969557
0.000862738
0.00106261
0.000782619
0.000624261
0.000626259
0.000768774
0.00101527
0.00178715
0.00189731
0.00197328
0.00208078
0.00207498
0.00207364
0.00205537
0.00206124
0.00204915
0.00206402
0.00208784
0.00212282
0.00214086
0.00206865
0.00146702
0.00109846
0.00106969
0.000997095
0.000738456
0.000618217
0.000708323
0.000936146
0.00128265
0.0018048
0.00193223
0.00200385
0.00209914
0.00207706
0.00206701
0.00204202
0.00204218
0.00202774
0.00204003
0.00206476
0.00210608
0.00212579
0.0020489
0.00153778
0.00118562
0.00120477
0.000987365
0.000685832
0.00061283
0.000758426
0.00111005
0.00175251
0.00182405
0.00196944
0.00202888
0.00210727
0.00207066
0.00205524
0.00202578
0.00202255
0.00200777
0.00201791
0.00204517
0.00209224
0.00210511
0.00201718
0.00168269
0.00136674
0.0012906
0.000925242
0.000705011
0.000652467
0.000865338
0.00129778
0.00206226
0.00184531
0.00200439
0.00204755
0.00211112
0.00206177
0.00204131
0.00200947
0.00200388
0.00198819
0.00199697
0.00202638
0.00208002
0.00209149
0.00199972
0.00176417
0.00148204
0.00131212
0.000949596
0.000662437
0.000637699
0.000907786
0.00143894
0.00251425
0.00186812
0.0020386
0.00206301
0.00210741
0.00204725
0.00202515
0.00199267
0.00198588
0.00197077
0.00197844
0.00201092
0.00207054
0.00207594
0.00197193
0.00176037
0.00153302
0.00133859
0.000917971
0.000636117
0.000673226
0.00102608
0.00159822
0.00268949
0.00189124
0.00206185
0.00207228
0.00209977
0.00203202
0.00200871
0.0019768
0.00196975
0.0019547
0.00196181
0.00199681
0.00206256
0.00206438
0.00195346
0.00174941
0.00155222
0.0013544
0.000904786
0.000647817
0.000701839
0.00107534
0.00167154
0.00285319
0.00191349
0.00207705
0.00207759
0.0020875
0.00201378
0.00199149
0.00196136
0.00195448
0.0019406
0.00194728
0.00198535
0.00205655
0.00205164
0.00192981
0.00173438
0.00158067
0.00134162
0.000857785
0.000650511
0.000761331
0.00117432
0.00175449
0.00288051
0.00193396
0.00208485
0.00207755
0.00207354
0.00199723
0.00197624
0.00194815
0.00194216
0.00192915
0.00193585
0.00197622
0.00205224
0.00204221
0.00191245
0.00172986
0.00158557
0.00131088
0.000831142
0.00065011
0.00081411
0.00124203
0.00175564
0.00270729
0.00194978
0.00208787
0.00207476
0.00205871
0.00198054
0.00196174
0.00193605
0.00193077
0.00191934
0.00192594
0.00196868
0.00204909
0.00203324
0.00189599
0.00172323
0.00159092
0.00125013
0.000801638
0.000654103
0.000858663
0.0013151
0.00175878
0.00254439
0.00196078
0.00208594
0.00206823
0.00204245
0.00196472
0.00194778
0.00192436
0.00192041
0.00191039
0.00191727
0.00196217
0.00204678
0.00202462
0.00187828
0.00171199
0.00155823
0.00117843
0.000770463
0.000678625
0.000938146
0.00132528
0.00172806
0.00242487
0.00196619
0.00207908
0.00205889
0.00202555
0.00194902
0.00193435
0.0019135
0.00191059
0.00190258
0.00190978
0.00195689
0.00204517
0.0020158
0.00186039
0.00169842
0.00151786
0.00109759
0.000747055
0.000716733
0.00095366
0.00133155
0.00174043
0.00235118
0.00196895
0.00206861
0.0020463
0.00200807
0.00193442
0.00192146
0.00190294
0.00190161
0.00189549
0.00190313
0.00195234
0.00204404
0.00200696
0.00183877
0.00166558
0.00145159
0.00103077
0.000725351
0.000706872
0.000955934
0.00133557
0.00177033
0.00230363
0.00196756
0.00205407
0.00203177
0.00199069
0.00192098
0.00190946
0.00189332
0.00189311
0.00188907
0.0018975
0.00194875
0.00204327
0.00199707
0.00181545
0.00162926
0.00138136
0.000966254
0.000706384
0.00070376
0.000975269
0.00136174
0.00176242
0.0022656
0.00196404
0.00203839
0.00201534
0.00197384
0.00190871
0.00189828
0.00188433
0.00188563
0.00188352
0.00189239
0.00194571
0.00204271
0.00198695
0.00178684
0.0015775
0.00131085
0.000916128
0.000689359
0.000701066
0.000957798
0.00136722
0.00176439
0.00223903
0.00195884
0.0020205
0.00199857
0.00195791
0.00189839
0.00188822
0.00187636
0.00187858
0.00187819
0.00188817
0.00194337
0.00204231
0.00197527
0.0017548
0.0015178
0.00124159
0.000870409
0.000684149
0.000698987
0.000958257
0.00134697
0.00170948
0.00219217
0.00195203
0.00200366
0.00198155
0.00194319
0.00188918
0.00187958
0.00186954
0.00187277
0.00187394
0.0018843
0.00194147
0.00204188
0.00196298
0.00171892
0.00145486
0.00116825
0.000834516
0.000679197
0.000696737
0.000939767
0.00128694
0.00162747
0.00211835
0.00194552
0.00198635
0.0019656
0.00193007
0.00188214
0.00187184
0.00186358
0.0018675
0.0018696
0.00188103
0.00194003
0.00204153
0.00194925
0.00168067
0.00138291
0.00111258
0.000792588
0.000678092
0.000691464
0.00090684
0.00121079
0.00152928
0.00201474
0.00193909
0.00197114
0.00195085
0.00191836
0.00187606
0.00186601
0.00185912
0.00186317
0.00186651
0.0018784
0.00193897
0.00204103
0.00193505
0.00163871
0.00131553
0.00105356
0.000758198
0.000673629
0.000681921
0.00086706
0.00112605
0.00142114
0.00188587
0.00193259
0.00195698
0.00193784
0.00190858
0.0018717
0.00186097
0.00185534
0.00185985
0.00186291
0.00187544
0.00193818
0.00204053
0.00191981
0.00159514
0.00124409
0.000986483
0.000746394
0.000675778
0.000673225
0.000824416
0.0010379
0.00130711
0.00173713
0.00192878
0.00194454
0.00192672
0.0019
0.00186854
0.00185734
0.00185275
0.00185683
0.00186071
0.00187399
0.00193765
0.00203948
0.00190339
0.0015501
0.00117617
0.000931511
0.000745764
0.000663216
0.000662736
0.000781243
0.000951288
0.00118962
0.00157878
0.00192361
0.00193433
0.00191776
0.00189371
0.00186582
0.00185505
0.00185118
0.00185494
0.00185823
0.00187159
0.0019374
0.00203921
0.00188744
0.00150637
0.00110333
0.000877095
0.000736319
0.000649806
0.000652141
0.000738798
0.000868216
0.00107244
0.0014152
0.0019215
0.00192557
0.0019102
0.00188801
0.00186466
0.00185317
0.00184978
0.00185333
0.00185614
0.0018698
0.00193699
0.00203691
0.00187067
0.00145515
0.00104297
0.000840436
0.00072193
0.000634319
0.000638534
0.000698007
0.000791312
0.000959419
0.00125228
0.00191935
0.00191792
0.0019046
0.00188429
0.00186363
0.0018525
0.00184973
0.00185221
0.00185282
0.00186921
0.00193707
0.00203583
0.00185293
0.00140717
0.00099105
0.000801458
0.000701728
0.000616164
0.000623598
0.000658642
0.000721215
0.00085346
0.00109657
0.00191736
0.00191358
0.00190087
0.00188197
0.00186239
0.00185265
0.00184967
0.00185165
0.00185025
0.00186643
0.00193668
0.00203316
0.00183454
0.00136234
0.000939027
0.00077377
0.000666374
0.000594056
0.000604949
0.000621586
0.000659393
0.000759882
0.000954859
0.00191659
0.00190754
0.00189665
0.00187901
0.00186307
0.00185231
0.00184972
0.00185089
0.00184832
0.00186479
0.00193637
0.00203026
0.00181627
0.00131595
0.000889619
0.000737626
0.00063155
0.00056919
0.000584733
0.000586155
0.000605462
0.000677901
0.000828632
0.00191681
0.00190546
0.0018955
0.00187969
0.00186203
0.00185392
0.00185112
0.00185144
0.00184709
0.00186403
0.00193576
0.00202567
0.00179746
0.00127194
0.000842293
0.000695826
0.000587489
0.000542156
0.000561269
0.000553464
0.000559567
0.00061031
0.000725
0.00191302
0.00190264
0.0018934
0.00187764
0.00186164
0.0018539
0.00185092
0.00184924
0.00184432
0.00186456
0.0019353
0.00202027
0.00177713
0.00122972
0.000802572
0.000647986
0.000544134
0.000515058
0.000537639
0.00052367
0.000522511
0.000556887
0.00063743
0.00191402
0.00189911
0.00189112
0.00187778
0.00186237
0.00185505
0.00185204
0.00184669
0.00184462
0.00186403
0.00193317
0.00201491
0.00175757
0.00119252
0.000767077
0.000604109
0.000504628
0.000489056
0.000514031
0.000497972
0.00049244
0.000516098
0.000581197
0.00191143
0.00189818
0.00189041
0.00187772
0.00185852
0.00185682
0.00185269
0.00184606
0.0018435
0.00186373
0.00193114
0.00200766
0.00173909
0.00116482
0.00073143
0.00056342
0.000473182
0.000466467
0.000492916
0.00047716
0.000472227
0.000488186
0.000526924
0.00190306
0.00189578
0.00188908
0.00187623
0.00185392
0.00185294
0.00185227
0.00184514
0.00184227
0.00186361
0.00192994
0.00199879
0.00172237
0.00113757
0.00070595
0.000534638
0.000448667
0.00044772
0.000474087
0.000462092
0.000460119
0.000477076
0.000509079
0.00189683
0.00188838
0.00188299
0.00187244
0.00185257
0.00185096
0.0018493
0.00184241
0.00184205
0.00186346
0.00192941
0.00198914
0.00170695
0.00111594
0.000691634
0.000515414
0.000431317
0.000435161
0.000461548
0.000454152
0.000456163
0.000469727
0.000515848
0.00188932
0.00188388
0.00187816
0.0018711
0.00184925
0.00184752
0.00184609
0.00184184
0.00184047
0.00186282
0.00192965
0.00197978
0.00169386
0.00110641
0.000686872
0.000505062
0.00042159
0.000428571
0.000455171
0.000453026
0.000461888
0.000480143
0.00054647
0.00187948
0.00187678
0.00186859
0.00186197
0.00184516
0.00184592
0.00184393
0.00184062
0.00184124
0.00186262
0.00192798
0.00197034
0.00168647
0.00110598
0.000692049
0.000502949
0.00041975
0.000430049
0.000457683
0.000460207
0.000472061
0.000496565
0.000584763
0.00187092
0.00186983
0.00186492
0.00186104
0.00184002
0.00184444
0.00184272
0.00183948
0.00183938
0.0018628
0.00192667
0.00196071
0.00168303
0.00111505
0.000706897
0.000509138
0.000426005
0.000438924
0.000469735
0.000474126
0.000490033
0.000523007
0.00062781
0.00186049
0.00185973
0.00185782
0.00185338
0.00183702
0.00183818
0.00183744
0.00183935
0.00184019
0.0018632
0.00192476
0.00195204
0.00168515
0.00113354
0.00073182
0.000522694
0.000440221
0.000456642
0.000489521
0.000492489
0.000513919
0.000551539
0.000670183
0.00184958
0.00185236
0.00185224
0.00184825
0.00183496
0.00183677
0.00183605
0.00183871
0.00184076
0.00186264
0.00192243
0.0019453
0.00169118
0.00116039
0.000765798
0.000542924
0.000462481
0.000481992
0.000519264
0.000517601
0.000537921
0.000580973
0.000712264
0.00184879
0.00184463
0.00184856
0.00184492
0.00183394
0.00183415
0.00183619
0.00183697
0.00183897
0.00186238
0.00191992
0.00194031
0.00170153
0.00119627
0.00080894
0.00056886
0.000491363
0.000514844
0.000553452
0.000539129
0.000560427
0.000613124
0.000765216
0.00185037
0.00184498
0.00184773
0.00184453
0.00183387
0.0018339
0.00183465
0.00183486
0.00183978
0.0018614
0.00191821
0.00193689
0.00171563
0.00123827
0.000858156
0.000598644
0.000526566
0.000553575
0.00059302
0.000566685
0.000581797
0.000655512
0.000842364
0.00184577
0.00184364
0.00185015
0.00184382
0.00183386
0.00183346
0.00183372
0.00183571
0.00183955
0.00186207
0.00191611
0.00193585
0.00173302
0.00128653
0.000912321
0.000630072
0.000565665
0.000593836
0.00063206
0.000591803
0.000608579
0.000689125
0.000908207
0.00184688
0.00184021
0.00184709
0.00184223
0.00183442
0.00183475
0.00183446
0.00183342
0.00183937
0.00186217
0.00191395
0.00193567
0.00175231
0.00133671
0.000965292
0.000662857
0.000606464
0.000637595
0.000668194
0.000612993
0.000630849
0.000725746
0.000967449
0.00184485
0.00183823
0.00184815
0.0018399
0.00183318
0.00183344
0.00183405
0.0018336
0.00184093
0.00186221
0.00191216
0.00193786
0.00177355
0.00138881
0.00101852
0.000692831
0.000647034
0.000677892
0.000700537
0.000636394
0.000663629
0.000750233
0.00103428
0.00184349
0.00183895
0.00184334
0.00184012
0.00183509
0.00183305
0.00183374
0.00183331
0.00183987
0.00186214
0.00191105
0.00194033
0.00179228
0.00143747
0.00105601
0.000720136
0.000684573
0.000714688
0.000731065
0.000657089
0.000693143
0.000780415
0.00112458
0.00184288
0.00183911
0.00184397
0.00183825
0.00183407
0.00183285
0.00183102
0.00183274
0.00184023
0.00186233
0.00190982
0.00194401
0.00181325
0.00148058
0.0011042
0.000745042
0.000717312
0.000745429
0.000753062
0.000693406
0.000723832
0.000791703
0.00120827
0.00184203
0.00183825
0.0018441
0.00183799
0.00183418
0.00183291
0.00183064
0.00183257
0.00184168
0.00186224
0.00190921
0.00194881
0.00182581
0.00152252
0.00111062
0.00076246
0.00074518
0.000766842
0.000778505
0.000719597
0.000740188
0.000835534
0.00126894
0.00184155
0.00183661
0.00184328
0.00183896
0.00183185
0.00183232
0.00182976
0.00183217
0.00184115
0.00186126
0.00190867
0.00195109
0.00184417
0.00155154
0.00111783
0.000783474
0.00076436
0.000790457
0.000791124
0.000745752
0.000756324
0.000847263
0.00148153
0.0018397
0.00183491
0.00184036
0.00183881
0.00183157
0.00183269
0.00183057
0.00183171
0.00183913
0.00186191
0.00190758
0.00195823
0.00184721
0.00155714
0.00112472
0.000790225
0.000787187
0.000796726
0.00080793
0.000779722
0.000779866
0.000914364
0.00143309
0.00183939
0.00183882
0.00183863
0.00183824
0.00183257
0.00182877
0.00183012
0.00183409
0.00183841
0.00186231
0.00190782
0.00196051
0.00185083
0.00156388
0.00112522
0.000792879
0.000797977
0.000808351
0.000814421
0.000802984
0.000803423
0.000933575
0.00143295
0.00183728
0.00183587
0.00183817
0.00183892
0.00183069
0.00183031
0.00182714
0.00183397
0.00183913
0.00186115
0.00190624
0.00196364
0.00186386
0.00159809
0.00116815
0.000811592
0.000812198
0.00081869
0.00083992
0.000830101
0.000821332
0.000914236
0.00129079
0.00183254
0.00183663
0.00183657
0.00184089
0.00182973
0.00182763
0.00182921
0.00183246
0.00183911
0.00186017
0.00190544
0.00196634
0.00187489
0.00162782
0.0012091
0.000831301
0.000825671
0.000829561
0.000855158
0.000862153
0.000843306
0.000916026
0.00121062
0.001837
0.00184026
0.00183355
0.00184052
0.00182911
0.0018296
0.00182344
0.00183104
0.00183852
0.00185854
0.00190445
0.00196859
0.00188461
0.00165459
0.00124912
0.000847081
0.000828488
0.000833337
0.00085697
0.000883152
0.000850661
0.000913584
0.00116904
0.001835
0.00183795
0.00183489
0.00183806
0.00182888
0.00182594
0.00182546
0.00182854
0.00183331
0.00185716
0.00190333
0.00197049
0.00189324
0.00167906
0.00128827
0.00088055
0.000842984
0.000840352
0.000857275
0.000884508
0.000865812
0.000916714
0.00113772
0.00183276
0.00183358
0.00183566
0.00183983
0.00182923
0.00182665
0.00182494
0.0018245
0.00183452
0.00185507
0.00190179
0.00197185
0.00190142
0.00170256
0.00132795
0.000904444
0.000862784
0.000842551
0.000858024
0.000892657
0.000869816
0.000918345
0.00113367
0.00183173
0.00183273
0.00183524
0.0018347
0.00182904
0.00182736
0.00182521
0.00182455
0.00183454
0.0018535
0.00189989
0.00197286
0.00190888
0.00172573
0.00136948
0.00092853
0.000882739
0.000853141
0.000858163
0.000901157
0.000900798
0.000929075
0.00112836
0.0018273
0.00183714
0.00183256
0.00182496
0.00182906
0.00182761
0.00182284
0.00182847
0.00183652
0.00185187
0.00189724
0.00197367
0.00191682
0.0017496
0.00141193
0.000964073
0.000900299
0.000866425
0.000839273
0.000912567
0.000915302
0.00093353
0.0010926
0.00182342
0.00183514
0.0018303
0.00182368
0.00183244
0.00183037
0.00181975
0.00183286
0.00183417
0.0018498
0.00189437
0.00197389
0.00192469
0.00177316
0.00145864
0.00101302
0.000917955
0.000891897
0.000862138
0.000895572
0.00092069
0.00092303
0.0012601
0.00183259
0.00182507
0.00182904
0.00183131
0.00183731
0.00183532
0.00181354
0.001833
0.0018391
0.00184838
0.00189116
0.00197334
0.00193322
0.00179942
0.00150223
0.00105781
0.000939857
0.000899364
0.000893469
0.000873019
0.000946046
0.000970495
0.00136739
0.00183931
0.00181476
0.00182431
0.00184048
0.00183509
0.00183326
0.00181476
0.0018321
0.0018393
0.00184688
0.00188723
0.00197217
0.00194115
0.00182601
0.00155318
0.00111489
0.00095403
0.000930264
0.000941118
0.000931573
0.000933009
0.00103527
0.00149012
0.00183538
0.00180299
0.00181748
0.00183137
0.00182674
0.00182381
0.0018212
0.00182382
0.00183295
0.001845
0.00188288
0.00196893
0.00194976
0.00185417
0.00160696
0.00118616
0.00099271
0.000965737
0.000982108
0.000982748
0.000975666
0.00115851
0.00145008
0.00183147
0.00180392
0.00180569
0.00181975
0.0018238
0.00181929
0.00182348
0.00182235
0.00183077
0.0018428
0.00187787
0.00196537
0.00195627
0.00187847
0.00166056
0.00127487
0.00100352
0.000999131
0.00101232
0.00103187
0.00121251
0.00132901
0.00157486
0.00182967
0.00181489
0.00180785
0.00181598
0.001822
0.00181581
0.0018239
0.00182402
0.00182963
0.00184066
0.00187254
0.00195803
0.00196464
0.00189939
0.00172167
0.00137619
0.00104723
0.001003
0.00104201
0.00109576
0.00124549
0.0014165
0.00177868
0.00182685
0.00181828
0.00182061
0.0018086
0.00181986
0.00181325
0.00182292
0.0018243
0.00182835
0.00183852
0.00186703
0.0019495
0.00196924
0.00191863
0.00177495
0.0014782
0.00112927
0.00098727
0.00103388
0.00113422
0.00136187
0.00163618
0.00193618
0.00182346
0.00181899
0.00182299
0.0018103
0.0018174
0.00181254
0.00182131
0.00182311
0.00182672
0.00183643
0.00186159
0.00193812
0.00197161
0.00193824
0.00182091
0.00157317
0.00122523
0.00102258
0.00105664
0.00105864
0.00146778
0.00159159
0.00210959
0.00181969
0.00181832
0.00182383
0.00181643
0.00181457
0.00181219
0.00181909
0.00182087
0.00182484
0.00183427
0.0018562
0.00192421
0.00197019
0.0019558
0.00186239
0.00166239
0.00134777
0.00107388
0.00109849
0.0011138
0.00137122
0.00167149
0.00227151
0.00181559
0.00181712
0.00182373
0.0018168
0.00181167
0.00181146
0.00181639
0.00181816
0.00182276
0.00183184
0.00185079
0.00190981
0.00196341
0.00196794
0.00189845
0.00174576
0.0014779
0.00119003
0.00109542
0.00121461
0.00145025
0.00189467
0.00212922
0.00181114
0.00181546
0.00182177
0.00181518
0.00180894
0.0018101
0.00181355
0.00181519
0.00182024
0.0018288
0.00184492
0.00189032
0.00195827
0.00197249
0.00192628
0.00181852