/*--------------------------------*- C++ -*----------------------------------*\
  =========                 |
  \\      /  F ield         | OpenFOAM: The Open Source CFD Toolbox
   \\    /   O peration     | Website:  https://openfoam.org
    \\  /    A nd           | Version:  7
     \\/     M anipulation  |
\*---------------------------------------------------------------------------*/
FoamFile
{
    version     2.0;
    format      ascii;
    class       volScalarField;
    location    "82";
    object      omega;
}
// * * * * * * * * * * * * * * * * * * * * * * * * * * * * * * * * * * * * * //

dimensions      [0 0 -1 0 0 0 0];

internalField   nonuniform List<scalar> 
12842
(
3.1466
2.83994
2.65125
2.52608
2.4411
2.37278
2.326
2.2919
2.26846
2.2528
2.24014
2.23641
2.24006
2.25008
2.2806
2.32395
2.41387
2.51324
2.64139
2.75225
2.91442
3.01722
3.16725
3.12844
2.82263
2.63738
2.50538
2.42474
2.36539
2.32308
2.29008
2.26703
2.25141
2.23895
2.23528
2.23935
2.25115
2.27753
2.32874
2.40962
2.5057
2.64361
2.74918
2.90931
3.00991
3.16454
3.10965
2.78758
2.60531
2.48894
2.41304
2.3515
2.31117
2.28053
2.26014
2.24549
2.23476
2.23268
2.23776
2.25151
2.27912
2.32916
2.41295
2.51304
2.65378
2.7624
2.92559
3.01972
3.16309
3.08512
2.76228
2.5788
2.45712
2.38865
2.33652
2.30407
2.27595
2.25714
2.24308
2.23309
2.23167
2.23774
2.25263
2.28184
2.33334
2.41818
2.51961
2.66271
2.77164
2.93867
3.04039
3.19557
3.05663
2.72356
2.54747
2.43785
2.37204
2.32263
2.29151
2.26585
2.25001
2.23747
2.22932
2.23
2.23746
2.25446
2.28734
2.34448
2.4344
2.54815
2.68599
2.79064
2.95436
3.04941
3.19498
3.03029
2.69633
2.52405
2.41106
2.3514
2.30654
2.28236
2.26008
2.24669
2.23498
2.22772
2.22911
2.2374
2.25554
2.29043
2.35005
2.44111
2.56406
2.70319
2.82512
2.99755
3.08904
3.21929
3.00006
2.65959
2.49512
2.393
2.3351
2.29427
2.27248
2.25216
2.24035
2.23
2.22464
2.22753
2.23762
2.25798
2.29641
2.36216
2.46108
2.59361
2.71833
2.84806
3.01279
3.1234
3.25329
2.97429
2.63491
2.47557
2.37273
2.31954
2.28038
2.26305
2.24565
2.23681
2.22757
2.2232
2.2264
2.23754
2.25921
2.29908
2.36735
2.46729
2.61576
2.7464
2.89821
3.04958
3.16672
3.29366
2.94522
2.60524
2.45217
2.35835
2.30588
2.27113
2.25605
2.24034
2.23241
2.22384
2.22084
2.22482
2.23739
2.2594
2.30166
2.37363
2.4815
2.62935
2.75468
2.91946
3.06913
3.21133
3.33852
2.91521
2.57796
2.43379
2.34274
2.29515
2.26125
2.24908
2.23532
2.22962
2.22183
2.21988
2.22405
2.2371
2.26035
2.30305
2.37781
2.48644
2.64928
2.77765
2.94674
3.09045
3.23712
3.35885
2.88495
2.55294
2.41362
2.33078
2.28402
2.25408
2.24347
2.23135
2.22624
2.21907
2.21811
2.22303
2.23839
2.26166
2.30726
2.3847
2.50237
2.6605
2.79281
2.98045
3.1216
3.29232
3.41606
2.85316
2.52685
2.39729
2.31743
2.27504
2.2459
2.23778
2.22692
2.22354
2.21713
2.21714
2.22228
2.23864
2.26345
2.31059
2.39341
2.50972
2.68715
2.81705
3.00275
3.15003
3.32707
3.4473
2.82465
2.50644
2.37983
2.30735
2.26595
2.2398
2.23243
2.22329
2.22058
2.21488
2.21564
2.22144
2.23793
2.26532
2.31571
2.40008
2.52994
2.69984
2.8486
3.05233
3.20548
3.40016
3.52982
2.79404
2.4834
2.36623
2.29591
2.25796
2.23308
2.22795
2.21962
2.21806
2.21303
2.21451
2.22074
2.23808
2.26839
2.32053
2.41245
2.54004
2.73194
2.87058
3.07921
3.23905
3.45467
3.58802
2.76762
2.46637
2.35094
2.28748
2.25078
2.22782
2.22298
2.21628
2.2155
2.21118
2.2132
2.21994
2.23839
2.27094
2.32644
2.41999
2.56346
2.74928
2.91819
3.14451
3.32532
3.54817
3.6971
2.73997
2.44727
2.34024
2.27768
2.2437
2.22222
2.21921
2.21315
2.21328
2.20947
2.21198
2.21926
2.23938
2.27635
2.33293
2.43463
2.57955
2.78417
2.94475
3.18052
3.37224
3.62607
3.79748
2.71622
2.4329
2.32656
2.27033
2.23782
2.21756
2.21472
2.21006
2.21077
2.20781
2.21077
2.21843
2.24044
2.28182
2.33966
2.44507
2.60347
2.81344
3.00453
3.26795
3.48699
3.75212
3.93956
2.69203
2.41745
2.31817
2.262
2.23171
2.21264
2.21128
2.20723
2.20891
2.20627
2.20956
2.2179
2.24265
2.28642
2.34909
2.46177
2.63048
2.84916
3.04615
3.31558
3.55135
3.85633
4.08638
2.67282
2.40538
2.30597
2.25516
2.22655
2.20848
2.20723
2.20423
2.20625
2.20466
2.20834
2.21676
2.24411
2.29148
2.35584
2.47695
2.65191
2.89047
3.11318
3.43026
3.70384
4.0192
4.26957
2.65396
2.39303
2.29903
2.24821
2.22132
2.20404
2.20397
2.20149
2.20451
2.20316
2.20717
2.21691
2.24623
2.30229
2.36802
2.49464
2.69171
2.93786
3.17821
3.49324
3.78805
4.15948
4.46942
2.63894
2.38279
2.28833
2.24155
2.21641
2.20025
2.2003
2.19845
2.20178
2.20158
2.20592
2.21617
2.24742
2.30452
2.38037
2.51243
2.71392
2.97901
3.24998
3.63276
3.97223
4.35149
4.68718
2.62406
2.37279
2.28225
2.23579
2.21179
2.19633
2.19715
2.19575
2.19991
2.19988
2.20479
2.21673
2.24867
2.30349
2.3907
2.5334
2.76385
3.05238
3.34416
3.72063
4.08462
4.53543
4.96041
2.61219
2.36396
2.27287
2.22917
2.20687
2.19274
2.19376
2.19265
2.19715
2.19826
2.20352
2.21639
2.25318
2.30301
2.40735
2.55072
2.78767
3.08878
3.41682
3.87285
4.3032
4.76805
5.20969
2.60193
2.35756
2.26869
2.22565
2.20363
2.19034
2.19132
2.19049
2.19545
2.19663
2.20243
2.21633
2.25396
2.30551
2.4192
2.57518
2.84511
3.18273
3.5492
4.00934
4.44794
4.98521
5.55762
2.59486
2.35208
2.26375
2.22203
2.20089
2.18881
2.1897
2.18874
2.19378
2.19541
2.20155
2.21593
2.25399
2.311
2.43396
2.59304
2.8801
3.23293
3.62108
4.15462
4.70331
5.30889
5.90146
2.58741
2.34787
2.26128
2.22012
2.19882
2.18759
2.18807
2.1874
2.19251
2.1941
2.20071
2.21702
2.25858
2.31718
2.44823
2.61547
2.93103
3.32575
3.7854
4.36449
4.91191
5.56307
6.28544
2.58052
2.34263
2.25673
2.2166
2.19609
2.18607
2.18671
2.18595
2.1911
2.19289
2.19982
2.21636
2.25613
2.32335
2.46364
2.64103
2.98429
3.40353
3.87291
4.4904
5.17065
5.95148
6.74681
2.57382
2.33847
2.25454
2.21487
2.19416
2.1851
2.18523
2.18494
2.18994
2.19155
2.19892
2.2171
2.26017
2.3304
2.47509
2.65666
3.01975
3.48298
4.04868
4.76638
5.4741
6.31718
7.22191
2.56706
2.3335
2.2503
2.21155
2.19154
2.18367
2.1841
2.18384
2.18867
2.19024
2.19793
2.21679
2.25861
2.3365
2.49088
2.69073
3.08799
3.60141
4.19228
4.9363
5.79143
6.77011
7.73833
2.56114
2.32943
2.24826
2.20986
2.18987
2.18287
2.18287
2.18312
2.1874
2.18893
2.19697
2.21671
2.25947
2.34392
2.51729
2.71128
3.13238
3.69172
4.37714
5.25809
6.14747
7.18819
8.24139
2.55439
2.32473
2.2442
2.20679
2.18755
2.18154
2.1819
2.18228
2.18613
2.18731
2.19605
2.21717
2.26147
2.34876
2.55089
2.74795
3.19497
3.81357
4.5649
5.45793
6.49647
7.65945
8.75856
2.54944
2.32086
2.24221
2.20494
2.18619
2.18086
2.18074
2.18152
2.18469
2.18587
2.19507
2.21892
2.26775
2.35877
2.55901
2.7936
3.28084
3.94606
4.76583
5.80603
6.88521
8.1041
9.25901
2.54256
2.31648
2.23819
2.20222
2.18429
2.17955
2.17962
2.18087
2.18288
2.18452
2.19467
2.22018
2.27222
2.36686
2.556
2.82644
3.33314
4.06368
4.96421
6.02816
7.23687
8.55636
9.74933
2.53859
2.3129
2.23619
2.20009
2.1831
2.17881
2.17842
2.1797
2.18147
2.183
2.19515
2.22599
2.28721
2.39052
2.58672
2.91496
3.46198
4.22731
5.1948
6.37941
7.63812
9.00651
10.1873
2.53184
2.30887
2.23214
2.19751
2.18158
2.1773
2.17687
2.17856
2.17992
2.18154
2.19548
2.23049
2.29751
2.40776
2.6124
2.96316
3.53383
4.37276
5.38953
6.6192
7.98297
9.37176
10.5994
2.52845
2.30563
2.23014
2.19526
2.1804
2.17631
2.17506
2.17767
2.17797
2.18179
2.20278
2.25122
2.33446
2.46181
2.6882
3.07099
3.67589
4.51188
5.61407
6.92828
8.29998
9.76876
10.9785
2.52226
2.30194
2.22613
2.19245
2.17863
2.17469
2.17367
2.17611
2.17657
2.18447
2.21214
2.26863
2.35994
2.49639
2.73532
3.13531
3.77165
4.71685
5.83997
7.18942
8.67019
10.0823
11.3147
2.51913
2.29886
2.22418
2.18997
2.17744
2.17284
2.17173
2.17397
2.17788
2.19611
2.23495
2.31098
2.42316
2.57849
2.83863
3.27503
3.93224
4.82589
6.00626
7.41594
8.87861
10.349
11.631
2.51367
2.29541
2.2203
2.18681
2.17557
2.17159
2.16925
2.17358
2.18521
2.21145
2.25659
2.34205
2.46396
2.62539
2.89747
3.34777
4.02967
5.03246
6.25503
7.71254
9.21298
10.6604
11.9569
2.51042
2.29213
2.21841
2.18403
2.17322
2.16968
2.16849
2.17644
2.20002
2.23555
2.29245
2.39939
2.54495
2.72963
3.02791
3.50374
4.21422
5.18831
6.43364
7.8797
9.42686
10.928
12.3702
2.50601
2.28875
2.2146
2.18065
2.17184
2.16706
2.17065
2.18705
2.22072
2.26385
2.32746
2.44329
2.59636
2.78616
3.09543
3.58588
4.30956
5.32996
6.61568
8.23618
9.87125
11.508
13.3314
2.50203
2.28487
2.21272
2.1772
2.16988
2.16668
2.17952
2.20361
2.24828
2.30102
2.37643
2.51289
2.68704
2.90114
3.23541
3.75386
4.50723
5.5697
6.93007
8.51195
10.3285
12.3756
14.7095
2.4985
2.28109
2.2089
2.17427
2.16696
2.17025
2.19476
2.22687
2.28222
2.34232
2.42365
2.56662
2.74451
2.96216
3.30819
3.83945
4.61368
5.71642
7.15667
9.07822
11.3904
14.1253
17.7587
2.494
2.27666
2.20701
2.1715
2.16623
2.18093
2.21543
2.2562
2.32279
2.39131
2.48289
2.64352
2.84015
3.0802
3.45624
4.01591
4.83214
5.98357
7.63313
9.83982
12.9039
17.6419
28.0059
2.49027
2.27175
2.20312
2.168
2.16916
2.19617
2.24221
2.29225
2.36875
2.44284
2.53894
2.70264
2.89806
3.14193
3.53076
4.10999
4.96793
6.31885
8.15912
11.2083
16.5516
28.1639
48.7557
2.48561
2.26692
2.20119
2.16671
2.1788
2.21812
2.27518
2.33396
2.41967
2.49993
2.60383
2.78117
2.99423
3.25978
3.68084
4.30817
5.25031
6.60957
9.1439
13.8394
23.7164
44.3957
73.6374
2.48109
2.26136
2.19743
2.16726
2.19452
2.244
2.313
2.3805
2.47367
2.55711
2.66399
2.84089
3.04804
3.31978
3.7579
4.41699
5.4516
7.42296
10.7077
18.0703
35.9256
66.2985
99.8114
2.4757
2.25556
2.19599
2.1748
2.21585
2.27771
2.35723
2.43142
2.53035
2.61765
2.72992
2.91643
3.14156
3.43729
3.91984
4.66459
5.92431
8.0891
12.9137
25.6242
50.7615
87.4719
126.744
2.47029
2.25041
2.19348
2.18678
2.2437
2.31579
2.40524
2.4859
2.58968
2.67814
2.79176
2.97534
3.19233
3.49917
4.00962
4.82132
6.25543
9.26192
16.874
33.9616
68.3674
113.096
150.577
2.46434
2.24513
2.19528
2.20843
2.28052
2.36346
2.46113
2.54568
2.65199
2.74219
2.85874
3.04684
3.27957
3.61273
4.1901
5.16295
7.05464
11.3413
21.2674
47.3569
88.6783
134.955
170.983
2.45807
2.24096
2.20187
2.2338
2.32253
2.41362
2.51694
2.60422
2.71274
2.8028
2.91905
3.10351
3.33055
3.6771
4.29772
5.38936
7.55831
12.7784
28.1001
59.5775
104.917
152.483
181.646
2.45224
2.23875
2.2184
2.2672
2.37073
2.46733
2.57381
2.66166
2.77016
2.86014
2.97697
3.1617
3.40219
3.78855
4.51127
5.84429
8.64812
16.4665
35.9784
72.6451
119.654
164.506
184.976
2.44724
2.23844
2.23847
2.30375
2.42052
2.52068
2.62793
2.71515
2.82372
2.91278
3.0283
3.20968
3.45234
3.86004
4.64782
6.14658
9.41251
18.7719
42.2151
82.34
128.701
171.089
184.962
2.4426
2.24138
2.2638
2.3459
2.47401
2.57434
2.67996
2.76545
2.87257
2.96075
3.07555
3.25597
3.51159
3.97674
4.9015
6.73093
10.8186
23.2337
52.042
92.5511
135.492
172.233
185.417
2.43886
2.25451
2.29217
2.39021
2.5264
2.62542
2.72793
2.8109
2.9166
3.00339
3.1166
3.29452
3.55802
4.06479
5.08395
7.15489
12.0517
26.887
57.7821
98.7476
139.271
172.547
183.899
2.43715
2.27616
2.32465
2.43737
2.58002
2.67518
2.77276
2.85285
2.95619
3.04187
3.15382
3.3312
3.60982
4.18105
5.37172
7.83764
14.2291
33.3042
67.249
104.307
141.722
173.534
182.719
2.43675
2.30151
2.35755
2.48215
2.6272
2.71758
2.80992
2.88688
2.98779
3.07191
3.18247
3.35876
3.64869
4.27248
5.59194
8.48744
16.1481
37.9201
72.3634
105.414
141.334
171.991
179.974
2.43996
2.32899
2.39114
2.52507
2.67185
2.75679
2.8435
2.91758
3.01564
3.0987
3.20783
3.38381
3.68674
4.36688
5.84221
9.20747
18.7094
43.1358
78.39
106.022
140.876
170.207
177.8
2.44971
2.3608
2.42708
2.56886
2.71427
2.79367
2.87484
2.94582
3.04085
3.12236
3.23052
3.40685
3.72394
4.4684
6.13186
10.2055
21.6341
48.4654
80.3911
106.669
138.982
168.553
176.023
2.46484
2.39625
2.46539
2.61176
2.75498
2.82848
2.90379
2.9717
3.06327
3.14364
3.25065
3.42825
3.76144
4.57465
6.44855
11.3129
25.1626
53.0436
82.034
108.187
138.655
166.902
174.582
2.48352
2.4351
2.50557
2.65471
2.79285
2.86122
2.93103
2.99573
3.08367
3.16254
3.26882
3.44844
3.79896
4.69507
6.861
12.7017
28.5273
57.9257
85.3055
109.499
139.081
165.264
173.44
2.50634
2.47677
2.54783
2.6963
2.82848
2.8918
2.95618
3.01766
3.10193
3.17939
3.28494
3.46765
3.83843
4.82528
7.30004
14.257
32.1798
61.4744
85.6877
108.718
138.924
163.361
172.35
2.53142
2.51944
2.59033
2.73639
2.86069
2.92023
2.97958
3.03794
3.11839
3.1946
3.29962
3.48616
3.87845
4.97508
7.86094
15.9456
35.4432
64.0773
86.1315
108.851
137.315
160.847
171.005
2.55883
2.56314
2.63371
2.77466
2.89041
2.94635
3.00093
3.05621
3.13331
3.20795
3.31268
3.504
3.92148
5.13931
8.45876
17.7058
38.5979
64.5047
86.4476
108.784
134.474
157.24
169.546
2.58755
2.60536
2.67533
2.81013
2.91653
2.96995
3.02037
3.07289
3.14641
3.22004
3.32459
3.52142
3.96537
5.32133
9.14604
19.6233
41.2148
65.0728
86.9325
106.648
130.265
152.299
167.141
2.61605
2.64673
2.7162
2.84328
2.94034
2.99141
3.03773
3.08765
3.15854
3.23089
3.33535
3.53816
4.01181
5.51764
9.88421
21.402
43.4226
65.3298
86.6257
103.168
124.89
145.936
163.163
2.64516
2.68508
2.75379
2.87324
2.96085
3.01005
3.05326
3.10096
3.16872
3.24012
3.34507
3.55456
4.05922
5.72944
10.6795
23.2845
45.4593
66.1086
84.8583
98.9149
118.579
138.334
157.237
2.67217
2.72138
2.78925
2.90045
2.97953
3.02685
3.06683
3.1126
3.17846
3.24924
3.354
3.57016
4.10757
5.94891
11.4997
25.1186
46.262
65.7914
82.1488
94.2015
111.736
129.858
149.632
2.69888
2.75391
2.8208
2.92454
2.9956
3.04116
3.07879
3.12283
3.18616
3.2561
3.36202
3.58529
4.1567
6.18207
12.3477
26.7445
46.4875
65.9789
79.0991
89.3526
104.676
120.97
140.785
2.72343
2.7842
2.84956
2.94621
3.01024
3.05372
3.08931
3.13214
3.19381
3.26348
3.36951
3.59959
4.20484
6.41865
13.1753
28.3445
46.9681
65.3878
75.8512
84.6117
97.8062
112.11
131.378
2.74636
2.81057
2.87475
2.96453
3.02335
3.06471
3.09823
3.1396
3.19966
3.26942
3.37617
3.61333
4.25351
6.65456
13.9502
29.5784
47.3475
64.3311
72.7101
80.0938
91.2595
103.649
121.879
2.76866
2.83517
2.89719
2.98147
3.03501
3.07388
3.10662
3.14732
3.20527
3.27409
3.38244
3.62625
4.29915
6.88746
14.6489
30.7689
47.1951
62.9779
69.6358
75.9137
85.2268
95.8038
112.598
2.78794
2.85614
2.91687
2.99505
3.04643
3.08254
3.11328
3.15285
3.21001
3.28
3.38844
3.63864
4.34369
7.10454
15.212
30.9792
47.5379
61.4622
66.8084
72.0054
79.6314
88.5859
103.924
2.80855
2.87629
2.93473
3.00797
3.05609
3.08944
3.12008
3.15888
3.21392
3.28351
3.3933
3.65016
4.38477
7.29442
15.6413
31.1756
47.3879
59.7602
64.0099
68.3773
74.5444
82.1143
95.8295
2.82554
2.89304
2.94993
3.01845
3.06639
3.0965
3.1255
3.16391
3.21738
3.28527
3.39931
3.6608
4.42054
7.45404
15.9622
31.3546
47.5916
57.8779
61.3766
64.8531
69.7387
76.2291
88.5746
2.84412
2.91029
2.96521
3.02823
3.07491
3.10217
3.13108
3.16792
3.22132
3.28533
3.40305
3.67063
4.45137
7.58595
16.0933
31.6526
47.5363
55.7392
58.6467
61.4444
65.2871
70.9508
81.9539
2.86121
2.92441
2.97725
3.03727
3.0843
3.10849
3.13599
3.173
3.22182
3.28565
3.40864
3.6791
4.47776
7.6785
16.0959
31.6841
47.0363
53.3313
55.8977
58.0047
61.017
66.1346
75.9613
2.87679
2.93977
2.99113
3.04518
3.09172
3.11327
3.14078
3.17628
3.22268
3.28588
3.41224
3.68599
4.4959
7.70181
16.0888
31.5541
45.788
50.6247
52.95
54.5356
56.8477
61.632
70.5087
2.89477
2.95265
3.00075
3.05323
3.10087
3.12006
3.14581
3.18004
3.22465
3.28599
3.41447
3.69188
4.50664
7.71686
15.8674
30.8246
43.9727
47.6679
49.9409
51.0859
52.8907
57.4349
65.3056
2.90928
2.96784
3.01513
3.06236
3.10683
3.1242
3.14999
3.18443
3.22578
3.28678
3.41548
3.69651
4.51167
7.69592
15.4273
29.6646
41.6843
44.4879
46.7004
47.5072
49.0217
53.5913
60.4689
2.92461
2.97873
3.02158
3.06738
3.11574
3.13123
3.15556
3.18678
3.22841
3.28823
3.41513
3.69848
4.50849
7.59896
14.8326
28.1933
39.0383
41.1796
43.4087
44.1234
45.4419
49.9475
55.9002
2.94208
2.99588
3.03699
3.08069
3.12095
3.13706
3.16009
3.19178
3.22815
3.28739
3.41692
3.69888
4.49105
7.45248
14.1149
26.5208
36.1655
37.8232
39.9918
40.6886
42.2019
46.8777
51.9317
2.9534
3.00543
3.04287
3.08356
3.12945
3.14249
3.16454
3.19238
3.2299
3.287
3.41649
3.69894
4.46227
7.26041
13.3194
24.7477
33.1954
34.5105
36.6305
37.5991
39.3756
44.1198
48.561
2.96917
3.02133
3.05419
3.09358
3.13434
3.15144
3.17183
3.19345
3.22856
3.28672
3.41654
3.69653
4.42249
7.03366
12.4767
22.9721
30.2723
31.3584
33.4112
34.7777
37.0231
41.9648
45.9422
2.98663
3.03365
3.06327
3.10231
3.13766
3.15475
3.17468
3.19485
3.22846
3.28636
3.41668
3.69126
4.37536
6.78484
11.636
21.2679
27.4778
28.407
30.3919
32.3076
35.1444
40.1717
43.8902
2.98732
3.04535
3.0691
3.10729
3.13917
3.15664
3.17627
3.19615
3.22969
3.28652
3.41718
3.68314
4.32114
6.52055
10.8195
19.7053
24.9383
25.7739
27.769
30.3007
33.6801
38.8417
42.5229
2.98947
3.04505
3.0714
3.10756
3.13957
3.15685
3.17674
3.19923
3.2279
3.28791
3.41592
3.67354
4.26273
6.25527
10.0691
18.3055
22.6571
23.4596
25.464
28.6506
32.5648
37.76
41.6002
2.99333
3.04632
3.07152
3.10831
3.14176
3.15728
3.17823
3.19771
3.22961
3.28645
3.4157
3.66121
4.20228
5.99332
9.39161
17.1122
20.7165
21.5164
23.6291
27.3528
31.7233
37.0465
40.8018
2.99348
3.05231
3.07371
3.11066
3.14195
3.15841
3.17812
3.19897
3.22791
3.28639
3.41542
3.64862
4.1429
5.75052
8.82959
16.0951
19.0665
19.9165
22.1258
26.3633
31.0725
36.3191
41.2734
2.99384
3.05714
3.07324
3.11496
3.14272
3.15841
3.17843
3.19837
3.2277
3.28588
3.41528
3.63394
4.08392
5.52404
8.34012
15.2756
17.7381
18.6731
21.0284
25.5882
30.601
36.0461
41.8444
2.99397
3.05537
3.07686
3.11285
3.13955
3.1595
3.17848
3.19918
3.22761
3.2852
3.41354
3.61963
4.0343
5.33035
8.02717
14.6217
16.6715
17.7044
20.1517
25.011
30.1153
35.2884
42.3222
2.99389
3.05462
3.07485
3.11382
3.13966
3.15951
3.18005
3.19968
3.22821
3.28412
3.41332
3.60599
3.98309
5.17102
7.66568
14.082
15.8521
16.9869
19.6195
24.3825
29.638
35.5729
43.6842
2.99416
3.05271
3.07427
3.11312
3.14004
3.15875
3.17958
3.20035
3.22557
3.28368
3.4111
3.59001
3.95146
5.02553
7.61238
13.7372
15.213
16.524
19.04
24.3533
29.693
34.9087
44.9729
2.99408
3.05671
3.07535
3.11356
3.13962
3.15873
3.18067
3.19755
3.22531
3.28371
3.41053
3.58154
3.91014
4.93002
7.56309
13.3453
14.8065
16.0869
19.002
24.1785
29.6411
35.1496
46.5118
2.99414
3.05354
3.07493
3.10938
3.13969
3.1579
3.17746
3.19745
3.22638
3.2809
3.40942
3.56448
3.90053
4.91032
7.51339
13.2515
14.3797
15.9775
18.8257
24.2504
29.2529
34.1426
44.4055
2.99363
3.05241
3.07476
3.11178
3.13949
3.16015
3.1776
3.19402
3.22674
3.28193
3.41121
3.5608
3.89446
4.89676
7.53273
13.2447
14.2558
15.9164
18.9531
24.3208
29.3146
33.8067
42.9075
2.99452
3.05177
3.07412
3.10852
3.13902
3.15603
3.17867
3.19316
3.22323
3.28074
3.40508
3.54674
3.85893
4.77271
7.20145
12.8264
14.0013
15.5814
18.3373
23.3447
28.2565
32.2582
39.6163
3.00025
3.05241
3.0736
3.1069
3.13953
3.15945
3.17374
3.19357
3.21742
3.27788
3.39717
3.53349
3.82785
4.66669
6.90813
12.4199
13.7631
15.3
17.8668
22.5654
27.2927
30.8626
37.3448
2.99366
3.04468
3.07648
3.10568
3.13287
3.15451
3.1767
3.19338
3.21549
3.27441
3.38782
3.51978
3.79795
4.57002
6.635
11.9866
13.5393
15.0572
17.4959
21.8381
26.4222
29.7235
35.5865
2.99472
3.0423
3.0764
3.10568
3.13118
3.15671
3.17109
3.1913
3.21641
3.27031
3.37739
3.50589
3.76908
4.4798
6.37618
11.5205
13.3028
14.8032
17.1334
21.2987
25.6522
28.6514
34.1425
2.99324
3.03675
3.07301
3.09607
3.13266
3.15427
3.17279
3.18823
3.21347
3.26471
3.36558
3.4907
3.73912
4.39134
6.12353
11.0068
13.0536
14.565
16.7894
20.5306
24.8232
27.708
32.9858
2.98885
3.03396
3.06958
3.0933
3.13175
3.15053
3.16994
3.18438
3.20934
3.25807
3.35294
3.47484
3.70869
4.30385
5.87275
10.4692
12.7283
14.2243
16.4022
19.7849
24.0269
26.8074
31.8948
2.98228
3.02751
3.06441
3.09381
3.12616
3.14314
3.16641
3.1775
3.19713
3.24893
3.33887
3.45673
3.67573
4.21458
5.6213
9.84024
12.446
13.9
16.0132
19.0103
23.0702
25.7852
31.0276
2.96833
3.02304
3.0564
3.0901
3.11352
3.13043
3.15834
3.1631
3.19134
3.24001
3.32387
3.43761
3.64181
4.12543
5.37251
9.20844
11.9943
13.4837
15.471
18.3778
22.238
24.7438
29.9194
2.94736
3.02621
3.04891
3.07593
3.09529
3.1127
3.15018
3.15518
3.17189
3.22806
3.30602
3.41512
3.60458
4.03466
5.12535
8.51492
11.5637
13.0182
14.8749
17.8312
21.2351
23.5245
28.6004
2.94036
3.02091
3.04278
3.05429
3.08893
3.10665
3.14136
3.14466
3.16418
3.21667
3.28788
3.39154
3.56635
3.94571
4.88748
7.78473
11.0896
12.532
14.2352
17.1048
20.303
22.3941
27.1995
2.94071
3.00996
3.0298
3.04676
3.08905
3.10747
3.13077
3.14188
3.16201
3.20227
3.26648
3.36367
3.52409
3.85624
4.65931
7.06516
10.4472
12.0476
13.638
16.3603
19.3224
21.3273
25.6794
2.93385
2.99706
3.01617
3.04835
3.0786
3.09867
3.11743
3.13042
3.15147
3.18705
3.24486
3.33481
3.48123
3.77044
4.44745
6.38024
9.73632
11.5861
13.1021
15.6815
18.316
20.2729
24.0031
2.91715
2.97847
2.99992
3.03491
3.0618
3.08247
3.09884
3.11212
3.13431
3.16659
3.21863
3.30081
3.43341
3.6838
4.24743
5.77775
8.90442
10.9906
12.4937
14.9979
17.3761
19.2702
22.3351
2.89975
2.9579
2.97968
3.01668
3.04391
3.06461
3.08021
3.09338
3.11558
3.14503
3.19185
3.26635
3.38572
3.6017
4.06613
5.26312
7.95482
10.4177
11.8701
14.2198
16.4843
18.4256
20.8447
2.87721
2.93215
2.95636
2.99225
3.02043
3.0412
3.05675
3.06964
3.0904
3.11667
3.15834
3.22516
3.33176
3.51724
3.89637
4.82406
7.03186
9.68522
11.2443
13.6067
15.4488
17.4856
19.5021
2.85309
2.90552
2.92883
2.96681
2.99575
3.01701
3.03303
3.04582
3.06423
3.08756
3.12448
3.18397
3.27859
3.43756
3.74498
4.45688
6.15322
8.89369
10.5422
12.8068
14.7079
16.5976
18.1535
2.82168
2.8714
2.89274
2.93414
2.96308
2.98473
3.00121
3.01378
3.02962
3.04993
3.08204
3.13411
3.217
3.3524
3.60041
4.13936
5.38605
7.84489
9.95732
12.0673
13.7321
15.6391
17.1196
2.78858
2.83599
2.85711
2.90079
2.92928
2.95121
2.96834
2.98103
2.99497
3.01284
3.04091
3.08592
3.15749
3.27226
3.47222
3.87856
4.77914
6.69892
9.09041
11.3848
13.1046
14.608
15.6817
2.74611
2.79086
2.8136
2.85757
2.88491
2.90651
2.92387
2.93668
2.94913
2.96474
2.98864
3.02696
3.08725
3.18244
3.34276
3.64906
4.2981
5.66724
8.01006
10.4868
12.2753
13.6678
14.6159
2.70236
2.74598
2.7706
2.81399
2.84019
2.86144
2.87903
2.89246
2.90447
2.91854
2.9394
2.97181
3.02209
3.09976
3.22762
3.45915
3.92756
4.90304
6.86795
9.42372
11.5019
12.7717
13.5671
2.64649
2.68914
2.71475
2.75678
2.78131
2.80174
2.8188
2.83253
2.8441
2.85665
2.87406
2.90087
2.94161
3.00296
3.10292
3.27733
3.61513
4.31008
5.74277
8.29494
10.6611
11.8429
12.4352
2.59088
2.63473
2.6601
2.70078
2.72396
2.74398
2.76066
2.77498
2.78689
2.7988
2.81409
2.83637
2.86936
2.91769
2.99448
3.12545
3.36947
3.86347
4.89852
7.04433
9.63358
11.0071
11.6665
2.52009
2.56414
2.5883
2.62665
2.6477
2.66669
2.68217
2.69611
2.70751
2.71827
2.73091
2.74862
2.77445
2.81108
2.86802
2.96441
3.13917
3.48752
4.23084
5.90657
8.497
10.0499
10.8143
2.45338
2.49934
2.52185
2.55794
2.57738
2.59581
2.6107
2.62461
2.6363
2.64672
2.65818
2.67301
2.69357
2.72202
2.76432
2.83455
2.9595
3.20424
3.73325
4.96141
7.44282
9.04627
9.8425
2.36732
2.41208
2.43244
2.46462
2.4814
2.49799
2.51122
2.52362
2.53397
2.54316
2.55213
2.56348
2.5792
2.59994
2.62969
2.67913
2.76648
2.93542
3.30463
4.18944
6.35139
8.00513
8.76737
2.29206
2.33746
2.35583
2.38478
2.40006
2.41546
2.42811
2.44001
2.45014
2.45896
2.46776
2.47692
2.48979
2.50638
2.52841
2.56323
2.62447
2.74114
2.99563
3.62775
5.36883
7.03066
7.77429
2.18978
2.23076
2.24598
2.2694
2.28162
2.29389
2.30405
2.31347
2.32145
2.32813
2.33441
2.34129
2.34984
2.36176
2.37673
2.39991
2.44078
2.51854
2.68817
3.12302
4.44263
6.02847
6.71854
2.11031
2.15034
2.163
2.18334
2.19446
2.20522
2.21467
2.22341
2.231
2.23759
2.24324
2.24906
2.25622
2.26601
2.27797
2.29447
2.32292
2.37643
2.49193
2.79395
3.76845
5.26403
5.93539
1.99022
2.02101
2.02908
2.04146
2.04846
2.05485
2.06061
2.06607
2.07062
2.07478
2.07816
2.08118
2.08501
2.09087
2.09875
2.10905
2.12672
2.15908
2.22958
2.41708
3.04466
4.35346
4.94511
1.91288
1.9423
1.94757
1.96047
1.96737
1.97295
1.97793
1.98275
1.98675
1.99052
1.99364
1.99624
1.99929
2.00397
2.01059
2.01916
2.03281
2.06112
2.11329
2.26281
2.72782
3.89989
4.5119
1.75643
1.76929
1.76688
1.76527
1.76402
1.76328
1.76306
1.76295
1.7631
1.76345
1.76383
1.76399
1.76429
1.76533
1.7677
1.7715
1.7785
1.78802
1.81669
1.87702
2.0976
2.79261
3.34452
3.08612
2.76129
2.57907
2.4571
2.38597
2.329
2.29517
2.26558
2.24967
2.23684
2.22958
2.22895
2.23359
2.24665
2.2738
2.32183
2.40094
2.50018
2.64448
2.74571
2.89907
2.99146
3.12927
3.09623
2.77075
2.58658
2.47091
2.3976
2.33933
2.3032
2.27188
2.25473
2.23974
2.23262
2.23082
2.23516
2.24784
2.27434
2.3196
2.39523
2.48952
2.63261
2.73624
2.89099
2.98843
3.12641
3.1104
2.79401
2.61
2.48443
2.40697
2.34666
2.30734
2.27527
2.25718
2.24326
2.23477
2.23184
2.23604
2.24837
2.27377
2.31815
2.39267
2.48658
2.62828
2.73267
2.89452
2.98383
3.11453
3.12436
2.80512
2.61867
2.49719
2.42069
2.3569
2.31625
2.28377
2.26324
2.24704
2.23714
2.23351
2.2373
2.24862
2.27552
2.31873
2.39508
2.49008
2.63194
2.73738
2.89221
2.98193
3.11203
3.13445
2.8255
2.64781
2.51779
2.43139
2.36442
2.32123
2.28687
2.26517
2.2486
2.23827
2.23444
2.23845
2.24845
2.27906
2.31794
2.39632
2.48911
2.62949
2.72936
2.88141
2.97134
3.10775
3.14457
2.84573
2.656
2.52201
2.43399
2.36819
2.32525
2.29145
2.26943
2.25307
2.24247
2.23709
2.24125
2.25022
2.28496
2.32377
2.40382
2.49365
2.62832
2.72801
2.88115
2.97394
3.11504
3.15327
2.8529
2.66488
2.53287
2.4457
2.37979
2.33467
2.30024
2.27597
2.25815
2.24655
2.23691
2.24523
2.25437
2.3017
2.33643
2.42201
2.504
2.631
2.73164
2.88761
2.98366
3.12986
3.15245
2.85274
2.66535
2.53262
2.4428
2.37648
2.33228
2.29898
2.2751
2.25792
2.24514
2.23919
2.24313
2.25169
2.29335
2.33296
2.42205
2.50838
2.6371
2.73933
2.89489
2.99241
3.13969
2.92009
2.58318
2.42919
2.34057
2.2935
2.25882
2.24248
2.22428
2.21802
2.20898
2.20733
2.21004
2.2188
2.24109
2.28368
2.3668
2.48582
2.70902
2.90655
3.11614
3.32263
3.57942
3.82129
2.93264
2.59009
2.43475
2.345
2.29822
2.26114
2.24497
2.22633
2.21977
2.21035
2.20815
2.21087
2.21945
2.24212
2.28456
2.35906
2.47753
2.6836
2.88471
3.06774
3.28556
3.51689
3.76849
2.9344
2.59622
2.44134
2.35018
2.30176
2.26571
2.24815
2.22878
2.22146
2.21161
2.209
2.21162
2.21994
2.2413
2.27959
2.35155
2.46557
2.65723
2.85938
3.01898
3.24593
3.44555
3.69584
2.94775
2.60466
2.4476
2.35508
2.30688
2.26805
2.25062
2.23077
2.22314
2.21301
2.20978
2.21245
2.22072
2.24198
2.27937
2.34651
2.45589
2.63346
2.83292
2.98172
3.20917
3.39209
3.6229
2.95111
2.61198
2.45481
2.36134
2.31104
2.27297
2.25387
2.23325
2.22486
2.21439
2.21074
2.21336
2.2214
2.24224
2.2779
2.34179
2.44592
2.61427
2.79912
2.94664
3.17118
3.3374
3.5478
2.96586
2.62224
2.46204
2.36692
2.31644
2.27546
2.25639
2.23522
2.22649
2.21584
2.21173
2.21436
2.22228
2.24244
2.27692
2.33815
2.43739
2.5971
2.77058
2.91408
3.13174
3.28646
3.46764
2.97056
2.63078
2.47029
2.37441
2.32155
2.28064
2.25968
2.23781
2.22827
2.21742
2.21291
2.21548
2.22321
2.24246
2.27575
2.33469
2.42957
2.58395
2.73839
2.88285
3.0986
3.24113
3.40104
2.98706
2.64307
2.4789
2.38074
2.32726
2.2835
2.26242
2.23989
2.23001
2.2191
2.21434
2.21682
2.22432
2.24283
2.27501
2.33164
2.42288
2.57075
2.71277
2.86261
3.06933
3.19527
3.34071
2.99286
2.6527
2.48867
2.38965
2.33338
2.28911
2.26587
2.24278
2.23201
2.22092
2.21585
2.21817
2.2254
2.24234
2.27425
2.32888
2.41678
2.55609
2.70408
2.8437
3.03709
3.14553
3.28692
3.0111
2.66741
2.49919
2.3967
2.33937
2.29249
2.2691
2.2451
2.23402
2.22297
2.21767
2.21981
2.22666
2.24322
2.27396
2.32656
2.41196
2.53874
2.70573
2.83071
3.01136
3.11019
3.26016
3.01756
2.67813
2.5104
2.40713
2.34684
2.29914
2.27316
2.24863
2.2366
2.22521
2.21957
2.22143
2.22783
2.2427
2.27472
2.32487
2.40763
2.52302
2.70291
2.81661
2.97888
3.07805
3.22408
3.03714
2.69582
2.52331
2.41479
2.35297
2.30297
2.27697
2.25126
2.23878
2.22742
2.22144
2.22303
2.22901
2.24363
2.27449
2.32348
2.40372
2.51131
2.68274
2.79958
2.95645
3.05744
3.2087
3.04367
2.70746
2.53517
2.4268
2.36224
2.31114
2.282
2.25549
2.24203
2.23004
2.22358
2.22472
2.2301
2.24469
2.27313
2.32209
2.40078
2.50426
2.66873
2.77962
2.93401
3.04827
3.18717
3.06352
2.7284
2.55046
2.43485
2.36842
2.31527
2.2858
2.25826
2.24406
2.23199
2.22523
2.22598
2.2311
2.24551
2.27294
2.32111
2.39983
2.50123
2.65622
2.76566
2.92567
3.02915
3.16743
3.07013
2.73956
2.56175
2.44829
2.37911
2.32439
2.2918
2.26283
2.24764
2.23454
2.2275
2.2276
2.23226
2.24593
2.27346
2.32132
2.39931
2.49856
2.64696
2.7545
2.90923
3.00914
3.14244
2.83021
2.51018
2.36883
2.2858
2.24119
2.21553
2.20548
2.21051
2.23993
2.27475
2.30485
2.36118
2.46294
2.5903
2.76023
2.94957
3.20247
3.53409
3.90108
4.31018
4.74011
5.20222
5.67048
2.83453
2.51213
2.37203
2.28813
2.24406
2.21619
2.20399
2.20457
2.22067
2.24492
2.2685
2.31698
2.40823
2.52545
2.68917
2.87492
3.14503
3.47492
3.84913
4.26299
4.69196
5.14415
5.6188
2.83563
2.51376
2.37416
2.29156
2.24637
2.21839
2.20424
2.19993
2.20368
2.21849
2.23615
2.27733
2.35926
2.47114
2.62942
2.81138
3.0655
3.39033
3.77104
4.19056
4.6275
5.08875
5.56469
2.83989
2.51615
2.37651
2.29475
2.24845
2.21953
2.2042
2.1964
2.19177
2.19658
2.20627
2.23694
2.30281
2.40016
2.54811
2.725
2.98857
3.31274
3.70169
4.12609
4.55947
5.01562
5.49722
2.84133
2.51737
2.3776
2.29706
2.25136
2.22228
2.2065
2.19765
2.19218
2.19296
2.19854
2.22271
2.27892
2.36691
2.50326
2.67254
2.92055
3.23313
3.62342
4.05247
4.49347
4.95339
5.43562
2.84548
2.52006
2.37926
2.3
2.25314
2.22361
2.20755
2.19879
2.18817
2.18436
2.18512
2.19983
2.24105
2.31442
2.43661
2.59855
2.84473
3.15222
3.54789
3.98292
4.41914
4.87828
5.36149
2.84706
2.52179
2.38008
2.30185
2.25603
2.2263
2.2097
2.20119
2.19008
2.18491
2.18576
2.19745
2.23052
2.294
2.40291
2.55501
2.78667
3.08205
3.47208
3.90991
4.34565
4.80584
5.28625
2.85105
2.5244
2.3813
2.30388
2.25757
2.22763
2.21071
2.20259
2.19115
2.18513
2.18351
2.19145
2.21421
2.26575
2.36057
2.50382
2.72477
3.00985
3.39814
3.84251
4.27163
4.73014
5.20699
2.85279
2.52688
2.3827
2.30614
2.26024
2.23025
2.2126
2.20484
2.19402
2.18725
2.18518
2.19215
2.21255
2.25603
2.34028
2.47241
2.67997
2.95444
3.33075
3.77727
4.1951
4.65359
5.12098
2.85669
2.52946
2.38391
2.30749
2.26166
2.23156
2.21354
2.20583
2.19586
2.1891
2.18663
2.19269
2.20985
2.24718
2.32023
2.44349
2.63748
2.90043
3.26737
3.71682
4.12422
4.5772
5.03679
2.85874
2.53237
2.38598
2.30989
2.26391
2.23413
2.21541
2.2075
2.19866
2.19199
2.18933
2.19426
2.21016
2.24584
2.31208
2.42518
2.60798
2.86164
3.21334
3.665
4.05322
4.503
4.94731
2.86263
2.53505
2.38758
2.3111
2.2655
2.2354
2.21646
2.20837
2.20019
2.19397
2.1916
2.19643
2.21098