/*--------------------------------*- C++ -*----------------------------------*\
  =========                 |
  \\      /  F ield         | OpenFOAM: The Open Source CFD Toolbox
   \\    /   O peration     | Website:  https://openfoam.org
    \\  /    A nd           | Version:  7
     \\/     M anipulation  |
\*---------------------------------------------------------------------------*/
FoamFile
{
    version     2.0;
    format      ascii;
    class       volScalarField;
    location    "82";
    object      p;
}
// * * * * * * * * * * * * * * * * * * * * * * * * * * * * * * * * * * * * * //

dimensions      [0 2 -2 0 0 0 0];

internalField   nonuniform List<scalar> 
12842
(
-0.162163
-0.186461
-0.227203
-0.290187
-0.372713
-0.474001
-0.593847
-0.728757
-0.870761
-1.00775
-1.12439
-1.2031
-1.22505
-1.17172
-1.02786
-0.785297
-0.445636
-0.0219722
0.461891
0.974934
1.48615
1.96515
2.39635
-0.270887
-0.31537
-0.381397
-0.485676
-0.626957
-0.806934
-1.02986
-1.2972
-1.60573
-1.94788
-2.31202
-2.68171
-3.03462
-3.3424
-3.5733
-3.69722
-3.69162
-3.54777
-3.27432
-2.89723
-2.45176
-1.98366
-1.52065
-0.352747
-0.415646
-0.50367
-0.64566
-0.839426
-1.08956
-1.40483
-1.79084
-2.24867
-2.77578
-3.36551
-4.00441
-4.66856
-5.32199
-5.91882
-6.40951
-6.74969
-6.91038
-6.88519
-6.69392
-6.37198
-5.97747
-5.54172
-0.416572
-0.490559
-0.599415
-0.776988
-1.01794
-1.33144
-1.73045
-2.22375
-2.81664
-3.51248
-4.31105
-5.20348
-6.16577
-7.15582
-8.11514
-8.97635
-9.67473
-10.1621
-10.4169
-10.4516
-10.299
-10.0268
-9.66544
-0.467491
-0.543034
-0.673482
-0.883397
-1.16535
-1.53519
-2.00877
-2.59718
-3.31043
-4.15897
-5.1506
-6.28263
-7.53224
-8.85242
-10.1731
-11.4105
-12.4805
-13.3166
-13.8818
-14.1798
-14.238
-14.133
-13.8882
-0.508012
-0.576435
-0.730094
-0.966861
-1.28276
-1.70109
-2.23838
-2.90772
-3.72482
-4.7084
-5.87577
-7.23193
-8.75639
-10.3985
-12.0778
-13.6954
-15.1496
-16.356
-17.2616
-17.8605
-18.1715
-18.278
-18.1919
-0.53965
-0.594486
-0.772482
-1.02857
-1.37139
-1.8296
-2.41824
-3.15274
-4.05585
-5.15516
-6.47903
-8.04144
-9.82533
-11.7779
-13.8096
-15.8087
-17.6572
-19.2547
-20.5316
-21.4711
-22.0795
-22.4459
-22.5624
-0.56368
-0.600705
-0.803024
-1.07028
-1.4339
-1.92296
-2.55027
-3.33456
-4.30659
-5.50261
-6.96331
-8.71225
-10.7369
-12.9837
-15.3561
-17.7322
-19.9801
-21.9856
-23.6617
-24.9808
-25.9317
-26.6087
-26.9728
-0.582589
-0.597817
-0.822135
-1.09142
-1.46916
-1.97687
-2.62667
-3.44025
-4.45631
-5.71772
-7.2776
-9.16789
-11.3808
-13.8632
-16.5134
-19.2035
-21.7917
-24.1547
-26.1905
-27.8641
-29.1405
-30.1307
-30.7396
-0.603015
-0.591333
-0.83871
-1.10608
-1.49702
-2.01777
-2.68368
-3.51822
-4.56734
-5.87839
-7.51576
-9.51726
-11.8792
-14.5486
-17.4204
-20.3636
-23.2306
-25.8933
-28.2385
-30.2252
-31.7988
-33.072
-33.9264
-0.618536
-0.581047
-0.851559
-1.11593
-1.52142
-2.05274
-2.73388
-3.5883
-4.66926
-6.02774
-7.73922
-9.84624
-12.3493
-15.1959
-18.2795
-21.4685
-24.6124
-27.5809
-30.2513
-32.5764
-34.4814
-36.0756
-37.2195
-0.628939
-0.568206
-0.86015
-1.12143
-1.54151
-2.08033
-2.7756
-3.64822
-4.75866
-6.16118
-7.9418
-10.1472
-12.7823
-15.7963
-19.0829
-22.5127
-25.9349
-29.2191
-32.2337
-34.9251
-37.1965
-39.1498
-40.6197
-0.635605
-0.554434
-0.865407
-1.12438
-1.55778
-2.10133
-2.80974
-3.69852
-4.83534
-6.27773
-8.12157
-10.4176
-13.176
-16.3487
-19.832
-23.5009
-27.2061
-30.8187
-34.1976
-37.2821
-39.9513
-42.2965
-44.1259
-0.639483
-0.540799
-0.868573
-1.12674
-1.57127
-2.11787
-2.83886
-3.74206
-4.90234
-6.3807
-8.28196
-10.6613
-13.5348
-16.8588
-20.534
-24.4415
-28.4348
-32.3866
-36.1462
-39.6444
-42.7346
-45.496
-47.7131
-0.640945
-0.527875
-0.870795
-1.12958
-1.58255
-2.1317
-2.86485
-3.78099
-4.96202
-6.47271
-8.42575
-10.8814
-13.8626
-17.3311
-21.1939
-25.3395
-29.6239
-33.9223
-38.0726
-41.9968
-45.5222
-48.7141
-51.3375
-0.640237
-0.516058
-0.872974
-1.13313
-1.59171
-2.14373
-2.88829
-3.81588
-5.01488
-6.55423
-8.55334
-11.0785
-14.16
-17.7667
-21.8128
-26.1945
-30.7705
-35.417
-39.9604
-44.3127
-48.2753
-51.8991
-54.9333
-0.637561
-0.505683
-0.875728
-1.13692
-1.59863
-2.15422
-2.90891
-3.84627
-5.06026
-6.62438
-8.66375
-11.2517
-14.4264
-18.165
-22.3896
-27.0037
-31.8676
-36.8576
-41.7867
-46.557
-50.9437
-54.9838
-58.4157
-0.633114
-0.497005
-0.87921
-1.14018
-1.60327
-2.16305
-2.92612
-3.87143
-5.09726
-6.68213
-8.75588
-11.4
-14.661
-18.5251
-22.9221
-27.7618
-32.9046
-38.2245
-43.5199
-48.6819
-53.4606
-57.8801
-61.6766
-0.626997
-0.490166
-0.8832
-1.14212
-1.60571
-2.17001
-2.93945
-3.8909
-5.12539
-6.72698
-8.82936
-11.5233
-14.8637
-18.8461
-23.4071
-28.4613
-33.8664
-39.4915
-45.1201
-50.6304
-55.7518
-60.4922
-64.6003
-0.619452
-0.485199
-0.887178
-1.14221
-1.60622
-2.17494
-2.94875
-3.90467
-5.14478
-6.75923
-8.88471
-11.6223
-15.0348
-19.1269
-23.8408
-29.0928
-34.7355
-40.6293
-46.5423
-52.3369
-57.7304
-62.7038
-67.0356
-0.610848
-0.482068
-0.890461
-1.14029
-1.60513
-2.17765
-2.95404
-3.91293
-5.15582
-6.77942
-8.92256
-11.6973
-15.1737
-19.3648
-24.2162
-29.6429
-35.4886
-41.6008
-47.7317
-53.7244
-59.2929
-64.3876
-68.8252
-0.601457
-0.480674
-0.892349
-1.13628
-1.60262
-2.17807
-2.95551
-3.91593
-5.15871
-6.78764
-8.94272
-11.7476
-15.2782
-19.5549
-24.5239
-30.0948
-36.0985
-42.3651
-48.63
-54.7153
-60.3407
-65.4309
-69.8429
-0.591779
-0.480466
-0.8923
-1.13086
-1.59893
-2.17616
-2.95357
-3.91446
-5.15488
-6.78571
-8.94701
-11.774
-15.3472
-19.6923
-24.7532
-30.4301
-36.5366
-42.8812
-49.1832
-55.2448
-60.7993
-65.7581
-70.0176
-0.580921
-0.481416
-0.889647
-1.12419
-1.59492
-2.17327
-2.94989
-3.90996
-5.1449
-6.77356
-8.93428
-11.7738
-15.3747
-19.7669
-24.8892
-30.6284
-36.7767
-43.1182
-49.3568
-55.2787
-60.6359
-65.3404
-69.3276
-0.577441
-0.485468
-0.889292
-1.12149
-1.59503
-2.17425
-2.94962
-3.90759
-5.13479
-6.7578
-8.91267
-11.7569
-15.3735
-19.7939
-24.9482
-30.704
-36.8282
-43.0763
-49.1413
-54.8013
-59.8369
-64.1772
-67.8041
-0.573166
-0.488745
-0.887793
-1.12015
-1.59755
-2.17877
-2.95444
-3.91184
-5.1332
-6.75245
-8.90252
-11.7496
-15.3739
-19.8046
-24.9591
-30.6819
-36.7132
-42.782
-48.579
-53.8878
-58.5273
-62.4532
-65.6896
-0.56789
-0.490453
-0.884721
-1.11943
-1.60071
-2.18399
-2.9602
-3.9169
-5.13269
-6.74785
-8.8917
-11.7368
-15.3577
-19.7784
-24.9008
-30.5441
-36.4237
-42.2465
-47.7106
-52.618
-56.8294
-60.3291
-63.174
-0.563289
-0.491132
-0.881103
-1.11936
-1.60376
-2.18837
-2.96418
-3.9185
-5.1272
-6.73569
-8.86943
-11.7051
-15.3099
-19.6998
-24.7595
-30.2822
-35.9619
-41.4898
-46.5799
-51.0626
-54.8396
-57.922
-60.3928
-0.560158
-0.491189
-0.877962
-1.12024
-1.6068
-2.19195
-2.96631
-3.91665
-5.11683
-6.71602
-8.83557
-11.6544
-15.2301
-19.569
-24.5375
-29.9033
-35.3436
-40.5413
-45.2327
-49.2825
-52.6327
-55.3194
-57.4437
-0.55844
-0.490785
-0.875822
-1.12206
-1.60992
-2.19503
-2.96727
-3.91268
-5.10364
-6.69176
-8.79364
-11.5886
-15.1228
-19.3913
-24.2418
-29.4193
-34.5886
-39.4328
-43.7139
-47.3343
-50.2762
-52.5964
-54.4052
-0.557854
-0.490093
-0.874821
-1.12442
-1.61279
-2.1974
-2.96707
-3.90711
-5.08853
-6.6642
-8.74502
-11.5091
-14.9894
-19.1688
-23.8771
-28.8398
-33.7147
-38.1933
-42.0654
-45.271
-47.8305
-49.8164
-51.3409
-0.55804
-0.489249
-0.874741
-1.12669
-1.61488
-2.19855
-2.9653
-3.89969
-5.07126
-6.63299
-8.68908
-11.415
-14.8291
-18.9017
-23.4456
-28.1725
-32.738
-36.8489
-40.3244
-43.1388
-45.3437
-47.0254
-48.2977
-0.558469
-0.488307
-0.875154
-1.12825
-1.61568
-2.19807
-2.96167
-3.89026
-5.05154
-6.59762
-8.62495
-11.3053
-14.6412
-18.5904
-22.9505
-27.4257
-31.6739
-35.4235
-38.5226
-40.9752
-42.855
-44.2606
-45.3091
-0.558525
-0.487216
-0.875553
-1.12869
-1.61506
-2.19597
-2.95639
-3.87918
-5.02965
-6.55826
-8.55271
-11.1801
-14.4262
-18.2371
-22.3966
-26.6088
-30.5384
-33.9397
-36.6879
-38.8123
-40.401
-41.5605
-42.4129
-0.557713
-0.485958
-0.875587
-1.12794
-1.61322
-2.19272
-2.95016
-3.86726
-5.00643
-6.51569
-8.47312
-11.0404
-14.186
-17.8452
-21.79
-25.732
-29.347
-32.4194
-34.8472
-36.6801
-38.018
-38.9665
-39.648
-0.555817
-0.484571
-0.875108
-1.12628
-1.61072
-2.18906
-2.94389
-3.85549
-4.98279
-6.47076
-8.38713
-10.8875
-13.9224
-17.4182
-21.1369
-24.8051
-28.1142
-30.8817
-33.0244
-34.6036
-35.731
-36.505
-37.0402
-0.55292
-0.48319
-0.874197
-1.12413
-1.60816
-2.18574
-2.93839
-3.84458
-4.95932
-6.42398
-8.2953
-10.7221
-13.637
-16.9591
-20.4428
-23.8367
-26.8519
-29.3405
-31.2362
-32.6016
-33.5537
-34.188
-34.6079
-0.549303
-0.481953
-0.873024
-1.12199
-1.60611
-2.18333
-2.93409
-3.83479
-4.93605
-6.37525
-8.1976
-10.5447
-13.331
-16.4705
-19.7125
-22.8331
-25.5691
-27.8035
-29.4919
-30.6897
-31.5009
-32.0287
-32.3732
-0.545327
-0.480983
-0.871797
-1.12019
-1.60485
-2.18201
-2.93099
-3.82584
-4.91248
-6.32396
-8.09349
-10.355
-13.005
-15.9542
-18.9497
-21.7992
-24.2714
-26.2759
-27.7929
-28.8707
-29.5862
-30.0357
-30.3363
-0.541319
-0.480316
-0.870648
-1.11893
-1.60446
-2.18168
-2.92872
-3.81709
-4.88777
-6.26924
-7.9823
-10.1528
-12.6596
-15.4119
-18.1583
-20.7382
-22.9619
-24.761
-26.1361
-27.1308
-27.8119
-28.2454
-28.5251
-0.537524
-0.479943
-0.869652
-1.1182
-1.60474
-2.18196
-2.92669
-3.80777
-4.86105
-6.21027
-7.86351
-9.93816
-12.296
-14.8458
-17.3416
-19.6533
-21.6416
-23.258
-24.5177
-25.459
-26.1386
-26.6177
-26.943
-0.534071
-0.479778
-0.868794
-1.11791
-1.60544
-2.18243
-2.9243
-3.79719
-4.83169
-6.14656
-7.73698
-9.71148
-11.9154
-14.2579
-16.5031
-18.5472
-20.3087
-21.7603
-22.9256
-23.8494
-24.5557
-25.0903
-25.501
-0.531002
-0.479735
-0.868038
-1.11788
-1.60623
-2.18267
-2.9211
-3.78493
-4.79939
-6.07809
-7.60311
-9.47368
-11.5198
-13.651
-15.6462
-17.4229
-18.961
-20.2602
-21.3409
-22.2523
-23.0086
-23.6237
-24.1295
-0.528278
-0.479706
-0.86731
-1.11793
-1.60688
-2.18242
-2.91683
-3.77085
-4.76425
-6.0052
-7.46265
-9.22598
-11.1113
-13.0276
-14.7738
-16.2835
-17.5953
-18.7445
-19.7439
-20.631
-21.4165
-22.1135
-22.7317
-0.525829
-0.479623
-0.866566
-1.11792
-1.60722
-2.18153
-2.91148
-3.75511
-4.72667
-5.92859
-7.31667
-8.96985
-10.6919
-12.3907
-13.8884
-15.1321
-16.2099
-17.1968
-18.105
-18.9681
-19.7708
-20.5207
-21.2201
-0.523562
-0.47942
-0.865761
-1.11778
-1.60718
-2.18002
-2.90518
-3.73804
-4.6872
-5.84901
-7.16626
-8.70669
-10.2638
-11.7433
-12.9923
-13.9709
-14.8038
-15.6108
-16.4036
-17.2051
-18.0113
-18.7684
-19.4868
-0.521387
-0.479093
-0.864892
-1.11746
-1.60677
-2.17799
-2.89818
-3.72003
-4.64644
-5.76721
-7.01236
-8.43772
-9.82851
-11.0878
-12.087
-12.8013
-13.378
-13.9876
-14.6263
-15.2781
-16.0092
-16.7471
-17.4322
-0.519181
-0.478602
-0.863933
-1.11697
-1.60608
-2.17561
-2.89077
-3.7015
-4.6049
-5.68376
-6.85573
-8.1639
-9.38753
-10.4269
-11.1738
-11.6258
-11.9368
-12.307
-12.7394
-13.1973
-13.7613
-14.4297
-15.0592
-0.516551
-0.47797
-0.862856
-1.1163
-1.60525
-2.17322
-2.88364
-3.68359
-4.56454
-5.60203
-6.70243
-7.89551
-8.95728
-9.78539
-10.2846
-10.486
-10.5263
-10.6214
-10.8454
-11.1165
-11.4526
-11.9701
-12.5058
-0.515121
-0.477814
-0.862364
-1.11607
-1.60501
-2.17179
-2.87811
-3.6683
-4.52871
-5.52808
-6.56381
-7.65226
-8.56966
-9.21059
-9.48289
-9.46551
-9.23281
-9.0636
-9.09743
-9.18195
-9.26721
-9.55618
-9.94208
-0.513335
-0.477414
-0.861809
-1.11597
-1.60548
-2.17184
-2.87521
-3.65715
-4.4997
-5.46546
-6.44604
-7.44434
-8.24057
-8.72555
-8.80342
-8.59856
-8.10592
-7.7234
-7.53792
-7.41801
-7.27616
-7.32608
-7.54057
-0.511134
-0.476789
-0.861178
-1.11609
-1.60678
-2.1735
-2.87491
-3.64972
-4.47641
-5.41217
-6.34582
-7.26656
-7.96242
-8.31855
-8.23404
-7.86376
-7.16098
-6.60123
-6.1742
-5.84175
-5.49859
-5.33494
-5.38711
-0.508803
-0.47615
-0.860627
-1.11657
-1.60899
-2.17665
-2.87673
-3.64499
-4.4571
-5.36552
-6.25906
-7.113
-7.72723
-7.97646
-7.75874
-7.24844
-6.40924
-5.67868
-5.03449
-4.52287
-4.00317
-3.65387
-3.53848
-0.506427
-0.475579
-0.860224
-1.11752
-1.61215
-2.18116
-2.88019
-3.64196
-4.44002
-5.32287
-6.18156
-6.97753
-7.52638
-7.68476
-7.36264
-6.74552
-5.80839
-4.90865
-4.10918
-3.46728
-2.80477
-2.29518
-2.00657
-0.504081
-0.475106
-0.860025
-1.11897
-1.61617
-2.18675
-2.88474
-3.63981
-4.4241
-5.28301
-6.11137
-6.85777
-7.35574
-7.43713
-7.04215
-6.35269
-5.30783
-4.26124
-3.37744
-2.64227
-1.87636
-1.25138
-0.809756
-0.501756
-0.474721
-0.860016
-1.1209
-1.6209
-2.19309
-2.88979
-3.63771
-4.40813
-5.2445
-6.04622
-6.75119
-7.21103
-7.22981
-6.79275
-6.05429
-4.87976
-3.73036
-2.81734
-2.01646
-1.18146
-0.505195
0.00511564
-0.499773
-0.474524
-0.860428
-1.12348
-1.62654
-2.20037
-2.8955
-3.63579
-4.39199
-5.20664
-5.9837
-6.65294
-7.08229
-7.05
-6.58645
-5.80726
-4.51365
-3.30268
-2.35999
-1.50055
-0.628808
0.0303484
0.556295
-0.497441
-0.474048
-0.860412
-1.12565
-1.63143
-2.20622
-2.89866
-3.62999
-4.37073
-5.16353
-5.91634
-6.55455
-6.95876
-6.89137
-6.41353
-5.60995
-4.25579
-3.03193
-2.06481
-1.20456
-0.342163
0.235415
0.661736
-0.495416
-0.473784
-0.860734
-1.12815
-1.63641
-2.21162
-2.90053
-3.62215
-4.34703
-5.11897
-5.849
-6.46212
-6.84555
-6.7601
-6.27007
-5.47008
-4.12977
-2.92785
-1.92356
-1.09506
-0.268685
0.211594
0.506167
-0.493721
-0.473713
-0.861374
-1.13093
-1.64138
-2.21654
-2.90132
-3.61294
-4.32215
-5.07467
-5.78347
-6.37654
-6.74114
-6.65122
-6.14446
-5.38328
-4.11411
-2.94358
-1.89792
-1.10567
-0.32746
0.0833601
0.269266
-0.492185
-0.473647
-0.862054
-1.13356
-1.64586
-2.22051
-2.90073
-3.60236
-4.29645
-5.03107
-5.72001
-6.29678
-6.64335
-6.56005
-6.03567
-5.34589
-4.18779
-3.03388
-1.96868
-1.23048
-0.511277
-0.132454
0.00706508
-0.490708
-0.473473
-0.862597
-1.13582
-1.64962
-2.22339
-2.89884
-3.59075
-4.27054
-4.98871
-5.6591
-6.22207
-6.55099
-6.48185
-5.94598
-5.34074
-4.31294
-3.15936
-2.10934
-1.45447
-0.793432
-0.415403
-0.23934
-0.489271
-0.473199
-0.862969
-1.13765
-1.65268
-2.22536
-2.89612
-3.57888
-4.24541
-4.94852
-5.60163
-6.15224
-6.46371
-6.41102
-5.87415
-5.33837
-4.43742
-3.29444
-2.28559
-1.72447
-1.09293
-0.693899
-0.447325
-0.487826
-0.472821
-0.863139
-1.13909
-1.65518
-2.22674
-2.8931
-3.56743
-4.22179
-4.91093
-5.54772
-6.08603
-6.37983
-6.34021
-5.80924
-5.30788
-4.51953
-3.41881
-2.46609
-1.97425
-1.33888
-0.898643
-0.579543
-0.486326
-0.472358
-0.863103
-1.14018
-1.65725
-2.22781
-2.89019
-3.55684
-4.19993
-4.87562
-5.49643
-6.0209
-6.29642
-6.26224
-5.73741
-5.2362
-4.54251
-3.51224
-2.62557
-2.16183
-1.5059
-0.995978
-0.567901
-0.484724
-0.471817
-0.862874
-1.14102
-1.6591
-2.22886
-2.88771
-3.54729
-4.17966
-4.84174
-5.44601
-5.95356
-6.20967
-6.171
-5.65192
-5.12836
-4.50383
-3.55597
-2.73882
-2.26626
-1.58612
-0.981672
-0.400881
-0.483029
-0.471253
-0.862539
-1.14175
-1.66092
-2.23013
-2.88587
-3.53877
-4.16057
-4.80828
-5.39468
-5.88117
-6.11628
-6.06288
-5.55215
-4.99081
-4.40716
-3.54198
-2.78303
-2.2719
-1.58536
-0.894168
-0.161536
-0.481255
-0.470705
-0.862186
-1.14255
-1.66293
-2.23182
-2.88472
-3.53108
-4.14206
-4.77411
-5.34071
-5.80144
-6.01318
-5.93529
-5.43571
-4.82411
-4.25691
-3.46622
-2.74169
-2.16758
-1.49281
-0.784179
0.0484436
-0.479449
-0.470222
-0.861906
-1.14351
-1.6652
-2.23396
-2.88415
-3.52383
-4.12336
-4.73814
-5.28264
-5.71285
-5.89795
-5.78643
-5.2962
-4.62677
-4.0532
-3.31288
-2.60532
-1.95693
-1.27818
-0.595742
0.260488
-0.477625
-0.469806
-0.861733
-1.14467
-1.66775
-2.23644
-2.88384
-3.51646
-4.10365
-4.69933
-5.2192
-5.6144
-5.76851
-5.61462
-5.12425
-4.39577
-3.79382
-3.068
-2.36383
-1.64383
-0.900686
-0.238576
0.59318
-0.475815
-0.46946
-0.861678
-1.146
-1.67048
-2.23905
-2.88342
-3.50839
-4.08219
-4.65698
-5.14973
-5.50605
-5.62407
-5.41975
-4.9122
-4.12705
-3.48283
-2.73811
-2.00965
-1.23743
-0.387055
0.319158
1.10546
-0.474011
-0.469153
-0.861703
-1.14743
-1.67325
-2.24153
-2.88251
-3.49916
-4.0585
-4.61077
-5.07414
-5.38855
-5.46521
-5.20367
-4.65789
-3.82146
-3.12848
-2.34352
-1.55493
-0.75618
0.158636
0.935745
1.69057
-0.472228
-0.468869
-0.861773
-1.14887
-1.67591
-2.24367
-2.88081
-3.48848
-4.03241
-4.5609
-4.99316
-5.26378
-5.29444
-4.97135
-4.36725
-3.48866
-2.73916
-1.90375
-1.0334
-0.228424
0.677695
1.45318
2.16497
-0.470446
-0.468576
-0.861835
-1.15025
-1.67834
-2.24531
-2.87818
-3.47628
-4.00408
-4.50798
-4.90799
-5.13417
-5.11556
-4.73007
-4.05447
-3.13837
-2.31766
-1.43055
-0.479459
0.310386
1.16335
1.89198
2.52934
-0.468676
-0.468269
-0.861863
-1.15149
-1.68046
-2.24636
-2.87457
-3.46268
-3.97389
-4.45288
-4.82021
-5.00252
-4.9333
-4.48828
-3.73823
-2.78297
-1.87336
-0.936784
0.0812238
0.835367
1.61753
2.30678
2.88007
-0.466895
-0.467929
-0.861823
-1.15258
-1.68224
-2.24681
-2.87005
-3.44789
-3.94234
-4.39647
-4.73126
-4.87126
-4.75206
-4.25346
-3.43283
-2.44286
-1.43267
-0.447628
0.623798
1.32971
2.02954
2.67256
3.21342
-0.465117
-0.467568
-0.861713
-1.15349
-1.68367
-2.24669
-2.86473
-3.43219
-3.90989
-4.33952
-4.64234
-4.74226
-4.57551
-4.0317
-3.1453
-2.13223
-1.02574
0.0051348
1.12017
1.79545
2.39727
2.9825
3.50528
-0.463319
-0.467178
-0.861522
-1.15423
-1.68477
-2.24607
-2.85876
-3.4158
-3.87689
-4.28248
-4.55406
-4.61634
-4.4056
-3.8267
-2.87856
-1.84805
-0.666256
0.401958
1.54169
2.25192
2.76395
3.29228
3.78319
-0.46152
-0.466776
-0.861264
-1.15482
-1.68558
-2.24501
-2.85225
-3.39889
-3.84356
-4.22553
-4.46662
-4.49352
-4.2427
-3.63944
-2.63614
-1.58139
-0.353649
0.73358
1.86698
2.66859
3.17449
3.64187
4.05179
-0.459696
-0.466357
-0.860937
-1.15528
-1.68613
-2.24356
-2.84526
-3.38153
-3.8099
-4.16853
-4.37961
-4.37288
-4.08546
-3.46746
-2.42148
-1.33085
-0.0841346
0.998167
2.09101
2.97749
3.55844
3.99463
4.3295
-0.457869
-0.465938
-0.860558
-1.15561
-1.68643
-2.24174
-2.83782
-3.36371
-3.77583
-4.11115
-4.29242
-4.25311
-3.93159
-3.30578
-2.23512
-1.10384
0.144509
1.20438
2.22864
3.14236
3.81264
4.27128
4.5839
-0.456017
-0.46551
-0.860123
-1.15584
-1.6865
-2.23958
-2.82991
-3.34535
-3.74112
-4.05293
-4.20419
-4.13257
-3.77822
-3.14771
-2.07222
-0.906877
0.333356
1.36721
2.31203
3.1897
3.90786
4.41376
4.75316
-0.454162
-0.465086
-0.859644
-1.15595
-1.68634
-2.23705
-2.82149
-3.32631
-3.70552
-3.9934
-4.11417
-4.00983
-3.62278
-2.98669
-1.92327
-0.739501
0.484209
1.50174
2.37877
3.18189
3.90209
4.44196
4.81107
-0.452279
-0.464654
-0.859112
-1.15596
-1.68593
-2.23411
-2.81247
-3.30645
-3.66878
-3.93213
-4.02168
-3.88368
-3.46318
-2.81739
-1.77617
-0.59431
0.604587
1.61925
2.45508
3.18551
3.87284
4.41408
4.79471
-0.450392
-0.464223
-0.858535
-1.15586
-1.68526
-2.23073
-2.80278
-3.28562
-3.63069
-3.86882
-3.92633
-3.75349
-3.29842
-2.63703
-1.62056
-0.459283
0.709554
1.72853
2.55174
3.22935
3.86882
4.38501
4.75866
-0.448475
-0.463777
-0.857897
-1.15563
-1.6843
-2.22685
-2.79232
-3.26369
-3.59107
-3.8033
-3.82795
-3.61905
-3.12841
-2.4454
-1.45173
-0.321152
0.813131
1.83523
2.66628
3.30599
3.89702
4.37212
4.72611
-0.446552
-0.463325
-0.857202
-1.15526
-1.68302
-2.22243
-2.78101
-3.24054
-3.54983
-3.73553
-3.72668
-3.48077
-2.95413
-2.24457
-1.27147
-0.173633
0.921211
1.93527
2.78096
3.39279
3.93779
4.36643
4.69197
-0.444593
-0.462848
-0.856433
-1.15475
-1.6814
-2.2174
-2.76878
-3.21611
-3.50691
-3.66558
-3.62282
-3.33937
-2.77728
-2.03816
-1.08318
-0.020196
1.0314
2.01886
2.86969
3.46433
3.96775
4.35227
4.64738
-0.442623
-0.462357
-0.855593
-1.15406
-1.67939
-2.21173
-2.75558
-3.19032
-3.46234
-3.59364
-3.51687
-3.19593
-2.60008
-1.83137
-0.888903
0.133688
1.1386
2.08189
2.92001
3.50083
3.96951
4.31729
4.58519
-0.44061
-0.461833
-0.854662
-1.1532
-1.67698
-2.20538
-2.74134
-3.16317
-3.41614
-3.5199
-3.40936
-3.0516
-2.42463
-1.62952
-0.692051
0.286978
1.24145
2.12762
2.93482
3.49655
3.934
4.25118
4.49693
-0.438581
-0.461286
-0.853644
-1.15213
-1.67414
-2.1983
-2.72604
-3.13462
-3.36838
-3.44462
-3.30088
-2.90762
-2.25279
-1.43639
-0.499735
0.440326
1.34197
2.161
2.91927
3.45318
3.8599
4.1498
4.37398
-0.4365
-0.4607
-0.85252
-1.15086
-1.67084
-2.19046
-2.70964
-3.10467
-3.31913
-3.36803
-3.19195
-2.76508
-2.08603
-1.25439
-0.320801
0.590464
1.43887
2.18413
2.87767
3.3749
3.74815
4.01241
4.21493
-0.434395
-0.460084
-0.851292
-1.14935
-1.66706
-2.18183
-2.69211
-3.07332
-3.26847
-3.29039
-3.08309
-2.62502
-1.9257
-1.08565
-0.161458
0.728676
1.52599
2.19664
2.81707
3.27035
3.60558
3.84402
4.02431
-0.432229
-0.459425
-0.849943
-1.14762
-1.66277
-2.17238
-2.67341
-3.04055
-3.21639
-3.21176
-2.9745
-2.48801
-1.77253
-0.931766
-0.0235163
0.845948
1.59479
2.19362
2.74232
3.14816
3.44106
3.65017
3.80703
-0.430042
-0.458729
-0.848477
-1.14562
-1.65794
-2.16205
-2.65349
-3.00634
-3.16305
-3.13255
-2.86688
-2.35519
-1.62729
-0.793131
0.0922207
0.934696
1.6412
2.17645
2.65889
3.01425
3.26499
3.44315
3.57615
-0.427858
-0.458044
-0.846938
-1.14344
-1.65261
-2.15076
-2.632
-2.96994
-3.10723
-3.05126
-2.75845
-2.22495
-1.48918
-0.668307
0.18626
0.994237
1.659
2.11912
2.55048
2.86824
3.0815
3.21809
3.30558
-0.426206
-0.45749
-0.845513
-1.14114
-1.6464
-2.1372
-2.60639
-2.92767
-3.0448
-2.96435
-2.648
-2.09959
-1.35897
-0.554931
0.252247
1.00792
1.65874
2.10905
2.48894
2.75107
2.94353
3.09531
3.20391
-0.422501
-0.455297
-0.841346
-1.13529
-1.63447
-2.11516
-2.56908
-2.87102
-2.96688
-2.86366
-2.52922
-1.97788
-1.25196
-0.479656
0.266209
0.947627
1.53152
1.93424
2.26625
2.50733
2.69293
2.83222
2.92705
-0.419336
-0.453365
-0.836916
-1.12818
-1.61918
-2.08704
-2.52274
-2.80333
-2.87741
-2.75341
-2.40363
-1.85258
-1.14836
-0.406364
0.283147
0.887432
1.39763
1.75309
2.03679
2.24574
2.40816
2.52702
2.60873
-0.416848
-0.452019
-0.83278
-1.1206
-1.60167
-2.05446
-2.46951
-2.72708
-2.77869
-2.63519
-2.27207
-1.72133
-1.03796
-0.320343
0.326129
0.867716
1.32588
1.64783
1.88273
2.04418
2.1677
2.25839
2.32416
-0.414271
-0.450637
-0.8282
-1.11176
-1.58115
-2.01674
-2.4089
-2.64205
-2.67054
-2.50867
-2.13664
-1.59223
-0.937353
-0.253339
0.355385
0.847746
1.25991
1.54686
1.73931
1.8595
1.94649
2.00858
2.05501
-0.411165
-0.448761
-0.822535
-1.10082
-1.55654
-1.97268
-2.33981
-2.54739
-2.5528
-2.37436
-2.00012
-1.4726
-0.860738
-0.230944
0.331258
0.775171
1.135
1.38249
1.54371
1.63892
1.70219
1.74389
1.77372
-0.407623
-0.446302
-0.815566
-1.08738
-1.52732
-1.92175
-2.26196
-2.44347
-2.42711
-2.23523
-1.86565
-1.36369
-0.804887
-0.246375
0.25253
0.639723
0.943596
1.15256
1.29116
1.37321
1.42451
1.45518
1.47459
-0.403636
-0.443178
-0.807088
-1.07118
-1.49319
-1.86383
-2.17569
-2.33141
-2.296
-2.09537
-1.73708
-1.26665
-0.764221
-0.283733
0.138387
0.461899
0.710726
0.884089
1.00347
1.07698
1.12208
1.14828
1.16397
-0.399193
-0.439255
-0.796826
-1.05184
-1.45381
-1.79877
-2.08129
-2.21218
-2.16148
-1.95827
-1.61899
-1.18717
-0.743196
-0.338941
0.00442053
0.264726
0.462837
0.603361
0.703615
0.769273
0.810245
0.835518
0.850956
-0.394168
-0.434374
-0.784471
-1.02906
-1.40887
-1.7265
-1.9791
-2.08665
-2.02514
-1.82659
-1.51558
-1.13155
-0.748903
-0.414023
-0.139514
0.0657266
0.221072
0.332536
0.414138
0.471787
0.509707
0.535123
0.551585
-0.388611
-0.428483
-0.76984
-1.00258
-1.35826
-1.64726
-1.86988
-1.95616
-1.88866
-1.70216
-1.42808
-1.09934
-0.778544
-0.503816
-0.283163
-0.120431
0.00198667
0.0901925
0.155787
0.206
0.240697
0.2658
0.283748
-0.382441
-0.421482
-0.752725
-0.972229
-1.30201
-1.56157
-1.75486
-1.82252
-1.75382
-1.58528
-1.35298
-1.08138
-0.818381
-0.594096
-0.41415
-0.281748
-0.182618
-0.110673
-0.0572746
-0.0143074
0.0165513
0.0401859
0.0581658
-0.375611
-0.413255
-0.732888
-0.937727
-1.24017
-1.47004
-1.63537
-1.6875
-1.62163
-1.4741
-1.28299
-1.06452
-0.852125
-0.669419
-0.520981
-0.410149
-0.32681
-0.265542
-0.220702
-0.183592
-0.155841
-0.133998
-0.116589
-0.367822
-0.403475
-0.709881
-0.898707
-1.17273
-1.37326
-1.5125
-1.55214
-1.49177
-1.36514
-1.21021
-1.03746
-0.867913
-0.719533
-0.596298
-0.501792
-0.429458
-0.374881
-0.334873
-0.301683
-0.275795
-0.255077
-0.238218
-0.358833
-0.391809
-0.683217
-0.854688
-1.09962
-1.27162
-1.38689
-1.41651
-1.36269
-1.25475
-1.12903
-0.993527
-0.859669
-0.740013
-0.637699
-0.556483
-0.492446
-0.442396
-0.404756
-0.374009
-0.349058
-0.329249
-0.313258
-0.348221
-0.377725
-0.652311
-0.805268
-1.02085
-1.16551
-1.25876
-1.27997
-1.23258
-1.1405
-1.03719
-0.930679
-0.825973
-0.730734
-0.646464
-0.577007
-0.520365
-0.474416
-0.438352
-0.409232
-0.385017
-0.365525
-0.349891
-0.335751
-0.360838
-0.61674
-0.750176
-0.93662
-1.05537
-1.12829
-1.142
-1.10036
-1.02177
-0.935483
-0.850702
-0.768971
-0.694361
-0.626452
-0.568276
-0.519129
-0.477811
-0.443859
-0.416114
-0.392893
-0.373935
-0.358651
-0.321
-0.340647
-0.576162
-0.689451
-0.847424
-0.941911
-0.996066
-1.00289
-0.966379
-0.899835
-0.827116
-0.758474
-0.6942
-0.636337
-0.583065
-0.535806
-0.4946
-0.45884
-0.428156
-0.402305
-0.380468
-0.362268
-0.347335
-0.303823
-0.316916
-0.53058
-0.623446
-0.75412
-0.826365
-0.863534
-0.864215
-0.832511
-0.777372
-0.716506
-0.660328
-0.609092
-0.563938
-0.522833
-0.485502
-0.452103
-0.422383
-0.395995
-0.37295
-0.353141
-0.336284
-0.322273
-0.283888
-0.289395
-0.480218
-0.552955
-0.658065
-0.710625
-0.733129
-0.728766
-0.701709
-0.657549
-0.607853
-0.562009
-0.520758
-0.484777
-0.452774
-0.423548
-0.396971
-0.372796
-0.350829
-0.331013
-0.313614
-0.298451
-0.285632
-0.261193
-0.258216
-0.425759
-0.479233
-0.561151
-0.597223
-0.607978
-0.599941
-0.577239
-0.543252
-0.504238
-0.46755
-0.434485
-0.405384
-0.379808
-0.356592
-0.335378
-0.315842
-0.297916
-0.281427
-0.266605
-0.253376
-0.241949
-0.235687
-0.223654
-0.368241
-0.404058
-0.465786
-0.489018
-0.491313
-0.481013
-0.462108
-0.436816
-0.407623
-0.379275
-0.353383
-0.330081
-0.309414
-0.290677
-0.273514
-0.257634
-0.243027
-0.229545
-0.217233
-0.206104
-0.196344
-0.207672
-0.186474
-0.309203
-0.329677
-0.374639
-0.388755
-0.385802
-0.37457
-0.358737
-0.34015
-0.319251
-0.298303
-0.278724
-0.260621
-0.244124
-0.229019
-0.215046
-0.202099
-0.190159
-0.179182
-0.169092
-0.159872
-0.151681
-0.177654
-0.147749
-0.250581
-0.258559
-0.290337
-0.298618
-0.2932
-0.28222
-0.268887
-0.254978
-0.240346
-0.225505
-0.211279
-0.197782
-0.185051
-0.173164
-0.16198
-0.15155
-0.141874
-0.132987
-0.124808
-0.11728
-0.110535
-0.146446
-0.10906
-0.194478
-0.193181
-0.215051
-0.220067
-0.214264
-0.204559
-0.193516
-0.182792
-0.172425
-0.162168
-0.152192
-0.142562
-0.133193
-0.124229
-0.115648
-0.10754
-0.0999574
-0.0929849
-0.0865915
-0.0806979
-0.0753911
-0.115298
-0.0721309
-0.143067
-0.135527
-0.150372
-0.153782
-0.14889
-0.141114
-0.132416
-0.124031
-0.116386
-0.109158
-0.102181
-0.0953853
-0.0886631
-0.0820577
-0.0756518
-0.0695081
-0.0637205
-0.0583666
-0.0534865
-0.0489918
-0.0449591
-0.0854157
-0.0388514
-0.098145
-0.087041
-0.0971398
-0.0999652
-0.0964755
-0.0908746
-0.0845447
-0.0782207
-0.0724459
-0.0671482
-0.0621241
-0.0572375
-0.0523999
-0.0475764
-0.0428593
-0.0382995
-0.0339867
-0.0299862
-0.0263731
-0.0230491
-0.0200427
-0.0583175
-0.0108542
-0.0610997
-0.0485136
-0.0556638
-0.0585757
-0.0565771
-0.0530652
-0.0490497
-0.0447956
-0.0407037
-0.0368816
-0.0332567
-0.0297057
-0.0261864
-0.0226533
-0.0191739
-0.0158059
-0.0126215
-0.00965821
-0.00699943
-0.00457914
-0.00239194
-0.0351984
0.0107724
-0.0326593
-0.0200223
-0.0254531
-0.0289433
-0.0283134
-0.0264702
-0.0243419
-0.0218937
-0.0193048
-0.0166915
-0.0141215
-0.0115299
-0.00893292
-0.00631163
-0.0037211
-0.00121681
0.00113148
0.00331826
0.00528237
0.00705613
0.00865385
-0.0181057
0.0236628
-0.0141505
-0.00184606
-0.00642179
-0.0112131
-0.0125519
-0.0129518
-0.0134013
-0.0136617
-0.0136415
-0.0132971
-0.0127054
-0.0118248
-0.0107098
-0.00939939
-0.00797297
-0.00645473
-0.00495012
-0.00353031
-0.00229013
-0.00117911
-8.82543e-05
-0.00859605
0.0259413
-0.00373084
0.00781492
0.00637192
0.00297171
0.0026813
0.0036898
0.00459205
0.00546706
0.00637134
0.00745608
0.00861466
0.00987891
0.0111551
0.0124962
0.0138313
0.0150833
0.0161363
0.0170824
0.0179778
0.0188249
0.0195506
0.525853
0.505329
0.620656
0.818057
1.06736
1.39127
1.81867
2.38408
3.12208
4.07524
5.28082
6.77712
8.58075
10.6873
13.0536
15.6021
18.2245
20.7981
23.2047
25.3491
27.1791
28.6713
29.8775
0.489689
0.487188
0.581626
0.760142
0.990864
1.29205
1.69113
2.22002
2.91251
3.80758
4.94024
6.34265
8.0284
9.98885
12.1806
14.5271
16.9236
19.2529
21.4043
23.2921
24.8717
26.1317
27.1251
0.443677
0.454932
0.530467
0.685253
0.891236
1.16156
1.52173
2.00085
2.6309
3.44746
4.48306
5.76495
7.30404
9.0892
11.0781
13.1973
15.3478
17.4202
19.3126
20.9488
22.2915
23.3384
24.141
0.385967
0.404325
0.4633
0.590198
0.765183
0.996491
1.30677
1.72228
2.2723
2.98897
3.90215
5.03546
6.39794
7.9779
9.73588
11.6037
13.4908
15.2972
16.931
18.3253
19.4494
20.3074
20.9472
0.314048
0.331743
0.375812
0.471551
0.609065
0.793211
1.04261
1.38037
1.83251
2.42758
3.19261
4.14865
5.30404
6.64862
8.14793
9.74203
11.351
12.8863
14.2667
15.4336
16.3614
17.0574
17.5651
0.224153
0.234894
0.263751
0.325688
0.419073
0.547504
0.724891
0.970407
1.3064
1.75755
2.34799
3.09694
4.01338
5.09083
6.30258
7.60003
8.917
10.179
11.3164
12.2779
13.0397
13.6063
14.013
0.111847
0.113505
0.124368
0.149522
0.191899
0.25505
0.348199
0.485744
0.685685
0.968605
1.35551
1.86442
2.50613
3.28003
4.17002
5.14247
6.14882
7.13206
8.03643
8.81808
9.45265
9.93837
10.2976
-0.0245502
-0.032316
-0.0441537
-0.0602925
-0.0765327
-0.089877
-0.0954924
-0.0843002
-0.0431672
0.0442693
0.196064
0.429598
0.758736
1.19083
1.7233
2.34104
3.01688
3.71449
4.39391
5.01866
5.56265
6.01325
6.37655
0.659077
0.476629
0.805
1.01097
1.34623
1.74512
2.26585
2.94615
3.81618
4.95424
6.38147
8.18692
10.3601
12.9119
15.7649
18.8281
21.9613
25.0171
27.8564
30.3779
32.5233
34.2956
35.7068
0.660129
0.482923
0.805545
1.00705
1.33955
1.73913
2.25957
2.94153
3.81574
4.96083
6.40127
8.22389
10.4233
13.0126
15.9241
19.0748
22.3349
25.5608
28.6117
31.3745
33.7768
35.8023
37.448
0.660768
0.488819
0.807684
1.00474
1.33277
1.7321
2.251
2.93258
3.80836
4.95661
6.40589
8.24001
10.4587
13.0754
16.0302
19.2465
22.6036
25.9631
29.1852
32.1492
34.7723
37.0203
38.8805
0.661051
0.493372
0.810293
1.00423
1.32626
1.72418
2.24044
2.91968
3.79439
4.94187
6.39507
8.23466
10.4652
13.0992
16.0827
19.3431
22.7677
26.2232
29.5728
32.6913
35.4898
37.9182
39.9593
0.660981
0.496245
0.811605
1.0044
1.31939
1.71481
2.22752
2.90293
3.7743
4.91745
6.3694
8.20793
10.4421
13.0827
16.0803
19.3645
22.8283
26.3432
29.7758
32.9993
35.9218
38.4815
40.6594
0.660399
0.497631
0.810264
1.00415
1.31178
1.70395
2.21268
2.88334