/*--------------------------------*- C++ -*----------------------------------*\
  =========                 |
  \\      /  F ield         | OpenFOAM: The Open Source CFD Toolbox
   \\    /   O peration     | Website:  https://openfoam.org
    \\  /    A nd           | Version:  7
     \\/     M anipulation  |
\*---------------------------------------------------------------------------*/
FoamFile
{
    version     2.0;
    format      ascii;
    class       surfaceScalarField;
    location    "82";
    object      phi;
}
// * * * * * * * * * * * * * * * * * * * * * * * * * * * * * * * * * * * * * //

dimensions      [0 3 -1 0 0 0 0];

internalField   nonuniform List<scalar> 
25449
(
68.0871
48.7496
-24.4724
50.5067
36.1738
-18.5933
37.6553
26.9857
-14.1344
28.1878
20.2234
-10.7559
21.1698
15.2153
-8.19731
15.9421
11.4873
-6.25958
12.033
8.70069
-4.79163
9.10117
6.61088
-3.67907
6.89713
5.03926
-2.83522
5.23718
3.85433
-2.19438
3.98522
2.95866
-1.7067
3.03998
2.27963
-1.33439
2.32581
1.76297
-1.04881
1.78605
1.36811
-0.828345
1.37812
1.06475
-0.656822
1.06998
0.830336
-0.522188
0.83739
0.648149
-0.415562
0.662024
0.505823
-0.330457
0.529957
0.394216
-0.262149
0.430605
0.306532
-0.20718
0.355928
0.237647
-0.16297
0.299816
0.183655
-0.127544
0.14142
-0.0992847
0.257681
53.1061
67.2754
39.5777
49.7023
29.6201
36.9433
22.2434
27.6001
16.7511
20.7077
12.6456
15.5928
9.56728
11.779
7.25363
8.92453
5.51143
6.78145
4.19761
5.16816
3.2057
3.95057
2.45621
3.02912
1.88963
2.32955
1.4613
1.79644
1.13761
1.38844
0.893218
1.07473
0.708948
0.832419
0.570235
0.644535
0.465999
0.498452
0.387792
0.384739
0.329184
0.296255
0.285285
0.227554
0.17428
0.252425
40.4651
80.9435
30.3581
59.8094
22.8428
44.4585
17.2303
33.2127
13.0248
24.9131
9.86579
18.7518
7.48804
14.1567
5.69562
10.717
4.34281
8.13427
3.32078
6.19018
2.54806
4.72329
1.96352
3.61366
1.52124
2.77184
1.18667
2.13102
0.933766
1.64134
0.742851
1.26564
0.598988
0.976282
0.490808
0.752714
0.409636
0.579624
0.348842
0.445533
0.303372
0.341725
0.269378
0.261548
0.19968
0.243978
30.478
90.7261
23.095
67.1923
17.5159
50.0377
13.2969
37.4316
10.1053
28.1047
7.69004
21.1671
5.86185
15.9849
4.47771
12.1011
3.42955
9.18244
2.6356
6.98412
2.03407
5.32482
1.57823
4.0695
1.23283
3.11724
0.971241
2.3926
0.773342
1.83924
0.623873
1.41511
0.511223
1.08893
0.426529
0.837408
0.363003
0.643149
0.315451
0.493086
0.279903
0.377272
0.253342
0.288109
0.219521
0.233501
22.8733
97.4893
17.5907
72.475
13.4938
54.1346
10.3357
40.5897
7.91211
30.5283
6.05817
23.021
4.64335
17.3998
3.56556
13.1789
2.74553
10.0025
2.1221
7.60755
1.64836
5.79857
1.28846
4.42939
1.01517
3.39053
0.807795
2.59997
0.650652
1.99638
0.531792
1.53397
0.442099
1.17862
0.374585
0.904922
0.323889
0.693845
0.285897
0.531078
0.257462
0.405707
0.236191
0.30938
0.235433
0.220278
17.213
101.943
13.5202
76.1677
10.5348
57.1201
8.16602
42.9585
6.30998
32.3844
4.86853
24.4625
3.75614
18.5122
2.90166
14.0334
2.24745
10.6567
1.74769
8.10731
1.36644
6.17982
1.07584
4.71999
0.854518
3.61185
0.686114
2.76838
0.558157
2.12434
0.461115
1.63101
0.387684
1.25206
0.332252
0.960354
0.2905
0.735596
0.25911
0.562468
0.235538
0.429279
0.217849
0.327069
0.248709
0.204573
13.0669
104.644
10.5639
78.6708
8.40026
59.2838
6.60926
44.7495
5.1649
33.8287
4.02047
25.6069
3.12449
19.4081
2.42903
14.7288
1.89242
11.1933
1.48008
8.51966
1.16403
6.49587
0.92216
4.96185
0.737269
3.79675
0.596079
2.90956
0.488404
2.23201
0.406422
1.71299
0.34412
1.31436
0.296866
1.00761
0.261092
0.77137
0.234051
0.589509
0.213633
0.449696
0.19823
0.342472
0.260327
0.186612
10.0636
106.022
8.4454
80.289
6.88404
60.8451
5.51097
46.1225
4.36093
34.9788
3.42674
26.5411
2.68269
20.1522
2.09814
15.3134
1.64314
11.6483
1.29122
8.87158
1.02008
6.76701
0.81166
5.17028
0.651662
3.95674
0.528958
3.03227
0.434952
2.32602
0.363013
1.78493
0.308035
1.36934
0.266071
1.04957
0.234084
0.803357
0.20973
0.613863
0.191211
0.468215
0.177139
0.356545
0.271009
0.166456
7.51523
108.622
5.62536
82.1788
4.23158
62.2389
3.20008
47.154
2.4317
35.7472
1.85716
27.1156
1.426
20.5833
1.1017
15.6377
0.85723
11.8928
0.672568
9.05624
0.532742
6.90684
0.426594
5.27642
0.345819
4.03752
0.284231
3.09386
0.237218
2.37303
0.201304
1.82084
0.173863
1.39678
0.152892
1.07054
0.136864
0.819384
0.124615
0.626112
0.115253
0.477576
0.108114
0.363684
0.276466
0.102657
5.41123
110.503
4.05136
83.5387
3.05035
63.2399
2.31168
47.8927
1.76224
36.2966
1.35196
27.5259
1.0443
20.891
0.813021
15.8689
0.638728
12.067
0.507073
9.1879
0.407319
7.00659
0.331483
5.35226
0.273635
4.09537
0.229374
3.13812
0.195428
2.40698
0.169336
1.84694
0.149242
1.41687
0.133732
1.08605
0.121737
0.831378
0.112448
0.635401
0.105246
0.484777
0.0996736
0.369257
0.280783
0.0953565
3.82605
111.835
2.86749
84.4973
2.16293
63.9445
1.64455
48.4111
1.25943
36.6817
0.972198
27.8131
0.756908
21.1063
0.595139
16.0307
0.473247
12.1889
0.381144
9.28
0.311271
7.07646
0.258017
5.40551
0.217227
4.13616
0.185833
3.16951
0.161562
2.43125
0.142712
1.86579
0.128005
1.43158
0.116472
1.09759
0.107388
0.840462
0.100213
0.642577
0.0945342
0.490456
0.0900546
0.373737
0.284315
0.086522
2.6416
112.751
1.98473
85.1542
1.5021
64.4271
1.14793
48.7653
0.884931
36.9447
0.688929
28.0091
0.541994
21.2532
0.431587
16.1411
0.348371
12.2722
0.285434
9.34294
0.237575
7.12432
0.200938
5.44215
0.172678
4.16442
0.150708
3.19148
0.133495
2.44846
0.119897
1.87938
0.109066
1.44241
0.100365
1.10629
0.0933279
0.847498
0.087616
0.648289
0.0829734
0.495099
0.079222
0.377488
0.287339
0.0761978
1.76485
113.355
1.3328
85.5863
1.01467
64.7452
0.781506
48.9984
0.608164
37.1181
0.478904
28.1384
0.381853
21.3503
0.308853
16.2141
0.253763
12.3272
0.212007
9.38469
0.180118
7.15621
0.155516
5.46675
0.136312
4.18362
0.121131
3.20666
0.108979
2.46061
0.0991229
1.88924
0.0910306
1.4505
0.0843103
1.11301
0.0786878
0.85312
0.073972
0.653004
0.070022
0.499048
0.0667467
0.380763
0.29004
0.064046
1.12558
113.726
0.85897
85.8529
0.660975
64.9432
0.515507
49.1439
0.406792
37.2268
0.325409
28.2198
0.264015
21.4117
0.217677
16.2605
0.182591
12.3623
0.155872
9.41141
0.1353
7.17678
0.119208
5.48284
0.106386
4.19645
0.0959649
3.21708
0.0873352
2.46924
0.0800589
1.89652
0.073832
1.45673
0.0684407
1.1184
0.0637498
0.857811
0.0596757
0.657078
0.0561602
0.502564
0.0531744
0.383749
0.292552
0.0506625
0.660841
113.923
0.515847
85.9979
0.405291
65.0538
0.323013
49.2262
0.260533
37.2893
0.213178
28.2671
0.177011
21.4478
0.149458
16.288
0.128427
12.3834
0.112247
9.42759
0.0995893
7.18944
0.0894329
5.493
0.0810421
4.20484
0.0739057
3.22422
0.0676838
2.47546
0.0621489
1.90205
0.0571617
1.46171
0.0526373
1.12292
0.0485414
0.861907
0.0448677
0.660752
0.0416167
0.505815
0.0388028
0.386563
0.294956
0.0363987
0.333421
113.993
0.275547
86.0558
0.226676
65.1027
0.188318
49.2645
0.15761
37.32
0.133403
28.2913
0.114265
21.467
0.0993123
16.303
0.0876644
12.395
0.0784922
9.43676
0.0710817
7.19685
0.0648432
5.49924
0.0593608
4.21032
0.0543612
3.22922
0.0496875
2.48014
0.0452568
1.90648
0.0410442
1.46593
0.0370552
1.12691
0.0333256
0.865637
0.0299009
0.664177
0.0268199
0.508895
0.024123
0.389259
0.297281
0.021798
0.105923
113.971
0.11003
86.0516
0.104109
65.1086
0.0956866
49.273
0.0862695
37.3294
0.0773355
28.3003
0.0693013
21.475
0.0624814
16.3098
0.0568461
12.4006
0.0521386
9.44147
0.0480568
7.20093
0.0442902
5.503
0.040629
4.21398
0.0369521
3.23289
0.0332229
2.48387
0.0294555
1.91025
0.0257041
1.46968
0.0220368
1.13058
0.0185368
0.869137
0.0152828
0.667431
0.0123364
0.511842
0.00975218
0.391843
0.299514
0.00751905
-0.0464443
113.881
0.000724722
86.0045
0.023677
65.0856
0.0347037
49.2619
0.038724
37.3254
0.0391748
28.2998
0.0378163
21.4764
0.0357925
16.3118
0.0336556
12.4028
0.0315196
9.4436
0.0293431
7.20311
0.0269816
5.50537
0.0243461
4.21661
0.0214049
3.23583
0.0181942
2.48708
0.0147914
1.91365
0.0113027
1.47317
0.00783913
1.13404
0.0045127
0.872463
0.00142217
0.670521
-0.00136722
0.514631
-0.00379631
0.394272
0.301605
-0.00588761
-0.143132
113.743
-0.0669015
85.9283
-0.025491
65.0442
-0.00275208
49.2392
0.00891924
37.3137
0.0144232
28.2943
0.0164843
21.4743
0.0168064
16.3115
0.0163246
12.4033
0.0153753
9.44455
0.0140678
7.20442
0.0123396
5.50709
0.0101612
4.21879
0.007544
3.23845
0.00456347
2.49006
0.00133539
1.91688
-0.00200173
1.4765
-0.00530969
1.13735
-0.00846388
0.875617
-0.0113583
0.673415
-0.0139344
0.517207
-0.016139
0.396477
0.303476
-0.0180101
-0.199136
113.572
-0.104083
85.8332
-0.0518204
64.992
-0.0230036
49.2104
-0.00788715
37.2986
-0.000472488
28.2869
0.00264827
21.4712
0.00354267
16.3106
0.00338422
12.4034
0.00262448
9.44531
0.00144491
7.20559
-0.000195738
5.50873
-0.002312
4.22091
-0.0048825
3.24102
-0.00781664
2.49299
-0.0109778
1.92004
-0.0142091
1.47974
-0.0173557
1.1405
-0.0202911
0.878552
-0.0229144
0.676038
-0.0251822
0.519475
-0.0270685
0.398363
0.305034
-0.0286262
-0.227014
113.377
-0.120242
85.7264
-0.0623975
64.9341
-0.0313897
49.1794
-0.0157233
37.2829
-0.00855745
28.2797
-0.00599782
21.4686
-0.00574583
16.3103
-0.00648854
12.4042
-0.00773303
9.44656
-0.00927974
7.20714
-0.0111902
5.51064
-0.0134934
4.22321
-0.0161799
3.24371
-0.0191596
2.49597
-0.0222858
1.92317
-0.0253932
1.48284
-0.0283207
1.14342
-0.030951
0.881183
-0.0332007
0.678288
-0.0350509
0.521325
-0.0365172
0.399829
0.306185
-0.037669
-0.233355
113.166
-0.120323
85.6134
-0.0609361
64.8747
-0.030714
49.1492
-0.0167047
37.2689
-0.0114286
28.2745
-0.0106605
21.4679
-0.0119758
16.3117
-0.0139959
12.4062
-0.016239
9.4488
-0.0185253
7.20943
-0.0209671
5.51309
-0.0236301
4.22587
-0.0265342
3.24661
-0.0296018
2.49904
-0.0326863
1.92625
-0.0356225
1.48578
-0.038255
1.14606
-0.040487
0.883414
-0.0422663
0.680067
-0.0436073
0.522665
-0.0445757
0.400797
0.306868
-0.0452585
-0.223802
112.944
-0.108537
85.4981
-0.0506015
64.8168
-0.0233772
49.1219
-0.0126842
37.2582
-0.0105396
28.2723
-0.0124868
21.4698
-0.016045
16.3152
-0.0198318
12.41
-0.023427
9.45239
-0.0267032
7.2127
-0.0298475
5.51623
-0.0329766
4.229
-0.0361506
3.24978
-0.0393135
2.5022
-0.0423263
1.92926
-0.0450326
1.48848
-0.0472949
1.14832
-0.0490489
0.885168
-0.0502867
0.681304
-0.0510611
0.523439
-0.0514894
0.401225
0.30705
-0.0516714
-0.486559
112.792
-0.375514
85.3871
-0.293501
64.7348
-0.232647
49.0611
-0.187371
37.2129
-0.153711
28.2387
-0.128669
21.4448
-0.110008
16.2966
-0.0960343
12.396
-0.0855877
9.44195
-0.0778423
7.20496
-0.0722956
5.51068
-0.0685505
4.22526
-0.066262
3.2475
-0.0650559
2.50099
-0.064525
1.92873
-0.0642928
1.48825
-0.0640551
1.14808
-0.0636391
0.884752
-0.0629857
0.680651
-0.0621214
0.522575
-0.0611695
0.400273
0.306088
-0.0602084
-0.473692
112.648
-0.368964
85.2824
-0.291472
64.6573
-0.233904
49.0035
-0.191029
37.1701
-0.159141
28.2068
-0.135413
21.421
-0.11773
16.2789
-0.104468
12.3827
-0.0945143
9.43199
-0.0870628
7.19751
-0.0816236
5.50524
-0.0777995
4.22143
-0.0752418
3.24494
-0.0735721
2.49932
-0.072387
1.92755
-0.0713355
1.4872
-0.0701653
1.14691
-0.0687757
0.883362
-0.0671849
0.67906
-0.0654845
0.520874
-0.0638306
0.398619
0.304552
-0.0622944
-0.461006
112.512
-0.362179
85.1836
-0.288904
64.584
-0.234397
48.949
-0.193756
37.1294
-0.163511
28.1765
-0.141
21.3985
-0.124216
16.2621
-0.111604
12.3701
-0.102089
9.42248
-0.0948841
7.1903
-0.0895088
5.49987
-0.0855637
4.21749
-0.0826979
3.24207
-0.0805341
2.49716
-0.0786827
1.92569
-0.0768309
1.48535
-0.0747885
1.14487
-0.0725292
0.881102
-0.0701394
0.67667
-0.06776
0.518495
-0.0655559
0.396414
0.302579
-0.0635833
-0.44855
112.384
-0.355264
85.0903
-0.285945
64.5147
-0.234306
48.8974
-0.195752
37.0909
-0.167043
28.1478
-0.145665
21.3772
-0.129715
16.2461
-0.1177
12.3581
-0.108581
9.41336
-0.101585
7.18331
-0.0962384
5.49452
-0.0921387
4.21339
-0.0889353
3.23887
-0.0862591
2.49448
-0.0837456
1.92318
-0.0811307
1.48273
-0.0782934
1.14203
-0.0752758
0.878084
-0.0722212
0.673615
-0.0693025
0.515576
-0.0666782
0.393789
0.300286
-0.0643856
-0.436355
112.264
-0.348293
85.0022
-0.282703
64.4491
-0.233759
48.8484
-0.197166
37.0543
-0.169895
28.1206
-0.149579
21.3568
-0.134406
16.231
-0.122944
12.3466
-0.114184
9.4046
-0.107366
7.17649
-0.102019
5.48917
-0.0977374
4.20911
-0.0941754
3.2353
-0.0909795
2.49129
-0.0878217
1.92002
-0.0844952
1.47941
-0.0809495
1.13848
-0.0772872
0.874421
-0.0736936
0.670021
-0.0703597
0.512242
-0.0674248
0.390854
0.297766
-0.0649054
-0.424442
112.151
-0.341321
84.9191
-0.279254
64.387
-0.232853
48.802
-0.198108
37.0195
-0.172191
28.0946
-0.152871
21.3375
-0.138425
16.2165
-0.127478
12.3357
-0.119045
9.39616
-0.112379
7.16982
-0.107007
5.4838
-0.102523
4.20462
-0.0985887
3.23137
-0.0948751
2.48757
-0.0911016
1.91625
-0.0871246
1.47543
-0.082962
1.13432
-0.078766
0.870225
-0.0747502
0.666005
-0.0711084
0.508599
-0.0679533
0.387699
0.295094
-0.0652814
-0.412824
112.044
-0.334386
84.8407
-0.275657
64.3283
-0.231663
48.758
-0.198664
36.9865
-0.174024
28.07
-0.155641
21.3191
-0.141879
16.2028
-0.131413
12.3252
-0.12328
9.38803
-0.116742
7.16328
-0.111324
5.47838
-0.106621
4.19992
-0.102308
3.22706
-0.0980863
2.48335
-0.0937341
1.91189
-0.0891739
1.47087
-0.0844872
1.12963
-0.0798641
0.865601
-0.0755314
0.661673
-0.0716736
0.504741
-0.0683731
0.384398
0.292329
-0.0656088
-0.401507
111.944
-0.327518
84.7667
-0.271959
64.2727
-0.230247
48.7163
-0.1989
36.9552
-0.175468
28.0466
-0.157971
21.3016
-0.144853
16.1896
-0.134836
12.3152
-0.126979
9.38017
-0.120549
7.15685
-0.11507
5.4729
-0.110136
4.19498
-0.105442
3.22236
-0.100728
2.47864
-0.0958405
1.90701
-0.090768
1.46579
-0.0856485
1.12451
-0.0806973
0.860649
-0.0761423
0.657117
-0.0721474
0.500746
-0.0687638
0.381014
0.28952
-0.0659562
-0.390495
111.849
-0.32074
84.6969
-0.268196
64.2202
-0.22865
48.6768
-0.198872
36.9254
-0.176585
28.0243
-0.159926
21.285
-0.147414
16.1771
-0.13782
12.3056
-0.130217
9.37257
-0.123878
7.15051
-0.118324
5.46735
-0.113152
4.18981
-0.108079
3.21729
-0.102896
2.47345
-0.0975183
1.90163
-0.0920052
1.46028
-0.0865403
1.11904
-0.0813523
0.85546
-0.0766589
0.652424
-0.072596
0.496683
-0.0691828
0.3776
0.28671
-0.0663727
-0.379787
111.761
-0.314069
84.6312
-0.264395
64.1705
-0.22691
48.6393
-0.198624
36.8971
-0.177423
28.0031
-0.161558
21.2691
-0.149621
16.1652
-0.140423
12.2964
-0.133056
9.3652
-0.126794
7.14425
-0.121154
5.46171
-0.11574
4.1844
-0.110296
3.21184
-0.104667
2.46782
-0.0988478
1.89581
-0.0929635
1.4544
-0.0872356
1.11332
-0.081894
0.850118
-0.0771373
0.647667
-0.0730668
0.492612
-0.0696716
0.374204
0.283933
-0.0668956
-0.369384
111.678
-0.307518
84.5693
-0.260581
64.1236
-0.225061
48.6038
-0.198194
36.8703
-0.178026
27.9829
-0.162915
21.254
-0.151522
16.1538
-0.142699
12.2876
-0.13555
9.35805
-0.129352
7.13805
-0.123619
5.45597
-0.117962
4.17874
-0.112157
3.20604
-0.106109
2.46177
-0.0998962
1.88959
-0.093706
1.4482
-0.0877908
1.1074
-0.0823724
0.844699
-0.0776195
0.642914
-0.0735951
0.488588
-0.0702607
0.37087
0.281222
-0.0675512
-0.359284
111.6
-0.301099
84.5111
-0.256776
64.0793
-0.22313
48.5701
-0.197617
36.8447
-0.178432
27.9637
-0.164038
21.2396
-0.153161
16.1429
-0.144692
12.2791
-0.137745
9.35111
-0.131602
7.13191
-0.125771
5.45014
-0.119873
4.17284
-0.113721
3.19989
-0.107283
2.45533
-0.10072
1.88303
-0.0942829
1.44177
-0.0882481
1.10136
-0.0828221
0.839272
-0.0781336
0.638226
-0.0742039
0.484658
-0.0709696
0.367635
0.278609
-0.068357
-0.349483
111.528
-0.294819
84.4565
-0.252996
64.0375
-0.22114
48.5383
-0.196919
36.8205
-0.178672
27.9455
-0.16496
21.2259
-0.154574
16.1325
-0.14644
12.271
-0.139683
9.34435
-0.133586
7.12581
-0.127655
5.44421
-0.12152
4.1667
-0.115036
3.1934
-0.108236
2.44853
-0.101364
1.87616
-0.0947327
1.43514
-0.0886355
1.09526
-0.0832615
0.833897
-0.0786929
0.633657
-0.0749043
0.480869
-0.0718099
0.36454
0.276124
-0.0693264
-0.33998
111.46
-0.288688
84.4052
-0.249256
63.998
-0.219113
48.5081
-0.196128
36.7975
-0.178776
27.9281
-0.165716
21.2128
-0.155797
16.1226
-0.147981
12.2632
-0.141402
9.33777
-0.135345
7.11976
-0.129313
5.43818
-0.12295
4.16034
-0.11615
3.1866
-0.109016
2.4414
-0.101869
1.86901
-0.095085
1.42835
-0.0889706
1.08915
-0.0836963
0.828622
-0.0792971
0.629259
-0.0756969
0.477268
-0.0727838
0.361626
0.273802
-0.0704632
-0.330769
111.397
-0.282711
84.3571
-0.245571
63.9609
-0.21707
48.4796
-0.195266
36.7757
-0.178772
27.9116
-0.166332
21.2004
-0.156859
16.1131
-0.149346
12.2557
-0.142935
9.33136
-0.136914
7.11373
-0.130782
5.43205
-0.1242
4.15376
-0.117103
3.1795
-0.109661
2.43395
-0.102268
1.86162
-0.0953603
1.42144
-0.0892601
1.08305
-0.084119
0.823479
-0.0799292
0.625068
-0.0765618
0.4739
-0.0738719
0.358936
0.271679
-0.0717504
-0.321848
111.338
-0.276893
84.3122
-0.241954
63.9259
-0.215027
48.4527
-0.194357
36.7551
-0.178682
27.896
-0.166838
21.1886
-0.15779
16.1041
-0.150566
12.2484
-0.144314
9.32511
-0.138325
7.10775
-0.132097
5.42582
-0.12531
4.14697
-0.117933
3.17213
-0.110207
2.42623
-0.102589
1.854
-0.0955733
1.41443
-0.0895013
1.07698
-0.0845103
0.818487
-0.0805484
0.621107
-0.0774452
0.470797
-0.0750218
0.356512
0.269799
-0.0731432
-0.313212
111.284
-0.27124
84.2702
-0.238415
63.8931
-0.213001
48.4273
-0.193419
36.7355
-0.178531
27.8811
-0.167256
21.1773
-0.158616
16.0955
-0.151668
12.2415
-0.145568
9.31901
-0.139611
7.10179
-0.133292
5.4195
-0.126312
4.13999
-0.118675
3.16449
-0.110688
2.41824
-0.102858
1.84617
-0.0957338
1.4073
-0.0896805
1.07092
-0.0848308
0.813637
-0.0810962
0.617372
-0.0782647
0.467965
-0.0761333
0.354381
0.268201
-0.0745358
-0.304857
111.234
-0.265756
84.2311
-0.234966
63.8623
-0.211007
48.4033
-0.192472
36.7169
-0.178339
27.8669
-0.167611
21.1665
-0.159362
16.0872
-0.152679
12.2348
-0.146725
9.31305
-0.140799
7.09586
-0.134397
5.4131
-0.12724
4.13283
-0.119364
3.15661
-0.111133
2.41001
-0.1031
1.83814
-0.0958514
1.40005
-0.0897805
1.06485
-0.0850231
0.808879
-0.0814758
0.613825
-0.0788978
0.465386
-0.077052
0.352535
0.26689
-0.075742
-0.29678
111.187
-0.260445
84.1948
-0.231617
63.8335
-0.20906
48.3808
-0.191532
36.6994
-0.178127
27.8535
-0.167925
21.1563
-0.160052
16.0793
-0.153623
12.2284
-0.14781
9.30724
-0.141918
7.08997
-0.135441
5.40662
-0.128124
4.12552
-0.120029
3.14852
-0.111573
2.40155
-0.103339
1.8299
-0.0959368
1.39265
-0.089789
1.0587
-0.0850372
0.804127
-0.0815777
0.610365
-0.0791591
0.462968
-0.0775193
0.350895
0.265807
-0.0764369
-0.288976
111.145
-0.255311
84.1611
-0.228376
63.8066
-0.207173
48.3596
-0.190618
36.6829
-0.177914
27.8408
-0.168219
21.1467
-0.160708
16.0718
-0.154525
12.2222
-0.14885
9.30156
-0.142995
7.08412
-0.136452
5.40008
-0.128994
4.11806
-0.120703
3.14023
-0.112037
2.39289
-0.1036
1.82147
-0.0960066
1.38506
-0.0896998
1.05239
-0.084834
0.799261
-0.0813052
0.606837
-0.0788638
0.460526
-0.0772436
0.349276
0.264786
-0.076223
-0.281441
111.106
-0.250357
84.13
-0.225253
63.7815
-0.20536
48.3397
-0.189745
36.6672
-0.177719
27.8288
-0.168513
21.1374
-0.161352
16.0647
-0.155408
12.2163
-0.149867
9.29602
-0.144052
7.0783
-0.137456
5.39348
-0.129876
4.11048
-0.121413
3.13177
-0.112551
2.38403
-0.103911
1.81282
-0.0960876
1.37723
-0.0895298
1.04584
-0.084395
0.794127
-0.080589
0.60303
-0.0778833
0.45782
-0.0760366
0.347429
0.263586
-0.0748369
-0.274171
111.071
-0.245587
84.1014
-0.222258
63.7581
-0.203632
48.321
-0.188929
36.6525
-0.177558
27.8174
-0.168826
21.1287
-0.162004
16.0578
-0.156293
12.2105
-0.150886
9.29061
-0.145116
7.07253
-0.138478
5.38684
-0.130797
4.1028
-0.122189
3.12316
-0.113148
2.37499
-0.104306
1.80398
-0.0962178
1.36914
-0.0893205
1.03894
-0.0837681
0.788574
-0.0794776
0.59874
-0.0762741
0.454616
-0.0739568
0.345112
0.26196
-0.0723305
-0.267163
111.04
-0.241004
84.0753
-0.219396
63.7365
-0.202003
48.3036
-0.188184
36.6387
-0.17745
27.8067
-0.169178
21.1204
-0.162685
16.0513
-0.157201
12.2051
-0.151927
9.28534
-0.146209
7.06681
-0.139543
5.38017
-0.131783
4.09504
-0.123056
3.11443
-0.113856
2.36579
-0.10482
1.79495
-0.0964404
1.36076
-0.08913
1.03163
-0.0830554
0.782501
-0.0781413
0.593825
-0.0742677
0.450742
-0.0712837
0.342128
0.259699
-0.0690214
-0.260413
111.011
-0.236611
84.0515
-0.216678
63.7166
-0.200483
48.2875
-0.187524
36.6258
-0.17741
27.7966
-0.169585
21.1126
-0.163414
16.0452
-0.158153
12.1998
-0.153012
9.2802
-0.147352
7.06115
-0.140673
5.37349
-0.132856
4.08722
-0.124042
3.10562
-0.114706
2.35645
-0.105493
1.78574
-0.0968198
1.35209
-0.0890646
1.02388
-0.0824263
0.775863
-0.0768309
0.58823
-0.072168
0.446079
-0.0683716
0.338332
0.256683
-0.0653549
-0.253917
110.987
-0.232411
84.03
-0.214109
63.6983
-0.199083
48.2724
-0.186964
36.6136
-0.177455
27.7871
-0.170066
21.1052
-0.164209
16.0393
-0.159167
12.1948
-0.154159
9.27519
-0.148565
7.05556
-0.141884
5.36681
-0.134033
4.07937
-0.12516
3.09674
-0.115713
2.347
-0.106353
1.77638
-0.0974151
1.34315
-0.0892386
1.0157
-0.0820322
0.768658
-0.0757376
0.581935
-0.070247
0.440587
-0.0656264
0.333712
0.252939
-0.061882
-0.239156
110.954
-0.214591
84.0054
-0.195733
63.6794
-0.181294
48.258
-0.170201
36.6026
-0.161788
27.7787
-0.155409
21.0988
-0.150428
16.0343
-0.146151
12.1905
-0.141839
9.27088
-0.136918
7.05064
-0.130936
5.36083
-0.123832
4.07227
-0.115752
3.08866
-0.107081
2.33833
-0.0984381
1.76773
-0.0900808
1.3348
-0.0822849
1.00791
-0.0752132
0.761588
-0.0688917
0.575612
-0.0632796
0.434977
-0.0585006
0.328928
0.248986
-0.0545442
-0.190343
110.928
-0.171048
83.9861
-0.156228
63.6646
-0.144876
48.2466
-0.136144
36.5938
-0.129515
27.772
-0.124484
21.0938
-0.120551
16.0304
-0.117169
12.1871
-0.113746
9.26746
-0.109827
7.04672
-0.105061
5.35607
-0.0994011
4.06661
-0.0929721
3.08223
-0.0860588
2.33142
-0.0791403
1.76082
-0.0724128
1.32807
-0.066085
1.00158
-0.0602356
0.75574
-0.0549804
0.570357
-0.0503835
0.430377
-0.0464536
0.324999
0.245645
-0.0431157
-0.151466
110.907
-0.136292
83.9709
-0.124632
63.653
-0.115698
48.2377
-0.108817
36.5869
-0.103588
27.7668
-0.0996158
21.0898
-0.096508
16.0273
-0.0938344
12.1844
-0.0911235
9.26474
-0.0880111
7.0436
-0.0842262
5.35228
-0.0797312
4.06211
-0.0746297
3.07713
-0.069141
2.32593
-0.063626
1.7553
-0.0582457
1.32269
-0.053168
0.996504
-0.0484354
0.751008
-0.044206
0.566128
-0.0405699
0.426741
-0.0374299
0.321857
0.242884
-0.0346695
-0.120493
110.891
-0.10853
83.959
-0.0993364
63.6438
-0.0922887
48.2307
-0.0868554
36.5815
-0.0827226
27.7627
-0.0795799
21.0867
-0.0771202
16.0248
-0.0750048
12.1823
-0.0728589
9.2626
-0.0703917
7.04114
-0.0673937
5.34928
-0.0638336
4.05855
-0.0597956
3.0731
-0.055454
2.32159
-0.0510733
1.75092
-0.046794
1.31841
-0.0427481
0.99246
-0.0389759
0.747237
-0.0356199
0.562773
-0.0327488
0.42387
-0.0302407
0.319348
0.240638
-0.0279954
-0.0958281
110.879
-0.0863782
83.9495
-0.0791147
63.6365
-0.0735449
48.2251
-0.0692468
36.5772
-0.0659743
27.7594
-0.0634835
21.0842
-0.0615337
16.0229
-0.0598586
12.1806
-0.0581604
9.2609
-0.0562072
7.03918
-0.0538369
5.34691
-0.0510226
4.05574
-0.0478324
3.06991
-0.0444069
2.31817
-0.0409371
1.74745
-0.0375458
1.31502
-0.0343365
0.989251
-0.0313563
0.744258
-0.0286986
0.560116
-0.0264021
0.421574
-0.0243961
0.317341
0.23886
-0.0226174
-0.0761583
110.869
-0.0686519
83.942
-0.0628825
63.6307
-0.0584574
48.2207
-0.05504
36.5738
-0.0524357
27.7568
-0.0504518
21.0822
-0.0488992
16.0213
-0.0475681
12.1793
-0.0462229
9.25955
-0.0446788
7.03764
-0.0428103
5.34504
-0.0405937
4.05352
-0.038084
3.0674
-0.0353938
2.31548
-0.0326603
1.74472
-0.0299868
1.31234
-0.0274606
0.986726
-0.0251272
0.741925
-0.023029
0.558019
-0.0211861
0.419731
-0.019593
0.315749
0.237496
-0.0182298
-0.0606838
110.861
-0.0548411
83.9362
-0.0503489
63.6262
-0.0469016
48.2172
-0.0442357
36.5711
-0.0422015
27.7548
-0.04065
21.0807
-0.0394345
16.0201
-0.0383908
12.1783
-0.0373316
9.25849
-0.0361088
7.03642
-0.0346248
5.34356
-0.032859
4.05175
-0.0308577
3.06539
-0.0287128
2.31333
-0.0265256
1.74253
-0.024382
1.3102
-0.0223626
0.984708
-0.0205047
0.740067
-0.0188155
0.556331
-0.017304
0.41822
-0.0160095
0.314454
0.236442
-0.0149557
-0.0480654
110.854
-0.043301
83.9314
-0.0396399
63.6226
-0.0368311
48.2144
-0.0346591
36.5689
-0.0330009
27.7531
-0.0317356
21.0794
-0.0307461
16.0191
-0.0299027
12.1774
-0.0290581
9.25765
-0.0280951
7.03545
-0.0269385
5.3424
-0.0255696
4.05039
-0.0240251
3.06385
-0.0223752
2.31168
-0.0206897
1.74085
-0.0190377
1.30855
-0.0174917
0.983163
-0.0160715
0.738648
-0.0147632
0.555023
-0.0135796
0.417036
-0.0125851
0.31346
0.235679
-0.0118215
-0.0396689
110.845
-0.0319257
83.9237
-0.0257879
63.6164
-0.0209264
48.2095
-0.0170494
36.5651
-0.0139703
27.75
-0.0115173
21.077
-0.00953551
16.0171
-0.00786317
12.1757
-0.00632646
9.25611
-0.00479029
7.03392
-0.00317001
5.34078
-0.00145163
4.04867
0.000327392
3.06207
0.0021096
2.3099
0.00382838
1.73913
0.00545027
1.30693
0.00694474
0.981669
0.00830162
0.737291
0.00952615
0.553799
0.0106143
0.415949
0.0115051
0.312569
0.234993
0.0121911
-0.0416579
110.834
-0.0335267
83.9155
-0.0270823
63.61
-0.021977
48.2044
-0.0179043
36.561
-0.014668
27.7468
-0.0120884
21.0744
-0.0100047
16.015
-0.00824845
12.174
-0.00663831
9.2545
-0.00503333
7.03231
-0.00334548
5.33909
-0.00155964
4.04688
0.000283794
3.06023
0.00212677
2.30806
0.00390098
1.73735
0.00556883
1.30526
0.007101
0.980138
0.00849426
0.735898
0.00974283
0.552552
0.0108483
0.414843
0.0117548
0.311663
0.234302
0.0124453
-0.0437467
110.823
-0.0352082
83.907
-0.0284415
63.6032
-0.0230805
48.1991
-0.0188021
36.5567
-0.0154007
27.7434
-0.0126881
21.0717
-0.0104969
16.0129
-0.00865246
12.1721
-0.00696519
9.25281
-0.00528818
7.03063
-0.00353031
5.33734
-0.00167463
4.04503
0.00023394
3.05832
0.00213828
2.30615
0.00397105
1.73552
0.00568407
1.30354
0.00725135
0.978571
0.00867824
0.734471
0.00994867
0.551281
0.0110682
0.413725
0.0119884
0.310742
0.233604
0.0126873
-0.0459403
110.812
-0.0369737
83.898
-0.0298688
63.5961
-0.0242394
48.1935
-0.0197451
36.5522
-0.0161701
27.7398
-0.0133175
21.0688
-0.0110133
16.0105
-0.00907591
12.1702
-0.00730761
9.25104
-0.00555511
7.02888
-0.00372448
5.3355
-0.00179637
4.0431
0.000178526
3.05634
0.00214565
2.30419
0.00404036
1.73363
0.00579699
1.30179
0.00739831
0.97697
0.00885568
0.733014
0.010146
0.549992
0.0112742
0.412596
0.0121995
0.309818
0.2329
0.0129034
-0.0482435
110.8
-0.0388277
83.8886
-0.0313677
63.5887
-0.0254564
48.1875
-0.0207354
36.5475
-0.016978
27.736
-0.0139782
21.0658
-0.0115551
16.0081
-0.00951972
12.1682
-0.00766619
9.24919
-0.00583464
7.02705
-0.00392839
5.3336
-0.00192545
4.04109
0.000117451
3.0543
0.00214841
2.30216
0.00410708
1.73167
0.00590484
1.29999
0.00753959
0.975336
0.00902356
0.73153
0.0103299
0.548686
0.0114602
0.411467
0.0123782
0.3089
0.232202
0.0130762
-0.0506624
110.787
-0.0407745
83.8787
-0.0329417
63.5808
-0.0267344
48.1813
-0.0217754
36.5425
-0.0178264
27.7321
-0.0146717
21.0627
-0.0121233
16.0056
-0.00998477
12.166
-0.00804164
9.24725
-0.00612734
7.02514
-0.00414255
5.33161
-0.00206265
4.03901
5.04128e-05
3.05219
0.00214501
2.30006
0.0041674
1.72965
0.0060043
1.29815
0.00767134
0.97367
0.00917693
0.730025
0.0104927
0.547371
0.0116167
0.410343
0.0125148
0.308002
0.231526
0.0131913
-0.053202
110.774
-0.0428189
83.8684
-0.0345947
63.5726
-0.0280766
48.1748
-0.0228676
36.5373
-0.0187172
27.7279
-0.0153996
21.0593
-0.0127193
16.0029
-0.0104721
12.1638
-0.0084347
9.24521
-0.00643385
7.02313
-0.00436746
5.32955
-0.00220885
4.03686
-2.33248e-05
3.05
0.00213318
2.2979
0.00421669
1.72756
0.0060923
1.29628
0.00778952
0.971972
0.00930958
0.728504
0.0106256
0.546055
0.0117331
0.409237
0.0125997
0.307136
0.230885
0.0132407
-0.0558691
110.76
-0.0449655
83.8575
-0.0363302
63.564
-0.029486
48.168
-0.0240146
36.5319
-0.0196526
27.7236
-0.0161636
21.0558
-0.0133443
16.0001
-0.0109827
12.1614
-0.00884618
9.24307
-0.00675496
7.02104
-0.00460385
5.3274
-0.00236508
4.03462
-0.000105213
3.04774
0.00211047
2.29569
0.00425082
1.72542
0.00616552
1.29436
0.00788947
0.970249
0.00941396
0.72698
0.0107211
0.544749
0.0117996
0.408158
0.0126243
0.306312
0.23029
0.0132193
-0.0586695
110.745
-0.0472196
83.846
-0.0381528
63.5549
-0.0309661
48.1608
-0.0252191
36.5261
-0.0206347
27.719
-0.0169654
21.0522
-0.0139998
15.9971
-0.0115176
12.1589
-0.00927703
9.24083
-0.00709151
7.01886
-0.00485254
5.32516
-0.00253248
4.0323
-0.000197127
3.04541
0.00207492
2.29342
0.00426691
1.72323
0.0062201
1.29241
0.00796563
0.968504
0.00948271
0.725463
0.0107732
0.543459
0.0118121
0.40712
0.0125835
0.30554
0.229747
0.0131268
-0.0616101
110.73
-0.0495865
83.834
-0.0400666
63.5454
-0.0325204
48.1532
-0.0264839
36.5201
-0.0216659
27.7142
-0.017807
21.0483
-0.0146873
15.994
-0.0120782
12.1563
-0.00972823
9.23848
-0.0074445
7.01657
-0.00511458
5.32283
-0.00271232
4.02989
-0.000300955
3.043
0.00202517
2.29109
0.00426292
1.72099
0.00625191
1.29042
0.00801174
0.966745
0.00950989
0.723965
0.0107772
0.542193
0.0117684
0.406128
0.0124785
0.304831
0.229256
0.0129698
-0.0646977
110.714
-0.0520716
83.8214
-0.0420764
63.5354
-0.0341525
48.1453
-0.027812
36.5137
-0.0227486
27.7091
-0.0186901
21.0443
-0.0154082
15.9907
-0.0126656
12.1536
-0.0102009
9.23601
-0.00781496
7.01419
-0.00539113
5.3204
-0.00290586
4.02741
-0.000418585
3.04051
0.00195974
2.28871
0.00423678
1.71872
0.00625666
1.2884
0.00802163
0.96498
0.00949097
0.722495
0.0107273
0.540956
0.0116687
0.405188
0.0123164
0.304183
0.228814
0.0127585
-0.0679402
110.697
-0.0546812
83.8081
-0.0441863
63.5249
-0.0358664
48.137
-0.0292067
36.5071
-0.0238852
27.7038
-0.019617
21.04
-0.0161644
15.9872
-0.0132814
12.1507
-0.0106963
9.23343
-0.00820401
7.01169
-0.00568338
5.31788
-0.00311444
4.02484
-0.00055218
3.03795
0.00187655
2.28628
0.00418588
1.71641
0.0062292
1.28636
0.00798919
0.963221
0.00942296
0.721062
0.0106179
0.539763
0.0115101
0.404296
0.012103
0.303591
0.228417
0.0125006
-0.0713445
110.679
-0.0574213
83.7942
-0.0464021
63.5139
-0.037666
48.1283
-0.0306711
36.5001
-0.0250786
27.6982
-0.0205898
21.0355
-0.0169576
15.9836
-0.0139269
12.1477
-0.0112157
9.23072
-0.00861277
7.00909
-0.00599269
5.31526
-0.0033394
4.02219
-0.000704374
3.03531
0.00177294
2.28381
0.00410706
1.71407
0.00616368
1.2843
0.00790808
0.961476
0.00930359
0.719666
0.0104456
0.53862
0.0112888
0.403454
0.0118325
0.303047
0.228058
0.0121907
-0.0749191
110.66
-0.0602982
83.7796
-0.0487285
63.5023
-0.0395557
48.1191
-0.0322088
36.4927
-0.0263316
27.6923
-0.0216108
21.0308
-0.0177896
15.9798