/*--------------------------------*- C++ -*----------------------------------*\
  =========                 |
  \\      /  F ield         | OpenFOAM: The Open Source CFD Toolbox
   \\    /   O peration     | Website:  https://openfoam.org
    \\  /    A nd           | Version:  7
     \\/     M anipulation  |
\*---------------------------------------------------------------------------*/
FoamFile
{
    version     2.0;
    format      ascii;
    class       volVectorField;
    location    "82";
    object      U;
}
// * * * * * * * * * * * * * * * * * * * * * * * * * * * * * * * * * * * * * //

dimensions      [0 1 -1 0 0 0 0];

internalField   nonuniform List<vector> 
12842
(
(15.3338 2.98549 8.77765e-19)
(15.3363 2.99803 3.48277e-19)
(15.3382 3.01254 1.22317e-19)
(15.3402 3.0308 -3.01481e-19)
(15.3421 3.05448 1.24994e-18)
(15.3432 3.08522 0)
(15.3432 3.12503 0)
(15.3414 3.17635 1.01682e-19)
(15.3368 3.24213 -9.03794e-19)
(15.3283 3.32569 -2.55391e-20)
(15.314 3.4305 -3.62774e-19)
(15.2917 3.55976 8.89757e-21)
(15.2589 3.71581 -2.29454e-19)
(15.2131 3.8995 -2.07501e-20)
(15.1523 4.10972 4.04833e-20)
(15.0754 4.34287 1.27499e-19)
(14.9828 4.59279 9.23188e-20)
(14.8768 4.85123 0)
(14.7613 5.10876 -3.06588e-21)
(14.6412 5.35605 -3.33354e-20)
(14.5221 5.58495 3.47866e-21)
(14.4089 5.79035 7.44231e-21)
(14.3067 5.96681 5.75667e-21)
(15.3354 2.98505 -7.43978e-19)
(15.3404 2.99677 0)
(15.3451 3.01071 1.50636e-18)
(15.3508 3.02864 -9.48651e-19)
(15.3572 3.05214 -1.01894e-18)
(15.3639 3.0829 0)
(15.3709 3.12297 1.75358e-18)
(15.3778 3.17494 0)
(15.384 3.24193 1.59319e-18)
(15.3885 3.32753 1.39291e-19)
(15.3897 3.43556 6.7546e-19)
(15.3854 3.56958 1.03319e-18)
(15.3726 3.73219 2.22356e-19)
(15.3481 3.92437 -5.82205e-19)
(15.3087 4.14483 0)
(15.2522 4.38951 -1.4138e-19)
(15.1777 4.65154 -1.60402e-19)
(15.0862 4.92177 3.4883e-19)
(14.981 5.18988 0)
(14.867 5.44591 3.18952e-20)
(14.7505 5.68117 1.31538e-19)
(14.6366 5.89109 -4.59076e-20)
(14.5326 6.06797 6.74847e-20)
(15.3373 2.98433 0)
(15.344 2.99488 0)
(15.3509 3.00796 3.03815e-19)
(15.3598 3.02519 5.39283e-18)
(15.3702 3.04807 0)
(15.3819 3.07827 0)
(15.3951 3.1179 4.01696e-19)
(15.4098 3.1696 -1.72222e-18)
(15.4257 3.23665 -7.38359e-19)
(15.4422 3.32292 -7.2827e-19)
(15.458 3.43256 -1.39665e-18)
(15.4706 3.56957 -1.01612e-18)
(15.477 3.73693 -2.51767e-19)
(15.4732 3.93582 8.97598e-19)
(15.455 4.16495 0)
(15.419 4.4199 1.86214e-19)
(15.3631 4.69317 -2.37479e-19)
(15.2875 4.97478 -2.52207e-19)
(15.1948 5.25351 -5.07775e-19)
(15.0899 5.51873 3.16358e-19)
(14.9792 5.7611 -1.1107e-19)
(14.8684 5.97662 0)
(14.7665 6.15498 -3.45781e-20)
(15.3393 2.9833 -3.85867e-19)
(15.3469 2.99256 7.4763e-19)
(15.3559 3.00465 -2.28879e-18)
(15.3675 3.02094 -8.54736e-18)
(15.3814 3.04289 7.66428e-19)
(15.3975 3.07211 -2.56707e-18)
(15.4163 3.11073 -1.93912e-19)
(15.4381 3.16142 1.70491e-18)
(15.4629 3.22758 2.80455e-18)
(15.4905 3.31331 -1.71787e-18)
(15.5198 3.42312 3.3995e-18)
(15.5487 3.56148 -4.2817e-19)
(15.5737 3.73178 5.55724e-19)
(15.5901 3.93553 2.05044e-18)
(15.5931 4.17152 -3.63394e-19)
(15.578 4.43513 4.65807e-19)
(15.5417 4.71834 1.75403e-19)
(15.4835 5.01047 5.33029e-19)
(15.4054 5.29946 5.93731e-20)
(15.312 5.57403 3.06774e-19)
(15.2102 5.82411 1.11942e-19)
(15.1056 6.04627 1.55757e-19)
(15.0087 6.22738 -2.35344e-19)
(15.3413 2.98199 -4.05742e-18)
(15.3492 2.98996 0)
(15.3599 3.00099 3.7623e-19)
(15.374 3.01616 3.05491e-18)
(15.3909 3.03689 3.07755e-19)
(15.411 3.06474 6.89284e-18)
(15.4348 3.10185 2.6261e-19)
(15.4628 3.15087 -4.39633e-18)
(15.4957 3.21527 -3.19361e-18)
(15.5335 3.29931 2.18767e-18)
(15.5757 3.40788 -3.65434e-18)
(15.6201 3.54589 -2.88512e-18)
(15.663 3.71724 6.65448e-19)
(15.6995 3.92383 -4.45193e-18)
(15.7237 4.16465 -1.83355e-18)
(15.7301 4.43504 1.33914e-18)
(15.7145 4.72663 0)
(15.6752 5.02817 -5.16866e-19)
(15.6139 5.32688 0)
(15.5345 5.61088 1.18631e-19)
(15.4443 5.86927 1.90196e-19)
(15.3486 6.09916 -1.82182e-19)
(15.2593 6.28436 -3.09622e-20)
(15.3432 2.98044 3.55458e-18)
(15.3508 2.9872 0)
(15.3632 2.99718 0)
(15.3793 3.01106 4.74917e-18)
(15.3988 3.03032 -3.50066e-18)
(15.4222 3.05645 -3.97477e-18)
(15.4503 3.09159 -5.90356e-18)
(15.4839 3.13831 4.86747e-18)
(15.524 3.20009 0)
(15.5711 3.28134 2.74624e-18)
(15.6251 3.38724 3.31229e-18)
(15.6842 3.52318 1.45729e-18)
(15.7446 3.69358 0)
(15.8008 3.90085 2.39505e-18)
(15.8463 4.14429 1.5441e-18)
(15.8748 4.41935 -9.82049e-19)
(15.8811 4.71751 -2.67011e-19)
(15.8626 5.02716 1.85812e-18)
(15.8203 5.33488 0)
(15.7576 5.62829 -8.47775e-19)
(15.6817 5.89551 2.62278e-19)
(15.5975 6.1342 9.27129e-19)
(15.5181 6.32476 -1.85885e-19)
(15.3449 2.97872 -3.69877e-19)
(15.3518 2.98444 0)
(15.3658 2.99338 0)
(15.3835 3.00588 -4.72742e-18)
(15.4051 3.02351 4.04601e-18)
(15.4314 3.04766 -5.03732e-19)
(15.4632 3.08048 3.47988e-18)
(15.5016 3.12444 3.42653e-19)
(15.548 3.18297 -4.492e-19)
(15.6034 3.26049 -3.14062e-18)
(15.6682 3.36246 -3.93432e-19)
(15.7408 3.4947 2.85192e-18)
(15.8177 3.66221 0)
(15.893 3.86796 -3.02833e-18)
(15.9597 4.11172 2.99987e-19)
(16.0106 4.38919 -3.85214e-19)
(16.04 4.69187 1.24273e-18)
(16.0442 5.008 -1.08496e-18)
(16.0232 5.32365 -1.42222e-18)
(15.9799 5.62606 -3.50821e-19)
(15.9211 5.90227 4.24698e-20)
(15.8511 6.15052 -5.37989e-19)
(15.784 6.34739 -3.46811e-19)
(15.3463 2.97696 0)
(15.3524 2.98176 -2.45647e-19)
(15.3678 2.98966 2.95795e-18)
(15.3865 3.00067 -8.76133e-20)
(15.4099 3.01654 -4.10929e-18)
(15.4383 3.03847 6.63946e-19)
(15.4731 3.06867 -1.25546e-19)
(15.5152 3.10937 -2.74039e-18)
(15.5668 3.16393 0)
(15.6294 3.23671 -3.69901e-18)
(15.704 3.33336 3.23831e-19)
(15.7895 3.46016 1.60365e-19)
(15.8822 3.62266 0)
(15.9761 3.82451 2.98047e-18)
(16.0639 4.06602 -2.51395e-18)
(16.1379 4.34338 0)
(16.1914 4.64831 -1.22871e-18)
(16.22 4.96911 0)
(16.2228 5.29151 1.16498e-18)
(16.2017 5.6025 0)
(16.163 5.88781 -5.42076e-19)
(16.11 6.14666 3.28625e-19)
(16.0573 6.35099 4.49083e-19)
(15.3475 2.97496 0)
(15.3526 2.97929 0)
(15.3693 2.98638 1.12094e-20)
(15.3885 2.99623 -1.8894e-19)
(15.4132 3.01057 4.65612e-18)
(15.4435 3.03059 3.77198e-18)
(15.4806 3.05855 0)
(15.5257 3.09661 2.55943e-18)
(15.5809 3.148 0)
(15.6483 3.21698 7.42702e-18)
(15.7293 3.3092 2.98366e-18)
(15.8235 3.43117 -2.38935e-18)
(15.9277 3.58887 -2.48175e-19)
(16.036 3.78647 0)
(16.1409 4.02479 2.65846e-18)
(16.2342 4.30044 2.12034e-18)
(16.3086 4.6054 -2.00218e-19)
(16.359 4.92815 1.50568e-18)
(16.3836 5.2542 1.36001e-18)
(16.3833 5.57064 0)
(16.364 5.86189 3.38781e-19)
(16.3277 6.12857 2.58821e-20)
(16.2894 6.33911 -2.60451e-19)
(15.349 2.97287 -5.30023e-20)
(15.3527 2.97712 2.66249e-18)
(15.3706 2.98356 -2.75901e-18)
(15.3901 2.99254 0)
(15.4159 3.00573 8.21515e-20)
(15.4473 3.02431 6.81468e-20)
(15.4861 3.05058 -3.36091e-18)
(15.5332 3.08654 0)
(15.5912 3.13535 0)
(15.6622 3.20115 -3.70097e-18)
(15.7485 3.28964 -3.16918e-18)
(15.8499 3.40751 -9.96119e-20)
(15.9633 3.56106 2.6148e-18)
(16.0832 3.75479 -8.23738e-20)
(16.2018 3.98987 -3.65701e-19)
(16.3109 4.26319 3.69129e-19)
(16.4027 4.56694 -1.43569e-18)
(16.4717 4.88984 -1.3861e-18)
(16.5153 5.21732 -1.5447e-18)
(16.5338 5.53672 -1.13062e-18)
(16.5325 5.83147 3.71607e-19)
(16.5121 6.10334 -1.65875e-18)
(16.488 6.31792 3.00617e-19)
(15.3501 2.97073 5.07901e-18)
(15.3526 2.97521 -3.06413e-18)
(15.3719 2.98098 7.91911e-20)
(15.3915 2.9892 2.66829e-18)
(15.4182 3.00131 -1.27939e-19)
(15.4507 3.01857 -3.83506e-18)
(15.4911 3.04329 6.35501e-18)
(15.54 3.07732 1.72654e-19)
(15.6005 3.12367 -1.26963e-19)
(15.6751 3.18633 -3.86996e-18)
(15.7663 3.27102 1.22679e-19)
(15.8744 3.3846 -3.04088e-18)
(15.9967 3.53361 -2.33026e-18)
(16.1278 3.72289 0)
(16.26 3.95386 2.98301e-18)
(16.3848 4.22371 -4.46676e-18)
(16.4944 4.52479 -3.13984e-19)
(16.5829 4.84616 1.38849e-18)
(16.6472 5.17325 -1.74141e-20)
(16.6864 5.49387 1.42452e-18)
(16.7054 5.79049 0)
(16.7034 6.0662 5.01336e-19)
(16.6964 6.28343 0)
(15.351 2.96861 -7.91194e-18)
(15.3525 2.97352 -2.72025e-18)
(15.3729 2.97859 1.33363e-19)
(15.3926 2.98615 -5.24431e-18)
(15.4203 2.99722 2.42395e-18)
(15.4537 3.01324 -1.11179e-19)
(15.4954 3.03649 -3.23223e-18)
(15.5461 3.06868 4.91348e-20)
(15.6089 3.11266 -1.48711e-19)
(15.6866 3.17222 3.99281e-18)
(15.7824 3.25304 0)
(15.8969 3.36211 2.7836e-18)
(16.0278 3.50618 2.27628e-19)
(16.1697 3.69037 -1.14704e-19)
(16.3152 3.91631 -3.10033e-18)
(16.456 4.18143 6.49385e-20)
(16.584 4.4783 1.29963e-18)
(16.693 4.79636 -2.2898e-18)
(16.7793 5.12109 0)
(16.8412 5.44097 -9.88833e-19)
(16.8829 5.73753 1.31643e-18)
(16.9019 6.01544 0)
(16.9144 6.23379 -7.66312e-19)
(15.3516 2.96657 2.69275e-18)
(15.3523 2.97205 9.40354e-20)
(15.3738 2.97638 1.3309e-19)
(15.3935 2.98336 2.5262e-18)
(15.422 2.99341 -4.75875e-18)
(15.4562 3.00823 2.05988e-20)
(15.4993 3.03008 4.6915e-20)
(15.5515 3.06049 2.78783e-18)
(15.6163 3.10213 -6.5427e-20)
(15.697 3.15859 0)
(15.797 3.23546 3.45709e-18)
(15.9175 3.33979 8.4651e-20)
(16.0565 3.4785 9.12409e-20)
(16.2091 3.65693 2.77752e-20)
(16.3679 3.87687 -3.03858e-19)
(16.5248 4.13599 2.45255e-18)
(16.6717 4.42703 -1.45189e-18)
(16.8022 4.73987 -2.12032e-19)
(16.912 5.06006 -4.94454e-19)
(16.9984 5.37692 1.34896e-18)
(17.0649 5.67108 -9.39341e-19)
(17.1073 5.94912 1.92857e-18)
(17.1416 6.16677 -1.25733e-18)
(15.352 2.96463 2.69079e-18)
(15.3522 2.97077 2.53888e-18)
(15.3746 2.97434 1.03526e-20)
(15.3942 2.98081 2.6819e-18)
(15.4235 2.98985 4.81697e-18)
(15.4584 3.00352 -2.08212e-20)
(15.5026 3.024 -4.74353e-20)
(15.5562 3.05267 2.46409e-20)
(15.6229 3.092 -2.34865e-18)
(15.7063 3.14534 2.08283e-18)
(15.8103 3.21812 -3.64932e-18)
(15.9364 3.31746 -3.02924e-18)
(16.0833 3.45035 2.63608e-18)
(16.2464 3.62231 0)
(16.4184 3.83526 1.72857e-18)
(16.5917 4.08703 0)
(16.758 4.37049 1.94263e-18)
(16.9108 4.67601 1.22998e-18)
(17.0453 4.9892 -2.65901e-20)
(17.1578 5.30042 -1.51369e-18)
(17.251 5.58932 -3.53778e-20)
(17.3187 5.86479 6.82385e-21)
(17.3769 6.07943 -5.08306e-19)
(15.3523 2.96281 -6.88611e-20)
(15.3521 2.96968 2.91082e-20)
(15.3752 2.97247 -9.99099e-21)
(15.3948 2.97847 -2.68809e-18)
(15.4247 2.98653 -2.40313e-18)
(15.4603 2.99908 0)
(15.5056 3.01822 3.03047e-20)
(15.5604 3.04519 -2.81615e-18)
(15.6288 3.08222 -1.90013e-20)
(15.7146 3.13238 -2.08903e-18)
(15.8223 3.20094 1.87492e-18)
(15.9539 3.29499 4.7148e-18)
(16.1084 3.42156 -2.54968e-18)
(16.2817 3.58629 2.10225e-18)
(16.4671 3.79115 1.70663e-19)
(16.6568 4.0341 2.90675e-20)
(16.843 4.30808 -1.02701e-19)
(17.0188 4.60393 -3.88674e-19)
(17.179 4.90731 2.66674e-19)
(17.3187 5.20977 -4.63196e-19)
(17.4401 5.48998 -3.54824e-20)
(17.5347 5.75949 3.97243e-19)
(17.6184 5.96814 0)
(15.3524 2.96114 -1.07157e-19)
(15.352 2.96875 0)
(15.3757 2.97075 0)
(15.3953 2.97634 -2.69392e-18)
(15.4258 2.98341 -2.46413e-18)
(15.462 2.99487 2.04847e-18)
(15.5082 3.01269 2.42053e-20)
(15.5641 3.03799 -2.57536e-20)
(15.6341 3.07271 2.41261e-18)
(15.7221 3.11964 -3.9243e-20)
(15.8332 3.18381 7.02885e-20)
(15.97 3.27224 -1.5935e-18)
(16.1319 3.39194 0)
(16.3154 3.54861 -2.23778e-18)
(16.5139 3.7442 -3.63549e-18)
(16.7203 3.97674 -1.5419e-18)
(16.9265 4.23914 -9.78427e-19)
(17.1257 4.52271 0)
(17.3121 4.81308 0)
(17.4799 5.10319 8.33634e-19)
(17.6301 5.37065 5.97488e-19)
(17.7526 5.63008 -1.22753e-18)
(17.8629 5.82902 0)
(15.3525 2.95961 -2.68618e-18)
(15.352 2.96795 1.47275e-20)
(15.3761 2.96918 -4.90048e-21)
(15.3957 2.97438 2.67914e-18)
(15.4266 2.98048 4.90366e-18)
(15.4634 2.99087 -4.07761e-18)
(15.5104 3.00739 -2.44059e-20)
(15.5674 3.03101 -2.59238e-20)
(15.6387 3.0634 3.4053e-20)
(15.7288 3.10703 0)
(15.8431 3.16661 -1.85288e-18)
(15.9848 3.24905 1.63714e-18)
(16.1539 3.36127 0)
(16.3473 3.50898 0)
(16.5589 3.69401 1.71852e-18)
(16.7818 3.91439 1.29041e-19)
(17.0081 4.16289 1.11419e-18)
(17.2308 4.43129 8.69727e-19)
(17.4434 4.70508 -1.28736e-18)
(17.6392 4.97877 -4.83145e-19)
(17.8184 5.22887 1.94907e-18)
(17.9689 5.47342 -1.84787e-18)
(18.1061 5.65814 1.24906e-18)
(15.3524 2.95823 1.25443e-18)
(15.352 2.96726 1.12053e-18)
(15.3764 2.96775 1.46661e-20)
(15.396 2.97257 -1.93676e-20)
(15.4273 2.97771 -2.47204e-18)
(15.4645 2.98704 2.07242e-18)
(15.5124 3.00226 -1.54826e-20)
(15.5703 3.02422 -5.65755e-21)
(15.6428 3.05426 3.41904e-20)
(15.7348 3.09448 1.99646e-20)
(15.852 3.14925 -2.6142e-20)
(15.9983 3.2253 -1.64146e-18)
(16.1743 3.32939 1.47461e-18)
(16.3774 3.46715 -6.71288e-20)
(16.6019 3.64022 0)
(16.8411 3.84655 -1.45617e-19)
(17.0872 4.07865 1.37403e-19)
(17.3328 4.3287 -8.77977e-19)
(17.5711 4.58194 1.62506e-18)
(17.7943 4.83473 9.79508e-19)
(18.0016 5.06224 -6.72958e-19)
(18.1788 5.28669 -1.02685e-18)
(18.3414 5.45262 1.33093e-18)
(15.3523 2.95701 -4.53557e-20)
(15.352 2.96665 -1.13058e-18)
(15.3767 2.96644 0)
(15.3962 2.9709 0)
(15.4278 2.97508 0)
(15.4655 2.98337 0)
(15.514 2.99728 1.55206e-20)
(15.5728 3.01757 -7.39146e-21)
(15.6463 3.04521 -1.71173e-20)
(15.74 3.08193 2.00522e-20)
(15.8599 3.13165 -2.62658e-20)
(16.0106 3.20087 0)
(16.1931 3.29611 -2.86983e-18)
(16.4055 3.42287 8.64936e-20)
(16.6425 3.58248 -1.82326e-19)
(16.8975 3.77272 1.75138e-18)
(17.1627 3.98574 -1.4206e-19)
(17.4303 4.21412 2.51357e-19)
(17.6928 4.44286 -3.01313e-19)
(17.9411 4.67017 5.09005e-19)
(18.1737 4.87068 -7.25737e-19)
(18.3747 5.0687 0)
(18.5599 5.21249 7.07932e-19)
(15.3522 2.95594 -2.33735e-18)
(15.352 2.96612 -5.70096e-19)
(15.3768 2.96526 -9.95848e-21)
(15.3963 2.96935 1.34892e-18)
(15.4282 2.97258 1.23882e-18)
(15.4663 2.97982 9.38024e-21)
(15.5154 2.99242 -1.73957e-18)
(15.5749 3.01103 1.43752e-18)
(15.6494 3.03624 1.18485e-18)
(15.7445 3.06933 0)
(15.8668 3.11375 3.5708e-20)
(16.0215 3.17568 -1.72817e-18)
(16.2102 3.26131 1.49826e-18)
(16.4315 3.37594 1.16336e-18)
(16.6803 3.52053 1.01162e-18)
(16.9503 3.69257 0)
(17.2333 3.8838 0)
(17.5211 4.08707 -9.54437e-19)
(17.8053 4.28729 -1.06245e-18)
(18.0757 4.48423 5.22174e-19)
(18.3297 4.65337 3.81642e-19)
(18.5505 4.81878 5.09397e-19)
(18.7536 4.93678 -7.08798e-19)
(15.3521 2.95501 1.14614e-18)
(15.352 2.96564 5.73058e-19)
(15.3769 2.96416 -7.31639e-21)
(15.3963 2.96788 3.68674e-22)
(15.4284 2.97017 -1.23901e-18)
(15.4669 2.97637 -1.03382e-18)
(15.5165 2.98765 8.53291e-19)
(15.5766 3.00457 -1.42425e-18)
(15.6519 3.02728 -1.17906e-18)
(15.7482 3.05661 -2.95401e-20)
(15.8726 3.09545 0)
(16.0309 3.14957 1.67801e-18)
(16.2254 3.2248 1.46416e-18)
(16.4549 3.32611 -1.22748e-18)
(16.7149 3.45403 -8.62114e-19)
(16.9986 3.6057 -4.12355e-19)
(17.2977 3.77238 -3.43189e-19)
(17.6032 3.94713 1.90721e-18)
(17.9056 4.11513 0)
(18.1937 4.27732 0)
(18.4635 4.41142 3.89416e-19)
(18.6984 4.5397 -9.81829e-19)
(18.9132 4.62857 -7.06481e-19)
(15.3519 2.95424 -1.0554e-18)
(15.352 2.96524 0)
(15.377 2.9632 0)
(15.3963 2.96655 -2.67113e-18)
(15.4286 2.96789 1.22616e-18)
(15.4673 2.973 1.05814e-18)
(15.5175 2.98292 3.45984e-21)
(15.5782 2.99809 6.92163e-19)
(15.6541 3.01827 2.80717e-20)
(15.7515 3.04375 -1.0626e-18)
(15.8776 3.07678 3.5696e-20)
(16.0391 3.12264 -4.66087e-20)
(16.2386 3.18668 -1.45998e-18)
(16.4756 3.27347 1.24757e-18)
(16.7455 3.38306 9.55479e-19)
(17.0414 3.51216 -8.42991e-19)
(17.3542 3.65162 7.76997e-19)
(17.6739 3.79473 -9.53793e-19)
(17.9899 3.92735 0)
(18.29 4.05145 0)
(18.5689 4.14805 -3.59154e-19)
(18.811 4.23704 2.51402e-19)
(19.0304 4.29485 -6.99627e-19)
(15.3516 2.95351 3.74789e-20)
(15.3522 2.96479 -6.15399e-19)
(15.3768 2.96213 0)
(15.3961 2.96512 6.71361e-19)
(15.4286 2.96557 -2.47269e-18)
(15.4675 2.96975 9.31633e-21)
(15.5178 2.97842 -6.92769e-21)
(15.5788 2.99191 -7.17272e-19)
(15.655 3.00937 1.67404e-20)
(15.7532 3.03065 1.06629e-18)
(15.8809 3.05738 -2.59211e-20)
(16.0453 3.09428 -8.05728e-19)
(16.2495 3.14622 -9.48331e-20)
(16.4932 3.21726 -1.17254e-18)
(16.7717 3.3069 -1.09606e-18)
(17.0777 3.41148 8.58663e-20)
(17.4012 3.52154 0)
(17.7309 3.63072 -1.31321e-19)
(18.0552 3.72605 1.68125e-19)
(18.3606 3.81053 0)
(18.6413 3.86905 3.59987e-19)
(18.8832 3.91923 -2.46981e-19)
(19.0999 3.94623 0)
(15.3515 2.95318 1.02015e-18)
(15.352 2.96472 6.14076e-19)
(15.3769 2.96182 0)
(15.3961 2.9645 6.56703e-19)
(15.4286 2.9641 2.45704e-18)
(15.4679 2.96705 1.03206e-18)
(15.519 2.97442 1.6885e-18)
(15.5806 2.98649 0)
(15.6573 3.00223 1.15022e-18)
(15.756 3.02065 -1.02019e-18)
(15.8844 3.04232 9.14062e-19)
(16.0506 3.07112 8.35426e-19)
(16.2579 3.11107 -1.33895e-20)
(16.5067 3.1657 1.74042e-20)
(16.792 3.23387 -1.02544e-18)
(17.1057 3.31145 8.15332e-19)
(17.4366 3.38885 0)
(17.7719 3.46026 4.79245e-19)
(18.0988 3.51466 0)
(18.403 3.55632 0)
(18.678 3.57477 -3.5267e-19)
(18.9127 3.58614 -7.382e-19)
(19.1196 3.58312 6.28613e-19)
(15.3515 2.95287 0)
(15.3521 2.96469 -2.91827e-23)
(15.3769 2.9616 9.3768e-23)
(15.3961 2.96413 -6.54959e-19)
(15.4286 2.96325 -6.13821e-19)
(15.4681 2.96553 -1.03185e-18)
(15.5193 2.97202 -8.42844e-19)
(15.5811 2.98293 -7.74618e-22)
(15.658 2.99696 -5.81266e-19)
(15.757 3.01253 1.11482e-20)
(15.886 3.02936 -6.13749e-21)
(16.0536 3.05037 0)
(16.2636 3.0786 1.33837e-20)
(16.5164 3.11671 -1.73892e-20)
(16.8067 3.16281 1.49869e-18)
(17.1255 3.21231 4.68973e-20)
(17.4599 3.25583 0)
(17.7957 3.28845 1.27914e-19)
(18.1188 3.30178 -1.65008e-19)
(18.4147 3.3017 0)
(18.677 3.28245 0)
(18.8984 3.25897 4.70793e-19)
(19.0905 3.22917 -3.22471e-19)
(15.3514 2.95256 9.93148e-19)
(15.3523 2.96466 6.32962e-19)
(15.377 2.96141 0)
(15.3961 2.96378 6.55608e-19)
(15.4287 2.96244 -6.15859e-19)
(15.4683 2.9641 -1.03031e-18)
(15.5197 2.96974 8.35356e-19)
(15.5818 2.97951 -6.78195e-19)
(15.6589 2.9918 -5.69088e-19)
(15.7583 3.00445 1.51051e-18)
(15.8878 3.01631 -9.09293e-19)
(16.0566 3.02936 -8.1993e-19)
(16.2685 3.04567 -7.2904e-19)
(16.5241 3.06698 0)
(16.8175 3.09081 -5.11564e-19)
(17.1383 3.11235 8.15781e-19)
(17.472 3.12286 4.32812e-20)
(17.8029 3.11873 -5.29807e-19)
(18.1161 3.0945 0)
(18.3978 3.05778 0)
(18.6426 3.00679 0)
(18.8472 2.95529 -6.95005e-19)
(19.0217 2.90409 6.09998e-19)
(15.3513 2.95228 -9.94413e-19)
(15.3524 2.96464 -1.08397e-21)
(15.377 2.96124 0)
(15.3961 2.96345 -6.58507e-19)
(15.4288 2.96165 -6.60175e-23)
(15.4686 2.9627 1.54573e-18)
(15.5203 2.96751 -1.66718e-18)
(15.5827 2.97617 2.02463e-18)
(15.66 2.98672 -6.6076e-22)
(15.7596 2.99644 -4.98946e-19)
(15.8895 3.00329 -4.51455e-19)
(16.059 3.00829 8.22607e-19)
(16.2721 3.0125 7.20977e-19)
(16.5292 3.01686 -6.1817e-19)
(16.8236 3.01841 9.06088e-21)
(17.1434 3.01247 -8.26134e-19)
(17.4726 2.99136 0)
(17.794 2.95315 0)
(18.0929 2.89542 3.34825e-19)
(18.3564 2.82733 0)
(18.5811 2.75037 0)
(18.7671 2.67695 1.11994e-19)
(18.923 2.60911 2.87891e-19)
(15.3512 2.95203 0)
(15.3524 2.96464 -6.33334e-19)
(15.377 2.96109 1.85078e-23)
(15.3962 2.96314 -1.51694e-21)
(15.4288 2.96089 -4.3513e-23)
(15.4688 2.96133 -1.02754e-18)
(15.5207 2.96531 8.31729e-19)
(15.5834 2.97285 -1.34662e-18)
(15.6609 2.98166 -5.51657e-19)
(15.7607 2.98845 0)
(15.8906 2.99028 4.49386e-19)
(16.0603 2.98716 1.66039e-21)
(16.2738 2.97921 4.16498e-22)
(16.531 2.96657 6.15619e-19)
(16.8245 2.94607 0)
(17.1406 2.91345 4.08101e-19)
(17.4619 2.86255 -8.98953e-21)
(17.7703 2.79338 0)
(18.0515 2.70643 -3.3515e-19)
(18.2944 2.61217 0)
(18.4978 2.51453 0)
(18.6645 2.42445 0)
(18.8016 2.3441 -6.61298e-21)
(15.3511 2.95182 0)
(15.3525 2.96466 3.13113e-19)
(15.377 2.96095 -3.44631e-24)
(15.3961 2.96286 6.61353e-19)
(15.4289 2.96015 6.17016e-19)
(15.469 2.95998 1.02375e-18)
(15.5211 2.96313 0)
(15.584 2.96956 -6.5879e-19)
(15.6616 2.97664 1.09699e-18)
(15.7614 2.9805 -2.01682e-23)
(15.891 2.97729 4.42579e-19)
(16.0605 2.96605 -4.03426e-19)
(16.2735 2.94591 0)
(16.5296 2.91636 0)
(16.8202 2.87421 5.01199e-19)
(17.1301 2.81601 -4.01066e-19)
(17.4407 2.73748 0)
(17.7333 2.64072 -4.42285e-19)
(17.9945 2.52887 -3.19937e-19)
(18.2153 2.41336 0)
(18.3971 2.29981 4.95626e-21)
(18.5446 2.19749 2.81002e-22)
(18.6634 2.10811 -1.46884e-19)
(15.351 2.95163 3.70136e-24)
(15.3526 2.96468 -6.24397e-19)
(15.377 2.96084 -9.39698e-24)
(15.3961 2.96259 0)
(15.4289 2.95944 -2.07496e-21)
(15.4691 2.95867 -1.01849e-18)
(15.5214 2.96098 -1.84164e-22)
(15.5845 2.9663 6.59008e-19)
(15.6622 2.97166 -5.45124e-19)
(15.7618 2.9726 4.80529e-19)
(15.891 2.96438 -4.41843e-21)
(16.0597 2.94502 8.03916e-19)
(16.2713 2.91275 -7.09822e-19)
(16.525 2.86647 2.12874e-21)
(16.8109 2.80327 -1.00073e-18)
(17.1125 2.72081 4.01934e-19)
(17.41 2.61703 -1.88236e-20)
(17.6847 2.49619 4.58074e-19)
(17.9244 2.36366 3.18533e-19)
(18.1226 2.23145 0)
(18.283 2.10618 1.44438e-19)
(18.4118 1.99529 0)
(18.513 1.89975 -5.9892e-20)
(15.3509 2.95148 0)
(15.3527 2.96473 3.11267e-19)
(15.3769 2.96075 3.80062e-19)
(15.3961 2.96235 3.63964e-23)
(15.4289 2.95875 -1.22907e-18)
(15.4692 2.95737 5.08083e-19)
(15.5217 2.95886 0)
(15.585 2.96306 0)
(15.6626 2.96671 -3.16114e-22)
(15.762 2.96477 -4.80273e-19)
(15.8904 2.95156 -4.80568e-21)
(16.0579 2.92413 -3.99754e-19)
(16.2674 2.87985 7.07007e-19)
(16.5173 2.81715 0)
(16.7969 2.73362 4.95346e-19)
(17.0882 2.62842 -3.89916e-19)
(17.3707 2.50191 2.68385e-19)
(17.6261 2.36048 2.53052e-20)
(17.8437 2.21131 0)
(18.0193 2.06654 0)
(18.1591 1.93317 -7.26819e-20)
(18.2699 1.81673 -1.83686e-19)
(18.3546 1.71745 1.26104e-19)
(15.3508 2.95136 0)
(15.3527 2.96479 -1.42078e-23)
(15.3769 2.96068 -3.80397e-19)
(15.3961 2.96213 3.31017e-19)
(15.4289 2.9581 6.13418e-19)
(15.4693 2.95611 1.12503e-22)
(15.5219 2.95676 3.98287e-19)
(15.5854 2.95985 3.18118e-19)
(15.663 2.96181 -5.25296e-19)
(15.7619 2.95701 0)
(15.8894 2.93887 -5.25225e-21)
(16.0552 2.90346 -3.90873e-19)
(16.2616 2.84733 0)
(16.5066 2.76861 -1.06584e-20)
(16.7783 2.66563 4.92902e-19)
(17.0577 2.53931 0)
(17.3239 2.39262 -4.66978e-20)
(17.5592 2.234 -5.42016e-21)
(17.7546 2.07195 3.55704e-19)
(17.9083 1.91832 0)
(18.0285 1.77996 0)
(18.1222 1.66053 9.19319e-20)
(18.1915 1.55961 -2.91106e-19)
(15.3507 2.95127 -7.31666e-24)
(15.3528 2.96486 9.65603e-24)
(15.3769 2.96063 0)
(15.3961 2.96194 3.28225e-19)
(15.4288 2.95746 -3.0075e-22)
(15.4694 2.95486 2.23478e-22)
(15.5222 2.95468 -3.9832e-19)
(15.5857 2.95667 -3.18571e-19)
(15.6632 2.95695 5.25522e-19)
(15.7616 2.94933 -4.61777e-19)
(15.8878 2.92632 -4.29728e-19)
(16.0513 2.88306 3.94642e-19)
(16.254 2.81533 3.35391e-19)
(16.4929 2.72107 2.78869e-19)
(16.7553 2.5996 -4.82785e-19)
(17.0216 2.45384 2.14068e-20)
(17.2705 2.28948 -3.18093e-19)
(17.4855 2.11686 -1.48242e-19)
(17.6592 1.94537 -1.49942e-19)
(17.7922 1.7862 9.85144e-20)
(17.894 1.64557 -1.26082e-19)
(17.9716 1.5253 0)
(18.0266 1.4245 1.09536e-19)
(15.3506 2.9512 0)
(15.3529 2.96494 3.03193e-19)
(15.3769 2.9606 3.79189e-19)
(15.3961 2.96176 -3.31913e-19)
(15.4288 2.95685 3.01637e-19)
(15.4694 2.95364 0)
(15.5223 2.95263 4.30973e-22)
(15.586 2.95353 -5.65698e-22)
(15.6633 2.95214 2.56186e-19)
(15.761 2.94175 6.91326e-19)
(15.8857 2.91396 -4.14427e-19)
(16.0465 2.86299 -2.62449e-21)
(16.2445 2.78396 -5.96198e-21)
(16.4764 2.67473 -2.8961e-19)
(16.7282 2.5358 0)
(16.9802 2.3723 3.54644e-19)
(17.2114 2.19266 -2.63137e-19)
(17.4065 2.00897 1.96714e-19)
(17.5594 1.83113 6.28143e-20)
(17.673 1.66936 4.36624e-21)
(17.7579 1.52886 -1.19818e-19)
(17.8204 1.40961 7.73167e-20)
(17.8625 1.3104 1.04885e-19)
(15.3506 2.95116 2.42722e-19)
(15.3529 2.96504 -1.51141e-21)
(15.3769 2.96058 -3.79519e-19)
(15.396 2.9616 -3.28086e-19)
(15.4287 2.95626 -6.01948e-19)
(15.4694 2.95245 -4.90446e-19)
(15.5225 2.9506 -4.26874e-22)
(15.5862 2.95041 5.6027e-22)
(15.6633 2.94738 -2.56286e-19)
(15.7602 2.93427 -2.28353e-19)
(15.8831 2.90179 8.26447e-19)
(16.0407 2.84332 -3.72891e-19)
(16.2334 2.75334 -3.34583e-19)
(16.457 2.62978 2.77631e-19)
(16.6972 2.47445 -1.57466e-20)
(16.9342 2.29485 -3.11528e-19)
(17.1476 2.10215 2.67848e-19)
(17.3234 1.91 -2.73574e-19)
(17.457 1.72852 -6.94686e-20)
(17.553 1.56673 0)
(17.6226 1.42849 1.16949e-19)
(17.6713 1.31191 -1.53815e-19)
(17.7018 1.21557 1.98016e-19)
(15.3505 2.95115 -2.4289e-19)
(15.353 2.96515 -4.52682e-19)
(15.3769 2.96059 -3.76766e-19)
(15.396 2.96146 3.24671e-19)
(15.4286 2.9557 3.0026e-19)
(15.4694 2.95128 4.90686e-19)
(15.5226 2.9486 3.85969e-19)
(15.5863 2.94732 0)
(15.6631 2.94268 2.49812e-19)
(15.7592 2.9269 -2.21477e-19)
(15.88 2.88987 -4.10017e-19)
(16.034 2.8241 3.73086e-19)
(16.2205 2.72357 0)
(16.4351 2.58638 -2.58452e-19)
(16.6627 2.41575 1.92077e-19)
(16.8841 2.22161 -1.66519e-19)
(17.0798 2.0178 6.60413e-20)
(17.2374 1.81943 9.64917e-20)
(17.3535 1.6366 -2.44899e-19)
(17.4341 1.47699 1.61665e-19)
(17.4902 1.34289 0)
(17.5266 1.23057 -2.89335e-19)
(17.5467 1.13837 4.05432e-19)
(15.3504 2.95116 0)
(15.3531 2.96527 1.50623e-19)
(15.3769 2.96061 3.76937e-19)
(15.3959 2.96134 -3.24926e-19)
(15.4285 2.95516 -3.78133e-23)
(15.4694 2.95013 2.18478e-22)
(15.5226 2.94662 -1.94119e-19)
(15.5864 2.94426 0)
(15.6629 2.93804 -2.499e-19)
(15.7579 2.91966 3.81146e-21)
(15.8764 2.8782 0)
(16.0263 2.8054 -1.78863e-19)
(16.206 2.69477 0)
(16.4106 2.54468 1.8974e-20)
(16.6248 2.35985 -4.23669e-19)
(16.8302 2.15261 1.28758e-19)
(17.0088 1.93935 6.33162e-20)
(17.1496 1.73651 -2.47605e-19)
(17.2505 1.55418 1.19833e-19)
(17.3179 1.39852 1.58371e-19)
(17.3625 1.27019 -2.5226e-19)
(17.3884 1.16377 1.97244e-19)
(17.3998 1.07705 -7.12484e-19)
(15.3503 2.9512 -2.29012e-19)
(15.3531 2.9654 1.50306e-19)
(15.3768 2.96064 -1.86885e-19)
(15.3958 2.96124 -1.68261e-22)
(15.4284 2.95464 2.93514e-22)
(15.4693 2.94901 -4.8223e-22)
(15.5226 2.94466 -1.91838e-19)
(15.5864 2.94123 1.21603e-21)
(15.6625 2.93345 -8.7746e-22)
(15.7564 2.91256 4.12442e-21)
(15.8724 2.86681 -1.93349e-19)
(16.0177 2.78727 1.72365e-19)
(16.19 2.66704 8.60511e-21)
(16.3838 2.50484 -1.83884e-20)
(16.5838 2.30687 2.35148e-19)
(16.773 2.08782 0)
(16.9351 1.86643 1.12717e-19)
(17.0608 1.66037 1.66592e-19)
(17.1488 1.4798 -1.13134e-19)
(17.2059 1.32945 2.94914e-19)
(17.2414 1.20823 -1.41277e-19)
(17.2591 1.1092 2.98591e-20)
(17.2636 1.02928 3.53384e-19)
(15.3502 2.95126 4.54213e-19)
(15.3532 2.96554 -1.5042e-19)
(15.3768 2.96069 7.38083e-22)
(15.3958 2.96116 0)
(15.4283 2.95414 0)
(15.4692 2.94791 -2.41923e-19)
(15.5226 2.94273 -1.89536e-19)
(15.5864 2.93824 0)
(15.6621 2.92894 -1.12669e-21)
(15.7547 2.9056 2.15251e-19)
(15.8679 2.85574 1.97089e-19)
(16.0083 2.76976 -4.74849e-21)
(16.1725 2.64045 -1.09381e-20)
(16.3548 2.46696 3.20172e-20)
(16.54 2.25693 -2.30888e-20)
(16.7128 2.02718 0)
(16.859 1.79858 -1.63176e-19)
(16.9712 1.58997 4.93988e-21)
(17.0492 1.41172 -3.12999e-19)
(17.0992 1.26742 1.37969e-19)
(17.1286 1.15411 1.82028e-19)
(17.1407 1.0635 -2.887e-19)
(17.1408 0.991666 0)
(15.3502 2.95133 -4.46929e-19)
(15.3533 2.96569 1.82223e-23)
(15.3768 2.96076 1.86442e-19)
(15.3957 2.96109 0)
(15.4282 2.95366 0)
(15.4692 2.94683 1.01948e-21)
(15.5226 2.94082 3.77575e-19)
(15.5863 2.93528 0)
(15.6616 2.92448 1.17401e-19)
(15.7528 2.8988 0)
(15.863 2.845 0)
(15.998 2.75292 -6.24835e-21)
(16.1537 2.61511 8.12856e-21)
(16.3237 2.43118 1.02229e-19)
(16.4936 2.2101 2.22634e-20)
(16.6498 1.9706 -3.88982e-20)
(16.7808 1.73537 1.58802e-19)
(16.8812 1.52421 0)
(16.9517 1.34793 1.03122e-19)
(16.998 1.20948 0)
(17.0251 1.10436 4.17093e-20)
(17.0353 1.0225 5.44745e-20)
(17.0341 0.959258 0)
(15.3501 2.95143 3.31315e-19)
(15.3533 2.96585 -7.54934e-20)
(15.3767 2.96083 0)
(15.3956 2.96104 1.60658e-19)
(15.428 2.95321 -1.48077e-19)
(15.469 2.94577 2.41361e-19)
(15.5226 2.93893 -1.8838e-19)
(15.5862 2.93235 -1.45117e-19)
(15.6609 2.9201 -1.16602e-19)
(15.7506 2.89215 -1.91798e-21)
(15.8577 2.83461 2.50557e-21)
(15.987 2.73679 1.5967e-19)
(16.1335 2.59109 1.01951e-20)
(16.2906 2.39759 -1.49275e-19)
(16.4447 2.16648 2.13978e-20)
(16.5841 1.91804 0)
(16.7004 1.67635 0)
(16.7904 1.462 0)
(16.856 1.28633 0)
(16.9017 1.15201 -3.07854e-20)
(16.9307 1.05382 -1.84809e-19)
(16.9438 0.980594 1.79436e-19)
(16.9456 0.925716 0)
(15.35 2.95155 -1.09529e-19)
(15.3534 2.96603 1.51105e-19)
(15.3767 2.96093 0)
(15.3956 2.961 -1.60821e-19)
(15.4279 2.95277 2.96237e-19)
(15.4689 2.94474 0)
(15.5225 2.93707 0)
(15.586 2.92946 1.44525e-19)
(15.6602 2.91579 0)
(15.7483 2.88568 -9.51029e-20)
(15.852 2.82459 -8.91164e-20)
(15.9753 2.72142 -8.27556e-20)
(16.1122 2.56845 1.3303e-19)
(16.2558 2.36628 0)
(16.3936 2.12616 0)
(16.5159 1.86946 3.5325e-20)
(16.6176 1.6212 -4.58895e-20)
(16.6981 1.4024 0)
(16.7605 1.22503 -4.44421e-20)
(16.8086 1.09181 3.09491e-20)
(16.8431 0.996851 1.55548e-19)
(16.8636 0.929148 -1.97626e-19)
(16.8733 0.880669 0)
(15.35 2.95169 1.3646e-23)
(15.3534 2.96621 -1.51226e-19)
(15.3767 2.96103 -5.34453e-23)
(15.3955 2.96098 -8.00711e-20)
(15.4277 2.95236 -1.48154e-19)
(15.4688 2.94373 1.18877e-19)
(15.5223 2.93523 3.37531e-22)
(15.5858 2.9266 -7.06312e-20)
(15.6594 2.91155 1.11818e-19)
(15.7458 2.87937 9.56669e-20)
(15.8459 2.81495 8.67348e-20)
(15.9629 2.70684 -7.71325e-20)
(16.0898 2.54728 -1.33228e-19)
(16.2194 2.33735 -1.49854e-20)
(16.3404 2.08921 1.95544e-20)
(16.4453 1.8249 3.35051e-20)
(16.5321 1.56975 -4.35662e-20)
(16.6033 1.34482 0)
(16.6632 1.1625 4.47047e-20)
(16.7153 1.02588 0)
(16.7576 0.928664 -1.92983e-20)
(16.788 0.859982 0)
(16.8092 0.812252 -7.55165e-21)
(15.3499 2.95185 5.32234e-20)
(15.3535 2.9664 7.55996e-20)
(15.3767 2.96115 9.17997e-20)
(15.3954 2.96097 3.41895e-22)
(15.4276 2.95196 -2.53619e-22)
(15.4686 2.94274 -4.80167e-22)
(15.5222 2.93342 -9.06945e-20)
(15.5855 2.92377 7.16952e-22)
(15.6585 2.90739 -1.10025e-19)
(15.7431 2.87325 -1.74809e-21)
(15.8395 2.80573 8.32556e-20)
(15.9498 2.69309 0)
(16.0664 2.52761 -8.94221e-21)
(16.1816 2.31088 1.16684e-20)
(16.2853 2.05575 3.8807e-20)
(16.3722 1.78449 0)
(16.4435 1.52211 0)
(16.5047 1.28929 -2.93086e-20)
(16.5613 1.09832 0)
(16.6161 0.952306 1.14661e-19)
(16.6655 0.845283 -1.28021e-19)
(16.7061 0.767648 1.19662e-20)
(16.7399 0.71327 2.52791e-19)
(15.3498 2.95202 -1.06041e-19)
(15.3535 2.96659 -3.76987e-20)
(15.3766 2.96127 -1.37518e-19)
(15.3953 2.96098 8.0331e-20)
(15.4274 2.95159 7.30887e-20)
(15.4684 2.94177 -1.7731e-19)
(15.522 2.93163 9.0778e-20)
(15.5852 2.92098 6.82439e-20)
(15.6575 2.9033 1.74045e-21)
(15.7403 2.86731 -1.26656e-21)
(15.8328 2.79691 -8.10224e-20)
(15.9362 2.68018 -3.40558e-20)
(16.0421 2.5095 4.95475e-20)
(16.1424 2.28696 5.81459e-20)
(16.2284 2.0259 -3.89231e-20)
(16.2968 1.74845 0)
(16.3515 1.47868 0)
(16.4008 1.23635 -5.76269e-20)
(16.4516 1.03325 7.70207e-20)
(16.5055 0.87229 0)
(16.5581 0.748122 -1.85256e-20)