/*--------------------------------*- C++ -*----------------------------------*\
  =========                 |
  \\      /  F ield         | OpenFOAM: The Open Source CFD Toolbox
   \\    /   O peration     | Website:  https://openfoam.org
    \\  /    A nd           | Version:  7
     \\/     M anipulation  |
\*---------------------------------------------------------------------------*/
FoamFile
{
    version     2.0;
    format      ascii;
    class       volScalarField;
    location    "82";
    object      yPlus;
}
// * * * * * * * * * * * * * * * * * * * * * * * * * * * * * * * * * * * * * //

dimensions      [0 0 0 0 0 0 0];

internalField   uniform 0;

boundaryField
{
    inlet
    {
        type            calculated;
        value           uniform 0;
    }
    outlet
    {
        type            calculated;
        value           uniform 0;
    }
    suction_side
    {
        type            calculated;
        value           nonuniform List<scalar> 
56
(
10.1931
10.691
10.5037
11.0975
11.5643
11.1678
13.0017
13.2874
15.6226
17.9248
25.2658
30.7922
25.759
23.6588
33.6938
41.6974
45.3561
50.2269
54.6527
56.592
56.1993
53.5884
49.3374
44.3671
40.2112
37.2465
34.8139
32.7925
31.032
29.4256
27.9103
26.4464
25.0123
23.6257
22.3516
21.144
19.7907
18.5186
17.9752
17.5007
16.4269
15.6288
15.2288
12.6828
17.0983
19.806
20.8733
20.8233
20.0016
19.6522
19.896
20.0735
20.6366
20.7859
20.6534
23.535
)
;
    }
    pressure_side
    {
        type            calculated;
        value           nonuniform List<scalar> 
56
(
37.2647
37.0263
36.7521
36.6089
36.5221
36.5163
36.5504
36.6215
36.7259
36.7945
36.8476
36.8848
36.9101
36.9222
36.9239
36.9243
36.9369
36.9417
36.9389
36.9276
36.8859
36.7923
36.6421
36.4498
36.2457
36.1109
36.1206
36.2864
36.6623
37.2002
37.8146
38.3377
38.5558
37.9319
36.6685
34.7427
31.9349
28.3114
23.9028
18.953
13.8098
8.95351
6.0234
5.08625
4.92501
5.34956
5.91354
7.13096
7.55843
8.8377
8.83518
9.55446
9.5105
9.97954
9.9036
10.3067
)
;
    }
    trailing_edge
    {
        type            calculated;
        value           nonuniform List<scalar> 2(132.95 110.758);
    }
    defaultFaces
    {
        type            empty;
    }
}


// ************************************************************************* //
