/*--------------------------------*- C++ -*----------------------------------*\
  =========                 |
  \\      /  F ield         | OpenFOAM: The Open Source CFD Toolbox
   \\    /   O peration     | Website:  https://openfoam.org
    \\  /    A nd           | Version:  7
     \\/     M anipulation  |
\*---------------------------------------------------------------------------*/
FoamFile
{
    version     2.0;
    format      ascii;
    class       volScalarField;
    location    "134";
    object      k;
}
// * * * * * * * * * * * * * * * * * * * * * * * * * * * * * * * * * * * * * //

dimensions      [0 2 -2 0 0 0 0];

internalField   nonuniform List<scalar> 
12842
(
0.00567809
0.00506803
0.00474151
0.00448138
0.00432011
0.00417922
0.00410003
0.00401862
0.00398582
0.00395452
0.00395877
0.00398063
0.00403285
0.00410696
0.00419191
0.00424536
0.0043081
0.00434397
0.00438044
0.00439631
0.0044132
0.00442008
0.00442806
0.00565334
0.00499561
0.0046497
0.00442278
0.0042871
0.00416566
0.00409585
0.00401664
0.00398219
0.00395067
0.00395562
0.00397922
0.00403813
0.0041134
0.00419348
0.00425136
0.00431252
0.00434844
0.00438601
0.00440206
0.00441954
0.00442698
0.00443705
0.0056006
0.00495821
0.00460514
0.00437603
0.00424566
0.00413082
0.0040709
0.00400091
0.00396916
0.00394347
0.00395158
0.0039801
0.00404288
0.00413049
0.00420946
0.00426526
0.00432089
0.00435153
0.00438842
0.00440359
0.00442315
0.00442944
0.00443884
0.00553467
0.00486872
0.00452983
0.00431943
0.00420868
0.00410686
0.00405832
0.00398974
0.00396025
0.00393779
0.00394816
0.00398255
0.00406158
0.00414086
0.00422197
0.00428154
0.00433797
0.00436298
0.00439715
0.00441011
0.00442672
0.00443541
0.00444127
0.00547668
0.00480999
0.00447041
0.00426276
0.00416109
0.00407031
0.00403043
0.00397182
0.0039473
0.00393171
0.00394556
0.00398592
0.00407409
0.00416316
0.00423666
0.00429217
0.0043477
0.0043697
0.00440197
0.00441514
0.00443257
0.00444073
0.00444814
0.0053992
0.00473035
0.00441064
0.00421802
0.0041282
0.00404672
0.00401329
0.00396097
0.00393721
0.00392643
0.00394349
0.00399105
0.00409482
0.00418019
0.00425343
0.00430419
0.00435936
0.00438024
0.0044101
0.00442119
0.00443808
0.00444414
0.00445139
0.00533737
0.00466797
0.0043535
0.00416808
0.00408684
0.00401647
0.00399031
0.00394581
0.00392589
0.00392089
0.00394128
0.00399545
0.00411229
0.00420226
0.00427063
0.00431819
0.00436803
0.00438669
0.00441552
0.00442746
0.00444336
0.00445278
0.00446005
0.00526351
0.00460427
0.00430666
0.00413332
0.00405962
0.00399571
0.00397398
0.00393629
0.00391726
0.00391646
0.00393933
0.00400015
0.00412995
0.00422155
0.00428407
0.00432805
0.0043792
0.00439668
0.00442196
0.0044338
0.00445131
0.00445733
0.00446665
0.00519808
0.00454841
0.00425929
0.00409561
0.00402848
0.00397433
0.0039581
0.0039252
0.00390882
0.00391196
0.00394109
0.00400548
0.00414767
0.00423798
0.00429834
0.00433844
0.00438298
0.00439974
0.00442647
0.00443818
0.00445592
0.00446569
0.00447466
0.00511896
0.00448849
0.00421886
0.00406879
0.00400826
0.00395942
0.00394656
0.00391763
0.00390314
0.00390842
0.00394042
0.00401377
0.004168
0.00425594
0.00430664
0.00434523
0.00438933
0.00440519
0.00443034
0.00444272
0.00446219
0.00446983
0.0044797
0.00504382
0.00443565
0.00417771
0.00403897
0.00398438
0.00394413
0.00393551
0.00390922
0.00389739
0.0039051
0.00394128
0.00401816
0.0041811
0.00426763
0.00431851
0.0043534
0.00439273
0.00440851
0.00443688
0.00444851
0.0044682
0.00447995
0.00449008
0.00496693
0.00438385
0.00414323
0.00401624
0.00396744
0.00393184
0.00392559
0.00390197
0.00389291
0.00390243
0.00394343
0.00402765
0.00419994
0.00428349
0.00432537
0.00436184
0.00440044
0.00441683
0.00444341
0.004457
0.00447879
0.00448664
0.0044982
0.00489294
0.00433751
0.00410809
0.00399075
0.0039475
0.00391915
0.0039162
0.0038943
0.00388833
0.00390003
0.00394889
0.00403201
0.00421007
0.00429264
0.00433669
0.0043694
0.00440461
0.00442421
0.00445324
0.00446641
0.00448844
0.00450069
0.0045131
0.00482094
0.00429382
0.00407964
0.00397139
0.00393354
0.0039093
0.00390751
0.00388766
0.0038849
0.00389831
0.00395025
0.00404218
0.00422597
0.00430533
0.00434271
0.00437922
0.00441467
0.00443562
0.00446317
0.00448029
0.00450306
0.00451276
0.00452674
0.00475758
0.00425473
0.00405058
0.00394914
0.00391709
0.00389805
0.00389896
0.00388065
0.00388107
0.00389672
0.00394879
0.00404717
0.00423381
0.004312
0.00435296
0.0043861
0.0044205
0.00444746
0.00447633
0.00449411
0.0045167
0.00453078
0.004548
0.00470245
0.00421846
0.0040276
0.00393269
0.00390569
0.00388998
0.0038911
0.00387493
0.00387855
0.00389582
0.00395056
0.00405864
0.00424765
0.00432307
0.00435973
0.00439636
0.00443329
0.00446156
0.00449036
0.00451304
0.00453605
0.00455074
0.00456918
0.00465419
0.00418627
0.00400385
0.00391315
0.00389201
0.00387919
0.00388291
0.00386868
0.00387507
0.00389452
0.00395346
0.00406448
0.00425447
0.0043288
0.00436945
0.00440427
0.00444197
0.00447872
0.00450795
0.00453247
0.00455524
0.00457706
0.00460277
0.00461094
0.00415612
0.00398526
0.00389943
0.00388256
0.003872
0.00387579
0.00386365
0.00387305
0.00389385
0.00396235
0.00407722
0.00426816
0.00434021
0.00437802
0.004414
0.00445808
0.0044964
0.00452834
0.00455822
0.00458374
0.00461176
0.00463851
0.00457372
0.00412998
0.00396588
0.0038824
0.00387064
0.00386129
0.00386792
0.00385805
0.0038697
0.00389385
0.00396892
0.0040839
0.00427524
0.00434696
0.00438948
0.00442705
0.0044748
0.00452136
0.00455265
0.00458546
0.00461495
0.00465186
0.00468788
0.00453918
0.00410472
0.00395058
0.00387116
0.00386239
0.00385439
0.00386139
0.0038534
0.00386752
0.00389235
0.00397101
0.00409831
0.00429058
0.00436091
0.00440063
0.00443613
0.00449206
0.00454378
0.00458315
0.0046234
0.00465629
0.00470534
0.00474324
0.00450977
0.00408375
0.00393467
0.00385643
0.00385142
0.00384389
0.0038538
0.00384832
0.00386427
0.00389416
0.00398194
0.00410627
0.00429925
0.0043699
0.00441632
0.00445759
0.00451754
0.00457792
0.00461842
0.00466068
0.00471197
0.00476678
0.00481247
0.00448175
0.00406225
0.00392158
0.00384713
0.00384371
0.00383707
0.0038477
0.00384376
0.00386153
0.0038944
0.00398407
0.00412406
0.00431689
0.00438793
0.00443244
0.00446955
0.00453493
0.00460067
0.00465521
0.00471641
0.00476823
0.004837
0.00487336
0.00445812
0.00404519
0.00390828
0.0038343
0.0038333
0.00382714
0.00384046
0.00383904
0.00385827
0.00389283
0.00397854
0.00413382
0.00432866
0.00440198
0.00445273
0.00449823
0.00456875
0.00464018
0.00470313
0.0047599
0.00483997
0.00489497
0.00491756
0.00443874
0.00403058
0.00390002
0.00382847
0.00382763
0.00382145
0.00383558
0.00383496
0.00385506
0.00389648
0.00398086
0.00415568
0.00434327
0.00442428
0.00447753
0.0045158
0.00458667
0.00466528
0.00473784
0.00482143
0.00489408
0.00495534
0.00500395
0.00442381
0.00402051
0.00389412
0.00382356
0.00382255
0.00381651
0.0038317
0.00383203
0.00385195
0.00389643
0.00398229
0.00416629
0.00435488
0.00444174
0.00450074
0.00455313
0.00462869
0.00470606
0.0047958
0.00489185
0.00496328
0.00506229
0.00518107
0.00440988
0.00401086
0.0038889
0.0038204
0.00381919
0.00381341
0.00382885
0.00382932
0.00384949
0.00389525
0.00398611
0.00418296
0.00437095
0.00446712
0.00453408
0.00458193
0.00464932
0.00473954
0.00484679
0.00496447
0.00509868
0.00546856
0.00682683
0.0043961
0.00400143
0.00388321
0.00381608
0.00381458
0.00380931
0.00382537
0.0038266
0.00384688
0.00389858
0.00398895
0.00419291
0.00438729
0.00449135
0.00456048
0.0046266
0.00470992
0.00480664
0.00493822
0.00521725
0.00658651
0.0141815
0.0415757
0.00438332
0.0039923
0.00387787
0.00381317
0.00381173
0.00380699
0.00382287
0.00382414
0.00384517
0.00389861
0.00399403
0.00420987
0.00440859
0.00452027
0.0046036
0.00467586
0.00476987
0.00490049
0.00515605
0.0064892
0.0142153
0.0516389
0.168868
0.00437082
0.00398347
0.00387211
0.0038092
0.00380775
0.00380363
0.00381968
0.00382169
0.00384346
0.00389731
0.00399803
0.00422027
0.00443091
0.00455237
0.00463418
0.00472672
0.00486045
0.00506481
0.00604142
0.0130198
0.0576678
0.200947
0.415248
0.00435908
0.00397492
0.00386669
0.00380639
0.00380546
0.00380184
0.00381736
0.0038195
0.00384255
0.00390139
0.00400623
0.00423944
0.00445727
0.00458069
0.00468083
0.00479022
0.00497448
0.00562257
0.0105772
0.0449193
0.151801
0.365606
0.76829
0.00434782
0.00396671
0.00386082
0.00380265
0.00380206
0.00379889
0.00381436
0.00381732
0.0038415
0.00390171
0.00401212
0.00425196
0.00448707
0.00462095
0.00471918
0.00485783
0.00516482
0.00713206
0.020677
0.0805489
0.263505
0.654091
1.0585
0.00433694
0.00395883
0.00385549
0.00379987
0.00380015
0.00379728
0.00381205
0.00381535
0.00384083
0.00390142
0.00402494
0.00427738
0.00451974
0.00464624
0.00475786
0.0049252
0.00572362
0.0111417
0.0404497
0.156123
0.455998
0.929734
1.2787
0.00432671
0.00395133
0.00384969
0.0037964
0.00379713
0.0037944
0.00380918
0.00381341
0.00383976
0.00390017
0.00403335
0.00429365
0.00455642
0.00469061
0.00480541
0.00505306
0.00677159
0.0165101
0.0630535
0.236645
0.662947
1.04682
1.53238
0.00431649
0.00394415
0.00384467
0.00379369
0.0037953
0.00379273
0.00380681
0.00381163
0.00383959
0.00390258
0.00405172
0.00432833
0.00459458
0.00471438
0.00484183
0.00517362
0.00759389
0.0232693
0.104082
0.372289
0.840553
1.23764
1.99973
0.004307
0.0039374
0.00383919
0.00379063
0.00379243
0.00378981
0.00380396
0.00381003
0.00383943
0.00390534
0.00406274
0.00434901
0.0046331
0.00475756
0.00489479
0.00550339
0.0103539
0.0342523
0.1516
0.52342
0.897116
1.48094
2.60501
0.00429734
0.00393086
0.00383469
0.00378809
0.00379035
0.00378806
0.00380156
0.00380842
0.00383937
0.0039128
0.00408632
0.00439296
0.00467183
0.00478051
0.00492803
0.00561516
0.0144847
0.0477757
0.19855
0.53819
0.956216
1.96432
3.33665
0.00428835
0.0039248
0.00382968
0.0037855
0.0037874
0.00378511
0.00379876
0.00380741
0.00383918
0.00391727
0.00409947
0.00441835
0.00470716
0.00482125
0.00499808
0.00668427
0.0193485
0.0894529
0.269471
0.533649
1.25715
2.49945
3.89266
0.00427924
0.00391875
0.00382579
0.00378319
0.0037849
0.00378332
0.00379654
0.00380574
0.00383959
0.00392682
0.0041267
0.00446677
0.0047438
0.00484249
0.00504768
0.00705864
0.018579
0.0938761
0.2847
0.656452
1.62156
3.10552
4.27481
0.00427067
0.00391325
0.00382126
0.00378092
0.00378181
0.00378042
0.0037939
0.00380498
0.00384019
0.00393193
0.00414117
0.00449338
0.00477382
0.00488004
0.00511069
0.00741675
0.02226
0.112128
0.308351
0.84086
2.09955
3.69402
4.57991
0.00426213
0.00390753
0.00381785
0.00377876
0.003779
0.00377867
0.00379202
0.00380363
0.00384231
0.00394233
0.00416937
0.0045411
0.00480991
0.0049036
0.00512888
0.0068612
0.0216986
0.125653
0.391613
1.12997
2.60131
4.12255
4.75558
0.00425408
0.00390241
0.00381374
0.00377654
0.00377582
0.00377599
0.00378971
0.00380308
0.00384371
0.00394781
0.00418403
0.00456606
0.00483504
0.00493392
0.00518413
0.00720472
0.0348883
0.139724
0.4152
1.45137
3.13245
4.42631
4.89539
0.00424612
0.00389697
0.00381048
0.00377436
0.00377283
0.00377431
0.00378809
0.00380252
0.00384689
0.00395897
0.0042125
0.00461016
0.00487357
0.00497048
0.00524009
0.00755089
0.0336955
0.116265
0.63332
1.66953
3.56962
4.64228
4.96257
0.00423869
0.0038921
0.00380672
0.00377196
0.0037696
0.00377203
0.00378629
0.00380153
0.00384861
0.00396492
0.00422705
0.00463218
0.00489618
0.00499507
0.00531135
0.00764567
0.0318628
0.167598
0.590765
2.06209
3.94815
4.78308
4.97073
0.00423132
0.00388697
0.00380319
0.00376956
0.00376652
0.00377034
0.00378478
0.00380119
0.00385214
0.00397708
0.00425598
0.00467379
0.00493538
0.00504693
0.00545135
0.00815105
0.0278706
0.145107
0.728087
2.41169
4.24764
4.8854
4.93178
0.00422451
0.00388232
0.00379964
0.00376688
0.00376334
0.00376851
0.00378349
0.00380091
0.00385397
0.00398356
0.00427094
0.00469472
0.00495562
0.00509043
0.00567216
0.00988034
0.0325586
0.174678
0.913081
2.80008
4.59146
4.89649
4.90647
0.00421774
0.00387751
0.00379565
0.00376418
0.00376027
0.00376675
0.00378196
0.00380119
0.00385767
0.00399681
0.00430111
0.00473664
0.0049942
0.00518432
0.00611445
0.0121122
0.044482
0.250287
1.06203
3.01441
4.55984
4.78594
4.81869
0.00421144
0.00387314
0.00379203
0.00376119
0.00375722
0.00376523
0.00378096
0.00380117
0.00385961
0.00400382
0.00431702
0.00475824
0.00501801
0.00528795
0.00698108
0.0180479
0.0799718
0.30954
1.23527
3.09898
4.36306
4.67575
4.65403
0.00420526
0.00386858
0.00378775
0.00375832
0.00375431
0.00376348
0.0037794
0.00380148
0.00386346
0.00401809
0.00434934
0.00480182
0.00506732
0.00550533
0.00817506
0.0266295
0.10682
0.416048
1.40648
3.17658
4.28522
4.65267
4.51123
0.00419935
0.00386455
0.00378398
0.00375521
0.00375144
0.00376211
0.00377836
0.00380295
0.00386553
0.0040256
0.00436618
0.00482473
0.00510636
0.00578078
0.011258
0.037804
0.170008
0.5319
1.54612
3.13541
4.10116
4.5748
4.55785
0.00419429
0.00386077
0.00378013
0.0037527
0.00374924
0.00376093
0.00377723
0.00380244
0.00386886
0.00403858
0.00439525
0.00486506
0.00519247
0.00642059
0.014163
0.0593392
0.240366
0.643389
1.70591
3.07353
3.97559
4.41218
4.36923
0.00419016
0.00385802
0.003777
0.00375042
0.00374719
0.00376007
0.00377627
0.00380268
0.00387064
0.00404451
0.00440837
0.00488499
0.00525362
0.00692375
0.0191172
0.0874949
0.321973
0.866421
1.89639
3.03649
3.76807
4.17517
4.26647
0.00418688
0.00385558
0.00377403
0.00374853
0.00374594
0.00375951
0.00377552
0.00380278
0.00387314
0.0040538
0.00442795
0.0049187
0.00539816
0.00834924
0.0263786
0.120286
0.433059
1.11942
2.04474
3.01358
3.60305
3.97807
4.17807
0.00418433
0.00385374
0.0037715
0.00374719
0.00374485
0.00375906
0.00377474
0.00380295
0.00387478
0.00405834
0.00443716
0.00493734
0.00549905
0.00930668
0.0343689
0.168086
0.585958
1.36419
2.15941
3.01837
3.5327
3.88789
4.20478
0.00418201
0.003852
0.00376927
0.00374603
0.00374416
0.00375877
0.0037741
0.00380299
0.00387733
0.00406551
0.00445053
0.00496863
0.00572205
0.0116698
0.0500312
0.2388
0.7644
1.53763
2.28422
3.0267
3.5231
3.90518
4.33338
0.00418046
0.00385057
0.0037672
0.00374539
0.0037438
0.00375858
0.00377352
0.00380315
0.00387881
0.00406958
0.00445882
0.00498937
0.0058923
0.0135357
0.0698997
0.335696
0.975646
1.79464
2.51307
3.0913
3.60003
4.04369
4.54498
0.00417877
0.00384917
0.00376559
0.00374491
0.00374336
0.00375839
0.00377311
0.00380329
0.00388128
0.00407587
0.00447177
0.00502283
0.00620064
0.0169777
0.103498
0.453206
1.21608
2.07279
2.73029
3.23596
3.76123
4.25324
4.80498
0.00417775
0.00384786
0.00376414
0.00374462
0.0037429
0.00375816
0.00377273
0.00380331
0.00388303
0.00408074
0.00448549
0.00505379
0.00645905
0.0204693
0.130596
0.56556
1.43187
2.35705
2.98748
3.41253
3.95081
4.4951
5.09806
0.00417632
0.00384653
0.00376296
0.00374413
0.00374262
0.0037578
0.00377226
0.00380358
0.00388485
0.0040868
0.00450531
0.00509286
0.00669295
0.0236808
0.154716
0.66131
1.6606
2.67231
3.27917
3.6362
4.18117
4.7475
5.35643
0.00417529
0.00384509
0.00376191
0.00374382
0.00374204
0.00375733
0.0037719
0.00380369
0.00388723
0.00409556
0.00453173
0.00513957
0.00688642
0.026379
0.175072
0.747159
1.88408
3.01149
3.60167
3.8983
4.43515
5.01206
5.60648
0.00417384
0.00384366
0.00376088
0.00374328
0.00374173
0.00375674
0.00377141
0.00380388
0.00389055
0.00410716
0.00456478
0.00519161
0.00703399
0.0277401
0.186369
0.805853
2.1114
3.3672
3.94912
4.19325
4.70929
5.28835
5.84799
0.00417263
0.00384212
0.00376017
0.0037428
0.00374141
0.00375596
0.00377111
0.00380432
0.00389552
0.00412372
0.00460557
0.00525314
0.00713838
0.0281835
0.190459
0.833336
2.21771
3.72199
4.30997
4.5162
5.00678
5.57523
6.08588
0.00417123
0.00384068
0.00375923
0.00374218
0.00374108
0.00375509
0.00377048
0.0038054
0.00390247
0.00414383
0.00465212
0.00531764
0.00721027
0.02841
0.192331
0.835376
2.2988
4.07232
4.67502
4.85396
5.31488
5.86148
6.30833
0.00416982
0.00383918
0.0037587
0.00374174
0.00374111
0.00375399
0.00377008
0.00380725
0.00391216
0.00417049
0.00470703
0.00539575
0.00725291
0.0279897
0.189189
0.8382
2.29709
4.4042
5.03438
5.20031
5.6325
6.13988
6.49163
0.0041684
0.00383781
0.00375779
0.00374125
0.00374032
0.00375288
0.00376947
0.00381046
0.00392481
0.00420107
0.00476694
0.00547551
0.00727491
0.0272754
0.178598
0.826233
2.3152
4.69722
5.37399
5.54621
5.95671
6.37754
6.62498
0.00416685
0.00383637
0.00375729
0.0037406
0.00374022
0.00375168
0.00376874
0.00381518
0.00394127
0.00423943
0.00483693
0.00557487
0.00728834
0.0262898
0.166471
0.787719
2.32439
4.87261
5.66989
5.86461
6.26405
6.57745
6.70183
0.00416526
0.00383512
0.00375632
0.0037401
0.0037405
0.00375045
0.00376869
0.0038222
0.00396179
0.00428239
0.00491141
0.0056772
0.00731366
0.0261566
0.15448
0.740584
2.26868
5.00992
5.89811
6.13558
6.52453
6.63092
6.7929
0.00416353
0.00383348
0.00375576
0.00373932
0.00374007
0.00374935
0.00376903
0.00383185
0.00398726
0.00433414
0.00499902
0.0058052
0.00737365
0.0259085
0.148169
0.693621
2.27061
5.02655
6.04846
6.34504
6.66557
6.66117
6.79798
0.00416177
0.00383224
0.00375458
0.00373807
0.00373927
0.00374804
0.0037712
0.00384498
0.00401801
0.00439146
0.00509016
0.00593953
0.00757419
0.0258201
0.146933
0.658171
2.20614
5.0733
6.1245
6.41305
6.69702
6.62423
6.7149
0.00415961
0.00382995
0.00375382
0.00373775
0.00373808
0.00374757
0.00377622
0.00386218
0.00405473
0.00445806
0.00519795
0.00610358
0.0079793
0.0260347
0.145684
0.637831
2.14152
4.99735
6.14248
6.43376
6.63628
6.50123
6.54862
0.00415771
0.00382846
0.00375239
0.00373781
0.00373672
0.00374737
0.00378481
0.00388415
0.00409789
0.00453117
0.0053073
0.00627429
0.00852923
0.0281299
0.147017
0.629514
2.02651
4.98642
6.12573
6.34412
6.46135
6.27624
6.27045
0.00415478
0.00382522
0.00375091
0.00373749
0.00373548
0.00374962
0.00379837
0.00391171
0.00414761
0.00461317
0.00543508
0.00647544
0.00936541
0.032806
0.165811
0.634073
1.97503
5.00381
6.03017
6.14177
6.17471
5.92838
5.93283
0.00415278
0.00382318
0.00375027
0.00373614
0.00373515
0.00375334
0.00381653
0.00394511
0.00420455
0.00470215
0.00556178
0.00667618
0.0102517
0.0393569
0.192757
0.677989
1.88078
4.91849
5.85489
5.86044
5.76009
5.50898
5.521
0.00414867
0.0038192
0.00374804
0.00373579
0.00373675
0.00376483
0.00384153
0.00398529
0.00426786
0.00479849
0.00570578
0.00690527
0.011396
0.0472526
0.236614
0.723067
1.89653
4.79763
5.61903
5.52387
5.28477
5.06846
5.06855
0.00414636
0.00381637
0.00374842
0.00373555
0.00374013
0.0037781
0.00387182
0.00403184
0.00433857
0.00490154
0.00584579
0.00712079
0.0124939
0.0557936
0.281705
0.827659
1.863
4.63702
5.33129
5.15345
4.80583
4.53883
4.54922
0.00414113
0.00381181
0.00374754
0.00373723
0.0037493
0.0038014
0.00390999
0.00408552
0.00441448
0.00500923
0.00599927
0.00735939
0.0136547
0.0646229
0.327122
0.931135
1.94972
4.46931
5.01971
4.77144
4.35182
4.05119
4.14938
0.00413792
0.00380919
0.00375045
0.00374235
0.00376299
0.00382745
0.00395357
0.0041454
0.00449726
0.00512272
0.00614608
0.0075714
0.014746
0.073219
0.364668
1.00863
2.05362
4.29631
4.68833
4.39693
3.94632
3.64719
3.76998
0.00413188
0.00380496
0.00375409
0.00375127
0.00378257
0.00386338
0.00400507
0.00421161
0.00458315
0.00523707
0.00630105
0.00780558
0.0157082
0.0810581
0.370582
1.05725
2.02862
4.09131
4.36396
4.05065
3.60552
3.3298
3.45379
0.00412765
0.00380311
0.00376342
0.00376546
0.003809
0.0039038
0.0040612
0.00428315
0.00467475
0.00535627
0.00644726
0.00800321
0.0165925
0.0878217
0.376314
1.09511
2.14665
3.88908
4.03789
3.73352
3.32828
3.12782
3.19672
0.0041216
0.0037998
0.00377373
0.00378459
0.00384091
0.00395174
0.00412461
0.00435931
0.00476683
0.00547178
0.00659722
0.00823707
0.0175262
0.0930635
0.387164
1.07866
2.17571
3.67101
3.74966
3.46814
3.1396
3.07048
3.0685
0.00411514
0.00380094
0.00379204
0.00380932
0.00388015
0.00400579
0.00419099
0.00443921
0.00486302
0.00559177
0.00673714
0.008429
0.0184029
0.0969142
0.392498
1.09685
2.22195
3.4649
3.48871
3.23382
2.98895
2.92362
2.9986
0.00411068
0.00379964
0.00381097
0.00384009
0.0039251
0.00406436
0.00426355
0.00452188
0.00495719
0.00570331
0.00687855
0.00866972
0.0193998
0.0998475
0.390518
1.06178
2.3214
3.29321
3.2749
3.06967
2.91865
2.9078
2.94476
0.0041025
0.00380561
0.00384004
0.00387627
0.00397617
0.00412941
0.0043372
0.00460591
0.00505353
0.00582013
0.00701266
0.00887583
0.0202871
0.100449
0.393825
1.05501
2.38213
3.15336
3.12633
2.95055
2.89456
2.84227
2.88354
0.00409898
0.00381411
0.00386874
0.00391825
0.0040324
0.00419654
0.00441523
0.00469156
0.00514603
0.0059237
0.00714365
0.00913489
0.0211524
0.101292
0.387052
1.05509
2.46541
3.06457
3.03075
2.8941
2.83721
2.82306
2.86943
0.00409153
0.0038295
0.00390856
0.00396624
0.00409471
0.00426941
0.00449318
0.00477522
0.00523863
0.00603525
0.00728159
0.0094006
0.0217337
0.10137
0.375942
1.07581
2.41605
2.97624
2.96535
2.8611
2.8229
2.82744
2.8935
0.00409175
0.00385023
0.00394807
0.00401821
0.00415843
0.00434201
0.00457282
0.00486092
0.00532641
0.00612855
0.00740376
0.00970542
0.0223073
0.10151
0.364722
1.06215
2.39048
2.90696
2.91148
2.83767
2.82521
2.82633
2.88114
0.00408842
0.00387596
0.0039967
0.00407614
0.00423033
0.00441969
0.00465219
0.00494002
0.00541248
0.00623437
0.00755956
0.0100914
0.0228737
0.101147
0.353343
1.03253
2.37991
2.84886
2.85583
2.81785
2.81998
2.83271
2.87253
0.00409251
0.00390889
0.00404718
0.00413781
0.00429908
0.00449452
0.00473008
0.00502331
0.00549331
0.00631745
0.00768133
0.010491
0.0235539
0.100615
0.34178
1.00159
2.36811
2.80738
2.8222
2.80062
2.81103
2.82066
2.84483
0.00410162
0.00394743
0.0041028
0.00420161
0.00437521
0.00457308
0.00480807
0.00509527
0.0055712
0.00641797
0.00786802
0.0110553
0.0246517
0.100219
0.335837
0.950812
2.3297
2.77417
2.79258
2.78173
2.79922
2.806
2.81864
0.00411056
0.00399017
0.00416093
0.0042714
0.00444879
0.0046486
0.00488182
0.00517272
0.00564384
0.00649319
0.00800064
0.011578
0.0257345
0.0998793
0.325296
0.902833
2.30618
2.717
2.75019
2.7683
2.77853
2.77943
2.79161
0.00413131
0.00404124
0.00422406
0.00433906
0.00452354
0.00472266
0.00495521
0.00523839
0.00571268
0.00658913
0.00822678
0.0123612
0.027507
0.0996202
0.320957
0.902752
2.28753
2.63354
2.72737
2.73305
2.7473
2.74831
2.75433
0.00414659
0.00409379
0.00428395
0.00441136
0.00459744
0.00479775
0.00502401
0.00530422
0.00577685
0.00666032
0.00838394
0.0130219
0.0289793
0.099328
0.313312
0.906514
2.30119
2.61437
2.67541
2.71113
2.7173
2.72049
2.7211
0.00417738
0.00415111
0.00435338
0.0044822
0.00467261
0.00486485
0.00508957
0.00536829
0.00583671
0.00675318
0.00864782
0.0139709
0.0311208
0.0992422
0.314294
0.950072
2.29878
2.61336
2.66378
2.69684
2.67259
2.68013
2.67305
0.00420274
0.00421413
0.00441354
0.00455294
0.00473607
0.00493363
0.00515114
0.00541574
0.00589225
0.0068232
0.00884057
0.0148364
0.0328865
0.0991149
0.319124
1.0168
2.33717
2.54306
2.6021
2.64822
2.65538
2.64133
2.6123
0.00423903
0.00427266
0.00448232
0.00462252
0.00481287
0.00499617
0.00521
0.00548121
0.00594547
0.00691782
0.00915315
0.0157976
0.0349974
0.0998492
0.331892
1.0837
2.29382
2.53548
2.59283
2.65051
2.64037
2.59058
2.51391
0.0042735
0.00433811
0.00454232
0.00468815
0.00486664
0.00505384
0.00526269
0.00551385
0.00598883
0.00698335
0.00933949
0.0168062
0.0366324
0.0996691
0.347472
1.2192
2.34021
2.52363
2.60862
2.62363
2.58585
2.51083
2.41247
0.00431406
0.0043979
0.00460749
0.00475622
0.00493494
0.005112
0.00531418
0.00556933
0.00604914
0.00710254
0.00978287
0.0178765
0.0391463
0.102438
0.361109
1.22366
2.38147
2.55418
2.57409
2.551
2.48825
2.39085
2.27664
0.00435924
0.00446237
0.0046648
0.00481139
0.00498827
0.00515878
0.00536621
0.00560393
0.00605328
0.00710641
0.00977916
0.01777
0.038582
0.0994712
0.370369
1.23621
2.34634
2.52003
2.51873
2.47573
2.39908
2.28966
2.16375
0.00439731
0.00451453
0.00471868
0.00486826
0.00504363
0.00521086
0.00539628
0.0056263
0.00605902
0.00711257
0.00978816
0.0177244
0.0381403
0.0973227
0.356031
1.18441
2.28044
2.4561
2.44859
2.39241
2.30327
2.18366
2.04903
0.00445988
0.00458054
0.00478973
0.00493516
0.0050673
0.0052309
0.0054153
0.00562574
0.00607493
0.00711712
0.0097977
0.0176305
0.0372392
0.0949304
0.338122
1.03846
2.16843
2.35976
2.35505
2.29739
2.19767
2.06781
1.92519
0.00450143
0.00463215
0.00482103
0.00496417
0.00508653
0.00524087
0.00540933
0.00562745
0.00607362
0.00711671
0.00984329
0.017691
0.036406
0.0920021
0.317274
1.00484
2.05132
2.2469
2.24565
2.18942
2.08352
1.94887
1.80166
0.00452681
0.00467601
0.00483818
0.00496867
0.0050792
0.00524509
0.00540707
0.00562954
0.00607001
0.00711574
0.00987555
0.017192
0.0343507
0.0874244
0.277616
1.02047
1.93172
2.12659
2.12928
2.07683
1.96976
1.82933
1.67682
0.00454021
0.004673
0.00485107
0.00497263
0.00507616
0.00525776
0.0054056
0.00563264
0.00607288
0.00712501
0.0097559
0.01759
0.0338529
0.0838653
0.290154
0.982169
1.80137
1.99955
2.00667
1.95954
1.85387
1.7111
1.55627
0.00455259
0.00467438
0.00486232
0.00497923
0.00507562
0.00524288
0.00540821
0.00563335
0.00607492
0.00710331
0.00974605
0.0170425
0.0343284
0.0782597
0.301858
0.920409
1.66864
1.87159
1.88501
1.84086
1.73644
1.58915
1.42878
0.00453634
0.00467396
0.00484667
0.00499473
0.00506889
0.00524744
0.00538613
0.00561428
0.00606445
0.00709958
0.0095691
0.0172774
0.0339675
0.0770112
0.326065
0.871354
1.5474
1.74587
1.76371
1.72027
1.61343
1.46241
1.29763
0.00452933
0.00468876
0.0048462
0.00497317
0.00506511
0.00524499
0.00537961
0.00560283
0.00603593
0.00706753
0.00952346
0.0170262
0.0324114
0.0696678
0.290889
0.807345
1.4339
1.62696
1.64159
1.59501
1.48072
1.32243
1.15272
0.00452404
0.00466511
0.00485393
0.00496754
0.00507295
0.00523183
0.00538536
0.00559631
0.00599064
0.00703184
0.00957192
0.0165541
0.0313337
0.0766711
0.31502
0.69346
1.33507
1.51614
1.52611
1.46779
1.33882
1.17555
1.00414
0.0045248
0.00465927
0.00482418
0.00496992
0.00507251
0.00521277
0.00537146
0.00555844
0.00597466
0.00697769
0.00950254
0.0160369
0.0295884
0.0886732
0.323305
0.688706
1.26242
1.40982
1.40659
1.33037
1.18753
1.01674
0.847508
0.00448734
0.00465925
0.00481821
0.00495669
0.00505803
0.00516751
0.00535102
0.00554637
0.00597384
0.00687497
0.00937355
0.0153651
0.0271038
0.105145
0.332759
0.660359
1.1909
1.3073
1.2838
1.18086
1.02831
0.859622
0.704492
0.00447756
0.00461896
0.00481831
0.00492166
0.00503662
0.00515318
0.00532268
0.00555508
0.00594957
0.0068426
0.00923286
0.0149111
0.0282892
0.130169
0.37184
0.680764
1.12023
1.19719
1.14926
1.02286
0.873503
0.730551
0.60126
0.00448548
0.00460852
0.00482275
0.00489418
0.00500061
0.0051608
0.00530077
0.00553143
0.00591303
0.00685848
0.00906458
0.0143766
0.0287767
0.167434
0.445339
0.686694
1.05674
1.08237
1.00311
0.874368
0.732259
0.610551
0.470465
0.0044656
0.00461685
0.004774
0.00486909
0.00493208
0.00513858
0.0052624
0.00549563
0.00586918
0.00681222
0.00890523
0.0137451
0.0335212
0.211892
0.515551
0.686916
0.979719
0.961138
0.862725
0.73139
0.572082
0.386217
0.240883
0.00442918
0.00460283
0.00472371
0.0048458
0.00490829
0.0050961
0.00520742
0.00544082
0.00581427
0.00674815
0.0087148
0.0129911
0.0399053
0.280018
0.502841
0.699713
0.894724
0.83851
0.70722
0.51427
0.325215
0.205605
0.14662
0.00438916
0.0045262
0.00468691
0.00479702
0.00490657
0.00503863
0.00514834
0.00538449
0.00575164
0.00665677
0.00858439
0.0130688
0.0527041
0.327138
0.516654
0.739251
0.798016
0.680338
0.491807
0.310256
0.202486
0.130825
0.0834575
0.00435284
0.00447356
0.00465542
0.00473553
0.0048672
0.00497787
0.0050842
0.00531296
0.00567586
0.00655722
0.00836981
0.0138538
0.0742716
0.369699
0.538403
0.708487
0.664411
0.488186
0.335048
0.209879
0.130683
0.0702603
0.0403637
0.00428587
0.00441417
0.00459709
0.00467902
0.00480046
0.00490665
0.00502802
0.00524252
0.00559495
0.00645578
0.00809463
0.0154812
0.104638
0.370138
0.570855
0.631135
0.507275
0.361447
0.245094
0.130397
0.071924
0.0374641
0.0238982
0.00421302
0.00434096
0.00451296
0.00462309
0.00473191
0.00483574
0.00495364
0.00514727
0.00548937
0.00631337
0.00813587
0.0226046
0.139448
0.378737
0.539583
0.517537
0.403938
0.281837
0.158759
0.0730792
0.0400693
0.0235802
0.0157194
0.00413559
0.00432154
0.00441407
0.00454072
0.00464006
0.00474295
0.00486817
0.00505831
0.00539334
0.00621266
0.00845503
0.0312108
0.183932
0.383679
0.473746
0.435601
0.336546
0.193767
0.0912166
0.0437033
0.0268613
0.0151738
0.0116046
0.00406428
0.00426263
0.00432461
0.00446044
0.00455338
0.00465208
0.00476621
0.00492505
0.0052507
0.00605436
0.00961719
0.0468507
0.216944
0.379808
0.398196
0.387486
0.252196
0.118953
0.0544061
0.0308335
0.0157206
0.0107885
0.00902897
0.00399616
0.00416337
0.0042374
0.00434725
0.00443353
0.00452561
0.00463974
0.0048185
0.00513991
0.00593138
0.0114869
0.065488
0.225563
0.340526
0.354293
0.33422
0.16507
0.0732368
0.0387928
0.0174123
0.0103412
0.00813101
0.00727501
0.00392089
0.00407304
0.0041624
0.00424378
0.0043253
0.00441016
0.004508
0.00464131
0.00496021
0.00601
0.0158882
0.0850853
0.232563
0.307021
0.328695
0.252722
0.1034
0.0502387
0.0238392
0.0105431
0.00754794
0.00659345
0.00620107
0.00380309
0.00394216
0.00403656
0.0040954
0.00416929
0.00424411
0.00434159
0.00451257
0.00485069
0.00628844
0.0202916
0.10385
0.221342
0.277013
0.291081
0.161397
0.0669179
0.0345756
0.0124754
0.00718514
0.00599812
0.00559378
0.00541577
0.00369658
0.00383567
0.0039265
0.00397014
0.00403798
0.00410611
0.00418131
0.00430555
0.00464072
0.00716304
0.0314704
0.127967
0.216688
0.250251
0.227338
0.104233
0.0466666
0.0212242
0.00758851
0.00563556
0.00518039
0.00500861
0.00492437
0.0035421
0.00367088
0.00374688
0.00377868
0.00383605
0.00389685
0.00398107
0.00413376
0.00460981
0.00874921
0.04079
0.140443
0.203899
0.227184
0.174527
0.0742602
0.0275073
0.0104332
0.00540559
0.00473951
0.00456492
0.00449265
0.00444783
0.00342175
0.0035509
0.00361351
0.00363756
0.00368803
0.00374443
0.00379118
0.00395073
0.00474761
0.0125623
0.060431
0.142634
0.191458
0.199253
0.133505
0.0513549
0.0142238
0.0060955
0.00451891
0.00429859
0.00422975
0.00419786
0.0041703
0.0032336
0.00334248
0.00337961
0.00339382
0.00343144
0.00348562
0.00357505
0.0037221
0.00537849
0.019266
0.0716373
0.142707
0.177398
0.167987
0.093053
0.0243586
0.00732332
0.00432967
0.00389189
0.00382178
0.00379626
0.00377893
0.00376254
0.00312005
0.00322111
0.00324702
0.00325618
0.00329179
0.00334038
0.00334222
0.00370966
0.00669869
0.0267448
0.0908452
0.144548
0.16736
0.138117
0.0523925
0.0114665
0.00469995
0.00378469
0.00365695
0.00362256
0.00360552
0.00359164
0.00357951
0.00287131
0.0029142