/*--------------------------------*- C++ -*----------------------------------*\
  =========                 |
  \\      /  F ield         | OpenFOAM: The Open Source CFD Toolbox
   \\    /   O peration     | Website:  https://openfoam.org
    \\  /    A nd           | Version:  7
     \\/     M anipulation  |
\*---------------------------------------------------------------------------*/
FoamFile
{
    version     2.0;
    format      ascii;
    class       volScalarField;
    location    "134";
    object      nut;
}
// * * * * * * * * * * * * * * * * * * * * * * * * * * * * * * * * * * * * * //

dimensions      [0 2 -1 0 0 0 0];

internalField   nonuniform List<scalar> 
12842
(
0.00181088
0.00178592
0.00179812
0.00178198
0.00178329
0.00176707
0.00176922
0.00175532
0.00175972
0.00175592
0.00176522
0.001773
0.00178801
0.00102333
0.000513798
0.000298615
0.000196504
0.000140777
0.000107831
8.59338e-05
7.12356e-05
6.08962e-05
5.37008e-05
0.0018164
0.00177643
0.00177456
0.00176674
0.0017745
0.00176469
0.00177011
0.00175696
0.00176052
0.00175704
0.0017656
0.00177362
0.00179081
0.00100929
0.000509135
0.000295751
0.000195111
0.000139935
0.000107271
8.5522e-05
7.0923e-05
6.09094e-05
5.35633e-05
0.0018125
0.00178895
0.00178508
0.00177307
0.00177713
0.0017634
0.00176946
0.00175881
0.00176046
0.00175864
0.00176687
0.00177593
0.00179291
0.00098232
0.000499952
0.00029152
0.000192769
0.000138089
0.000105971
8.46076e-05
7.0288e-05
6.06705e-05
5.31553e-05
0.00181061
0.00177686
0.00177218
0.00176449
0.00177346
0.00176303
0.0017702
0.00175778
0.00176067
0.00175864
0.00176694
0.00177798
0.00180059
0.000950517
0.000488219
0.000286703
0.000190336
0.000136427
0.000104689
8.3627e-05
6.947e-05
6.03547e-05
5.2645e-05
0.00180954
0.00178587
0.00177776
0.00176448
0.00177295
0.00176041
0.00176845
0.00175763
0.00176016
0.0017599
0.00176766
0.00178015
0.00180469
0.000924692
0.000478967
0.000282619
0.000187792
0.000134382
0.00010314
8.25319e-05
6.86362e-05
5.99414e-05
5.21102e-05
0.00180618
0.00177612
0.00177055
0.0017604
0.00177187
0.0017616
0.00176812
0.00175729
0.00175935
0.00176001
0.00176794
0.00178269
0.00181212
0.000905565
0.00047233
0.000279923
0.000186543
0.000133322
0.000102124
8.15719e-05
6.77766e-05
5.94478e-05
5.14656e-05
0.00180509
0.00178188
0.00177293
0.00175867
0.00176948
0.00175955
0.00176764
0.00175717
0.00175894
0.00176038
0.00176816
0.00178458
0.00181742
0.000906428
0.000475621
0.00028189
0.000186579
0.000132592
0.000101279
8.08927e-05
6.70516e-05
5.90553e-05
5.09024e-05
0.00180238
0.00177479
0.00176822
0.00175684
0.00176919
0.00176056
0.00176728
0.00175728
0.00175827
0.00176062
0.00176833
0.0017867
0.00182367
0.000901104
0.000476873
0.000283702
0.000188245
0.000132845
0.000100707
7.9977e-05
6.6092e-05
5.8238e-05
5.00309e-05
0.00180055
0.00177865
0.00176863
0.00175481
0.00176628
0.00175957
0.00176777
0.00175768
0.00175768
0.00176025
0.00176976
0.00178816
0.00182843
0.000901131
0.000482802
0.00028882
0.000190327
0.000133669
0.000100868
7.97414e-05
6.54763e-05
5.77279e-05
4.94026e-05
0.00179836
0.001773
0.001765
0.0017542
0.0017661
0.00176029
0.00176788
0.00175791
0.00175732
0.00175994
0.00176994
0.00179106
0.00183417
0.000909947
0.000488267
0.000292432
0.000192349
0.000134626
0.000101049
7.96657e-05
6.5245e-05
5.75009e-05
4.89647e-05
0.00179569
0.00177553
0.00176443
0.00175223
0.0017635
0.00176003
0.00176856
0.0017582
0.00175724
0.00175983
0.00177071
0.00179201
0.00183732
0.0009088
0.000492086
0.000294951
0.00019293
0.000134697
0.000100799
7.92688e-05
6.46117e-05
5.70434e-05
4.83507e-05
0.00179402
0.00177089
0.00176143
0.00175184
0.00176335
0.0017608
0.00176879
0.00175829
0.0017572
0.00175982
0.00177214
0.00179556
0.00184207
0.000905498
0.00049424
0.000298758
0.000194927
0.000135655
0.00010051
7.877e-05
6.39944e-05
5.63727e-05
4.75614e-05
0.00179134
0.00177258
0.00176068
0.00174965
0.00176118
0.00176077
0.00176925
0.00175831
0.00175755
0.00176034
0.001775
0.00179616
0.00182469
0.000906007
0.000499901
0.000302251
0.000196429
0.000136183
0.000100296
7.82622e-05
6.31212e-05
5.56721e-05
4.67389e-05
0.00178977
0.00176863
0.00175838
0.0017492
0.0017611
0.00176158
0.00176935
0.00175828
0.00175787
0.00176071
0.00177604
0.00179973
0.00180349
0.000903125
0.000503986
0.000308558
0.000199971
0.000138007
0.000100239
7.79249e-05
6.25002e-05
5.49396e-05
4.60428e-05
0.00178766
0.00176984
0.00175784
0.00174671
0.00175958
0.00176138
0.0017694
0.00175806
0.00175843
0.00176178
0.00177623
0.00180021
0.00177895
0.000903132
0.000510762
0.000313819
0.00020315
0.000139657
0.000100647
7.76857e-05
6.20069e-05
5.40264e-05
4.54326e-05
0.00178627
0.00176647
0.00175629
0.00174628
0.00175961
0.00176203
0.00176916
0.00175807
0.00175906
0.00176249
0.00177691
0.00180387
0.00175675
0.000900263
0.000517381
0.000323322
0.000209449
0.000142782
0.000101452
7.76761e-05
6.18581e-05
5.30971e-05
4.50078e-05
0.00178486
0.00176743
0.00175601
0.00174369
0.00175869
0.00176137
0.00176875
0.00175777
0.00175964
0.00176381
0.00177889
0.00180485
0.00173741
0.000901949
0.000528004
0.000332723
0.000215802
0.000146275
0.000102755
7.77219e-05
6.17127e-05
5.20798e-05
4.44118e-05
0.00178344
0.00176463
0.0017552
0.00174363
0.00175878
0.00176149
0.00176817
0.00175775
0.00176049
0.00176455
0.00178222
0.00180831
0.00171862
0.000900782
0.000538806
0.000348307
0.000227014
0.000151404
0.000104821
7.82872e-05
6.16614e-05
5.1396e-05
4.43344e-05
0.00178245
0.00176544
0.00175515
0.00174131
0.00175812
0.00176033
0.00176746
0.00175742
0.00176105
0.00176646
0.00178509
0.00180938
0.00169911
0.000904554
0.000555932
0.000366129
0.000239766
0.00015845
0.000107599
7.91482e-05
6.19231e-05
5.13232e-05
4.39751e-05
0.00178106
0.00176314
0.00175494
0.00174187
0.00175809
0.00175975
0.00176653
0.00175731
0.0017619
0.0017668
0.00178579
0.00181282
0.00168215
0.000906386
0.000573338
0.000393038
0.000260473
0.000167702
0.000111891
8.08899e-05
6.23077e-05
5.11332e-05
4.40879e-05
0.00178019
0.00176386
0.00175508
0.00174009
0.00175741
0.00175829
0.00176565
0.00175703
0.00176249
0.00176939
0.00179016
0.00181463
0.00167151
0.000910187
0.000598675
0.000429563
0.000288368
0.000181603
0.00011734
8.31199e-05
6.3678e-05
5.293e-05
4.50356e-05
0.00177897
0.00176206
0.00175528
0.00174125
0.00175711
0.00175711
0.00176446
0.00175687
0.00176323
0.0017706
0.0017906
0.00181884
0.00166079
0.000920556
0.000630022
0.00048353
0.000333559
0.000199208
0.000124985
8.70296e-05
6.65009e-05
5.42926e-05
4.52471e-05
0.00177806
0.00176254
0.00175556
0.0017401
0.00175633
0.00175565
0.0017636
0.0017567
0.00176369
0.00177141
0.00178775
0.00182178
0.00159265
0.000904655
0.000654099
0.000561732
0.000409956
0.000228251
0.00013439
9.10161e-05
6.8586e-05
5.70851e-05
4.90969e-05
0.00177722
0.00176153
0.00175632
0.00174145
0.00175575
0.00175394
0.00176222
0.00175643
0.00176429
0.00177426
0.0017882
0.00182649
0.00151769
0.000877998
0.000664987
0.000663681
0.000563693
0.000268043
0.000146897
9.65188e-05
7.5097e-05
6.55728e-05
5.53607e-05
0.00177638
0.00176143
0.00175695
0.00174208
0.00175502
0.00175261
0.0017613
0.00175633
0.00176433
0.00177535
0.00178822
0.00182802
0.00150363
0.000888592
0.000699502
0.000814675
0.000896896
0.000319713
0.00015999
0.000108411
8.83079e-05
7.87446e-05
7.03344e-05
0.0017759
0.00176076
0.00175748
0.00174329
0.00175458
0.00175168
0.0017605
0.00175626
0.00176462
0.00177548
0.00178939
0.00182999
0.00146229
0.000866991
0.000697255
0.000929476
0.00127351
0.000358161
0.000178941
0.000127245
0.000105284
0.00010333
0.000104507
0.00177499
0.00176039
0.00175792
0.00174415
0.00175397
0.00175074
0.0017598
0.00175628
0.0017647
0.00177787
0.00178885
0.00182946
0.00142225
0.000852487
0.000694899
0.000946483
0.00121703
0.000378958
0.00020415
0.000152461
0.000136852
0.000181027
0.000341378
0.00177472
0.00175976
0.00175824
0.00174534
0.0017537
0.00175026
0.00175926
0.00175633
0.00176508
0.0017786
0.00179058
0.00183336
0.00138871
0.000826165
0.000666072
0.00082503
0.000900701
0.000349424
0.000213044
0.000183039
0.00025459
0.000710804
0.00294593
0.00177383
0.00175924
0.00175837
0.00174618
0.0017533
0.00174979
0.00175881
0.00175645
0.00176521
0.00177781
0.00179161
0.00183334
0.00134769
0.000803952
0.000638895
0.000694943
0.000607099
0.000338516
0.000260283
0.000371994
0.00156072
0.00244552
0.00262733
0.00177368
0.00175866
0.00175847
0.00174714
0.00175326
0.00174976
0.00175846
0.0017566
0.00176565
0.00177986
0.00179219
0.00183886
0.00131036
0.000768412
0.000590551
0.000568667
0.000473153
0.000348715
0.000401874
0.00138884
0.00203144
0.00242243
0.00308832
0.0017729
0.00175817
0.00175832
0.00174776
0.00175308
0.00174961
0.00175821
0.00175683
0.00176582
0.00178016
0.00179408
0.00183957
0.00126694
0.000740539
0.000553468
0.000489745
0.000408528
0.000373404
0.000847755
0.00167773
0.00229756
0.00299376
0.00365619
0.00177274
0.00175772
0.00175827
0.0017484
0.00175324
0.00174987
0.00175797
0.00175699
0.00176621
0.00177935
0.00179818
0.00184866
0.00123078
0.000701862
0.000502883
0.000424439
0.000414976
0.000527898
0.00150899
0.00228573
0.00280934
0.0035769
0.00410794
0.00177217
0.00175739
0.00175795
0.00174878
0.00175319
0.00174987
0.00175785
0.00175725
0.00176623
0.00177867
0.00180143
0.00184819
0.00118868
0.000672789
0.000470438
0.000392088
0.00038229
0.000613571
0.00174032
0.00230161
0.00352885
0.00372674
0.0045831
0.00177188
0.00175713
0.00175785
0.00174916
0.00175343
0.00175024
0.00175765
0.00175736
0.00176674
0.00177989
0.00180836
0.00186332
0.00115641
0.000637602
0.000433961
0.000365171
0.000420544
0.00107625
0.00196503
0.00305899
0.00359579
0.004196
0.00604783
0.00177153
0.00175699
0.00175745
0.0017494
0.0017534
0.00175025
0.00175757
0.00175763
0.00176709
0.00178117
0.00181269
0.00187024
0.00111784
0.000610503
0.000413892
0.000355978
0.000466809
0.00124531
0.0018449
0.00333609
0.00411992
0.00516458
0.00816504
0.00177107
0.00175692
0.00175742
0.00174964
0.00175355
0.00175063
0.00175736
0.00175764
0.00176772
0.00178399
0.00182468
0.00189165
0.00109178
0.000586937
0.000387682
0.000327798
0.000618739
0.00154516
0.00236489
0.00370984
0.00418815
0.0069238
0.0110988
0.00177086
0.00175695
0.00175702
0.00174986
0.00175343
0.00175059
0.00175728
0.00175798
0.00176795
0.00178543
0.00182996
0.00190112
0.00105905
0.000562167
0.000369134
0.000352503
0.000783799
0.00279793
0.00334059
0.00340666
0.00547316
0.00924064
0.0137433
0.00177029
0.00175699
0.00175713
0.00175005
0.00175338
0.00175092
0.00175709
0.00175777
0.00176871
0.00178835
0.00183934
0.00191511
0.0010405
0.000547892
0.000346344
0.000320159
0.000742456
0.0021339
0.0029557
0.00413243
0.00725502
0.0118822
0.0158753
0.00177013
0.00175709
0.00175676
0.00175027
0.00175312
0.0017508
0.00175697
0.00175802
0.00176922
0.00178984
0.00184364
0.0019216
0.00101425
0.000525763
0.000324174
0.000317103
0.000773624
0.00249461
0.00328943
0.00526087
0.00942406
0.0144781
0.0177144
0.00176955
0.00175712
0.00175696
0.00175047
0.00175292
0.00175106
0.00175682
0.00175781
0.00177064
0.00179305
0.00185131
0.00193081
0.00100282
0.000515034
0.000308818
0.000275091
0.000771269
0.00274148
0.00439439
0.00689911
0.0115383
0.0166897
0.0191643
0.00176935
0.00175721
0.00175665
0.00175063
0.00175253
0.00175092
0.00175667
0.00175798
0.00177123
0.00179475
0.00185516
0.0019352
0.000982378
0.000496627
0.000291952
0.000274874
0.00135055
0.00317127
0.00395589
0.00877671
0.0136766
0.0184727
0.0203946
0.00176885
0.00175715
0.00175679
0.0017508
0.00175222
0.00175112
0.00175651
0.0017581
0.00177271
0.00179835
0.00186236
0.00194087
0.000977794
0.000492234
0.000288135
0.000284557
0.00163985
0.0025961
0.00596912
0.00931721
0.0156423
0.020008
0.0212313
0.00176858
0.00175717
0.00175658
0.00175086
0.00175172
0.001751
0.0017564
0.00175794
0.00177321
0.00180029
0.0018659
0.00194318
0.000963832
0.000481485
0.000282013
0.000282293
0.00156171
0.00368479
0.00563294
0.0115062
0.0176318
0.0211986
0.0218807
0.00176817
0.00175703
0.0017565
0.00175092
0.00175135
0.00175114
0.0017562
0.00175823
0.00177448
0.00180429
0.00187276
0.00194628
0.000967559
0.000486276
0.000291388
0.000299365
0.00137278
0.00326799
0.00752737
0.0130228
0.0195005
0.0222815
0.0223655
0.00176784
0.001757
0.00175635
0.00175087
0.00175085
0.00175104
0.00175618
0.00175836
0.00177529
0.00180637
0.00187605
0.00194737
0.000962097
0.000486285
0.00030155
0.000334186
0.00197433
0.0038179
0.00880142
0.0144756
0.0219007
0.023292
0.0232554
0.00176752
0.00175681
0.00175598
0.00175081
0.00175044
0.00175117
0.00175593
0.00175903
0.00177689
0.00181059
0.00188254
0.00194907
0.000976618
0.000506596
0.000327815
0.000408657
0.00256872
0.00502438
0.00932545
0.0155735
0.022726
0.0220628
0.0241642
0.00176713
0.00175675
0.00175576
0.00175064
0.00175002
0.00175102
0.001756
0.00175932
0.00177728
0.00181263
0.00188546
0.00194955
0.000982716
0.000521853
0.000370362
0.000644725
0.00385712
0.0058805
0.0102663
0.0168135
0.0228131
0.0202113
0.0228987
0.0017669
0.00175657
0.00175524
0.00175051
0.00174965
0.0017512
0.00175571
0.00176011
0.00177866
0.00181671
0.00189226
0.00195036
0.0010105
0.000567609
0.000449097
0.00088019
0.00393876
0.00662469
0.0113684
0.0182013
0.0233294
0.0193637
0.0229387
0.00176645
0.00175647
0.00175484
0.00175025
0.00174929
0.00175104
0.00175576
0.00176112
0.00177916
0.00181875
0.00189388
0.00194996
0.00101896
0.000599409
0.000562577
0.0014351
0.00503452
0.00717976
0.0124594
0.0193161
0.0235287
0.0197954
0.0183173
0.0017663
0.00175638
0.00175428
0.00175012
0.00174909
0.00175122
0.00175556
0.00176151
0.00178038
0.00182224
0.00190069
0.00195089
0.00104371
0.000681549
0.000787672
0.0020352
0.0057142
0.00745735
0.0137263
0.019428
0.0236522
0.0194416
0.0189093
0.00176589
0.00175623
0.00175376
0.00174993
0.00174879
0.00175124
0.00175544
0.00176192
0.00178104
0.00182378
0.00190089
0.00194802
0.00104195
0.000723549
0.00098963
0.00328411
0.00614769
0.00881204
0.0151137
0.0198419
0.0232039
0.0190935
0.0182834
0.00176575
0.00175623
0.00175318
0.00174983
0.00174879
0.00175138
0.00175531
0.00176247
0.00178214
0.00182633
0.00190577
0.00195076
0.00104822
0.000829838
0.00147211
0.00441846
0.00684614
0.0104395
0.0160983
0.0201068
0.0227152
0.0188852
0.0184566
0.0017655
0.00175606
0.00175263
0.00174985
0.00174871
0.00175156
0.00175512
0.00176288
0.00178287
0.00182759
0.00190595
0.00194664
0.00102277
0.000886489
0.00187174
0.0051531
0.007817
0.0118356
0.0165967
0.0203955
0.0226453
0.0210204
0.0203559
0.00176533
0.00175605
0.00175213
0.00174993
0.00174882
0.00175176
0.00175495
0.00176319
0.00178396
0.00182961
0.00190895
0.00187726
0.00100846
0.00102204
0.00260362
0.00601767
0.00883913
0.0125927
0.0170228
0.0205145
0.0226293
0.0239476
0.0237577
0.00176524
0.00175583
0.00175161
0.00175017
0.001749
0.00175198
0.00175474
0.00176352
0.00178459
0.00183072
0.00190958
0.00174498
0.000957992
0.00107049
0.00308333
0.00732739
0.0098678
0.0137005
0.0179312
0.0208688
0.0229283
0.0244131
0.0255733
0.0017651
0.00175569
0.00175123
0.00175049
0.00174917
0.00175223
0.0017546
0.0017637
0.00178554
0.00183237
0.0019122
0.00165347
0.000937745
0.00116939
0.00405055
0.00844924
0.0109315
0.0148956
0.0188008
0.0214472
0.0234921
0.0249302
0.0223032
0.00176516
0.0017554
0.00175089
0.00175086
0.00174934
0.00175237
0.00175456
0.00176387
0.00178607
0.00183356
0.00191442
0.00162882
0.000927062
0.00121557
0.00453613
0.00960175
0.0117972
0.0160582
0.0197931
0.0207897
0.0193419
0.0190343
0.0187901
0.0017651
0.00175517
0.00175066
0.00175115
0.00174965
0.00175248
0.00175444
0.00176413
0.00178665
0.00183505
0.00192024
0.00166989
0.000966651
0.00132458
0.00506357
0.0103431
0.0126737
0.0173167
0.0208918
0.0201151
0.0180036
0.0180499
0.0182983
0.00176526
0.00175483
0.00175053
0.00175155
0.00174987
0.0017525
0.00175447
0.00176435
0.00178737
0.00183775
0.0019272
0.00173319
0.00101929
0.00145512
0.00567496
0.0111283
0.0133644
0.0186157
0.0220862
0.0205543
0.0180846
0.0179498
0.018346
0.00176527
0.00175452
0.00175039
0.00175184
0.00175023
0.00175248
0.00175439
0.00176457
0.00178854
0.00184165
0.00193768
0.00179545
0.00107535
0.00158059
0.00626134
0.0116148
0.0142642
0.0199493
0.0233792
0.0213162
0.0185049
0.018063
0.0183122
0.00176548
0.00175416
0.00175048
0.00175218
0.00175061
0.00175233
0.00175444
0.00176492
0.0017908
0.00184799
0.00195082
0.00187191
0.00113434
0.00166399
0.0066379
0.0118659
0.0145353
0.0212463
0.0246222
0.0224156
0.0191885
0.0182702
0.018218
0.00176555
0.00175384
0.00175038
0.00175241
0.00175095
0.00175219
0.0017543
0.00176559
0.00179394
0.00185608
0.00196639
0.00193313
0.00118477
0.00173922
0.00698144
0.0117905
0.0147885
0.0224873
0.0258201
0.0237504
0.019976
0.0185708
0.0180178
0.00176577
0.00175354
0.00175058
0.00175272
0.00175141
0.00175188
0.00175434
0.00176657
0.00179827
0.0018674
0.00198648
0.00200361
0.00123642
0.00183996
0.0074429
0.0118965
0.0145491
0.0235466
0.0269488
0.025282
0.0209123
0.0190749
0.0177955
0.00176585
0.00175326
0.00175046
0.00175294
0.00175147
0.00175165
0.0017542
0.00176823
0.00180397
0.00188074
0.00200755
0.00203583
0.00128837
0.0019044
0.00779564
0.0117286
0.0147443
0.0244382
0.0279511
0.0269611
0.022023
0.0197759
0.0176628
0.00176607
0.00175305
0.00175064
0.00175299
0.00175179
0.00175131
0.00175394
0.00177058
0.00181155
0.00189765
0.00203409
0.00206187
0.00135315
0.00195586
0.00727003
0.0111079
0.0148394
0.0247761
0.0287571
0.0286662
0.0233178
0.0206246
0.0176847
0.00176609
0.00175286
0.00175046
0.00175313
0.00175231
0.00175098
0.00175425
0.001774
0.00182092
0.00191653
0.00205996
0.00208756
0.00143925
0.00206649
0.00674121
0.0103581
0.0144332
0.0251087
0.0292176
0.0304193
0.0248028
0.0212686
0.0180508
0.00176626
0.00175261
0.00175055
0.00175299
0.00175248
0.00175071
0.00175448
0.00177867
0.00183265
0.00193854
0.00209062
0.00211758
0.00154783
0.00237984
0.00639853
0.00968728
0.0145216
0.0249772
0.0295314
0.0309223
0.0263229
0.022186
0.0184613
0.00176617
0.00175252
0.00175036
0.00175275
0.00175251
0.00175028
0.00175542
0.00178492
0.00184671
0.00196136
0.00211921
0.00214356
0.00169753
0.0029262
0.00609827
0.00900278
0.0139922
0.0250234
0.0295832
0.0308499
0.0277875
0.023278
0.0190689
0.00176613
0.00175206
0.00175034
0.0017528
0.00175244
0.00175024
0.00175793
0.00179315
0.00186305
0.00198586
0.00215127
0.00217448
0.00190053
0.00296679
0.00545036
0.00838758
0.0136513
0.0247696
0.0295659
0.0307265
0.0292818
0.0245397
0.0199577
0.00176591
0.00175197
0.00175025
0.00175327
0.0017523
0.00175052
0.00176228
0.00180344
0.00188093
0.00200975
0.00217901
0.00219808
0.00199768
0.00280453
0.00485661
0.00782728
0.0130067
0.0246621
0.0293998
0.0301949
0.030704
0.0257771
0.0209421
0.00176549
0.00175125
0.00175008
0.00175339
0.00175237
0.00175196
0.00176898
0.00181614
0.0018998
0.00203457
0.00220992
0.00222827
0.00206672
0.00283527
0.00466009
0.00725596
0.0128231
0.0250378
0.0289263
0.0292261
0.0294893
0.026853
0.0221551
0.00176515
0.00175106
0.00175071
0.0017534
0.00175285
0.00175424
0.00177806
0.001831
0.00191914
0.00205691
0.00223245
0.00224667
0.0021213
0.00296849
0.00469269
0.00717796
0.0122138
0.0246569
0.0282386
0.028019
0.0278327
0.0266158
0.0233892
0.00176414
0.00175034
0.00175043
0.00175364
0.00175435
0.00176015
0.00178989
0.00184731
0.0019384
0.00207956
0.00225987
0.00227514
0.00221776
0.00315189
0.00498886
0.00707152
0.0125269
0.0240598
0.02714
0.0266321
0.0260132
0.0249866
0.0246787
0.00176375
0.00174997
0.00175201
0.00175445
0.00175671
0.00176712
0.00180405
0.00186437
0.0019571
0.00209805
0.00227368
0.00228557
0.00229122
0.00333557
0.00517685
0.00734514
0.0122592
0.0236238
0.0257706
0.0251942
0.0242482
0.0230782
0.0230044
0.00176214
0.0017494
0.00175256
0.00175585
0.00176178
0.00177821
0.00182076
0.00188185
0.00197452
0.00211617
0.00229545
0.0023113
0.00237247
0.00352934
0.00555195
0.00791464
0.0128302
0.0228021
0.0245069
0.0238078
0.0226127
0.0213318
0.0217296
0.00176166
0.00174943
0.00175557
0.00175913
0.00176894
0.00179066
0.0018382
0.00189873
0.00199044
0.00212913
0.00229913
0.00231165
0.00244425
0.00369143
0.00577202
0.0083835
0.013225
0.0218032
0.0232594
0.0225463
0.0212218
0.0198699
0.0203623
0.00175968
0.00174922
0.00175838
0.00176404
0.00177824
0.0018066
0.00185614
0.00191507
0.00200401
0.00214114
0.00231407
0.00233624
0.00249792
0.00383344
0.00559253
0.00858897
0.0131868
0.0209673
0.0221638
0.0214656
0.0200733
0.0187517
0.0192841
0.00175929
0.00175008
0.0017645
0.00177168
0.00178988
0.00182319
0.00187325
0.00192955
0.00201547
0.00214784
0.00230831
0.00232746
0.00255702
0.00393066
0.00550031
0.00866202
0.0139957
0.0203276
0.0211242
0.0205173
0.0191876
0.0182022
0.0184434
0.00175777
0.00175022
0.00177027
0.00178084
0.00180293
0.0018402
0.00188979
0.0019427
0.00202397
0.00215349
0.00231733
0.00235602
0.00263093
0.00398037
0.00566627
0.00857652
0.0141788
0.0196794
0.0202904
0.0198022
0.0187038
0.0184024
0.0182203
0.0017572
0.0017529
0.00178045
0.00179203
0.0018164
0.00185761
0.0019042
0.00195317
0.0020303
0.00215423
0.00230403
0.00234332
0.00271074
0.00399618
0.00572897
0.00862802
0.0145043
0.019088
0.0195642
0.0191724
0.0183401
0.018018
0.0182891
0.00175715
0.00175409
0.00178993
0.00180485
0.00183061
0.00187307
0.00191719
0.00196194
0.00203356
0.00215452
0.00230955
0.00237639
0.0028175
0.00397797
0.00566558
0.0082987
0.0151342
0.0186552
0.0190266
0.0188092
0.0183906
0.0183811
0.0184181
0.00175653
0.00175891
0.00180485
0.00181803
0.00184392
0.00188901
0.00192767
0.00196775
0.00203512
0.00215051
0.00229171
0.00236261
0.00289089
0.00389366
0.0057139
0.00837792
0.0154164
0.0183388
0.0187864
0.0186294
0.0186301
0.0183296
0.0184078
0.00175805
0.00176477
0.00181767
0.00183171
0.00185703
0.00190106
0.00193577
0.00197197
0.00203384
0.00214703
0.00229539
0.00239304
0.00297525
0.00382433
0.00560942
0.00831506
0.016293
0.0182695
0.0187708
0.0187669
0.0186725
0.0185928
0.0186885
0.00175762
0.00177365
0.00183613
0.00184541
0.00186948
0.00191387
0.00194231
0.00197342
0.00203168
0.00214
0.00227656
0.00237871
0.00294706
0.00374689
0.00544539
0.00866938
0.0160135
0.0181232
0.018866
0.019029
0.0189598
0.019022
0.0192787
0.00176192
0.00178565
0.00185116
0.00185826
0.00187936
0.00192138
0.00194511
0.00197358
0.00202709
0.0021344
0.00227928
0.0023966
0.00293916
0.0036752
0.00521141
0.00859487
0.0158012
0.0180476
0.018978
0.0192667
0.01937
0.0193051
0.0194322
0.00176308
0.00179751
0.00186783
0.00187068
0.00189017
0.00193032
0.00194847
0.00197156
0.00202237
0.00212591
0.00226054
0.00237484
0.00281732
0.00362371
0.00502637
0.00839298
0.0161442
0.018037
0.0190374
0.0195239
0.019707
0.0196597
0.0197273
0.00176923
0.00181435
0.00188322
0.00188201
0.00189658
0.00193286
0.00194648
0.00196863
0.00201595
0.00211966
0.0022635
0.00237729
0.0027341
0.00354971
0.00488601
0.00810603
0.0161216
0.0181469
0.0192178
0.01974
0.0199865
0.0199018
0.0196237
0.00177557
0.00183076
0.0018956
0.00189136
0.00190366
0.00193768
0.00194731
0.00196398
0.00200936
0.00211069
0.002243
0.00233826
0.00260036
0.00350289
0.00479539
0.00773156
0.015787
0.0183702
0.0194174
0.019974
0.0202371
0.0201379
0.0197955
0.00178359
0.00184772
0.00190903
0.00190012
0.00190791
0.00193633
0.00194245
0.00195928
0.002003
0.0021049
0.00224499
0.00232314
0.0024783
0.00340337
0.00461303
0.00733719
0.0156659
0.0184891
0.0195461
0.0202574
0.0204894
0.0203059
0.0199672
0.00179432
0.00186579
0.00191751
0.00190648
0.00191036
0.00193607
0.00193993
0.00195273
0.00199423
0.00209589
0.00222265
0.00227002
0.00237315
0.00329931
0.00457193
0.00723973
0.0158847
0.0184914
0.0198412
0.0203468
0.0206294
0.0204976
0.0201168
0.00180429
0.00188196
0.00192517
0.00191091
0.00191137
0.00193332
0.00193542
0.00194672
0.00199009
0.00209099
0.00222086
0.00223046
0.00223532
0.00315043
0.00450697
0.00722503
0.0164741
0.0189878
0.0199608
0.0207231
0.0207695
0.0206289
0.0204181
0.001815
0.00189691
0.00193123
0.0019146
0.00191258
0.0019278
0.00192866
0.00194066
0.00197882
0.00208227
0.00219293
0.00217461
0.0021611
0.00302259
0.00458946
0.00761921
0.0170252
0.0196474
0.0204008
0.0210849
0.0208488
0.0206617
0.020179
0.00182812
0.00191102
0.00193202
0.00191553
0.00190696
0.00192405
0.00192494
0.00193128
0.00197713
0.00207818
0.00218675
0.00211997
0.00203019
0.00286434
0.00465695
0.00829897
0.017954
0.0198115
0.0205083
0.021209
0.0212901
0.0207918
0.0203053
0.00183919
0.00192013
0.00193507
0.001915
0.00190887
0.00191605
0.00191716
0.00192881
0.00196651
0.00206907
0.00214868
0.00206291
0.00198898
0.00279871
0.0048281
0.00898306
0.0182791
0.0204509
0.02102
0.0218058
0.0218677
0.0210509
0.0196802
0.00184725
0.0019292
0.00193045
0.00191347
0.00189999
0.0019108
0.00191302
0.00191779
0.00196189
0.00206486
0.0021304
0.00198184
0.00184872
0.00265398
0.0050114
0.0104397
0.0194114
0.0211221
0.0218422
0.0219582
0.0216311
0.0204982
0.0187148
0.00185818
0.00193106
0.00192957
0.00191028
0.00189922
0.00190312
0.00190576
0.00191369
0.00196067
0.00205873
0.00209636
0.00198713
0.00191189
0.00265411
0.00516009
0.0107189
0.0205444
0.0221857
0.0222233
0.021729
0.0207395
0.0193317
0.0177801
0.00186418
0.00193624
0.00192469
0.00190684
0.00189328
0.00189725
0.00190544
0.00191093
0.00194312
0.00203731
0.00204404
0.00194671
0.00188543
0.00260949
0.00532355
0.0113921
0.0211577
0.0227338
0.0225124
0.0216651
0.0203917
0.0188375
0.0172791
0.00187004
0.00193004
0.00191729
0.00190124
0.00189304
0.00189394
0.00189655
0.00189928
0.00193364
0.0020307
0.00200778
0.0018855
0.00184467
0.00260877
0.00523264
0.0115443
0.0215682
0.0230981
0.0227129
0.021616
0.0201399
0.0184721
0.0168587
0.00188237
0.00193377
0.00192312
0.00190453
0.00187643
0.00187776
0.00188079
0.00188367
0.00193411
0.00202519
0.00202255
0.00188112
0.00181736
0.00259636
0.00506603
0.0107797
0.0216519
0.0232815
0.0228088
0.0215867
0.0199532
0.0181626
0.0164653
0.00188582
0.00193092
0.00190703
0.00189338
0.00186177
0.00186105
0.00187231
0.00188374
0.00193075
0.00203147
0.00203372
0.00188838
0.00179715
0.00255147
0.00485307
0.011166
0.0217283
0.0234016
0.022845
0.0215435
0.0197967
0.0179258
0.0161533
0.00187674
0.00191652
0.00188801
0.00186352
0.00184629
0.00186101
0.00186809
0.00187871
0.00193154
0.00203233
0.0020362
0.00183392
0.00170839
0.00257136
0.00435076
0.0121703
0.0218209
0.0234725
0.0228855
0.021563
0.0197323
0.0177336
0.0158569
0.00187692
0.00189724
0.00186884
0.00186277
0.00183908
0.0018584
0.00186327
0.00188383
0.00193303
0.00203493
0.0019957
0.0018948
0.00168187
0.00250497
0.00466934
0.0125859
0.0217669
0.0235232
0.0229123
0.0215647
0.0196925
0.0176101
0.0156306
0.0018805
0.00188921
0.00187156
0.00186126
0.00183319
0.00184839
0.00186773
0.00188286
0.00193138
0.00202475
0.00202657
0.00184377
0.00181293
0.00229969
0.00501801
0.0126724
0.0216566
0.0235421
0.0229646
0.02162
0.0196502
0.0174037
0.0152872
0.00187292
0.00186959
0.00186287
0.00186509
0.00183597
0.00185607
0.0018587
0.00187822
0.00193582
0.00203726
0.00199748
0.00185432
0.00181463
0.00228437
0.00563528
0.0128867
0.0216357
0.0236119
0.0230337
0.0216116
0.0195698
0.0171933
0.0148599
0.0018708
0.00187622
0.00185002
0.00184858
0.00183212
0.00185671
0.00185795
0.00187337
0.00192908
0.00203169
0.00198311
0.00192255
0.00168661
0.00214469
0.00527834
0.0128495
0.0216754
0.023731
0.0230889
0.0215806
0.0192373
0.016623
0.0141698
0.00186886
0.00185786
0.00185859
0.00185408
0.00183691
0.00185366
0.0018588
0.00188125
0.00191523
0.00201785
0.00204012
0.00188603
0.00166274
0.00245712
0.00602728
0.0119166
0.0218953
0.0239694
0.0231946
0.0214305
0.0188289
0.0159569
0.0132683
0.0018686
0.00185956
0.00184351
0.00185469
0.0018378
0.00184705
0.00186447
0.00187138
0.00192364
0.00200757
0.00203495
0.00178436
0.00161998
0.00301268
0.00660368
0.0128382
0.0225428
0.0242309
0.0232187
0.0210291
0.018054
0.0149295
0.0120685
0.00185703
0.00185419
0.00185351
0.00184451
0.00183967
0.00183838
0.00185855
0.00186839
0.00192738
0.00199412
0.00198819
0.00173129
0.00156373
0.00378558
0.00730829
0.013411
0.0232287
0.0245117
0.0230524
0.0203123
0.0168505
0.0134653
0.0108723
0.00185453
0.0018513
0.00185598
0.00183759
0.00183717
0.00183954
0.00186486
0.00187016
0.00191555
0.00201348
0.00197302
0.00173863
0.00170414
0.00501471
0.00882875
0.0151234
0.0239231
0.02452
0.0224592
0.0190456
0.0156875
0.0124688
0.00980897
0.0018727
0.0018483
0.00185437
0.00182899
0.00183353
0.00186183
0.00186156
0.00186755
0.00190761
0.0020274
0.00197061
0.00174329
0.00180436
0.00691327
0.0115213
0.0167519
0.0247586
0.0242323
0.0212905
0.0174802
0.0137935
0.0107762
0.00786141
0.00186789
0.00184359
0.0018365
0.00182713
0.00181254
0.00185968
0.00184544
0.0018651
0.00190813
0.0020081
0.00197594
0.0017532
0.00228284
0.00911496
0.0146127
0.0184612
0.0251876
0.023407
0.0195758
0.015435
0.0117218
0.00774987
0.00501971
0.001877
0.00184522
0.00182514
0.00183743
0.00181453
0.0018395
0.00183335
0.00186048
0.00190978
0.00200386
0.00198117
0.0017148
0.00275882
0.0122278
0.0156814
0.0207684
0.0252142
0.0220454
0.017192
0.0119985
0.00757697
0.00444623
0.00318475
0.00186635
0.00181969
0.00184002
0.0018492
0.00183872
0.00182711
0.00182749
0.0018622
0.00191441
0.0019968
0.00200003
0.00180344
0.00391458
0.015773
0.0178148
0.024213
0.0245476
0.0195401
0.0135893
0.00830847
0.00482405
0.00323495
0.00268225
0.00184584
0.0018196
0.0018454
0.0018354
0.00186038
0.00181919
0.00182177
0.00186392
0.00191424
0.0019957
0.00200185
0.00201347
0.00522945
0.0182271
0.0205933
0.025635
0.0226618
0.015862
0.0101616
0.0057492
0.00377513
0.00263232
0.00253116
0.0018296
0.00182771
0.00184814
0.00180884
0.00184865
0.00181764
0.00182719
0.00186617
0.00191057
0.00199461
0.00198645
0.00220582
0.00764308
0.0179603
0.0243181
0.0255609
0.0195677
0.0127774
0.0078872
0.00438823
0.0030712
0.00251905
0.00283145
0.00181553
0.00184074
0.0018434
0.00179661
0.00182
0.00181611
0.00182581
0.00185579
0.00189756
0.00198896
0.00203687
0.00314431
0.0102552
0.019555
0.0259133
0.0238892
0.0171347
0.0108272
0.00618321
0.00346827
0.00279315
0.00291961
0.00279931
0.00180954
0.00184731
0.00181211
0.00179028
0.00180691
0.00181479
0.00182987
0.00185663
0.00189744
0.00199615
0.00216438
0.00417371
0.0136272
0.0218311
0.0261274
0.0224387
0.0157121
0.00876682
0.00477992
0.00311771
0.00321634
0.0028505
0.00266915
0.00180658
0.00181769
0.00179731
0.00178768
0.00179962
0.00181062
0.00182458
0.00183946
0.00188286
0.00199433
0.00244644
0.00582222
0.0160014
0.0243569
0.0249719