/*--------------------------------*- C++ -*----------------------------------*\
  =========                 |
  \\      /  F ield         | OpenFOAM: The Open Source CFD Toolbox
   \\    /   O peration     | Website:  https://openfoam.org
    \\  /    A nd           | Version:  7
     \\/     M anipulation  |
\*---------------------------------------------------------------------------*/
FoamFile
{
    version     2.0;
    format      ascii;
    class       volScalarField;
    location    "134";
    object      omega;
}
// * * * * * * * * * * * * * * * * * * * * * * * * * * * * * * * * * * * * * //

dimensions      [0 0 -1 0 0 0 0];

internalField   nonuniform List<scalar> 
12842
(
3.13554
2.83778
2.63692
2.51483
2.42255
2.36506
2.31742
2.28939
2.26503
2.25211
2.24264
2.24514
2.25549
2.2769
2.32881
2.40348
2.53824
2.66948
2.86637
3.01642
3.24258
3.38327
3.58584
3.11238
2.81216
2.6202
2.50336
2.41595
2.36056
2.3139
2.28613
2.26193
2.24849
2.24038
2.24356
2.25492
2.27966
2.32866
2.40858
2.54327
2.68786
2.8982
3.05315
3.27398
3.41575
3.6312
3.08998
2.77157
2.57979
2.46805
2.38905
2.34253
2.30065
2.27479
2.25462
2.24234
2.23649
2.24114
2.25492
2.28373
2.33636
2.42262
2.56148
2.69967
2.90849
3.06141
3.29884
3.43208
3.62834
3.05681
2.74007
2.55608
2.44798
2.37315
2.32943
2.29257
2.26976
2.24928
2.23911
2.23447
2.23993
2.25569
2.28806
2.34556
2.43974
2.58821
2.74056
2.95894
3.11043
3.32434
3.4736
3.65848
3.02656
2.69336
2.51463
2.41588
2.34699
2.31213
2.27908
2.25975
2.24257
2.23405
2.23208
2.2391
2.25749
2.29404
2.35783
2.45987
2.61307
2.75879
2.97746
3.14179
3.38202
3.51928
3.71175
2.98929
2.6633
2.49112
2.39606
2.32985
2.29719
2.26981
2.25402
2.23787
2.23092
2.23056
2.23878
2.25969
2.29913
2.36651
2.4749
2.64465
2.80534
3.03726
3.18645
3.42586
3.57183
3.74078
2.95684
2.61968
2.45554
2.37002
2.30962
2.28267
2.25742
2.24555
2.23196
2.2273
2.22903
2.23888
2.26271
2.30808
2.38406
2.50269
2.67141
2.82723
3.06132
3.2473
3.47749
3.65303
3.84822
2.9203
2.59427
2.43559
2.3527
2.29461
2.26957
2.24865
2.23999
2.22791
2.22447
2.22771
2.23885
2.26464
2.31141
2.38991
2.51336
2.70704
2.87612
3.11779
3.29174
3.55718
3.7044
3.89699
2.88693
2.55722
2.40824
2.33393
2.28077
2.25869
2.23903
2.23317
2.22384
2.22239
2.22691
2.24
2.26843
2.32088
2.40666
2.53742
2.72312
2.89404
3.15474
3.35086
3.60554
3.7915
4.01551
2.84646
2.53157
2.39028
2.31946
2.26956
2.2493
2.23237
2.22857
2.22108
2.22076
2.2263
2.241
2.27242
2.32646
2.41506
2.55601
2.75275
2.93542
3.19657
3.38672
3.67862
3.83848
4.064
2.80884
2.49822
2.36774
2.30505
2.25936
2.24095
2.22526
2.22342
2.21791
2.21902
2.22582
2.24227
2.27565
2.33685
2.43362
2.57504
2.76601
2.95589
3.23452
3.44217
3.726
3.92527
4.18437
2.7686
2.47551
2.35219
2.29259
2.24995
2.23299
2.21936
2.21918
2.2154
2.21751
2.22523
2.24312
2.28001
2.34287
2.44446
2.6024
2.79943
3.01166
3.27927
3.50029
3.82527
4.01123
4.27512
2.73145
2.447
2.33323
2.28088
2.24139
2.22582
2.21348
2.2148
2.21236
2.21549
2.22473
2.2448
2.28271
2.35417
2.46307
2.61747
2.81541
3.04067
3.32828
3.57202
3.89197
4.11115
4.40984
2.6936
2.42776
2.32012
2.2704
2.23358
2.2192
2.20844
2.21106
2.21
2.21405
2.22418
2.24599
2.28748
2.36046
2.47499
2.64888
2.85507
3.10839
3.38465
3.66394
4.01767
4.26204
4.59274
2.66134
2.40402
2.3043
2.2609
2.22615
2.21306
2.20354
2.20734
2.20713
2.2118
2.22313
2.24816
2.29191
2.37266
2.49332
2.66335
2.87528
3.15038
3.44766
3.7559
4.11889
4.38167
4.72571
2.63255
2.38807
2.29324
2.25203
2.21964
2.20766
2.19941
2.20408
2.20489
2.21041
2.22327
2.24996
2.29669
2.37877
2.50588
2.69685
2.92455
3.22062
3.52116
3.87679
4.25873
4.58486
5.00965
2.60759
2.36856
2.28008
2.24417
2.21301
2.20237
2.19528
2.2009
2.2022
2.20801
2.22243
2.25198
2.30314
2.39121
2.52651
2.71323
2.95078
3.27957
3.59874
3.99391
4.40905
4.76855
5.15824
2.58542
2.35524
2.27055
2.23638
2.20753
2.19813
2.19198
2.19807
2.19999
2.20671
2.22327
2.25471
2.30973
2.39723
2.53903
2.7498
3.012
3.34904
3.69745
4.13951
4.55586
4.97703
5.52003
2.56598
2.33935
2.25957
2.22959
2.20157
2.1935
2.18841
2.1953
2.19738
2.20432
2.22337
2.25707
2.31683
2.41068
2.56473
2.77435
3.04795
3.4286
3.79485
4.28479
4.76987
5.30773
5.79743
2.54858
2.32808
2.25113
2.22242
2.19693
2.1903
2.18586
2.19278
2.19509
2.20306
2.22368
2.26073
2.32178
2.41759
2.57847
2.8093
3.11375
3.50011
3.92568
4.46309
4.97477
5.523
6.19011
2.53331
2.31523
2.24187
2.21622
2.19154
2.18616
2.18265
2.19024
2.19251
2.20085
2.22435
2.26287
2.33594
2.43347
2.61038
2.85215
3.16392
3.59785
4.04812
4.63442
5.23419
6.02372
6.76764
2.5193
2.30539
2.23416
2.20941
2.18752
2.18374
2.18066
2.18784
2.19003
2.19948
2.22499
2.26741
2.34453
2.44215
2.62826
2.88689
3.23746
3.66827
4.20267
4.86297
5.62425
6.41694
7.15481
2.5073
2.2951
2.22622
2.20349
2.18257
2.17989
2.17762
2.18537
2.18761
2.19759
2.22545
2.26911
2.34755
2.4622
2.66843
2.9482
3.30002
3.77845
4.34335
5.09475
5.90647
6.87513
7.95264
2.49758
2.28811
2.22057
2.19843
2.18005
2.17878
2.17656
2.18339
2.18505
2.19612
2.22618
2.27523
2.36021
2.47432
2.69375
2.99668
3.39962
3.88021
4.56161
5.36597
6.42897
7.70854
8.735
2.49035
2.28252
2.21642
2.19482
2.17807
2.17761
2.17549
2.18184
2.18324
2.19474
2.22696
2.27913
2.36204
2.49933
2.74761
3.08601
3.506
4.06115
4.79373
5.86725
7.23922
8.55942
9.8756
2.48318
2.27791
2.21278
2.19149
2.17669
2.17701
2.17487
2.18039
2.18148
2.19392
2.22763
2.28578
2.35824
2.51315
2.77858
3.15664
3.6508
4.23964
5.24088
6.62169
8.06848
9.96569
12.4226
2.47669
2.27304
2.20899
2.18793
2.17483
2.17582
2.17375
2.17881
2.1799
2.19283
2.2299
2.29189
2.3597
2.54328
2.84749
3.28558
3.87001
4.74595
6.04285
7.66465
9.78808
14.0448
21.4693
2.46987
2.26867
2.20554
2.18478
2.17354
2.1751
2.17301
2.17735
2.17847
2.19195
2.23059
2.29626
2.36748
2.55936
2.88687
3.38881
4.11857
5.16384
6.76458
9.24041
13.8756
25.3598
53.9957
2.46406
2.26431
2.2021
2.18145
2.17176
2.17377
2.17174
2.1758
2.17733
2.19219
2.23152
2.30196
2.37308
2.594
2.97189
3.56941
4.46221
5.83207
8.0937
13.3118
31.8683
82.1697
158.05
2.45766
2.26019
2.19889
2.17864
2.1705
2.17278
2.17085
2.17437
2.17627
2.19196
2.23538
2.30547
2.38552
2.6124
3.02011
3.7139
4.86261
6.83873
11.1187
26.8505
74.7259
150.926
248.773
2.45238
2.25616
2.19574
2.17573
2.16879
2.17127
2.16946
2.17285
2.17548
2.19177
2.23631
2.31139
2.39307
2.65175
3.11954
3.93685
5.32639
8.1528
18.1496
48.0106
114.689
218.485
289.508
2.44646
2.25225
2.19277
2.17334
2.1675
2.17003
2.16844
2.17152
2.17462
2.19261
2.23834
2.31377
2.40894
2.67342
3.17791
4.12703
6.01275
10.6071
25.1757
68.3034
162.315
259.927
311.274
2.44148
2.24841
2.18988
2.17088
2.16584
2.16839
2.16695
2.1701
2.17399
2.19275
2.23897
2.32316
2.41831
2.71552
3.28468
4.34025
6.56889
13.1777
36.231
102.817
187.865
280.895
334.355
2.4361
2.24466
2.18715
2.16887
2.1645
2.16698
2.16586
2.16895
2.17326
2.1926
2.24055
2.32291
2.43816
2.74581
3.35273
4.58107
7.3973
17.3255
52.9673
121.703
233.761
294.958
330.652
2.43124
2.24099
2.18453
2.16681
2.1629
2.1653
2.16432
2.1677
2.17274
2.19257
2.24128
2.32538
2.44963
2.78292
3.45803
4.81622
9.40951
24.1166
82.1724
156.896
217.751
286.749
319.045
2.42641
2.23735
2.182
2.16507
2.16153
2.16383
2.16322
2.16679
2.17193
2.19328
2.23947
2.32229
2.47395
2.82897
3.53636
5.16071
10.9248
30.9195
83.9572
145.071
228.314
283.705
300.631
2.42161
2.23388
2.17964
2.16332
2.16
2.16219
2.16173
2.16578
2.17154
2.19402
2.24019
2.32408
2.4875
2.85858
3.63496
5.42924
12.0266
31.9711
80.6657
156.649
229.694
270.484
283.241
2.41725
2.23038
2.1773
2.16176
2.15863
2.16077
2.1607
2.1651
2.17084
2.19578
2.24358
2.33238
2.51572
2.91709
3.73279
5.74176
13.9832
43.9927
96.3223
158.854
223.509
261.36
269.274
2.41263
2.22712
2.17518
2.16019
2.15718
2.15925
2.15934
2.16436
2.17056
2.19681
2.24619
2.33836
2.53118
2.94842
3.80818
5.97338
14.9248
44.9479
93.7399
159.833
222.786
255.146
258.542
2.40859
2.22383
2.17299
2.15872
2.15583
2.15793
2.15846
2.16384
2.17001
2.19867
2.25212
2.35192
2.56319
3.01289
3.92513
6.08882
14.4907
45.8338
89.1167
163.785
225.451
247.011
248.148
2.40431
2.2208
2.17103
2.15725
2.1545
2.15658
2.15732
2.16332
2.17008
2.19965
2.25535
2.35948
2.58047
3.04755
3.99194
6.32007
17.9586
44.0595
104.957
165.366
229.037
239.613
240.033
2.4005
2.21778
2.169
2.1558
2.15317
2.15537
2.1566
2.16285
2.17007
2.20145
2.26191
2.37531
2.61619
3.11973
4.10852
6.32619
15.2847
44.7846
106.099
179.188
228.202
232.02
233.738
2.39667
2.21498
2.16712
2.15436
2.15194
2.15422
2.15571
2.1625
2.17043
2.20238
2.26542
2.38382
2.63542
3.16001
4.18581
6.48928
17.4974
45.4837
104.877
179.216
223.922
225.632
227.174
2.39304
2.21224
2.16522
2.1529
2.15064
2.15307
2.15509
2.16195
2.17085
2.20424
2.27258
2.40139
2.67499
3.24382
4.33121
6.6309
16.4983
44.4027
96.7253
185.191
217.823
219.258
220.509
2.38965
2.20963
2.16337
2.15144
2.14944
2.15216
2.15438
2.16162
2.1709
2.20529
2.27656
2.4108
2.69669
3.29508
4.45479
7.03478
15.3784
40.5836
103.742
193.434
209.649
210.222
210.982
2.38624
2.20713
2.16155
2.14997
2.14819
2.151
2.15383
2.16096
2.17103
2.20746
2.28474
2.43021
2.74159
3.40471
4.71509
7.59617
17.3167
44.2888
113.886
193.56
200.644
199.635
199.414
2.3832
2.20471
2.15976
2.14847
2.14696
2.15031
2.15317
2.16059
2.17165
2.20885
2.28964
2.44068
2.76722
3.47917
4.9849
9.36619
20.7336
52.6383
120.323
184.315
191.252
190.324
188.286
2.38002
2.20234
2.15797
2.14699
2.14574
2.14909
2.15264
2.1598
2.17211
2.21173
2.29849
2.46202
2.82092
3.64803
5.58261
10.9165
27.1201
62.8026
123.719
174.525
183.683
184.026
179.636
2.37728
2.20018
2.15631
2.14553
2.14454
2.1485
2.15198
2.15939
2.17267
2.21338
2.30541
2.47427
2.85362
3.77181
6.16007
14.1533
33.7685
74.0833
124.093
162.321
174.304
180.132
178.894
2.37462
2.19814
2.1548
2.14425
2.14354
2.14761
2.15158
2.15863
2.17306
2.21627
2.31246
2.49376
2.91506
4.03183
7.28509
17.3009
42.0647
86.2757
124.281
158.201
168.085
176.047
175.795
2.37282
2.19676
2.15366
2.14318
2.14274
2.14708
2.15118
2.15825
2.17325
2.21765
2.31911
2.50767
2.95071
4.2058
8.2434
21.8055
52.373
98.3224
125.475
153.034
162.39
171.34
173.445
2.37116
2.19537
2.15268
2.14223
2.14202
2.1466
2.15091
2.15765
2.17331
2.21964
2.32345
2.52143
3.01663
4.56657
10.0517
27.2235
63.256
107.23
127.016
149.879
158.618
166.465
171.794
2.37005
2.19453
2.15191
2.14144
2.14149
2.14612
2.1507
2.15724
2.17335
2.22059
2.32805
2.53634
3.05682
4.81535
11.6284
32.6185
74.9595
115.262
130.111
147.992
156.001
163.359
170.938
2.36897
2.19357
2.15125
2.14068
2.14096
2.14571
2.15054
2.15688
2.17344
2.22206
2.3314
2.5491
3.13165
5.31471
14.1097
39.6832
86.4791
122.105
134.186
147.54
155.687
163.072
172.948
2.36821
2.19302
2.15071
2.14001
2.14054
2.14533
2.15048
2.15656
2.1735
2.22294
2.33497
2.56441
3.17952
5.65423
16.0538
45.8138
98.8717
130.991
140.151
148.13
157.012
165.636
177.724
2.36744
2.19239
2.15025
2.13935
2.14008
2.14492
2.15042
2.15642
2.17373
2.22437
2.33854
2.57936
3.25994
6.14557
18.3436
53.6387
111.246
139.155
145.222
150.88
160.107
170.112
183.819
2.36679
2.19201
2.14984
2.13873
2.1396
2.14462
2.15024
2.15623
2.17407
2.22559
2.343
2.5957
3.30994
6.39553
19.681
58.9018
121.374
146.781
150.935
154.627
163.923
175.231
190.298
2.36605
2.19154
2.14945
2.1381
2.13907
2.14428
2.15012
2.15607
2.17438
2.22708
2.34622
2.6065
3.35688
6.59986
20.8016
63.9374
131.027
154.32
156.96
158.879
168.071
179.932
194.433
2.36525
2.19115
2.14901
2.13744
2.13847
2.14398
2.14987
2.15586
2.17483
2.22857
2.35145
2.62428
3.40288
6.76034
21.6284
67.1405
140.977
161.771
163.073
163.543
172.251
184.119
197.798
2.36442
2.19072
2.14859
2.13677
2.13785
2.14366
2.14969
2.1557
2.17526
2.23015
2.3558
2.63559
3.4429
6.87587
22.2037
69.3817
148.021
168.788
168.916
168.836
176.625
188.1
200.984
2.36345
2.19029
2.14808
2.13608
2.13721
2.1434
2.14947
2.15552
2.1753
2.23146
2.36084
2.65313
3.48198
6.96469
22.5816
70.2297
152.574
175.183
175.044
174.3
181.323
192.18
204.219
2.36257
2.18987
2.14767
2.13544
2.13661
2.14308
2.14928
2.15531
2.17536
2.23257
2.36582
2.66383
3.51148
7.01803
22.7682
70.8519
155.445
181.094
181.062
180.024
186.301
195.909
207.567
2.36148
2.18939
2.14711
2.13482
2.13606
2.14284
2.149
2.15517
2.17552
2.23331
2.36953
2.67945
3.53888
7.05087
22.8534
70.4575
157.885
187.041
186.813
185.724
191.437
199.25
210.992
2.36056
2.18895
2.14675
2.13427
2.13553
2.14249
2.14883
2.15495
2.17565
2.23373
2.37451
2.68957
3.56139
7.06324
22.8806
70.4459
157.023
192.208
192.264
191.622
196.846
202.717
214.321
2.35939
2.1884
2.14624
2.13384
2.13509
2.14221
2.14872
2.15476
2.17563
2.23404
2.37794
2.7038
3.59346
7.08644
22.8983
70.9149
156.636
196.666
197.165
196.93
201.323
206.361
215.58
2.35846
2.18792
2.1459
2.13338
2.13462
2.14192
2.14832
2.15456
2.17571
2.23445
2.38422
2.71955
3.64467
7.11038
22.9158
71.4983
157.185
199.53
201.868
201.7
204.977
209.337
216.062
2.35726
2.18729
2.14547
2.13311
2.13417
2.14162
2.14823
2.15434
2.17567
2.23577
2.39117
2.74143
3.72861
7.32337
23.1567
71.6012
156.361
201.246
204.815
205.193
207.365
211.595
217.042
2.35639
2.18671
2.14504
2.13269
2.13366
2.14139
2.14831
2.15415
2.17577
2.23899
2.40192
2.77087
3.86113
7.82491
24.0943
73.1076
157.669
202.742
207.026
207.879
209.361
211.981
217.042
2.3552
2.18597
2.14462
2.13244
2.13307
2.14117
2.14811
2.15386
2.17639
2.2449
2.41622
2.80691
4.03664
8.77535
26.7292
76.0447
156.874
201.754
207.756
209.388
210.432
211.73
215.995
2.35443
2.18523
2.14392
2.13191
2.13247
2.14072
2.14767
2.15374
2.17865
2.25459
2.43565
2.85444
4.26957
10.0302
30.2715
80.4256
155.805
202.189
208.359
210.105
210.44
211.117
214.289
2.35333
2.18427
2.14328
2.13158
2.13167
2.14024
2.1472
2.15386
2.18318
2.26739
2.4594
2.90604
4.53153
11.5707
35.5811
87.3866
154.022
199.85
208.467
210.147
209.388
209.599
211.693
2.35266
2.18335
2.14215
2.1308
2.1309
2.13958
2.14646
2.15462
2.19085
2.28603
2.49133
2.97158
4.83273
13.2582
41.076
94.4543
153.989
199.477
207.336
209.16
206.954
206.982
207.927
2.35166
2.18198
2.14122
2.13031
2.12999
2.13892
2.14624
2.15735
2.20175
2.30745
2.52483
3.0351
5.13853
14.9918
47.4285
102.251
151.397
199.404
207.038
207.414
203.157
202.847
203.377
2.35088
2.18082
2.1395
2.12919
2.12906
2.138
2.14618
2.16258
2.21683
2.33624
2.57107
3.11554
5.45293
16.7269
54.4163
112.681
151.968
196.286
206.875
204.549
198.193
196.672
197.754
2.35006
2.17892
2.13833
2.12845
2.12813
2.13777
2.14745
2.17101
2.23573
2.36712
2.61355
3.1841
5.75548
18.3102
58.9201
117.647
151.964
196.005
204.828
200.415
192.45
189.913
190.955
2.34887
2.17739
2.13631
2.12738
2.12726
2.13746
2.15078
2.18325
2.25943
2.40602
2.67321
3.27532
6.03295
19.8348
63.1786
120.311
155.282
197.05
201.567
195.018
185.956
183.554
185.145
2.34809
2.17524
2.13497
2.12652
2.12715
2.13848
2.15774
2.19919
2.28699
2.44593
2.72292
3.34109
6.28851
21.145
66.2637
123.094
153.837
195.128
196.896
188.704
179.618
177.573
179.101
2.3462
2.17311
2.13286
2.12536
2.12807
2.14119
2.16799
2.21976
2.31943
2.4938
2.79307
3.4386
6.489
22.3428
68.4169
126.426
153.379
191.32
191.15
181.969
173.46
171.837
173.326
2.34478
2.17104
2.13172
2.12518
2.13037
2.14745
2.18258
2.24394
2.35519
2.54088
2.8469
3.49619
6.66158
23.3806
68.3279
125.769
153.448
186.541
184.8
175.139
167.859
166.852
168.411
2.34188
2.16836
2.12982
2.1257
2.13618
2.15642
2.20092
2.27283
2.39522
2.59572
2.92406
3.59704
6.78887
24.2517
68.5111
127.127
153.192
181.522
178.321
168.671
162.973
162.261
163.955
2.3394
2.16616
2.12911
2.12766
2.14415
2.1699
2.22386
2.3048
2.43769
2.64714
2.9783
3.64828
6.88547
25.1001
68.9282
127.945
153.387
176.53
172.122
163.201
158.703
158.196
159.884
2.33558
2.16361
2.12762
2.13213
2.15637
2.18602
2.24997
2.3407
2.48316
2.70639
3.06001
3.75678
7.01761
25.7981
68.9241
125.928
154.52
171.95
166.414
158.381
155.37
155.064
156.648
2.33155
2.16125
2.1284
2.13912
2.17143
2.20748
2.28087
2.37913
2.5302
2.75902
3.11217
3.81728
7.10946
26.4861
69.0003
126.89
151.317
167.743
161.461
154.213
151.946
151.836
153.54
2.32787
2.15911
2.1287
2.14925
2.19029
2.23078
2.31332
2.41977
2.57847
2.8202
3.19851
3.95198
7.3747
27.0545
69.0385
124.093
150.876
164.222
157.18
150.354
148.889
148.64
150.088
2.32233
2.1562
2.13275
2.16235
2.21268
2.25984
2.35094
2.463
2.62762
2.87132
3.24829
4.04967
7.58967
27.6202
69.9854
123.579
151.285
161.072
153.413
147.283
145.855
146.403
148.266
2.31891
2.1563
2.13975
2.17896
2.23807
2.28962
2.38761
2.50563
2.67631
2.93256
3.34414
4.24931
8.11895
27.9126
70.2978
123.022
147.416
157.946
150.012
144.328
143.096
144.087
145.612
2.31316
2.15443
2.14908
2.19861
2.26675
2.32532
2.43007
2.55168
2.72492
2.98041
3.39356
4.413
8.61489
28.3445
69.9508
123.561
146.891
154.703
146.853
141.875
140.646
141.729
144.969
2.31004
2.15617
2.16438
2.22147
2.29831
2.36008
2.46908
2.59436
2.77263
3.04069
3.50781
4.72802
9.48009
28.6105
70.0332
122.978
147.571
151.015
143.819
139.268
138.321
139.339
142.388
2.30466
2.15951
2.1796
2.24796
2.33176
2.40072
2.51323
2.64012
2.8177
3.0848
3.56378
4.98375
10.3839
29.3472
70.5169
123.049
147.21
146.952
140.703
136.656
135.608
136.878
139.81
2.30244
2.16596
2.20289
2.27595
2.36789
2.4393
2.55432
2.6826
2.8646
3.14384
3.70134
5.44541
11.5909
30.1943
70.2017
124.694
144.008
142.42
137.46
134.323
133.174
134.08
136.917
2.29818
2.17529
2.22523
2.30851
2.40531
2.48161
2.59583
2.7247
2.90281
3.18524
3.77508
5.83821
12.9643
31.5284
69.5172
125.469
139.685
137.687
134.033
130.826
130.831
131.878
133.269
2.30159
2.18836
2.2542
2.34107
2.4431
2.52353
2.63891
2.76622
2.9496
3.24319
3.9435
6.42453
14.4005
32.8335
68.4817
124.694
135.022
133.013
130.573
127.904
128.189
129.715
132.467
2.29894
2.20517
2.28442
2.37685
2.48357
2.5642
2.67601
2.80423
2.9802
3.28326
4.04279
6.99838
16.1987
34.603
68.5264
122.521
130.175
128.363
126.881
124.864
124.724
127.037
128.651
2.30483
2.2252
2.31636
2.41384
2.52132
2.60754
2.71757
2.84176
3.02336
3.34345
4.25989
7.65791
17.5957
35.6768
68.7417
120.638
125.489
123.979
123.351
121.55
120.743
123.062
127.738
2.31344
2.24866
2.35298
2.45008
2.5614
2.64489
2.75098
2.87511
3.05258
3.38199
4.38391
8.48007
19.815
37.5545
69.3362
116.784
120.558
119.478
119.431
119.483
119.543
122.49
128.907
2.32165
2.27745
2.38783
2.48981
2.5984
2.68612
2.78848
2.91026
3.08524
3.44996
4.66659
8.99617
20.4751
38.5959
69.9811
114.159
115.918
115.127
115.828
117.401
119.976
123.675
128.044
2.33842
2.30466
2.42366
2.52323
2.63472
2.71909
2.81626
2.93258
3.11524
3.48813
4.78422
9.12819
20.4633
38.1191
69.5718
108.515
110.898
110.849
111.882
114.273
117.65
121.548
125.223
2.35145
2.33908
2.46113
2.56057
2.6643
2.75133
2.84532
2.96233
3.13348
3.50253
4.87513
9.40035
20.6759
37.3061
68.0404
102.598
105.732
106.334
107.806
110.678
114.363
118.214
121.542
2.36929
2.36871
2.49061
2.59128
2.7005
2.78571
2.87928
2.98659
3.14095
3.5143
4.84423
9.37237
20.4909
36.5629
66.743
96.3345
100.149
101.358
103.252
106.426
110.141
113.85
116.924
2.38699
2.39893
2.52803
2.62186
2.73209
2.81609
2.88913
2.98738
3.14573
3.50324
4.84003
9.36833
20.2576
36.0585
65.376
89.9916
94.4074
96.0149
98.2991
101.628
105.246
108.719
111.535
2.41206
2.43984
2.56259
2.66629
2.75104
2.81841
2.89443
2.9965
3.14257
3.50127
4.85
9.37448
20.107
33.9992
63.8086
83.8494
88.5261
90.5993
93.0409
96.3144
99.8241
103.156
105.747
2.41897
2.46305
2.59577
2.66949
2.76016
2.82919
2.90113
2.98999
3.14164
3.50135
4.88845
9.28332
20.1282
33.4796
62.1401
78.0375
82.757
85.0034
87.5801
90.8677
94.141
97.1658
99.5658
2.42095
2.47426
2.59801
2.67519
2.76874
2.83646
2.89561
2.9919
3.14538
3.50824
4.80914
9.24325
18.9353
34.0305
60.1549
72.6308
77.0499
79.4995
82.0833
85.1463
88.3677
91.3115
93.4622
2.42206
2.49999
2.60173
2.678
2.76088
2.82718
2.8978
2.98914
3.13276
3.48488
4.79058
9.31738
18.7187
33.7122
57.8614
67.6166
71.5207
73.9403
76.571
79.5994
82.4448
85.0568
87.3245
2.42107
2.49905
2.61953
2.69026
2.76462
2.82489
2.89545
2.99078
3.12891
3.47865
4.80229
8.85607
19.2169
32.4839
55.1099
62.831
66.1534
68.5584
71.0989
73.9091
76.9711
79.5539
81.3508
2.42076
2.511
2.61162
2.67925
2.76168
2.82244
2.89722
2.97478
3.12791
3.48481
4.69184
8.77725
18.8446
31.2036
52.2656
58.1929
60.975
63.2533
65.7961
68.4908
71.1043
73.6702
75.6797
2.42149
2.50557
2.61684
2.67964
2.76011
2.82221
2.88095
2.97024
3.10592
3.47569
4.66966
8.9875
18.2647
29.4333
48.9584
53.6449
56.001
58.1826
60.58
63.263
65.7767
68.1022
70.2246
2.41641
2.51282
2.5995
2.68727
2.74942
2.8109
2.87913
2.96852
3.09947
3.44761
4.71462
8.87496
17.3328
27.7751
45.5317
49.2401
51.2684
53.3339
55.6904
58.1354
61.0256
63.8399
64.7969
2.41439
2.49499
2.59611
2.67832
2.74152
2.80134
2.8542
2.97037
3.10593
3.39839
4.67955
8.57635
16.6003
25.9574
42.117
45.0141
46.8264
48.825
51.1709
53.7057
55.6814
58.5901
61.297
2.39519
2.49339
2.60075
2.6759
2.72731
2.7719
2.84749
2.96186
3.09971
3.3829
4.59988
8.24682
15.9484
24.2192
38.6535
40.9921
42.6818
44.6665
47.1153
50.0206
53.0871
56.6574
59.8449
2.39072
2.50427
2.59952
2.66489
2.72108
2.76316
2.85156
2.94657
3.07588
3.39236
4.50684
7.84004
14.684
23.2466
35.2811
37.2086
38.8969
41.0619
44.0711
47.3852
48.8051
49.8353
47.9874
2.35971
2.49447
2.58814
2.63726
2.70499
2.77038
2.84038
2.92442
3.04446
3.36757
4.39881
7.57586
14.4646
22.9002
32.0661
33.6912
35.4849
38.0355
41.1365
42.8611
42.9215
46.2425
46.0382
2.35173
2.48735
2.54721
2.59411
2.66846
2.7577
2.81716
2.89148
3.0044
3.33372
4.29213
7.24657
13.4635
20.7404
29.0014
30.5311
32.509
34.8175
36.1907
37.3422
41.9743
40.4413
31.1147
2.35819
2.45854
2.52272
2.58011
2.61625
2.7363
2.7908
2.85042
2.96507
3.28568
4.18103
6.88054
14.2026
20.2829
26.1446
27.6375
29.3185
30.777
32.972
36.5058
34.6168
26.6914
15.9468
2.34252
2.41514
2.48741
2.58676
2.59675
2.69946
2.75178
2.80924
2.92843
3.23662
4.07493
7.01834
13.6906
20.6087
23.4745
24.6914
25.924
28.2879
31.0749
29.7152
23.4189
14.8723
8.44026
2.32054
2.35826
2.44818
2.57323
2.59995
2.6627
2.71312
2.77364
2.89286
3.1742
3.9943
7.18904
13.5978
19.3678
20.8226
21.6641
23.5742
26.0305
25.6759
21.0708
14.3455
8.07648
5.61546
2.28544
2.33937
2.43588
2.53631
2.56795
2.6135
2.66039
2.72446
2.84244
3.11232
3.90644
7.47794
13.4975
17.5749
18.1322
19.4129
21.4195
22.1023
19.0833
14.0178
8.3515
5.32322
4.34767
2.24971
2.34508
2.40615
2.4951
2.5302
2.56932
2.61222
2.67744
2.78868
3.03578
3.93109
8.04687
13.5578
15.5934
15.9457
17.6056
18.8324
17.1604
13.617
8.94404
5.24917
4.09509
3.69007
2.20198
2.3098
2.35876
2.43309
2.46926
2.50666
2.54451
2.60864
2.71878
2.97206
4.02864
8.59186
12.6628
13.4019
14.3277
15.6214
15.2757
12.9148
9.52792
5.43664
3.89547
3.42903
3.25847
2.16059
2.26919
2.31553
2.37646
2.41121
2.45138
2.48534
2.54576
2.64564
2.8965
4.14506
8.47832
11.3704
11.6184
12.7966
13.3653
11.9826
9.62174
6.16028
3.83018
3.25179
3.06975
2.99683
2.10259
2.2037
2.24908
2.29616
2.3262
2.36816
2.39781
2.45567
2.55857
2.82382
4.39768
8.23454
9.96854
10.3267
11.2331
10.8917
9.29155
6.84934
3.93328
3.0788
2.86654
2.79266
2.76007
2.05414
2.15068
2.19233
2.23019
2.25468
2.30005
2.32677
2.37776
2.46972
2.82905
4.87652
7.97685
8.67134
9.26754
9.61348
8.73998
7.17472
4.52664
3.03861
2.73496
2.65863
2.629
2.61228
1.98085
2.06949
2.10193
2.13052
2.14864
2.19203
2.21509
2.2666
2.37588
2.88112
5.23065
7.22444
7.5228
8.08234
7.97106
6.95607
5.12539
3.07583
2.57518
2.47563
2.44648
2.43343
2.42242
1.92715
2.0099
2.03388
2.05851
2.07213
2.11549
2.13581
2.17601
2.29409
2.99745
5.24148
6.42586
6.77123
7.06909
6.60577
5.47916
3.36437
2.52626
2.36757
2.33492
2.3231
2.31572
2.30838
1.83909
1.90122
1.91663
1.93444
1.94331
1.9789
1.99588
2.05035
2.22349
3.21411
5.06217
5.50228
5.82569
5.83246
5.23691
3.80008
2.45027
2.18344
2.13926
2.12847
2.12334
2.1182
2.11427
1.78268
1.8383
1.84845
1.86431
1.87126
1.90439
1.91945
1.95218
2.22471
3.45362
4.64051
5.11681
5.31963
5.15495
4.18323
2.61706
2.14209
2.05993
2.04112
2.03466
2.0308
2.02665
2.02377
1.65516
1.67626
1.67979
1.68469
1.68753
1.71038
1.72675
1.83853
2.33442
3.3516
3.87898
4.04963
4.02153
3.39271
2.39362
1.89859
1.79462
1.78024
1.77897
1.77818
1.77594
1.77399
1.77233
3.09919
2.79124
2.59608
2.48057
2.39245
2.34296
2.30273
2.2799
2.25728
2.24454
2.23599
2.23941
2.25156
2.27856
2.3291
2.41347
2.55155
2.68553
2.89023
3.03205
3.24437
3.36947
3.54832
3.10773
2.79869
2.60226
2.4868
2.39953
2.34869
2.30686
2.28228
2.25915
2.24598
2.23721
2.2405
2.25206
2.27826
2.32874
2.41178
2.54829
2.68462
2.89175
3.03085
3.23658
3.3583
3.53634
3.11805
2.81811
2.62119
2.50166
2.41091
2.36074
2.31557
2.28818
2.26315
2.24908
2.23913
2.24189
2.25266
2.27751
2.32706
2.40482
2.54039
2.6736
2.87524
3.02017
3.23998
3.36715
3.54841
3.13
2.82839
2.62769
2.50724
2.42049
2.36635
2.319
2.29053
2.26467
2.25058
2.24005
2.24252
2.25313
2.27485
2.32693
2.39767
2.53907
2.66778
2.86342
2.99937
3.21016
3.33943
3.53591
3.13838
2.84269
2.64578
2.52846
2.4345
2.37603
2.32509
2.29549
2.26759
2.25413
2.2415
2.24322
2.25319
2.27335
2.32885
2.39932
2.52924
2.6574
2.85738
3.00024
3.21813
3.3456
3.53148
3.1468
2.85392
2.65743
2.53365
2.43699
2.37728
2.32566
2.29596
2.2677
2.25448
2.24153
2.24237
2.2536
2.2725
2.33348
2.39801
2.52243
2.64583
2.84156
2.98294
3.20255
3.33582
3.53289
3.15026
2.85957
2.66265
2.5384
2.44251
2.38288
2.33175
2.30143
2.2732
2.25923
2.24574
2.24734
2.25724
2.27397
2.33564
2.40044
2.52787
2.65185
2.84424
2.98342
3.19838
3.32988
3.52871
3.14771
2.85156
2.65526
2.53211
2.43831
2.3799
2.33007
2.30039
2.27263
2.25875
2.24566
2.24725
2.25753
2.27454
2.33695
2.40542
2.53486
2.6689
2.86913
3.02338
3.24817
3.38737
3.58397
2.96805
2.63356
2.46339
2.37504
2.30967
2.27652
2.24641
2.2365
2.22311
2.21961
2.22046
2.22903
2.2531
2.29967
2.38309
2.52138
2.735
2.95722
3.31264
3.57173
3.96879
4.224
4.60416
2.97846
2.64031
2.46766
2.37876
2.31344
2.27991
2.24923
2.23865
2.22498
2.22127
2.22156
2.22984
2.2532
2.29882
2.37907
2.51165
2.71732
2.93166
3.2662
3.51145
3.89064
4.13255
4.49176
2.97932
2.64563
2.47421
2.38414
2.31727
2.28276
2.25165
2.24077
2.22666
2.22283
2.22225
2.23022
2.25312
2.29631
2.37275
2.499
2.69976
2.89431
3.20873
3.44676
3.81434
4.04362
4.38303
2.9903
2.65376
2.47912
2.38805
2.32119
2.28615
2.25456
2.24307
2.22845
2.22448
2.22335
2.23085
2.25281
2.29525
2.36925
2.49077
2.68149
2.87229
3.16918
3.39034
3.73646
3.95221
4.27711
2.99249
2.65988
2.48677
2.39447
2.32583
2.28965
2.25733
2.2453
2.23039
2.2261
2.22423
2.23152
2.25266
2.29312
2.36377
2.47962
2.66459
2.83888
3.11481
3.32785
3.66262
3.86745
4.17839
3.00453
2.66975
2.49244
2.39866
2.32975
2.29292
2.26029
2.24779
2.23212
2.22775
2.22537
2.23213
2.25206
2.29161
2.3609
2.47313
2.6482
2.81924
3.08491
3.28271
3.59352
3.78626
4.08081
3.0079
2.67671
2.50136
2.40636
2.33542
2.29734
2.26356
2.25025
2.23433
2.22935
2.2263
2.23277
2.25194
2.28963
2.35646
2.46376
2.63266
2.79104
3.03795
3.22652
3.52539
3.70875
3.9855
3.02126
2.68876
2.50801
2.41108
2.3393
2.30057
2.2666
2.25294
2.23611
2.23109
2.22757
2.2336
2.25192
2.28898
2.35489
2.45981
2.62127
2.77593
3.01598
3.19358
3.4712
3.642
3.90001
3.02558
2.69644
2.51819
2.41997
2.34607
2.30598
2.27044
2.25568
2.23866
2.23272
2.22857
2.23435
2.25185
2.2878
2.35168
2.45239
2.60875
2.75493
2.98095
3.14936
3.41455
3.57923
3.82394
3.04036
2.71112
2.5262
2.42552
2.35014
2.3094
2.27364
2.25857
2.24059
2.23451
2.22987
2.23522
2.25177
2.2867
2.34831
2.4466
2.60116
2.74459
2.96412
3.12481
3.37517
3.5283
3.75638
3.04525
2.71919
2.53745
2.43531
2.35802
2.31558
2.27806
2.26163
2.24356
2.23623
2.23087
2.23597
2.25173
2.28565
2.34464
2.43923
2.59171
2.73058
2.94106
3.09458
3.33446
3.48298
3.70127
3.06096
2.73685
2.54715
2.44194
2.36271
2.31944
2.28158
2.26483
2.24574
2.23795
2.23215
2.2369
2.25173
2.28375
2.34129
2.4347
2.58638
2.72442
2.93044
3.07836
3.30814
3.44819
3.65287
3.06643
2.74451
2.55892
2.45219
2.37155
2.32579
2.28652
2.26827
2.24905
2.23985
2.23312
2.23757
2.25179
2.28248
2.33789
2.42897
2.5788
2.71403
2.91504
3.05876
3.28176
3.41694
3.61519
3.08166
2.76456
2.57064
2.46019
2.37706
2.33034
2.29084
2.27191
2.25148
2.24136
2.23424
2.2384
2.25172
2.28134
2.33534
2.42484
2.57101
2.70596
2.907
3.04848
3.26491
3.39619
3.58492
3.08765
2.77212
2.58157
2.47019
2.38605
2.33626
2.29612
2.27556
2.25462
2.24327
2.2352
2.2389
2.25184
2.28041
2.33294
2.41976
2.55992
2.69444
2.89872
3.04026
3.25402
3.38068
3.56423
2.89947
2.56334
2.40735
2.32624
2.2711
2.24035
2.2164
2.20702
2.19773
2.19711
2.20481
2.22616
2.27217
2.35338
2.49533
2.71899
3.02189
3.50952
3.94949
4.55594
4.91308
5.49792
5.83682
2.90223
2.56541
2.40902
2.32761
2.27225
2.24162
2.21746
2.20799
2.19884
2.19803
2.20575
2.22656
2.27184
2.35556
2.49411
2.71529
3.02153
3.49887
3.93292
4.52119
4.88598
5.48383
5.79419
2.90301
2.56739
2.4106
2.3291
2.27332
2.24289
2.21864
2.20893
2.19987
2.19886
2.20628
2.22684
2.27181
2.35326
2.49105
2.71012
3.02005
3.48709
3.93497
4.50094
4.87086
5.44856
5.76854
2.90576
2.56958
2.41221
2.33081
2.27458
2.2442
2.21984
2.20991
2.20096
2.19973
2.20704
2.22724
2.27268
2.35225
2.48992
2.70805
3.01841
3.47562
3.93512
4.4822
4.85776
5.44015
5.74041
2.90652
2.57173
2.41393
2.33208
2.27572
2.24537
2.22093
2.21085
2.20195
2.20061
2.20774
2.22748
2.27108
2.35047
2.48685
2.70179
3.01776
3.46199
3.91444
4.46286
4.8412
5.42052
5.72444
2.90948
2.57405
2.41556
2.33395
2.27713
2.2468
2.22224
2.21183
2.20299
2.20144
2.20833
2.22778
2.27024
2.349
2.48473
2.69864
3.01574
3.44672
3.91657
4.44023
4.8321
5.40638
5.70309
2.91036
2.57632
2.41736
2.33521
2.27837
2.24784
2.22326
2.21281
2.20395
2.20235
2.2091
2.22803
2.26904
2.34695
2.48166
2.69261
3.01508
3.42748
3.91202
4.41177
4.81838
5.38166
5.68925
2.91354
2.5787
2.41917
2.33705
2.27994
2.24935
2.22457
2.21378
2.2049
2.20315
2.20961
2.22838
2.26828
2.3452
2.47849
2.68827
3.01168
3.41292
3.90656
4.38585
4.81306
5.35811
5.66764
2.91457
2.58109
2.42101
2.33845
2.28126
2.25037
2.22558
2.21482
2.20585
2.20407
2.21037
2.22827
2.26691
2.34294
2.47523
2.68266
3.00949
3.39134
3.8985
4.3492
4.79978
5.32766
5.65231
2.918
2.58347
2.42305
2.34021
2.28299
2.25188
2.22678
2.21583
2.20669
2.20485
2.21087
2.22863
2.26646
2.34106
2.47124
2.67707
3.00318
3.3775
3.88888
4.31948
4.79503
5.29791
5.63149
2.9192
2.58595
2.42497
2.34179
2.28434
2.25297
2.22783
2.21692
2.20767
2.20576
2.21158
2.22838
2.26546
2.33878
2.46753
2.67115
2.99737
3.3594
3.87204
4.28162
4.78012
5.26068
5.61011
2.92289
2.5884
2.42718
2.34356
2.28619
2.25447
2.22888
2.21803
2.20847
2.20654