/*--------------------------------*- C++ -*----------------------------------*\
  =========                 |
  \\      /  F ield         | OpenFOAM: The Open Source CFD Toolbox
   \\    /   O peration     | Website:  https://openfoam.org
    \\  /    A nd           | Version:  7
     \\/     M anipulation  |
\*---------------------------------------------------------------------------*/
FoamFile
{
    version     2.0;
    format      ascii;
    class       volScalarField;
    location    "134";
    object      p;
}
// * * * * * * * * * * * * * * * * * * * * * * * * * * * * * * * * * * * * * //

dimensions      [0 2 -2 0 0 0 0];

internalField   nonuniform List<scalar> 
12842
(
1.00867
1.07321
1.11601
1.18753
1.28787
1.40707
1.54287
1.70315
1.90788
2.18962
2.58983
3.14986
3.89976
4.84819
5.9753
7.23542
8.56796
9.91047
11.2091
12.4237
13.5296
14.5105
15.3692
0.806234
0.868829
0.881657
0.904222
0.929026
0.938215
0.922546
0.883886
0.841034
0.831333
0.907029
1.12438
1.52993
2.14672
2.96587
3.9511
5.05175
6.21606
7.39903
8.56271
9.67798
10.7094
11.654
0.648431
0.69735
0.684472
0.663389
0.619659
0.52768
0.370719
0.144745
-0.131084
-0.413649
-0.638944
-0.736377
-0.645336
-0.333044
0.196578
0.910972
1.76621
2.72128
3.74291
4.79868
5.85951
6.8726
7.83768
0.52303
0.556741
0.519628
0.457934
0.351777
0.165829
-0.124624
-0.529579
-1.02784
-1.56987
-2.07863
-2.46959
-2.66993
-2.64143
-2.38875
-1.94591
-1.35248
-0.637609
0.180764
1.07883
2.03156
2.96916
3.90145
0.420291
0.444439
0.381539
0.282862
0.12128
-0.151554
-0.56757
-1.14328
-1.8538
-2.64343
-3.42068
-4.08813
-4.56236
-4.80378
-4.82264
-4.65878
-4.3486
-3.9073
-3.3335
-2.63961
-1.8432
-1.03008
-0.173694
0.335034
0.356556
0.264956
0.135583
-0.0730363
-0.424629
-0.955834
-1.6912
-2.6005
-3.62334
-4.65267
-5.58038
-6.31391
-6.81616
-7.10658
-7.23402
-7.23194
-7.09938
-6.81169
-6.36753
-5.77303
-5.12936
-4.38648
0.264297
0.288131
0.165766
0.0146955
-0.231812
-0.652785
-1.28578
-2.1663
-3.257
-4.4951
-5.75725
-6.92793
-7.90673
-8.66247
-9.22606
-9.65814
-9.98946
-10.2016
-10.2427
-10.0959
-9.75042
-9.32315
-8.73052
0.206359
0.234052
0.0809846
-0.0818621
-0.357824
-0.837798
-1.55642
-2.56435
-3.8156
-5.24863
-6.72415
-8.12336
-9.33807
-10.3445
-11.1844
-11.9319
-12.6159
-13.2021
-13.6089
-13.8046
-13.753
-13.5933
-13.1855
0.154029
0.18994
0.0118381
-0.150032
-0.444314
-0.966791
-1.74659
-2.85098
-4.22408
-5.80523
-7.44181
-9.01433
-10.4096
-11.6132
-12.6781
-13.6942
-14.6908
-15.6212
-16.3734
-16.9055
-17.1408
-17.2685
-17.0407
0.1056
0.149588
-0.0491481
-0.203324
-0.512686
-1.06875
-1.89737
-3.07894
-4.54955
-6.24488
-8.00377
-9.70466
-11.2329
-12.5839
-13.822
-15.0538
-16.311
-17.5385
-18.5991
-19.4409
-19.9531
-20.3453
-20.328
0.0675948
0.113873
-0.100335
-0.245616
-0.572168
-1.15908
-2.03449
-3.28854
-4.85254
-6.65505
-8.53149
-10.3564
-12.0162
-13.5143
-14.9264
-16.3751
-17.8967
-19.432
-20.8213
-22.0041
-22.8342
-23.5333
-23.7763
0.0385289
0.0815513
-0.140224
-0.277336
-0.622355
-1.236
-2.15575
-3.4767
-5.12963
-7.03315
-9.02478
-10.9734
-12.7684
-14.4181
-16.0078
-17.6757
-19.4652
-21.3179
-23.0556
-24.6109
-25.7994
-26.8515
-27.3947
0.0154613
0.0513861
-0.169185
-0.30087
-0.664197
-1.29991
-2.26145
-3.64369
-5.38137
-7.38121
-9.48773
-11.5624
-13.4985
-15.3056
-17.0765
-18.9642
-21.0229
-23.2014
-25.3073
-27.267
-28.8539
-30.3052
-31.1915
-0.0040851
0.023426
-0.188291
-0.318923
-0.699026
-1.35266
-2.3537
-3.79227
-5.61136
-7.70461
-9.92746
-12.1323
-14.2165
-16.1863
-18.1398
-20.2444
-22.5701
-25.0791
-27.5706
-29.9637
-31.9881
-33.881
-35.1601
-0.0222255
-0.00113067
-0.199108
-0.333512
-0.727687
-1.39609
-2.43443
-3.92526
-5.82294
-8.00797
-10.3493
-12.6889
-14.9277
-17.0639
-19.1986
-21.5131
-24.0989
-26.9387
-29.8314
-32.6844
-35.1921
-37.5631
-39.2978
-0.040676
-0.0209946
-0.203781
-0.345944
-0.750677
-1.43163
-2.50489
-4.04465
-6.01845
-8.29445
-10.7565
-13.2353
-15.6337
-17.9383
-20.2491
-22.7618
-25.5957
-28.7609
-32.0668
-35.4023
-38.4426
-41.3244
-43.5841
-0.06012
-0.0353722
-0.204657
-0.357006
-0.768594
-1.4605
-2.56598
-4.15173
-6.19928
-8.56571
-11.1502
-13.772
-16.3342
-18.8073
-21.2872
-23.9828
-27.0477
-30.5268
-34.2491
-38.0809
-41.6907
-45.1139
-47.9524
-0.0806402
-0.0440421
-0.20384
-0.366912
-0.781993
-1.48353
-2.61831
-4.24731
-6.36616
-8.82217
-11.5303
-14.2977
-17.0269
-19.6679
-22.3081
-25.1682
-28.4403
-32.2105
-36.3368
-40.6622
-44.8544
-48.8432
-52.2934
-0.10165
-0.0473561
-0.202956
-0.375609
-0.79154
-1.50141
-2.66249
-4.33201
-6.51945
-9.06352
-11.8955
-14.8104
-17.709
-20.5173
-23.3084
-26.3106
-29.7565
-33.7788
-38.272
-43.0613
-47.8156
-52.3762
-56.4498
-0.122361
-0.0461403
-0.203044
-0.382893
-0.797752
-1.5146
-2.69906
-4.40641
-6.65965
-9.28988
-12.2453
-15.309
-18.3799
-21.3554
-24.2874
-27.4046
-30.9781
-35.1902
-39.9787
-45.1619
-50.4127
-55.5144
-60.1926
-0.141702
-0.0416676
-0.204621
-0.388828
-0.801424
-1.52382
-2.7287
-4.47099
-6.78681
-9.50075
-12.5789
-15.7925
-19.0393
-22.1833
-25.2464
-28.446
-32.0842
-36.393
-41.3592
-46.8083
-52.4269
-57.9746
-63.1814
-0.159205
-0.0350403
-0.207699
-0.39303
-0.802343
-1.52892
-2.75181
-4.52682
-6.90272
-9.69819
-12.8982
-16.2629
-19.6896
-23.0042
-26.1873
-29.4288
-33.0496
-37.3267
-42.299
-47.8166
-53.5957
-59.3984
-64.9549
-0.173353
-0.027865
-0.212064
-0.39634
-0.802044
-1.53124
-2.76888
-4.57317
-7.00554
-9.87997
-13.2014
-16.7199
-20.3337
-23.8251
-27.1197
-30.3577
-33.8588
-37.9357
-42.6808
-47.9882
-53.628
-59.3812
-64.968
-0.184054
-0.0203263
-0.215955
-0.394676
-0.796365
-1.52852
-2.78103
-4.61401
-7.09831
-10.043
-13.4725
-17.1304
-20.9202
-24.5826
-27.9793
-31.1759
-34.461
-38.1619
-42.4148
-47.1742
-52.3018
-57.6014
-62.7212
-0.198742
-0.0172596
-0.221627
-0.392837
-0.791522
-1.52767
-2.79474
-4.65457
-7.1837
-10.1887
-13.7108
-17.4931
-21.4467
-25.2749
-28.7665
-31.8864
-34.8535
-37.9781
-41.4242
-45.227
-49.3944
-53.7686
-57.9232
-0.20708
-0.0134649
-0.225331
-0.389398
-0.787753
-1.53179
-2.81779
-4.7099
-7.28709
-10.3552
-13.9694
-17.8751
-21.9913
-25.9842
-29.5598
-32.5583
-35.0969
-37.445
-39.7963
-42.3238
-45.2243
-48.3573
-51.2609
-0.208537
-0.00896141
-0.2264
-0.384526
-0.785226
-1.54004
-2.84694
-4.7728
-7.39655
-10.5254
-14.2268
-18.2524
-22.5299
-26.6905
-30.3498
-33.2031
-35.2388
-36.6646
-37.7267
-38.8182
-40.3123
-42.0367
-43.5799
-0.206758
-0.00511511
-0.226003
-0.379531
-0.784442
-1.55134
-2.87901
-4.83689
-7.50281
-10.6867
-14.469
-18.6102
-23.05
-27.3869
-31.1421
-33.8533
-35.3594
-35.7904
-35.4841
-35.1098
-35.1659
-35.4636
-35.6821
-0.203928
-0.0025456
-0.225079
-0.375751
-0.78632
-1.5657
-2.91307
-4.89993
-7.60327
-10.8362
-14.6942
-18.9483
-23.5542
-28.0818
-31.959
-34.5612
-35.5639
-35.0109
-33.3569
-31.5366
-30.1862
-29.1692
-28.1732
-0.200924
-0.00109667
-0.224081
-0.373877
-0.791194
-1.58294
-2.94868
-4.96132
-7.69816
-10.9752
-14.9057
-19.2717
-24.0496
-28.7869
-32.8255
-35.384
-35.967
-34.5281
-31.6121
-28.3814
-25.7447
-23.6252
-21.5585
-0.198463
-0.000481709
-0.223277
-0.374049
-0.798663
-1.60215
-2.98469
-5.01994
-7.78707
-11.1044
-15.105
-19.5824
-24.5385
-29.5078
-33.7599
-36.3727
-36.6812
-34.5339
-30.4893
-25.9609
-22.2967
-19.325
-16.3439
-0.197239
-0.000462215
-0.222853
-0.375983
-0.807774
-1.62192
-3.01944
-5.07434
-7.86905
-11.2236
-15.2924
-19.8807
-25.0205
-30.2464
-34.7757
-37.5745
-37.8161
-35.2027
-30.2312
-24.6865
-20.3503
-16.738
-12.9631
-0.197603
-0.000749725
-0.222813
-0.379114
-0.817406
-1.64084
-3.05146
-5.12338
-7.9435
-11.3329
-15.4677
-20.1654
-25.4931
-31.0015
-35.8811
-39.0297
-39.4702
-36.6905
-31.1184
-25.0339
-20.3855
-16.2667
-11.8334
-0.199445
-0.000976263
-0.222996
-0.382711
-0.826464
-1.65777
-3.07979
-5.16671
-8.0106
-11.433
-15.6313
-20.4361
-25.9541
-31.771
-37.0815
-40.7729
-41.7289
-39.1568
-33.496
-27.5071
-22.904
-18.4588
-13.6176
-0.202384
-0.000803432
-0.223174
-0.386102
-0.834158
-1.67207
-3.10414
-5.20463
-8.07118
-11.5249
-15.7837
-20.6921
-26.4005
-32.5506
-38.377
-42.8257
-44.6584
-42.7781
-37.7606
-32.6197
-28.4943
-24.075
-19.2405
-0.205943
-1.43917e-05
-0.223179
-0.388794
-0.840068
-1.68361
-3.1248
-5.23806
-8.12656
-11.6103
-15.9261
-20.9331
-26.8294
-33.3351
-39.7633
-45.1961
-48.3065
-47.7391
-44.2672
-40.7435
-37.6046
-33.7278
-29.3594
-0.209718
0.00144325
-0.222938
-0.390565
-0.844206
-1.69275
-3.14259
-5.26831
-8.1783
-11.6905
-16.0591
-21.1585
-27.237
-34.1166
-41.2276
-47.871
-52.6911
-54.1714
-53.1553
-51.834
-50.0588
-47.1112
-43.4793
-0.21338
0.0034964
-0.222465
-0.391393
-0.846847
-1.70012
-3.15853
-5.29675
-8.22784
-11.767
-16.1834
-21.3678
-27.6195
-34.8853
-42.7491
-50.8143
-57.7876
-62.0746
-64.21
-65.3275
-64.9893
-62.9969
-60.0341
-0.216725
0.00598987
-0.22181
-0.391403
-0.84843
-1.70643
-3.17359
-5.32453
-8.27626
-11.8403
-16.2989
-21.5593
-27.9713
-35.6275
-44.2953
-53.9614
-63.5111
-71.2651
-76.9053
-80.3485
-81.2613
-79.9859
-77.4391
-0.219611
0.00875699
-0.221016
-0.390756
-0.849362
-1.7123
-3.18848
-5.35235
-8.32396
-11.9106
-16.405
-21.7314
-28.2867
-36.3273
-45.8235
-57.2212
-69.7088
-81.3806
-90.5312
-95.9919
-97.9211
-97.1936
-94.9243
-0.221978
0.0116482
-0.220093
-0.389622
-0.849995
-1.71813
-3.2036
-5.3804
-8.37082
-11.9772
-16.5005
-21.8814
-28.5584
-36.9649
-47.2803
-60.4757
-76.1577
-91.9336
-104.327
-111.407
-114.074
-113.738
-111.739
-0.223786
0.0145664
-0.219022
-0.388135
-0.850549
-1.72415
-3.21903
-5.4085
-8.41627
-12.0393
-16.5838
-22.0069
-28.7796
-37.5192
-48.6054
-63.5873
-82.5776
-102.387
-117.582
-125.899
-129.083
-129.044
-127.309
-0.225061
0.0174497
-0.217776
-0.386418
-0.85118
-1.73044
-3.23468
-5.43625
-8.45958
-12.0957
-16.6536
-22.1056
-28.9432
-37.9675
-49.7338
-66.4022
-88.6446
-112.201
-129.679
-138.917
-142.476
-142.707
-141.245
-0.225842
0.0202759
-0.216338
-0.384576
-0.851958
-1.73696
-3.25033
-5.46321
-8.50008
-12.1457
-16.709
-22.1758
-29.0431
-38.2875
-50.6007
-68.7604
-94.0176
-120.88
-140.136
-150.014
-153.782
-154.188
-152.888
-0.226238
0.0230277
-0.214721
-0.382709
-0.852928
-1.74368
-3.26577
-5.48897
-8.53727
-12.1889
-16.7492
-22.2163
-29.0737
-38.4575
-51.1428
-70.5022
-98.3678
-128.005
-148.623
-158.995
-162.929
-163.446
-162.201
-0.226349
0.025714
-0.212951
-0.380891
-0.854081
-1.75047
-3.28077
-5.51323
-8.57083
-12.225
-16.7742
-22.2265
-29.0305
-38.4587
-51.302
-71.4771
-101.407
-133.223
-154.84
-165.571
-169.619
-170.2
-168.938
-0.226327
0.0283178
-0.21108
-0.379166
-0.855378
-1.75724
-3.29519
-5.53586
-8.60081
-12.2543
-16.7845
-22.2068
-28.9108
-38.2777
-51.0286
-71.5562
-102.901
-136.265
-158.656
-169.569
-173.54
-174.073
-172.75
-0.226195
0.0309306
-0.209083
-0.377499
-0.856709
-1.76384
-3.3089
-5.55687
-8.62742
-12.2775
-16.7811
-22.1585
-28.7141
-37.9065
-50.2881
-70.65
-102.653
-136.979
-160.049
-171.009
-174.793
-175.119
-173.641
-0.225988
0.0334283
-0.206974
-0.375782
-0.857877
-1.77017
-3.32218
-5.57744
-8.65342
-12.3001
-16.7738
-22.0996
-28.4721
-37.3987
-49.1633
-68.8683
-100.748
-135.701
-159.505
-170.334
-173.598
-173.522
-171.917
-0.227478
0.0352022
-0.205341
-0.374091
-0.858803
-1.7764
-3.33631
-5.60116
-8.68644
-12.3371
-16.7902
-22.081
-28.2818
-36.9331
-47.9834
-66.7614
-97.9232
-133.439
-158.106
-168.464
-170.875
-170.238
-168.415
-0.228415
0.0376059
-0.202949
-0.371382
-0.85874
-1.78243
-3.35256
-5.63154
-8.73318
-12.3999
-16.8499
-22.1372
-28.2144
-36.6587
-47.063
-64.9484
-95.1109
-131.02
-156.272
-165.811
-167.303
-166.058
-163.959
-0.228667
0.0407626
-0.199586
-0.367389
-0.857563
-1.78854
-3.37186
-5.67023
-8.79578
-12.4902
-16.9539
-22.2681
-28.2768
-36.6109
-46.5065
-63.7014
-92.8187
-128.778
-153.993
-162.602
-163.2
-161.32
-158.882
-0.228624
0.0443638
-0.195463
-0.362327
-0.855662
-1.79537
-3.39512
-5.71794
-8.87399
-12.6048
-17.0954
-22.4585
-28.4489
-36.7707
-46.325
-63.1013
-91.2346
-126.81
-151.404
-159.097
-158.844
-156.363
-153.525
-0.228333
0.048263
-0.190702
-0.356456
-0.85352
-1.80369
-3.42322
-5.77514
-8.96709
-12.7397
-17.2659
-22.6902
-28.7016
-37.0913
-46.4727
-63.0662
-90.2769
-125.076
-148.688
-155.431
-154.381
-151.39
-148.146
-0.227714
0.0523786
-0.185471
-0.350153
-0.851692
-1.81399
-3.45612
-5.8403
-9.07104
-12.8863
-17.4508
-22.9368
-28.9924
-37.4987
-46.855
-63.4012
-89.7408
-123.497
-145.929
-151.665
-149.911
-146.537
-142.957
-0.226701
0.0566252
-0.179886
-0.343701
-0.8506
-1.8268
-3.49425
-5.91342
-9.1849
-13.0417
-17.6444
-23.1862
-29.3017
-37.9546
-47.4209
-63.9904
-89.5471
-122.075
-143.096
-147.723
-145.364
-141.717
-137.94
-0.225516
0.0609264
-0.174228
-0.337415
-0.850534
-1.84212
-3.53687
-5.99251
-9.30488
-13.1998
-17.8362
-23.4218
-29.5999
-38.3962
-48.0149
-64.5122
-89.141
-120.004
-139.253
-142.761
-139.988
-136.216
-132.394
-0.223454
0.0657756
-0.167681
-0.330544
-0.850428
-1.85809
-3.58033
-6.07073
-9.41914
-13.3414
-17.9957
-23.5969
-29.8117
-38.709
-48.4655
-64.8249
-88.5365
-117.507
-134.903
-137.481
-134.476
-130.68
-126.92
-0.22146
0.070184
-0.16175
-0.324882
-0.852346
-1.87676
-3.62623
-6.14884
-9.52737
-13.4657
-18.1211
-23.7093
-29.9241
-38.8563
-48.6905
-64.797
-87.4487
-114.331
-129.883
-131.744
-128.665
-124.947
-121.304
-0.219672
0.0739929
-0.156729
-0.320773
-0.856494
-1.89798
-3.67397
-6.22614
-9.62931
-13.5745
-18.217
-23.7697
-29.9468
-38.8449
-48.6865
-64.4274
-85.8366
-110.528
-124.209
-125.422
-122.32
-118.705
-115.185
-0.217943
0.0774571
-0.1523
-0.317701
-0.861965
-1.9203
-3.72136
-6.29997
-9.72232
-13.6668
-18.2843
-23.784
-29.888
-38.6912
-48.4704
-63.749
-83.8027
-106.272
-118.063
-118.647
-115.523
-112.014
-108.611
-0.216225
0.0807424
-0.148259
-0.315281
-0.868026
-1.94251
-3.76675
-6.3685
-9.80506
-13.7428
-18.326
-23.7614
-29.7617
-38.4233
-48.068
-62.7977
-81.4584
-101.703
-111.628
-111.608
-108.455
-105.055
-101.777
-0.214607
0.0838731
-0.144556
-0.313283
-0.874225
-1.96394
-3.80936
-6.43137
-9.87831
-13.8059
-18.3493
-23.7155
-29.5893
-38.0783
-47.5143
-61.614
-78.875
-96.9082
-105.035
-104.447
-101.254
-97.9492
-94.7836
-0.213118
0.0869132
-0.141084
-0.311486
-0.880203
-1.98414
-3.84894
-6.48896
-9.94384
-13.8602
-18.3622
-23.6604
-29.3932
-37.6945
-46.8565
-60.2531
-76.1063
-91.9521
-98.3734
-97.2613
-94.0019
-90.7762
-87.6767
-0.211758
0.0899278
-0.137707
-0.309624
-0.885613
-2.00283
-3.8855
-6.542
-10.0037
-13.9095
-18.3714
-23.6072
-29.1928
-37.3052
-46.148
-58.7797
-73.2063
-86.8925
-91.7186
-90.1195
-86.751
-83.5713
-80.5216
-0.21047
0.0930025
-0.134274
-0.30751
-0.890267
-2.01992
-3.91936
-6.59143
-10.0597
-13.9569
-18.3817
-23.5623
-29.0015
-36.9315
-45.4319
-57.2467
-70.2191
-81.7732
-85.1301
-83.077
-79.5445
-76.3348
-73.3432
-0.20924
0.0961533
-0.130726
-0.305045
-0.894122
-2.03557
-3.95105
-6.63835
-10.1138
-14.0046
-18.3958
-23.5284
-28.827
-36.5809
-44.7298
-55.6795
-67.1679
-76.6366
-78.6535
-76.1778
-72.4411
-69.1174
-66.136
-0.208027
0.0993986
-0.127028
-0.30225
-0.897307
-2.05012
-3.98124
-6.68376
-10.1671
-14.0537
-18.4144
-23.5041
-28.6699
-36.2472
-44.04
-54.0751
-64.0565
-71.52
-72.3226
-69.4399
-65.5012
-62.0277
-59.0279
-0.206831
0.102704
-0.123213
-0.299177
-0.89999
-2.06393
-4.01054
-6.72843
-10.2204
-14.1041
-18.4364
-23.4856
-28.5251
-35.9157
-43.3434
-52.4098
-60.8835
-66.4432
-66.165
-62.871
-58.752
-55.13
-52.1312
-0.205617
0.106066
-0.119296
-0.295936
-0.902393
-2.07735
-4.0394
-6.77275
-10.2737
-14.1549
-18.4592
-23.4664
-28.3822
-35.5658
-42.6097
-50.6516
-57.6538
-61.4297
-60.2077
-56.5039
-52.2103
-48.4551
-45.4291
-0.204388
0.109439
-0.115339
-0.292614
-0.904684
-2.09063
-4.06809
-6.81677
-10.3264
-14.2043
-18.4791
-23.4395
-28.2287
-35.1751
-41.8084
-48.7765
-54.3796
-56.5213
-54.4829
-50.4017
-45.9385
-42.0743
-38.9662
-0.203116
0.112817
-0.111363
-0.28932
-0.907031
-2.10395
-4.09667
-6.86024
-10.3778
-14.2502
-18.4922
-23.3971
-28.0508
-34.7224
-40.914
-46.7699
-51.0723
-51.7597
-49.014
-44.6105
-40.018
-36.1121
-32.9327
-0.201817
0.116157
-0.107427
-0.286117
-0.909514
-2.11736
-4.12504
-6.90269
-10.4266
-14.2905
-18.4947
-23.3326
-27.8368
-34.1909
-39.9106
-44.629
-47.7432
-47.1751
-43.8094
-39.1464
-34.4649
-30.5835
-27.4359
-0.200468
0.119461
-0.103545
-0.283083
-0.912206
-2.13084
-4.15299
-6.94355
-10.4718
-14.3233
-18.4835
-23.2406
-27.5777
-33.5703
-38.7922
-42.3669
-44.4073
-42.7859
-38.8767
-34.0056
-29.2657
-25.4133
-22.3654
-0.199101
0.12269
-0.0997649
-0.280237
-0.915095
-2.14431
-4.18023
-6.98225
-10.5124
-14.3471
-18.4562
-23.1181
-27.2688
-32.858
-37.5655
-40.02
-41.1002
-38.6059
-34.2325
-29.2117
-24.4713
-20.6643
-17.7087
-0.197701
0.125856
-0.0960877
-0.277622
-0.918181
-2.15766
-4.20647
-7.01824
-10.5474
-14.3608
-18.4117
-22.964
-26.9092
-32.0589
-36.2457
-37.6452
-37.8761
-34.6507
-29.8882
-24.7927
-20.1465
-16.4459
-13.5645
-0.196307
0.128929
-0.0925492
-0.275216
-0.921391
-2.17072
-4.23141
-7.05109
-10.5765
-14.3641
-18.3496
-22.7789
-26.5013
-31.1836
-34.8564
-35.3128
-34.7867
-30.9337
-25.8568
-20.7487
-16.2628
-12.7092
-9.91946
-0.194905
0.131933
-0.0891316
-0.273027
-0.924685
-2.18337
-4.25482
-7.08048
-10.5992
-14.3565
-18.2702
-22.5645
-26.0495
-30.2445
-33.4209
-33.0821
-31.8478
-27.4581
-22.1623
-17.085
-12.748
-9.32483
-6.64751
-0.193529
0.134848
-0.0858508
-0.271
-0.927963
-2.19547
-4.27649
-7.10618
-10.6154
-14.3384
-18.1742
-22.3232
-25.56
-29.2557
-31.9546
-30.9698
-29.0388
-24.2134
-18.8118
-13.8181
-9.6213
-6.33909
-3.80548
-0.192155
0.137712
-0.0826693
-0.269121
-0.931181
-2.20691
-4.29628
-7.12806
-10.6249
-14.3098
-18.0622
-22.0577
-25.0388
-28.2299
-30.4618
-28.952
-26.3288
-21.1757
-15.8016
-10.9468
-6.9218
-3.82343
-1.48483
-0.190807
0.140508
-0.0795915
-0.267325
-0.934247
-2.2176
-4.31408
-7.14604
-10.6278
-14.2711
-17.9352
-21.7705
-24.4921
-27.1798
-28.9431
-26.9956
-23.7234
-18.3602
-13.1174
-8.44712
-4.62296
-1.72146
0.425404
-0.18945
0.143274
-0.0765745
-0.265609
-0.937149
-2.2275
-4.32986
-7.1601
-10.6242
-14.2222
-17.7934
-21.4631
-23.9246
-26.1158
-27.4011
-25.0768
-21.2612
-15.8082
-10.733
-6.25662
-2.6593
0.0249572
1.98067
-0.188104
0.145988
-0.0736286
-0.263926
-0.939835
-2.23657
-4.34358
-7.17021
-10.6138
-14.1632
-17.6372
-21.1367
-23.3401
-25.047
-25.8466
-23.1842
-18.9814
-13.5317
-8.63129
-4.37418
-1.02939
1.41534
3.16987
-0.186731
0.148681
-0.0707214
-0.262299
-0.942336
-2.24484
-4.35526
-7.17635
-10.5967
-14.0939
-17.4664
-20.7913
-22.7406
-23.9816
-24.2973
-21.3346
-16.8979
-11.523
-6.82409
-2.8145
0.257359
2.459
4.03317
-0.185353
0.151319
-0.0678789
-0.260706
-0.944631
-2.2523
-4.36486
-7.17844
-10.5727
-14.0139
-17.281
-20.4274
-22.128
-22.9285
-22.7741
-19.5753
-15.0067
-9.77107
-5.30365
-1.56075
1.24902
3.24077
4.66467
-0.183932
0.153924
-0.0650812
-0.259194
-0.946775
-2.25898
-4.37237
-7.17634
-10.5414
-13.9228
-17.0802
-20.0446
-21.5023
-21.8927
-21.2931
-17.9433
-13.2999
-8.25164
-4.03011
-0.558969
1.99741
3.80154
5.08411
-0.182499
0.156455
-0.0623657
-0.257752
-0.948752
-2.26486
-4.37771
-7.16986
-10.5024
-13.8199
-16.8637
-19.6428
-20.8641
-20.8762
-19.8675
-16.452
-11.7713
-6.94142
-2.98113
0.212097
2.5311
4.15095
5.28664
-0.181015
0.158933
-0.0597166
-0.25643
-0.95061
-2.26994
-4.38078
-7.15874
-10.4553
-13.7045
-16.6306
-19.2213
-20.2138
-19.8789
-18.5038
-15.0971
-10.4125
-5.836
-2.14964
0.771943
2.86897
4.32061
5.33619
-0.179517
0.161314
-0.057173
-0.255211
-0.952312
-2.27414
-4.38143
-7.14267
-10.3995
-13.576
-16.3805
-18.7799
-19.553
-18.9057
-17.201
-13.8609
-9.2159
-4.92867
-1.512
1.16008
3.05443
4.356
5.27199
-0.177964
0.163623
-0.0547142
-0.254136
-0.953882
-2.27744
-4.37949
-7.12133
-10.3346
-13.4336
-16.113
-18.3182
-18.8827
-17.9678
-15.9583
-12.7149
-8.17732
-4.18911
-1.02366
1.40895
3.11387
4.2797
5.09515
-0.176398
0.165818
-0.0523742
-0.253174
-0.955256
-2.27971
-4.37474
-7.09436
-10.2601
-13.277
-15.8282
-17.837
-18.2031
-17.0783
-14.7808
-11.6342
-7.28855
-3.58191
-0.665248
1.5369
3.06344
4.10187
4.8274
-0.174773
0.167928
-0.0501246
-0.252351
-0.956436
-2.28088
-4.367
-7.06143
-10.1755
-13.1058
-15.5264
-17.3373
-17.5123
-16.2432
-13.6804
-10.625
-6.52339
-3.09476
-0.428148
1.56045
2.931
3.85961
4.51245
-0.17313
0.169918
-0.047995
-0.251623
-0.95734
-2.2808
-4.35602
-7.02219
-10.0804
-12.9197
-15.2083
-16.8213
-16.8077
-15.4549
-12.6782
-9.7072
-5.86033
-2.72758
-0.29209
1.50675
2.73584
3.57203
4.1645
-0.171429
0.171812
-0.0459488
-0.251011
-0.957968
-2.27945
-4.34172
-6.97651
-9.97481
-12.7189
-14.8751
-16.2917
-16.0887
-14.7047
-11.8016
-8.88522
-5.30847
-2.462
-0.22943
1.39138
2.4999
3.25486
3.78722
-0.169688
0.173605
-0.0440098
-0.250469
-0.958222
-2.2766
-4.32365
-6.92373
-9.85792
-12.5029
-14.5274
-15.7524
-15.3575
-13.966
-11.0387
-8.14189
-4.86402
-2.26936
-0.235445
1.22253
2.22695
2.91296
3.39323
-0.167969
0.175263
-0.0421671
-0.250104
-0.958467
-2.27311
-4.30331
-6.86603
-9.73246
-12.2746
-14.1693
-15.2064
-14.6256
-13.2813
-10.4496
-7.52347
-4.53053
-2.15585
-0.303419
1.0254
1.94243
2.57138
3.01565
-0.166168
0.177126
-0.0403854
-0.250002
-0.958895
-2.26858
-4.27823
-6.79665
-9.58623
-12.0156
-13.7805
-14.6536
-13.8802
-12.4239
-9.67069
-6.81282
-4.12983
-2.02718
-0.373551
0.816487
1.64229
2.21879
2.63447
-0.161978
0.180608
-0.0363384
-0.247831
-0.955413
-2.25533
-4.23515
-6.69506
-9.393
-11.6963
-13.332
-14.1016
-13.2696
-11.8118
-9.2714
-6.58711
-4.07565
-2.1415
-0.606254
0.507281
1.28787
1.83833
2.23836
-0.159067
0.182792
-0.0336251
-0.246976
-0.951293
-2.23569
-4.17465
-6.55908
-9.14773
-11.3091
-12.8021
-13.4884
-12.6539
-11.2029
-8.8787
-6.43675
-4.09922
-2.29956
-0.872195
0.169437
0.914504
1.44449
1.8306
-0.157743
0.182993
-0.0331846
-0.248755
-0.948291
-2.21192
-4.09957
-6.39204
-8.85281
-10.856
-12.1854
-12.7686
-11.9119
-10.4302
-8.29053
-6.12359
-4.04542
-2.41592
-1.13368
-0.181127
0.515465
1.00826
1.37309
-0.15671
0.182052
-0.0340015
-0.251927
-0.944547
-2.18115
-4.00557
-6.1881
-8.50003
-10.3288
-11.4779
-11.9369
-11.0475
-9.54966
-7.60306
-5.70907
-3.91835
-2.49894
-1.37657
-0.529512
0.0922875
0.540989
0.882221
-0.155168
0.180543
-0.0352364
-0.255303
-0.937873
-2.13962
-3.88678
-5.93945
-8.07943
-9.71724
-10.6763
-11.0055
-10.1083
-8.65259
-6.92083
-5.27739
-3.75307
-2.54948
-1.5858
-0.857028
-0.316164
0.0807331
0.381339
-0.153239
0.178356
-0.0368339
-0.2583
-0.926816
-2.08461
-3.73918
-5.64148
-7.58663
-9.01787
-9.78072
-9.98404
-9.11422
-7.75693
-6.24645
-4.83294
-3.55904
-2.55074
-1.74661
-1.13707
-0.684294
-0.352354
-0.094755
-0.150947
0.175394
-0.0387461
-0.260575
-0.910323
-2.01416
-3.56033
-5.29257
-7.0228
-8.23518
-8.799
-8.88395
-8.06825
-6.8436
-5.54953
-4.35651
-3.3124
-2.48424
-1.82942
-1.33339
-0.962653
-0.687649
-0.473701
-0.148314
0.171642
-0.040793
-0.261449
-0.887033
-1.92626
-3.34843
-4.893
-6.39316
-7.38114
-7.75091
-7.73036
-6.98619
-5.90829
-4.8202
-3.83238
-2.98768
-2.32037
-1.79334
-1.39453
-1.09794
-0.876085
-0.701621
-0.145168
0.167214
-0.042598
-0.260173
-0.855512
-1.81905
-3.10261
-4.44523
-5.7067
-6.4745
-6.66694
-6.55988
-5.89741
-4.96778
-4.06393
-3.24954
-2.57143
-2.03321
-1.61347
-1.29424
-1.05324
-0.873848
-0.73886
-0.141635
0.162055
-0.0439426
-0.255903
-0.814344
-1.69125
-2.82368
-3.95515
-4.97753
-5.54008
-5.58226
-5.40954
-4.82928
-4.03743
-3.28756
-2.61309
-2.06361
-1.62954
-1.28888
-1.0314
-0.839712
-0.692631
-0.581887
-0.137702
0.156179
-0.0445113
-0.247901
-0.762448
-1.54259
-2.51487
-3.43296
-4.22526
-4.60665
-4.53035
-4.30959
-3.80218
-3.13035
-2.5059
-1.94362
-1.49345
-1.1363
-0.858964
-0.645328
-0.486464
-0.368887
-0.27827
-0.133547
0.149519
-0.0440586
-0.235299
-0.699023
-1.37412
-2.18229
-2.89325
-3.47383
-3.70404
-3.54097
-3.28643
-2.8403
-2.2703
-1.747
-1.27622
-0.904818
-0.60729
-0.376484
-0.199698
-0.0641901
0.036177
0.111395
-0.129056
0.142256
-0.0420699
-0.217306
-0.623897
-1.18863
-1.83507
-2.35409
-2.74899
-2.86041
-2.64095
-2.36651
-1.97282
-1.49051
-1.05081
-0.656508
-0.347849
-0.0997541
0.0942806
0.241905
0.354783
0.440915
0.507373
-0.124297
0.134496
-0.0380946
-0.193183
-0.537709
-0.990898
-1.48508
-1.83545
-2.07575
-2.10043
-1.85334
-1.57488
-1.22933
-0.825192
-0.457665
-0.128444
0.129413
0.336069
0.496775
0.619862
0.714857
0.790272
0.85074
-0.119057
0.126684
-0.0315058
-0.162673
-0.442415
-0.787862
-1.14605
-1.35706
-1.47604
-1.44337
-1.19465
-0.928858
-0.631061
-0.297829
0.00677232
0.278851
0.492731
0.663611
0.795869
0.899355
0.981483
1.04739
1.10025
-0.11338
0.11907
-0.0219833
-0.126108
-0.341405
-0.588145
-0.831967
-0.936066
-0.966452
-0.901131
-0.671166
-0.432335
-0.18214
0.0866751
0.335106
0.554842
0.727333
0.865235
0.973256
1.05916
1.128
1.18333
1.2277
-0.106983
0.112196
-0.00932001
-0.0848559
-0.239568
-0.401166
-0.555152
-0.584628
-0.556155
-0.476452
-0.27765
-0.0748495
0.129057
0.339925
0.536394
0.707221
0.841877
0.9509
1.03746
1.10645
1.16151
1.20542
1.24028
-0.0999593
0.106234
0.00598812
-0.0412298
-0.142679
-0.235703
-0.324364
-0.30821
-0.245857
-0.163592
-0.00019483
0.163839
0.324747
0.485135
0.634388
0.761687
0.864075
0.94849
1.01585
1.06886
1.11037
1.14314
1.16911
-0.092085
0.101464
0.0230361
0.00151976
-0.0566294
-0.0985343
-0.143598
-0.105234
-0.0284626
0.0496302
0.179692
0.307248
0.429569
0.546565
0.655693
0.747307
0.822807
0.885133
0.933439
0.96977
0.997387
1.01917
1.03634
-0.0835746
0.0976211
0.0401329
0.0398371
0.0137194
0.00665928
-0.0120917
0.0318973
0.109114
0.179823
0.281773
0.378579
0.46793
0.549309
0.627726
0.693456
0.748508
0.79276
0.825064
0.848104
0.865635
0.880092
0.89163
-0.0744663
0.0943744
0.0554093
0.0704875
0.0653878
0.0796838
0.0750926
0.11465
0.183492
0.245257
0.324686
0.397716
0.460842
0.515272
0.571149
0.618669
0.658162
0.687668
0.707277
0.721014
0.732523
0.742762
0.75066
-0.065158
0.0909468
0.0669097
0.0912557
0.0978463
0.123284
0.125625
0.156267
0.212405
0.264157
0.325553
0.380305
0.423129
0.459021
0.498406
0.531874
0.558505
0.576127
0.586966
0.595445
0.603762
0.611248
0.616646
-0.056068
0.0866288
0.0732202
0.101512
0.11275
0.14241
0.148124
0.169659
0.212092
0.253461
0.3004
0.340525
0.367489
0.391218
0.418841
0.441453
0.457613
0.467089
0.473527
0.479692
0.486054
0.491605
0.495629
-0.0476595
0.0806779
0.0738999
0.101965
0.113498
0.143014
0.150703
0.165152
0.195396
0.227204
0.262926
0.291284
0.30654
0.322847
0.342088
0.356528
0.365492
0.371147
0.376092
0.381092
0.386246
0.391053
0.394782
-0.0405388
0.0729319
0.0691858
0.0945291
0.103913
0.130754
0.139503
0.149316
0.16988
0.193645
0.220628
0.239445
0.246834
0.258442
0.270772
0.278448
0.282731
0.285723
0.288506
0.29166
0.295416
0.299217
0.302046
-0.034688
0.063518
0.0601625
0.0813081
0.0875904
0.110199
0.119063
0.125805
0.139269
0.156926
0.17728
0.188893
0.192574
0.20143
0.208832
0.212867
0.215373
0.216649
0.217896
0.220203
0.223524
0.2269
0.229387
-0.0305176
0.0526527
0.0476009
0.0637442
0.0666353
0.0841359
0.0919301
0.0962577
0.10459
0.117544
0.131757
0.137149
0.139281
0.145583
0.14931
0.15165
0.152561
0.15228
0.152687
0.154568
0.15734
0.16008
0.162045
-0.0266466
0.0423207
0.0341534
0.0449793
0.0446026
0.0566645
0.0621434
0.0635783
0.0666399
0.0739483
0.0826047
0.0861265
0.0904878
0.0959775
0.0991219
0.101337
0.101569
0.101388
0.102355
0.104526
0.107265
0.109909
0.111832
-0.0286825
0.0264503
0.0145331
0.0207305
0.0180867
0.0258543
0.0296221
0.0309126
0.0343425
0.0372811
0.0281141
0.007495
-0.00738487
-0.0125136
-0.0114396
-0.00982672
-0.00965494
-0.0090742
-0.00744782
-0.00500492
-0.00217434
0.000504115
0.00249058
-0.00839988
0.0331199
0.0197287
0.0204047
0.0152484
0.0178146
0.0176455
0.0139175
0.0116736
0.0204363
0.042304
0.0684318
0.0850368
0.0848003
0.0761492
0.0686713
0.0643571
0.0617539
0.0602259
0.0597847
0.0599997
0.0603266
0.060282
1.86222
1.89045
2.08798
2.45897
2.95313
3.6031
4.44506
5.52836
6.89565
8.58121
10.6064
12.9729
15.6691
18.6565
21.8673
25.1954
28.5113
31.6751
34.5639
37.0879
39.2084
40.9209
42.2962
1.82797
1.8874
2.06864
2.42028
2.89633
3.52109
4.33159
5.37215
6.68424
8.3024
10.2481
12.5228
15.1093
17.9626
21.0075
24.1364
27.2223
30.1336
32.7575
35.0173
36.8839
38.3662
39.5352
1.78458
1.86625
2.03277
2.35851
2.80821
3.39746
4.16157
5.14066
6.37409
7.89619
9.72926
11.8759
14.3167
17.0033
19.8567
22.7693
25.6174
28.2777
30.6476
32.6612
34.2979
35.5762
36.5648
1.73069
1.8213
1.9747
2.26882
2.6831
3.22611
3.92877
4.82727
5.9582
7.35501
9.04105
11.0213
13.2772
15.7613
18.3947
21.0724
23.676
26.09
28.2212
30.0127
31.4502
32.5581
33.4014
1.66302
1.74726
1.8876
2.14567
2.51499
3.0003
3.62633
4.4248
5.42928
6.67184
8.17704
9.95308
11.9855
14.2309
16.6152
19.039
21.3912
23.5648
25.4746
27.0704
28.3417
29.3149
30.05
1.57196
1.63933
1.76366
1.9821
2.29718
2.71263
3.24639
3.92504
4.77867
5.83796
7.12857
8.66339
10.4338
12.4046
14.5108
16.6627
18.7591
20.7027
22.415
23.8499
24.9969
25.8789
26.5475
1.43896
1.49243
1.59557
1.77041
2.02279
2.35525
2.77927
3.31546
3.99013
4.83261
5.8706
7.12264
8.58829
10.2439
12.0386
13.8973
15.7322
17.457
19.0011
20.3209
21.4032
22.2625
22.9359
1.24279
1.29901
1.37578
1.50249
1.68433
1.91952
2.213
2.57907
3.0403
3.62609
4.36861
5.29488
6.41698
7.72611
9.18705
10.7404
12.3127
13.8297
15.2292
16.4701
17.5344
18.4244
19.1617
1.91667
1.60534
2.12283
2.54109
3.08362
3.83614
4.72766
5.95206
7.4656
9.2645
11.413
13.8249
16.6141
19.7656
23.2937
27.0784
30.9551
34.7265
38.2191
41.3123
43.9422
46.1146
47.8511
1.92441
1.6158
2.12609
2.54783
3.09091
3.84177
4.73513
5.95873
7.47366
9.28289
11.4466
13.9002
16.7469
19.9836
23.6164
27.5318
31.567
35.5286
39.2419
42.5771
45.4586
47.8769
49.8391
1.93253
1.62749
2.12903
2.55426
3.09902
3.84813
4.74353
5.96489
7.47925
9.29532
11.4681
13.9531
16.8427
20.1439
23.8557
27.8699
32.0264
36.136
40.0249
43.5574
46.65
49.2782
51.4408
1.94079
1.64046
2.13131
2.55955
3.10692
3.85445
4.75254
5.97091
7.48346
9.30324
11.4798
13.9859
16.904
20.2495
24.0154
28.0978
32.339
36.554
40.571
44.2511
47.5058
50.2981
52.6234
1.94914
1.65493
2.13251
2.56287
3.11279
3.85855
4.75951
5.97428
7.48406
9.30531
11.4817
14.0004
16.9344
20.3052
24.1015
28.2223
32.5129
36.7914
40.8887
44.6644
48.0281
50.9329
53.3749
1.95708
1.6713
2.1327
2.56402
3.11604
3.85986
4.76416
5.97531
7.48217
9.3036
11.4774
14.0013
16.9399
20.3182
24.1216
28.2521
32.5575
36.8591
40.9902
44.8101
48.2288
51.1924
53.7005
1.96412
1.69001
2.13218
2.56312
3.11601
3.85717
4.76468
5.97219
7.47632
9.2978
11.4689
13.9943
16.93
20.3021