/*--------------------------------*- C++ -*----------------------------------*\
  =========                 |
  \\      /  F ield         | OpenFOAM: The Open Source CFD Toolbox
   \\    /   O peration     | Website:  https://openfoam.org
    \\  /    A nd           | Version:  7
     \\/     M anipulation  |
\*---------------------------------------------------------------------------*/
FoamFile
{
    version     2.0;
    format      ascii;
    class       surfaceScalarField;
    location    "134";
    object      phi;
}
// * * * * * * * * * * * * * * * * * * * * * * * * * * * * * * * * * * * * * //

dimensions      [0 3 -1 0 0 0 0];

internalField   nonuniform List<scalar> 
25449
(
65.4195
59.1373
-35.9368
48.5732
44.1523
-27.3061
36.2289
33.0979
-20.7537
27.1191
24.8932
-15.7834
20.3577
18.7776
-12.0162
15.3164
14.204
-9.16268
11.544
10.7736
-7.00115
8.71295
8.19389
-5.36289
6.58393
6.24882
-4.11979
4.98048
4.77829
-3.17485
3.77189
3.6634
-2.45482
2.86076
2.81564
-1.90451
2.17411
2.16901
-1.48237
1.6571
1.67422
-1.15721
1.26828
1.29434
-0.905532
0.976327
1.00167
-0.709718
0.757476
0.775403
-0.556553
0.593709
0.599949
-0.436183
0.471357
0.463621
-0.341269
0.380058
0.35762
-0.266318
0.311976
0.275253
-0.207171
0.261201
0.211362
-0.160586
0.161944
-0.124086
0.223344
49.6904
76.4341
37.0388
56.8038
27.7147
42.422
20.802
31.8059
15.6525
23.9271
11.8016
18.0549
8.91293
13.6623
6.74072
10.3661
5.10438
7.88516
3.87037
6.01231
2.93942
4.59435
2.23733
3.51773
1.70835
2.698
1.31036
2.0722
1.01147
1.59324
0.787445
1.2257
0.619897
0.942952
0.494867
0.724981
0.401758
0.556732
0.332532
0.426845
0.281116
0.32667
0.242924
0.249554
0.190303
0.214565
36.8276
88.8787
27.617
66.0143
20.7662
49.2728
15.6503
36.9217
11.8175
27.7599
8.93802
20.9343
6.76996
15.8304
5.13459
12.0015
3.8995
9.12025
2.96621
6.94559
2.26117
5.2994
1.7291
4.04979
1.32828
3.09882
1.02696
2.37351
0.800984
1.81921
0.631914
1.39477
0.505735
1.06913
0.411804
0.818911
0.342043
0.626491
0.290331
0.478558
0.252038
0.364962
0.22368
0.277911
0.2113
0.202683
26.9211
97.5301
20.3857
72.5497
15.4477
54.2108
11.7156
40.6537
8.89337
30.5822
6.75747
23.0702
5.13976
17.4481
3.91359
13.2277
2.98386
10.05
2.2791
7.65036
1.7455
5.833
1.34233
4.45297
1.03852
3.40263
0.81027
2.60176
0.639286
1.9902
0.51154
1.52251
0.416344
1.16433
0.345586
0.889669
0.293123
0.678954
0.2543
0.517381
0.225602
0.39366
0.204386
0.299126
0.226991
0.188695
19.5539
103.296
15.0365
77.067
11.53
57.7173
8.82678
43.3569
6.75187
32.6571
5.16349
24.6586
3.94962
18.662
3.02283
14.1544
2.31593
10.7569
1.77755
8.18874
1.3685
6.24204
1.05875
4.76272
0.825123
3.63626
0.649602
2.77728
0.518185
2.12161
0.420052
1.62064
0.346943
1.23743
0.292602
0.944008
0.252306
0.71925
0.222481
0.547205
0.200429
0.415711
0.184125
0.31543
0.23906
0.172056
14.2003
106.899
11.1776
80.0896
8.72006
60.1748
6.76424
45.3127
5.22819
34.1932
4.03222
25.8546
3.10639
19.5878
2.39225
14.8686
1.84302
11.3061
1.42195
8.60981
1.10042
6.56358
0.856092
5.00705
0.671438
3.82092
0.532583
2.91614
0.428568
2.22563
0.350832
1.69838
0.292823
1.29544
0.249601
0.987231
0.217456
0.751395
0.193592
0.571069
0.175892
0.433412
0.16277
0.328551
0.248806
0.153024
10.3792
108.898
8.44993
82.0187
6.74934
61.8753
5.32647
46.7356
4.1708
35.3488
3.24963
26.7758
2.5242
20.3132
1.95719
15.4356
1.51652
11.7468
1.17582
8.95051
0.91392
6.82548
0.71391
5.20706
0.562237
3.97259
0.447929
3.03045
0.362143
2.31142
0.297868
1.76265
0.249719
1.34359
0.213654
1.02329
0.186668
0.77838
0.166504
0.591232
0.151451
0.448463
0.140227
0.339775
0.257192
0.131841
7.69155
109.709
6.55581
83.1543
5.39519
63.0359
4.3467
47.7841
3.45466
36.2409
2.72183
27.5086
2.13242
20.9026
1.66442
15.9036
1.2962
12.115
1.00872
9.238
0.78602
7.04819
0.614939
5.37815
0.484656
4.10289
0.386162
3.12895
0.312022
2.38557
0.25623
1.81845
0.214167
1.38566
0.182391
1.05507
0.158387
0.802385
0.140268
0.609351
0.126625
0.462106
0.116351
0.35005
0.264925
0.108619
5.25427
111.429
3.97301
84.4355
3.01277
63.9962
2.29343
48.5034
1.75224
36.7821
1.34373
27.9171
1.03395
21.2124
0.797816
16.1397
0.617112
12.2957
0.478703
9.3764
0.372917
7.15397
0.292536
5.45853
0.231966
4.16346
0.186683
3.17423
0.152977
2.41927
0.127842
1.84358
0.108977
1.40452
0.0947133
1.06933
0.0838775
0.813219
0.075631
0.617596
0.0693566
0.46838
0.0646108
0.354797
0.268545
0.0609901
3.37712
112.537
2.5558
85.2568
1.94192
64.61
1.48369
48.9617
1.13951
37.1263
0.879907
28.1767
0.682682
21.4097
0.531698
16.2907
0.415399
12.4121
0.325717
9.46609
0.256741
7.22296
0.20413
5.51115
0.164464
4.20314
0.134885
3.20382
0.112941
2.44122
0.0965642
1.85997
0.0841671
1.41692
0.0746245
1.07888
0.0671974
0.820647
0.0613871
0.623407
0.056842
0.472926
0.0533149
0.358324
0.2713
0.0505605
2.00355
113.197
1.51875
85.7415
1.1581
64.9707
0.890483
49.2293
0.690042
37.3267
0.539031
28.3277
0.423827
21.5248
0.334873
16.3797
0.265466
12.4815
0.211241
9.52031
0.169017
7.26518
0.136552
5.54361
0.112011
4.22768
0.0937577
3.22207
0.0802593
2.45472
0.0701358
1.87009
0.0623111
1.42474
0.0560583
1.08513
0.050958
0.825746
0.046769
0.627595
0.0433384
0.476357
0.0405759
0.361086
0.273533
0.0383424
1.01296
113.532
0.770702
85.9837
0.592307
65.149
0.461616
49.36
0.364368
37.4239
0.291273
28.4008
0.234886
21.5812
0.190398
16.4242
0.154578
12.5173
0.125718
9.54918
0.102583
7.28833
0.084439
5.56177
0.0705964
4.24153
0.0603122
3.23237
0.0527243
2.46232
0.0469433
1.87588
0.0422528
1.42944
0.0382053
1.08918
0.0346107
0.829343
0.0314197
0.630787
0.0286323
0.479144
0.0262746
0.363444
0.275519
0.0242882
0.311533
113.638
0.240665
86.0546
0.190728
65.199
0.156302
49.3944
0.131554
37.4487
0.113155
28.4192
0.0980325
21.5964
0.0847251
16.4375
0.0724326
12.5296
0.0613041
9.5603
0.0514602
7.29816
0.0432336
5.56999
0.0367469
4.24801
0.0319063
3.2372
0.0283334
2.46588
0.0254833
1.87873
0.0228798
1.43204
0.0202608
1.0918
0.017592
0.83201
0.0149629
0.633416
0.0124884
0.481618
0.0102854
0.365646
0.277449
0.00835489
-0.173352
113.585
-0.126099
86.0073
-0.0879186
65.1608
-0.0565221
49.363
-0.0317433
37.4239
-0.0128308
28.4003
0.00017586
21.5834
0.00809734
16.4296
0.011788
12.5259
0.0126569
9.55944
0.011744
7.29909
0.0101145
5.57163
0.0084619
4.24968
0.00716114
3.23851
0.00618085
2.46688
0.00521077
1.87971
0.00392114
1.43334
0.00216072
1.09356
-1.18272e-05
0.834185
-0.00240085
0.635806
-0.00481099
0.484029
-0.00703928
0.367874
0.279452
-0.00904176
-0.496932
113.426
-0.371294
85.8816
-0.275094
65.0646
-0.200564
49.2884
-0.143386
37.3667
-0.100114
28.357
-0.0687488
21.552
-0.0469899
16.4078
-0.0329103
12.5118
-0.0242963
9.55081
-0.019515
7.2943
-0.0170179
5.56912
-0.0157202
4.24837
-0.0149084
3.23769
-0.0143613
2.46632
-0.0142305
1.87957
-0.0147681
1.43387
-0.0160722
1.09487
-0.0180396
0.836151
-0.0204043
0.63817
-0.0229124
0.486536
-0.0253006
0.370262
0.281633
-0.0274826
-0.702625
113.2
-0.52776
85.7067
-0.395547
64.9324
-0.294431
49.1873
-0.217353
37.2896
-0.159168
28.2988
-0.116578
21.5094
-0.0863886
16.3776
-0.0660221
12.4915
-0.0527861
9.53758
-0.04469
7.28621
-0.0398814
5.56433
-0.037012
4.24552
-0.0351205
3.23581
-0.033799
2.46501
-0.033095
1.87888
-0.0332353
1.43402
-0.0343161
1.09595
-0.0362309
0.838068
-0.0386822
0.640622
-0.041365
0.489219
-0.0439921
0.372888
0.284045
-0.0464045
-0.822882
112.934
-0.619903
85.5038
-0.467593
64.7801
-0.351844
49.0716
-0.263897
37.2017
-0.197616
28.2325
-0.148945
21.4607
-0.114219
16.3429
-0.0905195
12.4678
-0.0749118
9.52196
-0.0652198
7.27651
-0.0594173
5.55851
-0.055983
4.24207
-0.0537678
3.23359
-0.0522143
2.46345
-0.0513001
1.87796
-0.0512641
1.43398
-0.0522443
1.09693
-0.0541672
0.83999
-0.0567393
0.643194
-0.0596196
0.492099
-0.0625119
0.37578
0.286709
-0.0651764
-0.880313
112.65
-0.664738
85.2882
-0.50399
64.6193
-0.382363
48.95
-0.290161
37.1095
-0.22077
28.1631
-0.169773
21.4097
-0.133353
16.3065
-0.108474
12.4429
-0.0921339
9.50563
-0.0820997
7.26648
-0.0762668
5.55269
-0.0730062
4.23882
-0.0710187
3.23161
-0.0696155
2.46206
-0.0687197
1.87707
-0.0686073
1.43387
-0.0694956
1.09782
-0.0713788
0.841876
-0.0740028
0.645819
-0.0770134
0.49511
-0.0801134
0.37888
0.289586
-0.08299
-0.894319
112.361
-0.676865
85.0707
-0.515704
64.4582
-0.394215
48.8285
-0.302302
37.0176
-0.233215
28.0941
-0.182466
21.359
-0.146297
16.2703
-0.121717
12.4183
-0.105774
9.48967
-0.0962657
7.25696
-0.0910755
5.54749
-0.0885099
4.23625
-0.087138
3.23023
-0.0861387
2.46105
-0.0853794
1.87631
-0.0851855
1.43368
-0.0858835
1.09852
-0.0875682
0.843559
-0.09006
0.648311
-0.0930289
0.498078
-0.0961737
0.382025
0.292555
-0.0991426
-0.87828
112.077
-0.666375
84.8588
-0.510333
64.3021
-0.393134
48.7113
-0.304639
36.9291
-0.238204
28.0276
-0.189465
21.3102
-0.154878
16.2357
-0.131607
12.395
-0.116837
9.47491
-0.108455
7.24859
-0.104383
5.54342
-0.10289
4.23476
-0.102418
3.22977
-0.101997
2.46064
-0.10142
1.87574
-0.10106
1.43332
-0.101375
1.09883
-0.102593
0.84478
-0.104647
0.650365
-0.107261
0.500693
-0.110145
0.384909
0.295371
-0.112962
-0.845646
111.804
-0.643419
84.6566
-0.49554
64.1542
-0.384904
48.6006
-0.301528
36.8457
-0.239009
27.9651
-0.193234
21.2645
-0.160955
16.2034
-0.139552
12.3736
-0.126386
9.46173
-0.119472
7.24166
-0.116793
5.54073
-0.116599
4.23455
-0.117198
3.23036
-0.117439
2.46087
-0.117005
1.8753
-0.116305
1.43262
-0.115938
1.09846
-0.116292
0.845133
-0.117431
0.651503
-0.11918
0.502441
-0.121298
0.387027
0.2976
-0.123526
-0.798514
111.546
-0.609572
84.4676
-0.472534
64.0172
-0.370485
48.4986
-0.293749
36.769
-0.236267
27.9076
-0.194276
21.2225
-0.164903
16.1741
-0.145813
12.3546
-0.134593
9.45051
-0.129421
7.2365
-0.128372
5.53969
-0.129692
4.23588
-0.131548
3.23222
-0.132562
2.46189
-0.132252
1.875
-0.131029
1.4314
-0.129633
1.09707
-0.128625
0.844126
-0.128244
0.651124
-0.128463
0.502658
-0.129138
0.387703
0.298575
-0.130114
-0.741394
111.307
-0.568228
84.2945
-0.443823
63.8928
-0.351674
48.4064
-0.282551
36.6998
-0.230866
27.8559
-0.193284
21.1849
-0.167332
16.1481
-0.150965
12.3382
-0.141999
9.44154
-0.138801
7.23328
-0.139566
5.54044
-0.14256
4.23886
-0.145809
3.23546
-0.147678
2.46375
-0.147461
1.87477
-0.145524
1.42946
-0.142738
1.09428
-0.139865
0.841253
-0.137334
0.64859
-0.135269
0.500593
-0.133675
0.386109
0.297404
-0.132504
-0.762115
111.079
-0.594224
84.1265
-0.470966
63.7695
-0.379118
48.3146
-0.31023
36.6309
-0.2586
27.8043
-0.22032
21.1466
-0.192768
16.1206
-0.173999
12.3194
-0.162453
9.42999
-0.156961
7.2278
-0.156284
5.53977
-0.158988
4.24157
-0.163078
3.23955
-0.166386
2.46707
-0.167369
1.87576
-0.165703
1.42779
-0.162017
1.0906
-0.157189
0.836424
-0.151905
0.643308
-0.146644
0.495333
-0.141801
0.381266
0.293172
-0.137568
-0.740687
110.864
-0.581462
83.9673
-0.464394
63.6525
-0.377021
48.2272
-0.311382
36.5653
-0.262104
27.755
-0.225516
21.11
-0.199184
16.0942
-0.1813
12.3015
-0.170424
9.4191
-0.16548
7.22284
-0.165324
5.53959
-0.168585
4.24482
-0.173226
3.24418
-0.176859
2.47069
-0.177596
1.87649
-0.174838
1.42503
-0.169125
1.08488
-0.161443
0.828742
-0.15283
0.634692
-0.144227
0.48673
-0.136277
0.373315
0.28605
-0.129154
-0.719719
110.66
-0.568669
83.8163
-0.457423
63.5412
-0.374253
48.144
-0.311661
36.5027
-0.264586
27.7079
-0.229581
21.075
-0.204386
16.069
-0.187324
12.2845
-0.177064
9.40884
-0.172618
7.21839
-0.172944
5.53992
-0.176747
4.24862
-0.18198
3.24942
-0.186065
2.47478
-0.186791
1.87722
-0.183216
1.42146
-0.175732
1.0774
-0.165562
0.818571
-0.154298
0.623429
-0.14321
0.475642
-0.13291
0.363014
0.276744
-0.123604
-0.699252
110.467
-0.555947
83.673
-0.450204
63.4355
-0.371005
48.0648
-0.311287
36.443
-0.266286
27.6629
-0.232765
21.0415
-0.208631
16.0449
-0.192327
12.2682
-0.182627
9.39913
-0.178629
7.21438
-0.179398
5.54068
-0.183734
4.25295
-0.189625
3.25529
-0.194354
2.4795
-0.195381
1.87823
-0.191347
1.41742
-0.182501
1.06855
-0.170414
0.806483
-0.157081
0.610093
-0.143909
0.46247
-0.131728
0.350831
0.26595
-0.120934
-0.679311
110.284
-0.543364
83.537
-0.442842
63.3349
-0.367409
47.9894
-0.310413
36.386
-0.26737
27.6199
-0.235245
21.0094
-0.212102
16.0217
-0.196497
12.2526
-0.187303
9.38994
-0.183705
7.21078
-0.184878
5.54185
-0.189744
4.25781
-0.196373
3.26192
-0.201965
2.48509
-0.203651
1.87992
-0.199623
1.41339
-0.189959
1.05888
-0.176372
0.792894
-0.161137
0.59486
-0.146226
0.447559
-0.132894
0.337498
0.254426
-0.121371
-0.659908
110.111
-0.530968
83.4081
-0.435411
63.2394
-0.363559
47.9176
-0.309147
36.3316
-0.267961
27.5787
-0.237153
20.9786
-0.214937
15.9995
-0.199977
12.2376
-0.191242
9.38119
-0.187996
7.20752
-0.189535
5.54338
-0.194924
4.26319
-0.202373
3.26936
-0.209053
2.49176
-0.211823
1.88268
-0.208416
1.40998
-0.198504
1.04896
-0.183831
0.778219
-0.167483
0.57851
-0.152104
0.43218
-0.138672
0.324065
0.242813
-0.12706
-0.641048
109.948
-0.518791
83.2858
-0.427966
63.1485
-0.359525
47.8491
-0.307574
36.2796
-0.26815
27.5393
-0.238589
20.949
-0.217241
15.9782
-0.202877
12.2233
-0.194553
9.37287
-0.191616
7.20459
-0.19348
5.54524
-0.199381
4.26909
-0.207721
3.2777
-0.215737
2.49977
-0.220126
1.88707
-0.218063
1.40792
-0.208628
1.03953
-0.194029
0.763617
-0.178266
0.562749
-0.163629
0.417542
-0.150311
0.310745
0.230683
-0.138183
-0.622731
109.794
-0.506856
83.17
-0.420549
63.0623
-0.355364
47.7839
-0.305757
36.23
-0.268011
27.5015
-0.23963
20.9206
-0.219098
15.9576
-0.205285
12.2094
-0.19733
9.3649
-0.194655
7.2019
-0.196803
5.54738
-0.203194
4.27546
-0.212489
3.28698
-0.222129
2.5094
-0.228733
1.89367
-0.22877
1.40795
-0.220905
1.03165
-0.207886
0.750595
-0.193202
0.548064
-0.178008
0.402348
-0.162826
0.295561
0.216185
-0.148329
-0.604953
109.648
-0.495181
83.0602
-0.413192
62.9803
-0.351117
47.7219
-0.303749
36.1827
-0.267602
27.4654
-0.240342
20.8934
-0.220576
15.9379
-0.207271
12.1961
-0.199644
9.35727
-0.197189
7.19944
-0.199573
5.54976
-0.206422
4.28231
-0.216736
3.29729
-0.228282
2.52094
-0.237593
1.90298
-0.240469
1.41082
-0.235416
1.0266
-0.224522
0.739696
-0.209052
0.532597
-0.190182
0.383477
-0.170748
0.276126
0.198238
-0.152805
-0.587706
109.511
-0.483776
82.9562
-0.40592
62.9024
-0.34682
47.6627
-0.301592
36.1374
-0.266971
27.4308
-0.240775
20.8672
-0.221731
15.9188
-0.208894
12.1833
-0.201557
9.34993
-0.199277
7.19715
-0.201847
5.55231
-0.209113
4.28956
-0.22049
3.30865
-0.234113
2.53455
-0.246424
1.91528
-0.252977
1.41737
-0.252043
1.02566
-0.243267
0.730918
-0.225829
0.515157
-0.202822
0.36047
-0.179673
0.252975
0.178215
-0.159654
-0.570983
109.382
-0.472651
82.8579
-0.398753
62.8285
-0.342501
47.6065
-0.299322
36.0942
-0.266158
27.3976
-0.240974
20.842
-0.222611
15.9005
-0.210206
12.1709
-0.203122
9.34284
-0.200973
7.195
-0.203673
5.55501
-0.211303
4.29719
-0.223728
3.32107
-0.23942
2.55024
-0.254995
1.93085
-0.266546
1.42892
-0.271496
1.0306
-0.266065
0.725481
-0.249066
0.49816
-0.226017
0.337419
-0.203126
0.230082
0.158935
-0.18385
-0.554773
109.26
-0.46181
82.7649
-0.391708
62.7584
-0.338186
47.553
-0.296969
36.053
-0.265198
27.3658
-0.24098
20.8178
-0.223257
15.8827
-0.21125
12.1589
-0.204384
9.33596
-0.202322
7.19292
-0.205093
5.55777
-0.213014
4.3051
-0.226379
3.33443
-0.244023
2.56787
-0.263423
1.95025
-0.281885
1.44738
-0.294592
1.0433
-0.294157
0.725043
-0.28087
0.484872
-0.26209
0.318638
-0.243235
0.211225
0.142702
-0.227007
-0.539067
109.146
-0.451258
82.6771
-0.384797
62.6919
-0.333894
47.5021
-0.294558
36.0137
-0.264123
27.3354
-0.240824
20.7945
-0.223707
15.8656
-0.212065
12.1473
-0.205384
9.32928
-0.203363
7.1909
-0.206142
5.56054
-0.21425
4.3132
-0.228362
3.34853
-0.247871
2.58737
-0.272006
1.97438
-0.298998
1.47437
-0.319526
1.06382
-0.323032
0.728544
-0.312749
0.47459
-0.297566
0.303454
-0.282149
0.195807
0.12911
-0.268561
-0.523856
109.039
-0.440997
82.5943
-0.378033
62.629
-0.329644
47.4537
-0.292115
35.9762
-0.26296
27.3062
-0.240539
20.772
-0.223993
15.8491
-0.212687
12.136
-0.206157
9.32274
-0.204136
7.18886
-0.206854
5.56325
-0.21501
4.32134
-0.229628
3.36314
-0.251015
2.60875
-0.280736
2.00409
-0.316319
1.50995
-0.341868
1.08937
-0.345268
0.731939
-0.334284
0.463606
-0.319304
0.288472
-0.304307
0.180808
0.115782
-0.290985
-0.509127
108.939
-0.431028
82.5162
-0.371426
62.5694
-0.325453
47.4077
-0.289659
35.9404
-0.261733
27.2783
-0.240151
20.7505
-0.224146
15.833
-0.213146
12.125
-0.206739
9.31633
-0.204673
7.18679
-0.207255
5.56583
-0.215295
4.32937
-0.230164
3.378
-0.25348
2.63206
-0.288976
2.03958
-0.331165
1.55213
-0.357189
1.11538
-0.356331
0.731075
-0.342057
0.449332
-0.325641
0.272054
-0.30993
0.165095
0.101997
-0.296151
-0.494872
108.845
-0.421353
82.4427
-0.364984
62.513
-0.321335
47.3641
-0.287212
35.9062
-0.260465
27.2516
-0.239687
20.7297
-0.224193
15.8175
-0.213474
12.1142
-0.207161
9.31001
-0.205009
7.18463
-0.207373
5.56818
-0.215112
4.3371
-0.229985
3.39286
-0.255144
2.65721
-0.295564
2.08
-0.340861
1.59742
-0.362932
1.13745
-0.355587
0.723724
-0.337604
0.43135
-0.319809
0.254256
-0.303686
0.148971
0.0881719
-0.289868
-0.481081
108.757
-0.411973
82.3735
-0.358716
62.4597
-0.317305
47.3226
-0.284789
35.8737
-0.259178
27.2259
-0.239169
20.7097
-0.22416
15.8025
-0.213698
12.1038
-0.207452
9.30376
-0.205171
7.18234
-0.207234
5.57024
-0.214482
4.34434
-0.229105
3.40748
-0.255718
2.68381
-0.299194
2.12347
-0.343691
1.64192
-0.358967
1.15272
-0.344876
0.709628
-0.323664
0.410136
-0.304722
0.235312
-0.288538
0.132785
0.0748352
-0.275208
-0.467743
108.676
-0.402886
82.3087
-0.352628
62.4095
-0.313374
47.2834
-0.282408
35.8428
-0.257891
27.2014
-0.23862
20.6904
-0.224071
15.788
-0.213843
12.0935
-0.207639
9.29755
-0.205191
7.17989
-0.206866
5.5719
-0.213434
4.3509
-0.227522
3.42156
-0.254823
2.71111
-0.298818
2.16746
-0.339069
1.68217
-0.346481
1.16012
-0.326644
0.689785
-0.30282
0.386314
-0.282715
0.215205
-0.266482
0.11655
0.0622393
-0.253893
-0.454849
108.6
-0.394093
82.2479
-0.346728
62.3621
-0.309555
47.2462
-0.280085
35.8133
-0.256622
27.178
-0.238061
20.6718
-0.223949
15.7739
-0.213934
12.0835
-0.207748
9.29135
-0.205096
7.17723
-0.206299
5.5731
-0.212006
4.3566
-0.22522
3.43476
-0.252094
2.73797
-0.293835
2.20919
-0.327303
1.71563
-0.327159
1.15997
-0.303197
0.665818
-0.277558
0.360673
-0.256223
0.193867
-0.239668
0.0999933
0.0503175
-0.227752
-0.442389
108.53
-0.385593
82.1911
-0.341021
62.3175
-0.305859
47.211
-0.277834
35.7853
-0.25539
27.1555
-0.237511
20.654
-0.223815
15.7602
-0.213994
12.0737
-0.207806
9.28516
-0.204914
7.17433
-0.205567
5.57374
-0.210243
4.36126
-0.222182
3.44669
-0.247272
2.76306
-0.284109
2.24603
-0.309213
1.74073
-0.302697
1.15345
-0.276396
0.63951
-0.249749
0.334027
-0.227276
0.171392
-0.209914
0.0826293
0.0382149
-0.197818
-0.430353
108.465
-0.377385
82.1381
-0.335514
62.2757
-0.302295
47.1778
-0.275669
35.7586
-0.25421
27.1341
-0.236989
20.6367
-0.223689
15.7469
-0.214044
12.0641
-0.207836
9.27894
-0.204673
7.17116
-0.204705
5.57377
-0.208191
4.36474
-0.218403
3.45689
-0.240253
2.7849
-0.269858
2.27563
-0.285695
1.75656
-0.274226
1.14198
-0.247314
0.612595
-0.220624
0.307333
-0.198021
0.148786
-0.180141
0.0647476
0.0246755
-0.166608
-0.418734
108.406
-0.36947
82.0889
-0.330212
62.2364
-0.298875
47.1465
-0.273604
35.7334
-0.253099
27.1136
-0.236513
20.6201
-0.223592
15.7339
-0.214108
12.0546
-0.207862
9.27269
-0.2044
7.16769
-0.203751
5.57311
-0.205906
4.36689
-0.213914
3.4649
-0.231104
2.80208
-0.251562
2.29608
-0.25761
1.76261
-0.242366
1.12673
-0.216203
0.586426
-0.190545
0.281677
-0.169493
0.127731
-0.152513
0.047766
0.00942108
-0.137265
-0.407522
108.352
-0.361846
82.0432
-0.325119
62.1997
-0.295608
47.117
-0.271651
35.7094
-0.252071
27.094
-0.2361
20.6042
-0.223541
15.7214
-0.214204
12.0452
-0.207906
9.26639
-0.204122
7.16389
-0.202747
5.57173
-0.203443
4.36757
-0.208785
3.47023
-0.220032
2.81332
-0.229852
2.3059
-0.225849
1.7586
-0.207797
1.10867
-0.183225
0.561852
-0.158615
0.257063
-0.139634
0.108748
-0.125195
0.0333257
-0.00618713
-0.109592
-0.396709
108.303
-0.354512
82.001
-0.320242
62.1654
-0.292503
47.0892
-0.269823
35.6867
-0.251142
27.0753
-0.235767
20.5888
-0.223556
15.7092
-0.214354
12.036
-0.207991
9.26002
-0.203866
7.15977
-0.201729
5.56958
-0.200863
4.3667
-0.203136
3.4725
-0.207424
2.81761
-0.20561
2.30408
-0.191542
1.74453
-0.171612
1.08874
-0.14972
0.539956
-0.126827
0.234173
-0.109577
0.0914945
-0.0988653
0.0226128
-0.0201688
-0.0848872
-0.386285
108.258
-0.347467
81.9622
-0.315584
62.1335
-0.289565
47.0632
-0.268127
35.6653
-0.25032
27.0575
-0.235524
20.574
-0.223649
15.6973
-0.214574
12.027
-0.208138
9.25358
-0.203664
7.15528
-0.200747
5.56666
-0.198249
4.36419
-0.197142
3.47138
-0.193735
2.81419
-0.17977
2.29011
-0.15594
1.7207
-0.135307
1.0681
-0.117591
0.522237
-0.0972095
0.213781
-0.0796078
0.0738911
-0.0720275
0.0150287
-0.0308209
-0.0613793
-0.363419
108.201
-0.320066
81.9188
-0.287474
62.1009
-0.262533
47.0383
-0.242893
35.6457
-0.227048
27.0416
-0.214075
20.561
-0.203715
15.6869
-0.195768
12.019
-0.190041
9.24785
-0.185846
7.15108
-0.182638
5.56345
-0.179029
4.36058
-0.174894
3.46724
-0.164669
2.80397
-0.141116
2.26656
-0.11014
1.68972
-0.0894627
1.04742
-0.0779365
0.510707
-0.0645003
0.200351
-0.0482882
0.0576619
-0.0368829
0.00361365
-0.0401643
-0.0275421
-0.289005
108.157
-0.254796
81.8846
-0.22908
62.0752
-0.209409
47.0186
-0.193906
35.6302
-0.18137
27.0291
-0.171055
20.5507
-0.162754
15.6786
-0.156304
12.0126
-0.151538
9.24307
-0.147887
7.14742
-0.144744
5.56029
-0.14084
4.35667
-0.135241
3.46163
-0.12235
2.79106
-0.0967612
2.24096
-0.0649747
1.65793
-0.0435985
1.02604
-0.0346822
0.501785
-0.0273146
0.192966
-0.0159536
0.0463015
-0.00430845
-0.00804923
-0.0468024
0.0023161
-0.229806
108.121
-0.202798
81.8576
-0.182497
62.0549
-0.166977
47.0031
-0.154738
35.6179
-0.144823
27.0192
-0.136627
20.5425
-0.129985
15.672
-0.124764
12.0074
-0.120827
9.23913
-0.117711
7.1443
-0.114823
5.5574
-0.111067
4.35291
-0.105169
3.45573
-0.0920916
2.77799
-0.0677634
2.21663
-0.0378803
1.62805
-0.0168463
1.005
-0.00926986
0.494209
-0.00579945
0.189504
0.000732173
0.03975
0.0104075
-0.0177292
-0.0516161
0.0152118
-0.182692
108.093
-0.161339
81.8362
-0.145289
62.0388
-0.133028
46.9908
-0.123357
35.6083
-0.115509
27.0114
-0.108997
20.536
-0.103686
15.6667
-0.0994683
12.0031
-0.0962314
9.23589
-0.0936061
7.14167
-0.0910478
5.55483
-0.0876464
4.3495
-0.0820446
3.45012
-0.069991
2.76592
-0.0483816
2.19502
-0.0217924
1.60145
-0.00241423
0.985617
0.00428904
0.487499
0.00579952
0.187982
0.00903674
0.0365223
0.0166651
-0.0253744
-0.0554471
0.0204898
-0.145208
108.071
-0.128305
81.8194
-0.115603
62.0261
-0.105905
46.9811
-0.0982556
35.6006
-0.0920408
27.0051
-0.0868664
20.5308
-0.0826217
15.6624
-0.0792195
11.9997
-0.076568
9.23324
-0.0743753
7.13947
-0.0721613
5.55262
-0.069186
4.34652
-0.0641474
3.44508
-0.0535926
2.75537
-0.0351339
2.17656
-0.0123084
1.57863
0.00486948
0.968441
0.0111514
0.48122
0.0120725
0.187069
0.0135704
0.0350131
0.0190437
-0.0308397
-0.0585765
0.0221677
-0.115347
108.053
-0.101916
81.8059
-0.0918237
62.016
-0.0841247
46.9734
-0.0780537
35.5945
-0.0731187
27.0002
-0.0689995
20.5267
-0.0656036
15.659
-0.0628589
11.997
-0.0606907
9.23106
-0.058869
7.13764
-0.0569826
5.55072
-0.0544392
4.34396
-0.050064
3.4407
-0.0411334
2.74643
-0.0258122
2.16123
-0.00675473
1.55956
0.00807378
0.953604
0.0140475
0.475239
0.0150911
0.186017
0.0159449
0.0341693
0.019502
-0.0344073
-0.060985
0.0219114
-0.0918356
108.039
-0.0813234
81.7954
-0.0734263
62.0082
-0.0674069
46.9674
-0.0626583
35.5898
-0.0587899
26.9963
-0.0555454
20.5235
-0.0528518
15.6563
-0.0506532
11.9948
-0.048892
9.2293
-0.0473876
7.13614
-0.0457912
5.54913
-0.0436233
4.3418
-0.0398407
3.43692
-0.0322802
2.73888
-0.019507
2.14846
-0.00355601
1.54362
0.0092211
0.94083
0.0148635
0.4696
0.0162274
0.18466
0.0169641
0.0334252
0.0191614
-0.0365955
-0.0626267
0.0207985
-0.07274
108.028
-0.0642285
81.7869
-0.0578334
62.0017
-0.0529629
46.9625
-0.0491271
35.586
-0.0460084
26.9932
-0.0433954
20.5209
-0.0412225
15.6542
-0.0394394
11.993
-0.0379972
9.22785
-0.0367533
7.13489
-0.0354226
5.54779
-0.03363
4.33999
-0.0305023
3.43378
-0.0244214
2.73279
-0.0143201
2.13835
-0.00164706
1.53093
0.00882123
0.930354
0.0138276
0.464588
0.0152699
0.183212
0.0158533
0.0328506
0.0170346
-0.0377842
-0.0634956
0.017906
-0.062595
108.014
-0.0518152
81.7761
-0.0434912
61.9934
-0.0370091
46.956
-0.0318238
35.5808
-0.027548
26.9889
-0.0238911
20.5172
-0.0207165
15.651
-0.0179267
11.9902
-0.0154358
9.22536
-0.0130541
7.1325
-0.0104418
5.54518
-0.00707152
4.33663
-0.00199597
3.42871
0.00608907
2.72471
0.0167207
2.12772
0.0264408
1.52122
0.0305643
0.926234
0.028184
0.466974
0.0229137
0.18849
0.0177772
0.0379811
0.0142317
-0.0342294
-0.0609347
0.011667
-0.0657091
108
-0.0543959
81.7648
-0.045661
61.9847
-0.0388625
46.9493
-0.0334267
35.5753
-0.0289433
26.9845
-0.025103
20.5134
-0.0217582
15.6476
-0.0188039
11.9873
-0.0161493
9.2227
-0.013593
7.12994
-0.0107718
5.54235
-0.00712253
4.33296
-0.0016311
3.4232
0.00704696
2.71602
0.018438
2.11632
0.0288599
1.51079
0.0333946
0.921693
0.0311785
0.469185
0.0258942
0.193769
0.0204987
0.0433859
0.0163472
-0.0300841
-0.0579755
0.0133905
-0.0689778
107.985
-0.0571048
81.7529
-0.0479383
61.9755
-0.0408081
46.9421
-0.0351096
35.5696
-0.0304088
26.9798
-0.0263764
20.5093
-0.0228529
15.6441
-0.0197255
11.9842
-0.0168978
9.21987
-0.0141562
7.1272
-0.0111134
5.53931
-0.00717039
4.32902
-0.00124443
3.41728
0.00803873
2.70674
0.0201848
2.10418
0.0312766
1.4997
0.0361941
0.91678
0.0341723
0.471213
0.0289007
0.19905
0.023263
0.0490187
0.0185413
-0.0253536
-0.0546512
0.0152143
-0.0724088
107.969
-0.059948
81.7404
-0.0503287
61.9659
-0.0428505
46.9346
-0.0368766
35.5637
-0.0319481
26.9748
-0.0277144
20.5051
-0.0240033
15.6404
-0.0206935
11.9809
-0.0176829
9.21685
-0.0147445
7.12425
-0.0114666
5.53602
-0.00721388
4.32476
-0.000833606
3.41089
0.00906592
2.69683
0.0219558
2.09128
0.0336775
1.48797
0.0389463
0.911505
0.0371319
0.473024
0.0319006
0.204278
0.0260742
0.0548542
0.0208657
-0.0201499
-0.0509354
0.0171526
-0.0760099
107.952
-0.0629325
81.7274
-0.052838
61.9558
-0.0449946
46.9268
-0.038732
35.5574
-0.0335648
26.9697
-0.02912
20.5007
-0.0252121
15.6365
-0.0217103
11.9774
-0.018506
9.21365
-0.0153586
7.1211
-0.0118314
5.5325
-0.00725138
4.32018
-0.000396783
3.40404
0.0101278
2.68631
0.023749
2.07767
0.0360564
1.47567
0.0416431
0.905924
0.0400413
0.474633
0.0348794
0.209449
0.0289058
0.0608241
0.0232975
-0.0145332
-0.0467966
0.0191576
-0.0797902
107.934
-0.0660653
81.7136
-0.0554718
61.9452
-0.0472453
46.9186
-0.04068
35.5508
-0.0352627
26.9643
-0.0305969
20.496
-0.0264823
15.6324
-0.022778
11.9737
-0.0193689
9.21023
-0.0159992
7.11772
-0.0122072
5.52869
-0.00728119
4.31525
6.67268e-05
3.39668
0.0112211
2.67515
0.0255565
2.06332
0.0384017
1.46282
0.0442752
0.900045
0.0428846
0.47602
0.0378214
0.21451
0.0317362
0.0669185
0.0258319
-0.00863224
-0.0421722
0.0212098
-0.0837577
107.915
-0.0693538
81.6993
-0.0582366
61.9341
-0.0496079
46.9099
-0.0427252
35.544
-0.037046
26.9586
-0.0321485
20.4911
-0.0278169
15.628
-0.0238993
11.9697
-0.0202732
9.2066
-0.0166668
7.11412
-0.0125936
5.52462
-0.00730146
4.30996
0.000557986
3.38883
0.0123454
2.66337
0.0273728
2.0483
0.0407042
1.44949
0.0468337
0.893921
0.0456399
0.477221
0.0406987
0.219461
0.0345253
0.0730894
0.0284182
-0.0025178
-0.0370323
0.0232786
-0.0879227
107.896
-0.0728056
81.6841
-0.0611385
61.9224
-0.0520881
46.9009
-0.0448726
35.5368
-0.0389188
26.9526
-0.0337784
20.486
-0.0292191
15.6235
-0.0250763
11.9656
-0.0212202
9.20274
-0.0173618
7.11025
-0.0129894
5.52024
-0.0073101
4.30427
0.00107992
3.38043
0.0135022
2.65094
0.0291915
2.03261
0.0429562
1.43572
0.0493109
0.887562
0.0482893
0.47824
0.0434761
0.224273
0.037229
0.0793449
0.0309349
0.00377423
-0.0314194
0.0253238
-0.0922943
107.875
-0.0764289
81.6683
-0.0641848
61.9102
-0.0546917
46.8914
-0.0471272
35.5292
-0.0408856
26.9464
-0.0354906
20.4806
-0.0306918
15.6187
-0.0263115
11.9612
-0.0222115
9.19864
-0.0180847
7.10613
-0.0133937
5.51556
-0.00730491
4.29818
0.00163521
3.37149
0.0146906
2.63789
0.0310018
2.0163
0.0451411
1.42159
0.051694
0.881015
0.0508054
0.479134
0.0461028
0.228984
0.039796
0.0856501
0.0333273
0.0102494
-0.0254269
0.027336
-0.096883
107.854
-0.0802322
81.6516
-0.0673822
61.8973
-0.0574246
46.8814
-0.0494942
35.5213
-0.0429509
26.9398
-0.0372889
20.4749
-0.0322386
15.6136
-0.0276077
11.9566
-0.0232489
9.19427
-0.0188363
7.10171
-0.0138059
5.51052
-0.00728411
4.29165
0.00222445
3.36198
0.0159059
2.6242
0.0327977
1.9994
0.0472458
1.40713
0.05396
0.874297
0.0531543
0.479937
0.0485255
0.233612
0.0421897
0.0919935
0.035579
0.0168591
-0.0191608
0.0293145
-0.1017
107.831
-0.0842244
81.6341
-0.0707387
61.8838
-0.0602935
46.871
-0.0519791
35.5129
-0.0451196
26.933
-0.0391776
20.469
-0.0338628
15.6083
-0.0289674
11.9517
-0.0243342
9.18964
-0.0196174
7.09699
-0.0142253
5.50513
-0.00724795
4.28468
0.00284628
3.35189
0.0171414
2.60991
0.0345693
1.98198
0.0492648
1.39244
0.0560925
0.867474
0.0553183
0.480716
0.050706
0.238232
0.0443736
0.0983249
0.037689
0.0235489
-0.0127583
0.0312882
-0.106756
107.808
-0.0884151
81.6158
-0.0742615
61.8697
-0.0633049
46.86
-0.0545879
35.5042
-0.0473967
26.9258
-0.0411609
20.4627
-0.0355681
15.6027
-0.0303935
11.9465
-0.0254693
9.18471
-0.0204294
7.09194
-0.0146522
5.49934
-0.00719797
4.27721
0.00349866
3.34118
0.0183899
2.59501
0.0363
1.96406
0.0511782
1.37756
0.058071
0.860579
0.0572861
0.481499
0.0526435
0.242874
0.0463327
0.104642
0.0396288
0.0302526
-0.00633389
0.0332059
-0.112063
107.783
-0.092814
81.5965
-0.0779596
61.8548
-0.0664659
46.8485
-0.0573264
35.4951
-0.0497874
26.9182
-0.0432433
20.4562
-0.0373583
15.5968
-0.0318892
11.9411
-0.0266566
9.17948
-0.0212737
7.08656
-0.0150876
5.49316
-0.00713531
4.26927
0.0041779
3.32988
0.0196413
2.57956
0.037976
1.94573
0.0529624
1.36258
0.0598681
0.853678
0.059052
0.482318
0.0543298
0.247603
0.0479902
0.110982
0.0412969
0.0369501
9.69437e-05
0.0348678
-0.117633
107.757
-0.0974312
81.5763
-0.0818411
61.8392
-0.0697838
46.8365
-0.060201
35.4855
-0.0522973
26.9104
-0.0454296
20.4493
-0.0392373
15.5906
-0.0334576
11.9353
-0.0278984
9.17391
-0.022152
7.08081
-0.0155326
5.48653
-0.00706244
4.26079
0.00487608
3.31793
0.0208814
2.56354
0.0395812
1.92703
0.0546136
1.34754
0.0614801
0.84681
0.0606073
0.48319