/*--------------------------------*- C++ -*----------------------------------*\
  =========                 |
  \\      /  F ield         | OpenFOAM: The Open Source CFD Toolbox
   \\    /   O peration     | Website:  https://openfoam.org
    \\  /    A nd           | Version:  7
     \\/     M anipulation  |
\*---------------------------------------------------------------------------*/
FoamFile
{
    version     2.0;
    format      ascii;
    class       volVectorField;
    location    "134";
    object      U;
}
// * * * * * * * * * * * * * * * * * * * * * * * * * * * * * * * * * * * * * //

dimensions      [0 1 -1 0 0 0 0];

internalField   nonuniform List<vector> 
12842
(
(14.936 4.57661 -3.44185e-18)
(14.9338 4.5967 -5.73376e-19)
(14.9308 4.61836 -1.13614e-19)
(14.9243 4.64338 3.26097e-19)
(14.9136 4.67425 -8.79891e-19)
(14.8983 4.7138 0)
(14.8769 4.76491 0)
(14.8469 4.8304 -5.12671e-20)
(14.8056 4.91297 -5.37895e-21)
(14.7495 5.01504 -2.40118e-20)
(14.6753 5.13861 -3.05237e-20)
(14.5803 5.28518 -4.62087e-20)
(14.4624 5.45537 1.15524e-19)
(14.321 5.64875 6.25715e-20)
(14.1568 5.86333 -7.59099e-20)
(13.9722 6.09504 -2.09047e-19)
(13.7713 6.33769 -1.9299e-19)
(13.5601 6.58347 0)
(13.3457 6.82399 1.78408e-20)
(13.1358 7.05148 1.27312e-19)
(12.9382 7.2599 2.02017e-20)
(12.7572 7.44498 -8.80901e-20)
(12.602 7.60677 6.80847e-20)
(14.9363 4.57794 2.6549e-18)
(14.9379 4.59896 0)
(14.9391 4.62184 -7.79257e-19)
(14.9374 4.6481 5.67376e-20)
(14.9329 4.68058 6.30435e-19)
(14.9254 4.72251 0)
(14.9135 4.77722 6.98019e-19)
(14.8951 4.84808 0)
(14.8669 4.93819 6.56843e-19)
(14.8253 5.05014 6.74242e-20)
(14.7665 5.18584 6.75631e-20)
(14.6874 5.3464 3.69851e-19)
(14.5857 5.53194 -1.13844e-19)
(14.4606 5.74142 -4.16137e-21)
(14.3123 5.97228 0)
(14.1425 6.21981 2.26816e-19)
(13.9544 6.47704 2.73633e-19)
(13.7529 6.73528 -2.82817e-19)
(13.5447 6.98536 0)
(13.3374 7.21913 -1.70698e-19)
(13.1394 7.43036 -2.33444e-19)
(12.9558 7.61605 2.34238e-19)
(12.7983 7.77312 -2.36887e-19)
(14.9368 4.57928 0)
(14.9421 4.60055 0)
(14.9467 4.62376 6.154e-19)
(14.9491 4.65028 -3.95533e-19)
(14.9502 4.68327 0)
(14.95 4.7263 0)
(14.9474 4.78322 8.21431e-19)
(14.9402 4.85797 -1.46957e-18)
(14.9249 4.95413 -4.20081e-19)
(14.8974 5.07448 -5.33533e-19)
(14.8534 5.22083 -1.08364e-18)
(14.7894 5.3939 -3.68265e-19)
(14.703 5.59326 -5.91376e-20)
(14.5932 5.8173 8.11567e-20)
(14.4602 6.06305 0)
(14.3052 6.32541 -3.1358e-20)
(14.1304 6.59685 4.03527e-20)
(13.94 6.86798 1.73195e-19)
(13.7401 7.12881 1.26391e-19)
(13.5381 7.37073 -1.22662e-19)
(13.3431 7.58702 1.73692e-19)
(13.1601 7.77594 0)
(13.0041 7.93053 8.59541e-20)
(14.9375 4.58082 3.80919e-19)
(14.9463 4.60167 -3.22554e-19)
(14.9535 4.62464 4.96196e-19)
(14.9594 4.65075 -1.32563e-18)
(14.9655 4.68337 2.30393e-19)
(14.9722 4.72645 -1.86565e-18)
(14.9786 4.78433 3.66368e-19)
(14.9824 4.86161 1.46913e-18)
(14.9799 4.96237 3.15293e-18)
(14.9664 5.0897 -1.88459e-18)
(14.9369 5.24527 2.85416e-18)
(14.8875 5.4294 -2.47552e-19)
(14.8157 5.64101 3.22835e-19)
(14.7207 5.878 9.04193e-19)
(14.6028 6.13705 -7.51808e-20)
(14.4631 6.41294 9.71995e-20)
(14.3029 6.69785 7.99002e-21)
(14.1253 6.98188 4.78209e-20)
(13.9356 7.25424 -9.32324e-20)
(13.7412 7.50582 8.2886e-20)
(13.5519 7.72912 -4.32493e-20)
(13.3721 7.92373 -5.41105e-20)
(13.22 8.07818 1.34841e-19)
(14.9386 4.58254 2.67494e-18)
(14.95 4.60244 0)
(14.9595 4.62477 9.62628e-20)
(14.9683 4.64998 6.14547e-19)
(14.9788 4.6815 2.19813e-20)
(14.9919 4.72365 5.6108e-18)
(15.007 4.78125 6.98721e-19)
(15.0217 4.85965 -5.45527e-18)
(15.0318 4.96354 -3.55749e-18)
(15.0321 5.09636 2.31583e-18)
(15.017 5.25976 -3.565e-18)
(14.982 5.45359 -2.34241e-18)
(14.9246 5.67606 4.5887e-19)
(14.8443 5.92444 -2.18869e-18)
(14.742 6.19518 -8.02526e-19)
(14.6185 6.4831 5.03842e-19)
(14.4743 6.7805 0)
(14.3113 7.07716 -6.73114e-20)
(14.134 7.36163 0)
(13.9495 7.62422 1.12236e-19)
(13.768 7.85638 4.54713e-20)
(13.5933 8.05903 2.04914e-20)
(13.4469 8.21558 -3.66216e-20)
(14.9399 4.58433 -2.22359e-18)
(14.9532 4.60295 0)
(14.9646 4.62438 0)
(14.9758 4.64832 2.54679e-18)
(14.9902 4.67813 -2.67476e-18)
(15.0092 4.71847 -3.59115e-18)
(15.0324 4.77461 -7.06386e-18)
(15.0577 4.85271 6.09108e-18)
(15.0804 4.95817 0)
(15.0943 5.09491 3.62077e-18)
(15.0934 5.26459 3.42691e-18)
(15.0725 5.46663 1.17593e-18)
(15.0293 5.69842 0)
(14.9638 5.95652 1.28019e-18)
(14.8774 6.23714 6.81289e-19)
(14.7711 6.53542 -3.50422e-19)
(14.6447 6.84408 -9.64053e-20)
(14.4986 7.15298 7.34169e-19)
(14.3362 7.45004 0)
(14.1637 7.72503 -1.68216e-19)
(13.9922 7.96792 1.30658e-19)
(13.8242 8.18109 1.32909e-19)
(13.6851 8.34195 -6.5817e-20)
(14.9414 4.58605 1.40631e-19)
(14.9558 4.60328 0)
(14.969 4.62363 0)
(14.9819 4.64608 -2.54745e-18)
(14.9995 4.67374 3.17769e-18)
(15.0236 4.71151 -6.29065e-19)
(15.054 4.76504 4.39635e-18)
(15.0892 4.84138 5.01853e-19)
(15.1239 4.94676 -6.57966e-19)
(15.1516 5.08576 -4.07846e-18)
(15.1651 5.26022 -3.95585e-19)
(15.1589 5.4692 2.75611e-18)
(15.1303 5.70911 0)
(15.0798 5.97562 -1.93633e-18)
(15.0096 6.2645 1.52332e-19)
(14.9212 6.57136 -1.97699e-19)
(14.8138 6.88973 6.27412e-19)
(14.6864 7.21004 -4.29956e-19)
(14.5412 7.51975 -6.65416e-19)
(14.3834 7.80813 -1.41503e-19)
(14.2242 8.06334 2.86546e-20)
(14.0649 8.28936 -1.6462e-19)
(13.9347 8.45643 -9.13648e-20)
(14.943 4.58772 0)
(14.9578 4.60351 -9.47001e-20)
(14.9725 4.62262 1.49028e-18)
(14.9868 4.64335 -1.37183e-19)
(15.0073 4.66847 -4.06432e-18)
(15.0362 4.70306 8.044e-19)
(15.0736 4.75314 -1.34326e-19)
(15.1182 4.82661 -4.5175e-18)
(15.1642 4.93061 0)
(15.2043 5.07031 -5.45584e-18)
(15.2309 5.24777 4.19255e-19)
(15.2379 5.46163 2.62553e-19)
(15.2228 5.70739 0)
(15.187 5.97975 1.9155e-18)
(15.134 6.27423 -1.52188e-18)
(15.0656 6.58725 0)
(14.9799 6.91364 -6.24798e-19)
(14.8743 7.24476 0)
(14.749 7.56767 5.47824e-19)
(14.6083 7.87113 0)
(14.4633 8.14065 -2.3466e-19)
(14.3147 8.3828 1.58787e-19)
(14.1944 8.55837 2.0771e-19)
(14.9445 4.58909 0)
(14.9595 4.60358 0)
(14.9751 4.62176 1.70924e-19)
(14.9895 4.64141 -1.69765e-19)
(15.011 4.66458 4.46756e-18)
(15.0421 4.69636 5.0245e-18)
(15.084 4.7427 0)
(15.1361 4.81228 4.23808e-18)
(15.1927 4.9131 0)
(15.2458 5.05146 1.12235e-17)
(15.2864 5.2302 3.82305e-18)
(15.3071 5.44815 -2.40877e-18)
(15.3041 5.69999 -2.19852e-19)
(15.2793 5.97903 0)
(15.2377 6.27933 1.5955e-18)
(15.183 6.59709 1.267e-18)
(15.1148 6.92806 -1.14003e-19)
(15.0292 7.26525 8.80659e-19)
(14.9247 7.59624 7.91029e-19)
(14.803 7.91039 0)
(14.6747 8.19051 1.68884e-19)
(14.5386 8.44642 1.93304e-20)
(14.4288 8.63035 -1.14205e-19)
(14.9464 4.59062 3.60192e-20)
(14.9611 4.6039 1.2835e-18)
(14.9775 4.62109 -1.6205e-18)
(14.992 4.6397 0)
(15.0147 4.66106 1.03144e-19)
(15.0479 4.69049 3.7125e-19)
(15.0937 4.73399 -5.63604e-18)
(15.1515 4.80084 0)
(15.2158 4.89973 0)
(15.2779 5.0375 -5.73973e-18)
(15.328 5.21742 -4.0844e-18)
(15.358 5.43823 -9.02608e-20)
(15.3639 5.69396 2.20467e-18)
(15.3478 5.97686 -7.45478e-20)
(15.316 6.2802 -2.3308e-19)
(15.2738 6.60038 2.82762e-19)
(15.2209 6.9342 -9.0204e-19)
(15.153 7.27606 -8.28405e-19)
(15.0666 7.61371 -9.02301e-19)
(14.9621 7.93706 -6.89827e-19)
(14.8495 8.22608 2.05936e-19)
(14.7252 8.49369 -9.21667e-19)
(14.6271 8.6847 1.65322e-19)
(14.9482 4.59201 -5.15851e-19)
(14.9625 4.60427 -1.42427e-18)
(14.9796 4.62051 4.72395e-20)
(14.9942 4.63819 2.13147e-18)
(15.0179 4.65773 -1.25936e-19)
(15.053 4.68476 -5.38877e-18)
(15.1023 4.7254 1.09572e-17)
(15.1655 4.78948 3.19731e-19)
(15.237 4.88649 -2.36973e-19)
(15.3074 5.02375 -6.46461e-18)
(15.3668 5.20492 1.43323e-19)
(15.4059 5.42859 -3.32058e-18)
(15.4205 5.68799 -1.97712e-18)
(15.4132 5.97422 0)
(15.3913 6.2796 1.99688e-18)
(15.3619 6.6008 -2.85688e-18)
(15.3253 6.93592 -2.47968e-19)
(15.2765 7.28114 9.20034e-19)
(15.2105 7.62455 -7.36904e-21)
(15.1258 7.95684 8.84741e-19)
(15.0319 8.2548 0)
(14.9226 8.53466 2.94373e-19)
(14.8393 8.73283 0)
(14.95 4.59321 7.01611e-19)
(14.9639 4.60464 -1.81344e-18)
(14.9814 4.61999 9.06818e-20)
(14.996 4.63687 -4.18884e-18)
(15.0206 4.65463 2.76582e-18)
(15.0573 4.67929 -1.50896e-19)
(15.1098 4.717 -5.70609e-18)
(15.178 4.77823 9.55164e-20)
(15.2563 4.87323 -2.75109e-19)
(15.3348 5.00981 6.69785e-18)
(15.4032 5.1921 0)
(15.4514 5.4185 3.04854e-18)
(15.4748 5.68143 2.04129e-19)
(15.4762 5.97068 -9.16074e-20)
(15.4644 6.27741 -2.07983e-18)
(15.4481 6.59844 -1.16269e-20)
(15.4287 6.93329 8.51218e-19)
(15.4008 7.28031 -1.56132e-18)
(15.3579 7.62814 0)
(15.2961 7.96869 -6.7939e-19)
(15.2243 8.27513 9.06069e-19)
(15.133 8.56774 0)
(15.0675 8.77289 -5.00628e-19)
(14.9516 4.59425 -1.58701e-19)
(14.9651 4.60499 -1.54893e-19)
(14.983 4.61952 9.22063e-20)
(14.9976 4.63572 2.04281e-18)
(15.0229 4.65174 -5.46886e-18)
(15.061 4.67407 1.63335e-20)
(15.1164 4.70885 8.17033e-20)
(15.1892 4.7671 5.75357e-18)
(15.274 4.85991 -1.31421e-19)
(15.3602 4.99558 0)
(15.4375 5.17873 5.0474e-18)
(15.4948 5.40764 1.05075e-19)
(15.5271 5.67395 7.44374e-20)
(15.5374 5.96597 8.1919e-21)
(15.5356 6.27345 -2.1753e-19)
(15.5327 6.59317 1.66809e-18)
(15.5315 6.92606 -1.03823e-18)
(15.5264 7.27301 -1.89105e-19)
(15.5092 7.62347 -3.55024e-19)
(15.4738 7.9711 9.81996e-19)
(15.4277 8.28508 -6.48252e-19)
(15.3578 8.59086 1.40696e-18)
(15.3136 8.80258 -9.34448e-19)
(14.9532 4.59523 1.21194e-19)
(14.9662 4.60532 1.90364e-18)
(14.9844 4.61909 4.3106e-21)
(14.9989 4.63469 2.18725e-18)
(15.0248 4.64903 5.62659e-18)
(15.0641 4.66906 -1.65185e-20)
(15.1222 4.70087 -8.47901e-20)
(15.1993 4.75604 2.01697e-19)
(15.2904 4.84652 -4.90468e-18)
(15.3842 4.98103 3.80287e-18)
(15.4703 5.1648 -5.318e-18)
(15.5367 5.39602 -3.5871e-18)
(15.578 5.66556 2.50719e-18)
(15.597 5.96013 0)
(15.6052 6.26774 1.26768e-18)
(15.6159 6.58482 0)
(15.6337 6.91373 1.38959e-18)
(15.6533 7.25826 8.97879e-19)
(15.6651 7.60899 -1.83846e-20)
(15.6597 7.96215 -1.15184e-18)
(15.6436 8.28195 -1.82587e-20)
(15.5989 8.60017 2.49917e-20)
(15.5795 8.81787 -3.88038e-19)
(14.9547 4.59615 1.67222e-19)
(14.9672 4.60565 1.86886e-20)
(14.9856 4.61871 -3.84961e-21)
(15 4.6338 -2.18214e-18)
(15.0264 4.64655 -2.80817e-18)
(15.0667 4.66431 0)
(15.1273 4.69311 6.27346e-20)
(15.2084 4.74505 -5.95213e-18)
(15.3056 4.83294 -1.71675e-19)
(15.4068 4.966 -3.80165e-18)
(15.5018 5.15008 2.88328e-18)
(15.5774 5.38339 5.62491e-18)
(15.6279 5.65607 -2.42131e-18)
(15.6558 5.95308 1.70982e-18)
(15.6738 6.26033 1.48356e-19)
(15.698 6.57348 2.00281e-20)
(15.7353 6.89612 -7.39485e-20)
(15.7812 7.23513 -2.91804e-19)
(15.8248 7.58277 2.02836e-19)
(15.8533 7.93762 -3.78914e-19)
(15.871 8.26137 -3.63533e-20)
(15.8568 8.5868 3.05412e-19)
(15.8642 8.81382 0)
(14.9561 4.59692 1.70487e-19)
(14.968 4.60595 0)
(14.9867 4.61835 0)
(15.0011 4.63299 -2.21117e-18)
(15.0277 4.64421 -2.93491e-18)
(15.0688 4.65972 3.2872e-18)
(15.1317 4.68548 4.45853e-20)
(15.2167 4.73406 -5.57978e-20)
(15.3197 4.81916 5.13379e-18)
(15.4282 4.95046 -6.53644e-20)
(15.5321 5.13454 1.94613e-19)
(15.6172 5.36972 -1.92289e-18)
(15.6772 5.64543 0)
(15.7141 5.94481 -1.80747e-18)
(15.7417 6.2512 -2.67838e-18)
(15.7789 6.55897 -1.11393e-18)
(15.836 6.87267 -7.21843e-19)
(15.9095 7.20228 0)
(15.9874 7.54271 0)
(16.0539 7.89441 6.21757e-19)
(16.1096 8.21994 4.20653e-19)
(16.1316 8.54652 -8.90892e-19)
(16.1685 8.7857 0)
(14.9575 4.59755 -4.75607e-19)
(14.9687 4.60622 8.82561e-21)
(14.9876 4.61801 -1.19685e-21)
(15.002 4.63223 2.19918e-18)
(15.0287 4.64198 5.84614e-18)
(15.0705 4.65526 -6.58672e-18)
(15.1355 4.67793 -4.56288e-20)
(15.2242 4.72301 -5.74866e-20)
(15.3328 4.80508 7.53275e-20)
(15.4486 4.93434 0)
(15.5616 5.11811 -2.89675e-18)
(15.6565 5.35492 2.07624e-18)
(15.7263 5.63361 0)
(15.7722 5.93532 0)
(15.8091 6.24037 1.26089e-18)
(15.8587 6.54109 8.78782e-20)
(15.9351 6.84266 8.04467e-19)
(16.0369 7.15806 6.57188e-19)
(16.1514 7.48587 -9.97004e-19)
(16.2597 7.82811 -3.68655e-19)
(16.3577 8.15121 1.43959e-18)
(16.4222 8.47278 -1.32378e-18)
(16.4923 8.72321 8.50905e-19)
(14.9587 4.59807 4.02529e-19)
(14.9693 4.60646 8.40049e-19)
(14.9884 4.61769 1.05369e-20)
(15.0027 4.63152 -1.39092e-20)
(15.0295 4.63987 -2.96217e-18)
(15.0719 4.65092 3.36698e-18)
(15.1388 4.67044 -3.40211e-20)
(15.2309 4.71187 -1.44927e-20)
(15.3451 4.79066 7.74782e-20)
(15.4681 4.91753 3.50026e-20)
(15.5903 5.10064 -4.56781e-20)
(15.6953 5.33885 -2.07199e-18)
(15.7754 5.62049 1.49812e-18)
(15.8304 5.92457 -6.00035e-20)
(15.8759 6.22785 0)
(15.9368 6.51977 -1.03065e-19)
(16.0316 6.80551 9.80286e-20)
(16.1614 7.10086 -6.4697e-19)
(16.3139 7.40895 1.22466e-18)
(16.4672 7.73355 7.46229e-19)
(16.612 8.04678 -4.99472e-19)
(16.725 8.35651 -7.35933e-19)
(16.8329 8.61248 9.08819e-19)
(14.9599 4.5985 6.94031e-20)
(14.9699 4.60668 -8.47555e-19)
(14.9892 4.61738 0)
(15.0034 4.63086 0)
(15.0301 4.63785 0)
(15.073 4.64668 0)
(15.1415 4.66297 3.48662e-20)
(15.2369 4.70057 -1.53573e-20)
(15.3565 4.77581 -3.9797e-20)
(15.4868 4.89994 3.61527e-20)
(15.6184 5.08201 -4.71384e-20)
(15.734 5.32137 0)
(15.8247 5.60592 -2.9424e-18)
(15.8889 5.91253 6.6036e-20)
(15.9423 6.21374 -1.3518e-19)
(16.0127 6.49507 1.21906e-18)
(16.1236 6.76086 -9.96843e-20)
(16.2801 7.0293 1.9275e-19)
(16.4704 7.30864 -2.13054e-19)
(16.6708 7.60503 4.08722e-19)
(16.8661 7.89721 -5.84746e-19)
(17.0328 8.18615 0)
(17.1837 8.43736 5.1801e-19)
(14.961 4.59885 -9.86569e-19)
(14.9703 4.60685 -3.50838e-19)
(14.9899 4.61706 -5.50033e-21)
(15.004 4.63024 1.16109e-18)
(15.0305 4.63592 1.51787e-18)
(15.0737 4.64253 1.84496e-20)
(15.1437 4.65552 -3.73376e-18)
(15.2421 4.68911 3.47765e-18)
(15.367 4.76049 2.8801e-18)
(15.5046 4.88147 0)
(15.6459 5.06207 5.27167e-20)
(15.7725 5.30225 -2.35535e-18)
(15.8746 5.58973 1.53846e-18)
(15.9482 5.89916 9.66412e-19)
(16.0085 6.19822 7.2259e-19)
(16.0859 6.46732 0)
(16.2095 6.70873 0)
(16.389 6.9424 -7.1459e-19)
(16.6149 7.18197 -8.43773e-19)
(16.8617 7.43693 4.37345e-19)
(17.1094 7.69279 3.16529e-19)
(17.3329 7.94758 4.28712e-19)
(17.532 8.17914 -5.6191e-19)
(14.962 4.59914 5.21014e-19)
(14.9707 4.60701 3.53248e-19)
(14.9906 4.61677 -5.47669e-21)
(15.0044 4.62963 1.31227e-20)
(15.0308 4.63403 -1.52152e-18)
(15.0742 4.63836 -1.76318e-18)
(15.1456 4.64793 1.80218e-18)
(15.247 4.67731 -3.45246e-18)
(15.3772 4.74455 -2.87324e-18)
(15.522 4.86202 -6.6984e-20)
(15.6732 5.04073 0)
(15.8113 5.28142 2.2834e-18)
(15.9251 5.57183 1.57311e-18)
(16.008 5.8845 -1.02465e-18)
(16.0738 6.18166 -6.19411e-19)
(16.155 6.43721 -2.83266e-19)
(16.2861 6.64987 -2.36155e-19)
(16.4831 6.84047 1.42383e-18)
(16.7387 7.02793 0)
(17.0276 7.22548 0)
(17.3252 7.42494 3.60783e-19)
(17.6035 7.62601 -8.33052e-19)
(17.8534 7.81851 -6.11099e-19)
(14.9629 4.5993 -5.72159e-19)
(14.971 4.60709 0)
(14.9911 4.61642 0)
(15.0048 4.62912 -2.3484e-18)
(15.0307 4.63239 1.52436e-18)
(15.074 4.63459 1.80903e-18)
(15.1463 4.64069 -2.95235e-20)
(15.2503 4.66555 1.76847e-18)
(15.3855 4.7281 6.92383e-20)
(15.5378 4.84133 -2.42504e-18)
(15.6996 5.0174 5.60212e-20)
(15.8502 5.2581 -7.27204e-20)
(15.9773 5.55153 -1.56855e-18)
(16.0702 5.86829 1.05384e-18)
(16.1401 6.1646 6.64873e-19)
(16.2204 6.40629 -5.41216e-19)
(16.3514 6.58659 5.3058e-19)
(16.5559 6.72592 -7.10032e-19)
(16.8306 6.84776 0)
(17.1504 6.96925 0)
(17.4879 7.0889 -3.19335e-19)
(17.8125 7.21237 2.38486e-19)
(18.1102 7.34269 -6.62956e-19)
(14.9637 4.59962 -3.30984e-21)
(14.9712 4.60723 -2.9498e-19)
(14.992 4.61607 0)
(15.0052 4.62817 5.89274e-19)
(15.0312 4.62982 -3.09877e-18)
(15.0754 4.62934 1.93951e-20)
(15.1495 4.63179 -5.95562e-20)
(15.2568 4.65238 -1.83721e-18)
(15.397 4.71077 4.38141e-20)
(15.5561 4.82021 2.4316e-18)
(15.7274 4.99379 -5.28689e-20)
(15.8896 5.23434 -1.21029e-18)
(16.0287 5.53064 -1.01338e-19)
(16.1305 5.85174 -9.82499e-19)
(16.2022 6.1478 -7.5633e-19)
(16.277 6.37554 7.95767e-20)
(16.4002 6.52099 0)
(16.6007 6.60249 -1.02157e-19)
(16.879 6.64729 1.29097e-19)
(17.2113 6.67683 0)
(17.5688 6.69533 3.39486e-19)
(17.9187 6.7163 -2.36104e-19)
(18.2451 6.75785 0)
(14.9642 4.5994 5.78411e-19)
(14.9714 4.60742 2.95374e-19)
(14.9919 4.61638 0)
(15.005 4.62941 5.89347e-19)
(15.0299 4.63147 3.11835e-18)
(15.0728 4.63025 1.85381e-18)
(15.1467 4.6297 3.94504e-18)
(15.2555 4.64489 0)
(15.4002 4.69655 3.20215e-18)
(15.567 4.79911 -2.50375e-18)
(15.7498 4.96729 1.83342e-18)
(15.9268 5.20553 1.25388e-18)
(16.0823 5.50442 -1.2867e-20)
(16.1966 5.83278 1.66536e-20)
(16.2699 6.13465 -6.7919e-19)
(16.332 6.35464 4.99722e-19)
(16.432 6.46675 0)
(16.6075 6.48433 3.14029e-19)
(16.8656 6.43831 0)
(17.1842 6.35434 0)
(17.5317 6.24409 -3.34092e-19)
(17.8748 6.13732 -7.68177e-19)
(18.1989 6.06895 6.43327e-19)
(14.9647 4.59925 0)
(14.9716 4.60745 -1.73194e-23)
(14.9923 4.61635 6.75721e-23)
(15.0051 4.62961 -5.93375e-19)
(15.0299 4.63153 -7.73865e-19)
(15.0727 4.62953 -1.85458e-18)
(15.1471 4.62702 -1.98815e-18)
(15.2575 4.63888 -2.17727e-21)
(15.4054 4.68615 -1.56978e-18)
(15.5775 4.78371 -4.99762e-20)
(15.7688 4.94733 4.25364e-20)
(15.9576 5.18289 0)
(16.1274 5.48299 1.29731e-20)
(16.2536 5.81709 -1.67657e-20)
(16.3289 6.12488 9.80979e-19)
(16.3763 6.34018 2.76852e-20)
(16.4448 6.4246 0)
(16.5771 6.38473 5.53078e-20)
(16.7855 6.25095 -1.13331e-19)
(17.0502 6.05205 0)
(17.3426 5.81609 0)
(17.6365 5.5945 4.70276e-19)
(17.9151 5.42528 -3.63167e-19)
(14.9653 4.59908 5.31006e-19)
(14.9718 4.60746 2.98437e-19)
(14.9927 4.61625 0)
(15.0053 4.62967 5.94377e-19)
(15.0298 4.63135 -7.93534e-19)
(15.0727 4.62846 -1.92356e-18)
(15.1475 4.62393 2.06561e-18)
(15.2595 4.63252 -1.94899e-18)
(15.4106 4.67552 -1.63519e-18)
(15.5881 4.76818 3.8632e-18)
(15.788 4.92723 -1.87732e-18)
(15.9891 5.15999 -1.33126e-18)
(16.1739 5.4613 -8.74364e-19)
(16.313 5.80206 0)
(16.39 6.11879 -3.25507e-19)
(16.4181 6.33563 3.87108e-19)
(16.4434 6.40178 2.25205e-20)
(16.5118 6.31459 -3.06498e-19)
(16.6411 6.10209 0)
(16.8209 5.80398 0)
(17.0338 5.47141 0)
(17.2531 5.16581 -6.74725e-19)
(17.4515 4.91586 6.37658e-19)
(14.9658 4.59887 -5.32056e-19)
(14.972 4.60743 7.43936e-21)
(14.993 4.61612 0)
(15.0055 4.6297 -6.09118e-19)
(15.0298 4.63113 -7.82831e-23)
(15.0726 4.62732 2.91016e-18)
(15.1478 4.62074 -4.17831e-18)
(15.2612 4.62602 5.93279e-18)
(15.4153 4.66468 -1.84059e-21)
(15.5983 4.75231 -1.30203e-18)
(15.8069 4.9065 -9.84831e-19)
(16.0206 5.13607 1.33251e-18)
(16.2215 5.43842 8.62201e-19)
(16.3748 5.78693 -5.31301e-19)
(16.4538 6.11668 4.55322e-21)
(16.4598 6.34378 -3.90745e-19)
(16.4315 6.40397 0)
(16.4165 6.28241 0)
(16.4434 6.00739 1.50863e-19)
(16.5209 5.63281 0)
(16.6358 5.22444 0)
(16.7536 4.84885 1.01764e-19)
(16.8499 4.53524 2.49086e-19)
(14.9662 4.59862 0)
(14.9722 4.60739 -3.06987e-19)
(14.9933 4.61596 1.47134e-23)
(15.0057 4.62971 -1.18402e-20)
(15.0298 4.63091 -7.4974e-23)
(15.0724 4.62619 -1.99036e-18)
(15.148 4.61755 2.11258e-18)
(15.2627 4.61948 -3.98562e-18)
(15.4198 4.65369 -1.73164e-18)
(15.608 4.73606 0)
(15.8253 4.88502 9.80116e-19)
(16.052 5.11085 2.64678e-21)
(16.2696 5.41393 -6.81063e-23)
(16.4387 5.77129 5.27083e-19)
(16.5212 6.11874 0)
(16.5038 6.36595 1.39771e-19)
(16.4138 6.43436 -2.91553e-21)
(16.2997 6.29644 0)
(16.2067 5.97827 -1.51197e-19)
(16.1602 5.53849 0)
(16.151 5.06266 0)
(16.1567 4.63836 0)
(16.1552 4.29186 -3.38542e-20)
(14.9666 4.59832 0)
(14.9724 4.60731 1.6562e-19)
(14.9936 4.61579 -2.98704e-24)
(15.0058 4.62972 6.2298e-19)
(15.0297 4.6307 8.64761e-19)
(15.0722 4.62508 2.03544e-18)
(15.148 4.61439 0)
(15.264 4.61291 -2.06332e-18)
(15.4239 4.64257 3.49303e-18)
(15.6172 4.71944 -2.5514e-23)
(15.8432 4.86274 1.01813e-18)
(16.083 5.08421 -7.0826e-19)
(16.3183 5.38757 0)
(16.5052 5.75477 0)
(16.5939 6.12454 2.66733e-19)
(16.5539 6.40214 -1.3665e-19)
(16.3974 6.4966 0)
(16.1717 6.36557 -1.55949e-20)
(15.937 6.02019 -1.4616e-20)
(15.7413 5.53053 0)
(15.6047 5.02823 1.90707e-21)
(15.5168 4.6037 7.78465e-22)
(15.4289 4.25097 -9.01533e-20)
(14.967 4.59798 1.87552e-24)
(14.9726 4.6072 -3.38746e-19)
(14.9939 4.61559 -6.34395e-24)
(15.006 4.62971 0)
(15.0296 4.6305 2.06532e-20)
(15.072 4.62401 -2.07957e-18)
(15.148 4.61126 -4.53734e-22)
(15.2651 4.60635 2.06521e-18)
(15.4277 4.63133 -1.76076e-18)
(15.626 4.70245 1.40007e-18)
(15.8606 4.83964 1.76018e-20)
(16.1138 5.05605 1.43111e-18)
(16.3679 5.35908 -9.38611e-19)
(16.575 5.73677 2.18439e-21)
(16.6738 6.13306 -5.18677e-19)
(16.6149 6.45278 7.70149e-20)
(16.391 6.59609 -7.00464e-22)
(16.042 6.49725 1.54759e-20)
(15.6476 6.14867 1.41956e-20)
(15.3075 5.66031 0)
(15.071 5.19327 -2.56191e-20)
(14.8986 4.79224 0)
(14.7144 4.43201 1.52833e-20)
(14.9673 4.59759 0)
(14.9728 4.60707 1.73126e-19)
(14.9942 4.61537 2.85365e-19)
(15.0062 4.62969 3.31753e-23)
(15.0296 4.63031 -1.79607e-18)
(15.0717 4.62297 1.05162e-18)
(15.1478 4.60817 0)
(15.266 4.59979 0)
(15.4312 4.61997 -9.83798e-22)
(15.6345 4.6851 -1.39966e-18)
(15.8775 4.8157 1.76125e-20)
(16.1444 5.0263 -7.21818e-19)
(16.4182 5.32813 9.33185e-19)
(16.6485 5.71644 0)
(16.7628 6.14332 2.50443e-19)
(16.6923 6.51904 -7.37645e-20)
(16.4042 6.73549 -5.24117e-20)
(15.9256 6.6952 -5.59257e-21)
(15.3739 6.38685 0)
(14.9101 5.95151 0)
(14.5677 5.50996 1.33514e-21)
(14.2584 5.07161 7.95256e-20)
(13.9092 4.64663 -3.20722e-22)
(14.9677 4.59715 0)
(14.973 4.60691 -1.01573e-23)
(14.9945 4.61513 -2.85779e-19)
(15.0064 4.62967 3.47119e-19)
(15.0295 4.63014 9.09126e-19)
(15.0714 4.62197 2.15237e-22)
(15.1476 4.60513 1.15213e-18)
(15.2667 4.59323 1.077e-18)
(15.4344 4.6085 -1.83437e-18)
(15.6425 4.66739 0)
(15.894 4.79091 1.7836e-20)
(16.1746 4.99484 -7.53505e-19)
(16.4694 5.29436 0)
(16.7262 5.69296 -6.92305e-21)
(16.8631 6.15452 2.38058e-19)
(16.7918 6.59964 0)
(16.4467 6.90849 -2.80623e-20)
(15.8435 6.95598 1.4298e-20)
(15.1457 6.73424 -3.15153e-19)
(14.5285 6.34434 0)
(13.9819 5.83622 0)
(13.4404 5.26397 -4.98675e-20)
(12.8626 4.72338 2.20465e-19)
(14.9681 4.59667 -4.12468e-24)
(14.9732 4.60672 5.44031e-24)
(14.9948 4.61486 0)
(15.0066 4.62963 3.65086e-19)
(15.0294 4.62998 -5.13764e-22)
(15.0711 4.62101 4.38186e-22)
(15.1472 4.60213 -1.15283e-18)
(15.2672 4.58668 -1.07915e-18)
(15.4373 4.59694 1.83612e-18)
(15.65 4.64932 -1.45834e-18)
(15.9098 4.76526 -1.07491e-18)
(16.2044 4.96158 7.58953e-19)
(16.5212 5.25739 4.94731e-19)
(16.8083 5.66552 2.76241e-19)
(16.9765 6.16484 -2.21911e-19)
(16.9172 6.68731 3.83617e-21)
(16.5283 7.10176 1.24251e-19)
(15.8176 7.27556 1.60092e-19)
(14.9664 7.17986 7.47892e-20)
(14.1014 6.8098 -1.39504e-19)
(13.2332 6.20336 1.77616e-19)
(12.421 5.50335 0)
(11.6571 4.86792 -1.51799e-19)
(14.9685 4.59615 0)
(14.9734 4.6065 1.96361e-19)
(14.9951 4.61458 3.06405e-19)
(15.0068 4.62959 -3.48744e-19)
(15.0293 4.62984 4.82072e-19)
(15.0707 4.62009 0)
(15.1468 4.59919 1.43103e-21)
(15.2676 4.58016 -1.87192e-21)
(15.4399 4.58528 9.40089e-19)
(15.657 4.63091 2.2035e-18)
(15.9249 4.73874 -1.10352e-18)
(16.2336 4.92643 -5.83639e-21)
(16.5734 5.21689 1.51434e-20)
(16.8949 5.63316 -2.81969e-19)
(17.1037 6.17029 0)
(17.0709 6.77078 -3.02787e-20)
(16.6611 7.30818 1.78719e-19)
(15.873 7.66743 -1.87186e-19)
(14.8477 7.7496 -1.84142e-19)
(13.6574 7.4468 -3.45194e-20)
(12.4245 6.86414 2.47417e-19)
(11.3644 6.17749 -2.05802e-19)
(10.4996 5.54215 -2.17413e-19)
(14.9688 4.59559 1.37045e-19)
(14.9736 4.60626 3.25722e-21)
(14.9953 4.61427 -3.06831e-19)
(15.0069 4.62954 -3.64954e-19)
(15.0292 4.62971 -9.72472e-19)
(15.0703 4.61921 -1.13709e-18)
(15.1462 4.59629 -1.4476e-21)
(15.2677 4.57365 1.89347e-21)
(15.4421 4.57353 -9.40967e-19)
(15.6635 4.61217 -7.41611e-19)
(15.9393 4.71136 2.23589e-18)
(16.262 4.88933 -8.06506e-19)
(16.6259 5.17255 -5.15677e-19)
(16.9857 5.5945 3.02598e-19)
(17.2441 6.16513 -1.93819e-21)
(17.2559 6.84133 2.04555e-20)
(16.8652 7.53572 -1.99664e-19)
(16.0414 8.1541 4.19915e-19)
(14.8245 8.46564 1.23678e-19)
(13.2753 8.31443 0)
(11.6919 7.90026 -3.583e-19)
(10.3798 7.36973 3.82206e-19)
(9.3716 6.84162 -5.35798e-19)
(14.9691 4.59499 -1.37204e-19)
(14.9738 4.60599 -3.01443e-19)
(14.9956 4.61394 -3.2019e-19)
(15.0071 4.62948 3.79479e-19)
(15.0291 4.6296 4.90228e-19)
(15.0698 4.61836 1.13807e-18)
(15.1456 4.59345 1.21072e-18)
(15.2676 4.56717 0)
(15.444 4.56171 9.636e-19)
(15.6695 4.5931 -7.62929e-19)
(15.9529 4.68311 -1.12786e-18)
(16.2896 4.85023 8.06075e-19)
(16.6782 5.12404 0)
(17.08 5.54768 -2.86473e-19)
(17.3968 6.14373 1.03585e-19)
(17.4788 6.89674 2.0142e-20)
(17.1637 7.79402 -9.05561e-20)
(16.3403 8.71486 -1.60042e-19)
(14.8994 9.23617 6.91273e-19)
(12.9788 9.2275 -4.77465e-19)
(11.0714 8.96664 0)
(9.51086 8.57928 1.09003e-18)
(8.33432 8.16559 -1.44359e-18)
(14.9695 4.59434 0)
(14.974 4.60569 1.01429e-19)
(14.9959 4.61359 3.20453e-19)
(15.0073 4.6294 -3.80028e-19)
(15.0289 4.6295 -1.58446e-22)
(15.0693 4.61756 4.63077e-22)
(15.1448 4.59066 -5.99236e-19)
(15.2674 4.56072 0)
(15.4455 4.54982 -9.64478e-19)
(15.6749 4.57373 -1.09263e-20)
(15.9657 4.65403 0)
(16.3161 4.80911 -4.23274e-19)
(16.73 5.071 0)
(17.1766 5.49069 1.58874e-20)
(17.5612 6.10216 -2.71184e-19)
(17.7479 6.93802 -2.56686e-20)
(17.5683 8.07189 -9.68956e-20)
(16.7454 9.26369 4.45339e-19)
(15.0101 9.88503 -3.19673e-19)
(12.7035 9.90393 -6.50484e-19)
(10.5139 9.68139 1.06449e-18)
(8.75571 9.332 -9.43993e-19)
(7.45034 8.95358 3.05634e-18)
(14.9698 4.59366 -1.4982e-19)
(14.9741 4.60536 1.03603e-19)
(14.9962 4.61322 -1.6661e-19)
(15.0075 4.62932 -2.26518e-22)
(15.0288 4.62941 5.5246e-22)
(15.0687 4.6168 -1.23981e-21)
(15.144 4.58793 -6.12917e-19)
(15.2669 4.55432 4.60791e-21)
(15.4467 4.53788 -3.4483e-21)
(15.6797 4.55408 -1.11975e-20)
(15.9775 4.62412 -5.94843e-19)
(16.3413 4.76597 4.09284e-19)
(16.7806 5.01308 1.76254e-20)
(17.274 5.42179 -1.72576e-20)
(17.7374 6.0385 1.55077e-19)
(18.0688 6.96297 0)
(18.0673 8.3292 -1.00794e-19)
(17.1952 9.68722 -3.16606e-19)
(15.0708 10.2667 4.10149e-19)
(12.3716 10.2073 -1.23202e-18)
(9.95422 9.94972 6.46701e-19)
(8.03981 9.58505 -1.48209e-19)
(6.62648 9.20076 -1.68469e-18)
(14.9701 4.59294 3.02346e-19)
(14.9743 4.60501 -1.03728e-19)
(14.9964 4.61282 -3.08176e-21)
(15.0076 4.62923 0)
(15.0286 4.62934 0)
(15.0681 4.61608 -5.96726e-19)
(15.143 4.58527 -6.26267e-19)
(15.2663 4.54795 0)
(15.4475 4.52589 -4.39925e-21)
(15.684 4.53417 7.92356e-19)
(15.9884 4.59344 6.05211e-19)
(16.3651 4.72084 -1.29864e-20)
(16.8294 4.94995 -1.83584e-20)
(17.3708 5.33982 4.2126e-20)
(17.9254 5.95188 -2.36599e-20)
(18.4386 6.96136 0)
(18.6257 8.50878 8.9956e-20)
(17.6144 9.89418 -9.64192e-20)
(15.0167 10.3197 1.00291e-18)
(11.9535 10.145 -5.54879e-19)
(9.36498 9.83938 -9.60021e-19)
(7.31816 9.45692 1.46643e-18)
(5.80016 9.06607 0)
(14.9704 4.59218 -3.06723e-19)
(14.9745 4.60463 1.26636e-23)
(14.9967 4.61241 1.70099e-19)
(15.0078 4.62913 0)
(15.0285 4.62928 0)
(15.0675 4.6154 -6.05191e-21)
(15.142 4.58267 1.25966e-18)
(15.2654 4.54164 0)
(15.448 4.51388 5.07302e-19)
(15.6877 4.51402 0)
(15.9982 4.56203 0)
(16.3872 4.67376 -1.47807e-20)
(16.8755 4.88141 1.87824e-20)
(17.4657 5.24429 1.80649e-19)
(18.1236 5.84123 2.63197e-20)
(18.8444 6.9155 1.20604e-20)
(19.1969 8.55641 -9.36383e-20)
(17.9448 9.84365 0)
(14.8243 10.0698 -3.31131e-19)
(11.4492 9.78683 0)
(8.74275 9.43613 -1.96639e-19)
(6.59122 9.041 -2.82868e-19)
(4.98162 8.65237 0)
(14.9707 4.59138 2.32038e-19)
(14.9747 4.60422 -5.39049e-20)
(14.9969 4.61198 0)
(15.008 4.62902 2.0499e-19)
(15.0283 4.62923 -2.65077e-19)
(15.0669 4.61476 6.04683e-19)
(15.1409 4.58013 -6.3442e-19)
(15.2644 4.53538 -6.01575e-19)
(15.4482 4.50184 -5.04159e-19)
(15.6907 4.49367 -7.04886e-21)
(16.0069 4.52993 9.0696e-21)
(16.4074 4.6248 4.67884e-19)
(16.9182 4.80742 2.05783e-20)
(17.5572 5.13534 -2.51148e-19)
(18.3278 5.70462 2.95011e-20)
(19.2653 6.80509 0)
(19.7347 8.43608 0)
(18.1552 9.53816 0)
(14.5027 9.57473 0)
(10.869 9.21364 1.07398e-19)
(8.08265 8.81659 9.33626e-19)
(5.86741 8.40802 -8.53113e-19)
(4.21155 8.02431 0)
(14.9709 4.59055 -7.77733e-20)
(14.9748 4.60379 1.08754e-19)
(14.9972 4.61153 0)
(15.0082 4.6289 -2.05314e-19)
(15.0281 4.6292 5.34483e-19)
(15.0662 4.61417 0)
(15.1397 4.57766 0)
(15.2632 4.52919 5.99363e-19)
(15.448 4.48981 0)
(15.6932 4.47313 -4.09563e-19)
(16.0144 4.49721 -3.27909e-19)
(16.4254 4.57406 -2.28124e-19)
(16.9568 4.72816 3.43266e-19)
(17.6437 5.01352 0)
(18.5314 5.53947 0)
(19.6762 6.61267 1.56158e-20)
(20.2022 8.13412 -1.88192e-20)
(18.2395 9.00765 0)
(14.0765 8.89644 6.90774e-20)
(10.227 8.49724 -1.15008e-19)
(7.37627 8.0638 -6.37908e-19)
(5.12832 7.63337 8.32894e-19)
(3.47404 7.25191 0)
(14.9712 4.58968 9.95323e-24)
(14.975 4.60333 -1.1066e-19)
(14.9974 4.61105 -6.37069e-23)
(15.0083 4.62877 -1.055e-19)
(15.028 4.62918 -2.69403e-19)
(15.0655 4.61362 3.12952e-19)
(15.1385 4.57526 1.07468e-21)
(15.2619 4.52307 -3.09397e-19)
(15.4474 4.47778 5.34818e-19)
(15.6949 4.45243 4.11009e-19)
(16.0206 4.46394 3.18869e-19)
(16.441 4.5217 -2.39878e-19)
(16.9906 4.64402 -3.432e-19)
(17.7232 4.87977 -3.04733e-20)
(18.7257 5.34336 3.72712e-20)
(20.0517 6.32763 3.40895e-20)
(20.5744 7.65494 -4.13306e-20)
(18.2107 8.29165 0)
(13.5837 8.0898 -7.26187e-20)
(9.55094 7.69315 0)
(6.63296 7.24215 7.04046e-20)
(4.37627 6.78762 0)
(2.78743 6.38565 2.03566e-20)
(14.9714 4.58878 3.93536e-20)
(14.9752 4.60285 5.5814e-20)
(14.9977 4.61056 9.29026e-20)
(15.0085 4.62862 -1.26112e-21)
(15.0278 4.62917 -4.26332e-22)
(15.0648 4.61312 4.57429e-21)
(15.1371 4.57294 -3.3189e-19)
(15.2603 4.51702 -5.33295e-21)
(15.4465 4.46577 -5.26933e-19)
(15.696 4.43162 -7.38378e-21)
(16.0256 4.43018 3.38387e-19)
(16.4541 4.46791 0)
(17.0189 4.55558 -2.46703e-20)
(17.7934 4.73523 3.07817e-20)
(18.9006 5.11493 9.23805e-20)
(20.3684 5.94739 0)
(20.8364 7.01423 0)
(18.0893 7.42296 -4.877e-20)
(13.0619 7.18338 0)
(8.86308 6.83643 -1.04062e-19)
(5.85783 6.40908 1.45395e-19)
(3.58128 5.96897 -8.64201e-21)
(2.05101 5.53702 -5.69318e-19)
(14.9716 4.58784 -7.89061e-20)
(14.9753 4.60234 -2.89899e-20)
(14.9979 4.61005 -1.40146e-19)
(15.0087 4.62847 1.07808e-19)
(15.0276 4.62917 1.39862e-19)
(15.0641 4.61266 -4.78879e-19)
(15.1357 4.57069 3.32677e-19)
(15.2586 4.51105 3.07438e-19)
(15.4451 4.45379 8.5219e-21)
(15.6964 4.41072 -6.17191e-21)
(16.0292 4.39603 -3.29104e-19)
(16.4643 4.41291 -1.28833e-19)
(17.0412 4.46359 1.66406e-19)
(17.8519 4.58139 1.77354e-19)
(19.0461 4.85479 -9.23387e-20)
(20.6066 5.47711 0)
(20.979 6.2335 0)
(17.894 6.42624 -1.48987e-19)
(12.5327 6.18742 1.84791e-19)
(8.16966 5.93303 0)
(5.07335 5.59744 5.13355e-21)