/*--------------------------------*- C++ -*----------------------------------*\
  =========                 |
  \\      /  F ield         | OpenFOAM: The Open Source CFD Toolbox
   \\    /   O peration     | Website:  https://openfoam.org
    \\  /    A nd           | Version:  7
     \\/     M anipulation  |
\*---------------------------------------------------------------------------*/
FoamFile
{
    version     2.0;
    format      ascii;
    class       volScalarField;
    location    "134";
    object      yPlus;
}
// * * * * * * * * * * * * * * * * * * * * * * * * * * * * * * * * * * * * * //

dimensions      [0 0 0 0 0 0 0];

internalField   uniform 0;

boundaryField
{
    inlet
    {
        type            calculated;
        value           uniform 0;
    }
    outlet
    {
        type            calculated;
        value           uniform 0;
    }
    suction_side
    {
        type            calculated;
        value           nonuniform List<scalar> 
56
(
11.5374
11.5709
13.3641
13.7902
16.3354
18.1663
22.7489
29.4185
30.1623
22.33
22.8073
26.1179
24.4732
25.3987
26.0382
30.0639
35.2287
39.5908
40.7691
41.2825
44.1742
36.4596
42.1115
48.0804
46.4159
42.815
39.2113
36.3952
34.272
32.7421
31.1662
30.6383
29.6644
29.2067
30.1494
31.1972
32.8431
34.1623
35.934
38.4898
37.4029
32.0583
23.1465
20.1349
23.2259
25.8125
26.9608
26.6625
25.7139
26.1676
28.407
30.8512
31.7887
31.9759
31.4107
30.9041
)
;
    }
    pressure_side
    {
        type            calculated;
        value           nonuniform List<scalar> 
56
(
54.049
50.4392
49.0136
47.9236
46.7399
45.5088
44.1489
42.8819
41.7703
40.963
40.2959
39.7587
39.3026
38.9101
38.5712
38.2679
37.9983
37.7429
37.4904
37.2194
36.9244
36.6028
36.2736
35.9587
35.6939
35.5241
35.481
35.5514
35.7194
35.8982
36.0027
35.8516
35.2362
33.8699
31.8765
29.2361
25.8771
21.836
17.2576
12.4976
7.80205
5.26913
4.4051
4.44994
4.99541
5.8927
7.09202
7.57299
9.11576
9.50658
9.54339
10.2387
10.0235
10.4589
10.5407
10.894
)
;
    }
    trailing_edge
    {
        type            calculated;
        value           nonuniform List<scalar> 2(163.8 127.515);
    }
    defaultFaces
    {
        type            empty;
    }
}


// ************************************************************************* //
