# Residuals   
# Time        	p             	Ux            	Uy            	k             	omega         
1             	1.000000e+00	1.000000e+00	1.000000e+00	1.000000e+00	1.531210e-03
2             	9.901745e-02	1.384988e-02	1.222344e-01	2.401688e-01	3.449460e-03
3             	6.305736e-02	1.078423e-02	5.156367e-02	8.128437e-02	4.794473e-03
4             	7.252445e-02	8.781527e-03	3.015571e-02	3.121623e-02	2.170162e-03
5             	9.425769e-02	7.844592e-03	2.221634e-02	1.129708e-02	1.379908e-03
6             	1.049110e-01	7.222489e-03	1.506536e-02	4.478232e-03	1.025301e-03
7             	7.484087e-02	5.785027e-03	1.049485e-02	3.756897e-03	8.222789e-04
8             	5.059635e-02	5.077262e-03	8.517755e-03	3.368429e-03	6.545202e-04
9             	3.618261e-02	4.680767e-03	7.254571e-03	2.843094e-03	5.524896e-04
10            	2.985223e-02	4.512520e-03	6.026168e-03	2.860658e-03	4.218573e-04
11            	2.955886e-02	4.401641e-03	5.421033e-03	1.774459e-03	4.588414e-04
12            	2.620822e-02	4.211704e-03	5.212942e-03	1.257486e-03	5.854416e-04
13            	2.437945e-02	4.148668e-03	5.014942e-03	1.190976e-03	9.673472e-04
14            	1.776003e-02	4.129466e-03	4.972734e-03	1.130273e-03	6.005448e-04
15            	1.754601e-02	4.045573e-03	4.859994e-03	1.066992e-03	2.998781e-04
16            	1.650711e-02	3.980125e-03	4.823314e-03	1.004116e-03	2.706352e-04
17            	1.494839e-02	3.943095e-03	4.915125e-03	1.049275e-03	2.918373e-04
18            	1.379064e-02	3.883812e-03	4.961895e-03	9.200710e-04	3.366461e-04
19            	1.267569e-02	3.829651e-03	5.070580e-03	8.623424e-04	3.727020e-04
20            	1.223674e-02	3.776384e-03	5.225430e-03	7.892931e-04	3.636171e-04
21            	1.239270e-02	3.784771e-03	5.454026e-03	8.634608e-04	3.644195e-04
22            	1.260433e-02	3.844336e-03	5.812417e-03	9.333359e-04	4.173487e-04
23            	1.290156e-02	3.878665e-03	6.230635e-03	9.448389e-04	4.324861e-04
24            	1.295972e-02	3.980750e-03	6.863396e-03	9.513717e-04	4.258815e-04
25            	1.240473e-02	4.070711e-03	7.558339e-03	9.380355e-04	4.070325e-04
26            	1.253579e-02	4.205148e-03	8.634793e-03	8.957334e-04	3.855519e-04
27            	1.250860e-02	4.398809e-03	9.998528e-03	8.549594e-04	3.640834e-04
28            	1.242905e-02	4.672181e-03	1.174482e-02	8.406433e-04	3.293546e-04
29            	1.202135e-02	5.048040e-03	1.414074e-02	8.481008e-04	3.147896e-04
30            	1.203874e-02	5.433539e-03	1.705736e-02	8.931009e-04	3.070055e-04
31            	1.188228e-02	5.789576e-03	2.149151e-02	9.722368e-04	2.975405e-04
32            	1.206691e-02	6.184980e-03	2.784148e-02	1.065802e-03	3.030474e-04
33            	1.071771e-02	6.519681e-03	3.722860e-02	1.174922e-03	2.988403e-04
34            	1.111700e-02	6.675925e-03	5.208990e-02	1.257139e-03	2.903487e-04
35            	1.085093e-02	6.877522e-03	7.396803e-02	1.342527e-03	2.841995e-04
36            	1.090743e-02	7.198747e-03	8.525582e-02	1.365483e-03	2.795667e-04
37            	1.319334e-02	7.885772e-03	7.310923e-02	1.352894e-03	2.713756e-04
38            	1.658148e-02	9.106511e-03	6.737321e-02	1.379260e-03	2.771649e-04
39            	1.859890e-02	1.108773e-02	7.257600e-02	1.434378e-03	2.800949e-04
40            	2.029368e-02	1.321498e-02	7.796176e-02	1.583163e-03	2.805985e-04
41            	2.469255e-02	1.651193e-02	9.535828e-02	1.744124e-03	2.823134e-04
42            	2.386854e-02	2.029853e-02	8.610635e-02	1.903703e-03	2.785182e-04
43            	2.461998e-02	2.420976e-02	5.855717e-02	2.029183e-03	2.740842e-04
44            	2.368041e-02	3.000152e-02	4.387869e-02	2.175658e-03	2.676315e-04
45            	2.889423e-02	3.530595e-02	3.531367e-02	2.273457e-03	2.666912e-04
46            	3.439414e-02	3.930229e-02	2.940528e-02	2.416324e-03	2.652230e-04
47            	3.753915e-02	4.246828e-02	2.555907e-02	2.419253e-03	2.628377e-04
48            	5.620693e-02	4.167339e-02	2.283666e-02	2.442465e-03	2.587091e-04
49            	6.145363e-02	3.893584e-02	2.155193e-02	2.375188e-03	2.562546e-04
50            	8.758408e-02	3.395952e-02	2.038544e-02	2.189680e-03	2.523223e-04
51            	1.242705e-01	2.872604e-02	1.879834e-02	2.015741e-03	2.449963e-04
52            	1.417889e-01	2.450932e-02	1.747176e-02	1.830037e-03	2.454541e-04
53            	1.069874e-01	2.109177e-02	1.634755e-02	1.616031e-03	2.423742e-04
54            	6.842029e-02	1.865663e-02	1.561293e-02	1.401424e-03	2.456632e-04
55            	4.953204e-02	1.683180e-02	1.517478e-02	1.216817e-03	2.574290e-04
56            	3.967662e-02	1.561133e-02	1.515738e-02	1.060837e-03	2.735086e-04
57            	3.245361e-02	1.465607e-02	1.525609e-02	9.473499e-04	2.859875e-04
58            	2.733761e-02	1.380573e-02	1.554671e-02	8.699710e-04	2.897565e-04
59            	2.368494e-02	1.295828e-02	1.584079e-02	8.084271e-04	2.986896e-04
60            	1.989498e-02	1.218281e-02	1.628651e-02	7.732246e-04	3.048634e-04
61            	1.843160e-02	1.141309e-02	1.703887e-02	7.439962e-04	3.069878e-04
62            	1.702967e-02	1.067502e-02	1.822096e-02	7.328898e-04	3.104115e-04
63            	1.580921e-02	9.961720e-03	2.001058e-02	7.298106e-04	3.013039e-04
64            	1.525570e-02	9.310752e-03	2.263174e-02	7.399778e-04	2.920345e-04
65            	1.435198e-02	8.687807e-03	2.652481e-02	7.523256e-04	2.841840e-04
66            	1.378379e-02	8.160527e-03	3.171101e-02	7.733193e-04	2.815330e-04
67            	1.394850e-02	7.641195e-03	3.814961e-02	8.029539e-04	2.799635e-04
68            	1.464739e-02	7.346331e-03	4.507339e-02	8.296722e-04	2.864059e-04
69            	1.531015e-02	7.136616e-03	5.050810e-02	8.616788e-04	2.963210e-04
70            	1.594925e-02	7.107718e-03	5.148330e-02	8.833068e-04	2.900701e-04
71            	1.650021e-02	7.178884e-03	4.732918e-02	9.169653e-04	2.975192e-04
72            	1.652785e-02	7.275852e-03	4.060293e-02	9.542398e-04	2.942635e-04
73            	1.679824e-02	7.325190e-03	3.309476e-02	9.671849e-04	2.869367e-04
74            	1.846610e-02	7.369066e-03	2.698035e-02	9.802927e-04	2.882030e-04
75            	1.980213e-02	7.499617e-03	2.295115e-02	9.615498e-04	2.868265e-04
76            	1.932965e-02	7.430913e-03	2.083193e-02	9.769008e-04	2.971800e-04
77            	1.844956e-02	7.322562e-03	1.943078e-02	9.456453e-04	2.880731e-04
78            	1.721808e-02	7.168287e-03	1.825176e-02	9.335507e-04	2.811307e-04
79            	1.699814e-02	6.822798e-03	1.712362e-02	8.711591e-04	2.758168e-04
80            	1.737172e-02	6.502279e-03	1.620196e-02	8.218461e-04	2.739672e-04
81            	1.653865e-02	6.152607e-03	1.567508e-02	7.763981e-04	2.668593e-04
82            	1.482510e-02	5.887891e-03	1.571569e-02	7.408373e-04	2.748098e-04
83            	1.324888e-02	5.719013e-03	1.625496e-02	7.277335e-04	2.776388e-04
84            	1.220896e-02	5.606924e-03	1.742973e-02	7.212101e-04	2.771029e-04
85            	1.130525e-02	5.509266e-03	1.983446e-02	7.212788e-04	2.750682e-04
86            	1.035534e-02	5.455901e-03	2.417987e-02	7.245298e-04	2.751527e-04
87            	9.988078e-03	5.499821e-03	3.160337e-02	7.413858e-04	2.700037e-04
88            	1.003255e-02	5.677586e-03	4.439195e-02	7.637394e-04	2.643537e-04
89            	1.122721e-02	6.018967e-03	6.290627e-02	7.868468e-04	2.695399e-04
90            	1.191322e-02	6.561500e-03	8.275812e-02	8.067732e-04	2.682863e-04
91            	1.314489e-02	7.130310e-03	9.003897e-02	8.509696e-04	2.736586e-04
92            	1.416486e-02	7.920761e-03	8.735331e-02	8.961585e-04	2.718846e-04
93            	1.459153e-02	8.598098e-03	7.093289e-02	9.560991e-04	2.775341e-04
94            	1.573446e-02	9.395473e-03	5.074464e-02	1.010551e-03	2.749862e-04
95            	1.691695e-02	1.012066e-02	3.640785e-02	1.061219e-03	2.732614e-04
96            	1.691437e-02	1.080482e-02	2.736730e-02	1.168865e-03	2.745386e-04
97            	1.787290e-02	1.140554e-02	2.188974e-02	1.222703e-03	2.705362e-04
98            	2.289826e-02	1.175195e-02	1.862867e-02	1.284291e-03	2.698653e-04
99            	2.585815e-02	1.216981e-02	1.645396e-02	1.310351e-03	2.676753e-04
100           	2.654052e-02	1.175487e-02	1.529912e-02	1.317694e-03	2.607794e-04
101           	2.915852e-02	1.092607e-02	1.395357e-02	1.298608e-03	2.523578e-04
102           	2.845373e-02	1.026414e-02	1.287058e-02	1.263060e-03	2.483877e-04
103           	2.517406e-02	9.478949e-03	1.197638e-02	1.209100e-03	2.423266e-04
104           	2.317255e-02	8.790883e-03	1.144060e-02	1.153711e-03	2.383436e-04
105           	2.128065e-02	8.272577e-03	1.114652e-02	1.086559e-03	2.376115e-04
106           	1.850446e-02	8.000702e-03	1.115976e-02	1.027822e-03	2.416243e-04
107           	1.633532e-02	7.827566e-03	1.165556e-02	9.789853e-04	2.454265e-04
108           	1.464045e-02	7.725987e-03	1.269495e-02	9.404054e-04	2.504894e-04
109           	1.315312e-02	7.685449e-03	1.430055e-02	9.085298e-04	2.534495e-04
110           	1.181600e-02	7.669166e-03	1.661777e-02	8.858788e-04	2.571215e-04
111           	1.076072e-02	7.646809e-03	2.020268e-02	8.721743e-04	2.623141e-04
112           	1.070129e-02	7.655956e-03	2.524748e-02	8.624658e-04	2.650328e-04
113           	1.078618e-02	7.709593e-03	3.195138e-02	8.562313e-04	2.664910e-04
114           	1.121737e-02	7.824011e-03	3.962706e-02	8.439719e-04	2.635955e-04
115           	1.210962e-02	7.980989e-03	4.656098e-02	8.466681e-04	2.734663e-04
116           	1.278636e-02	8.240227e-03	4.913746e-02	8.391277e-04	2.708452e-04
117           	1.365542e-02	8.563438e-03	4.583525e-02	8.458670e-04	2.636141e-04
118           	1.429304e-02	8.908392e-03	3.891198e-02	8.599880e-04	2.629181e-04
119           	1.497147e-02	9.229479e-03	3.093410e-02	8.942297e-04	2.550300e-04
120           	1.613707e-02	9.515737e-03	2.497786e-02	9.391192e-04	2.542702e-04
121           	1.733922e-02	9.700449e-03	2.054351e-02	9.636535e-04	2.541696e-04
122           	1.859442e-02	9.766611e-03	1.783945e-02	9.613820e-04	2.559125e-04
123           	1.906727e-02	9.529619e-03	1.594484e-02	9.357307e-04	2.467287e-04
124           	1.939023e-02	9.093919e-03	1.462949e-02	9.025327e-04	2.419576e-04
125           	1.895148e-02	8.601535e-03	1.349609e-02	8.543619e-04	2.319785e-04
126           	1.822781e-02	8.043322e-03	1.258037e-02	8.140697e-04	2.255756e-04
127           	1.768546e-02	7.493507e-03	1.182655e-02	7.684581e-04	2.244497e-04
128           	1.698773e-02	6.998885e-03	1.134015e-02	7.113978e-04	2.208146e-04
129           	1.584266e-02	6.607548e-03	1.099936e-02	6.686431e-04	2.206379e-04
130           	1.456397e-02	6.288869e-03	1.086942e-02	6.308815e-04	2.220816e-04
131           	1.317424e-02	6.063836e-03	1.101746e-02	6.095306e-04	2.260033e-04
132           	1.174667e-02	5.880334e-03	1.145901e-02	5.985403e-04	2.285466e-04
133           	1.041062e-02	5.735071e-03	1.226634e-02	5.818330e-04	2.312360e-04
134           	9.235050e-03	5.648104e-03	1.351402e-02	5.722553e-04	2.344963e-04
