/*--------------------------------*- C++ -*----------------------------------*\
  =========                 |
  \\      /  F ield         | OpenFOAM: The Open Source CFD Toolbox
   \\    /   O peration     | Website:  https://openfoam.org
    \\  /    A nd           | Version:  7
     \\/     M anipulation  |
\*---------------------------------------------------------------------------*/
FoamFile
{
    version     2.0;
    format      ascii;
    class       volScalarField;
    location    "50";
    object      k;
}
// * * * * * * * * * * * * * * * * * * * * * * * * * * * * * * * * * * * * * //

dimensions      [0 2 -2 0 0 0 0];

internalField   nonuniform List<scalar> 
12842
(
0.00570867
0.00511337
0.00473717
0.00449768
0.00433296
0.00421299
0.00412259
0.0040561
0.00400683
0.00397015
0.00394552
0.003926
0.00391982
0.00392521
0.00393727
0.00394994
0.00396797
0.00398363
0.00400664
0.00402454
0.00404299
0.00405604
0.00407208
0.00567204
0.00509312
0.00472377
0.00447538
0.00431847
0.0042007
0.00411612
0.00405306
0.00400569
0.00397023
0.00394603
0.00392603
0.00392233
0.00392876
0.00394102
0.00395355
0.00397094
0.00398564
0.00400926
0.00402461
0.00404525
0.00405614
0.00407322
0.00565074
0.00503265
0.00466087
0.00441972
0.00426742
0.004162
0.00408212
0.00402872
0.00398947
0.00396133
0.00394054
0.00392321
0.00392141
0.003929
0.00394303
0.00395639
0.00397671
0.0039936
0.00401955
0.00403452
0.0040582
0.00407271
0.00408768
0.00560942
0.004997
0.00463787
0.00440071
0.0042528
0.00414519
0.00406754
0.00401611
0.0039806
0.00395475
0.00393599
0.00391985
0.00392118
0.00392984
0.0039449
0.00396003
0.00397895
0.00399849
0.00402637
0.00404198
0.00406231
0.00408766
0.00411459
0.00556516
0.00492096
0.00456716
0.00434516
0.00421259
0.00411874
0.00404463
0.00399267
0.00396258
0.00394439
0.0039291
0.00391546
0.00391928
0.00393248
0.00394918
0.00396247
0.00398294
0.00401251
0.00404603
0.00407445
0.00409242
0.00412912
0.00417102
0.00552548
0.00488512
0.00453812
0.00432003
0.00419354
0.00410057
0.00403437
0.00398422
0.0039518
0.0039352
0.00392363
0.00391209
0.00391659
0.00393211
0.00395004
0.00396892
0.00398758
0.00401777
0.00405294
0.00409627
0.00413405
0.00417657
0.00423728
0.00547517
0.00481235
0.00447495
0.00426758
0.00415293
0.00407023
0.00401283
0.00396812
0.00394003
0.00392664
0.00391683
0.00390773
0.00391386
0.00393372
0.00395259
0.00397334
0.00399627
0.00403191
0.0040794
0.00415648
0.00421684
0.00428562
0.00436474
0.00544141
0.00478103
0.00444966
0.00424884
0.00413099
0.00405265
0.00400191
0.00395988
0.00393318
0.00391894
0.00391127
0.0039046
0.00391109
0.00393347
0.00395325
0.00397837
0.00400772
0.004054
0.0041041
0.00419636
0.00428714
0.00438283
0.0044949
0.00538332
0.00471706
0.004397
0.00421177
0.00410208
0.00402371
0.00398523
0.00394703
0.00392563
0.00391179
0.0039061
0.00390037
0.00390794
0.00393296
0.00395487
0.00398412
0.00402439
0.00408863
0.00416051
0.00429436
0.00440444
0.00453287
0.00466769
0.005359
0.0046872
0.00437389
0.00419626
0.00408765
0.00401288
0.00397364
0.00394172
0.00392137
0.00390703
0.0039006
0.00389677
0.00390529
0.00393211
0.0039582
0.00400137
0.00405082
0.00413901
0.00423226
0.00439502
0.00452751
0.00467747
0.00483288
0.00528927
0.00463155
0.00432572
0.00416455
0.00406284
0.00399261
0.0039593
0.00393125
0.00391494
0.00390204
0.00389438
0.00389305
0.00390283
0.00393187
0.00396752
0.00402253
0.0040905
0.00420736
0.00432419
0.00451425
0.00465803
0.00482914
0.00499441
0.00526357
0.00459624
0.00430406
0.00414834
0.00405153
0.00398375
0.00395132
0.00392589
0.00391186
0.00389741
0.00388913
0.00388912
0.00390056
0.00393423
0.00398309
0.00406349
0.00415162
0.00429915
0.00443456
0.00464492
0.00480425
0.00498947
0.00516143
0.00519664
0.00455765
0.00426345
0.00412127
0.00402947
0.00396743
0.00393635
0.00391551
0.00390534
0.00389409
0.00388386
0.00388505
0.00390005
0.00393726
0.00400333
0.00411399
0.00423232
0.00440788
0.00455995
0.00478469
0.00495331
0.0051506
0.00532475
0.00517183
0.00451932
0.0042423
0.00410242
0.00401961
0.00396019
0.00392952
0.00391023
0.0039019
0.00389158
0.00387894
0.00388182
0.00389993
0.00394555
0.00404231
0.00419
0.00433314
0.0045328
0.00470234
0.0049364
0.00511076
0.00531192
0.00548506
0.00511001
0.00449143
0.00421135
0.00408277
0.00400068
0.00394627
0.00391642
0.00389954
0.00389432
0.00388448
0.00387404
0.00387984
0.00390146
0.00397091
0.00410147
0.00428042
0.00445096
0.00466895
0.0048486
0.0050892
0.00526854
0.0054716
0.00564316
0.00508808
0.00445779
0.00418683
0.00406398
0.00399182
0.00393978
0.00391005
0.00389406
0.00389056
0.00388246
0.00387414
0.00388388
0.00392075
0.00402247
0.0041858
0.00439371
0.00458325
0.00481628
0.00500794
0.00525001
0.00542642
0.00562316
0.00578917
0.00503294
0.00443306
0.00416579
0.00404878
0.00397458
0.00392701
0.00389722
0.00388292
0.0038826
0.00388058
0.00387867
0.00390332
0.00396418
0.00409619
0.00428989
0.00451956
0.00472596
0.00496747
0.00516265
0.00540509
0.00558266
0.00577296
0.00593339
0.00501533
0.00440545
0.00413921
0.0040349
0.0039661
0.00392065
0.00389076
0.00387773
0.00388053
0.00389502
0.00391277
0.00395289
0.00403453
0.00419363
0.00441406
0.00465976
0.00487705
0.00512474
0.0053245
0.00556302
0.00573261
0.00591295
0.00606396
0.00496746
0.00438259
0.00412245
0.00402006
0.00394966
0.00390785
0.00387776
0.00386757
0.00387414
0.00390793
0.00395354
0.00401454
0.00412083
0.00430812
0.00455023
0.00480769
0.00503108
0.00527897
0.00547593
0.00571067
0.00587658
0.00604497
0.00618747
0.00495474
0.00435862
0.00409831
0.00400794
0.00394056
0.00390115
0.00387212
0.00386469
0.00388651
0.00395962
0.0040268
0.00410263
0.00423144
0.00443929
0.00469857
0.00496013
0.00518736
0.00543364
0.00562903
0.0058565
0.00601536
0.0061742
0.00630468
0.00491391
0.00433784
0.00408168
0.00399819
0.00392597
0.0038871
0.00386017
0.00386113
0.00388843
0.00400491
0.00409612
0.00419457
0.00434708
0.00457417
0.00484984
0.00511499
0.00534016
0.00558048
0.00576806
0.00598936
0.0061401
0.00628755
0.00640803
0.00490529
0.00431631
0.00405804
0.00398159
0.00391284
0.00388059
0.00386001
0.00387215
0.00394056
0.00408814
0.00419684
0.00431015
0.00448394
0.00472184
0.00500564
0.00526687
0.00548989
0.00572258
0.00590569
0.00611676
0.0062648
0.00640408
0.00651487
0.00486703
0.00429685
0.00404253
0.00397323
0.00390327
0.00386674
0.00385253
0.0038828
0.00398895
0.00415975
0.00428722
0.00442111
0.0046126
0.00485909
0.00515715
0.00541573
0.00563174
0.00585492
0.00602767
0.00622955
0.00637539
0.00650534
0.00660244
0.00485945
0.00427914
0.00402092
0.00395995
0.00388971
0.0038651
0.0038685
0.00394711
0.00409591
0.00428146
0.00442231
0.00456701
0.00477176
0.00501779
0.00531509
0.00556296
0.00576953
0.00597962
0.00614611
0.00633633
0.00647812
0.00661102
0.00670733
0.00484836
0.00426272
0.00400461
0.00395417
0.00388104
0.00386529
0.00391899
0.00404102
0.00419825
0.00439818
0.00454585
0.00470068
0.00491079
0.00515407
0.00546076
0.0056995
0.00589722
0.00609719
0.00625486
0.00643663
0.00657759
0.00670104
0.0067836
0.00483695
0.00424719
0.00398959
0.00394524
0.00387791
0.00388122
0.00399543
0.00414382
0.00432064
0.00451618
0.00467207
0.00483444
0.00505183
0.00529404
0.00559932
0.00582773
0.00601329
0.00619915
0.00634979
0.00652122
0.00665372
0.00678181
0.00686882
0.00482599
0.00423059
0.00397589
0.00393738
0.00388245
0.00392794
0.00408815
0.0042503
0.00443618
0.00463999
0.00479719
0.00496365
0.00517957
0.00541607
0.00572591
0.00594068
0.00611669
0.00629178
0.00643616
0.00659937
0.0067325
0.00685557
0.006928
0.00481489
0.00421243
0.00396148
0.00393811
0.00391176
0.0040045
0.00419118
0.00436844
0.00456474
0.00476046
0.00491961
0.00508717
0.0053031
0.00553722
0.00584363
0.0060467
0.00620815
0.00636997
0.00650677
0.00666267
0.00678917
0.0069135
0.00699133
0.00480481
0.00419442
0.00394923
0.00395235
0.0039701
0.00409332
0.00430279
0.00448276
0.00468422
0.00488025
0.00503698
0.00520257
0.00541237
0.00564089
0.00594737
0.00613432
0.00628707
0.00643849
0.00657259
0.00672214
0.00685037
0.00697523
0.00704124
0.00479283
0.00417827
0.00394482
0.00398531
0.00404542
0.00420186
0.00441901
0.00460621
0.00480677
0.00499528
0.00514766
0.00530921
0.00551483
0.00574097
0.00604174
0.00621666
0.00635512
0.00649613
0.00662482
0.00676888
0.00689362
0.00701932
0.00708873
0.00477969
0.00416055
0.0039499
0.00403799
0.00413879
0.00430977
0.0045362
0.00472024
0.00492092
0.00510168
0.00525065
0.00540628
0.00560339
0.00582578
0.00612338
0.00628146
0.00641345
0.00654572
0.00667342
0.0068142
0.00694597
0.00706979
0.00712897
0.00476828
0.00414519
0.00397522
0.00410303
0.0042396
0.00442905
0.00465364
0.0048365
0.00502961
0.00520377
0.00534469
0.00549376
0.00568544
0.00590518
0.00619567
0.00634237
0.00646208
0.00658614
0.00671292
0.0068505
0.00697854
0.00710598
0.00716658
0.00475213
0.00413384
0.00402202
0.00418323
0.00434723
0.00453927
0.00476688
0.00494272
0.00513073
0.00529348
0.00542946
0.00557176
0.00575477
0.0059738
0.00625755
0.00638781
0.00650343
0.00662224
0.00674883
0.0068832
0.0070257
0.00714588
0.00719825
0.00473623
0.00413888
0.00408097
0.00426973
0.00445934
0.00465595
0.00487247
0.00504255
0.00521964
0.00537673
0.00550503
0.00564085
0.00581846
0.00603397
0.00631188
0.00643163
0.00653909
0.00665095
0.00677965
0.00691529
0.00705528
0.00717494
0.00722787
0.00472282
0.00415609
0.00415649
0.00436645
0.00456759
0.00475837
0.00497757
0.0051363
0.00530325
0.00544898
0.00557082
0.00570148
0.00587236
0.00609022
0.00635765
0.00646217
0.00656628
0.00667545
0.00680631
0.00693919
0.00709309
0.00720894
0.0072579
0.00470851
0.00419612
0.00423421
0.00446113
0.00467762
0.00486068
0.00506448
0.00521749
0.00537372
0.0055132
0.00562847
0.00575441
0.00592
0.006135
0.0063973
0.00649258
0.00659377
0.00669913
0.00683273
0.00696611
0.007124
0.00723523
0.00728169
0.00468969
0.00424476
0.00432177
0.00456169
0.00477639
0.00495211
0.00515432
0.00529228
0.00543505
0.00556826
0.00567704
0.00580045
0.00596262
0.00618215
0.00643026
0.00651359
0.00661157
0.00671415
0.00685169
0.00698893
0.00715509
0.00726338
0.00730957
0.00467329
0.0043087
0.00440971
0.00465805
0.00487602
0.0050362
0.00522682
0.00536026
0.00549256
0.00561547
0.00571932
0.00584011
0.00599747
0.00621687
0.0064589
0.00653383
0.00663197
0.00673459
0.00687567
0.00700851
0.00718633
0.00729341
0.00733638
0.0046707
0.00437916
0.00449868
0.00475109
0.00496085
0.00511349
0.00529749
0.0054146
0.00553652
0.00565636
0.00575393
0.00587449
0.00603155
0.00625537
0.00648306
0.00654945
0.00664539
0.00674505
0.00689076
0.00703523
0.00721428
0.00731966
0.00736385
0.00468077
0.0044558
0.0045918
0.00484259
0.00504543
0.00518277
0.00535678
0.00546816
0.00558061
0.00569026
0.00578464
0.00590405
0.0060578
0.00628533
0.00650395
0.00656353
0.00665879
0.00676238
0.00691254
0.0070502
0.00724795
0.0073529
0.00739477
0.00469971
0.00454044
0.00467727
0.00492631
0.00511753
0.00524665
0.00541403
0.00551473
0.00561314
0.00571827
0.00580914
0.00592943
0.0060852
0.00631597
0.00652238
0.00657637
0.0066721
0.00677124
0.00692532
0.00707885
0.00727815
0.00738071
0.00742072
0.00473143
0.00462172
0.00476965
0.00500787
0.00518704
0.00530409
0.0054623
0.00554864
0.00564919
0.00574361
0.0058322
0.00595186
0.00610608
0.0063432
0.00653833
0.00658833
0.00667972
0.00678793
0.00694786
0.00709873
0.00730839
0.0074103
0.0074519
0.00477119
0.00471295
0.00485108
0.00508043
0.00524742
0.00535691
0.00550208
0.00559219
0.00567212
0.00576276
0.00585002
0.00597053
0.00612914
0.0063707
0.00655548
0.00660294
0.00669557
0.00680084
0.00696043
0.00712283
0.00734017
0.00743838
0.00747867
0.00481437
0.00479344
0.0049372
0.00515051
0.00530351
0.00540565
0.00554883
0.00562034
0.0056871
0.00577791
0.00586851
0.00598844
0.00614716
0.0063925
0.00656742
0.00661413
0.00670517
0.00681523
0.00698642
0.00715551
0.00736799
0.00746341
0.0075019
0.00486592
0.0048827
0.00501333
0.00521195
0.00535382
0.0054483
0.00557445
0.00564039
0.00569577
0.00578916
0.00588237
0.00600201
0.00616641
0.00642408
0.00658912
0.00663611
0.00672452
0.00684057
0.00700292
0.00717615
0.007387
0.00748504
0.0075384
0.00491423
0.00495751
0.00509002
0.00527018
0.00539665
0.00548831
0.00558726
0.0056471
0.00571149
0.00579937
0.00589792
0.00601759
0.00618635
0.00644056
0.00660228
0.00665397
0.0067421
0.0068608
0.00703513
0.00721699
0.00741734
0.00753019
0.00762073
0.00496588
0.0050353
0.00515826
0.00531792
0.00543651
0.00552181
0.00560304
0.00565627
0.00571909
0.00580799
0.00590928
0.0060272
0.00620006
0.00647482
0.0066276
0.00668127
0.00677123
0.00688957
0.00706708
0.00725595
0.00745865
0.00759282
0.00769953
0.00501635
0.00510127
0.00522319
0.00536179
0.00546789
0.00554999
0.00561652
0.00566457
0.00572072
0.00581654
0.00592255
0.00604177
0.00622524
0.00649895
0.00664834
0.00671509
0.00680184
0.00694004
0.00712099
0.00732063
0.00753659
0.00773541
0.0081357
0.00506031
0.00516176
0.00528183
0.00540073
0.00549919
0.00557519
0.00563438
0.00567156
0.00572559
0.00582397
0.00593236
0.00604916
0.0062377
0.00652717
0.00667308
0.00675148
0.00685852
0.00698112
0.0071769
0.0074025
0.00768118
0.00818679
0.00919884
0.0051122
0.00522261
0.00533706
0.00543922
0.00552517
0.00559536
0.00565132
0.00567846
0.00573456
0.00583319
0.00594499
0.00606292
0.00626212
0.0065677
0.00670955
0.00679824
0.00690035
0.00703611
0.00727563
0.00761258
0.00821858
0.00954313
0.0113264
0.00515454
0.00527063
0.00538609
0.00547257
0.0055506
0.00561558
0.00566913
0.00569132
0.00574616
0.00584141
0.00595414
0.00607063
0.00627879
0.00659647
0.00673942
0.00684083
0.00696708
0.00715623
0.00745042
0.0079436
0.00886221
0.0106626
0.0133782
0.00520004
0.00531968
0.00542726
0.00550464
0.00557287
0.00563164
0.00568465
0.00570516
0.0057585
0.00585119
0.00596512
0.00608311
0.00630463
0.0066428
0.00678316
0.00691887
0.00706143
0.0072395
0.00766126
0.00842858
0.00969808
0.0134352
0.0215502
0.00524001
0.00535796
0.00546322
0.00553193
0.00559538
0.00564895
0.00569846
0.0057224
0.00577132
0.00585979
0.00597313
0.00609098
0.00632393
0.00668217
0.00683046
0.00696099
0.00712429
0.00737258
0.00794105
0.00898452
0.0123098
0.0229535
0.0435393
0.00528083
0.00539677
0.00549363
0.00555698
0.00561691
0.00566556
0.00571139
0.00573948
0.00578508
0.00586934
0.00598205
0.00610204
0.00634944
0.0067297
0.00687904
0.00704718
0.00724287
0.00755207
0.00826883
0.0103256
0.0182535
0.0379282
0.0695805
0.00532026
0.00542945
0.00552175
0.00557923
0.00563902
0.00568321
0.00572422
0.00575692
0.00579856
0.00587757
0.00598898
0.00610962
0.00637182
0.00677362
0.00693069
0.00711427
0.00733992
0.00768926
0.00898202
0.0130786
0.025744
0.0539576
0.094283
0.00535963
0.00546217
0.00554806
0.00559898
0.00566117
0.00570171
0.00573763
0.00577428
0.00581292
0.00588685
0.00599639
0.00611915
0.00639653
0.00681938
0.00698146
0.00719567
0.00744473
0.00795851
0.00959405
0.014584
0.0314779
0.0655754
0.110609
0.00539706
0.00549057
0.00557225
0.00561794
0.0056815
0.00571856
0.00575037
0.00578891
0.00582483
0.00589379
0.00600148
0.00612552
0.00641588
0.00686027
0.00702387
0.00725329
0.00752933
0.00808899
0.00978148
0.0149702
0.0311531
0.0645097
0.109425
0.00543049
0.00551664
0.00559434
0.00563463
0.00570066
0.00573548
0.00576274
0.00580324
0.00583645
0.00590157
0.00600672
0.00613061
0.00643268
0.00689234
0.00706276
0.00731569
0.00760694
0.00819883
0.00993603
0.0152579
0.0315588
0.0653985
0.110638
0.00546357
0.00554198
0.00561633
0.00565287
0.00571898
0.00575097
0.00577559
0.00581585
0.00584741
0.00590804
0.00601029
0.00613709
0.00645036
0.00692941
0.00709514
0.00736152
0.00766245
0.00826603
0.00994853
0.0155586
0.0308991
0.062531
0.106664
0.00549472
0.00556601
0.00563774
0.00567088
0.00573697
0.00576747
0.00578868
0.00582935
0.00585766
0.00591587
0.00601563
0.00614083
0.00646668
0.00696079
0.00712956
0.00739516
0.00769775
0.00829356
0.0100027
0.0150535
0.028194
0.0553658
0.0952305
0.00552372
0.00558994
0.00565869
0.00568954
0.00575418
0.00578166
0.00580158
0.00584066
0.00586854
0.00592246
0.00601802
0.00614328
0.00647472
0.00698127
0.00715395
0.00741215
0.00770759
0.00829245
0.00995223
0.0140544
0.0246633
0.0467423
0.0805221
0.00555268
0.00561276
0.00567971
0.00570887
0.00577044
0.00579715
0.00581592
0.00585341
0.00587761
0.00593015
0.00601898
0.00614306
0.00648487
0.00699839
0.0071707
0.00741838
0.00771243
0.00828404
0.009739
0.01292
0.0210698
0.0381661
0.0651526
0.00557869
0.00563617
0.00570067
0.00572861
0.00578719
0.00581041
0.00582868
0.00586435
0.00588859
0.00593682
0.00602145
0.0061434
0.00648981
0.00700185
0.00717818
0.00742052
0.0077116
0.00823156
0.00943933
0.0118087
0.0178145
0.0305173
0.05099
0.0056028
0.00565685
0.00571947
0.00574707
0.0058019
0.00582447
0.00584337
0.00587599
0.00589723
0.00594418
0.00602239
0.00614483
0.00649199
0.00700745
0.00718057
0.00740853
0.00768254
0.0081397
0.00913073
0.0108399
0.0151032
0.0241958
0.0390736
0.00562877
0.00568004
0.00574176
0.00576742
0.00581706
0.00583757
0.00585633
0.00588678
0.00590721
0.0059505
0.00602417
0.00614544
0.00649313
0.00700774
0.00718125
0.00737934
0.00763236
0.00802279
0.00881721
0.0100136
0.0129549
0.019264
0.0297346
0.00564838
0.00570029
0.00575816
0.00578553
0.00583195
0.00585064
0.00587044
0.00589795
0.00591647
0.0059572
0.00602532
0.0061457
0.0064942
0.00700636
0.00717627
0.00733576
0.00756398
0.00789485
0.00853761
0.00935966
0.0113402
0.0156067
0.0227968
0.00567207
0.00571939
0.00577898
0.00580295
0.00584494
0.00586298
0.00588223
0.00590747
0.00592445
0.00596359
0.00602582
0.00614762
0.00649278
0.00699468
0.00715728
0.00728489
0.00748502
0.00776971
0.00828151
0.00883682
0.01015
0.0129889
0.0178274
0.0056922
0.00574229
0.00579709
0.005822
0.00585847
0.00587637
0.00589666
0.00591883
0.00593413
0.00596832
0.0060264
0.00614632
0.00649337
0.00697146
0.00712943
0.00722787
0.00740083
0.00764073
0.00805201
0.0084313
0.00930193
0.0111874
0.014433
0.00571357
0.00575808
0.00581207
0.00583754
0.00587323
0.00588832
0.00590679
0.00592757
0.00594146
0.00597579
0.00602591
0.00614664
0.00648835
0.00694225
0.00709571
0.00716956
0.00731835
0.00752387
0.00785699
0.00811786
0.00870552
0.00997804
0.01219
0.00573065
0.00577837
0.00583327
0.00585206
0.00588262
0.00589876
0.00591832
0.00593685
0.00594952
0.00597878
0.0060262
0.00614638
0.00647799
0.00690776
0.00705631
0.00711143
0.00723587
0.00741649
0.00768175
0.0078728
0.00828803
0.00919216
0.0108017
0.00575454
0.00579608
0.0058461
0.00587148
0.00589911
0.00591384
0.00593174
0.00594812
0.00595728
0.00597998
0.00602633
0.00614726
0.00646387
0.00687074
0.00701368
0.00705595
0.00716069
0.00732039
0.00753125
0.0076815
0.00800337
0.00868233
0.00994509
0.00576955
0.00581403
0.00585339
0.00587573
0.00590928
0.00592011
0.00593408
0.00595241
0.00596549
0.00598364
0.0060289
0.00614751
0.00644817
0.00683136
0.00697282
0.00700539
0.00709481
0.00723652
0.00740435
0.00753129
0.00780214
0.00835709
0.00946285
0.00577831
0.00581514
0.00585831
0.00588001
0.00591628
0.00592273
0.00593669
0.00595388
0.00596777
0.00598309
0.00602764
0.0061457
0.00643159
0.00679486
0.00693421
0.0069631
0.00703983
0.00716719
0.00730351
0.00742159
0.00767334
0.00815779
0.00916271
0.00577873
0.00581965
0.00585873
0.00588557
0.00591907
0.00592838
0.00593869
0.00595797
0.00596933
0.0059834
0.00602712
0.00614507
0.00641556
0.00676049
0.00690221
0.00692991
0.0069993
0.00711225
0.00722364
0.0073349
0.00758041
0.00803096
0.00899784
0.00578045
0.00582201
0.00586004
0.00588879
0.00592133
0.00592837
0.00594002
0.00595727
0.00597026
0.00598399
0.00602745
0.00614498
0.00640032
0.00673082
0.00687516
0.00690565
0.00696808
0.00706891
0.0071627
0.0072763
0.00751969
0.00794751
0.00886788
0.00578366
0.00582491
0.00586616
0.00589075
0.0059193
0.00592913
0.00594171
0.00595741
0.00597183
0.00598373
0.00602935
0.00614223
0.00638656
0.00670676
0.00685652
0.00688859
0.00694673
0.00703854
0.00712088
0.00723128
0.00748093
0.00790043
0.00878975
0.00578918
0.00582076
0.00587115
0.00589491
0.00592286
0.00592914
0.00594213
0.00595816
0.0059696
0.0059842
0.00602751
0.00614188
0.00637379
0.00668686
0.00684285
0.00687587
0.00693165
0.00701725
0.00709001
0.0072011
0.00743681
0.00785056
0.0087049
0.00579181
0.00582018
0.00586784
0.00589862
0.00592124
0.00593293
0.00594301
0.0059579
0.0059691
0.00598385
0.00602763
0.00614224
0.00636263
0.00667248
0.00683342
0.00686809
0.00692026
0.0070004
0.00706954
0.00717962
0.00741393
0.00779424
0.00861567
0.00578801
0.00582267
0.00586625
0.00589729
0.00592493
0.00593038
0.00594269
0.00595936
0.00596884
0.00598414
0.0060281
0.00614231
0.00635223
0.00666036
0.00682725
0.00686232
0.00691131
0.00698957
0.00705418
0.00717169
0.00738617
0.00776004
0.00857218
0.00578706
0.00582896
0.00586764
0.00589645
0.00592154
0.00593022
0.00594248
0.00595868
0.00596859
0.0059855
0.00602522
0.00614054
0.00634342
0.00665231
0.00682154
0.00685739
0.0069121
0.00698217
0.00704451
0.00716698
0.00737771
0.00773614
0.0084976
0.00578623
0.00582509
0.00586639
0.0058959
0.00592113
0.005932
0.00594199
0.00596014
0.00597187
0.00598532
0.00602461
0.0061371
0.00633516
0.00664412
0.00681803
0.00685433
0.006911
0.00697412
0.00703916
0.00716392
0.00736935
0.00772456
0.00845925
0.00579145
0.00582771
0.00586862
0.00589754
0.00592036
0.00593093
0.00594172
0.00595682
0.00596948
0.00598422
0.00602355
0.00613354
0.00632862
0.00663949
0.00681447
0.00685191
0.00690945
0.00697032
0.00703347
0.00716751
0.00737557
0.00771337
0.0084425
0.00578926
0.00582151
0.00586882
0.0058992
0.00591982
0.0059303
0.00594451
0.00595649
0.00596839
0.00598227
0.00602276
0.00612899
0.00632202
0.00663325
0.00680978
0.00685035
0.00690832
0.00696775
0.00703188
0.00716841
0.00736341
0.00774636
0.00835356
0.00578814
0.00582061
0.00586679
0.0058939
0.00591972
0.00592986
0.0059409
0.00595728
0.0059713
0.00598132
0.00602382
0.00612487
0.00631731
0.00662995
0.00680742
0.00684964
0.0069072
0.00696512
0.00702771
0.00716915
0.0073755
0.00778949
0.00842367
0.00578718
0.0058203
0.00586706
0.00589309
0.0059188
0.00592805
0.00594129
0.00595313
0.00596828
0.00598034
0.00602258
0.00612
0.00631182
0.00662342
0.00680549
0.00684989
0.00690427
0.00696277
0.00702419
0.0071675
0.00743975
0.00783113
0.00848644
0.00578699
0.00581822
0.00586041
0.00589214
0.00591733
0.0059274
0.00594447
0.00595226
0.00596736
0.00597996
0.00602004
0.00611591
0.0063082
0.0066197
0.00680188
0.00685072
0.00690317
0.00696122
0.00702101
0.00716721
0.00744342
0.00786889
0.00851696
0.00578789
0.00581733
0.0058593
0.00589314
0.00591619
0.00592577
0.00594422
0.00595116
0.00596662
0.00598399
0.00601893
0.00611126
0.00630315
0.00661147
0.00680044
0.00684897
0.00690217
0.00695788
0.0070191
0.00716587
0.00745543
0.00788855
0.00852227
0.00578524
0.00580836
0.00585951
0.00589213
0.00591577
0.00592452
0.00594262
0.0059503
0.00596834
0.00598051
0.00601881
0.0061076
0.0063
0.0066067
0.00679882
0.00685135
0.00690064
0.00695554
0.00701904
0.00716645
0.0074862
0.00792528
0.0085248
0.0057824
0.0058065
0.00585602
0.0058923
0.00590869
0.00592651
0.00593997
0.00595072
0.00596806
0.0059824
0.0060142
0.00610333
0.00629492
0.00659622
0.00679752
0.00685659
0.00690013
0.00695181
0.00702021
0.00716263
0.00745067
0.00796343
0.00860565
0.00577664
0.00580788
0.00585448
0.00589344
0.00590675
0.00592461
0.0059366
0.00594523
0.0059662
0.00598101
0.00601404
0.00610024
0.00629184
0.00659056
0.00679126
0.00685853
0.00689998
0.00694943
0.00701713
0.00716206
0.00749155
0.00791726
0.00856143
0.0057728
0.00580621
0.00585081
0.00589635
0.00590614
0.00592167
0.00592998
0.0059441
0.00596478
0.00597824
0.00601626
0.00609626
0.00628656
0.0065785
0.00678964
0.0068664
0.00689649
0.00694341
0.00701937
0.00716089
0.00746252
0.00791192
0.00860025
0.00576502
0.00580507
0.00585038
0.00589525
0.00589843
0.00591964
0.00593365
0.00594144
0.00596312
0.00597464
0.00601552
0.00609343
0.00628328
0.00657193
0.00679064
0.00687365
0.00689866
0.00694086
0.00701701
0.00719407
0.00745335
0.00795343
0.00860925
0.00576087
0.00580149
0.00584767
0.00589043
0.00590144
0.00591352
0.00592801
0.0059408
0.00596007
0.00597223
0.00601247
0.00608929
0.00627782
0.00655748
0.00678324
0.00687506
0.00690406
0.00693716
0.00701234
0.00718459
0.00750063
0.00797727
0.00858646
0.00574677
0.00579745
0.00584704
0.00587946
0.00589565
0.00591254
0.00592974
0.00593874
0.00595732
0.00596787
0.00600946
0.00608689
0.00627296
0.00655015
0.00678025
0.0068766
0.00691174
0.00693926
0.00701043
0.00718485
0.00756785
0.00799342
0.00856904
0.00575523
0.00579208
0.00584987
0.0058763
0.00589783
0.00590451
0.00592892
0.0059378
0.00595346
0.00596464
0.00600556
0.00608149
0.00626415
0.00653015
0.00677135
0.00687767
0.00691989
0.00694388
0.00700864
0.00722843
0.00754722
0.00805296
0.00852739
0.00574296
0.00578133
0.0058511
0.00586625
0.00589559
0.00590365
0.00592586
0.00593921
0.00595081
0.00596419
0.00599819
0.00608074
0.00626545
0.00652756
0.00677578
0.00688704
0.00693143
0.00695803
0.00702364
0.00721937
0.00760781
0.00805655
0.00853016
0.00574828
0.00577683
0.00584395
0.00586394
0.00588909
0.00590717
0.00592092
0.00593831
0.00594478
0.00595648
0.00599508
0.00607415
0.00624972
0.00650021
0.00676265
0.00687418
0.00693877
0.00696842
0.00700891
0.00723078
0.00755115
0.00803203
0.00847286
0.00574261
0.00577441
0.00583244
0.00586629
0.00588182
0.00590573
0.00591544
0.0059332
0.00594122
0.00595419
0.00599642
0.0060662
0.00623266
0.00646959
0.00674884
0.00687232
0.00694169
0.00698694
0.00700787
0.0071927
0.00755411
0.00792996
0.00842225
0.00572373
0.00575747
0.00581672
0.00585923
0.00587575
0.00590012
0.00590505
0.00592616
0.00593155
0.00595479
0.0059937
0.00605857
0.0062131
0.00643643
0.00671212
0.00687869
0.00694192
0.00699986
0.00702117
0.00714522
0.0074989
0.00790879
0.0083585
0.00571205
0.00575383
0.00579579
0.00584445
0.00586879
0.00588761
0.00588915
0.00592069
0.00593189
0.00594772
0.00598556
0.00604818
0.00619176
0.00639971
0.00669097
0.00686976
0.00695549
0.00701732
0.00702469
0.00710302
0.00744502
0.00788243
0.00824837
0.00570195
0.00575955
0.00578849
0.00582226
0.00585971
0.00587576
0.00588399
0.00591211
0.00592337
0.00593093
0.00597452
0.00603554
0.00616742
0.00636124
0.00665434
0.00685901
0.00694087
0.007011
0.00702641
0.00709745
0.00740078
0.00786071
0.00822801
0.00569564
0.00575606
0.00579009
0.0058146
0.00584443
0.00586382
0.00588625
0.00590196
0.00591333
0.00592252
0.00596402
0.00602129
0.00614061
0.00631814
0.00663661
0.00684176
0.00694704
0.00701074
0.00702958
0.00711754
0.00736561
0.00773605
0.00823456
0.00568908
0.00574339
0.00577799
0.00581472
0.00581558
0.00584913
0.00587844
0.00588704
0.00590204
0.00590665
0.00595046
0.00600354
0.00611137
0.00627197
0.00657656
0.00679859
0.00693823
0.00701347
0.00703675
0.00710619
0.00729487
0.00770914
0.00815437
0.0056716
0.005727
0.00575911
0.00580257
0.00580086
0.005837
0.00586635
0.00587127
0.0058885
0.00590576
0.00593073
0.00598265
0.00608103
0.00622385
0.00649543
0.00676219
0.00691422
0.00700585
0.00701516
0.00709199
0.00724136
0.00758384
0.00805628
0.00565045
0.00570468
0.00573874
0.00578315
0.00577701
0.00582369
0.00584892
0.00585402
0.0058708
0.00589153
0.00591221
0.00596173
0.00604749
0.00617275
0.00640254
0.0066996
0.00689226
0.00699684
0.00701447
0.00708576
0.00719621
0.00744588
0.00790044
0.00562475
0.00567844
0.00571581
0.00575994
0.00577441
0.00580635
0.00582829
0.00583652
0.00585212
0.00587296
0.00589769
0.00594084
0.00601296
0.00612129
0.00630538
0.0065946
0.00684268
0.00697075
0.00699875
0.00707253
0.00716287
0.00735745
0.00778596
0.00559432
0.00564504
0.00568483
0.00572951
0.00575228
0.00578135
0.00580231
0.00581277
0.00582705
0.00584701
0.00587428
0.00591329
0.0059747
0.00606754
0.00621624
0.00645292
0.00676231
0.00693342
0.00698718
0.00705793
0.00713455
0.00728711
0.00766602
0.00555631
0.0056092
0.00565225
0.0056966
0.00572329
0.00575228
0.00577283
0.00578628
0.00580014
0.00581923
0.00584749
0.00588216
0.00593627
0.00601353
0.00613333
0.00631392
0.00661606
0.00685629
0.00697661
0.00703146
0.00710671
0.00723141
0.00752967
0.0055125
0.00556653
0.005612
0.0056563
0.00568454
0.00571463
0.00573659
0.00575064
0.00576415
0.00578246
0.00581061
0.005843
0.00589079
0.00595766
0.00605618
0.00619002
0.00640526
0.00673379
0.0068997
0.00698263
0.00705113
0.00716044
0.00734997
0.00546639
0.0055225
0.00556869
0.00561369
0.00564297
0.00567383
0.00569612
0.00571189
0.00572641
0.00574432
0.00577121
0.0058005
0.00584319
0.00589983
0.00598103
0.00608201
0.00623213
0.00648212
0.00677709
0.00691934
0.00700423
0.00708535
0.00721121
0.00540932
0.00546911
0.00551455
0.00556094
0.00559147
0.00562195
0.00564603
0.00566193
0.00567669
0.0056944
0.00571989
0.00574698
0.00578569
0.0058368
0.00590331
0.00598199
0.00608123
0.00624678
0.00647557
0.00677305
0.00692658
0.00703078
0.00710596
0.00534398
0.00541219
0.00545645
0.00550529
0.00553802
0.0055675
0.00559142
0.00560878
0.00562611
0.00564324
0.00566658
0.00569043
0.00572344
0.00576955
0.00582651
0.00589024
0.00596253
0.00606333
0.00623156
0.00642028
0.00672554
0.00691675
0.00703876
0.00526672
0.00534164
0.00538367
0.00543483
0.00547081
0.00549823
0.00552285
0.00554097
0.00555844
0.00557648
0.00559839
0.00562059
0.00564713
0.00568895
0.00573686
0.00579058
0.00584549
0.00590591
0.00600715
0.00614485
0.00633104
0.0066117
0.00686676
0.00518513
0.00526743
0.00530732
0.00536108
0.00540109
0.00542698
0.00545086
0.0054699
0.00549095
0.00550759
0.00552781
0.0055492
0.00557017
0.00560559
0.00564399
0.00569298
0.00574098
0.00578302
0.00583995
0.00591975
0.00603633
0.00621536
0.00646521
0.00508487
0.00517566
0.00521365
0.0052684
0.00531175
0.00533638
0.00535965
0.00537846
0.00539896
0.00541832
0.00543664
0.0054574
0.00547457
0.00550359
0.00553393
0.00557241
0.00561419
0.00564945
0.00568639
0.0057324
0.00579616
0.00589574
0.00606731
0.00498448
0.00508112
0.00511961
0.00517412
0.00522062
0.00524474
0.00526789
0.00528656
0.00530841
0.00532609
0.00534367
0.00536629
0.00537952
0.0054033
0.00542828
0.0054602
0.00549547
0.00552781
0.00555567
0.0055849
0.00561728
0.00567141
0.00575315
0.00486697
0.00496383
0.00500434
0.00505559
0.00510243
0.00512733
0.00514943
0.00516637
0.00518704
0.00520724
0.00522056
0.00524279
0.005258
0.00527442
0.00529417
0.005315
0.00534289
0.00537067
0.00539538
0.00542092
0.00544019
0.00546559
0.0055078
0.00475591
0.00484657
0.00489185
0.00493892
0.00498622
0.00501129