/*--------------------------------*- C++ -*----------------------------------*\
  =========                 |
  \\      /  F ield         | OpenFOAM: The Open Source CFD Toolbox
   \\    /   O peration     | Website:  https://openfoam.org
    \\  /    A nd           | Version:  7
     \\/     M anipulation  |
\*---------------------------------------------------------------------------*/
FoamFile
{
    version     2.0;
    format      ascii;
    class       volScalarField;
    location    "50";
    object      nut;
}
// * * * * * * * * * * * * * * * * * * * * * * * * * * * * * * * * * * * * * //

dimensions      [0 2 -1 0 0 0 0];

internalField   nonuniform List<scalar> 
12842
(
0.00181551
0.00179023
0.00178026
0.00177566
0.00177226
0.00176721
0.00176436
0.0017608
0.00175984
0.00175784
0.00175941
0.00175754
0.00176195
0.00176478
0.00115042
0.000616939
0.000384898
0.00026759
0.000199505
0.000155633
0.00012613
0.00010613
9.09354e-05
0.0018082
0.00179788
0.00178493
0.001777
0.00178214
0.00177285
0.00176738
0.00176198
0.00176035
0.00175817
0.00175954
0.00175757
0.00176284
0.00176564
0.00110981
0.000596013
0.000372317
0.000259556
0.000194194
0.000152
0.000123708
0.000104799
8.975e-05
0.00180988
0.00178949
0.00177652
0.00176525
0.00176533
0.00176674
0.00176364
0.00175986
0.00175991
0.00175852
0.00175968
0.00175802
0.00176307
0.00176582
0.00106526
0.000575532
0.000361646
0.000253423
0.000190404
0.00014955
0.00012211
0.000104124
8.88534e-05
0.00180998
0.00179322
0.00178089
0.00177095
0.00177612
0.00176667
0.00176439
0.00176024
0.00175941
0.00175879
0.00175953
0.00175749
0.00176328
0.00176607
0.0010159
0.000552595
0.000349258
0.000246071
0.000185682
0.000146405
0.000119754
0.00010297
8.79511e-05
0.00180708
0.00178946
0.00178029
0.00176123
0.00176799
0.00176861
0.00176438
0.00175872
0.00175918
0.00175906
0.00176086
0.00175803
0.00176322
0.00176745
0.000970815
0.000530929
0.000337411
0.000239273
0.000181427
0.000143991
0.000117991
0.000102275
8.7572e-05
0.00180691
0.00178684
0.00178094
0.00176722
0.00177221
0.00176804
0.00176466
0.00175843
0.00175776
0.00175733
0.00176052
0.00175802
0.00176247
0.00176737
0.000935957
0.000514186
0.000327884
0.000233262
0.000177368
0.000141636
0.000116792
0.000101808
8.74693e-05
0.00180616
0.00178424
0.00177715
0.00176197
0.00176516
0.00176686
0.00176563
0.00175833
0.00175801
0.00175796
0.00176067
0.00175834
0.00176203
0.00176826
0.00090934
0.000500671
0.000320145
0.000228471
0.000174566
0.000140782
0.000116795
0.000102722
8.85356e-05
0.00180545
0.00178309
0.00177774
0.00176396
0.00176671
0.00176404
0.00176561
0.0017579
0.00175733
0.0017572
0.00176042
0.00175877
0.00176145
0.00176853
0.000908125
0.000498795
0.000318056
0.000226984
0.000173249
0.000140092
0.000116873
0.000103525
8.97655e-05
0.00180413
0.00177954
0.00177335
0.00176373
0.00176214
0.00176004
0.00176589
0.00175743
0.00175675
0.00175672
0.00175961
0.00175856
0.00176102
0.00176878
0.000905197
0.00049566
0.000315961
0.00022624
0.000173493
0.000141665
0.000118544
0.0001058
9.2081e-05
0.00180346
0.00178128
0.00177493
0.00176507
0.00176397
0.00175864
0.00176402
0.00175778
0.0017567
0.00175594
0.00175827
0.00175826
0.00176086
0.00176914
0.000879043
0.000483275
0.000309961
0.000224029
0.000173158
0.00014262
0.00011999
0.000107683
9.40097e-05
0.00180175
0.00177665
0.00176896
0.0017651
0.00176088
0.00175648
0.00176248
0.00175726
0.00175652
0.00175537
0.0017565
0.00175811
0.00176108
0.00176999
0.000863277
0.000476497
0.000307723
0.000224471
0.000174648
0.000144782
0.000122031
0.000109963
9.61267e-05
0.00180124
0.00177752
0.00176991
0.00176446
0.00176252
0.00175557
0.0017612
0.00175723
0.00175751
0.00175479
0.00175552
0.001758
0.0017616
0.00177218
0.000848548
0.000471487
0.000306874
0.000226013
0.000176708
0.000147119
0.000124336
0.000112283
9.83333e-05
0.00179964
0.00177746
0.00176475
0.00176465
0.00176124
0.00175429
0.00175807
0.00175673
0.00175741
0.0017557
0.00175534
0.00175824
0.00176326
0.00176054
0.000834049
0.000467082
0.000307452
0.000228286
0.000179164
0.000149581
0.000126613
0.000114498
0.000100448
0.00179907
0.00177556
0.00176457
0.00176186
0.00176216
0.00175374
0.00175672
0.00175646
0.00175842
0.00175734
0.00175568
0.00175906
0.00176499
0.00172402
0.000821808
0.000466158
0.000309732
0.000231332
0.000182231
0.000152366
0.000129085
0.000116652
0.000102539
0.00179746
0.0017774
0.0017609
0.00176374
0.00176151
0.00175265
0.00175406
0.00175627
0.00175843
0.00175793
0.00175673
0.00176054
0.001767
0.00168881
0.000815229
0.000468009
0.000313529
0.000235002
0.000185408
0.000155162
0.000131593
0.000118761
0.000104689
0.00179707
0.00177536
0.00175886
0.00176055
0.00176212
0.00175211
0.00175307
0.00175611
0.00176002
0.00176092
0.00175977
0.00176449
0.0017764
0.00166694
0.000818517
0.000473598
0.000318767
0.000239189
0.000189098
0.000158232
0.000134199
0.000120764
0.000106799
0.00179593
0.00177525
0.00175689
0.00176295
0.00176032
0.00175095
0.0017512
0.00175586
0.00176069
0.00176452
0.00176541
0.00177505
0.00179579
0.00166738
0.000827227
0.000481735
0.000324938
0.000243804
0.000192712
0.00016127
0.000136991
0.000122935
0.000109178
0.00179595
0.00177397
0.00175352
0.0017621
0.00175927
0.00175048
0.00175065
0.00175635
0.00176358
0.00177489
0.00178281
0.00179819
0.00182177
0.00169031
0.000845896
0.000493445
0.00033264
0.000248943
0.000196934
0.000164715
0.000140023
0.000125286
0.000111744
0.00179559
0.00177194
0.00175192
0.00176266
0.00175608
0.00174961
0.00175007
0.00175706
0.00176539
0.00178409
0.00180366
0.00182543
0.00184201
0.00173213
0.000868452
0.000506891
0.000340765
0.000254572
0.00020117
0.000168333
0.000143483
0.000128052
0.000114746
0.00179595
0.00177053
0.00174809
0.00176323
0.0017542
0.00174949
0.00175059
0.00175777
0.00177276
0.00180871
0.00183587
0.00185345
0.00185914
0.00179265
0.000899813
0.000523735
0.000350548
0.00026077
0.000206234
0.000172576
0.00014755
0.000131559
0.000118333
0.00179655
0.0017683
0.00174571
0.0017634
0.00175184
0.00174945
0.00175072
0.00175963
0.00177641
0.00183054
0.0018674
0.00187241
0.0018675
0.00186606
0.000933073
0.00054116
0.000360435
0.000267637
0.000211473
0.000177263
0.000152213
0.000135731
0.000122471
0.00179641
0.00176673
0.00174011
0.0017627
0.00174924
0.00175066
0.00175288
0.00176345
0.00179829
0.00186259
0.00189369
0.00188276
0.00187464
0.00188758
0.000971836
0.000561162
0.000371775
0.000275036
0.000217834
0.000182833
0.000157967
0.000141238
0.000127759
0.00179797
0.00176484
0.00173697
0.00176262
0.00175009
0.00174981
0.00175353
0.0017697
0.00181818
0.00188816
0.00191289
0.00188719
0.00187475
0.00188664
0.00101697
0.000583152
0.000384014
0.000283623
0.000224584
0.000188986
0.000164492
0.000147669
0.000133813
0.00179806
0.00176366
0.00172838
0.00176185
0.00174967
0.00175313
0.00176033
0.00179119
0.00185353
0.00191623
0.00192213
0.00188514
0.00187617
0.00188732
0.00106378
0.000606463
0.000397172
0.000292519
0.000232528
0.000196209
0.000172097
0.00015564
0.000141654
0.00179836
0.00175981
0.00172207
0.00176337
0.00174929
0.00175541
0.00178001
0.00181218
0.00186951
0.00192639
0.00192
0.00187939
0.00187261
0.00188385
0.00109756
0.000624701
0.000409028
0.000302067
0.00024112
0.000204578
0.000181082
0.000164726
0.00015027
0.00179947
0.00175842
0.00171616
0.00176389
0.00175075
0.00176234
0.00179949
0.00182531
0.00188539
0.0019275
0.00191169
0.00187253
0.0018711
0.00188282
0.00113765
0.000645751
0.00042197
0.000311687
0.000250021
0.000213203
0.000189992
0.000174057
0.000159623
0.00180013
0.00175527
0.00171164
0.00176437
0.00175528
0.00177898
0.00181483
0.00183087
0.00188625
0.00192434
0.00190098
0.00186491
0.00186693
0.00187918
0.00117609
0.000665533
0.000434825
0.000321825
0.000259489
0.000222454
0.000199693
0.000183842
0.000169018
0.00180131
0.00175153
0.00170859
0.00176795
0.00176768
0.00179856
0.00182294
0.00183659
0.00189177
0.00191725
0.00188743
0.00185819
0.00186483
0.00187807
0.00121446
0.000685709
0.000447754
0.000332056
0.00026867
0.000231619
0.000209095
0.000193471
0.000178992
0.00180157
0.00175041
0.00170684
0.00177344
0.00178872
0.00181162
0.00182846
0.00183396
0.00188584
0.00190717
0.00187614
0.00185209
0.00186158
0.00187556
0.00125027
0.000704556
0.000460445
0.000342008
0.000278484
0.000241325
0.000219139
0.00020355
0.000188997
0.00180351
0.00174773
0.00170947
0.00178597
0.0018037
0.00182468
0.00182906
0.00183546
0.00188289
0.00189731
0.00186324
0.00184732
0.00185997
0.00187518
0.00128285
0.00072203
0.000472476
0.000352385
0.000287759
0.000250661
0.000228706
0.000213148
0.00019911
0.00180243
0.00174776
0.00171566
0.00179633
0.00181846
0.00182794
0.00182997
0.00182988
0.00187554
0.00188502
0.00185507
0.00184345
0.00185774
0.00187407
0.00131545
0.000739814
0.000484747
0.000361982
0.000297453
0.000260467
0.00023886
0.000222978
0.000209158
0.00180428
0.00174525
0.00172675
0.00180663
0.0018243
0.00183321
0.00182877
0.00182929
0.00186784
0.00187575
0.00184556
0.0018408
0.00185687
0.00187432
0.0013427
0.000754882
0.000495937
0.00037215
0.000306743
0.000269676
0.000248216
0.000232151
0.000219015
0.00180358
0.00174639
0.00174539
0.00181289
0.00182947
0.00182854
0.0018303
0.00182507
0.0018615
0.00186479
0.00184068
0.00183899
0.00185548
0.00187469
0.00137184
0.000771341
0.000507339
0.000381335
0.000315893
0.000279111
0.000258025
0.000241107
0.000228463
0.00180258
0.00175063
0.00176308
0.00181711
0.0018315
0.00182925
0.00182916
0.00182411
0.00185291
0.00185739
0.00183544
0.00183808
0.00185515
0.00187514
0.00139552
0.000784925
0.000518285
0.000391097
0.000324864
0.000287969
0.000266922
0.000249335
0.000237756
0.00180337
0.00175956
0.00178272
0.00182007
0.00183276
0.00182204
0.0018337
0.00182233
0.00184805
0.00184927
0.00183243
0.00183786
0.00185461
0.00187692
0.00142148
0.000800187
0.000528397
0.000399726
0.000333364
0.000296809
0.000275774
0.000257293
0.000246634
0.00180396
0.00177401
0.0017982
0.00181909
0.00183592
0.00181939
0.00183257
0.00182236
0.00184172
0.00184435
0.00183087
0.00183808
0.00185446
0.00187759
0.00144363
0.000812925
0.000539572
0.000409099
0.000341666
0.00030501
0.000283962
0.000264537
0.000255246
0.00180172
0.00178691
0.00181422
0.00182044
0.00183757
0.0018146
0.00183759
0.00182154
0.00183685
0.00183768
0.00182896
0.0018388
0.00185486
0.00188062
0.00146751
0.000827918
0.000548784
0.000417111
0.000349571
0.00031314
0.000291472
0.000271272
0.000263444
0.00180139
0.00179809
0.00182581
0.00181857
0.00184275
0.00181142
0.00183758
0.001823
0.00183388
0.00183412
0.00182849
0.00183956
0.00185483
0.00188177
0.00148996
0.000840396
0.000559887
0.000425899
0.000356908
0.000320198
0.000298546
0.000277656
0.00027172
0.00180572
0.00180882
0.00183652
0.00181934
0.00184561
0.00180935
0.00184061
0.00182248
0.00182862
0.0018304
0.00182811
0.00184063
0.00185599
0.00188535
0.00151313
0.00085575
0.000569042
0.000433351
0.000364156
0.000327184
0.000304647
0.000283208
0.000279226
0.0018158
0.00181543
0.00184391
0.00181923
0.00185004
0.00180725
0.00184108
0.00182362
0.00182723
0.0018262
0.00182831
0.00184144
0.00185635
0.00188726
0.00153769
0.000868893
0.000579733
0.000441317
0.000370533
0.000332825
0.000310267
0.00028856
0.000286363
0.00182243
0.00182402
0.00184747
0.00181985
0.00185176
0.00180697
0.00184199
0.00182414
0.00182372
0.0018258
0.00182929
0.00184245
0.00185801
0.00189084
0.00156157
0.000885141
0.000589619
0.000448647
0.00037667
0.000338288
0.000315301
0.000293083
0.000292484
0.00183639
0.00182635
0.0018512
0.00182101
0.00185218
0.00180541
0.00184174
0.00182204
0.00182373
0.00182762
0.00182971
0.00184309
0.00185878
0.00189318
0.00158942
0.000900177
0.000599809
0.000455795
0.000382557
0.000343302
0.000319561
0.000296815
0.000297812
0.00184215
0.0018322
0.00184774
0.00181833
0.00185084
0.00180729
0.00183866
0.00182407
0.00182208
0.00182694
0.00183112
0.00184392
0.00186112
0.00189738
0.00161671
0.000917961
0.000611758
0.000463938
0.000387887
0.000347674
0.000323428
0.000300489
0.000303304
0.00184713
0.00182959
0.00184692
0.00182002
0.00184749
0.00180677
0.00183855
0.00182124
0.00181816
0.00183181
0.00183279
0.00184435
0.00186207
0.0018984
0.00164877
0.00093611
0.000622582
0.000471384
0.000394493
0.000353204
0.000327722
0.000304557
0.000308344
0.00184792
0.00183324
0.00184171
0.00181496
0.00184433
0.00180786
0.00183294
0.00181906
0.00181782
0.00183175
0.00183243
0.00184494
0.00186492
0.00190487
0.00168164
0.000958113
0.00063717
0.000481437
0.000400535
0.000358092
0.000331511
0.000308707
0.00031458
0.00185116
0.00183043
0.00183754
0.00181662
0.00183934
0.00181055
0.00182296
0.00181274
0.0018211
0.00183269
0.00183491
0.00184544
0.00186672
0.0019036
0.00172242
0.000980364
0.000651072
0.000491867
0.000409975
0.000366828
0.000339533
0.000319662
0.00032755
0.00185185
0.00183281
0.00183416
0.0018147
0.00183535
0.00181121
0.00181842
0.00181209
0.00182271
0.00183336
0.00183754
0.00184572
0.00186892
0.00191082
0.00175852
0.00101137
0.000670232
0.000504419
0.000419811
0.000375439
0.000348702
0.00033567
0.000351784
0.0018558
0.00183203
0.00183092
0.00181471
0.00183039
0.00181363
0.0018163
0.00180865
0.00182058
0.00183378
0.00183916
0.00184641
0.00187263
0.00191139
0.00180997
0.00103982
0.000689383
0.00052504
0.000438764
0.000402019
0.000394454
0.000398983
0.000404095
0.00185436
0.00183324
0.0018283
0.00181595
0.00182614
0.00181463
0.00181708
0.0018099
0.00182234
0.00183325
0.00184044
0.00184655
0.00187433
0.00191571
0.00186239
0.00108208
0.000720086
0.000543981
0.00046259
0.000429333
0.000429499
0.000434701
0.000460786
0.0018567
0.00183519
0.00182634
0.00181987
0.00182203
0.00181702
0.00181832
0.00180928
0.00182308
0.0018333
0.00184189
0.00184717
0.00187812
0.00191984
0.00187453
0.00112515
0.000749425
0.000583148
0.000502372
0.000487384
0.000516582
0.000585299
0.000708531
0.00185349
0.00183672
0.00182966
0.00182417
0.00181908
0.00181994
0.00182072
0.00180995
0.00182425
0.00183275
0.00184262
0.00184751
0.0018811
0.00192357
0.00187238
0.00114701
0.000777317
0.000607729
0.000543338
0.000538325
0.000613192
0.000857871
0.000764518
0.00185557
0.00183946
0.00183239
0.00182758
0.00181736
0.00182218
0.0018224
0.00181127
0.00182513
0.00183298
0.00184364
0.00184821
0.00188495
0.00192776
0.00186443
0.00119601
0.00083176
0.000669869
0.000630882
0.000652129
0.000833808
0.000675945
0.000621587
0.00185512
0.00184072
0.00183645
0.00183076
0.00181707
0.00182382
0.00182332
0.00181432
0.00182681
0.00183312
0.00184443
0.00184861
0.00188822
0.00193273
0.00186377
0.00121756
0.000859518
0.000710842
0.000704146
0.000884964
0.000762183
0.000722077
0.000802994
0.00185659
0.00184321
0.00183861
0.00183219
0.00181783
0.00182515
0.0018234
0.00181729
0.00182803
0.00183349
0.0018452
0.00184944
0.00189181
0.00193597
0.00185256
0.0012629
0.000936025
0.000800638
0.000904342
0.000844832
0.000764078
0.000819159
0.000941183
0.00185687
0.00184457
0.00184096
0.00183373
0.00181951
0.00182632
0.00182382
0.00182017
0.00182912
0.00183383
0.00184537
0.00184975
0.00189565
0.00193928
0.00184693
0.00125332
0.000947392
0.000848644
0.000986067
0.000852125
0.000815599
0.000926742
0.00104347
0.00185781
0.00184689
0.00184293
0.00183367
0.00182165
0.00182768
0.00182424
0.00182239
0.00182993
0.00183416
0.00184526
0.00185048
0.00189881
0.0019406
0.00183222
0.00131667
0.00104125
0.000976053
0.000923112
0.000756312
0.000842574
0.000974156
0.00108587
0.00185997
0.00184846
0.00184536
0.00183412
0.00182403
0.00182849
0.00182522
0.00182392
0.00183052
0.00183425
0.00184476
0.00185071
0.00190193
0.00194202
0.00182333
0.00143517
0.00117307
0.00108457
0.000846262
0.000709764
0.000811185
0.000940793
0.00105662
0.00186219
0.00184966
0.00184713
0.00183344
0.0018262
0.00182944
0.0018259
0.00182536
0.0018311
0.00183449
0.00184443
0.00185071
0.00190382
0.00194222
0.00181278
0.00150428
0.00127279
0.00102733
0.000791487
0.000717269
0.000801514
0.000942854
0.00105287
0.00186533
0.00185062
0.0018494
0.00183335
0.00182842
0.00182966
0.0018268
0.00182628
0.00183164
0.00183442
0.00184367
0.00185114
0.0019066
0.00194346
0.00180404
0.00157409
0.00125597
0.000991027
0.00076436
0.000722004
0.000794899
0.000911586
0.00103046
0.00186819
0.00185038
0.00185041
0.00183246
0.00183028
0.00183009
0.00182749
0.00182777
0.00183213
0.00183474
0.00184362
0.00185076
0.00190871
0.00194373
0.00179579
0.00155332
0.00122459
0.000946424
0.000756223
0.000679629
0.000722619
0.000798341
0.000915678
0.00187024
0.00185023
0.00185167
0.00183197
0.00183189
0.00182973
0.00182778
0.00182847
0.00183273
0.00183459
0.00184283
0.00185014
0.00190896
0.00194199
0.00178688
0.00153353
0.00120464
0.000938198
0.000731523
0.000628147
0.000630211
0.000695404
0.000808027
0.00187212
0.00184843
0.00185139
0.00183092
0.00183294
0.00182954
0.00182838
0.00182992
0.00183284
0.00183493
0.00184163
0.00184847
0.00190922
0.00194119
0.00178026
0.00153054
0.00118881
0.000929371
0.000711447
0.000580709
0.000558516
0.000606438
0.000707971
0.00187193
0.00184727
0.00185133
0.00183052
0.00183368
0.00182878
0.00182816
0.00183051
0.00183334
0.00183459
0.00184108
0.00184841
0.00190975
0.00193821
0.00177598
0.00152684
0.00118841
0.000911869
0.00068089
0.000528569
0.000504678
0.000533184
0.000616664
0.00187073
0.00184406
0.00184937
0.00182927
0.00183398
0.00182816
0.00182838
0.00183139
0.00183291
0.00183471
0.00183988
0.00184859
0.00190982
0.00193756
0.00177282
0.00151571
0.00117774
0.000897876
0.000663085
0.000498379
0.000465851
0.00047524
0.000537061
0.00186917
0.00184225
0.00184861
0.00182903
0.0018336
0.00182711
0.00182817
0.00183155
0.00183289
0.00183407
0.00183909
0.00184815
0.00190991
0.00193563
0.0017715
0.00150311
0.00116561
0.000882728
0.000636621
0.000484657
0.000441649
0.000432338
0.000470755
0.00186462
0.00183898
0.00184543
0.00182842
0.00183381
0.00182655
0.00182806
0.0018319
0.0018322
0.00183354
0.00183789
0.00184799
0.00191003
0.00193595
0.00176957
0.00149626
0.00115976
0.000866576
0.000620526
0.000484077
0.000431842
0.000406656
0.000421243
0.00186206
0.00183583
0.00184396
0.00182737
0.00183271
0.00182523
0.00182742
0.00183113
0.00183134
0.00183303
0.00183659
0.00184825
0.00190952
0.0019323
0.00176489
0.00148392
0.00114837
0.000848576
0.000621975
0.000495253
0.000433823
0.000392518
0.00038534
0.00185657
0.00183427
0.00184157
0.00182793
0.00183226
0.00182494
0.001828
0.00183134
0.00183065
0.00183136
0.00183506
0.00184735
0.00190958
0.00192511
0.00175728
0.00147381
0.00113673
0.000844727
0.000636547
0.000516136
0.000448625
0.000393894
0.000364095
0.00185319
0.00183055
0.00183845
0.00182678
0.00183226
0.00182419
0.00182654
0.00182996
0.00182957
0.00183104
0.00183333
0.00184775
0.00190835
0.00191817
0.00175107
0.00146669
0.00114166
0.000858081
0.00066273
0.000547192
0.000471768
0.00040306
0.000353791
0.00184759
0.00182961
0.00183835
0.00182623
0.00183041
0.00182278
0.00182649
0.00182926
0.00182832
0.00182898
0.00183184
0.00184751
0.00190512
0.0019088
0.00174221
0.00147032
0.00115955
0.000883894
0.000698345
0.000585858
0.000503763
0.000422894
0.000354657
0.00184317
0.00182669
0.0018341
0.00182623
0.00183092
0.00182355
0.00182605
0.0018287
0.00182744
0.00182558
0.00182935
0.00184768
0.00190162
0.00189876
0.00173964
0.00148316
0.0011888
0.000920089
0.000741848
0.000631381
0.000539777
0.000444177
0.00036026
0.00183811
0.0018254
0.00183024
0.00182219
0.00182949
0.0018206
0.00182257
0.00182556
0.00182625
0.00182402
0.00182916
0.00184832
0.00189704
0.00189166
0.00174338
0.00150284
0.00122651
0.000964313
0.000790436
0.000680634
0.000578328
0.000468621
0.000369146
0.00182957
0.00181815
0.00182464
0.00181684
0.00182634
0.00181808
0.00181934
0.00182224
0.00182303
0.00182104
0.00182835
0.00184788
0.00189191
0.0018881
0.00175204
0.00152836
0.00126983
0.00101402
0.000841524
0.000731287
0.000617195
0.000491147
0.000377048
0.00182105
0.0018121
0.00181866
0.00181531
0.00182195
0.00181791
0.00181664
0.00182071
0.00182117
0.00181965
0.00182716
0.00184775
0.00188761
0.00188687
0.00176459
0.0015569
0.00131579
0.00106606
0.000891741
0.000779606
0.000650042
0.000511298
0.000386991
0.00181633
0.00181016
0.0018146
0.00181456
0.00181948
0.00181616
0.00181678
0.00181773
0.00181897
0.00181868
0.00182735
0.00184792
0.00188403
0.00188776
0.00177914
0.00158675
0.0013603
0.00111734
0.000939698
0.000824063
0.000677956
0.000525299
0.000398846
0.00181389
0.00180978
0.0018126
0.0018139
0.0018175
0.0018157
0.00181691
0.0018177
0.00181928
0.00181904
0.00182775
0.00184709
0.00188092
0.00189013
0.00179466
0.00161507
0.00140139
0.00116594
0.00098427
0.000862305
0.000698925
0.000538036
0.000399364
0.00181326
0.0018073
0.00181462
0.00181409
0.00181732
0.00181552
0.00181658
0.00181668
0.00181826
0.00181823
0.00182693
0.00184772
0.00187828
0.00189311
0.00180979
0.00164104
0.00143785
0.00121043
0.00102472
0.000894868
0.000715711
0.000548818
0.000394416
0.00181193
0.00180669
0.00181348
0.00181583
0.00181505
0.0018165
0.00181588
0.00181717
0.00181775
0.00181857
0.00182578
0.00184794
0.00187601
0.00189658
0.00182311
0.00166324
0.00146831
0.00124842
0.00106023
0.000919232
0.000737226
0.000554187
0.000393787
0.00181175
0.00180661
0.00181266
0.00181448
0.00181656
0.00181532
0.00181597
0.00181757
0.00181752
0.00181863
0.00182619
0.001848
0.00187422
0.00189975
0.00183493
0.00168245
0.00149444
0.00128071
0.00108995
0.000940835
0.000746782
0.000568185
0.000401294
0.00181004
0.0018099
0.00181326
0.00181531
0.00181484
0.00181517
0.00181601
0.00181687
0.00181732
0.00181901
0.00182533
0.00184762
0.00187283
0.00190285
0.00184358
0.00169654
0.00151621
0.0013056
0.00111338
0.000955662
0.000751715
0.000576408
0.000406131
0.00181158
0.00180868
0.00181302
0.00181406
0.00181421
0.00181469
0.00181544
0.00181687
0.00181828
0.00181826
0.00182509
0.00184675
0.00187194
0.00190523
0.00185102
0.00170864
0.00153512
0.00132528
0.00113272
0.000969699
0.000763613
0.000590984
0.000415105
0.00181349
0.00180854
0.0018132
0.00181525
0.00181514
0.00181532
0.00181556
0.00181683
0.00181727
0.00181882
0.00182443
0.0018459
0.00187148
0.00190759
0.0018557
0.00171618
0.00154777
0.00134005
0.00114795
0.000981216
0.000769307
0.000592993
0.000422657
0.00181153
0.00180611
0.00181274
0.00181598
0.00181508
0.00181517
0.00181594
0.00181683
0.00181699
0.00181828
0.00182488
0.00184446
0.00187135
0.00190921
0.00185953
0.00172377
0.00155975
0.00135426
0.00116388
0.000992385
0.00078693
0.000616174
0.000424841
0.00181325
0.00180666
0.00181378
0.00181451
0.00181555
0.00181406
0.00181592
0.001817
0.00181787
0.0018176
0.00182493
0.001844
0.00187163
0.0019108
0.00186197
0.00172795
0.00156607
0.00136607
0.00117905
0.00100268
0.00078887
0.000618115
0.000440396
0.00181289
0.00180605
0.00181366
0.0018138
0.00181525
0.00181466
0.00181613
0.001816
0.00181636
0.00181699
0.001825
0.00184275
0.00187194
0.00191149
0.00186533
0.00173467
0.00157359
0.00138132
0.00119739
0.00101407
0.000797116
0.000623569
0.000462063
0.00181179
0.00180756
0.00181216
0.001813
0.00181518
0.00181444
0.00181702
0.00181563
0.00181588
0.00181792
0.00182393
0.00184217
0.00187256
0.00191212
0.00186651
0.0017385
0.00157741
0.00139574
0.00121665
0.00102905
0.000796687
0.000626347
0.000487408
0.00181234
0.00180746
0.00181259
0.00181505
0.00181489
0.00181324
0.00181727
0.00181474
0.0018159
0.00181822
0.00182469
0.00184122
0.00187295
0.00191174
0.0018702
0.0017457
0.00158517
0.00141489
0.00123993
0.00104835
0.000822364
0.000623334
0.000514868
0.00181209
0.00180356
0.00181308
0.0018151
0.00181389
0.0018124
0.0018172
0.00181487
0.00181665
0.00181807
0.00182431
0.00184026
0.00187355
0.00191154
0.00187204
0.00175075
0.00158928
0.00143231
0.00126364
0.00106912
0.000825898
0.000620509
0.000545004
0.00181213
0.00180289
0.00181124
0.00181558
0.00181172
0.00181387
0.00181702
0.00181494
0.00181703
0.00181799
0.00182327
0.00184032
0.00187382
0.00191022
0.00187673
0.00176187
0.00159956
0.00145496
0.00129104
0.00109566
0.00083008
0.000616066
0.000583468
0.0018116
0.00180447
0.00181124
0.0018163
0.00181168
0.00181407
0.0018161
0.00181386
0.00181712
0.00181754
0.00182254
0.00183857
0.00187419
0.00190961
0.00187784
0.00176809
0.00160552
0.00147418
0.00131539
0.00110789
0.00083465
0.000623695
0.000615534
0.00181051
0.00180516
0.00181086
0.00181898
0.00181297
0.00181388
0.00181577
0.0018148
0.00181731
0.00181726
0.00182329
0.00183857
0.00187429
0.00190787
0.00188375
0.00178203
0.00161854
0.0014985
0.00134577
0.0011266
0.00083193
0.000648254
0.000658166
0.00181156
0.00180701
0.00181208
0.00181909
0.00181152
0.00181436
0.00181581
0.00181447
0.00181799
0.00181708
0.00182368
0.00183713
0.00187437
0.00190702
0.00188746
0.00179029
0.00162641
0.00151803
0.00136812
0.00113146
0.000825083
0.000678183
0.000698643
0.00180997
0.00180938
0.00181265
0.00181978
0.00181291
0.00181322
0.00181557
0.00181509
0.00181797
0.00181711
0.00182388
0.00183628
0.00187442
0.00190461
0.00189299
0.00180422
0.00164399
0.00154424
0.00139986
0.00114788
0.000817511
0.000717907
0.000743074
0.00180634
0.00180873
0.00181566
0.00181725
0.00181353
0.0018132
0.0018164
0.00181487
0.0018183
0.00181724
0.00182458
0.00183603
0.00187384
0.00190371
0.00189591
0.00181082
0.00165377
0.00156346
0.00141513
0.00116035
0.000816852
0.000753177
0.000785887
0.00180913
0.00180648
0.00181735
0.00181674
0.0018129
0.00181305
0.00181691
0.00181405
0.00181921
0.00181828
0.00182545
0.00183578
0.0018731
0.001901
0.00190214
0.00182663
0.00167536
0.00159278
0.00145231
0.00121267
0.00083853
0.000806095
0.000834249
0.00180325
0.00180284
0.001818
0.00181304
0.00181436
0.00181319
0.00181645
0.00181533
0.00181891
0.00181859
0.00182369
0.00183631
0.00187394
0.0018997
0.00190621
0.00183152
0.00168373
0.00161174
0.00145624
0.00120137
0.000866252
0.000841002
0.000880606
0.00180599
0.00180346
0.00181664
0.00181428
0.00181264
0.00181375
0.00181759
0.00181682
0.00181699
0.00181608
0.00182257
0.00183596
0.00187147
0.00189655
0.00191303
0.00184724
0.00171052
0.00164438
0.00149856
0.00125852
0.000917016
0.000911129
0.000940524
0.00180637
0.00180628
0.00181504
0.00181898
0.00181191
0.00181495
0.00181679
0.00181866
0.00181605
0.00181644
0.00182505
0.0018355
0.00186874
0.00189313
0.00191968
0.0018657
0.00173623
0.00167685
0.00154096
0.00130163
0.000978653
0.000944522
0.000989362
0.00180401
0.00180646
0.00181229
0.00181806
0.00181275
0.00181649
0.00181323
0.00181803
0.00181478
0.00181797
0.00182584
0.00183554
0.00186585
0.00188946
0.00191996
0.00188701
0.00176343
0.00170879
0.00158738
0.00134678
0.00104261
0.00100303
0.00104223
0.00180539
0.00180725
0.00180872
0.00181341
0.00181387
0.00181754
0.00180975
0.0018197
0.00181669
0.00181749
0.00182593
0.0018354
0.00186282
0.00188573
0.00192546
0.00190469
0.00179562
0.00174261
0.00163162
0.00140093
0.00111566
0.0010731
0.00109566
0.00180905
0.00180875
0.00180787
0.00181017
0.00181462
0.0018157
0.00181098
0.00181773
0.00181623
0.0018149
0.00182633
0.00183646
0.00185975
0.00188183
0.0019267
0.00192201
0.00182338
0.00177271
0.00167559
0.00147406
0.00119833
0.00115662
0.00117061
0.00181618
0.00181045
0.00181174
0.00181152
0.0018128
0.00181236
0.0018162
0.00181807
0.00181618
0.00181549
0.0018233
0.00183472
0.00185531
0.00187745
0.00193429
0.00193757
0.00185765
0.00180696
0.00172045
0.00155977
0.001295
0.00122972
0.00125972
0.00181741
0.00181139
0.00181312
0.00181893
0.00180788
0.00181155
0.00181757
0.00181727
0.00181701
0.00181441
0.00182187
0.00183311
0.0018505
0.0018725
0.00192957
0.00194586
0.00189034
0.00184342
0.00176811
0.00163837
0.00139333
0.00132247
0.00133818
0.00181213
0.00181291
0.00181436
0.00182085
0.00181116
0.00181252
0.00181714
0.00181794
0.00181728
0.00181805
0.00181949
0.00182747
0.0018457
0.00186719
0.00191868
0.00195574
0.00191817
0.00187904
0.00181051
0.00171209
0.00149734
0.00139278
0.00140808
0.00181231
0.0018115
0.00181604
0.0018209
0.00181063
0.0018142
0.00181662
0.00181928
0.00181707
0.00181887
0.00181922
0.00182589
0.00184171
0.00186119
0.00190424
0.00195761
0.00194647
0.00191395
0.00185834
0.00178312
0.00161159
0.00146511
0.0014592
0.00181196
0.00181056
0.00181454
0.00181534
0.00181792
0.00181479
0.00181584
0.00181907
0.0018162
0.00181874
0.00182086
0.00182527
0.00183798
0.00185523
0.00188811
0.00194576
0.0019637
0.0019448
0.00190186
0.00184572
0.00172828
0.00154633
0.00151647
0.00181749
0.00181024
0.00181128
0.00181261
0.00181627
0.00181442
0.00181548
0.00181577
0.00181513
0.00181803
0.0018215
0.00182511
0.00183506
0.00184953
0.0018751
0.00192254
0.00196975
0.0019679
0.00194342
0.00190565
0.0018284
0.00166905
0.00158215
0.001819
0.00181182
0.00181097
0.00181095
0.001813
0.00181349
0.00181469
0.00181502
0.00181402
0.00181701
0.0018213
0.00182411
0.00183278
0.00184391
0.00186322
0.00189866
0.0019535
0.00197911
0.00197942
0.00195286
0.00190631
0.00181595
0.00167774
0.00181935
0.00181239
0.00181071
0.00180998
0.00181093
0.00181259
0.00181437
0.00181437
0.00181308
0.00181577
0.00182031
0.00182305
0.0018302
0.00183997
0.00185478
0.00187999
0.0019194
0.00197239
0.00199071
0.00198682
0.00196126
0.00191397
0.0018091
0.00181458
0.00181689
0.00181013
0.00180923
0.00180945
0.00181159
0.00181338
0.00181364
0.00181211
0.00181447
0.001819
0.00182144
0.00182799
0.0018356
0.00184626
0.00186461
0.00189221
0.00193482
0.00198355
0.00199777
0.0019965
0.00197508
0.0019254
0.00180552
0.00181873
0.00180883
0.00180828
0.00180844
0.00181052
0.00181264
0.00181284
0.00181135
0.00181327
0.00181747
0.00181938
0.00182517
0.00183302
0.00184038
0.001853
0.00187051
0.00190094
0.00193587
0.00199209
0.002005
0.00200846
0.00198542
0.0017991
0.00181469
0.00180669
0.00180687
0.00180772
0.00180941
0.00181098
0.00181133
0.0018106
0.00181212
0.00181572
0.00181734
0.00182195
0.00182948
0.00183495
0.0018435
0.00185501
0.00187235
0.00190362
0.00192865
0.0019861
0.00201028
0.00201105
0.00179393
0.00181009
0.00180396
0.00180479
0.00180699
0.001808
0.00180922
0.00180986
0.00180949
0.00181092
0.00181406
0.00181505
0.00181758
0.00182571
0.00183134
0.00183689
0.00184517
0.00185426
0.00187284
0.00189637
0.0019208
0.00197304
0.0020074
0.00178912
0.00180642
0.00180082
0.00180227
0.00180605
0.00180663
0.00180681
0.00180726
0.00180847
0.00180944
0.00181159
0.0018136
0.00181434
0.00182044
0.00182516
0.0018297
0.00183526
0.00184112
0.00184992
0.001864
0.00187979
0.00191058
0.00195256
0.00178389
0.0018037
0.00179762
0.0017996
0.00180461
0.00180506
0.00180452
0.00180459
0.00180596