/*--------------------------------*- C++ -*----------------------------------*\
  =========                 |
  \\      /  F ield         | OpenFOAM: The Open Source CFD Toolbox
   \\    /   O peration     | Website:  https://openfoam.org
    \\  /    A nd           | Version:  7
     \\/     M anipulation  |
\*---------------------------------------------------------------------------*/
FoamFile
{
    version     2.0;
    format      ascii;
    class       volScalarField;
    location    "50";
    object      omega;
}
// * * * * * * * * * * * * * * * * * * * * * * * * * * * * * * * * * * * * * //

dimensions      [0 0 -1 0 0 0 0];

internalField   nonuniform List<scalar> 
12842
(
3.14439
2.85626
2.66094
2.53296
2.44488
2.38398
2.33659
2.30356
2.27681
2.25853
2.24253
2.2338
2.2247
2.2242
2.22685
2.23679
2.2522
2.28823
2.33244
2.40271
2.46426
2.53583
2.59019
3.13684
2.83285
2.64648
2.5185
2.42319
2.36947
2.32894
2.30028
2.2755
2.25816
2.24264
2.23378
2.225
2.22513
2.22851
2.23834
2.25554
2.29031
2.33709
2.41192
2.4706
2.54022
2.59736
3.12216
2.81234
2.62359
2.50374
2.41735
2.35576
2.3146
2.28923
2.26686
2.25265
2.23935
2.23161
2.22419
2.22503
2.22952
2.24066
2.26108
2.29658
2.34779
2.4241
2.48884
2.55034
2.61896
3.09915
2.78661
2.60425
2.48494
2.39444
2.34634
2.30535
2.28157
2.26246
2.24857
2.23696
2.23037
2.2238
2.22519
2.23045
2.24256
2.26466
2.30135
2.35544
2.43486
2.49212
2.55969
2.6176
3.07965
2.74997
2.5654
2.46711
2.38271
2.32881
2.29238
2.27021
2.25252
2.24233
2.23136
2.22718
2.2228
2.22494
2.23164
2.24575
2.27079
2.31069
2.36878
2.45207
2.50794
2.57245
2.62523
3.05797
2.73394
2.54816
2.44454
2.36629
2.31927
2.28621
2.26579
2.2482
2.2393
2.22868
2.22529
2.22221
2.22484
2.23211
2.2474
2.27409
2.31634
2.37578
2.46203
2.51575
2.58927
2.63452
3.03139
2.69714
2.51805
2.42205
2.35272
2.30365
2.27275
2.25676
2.24119
2.23364
2.22463
2.2224
2.22123
2.22462
2.23407
2.25135
2.28054
2.32562
2.38811
2.47134
2.52706
2.61584
2.66768
3.01388
2.68132
2.50299
2.4087
2.33823
2.29737
2.26659
2.25262
2.23816
2.23022
2.22178
2.22008
2.22038
2.22415
2.23425
2.25325
2.28512
2.331
2.39512
2.48568
2.54453
2.62709
2.72512
2.98388
2.65072
2.47949
2.38799
2.3279
2.28615
2.25678
2.24591
2.2346
2.22675
2.21987
2.21793
2.21913
2.22354
2.23435
2.25673
2.28647
2.33302
2.39847
2.49543
2.5645
2.66773
2.77367
2.97151
2.63137
2.46426
2.37739
2.31731
2.2818
2.25261
2.24245
2.23223
2.22504
2.21843
2.21626
2.21783
2.22261
2.23424
2.2577
2.28705
2.33532
2.40784
2.51918
2.60647
2.72867
2.85132
2.93563
2.6069
2.44534
2.35938
2.30728
2.27308
2.24644
2.23715
2.22881
2.22291
2.21713
2.21434
2.21616
2.22141
2.2354
2.25687
2.28814
2.34089
2.4215
2.55268
2.6578
2.82903
2.93342
2.92219
2.58576
2.43179
2.35106
2.29871
2.2692
2.24354
2.23414
2.2258
2.22101
2.21537
2.21225
2.21421
2.22
2.2356
2.25657
2.29192
2.35254
2.45413
2.61775
2.73311
2.92532
3.05986
2.88761
2.56414
2.4159
2.33546
2.28786
2.26156
2.23902
2.22886
2.22221
2.21797
2.2126
2.20963
2.21185
2.21902
2.23523
2.25913
2.29985
2.37947
2.49938
2.68868
2.82397
3.05369
3.17833
2.87472
2.5453
2.40416
2.32847
2.28107
2.25814
2.23685
2.2262
2.21898
2.21448
2.20937
2.20676
2.2096
2.21898
2.23626
2.26524
2.32196
2.41827
2.56622
2.78434
2.93059
3.18619
3.33506
2.8429
2.52697
2.39158
2.31483
2.27117
2.25161
2.23278
2.22036
2.21466
2.20969
2.20525
2.20378
2.20795
2.21906
2.24085
2.28302
2.35746
2.47711
2.64291
2.88489
3.05185
3.33029
3.49494
2.83132
2.51092
2.38043
2.30835
2.26535
2.24859
2.2304
2.21743
2.21052
2.20479
2.20151
2.20113
2.20713
2.2216
2.26127
2.31667
2.41213
2.54357
2.74009
3.00287
3.18451
3.48712
3.66623
2.80241
2.49714
2.37111
2.29659
2.25788
2.24278
2.22546
2.21141
2.20516
2.19922
2.19703
2.19899
2.20748
2.23514
2.29085
2.36097
2.47396
2.62878
2.83831
3.1234
3.3289
3.64957
3.85371
2.79258
2.48338
2.36052
2.28983
2.25441
2.23976
2.22246
2.20783
2.20038
2.19451
2.19472
2.19826
2.21462
2.26482
2.33853
2.42256
2.55566
2.71687
2.95711
3.25678
3.47692
3.81782
4.03894
2.76648
2.47333
2.35311
2.28068
2.24914
2.23355
2.21578
2.20116
2.19449
2.19043
2.19196
2.19923
2.23714
2.30807
2.39159
2.4886
2.63473
2.81904
3.06433
3.38841
3.64127
3.99122
4.23981
2.75884
2.46177
2.34446
2.27307
2.24636
2.22989
2.21189
2.19862
2.19234
2.1892
2.19339
2.21351
2.27602
2.36436
2.4603
2.57088
2.7309
2.91933
3.19364
3.52892
3.79778
4.16946
4.43819
2.73519
2.45311
2.33812
2.26731
2.24105
2.2219
2.20491
2.19428
2.18892
2.18783
2.19349
2.2402
2.32775
2.42891
2.5293
2.64922
2.81758
3.02771
3.3019
3.66231
3.97133
4.35516
4.65083
2.73061
2.44311
2.33205
2.2588
2.23689
2.21664
2.20209
2.19578
2.19128
2.19487
2.21622
2.28928
2.3919
2.50153
2.60969
2.74024
2.91658
3.1305
3.43012
3.79847
4.1374
4.54139
4.86251
2.70696
2.43469
2.32735
2.25416
2.23032
2.20981
2.19702
2.19405
2.19392
2.20308
2.24123
2.34269
2.46038
2.57553
2.68464
2.82113
3.00283
3.23612
3.5361
3.92629
4.31274
4.74511
5.08494
2.7026
2.42628
2.32641
2.24761
2.22311
2.20469
2.1976
2.20363
2.20979
2.23431
2.30074
2.42264
2.54335
2.65869
2.77026
2.91246
3.09752
3.33533
3.65416
4.05611
4.46877
4.93609
5.32052
2.69599
2.42227
2.32547
2.2424
2.21864
2.20194
2.20167
2.22992
2.24564
2.28312
2.36763
2.50118
2.62243
2.73592
2.84653
2.99198
3.18165
3.43615
3.7647
4.18726
4.63677
5.133
5.53663
2.68798
2.41534
2.32472
2.23667
2.215
2.20231
2.22032
2.2702
2.29164
2.34303
2.44395
2.58177
2.69992
2.81176
2.92364
3.0727
3.26496
3.52743
3.86424
4.30151
4.77389
5.29806
5.73864
2.68091
2.41022
2.32285
2.23161
2.21187
2.20798
2.25263
2.32146
2.35185
2.41121
2.52353
2.6616
2.77438
2.88215
2.99339
3.14381
3.33958
3.61096
3.96644
4.41935
4.91859
5.46612
5.91841
2.673
2.405
2.31856
2.2275
2.21293
2.22651
2.29913
2.37856
2.41295
2.48296
2.60651
2.7377
2.84374
2.94836
3.05843
3.20959
3.40782
3.69159
4.04687
4.51374
5.03534
5.60436
6.0845
2.66701
2.39625
2.31376
2.22863
2.21952
2.25948
2.35323
2.44431
2.48389
2.5589
2.68476
2.80903
2.90741
3.00758
3.11823
3.27019
3.47123
3.75632
4.13574
4.61717
5.15992
5.74368
6.23655
2.65751
2.39068
2.30763
2.23145
2.24284
2.30279
2.41601
2.50956
2.55287
2.63282
2.76274
2.874
2.96501
3.06156
3.16866
3.31928
3.52409
3.82547
4.20415
4.6946
5.25918
5.85871
6.36847
2.6518
2.38051
2.30226
2.24791
2.27599
2.35772
2.47884
2.57954
2.62373
2.70643
2.83043
2.93269
3.01624
3.10863
3.21734
3.36878
3.57543
3.87436
4.27471
4.78325
5.36433
5.96918
6.48775
2.64276
2.37513
2.30214
2.27109
2.32396
2.41601
2.54468
2.64392
2.69274
2.77424
2.89597
2.98444
3.06184
3.15057
3.2543
3.40369
3.61628
3.93132
4.3354
4.84628
5.45059
6.06238
6.59247
2.63483
2.36708
2.30437
2.30749
2.37623
2.48246
2.60443
2.70824
2.75623
2.83865
2.9497
3.02979
3.1015
3.18655
3.29168
3.44197
3.6542
3.96896
4.38923
4.92273
5.53908
6.14422
6.67487
2.62747
2.36423
2.31468
2.34974
2.43481
2.54528
2.66378
2.76438
2.81699
2.89477
2.9993
3.06888
3.13639
3.21788
3.31844
3.46686
3.68895
4.01542
4.4403
4.97732
5.61555
6.21376
6.76173
2.61888
2.362
2.33154
2.39905
2.4922
2.61156
2.7145
2.81854
2.86964
2.94655
3.04013
3.10224
3.16636
3.2448
3.3456
3.49589
3.71391
4.04576
4.48582
5.04627
5.68641
6.27402
6.82439
2.61009
2.36532
2.3547
2.45239
2.54783
2.6716
2.76359
2.86304
2.91776
2.98924
3.0742
3.13067
3.19231
3.26749
3.36538
3.51351
3.74575
4.08461
4.52497
5.09744
5.75062
6.32546
6.89678
2.6029
2.37547
2.38216
2.50581
2.5993
2.72903
2.80493
2.90539
2.95889
3.03004
3.10396
3.15448
3.21459
3.28729
3.38459
3.53693
3.76306
4.11048
4.56891
5.15856
5.79914
6.36718
6.95211
2.59427
2.39626
2.41521
2.56138
2.64606
2.78025
2.8444
2.94035
2.99505
3.06167
3.12789
3.17473
3.23343
3.30374
3.40023
3.54998
3.79077
4.14254
4.59815
5.20533
5.8484
6.4181
7.04351
2.58662
2.42101
2.44957
2.61143
2.68792
2.82614
2.87812
2.971
3.02771
3.09024
3.14748
3.19157
3.24978
3.31788
3.41361
3.56983
3.80613
4.16552
4.63965
5.25417
5.88991
6.46605
7.13167
2.57779
2.45441
2.49025
2.66189
2.72719
2.86776
2.90959
2.99851
3.05414
3.11591
3.16394
3.20621
3.26328
3.3304
3.42737
3.58108
3.82836
4.18914
4.66653
5.29514
5.92691
6.52321
7.22755
2.57881
2.48925
2.53172
2.70699
2.7636
2.90356
2.93922
3.0232
3.07786
3.13193
3.17562
3.21823
3.27511
3.34029
3.43708
3.59859
3.84605
4.21376
4.69844
5.32687
5.96887
6.58509
7.32546
2.57649
2.53058
2.57652
2.75005
2.80051
2.93789
2.96583
3.04529
3.09761
3.14267
3.1875
3.22928
3.28499
3.35055
3.44999
3.61097
3.86137
4.22927
4.72759
5.36731
6.00724
6.63265
7.39853
2.59001
2.57229
2.62541
2.794
2.83516
2.96405
2.99243
3.06578
3.11299
3.15433
3.19477
3.23796
3.29325
3.35764
3.45887
3.62737
3.88586
4.25725
4.74952
5.39204
6.03624
6.68242
7.4929
2.60641
2.61995
2.67321
2.82992
2.87066
2.99188
3.01804
3.086
3.12794
3.15421
3.20195
3.24691
3.30125
3.36731
3.47212
3.64118
3.89969
4.27532
4.78776
5.44077
6.0933
6.7584
7.57966
2.63319
2.66343
2.7221
2.87167
2.90286
3.01367
3.04127
3.10072
3.1333
3.16045
3.21015
3.25323
3.30654
3.37246
3.4816
3.66308
3.92964
4.30721
4.81578
5.48291
6.15387
6.85176
7.7045
2.65468
2.70839
2.77002
2.90109
2.93402
3.0313
3.06493
3.11522
3.13628
3.16441
3.21429
3.26078
3.31402
3.38336
3.4993
3.67707
3.9503
4.34634
4.87685
5.58395
6.31363
7.11466
7.98966
2.68157
2.74731
2.81232
2.93046
2.96211
3.04868
3.08128
3.1214
3.13769
3.16795
3.21587
3.2655
3.31746
3.3885
3.50944
3.71084
3.99138
4.37897
4.93332
5.67492
6.46161
7.38091
8.40654
2.70307
2.7845
2.85276
2.95463
2.98729
3.06015
3.09228
3.13193
3.14225
3.17188
3.22024
3.27217
3.32433
3.40012
3.53452
3.73654
4.02997
4.47991
5.06905
5.97371
7.13295
8.48832
9.54264
2.72887
2.81564
2.88894
2.97404
3.01137
3.07236
3.10078
3.13363
3.14189
3.17686
3.22334
3.27592
3.32796
3.40717
3.54923
3.77162
4.09698
4.54358
5.22084
6.25198
7.66738
9.17946
10.3949
2.75338
2.84582
2.92228
2.98879
3.03243
3.07942
3.10799
3.13853
3.14554
3.1818
3.22766
3.28228
3.33425
3.42096
3.57932
3.83867
4.19612
4.75729
5.59115
6.8661
8.71582
10.6229
12.4534
2.781
2.86958
2.94377
3.00003
3.05133
3.08559
3.11367
3.14447
3.14988
3.18724
3.23134
3.28584
3.33784
3.42929
3.59938
3.87167
4.27348
4.89135
5.86658
7.35552
9.44176
12.4292
17.4988
2.8024
2.89197
2.96184
3.01199
3.06646
3.09061
3.11932
3.14982
3.15512
3.19217
3.23552
3.29135
3.34473
3.44586
3.63819
3.96253
4.48507
5.23507
6.55715
8.08778
11.6311
19.8761
34.6696
2.82462
2.9108
2.97488
3.02165
3.07935
3.09731
3.12533
3.15401
3.15923
3.19662
3.23847
3.29489
3.34915
3.45738
3.66485
4.02376
4.60046
5.50993
6.98263
9.50622
16.1507
31.7882
54.2212
2.84436
2.92792
2.98793
3.03298
3.0899
3.10416
3.13227
3.15827
3.16465
3.20118
3.24195
3.2994
3.35627
3.47614
3.71327
4.1354
4.86298
5.97685
8.17995
12.222
23.8896
46.3014
73.9288
2.86517
2.94348
2.99939
3.04256
3.0992
3.11183
3.13859
3.16285
3.17014
3.20508
3.24541
3.30295
3.36128
3.49285
3.75256
4.22856
5.07
6.42418
8.94954
15.3482
31.5645
58.2229
90.3552
2.88492
2.9575
3.01045
3.05342
3.10771
3.11965
3.14521
3.16852
3.17657
3.20956
3.24961
3.30679
3.3687
3.51406
3.81039
4.37604
5.40152
7.03823
10.3932
19.2831
37.3592
67.3151
101.862
2.9017
2.97034
3.0196
3.06302
3.11481
3.12747
3.15051
3.17389
3.18206
3.21319
3.25325
3.30983
3.37335
3.53254
3.85223
4.47756
5.62588
7.45822
11.5585
21.0918
38.4044
68.5695
103.561
2.91619
2.98252
3.02866
3.07326
3.1216
3.13509
3.1561
3.17923
3.18741
3.217
3.25668
3.31258
3.37883
3.54869
3.8961
4.57877
5.85521
7.98069
12.5536
21.2722
39.374
69.3622
105.082
2.92901
2.99466
3.03683
3.08337
3.12782
3.1432
3.16159
3.18454
3.19244
3.22066
3.25996
3.31531
3.38318
3.56551
3.93291
4.67668
6.10081
8.34088
13.0155
21.5492
38.8717
68.5959
103.511
2.9412
3.00804
3.04676
3.09469
3.13448
3.15147
3.16756
3.18933
3.19719
3.22436
3.26294
3.31801
3.38798
3.58116
3.97015
4.76087
6.28597
8.76305
13.2272
22.1495
39.0165
69.351
104
2.95348
3.02121
3.05599
3.1057
3.14112
3.15985
3.17411
3.19428
3.20207
3.22821
3.26564
3.32044
3.39175
3.59491
4.00361
4.83338
6.39824
8.8387
13.6048
22.3744
39.135
67.2161
99.6527
2.96598
3.03649
3.06781
3.11803
3.14819
3.16864
3.1809
3.19872
3.20682
3.23181
3.26829
3.32331
3.3966
3.60521
4.02789
4.84689
6.48754
8.9136
13.689
22.2486
37.7247
62.9349
92.0271
2.98018
3.05108
3.07923
3.12949
3.15606
3.17721
3.18827
3.20367
3.21194
3.23605
3.2706
3.32361
3.39826
3.61254
4.04182
4.86007
6.48902
9.02714
13.8632
22.3408
35.2987
57.236
82.6868
2.99497
3.06761
3.09266
3.14173
3.16355
3.18597
3.19593
3.20848
3.21742
3.23985
3.27325
3.32407
3.39927
3.61664
4.05037
4.88783
6.5231
9.06551
13.7701
21.7504
32.4206
50.9128
72.7546
3.01137
3.0832
3.10599
3.15327
3.17248
3.19498
3.20339
3.2141
3.22289
3.24441
3.27563
3.32518
3.39971
3.62038
4.05377
4.9094
6.54797
9.08863
13.85
20.6613
29.333
44.5578
63.1636
3.02924
3.0997
3.12023
3.16422
3.18023
3.20311
3.21129
3.21957
3.22916
3.24901
3.27839
3.32562
3.40005
3.61909
4.05537
4.90272
6.52203
9.11039
13.7587
19.3351
26.26
38.3782
54.118
3.04613
3.11542
3.134
3.17558
3.18923
3.21219
3.21887
3.22613
3.23504
3.25341
3.28099
3.32618
3.40022
3.61987
4.05537
4.90923
6.51794
9.15617
13.3149
17.843
23.3965
33.0913
46.2641
3.06597
3.13055
3.14791
3.18502
3.19741
3.22003
3.22574
3.23197
3.24154
3.25895
3.28403
3.32711
3.40041
3.62134
4.05709
4.9042
6.51064
9.04521
12.6495
16.3354
20.7343
28.402
39.6406
3.0831
3.14554
3.16139
3.19554
3.20545
3.22792
3.23386
3.23918
3.24746
3.26361
3.28687
3.32656
3.39997
3.61921
4.05222
4.88825
6.41026
8.76825
11.8555
14.8355
18.453
24.7557
34.4555
3.1017
3.15826
3.17311
3.20445
3.21383
3.23613
3.24028
3.24549
3.25409
3.26891
3.28969
3.32684
3.40031
3.61891
4.0502
4.83665
6.24023
8.3907
10.9999
13.4381
16.4522
21.7363
30.4568
3.12209
3.173
3.18746
3.21508
3.22193
3.24304
3.24841
3.25265
3.25989
3.27565
3.29424
3.32702
3.39915
3.61854
4.03167
4.75738
6.02345
7.95617
10.152
12.1662
14.8272
19.547
27.6053
3.13885
3.18508
3.19816
3.22454
3.23001
3.25173
3.2559
3.26059
3.26652
3.28048
3.29599
3.326
3.39907
3.61131
3.9996
4.66142
5.78456
7.50432
9.36743
11.0651
13.4909
17.8333
25.6345
3.15829
3.19839
3.21067
3.2364
3.23943
3.25769
3.2631
3.26735
3.27354
3.28553
3.29676
3.32581
3.39953
3.59878
3.9578
4.55593
5.5439
7.0681
8.6789
10.1487
12.4326
16.6097
24.3012
3.1733
3.21155
3.22146
3.24219
3.24875
3.2611
3.26906
3.27233
3.27774
3.28821
3.29863
3.32571
3.39877
3.58292
3.9115
4.4511
5.31948
6.67154
8.1006
9.40848
11.6614
15.707
23.2508
3.18249
3.2163
3.22938
3.24529
3.2544
3.26423
3.26953
3.2773
3.28222
3.29029
3.29846
3.32534
3.39715
3.5655
3.86432
4.35207
5.12245
6.32654
7.62234
8.82978
11.0917
15.1295
22.2339
3.18855
3.21857
3.23632
3.24757
3.25684
3.26549
3.27023
3.27745
3.28253
3.28949
3.29878
3.32535
3.39545
3.54832
3.82052
4.2652
4.95703
6.03681
7.23468
8.38599
10.7035
14.6838
22.0093
3.19269
3.22069
3.23546
3.24951
3.25911
3.26581
3.27105
3.27971
3.28313
3.29122
3.29926
3.32403
3.39342
3.53222
3.78102
4.18994
4.82085
5.79734
6.91894
8.0471
10.3908
14.3045
22.0703
3.19648
3.22147
3.23568
3.24843
3.26231
3.26613
3.27279
3.27868
3.28378
3.29042
3.30139
3.32383
3.39157
3.51817
3.74822
4.12934
4.71309
5.60739
6.66793
7.81046
10.0565
14.0643
21.879
3.19471
3.22298
3.23627
3.25012
3.26162
3.26686
3.27245
3.27874
3.28405
3.29046
3.30091
3.32376
3.38926
3.50592
3.72072
4.07877
4.62467
5.45758
6.47203
7.62268
9.89066
13.6576
21.3613
3.1972
3.2206
3.23596
3.24818
3.26285
3.26704
3.27227
3.27965
3.28429
3.29053
3.30088
3.32348
3.38708
3.49597
3.70015
4.042
4.5588
5.34786
6.32713
7.49949
9.81451
13.4213
20.9233
3.19402
3.22063
3.23569
3.25012
3.26374
3.26888
3.27303
3.28045
3.28435
3.29179
3.301
3.32319
3.38428
3.48731
3.6834
4.01157
4.50191
5.26238
6.21441
7.38777
9.65063
13.0707
20.3786
3.19354
3.22232
3.23661
3.2489
3.26165
3.26716
3.27267
3.27869
3.28486
3.29016
3.3016
3.3228
3.38161
3.48056
3.67218
3.99253
4.46412
5.20152
6.12697
7.30472
9.58728
13.0075
19.9748
3.19578
3.22323
3.23754
3.2485
3.26146
3.26708
3.27352
3.27851
3.28476
3.29008
3.30036
3.32292
3.37832
3.47435
3.6621
3.97405
4.42913
5.14507
6.04177
7.22341
9.35713
12.5717
19.6628
3.19214
3.22175
3.23456
3.2482
3.26057
3.26884
3.27156
3.27864
3.28478
3.29078
3.30085
3.32151
3.3753
3.46973
3.65603
3.96403
4.41052
5.09866
5.96051
7.15
9.34945
12.602
19.1275
3.19223
3.22267
3.23493
3.24903
3.2606
3.26676
3.27139
3.27815
3.28584
3.29136
3.30005
3.32113
3.37181
3.46506
3.64842
3.94881
4.3876
5.04065
5.86623
7.06804
9.33334
12.5586
18.3664
3.19407
3.21883
3.23393
3.24995
3.25991
3.26679
3.27154
3.27834
3.2862
3.28945
3.30059
3.31996
3.36876
3.46196
3.64418
3.9406
4.37627
4.98748
5.77079
6.96488
9.34296
12.5632
17.474
3.19361
3.21852
3.23256
3.24682
3.25981
3.26806
3.27095
3.27934
3.28577
3.29112
3.29861
3.31913
3.36536
3.45836
3.63621
3.92333
4.35423
4.9176
5.66088
6.83539
9.06586
12.6554
16.5523
3.19258
3.2205
3.2318
3.24617
3.26138
3.26888
3.2702
3.27864
3.28535
3.28949
3.29923
3.31887
3.36261
3.45623
3.63177
3.91338
4.342
4.85618
5.55463
6.70315
9.06432
12.7722
15.6417
3.19094
3.22066
3.23316
3.24542
3.26137
3.26733
3.26908
3.27875
3.28451
3.29066
3.29858
3.31644
3.35941
3.45311
3.622
3.89164
4.31376
4.77801
5.43765
6.53726
8.97585
12.9263
14.7491
3.1887
3.21861
3.23231
3.24475
3.26038
3.26593
3.26887
3.27766
3.28333
3.29072
3.2998
3.31793
3.35709
3.45126
3.61652
3.87905
4.29767
4.71409
5.33464
6.46459
8.97567
12.6941
13.909
3.1885
3.21644
3.23096
3.24158
3.25771
3.26464
3.26582
3.27535
3.28219
3.2897
3.29967
3.31577
3.35409
3.44808
3.60432
3.85314
4.26094
4.63356
5.21587
6.35621
8.97013
12.205
13.067
3.18235
3.21254
3.22855
3.24077
3.25606
3.26267
3.26777
3.27448
3.28006
3.28805
3.29857
3.31682
3.3522
3.44618
3.59776
3.8394
4.24164
4.57228
5.12895
6.35821
9.03347
11.7275
12.3228
3.18284
3.20634
3.22604
3.23689
3.25524
3.26133
3.2651
3.27301
3.27841
3.28667
3.29653
3.31609
3.3492
3.44296
3.58336
3.81056
4.19957
4.49228
5.00932
6.25899
9.17496
11.1118
11.5553
3.18145
3.20525
3.22034
3.23536
3.25094
3.26082
3.26457
3.27227
3.27632
3.28404
3.29361
3.31525
3.34765
3.44073
3.57625
3.7975
4.17938
4.43839
4.95391
6.19198
9.26466
10.6129
10.9037
3.18121
3.20629
3.21891
3.23454
3.25326
3.25668
3.26318
3.27323
3.27255
3.28038
3.28991
3.31275
3.34427
3.43512
3.55986
3.76522
4.13039
4.35959
4.82585
5.96075
9.00054
9.9901
10.2216
3.18479
3.2068
3.21843
3.2356
3.2494
3.25596
3.26234
3.2717
3.27163
3.27956
3.28903
3.31139
3.34347
3.4361
3.55459
3.76029
4.1167
4.31708
4.82313
6.00926
8.78244
9.57971
9.68669
3.18289
3.20319
3.2169
3.23211
3.2489
3.25688
3.25757
3.26851
3.27178
3.27985
3.28935
3.30843
3.33948
3.42738
3.53505
3.72133
4.05652
4.23772
4.67711
5.74544
8.23448
8.81547
9.00866
3.17909
3.19686
3.21339
3.22505
3.24619
3.25394
3.25599
3.26241
3.2715
3.27795
3.28562
3.30494
3.33522
3.41741
3.51562
3.6835
3.99814
4.1667
4.54772
5.5259
7.71888
8.39575
8.51281
3.17278
3.18716
3.2096
3.22279
3.24135
3.24809
3.25664
3.25967
3.26846
3.27552
3.28271
3.30069
3.3299
3.40649
3.49597
3.64529
3.9366
4.09638
4.42311
5.30542
7.1924
7.88487
8.01984
3.16388
3.18375
3.20435
3.2229
3.2355
3.23933
3.25413
3.25366
3.26522
3.27248
3.27808
3.2953
3.32386
3.39375
3.47501
3.60677
3.87359
4.02691
4.30533
5.07022
6.67322
7.34545
7.52819
3.1519
3.18428
3.20183
3.21643
3.22916
3.23608
3.24907
3.25247
3.26136
3.2679
3.27133
3.2865
3.31627
3.38034
3.45376
3.56866
3.80661
3.95497
4.19341
4.8149
6.17592
6.79627
7.02882
3.13606
3.17935
3.19588
3.20979
3.22398
3.23547
3.24097
3.24627
3.25591
3.26222
3.27101
3.28185
3.30975
3.36527
3.43103
3.5311
3.73969
3.87985
4.08589
4.5632
5.68773
6.29092
6.53683
3.13032
3.17071
3.18677
3.19678
3.21679
3.2288
3.23423
3.23949
3.24822
3.25541
3.26613
3.27505
3.30255
3.34951
3.40831
3.49387
3.67037
3.8046
3.97981
4.33736
5.23557
5.82936
6.09364
3.1298
3.15901
3.17418
3.18673
3.20285
3.22038
3.22834
3.22963
3.24028
3.24841
3.25955
3.27374
3.2947
3.33327
3.38536
3.45761
3.60459
3.72842
3.87469
4.1423
4.83615
5.4451
5.72147
3.11782
3.14915
3.16004
3.17599
3.1906
3.21006
3.21967
3.21777
3.23092
3.23912
3.24986
3.26511
3.28363
3.31657
3.36225
3.42234
3.54091
3.6557
3.77459
3.9738
4.46528
5.08214
5.41424
3.10424
3.13629
3.15001
3.17293
3.17638
3.19946
3.20969
3.20852
3.22218
3.22914
3.23896
3.25477
3.2715
3.29947
3.33953
3.38922
3.48459
3.5843
3.67995
3.83186
4.1445
4.758
5.13425
3.07805
3.11838
3.13857
3.16092
3.16709
3.18634
3.19602
3.20126
3.21026
3.21613
3.22496
3.23996
3.25585
3.28059
3.31516
3.35645
3.43308
3.52326
3.5953
3.70369
3.90207
4.36603
4.84532
3.0546
3.09589
3.12112
3.14564
3.15682
3.17194
3.18117
3.188
3.1974
3.20265
3.21062
3.22467
3.23893
3.2613
3.2918
3.32545
3.38678
3.46433
3.52458
3.60059
3.72799
3.98216
4.488
3.02993
3.07138
3.09934
3.12505
3.13902
3.15274
3.16175
3.1695
3.17921
3.18458
3.1921
3.20507
3.21867
3.23792
3.26517
3.29259
3.33712
3.41403
3.46594
3.51448
3.59521
3.74115
4.06278
3.01249
3.03953
3.07641
3.1028
3.11862
3.13195
3.14117
3.1494
3.16007
3.16583
3.17273
3.18458
3.1965
3.21411
3.23953
3.26181
3.29357
3.35024
3.41664
3.46352
3.50826
3.58737
3.74531
2.99599
3.00711
3.04869
3.07526
3.09187
3.10515
3.11481
3.12324
3.13395
3.14041
3.14716
3.15876
3.16994
3.18426
3.20766
3.22827
3.25111
3.28615
3.34504
3.39998
3.45465
3.50058
3.57908
2.97036
2.98243
3.02014
3.04686
3.06353
3.07697
3.08751
3.09649
3.10732
3.11416
3.12084
3.13118
3.14138
3.15365
3.1753
3.19513
3.21429
3.23835
3.27353
3.32891
3.3863
3.44069
3.50004
2.93585
2.95103
2.98437
3.01134
3.02758
3.04105
3.05262
3.06155
3.07182
3.07937
3.08611
3.09665
3.10695
3.11602
3.1326
3.15238
3.168
3.18505
3.20751
3.24032
3.29605
3.35103
3.42073
2.89815
2.91595
2.94717
2.97463
2.99056
3.00392
3.01684
3.02663
3.03624
3.04381
3.05136
3.05977
3.07007
3.07925
3.09233
3.11142
3.12816
3.14103
3.15687
3.17584
3.21118
3.25313
3.31114
2.85045
2.86948
2.90031
2.92754
2.94343
2.95634
2.97012
2.98043
2.98952
2.99725
3.00498
3.01442
3.02364
3.03064
3.03976
3.05389
3.07014
3.0815
3.09604
3.1085
3.13161
3.15627
3.20339
2.80049
2.82141
2.85304
2.87953
2.89599
2.90836
2.92299
2.93443
2.94316
2.95073
2.95909
2.96637
2.97685
2.98536
2.99342
3.00402
3.01847
3.02764
3.03911
3.04743
3.06253
3.07729
3.1056
2.73861
2.7614
2.79315
2.8179
2.83497
2.84656
2.86113
2.87366
2.88234
2.88946
2.89787
2.90599
2.91316
2.92024
2.92816
2.93522
2.94812
2.95734
2.96905
2.97494
2.98474
2.99297
3.00739
2.67687
2.70311
2.73461
2.75764
2.77539
2.78638
2.80072
2.81413
2.82378
2.83071
2.8387
2.84625
2.8554
2.8612
2.86834
2.87321
2.88198
2.88939
2.8996
2.90842
2.91757
2.92459
2.93392
2.60052
2.6294
2.65901
2.68012
2.69771
2.70777
2.72125
2.73461
2.74463
2.75219
2.75935
2.76573
2.77324
2.7788
2.78602
2.78996
2.79705
2.80178
2.80845
2.81406
2.82144
2.82637
2.83358
2.52895
2.56087
2.58824
2.60831
2.62559
2.6351
2.64752
2.66102
2.67145
2.67903
2.68764
2.69341
2.70123
2.70607
2.71297
2.71678
2.72297
2.72852
2.73476
2.73943
2.74671
2.75099
2.75764
2.438
2.47027
2.4942
2.51312
2.52874
2.53746
2.54817
2.55968
2.57015
2.57738
2.58418
2.59032
2.5965
2.60062
2.60641
2.61008
2.61414
2.61742
2.62338
2.6269
2.63314
2.63683
2.64389
2.35898
2.39151
2.4123
2.43088
2.44572
2.45413
2.4642
2.47452
2.48407
2.49175
2.4993
2.5046
2.51181
2.51654
2.52184
2.52673
2.53157
2.53452
2.53894
2.54146
2.5466
2.54958
2.55569
2.25176
2.28044
2.29724
2.31385
2.32551
2.33336
2.34198
2.35042
2.35729
2.363
2.36832
2.37265
2.3775
2.38137
2.38557
2.38878
2.39408
2.39638
2.40127
2.4024
2.40452
2.4067
2.4111
2.169
2.19555
2.20939
2.22538
2.23565
2.24239
2.25085
2.26033
2.26815
2.27399
2.27938
2.28286
2.28757
2.29061
2.29452
2.29686
2.30081
2.30379
2.30834
2.31175
2.31481
2.31658
2.32073
2.04278
2.06027
2.06913
2.08032
2.08672
2.09023
2.09425
2.09975
2.10527
2.11
2.11437
2.11715
2.12047
2.12272
2.12531
2.12708
2.12967
2.1314
2.13502
2.13693
2.14074
2.14113
2.14351
1.96212
1.98054
1.98802
1.99838
2.00408
2.00712
2.01001
2.01432
2.01906
2.02369
2.02809
2.03142
2.03477
2.03727
2.03985
2.04182
2.04452
2.04624
2.04974
2.05115
2.05483
2.05578
2.05762
1.79785
1.79867
1.79685
1.79716
1.79728
1.79608
1.79416
1.79258
1.79207
1.79273
1.79385
1.7956
1.7979
1.79993
1.80114
1.80361
1.80403
1.80484
1.80721
1.80896
1.80992
1.81061
1.81221
3.06252
2.73568
2.55302
2.44835
2.36931
2.31566
2.28529
2.26392
2.2441
2.23501
2.22417
2.21934
2.21605
2.2178
2.22339
2.23515
2.25592
2.28977
2.34084
2.42155
2.48616
2.55493
2.6357
3.07564
2.74703
2.563
2.45671
2.37836
2.32835
2.28937
2.26911
2.24942
2.23875
2.22692
2.22166
2.21757
2.21914
2.22429
2.2354
2.25576
2.28916
2.33956
2.41786
2.48016
2.5479
2.62306
3.09109
2.77513
2.5908
2.47878
2.39183
2.33497
2.29965
2.2758
2.25452
2.2421
2.22959
2.22364
2.21878
2.22005
2.22489
2.23539
2.25482
2.2872
2.33618
2.41049
2.47521
2.54208
2.61329
3.1087
2.79243
2.60711
2.48773
2.40141
2.35047
2.30803
2.28231
2.26094
2.24634
2.23339
2.22658
2.22065
2.22158
2.22553
2.23516
2.2536
2.28539
2.33287
2.40272
2.47241
2.53102
2.59454
3.12077
2.81998
2.62998
2.50992
2.41967
2.35731
2.31499
2.2881
2.26511
2.24958
2.23623
2.2291
2.22208
2.22244
2.22584
2.23509
2.25228
2.28508
2.33225
2.39834
2.47404
2.53562
2.58928
3.13709
2.83993
2.64879
2.51861
2.42392
2.36864
2.32586
2.29558
2.27081
2.25414
2.23916
2.23124
2.2231
2.2232
2.22601
2.23554
2.2512
2.28881
2.33529
2.39508
2.47836
2.53379
2.59513
3.14571
2.8567
2.65802
2.53087
2.44297
2.38219
2.33494
2.30208
2.27556
2.25799
2.24194
2.23378
2.22416
2.22394
2.22593
2.23813
2.25347
2.29553
2.3391
2.40129
2.47913
2.54398
2.59979
3.15232
2.8583
2.66355
2.53733
2.44505
2.38192
2.334
2.30102
2.27452
2.25728
2.24132
2.23346
2.22389
2.22392
2.2257
2.23934
2.2541
2.29509
2.33604
2.40296
2.46639
2.54176
2.59065
2.85705
2.53122
2.38531
2.3145
2.26738
2.24161
2.22664
2.21184
2.19616
2.19216
2.19952
2.23937
2.31086
2.40034
2.49076
2.589
2.72338
2.8749
3.07164
3.31175
3.57406
3.83344
4.16694
2.87347
2.53712
2.39146
2.31878
2.27239
2.24637
2.23066
2.21646
2.20042
2.19496
2.19736
2.21649
2.26815
2.34277
2.42303
2.51218
2.6434
2.78669
2.98517
3.22122
3.48063
3.74061
4.07552
2.87616
2.5421
2.39938
2.32531
2.27985
2.25061
2.23326
2.21902
2.20495
2.1982
2.19775
2.20345
2.23174
2.29264
2.36112
2.43881
2.56101
2.69356
2.89141
3.1213
3.37028
3.62677
3.96088
2.89251
2.55163
2.40754
2.33013
2.28345
2.25353
2.23724
2.2232
2.20956
2.20106
2.19892
2.20069
2.2138
2.25423
2.31013
2.37576
2.48602
2.6089
2.79802
3.02002
3.26326
3.52003
3.84254
2.8969
2.55921
2.41529
2.3381
2.29043
2.25797
2.23998
2.22708
2.21548
2.20662
2.20247
2.20296
2.20977
2.23311
2.27444
2.32674
2.41901
2.53024
2.7053
2.91802
3.14872
3.39755
3.69469
2.91441
2.57168
2.42356
2.3426
2.29438
2.26027
2.24262
2.22974
2.21879
2.21054
2.20586
2.20429
2.20635
2.21701
2.24422
2.28561
2.36102
2.46195
2.61791
2.82084
3.03762
3.27428
3.5528
2.92017
2.58291
2.43307
2.3519
2.30002
2.26509
2.24653
2.23358
2.22344
2.21532
2.20977
2.20751
2.20806
2.21475
2.23009
2.26078
2.31826
2.40549
2.53989
2.73219
2.9232
3.15048
3.4125
2.93967
2.59673
2.44145
2.3579
2.30599
2.26894
2.24868
2.23547
2.22574
2.21817
2.21278
2.21004
2.20935
2.2127
2.22226
2.24373
2.28785
2.36274
2.4763
2.65597
2.81897
3.04025
3.25944
2.94676
2.61072
2.45284
2.36675
2.31074
2.27289
2.25305
2.23876
2.22793
2.21994
2.21519
2.21237
2.2103
2.21316
2.22139
2.23816
2.27095
2.33112
2.42636
2.58801
2.72928
2.92259
3.13836
2.96866
2.62652
2.46339
2.37585
2.31904
2.27882
2.25627
2.24159
2.23
2.22224
2.2169
2.21441
2.21191
2.21432
2.22149
2.23674
2.26511
2.31499
2.39578
2.53767
2.65518
2.83263
3.00839
2.97682
2.6411
2.47546
2.38391
2.32369
2.28346
2.26004
2.24371
2.23238
2.22348
2.21781
2.21562
2.21258
2.21487
2.22175
2.23613
2.26239
2.30636
2.37595
2.49637
2.59918
2.74462
2.9168
3.00103
2.66065
2.49001
2.39679
2.33396
2.28958
2.26478
2.24776
2.23407
2.22593
2.21902
2.21656
2.21356
2.21575
2.2223
2.23603
2.26108
2.30281
2.36684
2.47307
2.55964
2.69555
2.82178
3.00938
2.67403
2.50117
2.40478
2.34004
2.29629
2.26812
2.25048
2.237
2.22803
2.2202
2.21706
2.214
2.21617
2.22253
2.23586
2.2596
2.29858
2.35816
2.45367
2.53057
2.64247
2.76149
3.0338
2.69844
2.52059
2.4214
2.35062
2.30149
2.27431
2.25508
2.23879
2.23037
2.22122
2.21779
2.21474
2.21675
2.22268
2.23566
2.25852
2.29581
2.35212
2.4426
2.51101
2.62157
2.70516
3.04365
2.71062
2.53087
2.42947
2.35886
2.31043
2.27759
2.25913
2.24197
2.23328
2.22283
2.21846
2.21515
2.2171
2.22305
2.23533
2.25714
2.29232
2.34483
2.42697
2.49269
2.58837
2.65844
2.82048
2.82
2.91171
2.96108
3.03458
3.07424
3.11514
3.14249
3.15961
3.17288
3.18871
3.19782
3.21622
3.25923
3.29978
3.37257
3.46864
3.61441
3.79445
4.03047
4.40392
4.70233
5.0194
2.80386
2.77968
2.86866
2.93075
3.00135
3.05246
3.11096
3.13679
3.15922
3.16667
3.18466
3.19354
3.21409
3.25591
3.30018
3.37145
3.46571
3.60946
3.79141
4.02299
4.38167
4.69487
5.01297
2.7801
2.7342
2.82604
2.89759
2.96454
3.02186
3.08752
3.12035
3.15117
3.16468
3.18466
3.1916
3.21121
3.25388
3.29705
3.36898
3.46192
3.60237
3.78505
4.01648
4.36328
4.67196
4.99063
2.76184
2.694
2.78035
2.86028
2.9266
2.99486
3.06919
3.1025
3.14204
3.16201
3.18231
3.18662
3.20559
3.25084
3.29483
3.36662
3.45882
3.59731
3.78214
4.01319
4.34958
4.65415
4.97659
2.74812
2.64665
2.7292
2.82104
2.88147
2.96287
3.0418
3.08224
3.12617
3.15743
3.17899
3.184
3.20375
3.2481
3.29376
3.36385
3.45514
3.59125
3.7771
4.0076
4.32899
4.63056
4.94544
2.73973
2.60926
2.67473
2.77548
2.83474
2.92494
3.01734
3.05704
3.10878
3.14468
3.16999
3.18252
3.20168
3.24449
3.29358
3.35996
3.45143
3.58653
3.77359
4.00519
4.31657
4.62107
4.93244
2.74014
2.56364
2.62198
2.72941
2.78056
2.88783
2.98273
3.03257
3.08776
3.13121
3.16025
3.18234
3.20188
3.24043
3.28854
3.35586
3.4473
3.5806
3.76837
3.99919
4.30224
4.60307
4.90732
2.74591
2.53243
2.56557
2.67155
2.72637
2.84227
2.94988
3.00072
3.06044
3.10915
3.14797
3.176
3.19405
3.23525
3.28345
3.35027
3.44206
3.57537
3.76317
3.99486
4.28665
4.59141
4.89772
2.75281
2.49894
2.51833
2.61951
2.66503
2.79518
2.90564
2.96611
3.03221
3.0861
3.12792
3.16518
3.1904
3.22844
3.27633
3.343
3.43574
3.5677
3.75639
3.98647
4.27468
4.58095
4.87624
2.75935
2.47688
2.46795
2.55721
2.60545
2.74233
2.86028
2.92636
2.99778
3.05791
3.10678
3.14925
3.18207
3.2194
3.26627
3.33444
3.42773
3.55975
3.748
3.97848
4.26032
4.565
4.8622
2.77073
2.45834
2.43203
2.50029
2.54105
2.68679
2.80403
2.87974
2.95981
3.02446
3.07975
3.12969
3.16987
3.20713
3.25535
3.32328
3.41773
3.54911
3.73677
3.96701
4.24227
4.55757
4.84744
2.77799
2.45142
2.39548
2.44453
2.48147
2.62684
2.74344
2.82802
2.91349
2.98722
3.04971
3.1031
3.14997
3.1906
3.24109
3.30966
3.40548