/*--------------------------------*- C++ -*----------------------------------*\
  =========                 |
  \\      /  F ield         | OpenFOAM: The Open Source CFD Toolbox
   \\    /   O peration     | Website:  https://openfoam.org
    \\  /    A nd           | Version:  7
     \\/     M anipulation  |
\*---------------------------------------------------------------------------*/
FoamFile
{
    version     2.0;
    format      ascii;
    class       volScalarField;
    location    "50";
    object      p;
}
// * * * * * * * * * * * * * * * * * * * * * * * * * * * * * * * * * * * * * //

dimensions      [0 2 -2 0 0 0 0];

internalField   nonuniform List<scalar> 
12842
(
-0.0925367
-0.095984
-0.0973352
-0.102288
-0.111801
-0.124677
-0.135642
-0.134524
-0.106459
-0.0316789
0.114835
0.362852
0.744776
1.29169
2.02734
2.96054
4.07911
5.34807
6.71282
8.10666
9.46379
10.7248
11.8569
-0.102601
-0.11251
-0.122681
-0.140479
-0.171535
-0.217862
-0.276624
-0.340224
-0.396315
-0.427148
-0.40869
-0.310485
-0.0970379
0.268812
0.819829
1.57587
2.53621
3.67552
4.94513
6.27924
7.60905
8.86697
10.0157
-0.107608
-0.124301
-0.143057
-0.173329
-0.225342
-0.304015
-0.408585
-0.533792
-0.66971
-0.800639
-0.903729
-0.948309
-0.896535
-0.706112
-0.336447
0.241933
1.03821
2.03525
3.18968
4.43675
5.70685
6.92542
8.05498
-0.109645
-0.133535
-0.160379
-0.202283
-0.274452
-0.384071
-0.532091
-0.715525
-0.926876
-1.15263
-1.37153
-1.5535
-1.65935
-1.64271
-1.45616
-1.06149
-0.440337
0.398019
1.4158
2.55035
3.733
4.88411
5.96892
-0.110204
-0.140648
-0.175197
-0.227056
-0.318095
-0.456512
-0.644759
-0.882281
-1.16412
-1.47929
-1.80887
-2.12461
-2.38733
-2.54769
-2.55217
-2.35399
-1.92528
-1.26663
-0.408733
0.589326
1.66198
2.72463
3.74784
-0.110035
-0.145513
-0.187387
-0.24651
-0.354642
-0.518513
-0.742372
-1.02835
-1.37413
-1.7717
-2.20548
-2.65054
-3.06921
-3.41036
-3.61487
-3.62731
-3.40945
-2.95198
-2.27679
-1.43797
-0.496668
0.457832
1.4024
-0.109418
-0.148235
-0.196602
-0.259605
-0.382765
-0.567494
-0.82111
-1.14852
-1.55002
-2.02112
-2.55061
-3.11865
-3.69062
-4.21478
-4.62686
-4.86261
-4.87269
-4.63701
-4.16713
-3.51146
-2.7249
-1.90208
-1.05626
-0.108389
-0.149073
-0.202579
-0.266276
-0.402333
-0.602462
-0.879444
-1.24064
-1.68894
-2.22398
-2.83987
-3.52347
-4.24445
-4.9515
-5.57563
-6.04404
-6.29589
-6.3001
-6.05686
-5.60872
-5.0021
-4.33751
-3.61268
-0.107024
-0.148337
-0.204412
-0.265997
-0.411634
-0.620091
-0.912065
-1.29591
-1.77649
-2.35738
-3.03815
-3.81287
-4.65594
-5.51723
-6.32385
-6.99596
-7.46279
-7.68437
-7.65042
-7.39967
-6.96669
-6.46429
-5.86063
-0.105714
-0.147232
-0.203835
-0.263504
-0.417364
-0.631078
-0.93464
-1.33585
-1.841
-2.45699
-3.18819
-4.03507
-4.97603
-5.96208
-6.91732
-7.75696
-8.40308
-8.80972
-8.95887
-8.88595
-8.61606
-8.26478
-7.78953
-0.104524
-0.145399
-0.200885
-0.260428
-0.421921
-0.640049
-0.955017
-1.37287
-1.90144
-2.55099
-3.33065
-4.24721
-5.28292
-6.39014
-7.49074
-8.49652
-9.3243
-9.92386
-10.2704
-10.3959
-10.3153
-10.1432
-9.82733
-0.103447
-0.142873
-0.195894
-0.25724
-0.424959
-0.646811
-0.972771
-1.40622
-1.95672
-2.63797
-3.46383
-4.44739
-5.57458
-6.7997
-8.04335
-9.21554
-10.2296
-11.0324
-11.5928
-11.9387
-12.074
-12.1093
-11.9808
-0.102509
-0.139754
-0.189754
-0.254313
-0.426249
-0.651232
-0.987376
-1.43493
-2.00543
-2.71603
-3.58531
-4.63264
-5.84782
-7.18778
-8.57305
-9.91347
-11.1202
-12.1383
-12.9301
-13.5186
-13.8952
-14.1636
-14.2497
-0.101571
-0.13598
-0.183412
-0.251853
-0.425953
-0.653747
-0.999107
-1.45924
-2.04776
-2.78532
-3.69511
-4.80286
-6.10242
-7.55427
-9.08014
-10.5912
-11.9974
-13.2428
-14.2829
-15.1345
-15.7754
-16.3
-16.6258
-0.100394
-0.131475
-0.177574
-0.24978
-0.424352
-0.654914
-1.00852
-1.47984
-2.08461
-2.84694
-3.79453
-4.9595
-6.34011
-7.90134
-9.56729
-11.2518
-12.8646
-14.349
-15.653
-16.7862
-17.7118
-18.5121
-19.0986
-0.0988045
-0.126362
-0.172687
-0.247874
-0.421797
-0.655243
-1.01617
-1.49752
-2.11704
-2.90226
-3.88523
-5.10459
-6.56338
-8.23205
-10.0382
-11.8995
-13.7259
-15.4596
-17.0408
-18.4702
-19.696
-20.7861
-21.6478
-0.0967508
-0.120956
-0.168958
-0.245927
-0.418649
-0.655101
-1.0225
-1.5129
-2.14585
-2.95227
-3.96836
-5.23947
-6.77384
-8.54835
-10.4952
-12.5364
-14.5823
-16.5738
-18.4416
-20.1764
-21.7111
-23.097
-24.2403
-0.0942272
-0.115663
-0.166361
-0.243775
-0.4152
-0.654668
-1.02771
-1.52627
-2.1714
-2.99728
-4.04412
-5.36413
-6.97121
-8.84961
-10.9369
-13.1601
-15.4293
-17.6829
-19.8412
-21.8834
-23.7268
-25.4049
-26.8257
-0.0912532
-0.110855
-0.164693
-0.241337
-0.411633
-0.653941
-1.0318
-1.53764
-2.1936
-3.03704
-4.1119
-5.47741
-7.15363
-9.13299
-11.359
-13.7638
-16.2565
-18.7715
-21.2169
-23.5592
-25.7002
-27.6549
-29.3361
-0.0878691
-0.106802
-0.163669
-0.238574
-0.408009
-0.652808
-1.03469
-1.54692
-2.21229
-3.07117
-4.17096
-5.57808
-7.31906
-9.39523
-11.7564
-14.3394
-17.0511
-19.8202
-22.5408
-25.165
-27.5803
-29.7829
-31.6933
-0.0841497
-0.103644
-0.163023
-0.235562
-0.404367
-0.651144
-1.03624
-1.55391
-2.22721
-3.09929
-4.22067
-5.66499
-7.46551
-9.63293
-12.1233
-14.8774
-17.7982
-20.8064
-23.7802
-26.6563
-29.3091
-31.7176
-33.8122
-0.0801639
-0.101373
-0.162439
-0.232187
-0.400495
-0.648723
-1.03635
-1.55859
-2.23831
-3.1212
-4.26055
-5.73722
-7.59125
-9.84284
-12.4537
-15.3677
-18.4813
-21.7051
-24.8996
-27.9857
-30.827
-33.3877
-35.6105
-0.0760436
-0.0998999
-0.161856
-0.228764
-0.396567
-0.645571
-1.03499
-1.56094
-2.24573
-3.13729
-4.29112
-5.79511
-7.69579
-10.0227
-12.7423
-15.7998
-19.0831
-22.4903
-25.8633
-29.1071
-32.0792
-34.7334
-37.0248
-0.0720502
-0.0992052
-0.160548
-0.224874
-0.392521
-0.642407
-1.03346
-1.56226
-2.25006
-3.14661
-4.30939
-5.8328
-7.76962
-10.1583
-12.9697
-16.1494
-19.5751
-23.1311
-26.6399
-29.9904
-33.0366
-35.7255
-38.0224
-0.0684385
-0.0990555
-0.159373
-0.22223
-0.390496
-0.641895
-1.03481
-1.56594
-2.25528
-3.15406
-4.32166
-5.85816
-7.82225
-10.26
-13.1453
-16.4213
-19.954
-23.6103
-27.1952
-30.5825
-33.6286
-36.2817
-38.5226
-0.0639868
-0.0987404
-0.15801
-0.220662
-0.390733
-0.644971
-1.04126
-1.57617
-2.26846
-3.17056
-4.34337
-5.89144
-7.87776
-10.3536
-13.2929
-16.6339
-20.2282
-23.9256
-27.5181
-30.8702
-33.8476
-36.4068
-38.5459
-0.0593916
-0.0985394
-0.157032
-0.220647
-0.393426
-0.651199
-1.05147
-1.59042
-2.28575
-3.19083
-4.36768
-5.92414
-7.92584
-10.4269
-13.399
-16.7727
-20.385
-24.0696
-27.6121
-30.8739
-33.7352
-36.1635
-38.1719
-0.0559426
-0.09894
-0.156945
-0.222127
-0.397899
-0.659126
-1.06293
-1.60501
-2.30206
-3.20828
-4.38644
-5.9466
-7.95556
-10.4682
-13.4514
-16.8266
-20.4169
-24.0424
-27.4882
-30.6193
-33.3331
-35.6083
-37.4708
-0.054039
-0.0999953
-0.157695
-0.224636
-0.4032
-0.667336
-1.07376
-1.6176
-2.31473
-3.21998
-4.39646
-5.95545
-7.96338
-10.4737
-13.4467
-16.7936
-20.3251
-23.8519
-27.1636
-30.1339
-32.6788
-34.7889
-36.4996
-0.0532264
-0.101379
-0.158837
-0.227479
-0.408395
-0.674738
-1.08279
-1.6272
-2.32306
-3.22565
-4.39791
-5.95124
-7.95008
-10.4445
-13.3861
-16.6762
-20.1158
-23.5098
-26.6575
-29.445
-31.808
-33.7476
-35.3065
-0.0528571
-0.102705
-0.159885
-0.230042
-0.412777
-0.680651
-1.08951
-1.63359
-2.3273
-3.22601
-4.39194
-5.93539
-7.91724
-10.3822
-13.2721
-16.4786
-19.7964
-23.0295
-25.9903
-28.5806
-30.7551
-32.5241
-33.9352
-0.0524887
-0.103734
-0.160551
-0.231981
-0.416039
-0.684894
-1.09398
-1.63722
-2.32826
-3.22221
-4.37988
-5.90928
-7.8662
-10.2883
-13.1068
-16.2052
-19.375
-22.4245
-25.1824
-27.5675
-29.5522
-31.1547
-32.4245
-0.0518998
-0.104378
-0.160753
-0.23324
-0.418227
-0.687708
-1.09672
-1.63892
-2.32705
-3.21552
-4.363
-5.87405
-7.79799
-10.1642
-12.8928
-15.8605
-18.8604
-21.7088
-24.2534
-26.4301
-28.2274
-29.6688
-30.8037
-0.0510351
-0.104657
-0.160559
-0.233941
-0.419614
-0.689561
-1.09844
-1.63963
-2.32478
-3.20707
-4.34231
-5.83048
-7.7133
-10.0107
-12.6321
-15.4496
-18.2609
-20.8953
-23.2204
-25.1885
-26.8018
-28.0872
-29.0922
-0.049913
-0.104639
-0.160092
-0.234287
-0.420531
-0.690944
-1.09981
-1.64014
-2.32225
-3.1976
-4.31842
-5.77904
-7.61266
-9.82899
-12.3274
-14.9775
-17.5852
-19.996
-22.0981
-23.8588
-25.2916
-26.4256
-27.3052
-0.0485994
-0.104413
-0.159502
-0.234479
-0.421284
-0.692258
-1.10128
-1.64091
-2.31989
-3.1874
-4.29148
-5.71984
-7.49646
-9.6203
-11.9815
-14.4494
-16.8415
-19.0215
-20.8993
-22.4548
-23.711
-24.6993
-25.4603
-0.0471543
-0.104063
-0.158908
-0.234682
-0.422091
-0.693761
-1.10312
-1.64215
-2.31777
-3.17641
-4.26138
-5.65289
-7.36522
-9.38617
-11.5978
-13.8712
-16.038
-17.9825
-19.6359
-20.99
-22.075
-22.9251
-23.5764
-0.0456379
-0.103664
-0.158407
-0.234997
-0.423085
-0.695579
-1.1054
-1.64383
-2.31572
-3.16436
-4.22786
-5.57812
-7.21947
-9.12825
-11.1797
-13.2486
-15.183
-16.8891
-18.3196
-19.4775
-20.3984
-21.1172
-21.666
-0.0440818
-0.103271
-0.158047
-0.235482
-0.424317
-0.697733
-1.10808
-1.64576
-2.31345
-3.15089
-4.19064
-5.49559
-7.06003
-8.84866
-10.7313
-12.588
-14.2852
-15.7518
-16.962
-17.9292
-18.6923
-19.2839
-19.7323
-0.0425127
-0.102925
-0.157854
-0.236144
-0.42579
-0.700179
-1.11101
-1.64774
-2.31067
-3.13567
-4.1495
-5.40538
-6.8877
-8.5494
-10.2564
-11.8956
-13.3529
-14.5805
-15.5732
-16.3539
-16.9632
-17.4289
-17.7755
-0.0409333
-0.10265
-0.15782
-0.236971
-0.427467
-0.702842
-1.11409
-1.64957
-2.30714
-3.11848
-4.10438
-5.3078
-6.70358
-8.23285
-9.75948
-11.1779
-12.3949
-13.3847
-14.1629
-14.7595
-15.2158
-15.5569
-15.8014
-0.0393514
-0.102461
-0.157928
-0.237929
-0.429303
-0.70564
-1.11717
-1.65108
-2.30267
-3.09921
-4.05532
-5.20321
-6.50872
-7.90118
-9.24443
-10.441
-11.419
-12.1736
-12.74
-13.1547
-13.4586
-13.6779
-13.8235
-0.0377605
-0.102358
-0.158144
-0.238986
-0.431251
-0.708508
-1.12018
-1.65219
-2.29722
-3.07786
-4.00252
-5.09218
-6.3044
-7.55687
-8.71559
-9.69127
-10.4338
-10.9567
-11.3146
-11.551
-11.7059
-11.8092
-11.8624
-0.0361658
-0.102342
-0.158441
-0.240106
-0.433272
-0.711391
-1.12304
-1.65285
-2.29076
-3.05452
-3.94623
-4.97526
-6.09185
-7.20214
-8.17688
-8.93438
-9.44703
-9.74373
-9.89808
-9.96211
-9.97466
-9.9681
-9.93675
-0.0345645
-0.102403
-0.158786
-0.241269
-0.435339
-0.714262
-1.12576
-1.65307
-2.28338
-3.02938
-3.88683
-4.85318
-5.87248
-6.83948
-7.63251
-8.1763
-8.4669
-8.54509
-8.50244
-8.4012
-8.2772
-8.16575
-8.05586
-0.0329626
-0.102533
-0.159158
-0.242454
-0.437432
-0.717104
-1.12832
-1.65288
-2.27517
-3.0026
-3.82468
-4.72662
-5.64758
-6.47112
-7.08629
-7.4224
-7.50089
-7.37083
-7.13965
-6.87777
-6.61916
-6.40373
-6.21503
-0.0313738
-0.102724
-0.159538
-0.243658
-0.43955
-0.719926
-1.13076
-1.65236
-2.26627
-2.97446
-3.76019
-4.59631
-5.41851
-6.09929
-6.54194
-6.67772
-6.55584
-6.23002
-5.81992
-5.39941
-5.00429
-4.68341
-4.40924
-0.0297802
-0.102958
-0.159911
-0.244875
-0.441695
-0.722748
-1.13313
-1.65161
-2.25684
-2.94517
-3.69376
-4.46294
-5.18651
-5.72595
-6.0028
-5.94665
-5.63746
-5.13082
-4.55288
-3.97595
-3.44258
-3.02061
-2.66203
-0.0283267
-0.103276
-0.160276
-0.246099
-0.443867
-0.725634
-1.13563
-1.65109
-2.24777
-2.91645
-3.62854
-4.33217
-4.96105
-5.36578
-5.4897
-5.25657
-4.77841
-4.11328
-3.38349
-2.66551
-1.99044
-1.47326
-1.04024
-0.0268855
-0.103613
-0.160614
-0.247349
-0.446198
-0.728887
-1.13888
-1.65191
-2.24107
-2.89187
-3.5709
-4.21522
-4.76021
-5.04614
-5.03924
-4.65456
-4.03058
-3.23854
-2.3724
-1.54752
-0.729469
-0.120469
0.362526
-0.0251195
-0.103789
-0.160695
-0.248532
-0.448718
-0.732807
-1.1436
-1.65535
-2.23874
-2.87451
-3.52544
-4.11918
-4.59375
-4.78064
-4.6662
-4.15913
-3.40841
-2.52179
-1.52712
-0.639109
0.296288
1.01054
1.54758
-0.0230717
-0.103861
-0.160599
-0.249793
-0.451672
-0.737788
-1.15032
-1.66209
-2.24147
-2.86488
-3.49212
-4.04316
-4.45866
-4.56405
-4.36014
-3.75742
-2.89206
-1.93873
-0.822827
0.101339
1.11088
1.95764
2.56301
-0.0209832
-0.10398
-0.160542
-0.251392
-0.45536
-0.744163
-1.15936
-1.67227
-2.24907
-2.86228
-3.46939
-3.98457
-4.35037
-4.38994
-4.11119
-3.4382
-2.46954
-1.47367
-0.256127
0.705288
1.74783
2.74438
3.43656
-0.0189892
-0.10422
-0.160679
-0.253493
-0.45996
-0.752079
-1.17071
-1.68562
-2.26073
-2.86512
-3.45442
-3.93888
-4.26191
-4.24842
-3.90601
-3.18481
-2.12528
-1.10443
0.182148
1.1983
2.24538
3.37494
4.14631
-0.0170864
-0.104546
-0.161017
-0.256076
-0.46537
-0.761252
-1.18379
-1.70106
-2.27477
-2.87095
-3.44381
-3.9013
-4.1867
-4.12997
-3.73259
-2.97999
-1.84425
-0.807743
0.511887
1.59733
2.64324
3.8445
4.66403
-0.0152798
-0.104941
-0.16156
-0.259097
-0.471482
-0.77145
-1.19813
-1.71778
-2.28985
-2.87769
-3.43441
-3.86711
-4.11802
-4.02458
-3.5781
-2.80453
-1.60631
-0.552659
0.770871
1.91857
2.95932
4.15999
5.0428
-0.0134623
-0.105305
-0.162188
-0.262391
-0.478078
-0.782347
-1.21325
-1.73509
-2.30498
-2.8838
-3.4238
-3.83209
-4.04924
-3.92144
-3.42819
-2.6363
-1.38629
-0.313074
0.999282
2.2137
3.28519
4.47505
5.45818
-0.0116618
-0.105654
-0.162845
-0.265799
-0.484715
-0.793094
-1.22767
-1.75072
-2.31696
-2.88514
-3.40686
-3.79007
-3.9739
-3.81416
-3.27882
-2.4734
-1.18539
-0.091274
1.18776
2.40599
3.43677
4.55599
5.64854
-0.0100403
-0.106099
-0.163768
-0.269525
-0.491649
-0.803928
-1.24164
-1.76499
-2.32643
-2.88291
-3.38576
-3.74441
-3.89687
-3.70847
-3.13645
-2.32223
-1.01083
0.109895
1.3487
2.53532
3.50965
4.53006
5.6451
-0.00862251
-0.106634
-0.164941
-0.27346
-0.498704
-0.814603
-1.25494
-1.77783
-2.33368
-2.87799
-3.36213
-3.69728
-3.82078
-3.6067
-3.00243
-2.18259
-0.860642
0.29249
1.49716
2.64658
3.58763
4.49528
5.53673
-0.00726612
-0.107127
-0.166109
-0.277279
-0.505446
-0.824598
-1.267
-1.78882
-2.33858
-2.87068
-3.33682
-3.65007
-3.7476
-3.51121
-2.87928
-2.0565
-0.735429
0.451042
1.63048
2.73716
3.65367
4.40906
5.30244
-0.00588524
-0.107512
-0.16712
-0.280771
-0.511619
-0.833651
-1.27765
-1.79794
-2.34144
-2.86175
-3.31115
-3.60459
-3.67983
-3.42534
-2.77137
-1.94878
-0.639366
0.574712
1.73637
2.78829
3.66953
4.24288
4.89244
-0.00446425
-0.107798
-0.167957
-0.283943
-0.517267
-0.841898
-1.2872
-1.80583
-2.34333
-2.85275
-3.28719
-3.56351
-3.62079
-3.35348
-2.68465
-1.86722
-0.581322
0.647259
1.79475
2.78088
3.61077
4.00796
4.44115
-0.00302125
-0.108034
-0.168679
-0.28688
-0.522541
-0.849617
-1.29613
-1.81324
-2.34532
-2.84508
-3.26664
-3.52871
-3.57245
-3.29808
-2.62264
-1.81752
-0.568892
0.654505
1.78571
2.70144
3.47898
3.76061
4.0946
-0.00156398
-0.108252
-0.169333
-0.289687
-0.527617
-0.857089
-1.30487
-1.82079
-2.34821
-2.83961
-3.25022
-3.50055
-3.53446
-3.25821
-2.58422
-1.79961
-0.602688
0.592231
1.69989
2.54846
3.29069
3.51415
3.8496
-0.000101739
-0.108478
-0.169967
-0.292433
-0.532608
-0.864492
-1.31368
-1.82876
-2.35222
-2.83628
-3.2373
-3.47741
-3.50364
-3.22886
-2.56243
-1.80526
-0.672372
0.471704
1.54635
2.33607
3.08027
3.32249
3.66721
0.00136394
-0.108718
-0.170602
-0.295174
-0.5376
-0.871939
-1.32266
-1.83721
-2.35721
-2.83456
-3.22655
-3.4567
-3.4754
-3.20284
-2.54679
-1.82058
-0.759
0.317389
1.35148
2.09558
2.82795
3.1706
3.49961
0.00282425
-0.108984
-0.171261
-0.297931
-0.542616
-0.879447
-1.3318
-1.84601
-2.36277
-2.83348
-3.21616
-3.4353
-3.4446
-3.1722
-2.5254
-1.82882
-0.838846
0.161706
1.15092
1.87475
2.59956
3.00691
3.27311
0.00427676
-0.10927
-0.171945
-0.300722
-0.547672
-0.887011
-1.34103
-1.85494
-2.36844
-2.83217
-3.20456
-3.41063
-3.40707
-3.13042
-2.48807
-1.81481
-0.889378
0.0370118
0.98103
1.70499
2.45927
2.91707
3.20173
0.00571311
-0.109581
-0.17266
-0.303536
-0.552744
-0.894573
-1.35023
-1.86375
-2.37374
-2.8298
-3.19042
-3.38071
-3.35986
-3.07296
-2.42752
-1.76716
-0.892941
-0.0305652
0.872562
1.59839
2.39865
2.95783
3.39801
0.00713255
-0.109907
-0.173401
-0.306373
-0.557821
-0.902095
-1.35929
-1.87225
-2.37833
-2.82587
-3.17306
-3.34467
-3.30185
-2.99814
-2.34071
-1.6804
-0.839982
-0.0259276
0.844221
1.56099
2.39738
3.03151
3.58447
0.00852906
-0.110252
-0.174169
-0.309217
-0.562866
-0.909511
-1.36811
-1.88025
-2.38194
-2.82003
-3.15212
-3.30233
-3.23319
-2.90647
-2.22816
-1.55454
-0.729191
0.0540315
0.900414
1.59245
2.42481
3.06627
3.6059
0.00990409
-0.110607
-0.174953
-0.312063
-0.567871
-0.916794
-1.37662
-1.88767
-2.38446
-2.81223
-3.12776
-3.25431
-3.15535
-2.80055
-2.09379
-1.39485
-0.567087
0.201388
1.032
1.68713
2.46474
3.07825
3.55257
0.0112532
-0.110973
-0.175757
-0.314896
-0.572802
-0.923895
-1.38477
-1.89441
-2.38583
-2.80248
-3.10025
-3.20149
-3.07027
-2.68396
-1.94336
-1.20992
-0.365642
0.400524
1.22017
1.83511
2.52337
3.09594
3.50717
0.0125789
-0.111343
-0.17657
-0.317714
-0.577661
-0.930806
-1.39253
-1.90046
-2.38606
-2.79098
-3.07012
-3.14509
-2.98037
-2.56095
-1.78386
-1.01046
-0.140317
0.631529
1.44145
2.02029
2.61033
3.13113
3.49099
0.0138767
-0.111721
-0.177397
-0.320506
-0.582423
-0.937495
-1.39986
-1.90579
-2.38517
-2.77784
-3.03782
-3.08616
-2.88781
-2.43547
-1.62211
-0.807394
0.0926426
0.873596
1.67239
2.22037
2.71928
3.17495
3.49175
0.0151491
-0.112098
-0.17823
-0.323276
-0.587095
-0.943965
-1.40676
-1.91041
-2.38322
-2.76328
-3.00385
-3.02577
-2.79463
-2.3112
-1.46444
-0.610995
0.31792
1.1074
1.89286
2.41359
2.83247
3.21386
3.49379
0.0163907
-0.11248
-0.179075
-0.326012
-0.591656
-0.950193
-1.41322
-1.9143
-2.38023
-2.74742
-2.96851
-2.96463
-2.70232
-2.19092
-1.31586
-0.429712
0.522722
1.31673
2.08715
2.58865
2.94251
3.25707
3.50698
0.0176037
-0.11286
-0.179926
-0.328721
-0.59612
-0.956185
-1.41923
-1.91747
-2.37625
-2.73039
-2.93215
-2.90341
-2.61207
-2.07676
-1.18019
-0.269984
0.697536
1.4896
2.24334
2.73988
3.05248
3.31871
3.53764
0.0187819
-0.113245
-0.180789
-0.331395
-0.600466
-0.961918
-1.42476
-1.91989
-2.37126
-2.71221
-2.89487
-2.84241
-2.52455
-1.96993
-1.05971
-0.135786
0.836425
1.61869
2.35204
2.85609
3.1529
3.38816
3.57548
0.0199274
-0.113628
-0.181659
-0.334041
-0.604707
-0.967401
-1.42982
-1.92157
-2.36528
-2.69297
-2.85684
-2.78191
-2.44019
-1.87109
-0.955549
-0.0289545
0.93689
1.70124
2.40707
2.92095
3.21987
3.43794
3.60022
0.0210336
-0.114018
-0.182544
-0.336649
-0.608823
-0.972605
-1.43437
-1.92247
-2.35827
-2.67263
-2.81804
-2.72193
-2.35903
-1.78022
-0.867603
0.0507124
0.999383
1.7383
2.40734
2.92201
3.23178
3.44281
3.5916
0.0221032
-0.114408
-0.183439
-0.339229
-0.612826
-0.977538
-1.43841
-1.92257
-2.35024
-2.65121
-2.77853
-2.66252
-2.28107
-1.69704
-0.794998
0.105014
1.02689
1.73436
2.35823
2.85953
3.18016
3.3931
3.54053
0.0231294
-0.114807
-0.184351
-0.341769
-0.616694
-0.98217
-1.4419
-1.92184
-2.34113
-2.62866
-2.73824
-2.60356
-2.20604
-1.62084
-0.736114
0.137018
1.02418
1.69654
2.27074
2.74667
3.07127
3.2951
3.45054
0.0241151
-0.115207
-0.185275
-0.344279
-0.62044
-0.986507
-1.44484
-1.92026
-2.33093
-2.60498
-2.69717
-2.54502
-2.13372
-1.55085
-0.688982
0.150645
0.997448
1.6338
2.15873
2.60378
2.92369
3.16051
3.32812
0.0250534
-0.115618
-0.186218
-0.346748
-0.624039
-0.990516
-1.44718
-1.91777
-2.31958
-2.58011
-2.65525
-2.48674
-2.06376
-1.48611
-0.651338
0.150203
0.953297
1.55533
2.03541
2.44901
2.75858
3.0027
3.18049
0.0259481
-0.116032
-0.187173
-0.349182
-0.627503
-0.994201
-1.44892
-1.91438
-2.30706
-2.55403
-2.61247
-2.42869
-1.99592
-1.42573
-0.62092
0.140082
0.898294
1.46938
1.91105
2.29448
2.59165
2.83357
3.01504
0.0267914
-0.116457
-0.18815
-0.351572
-0.630807
-0.997529
-1.45002
-1.91
-2.29331
-2.52669
-2.56877
-2.37074
-1.92988
-1.3688
-0.595584
0.12426
0.83804
1.38203
1.79232
2.14644
2.4307
2.66255
2.83961
0.0275876
-0.116885
-0.18914
-0.353924
-0.633962
-1.0005
-1.45046
-1.90465
-2.27832
-2.4981
-2.52416
-2.31286
-1.86545
-1.31454
-0.57342
0.10615
0.777002
1.29711
1.68226
2.00819
2.27712
2.4939
2.66045
0.0283282
-0.117325
-0.190151
-0.356227
-0.636942
-1.00309
-1.4502
-1.89825
-2.26203
-2.46818
-2.47859
-2.25497
-1.8024
-1.26226
-0.552941
0.0882064
0.718083
1.2162
1.58103
1.87972
2.12974
2.32921
2.48127
0.0290183
-0.117768
-0.191177
-0.358488
-0.639757
-1.00528
-1.44924
-1.89079
-2.24442
-2.43697
-2.43211
-2.1971
-1.74067
-1.21146
-0.533057
0.0720012
0.662937
1.13937
1.48711
1.76018
1.98791
2.16894
2.30485
0.0296477
-0.118221
-0.192224
-0.360695
-0.64238
-1.00705
-1.44751
-1.88221
-2.22543
-2.40442
-2.38469
-2.13921
-1.68016
-1.1618
-0.513211
0.0580079
0.61188
1.06565
1.39741
1.64757
1.85182
2.01354
2.13225
0.0302242
-0.118676
-0.193285
-0.362853
-0.64482
-1.0084
-1.44502
-1.8725
-2.20506
-2.37055
-2.3364
-2.08138
-1.62096
-1.11318
-0.493242
0.0458957
0.564168
0.993985
1.3088
1.53957
1.72145
1.86261
1.96394
0.0307308
-0.119144
-0.194372
-0.364955
-0.647056
-1.00929
-1.44172
-1.86162
-2.18327
-2.33533
-2.28724
-2.02358
-1.56308
-1.06558
-0.473366
0.0347196
0.518367
0.923572
1.21616
1.42919
1.59292
1.71426
1.79946
0.0312035
-0.119603
-0.195466
-0.366996
-0.64908
-1.0097
-1.43755
-1.84947
-2.15997
-2.29878
-2.23735
-1.96607
-1.50697
-1.01954
-0.454508
0.0227812
0.470838
0.854073
1.12323
1.31973
1.46604
1.56845
1.63934
0.0315871
-0.120088
-0.196624
-0.369062
-0.651014
-1.00978
-1.43264
-1.83606
-2.13493
-2.26036
-2.18595
-1.90785
-1.45179
-0.974371
-0.436512
0.00967467
0.420494
0.785654
1.00985
1.17765
1.32595
1.41877
1.47933
0.032282
-0.120444
-0.197803
-0.371237
-0.652975
-1.00929
-1.42597
-1.81929
-2.10509
-2.21677
-2.13048
-1.84804
-1.39885
-0.933464
-0.424123
-0.00911768
0.350742
0.713165
0.973349
1.11791
1.23369
1.29421
1.33908
0.0326943
-0.120966
-0.199104
-0.373053
-0.653658
-1.00585
-1.414
-1.7947
-2.06562
-2.16364
-2.06825
-1.78667
-1.35076
-0.903072
-0.426803
-0.0413753
0.259572
0.544809
0.762082
0.90075
1.01813
1.07821
1.12663
0.032641
-0.12186
-0.200985
-0.374942
-0.653532
-0.999805
-1.39698
-1.7626
-2.01715
-2.10185
-1.99988
-1.72307
-1.30433
-0.877254
-0.435122
-0.0761291
0.176608
0.385856
0.560352
0.694802
0.808917
0.869644
0.920664
0.0321453
-0.123075
-0.203395
-0.376892
-0.65261
-0.991312
-1.37524
-1.72344
-1.96002
-2.03123
-1.92422
-1.65483
-1.25616
-0.851414
-0.442569
-0.104376
0.127959
0.306528
0.461431
0.583267
0.681904
0.734684
0.781398
0.0316196
-0.124191
-0.205716
-0.378227
-0.649982
-0.979268
-1.3475
-1.67575
-1.8925
-1.94964
-1.83877
-1.57962
-1.20491
-0.825745
-0.450779
-0.130724
0.0982811
0.268858
0.409828
0.516356
0.599776
0.646514
0.688007
0.0311934
-0.124988
-0.207591
-0.378445
-0.6449
-0.962678
-1.31249
-1.61802
-1.8128
-1.85497
-1.74112
-1.49487
-1.14823
-0.798718
-0.460126
-0.162803
0.0602047
0.22291
0.349714
0.444225
0.518252
0.564002
0.600877
0.0306607
-0.12555
-0.2091
-0.377587
-0.637337
-0.94149
-1.27022
-1.55039
-1.72117
-1.74738
-1.63087
-1.39905
-1.08308
-0.766376
-0.46702
-0.200896
0.00612146
0.156986
0.270724
0.355684
0.42233
0.467195
0.500574
0.0297279
-0.126088
-0.210515
-0.3759
-0.627589
-0.916178
-1.22155
-1.4743
-1.61976
-1.62953
-1.5106
-1.29377
-1.00947
-0.727438
-0.468852
-0.240298
-0.057666
0.0773574
0.177637
0.252445
0.310869
0.352739
0.383414
0.0282604
-0.126715
-0.211991
-0.373565
-0.615913
-0.887244
-1.16749
-1.39168
-1.51163
-1.50568
-1.38553
-1.18462
-0.932689
-0.68649
-0.468385
-0.279609
-0.126715
-0.0116339
0.0734036
0.136829
0.186381
0.223252
0.251183
0.0262176
-0.127459
-0.213547
-0.37054
-0.602287
-0.854895
-1.10885
-1.30434
-1.40009
-1.38094
-1.26258
-1.07989
-0.861492
-0.651809
-0.472124
-0.321421
-0.199409
-0.106053
-0.0367076
0.0152417
0.056541
0.0882165
0.11332
0.0236431
-0.128257
-0.215051
-0.366641
-0.586514
-0.819165
-1.04628
-1.21406
-1.28844
-1.26042
-1.14859
-0.987466
-0.803509
-0.629806
-0.484539
-0.366655
-0.272081
-0.198632
-0.143176
-0.101193
-0.0668284
-0.0395104
-0.0171642
0.0205586
-0.129041
-0.216321
-0.361562
-0.56828
-0.780039
-0.980487
-1.12264
-1.17981
-1.14839
-1.0483
-0.911573
-0.761294
-0.620838
-0.504355
-0.411824
-0.338404
-0.280598
-0.235877
-0.201486
-0.172702
-0.14861
-0.12853
0.0170172
-0.12969
-0.217093
-0.354983
-0.547324
-0.737662
-0.91239
-1.03194
-1.07668
-1.04718
-0.962793
-0.851182
-0.731487
-0.619501
-0.525669
-0.451095
-0.392152
-0.345149
-0.307753
-0.278322
-0.253598
-0.231891
-0.213239
0.0130391
-0.130094
-0.217094
-0.346565
-0.523473
-0.692386
-0.843081
-0.943543
-0.980344
-0.956576
-0.889342
-0.801095
-0.707127
-0.618182
-0.54171
-0.47964
-0.430056
-0.390022
-0.357349
-0.330863
-0.308676
-0.288916
-0.27119
0.00869311
-0.130083
-0.215994
-0.336031
-0.496725
-0.644772
-0.773632
-0.858419
-0.890513
-0.873985
-0.82284
-0.754512
-0.681176
-0.610544
-0.54791
-0.495426
-0.452545
-0.417389
-0.388132
-0.363717
-0.343117
-0.32494
-0.308208
0.00403261
-0.129502
-0.213483
-0.323159
-0.467223
-0.595455
-0.704827
-0.776621
-0.805553
-0.795647
-0.757918
-0.705661
-0.648707
-0.592954
-0.542236
-0.49843
-0.461717
-0.431091
-0.405243
-0.383201
-0.364309
-0.347766
-0.332591
-0.000810871
-0.128127
-0.209221
-0.307826
-0.435227
-0.544987
-0.636968
-0.697467
-0.723303
-0.718229
-0.690793
-0.651233
-0.607403
-0.564057
-0.523947
-0.488517
-0.458095
-0.432246
-0.410113
-0.39094
-0.3742
-0.359485
-0.346124
-0.00571596
-0.125763
-0.202929
-0.289981
-0.401016
-0.493714
-0.569972
-0.620053
-0.642224
-0.64004
-0.620263
-0.590743
-0.557667
-0.524815
-0.4942
-0.466799
-0.442856
-0.422162
-0.4042
-0.388433
-0.37445
-0.362008
-0.350736
-0.0104655
-0.122158
-0.194345
-0.269645
-0.364835
-0.441805
-0.503666
-0.543973
-0.562073
-0.561446
-0.547497
-0.526138
-0.502076
-0.478209
-0.455994
-0.43603
-0.418407
-0.402953
-0.389343
-0.377217
-0.366287
-0.356392
-0.34735
-0.0148625
-0.117118
-0.183305
-0.246885
-0.326901
-0.389433
-0.438197
-0.469609
-0.483808
-0.484117
-0.474822
-0.460244
-0.443798
-0.427597
-0.412656
-0.39931
-0.387523
-0.377104
-0.367816
-0.359421
-0.351733
-0.34465
-0.338096
-0.0186319
-0.110446
-0.169725
-0.221845
-0.287517
-0.336993
-0.37419
-0.397908
-0.408777
-0.409715
-0.404062
-0.394868
-0.384491
-0.374387
-0.365225
-0.357168
-0.350112
-0.343861
-0.338217
-0.333019
-0.328156
-0.323576
-0.319277
-0.0215428
-0.102062
-0.153682
-0.194832
-0.247225
-0.285268
-0.312638
-0.329987
-0.338095
-0.339312
-0.33616
-0.330772
-0.324714
-0.318949
-0.31389
-0.309603
-0.305959
-0.302778
-0.299888
-0.297173
-0.294566
-0.292038
-0.28964
-0.0233638
-0.0919852
-0.135472
-0.166435
-0.206954
-0.235437
-0.254872
-0.267136
-0.273029
-0.274256
-0.272691
-0.269818
-0.266676
-0.263852
-0.261588
-0.25987
-0.258571
-0.257521
-0.256582
-0.255651
-0.254695
-0.253686
-0.252709
-0.0239625
-0.0804567
-0.115694
-0.137637
-0.168036
-0.189043
-0.202514
-0.21101
-0.215351
-0.21665
-0.216227
-0.215113
-0.21398
-0.213167
-0.212782
-0.212765
-0.212994
-0.213321
-0.213637
-0.213862
-0.21398
-0.213969
-0.213922
-0.0233404
-0.0679365
-0.0953185
-0.109744
-0.13204
-0.147679
-0.15712
-0.163107
-0.16655
-0.16809
-0.168576
-0.168696
-0.168891
-0.169341
-0.170084
-0.171038
-0.172098
-0.173149
-0.174112
-0.17493
-0.175602
-0.176116
-0.176557
-0.0216405
-0.0551709
-0.0755325
-0.0841445
-0.100275
-0.112403
-0.119427
-0.12391
-0.126883
-0.128742
-0.12993
-0.130905
-0.131936
-0.133145
-0.134516
-0.135989
-0.137463
-0.138865
-0.140131
-0.141234
-0.142172
-0.14295
-0.143632
-0.0192244
-0.0430221
-0.0575119
-0.0618482
-0.0733494
-0.0832448
-0.0889852
-0.0925923
-0.0952717
-0.0973436
-0.0989889
-0.100462
-0.101927
-0.103465
-0.105052
-0.106642
-0.108162
-0.109566
-0.11081
-0.111888
-0.112803
-0.113572
-0.114243
-0.0164835
-0.0322113
-0.0419302
-0.0430372
-0.050733
-0.0589371
-0.0639355
-0.0669254
-0.0692352
-0.0712787
-0.0731029
-0.074804
-0.0764559
-0.0781096
-0.0797419
-0.081323
-0.0827993
-0.0841437
-0.0853298
-0.08636
-0.0872415
-0.0879935
-0.088651
-0.0137946
-0.0232614
-0.0291737
-0.0277292
-0.0320279
-0.0387091
-0.0433051
-0.0459243
-0.0478293
-0.0496096
-0.0512944
-0.0528759
-0.0543494
-0.0557457
-0.0570488
-0.058254
-0.0593311
-0.0602775
-0.0610816
-0.0617591
-0.0623193
-0.0627878
-0.063186
-0.0107005
-0.0152973
-0.0180038
-0.0139293
-0.0142499
-0.0185699
-0.0223231
-0.0244753
-0.026038
-0.027804
-0.0298645
-0.0321204
-0.0344412
-0.0367732
-0.0390455
-0.0412251
-0.0432603
-0.0451363
-0.0468288
-0.0483451
-0.0496841
-0.0508673
-0.0519041
-0.00604774
-0.00968255
-0.0106933
-0.00718389
-0.00571759
-0.00782729
-0.0102882
-0.0112305
-0.0109378
-0.0102526
-0.00952337
-0.00882754
-0.00810485
-0.00736175
-0.00657659
-0.00577727
-0.00495616
-0.00414261
-0.00333617
-0.00256615
-0.00183584
-0.00117234
-0.000575746
-0.00419402
-0.0572081
-0.0142294
0.0356734
0.113227
0.237236
0.421604
0.684461
1.04218
1.51538
2.12548
2.9041
3.88422
5.09966
6.56881
8.28495
10.207
12.2616
14.3556
16.3874
18.2778
19.9504
21.4146
-0.00877635
-0.0495587
-0.0195063
0.0328237
0.108706
0.227731
0.40618
0.661754
1.01247
1.4799
2.08727
2.8648
3.84394
5.05431
6.51061
8.20249
10.0868
12.0901
14.1202
16.079
17.8895
19.4834
20.8667
-0.0146241
-0.0421286
-0.0231353
0.0268004
0.0992901
0.210502
0.378139
0.620071
0.955438
1.40676
1.99874
2.76059
3.72204
4.90883
6.33217
7.97881
9.80476
11.7378
13.6883
15.5631
17.2882
18.8025
20.1092
-0.0221265
-0.036878
-0.0251839
0.0182492
0.0846142
0.185063
0.337012
0.558595
0.869619
1.29327
1.85529
2.58433
3.50865
4.65102
6.01999
7.60059
9.34926
11.1962
13.0558
14.84
16.4784
17.9163
19.1534
-0.0317087
-0.0359447
-0.0272463
0.0073068
0.0641773
0.150479
0.281735
0.475835
0.75278
1.13598
1.65177
2.32852
3.1936
4.26814
5.55947
7.05274
8.70651
10.455
12.2174
13.9107
15.4674
16.8371
18.0154
-0.0438645
-0.0412485
-0.0326715
-0.00761022
0.0363699
0.104567
0.209808
0.368909
0.601468
0.930606
1.38265
1.98587
2.76735
3.74802
4.93584
6.31831
7.85824
9.49582
11.1564
12.7623
14.2481
15.5652
16.7026
-0.0590077
-0.0540965
-0.0456576
-0.0297427
-0.00121531
0.044832
0.118631
0.235179
0.41304
0.674538
1.04557
1.55432
2.22827
3.08954
4.14865
5.39753
6.80537
8.31991
9.87387
11.3953
12.8212
14.1033
15.225
-0.0766127
-0.0737999
-0.0678886
-0.060949
-0.0495217
-0.0296314
0.00663133
0.0720789
0.183786
0.363075
0.635462
1.02959
1.57455
2.29551
3.20771
4.30953
5.57789
6.96839
8.42034
9.86573
11.2417
12.4973
13.6092
0.0305658
-0.112321
-0.0174036
-0.0260036
0.0617159
0.184384
0.355887
0.622919
0.956193
1.3812
1.8749
2.455
3.10496
3.83099
4.60948
5.41746
6.21123
6.93905
7.55931
8.04451
8.38866
8.62021
8.74178
0.0284857
-0.112262
-0.019008
-0.0248251
0.0632644
0.187897
0.362348
0.633659
0.973899
1.40971
1.92172
2.52999
3.22405
4.01591
4.89013
5.82937
6.79358
7.72785
8.58284
9.31498
9.90628
10.3668
10.6921
0.0263719
-0.111558
-0.0215689
-0.0253403
0.0624826
0.18784
0.363942
0.637928
0.983879
1.42915
1.95863
2.59415
3.33116