/*--------------------------------*- C++ -*----------------------------------*\
  =========                 |
  \\      /  F ield         | OpenFOAM: The Open Source CFD Toolbox
   \\    /   O peration     | Website:  https://openfoam.org
    \\  /    A nd           | Version:  7
     \\/     M anipulation  |
\*---------------------------------------------------------------------------*/
FoamFile
{
    version     2.0;
    format      ascii;
    class       surfaceScalarField;
    location    "50";
    object      phi;
}
// * * * * * * * * * * * * * * * * * * * * * * * * * * * * * * * * * * * * * //

dimensions      [0 3 -1 0 0 0 0];

internalField   nonuniform List<scalar> 
25449
(
69.9776
37.8284
-12.7357
51.8486
27.783
-9.65412
38.6205
20.5459
-7.31782
28.8901
15.2807
-5.55028
21.6862
11.418
-4.21404
16.3252
8.56517
-3.20422
12.3196
6.44681
-2.44122
9.31724
4.86711
-1.86472
7.06121
3.68503
-1.42901
5.36272
2.79792
-1.09942
4.08205
2.13038
-0.849713
3.11533
1.62672
-0.660003
2.38502
1.24559
-0.51528
1.83308
0.956183
-0.40424
1.41592
0.735588
-0.318429
1.10074
0.566753
-0.251569
0.862759
0.43701
-0.199029
0.683229
0.336956
-0.157426
0.547924
0.259596
-0.124291
0.446038
0.199707
-0.0978211
0.369367
0.153341
-0.0766695
0.311683
0.117505
-0.0598215
0.0898086
-0.0464312
0.268305
55.9023
57.379
41.6404
42.0449
31.1518
31.0346
23.3875
23.0449
17.6103
17.1953
13.2939
12.8815
10.0586
9.68204
7.62765
7.2981
5.79738
5.5153
4.41727
4.17803
3.37535
3.1723
2.58805
2.41402
1.99281
1.84083
1.54267
1.40632
1.20231
1.07594
0.945111
0.823957
0.750916
0.631205
0.604457
0.483414
0.494131
0.369923
0.411108
0.28273
0.348679
0.215769
0.301747
0.164438
0.125074
0.266481
43.6178
72.1168
32.7204
52.9423
24.6187
39.1363
18.5699
29.0937
14.0387
21.7264
10.6356
16.2847
8.07438
12.2432
6.14369
9.22879
4.68643
6.97257
3.58538
5.27908
2.75281
4.00487
2.12289
3.04395
1.64613
2.31759
1.28529
1.76716
1.0123
1.34894
0.80592
1.03034
0.650075
0.787051
0.532544
0.600945
0.444024
0.458442
0.377429
0.349326
0.327366
0.265832
0.289738
0.202065
0.153346
0.261467
33.6573
82.9182
25.5023
61.0972
19.3405
45.2981
14.6823
33.7519
11.1592
25.2495
8.49354
18.9503
6.47597
14.2608
4.94838
10.7564
3.79142
8.12953
2.91491
6.15559
2.25071
4.66908
1.74729
3.54736
1.36574
2.69914
1.07661
2.05628
0.857664
1.56789
0.692019
1.19598
0.566866
0.912204
0.472443
0.695368
0.401304
0.529581
0.347768
0.402862
0.307509
0.306092
0.277239
0.232335
0.176103
0.254482
25.8974
90.6003
19.9012
67.0934
15.2576
49.9418
11.6824
37.3272
8.94102
27.9909
6.84544
21.0459
5.2469
15.8594
4.02935
11.9739
3.10298
9.0559
2.39867
6.8599
1.86346
5.20429
1.45687
3.95394
1.14811
3.0079
0.913762
2.29063
0.736037
1.74561
0.601412
1.33061
0.499583
1.01403
0.422678
0.772273
0.36468
0.587579
0.320988
0.446553
0.288097
0.338983
0.263342
0.257091
0.194737
0.244708
19.9921
95.8516
15.6629
71.4226
12.1821
53.4226
9.43049
40.0788
7.2802
30.1412
5.61348
22.7126
4.32895
17.1439
3.34301
12.9599
2.58847
9.81043
2.01224
7.43613
1.5728
5.64373
1.23802
4.28872
0.983169
3.26276
0.789313
2.48448
0.642005
1.89292
0.53021
1.4424
0.445494
1.09875
0.381397
0.83637
0.332968
0.636009
0.296416
0.483105
0.268847
0.366552
0.24806
0.277877
0.210411
0.232386
15.567
99.2259
12.5103
74.4793
9.90803
56.0249
7.77305
42.2137
6.06178
31.8524
4.71156
24.0628
3.65754
18.1979
2.84088
13.7765
2.21153
10.4398
1.72834
7.91932
1.35834
6.01372
1.07551
4.57155
0.859584
3.47868
0.694904
2.64916
0.569449
2.01838
0.473999
1.53785
0.401482
1.17127
0.346468
0.891385
0.304785
0.677691
0.273237
0.514653
0.249377
0.390413
0.23134
0.295914
0.224045
0.217705
12.2819
101.155
10.1915
76.5697
8.2479
57.9684
6.56999
43.8916
5.18088
33.2415
4.06097
25.1827
3.17349
19.0854
2.47847
14.4715
1.93866
10.9796
1.52181
8.33617
1.20119
6.33434
0.955213
4.81752
0.76683
3.66707
0.622728
2.79327
0.512622
2.12848
0.428588
1.62188
0.364534
1.23532
0.315768
0.94015
0.278687
0.714772
0.250517
0.542823
0.229137
0.411792
0.212919
0.312133
0.236341
0.200623
9.64962
104.6
7.16854
79.0508
5.36239
59.7746
4.03661
45.2174
3.05635
34.2218
2.32753
25.9116
1.78298
19.6299
1.37457
14.88
1.06733
11.2868
0.835629
8.56788
0.660503
6.50947
0.527865
4.95016
0.427219
3.76771
0.350732
2.86975
0.292545
2.18667
0.248255
1.66617
0.214538
1.26904
0.188873
0.965816
0.169338
0.734307
0.154473
0.557688
0.143162
0.423103
0.134564
0.320731
0.242884
0.128022
7.34277
107.224
5.45661
80.9369
4.08624
61.1449
3.08192
46.2217
2.34022
34.9635
1.78924
26.4625
1.37775
20.0414
1.06919
15.1885
0.837064
11.519
0.661953
8.74299
0.529533
6.64189
0.429149
5.05054
0.35287
3.84399
0.294784
2.92784
0.250475
2.23098
0.216626
1.70002
0.190742
1.29492
0.170929
0.985629
0.155752
0.749484
0.144119
0.569321
0.135199
0.432023
0.128367
0.327563
0.24812
0.12313
5.56455
109.207
4.14086
82.3606
3.10745
62.1783
2.35062
46.9786
1.79198
35.5221
1.3771
26.8774
1.06724
20.3513
0.834824
15.4209
0.659903
11.6939
0.527865
8.87502
0.427926
6.74183
0.352056
5.12641
0.294281
3.90177
0.250151
2.97197
0.216346
2.26478
0.190382
1.72599
0.170391
1.31491
0.154963
1.00106
0.143034
0.761414
0.133797
0.578557
0.12664
0.439181
0.121102
0.333101
0.252404
0.116818
4.20062
110.688
3.13524
83.426
2.36121
62.9524
1.79388
47.5459
1.37483
35.9412
1.06339
27.1889
0.830556
20.5841
0.655747
15.5957
0.524043
11.8256
0.424508
8.97456
0.349055
6.81728
0.291647
5.18382
0.247792
3.94562
0.214141
3.00562
0.188204
2.29072
0.168123
1.74607
0.152508
1.33053
0.140317
1.01325
0.130768
0.770964
0.123273
0.586052
0.117386
0.445068
0.112772
0.337715
0.256017
0.10916
3.1597
111.78
2.37091
84.2148
1.79549
63.5278
1.37232
47.9691
1.05889
36.2546
0.825374
27.4224
0.650394
20.7591
0.518734
15.7274
0.419339
11.925
0.344065
9.04983
0.286868
6.87448
0.243208
5.22748
0.209703
3.97913
0.183828
3.03149
0.163713
2.31083
0.147966
1.76181
0.13556
1.34293
0.125727
1.02308
0.1179
0.778792
0.111655
0.592297
0.106671
0.450053
0.102708
0.341678
0.259161
0.0995637
2.37459
112.568
1.79758
84.7918
1.37262
63.9527
1.05774
48.284
0.823097
36.4893
0.647365
27.5981
0.515092
20.8914
0.415176
15.8273
0.339484
12.0007
0.281972
9.10734
0.238115
6.91834
0.204485
5.26111
0.178513
4.0051
0.15828
3.05173
0.142369
2.32674
0.129734
1.77445
0.119612
1.35305
0.111443
1.03125
0.104815
0.785419
0.0994308
0.597681
0.0950597
0.454424
0.0915319
0.345206
0.261997
0.0886964
1.77549
113.119
1.36276
85.2045
1.05314
64.2624
0.820427
48.5167
0.645064
36.6646
0.512516
27.7307
0.411989
20.9919
0.335567
15.9037
0.277361
12.0589
0.232918
9.15179
0.198857
6.9524
0.172576
5.28739
0.15211
4.02556
0.135985
3.06785
0.123118
2.33961
0.112719
1.78485
0.104222
1.36155
0.0972193
1.03825
0.0914226
0.791216
0.0866242
0.60248
0.0826638
0.458384
0.0794231
0.348447
0.264632
0.0767877
1.33166
113.486
1.04356
85.4926
0.819959
64.486
0.647646
48.689
0.515301
36.797
0.413766
27.8322
0.335845
21.0698
0.27604
15.9635
0.230134
12.1048
0.194846
9.18708
0.167625
6.97962
0.146458
5.30856
0.129809
4.04221
0.116517
3.08114
0.105734
2.35039
0.0968488
1.79373
0.0894374
1.36896
0.0832044
1.04449
0.0779468
0.796473
0.0735235
0.606903
0.0698234
0.462084
0.0667639
0.351507
0.267141
0.0642548
1.00121
113.709
0.808652
85.6852
0.649666
64.6449
0.521889
48.8168
0.420747
36.8981
0.3414
27.9116
0.279469
21.1317
0.231307
16.0117
0.193957
12.1421
0.165001
9.21603
0.142488
7.00213
0.124829
5.32622
0.110786
4.05626
0.0994144
3.09251
0.0900296
2.35978
0.0821473
1.80161
0.0754438
1.37567
0.0697038
1.05023
0.0647871
0.80139
0.0606001
0.61109
0.0570656
0.465619
0.0541247
0.354448
0.269564
0.0517022
0.757424
113.818
0.638113
85.8045
0.527367
64.7557
0.432022
48.9121
0.353086
36.977
0.289217
27.9754
0.238251
21.1827
0.19796
16.052
0.166326
12.1738
0.141563
9.2408
0.122149
7.02155
0.106786
5.34158
0.0944394
4.0686
0.0843093
3.10264
0.0758188
2.36827
0.0685689
1.80886
0.0623061
1.38193
0.0568715
1.05566
0.0521692
0.806093
0.0481378
0.615122
0.0447219
0.469035
0.0418762
0.357293
0.271908
0.0395323
0.580947
113.838
0.517561
85.8679
0.442377
64.8309
0.370105
48.9844
0.306432
37.0407
0.252868
28.029
0.208995
21.2266
0.173669
16.0873
0.145569
12.2019
0.123356
9.26301
0.105805
7.0391
0.0918106
5.35558
0.0804686
4.07994
0.0710668
3.11205
0.0630948
2.37624
0.0562076
1.81575
0.0501977
1.38794
0.0449446
1.06091
0.0403816
0.810656
0.0364677
0.619036
0.0331575
0.472345
0.0304108
0.36004
0.274159
0.0281592
0.45531
113.786
0.434745
85.8885
0.385556
64.8801
0.329312
49.0406
0.275686
37.0943
0.228549
28.0761
0.188871
21.2663
0.156338
16.1198
0.130138
12.2281
0.109249
9.2839
0.092642
7.0557
0.0793312
5.36889
0.0684858
4.09079
0.059441
3.12109
0.0517219
2.38396
0.0450137
1.82246
0.0391373
1.39381
0.0339963
1.06605
0.0295416
0.815111
0.0257416
0.622836
0.0225518
0.475535
0.019929
0.362663
0.27629
0.0177986
0.368854
113.677
0.380988
85.8763
0.350418
64.9106
0.30478
49.0863
0.257192
37.1419
0.2135
28.1198
0.175791
21.304
0.144381
16.1513
0.118828
12.2536
0.098323
9.3044
0.0819579
7.07207
0.0688104
5.38204
0.0580819
4.10152
0.0491232
3.13005
0.0414714
2.39161
0.0348237
1.82911
0.0290155
1.39962
0.0239624
1.07111
0.0196218
0.819451
0.0159618
0.626496
0.0129294
0.478568
0.010471
0.365121
0.278259
0.00850194
0.310717
113.52
0.348191
85.8388
0.330893
64.9279
0.291941
49.1252
0.247505
37.1864
0.205122
28.1622
0.16779
21.3413
0.136313
16.1827
0.110515
12.2794
0.0897257
9.32519
0.0731063
7.08869
0.0597591
5.39538
0.0488895
4.11239
0.0398412
3.1391
0.0321463
2.39931
0.0255005
1.83575
0.0197421
1.40538
0.0147886
1.07606
0.0105941
0.823646
0.00711732
0.629973
0.0042898
0.481395
0.00204256
0.367369
0.280026
0.000275769
0.274077
113.325
0.331331
85.7816
0.323261
64.936
0.288023
49.1605
0.244537
37.2299
0.201821
28.2049
0.163638
21.3795
0.131179
16.2152
0.10446
12.3061
0.0828892
9.34677
0.0656525
7.10593
0.0518452
5.40919
0.0406536
4.12358
0.0313988
3.14835
0.0235954
2.40711
0.0169267
1.84242
0.0112245
1.41108
0.00639885
1.08089
0.00239049
0.827654
-0.00086014
0.633223
-0.00344359
0.483979
-0.00544854
0.369374
0.281562
-0.0069846
-0.217895
113.249
-0.162707
85.7264
-0.121659
64.895
-0.0908676
49.1297
-0.0677652
37.2068
-0.0504284
28.1876
-0.0374716
21.3665
-0.0278438
16.2056
-0.0207212
12.299
-0.0154907
9.34154
-0.0117157
7.10215
-0.0091343
5.40661
-0.00758169
4.12203
-0.0069426
3.14772
-0.00707905
2.40725
-0.0078096
1.84315
-0.00890599
1.41218
-0.0101405
1.08212
-0.0113285
0.828843
-0.0123512
0.634246
-0.013163
0.48479
-0.0137647
0.369976
0.281996
-0.0141983
-0.213438
113.179
-0.162214
85.6752
-0.124062
64.8568
-0.0954012
49.101
-0.0738716
37.1852
-0.0576978
28.1714
-0.0456031
21.3544
-0.0366147
16.1966
-0.0299616
12.2924
-0.0250615
9.33664
-0.021493
7.09858
-0.0189981
5.40412
-0.0174102
4.12044
-0.0166102
3.14692
-0.0164583
2.4071
-0.0167774
1.84347
-0.0173566
1.41276
-0.017996
1.08276
-0.0185534
0.8294
-0.0189545
0.634647
-0.0191893
0.485025
-0.0192861
0.370072
0.282005
-0.0192949
-0.208873
113.115
-0.161283
85.6276
-0.125781
64.8213
-0.0990673
49.0743
-0.0789732
37.1651
-0.063859
28.1563
-0.0525478
21.3431
-0.0441375
16.1882
-0.0379047
12.2861
-0.0332938
9.33203
-0.0298964
7.09519
-0.0274554
5.40168
-0.0258005
4.11879
-0.024807
3.14592
-0.0243343
2.40662
-0.0242132
1.84335
-0.0242564
1.4128
-0.0242994
1.0828
-0.0242458
0.829347
-0.0240653
0.634467
-0.0237768
0.484737
-0.0234267
0.369722
0.281645
-0.0230667
-0.204261
113.054
-0.160025
85.5834
-0.126967
64.7882
-0.102047
49.0494
-0.0832722
37.1464
-0.0691304
28.1421
-0.0585364
21.3325
-0.0506529
16.1803
-0.0448
12.2803
-0.0404456
9.32767
-0.0371912
7.09193
-0.0347781
5.39926
-0.0330305
4.11704
-0.0318172
3.14471
-0.0309983
2.40581
-0.0304174
1.84277
-0.0299178
1.4123
-0.0293763
1.08226
-0.0287435
0.828714
-0.0280291
0.633752
-0.0272743
0.483982
-0.0265372
0.368985
0.280974
-0.0258662
-0.199642
112.999
-0.158521
85.5422
-0.12773
64.7575
-0.10447
49.0261
-0.0869161
37.1288
-0.0736718
28.1289
-0.063738
21.3226
-0.0563375
16.1729
-0.0508303
12.2748
-0.0467048
9.32355
-0.0435701
7.0888
-0.0411636
5.39686
-0.0393022
4.11518
-0.0378485
3.14326
-0.0366654
2.40462
-0.0356146
1.84172
-0.034576
1.41127
-0.0334727
1.08116
-0.0323006
0.827542
-0.0311047
0.632556
-0.029942
0.48282
-0.0288759
0.367919
0.280044
-0.027946
-0.195045
112.947
-0.156829
85.504
-0.128151
64.7288
-0.106437
49.0044
-0.0900166
37.1124
-0.0776048
28.1165
-0.0682816
21.3133
-0.061326
16.1659
-0.0561348
12.2696
-0.0522147
9.31963
-0.04918
7.08577
-0.0467622
5.39444
-0.0447703
4.11319
-0.0430607
3.14155
-0.0415024
2.40307
-0.0399801
1.8402
-0.0384155
1.4097
-0.0367806
1.07953
-0.0351145
0.825876
-0.0334906
0.630932
-0.0319762
0.481305
-0.0306336
0.366577
0.278901
-0.0294906
-0.19049
112.899
-0.154994
85.4685
-0.128291
64.7021
-0.108022
48.9841
-0.0926593
37.097
-0.0810225
28.1049
-0.0722662
21.3045
-0.0657221
16.1594
-0.0608211
12.2647
-0.0570858
9.31589
-0.0541343
7.08281
-0.0516906
5.392
-0.049555
4.11105
-0.0475791
3.13957
-0.0456409
2.40113
-0.043653
1.83821
-0.0415826
1.40763
-0.0394518
1.0774
-0.0373389
0.823764
-0.0353393
0.628933
-0.0335247
0.479491
-0.0319521
0.365005
0.277585
-0.0306352
-0.185995
112.854
-0.153051
85.4356
-0.128202
64.6772
-0.109286
48.9652
-0.0949131
37.0827
-0.0840003
28.0939
-0.0757723
21.2963
-0.0696099
16.1532
-0.0649763
12.26
-0.061408
9.31232
-0.0585253
7.07993
-0.0560438
5.38952
-0.053755
4.10877
-0.0515067
3.13733
-0.0491896
2.39881
-0.0467486
1.83577
-0.0441986
1.40508
-0.0416108
1.07481
-0.0390983
0.821252
-0.0367717
0.626606
-0.0347032
0.477423
-0.0329405
0.363242
0.276127
-0.0314825
-0.181568
112.813
-0.151029
85.405
-0.127923
64.6541
-0.110278
48.9476
-0.0968342
37.0692
-0.0865997
28.0837
-0.0788652
21.2886
-0.0730581
16.1474
-0.0686715
12.2557
-0.0652546
9.30891
-0.0624286
7.07711
-0.0598999
5.38699
-0.0574514
4.10632
-0.0549292
3.1348
-0.0522396
2.39612
-0.0493634
1.83289
-0.046364
1.40208
-0.0433597
1.0718
-0.0404929
0.818385
-0.037884
0.623997
-0.0356014
0.47514
-0.0336818
0.361323
0.274554
-0.0321091
-0.17722
112.776
-0.148949
85.3768
-0.127487
64.6327
-0.111039
48.9311
-0.0984694
37.0566
-0.0888718
28.0741
-0.0815995
21.2813
-0.0761239
16.1419
-0.0719662
12.2515
-0.0686869
9.30563
-0.0659074
7.07433
-0.0633242
5.38441
-0.0607127
4.10371
-0.057919
3.13201
-0.0548682
2.39307
-0.0515793
1.8296
-0.0481639
1.39867
-0.0447836
1.06842
-0.041605
0.815207
-0.038753
0.621145
-0.0362901
0.472677
-0.0342406
0.359273
0.272888
-0.0325737
-0.172959
112.741
-0.146831
85.3506
-0.126922
64.6128
-0.111605
48.9158
-0.0998589
37.0449
-0.0908609
28.0651
-0.0840227
21.2744
-0.0788572
16.1368
-0.0749122
12.2476
-0.0717584
9.30248
-0.0690169
7.07159
-0.066374
5.38176
-0.063599
4.10093
-0.0605399
3.12895
-0.0571435
2.38968
-0.053468
1.82593
-0.0496719
1.39487
-0.0459552
1.06471
-0.0425038
0.811756
-0.0394435
0.618085
-0.0368288
0.470063
-0.0346715
0.357116
0.271144
-0.0329273
-0.168789
112.709
-0.144692
85.3265
-0.126253
64.5943
-0.112005
48.9016
-0.101038
37.0339
-0.0926057
28.0567
-0.086176
21.268
-0.0813012
16.1319
-0.0775544
12.2438
-0.0745155
9.29944
-0.0718049
7.06888
-0.0690992
5.37906
-0.066163
4.098
-0.062848
3.12564
-0.0591253
2.38595
-0.0550925
1.8219
-0.0509517
1.39073
-0.0469369
1.06069
-0.0432487
0.808068
-0.0400109
0.614847
-0.0372692
0.467321
-0.035023
0.35487
0.269337
-0.033216
-0.164715
112.68
-0.142546
85.3044
-0.125502
64.5773
-0.112267
48.8883
-0.102037
37.0237
-0.0941398
28.0488
-0.0880955
21.262
-0.0834939
16.1273
-0.0799322
12.2403
-0.076999
9.29651
-0.0743137
7.06619
-0.071544
5.37629
-0.0684513
4.09491
-0.0648933
3.12208
-0.0608667
2.38193
-0.0565082
1.81754
-0.0520597
1.38628
-0.0477837
1.05642
-0.0438916
0.804176
-0.0405038
0.61146
-0.0376568
0.464474
-0.0353377
0.352551
0.26748
-0.0334799
-0.160741
112.653
-0.140405
85.284
-0.124687
64.5616
-0.112415
48.8761
-0.102885
37.0142
-0.0954946
28.0414
-0.0898146
21.2563
-0.0854704
16.123
-0.0820822
12.2369
-0.0792465
9.29367
-0.0765826
7.06353
-0.0737492
5.37346
-0.0705073
4.09166
-0.0667219
3.1183
-0.062417
2.37762
-0.0577661
1.81289
-0.0530469
1.38156
-0.0485453
1.05192
-0.0444794
0.80011
-0.0409657
0.607946
-0.0380316
0.46154
-0.0356523
0.350172
0.26558
-0.0337522
-0.15687
112.629
-0.138281
85.2655
-0.123825
64.5471
-0.11247
48.8647
-0.103606
37.0053
-0.0966976
28.0345
-0.0913629
21.251
-0.0872618
16.1189
-0.0840367
12.2336
-0.0812919
9.29093
-0.0786464
7.06089
-0.0757515
5.37056
-0.0723697
4.08828
-0.0683752
3.1143
-0.0638199
2.37307
-0.0589115
1.80798
-0.053959
1.37661
-0.0492656
1.04722
-0.0450534
0.795898
-0.0414339
0.604326
-0.0384272
0.458534
-0.035997
0.347742
0.263644
-0.0340605
-0.153105
112.607
-0.136185
85.2485
-0.122934
64.5338
-0.112454
48.8542
-0.104225
36.9971
-0.0977754
28.028
-0.092769
21.246
-0.0888983
16.115
-0.085827
12.2306
-0.0831673
9.28827
-0.0805385
7.05826
-0.0775859
5.36761
-0.0740756
4.08477
-0.0698926
3.11012
-0.0651168
2.36829
-0.0599873
1.80285
-0.0548384
1.37146
-0.0499859
1.04237
-0.0456523
0.791565
-0.0419446
0.600619
-0.0388767
0.455466
-0.0364033
0.345269
0.261676
-0.0344353
-0.149448
112.588
-0.134125
85.2332
-0.122028
64.5218
-0.112385
48.8446
-0.104764
36.9895
-0.0987522
28.022
-0.0940585
21.2413
-0.0904067
16.1113
-0.0874811
12.2276
-0.0849018
9.28569
-0.0822893
7.05565
-0.0792841
5.36461
-0.0756585
4.08115
-0.0713094
3.10577
-0.0663452
2.36333
-0.0610316
1.79754
-0.0557235
1.36616
-0.0507433
1.03739
-0.0463123
0.787134
-0.0425325
0.596839
-0.0394137
0.452347
-0.0369039
0.342759
0.259682
-0.0349091
-0.145901
112.57
-0.132111
85.2194
-0.121121
64.5108
-0.112281
48.8357
-0.105243
36.9824
-0.0996509
28.0164
-0.0952562
21.2369
-0.0918132
16.1079
-0.0890263
12.2249
-0.0865237
9.28319
-0.083928
7.05305
-0.0808766
5.36155
-0.0771505
4.07742
-0.0726595
3.10128
-0.0675402
2.35821
-0.0620805
1.79208
-0.0566503
1.36073
-0.051574
1.03232
-0.0470691
0.78263
-0.0432342
0.593004
-0.0400746
0.449188
-0.0375344
0.340219
0.257665
-0.0355173
-0.142467
112.555
-0.130152
85.2071
-0.120227
64.5008
-0.11216
48.8277
-0.105681
36.9759
-0.100493
28.0113
-0.0963856
21.2328
-0.0931424
16.1046
-0.0904882
12.2222
-0.0880595
9.28076
-0.0854821
7.05047
-0.0823921
5.35847
-0.0785815
4.07361
-0.0739743
3.09667
-0.0687341
2.35297
-0.063167
1.78651
-0.0576526
1.35521
-0.0525125
1.02718
-0.0479586
0.778076
-0.0440861
0.589131
-0.0408969
0.445999
-0.0383328
0.337655
0.25563
-0.036298
-0.139147
112.542
-0.128255
85.1962
-0.119358
64.4919
-0.112037
48.8203
-0.106099
36.97
-0.101301
28.0065
-0.0974692
21.2289
-0.0944181
16.1016
-0.0918916
12.2197
-0.0895348
9.2784
-0.086978
7.04792
-0.083858
5.35535
-0.07998
4.06974
-0.0752831
3.09198
-0.0699574
2.34765
-0.0643223
1.78088
-0.0587621
1.34965
-0.0535922
1.02201
-0.0490159
0.7735
-0.0451251
0.58524
-0.041919
0.442793
-0.0393393
0.335075
0.253584
-0.0372923
-0.135942
112.53
-0.126428
85.1867
-0.118527
64.484
-0.111928
48.8138
-0.106514
36.9646
-0.102092
28.002
-0.0985278
21.2254
-0.0956622
16.0987
-0.0932592
12.2173
-0.0909733
9.27612
-0.0884402
7.04539
-0.0852995
5.35221
-0.0813722
4.06581
-0.076613
3.08722
-0.0712373
2.34227
-0.0655743
1.77522
-0.0600072
1.34408
-0.054843
1.01684
-0.0502734
0.768931
-0.0463856
0.581353
-0.0431776
0.439585
-0.040592
0.33249
0.25153
-0.0385379
-0.132855
112.521
-0.124679
85.1785
-0.117745
64.4771
-0.111848
48.8079
-0.106943
36.9597
-0.102887
27.998
-0.0995826
21.2221
-0.0968971
16.096
-0.0946143
12.215
-0.0923989
9.2739
-0.0898933
7.04288
-0.0867422
5.34906
-0.0827839
4.06185
-0.0779901
3.08243
-0.0726002
2.33688
-0.0669499
1.76957
-0.0614152
1.33855
-0.0562937
1.01172
-0.051763
0.7644
-0.0479027
0.577492
-0.0447091
0.436391
-0.042126
0.329907
0.249471
-0.0400673
-0.129887
112.514
-0.123014
85.1717
-0.117022
64.4711
-0.111811
48.8026
-0.107403
36.9553
-0.103705
27.9943
-0.100653
21.219
-0.0981432
16.0935
-0.0959782
12.2128
-0.0938338
9.27176
-0.0913601
7.04041
-0.0882093
5.34591
-0.0842387
4.05788
-0.0794382
3.07763
-0.0740687
2.33151
-0.0684725
1.76397
-0.0630086
1.33309
-0.0579681
1.00668
-0.0535117
0.759944
-0.0497074
0.573688
-0.0465472
0.433231
-0.0439797
0.327339
0.24742
-0.041928
-0.127039
112.508
-0.12144
85.1661
-0.116371
64.4661
-0.111831
48.7981
-0.10791
36.9514
-0.104562
27.9909
-0.101758
21.2162
-0.0994206
16.0912
-0.0973718
12.2108
-0.0952993
9.26968
-0.0928626
7.03797
-0.0897232
5.34277
-0.0857592
4.05392
-0.0809802
3.07285
-0.0756648
2.3262
-0.0701651
1.75847
-0.0648102
1.32773
-0.0598917
1.00176
-0.055549
0.755601
-0.0518379
0.569977
-0.0487384
0.430132
-0.0462102
0.324811
0.245397
-0.0441875
-0.124313
112.504
-0.119965
85.1617
-0.115801
64.4619
-0.11192
48.7942
-0.108478
36.9479
-0.105475
27.9879
-0.102916
21.2136
-0.100749
16.089
-0.0988153
12.2088
-0.0968164
9.26769
-0.0944213
7.03558
-0.0913041
5.33965
-0.0873637
4.04998
-0.0826324
3.06812
-0.0774003
2.32097
-0.0720392
1.75311
-0.0668265
1.32252
-0.0620733
0.997011
-0.0578827
0.751411
-0.0543148
0.56641
-0.0513216
0.427138
-0.0488674
0.322357
0.243424
-0.0468943
-0.117415
112.496
-0.111459
85.1558
-0.106825
64.4573
-0.103036
48.7904
-0.0999278
36.9448
-0.0973317
27.9853
-0.0951678
21.2115
-0.0933486
16.0872
-0.0917167
12.2072
-0.0899965
9.26597
-0.0878864
7.03347
-0.0850999
5.33686
-0.0815572
4.04644
-0.0773135
3.06387
-0.0726326
2.31629
-0.0678879
1.74837
-0.063266
1.3179
-0.0590951
0.99284
-0.0554097
0.747726
-0.0523102
0.56331
-0.0497081
0.424537
-0.0475543
0.320203
0.241671
-0.0458003
-0.0936255
112.49
-0.0891198
85.1513
-0.0856134
64.4537
-0.0827323
48.7876
-0.0803567
36.9424
-0.0783583
27.9833
-0.0766795
21.2098
-0.0752575
16.0858
-0.0739734
12.2059
-0.0726147
9.26461
-0.0709425
7.03179
-0.0687415
5.33466
-0.0659521
4.04365
-0.0626413
3.06056
-0.0590055
2.31265
-0.0553689
1.74473
-0.0518232
1.31435
-0.0486648
0.989682
-0.0458585
0.74492
-0.0435321
0.560984
-0.0416069
0.422612
-0.0400011
0.318598
0.240347
-0.0386774
-0.0746224
112.486
-0.0711974
85.1478
-0.0685321
64.4511
-0.0663324
48.7854
-0.0645098
36.9406
-0.0629659
27.9818
-0.0616592
21.2085
-0.0605446
16.0847
-0.0595324
12.2049
-0.0584595
9.26354
-0.0571365
7.03047
-0.0554015
5.33293
-0.0532083
4.04145
-0.0506267
3.05798
-0.0478005
2.30982
-0.0450066
1.74193
-0.0422815
1.31163
-0.0398835
0.987284
-0.0377467
0.742783
-0.0359821
0.559219
-0.0345584
0.421189
-0.0333578
0.317398
0.239346
-0.0323567
-0.0594402
112.482
-0.0568151
85.1452
-0.054773
64.449
-0.0530814
48.7837
-0.0516739
36.9392
-0.0504744
27.9806
-0.0494522
21.2075
-0.0485749
16.0838
-0.0477749
12.2041
-0.0469267
9.26269
-0.0458809
7.02943
-0.0445149
5.33156
-0.0427924
4.03973
-0.0407797
3.05597
-0.0385826
2.30763
-0.0364296
1.73978
-0.0343348
1.30953
-0.0325046
0.985455
-0.0308848
0.741164
-0.0295296
0.557865
-0.0284663
0.420125
-0.027565
0.316497
0.23859
-0.0268086
-0.0473222
112.48
-0.0452948
85.1432
-0.0437189
64.4475
-0.0424095
48.7824
-0.0413161
36.9381
-0.0403794
27.9797
-0.0395763
21.2067
-0.0388833
16.0831
-0.0382494
12.2035
-0.037578
9.26202
-0.0367514
7.0286
-0.0356766
5.33049
-0.0343246
4.03838
-0.0327546
3.0544
-0.0310466
2.30592
-0.0293813
1.73812
-0.0277718
1.30792
-0.0263662
0.984049
-0.0251417
0.739939
-0.0240961
0.556819
-0.0232866
0.419316
-0.0226104
0.31582
0.238021
-0.0220412
-0.0376331
112.478
-0.0360369
85.1416
-0.0347978
64.4462
-0.0337674
48.7813
-0.0329054
36.9373
-0.0321648
27.9789
-0.0315273
21.206
-0.0309751
16.0826
-0.0304697
12.203
-0.0299366
9.26148
-0.0292834
7.02795
-0.028439
5.32964
-0.0273807
4.03732
-0.0261584
3.05318
-0.0248349
2.3046
-0.0235463
1.73683
-0.0223146
1.30669
-0.0212342
0.982969
-0.0203105
0.739016
-0.0195102
0.556019
-0.0188835
0.418689
-0.0183788
0.315316
0.237602
-0.0179596
-0.030034
112.476
-0.028858
85.1404
-0.0279447
64.4453
-0.0271794
48.7806
-0.0265337
36.9366
-0.0259727
27.9784
-0.0254839
21.2056
-0.025056
16.0821
-0.0246606
12.2026
-0.0242408
9.26106
-0.0237237
7.02743
-0.0230544
5.32897
-0.0222151
4.03648
-0.0212478
3.05221
-0.0202046
2.30355
-0.0191876
1.73581
-0.0182266
1.30573
-0.0173793
0.982121
-0.0166655
0.738302
-0.016047
0.5554
-0.0155501
0.418192
-0.0151613
0.314927
0.23729
-0.0148486
-0.0237678
112.475
-0.0227547
85.1394
-0.021971
64.4445
-0.0213196
48.7799
-0.0207743
36.9361
-0.0203043
27.9779
-0.0198974
21.2051
-0.0195433
16.0818
-0.0192194
12.2023
-0.0188815
9.26073
-0.0184731
7.02702
-0.0179521
5.32845
-0.0173045
4.03584
-0.0165629
3.05147
-0.0157694
2.30276
-0.0149943
1.73504
-0.0142725
1.30501
-0.0136349
0.981484
-0.0131022
0.73777
-0.0126474
0.554946
-0.0122668
0.417811
-0.0119697
0.31463
0.237069
-0.0117497
-0.017125
112.469
-0.0124871
85.1348
-0.00874481
64.4408
-0.00568811
48.7769
-0.00318821
36.9336
-0.00112623
27.9758
0.000584368
21.2034
0.00201094
16.0803
0.00321818
12.201
0.00428017
9.25966
0.0052738
7.02603
0.00625535
5.32747
0.00724493
4.03485
0.00821457
3.0505
0.00913744
2.30184
0.0099458
1.73423
0.0106426
1.30431
0.0112189
0.980907
0.011657
0.737331
0.0120161
0.554586
0.0122968
0.417531
0.0124775
0.314449
0.236946
0.0126006
-0.0179869
112.463
-0.0131168
85.1299
-0.00918839
64.4369
-0.00597983
48.7736
-0.00335538
36.931
-0.00118973
27.9737
0.000608302
21.2016
0.00210908
16.0788
0.00337938
12.1998
0.00449539
9.25855
0.00553638
7.02499
0.00655998
5.32645
0.00758715
4.03382
0.0085873
3.0495
0.00953484
2.30089
0.0103598
1.7334
0.0110616
1.30361
0.0116433
0.980326
0.0120798
0.736895
0.0124306
0.554235
0.0127079
0.417253
0.0128733
0.314284
0.236832
0.0129878
-0.0188922
112.457
-0.0137783
85.1248
-0.00965442
64.4327
-0.00628654
48.7703
-0.00353143
36.9282
-0.00125703
27.9714
0.000632805
21.1997
0.0022116
16.0773
0.00354819
12.1984
0.00472104
9.25738
0.00581172
7.0239
0.00687913
5.32538
0.007945
4.03275
0.00897621
3.04847
0.00994789
2.29992
0.0107893
1.73256
0.0114943
1.30291
0.0120787
0.979741
0.0125142
0.736459
0.0128543
0.553895
0.0131258
0.416982
0.0132817
0.314128
0.236716
0.0133974
-0.0198432
112.45
-0.0144729
85.1194
-0.0101439
64.4284
-0.006609
48.7667
-0.0037168
36.9253
-0.00132828
27.969
0.000657963
21.1978
0.00231873
16.0756
0.0037251
12.197
0.00495774
9.25614
0.00610058
7.02276
0.00721376
5.32427
0.00831962
4.03165
0.00938252
3.04741
0.0103779
2.29892
0.0112356
1.73171
0.0119422
1.3022
0.0125265
0.979158
0.012961
0.736025
0.0132882
0.553568
0.0135526
0.416717
0.0137065
0.313974
0.2366
0.0138226
-0.0208416
112.443
-0.0152026
85.1138
-0.0106584
64.4239
-0.00694799
48.763
-0.00391196
36.9223
-0.00140367
27.9665
0.000683762
21.1957
0.00243069
16.0739
0.00391049
12.1956
0.0052061
9.25485
0.00640373
7.02156
0.00756477
5.32311
0.00871196
4.0305
0.00980723
3.04631
0.0108257
2.2979
0.0116993
1.73083
0.0124064
1.30149
0.0129874
0.978576
0.01342
0.735592
0.013733
0.553254
0.0139907
0.416459
0.0141486
0.313816
0.236494
0.014255
-0.0218906
112.436
-0.0159691
85.1078
-0.0111988
64.4191
-0.00730433
48.7591
-0.00411741
36.9191
-0.00148347
27.9639
0.000710229
21.1935
0.00254773
16.072
0.00410483
12.194
0.00546677
9.25349
0.006722
7.0203
0.0079331
5.3219
0.00912309
4.02931
0.0102515
3.04518
0.0112925
2.29686
0.0121814
1.72994
0.0128884
1.30079
0.0134628
0.978002
0.013892
0.735163
0.0141918
0.552954
0.0144404
0.41621
0.0146017
0.313655
0.236409
0.0146861
-0.0229918
112.428
-0.0167741
85.1016
-0.0117667
64.4141
-0.00767893
48.7551
-0.00433367
36.9157
-0.00156791
27.9611
0.000737356
21.1912
0.0026701
16.0701
0.00430859
12.1924
0.00574045
9.25205
0.00705631
7.01899
0.00831978
5.32063
0.00955411
4.02808
0.0107165
3.04402
0.0117797
2.2958
0.0126831
1.72904
0.0133898
1.30008
0.0139552
0.977436
0.0143789
0.734739
0.014667
0.552665
0.0149026
0.415975
0.0150555
0.313501
0.236352
0.0151124
-0.0241487
112.42
-0.0176196
85.0951
-0.012363
64.4088
-0.0080727
48.7508
-0.00456133
36.9122
-0.00165721
27.9582
0.000765224
21.1888
0.00279808
16.0681
0.00452232
12.1906
0.00602786
9.25055
0.00740745
7.01761
0.00872577
5.31932
0.010006
4.0268
0.0112032
3.04282
0.0122884
2.29472
0.0132055
1.72812
0.0139122
1.29937
0.0144666
0.976882
0.0148823
0.734323
0.0151591
0.552388
0.0153749
0.415758
0.0155035
0.313373
0.236316
0.0155393
-0.0253634
112.412
-0.0185075
85.0882
-0.0129896
64.4033
-0.00848658
48.7463
-0.00480092
36.9085
-0.0017516
27.9551
0.000793861
21.1862
0.00293201
16.0659
0.00474651
12.1888
0.00632967
9.24896
0.00777632
7.01616
0.00915193
5.31794
0.0104797
4.02547
0.0117124
3.04159
0.0128193
2.29361
0.0137492
1.72719
0.0144561
1.29867
0.0149983
0.976339
0.0154022
0.733919
0.0156644
0.552125
0.0158515
0.415571
0.0159491
0.313275
0.236292
0.0159732
-0.0266391
112.403
-0.0194401
85.081
-0.0136478
64.3975
-0.00892159
48.7415
-0.00505307
36.9047
-0.00185142
27.9519
0.000823254
21.1835
0.00307211
16.0637
0.00498167
12.1869
0.00664658
9.2473
0.00816359
7.01465
0.00959895
5.31651
0.0109756
4.02409
0.0122444
3.04032
0.0133724
2.29248
0.0143141
1.72625
0.0150209
1.29796
0.0155495
0.975811
0.0159367
0.733532
0.0161809
0.551881
0.0163293
0.415422
0.0164002
0.313204
0.236278
0.0164142
-0.0279788
112.394
-0.0204194
85.0735
-0.0143394
64.3914
-0.00937883
48.7366
-0.0053184
36.9006
-0.00195687
27.9486
0.000853443
21.1807
0.00321867
16.0613
0.00522826
12.1849
0.00697917
9.24555
0.00856999
7.01305
0.0100674
5.31501
0.0114942
4.02267
0.0127992
3.03902
0.0139475
2.29133
0.014899
1.7253
0.0156045
1.29725
0.016118
0.975297
0.0164813
0.733168
0.0167044
0.551657
0.0168127
0.415314
0.0168659
0.313151
0.236278
0.0168656
-0.0293859
112.384
-0.021448
85.0655
-0.0150655
64.3851
-0.00985938
48.7314
-0.00559762
36.8964
-0.00206832
27.9451
0.000884446
21.1778
0.00337197
16.0588
0.00548673
12.1828
0.00732805
9.24371
0.00899611
7.01139
0.0105579
5.31345
0.0120356
4.02119
0.0133766
3.03768
0.0145437
2.29016
0.0155026
1.72434
0.0162043
1.29655
0.0167002
0.974801
0.0170331
0.732835
0.0172275
0.551463
0.0172994
0.415242
0.0173369
0.313113
0.23629
0.0173247
-0.0308633
112.374
-0.0225284
85.0572
-0.0158286
64.3784
-0.0103644
48.7259
-0.00589138
36.8919
-0.00218607
27.9413
0.000916216
21.1747
0.00353222
16.0562
0.0057576
12.1806
0.00769386
9.24177
0.00944264
7.00964
0.0110708
5.31182
0.0126003
4.01966
0.0139764
3.0363
0.0151602
2.28898
0.0161229
1.72338
0.016817
1.29586
0.0172917
0.974326
0.0175904
0.732536
0.0177498
0.551303
0.0177914
0.4152
0.0177977
0.313107
0.23631
0.0177778
-0.0324148
112.363
-0.0236627
85.0485
-0.0166299
64.3713
-0.0108951
48.7202
-0.00620049
36.8872
-0.00231046
27.9375
0.000948768
21.1714
0.00369975