/*--------------------------------*- C++ -*----------------------------------*\
  =========                 |
  \\      /  F ield         | OpenFOAM: The Open Source CFD Toolbox
   \\    /   O peration     | Website:  https://openfoam.org
    \\  /    A nd           | Version:  7
     \\/     M anipulation  |
\*---------------------------------------------------------------------------*/
FoamFile
{
    version     2.0;
    format      ascii;
    class       volVectorField;
    location    "50";
    object      U;
}
// * * * * * * * * * * * * * * * * * * * * * * * * * * * * * * * * * * * * * //

dimensions      [0 1 -1 0 0 0 0];

internalField   nonuniform List<vector> 
12842
(
(15.5606 1.36181 4.60804e-19)
(15.5619 1.36421 4.20348e-19)
(15.5629 1.36669 1.20733e-19)
(15.564 1.37039 -3.13663e-19)
(15.565 1.37602 1.22055e-18)
(15.5654 1.38437 0)
(15.5648 1.39646 0)
(15.5626 1.41352 8.75875e-20)
(15.5579 1.43704 -7.01963e-19)
(15.5496 1.46867 -8.894e-21)
(15.5359 1.51011 -2.00038e-19)
(15.5148 1.56296 -4.20678e-22)
(15.4842 1.62841 -6.02117e-20)
(15.4419 1.7069 1.54768e-20)
(15.386 1.7979 -1.82017e-20)
(15.3159 1.89973 -6.5973e-20)
(15.2322 2.0095 -8.09413e-20)
(15.1371 2.12334 0)
(15.0343 2.23685 1.16499e-20)
(14.9282 2.34573 7.97642e-20)
(14.8238 2.44616 1.34315e-20)
(14.7251 2.53616 -5.90711e-20)
(14.6362 2.61162 4.69894e-20)
(15.5609 1.36162 -3.90551e-19)
(15.5627 1.36338 0)
(15.5643 1.36561 1.31549e-18)
(15.5665 1.36915 -7.62846e-19)
(15.5691 1.37473 -9.53285e-19)
(15.5719 1.38322 0)
(15.5745 1.39573 1.36552e-18)
(15.5765 1.41365 0)
(15.5771 1.43868 1.15223e-18)
(15.5751 1.47271 1.08956e-19)
(15.569 1.51778 3.80453e-19)
(15.5569 1.57575 4.98788e-19)
(15.5361 1.64802 5.70195e-20)
(15.5041 1.73506 -1.73952e-19)
(15.4586 1.83609 0)
(15.3983 1.94891 6.60018e-20)
(15.3231 2.06987 1.09815e-19)
(15.2347 2.19424 -1.03216e-19)
(15.1365 2.31687 0)
(15.0331 2.43297 -1.02179e-19)
(14.9298 2.53837 -1.42198e-19)
(14.8306 2.63171 1.4989e-19)
(14.7408 2.70703 -1.52043e-19)
(15.5611 1.36134 0)
(15.5633 1.36245 0)
(15.5654 1.36433 1.16312e-19)
(15.5685 1.36753 4.29867e-18)
(15.5726 1.3728 0)
(15.5775 1.38105 0)
(15.5831 1.3935 2.38984e-19)
(15.5889 1.41169 -1.21865e-18)
(15.5944 1.43747 -5.20838e-19)
(15.5986 1.47299 -4.50654e-19)
(15.6 1.52055 -7.84055e-19)
(15.5965 1.58235 -4.82847e-19)
(15.5855 1.66004 -9.32087e-20)
(15.564 1.7542 2.89027e-19)
(15.5292 1.86393 0)
(15.479 1.98665 1.93364e-20)
(15.4128 2.11806 -2.47171e-20)
(15.332 2.25273 5.79539e-20)
(15.2397 2.38474 2.14727e-20)
(15.1404 2.50881 -4.9989e-20)
(15.0397 2.62033 1.00718e-19)
(14.9418 2.71847 0)
(14.8529 2.79541 5.29761e-20)
(15.5614 1.36097 -1.41653e-19)
(15.5636 1.36149 5.89712e-19)
(15.5662 1.36297 -1.82627e-18)
(15.5701 1.36571 -6.45141e-18)
(15.5755 1.37046 5.72396e-19)
(15.5823 1.37818 -1.86417e-18)
(15.5905 1.39018 -1.73048e-19)
(15.6 1.40813 1.19284e-18)
(15.6101 1.43402 1.85834e-18)
(15.6202 1.47022 -1.06215e-18)
(15.6288 1.51929 1.90938e-18)
(15.6338 1.58375 -2.02739e-19)
(15.6326 1.66557 2.63977e-19)
(15.6218 1.7655 8.61536e-19)
(15.5979 1.88262 -1.09998e-19)
(15.5585 2.01407 1.41421e-19)
(15.5022 2.15507 2.93456e-20)
(15.43 2.29953 8.73874e-20)
(15.3448 2.44087 -4.68038e-20)
(15.2511 2.57336 7.26536e-20)
(15.1547 2.69187 -2.13429e-20)
(15.0598 2.79602 -2.94458e-20)
(14.9733 2.87613 7.51787e-20)
(15.5616 1.36053 -1.4021e-18)
(15.5637 1.36055 0)
(15.5667 1.36161 2.75156e-19)
(15.5713 1.3638 2.25604e-18)
(15.5778 1.36787 2.25364e-19)
(15.5863 1.37481 4.92739e-18)
(15.5969 1.38603 1.70506e-19)
(15.6097 1.40328 -3.00087e-18)
(15.6242 1.42872 -2.08336e-18)
(15.6398 1.46485 1.34703e-18)
(15.6553 1.51452 -2.0727e-18)
(15.6689 1.58057 -1.506e-18)
(15.6775 1.6653 3.27637e-19)
(15.6776 1.76971 -1.92816e-18)
(15.6653 1.89296 -7.50483e-19)
(15.6373 2.03203 4.95182e-19)
(15.5919 2.18174 0)
(15.5296 2.33546 -1.01688e-19)
(15.4529 2.48603 0)
(15.3662 2.62723 7.24057e-20)
(15.2756 2.75339 3.78187e-20)
(15.1852 2.86451 6.396e-21)
(15.1023 2.949 -2.43507e-20)
(15.5618 1.36006 1.30735e-18)
(15.5637 1.35967 0)
(15.567 1.36034 0)
(15.572 1.36191 3.32656e-18)
(15.5794 1.36517 -2.45486e-18)
(15.5894 1.37111 -2.80298e-18)
(15.6022 1.38123 -4.09935e-18)
(15.6179 1.3974 3.30189e-18)
(15.6364 1.42182 0)
(15.6572 1.45719 1.69712e-18)
(15.6794 1.50654 1.87638e-18)
(15.7012 1.57306 7.52328e-19)
(15.7197 1.65942 0)
(15.731 1.76695 1.06279e-18)
(15.7307 1.89497 6.28678e-19)
(15.7151 2.04042 -3.4863e-19)
(15.6817 2.19783 -8.666e-20)
(15.6305 2.36018 6.19683e-19)
(15.5638 2.51973 0)
(15.4857 2.66988 -1.51585e-19)
(15.4023 2.80426 9.07494e-20)
(15.3177 2.92323 1.09234e-19)
(15.2396 3.01317 -4.29363e-20)
(15.5619 1.35957 -1.42305e-19)
(15.5636 1.35887 0)
(15.567 1.35921 0)
(15.5723 1.36012 -3.29472e-18)
(15.5805 1.36248 2.82287e-18)
(15.5916 1.36727 -3.48333e-19)
(15.6062 1.37607 2.40374e-18)
(15.6246 1.39081 2.25151e-19)
(15.6466 1.41377 -2.95686e-19)
(15.6722 1.44772 -1.91356e-18)
(15.7007 1.49591 -2.15064e-19)
(15.7305 1.56181 1.54263e-18)
(15.7586 1.64851 0)
(15.7811 1.7577 -1.46595e-18)
(15.7931 1.88901 1.28826e-19)
(15.7904 2.03944 -1.6583e-19)
(15.77 2.20341 5.05725e-19)
(15.7312 2.37357 -3.60834e-19)
(15.6761 2.5417 -4.95123e-19)
(15.6082 2.70081 -1.03824e-19)
(15.5337 2.84381 1.51705e-20)
(15.4563 2.97135 -1.13547e-19)
(15.3844 3.06763 -5.77193e-20)
(15.562 1.35911 0)
(15.5635 1.35818 -1.75635e-19)
(15.5669 1.35819 2.04084e-18)
(15.5724 1.35842 -5.9824e-20)
(15.5811 1.35983 -2.82099e-18)
(15.5931 1.36334 4.57323e-19)
(15.6093 1.37062 -8.85359e-20)
(15.6297 1.38364 -1.85643e-18)
(15.6548 1.40467 0)
(15.6846 1.43656 -2.26429e-18)
(15.7189 1.48267 1.90212e-19)
(15.7563 1.54679 1.07463e-19)
(15.7942 1.6324 0)
(15.8281 1.74167 1.43456e-18)
(15.853 1.8746 -1.20481e-18)
(15.864 2.02846 0)
(15.8577 2.19764 -4.97112e-19)
(15.8327 2.37467 0)
(15.7906 2.55089 3.96683e-19)
(15.7347 2.71899 0)
(15.6708 2.87098 -1.51025e-19)
(15.6023 3.00795 9.97489e-20)
(15.5377 3.1115 1.21581e-19)
(15.562 1.35863 0)
(15.5632 1.35757 0)
(15.5665 1.35746 -3.40789e-20)
(15.5719 1.35721 -1.28904e-19)
(15.5809 1.35782 3.19568e-18)
(15.5935 1.36022 2.60192e-18)
(15.6107 1.36612 0)
(15.6329 1.37756 1.73764e-18)
(15.6604 1.39687 0)
(15.6933 1.42694 4.58555e-18)
(15.7316 1.47118 1.73773e-18)
(15.7744 1.53355 -1.31096e-18)
(15.8192 1.6178 -1.33074e-19)
(15.8617 1.72649 0)
(15.8968 1.85996 1.28281e-18)
(15.9194 2.01574 1.01417e-18)
(15.9253 2.18829 -8.66285e-20)
(15.913 2.37008 6.48322e-19)
(15.8834 2.55211 5.53166e-19)
(15.8392 2.72697 0)
(15.786 2.88575 1.09721e-19)
(15.7267 3.03025 1.04375e-20)
(15.6698 3.14002 -6.92993e-20)
(15.562 1.35818 -1.45854e-20)
(15.563 1.35707 2.15649e-18)
(15.5662 1.35686 -1.83811e-18)
(15.5715 1.35617 0)
(15.5808 1.35611 5.613e-20)
(15.5938 1.35761 4.41705e-20)
(15.6119 1.36243 -2.3216e-18)
(15.6354 1.37264 0)
(15.6645 1.39055 0)
(15.6999 1.41907 -2.28444e-18)
(15.7415 1.46165 -1.84113e-18)
(15.7888 1.52239 -5.38017e-20)
(15.8393 1.60528 1.40557e-18)
(15.8891 1.71314 -4.53901e-20)
(15.9327 1.8466 -1.81991e-19)
(15.9649 2.00337 2.12015e-19)
(15.9814 2.17799 -6.81108e-19)
(15.98 2.36293 -6.02439e-19)
(15.9614 2.54898 -6.25033e-19)
(15.9278 2.72872 -4.51262e-19)
(15.8846 2.89253 1.29922e-19)
(15.8341 3.04275 -5.60274e-19)
(15.785 3.15736 9.64011e-20)
(15.562 1.35777 1.87708e-18)
(15.5628 1.35667 -2.42448e-18)
(15.5659 1.35635 5.48398e-20)
(15.5712 1.35524 1.78099e-18)
(15.5807 1.35452 -8.58951e-20)
(15.594 1.35518 -2.62384e-18)
(15.6129 1.35896 4.38089e-18)
(15.6375 1.368 1.16288e-19)
(15.6683 1.38456 -8.45159e-20)
(15.7059 1.41153 -2.403e-18)
(15.7506 1.45238 6.95131e-20)
(15.8021 1.51128 -1.70924e-18)
(15.8582 1.59246 -1.25028e-18)
(15.915 1.69903 0)
(15.9672 1.83186 1.5441e-18)
(16.0092 1.98891 -2.21233e-18)
(16.0365 2.1648 -1.70446e-19)
(16.0468 2.35206 6.45627e-19)
(16.0403 2.54134 -2.67863e-21)
(16.0187 2.72526 5.70985e-19)
(15.9872 2.89353 0)
(15.9472 3.049 1.74143e-19)
(15.9075 3.16814 0)
(15.5619 1.35742 -3.06645e-18)
(15.5626 1.35635 -2.2711e-18)
(15.5656 1.35593 8.92808e-20)
(15.5709 1.35443 -3.48415e-18)
(15.5805 1.35306 1.60806e-18)
(15.5942 1.35291 -7.51672e-20)
(15.6138 1.35569 -2.22378e-18)
(15.6394 1.36358 3.26601e-20)
(15.6717 1.37882 -9.61716e-20)
(15.7114 1.40424 2.47347e-18)
(15.7589 1.44327 0)
(15.8144 1.50016 1.55982e-18)
(15.8759 1.57933 1.24487e-19)
(15.9396 1.68415 -6.17104e-20)
(16.0003 1.81576 -1.5977e-18)
(16.0523 1.97236 3.56551e-21)
(16.0911 2.14867 6.24314e-19)
(16.1139 2.33737 -1.06808e-18)
(16.1206 2.52895 0)
(16.1125 2.71619 -4.20435e-19)
(16.0942 2.88813 5.39394e-19)
(16.0664 3.04818 0)
(16.0378 3.1714 -2.70665e-19)
(15.5618 1.35714 1.07799e-18)
(15.5624 1.35609 3.81167e-20)
(15.5653 1.3556 8.79155e-20)
(15.5705 1.35371 1.67378e-18)
(15.5802 1.35173 -3.13571e-18)
(15.5942 1.35078 1.34372e-20)
(15.6144 1.35257 3.21349e-20)
(15.6411 1.35935 1.90502e-18)
(15.6747 1.37327 -4.35991e-20)
(15.7162 1.39712 0)
(15.7665 1.43424 2.04313e-18)
(15.8258 1.48895 4.86726e-20)
(15.8925 1.56581 4.9624e-20)
(15.963 1.66843 1.32041e-20)
(16.0322 1.79822 -1.60513e-19)
(16.0946 1.95362 1.25263e-18)
(16.1454 2.12948 -7.35167e-19)
(16.1816 2.31863 -1.23439e-19)
(16.2027 2.51144 -2.25745e-19)
(16.2093 2.70092 5.96584e-19)
(16.2058 2.87548 -3.76637e-19)
(16.1919 3.03909 7.71734e-19)
(16.1758 3.16573 -4.8362e-19)
(15.5616 1.35693 1.08123e-18)
(15.5623 1.3559 2.16486e-18)
(15.565 1.35533 7.74805e-21)
(15.5701 1.35309 1.7601e-18)
(15.5799 1.35049 3.14433e-18)
(15.5941 1.34878 -1.34213e-20)
(15.6149 1.3496 -3.2415e-20)
(15.6424 1.35527 2.08351e-20)
(15.6773 1.36787 -1.54563e-18)
(15.7206 1.3901 1.29692e-18)
(15.7734 1.42521 -2.14969e-18)
(15.8363 1.47754 -1.73525e-18)
(15.908 1.55177 1.47786e-18)
(15.9854 1.65173 0)
(16.0633 1.77906 9.33729e-19)
(16.1363 1.93246 0)
(16.1996 2.1069 9.75088e-19)
(16.25 2.2954 5.95479e-19)
(16.2866 2.4882 -8.1099e-21)
(16.3092 2.67861 -6.77672e-19)
(16.3219 2.85442 -8.66947e-21)
(16.3232 3.02023 1.23309e-20)
(16.3212 3.14927 -2.01075e-19)
(15.5615 1.35678 -4.44871e-20)
(15.5621 1.35577 1.90043e-20)
(15.5647 1.35513 -7.32673e-21)
(15.5698 1.35256 -1.7602e-18)
(15.5796 1.34937 -1.55969e-18)
(15.594 1.34691 0)
(15.6153 1.34677 2.06916e-20)
(15.6436 1.35133 -1.92038e-18)
(15.6795 1.36259 -1.84043e-20)
(15.7245 1.38315 -1.29782e-18)
(15.7796 1.41615 1.1165e-18)
(15.846 1.4659 2.70287e-18)
(15.9227 1.53714 -1.42616e-18)
(16.0068 1.63393 1.16761e-18)
(16.0935 1.75812 1.0539e-19)
(16.1776 1.90864 1.28134e-20)
(16.2539 2.08058 -5.58102e-20)
(16.3193 2.26714 -1.93219e-19)
(16.3722 2.45847 1.30122e-19)
(16.4121 2.6482 -2.23191e-19)
(16.4421 2.82356 -1.75687e-20)
(16.4601 2.98978 1.73364e-19)
(16.4733 3.11981 0)
(15.5613 1.35668 -5.95797e-20)
(15.562 1.35569 0)
(15.5645 1.35499 0)
(15.5694 1.3521 -1.75051e-18)
(15.5792 1.34834 -1.58143e-18)
(15.5937 1.34515 1.37654e-18)
(15.6155 1.34405 1.64824e-20)
(15.6445 1.34751 -1.71679e-20)
(15.6815 1.35741 1.58692e-18)
(15.7279 1.37626 -2.37308e-20)
(15.7853 1.40702 5.02767e-20)
(15.855 1.45394 -9.16675e-19)
(15.9365 1.52184 0)
(16.0274 1.61491 -1.2398e-18)
(16.123 1.73521 -1.99536e-18)
(16.2183 1.88187 -8.34157e-19)
(16.3082 2.05007 -5.17288e-19)
(16.3892 2.23324 0)
(16.4594 2.42138 0)
(16.5174 2.6085 3.91154e-19)
(16.5658 2.78133 2.61982e-19)
(16.6015 2.94572 -5.42152e-19)
(16.631 3.07491 0)
(15.5612 1.35664 -1.16627e-18)
(15.5618 1.35565 9.3479e-21)
(15.5642 1.35491 -3.40056e-21)
(15.569 1.3517 1.73846e-18)
(15.5787 1.34739 3.13744e-18)
(15.5934 1.34348 -2.7368e-18)
(15.6156 1.34144 -1.66169e-20)
(15.6452 1.34379 -1.73359e-20)
(15.6831 1.35231 2.28153e-20)
(15.731 1.36937 0)
(15.7904 1.39776 -1.10577e-18)
(15.8633 1.44162 9.5619e-19)
(15.9496 1.50576 0)
(16.0472 1.59452 0)
(16.1518 1.71008 9.4756e-19)
(16.2586 1.8518 5.91298e-20)
(16.3625 2.01489 5.87539e-19)
(16.4596 2.19297 4.55299e-19)
(16.5477 2.3759 -6.55866e-19)
(16.6245 2.55813 -2.33055e-19)
(16.692 2.72598 9.14765e-19)
(16.746 2.88585 -8.40178e-19)
(16.7924 3.01197 5.48276e-19)
(15.561 1.35665 5.51357e-19)
(15.5617 1.35565 9.46029e-19)
(15.564 1.35487 9.00856e-21)
(15.5686 1.35138 -1.19173e-20)
(15.5783 1.34653 -1.5777e-18)
(15.5931 1.34191 1.38903e-18)
(15.6155 1.33891 -1.06271e-20)
(15.6457 1.34015 -3.48264e-21)
(15.6845 1.34725 2.3015e-20)
(15.7336 1.36247 1.21992e-20)
(15.795 1.38834 -1.60122e-20)
(15.871 1.42887 -9.56541e-19)
(15.9619 1.48882 8.51746e-19)
(16.0661 1.5726 -3.82751e-20)
(16.1798 1.68251 0)
(16.2983 1.81806 -9.1318e-20)
(16.4164 1.97448 7.47924e-20)
(16.53 2.14555 -4.58339e-19)
(16.6362 2.32098 8.33575e-19)
(16.7321 2.4957 4.88811e-19)
(16.8188 2.65575 -3.28984e-19)
(16.8913 2.80805 -4.82228e-19)
(16.9545 2.92847 6.17844e-19)
(15.5609 1.3567 -2.25269e-20)
(15.5615 1.35569 -9.53396e-19)
(15.5637 1.35487 0)
(15.5682 1.3511 0)
(15.5777 1.34574 0)
(15.5926 1.34042 0)
(15.6154 1.33647 1.07043e-20)
(15.6461 1.33658 -5.29838e-21)
(15.6856 1.34223 -1.15923e-20)
(15.7359 1.35552 1.23262e-20)
(15.7991 1.37872 -1.61829e-20)
(15.878 1.41563 0)
(15.9734 1.47093 -1.66144e-18)
(16.0841 1.54901 4.89449e-20)
(16.2068 1.65226 -1.02976e-19)
(16.337 1.78028 9.69731e-19)
(16.4694 1.92827 -7.84408e-20)
(16.5995 2.09019 1.34219e-19)
(16.7238 2.25555 -1.53348e-19)
(16.8385 2.41989 2.7122e-19)
(16.944 2.56908 -3.83448e-19)
(17.0343 2.71053 0)
(17.1135 2.82243 3.62384e-19)
(15.5607 1.35679 -1.06109e-18)
(15.5614 1.35575 -4.66615e-19)
(15.5635 1.35491 -6.20109e-21)
(15.5677 1.35089 8.76699e-19)
(15.5772 1.34502 7.91563e-19)
(15.5921 1.33901 6.43071e-21)
(15.6151 1.33411 -1.21102e-18)
(15.6462 1.33306 1.00347e-18)
(15.6865 1.33723 8.02866e-19)
(15.7378 1.3485 0)
(15.8027 1.36886 2.13131e-20)
(15.8843 1.40186 -1.02632e-18)
(15.9839 1.45199 8.69422e-19)
(16.101 1.52361 6.72842e-19)
(16.2326 1.61907 5.82336e-19)
(16.3743 1.73807 0)
(16.5207 1.8757 0)
(16.667 2.02612 -5.40551e-19)
(16.8089 2.17869 -5.86949e-19)
(16.9415 2.3296 2.93679e-19)
(17.0646 2.46482 2.08422e-19)
(17.1711 2.59217 2.89832e-19)
(17.2648 2.69265 -3.99938e-19)
(15.5606 1.35691 5.26288e-19)
(15.5613 1.35583 4.68358e-19)
(15.5633 1.35498 -4.51925e-21)
(15.5673 1.3507 4.19124e-21)
(15.5767 1.34434 -7.90912e-19)
(15.5916 1.33764 -6.99768e-19)
(15.6147 1.33179 5.88693e-19)
(15.6462 1.32957 -9.93381e-19)
(15.6871 1.33222 -7.98794e-19)
(15.7394 1.34139 -1.93929e-20)
(15.8057 1.35873 0)
(15.8898 1.38748 9.97883e-19)
(15.9934 1.43189 8.64197e-19)
(16.1166 1.49619 -7.1328e-19)
(16.2567 1.58266 -4.99737e-19)
(16.4096 1.69104 -2.39368e-19)
(16.5696 1.81628 -2.01712e-19)
(16.7312 1.95277 1.10927e-18)
(16.8895 2.08976 0)
(17.0385 2.22427 0)
(17.1771 2.34258 2.36006e-19)
(17.2975 2.45291 -5.896e-19)
(17.4033 2.53932 -4.35276e-19)
(15.5605 1.35707 -4.80979e-19)
(15.5612 1.35597 0)
(15.5631 1.35512 0)
(15.5668 1.35063 -1.74541e-18)
(15.576 1.3438 7.86179e-19)
(15.5908 1.33641 7.15216e-19)
(15.6141 1.32956 -2.62538e-21)
(15.646 1.32613 4.91641e-19)
(15.6874 1.32717 1.91227e-20)
(15.7405 1.33417 -6.92326e-19)
(15.8082 1.34833 2.16138e-20)
(15.8945 1.37253 -2.83623e-20)
(16.0018 1.41068 -8.63913e-19)
(16.1307 1.4668 7.39378e-19)
(16.2788 1.54302 5.68808e-19)
(16.4423 1.63908 -5.03797e-19)
(16.6149 1.74981 4.61492e-19)
(16.7906 1.8699 -5.68453e-19)
(16.9634 1.98862 0)
(17.1264 2.10398 0)
(17.2778 2.20287 -2.2297e-19)
(17.4092 2.29384 1.64912e-19)
(17.5241 2.36389 -4.66944e-19)
(15.5603 1.35717 2.259e-20)
(15.5612 1.356 -4.86429e-19)
(15.5629 1.35508 0)
(15.5665 1.35033 4.36496e-19)
(15.5756 1.34303 -1.58753e-18)
(15.5905 1.33499 6.49571e-21)
(15.6138 1.32726 -1.14747e-20)
(15.6458 1.32272 -5.0844e-19)
(15.6875 1.32218 1.17381e-20)
(15.7412 1.32684 6.93765e-19)
(15.8099 1.33753 -1.64647e-20)
(15.8982 1.3567 -4.8949e-19)
(16.0089 1.3879 -5.67393e-20)
(16.143 1.43489 -6.97044e-19)
(16.2986 1.49954 -6.55485e-19)
(16.4716 1.58161 4.54287e-20)
(16.6556 1.67583 0)
(16.8436 1.77731 -8.14045e-20)
(17.0285 1.87553 1.06653e-19)
(17.2025 1.96966 0)
(17.3633 2.04755 2.40697e-19)
(17.5019 2.118 -1.6356e-19)
(17.6223 2.17066 0)
(15.5602 1.35757 4.67007e-19)
(15.561 1.35643 4.87187e-19)
(15.5626 1.3557 0)
(15.5659 1.3509 4.35599e-19)
(15.5748 1.34325 1.59985e-18)
(15.5895 1.33456 7.17943e-19)
(15.613 1.32577 1.223e-18)
(15.6454 1.31998 0)
(15.6876 1.31805 8.23017e-19)
(15.742 1.32096 -6.85357e-19)
(15.8114 1.32891 5.84708e-19)
(15.9012 1.34369 5.15427e-19)
(16.0143 1.36816 -8.15722e-21)
(16.1527 1.40561 1.06784e-20)
(16.3145 1.45753 -6.36616e-19)
(16.4959 1.52361 5.07052e-19)
(16.6896 1.59853 0)
(16.8879 1.67807 3.1122e-19)
(17.0825 1.75229 0)
(17.2646 1.82177 0)
(17.4315 1.87583 -2.34716e-19)
(17.5739 1.92341 -5.12213e-19)
(17.6965 1.95692 4.46171e-19)
(15.5601 1.35781 0)
(15.561 1.35666 -1.86957e-23)
(15.5625 1.356 5.9937e-23)
(15.5657 1.35115 -4.38269e-19)
(15.5745 1.34329 -3.97398e-19)
(15.5891 1.33422 -7.17326e-19)
(15.6126 1.3248 -6.12861e-19)
(15.6452 1.31816 -5.61207e-22)
(15.6875 1.31505 -4.10702e-19)
(15.7421 1.31625 1.59709e-21)
(15.8122 1.32149 -2.65881e-22)
(15.903 1.33191 0)
(16.0181 1.34963 8.19747e-21)
(16.1599 1.37731 -1.0723e-20)
(16.3269 1.41587 9.32049e-19)
(16.515 1.46485 2.96564e-20)
(16.7164 1.51893 0)
(16.9221 1.57473 8.97492e-20)
(17.1229 1.62331 -1.09624e-19)
(17.3091 1.66673 0)
(17.4779 1.69636 0)
(17.6202 1.72108 3.3166e-19)
(17.7417 1.73572 -2.33257e-19)
(15.56 1.35804 4.30734e-19)
(15.561 1.35689 5.06217e-19)
(15.5624 1.35627 0)
(15.5655 1.35136 4.3842e-19)
(15.5742 1.3433 -4.04452e-19)
(15.5888 1.33388 -7.31067e-19)
(15.6123 1.32386 6.22173e-19)
(15.645 1.31639 -5.09648e-19)
(15.6876 1.31211 -4.11573e-19)
(15.7425 1.31157 1.02508e-18)
(15.813 1.31401 -5.84561e-19)
(15.9047 1.31993 -5.12012e-19)
(16.0215 1.3307 -4.51025e-19)
(16.166 1.34827 0)
(16.3369 1.37301 -3.19734e-19)
(16.5298 1.40435 5.25012e-19)
(16.736 1.4372 2.82908e-20)
(16.9457 1.46916 -3.48731e-19)
(17.1486 1.49269 0)
(17.3347 1.51126 0)
(17.5012 1.51838 0)
(17.64 1.52258 -4.9999e-19)
(17.7576 1.52052 4.50051e-19)
(15.56 1.35828 -4.30984e-19)
(15.5609 1.35712 6.51401e-21)
(15.5623 1.35655 0)
(15.5653 1.35159 -4.46155e-19)
(15.5739 1.34333 -4.41866e-23)
(15.5885 1.33355 1.10041e-18)
(15.612 1.32294 -1.24879e-18)
(15.6449 1.31465 1.53306e-18)
(15.6877 1.3092 -4.6297e-22)
(15.7429 1.30692 -3.40287e-19)
(15.8137 1.30652 -2.93095e-19)
(15.9061 1.30787 5.13333e-19)
(16.024 1.31153 4.45733e-19)
(16.1704 1.31874 -3.8572e-19)
(16.3438 1.32933 5.76228e-21)
(16.5395 1.3427 -5.30782e-19)
(16.748 1.35423 0)
(16.9584 1.36272 0)
(17.1599 1.36231 2.32808e-19)
(17.3425 1.35777 0)
(17.5038 1.3446 0)
(17.6366 1.33085 7.95356e-20)
(17.7485 1.31437 2.18101e-19)
(15.5599 1.35853 0)
(15.5609 1.35735 -5.13242e-19)
(15.5622 1.35684 1.21446e-23)
(15.5651 1.35182 -4.14126e-21)
(15.5736 1.34337 -3.05706e-23)
(15.5882 1.33324 -7.40924e-19)
(15.6118 1.32204 6.26571e-19)
(15.6447 1.31294 -1.0233e-18)
(15.6877 1.30632 -4.11015e-19)
(15.7431 1.30227 0)
(15.8142 1.29903 2.91597e-19)
(15.9069 1.29574 1.04115e-21)
(16.0255 1.29219 2.54125e-22)
(16.1728 1.28888 3.8378e-19)
(16.3474 1.28513 0)
(16.5439 1.28045 2.67692e-19)
(16.7521 1.27093 -5.98055e-21)
(16.9603 1.25673 0)
(17.1575 1.23386 -2.32001e-19)
(17.334 1.20823 0)
(17.4877 1.17715 0)
(17.6129 1.14799 0)
(17.718 1.11931 -1.97747e-21)
(15.5598 1.3588 0)
(15.5608 1.3576 2.62416e-19)
(15.5621 1.35714 -2.26647e-24)
(15.5649 1.35207 4.50657e-19)
(15.5733 1.34343 4.20572e-19)
(15.5878 1.33295 7.45498e-19)
(15.6114 1.32117 0)
(15.6445 1.31125 -5.10589e-19)
(15.6876 1.30345 8.19755e-19)
(15.7431 1.29765 -1.07764e-23)
(15.8143 1.29154 2.8869e-19)
(15.9071 1.2836 -2.53491e-19)
(16.0257 1.27277 0)
(16.1731 1.25885 0)
(16.3474 1.24074 3.22317e-19)
(16.5429 1.21815 -2.62606e-19)
(16.7485 1.18814 0)
(16.9519 1.15237 -3.09086e-19)
(17.1423 1.10876 -2.29422e-19)
(17.3106 1.06423 0)
(17.4552 1.01757 3.7118e-21)
(17.5719 0.975404 2.54138e-22)
(17.6695 0.936533 -1.13577e-19)
(15.5598 1.35907 2.4664e-24)
(15.5608 1.35785 -5.26936e-19)
(15.562 1.35744 -6.37225e-24)
(15.5647 1.35234 0)
(15.5731 1.34351 1.87346e-21)
(15.5875 1.33269 -7.47951e-19)
(15.6111 1.32032 -1.39764e-22)
(15.6442 1.30958 5.10505e-19)
(15.6874 1.30061 -4.08598e-19)
(15.743 1.29305 3.33766e-19)
(15.8141 1.28407 -2.41796e-21)
(15.9066 1.27147 5.05224e-19)
(16.0247 1.25336 -4.43713e-19)
(16.1713 1.22885 1.33918e-21)
(16.344 1.19648 -6.44767e-19)
(16.5365 1.15635 2.67766e-19)
(16.7373 1.10667 -1.28859e-20)
(16.9338 1.05068 3.19142e-19)
(17.1154 0.988217 2.27557e-19)
(17.274 0.926977 0)
(17.4085 0.866944 1.10788e-19)
(17.516 0.813923 0)
(17.6059 0.766618 -4.89267e-20)
(15.5597 1.35936 0)
(15.5608 1.3581 2.64514e-19)
(15.5619 1.35776 2.33669e-19)
(15.5645 1.35261 2.41641e-23)
(15.5728 1.34361 -8.46262e-19)
(15.5871 1.33245 3.74469e-19)
(15.6107 1.3195 0)
(15.6438 1.30794 0)
(15.6871 1.2978 -2.25837e-22)
(15.7427 1.28848 -3.33444e-19)
(15.8135 1.27665 -2.68898e-21)
(15.9055 1.25942 -2.51282e-19)
(16.0226 1.23406 4.41682e-19)
(16.1674 1.19906 0)
(16.3371 1.1527 3.19719e-19)
(16.525 1.09557 -2.59315e-19)
(16.719 1.02725 1.85862e-19)
(16.9067 0.952564 1.7836e-20)
(17.0779 0.873177 0)
(17.2256 0.797346 0)
(17.3493 0.725968 -5.44671e-20)
(17.4476 0.66398 -1.46203e-19)
(17.5297 0.609734 1.0158e-19)
(15.5597 1.35965 0)
(15.5608 1.35837 -9.69167e-24)
(15.5618 1.35808 -2.33746e-19)
(15.5643 1.3529 2.29899e-19)
(15.5725 1.34373 4.23586e-19)
(15.5867 1.33224 8.16879e-23)
(15.6103 1.31871 3.1272e-19)
(15.6434 1.30633 2.51295e-19)
(15.6867 1.29501 -3.99443e-19)
(15.7422 1.28395 0)
(15.8127 1.2693 -2.84848e-21)
(15.9038 1.24747 -2.46367e-19)
(16.0193 1.21497 0)
(16.1614 1.16967 -6.82107e-21)
(16.3269 1.10971 3.21051e-19)
(16.5085 1.03632 0)
(16.694 0.950542 -3.08851e-20)
(16.8712 0.858785 -4.73616e-21)
(17.0309 0.764384 2.64717e-19)
(17.1669 0.675945 0)
(17.2796 0.595025 0)
(17.3687 0.525675 7.34914e-20)
(17.4432 0.465719 -2.43867e-19)
(15.5597 1.35996 -4.95797e-24)
(15.5607 1.35864 6.5461e-24)
(15.5617 1.35841 0)
(15.5641 1.35321 2.3047e-19)
(15.5722 1.34386 -2.15005e-22)
(15.5863 1.33205 1.63224e-22)
(15.6098 1.31795 -3.12603e-19)
(15.643 1.30474 -2.51552e-19)
(15.6863 1.29226 3.99468e-19)
(15.7416 1.27946 -3.23522e-19)
(15.8116 1.26202 -2.81344e-19)
(15.9015 1.23567 2.48607e-19)
(16.0149 1.19616 2.10711e-19)
(16.1535 1.14084 1.7716e-19)
(16.3135 1.06782 -3.14333e-19)
(16.4872 0.979055 1.43224e-20)
(16.6627 0.877124 -2.2216e-19)
(16.8281 0.769965 -1.08578e-19)
(16.9753 0.662389 -1.10189e-19)
(17.0993 0.563151 7.71602e-20)
(17.2009 0.474258 -9.99526e-20)
(17.2809 0.398885 0)
(17.3479 0.33422 9.29949e-20)
(15.5596 1.36027 0)
(15.5607 1.35892 2.65728e-19)
(15.5617 1.35875 2.32902e-19)
(15.5639 1.35352 -2.30105e-19)
(15.5719 1.34402 2.12073e-19)
(15.5859 1.33189 0)
(15.6093 1.31721 3.42032e-22)
(15.6425 1.30319 -4.50324e-22)
(15.6858 1.28955 1.96936e-19)
(15.7409 1.27503 4.84902e-19)
(15.8102 1.25484 -2.72992e-19)
(15.8987 1.22406 -1.68542e-21)
(16.0094 1.17774 -3.27565e-21)
(16.1435 1.11276 -1.83881e-19)
(16.2969 1.02732 0)
(16.4615 0.924187 2.40772e-19)
(16.6256 0.8075 -1.85712e-19)
(16.7782 0.68661 1.4304e-19)
(16.9123 0.567592 4.95927e-20)
(17.024 0.459182 5.05712e-21)
(17.1145 0.363677 -9.63958e-20)
(17.1858 0.283403 6.54535e-20)
(17.2455 0.214862 9.21408e-20)
(15.5596 1.3606 1.03616e-19)
(15.5607 1.3592 -4.80809e-22)
(15.5616 1.35909 -2.32992e-19)
(15.5637 1.35385 -2.30345e-19)
(15.5716 1.3442 -4.24332e-19)
(15.5855 1.33175 -3.72806e-19)
(15.6089 1.3165 -3.40907e-22)
(15.642 1.30167 4.48825e-22)
(15.6852 1.28687 -1.96951e-19)
(15.74 1.27066 -1.60636e-19)
(15.8085 1.24777 5.4525e-19)
(15.8952 1.21269 -2.36501e-19)
(16.0028 1.15979 -2.10407e-19)
(16.1317 1.08559 1.76763e-19)
(16.2773 0.988485 -1.04771e-20)
(16.4315 0.872095 -2.10938e-19)
(16.5831 0.742103 1.89401e-19)
(16.7221 0.609122 -2.01688e-19)
(16.8427 0.480284 -5.31476e-20)
(16.9419 0.364162 0)
(17.0216 0.263227 9.74136e-20)
(17.0843 0.179012 -1.29133e-19)
(17.137 0.107318 1.75518e-19)
(15.5596 1.36093 -1.03638e-19)
(15.5607 1.35949 -3.97889e-19)
(15.5615 1.35944 -2.32776e-19)
(15.5635 1.35419 2.31158e-19)
(15.5713 1.34439 2.12223e-19)
(15.5851 1.33163 3.72831e-19)
(15.6084 1.31583 3.105e-19)
(15.6415 1.30017 0)
(15.6846 1.28423 1.94705e-19)
(15.739 1.26635 -1.57649e-19)
(15.8065 1.24084 -2.7098e-19)
(15.8912 1.2016 2.36501e-19)
(15.9951 1.1424 0)
(16.1181 1.0595 -1.64241e-19)
(16.255 0.951562 1.25779e-19)
(16.3978 0.823114 -1.13084e-19)
(16.5359 0.681301 4.76514e-20)
(16.6606 0.537826 7.16595e-20)
(16.7674 0.400672 -1.90185e-19)
(16.8541 0.278152 1.27856e-19)
(16.9232 0.172821 0)
(16.9776 0.0854767 -2.52578e-19)
(17.0234 0.0112448 3.62563e-19)
(15.5596 1.36127 0)
(15.5606 1.35978 1.32514e-19)
(15.5614 1.3598 2.32772e-19)
(15.5633 1.35455 -2.31246e-19)
(15.571 1.3446 -3.22306e-23)
(15.5847 1.33154 1.63221e-22)
(15.6078 1.31517 -1.55128e-19)
(15.6409 1.29871 0)
(15.6839 1.28163 -1.94721e-19)
(15.7378 1.26211 1.59169e-21)
(15.8042 1.23406 0)
(15.8866 1.19082 -1.14001e-19)
(15.9864 1.12565 0)
(16.1028 1.03463 1.22149e-20)
(16.2301 0.916779 -2.76205e-19)
(16.3605 0.777537 8.75787e-20)
(16.4844 0.625404 4.56538e-20)
(16.5943 0.472979 -1.81612e-19)
(16.6871 0.328904 9.2167e-20)
(16.7614 0.201166 1.29731e-19)
(16.82 0.0923229 -2.1015e-19)
(16.8664 0.00249969 1.76562e-19)
(16.9056 -0.073779 -6.54038e-19)
(15.5595 1.36162 -9.87498e-20)
(15.5606 1.36008 1.32429e-19)
(15.5614 1.36017 -1.16748e-19)
(15.5631 1.35491 -1.18285e-22)
(15.5707 1.34483 2.15804e-22)
(15.5842 1.33147 -3.73612e-22)
(15.6073 1.31455 -1.55222e-19)
(15.6403 1.29728 9.81197e-22)
(15.6831 1.27907 -7.03023e-22)
(15.7366 1.25796 1.71763e-21)
(15.8017 1.22744 -1.29685e-19)
(15.8815 1.1804 1.09837e-19)
(15.9768 1.10962 5.46369e-21)
(16.0858 1.01112 -1.18106e-20)
(16.2028 0.884336 1.53141e-19)
(16.3201 0.735617 0)
(16.4291 0.574672 7.89977e-20)
(16.5239 0.414787 1.22518e-19)
(16.6026 0.265076 -8.87841e-20)
(16.6646 0.133168 2.38222e-19)
(16.713 0.0215599 -1.17263e-19)
(16.7516 -0.0702515 2.64943e-20)
(16.7844 -0.148198 3.32071e-19)
(15.5595 1.36197 1.95923e-19)
(15.5606 1.36039 -1.3247e-19)
(15.5613 1.36054 -3.68652e-22)
(15.5629 1.35528 0)
(15.5704 1.34507 0)
(15.5838 1.33143 -1.87763e-19)
(15.6068 1.31396 -1.55418e-19)
(15.6396 1.29589 0)
(15.6823 1.27657 -8.43471e-22)
(15.7352 1.25388 1.55473e-19)
(15.7989 1.22101 1.32057e-19)
(15.8759 1.17036 -3.09827e-21)
(15.9662 1.09438 -6.90266e-21)
(16.0675 0.989084 2.03934e-20)
(16.1735 0.854411 -1.48691e-20)
(16.277 0.697568 0)
(16.3706 0.529318 -1.12846e-19)
(16.45 0.363411 5.61197e-21)
(16.5145 0.209255 -2.38789e-19)
(16.5642 0.0741084 1.08843e-19)
(16.6027 -0.0396233 1.56455e-19)
(16.6338 -0.133019 -2.53769e-19)
(16.6603 -0.212307 0)
(15.5595 1.36233 -1.92798e-19)
(15.5606 1.3607 1.26963e-23)
(15.5612 1.36092 1.17213e-19)
(15.5628 1.35567 0)
(15.5701 1.34534 0)
(15.5834 1.33141 -3.18444e-22)
(15.6062 1.3134 3.10755e-19)
(15.639 1.29453 0)
(15.6814 1.27411 9.50675e-20)
(15.7336 1.2499 0)
(15.7959 1.21477 0)
(15.8699 1.16074 -3.94815e-21)
(15.9549 1.07999 5.16817e-21)
(16.0478 0.968629 6.43081e-20)
(16.1423 0.827151 1.42584e-20)
(16.2315 0.663566 -2.62874e-20)
(16.3095 0.489511 1.0944e-19)
(16.3732 0.318982 0)
(16.4234 0.161503 7.80369e-20)
(16.461 0.0239632 0)
(16.4897 -0.0913019 3.42728e-20)
(16.5133 -0.18589 4.78785e-20)
(16.5335 -0.266213 0)
(15.5595 1.3627 1.42701e-19)
(15.5606 1.36101 -6.66801e-20)
(15.5612 1.3613 0)
(15.5626 1.35607 1.17777e-19)
(15.5698 1.34562 -1.07851e-19)
(15.5829 1.33141 1.88341e-19)
(15.6056 1.31287 -1.55614e-19)
(15.6383 1.29321 -1.22903e-19)
(15.6804 1.2717 -9.43816e-20)
(15.732 1.24601 -1.34165e-21)
(15.7927 1.20874 1.7606e-21)
(15.8634 1.15157 1.02879e-19)
(15.9428 1.06651 6.39885e-21)
(16.027 0.949847 -9.40376e-20)
(16.1095 0.80268 1.36078e-20)
(16.1841 0.633752 0)
(16.2461 0.455386 0)
(16.2941 0.281606 0)
(16.3301 0.121899 0)
(16.3555 -0.0172225 -2.3194e-20)
(16.3744 -0.133453 -1.53432e-19)
(16.3905 -0.228832 1.51203e-19)
(16.4044 -0.309889 0)
(15.5595 1.36307 -4.70769e-20)
(15.5606 1.36133 1.33632e-19)
(15.5611 1.36169 0)
(15.5624 1.35647 -1.17861e-19)
(15.5695 1.34592 2.16366e-19)
(15.5825 1.33144 0)
(15.605 1.31237 0)
(15.6375 1.29193 1.22386e-19)
(15.6794 1.26935 0)
(15.7303 1.24223 -7.16421e-20)
(15.7893 1.20293 -6.14022e-20)
(15.8566 1.14288 -5.3103e-20)
(15.9301 1.05397 8.36345e-20)
(16.0052 0.932808 0)
(16.0754 0.781091 0)
(16.1351 0.608228 2.30841e-20)
(16.1811 0.42704 -3.02346e-20)
(16.2134 0.251377 0)
(16.2349 0.0905398 -3.07335e-20)
(16.2482 -0.0493298 2.32986e-20)
(16.2573 -0.165976 1.21802e-19)
(16.2658 -0.26177 -1.59408e-19)
(16.2733 -0.343197 0)
(15.5595 1.36345 9.57707e-24)
(15.5605 1.36165 -1.34215e-19)
(15.5611 1.36208 -3.76939e-23)
(15.5623 1.35689 -5.93848e-20)
(15.5692 1.34623 -1.08515e-19)
(15.582 1.3315 9.48206e-20)
(15.6044 1.3119 2.79076e-22)
(15.6367 1.29068 -6.13418e-20)
(15.6783 1.26704 9.42519e-20)
(15.7284 1.23854 7.19052e-20)
(15.7856 1.19734 5.96826e-20)
(15.8493 1.13467 -4.98115e-20)
(15.9168 1.04243 -8.36765e-20)
(15.9825 0.917571 -9.31187e-21)
(16.0403 0.762454 1.22004e-20)
(16.085 0.587063 2.13874e-20)
(16.1149 0.40454 -2.80334e-20)
(16.1315 0.228368 0)
(16.1387 0.0675284 3.08583e-20)
(16.1397 -0.0721927 0)
(16.1389 -0.188689 -1.44195e-20)
(16.1397 -0.284555 0)
(16.1409 -0.36591 -5.6569e-21)
(15.5595 1.36383 2.25428e-20)
(15.5605 1.36198 6.7236e-20)
(15.561 1.36248 5.99778e-20)
(15.5621 1.35732 -1.46777e-22)
(15.5689 1.34657 -1.8814e-22)
(15.5816 1.33158 4.86286e-22)
(15.6038 1.31146 -7.80084e-20)
(15.6359 1.28947 -2.25411e-22)
(15.6772 1.2648 -9.2769e-20)
(15.7264 1.23496 -1.25747e-21)
(15.7818 1.192 5.82622e-20)
(15.8418 1.12698 0)
(15.903 1.03191 -5.5308e-21)
(15.9592 0.904172 7.24426e-21)
(16.0044 0.746807 2.36905e-20)
(16.0342 0.570287 0)
(16.0482 0.387908 0)
(16.0491 0.212619 -1.79908e-20)
(16.042 0.0529514 0)
(16.0307 -0.0856493 7.37161e-20)
(16.02 -0.201385 -8.4365e-20)
(16.013 -0.296964 7.55205e-21)
(16.0077 -0.377775 1.78204e-19)
(15.5595 1.36422 -4.4806e-20)
(15.5605 1.36231 -3.39587e-20)
(15.561 1.36288 -9.00709e-20)
(15.5619 1.35775 5.99471e-20)
(15.5686 1.34691 5.47302e-20)
(15.5811 1.33168 -1.43114e-19)
(15.6032 1.31105 7.80724e-20)
(15.6351 1.2883 6.00989e-20)
(15.676 1.26261 1.45544e-21)
(15.7244 1.23149 -1.02536e-21)
(15.7778 1.18689 -5.66178e-20)
(15.834 1.11981 -2.22132e-20)
(15.8888 1.02243 3.09608e-20)
(15.9354 0.892634 3.54362e-20)