/*--------------------------------*- C++ -*----------------------------------*\
  =========                 |
  \\      /  F ield         | OpenFOAM: The Open Source CFD Toolbox
   \\    /   O peration     | Website:  https://openfoam.org
    \\  /    A nd           | Version:  7
     \\/     M anipulation  |
\*---------------------------------------------------------------------------*/
FoamFile
{
    version     2.0;
    format      ascii;
    class       volScalarField;
    location    "50";
    object      yPlus;
}
// * * * * * * * * * * * * * * * * * * * * * * * * * * * * * * * * * * * * * //

dimensions      [0 0 0 0 0 0 0];

internalField   uniform 0;

boundaryField
{
    inlet
    {
        type            calculated;
        value           uniform 0;
    }
    outlet
    {
        type            calculated;
        value           uniform 0;
    }
    suction_side
    {
        type            calculated;
        value           nonuniform List<scalar> 
56
(
6.10515
6.19714
6.54306
6.62424
7.10801
7.23823
7.83417
8.56446
8.5101
10.7875
10.8348
14.1183
16.1552
26.1445
37.9456
46.1676
49.9487
48.8422
45.4293
41.0964
36.6314
34.4289
36.4067
39.8779
42.2835
43.458
43.7533
43.5131
43.0135
42.3566
41.5958
40.7743
39.949
39.1395
38.3884
37.692
37.0241
36.3737
35.7278
35.0884
34.4553
33.7943
33.1012
32.2918
31.4062
30.3838
29.2819
28.0532
26.6891
25.6149
24.2023
22.732
21.0907
19.5725
18.5811
16.9159
)
;
    }
    pressure_side
    {
        type            calculated;
        value           nonuniform List<scalar> 
56
(
28.9849
29.8118
29.977
30.6717
31.1947
31.9027
32.6159
33.3087
33.9183
34.4237
34.8584
35.2462
35.5986
35.9213
36.2192
36.4955
36.7515
36.991
37.2184
37.4441
37.6715
37.8938
38.0943
38.2448
38.3098
38.2602
38.1179
37.9964
38.0681
38.4711
39.3658
40.7408
42.4026
43.9256
44.979
45.5247
45.3639
43.9324
41.4636
37.8363
33.0251
27.284
20.9104
14.2612
9.15997
7.95342
5.9199
5.33477
4.80449
4.62102
4.71802
4.82942
5.07943
5.27133
5.67696
5.79712
)
;
    }
    trailing_edge
    {
        type            calculated;
        value           nonuniform List<scalar> 2(101.247 76.7134);
    }
    defaultFaces
    {
        type            empty;
    }
}


// ************************************************************************* //
