/*--------------------------------*- C++ -*----------------------------------*\
  =========                 |
  \\      /  F ield         | OpenFOAM: The Open Source CFD Toolbox
   \\    /   O peration     | Website:  https://openfoam.org
    \\  /    A nd           | Version:  7
     \\/     M anipulation  |
\*---------------------------------------------------------------------------*/
FoamFile
{
    version     2.0;
    format      ascii;
    class       volTensorField;
    location    "70";
    object      grad(U);
}
// * * * * * * * * * * * * * * * * * * * * * * * * * * * * * * * * * * * * * //

dimensions      [0 0 -1 0 0 0 0];

internalField   nonuniform List<tensor> 
36000
(
(-2144.66 768.405 0 6723.42 1171.36 0 0 0 0)
(-1051.71 -174.489 0 6282.69 1459.27 0 0 0 0)
(-1062.72 -279.777 0 5349.26 1058.3 0 0 0 0)
(-760.422 -148.108 0 4426.78 706.665 0 0 0 0)
(-473.205 -69.8769 0 3749.6 477.303 0 0 0 0)
(-313.562 -37.7435 0 3252.3 328.971 0 0 0 0)
(-221.297 -21.2719 0 2873.51 233.565 0 0 0 0)
(-161.983 -12.0496 0 2580.49 172.021 0 0 0 0)
(-122.859 -7.11021 0 2349.96 131.318 0 0 0 0)
(-96.4215 -4.45028 0 2164.74 103.427 0 0 0 0)
(-77.826 -2.94478 0 2012.97 83.6136 0 0 0 0)
(-64.227 -2.04773 0 1886.49 69.057 0 0 0 0)
(-53.958 -1.48755 0 1779.54 58.0361 0 0 0 0)
(-45.99 -1.12105 0 1687.99 49.4726 0 0 0 0)
(-39.666 -0.870375 0 1608.79 42.6698 0 0 0 0)
(-34.5495 -0.692085 0 1539.65 37.165 0 0 0 0)
(-30.345 -0.56106 0 1478.82 32.6397 0 0 0 0)
(-26.8425 -0.462105 0 1424.94 28.8699 0 0 0 0)
(-23.8905 -0.385653 0 1376.93 25.6932 0 0 0 0)
(-21.378 -0.325459 0 1333.94 22.9898 0 0 0 0)
(-19.221 -0.277302 0 1295.25 20.6691 0 0 0 0)
(-17.355 -0.238233 0 1260.3 18.6619 0 0 0 0)
(-15.7305 -0.206158 0 1228.59 16.9139 0 0 0 0)
(-14.307 -0.179552 0 1199.75 15.3826 0 0 0 0)
(-13.053 -0.157268 0 1173.42 14.034 0 0 0 0)
(-11.943 -0.13845 0 1149.31 12.8406 0 0 0 0)
(-10.9575 -0.122441 0 1127.19 11.7799 0 0 0 0)
(-10.077 -0.108726 0 1106.84 10.8336 0 0 0 0)
(-9.288 -0.096906 0 1088.08 9.98623 0 0 0 0)
(-8.5815 -0.086661 0 1070.75 9.22508 0 0 0 0)
(-7.944 -0.077736 0 1054.69 8.53937 0 0 0 0)
(-7.368 -0.069924 0 1039.81 7.91997 0 0 0 0)
(-6.846 -0.0630585 0 1025.97 7.35907 0 0 0 0)
(-6.372 -0.057 0 1013.09 6.85004 0 0 0 0)
(-5.9415 -0.0516375 0 1001.09 6.38707 0 0 0 0)
(-5.5485 -0.0468735 0 989.874 5.96521 0 0 0 0)
(-5.19 -0.0426285 0 979.388 5.58011 0 0 0 0)
(-4.863 -0.038838 0 969.564 5.22796 0 0 0 0)
(-4.5645 -0.0354435 0 960.348 4.90543 0 0 0 0)
(-4.2885 -0.032397 0 951.69 4.60959 0 0 0 0)
(-4.035 -0.0296565 0 943.547 4.33785 0 0 0 0)
(-3.8025 -0.027189 0 935.876 4.08789 0 0 0 0)
(-3.588 -0.0249615 0 928.64 3.85768 0 0 0 0)
(-3.3915 -0.0229455 0 921.806 3.64537 0 0 0 0)
(-3.2085 -0.021123 0 915.342 3.44934 0 0 0 0)
(-3.0405 -0.0194715 0 909.222 3.2681 0 0 0 0)
(-2.8845 -0.01797 0 903.419 3.10038 0 0 0 0)
(-2.739 -0.0166065 0 897.911 2.94494 0 0 0 0)
(-2.6055 -0.015366 0 892.677 2.80075 0 0 0 0)
(-2.481 -0.014236 0 887.696 2.66681 0 0 0 0)
(-2.3655 -0.0132065 0 882.951 2.54225 0 0 0 0)
(-2.2575 -0.0122657 0 878.427 2.42631 0 0 0 0)
(-2.1555 -0.0114063 0 874.109 2.31822 0 0 0 0)
(-2.0625 -0.0106205 0 869.982 2.21735 0 0 0 0)
(-1.9755 -0.0099006 0 866.033 2.1231 0 0 0 0)
(-1.893 -0.0092409 0 862.251 2.03492 0 0 0 0)
(-1.8165 -0.00863535 0 858.627 1.95232 0 0 0 0)
(-1.743 -0.008079 0 855.149 1.87484 0 0 0 0)
(-1.6755 -0.0075675 0 851.811 1.80207 0 0 0 0)
(-1.6125 -0.0070962 0 848.601 1.73364 0 0 0 0)
(-1.5525 -0.0066618 0 845.514 1.66919 0 0 0 0)
(-1.497 -0.00626085 0 842.543 1.6084 0 0 0 0)
(-1.443 -0.00589035 0 839.679 1.55099 0 0 0 0)
(-1.392 -0.0055476 0 836.919 1.49667 0 0 0 0)
(-1.3455 -0.0052302 0 834.257 1.44521 0 0 0 0)
(-1.299 -0.00493635 0 831.686 1.39637 0 0 0 0)
(-1.2555 -0.00466365 0 829.205 1.34994 0 0 0 0)
(-1.215 -0.0044106 0 826.806 1.30573 0 0 0 0)
(-1.1745 -0.00417585 0 824.487 1.26356 0 0 0 0)
(-1.137 -0.00395835 0 822.245 1.22326 0 0 0 0)
(-1.1025 -0.00375645 0 820.076 1.18467 0 0 0 0)
(-1.068 -0.00356955 0 817.974 1.14765 0 0 0 0)
(-1.0335 -0.00339675 0 815.942 1.11208 0 0 0 0)
(-1.002 -0.0032373 0 813.974 1.07781 0 0 0 0)
(-0.972 -0.00309045 0 812.067 1.04475 0 0 0 0)
(-0.942 -0.0029559 0 810.221 1.01278 0 0 0 0)
(-0.9135 -0.00283305 0 808.433 0.981803 0 0 0 0)
(-0.885 -0.0027216 0 806.7 0.951731 0 0 0 0)
(-0.8565 -0.0026208 0 805.023 0.922484 0 0 0 0)
(-0.831 -0.0025308 0 803.4 0.893978 0 0 0 0)
(-0.8055 -0.00245115 0 801.828 0.866146 0 0 0 0)
(-0.78 -0.0023814 0 800.306 0.838923 0 0 0 0)
(-0.7545 -0.0023211 0 798.834 0.812252 0 0 0 0)
(-0.729 -0.0022704 0 797.412 0.786079 0 0 0 0)
(-0.7065 -0.00222825 0 796.037 0.760359 0 0 0 0)
(-0.6825 -0.00219495 0 794.708 0.735051 0 0 0 0)
(-0.6585 -0.0021696 0 793.427 0.710119 0 0 0 0)
(-0.636 -0.00215205 0 792.189 0.685533 0 0 0 0)
(-0.6135 -0.00214155 0 790.997 0.661269 0 0 0 0)
(-0.591 -0.0021375 0 789.848 0.637307 0 0 0 0)
(-0.5685 -0.00213945 0 788.744 0.613632 0 0 0 0)
(-0.546 -0.00214695 0 787.682 0.590232 0 0 0 0)
(-0.525 -0.00215895 0 786.663 0.567101 0 0 0 0)
(-0.504 -0.00217515 0 785.684 0.544241 0 0 0 0)
(-0.4815 -0.00219435 0 784.748 0.521649 0 0 0 0)
(-0.462 -0.0022161 0 783.852 0.499335 0 0 0 0)
(-0.441 -0.0022398 0 782.996 0.477303 0 0 0 0)
(-0.42 -0.0022644 0 782.18 0.455572 0 0 0 0)
(-0.4005 -0.00228915 0 781.401 0.434148 0 0 0 0)
(-0.381 -0.0023133 0 780.662 0.413057 0 0 0 0)
(-0.3615 -0.00233625 0 779.96 0.392312 0 0 0 0)
(-0.342 -0.00235725 0 779.294 0.371935 0 0 0 0)
(-0.324 -0.00237555 0 778.665 0.351947 0 0 0 0)
(-0.306 -0.0023907 0 778.071 0.332373 0 0 0 0)
(-0.288 -0.00240195 0 777.51 0.313234 0 0 0 0)
(-0.27 -0.00240885 0 776.984 0.294555 0 0 0 0)
(-0.252 -0.0024111 0 776.492 0.276354 0 0 0 0)
(-0.237 -0.00240795 0 776.03 0.258659 0 0 0 0)
(-0.2205 -0.0023997 0 775.598 0.241487 0 0 0 0)
(-0.204 -0.0023856 0 775.199 0.224862 0 0 0 0)
(-0.1905 -0.0023655 0 774.825 0.208797 0 0 0 0)
(-0.177 -0.0023397 0 774.48 0.193314 0 0 0 0)
(-0.162 -0.00230805 0 774.161 0.178423 0 0 0 0)
(-0.1485 -0.0022704 0 773.87 0.164141 0 0 0 0)
(-0.1365 -0.0022272 0 773.601 0.150474 0 0 0 0)
(-0.1245 -0.00217837 0 773.357 0.137434 0 0 0 0)
(-0.114 -0.00212454 0 773.132 0.125023 0 0 0 0)
(-0.102 -0.00206555 0 772.929 0.113245 0 0 0 0)
(-0.0915 -0.00200218 0 772.748 0.102099 0 0 0 0)
(-0.081 -0.00193458 0 772.584 0.0915847 0 0 0 0)
(-0.072 -0.00186341 0 772.439 0.0816958 0 0 0 0)
(-0.0645 -0.00178888 0 772.31 0.0724252 0 0 0 0)
(-0.057 -0.00171176 0 772.196 0.0637637 0 0 0 0)
(-0.0495 -0.00163232 0 772.095 0.0556986 0 0 0 0)
(-0.042 -0.00155124 0 772.01 0.048217 0 0 0 0)
(-0.036 -0.00146886 0 771.935 0.0413023 0 0 0 0)
(-0.03 -0.00138588 0 771.873 0.0349378 0 0 0 0)
(-0.0255 -0.00130263 0 771.821 0.0291033 0 0 0 0)
(-0.021 -0.0012197 0 771.777 0.02378 0 0 0 0)
(-0.015 -0.00113747 0 771.743 0.0189444 0 0 0 0)
(-0.012 -0.00105645 0 771.717 0.0145762 0 0 0 0)
(-0.009 -0.00097701 0 771.696 0.0106497 0 0 0 0)
(-0.0045 -0.000899565 0 771.683 0.00714357 0 0 0 0)
(-0.003 -0.0008244 0 771.675 0.00403098 0 0 0 0)
(2.24735e-11 -0.000751788 0 771.672 0.00129005 0 0 0 0)
(0.003 -0.000681993 0 771.675 -0.00110609 0 0 0 0)
(0.003 -0.00061515 0 771.68 -0.00317898 0 0 0 0)
(0.0045 -0.000551505 0 771.687 -0.00495492 0 0 0 0)
(0.0075 -0.000491114 0 771.698 -0.0064547 0 0 0 0)
(0.009 -0.000434156 0 771.713 -0.00770345 0 0 0 0)
(0.009 -0.000380609 0 771.728 -0.00872083 0 0 0 0)
(0.009 -0.000330616 0 771.744 -0.00953034 0 0 0 0)
(0.009 -0.000284059 0 771.761 -0.0101502 0 0 0 0)
(0.0105 -0.000241047 0 771.779 -0.0106019 0 0 0 0)
(0.0105 -0.000201398 0 771.8 -0.010902 0 0 0 0)
(0.0105 -0.00016518 0 771.818 -0.0110696 0 0 0 0)
(0.0105 -0.000132153 0 771.837 -0.0111196 0 0 0 0)
(0.0105 -0.000102359 0 771.857 -0.0110687 0 0 0 0)
(0.0105 -7.55175e-05 0 771.876 -0.0109299 0 0 0 0)
(0.009 -5.16465e-05 0 771.894 -0.0107174 0 0 0 0)
(0.0105 -3.04365e-05 0 771.912 -0.0104424 0 0 0 0)
(0.0105 -1.1889e-05 0 771.932 -0.0101167 0 0 0 0)
(0.009 4.3095e-06 0 771.948 -0.00974968 0 0 0 0)
(0.009 1.81815e-05 0 771.965 -0.0093509 0 0 0 0)
(0.0075 3.00375e-05 0 771.981 -0.00892824 0 0 0 0)
(0.0075 3.99e-05 0 771.995 -0.00848896 0 0 0 0)
(0.0075 4.80735e-05 0 772.01 -0.00803961 0 0 0 0)
(0.006 5.4588e-05 0 772.023 -0.00758545 0 0 0 0)
(0.0075 5.97195e-05 0 772.035 -0.00713181 0 0 0 0)
(0.0075 6.351e-05 0 772.049 -0.00668221 0 0 0 0)
(0.0045 6.6207e-05 0 772.059 -0.00624098 0 0 0 0)
(0.0045 6.78435e-05 0 772.068 -0.00581008 0 0 0 0)
(0.006 6.86445e-05 0 772.079 -0.00539303 0 0 0 0)
(0.0045 6.8646e-05 0 772.088 -0.00499052 0 0 0 0)
(0.003 6.80295e-05 0 772.095 -0.00460539 0 0 0 0)
(0.0045 6.6834e-05 0 772.103 -0.00423729 0 0 0 0)
(0.0045 6.52125e-05 0 772.11 -0.0038885 0 0 0 0)
(0.003 6.31965e-05 0 772.116 -0.00355789 0 0 0 0)
(0.003 6.0906e-05 0 772.122 -0.00324732 0 0 0 0)
(0.003 5.8377e-05 0 772.127 -0.00295506 0 0 0 0)
(0.0015 5.56935e-05 0 772.133 -0.00268263 0 0 0 0)
(0.0015 5.28885e-05 0 772.136 -0.00242788 0 0 0 0)
(0.003 5.0028e-05 0 772.14 -0.00219211 0 0 0 0)
(0.0015 4.7136e-05 0 772.143 -0.00197286 0 0 0 0)
(0.0015 4.42545e-05 0 772.146 -0.00177133 0 0 0 0)
(0.0015 4.14135e-05 0 772.149 -0.00158487 0 0 0 0)
(0.0015 3.8628e-05 0 772.152 -0.00141457 0 0 0 0)
(0.0015 3.5928e-05 0 772.155 -0.00125771 0 0 0 0)
(0 3.33196e-05 0 772.157 -0.00111535 0 0 0 0)
(0 3.08216e-05 0 772.157 -0.000984732 0 0 0 0)
(0.0015 2.84351e-05 0 772.158 -0.000866934 0 0 0 0)
(0.0015 2.61781e-05 0 772.161 -0.000759227 0 0 0 0)
(0 2.40377e-05 0 772.161 -0.000662705 0 0 0 0)
(0 2.20326e-05 0 772.163 -0.000574712 0 0 0 0)
(0 2.0148e-05 0 772.163 -0.000496377 0 0 0 0)
(0.0015 1.83933e-05 0 772.164 -0.000425123 0 0 0 0)
(0.0015 1.67568e-05 0 772.166 -0.000362143 0 0 0 0)
(0 1.52439e-05 0 772.166 -0.000304941 0 0 0 0)
(0 1.38387e-05 0 772.166 -0.000254778 0 0 0 0)
(0 1.25474e-05 0 772.167 -0.000209244 0 0 0 0)
(0 1.13545e-05 0 772.167 -0.000169674 0 0 0 0)
(0 1.02597e-05 0 772.167 -0.000133728 0 0 0 0)
(0 9.25455e-06 0 772.167 -0.000102836 0 0 0 0)
(0 8.3335e-06 0 772.167 -7.47056e-05 0 0 0 0)
(0 7.48806e-06 0 772.167 -5.08604e-05 0 0 0 0)
(0 6.71199e-06 0 772.167 -2.90551e-05 0 0 0 0)
(0 6.00369e-06 0 772.167 -1.09068e-05 0 0 0 0)
(0 5.34725e-06 0 772.167 5.81137e-06 0 0 0 0)
(0 4.74795e-06 0 772.167 1.93693e-05 0 0 0 0)
(0 4.19055e-06 0 772.167 3.20007e-05 0 0 0 0)
(0 3.67735e-06 0 772.167 4.18672e-05 0 0 0 0)
(0 3.1949e-06 0 772.167 5.121e-05 0 0 0 0)
(0 2.74999e-06 0 772.167 5.8089e-05 0 0 0 0)
(0 2.32412e-06 0 772.167 6.47722e-05 0 0 0 0)
(0 1.92684e-06 0 772.167 6.92095e-05 0 0 0 0)
(0 1.54662e-06 0 772.167 7.37072e-05 0 0 0 0)
(0 1.18385e-06 0 772.167 7.61257e-05 0 0 0 0)
(0 8.36895e-07 0 772.167 7.87942e-05 0 0 0 0)
(0 5.0406e-07 0 772.167 7.95105e-05 0 0 0 0)
(0 1.8762e-07 0 772.167 8.06253e-05 0 0 0 0)
(0 -1.19985e-07 0 772.167 7.98897e-05 0 0 0 0)
(0 -3.9984e-07 0 772.167 7.96639e-05 0 0 0 0)
(0 -6.77115e-07 0 772.167 7.76975e-05 0 0 0 0)
(0 -9.14235e-07 0 772.167 7.632e-05 0 0 0 0)
(0 -1.14813e-06 0 772.167 7.33304e-05 0 0 0 0)
(0 -1.32972e-06 0 772.167 7.09994e-05 0 0 0 0)
(0 -1.51025e-06 0 772.167 6.72109e-05 0 0 0 0)
(0 -1.61994e-06 0 772.167 6.41401e-05 0 0 0 0)
(0 -1.73414e-06 0 772.166 5.98132e-05 0 0 0 0)
(0 -1.76351e-06 0 772.166 5.62492e-05 0 0 0 0)
(0 -1.79926e-06 0 772.166 5.16678e-05 0 0 0 0)
(0 -1.74494e-06 0 772.166 4.78923e-05 0 0 0 0)
(0 -1.70466e-06 0 772.166 4.33592e-05 0 0 0 0)
(0 -1.56843e-06 0 772.166 3.96574e-05 0 0 0 0)
(0 -1.45829e-06 0 772.166 3.54758e-05 0 0 0 0)
(-0.0015 -1.25793e-06 0 772.166 3.21196e-05 0 0 0 0)
(-0.0015 -1.09384e-06 0 772.164 2.8548e-05 0 0 0 0)
(0 -8.53743e-07 0 772.164 2.57681e-05 0 0 0 0)
(0 -6.63663e-07 0 772.164 2.29973e-05 0 0 0 0)
(0 -4.10833e-07 0 772.164 2.09419e-05 0 0 0 0)
(0 -2.24025e-07 0 772.164 1.90762e-05 0 0 0 0)
(0 7.185e-09 0 772.164 1.77993e-05 0 0 0 0)
(0 1.66272e-07 0 772.164 1.68317e-05 0 0 0 0)
(0 3.50187e-07 0 772.164 1.62955e-05 0 0 0 0)
(0 4.58e-07 0 772.164 1.6122e-05 0 0 0 0)
(0 5.79568e-07 0 772.164 1.61961e-05 0 0 0 0)
(0 6.26771e-07 0 772.164 1.66437e-05 0 0 0 0)
(0 6.81884e-07 0 772.164 1.71415e-05 0 0 0 0)
(0 6.66969e-07 0 772.164 1.79941e-05 0 0 0 0)
(0 6.62884e-07 0 772.164 1.87128e-05 0 0 0 0)
(0 6.02784e-07 0 772.164 1.97575e-05 0 0 0 0)
(0 5.58712e-07 0 772.164 2.05108e-05 0 0 0 0)
(0 4.71501e-07 0 772.164 2.15782e-05 0 0 0 0)
(0 4.09344e-07 0 772.164 2.22306e-05 0 0 0 0)
(0 3.20499e-07 0 772.164 2.32106e-05 0 0 0 0)
(0 2.62245e-07 0 772.164 2.3702e-05 0 0 0 0)
(0 1.8831e-07 0 772.164 2.4558e-05 0 0 0 0)
(0 1.53885e-07 0 772.163 2.4889e-05 0 0 0 0)
(0 1.0647e-07 0 772.163 2.5654e-05 0 0 0 0)
(0 9.954e-08 0 772.163 2.58765e-05 0 0 0 0)
(0 8.328e-08 0 772.163 2.66138e-05 0 0 0 0)
(0 1.0017e-07 0 772.163 2.6808e-05 0 0 0 0)
(0 1.0326e-07 0 772.163 2.75864e-05 0 0 0 0)
(0 1.3452e-07 0 772.163 2.78131e-05 0 0 0 0)
(0 1.4157e-07 0 772.163 2.86816e-05 0 0 0 0)
(0 1.66755e-07 0 772.163 2.89634e-05 0 0 0 0)
(0 1.63305e-07 0 772.163 2.99149e-05 0 0 0 0)
(0 1.6608e-07 0 772.163 3.02269e-05 0 0 0 0)
(0 1.34445e-07 0 772.163 3.12006e-05 0 0 0 0)
(0 1.07505e-07 0 772.163 3.1458e-05 0 0 0 0)
(0 4.1145e-08 0 772.163 3.23567e-05 0 0 0 0)
(0 -1.986e-08 0 772.163 3.24424e-05 0 0 0 0)
(0 -1.14435e-07 0 772.163 3.31439e-05 0 0 0 0)
(0 -1.99965e-07 0 772.163 3.29431e-05 0 0 0 0)
(0 -3.1275e-07 0 772.163 3.33419e-05 0 0 0 0)
(0 -4.01595e-07 0 772.163 3.27628e-05 0 0 0 0)
(0 -5.1252e-07 0 772.163 3.28075e-05 0 0 0 0)
(0 -5.8572e-07 0 772.163 3.18165e-05 0 0 0 0)
(0 -6.6945e-07 0 772.163 3.15178e-05 0 0 0 0)
(0 -7.04922e-07 0 772.163 3.0162e-05 0 0 0 0)
(0 -7.45632e-07 0 772.163 2.96071e-05 0 0 0 0)
(0 -7.24329e-07 0 772.163 2.79976e-05 0 0 0 0)
(0 -7.11263e-07 0 772.163 2.73455e-05 0 0 0 0)
(0 -6.31032e-07 0 772.163 2.56485e-05 0 0 0 0)
(0 -5.56708e-07 0 772.163 2.50885e-05 0 0 0 0)
(0 -4.24047e-07 0 772.163 2.35038e-05 0 0 0 0)
(0 -3.02169e-07 0 772.163 2.3229e-05 0 0 0 0)
(0 -1.25119e-07 0 772.163 2.19369e-05 0 0 0 0)
(0 2.6028e-08 0 772.163 2.21188e-05 0 0 0 0)
(0 2.21265e-07 0 772.163 2.12575e-05 0 0 0 0)
(0 3.85629e-07 0 772.163 2.19993e-05 0 0 0 0)
(0 5.73891e-07 0 772.163 2.16502e-05 0 0 0 0)
(0 7.23269e-07 0 772.163 2.29798e-05 0 0 0 0)
(0 8.90544e-07 0 772.163 2.31401e-05 0 0 0 0)
(0 1.0045e-06 0 772.163 2.50188e-05 0 0 0 0)
(0 1.12718e-06 0 772.163 2.56146e-05 0 0 0 0)
(0 1.19867e-06 0 772.163 2.79279e-05 0 0 0 0)
(0 1.26701e-06 0 772.163 2.88393e-05 0 0 0 0)
(0 1.28676e-06 0 772.163 3.14281e-05 0 0 0 0)
(0 1.30216e-06 0 772.163 3.24943e-05 0 0 0 0)
(0 1.27063e-06 0 772.163 3.51859e-05 0 0 0 0)
(0 1.23448e-06 0 772.163 3.62372e-05 0 0 0 0)
(0 1.16112e-06 0 772.163 3.88555e-05 0 0 0 0)
(0 1.08273e-06 0 772.163 3.97417e-05 0 0 0 0)
(0 9.74235e-07 0 772.163 4.21346e-05 0 0 0 0)
(0 8.685e-07 0 772.163 4.27254e-05 0 0 0 0)
(0 7.3698e-07 0 772.163 4.47843e-05 0 0 0 0)
(0 6.1383e-07 0 772.163 4.49885e-05 0 0 0 0)
(0 4.7421e-07 0 772.163 4.66395e-05 0 0 0 0)
(0 3.42e-07 0 772.163 4.64124e-05 0 0 0 0)
(0 2.04405e-07 0 772.163 4.76171e-05 0 0 0 0)
(0 9.045e-08 0 772.163 4.69571e-05 0 0 0 0)
(0 -5.09851e-08 0 772.163 4.7756e-05 0 0 0 0)
(0 -1.58325e-07 0 772.163 4.66545e-05 0 0 0 0)
(0 -2.6277e-07 0 772.163 4.70697e-05 0 0 0 0)
(0 -3.6003e-07 0 772.163 4.56277e-05 0 0 0 0)
(0 -4.5576e-07 0 772.163 4.57063e-05 0 0 0 0)
(0 -5.08305e-07 0 772.163 4.39657e-05 0 0 0 0)
(0 -5.92065e-07 0 772.161 4.38388e-05 0 0 0 0)
(0 -6.31935e-07 0 772.161 4.18604e-05 0 0 0 0)
(0 -6.73005e-07 0 772.161 4.1589e-05 0 0 0 0)
(0 -7.0008e-07 0 772.161 3.9504e-05 0 0 0 0)
(0 -7.3329e-07 0 772.161 3.91566e-05 0 0 0 0)
(0 -7.19655e-07 0 772.161 3.70148e-05 0 0 0 0)
(0 -7.47285e-07 0 772.161 3.67197e-05 0 0 0 0)
(0 -7.30065e-07 0 772.161 3.4569e-05 0 0 0 0)
(0 -7.254e-07 0 772.161 3.43641e-05 0 0 0 0)
(0 -7.0785e-07 0 772.161 3.23052e-05 0 0 0 0)
(0 -7.07865e-07 0 772.161 3.22197e-05 0 0 0 0)
(0 -6.6303e-07 0 772.161 3.02591e-05 0 0 0 0)
(0 -6.69525e-07 0 772.161 3.03726e-05 0 0 0 0)
(0 -6.33045e-07 0 772.161 2.85095e-05 0 0 0 0)
(0 -6.1689e-07 0 772.161 2.88092e-05 0 0 0 0)
(0 -5.88375e-07 0 772.161 2.70979e-05 0 0 0 0)
(0 -5.81779e-07 0 772.161 2.75691e-05 0 0 0 0)
(0 -5.2929e-07 0 772.161 2.59799e-05 0 0 0 0)
(0 -5.29128e-07 0 772.161 2.66707e-05 0 0 0 0)
(0 -4.83336e-07 0 772.161 2.51815e-05 0 0 0 0)
(0 -4.55674e-07 0 772.161 2.60642e-05 0 0 0 0)
(0 -4.12044e-07 0 772.161 2.4725e-05 0 0 0 0)
(0 -3.86696e-07 0 772.161 2.57856e-05 0 0 0 0)
(0 -3.12297e-07 0 772.161 2.45768e-05 0 0 0 0)
(0 -2.8519e-07 0 772.161 2.58765e-05 0 0 0 0)
(0 -2.11716e-07 0 772.161 2.47956e-05 0 0 0 0)
(0 -1.52053e-07 0 772.161 2.63238e-05 0 0 0 0)
(0 -7.82699e-08 0 772.161 2.54402e-05 0 0 0 0)
(0 -2.06204e-08 0 772.161 2.71966e-05 0 0 0 0)
(0 7.99935e-08 0 772.161 2.65032e-05 0 0 0 0)
(0 1.35019e-07 0 772.161 2.85503e-05 0 0 0 0)
(0 2.25285e-07 0 772.161 2.80437e-05 0 0 0 0)
(0 3.02579e-07 0 772.161 3.03573e-05 0 0 0 0)
(0 3.78915e-07 0 772.161 3.00894e-05 0 0 0 0)
(0 4.40605e-07 0 772.161 3.26399e-05 0 0 0 0)
(0 5.28606e-07 0 772.161 3.25724e-05 0 0 0 0)
(0 5.71617e-07 0 772.161 3.53826e-05 0 0 0 0)
(0 6.34018e-07 0 772.161 3.54711e-05 0 0 0 0)
(0 6.85081e-07 0 772.161 3.84731e-05 0 0 0 0)
(0 7.2159e-07 0 772.161 3.87289e-05 0 0 0 0)
(0 7.48515e-07 0 772.161 4.18539e-05 0 0 0 0)
(0 7.89195e-07 0 772.161 4.22044e-05 0 0 0 0)
(0 7.89375e-07 0 772.161 4.5447e-05 0 0 0 0)
(0 8.0244e-07 0 772.161 4.58281e-05 0 0 0 0)
(0 8.14905e-07 0 772.161 4.91081e-05 0 0 0 0)
(0 8.0304e-07 0 772.161 4.95276e-05 0 0 0 0)
(0 7.93815e-07 0 772.161 5.27802e-05 0 0 0 0)
(0 7.93605e-07 0 772.161 5.31763e-05 0 0 0 0)
(0 7.65795e-07 0 772.161 5.64156e-05 0 0 0 0)
(0 7.47015e-07 0 772.161 5.67468e-05 0 0 0 0)
(0 7.35885e-07 0 772.161 5.99212e-05 0 0 0 0)
(0 7.01235e-07 0 772.161 6.02242e-05 0 0 0 0)
(0 6.7596e-07 0 772.161 6.33009e-05 0 0 0 0)
(0 6.5844e-07 0 772.161 6.35441e-05 0 0 0 0)
(0 6.2067e-07 0 772.161 6.65654e-05 0 0 0 0)
(0 5.86845e-07 0 772.16 6.67295e-05 0 0 0 0)
(0 5.68155e-07 0 772.16 6.96628e-05 0 0 0 0)
(0 5.1669e-07 0 772.16 6.97951e-05 0 0 0 0)
(0 4.80735e-07 0 772.16 7.26112e-05 0 0 0 0)
(0 4.4076e-07 0 772.16 7.26726e-05 0 0 0 0)
(0 3.81585e-07 0 772.16 7.53988e-05 0 0 0 0)
(0 3.16455e-07 0 772.16 7.53406e-05 0 0 0 0)
(0 2.6043e-07 0 772.16 7.79081e-05 0 0 0 0)
(0 1.6524e-07 0 772.16 7.77253e-05 0 0 0 0)
(-0.0015 7.40851e-08 0 772.16 8.00498e-05 0 0 0 0)
(-0.0015 -2.7795e-08 0 772.158 7.96345e-05 0 0 0 0)
(0 -1.6098e-07 0 772.158 8.16747e-05 0 0 0 0)
(0 -3.02295e-07 0 772.158 8.09038e-05 0 0 0 0)
(0 -4.4268e-07 0 772.158 8.2525e-05 0 0 0 0)
(0 -6.1977e-07 0 772.158 8.13293e-05 0 0 0 0)
(0 -7.98255e-07 0 772.158 8.24053e-05 0 0 0 0)
(0 -9.69615e-07 0 772.158 8.0646e-05 0 0 0 0)
(0 -1.16886e-06 0 772.158 8.11391e-05 0 0 0 0)
(0 -1.34855e-06 0 772.158 7.87181e-05 0 0 0 0)
(0 -1.51849e-06 0 772.158 7.85639e-05 0 0 0 0)
(0 -1.68118e-06 0 772.158 7.55103e-05 0 0 0 0)
(0 -1.82664e-06 0 772.158 7.47262e-05 0 0 0 0)
(0 -1.91187e-06 0 772.158 7.10747e-05 0 0 0 0)
(0 -2.00726e-06 0 772.158 6.98371e-05 0 0 0 0)
(0 -2.02369e-06 0 772.157 6.57218e-05 0 0 0 0)
(0 -2.0125e-06 0 772.157 6.42203e-05 0 0 0 0)
(0 -1.94675e-06 0 772.157 5.99304e-05 0 0 0 0)
(0 -1.84886e-06 0 772.157 5.84298e-05 0 0 0 0)
(0 -1.66274e-06 0 772.157 5.42354e-05 0 0 0 0)
(0 -1.48583e-06 0 772.157 5.31043e-05 0 0 0 0)
(0 -1.22415e-06 0 772.157 4.92916e-05 0 0 0 0)
(0 -9.55635e-07 0 772.157 4.88038e-05 0 0 0 0)
(0 -6.4851e-07 0 772.157 4.56862e-05 0 0 0 0)
(0 -3.54645e-07 0 772.157 4.60478e-05 0 0 0 0)
(0 -1.1715e-08 0 772.157 4.37681e-05 0 0 0 0)
(0 2.6562e-07 0 772.157 4.51333e-05 0 0 0 0)
(0 5.66565e-07 0 772.157 4.37109e-05 0 0 0 0)
(0 8.16075e-07 0 772.157 4.60115e-05 0 0 0 0)
(0 1.0367e-06 0 772.155 4.53888e-05 0 0 0 0)
(0 1.19342e-06 0 772.155 4.84219e-05 0 0 0 0)
(0 1.33716e-06 0 772.155 4.83366e-05 0 0 0 0)
(0 1.38475e-06 0 772.155 5.18562e-05 0 0 0 0)
(0 1.41324e-06 0 772.155 5.19697e-05 0 0 0 0)
(0 1.38263e-06 0 772.155 5.55993e-05 0 0 0 0)
(0 1.31243e-06 0 772.155 5.56148e-05 0 0 0 0)
(0 1.19349e-06 0 772.155 5.90002e-05 0 0 0 0)
(0 1.08339e-06 0 772.155 5.8588e-05 0 0 0 0)
(0 9.1468e-07 0 772.155 6.15165e-05 0 0 0 0)
(0 7.7115e-07 0 772.155 6.04564e-05 0 0 0 0)
(0 6.2586e-07 0 772.155 6.27594e-05 0 0 0 0)
(0 4.9284e-07 0 772.155 6.10326e-05 0 0 0 0)
(0 3.76005e-07 0 772.155 6.26911e-05 0 0 0 0)
(0 3.19005e-07 0 772.155 6.03396e-05 0 0 0 0)
(0 2.59695e-07 0 772.155 6.15327e-05 0 0 0 0)
(0 2.65785e-07 0 772.154 5.87214e-05 0 0 0 0)
(-0.0015 3.0711e-07 0 772.154 5.96442e-05 0 0 0 0)
(-0.0015 3.8052e-07 0 772.152 5.66744e-05 0 0 0 0)
(0 4.8498e-07 0 772.152 5.75686e-05 0 0 0 0)
(0 6.4245e-07 0 772.152 5.46775e-05 0 0 0 0)
(0 7.9086e-07 0 772.152 5.58327e-05 0 0 0 0)
(0 9.738e-07 0 772.152 5.32225e-05 0 0 0 0)
(0 1.16721e-06 0 772.152 5.47828e-05 0 0 0 0)
(0 1.34378e-06 0 772.152 5.26373e-05 0 0 0 0)
(0 1.51698e-06 0 772.152 5.46523e-05 0 0 0 0)
(0 1.68501e-06 0 772.152 5.29718e-05 0 0 0 0)
(0 1.80954e-06 0 772.152 5.54463e-05 0 0 0 0)
(0 1.90935e-06 0 772.152 5.41314e-05 0 0 0 0)
(0 1.9935e-06 0 772.152 5.68915e-05 0 0 0 0)
(0 2.00969e-06 0 772.152 5.58209e-05 0 0 0 0)
(0 2.00876e-06 0 772.152 5.86269e-05 0 0 0 0)
(0 1.96548e-06 0 772.152 5.75455e-05 0 0 0 0)
(0 1.87981e-06 0 772.152 6.0188e-05 0 0 0 0)
(0 1.74945e-06 0 772.152 5.88293e-05 0 0 0 0)
(0 1.61865e-06 0 772.152 6.10236e-05 0 0 0 0)
(0 1.41585e-06 0 772.152 5.92058e-05 0 0 0 0)
(0 1.22235e-06 0 772.152 6.07113e-05 0 0 0 0)
(0 9.9675e-07 0 772.152 5.82218e-05 0 0 0 0)
(0 7.6125e-07 0 772.152 5.89259e-05 0 0 0 0)
(0 5.01e-07 0 772.152 5.56251e-05 0 0 0 0)
(0.0015 2.7465e-07 0 772.152 5.5412e-05 0 0 0 0)
(0.0015 1.80014e-09 0 772.154 5.13017e-05 0 0 0 0)
(0 -2.295e-07 0 772.154 5.01407e-05 0 0 0 0)
(0 -4.6635e-07 0 772.155 4.52178e-05 0 0 0 0)
(0 -6.8625e-07 0 772.155 4.32174e-05 0 0 0 0)
(0 -9.051e-07 0 772.155 3.75503e-05 0 0 0 0)
(0 -1.0719e-06 0 772.155 3.48015e-05 0 0 0 0)
(0 -1.2633e-06 0 772.155 2.85758e-05 0 0 0 0)
(0 -1.4031e-06 0 772.155 2.52206e-05 0 0 0 0)
(0 -1.5315e-06 0 772.155 1.85781e-05 0 0 0 0)
(0 -1.64126e-06 0 772.155 1.48521e-05 0 0 0 0)
(0 -1.73927e-06 0 772.155 7.95947e-06 0 0 0 0)
(0 -1.79002e-06 0 772.155 4.0305e-06 0 0 0 0)
(0 -1.8598e-06 0 772.155 -2.87718e-06 0 0 0 0)
(0 -1.88907e-06 0 772.155 -6.83892e-06 0 0 0 0)
(0 -1.90567e-06 0 772.155 -1.36152e-05 0 0 0 0)
(0 -1.9193e-06 0 772.155 -1.73898e-05 0 0 0 0)
(0 -1.92365e-06 0 772.155 -2.39033e-05 0 0 0 0)
(0 -1.89931e-06 0 772.157 -2.73751e-05 0 0 0 0)
(0 -1.89958e-06 0 772.157 -3.3458e-05 0 0 0 0)
(0 -1.88053e-06 0 772.157 -3.65383e-05 0 0 0 0)
(0 -1.85593e-06 0 772.157 -4.2138e-05 0 0 0 0)
(0 -1.85138e-06 0 772.157 -4.4711e-05 0 0 0 0)
(0 -1.84652e-06 0 772.157 -4.98099e-05 0 0 0 0)
(0 -1.8362e-06 0 772.157 -5.18816e-05 0 0 0 0)
(0 -1.85975e-06 0 772.157 -5.64396e-05 0 0 0 0)
(0 -1.88685e-06 0 772.157 -5.80518e-05 0 0 0 0)
(0 -1.91562e-06 0 772.157 -6.21497e-05 0 0 0 0)
(0 -1.9851e-06 0 772.157 -6.33146e-05 0 0 0 0)
(0 -2.05564e-06 0 772.157 -6.70596e-05 0 0 0 0)
(0 -2.13666e-06 0 772.157 -6.78931e-05 0 0 0 0)
(0 -2.24466e-06 0 772.157 -7.13432e-05 0 0 0 0)
(0 -2.3644e-06 0 772.158 -7.19582e-05 0 0 0 0)
(0 -2.46166e-06 0 772.158 -7.52447e-05 0 0 0 0)
(0 -2.60525e-06 0 772.158 -7.56602e-05 0 0 0 0)
(0 -2.71112e-06 0 772.158 -7.8872e-05 0 0 0 0)
(0 -2.81217e-06 0 772.158 -7.91377e-05 0 0 0 0)
(0 -2.90103e-06 0 772.158 -8.22226e-05 0 0 0 0)
(0 -2.97144e-06 0 772.158 -8.23033e-05 0 0 0 0)
(0 -2.96809e-06 0 772.158 -8.52047e-05 0 0 0 0)
(0 -2.9757e-06 0 772.158 -8.48936e-05 0 0 0 0)
(0 -2.8938e-06 0 772.158 -8.74503e-05 0 0 0 0)
(0 -2.7735e-06 0 772.158 -8.6529e-05 0 0 0 0)
(0 -2.5872e-06 0 772.158 -8.84174e-05 0 0 0 0)
(0 -2.36835e-06 0 772.158 -8.65836e-05 0 0 0 0)
(0 -2.0355e-06 0 772.158 -8.75006e-05 0 0 0 0)
(0 -1.70985e-06 0 772.158 -8.43455e-05 0 0 0 0)
(0 -1.27875e-06 0 772.158 -8.396e-05 0 0 0 0)
(0 -8.2845e-07 0 772.158 -7.91709e-05 0 0 0 0)
(0 -3.21e-07 0 772.158 -7.71186e-05 0 0 0 0)
(0 1.917e-07 0 772.158 -7.04441e-05 0 0 0 0)
(0 7.701e-07 0 772.158 -6.65288e-05 0 0 0 0)
(0 1.3032e-06 0 772.158 -5.77689e-05 0 0 0 0)
(0 1.87035e-06 0 772.158 -5.19174e-05 0 0 0 0)
(0 2.409e-06 0 772.158 -4.11044e-05 0 0 0 0)
(0 2.9202e-06 0 772.157 -3.33346e-05 0 0 0 0)
(0 3.38745e-06 0 772.157 -2.06608e-05 0 0 0 0)
(0 3.83325e-06 0 772.157 -1.12268e-05 0 0 0 0)
(0 4.19212e-06 0 772.157 3.0252e-06 0 0 0 0)
(0 4.51896e-06 0 772.157 1.37326e-05 0 0 0 0)
(0 4.7809e-06 0 772.157 2.90822e-05 0 0 0 0)
(0 4.94664e-06 0 772.157 4.06403e-05 0 0 0 0)
(0 5.08592e-06 0 772.157 5.65209e-05 0 0 0 0)
(0 5.13358e-06 0 772.157 6.83864e-05 0 0 0 0)
(0 5.12032e-06 0 772.157 8.42818e-05 0 0 0 0)
(0 5.04761e-06 0 772.157 9.58941e-05 0 0 0 0)
(0 4.94309e-06 0 772.157 0.000111247 0 0 0 0)
(0 4.74656e-06 0 772.157 0.000122163 0 0 0 0)
(0 4.55265e-06 0 772.157 0.000136471 0 0 0 0)
(0 4.29655e-06 0 772.155 0.000146257 0 0 0 0)
(0 4.03272e-06 0 772.155 0.000159181 0 0 0 0)
(0 3.71655e-06 0 772.155 0.000167505 0 0 0 0)
(0 3.44122e-06 0 772.155 0.000178742 0 0 0 0)
(0 3.0924e-06 0 772.155 0.000185445 0 0 0 0)
(0 2.80035e-06 0 772.155 0.000194816 0 0 0 0)
(0 2.47335e-06 0 772.155 0.000199769 0 0 0 0)
(0 2.18445e-06 0 772.155 0.000207258 0 0 0 0)
(0 1.86615e-06 0 772.155 0.000210434 0 0 0 0)
(0 1.62705e-06 0 772.155 0.000216042 0 0 0 0)
(0 1.33155e-06 0 772.154 0.000217556 0 0 0 0)
(-0.0015 1.11825e-06 0 772.154 0.000221359 0 0 0 0)
(-0.0015 8.826e-07 0 772.152 0.000221303 0 0 0 0)
(0 6.9945e-07 0 772.152 0.000223494 0 0 0 0)
(0 4.926e-07 0 772.152 0.000222007 0 0 0 0)
(0 3.6915e-07 0 772.152 0.000222727 0 0 0 0)
(0 1.8945e-07 0 772.152 0.000220032 0 0 0 0)
(0 8.77501e-08 0 772.152 0.000219444 0 0 0 0)
(0 -3.96e-08 0 772.151 0.000215693 0 0 0 0)
(0 -1.257e-07 0 772.151 0.000214027 0 0 0 0)
(0 -2.4195e-07 0 772.151 0.000209374 0 0 0 0)
(0 -2.9205e-07 0 772.151 0.000206774 0 0 0 0)
(0 -4.062e-07 0 772.151 0.000201424 0 0 0 0)
(0 -4.6215e-07 0 772.151 0.000198026 0 0 0 0)
(0 -5.5395e-07 0 772.151 0.000192093 0 0 0 0)
(0 -6.321e-07 0 772.151 0.000188081 0 0 0 0)
(0 -7.467e-07 0 772.151 0.000181663 0 0 0 0)
(0 -8.2335e-07 0 772.149 0.000177122 0 0 0 0)
(0 -9.7245e-07 0 772.149 0.000170363 0 0 0 0)
(0 -1.09005e-06 0 772.149 0.000165373 0 0 0 0)
(0 -1.24935e-06 0 772.149 0.000158327 0 0 0 0)
(0 -1.42665e-06 0 772.149 0.000153025 0 0 0 0)
(0 -1.62885e-06 0 772.149 0.000145745 0 0 0 0)
(0 -1.82655e-06 0 772.149 0.000140208 0 0 0 0)
(0 -2.07375e-06 0 772.149 0.000132842 0 0 0 0)
(0 -2.31795e-06 0 772.149 0.000127188 0 0 0 0)
(0 -2.56095e-06 0 772.149 0.000119861 0 0 0 0)
(-0.0015 -2.8341e-06 0 772.149 0.00011436 0 0 0 0)
(-0.0015 -3.08025e-06 0 772.146 0.000107294 0 0 0 0)
(0 -3.325e-06 0 772.146 0.000102258 0 0 0 0)
(0 -3.53833e-06 0 772.146 9.58823e-05 0 0 0 0)
(0 -3.74757e-06 0 772.146 9.17912e-05 0 0 0 0)
(0 -3.87033e-06 0 772.146 8.6633e-05 0 0 0 0)
(0 -4.00854e-06 0 772.146 8.42193e-05 0 0 0 0)
(0 -4.02572e-06 0 772.146 8.101e-05 0 0 0 0)
(0 -4.03284e-06 0 772.146 8.11387e-05 0 0 0 0)
(0 -3.92221e-06 0 772.146 8.08733e-05 0 0 0 0)
(0 -3.81007e-06 0 772.145 8.46099e-05 0 0 0 0)
(0 -3.52837e-06 0 772.145 8.83951e-05 0 0 0 0)
(0 -3.28947e-06 0 772.145 9.70442e-05 0 0 0 0)
(0 -2.87502e-06 0 772.145 0.000106152 0 0 0 0)
(0 -2.49298e-06 0 772.145 0.000121077 0 0 0 0)
(0 -1.96777e-06 0 772.143 0.000136969 0 0 0 0)
(0 -1.50481e-06 0 772.143 0.00015965 0 0 0 0)
(-0.0015 -8.68275e-07 0 772.143 0.000183809 0 0 0 0)
(-0.0015 -3.56745e-07 0 772.142 0.000215882 0 0 0 0)
(0 3.17535e-07 0 772.14 0.000249892 0 0 0 0)
(0 8.73e-07 0 772.14 0.000293024 0 0 0 0)
(0 1.56843e-06 0 772.139 0.00033866 0 0 0 0)
(0 2.12517e-06 0 772.139 0.000394677 0 0 0 0)
(-0.0015 2.86317e-06 0 772.137 0.000453834 0 0 0 0)
(-0.0015 3.43765e-06 0 772.136 0.000524884 0 0 0 0)
(0 4.24644e-06 0 772.134 0.000599773 0 0 0 0)
(0 4.95185e-06 0 772.133 0.000688293 0 0 0 0)
(-0.0015 5.94893e-06 0 772.131 0.000781616 0 0 0 0)
(-0.0015 6.91006e-06 0 772.128 0.000890522 0 0 0 0)
(-0.0015 8.30425e-06 0 772.127 0.0010054 0 0 0 0)
(-0.0015 9.75126e-06 0 772.124 0.00113812 0 0 0 0)
(0 1.17228e-05 0 772.122 0.00127801 0 0 0 0)
(-0.0015 1.37562e-05 0 772.121 0.00143798 0 0 0 0)
(-0.003 1.6151e-05 0 772.116 0.001606 0 0 0 0)
(-0.0015 1.83693e-05 0 772.112 0.00179518 0 0 0 0)
(-0.0015 2.0839e-05 0 772.11 0.00199115 0 0 0 0)
(-0.003 2.31708e-05 0 772.106 0.00220587 0 0 0 0)
(-0.003 2.56172e-05 0 772.1 0.00242076 0 0 0 0)
(-0.0015 2.67559e-05 0 772.095 0.00264413 0 0 0 0)
(-0.0015 2.49048e-05 0 772.091 0.00284899 0 0 0 0)
(-0.003 1.57944e-05 0 772.086 0.00303169 0 0 0 0)
(-0.003 -5.5827e-06 0 772.08 0.00314025 0 0 0 0)
(-0.003 -4.08449e-05 0 772.074 0.00312898 0 0 0 0)
(-0.003 -8.40437e-05 0 772.068 0.00288781 0 0 0 0)
(-0.003 -0.000163164 0 772.062 0.00230478 0 0 0 0)
(-0.0015 -0.00037961 0 772.058 0.0011271 0 0 0 0)
(0.0015 -0.000754938 0 772.056 -0.00103872 0 0 0 0)
(0.0045 -0.00116876 0 772.058 -0.00466917 0 0 0 0)
(0.009 -0.00234525 0 772.062 -0.0103691 0 0 0 0)
(0.027 -0.00773866 0 772.074 -0.0204414 0 0 0 0)
(0.0405 -0.00838425 0 772.124 -0.0397044 0 0 0 0)
(0.0195 -0.00230941 0 772.131 -0.0444972 0 0 0 0)
(150.765 1862.23 0 913.8 214.857 0 0 0 0)
(-322.455 61.4205 0 1590.42 675.132 0 0 0 0)
(-793.185 -472.827 0 2182.26 858.604 0 0 0 0)
(-839.235 -432.884 0 2472.27 810.81 0 0 0 0)
(-701.28 -307.816 0 2503.27 680.356 0 0 0 0)
(-562.53 -205.995 0 2419.44 548.214 0 0 0 0)
(-450.51 -135.678 0 2294.98 437.76 0 0 0 0)
(-361.56 -90.1974 0 2161.48 351.225 0 0 0 0)
(-292.89 -61.4844 0 2033.37 284.973 0 0 0 0)
(-240.57 -43.2539 0 1916.31 234.399 0 0 0 0)
(-200.427 -31.425 0 1811.67 195.489 0 0 0 0)
(-169.206 -23.5298 0 1718.92 165.161 0 0 0 0)
(-144.542 -18.0969 0 1636.86 141.172 0 0 0 0)
(-124.762 -14.2452 0 1564.16 121.914 0 0 0 0)
(-108.677 -11.4372 0 1499.58 106.233 0 0 0 0)
(-95.4195 -9.3381 0 1441.99 93.2994 0 0 0 0)
(-84.36 -7.734 0 1390.45 82.506 0 0 0 0)
(-75.0405 -6.48435 0 1344.15 73.4041 0 0 0 0)
(-67.11 -5.4945 0 1302.38 65.6563 0 0 0 0)
(-60.3045 -4.6986 0 1264.59 59.0062 0 0 0 0)
(-54.423 -4.0506 0 1230.27 53.2555 0 0 0 0)
(-49.302 -3.51705 0 1199.01 48.2495 0 0 0 0)
(-44.8185 -3.07314 0 1170.48 43.8655 0 0 0 0)
(-40.872 -2.7003 0 1144.35 40.0057 0 0 0 0)
(-37.38 -2.38473 0 1120.36 36.591 0 0 0 0)