/*--------------------------------*- C++ -*----------------------------------*\
  =========                 |
  \\      /  F ield         | OpenFOAM: The Open Source CFD Toolbox
   \\    /   O peration     | Website:  https://openfoam.org
    \\  /    A nd           | Version:  7
     \\/     M anipulation  |
\*---------------------------------------------------------------------------*/
FoamFile
{
    version     2.0;
    format      ascii;
    class       volScalarField;
    location    "70";
    object      p;
}
// * * * * * * * * * * * * * * * * * * * * * * * * * * * * * * * * * * * * * //

dimensions      [0 2 -2 0 0 0 0];

internalField   nonuniform List<scalar> 
36000
(
0.36971
0.272802
0.222704
0.201987
0.190183
0.182554
0.177586
0.174159
0.171618
0.169629
0.168009
0.166647
0.165474
0.164443
0.163523
0.16269
0.161928
0.161223
0.160567
0.159951
0.159369
0.158816
0.158287
0.15778
0.157292
0.156819
0.15636
0.155914
0.155479
0.155053
0.154636
0.154226
0.153823
0.153427
0.153035
0.152649
0.152268
0.15189
0.151517
0.151147
0.15078
0.150416
0.150055
0.149697
0.149341
0.148988
0.148637
0.148288
0.147941
0.147595
0.147252
0.146911
0.146571
0.146233
0.145897
0.145562
0.145229
0.144898
0.144568
0.14424
0.143913
0.143587
0.143263
0.142941
0.14262
0.1423
0.141982
0.141665
0.141349
0.141035
0.140722
0.140411
0.140101
0.139792
0.139484
0.139178
0.138873
0.13857
0.138267
0.137966
0.137667
0.137368
0.137071
0.136775
0.13648
0.136187
0.135895
0.135603
0.135313
0.135025
0.134737
0.134451
0.134165
0.133881
0.133598
0.133316
0.133034
0.132754
0.132475
0.132197
0.13192
0.131643
0.131368
0.131093
0.130819
0.130546
0.130274
0.130002
0.129731
0.129461
0.129191
0.128922
0.128653
0.128385
0.128118
0.127851
0.127584
0.127318
0.127052
0.126786
0.126521
0.126256
0.125991
0.125726
0.125462
0.125198
0.124934
0.12467
0.124406
0.124143
0.123879
0.123616
0.123353
0.123089
0.122826
0.122563
0.1223
0.122037
0.121773
0.12151
0.121247
0.120984
0.120721
0.120458
0.120194
0.119931
0.119668
0.119405
0.119141
0.118878
0.118614
0.118351
0.118088
0.117824
0.117561
0.117297
0.117034
0.11677
0.116506
0.116243
0.115979
0.115715
0.115452
0.115188
0.114924
0.114661
0.114397
0.114133
0.113869
0.113606
0.113342
0.113078
0.112814
0.11255
0.112286
0.112023
0.111759
0.111495
0.111231
0.110967
0.110703
0.110439
0.110176
0.109912
0.109648
0.109384
0.10912
0.108856
0.108592
0.108328
0.108064
0.107801
0.107537
0.107273
0.107009
0.106745
0.106481
0.106217
0.105953
0.105689
0.105426
0.105162
0.104898
0.104634
0.10437
0.104106
0.103842
0.103578
0.103314
0.10305
0.102787
0.102523
0.102259
0.101995
0.101731
0.101467
0.101203
0.100939
0.100675
0.100412
0.100148
0.0998838
0.0996199
0.099356
0.0990921
0.0988282
0.0985644
0.0983005
0.0980366
0.0977727
0.0975088
0.0972449
0.096981
0.0967171
0.0964533
0.0961894
0.0959255
0.0956616
0.0953977
0.0951338
0.0948699
0.094606
0.0943422
0.0940783
0.0938144
0.0935505
0.0932866
0.0930227
0.0927588
0.0924949
0.0922311
0.0919672
0.0917033
0.0914394
0.0911755
0.0909116
0.0906477
0.0903838
0.09012
0.0898561
0.0895922
0.0893283
0.0890644
0.0888005
0.0885366
0.0882727
0.0880089
0.087745
0.0874811
0.0872172
0.0869533
0.0866894
0.0864255
0.0861616
0.0858978
0.0856339
0.08537
0.0851061
0.0848422
0.0845783
0.0843144
0.0840505
0.0837867
0.0835228
0.0832589
0.082995
0.0827311
0.0824672
0.0822033
0.0819395
0.0816756
0.0814117
0.0811478
0.0808839
0.08062
0.0803561
0.0800923
0.0798284
0.0795645
0.0793006
0.0790367
0.0787728
0.0785089
0.078245
0.0779812
0.0777173
0.0774534
0.0771895
0.0769256
0.0766617
0.0763978
0.076134
0.0758701
0.0756062
0.0753423
0.0750784
0.0748145
0.0745506
0.0742868
0.0740229
0.073759
0.0734951
0.0732312
0.0729673
0.0727034
0.0724396
0.0721757
0.0719118
0.0716479
0.071384
0.0711201
0.0708562
0.0705924
0.0703285
0.0700646
0.0698007
0.0695368
0.0692729
0.069009
0.0687451
0.0684813
0.0682174
0.0679535
0.0676896
0.0674257
0.0671618
0.0668979
0.0666341
0.0663702
0.0661063
0.0658424
0.0655785
0.0653146
0.0650507
0.0647869
0.064523
0.0642591
0.0639952
0.0637313
0.0634674
0.0632035
0.0629396
0.0626758
0.0624119
0.062148
0.0618841
0.0616202
0.0613563
0.0610924
0.0608286
0.0605647
0.0603008
0.0600369
0.059773
0.0595091
0.0592452
0.0589813
0.0587175
0.0584536
0.0581897
0.0579258
0.0576619
0.057398
0.0571341
0.0568703
0.0566064
0.0563425
0.0560786
0.0558147
0.0555508
0.0552869
0.055023
0.0547592
0.0544953
0.0542314
0.0539675
0.0537036
0.0534397
0.0531758
0.052912
0.0526481
0.0523842
0.0521203
0.0518564
0.0515925
0.0513286
0.0510648
0.0508009
0.050537
0.0502731
0.0500092
0.0497453
0.0494814
0.0492176
0.0489537
0.0486898
0.0484259
0.048162
0.0478981
0.0476343
0.0473704
0.0471065
0.0468426
0.0465787
0.0463148
0.0460509
0.0457871
0.0455232
0.0452593
0.0449954
0.0447315
0.0444676
0.0442038
0.0439399
0.043676
0.0434121
0.0431482
0.0428843
0.0426205
0.0423566
0.0420927
0.0418288
0.0415649
0.041301
0.0410372
0.0407733
0.0405094
0.0402455
0.0399816
0.0397177
0.0394539
0.03919
0.0389261
0.0386622
0.0383983
0.0381345
0.0378706
0.0376067
0.0373428
0.0370789
0.0368151
0.0365512
0.0362873
0.0360234
0.0357595
0.0354956
0.0352318
0.0349679
0.034704
0.0344401
0.0341762
0.0339124
0.0336485
0.0333846
0.0331207
0.0328568
0.032593
0.0323291
0.0320652
0.0318013
0.0315374
0.0312736
0.0310097
0.0307458
0.0304819
0.030218
0.0299541
0.0296903
0.0294264
0.0291625
0.0288986
0.0286347
0.0283708
0.028107
0.0278431
0.0275792
0.0273153
0.0270514
0.0267875
0.0265237
0.0262598
0.0259959
0.025732
0.0254681
0.0252042
0.0249403
0.0246765
0.0244126
0.0241487
0.0238848
0.0236209
0.023357
0.0230931
0.0228292
0.0225654
0.0223015
0.0220376
0.0217737
0.0215098
0.0212459
0.020982
0.0207181
0.0204542
0.0201904
0.0199265
0.0196626
0.0193987
0.0191348
0.0188709
0.018607
0.0183431
0.0180793
0.0178154
0.0175515
0.0172876
0.0170237
0.0167598
0.016496
0.0162321
0.0159682
0.0157043
0.0154404
0.0151765
0.0149127
0.0146488
0.0143849
0.014121
0.0138571
0.0135933
0.0133294
0.0130655
0.0128016
0.0125377
0.0122739
0.01201
0.0117461
0.0114822
0.0112184
0.0109545
0.0106906
0.0104267
0.0101629
0.00989898
0.0096351
0.00937123
0.00910736
0.00884348
0.00857961
0.00831574
0.00805186
0.00778799
0.00752412
0.00726025
0.00699638
0.00673252
0.00646865
0.00620478
0.00594092
0.00567705
0.00541319
0.00514933
0.00488548
0.00462162
0.00435777
0.00409392
0.00383007
0.00356623
0.00330239
0.00303856
0.00277473
0.0025109
0.00224708
0.00198327
0.00171946
0.00145564
0.0011918
0.00092787
0.00066389
0.000399876
0.000134044
0.279637
0.243594
0.217434
0.202649
0.192558
0.185246
0.180046
0.176257
0.173372
0.171094
0.169241
0.167692
0.16637
0.165218
0.164198
0.163284
0.162453
0.161692
0.160986
0.160328
0.15971
0.159125
0.158569
0.158037
0.157526
0.157034
0.156559
0.156097
0.155648
0.155209
0.154781
0.154361
0.153949
0.153543
0.153145
0.152751
0.152363
0.15198
0.151601
0.151226
0.150855
0.150487
0.150122
0.14976
0.149401
0.149044
0.14869
0.148338
0.147989
0.147641
0.147296
0.146952
0.146611
0.146271
0.145933
0.145597
0.145263
0.14493
0.144599
0.144269
0.143941
0.143615
0.14329
0.142966
0.142644
0.142324
0.142004
0.141687
0.14137
0.141056
0.140742
0.14043
0.140119
0.13981
0.139502
0.139195
0.13889
0.138585
0.138283
0.137981
0.137681
0.137382
0.137084
0.136788
0.136493
0.136199
0.135906
0.135614
0.135324
0.135035
0.134747
0.13446
0.134174
0.13389
0.133606
0.133323
0.133042
0.132761
0.132482
0.132203
0.131926
0.131649
0.131373
0.131098
0.130824
0.13055
0.130278
0.130006
0.129735
0.129464
0.129194
0.128925
0.128656
0.128388
0.12812
0.127852
0.127586
0.127319
0.127053
0.126787
0.126522
0.126257
0.125992
0.125727
0.125463
0.125198
0.124934
0.124671
0.124407
0.124143
0.12388
0.123616
0.123353
0.123089
0.122826
0.122563
0.1223
0.122037
0.121773
0.12151
0.121247
0.120984
0.120721
0.120457
0.120194
0.119931
0.119668
0.119404
0.119141
0.118878
0.118614
0.118351
0.118087
0.117824
0.117561
0.117297
0.117033
0.11677
0.116506
0.116243
0.115979
0.115715
0.115452
0.115188
0.114924
0.114661
0.114397
0.114133
0.113869
0.113605
0.113342
0.113078
0.112814
0.11255
0.112286
0.112023
0.111759
0.111495
0.111231
0.110967
0.110703
0.110439
0.110176
0.109912
0.109648
0.109384
0.10912
0.108856
0.108592
0.108328
0.108064
0.107801
0.107537
0.107273
0.107009
0.106745
0.106481
0.106217
0.105953
0.105689
0.105426
0.105162
0.104898
0.104634
0.10437
0.104106
0.103842
0.103578
0.103314
0.10305
0.102787
0.102523
0.102259
0.101995
0.101731
0.101467
0.101203
0.100939
0.100675
0.100412
0.100148
0.0998838
0.0996199
0.099356
0.0990921
0.0988282
0.0985644
0.0983005
0.0980366
0.0977727
0.0975088
0.0972449
0.096981
0.0967171
0.0964533
0.0961894
0.0959255
0.0956616
0.0953977
0.0951338
0.0948699
0.094606
0.0943422
0.0940783
0.0938144
0.0935505
0.0932866
0.0930227
0.0927588
0.0924949
0.0922311
0.0919672
0.0917033
0.0914394
0.0911755
0.0909116
0.0906477
0.0903838
0.09012
0.0898561
0.0895922
0.0893283
0.0890644
0.0888005
0.0885366
0.0882727
0.0880089
0.087745
0.0874811
0.0872172
0.0869533
0.0866894
0.0864255
0.0861616
0.0858978
0.0856339
0.08537
0.0851061
0.0848422
0.0845783
0.0843144
0.0840505
0.0837867
0.0835228
0.0832589
0.082995
0.0827311
0.0824672
0.0822033
0.0819395
0.0816756
0.0814117
0.0811478
0.0808839
0.08062
0.0803561
0.0800923
0.0798284
0.0795645
0.0793006
0.0790367
0.0787728
0.0785089
0.078245
0.0779812
0.0777173
0.0774534
0.0771895
0.0769256
0.0766617
0.0763978
0.076134
0.0758701
0.0756062
0.0753423
0.0750784
0.0748145
0.0745506
0.0742868
0.0740229
0.073759
0.0734951
0.0732312
0.0729673
0.0727034
0.0724396
0.0721757
0.0719118
0.0716479
0.071384
0.0711201
0.0708562
0.0705924
0.0703285
0.0700646
0.0698007
0.0695368
0.0692729
0.069009
0.0687451
0.0684813
0.0682174
0.0679535
0.0676896
0.0674257
0.0671618
0.0668979
0.0666341
0.0663702
0.0661063
0.0658424
0.0655785
0.0653146
0.0650507
0.0647869
0.064523
0.0642591
0.0639952
0.0637313
0.0634674
0.0632035
0.0629396
0.0626758
0.0624119
0.062148
0.0618841
0.0616202
0.0613563
0.0610924
0.0608286
0.0605647
0.0603008
0.0600369
0.059773
0.0595091
0.0592452
0.0589813
0.0587175
0.0584536
0.0581897
0.0579258
0.0576619
0.057398
0.0571341
0.0568703
0.0566064
0.0563425
0.0560786
0.0558147
0.0555508
0.0552869
0.055023
0.0547592
0.0544953
0.0542314
0.0539675
0.0537036
0.0534397
0.0531758
0.052912
0.0526481
0.0523842
0.0521203
0.0518564
0.0515925
0.0513286
0.0510648
0.0508009
0.050537
0.0502731
0.0500092
0.0497453
0.0494814
0.0492176
0.0489537
0.0486898
0.0484259
0.048162
0.0478981
0.0476343
0.0473704
0.0471065
0.0468426
0.0465787
0.0463148
0.0460509
0.0457871
0.0455232
0.0452593
0.0449954
0.0447315
0.0444676
0.0442038
0.0439399
0.043676
0.0434121
0.0431482
0.0428843
0.0426205
0.0423566
0.0420927
0.0418288
0.0415649
0.041301
0.0410372
0.0407733
0.0405094
0.0402455
0.0399816
0.0397177
0.0394539
0.03919
0.0389261
0.0386622
0.0383983
0.0381345
0.0378706
0.0376067
0.0373428
0.0370789
0.036815
0.0365512
0.0362873
0.0360234
0.0357595
0.0354956
0.0352318
0.0349679
0.034704
0.0344401
0.0341762
0.0339124
0.0336485
0.0333846
0.0331207
0.0328568
0.032593
0.0323291
0.0320652
0.0318013
0.0315374
0.0312736
0.0310097
0.0307458
0.0304819
0.030218
0.0299541
0.0296903
0.0294264
0.0291625
0.0288986
0.0286347
0.0283708
0.028107
0.0278431
0.0275792
0.0273153
0.0270514
0.0267875
0.0265237
0.0262598
0.0259959
0.025732
0.0254681
0.0252042
0.0249403
0.0246765
0.0244126
0.0241487
0.0238848
0.0236209
0.023357
0.0230931
0.0228292
0.0225654
0.0223015
0.0220376
0.0217737
0.0215098
0.0212459
0.020982
0.0207181
0.0204542
0.0201904
0.0199265
0.0196626
0.0193987
0.0191348
0.0188709
0.018607
0.0183432
0.0180793
0.0178154
0.0175515
0.0172876
0.0170237
0.0167598
0.016496
0.0162321
0.0159682
0.0157043
0.0154404
0.0151765
0.0149127
0.0146488
0.0143849
0.014121
0.0138571
0.0135933
0.0133294
0.0130655
0.0128016
0.0125377
0.0122739
0.01201
0.0117461
0.0114822
0.0112184
0.0109545
0.0106906
0.0104267
0.0101629
0.00989898
0.0096351
0.00937123
0.00910736
0.00884348
0.00857961
0.00831574
0.00805187
0.007788
0.00752413
0.00726026
0.00699639
0.00673253
0.00646866
0.0062048
0.00594093
0.00567707
0.00541321
0.00514936
0.0048855
0.00462165
0.0043578
0.00409395
0.00383011
0.00356627
0.00330244
0.00303861
0.00277478
0.00251095
0.00224713
0.00198331
0.00171949
0.00145567
0.00119181
0.000927823
0.00066392
0.000400601
0.000134496
0.23535
0.224966
0.212288
0.201783
0.19342
0.186842
0.181793
0.177904
0.174845
0.172386
0.170366
0.168673
0.167228
0.165973
0.164866
0.163877
0.162983
0.162167
0.161415
0.160716
0.160061
0.159445
0.158861
0.158305
0.157772
0.157261
0.156767
0.15629
0.155826
0.155375
0.154934
0.154504
0.154082
0.153668
0.153261
0.15286
0.152465
0.152076
0.151691
0.151311
0.150934
0.150562
0.150193
0.149827
0.149464
0.149104
0.148747
0.148392
0.14804
0.14769
0.147342
0.146997
0.146653
0.146312
0.145972
0.145634
0.145298
0.144964
0.144631
0.1443
0.143971
0.143643
0.143317
0.142993
0.14267
0.142348
0.142028
0.14171
0.141392
0.141077
0.140762
0.14045
0.140138
0.139828
0.139519
0.139212
0.138906
0.138601
0.138298
0.137996
0.137695
0.137396
0.137097
0.1368
0.136505
0.13621
0.135917
0.135625
0.135334
0.135045
0.134756
0.134469
0.134183
0.133898
0.133614
0.133331
0.133049
0.132768
0.132488
0.132209
0.131931
0.131654
0.131378
0.131102
0.130828
0.130554
0.130281
0.130009
0.129738
0.129467
0.129197
0.128927
0.128658
0.128389
0.128121
0.127854
0.127587
0.12732
0.127054
0.126788
0.126523
0.126257
0.125992
0.125728
0.125463
0.125199
0.124935
0.124671
0.124407
0.124143
0.12388
0.123616
0.123353
0.123089
0.122826
0.122563
0.1223
0.122036
0.121773
0.12151
0.121247
0.120984
0.12072
0.120457
0.120194
0.119931
0.119668
0.119404
0.119141
0.118878
0.118614
0.118351
0.118087
0.117824
0.11756
0.117297
0.117033
0.11677
0.116506
0.116243
0.115979
0.115715
0.115452
0.115188
0.114924
0.114661
0.114397
0.114133
0.113869
0.113605
0.113342
0.113078
0.112814
0.11255
0.112286
0.112023
0.111759
0.111495
0.111231
0.110967
0.110703
0.110439
0.110176
0.109912
0.109648
0.109384
0.10912
0.108856
0.108592
0.108328
0.108064
0.107801
0.107537
0.107273
0.107009
0.106745
0.106481
0.106217
0.105953
0.105689
0.105426
0.105162
0.104898
0.104634
0.10437
0.104106
0.103842
0.103578
0.103314
0.10305
0.102787
0.102523
0.102259
0.101995
0.101731
0.101467
0.101203
0.100939
0.100675
0.100412
0.100148
0.0998838
0.0996199
0.099356
0.0990921
0.0988282
0.0985644
0.0983005
0.0980366
0.0977727
0.0975088
0.0972449
0.096981
0.0967171
0.0964533
0.0961894
0.0959255
0.0956616
0.0953977
0.0951338
0.0948699
0.094606
0.0943422
0.0940783
0.0938144
0.0935505
0.0932866
0.0930227
0.0927588
0.0924949
0.0922311
0.0919672
0.0917033
0.0914394
0.0911755
0.0909116
0.0906477
0.0903838
0.09012
0.0898561
0.0895922
0.0893283
0.0890644
0.0888005
0.0885366
0.0882727
0.0880089
0.087745
0.0874811
0.0872172
0.0869533
0.0866894
0.0864255
0.0861616
0.0858978
0.0856339
0.08537
0.0851061
0.0848422
0.0845783
0.0843144
0.0840505
0.0837867
0.0835228
0.0832589
0.082995
0.0827311
0.0824672
0.0822033
0.0819395
0.0816756
0.0814117
0.0811478
0.0808839
0.08062
0.0803561
0.0800923
0.0798284
0.0795645
0.0793006
0.0790367
0.0787728
0.0785089
0.078245
0.0779812
0.0777173
0.0774534
0.0771895
0.0769256
0.0766617
0.0763978
0.076134
0.0758701
0.0756062
0.0753423
0.0750784
0.0748145
0.0745506
0.0742868
0.0740229
0.073759
0.0734951
0.0732312
0.0729673
0.0727034
0.0724396
0.0721757
0.0719118
0.0716479
0.071384
0.0711201
0.0708562
0.0705924
0.0703285
0.0700646
0.0698007
0.0695368
0.0692729
0.069009
0.0687451
0.0684813
0.0682174
0.0679535
0.0676896
0.0674257
0.0671618
0.0668979
0.0666341
0.0663702
0.0661063
0.0658424
0.0655785
0.0653146
0.0650507
0.0647869
0.064523
0.0642591
0.0639952
0.0637313
0.0634674
0.0632035
0.0629396
0.0626758
0.0624119
0.062148
0.0618841
0.0616202
0.0613563
0.0610924
0.0608286
0.0605647
0.0603008
0.0600369
0.059773
0.0595091
0.0592452
0.0589813
0.0587175
0.0584536
0.0581897
0.0579258
0.0576619
0.057398
0.0571341
0.0568703
0.0566064
0.0563425
0.0560786
0.0558147
0.0555508
0.0552869
0.0550231
0.0547592
0.0544953
0.0542314
0.0539675
0.0537036
0.0534397
0.0531758
0.052912
0.0526481
0.0523842
0.0521203
0.0518564
0.0515925
0.0513286
0.0510648
0.0508009
0.050537
0.0502731
0.0500092
0.0497453
0.0494815
0.0492176
0.0489537
0.0486898
0.0484259
0.048162
0.0478981
0.0476343
0.0473704
0.0471065
0.0468426
0.0465787
0.0463148
0.0460509
0.0457871
0.0455232
0.0452593
0.0449954
0.0447315
0.0444676
0.0442038
0.0439399
0.043676
0.0434121
0.0431482
0.0428843
0.0426205
0.0423566
0.0420927
0.0418288
0.0415649
0.041301
0.0410372
0.0407733
0.0405094
0.0402455
0.0399816
0.0397177
0.0394539
0.03919
0.0389261
0.0386622
0.0383983
0.0381345
0.0378706
0.0376067
0.0373428
0.0370789
0.036815
0.0365512
0.0362873
0.0360234
0.0357595
0.0354956
0.0352318
0.0349679
0.034704
0.0344401
0.0341762
0.0339124
0.0336485
0.0333846
0.0331207
0.0328568
0.032593
0.0323291
0.0320652
0.0318013
0.0315374
0.0312736
0.0310097
0.0307458
0.0304819
0.030218
0.0299541
0.0296903
0.0294264
0.0291625
0.0288986
0.0286347
0.0283708
0.028107
0.0278431
0.0275792
0.0273153
0.0270514
0.0267875
0.0265237
0.0262598
0.0259959
0.025732
0.0254681
0.0252042
0.0249403
0.0246765
0.0244126
0.0241487
0.0238848
0.0236209
0.023357
0.0230931
0.0228292
0.0225654
0.0223015
0.0220376
0.0217737
0.0215098
0.0212459
0.020982
0.0207181
0.0204543
0.0201904
0.0199265
0.0196626
0.0193987
0.0191348
0.0188709
0.018607
0.0183432
0.0180793
0.0178154
0.0175515
0.0172876
0.0170237
0.0167598
0.016496
0.0162321
0.0159682
0.0157043
0.0154404
0.0151765
0.0149127
0.0146488
0.0143849
0.014121
0.0138571
0.0135933
0.0133294
0.0130655
0.0128016
0.0125377
0.0122739
0.01201
0.0117461
0.0114822
0.0112184
0.0109545
0.0106906
0.0104267
0.0101629
0.00989898
0.00963511
0.00937124
0.00910736
0.00884349
0.00857962
0.00831575
0.00805188
0.00778801
0.00752414
0.00726027
0.00699641
0.00673254
0.00646868
0.00620482
0.00594096
0.0056771
0.00541324
0.00514939
0.00488554
0.00462169
0.00435784
0.004094
0.00383016
0.00356632
0.00330249
0.00303866
0.00277484
0.00251102
0.00224719
0.00198337
0.00171955
0.00145573
0.00119187
0.000927861
0.000664017
0.000401122
0.000134718
0.216208
0.212899
0.206042
0.198689
0.192216
0.186767
0.182287
0.17864
0.175658
0.173194
0.171132
0.169383
0.167876
0.166562
0.165401
0.164363
0.163424
0.162569
0.161781
0.16105
0.160368
0.159726
0.15912
0.158543
0.157992
0.157464
0.156956
0.156465
0.155988
0.155526
0.155075
0.154635
0.154205
0.153783
0.153368
0.152961
0.15256
0.152165
0.151774
0.151389
0.151008
0.150632
0.150259
0.149889
0.149523
0.14916
0.1488
0.148442
0.148088
0.147735
0.147385
0.147038
0.146692
0.146349
0.146008
0.145668
0.145331
0.144995
0.144661
0.144329
0.143998
0.14367
0.143342
0.143017
0.142693
0.142371
0.14205
0.14173
0.141412
0.141096
0.140781
0.140468
0.140155
0.139845
0.139535
0.139227
0.138921
0.138616
0.138312
0.138009
0.137708
0.137408
0.137109
0.136812
0.136516
0.136221
0.135927
0.135635
0.135343
0.135053
0.134765
0.134477
0.13419
0.133905
0.13362
0.133337
0.133055
0.132774
0.132493
0.132214
0.131936
0.131658
0.131382
0.131106
0.130832
0.130558
0.130284
0.130012
0.12974
0.129469
0.129199
0.128929
0.12866
0.128391
0.128123
0.127855
0.127588
0.127321
0.127055
0.126789
0.126523
0.126258
0.125993
0.125728
0.125463
0.125199
0.124935
0.124671
0.124407
0.124143
0.12388
0.123616
0.123353
0.123089
0.122826
0.122563
0.122299
0.122036
0.121773
0.12151
0.121247
0.120984
0.12072
0.120457
0.120194
0.119931
0.119667
0.119404
0.119141
0.118877
0.118614
0.118351
0.118087
0.117824
0.11756
0.117297
0.117033
0.11677
0.116506
0.116243
0.115979
0.115715
0.115452
0.115188
0.114924
0.11466
0.114397
0.114133
0.113869
0.113605
0.113342
0.113078
0.112814
0.11255
0.112286
0.112023
0.111759
0.111495
0.111231
0.110967
0.110703
0.110439
0.110176
0.109912
0.109648
0.109384
0.10912
0.108856
0.108592
0.108328
0.108064
0.107801
0.107537
0.107273
0.107009
0.106745
0.106481
0.106217
0.105953
0.105689
0.105426
0.105162
0.104898
0.104634
0.10437
0.104106
0.103842
0.103578
0.103314
0.10305
0.102787
0.102523
0.102259
0.101995
0.101731
0.101467
0.101203
0.100939
0.100675
0.100412
0.100148
0.0998838
0.0996199
0.099356
0.0990921
0.0988282
0.0985644
0.0983005
0.0980366
0.0977727
0.0975088
0.0972449
0.096981
0.0967171
0.0964533
0.0961894
0.0959255
0.0956616
0.0953977
0.0951338
0.0948699
0.094606
0.0943422
0.0940783
0.0938144
0.0935505
0.0932866
0.0930227
0.0927588
0.0924949
0.0922311
0.0919672
0.0917033
0.0914394
0.0911755
0.0909116
0.0906477
0.0903838
0.09012
0.0898561
0.0895922
0.0893283
0.0890644
0.0888005
0.0885366
0.0882727
0.0880089
0.087745
0.0874811
0.0872172
0.0869533
0.0866894
0.0864255
0.0861616
0.0858978
0.0856339
0.08537
0.0851061
0.0848422
0.0845783
0.0843144
0.0840506
0.0837867
0.0835228
0.0832589
0.082995
0.0827311
0.0824672
0.0822033
0.0819395
0.0816756
0.0814117
0.0811478
0.0808839
0.08062
0.0803561
0.0800923
0.0798284
0.0795645
0.0793006
0.0790367
0.0787728
0.0785089
0.078245
0.0779812
0.0777173
0.0774534
0.0771895
0.0769256
0.0766617
0.0763978
0.076134
0.0758701
0.0756062
0.0753423
0.0750784
0.0748145
0.0745506
0.0742868
0.0740229
0.073759
0.0734951
0.0732312
0.0729673
0.0727034
0.0724396
0.0721757
0.0719118
0.0716479
0.071384
0.0711201
0.0708562
0.0705924
0.0703285
0.0700646
0.0698007
0.0695368
0.0692729
0.069009
0.0687451
0.0684813
0.0682174
0.0679535
0.0676896
0.0674257
0.0671618
0.0668979
0.0666341
0.0663702
0.0661063
0.0658424
0.0655785
0.0653146
0.0650507
0.0647869
0.064523
0.0642591
0.0639952
0.0637313
0.0634674
0.0632035
0.0629396
0.0626758
0.0624119
0.062148
0.0618841
0.0616202
0.0613563
0.0610924
0.0608286
0.0605647
0.0603008
0.0600369
0.059773
0.0595091
0.0592452
0.0589813
0.0587175
0.0584536
0.0581897
0.0579258
0.0576619
0.057398
0.0571341
0.0568703
0.0566064
0.0563425
0.0560786
0.0558147
0.0555508
0.0552869
0.0550231
0.0547592
0.0544953
0.0542314
0.0539675
0.0537036
0.0534397
0.0531759
0.052912
0.0526481
0.0523842
0.0521203
0.0518564
0.0515925
0.0513287
0.0510648
0.0508009
0.050537
0.0502731
0.0500092
0.0497453
0.0494815
0.0492176
0.0489537
0.0486898
0.0484259
0.048162
0.0478981
0.0476343
0.0473704
0.0471065
0.0468426
0.0465787
0.0463148
0.0460509
0.0457871
0.0455232
0.0452593
0.0449954
0.0447315
0.0444676
0.0442038
0.0439399
0.043676
0.0434121
0.0431482
0.0428843
0.0426205
0.0423566
0.0420927
0.0418288
0.0415649
0.041301
0.0410372
0.0407733
0.0405094
0.0402455
0.0399816
0.0397177
0.0394539
0.03919
0.0389261
0.0386622
0.0383983
0.0381345
0.0378706
0.0376067
0.0373428
0.0370789
0.036815
0.0365512
0.0362873
0.0360234
0.0357595
0.0354956
0.0352318
0.0349679
0.034704
0.0344401
0.0341762
0.0339124
0.0336485
0.0333846
0.0331207
0.0328568
0.032593
0.0323291
0.0320652
0.0318013
0.0315374
0.0312736
0.0310097
0.0307458
0.0304819
0.030218
0.0299541
0.0296903
0.0294264
0.0291625
0.0288986
0.0286347
0.0283708
0.028107
0.0278431
0.0275792
0.0273153
0.0270514
0.0267875
0.0265237
0.0262598
0.0259959
0.025732
0.0254681
0.0252042
0.0249403
0.0246765
0.0244126
0.0241487
0.0238848
0.0236209
0.023357
0.0230931
0.0228292
0.0225654
0.0223015
0.0220376
0.0217737
0.0215098
0.0212459
0.020982
0.0207181
0.0204543
0.0201904
0.0199265
0.0196626
0.0193987
0.0191348
0.0188709
0.018607
0.0183432
0.0180793
0.0178154
0.0175515
0.0172876
0.0170237
0.0167598
0.016496
0.0162321
0.0159682
0.0157043
0.0154404
0.0151765
0.0149127
0.0146488
0.0143849
0.014121
0.0138571
0.0135933
0.0133294
0.0130655
0.0128016
0.0125377
0.0122739
0.01201
0.0117461
0.0114822
0.0112184
0.0109545
0.0106906
0.0104267
0.0101629
0.00989899
0.00963511
0.00937124
0.00910737
0.0088435
0.00857963
0.00831576
0.00805189
0.00778802
0.00752415
0.00726028
0.00699642
0.00673255
0.00646869
0.00620483
0.00594097
0.00567712
0.00541326
0.00514941
0.00488556
0.00462171
0.00435787
0.00409403
0.00383019
0.00356636
0.00330253
0.00303871
0.00277489
0.00251107
0.00224725
0.00198344
0.00171962
0.00145582
0.00119199
0.000928034
0.000664292
0.000401732
0.000134921
0.204682
0.203692
0.199959
0.195052
0.190257
0.185914
0.182104
0.178835
0.176054
0.173687
0.171659
0.16991
0.168386
0.167045
0.165852
0.164783
0.163814
0.162929
0.162114
0.161358
0.160652
0.15999
0.159363
0.158769
0.158202
0.157659
0.157137
0.156633
0.156146
0.155673
0.155212
0.154763
0.154325
0.153895
0.153474
0.15306
0.152653
0.152252
0.151857
0.151466
0.151081
0.1507
0.150323
0.14995
0.149581
0.149215
0.148852
0.148492
0.148134
0.14778
0.147428
0.147078
0.14673
0.146385
0.146042
0.145701
0.145362
0.145025
0.14469
0.144356
0.144025
0.143695
0.143367
0.14304
0.142715
0.142392
0.14207
0.14175
0.141431
0.141114
0.140799
0.140484
0.140172
0.13986
0.13955
0.139242
0.138935
0.138629
0.138324
0.138021
0.13772
0.137419
0.13712
0.136822
0.136526
0.13623
0.135936
0.135643
0.135352
0.135061
0.134772
0.134484
0.134197
0.133911
0.133626
0.133343
0.13306
0.132779
0.132498
0.132219
0.13194
0.131662
0.131386
0.13111
0.130835
0.13056
0.130287
0.130014
0.129742
0.129471
0.129201
0.128931
0.128661
0.128392
0.128124
0.127856
0.127589
0.127322
0.127056
0.12679
0.126524
0.126258
0.125993
0.125728
0.125464
0.125199
0.124935
0.124671
0.124407
0.124143
0.12388
0.123616
0.123353
0.123089
0.122826
0.122563
0.122299
0.122036
0.121773
0.12151
0.121247
0.120983
0.12072
0.120457
0.120194
0.119931
0.119667
0.119404
0.119141
0.118877
0.118614
0.118351
0.118087
0.117824
0.11756
0.117297
0.117033
0.11677
0.116506
0.116243
0.115979
0.115715
0.115452
0.115188
0.114924
0.11466
0.114397
0.114133
0.113869
0.113605
0.113342
0.113078
0.112814
0.11255
0.112286
0.112023
0.111759
0.111495
0.111231
0.110967
0.110703
0.110439
0.110176
0.109912
0.109648
0.109384
0.10912
0.108856
0.108592
0.108328
0.108064
0.107801
0.107537
0.107273
0.107009
0.106745
0.106481
0.106217
0.105953
0.105689
0.105426
0.105162
0.104898
0.104634
0.10437
0.104106
0.103842
0.103578
0.103314
0.10305
0.102787
0.102523
0.102259
0.101995
0.101731
0.101467
0.101203
0.100939
0.100675
0.100412
0.100148
0.0998838
0.0996199
0.099356
0.0990921
0.0988282
0.0985644
0.0983005
0.0980366
0.0977727
0.0975088
0.0972449
0.096981
0.0967171
0.0964533
0.0961894
0.0959255
0.0956616
0.0953977
0.0951338
0.0948699
0.094606
0.0943422
0.0940783
0.0938144
0.0935505
0.0932866
0.0930227
0.0927588
0.0924949
0.0922311
0.0919672
0.0917033
0.0914394
0.0911755
0.0909116
0.0906477
0.0903838
0.09012
0.0898561
0.0895922
0.0893283
0.0890644
0.0888005
0.0885366
0.0882727
0.0880089
0.087745
0.0874811
0.0872172
0.0869533
0.0866894
0.0864255
0.0861616
0.0858978
0.0856339
0.08537
0.0851061
0.0848422
0.0845783
0.0843144
0.0840506
0.0837867
0.0835228
0.0832589
0.082995
0.0827311
0.0824672
0.0822033
0.0819395
0.0816756
0.0814117
0.0811478
0.0808839
0.08062
0.0803561
0.0800923
0.0798284
0.0795645
0.0793006
0.0790367
0.0787728
0.0785089
0.078245
0.0779812
0.0777173
0.0774534
0.0771895
0.0769256
0.0766617
0.0763978
0.076134
0.0758701
0.0756062
0.0753423
0.0750784
0.0748145
0.0745506
0.0742868
0.0740229
0.073759
0.0734951
0.0732312
0.0729673
0.0727034
0.0724396
0.0721757
0.0719118
0.0716479
0.071384
0.0711201
0.0708562
0.0705924
0.0703285
0.0700646
0.0698007
0.0695368
0.0692729
0.069009
0.0687452
0.0684813
0.0682174
0.0679535
0.0676896
0.0674257
0.0671618
0.0668979
0.0666341
0.0663702
0.0661063
0.0658424
0.0655785
0.0653146
0.0650507
0.0647869
0.064523
0.0642591
0.0639952
0.0637313
0.0634674
0.0632035
0.0629396
0.0626758
0.0624119
0.062148
0.0618841
0.0616202
0.0613563
0.0610924
0.0608286
0.0605647
0.0603008
0.0600369
0.059773
0.0595091
0.0592452
0.0589813
0.0587175
0.0584536
0.0581897
0.0579258
0.0576619
0.057398
0.0571341
0.0568703
0.0566064
0.0563425
0.0560786
0.0558147
0.0555508
0.0552869
0.0550231
0.0547592
0.0544953
0.0542314
0.0539675
0.0537036
0.0534397
0.0531759
0.052912
0.0526481
0.0523842
0.0521203
0.0518564
0.0515925
0.0513287
0.0510648
0.0508009
0.050537
0.0502731
0.0500092
0.0497453
0.0494815
0.0492176
0.0489537
0.0486898
0.0484259
0.048162
0.0478981
0.0476343
0.0473704
0.0471065
0.0468426
0.0465787
0.0463148
0.0460509
0.0457871
0.0455232
0.0452593
0.0449954
0.0447315
0.0444676
0.0442038
0.0439399
0.043676
0.0434121
0.0431482
0.0428843
0.0426204
0.0423566
0.0420927
0.0418288
0.0415649
0.041301
0.0410372
0.0407733
0.0405094
0.0402455
0.0399816
0.0397177
0.0394539
0.03919
0.0389261
0.0386622
0.0383983
0.0381344
0.0378706
0.0376067
0.0373428
0.0370789
0.036815
0.0365512
0.0362873
0.0360234
0.0357595
0.0354956
0.0352318
0.0349679
0.034704
0.0344401
0.0341762
0.0339124
0.0336485
0.0333846
0.0331207
0.0328568
0.032593
0.0323291
0.0320652
0.0318013
0.0315374
0.0312736
0.0310097
0.0307458
0.0304819
0.030218
0.0299541
0.0296903
0.0294264
0.0291625
0.0288986
0.0286347
0.0283709
0.028107
0.0278431
0.0275792
0.0273153
0.0270514
0.0267875
0.0265237
0.0262598
0.0259959
0.025732
0.0254681
0.0252042
0.0249404
0.0246765
0.0244126
0.0241487
0.0238848
0.0236209
0.023357
0.0230931
0.0228293
0.0225654
0.0223015
0.0220376
0.0217737
0.0215098
0.0212459
0.020982
0.0207181
0.0204543
0.0201904
0.0199265
0.0196626
0.0193987
0.0191348
0.0188709
0.018607
0.0183432
0.0180793
0.0178154
0.0175515
0.0172876
0.0170237
0.0167598
0.016496
0.0162321
0.0159682
0.0157043
0.0154404
0.0151765
0.0149127
0.0146488
0.0143849
0.014121
0.0138571
0.0135933
0.0133294
0.0130655
0.0128016
0.0125377
0.0122739
0.01201
0.0117461
0.0114822
0.0112184
0.0109545
0.0106906
0.0104267
0.0101629
0.00989899
0.00963512
0.00937124
0.00910737
0.0088435
0.00857963
0.00831576
0.00805189
0.00778802
0.00752416
0.00726029
0.00699643
0.00673256
0.0064687
0.00620484
0.00594099
0.00567713
0.00541328
0.00514943
0.00488558
0.00462174
0.00435789
0.00409406
0.00383022
0.00356639
0.00330257
0.00303875
0.00277493
0.00251112
0.00224731
0.00198351
0.00171971
0.00145594
0.00119216
0.000928264
0.00066465
0.000402366
0.00013511
0.196948
0.19684
0.194829
0.191603
0.188104
0.184699
0.181533
0.178682
0.176161
0.173947
0.172005
0.170297
0.168788
0.167445
0.166241
0.165154
0.164166
0.16326
0.162425
0.161649
0.160925
0.160244
0.159601
0.15899
0.158409
0.157852
0.157317
0.156802
0.156303
0.15582
0.15535
0.154893
0.154446
0.154009
0.153581
0.15316
0.152747
0.152341
0.15194
0.151545
0.151155
0.15077
0.15039
0.150013
0.14964
0.149271
0.148905
0.148542
0.148182
0.147825
0.14747
0.147118
0.146769
0.146422
0.146077
0.145734
0.145394
0.145055
0.144718
0.144384
0.144051
0.14372
0.143391