/*--------------------------------*- C++ -*----------------------------------*\
  =========                 |
  \\      /  F ield         | OpenFOAM: The Open Source CFD Toolbox
   \\    /   O peration     | Website:  https://openfoam.org
    \\  /    A nd           | Version:  7
     \\/     M anipulation  |
\*---------------------------------------------------------------------------*/
FoamFile
{
    version     2.0;
    format      ascii;
    class       surfaceScalarField;
    location    "70";
    object      phi;
}
// * * * * * * * * * * * * * * * * * * * * * * * * * * * * * * * * * * * * * //

dimensions      [0 3 -1 0 0 0 0];

internalField   nonuniform List<scalar> 
71340
(
6.512e-09
1.82133e-09
4.709e-09
1.803e-09
3.50839e-09
1.20061e-09
2.73426e-09
7.74133e-10
2.22326e-09
5.10997e-10
1.8766e-09
3.46657e-10
1.63289e-09
2.43712e-10
1.45444e-09
1.7845e-10
1.31865e-09
1.35789e-10
1.21187e-09
1.06786e-10
1.12559e-09
8.62775e-11
1.05434e-09
7.12481e-11
9.94457e-10
5.98831e-11
9.43401e-10
5.1056e-11
8.99356e-10
4.40444e-11
8.60987e-10
3.83693e-11
8.27284e-10
3.3703e-11
7.97469e-10
2.98147e-11
7.70932e-10
2.65374e-11
7.47185e-10
2.37476e-11
7.25832e-10
2.13523e-11
7.06552e-10
1.92801e-11
6.89077e-10
1.74754e-11
6.73183e-10
1.58942e-11
6.58681e-10
1.45014e-11
6.45412e-10
1.32688e-11
6.33239e-10
1.21732e-11
6.22044e-10
1.11956e-11
6.11723e-10
1.03202e-11
6.02189e-10
9.53382e-12
5.93364e-10
8.82533e-12
5.85179e-10
8.18532e-12
5.77573e-10
7.60575e-12
5.70493e-10
7.07972e-12
5.63892e-10
6.6013e-12
5.57727e-10
6.16534e-12
5.51959e-10
5.76735e-12
5.46556e-10
5.40341e-12
5.41486e-10
5.07008e-12
5.36721e-10
4.76432e-12
5.32238e-10
4.48346e-12
5.28013e-10
4.22512e-12
5.24026e-10
3.98718e-12
5.20258e-10
3.76774e-12
5.16693e-10
3.56513e-12
5.13315e-10
3.37781e-12
5.1011e-10
3.20445e-12
5.07066e-10
3.04379e-12
5.04172e-10
2.89475e-12
5.01415e-10
2.75632e-12
4.98788e-10
2.62759e-12
4.9628e-10
2.50773e-12
4.93884e-10
2.39602e-12
4.91592e-10
2.29177e-12
4.89397e-10
2.19436e-12
4.87294e-10
2.10322e-12
4.85276e-10
2.01785e-12
4.83338e-10
1.93778e-12
4.81476e-10
1.86258e-12
4.79684e-10
1.79185e-12
4.77958e-10
1.72524e-12
4.76296e-10
1.66241e-12
4.74693e-10
1.60307e-12
4.73146e-10
1.54693e-12
4.71652e-10
1.49374e-12
4.70209e-10
1.44325e-12
4.68814e-10
1.39526e-12
4.67464e-10
1.34955e-12
4.66158e-10
1.30595e-12
4.64894e-10
1.26427e-12
4.63669e-10
1.22436e-12
4.62483e-10
1.18606e-12
4.61334e-10
1.14924e-12
4.6022e-10
1.11378e-12
4.59141e-10
1.07955e-12
4.58094e-10
1.04643e-12
4.5708e-10
1.01434e-12
4.56097e-10
9.83176e-13
4.55144e-10
9.52852e-13
4.54221e-10
9.23283e-13
4.53327e-10
8.94405e-13
4.52461e-10
8.66145e-13
4.51622e-10
8.38448e-13
4.50811e-10
8.11256e-13
4.50027e-10
7.84526e-13
4.49269e-10
7.58213e-13
4.48536e-10
7.32283e-13
4.4783e-10
7.06707e-13
4.47148e-10
6.81457e-13
4.46492e-10
6.56518e-13
4.4586e-10
6.3187e-13
4.45253e-10
6.0751e-13
4.44669e-10
5.83426e-13
4.4411e-10
5.59626e-13
4.43574e-10
5.36104e-13
4.43061e-10
5.12877e-13
4.42571e-10
4.89945e-13
4.42104e-10
4.67334e-13
4.41659e-10
4.45047e-13
4.41236e-10
4.23117e-13
4.40835e-10
4.01551e-13
4.40454e-10
3.80384e-13
4.40095e-10
3.59626e-13
4.39755e-10
3.39316e-13
4.39436e-10
3.19463e-13
4.39136e-10
3.00106e-13
4.38855e-10
2.81256e-13
4.38592e-10
2.62947e-13
4.38346e-10
2.45191e-13
4.38118e-10
2.28018e-13
4.37907e-10
2.11439e-13
4.37712e-10
1.95477e-13
4.37531e-10
1.8014e-13
4.37366e-10
1.65448e-13
4.37214e-10
1.51404e-13
4.37076e-10
1.38021e-13
4.36951e-10
1.25298e-13
4.36838e-10
1.13241e-13
4.36736e-10
1.01847e-13
4.36645e-10
9.11135e-14
4.36564e-10
8.1034e-14
4.36492e-10
7.15987e-14
4.36429e-10
6.27989e-14
4.36375e-10
5.46179e-14
4.36328e-10
4.70444e-14
4.36288e-10
4.00561e-14
4.36254e-10
3.36394e-14
4.36226e-10
2.77674e-14
4.36204e-10
2.2425e-14
4.36186e-10
1.75815e-14
4.36173e-10
1.32208e-14
4.36164e-10
9.30974e-15
4.36158e-10
5.83156e-15
4.36155e-10
2.75201e-15
4.36155e-10
5.41186e-17
4.36157e-10
-2.29634e-15
4.36162e-10
-4.31593e-15
4.36168e-10
-6.03795e-15
4.36175e-10
-7.47833e-15
4.36184e-10
-8.6687e-15
4.36194e-10
-9.62413e-15
4.36204e-10
-1.03739e-14
4.36215e-10
-1.09321e-14
4.36227e-10
-1.13252e-14
4.36238e-10
-1.15662e-14
4.3625e-10
-1.16782e-14
4.36262e-10
-1.16732e-14
4.36273e-10
-1.15709e-14
4.36285e-10
-1.13821e-14
4.36296e-10
-1.11232e-14
4.36307e-10
-1.0804e-14
4.36317e-10
-1.04373e-14
4.36328e-10
-1.00321e-14
4.36337e-10
-9.5978e-15
4.36346e-10
-9.14275e-15
4.36355e-10
-8.67326e-15
4.36363e-10
-8.19707e-15
4.36371e-10
-7.71764e-15
4.36378e-10
-7.24228e-15
4.36385e-10
-6.77193e-15
4.36392e-10
-6.31354e-15
4.36398e-10
-5.86589e-15
4.36403e-10
-5.4357e-15
4.36408e-10
-5.01992e-15
4.36413e-10
-4.62508e-15
4.36417e-10
-4.24666e-15
4.36421e-10
-3.89106e-15
4.36425e-10
-3.5526e-15
4.36428e-10
-3.2376e-15
4.36431e-10
-2.9395e-15
4.36433e-10
-2.66455e-15
4.36436e-10
-2.4056e-15
4.36438e-10
-2.16883e-15
4.3644e-10
-1.94669e-15
4.36442e-10
-1.74533e-15
4.36443e-10
-1.55696e-15
4.36445e-10
-1.3877e-15
4.36446e-10
-1.22969e-15
4.36447e-10
-1.089e-15
4.36448e-10
-9.57785e-16
4.36449e-10
-8.42096e-16
4.36449e-10
-7.34177e-16
4.3645e-10
-6.40053e-16
4.36451e-10
-5.52099e-16
4.36451e-10
-4.76335e-16
4.36451e-10
-4.05262e-16
4.36452e-10
-3.44943e-16
4.36452e-10
-2.8798e-16
4.36452e-10
-2.40502e-16
4.36453e-10
-1.95202e-16
4.36453e-10
-1.58294e-16
4.36453e-10
-1.22524e-16
4.36453e-10
-9.424e-17
4.36453e-10
-6.61824e-17
4.36453e-10
-4.48702e-17
4.36453e-10
-2.30008e-17
4.36453e-10
-7.29268e-18
4.36453e-10
9.65884e-18
4.36453e-10
2.08847e-17
4.36453e-10
3.39436e-17
4.36453e-10
4.16042e-17
4.36453e-10
5.15897e-17
4.36453e-10
5.64059e-17
4.36453e-10
6.3966e-17
4.36453e-10
6.65023e-17
4.36453e-10
7.21201e-17
4.36453e-10
7.28233e-17
4.36453e-10
7.68548e-17
4.36453e-10
7.60611e-17
4.36453e-10
7.87714e-17
4.36453e-10
7.67462e-17
4.36453e-10
7.83167e-17
4.36452e-10
7.52896e-17
4.36452e-10
7.58569e-17
4.36452e-10
7.20277e-17
4.36452e-10
7.17203e-17
4.36452e-10
6.7289e-17
4.36452e-10
6.62291e-17
4.36452e-10
6.14198e-17
4.36452e-10
5.97506e-17
4.36452e-10
5.47967e-17
4.36452e-10
5.26994e-17
4.36452e-10
4.78475e-17
4.36452e-10
4.55153e-17
4.36452e-10
4.102e-17
4.36452e-10
3.8659e-17
4.36452e-10
3.4742e-17
4.36452e-10
3.25527e-17
4.36452e-10
2.93891e-17
4.36451e-10
2.75266e-17
4.36451e-10
2.52323e-17
4.36451e-10
2.37947e-17
4.36451e-10
2.23933e-17
4.36451e-10
2.14184e-17
4.36451e-10
2.08526e-17
4.36451e-10
2.02991e-17
4.36451e-10
2.0448e-17
4.36451e-10
2.0219e-17
4.36451e-10
2.0916e-17
4.36451e-10
2.0877e-17
4.36451e-10
2.19402e-17
4.36451e-10
2.1955e-17
4.36451e-10
2.32236e-17
4.36451e-10
2.31739e-17
4.36451e-10
2.45241e-17
4.36451e-10
2.43423e-17
4.36451e-10
2.5705e-17
4.36451e-10
2.5364e-17
4.36451e-10
2.67347e-17
4.36451e-10
2.62524e-17
4.36451e-10
2.76555e-17
4.36451e-10
2.70879e-17
4.36451e-10
2.85651e-17
4.36451e-10
2.79612e-17
4.36451e-10
2.95558e-17
4.36451e-10
2.89451e-17
4.36451e-10
3.06604e-17
4.36451e-10
3.00444e-17
4.36451e-10
3.18452e-17
4.36451e-10
3.11705e-17
4.36451e-10
3.29955e-17
4.36451e-10
3.21724e-17
4.36451e-10
3.39285e-17
4.36451e-10
3.28596e-17
4.36451e-10
3.44575e-17
4.3645e-10
3.30421e-17
4.3645e-10
3.44316e-17
4.3645e-10
3.26031e-17
4.3645e-10
3.37721e-17
4.3645e-10
3.15266e-17
4.3645e-10
3.25235e-17
4.3645e-10
2.99061e-17
4.3645e-10
3.08462e-17
4.3645e-10
2.79554e-17
4.3645e-10
2.89805e-17
4.3645e-10
2.59685e-17
4.3645e-10
2.72303e-17
4.3645e-10
2.42462e-17
4.3645e-10
2.59e-17
4.3645e-10
2.30748e-17
4.3645e-10
2.52203e-17
4.3645e-10
2.26644e-17
4.3645e-10
2.53419e-17
4.3645e-10
2.30961e-17
4.3645e-10
2.63035e-17
4.3645e-10
2.43505e-17
4.3645e-10
2.80096e-17
4.3645e-10
2.63004e-17
4.3645e-10
3.02884e-17
4.3645e-10
2.87264e-17
4.3645e-10
3.29078e-17
4.3645e-10
3.13774e-17
4.3645e-10
3.56024e-17
4.3645e-10
3.39968e-17
4.3645e-10
3.81305e-17
4.3645e-10
3.63443e-17
4.3645e-10
4.02885e-17
4.3645e-10
3.82395e-17
4.3645e-10
4.19196e-17
4.3645e-10
3.95609e-17
4.3645e-10
4.29265e-17
4.3645e-10
4.02427e-17
4.3645e-10
4.33338e-17
4.3645e-10
4.02786e-17
4.3645e-10
4.30951e-17
4.3645e-10
3.97612e-17
4.3645e-10
4.23228e-17
4.3645e-10
3.87087e-17
4.3645e-10
4.11518e-17
4.3645e-10
3.7276e-17
4.3645e-10
3.9637e-17
4.3645e-10
3.56227e-17
4.3645e-10
3.79494e-17
4.3645e-10
3.38113e-17
4.3645e-10
3.62471e-17
4.3645e-10
3.2004e-17
4.3645e-10
3.45746e-17
4.3645e-10
3.03356e-17
4.3645e-10
3.30623e-17
4.3645e-10
2.88156e-17
4.3645e-10
3.18042e-17
4.3645e-10
2.75344e-17
4.3645e-10
3.07672e-17
4.3645e-10
2.65465e-17
4.3645e-10
3.00024e-17
4.3645e-10
2.57871e-17
4.3645e-10
2.95362e-17
4.36449e-10
2.52886e-17
4.36449e-10
2.92892e-17
4.36449e-10
2.50734e-17
4.36449e-10
2.92941e-17
4.36449e-10
2.50716e-17
4.36449e-10
2.95837e-17
4.36449e-10
2.53348e-17
4.36449e-10
3.01052e-17
4.36449e-10
2.59161e-17
4.36449e-10
3.09244e-17
4.36449e-10
2.67775e-17
4.36449e-10
3.20978e-17
4.36449e-10
2.79884e-17
4.36449e-10
3.35804e-17
4.36449e-10
2.95956e-17
4.36449e-10
3.54184e-17
4.36449e-10
3.15282e-17
4.36449e-10
3.76279e-17
4.36449e-10
3.38012e-17
4.36449e-10
4.01026e-17
4.36449e-10
3.63962e-17
4.36449e-10
4.28233e-17
4.36449e-10
3.91781e-17
4.36449e-10
4.57523e-17
4.36449e-10
4.21144e-17
4.36449e-10
4.87409e-17
4.36449e-10
4.51602e-17
4.36449e-10
5.17653e-17
4.36449e-10
4.81843e-17
4.36449e-10
5.47991e-17
4.36449e-10
5.11782e-17
4.36449e-10
5.77386e-17
4.36449e-10
5.41463e-17
4.36449e-10
6.06051e-17
4.36449e-10
5.70101e-17
4.36449e-10
6.34296e-17
4.36449e-10
5.98129e-17
4.36449e-10
6.61509e-17
4.36449e-10
6.25954e-17
4.36449e-10
6.88166e-17
4.36448e-10
6.52892e-17
4.36448e-10
7.14566e-17
4.36448e-10
6.79145e-17
4.36448e-10
7.39696e-17
4.36448e-10
7.04538e-17
4.36448e-10
7.63328e-17
4.36448e-10
7.27468e-17
4.36448e-10
7.84613e-17
4.36448e-10
7.46939e-17
4.36448e-10
8.01394e-17
4.36448e-10
7.61552e-17
4.36448e-10
8.12244e-17
4.36448e-10
7.68703e-17
4.36448e-10
8.1567e-17
4.36448e-10
7.67078e-17
4.36448e-10
8.09555e-17
4.36448e-10
7.55863e-17
4.36448e-10
7.93636e-17
4.36448e-10
7.34236e-17
4.36448e-10
7.68771e-17
4.36447e-10
7.03786e-17
4.36447e-10
7.36131e-17
4.36447e-10
6.67499e-17
4.36447e-10
6.9928e-17
4.36447e-10
6.28495e-17
4.36447e-10
6.62799e-17
4.36447e-10
5.91669e-17
4.36447e-10
6.30553e-17
4.36447e-10
5.6189e-17
4.36447e-10
6.07032e-17
4.36447e-10
5.4213e-17
4.36446e-10
5.95413e-17
4.36446e-10
5.34827e-17
4.36446e-10
5.95982e-17
4.36446e-10
5.40217e-17
4.36446e-10
6.07911e-17
4.36446e-10
5.55366e-17
4.36446e-10
6.28252e-17
4.36446e-10
5.76573e-17
4.36446e-10
6.51642e-17
4.36446e-10
5.98966e-17
4.36446e-10
6.73218e-17
4.36446e-10
6.16685e-17
4.36445e-10
6.88451e-17
4.36445e-10
6.25889e-17
4.36445e-10
6.93209e-17
4.36445e-10
6.24374e-17
4.36445e-10
6.86447e-17
4.36445e-10
6.11065e-17
4.36445e-10
6.6917e-17
4.36445e-10
5.88079e-17
4.36445e-10
6.4326e-17
4.36445e-10
5.59035e-17
4.36445e-10
6.12893e-17
4.36445e-10
5.2738e-17
4.36445e-10
5.82522e-17
4.36445e-10
4.97541e-17
4.36445e-10
5.55092e-17
4.36445e-10
4.72959e-17
4.36445e-10
5.33387e-17
4.36445e-10
4.54589e-17
4.36445e-10
5.1847e-17
4.36445e-10
4.42742e-17
4.36445e-10
5.08702e-17
4.36445e-10
4.35982e-17
4.36445e-10
5.0207e-17
4.36445e-10
4.30627e-17
4.36445e-10
4.95472e-17
4.36445e-10
4.23358e-17
4.36445e-10
4.84435e-17
4.36445e-10
4.10671e-17
4.36445e-10
4.65752e-17
4.36445e-10
3.885e-17
4.36445e-10
4.36804e-17
4.36445e-10
3.54733e-17
4.36445e-10
3.94978e-17
4.36445e-10
3.08266e-17
4.36445e-10
3.39907e-17
4.36445e-10
2.48196e-17
4.36445e-10
2.72307e-17
4.36445e-10
1.75837e-17
4.36445e-10
1.92965e-17
4.36445e-10
9.33892e-18
4.36446e-10
1.04578e-17
4.36446e-10
2.78539e-19
4.36446e-10
1.03589e-18
4.36446e-10
-9.24898e-18
4.36446e-10
-8.71563e-18
4.36446e-10
-1.88852e-17
4.36446e-10
-1.84289e-17
4.36446e-10
-2.83762e-17
4.36446e-10
-2.77612e-17
4.36446e-10
-3.73857e-17
4.36446e-10
-3.65049e-17
4.36446e-10
-4.56298e-17
4.36447e-10
-4.43939e-17
4.36447e-10
-5.29821e-17
4.36447e-10
-5.12342e-17
4.36447e-10
-5.92743e-17
4.36447e-10
-5.70027e-17
4.36447e-10
-6.44232e-17
4.36447e-10
-6.16434e-17
4.36447e-10
-6.85221e-17
4.36447e-10
-6.51829e-17
4.36447e-10
-7.16255e-17
4.36447e-10
-6.78108e-17
4.36447e-10
-7.38482e-17
4.36447e-10
-6.9646e-17
4.36448e-10
-7.54333e-17
4.36448e-10
-7.08131e-17
4.36448e-10
-7.64878e-17
4.36448e-10
-7.15141e-17
4.36448e-10
-7.70506e-17
4.36448e-10
-7.1736e-17
4.36448e-10
-7.71788e-17
4.36448e-10
-7.13399e-17
4.36448e-10
-7.66509e-17
4.36448e-10
-7.01631e-17
4.36448e-10
-7.51121e-17
4.36448e-10
-6.77744e-17
4.36448e-10
-7.21916e-17
4.36448e-10
-6.36611e-17
4.36448e-10
-6.7321e-17
4.36448e-10
-5.7378e-17
4.36448e-10
-5.9953e-17
4.36448e-10
-4.84148e-17
4.36448e-10
-4.97285e-17
4.36447e-10
-3.63942e-17
4.36447e-10
-3.63503e-17
4.36447e-10
-2.12562e-17
4.36447e-10
-1.97646e-17
4.36447e-10
-3.07238e-18
4.36447e-10
-2.82029e-19
4.36447e-10
1.78061e-17
4.36447e-10
2.16366e-17
4.36447e-10
4.07099e-17
4.36447e-10
4.53251e-17
4.36447e-10
6.48604e-17
4.36447e-10
6.98733e-17
4.36447e-10
8.94306e-17
4.36447e-10
9.43648e-17
4.36447e-10
1.13448e-16
4.36446e-10
1.17969e-16
4.36446e-10
1.36073e-16
4.36446e-10
1.39813e-16
4.36446e-10
1.56621e-16
4.36446e-10
1.59266e-16
4.36446e-10
1.74453e-16
4.36446e-10
1.75872e-16
4.36446e-10
1.89215e-16
4.36446e-10
1.89256e-16
4.36446e-10
2.00728e-16
4.36445e-10
1.99326e-16
4.36445e-10
2.08879e-16
4.36445e-10
2.06137e-16
4.36445e-10
2.13801e-16
4.36445e-10
2.0977e-16
4.36445e-10
2.1573e-16
4.36445e-10
2.10508e-16
4.36444e-10
2.14878e-16
4.36444e-10
2.0869e-16
4.36444e-10
2.11615e-16
4.36444e-10
2.04588e-16
4.36444e-10
2.06324e-16
4.36444e-10
1.986e-16
4.36444e-10
1.99296e-16
4.36444e-10
1.9111e-16
4.36443e-10
1.90917e-16
4.36443e-10
1.82386e-16
4.36443e-10
1.81553e-16
4.36443e-10
1.72786e-16
4.36443e-10
1.71434e-16
4.36443e-10
1.62627e-16
4.36443e-10
1.60884e-16
4.36443e-10
1.52109e-16
4.36442e-10
1.50199e-16
4.36442e-10
1.41516e-16
4.36442e-10
1.39575e-16
4.36442e-10
1.3116e-16
4.36442e-10
1.29348e-16
4.36442e-10
1.21299e-16
4.36442e-10
1.19944e-16
4.36442e-10
1.12425e-16
4.36441e-10
1.11845e-16
4.36441e-10
1.05212e-16
4.36441e-10
1.05865e-16
4.36441e-10
1.00523e-16
4.36441e-10
1.0311e-16
4.36441e-10
9.9637e-17
4.36441e-10
1.04962e-16
4.3644e-10
1.0422e-16
4.3644e-10
1.13282e-16
4.3644e-10
1.16228e-16
4.3644e-10
1.30316e-16
4.36439e-10
1.38114e-16
4.36439e-10
1.58584e-16
4.36439e-10
1.72668e-16
4.36439e-10
2.01046e-16
4.36438e-10
2.22909e-16
4.36438e-10
2.60981e-16
4.36437e-10
2.92288e-16
4.36437e-10
3.41898e-16
4.36436e-10
3.84598e-16
4.36436e-10
4.47809e-16
4.36435e-10
5.03987e-16
4.36434e-10
5.83239e-16
4.36433e-10
6.55279e-16
4.36432e-10
7.53245e-16
4.36431e-10
8.44027e-16
4.3643e-10
9.6377e-16
4.36429e-10
1.07639e-15
4.36428e-10
1.22128e-15
4.36426e-10
1.35903e-15
4.36424e-10
1.53233e-15
4.36422e-10
1.69826e-15
4.3642e-10
1.90196e-15
4.36418e-10
2.09599e-15
4.36416e-10
2.32612e-15
4.36413e-10
2.5385e-15
4.3641e-10
2.77734e-15
4.36407e-10
2.9795e-15
4.36404e-10
3.18159e-15
4.364e-10
3.29401e-15
4.36397e-10
3.30446e-15
4.36394e-10
3.04871e-15
4.36391e-10
2.44969e-15
4.3639e-10
1.19252e-15
4.36391e-10
-1.13921e-15
4.36396e-10
-5.04037e-15
4.36407e-10
-1.09662e-14
4.36429e-10
-2.24512e-14
4.36477e-10
-4.84201e-14
-5.36599e-14
8.69956e-09
1.4551e-09
8.15129e-09
2.35127e-09
7.22805e-09
2.12385e-09
6.31918e-09
1.683e-09
5.54623e-09
1.28395e-09
4.92084e-09
9.72048e-10
4.42123e-09
7.43321e-10
4.0206e-09
5.79081e-10
3.69579e-09
4.60596e-10
3.42884e-09
3.73738e-10
3.20635e-09
3.08762e-10
3.01849e-09
2.59114e-10
2.85798e-09
2.20393e-10
2.71941e-09
1.89622e-10
2.5987e-09
1.64756e-10
2.49271e-09
1.44361e-10
2.39899e-09
1.27417e-10
2.31563e-09
1.13178e-10
2.24107e-09
1.01093e-10
2.17408e-09
9.07447e-11
2.11361e-09
8.18146e-11
2.05884e-09
7.40547e-11
2.00905e-09
6.72698e-11
1.96364e-09
6.13043e-11
1.9221e-09
5.60332e-11
1.88402e-09
5.13546e-11
1.84901e-09
4.7185e-11
1.81675e-09
4.34554e-11
1.78696e-09
4.01081e-11
1.7594e-09
3.70948e-11
1.73385e-09
3.43745e-11
1.71012e-09
3.19125e-11
1.68805e-09
2.9679e-11
1.66748e-09
2.76485e-11
1.64828e-09
2.57988e-11
1.63034e-09
2.41106e-11
1.61354e-09
2.25671e-11
1.59779e-09
2.11538e-11
1.583e-09
1.98575e-11
1.5691e-09
1.86669e-11
1.55601e-09
1.75719e-11
1.54367e-09
1.65635e-11
1.53202e-09
1.56336e-11
1.52101e-09
1.47751e-11
1.5106e-09
1.39815e-11
1.50073e-09
1.32471e-11
1.49137e-09
1.25667e-11
1.48247e-09
1.19356e-11
1.47402e-09
1.13496e-11
1.46597e-09
1.08048e-11
1.4583e-09
1.02978e-11
1.45098e-09
9.82538e-12
1.44399e-09
9.38471e-12
1.43731e-09
8.97317e-12
1.43092e-09
8.58838e-12
1.42479e-09
8.22817e-12
1.41892e-09
7.89055e-12
1.41328e-09
7.57372e-12
1.40787e-09
7.27599e-12
1.40267e-09
6.99585e-12
1.39766e-09
6.73189e-12
1.39284e-09
6.48285e-12
1.38819e-09
6.24752e-12
1.38372e-09
6.02483e-12
1.3794e-09
5.81376e-12
1.37523e-09
5.61341e-12
1.3712e-09
5.42289e-12
1.36731e-09
5.24144e-12
1.36354e-09
5.06831e-12
1.35991e-09
4.90284e-12
1.35639e-09
4.74438e-12
1.35298e-09
4.59237e-12
1.34968e-09
4.44625e-12
1.34649e-09
4.30554e-12
1.3434e-09
4.16977e-12
1.34041e-09
4.03851e-12
1.33751e-09
3.91137e-12
1.33471e-09
3.78798e-12
1.33199e-09
3.668e-12
1.32936e-09
3.55113e-12
1.32682e-09
3.43709e-12
1.32436e-09
3.32562e-12
1.32198e-09
3.21649e-12
1.31969e-09
3.1095e-12
1.31747e-09
3.00446e-12
1.31532e-09
2.90122e-12
1.31326e-09
2.79963e-12
1.31126e-09
2.69958e-12
1.30935e-09
2.60098e-12
1.3075e-09
2.50374e-12
1.30572e-09
2.40782e-12
1.30402e-09
2.31317e-12
1.30238e-09
2.21976e-12
1.30081e-09
2.1276e-12
1.29931e-09
2.03669e-12
1.29788e-09
1.94706e-12
1.29651e-09
1.85874e-12
1.29521e-09
1.77177e-12
1.29397e-09
1.68622e-12
1.29279e-09
1.60213e-12
1.29167e-09
1.5196e-12
1.29061e-09
1.43869e-12
1.28961e-09
1.35949e-12
1.28867e-09
1.28207e-12
1.28778e-09
1.20653e-12
1.28695e-09
1.13294e-12
1.28617e-09
1.06138e-12
1.28544e-09
9.91942e-13
1.28476e-09
9.24691e-13
1.28413e-09
8.59696e-13
1.28354e-09
7.97023e-13
1.283e-09
7.36725e-13
1.2825e-09
6.78853e-13
1.28204e-09
6.23442e-13
1.28163e-09
5.70525e-13
1.28124e-09
5.20121e-13
1.2809e-09
4.72241e-13
1.28058e-09
4.26887e-13
1.2803e-09
3.8405e-13
1.28005e-09
3.43712e-13
1.27982e-09
3.05845e-13
1.27962e-09
2.70413e-13
1.27945e-09
2.37369e-13
1.2793e-09
2.06662e-13
1.27917e-09
1.78229e-13
1.27905e-09
1.52006e-13
1.27896e-09
1.27914e-13
1.27888e-09
1.0588e-13
1.27882e-09
8.58138e-14
1.27877e-09
6.76335e-14
1.27873e-09
5.12423e-14
1.2787e-09
3.65529e-14
1.27868e-09
2.34641e-14
1.27868e-09
1.18858e-14
1.27867e-09
1.71561e-15
1.27868e-09
-7.13621e-15
1.27869e-09
-1.47698e-14
1.2787e-09
-2.12722e-14
1.27872e-09
-2.67395e-14
1.27875e-09
-3.12544e-14
1.27877e-09
-3.49067e-14
1.2788e-09
-3.77738e-14
1.27883e-09
-3.99381e-14
1.27886e-09
-4.14701e-14
1.27889e-09
-4.24438e-14
1.27892e-09
-4.29226e-14
1.27895e-09
-4.29711e-14
1.27898e-09
-4.26454e-14
1.27902e-09
-4.20008e-14
1.27905e-09
-4.10857e-14
1.27908e-09
-3.99462e-14
1.2791e-09
-3.86235e-14
1.27913e-09
-3.7155e-14
1.27916e-09
-3.55751e-14
1.27918e-09
-3.39129e-14
1.27921e-09
-3.21966e-14
1.27923e-09
-3.04482e-14
1.27925e-09
-2.86901e-14
1.27927e-09
-2.69379e-14
1.27929e-09
-2.52094e-14
1.27931e-09
-2.35144e-14
1.27932e-09
-2.18667e-14
1.27934e-09
-2.02714e-14
1.27935e-09
-1.87391e-14
1.27936e-09
-1.72711e-14
1.27937e-09
-1.58752e-14
1.27939e-09
-1.45496e-14
1.27939e-09
-1.33002e-14
1.2794e-09
-1.21229e-14
1.27941e-09
-1.10219e-14
1.27942e-09
-9.99151e-15
1.27943e-09
-9.03479e-15
1.27943e-09
-8.14486e-15
1.27944e-09
-7.32404e-15
1.27944e-09
-6.56476e-15
1.27945e-09
-5.86884e-15
1.27945e-09
-5.22832e-15
1.27945e-09
-4.64482e-15
1.27946e-09
-4.11024e-15
1.27946e-09
-3.62612e-15
1.27946e-09
-3.18448e-15
1.27946e-09
-2.78689e-15
1.27947e-09
-2.42555e-15
1.27947e-09
-2.10223e-15
1.27947e-09
-1.80939e-15
1.27947e-09
-1.54902e-15
1.27947e-09
-1.31387e-15
1.27947e-09
-1.10624e-15
1.27947e-09
-9.19141e-16
1.27947e-09
-7.55216e-16
1.27947e-09
-6.07717e-16
1.27947e-09
-4.79651e-16
1.27947e-09
-3.64474e-16
1.27947e-09
-2.65574e-16
1.27947e-09
-1.76547e-16
1.27947e-09
-1.01187e-16
1.27947e-09
-3.31729e-17
1.27947e-09
2.33041e-17
1.27947e-09
7.45221e-17
1.27947e-09
1.15904e-16
1.27947e-09
1.5374e-16
1.27947e-09
1.83064e-16
1.27947e-09
2.10216e-16
1.27947e-09
2.29881e-16
1.27947e-09
2.48446e-16
1.27947e-09
2.60301e-16
1.27947e-09
2.71887e-16
1.27947e-09
2.77351e-16
1.27947e-09
2.83169e-16
1.27947e-09
2.83346e-16
1.27947e-09
2.84331e-16
1.27947e-09
2.801e-16
1.27947e-09
2.77023e-16
1.27947e-09
2.69157e-16
1.27947e-09
2.62709e-16
1.27947e-09
2.51963e-16
1.27947e-09
2.42845e-16
1.27947e-09
2.30003e-16
1.27947e-09
2.18985e-16
1.27947e-09
2.049e-16
1.27947e-09
1.92816e-16
1.27947e-09
1.78407e-16
1.27947e-09
1.66139e-16
1.27947e-09
1.52319e-16
1.27947e-09
1.40742e-16
1.27947e-09
1.28354e-16
1.27947e-09
1.18233e-16
1.27947e-09
1.07968e-16
1.27947e-09
9.98791e-17
1.27947e-09
9.21715e-17
1.27947e-09
8.64416e-17
1.27947e-09
8.14368e-17
1.27947e-09
7.8089e-17
1.27947e-09
7.56411e-17
1.27947e-09
7.44228e-17
1.27947e-09
7.41226e-17
1.27947e-09
7.45747e-17
1.27947e-09
7.5847e-17
1.27947e-09
7.73868e-17
1.27947e-09
7.96116e-17
1.27947e-09
8.16586e-17
1.27947e-09
8.42676e-17
1.27947e-09
8.63523e-17
1.27947e-09
8.89339e-17
1.27947e-09
9.07549e-17
1.27947e-09
9.31057e-17
1.27947e-09
9.45646e-17
1.27947e-09
9.66688e-17
1.27947e-09
9.78493e-17
1.27947e-09
9.98373e-17
1.27947e-09
1.00916e-16
1.27947e-09
1.02987e-16
1.27947e-09
1.04154e-16
1.27947e-09
1.06459e-16
1.27947e-09
1.07835e-16
1.27947e-09
1.10417e-16
1.27947e-09
1.1197e-16
1.27947e-09
1.14725e-16
1.27947e-09
1.16268e-16
1.27947e-09
1.18938e-16
1.27947e-09
1.20165e-16
1.27947e-09
1.22404e-16
1.27947e-09
1.22945e-16
1.27947e-09
1.24415e-16
1.27947e-09
1.23941e-16
1.27947e-09
1.24386e-16
1.27947e-09
1.2271e-16
1.27947e-09
1.22047e-16
1.27947e-09
1.19168e-16
1.27947e-09
1.17538e-16
1.27947e-09
1.13675e-16
1.27947e-09
1.11415e-16
1.27947e-09
1.06984e-16
1.27947e-09
1.04587e-16
1.27947e-09
1.00116e-16
1.27947e-09
9.81496e-17
1.27947e-09
9.41897e-17
1.27947e-09
9.31783e-17
1.27947e-09
9.02172e-17
1.27947e-09
9.05589e-17
1.27947e-09
8.89191e-17
1.27947e-09
9.08292e-17
1.27947e-09
9.06328e-17
1.27947e-09
9.4099e-17
1.27947e-09
9.52659e-17
1.27947e-09
1.00073e-16
1.27947e-09
1.0233e-16
1.27947e-09
1.08113e-16
1.27947e-09
1.1106e-16
1.27947e-09
1.17351e-16
1.27947e-09
1.20534e-16
1.27947e-09
1.26844e-16
1.27947e-09
1.29803e-16
1.27947e-09
1.35688e-16
1.27947e-09
1.38024e-16
1.27947e-09
1.43117e-16
1.27947e-09
1.44532e-16
1.27947e-09
1.48578e-16
1.27947e-09
1.48878e-16
1.27947e-09
1.51752e-16
1.27947e-09
1.50849e-16
1.27947e-09
1.52552e-16
1.27947e-09
1.50516e-16
1.27947e-09
1.51089e-16
1.27947e-09
1.48004e-16
1.27947e-09
1.47679e-16
1.27947e-09
1.43705e-16
1.27947e-09
1.42665e-16
1.27946e-09
1.38085e-16
1.27946e-09
1.36561e-16
1.27946e-09
1.31577e-16
1.27946e-09
1.2989e-16
1.27946e-09
1.24719e-16
1.27946e-09
1.23073e-16
1.27946e-09
1.1799e-16
1.27946e-09
1.16578e-16
1.27946e-09
1.11719e-16
1.27946e-09
1.10767e-16
1.27946e-09
1.06237e-16
1.27946e-09
1.05818e-16
1.27946e-09
1.01756e-16
1.27946e-09
1.01912e-16
1.27946e-09
9.83072e-17
1.27946e-09
9.91216e-17
1.27946e-09
9.59525e-17
1.27946e-09
9.73809e-17
1.27946e-09
9.46923e-17
1.27946e-09
9.67008e-17
1.27946e-09
9.4439e-17
1.27946e-09
9.70819e-17
1.27946e-09
9.52267e-17
1.27946e-09
9.84749e-17
1.27946e-09
9.711e-17
1.27946e-09
1.0097e-16
1.27946e-09
1.00098e-16
1.27946e-09
1.0467e-16
1.27946e-09
1.04318e-16
1.27946e-09
1.09601e-16
1.27946e-09
1.09874e-16
1.27946e-09
1.15866e-16
1.27946e-09
1.16746e-16
1.27946e-09
1.23496e-16
1.27946e-09
1.24949e-16
1.27946e-09
1.32366e-16
1.27946e-09
1.344e-16
1.27946e-09
1.42372e-16
1.27946e-09
1.44859e-16
1.27946e-09
1.53325e-16
1.27946e-09
1.5613e-16
1.27946e-09
1.64906e-16
1.27946e-09
1.67965e-16
1.27946e-09
1.76887e-16
1.27946e-09
1.80041e-16
1.27946e-09
1.8904e-16
1.27946e-09
1.92166e-16
1.27946e-09
2.01097e-16
1.27946e-09
2.04185e-16
1.27946e-09
2.12954e-16
1.27946e-09
2.15923e-16
1.27946e-09
2.24551e-16
1.27946e-09
2.27366e-16
1.27946e-09
2.358e-16
1.27946e-09
2.38527e-16
1.27946e-09
2.46743e-16
1.27946e-09
2.4935e-16
1.27946e-09
2.57402e-16
1.27946e-09
2.59855e-16
1.27946e-09
2.6767e-16
1.27946e-09
2.69975e-16
1.27946e-09
2.77448e-16
1.27946e-09
2.79447e-16
1.27946e-09
2.86483e-16
1.27946e-09
2.87955e-16
1.27946e-09
2.94288e-16
1.27946e-09
2.9501e-16
1.27946e-09
3.00321e-16
1.27946e-09
2.99916e-16
1.27946e-09
3.03937e-16
1.27946e-09
3.02029e-16
1.27946e-09
3.04418e-16
1.27946e-09
3.00767e-16
1.27946e-09
3.01297e-16
1.27946e-09
2.95697e-16
1.27946e-09
2.94402e-16
1.27946e-09
2.86872e-16
1.27946e-09
2.83921e-16
1.27946e-09
2.74819e-16
1.27946e-09
2.70661e-16
1.27946e-09
2.60506e-16
1.27946e-09
2.55909e-16
1.27946e-09
2.45442e-16
1.27946e-09
2.41223e-16
1.27946e-09
2.31369e-16
1.27946e-09
2.28385e-16
1.27946e-09
2.19927e-16
1.27946e-09
2.18978e-16
1.27946e-09
2.12515e-16
1.27946e-09
2.14023e-16
1.27946e-09
2.09905e-16
1.27946e-09
2.13925e-16
1.27945e-09
2.11998e-16
1.27945e-09
2.18249e-16
1.27945e-09
2.17979e-16
1.27945e-09
2.25718e-16
1.27945e-09
2.26341e-16
1.27945e-09
2.34604e-16
1.27945e-09
2.35105e-16
1.27945e-09
2.42951e-16
1.27945e-09
2.42363e-16
1.27945e-09
2.4888e-16
1.27945e-09
2.46531e-16
1.27945e-09
2.51116e-16
1.27945e-09
2.46574e-16
1.27945e-09
2.49089e-16
1.27945e-09
2.42339e-16
1.27945e-09
2.42939e-16
1.27945e-09
2.34419e-16
1.27945e-09
2.33601e-16
1.27945e-09
2.23918e-16
1.27945e-09
2.22451e-16
1.27945e-09
2.12349e-16
1.27945e-09
2.10934e-16
1.27945e-09
2.01196e-16
1.27945e-09
2.00424e-16
1.27945e-09
1.91546e-16
1.27945e-09
1.91845e-16
1.27945e-09
1.84064e-16
1.27945e-09
1.85455e-16
1.27945e-09
1.78776e-16
1.27945e-09
1.80992e-16
1.27945e-09
1.75039e-16
1.27945e-09
1.77642e-16
1.27945e-09
1.71844e-16
1.27945e-09
1.7414e-16
1.27945e-09
1.67899e-16
1.27945e-09
1.69163e-16
1.27945e-09
1.61779e-16
1.27945e-09
1.61423e-16
1.27945e-09
1.5231e-16
1.27945e-09
1.49787e-16
1.27945e-09
1.38604e-16
1.27945e-09
1.33583e-16
1.27945e-09
1.2009e-16
1.27945e-09
1.12539e-16
1.27945e-09
9.67318e-17
1.27945e-09
8.67348e-17
1.27945e-09
6.88858e-17
1.27945e-09
5.67344e-17
1.27945e-09
3.7184e-17
1.27945e-09
2.33998e-17
1.27945e-09
2.62743e-18
1.27945e-09
-1.22681e-17
1.27945e-09
-3.36281e-17
1.27945e-09
-4.90454e-17
1.27945e-09
-7.04339e-17
1.27945e-09
-8.56975e-17
1.27945e-09
-1.06555e-16
1.27945e-09
-1.21126e-16
1.27945e-09
-1.40864e-16
1.27946e-09
-1.54255e-16
1.27946e-09
-1.72468e-16
1.27946e-09
-1.84204e-16
1.27946e-09
-2.00576e-16
1.27946e-09
-2.104e-16
1.27946e-09
-2.2466e-16
1.27946e-09
-2.32426e-16
1.27946e-09
-2.4454e-16
1.27946e-09
-2.50158e-16
1.27946e-09
-2.60215e-16
1.27946e-09
-2.63829e-16
1.27946e-09
-2.71959e-16
1.27946e-09
-2.73796e-16
1.27946e-09
-2.80323e-16
1.27946e-09
-2.80588e-16
1.27946e-09
-2.85844e-16
1.27946e-09
-2.84831e-16
1.27946e-09
-2.89018e-16
1.27946e-09
-2.86907e-16
1.27946e-09
-2.90195e-16
1.27946e-09
-2.86904e-16
1.27946e-09
-2.89233e-16
1.27946e-09
-2.84542e-16
1.27946e-09
-2.85505e-16
1.27946e-09
-2.78916e-16
1.27946e-09
-2.77943e-16
1.27946e-09
-2.6864e-16
1.27946e-09
-2.64934e-16
1.27946e-09
-2.52054e-16
1.27946e-09
-2.44627e-16
1.27946e-09
-2.27267e-16
1.27946e-09
-2.15273e-16
1.27946e-09
-1.92576e-16
1.27946e-09
-1.75336e-16
1.27946e-09
-1.46828e-16
1.27946e-09
-1.23908e-16
1.27946e-09
-8.94941e-17
1.27946e-09
-6.09861e-17
1.27946e-09
-2.09586e-17
1.27946e-09
1.25952e-17
1.27946e-09
5.73788e-17
1.27946e-09
9.50811e-17
1.27946e-09
1.43371e-16
1.27946e-09
1.83872e-16
1.27946e-09
2.34212e-16
1.27946e-09
2.75949e-16
1.27946e-09
3.26634e-16
1.27946e-09
3.68052e-16
1.27946e-09
4.17386e-16
1.27946e-09
4.56894e-16
1.27946e-09
5.03394e-16
1.27945e-09
5.39591e-16
1.27945e-09
5.8192e-16
1.27945e-09
6.13744e-16
1.27945e-09
6.50876e-16
1.27945e-09
6.77476e-16
1.27945e-09
7.08795e-16
1.27945e-09
7.29656e-16
1.27945e-09
7.54765e-16
1.27945e-09
7.69747e-16
1.27945e-09
7.88552e-16
1.27945e-09
7.97673e-16
1.27945e-09
8.10398e-16
1.27945e-09
8.13895e-16
1.27945e-09
8.20844e-16
1.27945e-09
8.19183e-16
1.27945e-09
8.20801e-16
1.27945e-09
8.14444e-16
1.27945e-09
8.11332e-16
1.27945e-09
8.00808e-16
1.27945e-09
7.93504e-16
1.27945e-09
7.79443e-16
1.27945e-09
7.68508e-16
1.27945e-09
7.51434e-16
1.27945e-09
7.37497e-16
1.27945e-09
7.17929e-16
1.27945e-09
7.01495e-16
1.27945e-09
6.80002e-16
1.27945e-09
6.61564e-16
1.27944e-09
6.38581e-16
1.27944e-09
6.18694e-16
1.27944e-09
5.94654e-16
1.27944e-09
5.73773e-16
1.27944e-09
5.49205e-16
1.27944e-09
5.27848e-16
1.27944e-09
5.03253e-16
1.27944e-09
4.82144e-16
1.27944e-09
4.58199e-16
1.27944e-09
4.38187e-16
1.27944e-09
4.15927e-16
1.27944e-09
3.98222e-16
1.27944e-09
3.78983e-16
1.27944e-09
3.65349e-16
1.27944e-09
3.51008e-16
1.27944e-09
3.43689e-16
1.27944e-09
3.36823e-16
1.27944e-09
3.38733e-16
1.27944e-09
3.42488e-16
1.27944e-09
3.57288e-16
1.27944e-09
3.75499e-16
1.27944e-09
4.07393e-16
1.27944e-09
4.44595e-16
1.27944e-09
4.98387e-16
1.27944e-09
5.59572e-16
1.27943e-09
6.40661e-16
1.27943e-09
7.31339e-16
1.27943e-09
8.4551e-16
1.27943e-09
9.7177e-16
1.27943e-09
1.12534e-15
1.27943e-09
1.29376e-15
1.27943e-09
1.4938e-15
1.27943e-09
1.71171e-15
1.27942e-09
1.96606e-15
1.27942e-09
2.24196e-15
1.27942e-09
2.55971e-15
1.27942e-09
2.90337e-15
1.27941e-09
3.29522e-15
1.27941e-09
3.71802e-15
1.27941e-09
4.1961e-15
1.2794e-09
4.71083e-15
1.2794e-09
5.28791e-15
1.27939e-09
5.90669e-15
1.27939e-09
6.59286e-15
1.27938e-09
7.32152e-15
1.27938e-09
8.11489e-15
1.27937e-09
8.93929e-15
1.27936e-09
9.80628e-15
1.27935e-09
1.06633e-14
1.27934e-09
1.14952e-14
1.27933e-09
1.2204e-14
1.27932e-09
1.27041e-14
1.27931e-09
1.27834e-14
1.27931e-09
1.21972e-14
1.2793e-09
1.0519e-14
1.27929e-09
7.16929e-15
1.27929e-09
1.19585e-15
1.27929e-09
-8.46184e-15
1.2793e-09
-2.31943e-14
1.27933e-09
-4.55166e-14
1.27935e-09
-7.47314e-14
-7.88282e-14
8.76504e-09
1.02339e-09
8.99551e-09
2.12081e-09
8.7727e-09
2.34666e-09
8.28287e-09
2.17284e-09
7.69885e-09
1.86797e-09
7.11838e-09
1.55252e-09
6.586e-09
1.2757e-09
6.1158e-09
1.04928e-09
5.70723e-09
8.69162e-10
5.35401e-09
7.26957e-10
5.04838e-09
6.144e-10
4.78289e-09
5.24602e-10
4.55107e-09
4.52211e-10
4.3475e-09
3.93188e-10
4.16774e-09
3.44524e-10
4.00813e-09
3.03969e-10
3.86571e-09
2.69837e-10
3.73804e-09
2.4085e-10
3.6231e-09
2.16028e-10
3.51923e-09
1.94614e-10
3.42503e-09
1.76017e-10
3.33932e-09
1.59766e-10
3.2611e-09
1.45488e-10