/*--------------------------------*- C++ -*----------------------------------*\
  =========                 |
  \\      /  F ield         | OpenFOAM: The Open Source CFD Toolbox
   \\    /   O peration     | Website:  https://openfoam.org
    \\  /    A nd           | Version:  7
     \\/     M anipulation  |
\*---------------------------------------------------------------------------*/
FoamFile
{
    version     2.0;
    format      ascii;
    class       volVectorField;
    location    "70";
    object      U;
}
// * * * * * * * * * * * * * * * * * * * * * * * * * * * * * * * * * * * * * //

dimensions      [0 1 -1 0 0 0 0];

internalField   nonuniform List<vector> 
36000
(
(0.193885 0.0255153 0)
(0.163138 0.0257117 0)
(0.123771 0.0138827 0)
(0.0922897 0.00705988 0)
(0.0730762 0.00400881 0)
(0.0607427 0.00240142 0)
(0.0521721 0.00149258 0)
(0.0459896 0.000983295 0)
(0.0413732 0.000689273 0)
(0.037799 0.000509281 0)
(0.0349451 0.000392588 0)
(0.0326106 0.000312962 0)
(0.0306633 0.000256073 0)
(0.0290134 0.000213792 0)
(0.0275973 0.000181336 0)
(0.026369 0.000155767 0)
(0.025294 0.000135197 0)
(0.024346 0.000118363 0)
(0.0235045 0.00010439 0)
(0.0227533 9.26528e-05 0)
(0.0220793 8.26927e-05 0)
(0.0214719 7.4166e-05 0)
(0.0209223 6.68105e-05 0)
(0.0204232 6.04221e-05 0)
(0.0199685 5.48404e-05 0)
(0.019553 4.99376e-05 0)
(0.0191723 4.56104e-05 0)
(0.0188225 4.17749e-05 0)
(0.0185005 3.8362e-05 0)
(0.0182033 3.53145e-05 0)
(0.0179284 3.25846e-05 0)
(0.0176737 3.01321e-05 0)
(0.0174372 2.7923e-05 0)
(0.0172173 2.59282e-05 0)
(0.0170124 2.4123e-05 0)
(0.0168212 2.24857e-05 0)
(0.0166425 2.09981e-05 0)
(0.0164752 1.96438e-05 0)
(0.0163183 1.84089e-05 0)
(0.0161709 1.72809e-05 0)
(0.0160324 1.62491e-05 0)
(0.0159019 1.53038e-05 0)
(0.0157789 1.44365e-05 0)
(0.0156627 1.36397e-05 0)
(0.0155528 1.29068e-05 0)
(0.0154488 1.22315e-05 0)
(0.0153501 1.16087e-05 0)
(0.0152565 1.10335e-05 0)
(0.0151675 1.05016e-05 0)
(0.0150828 1.00091e-05 0)
(0.0150021 9.55253e-06 0)
(0.0149251 9.12867e-06 0)
(0.0148516 8.73482e-06 0)
(0.0147814 8.36825e-06 0)
(0.0147141 8.02679e-06 0)
(0.0146497 7.70821e-06 0)
(0.0145879 7.41073e-06 0)
(0.0145286 7.13252e-06 0)
(0.0144717 6.87213e-06 0)
(0.0144169 6.62802e-06 0)
(0.0143642 6.39905e-06 0)
(0.0143134 6.1839e-06 0)
(0.0142644 5.98166e-06 0)
(0.0142172 5.79121e-06 0)
(0.0141716 5.61182e-06 0)
(0.0141275 5.44253e-06 0)
(0.014085 5.28273e-06 0)
(0.0140438 5.13162e-06 0)
(0.014004 4.98869e-06 0)
(0.0139655 4.85323e-06 0)
(0.0139282 4.7248e-06 0)
(0.013892 4.6028e-06 0)
(0.013857 4.48683e-06 0)
(0.0138231 4.37635e-06 0)
(0.0137902 4.27101e-06 0)
(0.0137583 4.17032e-06 0)
(0.0137274 4.07395e-06 0)
(0.0136974 3.98145e-06 0)
(0.0136684 3.89251e-06 0)
(0.0136403 3.80673e-06 0)
(0.013613 3.72379e-06 0)
(0.0135866 3.64332e-06 0)
(0.013561 3.56503e-06 0)
(0.0135363 3.48858e-06 0)
(0.0135124 3.41367e-06 0)
(0.0134892 3.34003e-06 0)
(0.0134669 3.26734e-06 0)
(0.0134453 3.19539e-06 0)
(0.0134245 3.12387e-06 0)
(0.0134044 3.05262e-06 0)
(0.0133851 2.98137e-06 0)
(0.0133665 2.90999e-06 0)
(0.0133487 2.83824e-06 0)
(0.0133315 2.76606e-06 0)
(0.0133151 2.69323e-06 0)
(0.0132994 2.61977e-06 0)
(0.0132843 2.54549e-06 0)
(0.01327 2.47045e-06 0)
(0.0132563 2.39453e-06 0)
(0.0132433 2.31784e-06 0)
(0.0132309 2.24031e-06 0)
(0.0132192 2.16209e-06 0)
(0.0132081 2.08316e-06 0)
(0.0131976 2.00372e-06 0)
(0.0131877 1.92378e-06 0)
(0.0131784 1.84359e-06 0)
(0.0131697 1.76319e-06 0)
(0.0131616 1.68285e-06 0)
(0.0131539 1.60266e-06 0)
(0.0131469 1.52287e-06 0)
(0.0131403 1.44362e-06 0)
(0.0131342 1.36517e-06 0)
(0.0131285 1.28764e-06 0)
(0.0131234 1.2113e-06 0)
(0.0131186 1.13628e-06 0)
(0.0131143 1.06282e-06 0)
(0.0131103 9.91055e-07 0)
(0.0131067 9.21184e-07 0)
(0.0131035 8.53352e-07 0)
(0.0131006 7.87705e-07 0)
(0.0130981 7.2438e-07 0)
(0.0130958 6.63478e-07 0)
(0.0130938 6.05121e-07 0)
(0.013092 5.49361e-07 0)
(0.0130905 4.963e-07 0)
(0.0130892 4.45945e-07 0)
(0.0130881 3.98376e-07 0)
(0.0130872 3.53553e-07 0)
(0.0130864 3.11534e-07 0)
(0.0130858 2.7224e-07 0)
(0.0130854 2.35703e-07 0)
(0.013085 2.0181e-07 0)
(0.0130848 1.70569e-07 0)
(0.0130847 1.41839e-07 0)
(0.0130846 1.15609e-07 0)
(0.0130847 9.17198e-08 0)
(0.0130848 7.01428e-08 0)
(0.0130849 5.07098e-08 0)
(0.0130851 3.33758e-08 0)
(0.0130854 1.79689e-08 0)
(0.0130857 4.43204e-09 0)
(0.013086 -7.40506e-09 0)
(0.0130863 -1.7609e-08 0)
(0.0130866 -2.63423e-08 0)
(0.013087 -3.36788e-08 0)
(0.0130873 -3.97688e-08 0)
(0.0130877 -4.46908e-08 0)
(0.013088 -4.8579e-08 0)
(0.0130884 -5.15147e-08 0)
(0.0130887 -5.36135e-08 0)
(0.013089 -5.49578e-08 0)
(0.0130894 -5.56426e-08 0)
(0.0130897 -5.57504e-08 0)
(0.01309 -5.53553e-08 0)
(0.0130903 -5.45383e-08 0)
(0.0130905 -5.33528e-08 0)
(0.0130908 -5.18783e-08 0)
(0.013091 -5.01479e-08 0)
(0.0130912 -4.82391e-08 0)
(0.0130915 -4.61666e-08 0)
(0.0130917 -4.40051e-08 0)
(0.0130918 -4.17528e-08 0)
(0.013092 -3.94822e-08 0)
(0.0130922 -3.71765e-08 0)
(0.0130923 -3.49058e-08 0)
(0.0130924 -3.26412e-08 0)
(0.0130926 -3.04502e-08 0)
(0.0130927 -2.82937e-08 0)
(0.0130928 -2.62371e-08 0)
(0.0130929 -2.42333e-08 0)
(0.013093 -2.23453e-08 0)
(0.013093 -2.05204e-08 0)
(0.0130931 -1.88194e-08 0)
(0.0130932 -1.71852e-08 0)
(0.0130932 -1.5677e-08 0)
(0.0130933 -1.42349e-08 0)
(0.0130933 -1.29161e-08 0)
(0.0130934 -1.16597e-08 0)
(0.0130934 -1.05209e-08 0)
(0.0130934 -9.43839e-09 0)
(0.0130934 -8.46613e-09 0)
(0.0130935 -7.54272e-09 0)
(0.0130935 -6.72092e-09 0)
(0.0130935 -5.94021e-09 0)
(0.0130935 -5.25208e-09 0)
(0.0130935 -4.59701e-09 0)
(0.0130936 -4.02586e-09 0)
(0.0130936 -3.47989e-09 0)
(0.0130936 -3.0096e-09 0)
(0.0130936 -2.55731e-09 0)
(0.0130936 -2.17311e-09 0)
(0.0130936 -1.80034e-09 0)
(0.0130936 -1.48913e-09 0)
(0.0130936 -1.18337e-09 0)
(0.0130936 -9.33563e-10 0)
(0.0130936 -6.84166e-10 0)
(0.0130936 -4.86097e-10 0)
(0.0130936 -2.8392e-10 0)
(0.0130936 -1.29614e-10 0)
(0.0130936 3.26103e-11 0)
(0.0130936 1.49756e-10 0)
(0.0130936 2.77767e-10 0)
(0.0130936 3.62749e-10 0)
(0.0130936 4.611e-10 0)
(0.0130936 5.1769e-10 0)
(0.0130936 5.89556e-10 0)
(0.0130936 6.20798e-10 0)
(0.0130936 6.68479e-10 0)
(0.0130936 6.76591e-10 0)
(0.0130936 7.02083e-10 0)
(0.0130936 6.89099e-10 0)
(0.0130936 6.94084e-10 0)
(0.0130936 6.62443e-10 0)
(0.0130936 6.48943e-10 0)
(0.0130936 6.01494e-10 0)
(0.0130936 5.72401e-10 0)
(0.0130936 5.12846e-10 0)
(0.0130936 4.71718e-10 0)
(0.0130936 4.0485e-10 0)
(0.0130936 3.56109e-10 0)
(0.0130936 2.87283e-10 0)
(0.0130936 2.36158e-10 0)
(0.0130936 1.70954e-10 0)
(0.0130936 1.22514e-10 0)
(0.0130936 6.63923e-11 0)
(0.0130936 2.52946e-11 0)
(0.0130935 -1.74699e-11 0)
(0.0130935 -4.76278e-11 0)
(0.0130935 -7.43861e-11 0)
(0.0130935 -9.1872e-11 0)
(0.0130935 -1.01775e-10 0)
(0.0130935 -1.06807e-10 0)
(0.0130935 -1.01296e-10 0)
(0.0130935 -9.57222e-11 0)
(0.0130935 -7.79502e-11 0)
(0.0130935 -6.51889e-11 0)
(0.0130935 -3.93123e-11 0)
(0.0130935 -2.34042e-11 0)
(0.0130935 6.14664e-12 0)
(0.0130935 2.10604e-11 0)
(0.0130935 5.03389e-11 0)
(0.0130935 6.1246e-11 0)
(0.0130935 8.75864e-11 0)
(0.0130935 9.26794e-11 0)
(0.0130935 1.14876e-10 0)
(0.0130935 1.14046e-10 0)
(0.0130935 1.32359e-10 0)
(0.0130935 1.266e-10 0)
(0.0130935 1.42618e-10 0)
(0.0130935 1.33698e-10 0)
(0.0130935 1.49254e-10 0)
(0.0130935 1.3925e-10 0)
(0.0130935 1.55932e-10 0)
(0.0130935 1.46134e-10 0)
(0.0130935 1.649e-10 0)
(0.0130935 1.55572e-10 0)
(0.0130935 1.76017e-10 0)
(0.0130935 1.66459e-10 0)
(0.0130935 1.87089e-10 0)
(0.0130935 1.75422e-10 0)
(0.0130935 1.94256e-10 0)
(0.0130935 1.78165e-10 0)
(0.0130935 1.92932e-10 0)
(0.0130935 1.70536e-10 0)
(0.0130935 1.79601e-10 0)
(0.0130935 1.49686e-10 0)
(0.0130935 1.52828e-10 0)
(0.0130935 1.15518e-10 0)
(0.0130935 1.1378e-10 0)
(0.0130935 7.0888e-11 0)
(0.0130935 6.67852e-11 0)
(0.0130935 2.11792e-11 0)
(0.0130935 1.84966e-11 0)
(0.0130935 -2.62383e-11 0)
(0.0130935 -2.35722e-11 0)
(0.0130935 -6.33522e-11 0)
(0.0130935 -5.1842e-11 0)
(0.0130935 -8.34968e-11 0)
(0.0130935 -6.01833e-11 0)
(0.0130935 -8.17616e-11 0)
(0.0130935 -4.54323e-11 0)
(0.0130935 -5.6053e-11 0)
(0.0130935 -7.17293e-12 0)
(0.0130935 -7.83508e-12 0)
(0.0130935 5.21967e-11 0)
(0.0130935 5.91316e-11 0)
(0.0130935 1.27342e-10 0)
(0.0130935 1.39043e-10 0)
(0.0130935 2.11809e-10 0)
(0.0130935 2.24827e-10 0)
(0.0130935 2.9862e-10 0)
(0.0130935 3.09536e-10 0)
(0.0130935 3.80919e-10 0)
(0.0130935 3.86944e-10 0)
(0.0130935 4.53101e-10 0)
(0.0130935 4.51893e-10 0)
(0.0130935 5.11001e-10 0)
(0.0130935 5.01025e-10 0)
(0.0130935 5.51923e-10 0)
(0.0130935 5.32639e-10 0)
(0.0130935 5.74723e-10 0)
(0.0130935 5.46266e-10 0)
(0.0130935 5.80753e-10 0)
(0.0130935 5.42867e-10 0)
(0.0130935 5.70198e-10 0)
(0.0130935 5.25349e-10 0)
(0.0130935 5.46196e-10 0)
(0.0130935 4.94965e-10 0)
(0.0130935 5.12309e-10 0)
(0.0130935 4.55494e-10 0)
(0.0130935 4.7018e-10 0)
(0.0130935 4.10627e-10 0)
(0.0130935 4.23508e-10 0)
(0.0130935 3.61741e-10 0)
(0.0130935 3.75531e-10 0)
(0.0130935 3.11922e-10 0)
(0.0130935 3.2686e-10 0)
(0.0130935 2.63562e-10 0)
(0.0130935 2.7967e-10 0)
(0.0130935 2.16371e-10 0)
(0.0130935 2.35468e-10 0)
(0.0130935 1.71736e-10 0)
(0.0130935 1.93265e-10 0)
(0.0130935 1.3061e-10 0)
(0.0130935 1.5404e-10 0)
(0.0130935 9.18247e-11 0)
(0.0130935 1.18754e-10 0)
(0.0130935 5.65495e-11 0)
(0.0130935 8.65316e-11 0)
(0.0130935 2.61712e-11 0)
(0.0130935 5.9062e-11 0)
(0.0130935 3.91483e-13 0)
(0.0130935 3.82422e-11 0)
(0.0130935 -1.86212e-11 0)
(0.0130935 2.41278e-11 0)
(0.0130935 -2.87581e-11 0)
(0.0130935 1.89098e-11 0)
(0.0130935 -3.01328e-11 0)
(0.0130935 2.42427e-11 0)
(0.0130935 -2.11315e-11 0)
(0.0130935 3.92617e-11 0)
(0.0130935 -9.59542e-13 0)
(0.0130935 6.45227e-11 0)
(0.0130935 2.84141e-11 0)
(0.0130935 9.97631e-11 0)
(0.0130935 6.65219e-11 0)
(0.0130935 1.42031e-10 0)
(0.0130935 1.12194e-10 0)
(0.0130935 1.90137e-10 0)
(0.0130935 1.62095e-10 0)
(0.0130935 2.4275e-10 0)
(0.0130935 2.1472e-10 0)
(0.0130935 2.96246e-10 0)
(0.0130935 2.69047e-10 0)
(0.0130935 3.49782e-10 0)
(0.0130935 3.21968e-10 0)
(0.0130935 4.02689e-10 0)
(0.0130935 3.73021e-10 0)
(0.0130935 4.5249e-10 0)
(0.0130935 4.2208e-10 0)
(0.0130935 4.99239e-10 0)
(0.0130935 4.67144e-10 0)
(0.0130935 5.43135e-10 0)
(0.0130935 5.08522e-10 0)
(0.0130935 5.82258e-10 0)
(0.0130935 5.46399e-10 0)
(0.0130935 6.16704e-10 0)
(0.0130935 5.78448e-10 0)
(0.0130935 6.46088e-10 0)
(0.0130935 6.03887e-10 0)
(0.0130935 6.67185e-10 0)
(0.0130935 6.21249e-10 0)
(0.0130935 6.78201e-10 0)
(0.0130934 6.26188e-10 0)
(0.0130934 6.76348e-10 0)
(0.0130934 6.15456e-10 0)
(0.0130934 6.56195e-10 0)
(0.0130934 5.85944e-10 0)
(0.0130934 6.14877e-10 0)
(0.0130934 5.32727e-10 0)
(0.0130934 5.50236e-10 0)
(0.0130934 4.54803e-10 0)
(0.0130934 4.60333e-10 0)
(0.0130934 3.5357e-10 0)
(0.0130934 3.48254e-10 0)
(0.0130934 2.31794e-10 0)
(0.0130934 2.20796e-10 0)
(0.0130934 9.79764e-11 0)
(0.0130934 8.58832e-11 0)
(0.0130934 -3.61906e-11 0)
(0.0130934 -4.39004e-11 0)
(0.0130934 -1.59448e-10 0)
(0.0130934 -1.5475e-10 0)
(0.0130934 -2.58503e-10 0)
(0.0130934 -2.3636e-10 0)
(0.0130934 -3.22212e-10 0)
(0.0130934 -2.79594e-10 0)
(0.0130934 -3.45855e-10 0)
(0.0130934 -2.80375e-10 0)
(0.0130934 -3.28147e-10 0)
(0.0130934 -2.42604e-10 0)
(0.0130934 -2.73742e-10 0)
(0.0130934 -1.73491e-10 0)
(0.0130934 -1.94181e-10 0)
(0.0130934 -8.43471e-11 0)
(0.0130934 -1.01864e-10 0)
(0.0130934 9.86875e-12 0)
(0.0130934 -9.68843e-12 0)
(0.0130934 9.73641e-11 0)
(0.0130934 6.98773e-11 0)
(0.0130934 1.6959e-10 0)
(0.0130934 1.30856e-10 0)
(0.0130934 2.21e-10 0)
(0.0130934 1.7258e-10 0)
(0.0130934 2.53856e-10 0)
(0.0130934 1.97647e-10 0)
(0.0130934 2.75123e-10 0)
(0.0130934 2.1496e-10 0)
(0.0130934 2.92842e-10 0)
(0.0130933 2.35434e-10 0)
(0.0130933 3.1821e-10 0)
(0.0130933 2.67766e-10 0)
(0.0130933 3.6104e-10 0)
(0.0130933 3.2049e-10 0)
(0.0130933 4.2596e-10 0)
(0.0130933 3.98304e-10 0)
(0.0130933 5.15545e-10 0)
(0.0130933 4.99436e-10 0)
(0.0130933 6.27879e-10 0)
(0.0130933 6.20072e-10 0)
(0.0130933 7.55169e-10 0)
(0.0130933 7.52972e-10 0)
(0.0130933 8.89148e-10 0)
(0.0130933 8.86889e-10 0)
(0.0130933 1.02018e-09 0)
(0.0130933 1.01221e-09 0)
(0.0130933 1.13681e-09 0)
(0.0130933 1.12012e-09 0)
(0.0130933 1.2312e-09 0)
(0.0130933 1.20161e-09 0)
(0.0130933 1.29765e-09 0)
(0.0130933 1.25236e-09 0)
(0.0130933 1.33105e-09 0)
(0.0130934 1.27067e-09 0)
(0.0130934 1.33117e-09 0)
(0.0130934 1.25537e-09 0)
(0.0130934 1.30008e-09 0)
(0.0130934 1.20962e-09 0)
(0.0130934 1.23974e-09 0)
(0.0130934 1.13816e-09 0)
(0.0130934 1.15552e-09 0)
(0.0130934 1.04462e-09 0)
(0.0130934 1.05342e-09 0)
(0.0130934 9.35203e-10 0)
(0.0130934 9.37469e-10 0)
(0.0130934 8.15868e-10 0)
(0.0130934 8.13482e-10 0)
(0.0130934 6.8993e-10 0)
(0.0130934 6.86437e-10 0)
(0.0130934 5.61977e-10 0)
(0.0130934 5.58194e-10 0)
(0.0130934 4.35356e-10 0)
(0.0130934 4.31555e-10 0)
(0.0130934 3.09987e-10 0)
(0.0130934 3.07826e-10 0)
(0.0130934 1.86562e-10 0)
(0.0130934 1.84725e-10 0)
(0.0130934 6.41484e-11 0)
(0.0130934 6.07418e-11 0)
(0.0130934 -6.16418e-11 0)
(0.0130934 -6.69664e-11 0)
(0.0130934 -1.93982e-10 0)
(0.0130934 -2.04009e-10 0)
(0.0130934 -3.36426e-10 0)
(0.0130934 -3.53653e-10 0)
(0.0130934 -4.94053e-10 0)
(0.0130934 -5.17764e-10 0)
(0.0130934 -6.67736e-10 0)
(0.0130934 -6.98505e-10 0)
(0.0130934 -8.55214e-10 0)
(0.0130934 -8.91907e-10 0)
(0.0130934 -1.05331e-09 0)
(0.0130934 -1.08978e-09 0)
(0.0130934 -1.25169e-09 0)
(0.0130934 -1.2827e-09 0)
(0.0130934 -1.43659e-09 0)
(0.0130934 -1.45518e-09 0)
(0.0130934 -1.59448e-09 0)
(0.0130934 -1.59088e-09 0)
(0.0130934 -1.70847e-09 0)
(0.0130934 -1.67613e-09 0)
(0.0130934 -1.7637e-09 0)
(0.0130934 -1.69753e-09 0)
(0.0130934 -1.75092e-09 0)
(0.0130934 -1.64619e-09 0)
(0.0130934 -1.66404e-09 0)
(0.0130934 -1.5215e-09 0)
(0.0130934 -1.50344e-09 0)
(0.0130934 -1.32682e-09 0)
(0.0130934 -1.27761e-09 0)
(0.0130934 -1.07127e-09 0)
(0.0130934 -9.98135e-10 0)
(0.0130934 -7.70006e-10 0)
(0.0130934 -6.79408e-10 0)
(0.0130934 -4.4023e-10 0)
(0.0130934 -3.40347e-10 0)
(0.0130934 -9.79916e-11 0)
(0.0130934 1.00772e-12 0)
(0.0130934 2.38516e-10 0)
(0.0130934 3.30547e-10 0)
(0.0130934 5.54953e-10 0)
(0.0130934 6.34057e-10 0)
(0.0130934 8.4139e-10 0)
(0.0130934 9.02905e-10 0)
(0.0130934 1.08916e-09 0)
(0.0130934 1.13232e-09 0)
(0.0130934 1.29532e-09 0)
(0.0130934 1.31901e-09 0)
(0.0130934 1.46021e-09 0)
(0.0130934 1.46464e-09 0)
(0.0130934 1.58462e-09 0)
(0.0130934 1.57311e-09 0)
(0.0130934 1.67339e-09 0)
(0.0130933 1.64766e-09 0)
(0.0130933 1.73223e-09 0)
(0.0130933 1.69429e-09 0)
(0.0130933 1.76507e-09 0)
(0.0130933 1.7189e-09 0)
(0.0130933 1.7777e-09 0)
(0.0130933 1.72475e-09 0)
(0.0130933 1.77506e-09 0)
(0.0130933 1.71637e-09 0)
(0.0130933 1.75893e-09 0)
(0.0130933 1.6969e-09 0)
(0.0130933 1.73185e-09 0)
(0.0130933 1.66609e-09 0)
(0.0130933 1.69492e-09 0)
(0.0130933 1.62395e-09 0)
(0.0130933 1.64514e-09 0)
(0.0130933 1.56906e-09 0)
(0.0130933 1.58031e-09 0)
(0.0130933 1.49639e-09 0)
(0.0130933 1.49702e-09 0)
(0.0130933 1.40128e-09 0)
(0.0130933 1.38843e-09 0)
(0.0130933 1.27951e-09 0)
(0.0130933 1.25018e-09 0)
(0.0130933 1.12498e-09 0)
(0.0130933 1.07945e-09 0)
(0.0130932 9.3604e-10 0)
(0.0130932 8.741e-10 0)
(0.0130932 7.14373e-10 0)
(0.0130932 6.38211e-10 0)
(0.0130932 4.64535e-10 0)
(0.0130932 3.80189e-10 0)
(0.0130932 1.97299e-10 0)
(0.0130932 1.11808e-10 0)
(0.0130932 -7.15571e-11 0)
(0.0130932 -1.49673e-10 0)
(0.0130932 -3.25562e-10 0)
(0.0130932 -3.84898e-10 0)
(0.0130932 -5.4486e-10 0)
(0.0130932 -5.76566e-10 0)
(0.0130932 -7.11059e-10 0)
(0.0130932 -7.07751e-10 0)
(0.0130932 -8.1138e-10 0)
(0.0130931 -7.65636e-10 0)
(0.0130931 -8.35163e-10 0)
(0.0130931 -7.44467e-10 0)
(0.0130931 -7.76963e-10 0)
(0.0130931 -6.39905e-10 0)
(0.0130931 -6.35285e-10 0)
(0.013093 -4.49027e-10 0)
(0.013093 -4.06108e-10 0)
(0.013093 -1.65931e-10 0)
(0.013093 -7.59848e-11 0)
(0.0130929 2.30664e-10 0)
(0.0130929 3.84686e-10 0)
(0.0130928 7.84281e-10 0)
(0.0130928 1.03477e-09 0)
(0.0130928 1.5658e-09 0)
(0.0130927 1.95185e-09 0)
(0.0130926 2.64253e-09 0)
(0.0130926 3.17647e-09 0)
(0.0130925 4.0318e-09 0)
(0.0130924 4.72119e-09 0)
(0.0130923 5.73961e-09 0)
(0.0130923 6.50492e-09 0)
(0.0130922 7.39993e-09 0)
(0.0130921 7.55788e-09 0)
(0.013092 7.02775e-09 0)
(0.0130919 4.83489e-09 0)
(0.0130918 1.42484e-09 0)
(0.0130917 -6.0427e-09 0)
(0.0130917 -2.38825e-08 0)
(0.0130918 -5.63719e-08 0)
(0.013092 -1.018e-07 0)
(0.0130924 -2.12722e-07 0)
(0.0130938 -6.17711e-07 0)
(0.0130951 -7.71672e-07 0)
(0.254343 0.0525756 0)
(0.255708 0.0715729 0)
(0.232846 0.0566703 0)
(0.202829 0.0400511 0)
(0.176897 0.0278114 0)
(0.156077 0.01953 0)
(0.139395 0.0140784 0)
(0.126043 0.0104848 0)
(0.115291 0.00806524 0)
(0.106517 0.00638584 0)
(0.099253 0.00518165 0)
(0.0931552 0.00429084 0)
(0.0879726 0.003613 0)
(0.0835191 0.00308438 0)
(0.0796551 0.00266332 0)
(0.076274 0.0023219 0)
(0.0732938 0.00204078 0)
(0.07065 0.0018063 0)
(0.0682911 0.00160849 0)
(0.066176 0.00144 0)
(0.0642708 0.00129525 0)
(0.0625478 0.00116996 0)
(0.060984 0.00106078 0)
(0.0595599 0.000965084 0)
(0.0582592 0.00088076 0)
(0.0570679 0.000806102 0)
(0.0559739 0.000739719 0)
(0.0549671 0.000680464 0)
(0.0540383 0.000627387 0)
(0.0531797 0.000579691 0)
(0.0523845 0.000536707 0)
(0.0516467 0.000497866 0)
(0.0509609 0.000462682 0)
(0.0503223 0.000430741 0)
(0.0497267 0.000401682 0)
(0.0491704 0.000375195 0)
(0.04865 0.000351009 0)
(0.0481624 0.000328887 0)
(0.0477049 0.00030862 0)
(0.0472751 0.000290025 0)
(0.0468707 0.000272941 0)
(0.0464898 0.000257222 0)
(0.0461304 0.000242742 0)
(0.045791 0.000229385 0)
(0.04547 0.000217049 0)
(0.045166 0.000205642 0)
(0.0448778 0.000195083 0)
(0.0446042 0.000185296 0)
(0.0443443 0.000176215 0)
(0.0440969 0.000167778 0)
(0.0438613 0.000159931 0)
(0.0436367 0.000152625 0)
(0.0434223 0.000145813 0)
(0.0432174 0.000139455 0)
(0.0430214 0.000133513 0)
(0.0428337 0.000127953 0)
(0.0426539 0.000122744 0)
(0.0424813 0.000117857 0)
(0.0423157 0.000113266 0)
(0.0421565 0.000108948 0)
(0.0420034 0.00010488 0)
(0.0418561 0.000101043 0)
(0.0417142 9.74176e-05 0)
(0.0415774 9.3987e-05 0)
(0.0414455 9.07356e-05 0)
(0.0413182 8.76488e-05 0)
(0.0411953 8.47136e-05 0)
(0.0410766 8.19173e-05 0)
(0.0409618 7.92488e-05 0)
(0.0408508 7.66973e-05 0)
(0.0407435 7.42533e-05 0)
(0.0406396 7.19075e-05 0)
(0.0405391 6.96516e-05 0)
(0.0404418 6.74777e-05 0)
(0.0403476 6.53789e-05 0)
(0.0402564 6.33481e-05 0)
(0.0401681 6.13796e-05 0)
(0.0400826 5.94673e-05 0)
(0.0399998 5.76064e-05 0)
(0.0399197 5.57918e-05 0)
(0.0398422 5.40193e-05 0)
(0.0397671 5.22849e-05 0)
(0.0396946 5.05851e-05 0)
(0.0396245 4.89167e-05 0)
(0.0395567 4.72769e-05 0)
(0.0394913 4.56634e-05 0)
(0.0394282 4.40739e-05 0)
(0.0393673 4.25068e-05 0)
(0.0393086 4.09607e-05 0)
(0.0392521 3.94345e-05 0)
(0.0391978 3.79274e-05 0)
(0.0391456 3.64388e-05 0)
(0.0390955 3.49685e-05 0)
(0.0390474 3.35167e-05 0)
(0.0390014 3.20834e-05 0)
(0.0389574 3.06692e-05 0)
(0.0389154 2.92747e-05 0)
(0.0388753 2.7901e-05 0)
(0.0388371 2.65487e-05 0)
(0.0388008 2.52193e-05 0)
(0.0387664 2.39138e-05 0)
(0.0387337 2.26336e-05 0)
(0.0387029 2.138e-05 0)
(0.0386738 2.01545e-05 0)
(0.0386463 1.89585e-05 0)
(0.0386205 1.77934e-05 0)
(0.0385964 1.66604e-05 0)
(0.0385737 1.55611e-05 0)
(0.0385526 1.44965e-05 0)
(0.038533 1.34679e-05 0)
(0.0385147 1.24762e-05 0)
(0.0384978 1.15224e-05 0)
(0.0384822 1.06072e-05 0)
(0.0384679 9.73142e-06 0)
(0.0384548 8.89535e-06 0)
(0.0384428 8.09943e-06 0)
(0.0384318 7.34378e-06 0)
(0.0384219 6.62845e-06 0)
(0.038413 5.95326e-06 0)
(0.038405 5.31794e-06 0)
(0.0383978 4.72201e-06 0)
(0.0383915 4.16487e-06 0)
(0.0383859 3.64579e-06 0)
(0.038381 3.16388e-06 0)
(0.0383768 2.71817e-06 0)
(0.0383731 2.30754e-06 0)
(0.0383701 1.93081e-06 0)
(0.0383675 1.58667e-06 0)
(0.0383654 1.2738e-06 0)
(0.0383637 9.90721e-07 0)
(0.0383624 7.36042e-07 0)
(0.0383614 5.08172e-07 0)
(0.0383607 3.05669e-07 0)
(0.0383603 1.26893e-07 0)
(0.0383602 -2.96059e-08 0)
(0.0383603 -1.65459e-07 0)
(0.0383605 -2.82075e-07 0)
(0.0383609 -3.81038e-07 0)
(0.0383614 -4.63689e-07 0)
(0.0383621 -5.31532e-07 0)
(0.0383628 -5.85821e-07 0)
(0.0383636 -6.27951e-07 0)
(0.0383644 -6.59071e-07 0)
(0.0383653 -6.8045e-07 0)
(0.0383663 -6.93118e-07 0)
(0.0383672 -6.98205e-07 0)
(0.0383681 -6.96617e-07 0)
(0.0383691 -6.89336e-07 0)
(0.03837 -6.77146e-07 0)
(0.0383709 -6.6088e-07 0)
(0.0383718 -6.41202e-07 0)
(0.0383727 -6.18801e-07 0)
(0.0383735 -5.94228e-07 0)
(0.0383743 -5.68038e-07 0)
(0.0383751 -5.40678e-07 0)
(0.0383758 -5.12578e-07 0)
(0.0383765 -4.84096e-07 0)
(0.0383772 -4.55549e-07 0)
(0.0383778 -4.27215e-07 0)
(0.0383784 -3.99314e-07 0)
(0.0383789 -3.7206e-07 0)
(0.0383794 -3.45586e-07 0)
(0.0383799 -3.20053e-07 0)
(0.0383803 -2.95525e-07 0)
(0.0383807 -2.7212e-07 0)
(0.0383811 -2.49845e-07 0)
(0.0383814 -2.28783e-07 0)
(0.0383817 -2.08899e-07 0)
(0.038382 -1.90251e-07 0)
(0.0383822 -1.72771e-07 0)
(0.0383825 -1.56497e-07 0)
(0.0383827 -1.41338e-07 0)
(0.0383829 -1.27321e-07 0)
(0.038383 -1.14339e-07 0)
(0.0383832 -1.02412e-07 0)
(0.0383833 -9.14233e-08 0)
(0.0383835 -8.13889e-08 0)
(0.0383836 -7.21878e-08 0)
(0.0383837 -6.38356e-08 0)
(0.0383837 -5.62104e-08 0)
(0.0383838 -4.93295e-08 0)
(0.0383839 -4.30724e-08 0)
(0.0383839 -3.74594e-08 0)
(0.038384 -3.23739e-08 0)
(0.038384 -2.78397e-08 0)
(0.0383841 -2.37445e-08 0)
(0.0383841 -2.0117e-08 0)
(0.0383841 -1.68495e-08 0)
(0.0383841 -1.39756e-08 0)
(0.0383842 -1.13923e-08 0)
(0.0383842 -9.13848e-09 0)
(0.0383842 -7.11489e-09 0)
(0.0383842 -5.36658e-09 0)
(0.0383842 -3.797e-09 0)
(0.0383842 -2.45713e-09 0)
(0.0383842 -1.25284e-09 0)
(0.0383842 -2.41025e-10 0)
(0.0383842 6.71345e-10 0)
(0.0383842 1.4209e-09 0)
(0.0383842 2.10077e-09 0)
(0.0383842 2.64139e-09 0)
(0.0383842 3.13623e-09 0)
(0.0383842 3.50985e-09 0)
(0.0383842 3.85705e-09 0)
(0.0383842 4.09628e-09 0)
(0.0383842 4.32426e-09 0)
(0.0383842 4.45425e-09 0)
(0.0383842 4.58447e-09 0)
(0.0383842 4.62411e-09 0)
(0.0383842 4.67294e-09 0)
(0.0383842 4.63688e-09 0)
(0.0383842 4.61684e-09 0)
(0.0383842 4.51739e-09 0)
(0.0383842 4.43906e-09 0)
(0.0383842 4.2872e-09 0)
(0.0383842 4.16089e-09 0)
(0.0383842 3.96788e-09 0)
(0.0383842 3.80429e-09 0)
(0.0383841 3.5827e-09 0)
(0.0383841 3.39384e-09 0)
(0.0383841 3.15724e-09 0)
(0.0383841 2.95666e-09 0)
(0.0383841 2.71966e-09 0)
(0.0383841 2.52131e-09 0)
(0.0383841 2.29866e-09 0)
(0.0383841 2.11601e-09 0)
(0.0383841 1.92067e-09 0)
(0.0383841 1.7655e-09 0)
(0.0383841 1.60754e-09 0)
(0.0383841 1.488e-09 0)
(0.0383841 1.37352e-09 0)
(0.0383841 1.29343e-09 0)
(0.0383841 1.22341e-09 0)
(0.0383841 1.18209e-09 0)
(0.0383841 1.15275e-09 0)
(0.0383841 1.14493e-09 0)
(0.0383841 1.14889e-09 0)
(0.0383841 1.16617e-09 0)
(0.0383841 1.19346e-09 0)
(0.0383841 1.22646e-09 0)
(0.0383841 1.26683e-09 0)
(0.0383841 1.30614e-09 0)
(0.0383841 1.35096e-09 0)
(0.0383841 1.38936e-09 0)
(0.0383841 1.4325e-09 0)
(0.0383841 1.46609e-09 0)
(0.0383841 1.50484e-09 0)
(0.038384 1.53267e-09 0)
(0.038384 1.56765e-09 0)
(0.038384 1.5914e-09 0)
(0.038384 1.625e-09 0)
(0.038384 1.64795e-09 0)
(0.038384 1.68316e-09 0)
(0.038384 1.70807e-09 0)
(0.038384 1.74721e-09 0)
(0.038384 1.77532e-09 0)
(0.038384 1.81831e-09 0)
(0.038384 1.84867e-09 0)
(0.038384 1.89295e-09 0)
(0.038384 1.92178e-09 0)
(0.038384 1.96286e-09 0)
(0.038384 1.98466e-09 0)
(0.038384 2.01666e-09 0)
(0.038384 2.02567e-09 0)
(0.038384 2.04319e-09 0)
(0.038384 2.0345e-09 0)
(0.038384 2.03434e-09 0)
(0.038384 2.00558e-09 0)
(0.038384 1.98741e-09 0)
(0.038384 1.93991e-09 0)
(0.038384 1.90702e-09 0)
(0.038384 1.84533e-09 0)
(0.038384 1.80454e-09 0)
(0.038384 1.73614e-09 0)
(0.038384 1.69614e-09 0)
(0.038384 1.63027e-09 0)
(0.038384 1.60044e-09 0)
(0.038384 1.54596e-09 0)
(0.038384 1.53477e-09 0)
(0.038384 1.49893e-09 0)
(0.038384 1.51205e-09 0)
(0.038384 1.4994e-09 0)
(0.038384 1.53916e-09 0)
(0.038384 1.55051e-09 0)
(0.038384 1.61572e-09 0)
(0.038384 1.64851e-09 0)
(0.038384 1.73452e-09 0)
(0.038384 1.78358e-09 0)
(0.038384 1.8834e-09 0)
(0.038384 1.94146e-09 0)
(0.038384 2.04711e-09 0)
(0.038384 2.10628e-09 0)
(0.038384 2.20945e-09 0)
(0.038384 2.2625e-09 0)
(0.038384 2.35587e-09 0)
(0.038384 2.39647e-09 0)
(0.038384 2.47462e-09 0)
(0.038384 2.49821e-09 0)
(0.038384 2.55738e-09 0)
(0.038384 2.56152e-09 0)
(0.038384 2.59975e-09 0)
(0.038384 2.58421e-09 0)
(0.038384 2.60298e-09 0)
(0.038384 2.56743e-09 0)
(0.038384 2.56778e-09 0)
(0.038384 2.5165e-09 0)
(0.038384 2.50089e-09 0)
(0.038384 2.43608e-09 0)
(0.0383839 2.41028e-09 0)
(0.0383839 2.3352e-09 0)
(0.0383839 2.30242e-09 0)
(0.0383839 2.22297e-09 0)
(0.0383839 2.18693e-09 0)
(0.0383839 2.10591e-09 0)
(0.0383839 2.07245e-09 0)
(0.0383839 1.99268e-09 0)
(0.0383839 1.96408e-09 0)
(0.0383839 1.89012e-09 0)
(0.0383839 1.86831e-09 0)
(0.0383839 1.8009e-09 0)
(0.0383839 1.78937e-09 0)
(0.0383839 1.7289e-09 0)
(0.0383839 1.72735e-09 0)
(0.0383839 1.67592e-09 0)
(0.0383839 1.6839e-09 0)
(0.0383839 1.64017e-09 0)
(0.0383839 1.65929e-09 0)
(0.0383839 1.62222e-09 0)
(0.0383839 1.65108e-09 0)
(0.0383839 1.62216e-09 0)
(0.0383839 1.65998e-09 0)
(0.0383839 1.63806e-09 0)
(0.0383839 1.68686e-09 0)
(0.0383839 1.67166e-09 0)
(0.0383839 1.73079e-09 0)
(0.0383839 1.72477e-09 0)
(0.0383839 1.7942e-09 0)
(0.0383839 1.79701e-09 0)
(0.0383839 1.87911e-09 0)
(0.0383839 1.89071e-09 0)
(0.0383839 1.98456e-09 0)
(0.0383839 2.00692e-09 0)
(0.0383839 2.11147e-09 0)
(0.0383839 2.14308e-09 0)
(0.0383839 2.25908e-09 0)
(0.0383839 2.29822e-09 0)
(0.0383839 2.42284e-09 0)
(0.0383839 2.46973e-09 0)
(0.0383839 2.60012e-09 0)
(0.0383839 2.65153e-09 0)
(0.0383839 2.78705e-09 0)
(0.0383839 2.84049e-09 0)
(0.0383839 2.97763e-09 0)
(0.0383839 3.03279e-09 0)
(0.0383839 3.1689e-09 0)
(0.0383839 3.22312e-09 0)
(0.0383839 3.35835e-09 0)
(0.0383839 3.4101e-09 0)
(0.0383839 3.54226e-09 0)
(0.0383839 3.59287e-09 0)
(0.0383839 3.72082e-09 0)
(0.0383839 3.76913e-09 0)
(0.0383839 3.89456e-09 0)
(0.0383838 3.94011e-09 0)
(0.0383838 4.06193e-09 0)
(0.0383838 4.10661e-09 0)
(0.0383838 4.22404e-09 0)
(0.0383838 4.26639e-09 0)
(0.0383838 4.3805e-09 0)
(0.0383838 4.41882e-09 0)
(0.0383838 4.52669e-09 0)
(0.0383838 4.56044e-09 0)
(0.0383838 4.65845e-09 0)
(0.0383838 4.68278e-09 0)
(0.0383838 4.76863e-09 0)
(0.0383838 4.77813e-09 0)
(0.0383838 4.84547e-09 0)
(0.0383838 4.83601e-09 0)
(0.0383838 4.87881e-09 0)
(0.0383838 4.84367e-09 0)
(0.0383838 4.85904e-09 0)
(0.0383838 4.79307e-09 0)
(0.0383838 4.77726e-09 0)
(0.0383838 4.68045e-09 0)
(0.0383838 4.63349e-09 0)
(0.0383838 4.50652e-09 0)
(0.0383838 4.43501e-09 0)
(0.0383837 4.28348e-09 0)
(0.0383837 4.19547e-09 0)
(0.0383837 4.03155e-09 0)
(0.0383837 3.93922e-09 0)
(0.0383837 3.77514e-09 0)
(0.0383837 3.69504e-09 0)
(0.0383837 3.54461e-09 0)
(0.0383837 3.48995e-09 0)
(0.0383837 3.36796e-09 0)
(0.0383837 3.34945e-09 0)
(0.0383837 3.26373e-09 0)
(0.0383837 3.28926e-09 0)
(0.0383837 3.24221e-09 0)
(0.0383837 3.31004e-09 0)
(0.0383836 3.29966e-09 0)
(0.0383836 3.40162e-09 0)
(0.0383836 3.41662e-09 0)
(0.0383836 3.54143e-09 0)
(0.0383836 3.56651e-09 0)
(0.0383836 3.69675e-09 0)
(0.0383836 3.71734e-09 0)
(0.0383836 3.83598e-09 0)
(0.0383836 3.83599e-09 0)
(0.0383836 3.93151e-09 0)
(0.0383836 3.89957e-09 0)
(0.0383836 3.96296e-09 0)
(0.0383836 3.89626e-09 0)
(0.0383836 3.92555e-09 0)
(0.0383836 3.82499e-09 0)
(0.0383836 3.82706e-09 0)
(0.0383835 3.6998e-09 0)
(0.0383835 3.68344e-09 0)
(0.0383835 3.54286e-09 0)
(0.0383835 3.5197e-09 0)
(0.0383835 3.3774e-09 0)
(0.0383835 3.36114e-09 0)
(0.0383835 3.22768e-09 0)
(0.0383835 3.22623e-09 0)
(0.0383835 3.11085e-09 0)
(0.0383835 3.12794e-09 0)
(0.0383835 3.03202e-09 0)
(0.0383835 3.06854e-09 0)
(0.0383835 2.98869e-09 0)
(0.0383835 3.0376e-09 0)
(0.0383835 2.96842e-09 0)
(0.0383835 3.01931e-09 0)
(0.0383835 2.94948e-09 0)
(0.0383835 2.99235e-09 0)
(0.0383835 2.90974e-09 0)
(0.0383835 2.93143e-09 0)
(0.0383835 2.82693e-09 0)
(0.0383835 2.81622e-09 0)
(0.0383835 2.67984e-09 0)
(0.0383835 2.63074e-09 0)
(0.0383835 2.45598e-09 0)
(0.0383835 2.36308e-09 0)
(0.0383835 2.14944e-09 0)
(0.0383835 2.01154e-09 0)
(0.0383836 1.75915e-09 0)
(0.0383836 1.58108e-09 0)
(0.0383836 1.29373e-09 0)
(0.0383836 1.08036e-09 0)
(0.0383836 7.66891e-10 0)
(0.0383836 5.25854e-10 0)
(0.0383836 1.93919e-10 0)
(0.0383836 -6.32801e-11 0)
(0.0383836 -4.04572e-10 0)
(0.0383836 -6.68769e-10 0)
(0.0383836 -1.00768e-09 0)
(0.0383836 -1.26941e-09 0)
(0.0383836 -1.59761e-09 0)
(0.0383836 -1.84576e-09 0)
(0.0383836 -2.15553e-09 0)
(0.0383837 -2.3832e-09 0)
(0.0383837 -2.66589e-09 0)
(0.0383837 -2.86744e-09 0)
(0.0383837 -3.11919e-09 0)
(0.0383837 -3.28856e-09 0)
(0.0383837 -3.50722e-09 0)
(0.0383837 -3.6435e-09 0)
(0.0383837 -3.82679e-09 0)
(0.0383837 -3.93086e-09 0)
(0.0383837 -4.08167e-09 0)
(0.0383837 -4.15401e-09 0)
(0.0383837 -4.27666e-09 0)
(0.0383837 -4.3222e-09 0)
(0.0383837 -4.41979e-09 0)
(0.0383838 -4.44356e-09 0)
(0.0383838 -4.52226e-09 0)
(0.0383838 -4.52625e-09 0)
(0.0383838 -4.5904e-09 0)
(0.0383838 -4.57734e-09 0)
(0.0383838 -4.62629e-09 0)
(0.0383838 -4.59498e-09 0)
(0.0383838 -4.627e-09 0)
(0.0383838 -4.56979e-09 0)
(0.0383838 -4.57833e-09 0)
(0.0383838 -4.4859e-09 0)
(0.0383838 -4.4579e-09 0)
(0.0383838 -4.31706e-09 0)
(0.0383838 -4.23889e-09 0)
(0.0383838 -4.03215e-09 0)
(0.0383838 -3.88886e-09 0)
(0.0383838 -3.60193e-09 0)
(0.0383838 -3.37754e-09 0)
(0.0383838 -2.99874e-09 0)
(0.0383838 -2.68433e-09 0)
(0.0383838 -2.20507e-09 0)
(0.0383838 -1.79712e-09 0)
(0.0383838 -1.21879e-09 0)
(0.0383837 -7.18869e-10 0)
(0.0383837 -5.05671e-11 0)
(0.0383837 5.2916e-10 0)
(0.0383837 1.27295e-09 0)
(0.0383837 1.91364e-09 0)
(0.0383837 2.70882e-09 0)
(0.0383837 3.38876e-09 0)
(0.0383837 4.20829e-09 0)
(0.0383837 4.89944e-09 0)
(0.0383837 5.71678e-09 0)
(0.0383837 6.39193e-09 0)
(0.0383837 7.17798e-09 0)
(0.0383837 7.81367e-09 0)
(0.0383837 8.5431e-09 0)
(0.0383836 9.11644e-09 0)
(0.0383836 9.7707e-09 0)
(0.0383836 1.02641e-08 0)
(0.0383836 1.0827e-08 0)
(0.0383836 1.12307e-08 0)
(0.0383836 1.16924e-08 0)
(0.0383836 1.19989e-08 0)
(0.0383836 1.2357e-08 0)
(0.0383836 1.25643e-08 0)
(0.0383836 1.28182e-08 0)
(0.0383835 1.29306e-08 0)
(0.0383835 1.30839e-08 0)
(0.0383835 1.31059e-08 0)
(0.0383835 1.31674e-08 0)
(0.0383835 1.31062e-08 0)
(0.0383835 1.30834e-08 0)
(0.0383835 1.29499e-08 0)