/*--------------------------------*- C++ -*----------------------------------*\
  =========                 |
  \\      /  F ield         | OpenFOAM: The Open Source CFD Toolbox
   \\    /   O peration     | Website:  https://openfoam.org
    \\  /    A nd           | Version:  7
     \\/     M anipulation  |
\*---------------------------------------------------------------------------*/
FoamFile
{
    version     2.0;
    format      ascii;
    class       volScalarField;
    location    "82";
    object      k;
}
// * * * * * * * * * * * * * * * * * * * * * * * * * * * * * * * * * * * * * //

dimensions      [0 2 -2 0 0 0 0];

internalField   nonuniform List<scalar> 
12842
(
0.00569073
0.0050802
0.00473329
0.00449007
0.00432052
0.00418241
0.0040993
0.00402493
0.00399624
0.00396368
0.00396635
0.00398375
0.00402821
0.00409409
0.00416556
0.00421743
0.0042663
0.00430015
0.00433132
0.00435076
0.00436725
0.00437683
0.00437726
0.00565295
0.00504792
0.00466087
0.00443316
0.00430041
0.00417541
0.00409532
0.00402137
0.00399178
0.00396052
0.00396401
0.00398379
0.00403236
0.00409968
0.00416788
0.00421548
0.00427197
0.00430176
0.00433077
0.00435117
0.00436487
0.00437173
0.00438259
0.00560597
0.00498911
0.0046326
0.00439663
0.00424876
0.00413941
0.00406934
0.00400257
0.00397582
0.0039515
0.00395925
0.00398529
0.0040438
0.00411588
0.00418073
0.00421972
0.00427475
0.00430453
0.00433112
0.00434618
0.00436248
0.00436693
0.00437582
0.00554963
0.00491765
0.00455095
0.00434045
0.00422256
0.00412241
0.00405672
0.00399362
0.00396851
0.00394718
0.00395653
0.00398766
0.00405777
0.00413284
0.00419669
0.00423359
0.00428606
0.00431478
0.00433239
0.00435108
0.0043619
0.0043737
0.0043768
0.00549018
0.00485786
0.0045103
0.00429722
0.00417368
0.00408355
0.00402673
0.00397223
0.00395288
0.00393943
0.0039526
0.00398949
0.0040683
0.0041477
0.00421027
0.00424437
0.00429335
0.00432363
0.00433989
0.00434969
0.00436119
0.00437339
0.00437355
0.00542802
0.00477533
0.00444417
0.00425346
0.00414534
0.00406606
0.0040132
0.00396264
0.00394387
0.00393458
0.00395048
0.00399415
0.00408871
0.00416349
0.00422336
0.00425708
0.00430619
0.00433178
0.00434564
0.00435294
0.00436535
0.00437421
0.00437847
0.00536741
0.00472035
0.00439339
0.00421347
0.0041097
0.00403279
0.00398579
0.00394344
0.00393085
0.00392793
0.00394702
0.00399742
0.00410207
0.00418186
0.00423728
0.00426705
0.00431505
0.00434116
0.00435252
0.00435969
0.0043677
0.00437179
0.00437881
0.00530766
0.00465036
0.00434274
0.00417771
0.00408095
0.00401582
0.00397413
0.00393429
0.0039223
0.00392367
0.00394581
0.00399971
0.00411964
0.00419521
0.00424852
0.00427823
0.00432085
0.00435069
0.00435707
0.00436418
0.00437198
0.00437464
0.00437806
0.00524665
0.00460404
0.00429861
0.00414676
0.00405721
0.00399392
0.00395347
0.00392124
0.00391354
0.00391826
0.00394604
0.00400599
0.00413578
0.00420885
0.00425828
0.00428441
0.00433409
0.00435873
0.00436198
0.004368
0.00437507
0.00437692
0.00438002
0.00518044
0.00453861
0.00425339
0.00411825
0.0040335
0.00397844
0.00394423
0.00391376
0.0039079
0.00391465
0.00394524
0.0040108
0.00414904
0.00421789
0.004264
0.00428855
0.00434168
0.0043649
0.00436711
0.00437208
0.0043784
0.00438113
0.00438474
0.00511317
0.0044949
0.00421808
0.00409174
0.00401443
0.00396404
0.00392997
0.003906
0.0039022
0.00391016
0.00394472
0.00401466
0.00416596
0.0042267
0.00427071
0.0042914
0.00434344
0.0043823
0.00437324
0.00438166
0.00438639
0.00438694
0.00438991
0.00504606
0.0044387
0.00417751
0.004068
0.00399353
0.00394966
0.00392119
0.0039
0.00389749
0.00390693
0.00394537
0.00401991
0.00417847
0.00423581
0.00427525
0.00429564
0.00435974
0.00439074
0.00437762
0.00438763
0.00439553
0.00440004
0.00440479
0.00498122
0.00439996
0.0041501
0.00404325
0.0039764
0.00393827
0.00391093
0.00389424
0.00389273
0.0039031
0.00394764
0.00402604
0.00419345
0.00424219
0.00428053
0.00429923
0.00436327
0.00440498
0.0043988
0.00439813
0.0044065
0.00441208
0.00441693
0.00491738
0.00435274
0.00411667
0.00402435
0.00395846
0.00392637
0.00390221
0.00389034
0.0038886
0.0039
0.00394988
0.0040306
0.0042102
0.00425064
0.0042859
0.00430571
0.00436805
0.00441802
0.00440722
0.00441015
0.00441662
0.00443437
0.00445249
0.00485753
0.00431935
0.00409401
0.0040011
0.003944
0.00391662
0.00389535
0.00388505
0.00388413
0.00389697
0.0039515
0.00404057
0.00422279
0.00425578
0.00429008
0.00431093
0.004373
0.00442783
0.0044116
0.00442231
0.00444839
0.00446968
0.0044786
0.00479986
0.00428071
0.0040686
0.0039855
0.00392906
0.0039067
0.00388709
0.00388237
0.00388022
0.00389399
0.00395271
0.00404834
0.00424025
0.00426498
0.00429979
0.00432362
0.0043885
0.00445188
0.00442286
0.00443677
0.00446903
0.00449466
0.00454067
0.00475182
0.00425198
0.0040485
0.00396516
0.00391724
0.00389836
0.00388185
0.00387722
0.00387604
0.00389154
0.00396013
0.00405875
0.00425684
0.00427148
0.00430752
0.00433664
0.00438984
0.00445834
0.004456
0.004484
0.00452865
0.00457243
0.00461152
0.00470771
0.0042215
0.00402878
0.00395056
0.00390514
0.00388925
0.00387472
0.00387431
0.00387222
0.00389097
0.00396153
0.00407262
0.00426797
0.00428458
0.00432378
0.00435168
0.00441181
0.00446421
0.00448354
0.00451529
0.00457358
0.0046185
0.0046857
0.00466957
0.00419601
0.00401099
0.00393436
0.00389564
0.00388173
0.00386975
0.00386915
0.00386858
0.00388943
0.0039609
0.00408819
0.00428302
0.00429504
0.00433687
0.00438382
0.00443011
0.00448109
0.0045469
0.0045989
0.0046693
0.00475542
0.00487016
0.00463559
0.00417329
0.00399385
0.00392028
0.0038855
0.00387341
0.00386336
0.00386516
0.00386517
0.00389027
0.00396027
0.0041001
0.00430179
0.00431815
0.00436754
0.00440983
0.00448505
0.004542
0.00461508
0.00466451
0.0047854
0.00487697
0.00498355
0.00460484
0.00414972
0.00397855
0.00390768
0.00387742
0.00386575
0.00385842
0.00385991
0.00386225
0.00389002
0.00396224
0.00411613
0.00431598
0.00433547
0.00439032
0.00445609
0.00451875
0.00458378
0.00470123
0.00480631
0.00492162
0.005089
0.00531929
0.00457782
0.00413305
0.00396239
0.00389503
0.00386858
0.00385822
0.00385181
0.00385533
0.00385943
0.00389048
0.00397166
0.00414947
0.00433198
0.00437851
0.00444591
0.00452504
0.00461417
0.00470341
0.00484203
0.004937
0.00516859
0.005434
0.00556669
0.00455332
0.00411176
0.00394904
0.00388475
0.00386044
0.00385038
0.00384668
0.0038499
0.00385731
0.0038906
0.00398551
0.00416024
0.00433851
0.00440781
0.00449182
0.00458441
0.00467334
0.00477326
0.00494956
0.0051725
0.00541668
0.00562809
0.00590015
0.00453436
0.00410069
0.00393784
0.00387695
0.00385462
0.00384476
0.00384117
0.0038459
0.00385591
0.00389035
0.00398821
0.00417316
0.00436133
0.00448322
0.00457701
0.00470725
0.00482041
0.00495655
0.00516754
0.00535231
0.00566651
0.00614243
0.00645823
0.00451948
0.00408891
0.00393038
0.00387291
0.00385024
0.00384038
0.00383768
0.00384272
0.00385481
0.00389305
0.00398685
0.00418281
0.00440394
0.00453275
0.00468134
0.00479955
0.00491956
0.00505471
0.00530629
0.00568948
0.0062251
0.00659842
0.00681685
0.00450529
0.00408005
0.00392403
0.00386859
0.00384616
0.00383678
0.00383362
0.00384017
0.00385402
0.00389355
0.00399343
0.00421835
0.00446359
0.00464324
0.00476851
0.00495161
0.00512559
0.00531149
0.00564323
0.00609812
0.00654568
0.00697373
0.00736427
0.0044921
0.00406953
0.00391767
0.00386549
0.00384112
0.00383244
0.00382989
0.00383718
0.00385291
0.003894
0.00400724
0.00425882
0.00454648
0.00472162
0.00493306
0.00509319
0.00526696
0.0054812
0.005876
0.00644927
0.00701309
0.00822047
0.0120427
0.00447846
0.0040596
0.00391282
0.00386136
0.00383669
0.00382855
0.00382583
0.00383461
0.00385159
0.00389852
0.00403829
0.0043343
0.00463531
0.00486609
0.00503699
0.00526486
0.0055271
0.00584246
0.00631825
0.00706342
0.00950482
0.0208946
0.0699239
0.00446646
0.00404932
0.00390742
0.00385838
0.00383143
0.00382407
0.00382121
0.0038327
0.00385132
0.00391235
0.00408476
0.00440548
0.00475595
0.00498561
0.00523923
0.00545955
0.00572375
0.00609732
0.00674277
0.0093868
0.025207
0.125119
0.319033
0.00445374
0.00403954
0.00390427
0.00385431
0.00382662
0.00382053
0.00381767
0.00382963
0.00385208
0.0039409
0.00414063
0.00450995
0.00487568
0.00514663
0.00537185
0.00563599
0.00600418
0.00658956
0.00865536
0.0219861
0.0866552
0.215754
0.425338
0.0044423
0.00402876
0.00389975
0.00385111
0.0038211
0.00381546
0.00381346
0.0038263
0.00386002
0.00397733
0.00421715
0.00461246
0.00502329
0.00530964
0.00559227
0.00588262
0.00630039
0.00723551
0.0115783
0.0361951
0.0888166
0.201645
0.38249
0.0044308
0.00401901
0.0038975
0.0038465
0.00381661
0.00381175
0.00380891
0.0038271
0.00387567
0.00402823
0.0042968
0.00474472
0.00517671
0.00548053
0.00575327
0.00604793
0.00653278
0.00767166
0.0121492
0.0316595
0.0776019
0.168663
0.319559
0.00441949
0.00400834
0.00389373
0.00384281
0.00381059
0.00380779
0.00380532
0.00383615
0.00390406
0.00408445
0.00439874
0.00487736
0.00534028
0.00567694
0.00597658
0.0063239
0.00687502
0.00819165
0.0143756
0.0281923
0.0605175
0.128812
0.236375
0.00440943
0.00399751
0.00389186
0.00383836
0.0038059
0.00380335
0.00381113
0.00385782
0.00393867
0.00415863
0.0045018
0.00503166
0.00552307
0.00586062
0.0061676
0.0064981
0.00705319
0.00841784
0.0141678
0.0240589
0.0456891
0.0940982
0.180266
0.00439803
0.00398794
0.00388816
0.00383272
0.003801
0.00379812
0.00382926
0.0038878
0.00398723
0.00423264
0.00462185
0.00518916
0.00569561
0.00606646
0.00637672
0.00674678
0.00737596
0.00871284
0.0140001
0.0212432
0.0356666
0.0770637
0.182143
0.00438883
0.00397502
0.00388616
0.00382834
0.0037959
0.00379981
0.00386147
0.00392947
0.00404526
0.00432834
0.00474833
0.00536003
0.0058948
0.00626538
0.0065838
0.00695433
0.00752363
0.00882003
0.0135919
0.0204062
0.0372746
0.0678428
0.160365
0.00437812
0.0039671
0.00388185
0.00382349
0.00378982
0.00381238
0.00390205
0.00398058
0.0041156
0.00441798
0.00487826
0.0055299
0.0060707
0.0064667
0.00679819
0.00716956
0.00780925
0.00899829
0.0132309
0.018346
0.0335282
0.079429
0.158242
0.00436896
0.00395254
0.00387936
0.00381632
0.00379095
0.00384033
0.00395465
0.00404477
0.00419641
0.00453095
0.00502494
0.0057133
0.00627358
0.00666894
0.00697913
0.00736158
0.00794939
0.00903778
0.0118339
0.0172467
0.0337398
0.0779897
0.201935
0.00435849
0.00394474
0.00387395
0.00381033
0.00380154
0.00387704
0.0040162
0.004117
0.00428577
0.00463368
0.00515776
0.00587943
0.00644204
0.00686056
0.00721458
0.00761363
0.00819027
0.00912703
0.0124454
0.0192671
0.0381166
0.0832952
0.222999
0.00434985
0.00393109
0.00387123
0.00381668
0.00382838
0.00392618
0.00408728
0.00420062
0.00438418
0.00475798
0.00531626
0.00607024
0.00664578
0.00706366
0.00738422
0.00775068
0.00837739
0.00933249
0.011609
0.0195276
0.0377392
0.0831867
0.24494
0.00433927
0.00392317
0.00386569
0.00383197
0.00386302
0.0039844
0.00416585
0.00428935
0.00448724
0.00486933
0.00544694
0.00622147
0.00679201
0.00722805
0.00758902
0.00803955
0.00860107
0.00949837
0.0116229
0.0194872
0.0406854
0.102511
0.241773
0.00433026
0.00391037
0.00385975
0.00386224
0.00391034
0.00405411
0.00424995
0.0043859
0.00459603
0.00499801
0.00560635
0.00641011
0.00699805
0.00744993
0.00782028
0.00820069
0.00889196
0.00983513
0.0116752
0.0188917
0.0408136
0.103307
0.264621
0.0043193
0.0039046
0.00386333
0.00389693
0.00396603
0.0041307
0.00433937
0.00448428
0.0047058
0.00511156
0.00573081
0.0065432
0.00711809
0.00757357
0.00796131
0.00852704
0.00924765
0.0103272
0.0119901
0.0174221
0.035532
0.0883163
0.226363
0.00431102
0.00389614
0.00387985
0.00394609
0.00403325
0.00421596
0.00443046
0.00458668
0.00481776
0.00523766
0.00588175
0.00671915
0.00731876
0.00781414
0.00826537
0.00873089
0.00958736
0.0107444
0.0125365
0.017839
0.0348665
0.0922625
0.274482
0.0042984
0.00388934
0.00390563
0.00399988
0.00410703
0.00430429
0.00452455
0.00468734
0.00492652
0.00534644
0.0059963
0.00683464
0.00742346
0.0079345
0.0084355
0.00926766
0.0106044
0.012054
0.0146562
0.0202019
0.0375695
0.097988
0.269178
0.00428991
0.00389644
0.00394052
0.00406714
0.00418933
0.00439802
0.00461737
0.00478912
0.00503519
0.00546412
0.00613296
0.00699217
0.00761282
0.00817479
0.0088115
0.00972886
0.0111735
0.0138478
0.0164451
0.0220857
0.0431893
0.125924
0.258987
0.00428035
0.0039179
0.00398299
0.00413717
0.0042754
0.00449102
0.00471095
0.00488574
0.00513656
0.00556276
0.00623481
0.00709076
0.0077101
0.00831179
0.00907511
0.0105607
0.0132117
0.0155885
0.0189249
0.0256398
0.0453326
0.123935
0.207228
0.0042706
0.00395149
0.00403478
0.00421866
0.00436653
0.00458686
0.00480152
0.00498181
0.00523676
0.00566797
0.00635552
0.00723081
0.00789624
0.0086136
0.00975016
0.0120119
0.0146078
0.0191005
0.0235259
0.0306756
0.0470263
0.119056
0.232668
0.0042585
0.00399241
0.00409564
0.0043028
0.00446174
0.0046822
0.00489419
0.00507377
0.00533034
0.00575685
0.00644507
0.00730865
0.00799873
0.00880866
0.0103132
0.0133302
0.017941
0.0228351
0.0267775
0.0352213
0.0503794
0.0993354
0.167282
0.00425943
0.00404854
0.00416812
0.00439867
0.00456251
0.00478134
0.0049855
0.00516585
0.00542328
0.00584973
0.00654861
0.00742301
0.00818369
0.00925085
0.0116173
0.0161412
0.0206428
0.0255327
0.0306773
0.0418505
0.0664375
0.108198
0.166805
0.00427473
0.00411108
0.0042459
0.00449263
0.00466037
0.00487355
0.00507251
0.00524884
0.00550421
0.00592372
0.00661976
0.00747729
0.00828876
0.00956243
0.0127985
0.0185862
0.0249247
0.0308252
0.0391384
0.0569284
0.0843834
0.129704
0.207747
0.0043039
0.00418353
0.00432826
0.00458743
0.00475521
0.00496159
0.00515201
0.0053245
0.00557773
0.0059938
0.00669517
0.00755646
0.00847645
0.0102606
0.0149885
0.0222431
0.0288786
0.0346957
0.0422943
0.0620299
0.0935223
0.165418
0.249097
0.00433919
0.00425995
0.00441176
0.00467851
0.00484449
0.00504166
0.00522564
0.00539208
0.00564079
0.00604922
0.00674748
0.0075969
0.00860417
0.0108764
0.0170183
0.0255831
0.0324693
0.0403309
0.0537402
0.0863262
0.143092
0.215674
0.286357
0.0043812
0.00434236
0.00449726
0.00476737
0.0049294
0.00511705
0.00529235
0.00545263
0.00569735
0.00610193
0.0068043
0.00765894
0.00883584
0.011907
0.0199639
0.0294271
0.0371854
0.044193
0.0647269
0.114646
0.186977
0.251659
0.313503
0.00442862
0.00442703
0.00458131
0.004851
0.00500773
0.00518457
0.00535227
0.00550625
0.00574529
0.00614358
0.0068462
0.00769982
0.00903132
0.0129783
0.0225787
0.0329991
0.0399707
0.0520179
0.0860389
0.140008
0.218421
0.276149
0.353397
0.00448239
0.00451325
0.0046647
0.00493088
0.00508098
0.00524765
0.00540646
0.00555449
0.00578841
0.00618356
0.00689154
0.00775979
0.00933834
0.0144421
0.0258334
0.0365162
0.0449233
0.0646859
0.120715
0.191558
0.250535
0.334569
0.433228
0.00453716
0.00459424
0.00473965
0.0049993
0.00514229
0.00529887
0.0054496
0.00559307
0.00582139
0.00621305
0.00692578
0.00781181
0.00963182
0.0157391
0.0284517
0.0392899
0.048286
0.0752164
0.13549
0.215194
0.301917
0.401567
0.508579
0.00459255
0.00466954
0.00480931
0.00506135
0.0051973
0.00534558
0.00548791
0.00562773
0.00585077
0.00624008
0.00695927
0.00787443
0.00997332
0.0171032
0.0309913
0.0419445
0.0522266
0.081795
0.143355
0.22426
0.361191
0.467819
0.570151
0.00465049
0.00474401
0.00487591
0.0051192
0.00524774
0.00538783
0.00552215
0.00565941
0.00587706
0.00626497
0.00699245
0.00794636
0.0103414
0.0184933
0.0334491
0.0440417
0.055128
0.0826847
0.142525
0.235644
0.385271
0.492408
0.603814
0.00471014
0.00481514
0.00494028
0.00517295
0.00529398
0.00542686
0.00555275
0.0056885
0.0059009
0.00628837
0.00702525
0.00802528
0.0107398
0.0198759
0.0355144
0.0460591
0.0573063
0.0834539
0.142243
0.233339
0.396362
0.498129
0.608936
0.00477068
0.00488298
0.00499913
0.00522209
0.005335
0.0054617
0.00558008
0.00571465
0.0059222
0.0063101
0.00705729
0.00810875
0.0111364
0.0211329
0.037413
0.0475718
0.058669
0.0841199
0.141977
0.236764
0.40145
0.495642
0.600564
0.00483006
0.00494608
0.00505601
0.00526709
0.00537276
0.00549336
0.00560428
0.00573889
0.00594151
0.00633085
0.0070885
0.00819461
0.0115369
0.0223754
0.0388595
0.0487392
0.0594716
0.084592
0.141069
0.23199
0.396375
0.47174
0.56088
0.00488849
0.00500476
0.00510583
0.0053074
0.00540475
0.00552123
0.00562592
0.00576009
0.00595897
0.00635035
0.00711903
0.00827999
0.0119158
0.0233903
0.0400428
0.0497604
0.0597628
0.0827109
0.131894
0.220064
0.387243
0.434071
0.4835
0.00494451
0.00505717
0.00515421
0.00534449
0.005435
0.00554633
0.00564526
0.00577991
0.0059745
0.00636921
0.00714764
0.00836433
0.0122783
0.0242782
0.0409645
0.0502934
0.0600821
0.0789183
0.119093
0.193584
0.350802
0.376327
0.437099
0.00499689
0.00510731
0.00519573
0.00537664
0.00545969
0.00556841
0.00566257
0.00579678
0.00598894
0.00638726
0.00717606
0.00844522
0.0125969
0.0250719
0.0413284
0.0506129
0.0601677
0.0745048
0.105617
0.164885
0.298594
0.326873
0.356821
0.0050482
0.00514852
0.00523664
0.00540747
0.0054837
0.00558812
0.00567843
0.00581267
0.00600155
0.00640488
0.00720208
0.00852231
0.0128673
0.0254923
0.0415024
0.0507921
0.0596835
0.0698475
0.0926598
0.13718
0.251345
0.265085
0.2765
0.0050937
0.00519232
0.00527177
0.00543353
0.00550411
0.00560638
0.00569286
0.00582591
0.00601351
0.00642212
0.00722769
0.00859224
0.0131011
0.0257728
0.041541
0.0507798
0.0586714
0.065364
0.0811727
0.112883
0.202385
0.185677
0.194966
0.00513899
0.0052252
0.00530741
0.00545924
0.00552307
0.00562201
0.00570644
0.00583861
0.00602405
0.00643907
0.00725162
0.00865332
0.0132615
0.0258066
0.0415454
0.0502543
0.0569842
0.0609372
0.0710641
0.0928218
0.157828
0.136845
0.118901
0.00517941
0.00526313
0.00533839
0.00548201
0.00554183
0.00563817
0.00571897
0.00584878
0.00603408
0.00645577
0.00727385
0.00870376
0.0133255
0.025785
0.0411836
0.0487706
0.0550874
0.0566318
0.062457
0.0766863
0.120987
0.103012
0.0794991
0.00521856
0.00529297
0.00537073
0.00550366
0.00555805
0.00565134
0.00573122
0.00585923
0.00604298
0.00647239
0.00729493
0.00874164
0.0133505
0.025447
0.0401101
0.0466257
0.0522973
0.0521106
0.0551345
0.0639941
0.0921219
0.0783835
0.0558083
0.00525486
0.00532502
0.00539939
0.00552498
0.00557538
0.00566623
0.00574277
0.00586683
0.00605179
0.00648853
0.00731471
0.00877697
0.0132869
0.0246382
0.0384252
0.0439272
0.0490745
0.0473655
0.0487432
0.0540657
0.0714536
0.0604174
0.0460092
0.00528958
0.00535461
0.00542978
0.00554393
0.00559194
0.00567874
0.00575362
0.00587564
0.00605926
0.00650436
0.00733098
0.0087824
0.013072
0.0235696
0.0363932
0.0407488
0.0452556
0.0423016
0.0430309
0.0468275
0.0560154
0.0481213
0.0410499
0.00532283
0.00538274
0.00545693
0.00556424
0.00560789
0.00569209
0.00576519
0.00588188
0.00606721
0.00651948
0.00734361
0.00876347
0.0127664
0.0222554
0.0339133
0.0372798
0.0412558
0.0378769
0.0377722
0.041395
0.0452503
0.0385792
0.0369492
0.0053528
0.00541232
0.00548578
0.00558314
0.00562471
0.0057057
0.00577535
0.00588855
0.00607373
0.00653351
0.00735735
0.00872068
0.0123775
0.0208092
0.0312726
0.0337337
0.0371792
0.0337361
0.0331831
0.0355607
0.0388554
0.0365267
0.032954
0.00538665
0.0054386
0.00551284
0.00560023
0.00564235
0.00571778
0.00578499
0.00589421
0.00607986
0.00654604
0.00736953
0.00866379
0.0119482
0.0192599
0.028444
0.0301758
0.0330159
0.0299918
0.029564
0.031463
0.0330205
0.0356485
0.0342827
0.00540909
0.00546524
0.00553781
0.00562146
0.00565661
0.00573065
0.00579752
0.0059009
0.00608593
0.00655651
0.00736732
0.008592
0.011469
0.0177271
0.0257098
0.0269612
0.02933
0.0265595
0.02665
0.0282004
0.0297034
0.034622
0.0327305
0.00544723
0.00549543
0.00556681
0.00563827
0.00567769
0.00574585
0.00580476
0.00590319
0.00609009
0.00656456
0.00735727
0.00851075
0.0109997
0.0162202
0.0230217
0.0239362
0.0258197
0.0241836
0.0241101
0.0257911
0.0287982
0.034132
0.0321564
0.00546192
0.00551598
0.00558899
0.00565319
0.0056903
0.00575468
0.00581558
0.00590495
0.00609271
0.0065707
0.00734121
0.00841827
0.0105244
0.014877
0.0206426
0.0212783
0.022804
0.0215779
0.0226431
0.025595
0.0284024
0.0334306
0.0336854
0.00549283
0.00554093
0.00561286
0.00567728
0.00570882
0.00576955
0.00582752
0.00590749
0.00609426
0.00657517
0.0073201
0.00832633
0.0100971
0.0135926
0.0184514
0.0192397
0.0206029
0.0200908
0.0218677
0.0255505
0.0282567
0.0323559
0.0336235
0.00552107
0.00557153
0.00563686
0.00568624
0.00572581
0.00578186
0.00582781
0.00590645
0.00609397
0.00657677
0.0072944
0.00822002
0.00967135
0.0125639
0.0166596
0.0172378
0.0184552
0.0186576
0.0212921
0.0253405
0.0281718
0.0316667
0.0334237
0.00551929
0.00557737
0.00565953
0.00569098
0.00573462
0.00578888
0.005829
0.00590764
0.00609458
0.00657536
0.00726533
0.00813144
0.00934663
0.0116627
0.0151568
0.0160924
0.0171565
0.0187016
0.0210025
0.0255029
0.0287812
0.0322611
0.0353309
0.00552997
0.00558289
0.00566027
0.00569566
0.00574304
0.005794
0.00583073
0.0059072
0.00609386
0.00657099
0.00723438
0.00802357
0.00903269
0.0109647
0.0140755
0.0155241
0.0165032
0.0183609
0.0211495
0.0268356
0.0304035
0.0335982
0.0392605
0.00552454
0.00558874
0.00566273
0.00570402
0.00575
0.00579686
0.00583081
0.00590806
0.00609397
0.00656493
0.00719944
0.00794717
0.00873381
0.010374
0.0130768
0.0151924
0.0159923
0.0182426
0.0207781
0.0276243
0.0341199
0.0402926
0.0451643
0.00552456
0.00558581
0.00567032
0.0057125
0.00574813
0.00580072
0.00583502
0.0059081
0.00609379
0.00655745
0.00716563
0.00783847
0.0087048
0.010068
0.0126347
0.0148679
0.0161393
0.0181387
0.0211322
0.0285452
0.0359452
0.0445812
0.0553365
0.00552411
0.00559112
0.00566873
0.00570976
0.00575228
0.00579673
0.00584101
0.00591237
0.00609372
0.00654886
0.00716014
0.00780015
0.00866884
0.00992241
0.0124292
0.0144793
0.0161566
0.0181333
0.0213594
0.0324891
0.0392189
0.0525679
0.0724103
0.00552383
0.00558478
0.00566887
0.00570908
0.00575395
0.0057953
0.00583867
0.00591036
0.00609379
0.00653987
0.00715228
0.0077803
0.00861535
0.009818
0.0124252
0.0146081
0.0160971
0.0178942
0.0236074
0.0346182
0.0459995
0.0632522
0.0871518
0.00552299
0.0055918
0.00567538
0.00570908
0.00575257
0.00579475
0.00583795
0.00591136
0.00609392
0.00653039
0.00712577
0.00774991
0.00860928
0.00984526
0.0123936
0.0144063
0.016152
0.0179434
0.0257953
0.0421362
0.0497259
0.0677745
0.100563
0.00552219
0.00558552
0.00567413
0.00571137
0.00575426
0.00579402
0.00583756
0.00591151
0.00609336
0.00652265
0.00710576
0.00775017
0.00860357
0.00975589
0.0123707
0.0142797
0.0161219
0.0181808
0.0300041
0.045437
0.0565341
0.0868092
0.118161
0.00552849
0.00558758
0.00567878
0.00571008
0.00574835
0.00579338
0.00583721
0.0059095
0.0060922
0.00651086
0.00710828
0.00774935
0.00857988
0.00981639
0.0123195
0.0145086
0.0158073
0.018112
0.0326337
0.0514132
0.0703884
0.113809
0.15307
0.00551965
0.00558711
0.0056809
0.00570855
0.00574717
0.00579365
0.00583741
0.00590997
0.0060911
0.00651032
0.00710689
0.00775149
0.00850931
0.00974685
0.0122825
0.0142506
0.0153886
0.0181697
0.0357486
0.0571013
0.0832413
0.126078
0.183612
0.00552586
0.0055872
0.00567255
0.0057063
0.00574966
0.00579157
0.00583619
0.00590605
0.00608804
0.0065081
0.00710257
0.0077192
0.00844824
0.0097981
0.0122512
0.0143714
0.0155912
0.0180872
0.0378594
0.0669361
0.0983508
0.158682
0.215979
0.0055154
0.00558683
0.00567157
0.00570419
0.00574966
0.00578769
0.00583533
0.00590491
0.00608603
0.00650366
0.00708976
0.00773198
0.00848965
0.00977636
0.012135
0.0141759
0.0156099
0.0183292
0.0410094
0.0717664
0.117929
0.16802
0.22203
0.0055138
0.00558639
0.00566972
0.00570323
0.00574815
0.00578578
0.00583413
0.00590323
0.00608237
0.00649655
0.00710117
0.00769059
0.00850768
0.0097686
0.012071
0.0143044
0.015561
0.01967
0.0409941
0.0741147
0.124852
0.171842
0.232398
0.00550862
0.00558781
0.0056711
0.00569427
0.0057447
0.00578873
0.0058321
0.00590253
0.00607992
0.00649924
0.00710289
0.00771258
0.00850764
0.00968165
0.0120241
0.014184
0.0155518
0.020412
0.0415994
0.0793619
0.128828
0.176663
0.226894
0.00550721
0.00558436
0.00566133
0.00569229
0.00573988
0.00578194
0.00583088
0.00589713
0.00607684
0.00649601
0.00710489
0.00771337
0.00851546
0.00971726
0.0120733
0.0142296
0.0155187
0.0224619
0.0435104
0.079189
0.131541
0.183938
0.227531
0.00550248
0.00557742
0.00566055
0.0056908
0.00574093
0.00578951
0.00582916
0.00589679
0.00607711
0.0064993
0.00709758
0.00768277
0.00846826
0.00974676
0.0120944
0.0142509
0.0155375
0.02428
0.0449911
0.0842756
0.129001
0.184505
0.227161
0.00551149
0.00557425
0.00566161
0.00569088
0.00573079
0.00578197
0.00582676
0.00589683
0.00606861
0.00648139
0.00706266
0.00761088
0.00836188
0.00970178
0.0122036
0.0141849
0.0154814
0.0225375
0.0452862
0.0775975
0.127476
0.184637
0.225775
0.00549921
0.00557945
0.00566448
0.00567824
0.00572855
0.00578468
0.00582056
0.0058975
0.0060595
0.00646134
0.00702886
0.00755047
0.00829441
0.00973503
0.0124014
0.0143675
0.0160456
0.0223816
0.0412648
0.0770986
0.128192
0.184724
0.223364
0.00550325
0.00556483
0.00565848
0.00567429
0.00573287
0.00578169
0.00581528
0.00589135
0.00604895
0.00644206
0.0069998
0.00749785
0.00824528
0.0103156
0.0129741
0.0146395
0.0166105
0.0228051
0.0409202
0.0807678
0.120088
0.172789
0.227677
0.00549687
0.00556235
0.00565139
0.00567667
0.00573026
0.00577382
0.00580511
0.00588446
0.00603775
0.00642138
0.00697163
0.00745348
0.00820163
0.0102535
0.0136506
0.015551
0.0177975
0.0221818
0.0425513
0.0785829
0.119491
0.172618
0.222464
0.00549018
0.00556911
0.00564008
0.00567537
0.00572473
0.00576576
0.00578621
0.00587505
0.00602419
0.00639877
0.0069452
0.00741364
0.00816337
0.0102531
0.0143335
0.016058
0.0186481
0.0221925
0.042728
0.074711
0.121463
0.176505
0.227703
0.00546892
0.0055658
0.00561846
0.00566406
0.00570399
0.00575644
0.00577924
0.00586152
0.00600944
0.0063746
0.00691863
0.00737639
0.00811994
0.0105902
0.0146597
0.0173522
0.0203303
0.0238576
0.0418856
0.0713611
0.11329
0.170048
0.222145
0.00543572
0.00555231
0.00558791
0.00565242
0.00569371
0.00574514
0.00578093
0.00585205
0.00599181
0.00634623
0.00688902
0.00733965
0.00808157
0.0103254
0.0153438
0.0187297
0.021687
0.0261775
0.0382511
0.0610919
0.10401
0.162383
0.210598
0.00542509
0.00553077
0.00557643
0.00563899
0.00567253
0.00573398
0.00576906
0.00584012
0.00597306
0.00631632
0.00685815
0.00730062
0.00803334
0.010518
0.014971
0.0190219
0.0247254
0.0304694
0.0384759
0.058957
0.0962713
0.148016
0.195785
0.00543022
0.00549537
0.0055776
0.00561026
0.00564118
0.00571552
0.00575122
0.00582076
0.0059493
0.00628123
0.00682078
0.00725899
0.00798386
0.0105156
0.0153723
0.0192596
0.0254825
0.0331849
0.0383728
0.0569054
0.0878027
0.139155
0.186191
0.0054173
0.0054474
0.00556164
0.00558002
0.00563845
0.00569401
0.0057327
0.00580044
0.00592453
0.00624393
0.00678097
0.00721195
0.00792342
0.0104062
0.0148904
0.020843
0.0305952
0.0378079
0.0431056
0.0603775
0.094739
0.126968
0.172086
0.00539125
0.00542994
0.00553869
0.00557097
0.00561626
0.00566741
0.0057082
0.0057737
0.00589331
0.00619885
0.00673013
0.00716041
0.00786294
0.0102106
0.0151463
0.020717
0.033302
0.0417286
0.0489588
0.0616983
0.0927305
0.125118
0.163443
0.00535853
0.0054328
0.00550749
0.00554566
0.00558826
0.00564007
0.00568201
0.00574473
0.00586023
0.0061516
0.00667678
0.00709956
0.00778712
0.0100618
0.015079
0.0232735
0.0383727
0.0455606
0.0560138
0.073542
0.095589
0.114607
0.152789
0.00532012
0.00540768
0.00547037
0.00551079
0.00555265
0.00560511
0.00564726
0.00570642
0.00581766
0.00609394
0.00660684
0.00703254
0.0077075
0.00973607
0.014607
0.0223986
0.0420944
0.0506513
0.0644576
0.0932596
0.111545
0.124895
0.136873
0.005277
0.00537198
0.00542679
0.00547398
0.00551458
0.00556805
0.00561055
0.00566641
0.00577325
0.00603384
0.00653267
0.0069545
0.00762536
0.00951641
0.0140987
0.0291638
0.048561
0.0568976
0.075326
0.110179
0.124826
0.136371
0.136241
0.00522481
0.00532266
0.00537586
0.00542642
0.00546358
0.00551912
0.00556216
0.00561504
0.00571692
0.00596032
0.00644084
0.00686063
0.00751954
0.0093411
0.0129112
0.0356493
0.0544374
0.0627698
0.0876087
0.126272
0.14023
0.135827
0.134098
0.00516741
0.00526921
0.00531695
0.00537613
0.00540943
0.0054666
0.00551138
0.00556255
0.00565947
0.00588489
0.00634232
0.00676132
0.00741491
0.00906806
0.0125356
0.0482253
0.0610125
0.0726065
0.100603
0.139935
0.135461
0.137374
0.144332
0.00509305
0.00520119
0.00524554
0.00531057
0.00534143
0.00539819
0.00544427
0.00549412
0.0055857
0.00579175
0.00622433
0.006634
0.00729014
0.00854047
0.013187
0.0471324
0.0684329
0.0807132
0.112092
0.133154
0.144202
0.147693
0.161067
0.00501589
0.00513035
0.00516973
0.00524124
0.00527324
0.00532783
0.0053749
0.00542428
0.00551107
0.00569786
0.0060995
0.00650878
0.00715445
0.00842314
0.0129753
0.0464172
0.0754155
0.0919706
0.128618
0.134241
0.149047
0.162091
0.167281
0.00492499
0.00504029
0.00507209
0.00515089
0.00518742
0.00523732
0.00528366
0.00533197
0.00541347
0.00558069
0.0059487
0.00634833
0.00697228
0.00862137
0.0121482
0.0591945
0.0831278
0.105999
0.131974
0.14472
0.158147
0.162864
0.157031
0.00483693
0.00494822
0.00497396
0.00505846
0.00510209
0.0051473
0.00519247
0.00523985
0.00531687
0.00546632
0.00579453
0.00620045
0.00679401
0.00848216
0.0119912
0.0545913
0.0781962
0.109661
0.133916
0.15455
0.159456
0.160757
0.175463
0.00472936
0.00483259
0.00485682
0.00494059
0.00499058
0.00503093
0.00507285
0.00511786
0.00518908
0.00532125
0.00560645
0.00600557
0.00658883
0.00822714
0.0118131
0.0613363
0.0777467
0.116281
0.137385
0.150833
0.15748
0.180608
0.18515
0.00462377
0.00472077
0.00474846
0.00482692
0.00488145
0.0049196
0.0049586
0.00500177
0.00506766
0.00518549
0.00542985
0.00582012
0.00638715
0.00791776
0.0117304
0.0530643
0.0846038
0.117775
0.142954
0.148468
0.173322
0.184319
0.147703
0.00448976
0.00457792
0.00461307
0.00468119
0.00473597
0.0047717
0.00480616
0.00484554
0.00490428
0.00500711
0.00521481
0.00557317
0.00613572
0.0075954
0.0118236
0.0551174
0.0908971
0.118665
0.140755
0.156385
0.181027
0.148568
0.102282
0.00436309
0.00444584
0.00448947
0.00454845
0.00460067
0.00463688
0.00466856
0.00470554
0.00475846
0.00484934
0.00502841
0.00535379
0.00590227
0.00726773
0.0120808
0.0637057
0.0956267
0.12153
0.145367
0.169767
0.150538
0.104225
0.0720438
0.00419827
0.00427196
0.00432209
0.00437038
0.004416
0.00444986
0.00447701
0.00450908
0.00455388
0.00463069
0.00478204
0.00507248
0.00560201
0.00697115
0.0140756
0.0693788
0.0949116
0.12523
0.156181
0.157593
0.108844
0.0749535
0.0553906
0.00405255
0.00412532
0.00417722
0.00421964
0.00425819
0.00429259
0.00431814
0.00434786
0.00438738
0.00445446
0.00458471