/*--------------------------------*- C++ -*----------------------------------*\
  =========                 |
  \\      /  F ield         | OpenFOAM: The Open Source CFD Toolbox
   \\    /   O peration     | Website:  https://openfoam.org
    \\  /    A nd           | Version:  7
     \\/     M anipulation  |
\*---------------------------------------------------------------------------*/
FoamFile
{
    version     2.0;
    format      ascii;
    class       volScalarField;
    location    "82";
    object      nut;
}
// * * * * * * * * * * * * * * * * * * * * * * * * * * * * * * * * * * * * * //

dimensions      [0 2 -1 0 0 0 0];

internalField   nonuniform List<scalar> 
12842
(
0.00181267
0.00178826
0.00178774
0.00178008
0.00178022
0.00176673
0.00176826
0.00175603
0.00176328
0.00175854
0.00176825
0.00177455
0.00178784
0.00108291
0.00054877
0.000317439
0.000209978
0.000150876
0.000115611
9.22282e-05
7.63407e-05
6.5106e-05
5.74103e-05
0.00181172
0.00179129
0.00177267
0.00176615
0.00177704
0.00176674
0.00176899
0.00175677
0.0017632
0.00175909
0.00176839
0.00177541
0.00178962
0.00106275
0.000539708
0.000313713
0.000207903
0.000150029
0.000114916
9.18578e-05
7.60084e-05
6.50483e-05
5.73885e-05
0.00180846
0.00179775
0.00178569
0.00176784
0.00176719
0.00176285
0.00176777
0.00175702
0.00176292
0.00176095
0.00176937
0.00177778
0.00179435
0.00102955
0.000527159
0.000308343
0.00020488
0.000148413
0.000113684
9.09675e-05
7.54179e-05
6.48169e-05
5.70457e-05
0.00180501
0.00178823
0.00177871
0.00177005
0.00177515
0.00176544
0.00176724
0.00175668
0.00176248
0.00176144
0.00176951
0.00177965
0.00179979
0.000991894
0.000512875
0.000302658
0.000201826
0.000146668
0.000112284
9.0082e-05
7.46608e-05
6.4625e-05
5.66974e-05
0.0018049
0.00179324
0.00178075
0.00176646
0.00176513
0.00176024
0.00176465
0.00175529
0.00176185
0.00176305
0.00177031
0.00178162
0.00180323
0.000960332
0.000501105
0.000297627
0.000199389
0.00014472
0.000111132
8.90913e-05
7.3864e-05
6.42824e-05
5.62519e-05
0.00180159
0.00178247
0.00177979
0.00177145
0.00177166
0.00176386
0.00176434
0.00175526
0.00176069
0.0017631
0.00177041
0.00178406
0.00181109
0.000934159
0.000492133
0.000294486
0.000197883
0.000143494
0.000109912
8.81895e-05
7.31086e-05
6.38584e-05
5.58236e-05
0.00180125
0.00178656
0.00177426
0.00176753
0.00176639
0.00175915
0.00176078
0.00175285
0.00176004
0.00176399
0.00177089
0.00178579
0.00181464
0.00093278
0.000494258
0.000296607
0.000199515
0.00014395
0.000110208
8.82325e-05
7.29156e-05
6.38205e-05
5.55999e-05
0.00179934
0.00177805
0.00177607
0.00177104
0.0017689
0.00176135
0.0017614
0.00175343
0.00175921
0.00176409
0.0017715
0.00178712
0.00182132
0.000910661
0.000488112
0.000295118
0.000198656
0.000142966
0.000108623
8.68771e-05
7.16697e-05
6.28575e-05
5.47451e-05
0.00179823
0.00178086
0.0017687
0.00176895
0.00176726
0.00175902
0.00175769
0.00175164
0.00175877
0.00176409
0.00177309
0.00178962
0.00182558
0.00089763
0.000485584
0.000295882
0.000200059
0.000143702
0.000108959
8.67375e-05
7.12391e-05
6.24799e-05
5.4169e-05
0.00179645
0.00177523
0.00176933
0.00177048
0.00176663
0.00175894
0.00175809
0.00175182
0.00175876
0.00176404
0.00177344
0.00179153
0.00182927
0.000911173
0.000495611
0.000303132
0.000205091
0.000146931
0.000110776
8.80378e-05
7.19747e-05
6.30945e-05
5.43889e-05
0.00179542
0.00177624
0.00176414
0.00176883
0.00176579
0.00175839
0.00175589
0.00175167
0.0017589
0.0017638
0.00177433
0.00179278
0.00183451
0.000900447
0.000493305
0.000302878
0.000205214
0.000147315
0.000110741
8.78127e-05
7.1575e-05
6.272e-05
5.38057e-05
0.00179257
0.00177313
0.00176336
0.00176956
0.00176375
0.00175766
0.00175617
0.00175247
0.00175922
0.0017638
0.00177521
0.00179466
0.00182432
0.000892048
0.000492034
0.000305179
0.000207791
0.000148651
0.000110943
8.77796e-05
7.13312e-05
6.25117e-05
5.33746e-05
0.00179278
0.0017727
0.00176071
0.00176727
0.00176282
0.00175794
0.00175554
0.00175332
0.00175967
0.0017637
0.00177711
0.0017964
0.00179225
0.000882561
0.000492981
0.000307119
0.000209832
0.000150208
0.000111959
8.8012e-05
7.11504e-05
6.22466e-05
5.28562e-05
0.00178876
0.00177108
0.00175988
0.00176769
0.00176031
0.00175742
0.00175531
0.00175495
0.00175992
0.00176356
0.00177873
0.00179723
0.00175799
0.000872888
0.000492037
0.000311209
0.000213313
0.000153065
0.000113148
8.84847e-05
7.10262e-05
6.2116e-05
5.25595e-05
0.00178988
0.00177004
0.00175855
0.00176465
0.0017596
0.00175804
0.00175598
0.00175597
0.00176019
0.00176379
0.00178023
0.00180062
0.00172371
0.000862101
0.000493087
0.000314252
0.000216892
0.00015574
0.000114541
8.92073e-05
7.12515e-05
6.19955e-05
5.21316e-05
0.00178565
0.00176911
0.00175876
0.0017646
0.00175743
0.00175763
0.00175539
0.00175771
0.00176018
0.0017635
0.00178083
0.00180215
0.00168757
0.000851822
0.000494515
0.000320392
0.000223619
0.000160923
0.00011689
9.0151e-05
7.17861e-05
6.16179e-05
5.2347e-05
0.00178663
0.00176785
0.00175771
0.00176169
0.00175749
0.00175855
0.00175659
0.00175847
0.00175998
0.00176387
0.00178474
0.00180527
0.00165617
0.000843237
0.000496856
0.000326147
0.000230385
0.000166622
0.000121096
9.24966e-05
7.32741e-05
6.19711e-05
5.26989e-05
0.00178353
0.0017677
0.0017586
0.00176076
0.00175603
0.00175799
0.0017561
0.00175961
0.00175973
0.0017646
0.00178551
0.00180918
0.00162408
0.000834651
0.000500727
0.000335716
0.000241997
0.0001754
0.000126448
9.49816e-05
7.51073e-05
6.19832e-05
5.32448e-05
0.00178329
0.00176597
0.00175749
0.00175881
0.00175717
0.00175878
0.00175733
0.0017597
0.00175929
0.0017652
0.00178534
0.00181433
0.00159364
0.000827025
0.000505773
0.000345928
0.000255674
0.000186929
0.000134949
9.96069e-05
7.77613e-05
6.33929e-05
5.4822e-05
0.00178174
0.00176705
0.00175806
0.00175736
0.00175625
0.00175849
0.001757
0.00176
0.00175908
0.00176658
0.00178412
0.00181701
0.0015635
0.000818863
0.000510685
0.000359978
0.000278528
0.000207022
0.00014713
0.000105856
8.19069e-05
6.55827e-05
5.62428e-05
0.00178037
0.00176464
0.00175693
0.00175644
0.00175792
0.00175855
0.00175795
0.00175938
0.0017589
0.00176762
0.0017857
0.0018207
0.00153487
0.000810665
0.000514424
0.000375852
0.000306384
0.000235157
0.000164946
0.000115298
8.66265e-05
6.90215e-05
5.94953e-05
0.00177967
0.00176672
0.00175672
0.00175529
0.00175748
0.00175876
0.00175758
0.00175923
0.00175905
0.00176879
0.00178892
0.00183273
0.00151977
0.000807091
0.00052588
0.000397205
0.000355604
0.000288295
0.000194988
0.000129504
9.57197e-05
7.64437e-05
6.3862e-05
0.00177826
0.00176407
0.00175554
0.00175514
0.00175866
0.00175821
0.00175786
0.00175821
0.0017593
0.0017699
0.00179498
0.00183427
0.00144489
0.000779439
0.000521924
0.000412756
0.000414122
0.000387736
0.000242653
0.00014836
0.000104992
8.27411e-05
6.96143e-05
0.00177758
0.00176563
0.00175509
0.0017548
0.00175882
0.00175852
0.00175757
0.00175772
0.00176005
0.00177042
0.00179611
0.0018335
0.00137595
0.00075431
0.000514463
0.000419239
0.000496904
0.00066168
0.000329055
0.00017111
0.00011785
9.79228e-05
8.47115e-05
0.00177708
0.00176454
0.00175405
0.00175547
0.00175926
0.00175809
0.00175707
0.001757
0.00176038
0.00177222
0.00179355
0.00183174
0.00137212
0.000753993
0.000521759
0.000433247
0.000564574
0.00133284
0.000417444
0.000190407
0.000137452
0.000126935
0.000117198
0.00177644
0.00176477
0.00175396
0.00175557
0.00175893
0.0017581
0.00175625
0.00175674
0.00176099
0.00177292
0.0017961
0.00184573
0.00133772
0.000735384
0.000501493
0.00042279
0.00055523
0.00131784
0.000396697
0.000217082
0.000183856
0.000179385
0.000152523
0.00177643
0.00176398
0.0017533
0.00175671
0.00175877
0.00175752
0.00175533
0.00175621
0.00176133
0.00177373
0.00180245
0.00186327
0.00130804
0.000720832
0.000476924
0.000414109
0.000494902
0.000601289
0.000349133
0.000259333
0.000233089
0.000219457
0.000211531
0.00177567
0.00176329
0.00175367
0.00175683
0.00175801
0.00175698
0.00175407
0.00175582
0.00176164
0.001776
0.00181409
0.00189328
0.0012825
0.00070952
0.000457241
0.000389198
0.000421133
0.000412315
0.000325598
0.000283232
0.000278693
0.000374348
0.000834572
0.00177578
0.00176239
0.00175352
0.00175789
0.00175753
0.00175617
0.00175263
0.00175581
0.00176233
0.00178306
0.00183445
0.00192121
0.00125988
0.000682759
0.000437734
0.000372491
0.000357454
0.000333097
0.000324025
0.000390431
0.000717683
0.00255372
0.00284928
0.00177502
0.00176136
0.00175457
0.00175793
0.00175639
0.00175542
0.00175138
0.00175499
0.00176343
0.00179656
0.00185958
0.00196445
0.00122117
0.00065005
0.000426506
0.00034373
0.000320524
0.000329624
0.000408321
0.00066745
0.00223345
0.00226973
0.00312805
0.00177491
0.0017601
0.00175511
0.00175871
0.00175558
0.00175421
0.00174999
0.0017544
0.00176807
0.00181337
0.00189104
0.00200581
0.00117793
0.000625383
0.000407269
0.000326475
0.000302517
0.000345601
0.000514204
0.00122419
0.00142437
0.00203939
0.00223753
0.00177422
0.00175885
0.00175644
0.00175836
0.00175438
0.00175314
0.00174829
0.00175571
0.0017762
0.0018364
0.00192624
0.00206176
0.0011512
0.000613569
0.000401489
0.000313534
0.000306484
0.000354911
0.000525736
0.000864495
0.00115818
0.00170098
0.00192458
0.00177374
0.00175736
0.00175793
0.00175872
0.00175315
0.00175229
0.00174749
0.00176122
0.0017903
0.00186201
0.0019724
0.00211338
0.00112623
0.000597657
0.000386958
0.000310393
0.00030229
0.000351424
0.000754549
0.00078567
0.00086791
0.00124883
0.00163735
0.00177308
0.00175581
0.00175915
0.00175834
0.00175177
0.00175103
0.00175076
0.00177239
0.00180717
0.00189564
0.00201583
0.0021718
0.00113133
0.000601067
0.000390038
0.000303825
0.000283704
0.000302506
0.000604835
0.000636447
0.000748401
0.000974848
0.00125962
0.00177238
0.00175419
0.00176122
0.00175765
0.00175106
0.00175
0.00176049
0.00178793
0.00183026
0.00192861
0.00206283
0.00221874
0.00112463
0.000592701
0.000382613
0.000300864
0.000255316
0.000253905
0.000446907
0.000615539
0.000621707
0.000853104
0.00127575
0.00177131
0.0017521
0.00176226
0.00175715
0.00174957
0.00175214
0.00177611
0.00180779
0.0018562
0.00196603
0.0020987
0.00225303
0.0011536
0.000608657
0.000388025
0.000281905
0.00022567
0.000236265
0.000573059
0.000527896
0.000607894
0.000781406
0.00115878
0.0017709
0.00175069
0.00176412
0.00175679
0.00174851
0.00175979
0.00179655
0.00183248
0.00188583
0.00199546
0.00213303
0.00228205
0.00116907
0.000608416
0.000384129
0.000273789
0.000210729
0.000239489
0.000587441
0.000482988
0.000563203
0.000916022
0.00119054
0.00176922
0.00174777
0.00176492
0.00175506
0.00175002
0.00177445
0.00182146
0.00185947
0.00191328
0.00202531
0.00215685
0.00229698
0.00121347
0.000631403
0.000385243
0.000256935
0.000200198
0.000241512
0.000507066
0.00046299
0.000586071
0.000858616
0.00134503
0.00176885
0.00174664
0.0017662
0.00175474
0.00175698
0.00179361
0.00185044
0.00188675
0.00193927
0.00204692
0.00217821
0.00231171
0.00123951
0.000639469
0.000387353
0.000253353
0.000198394
0.000262017
0.000597539
0.000534824
0.000621261
0.000840362
0.0015143
0.00176723
0.00174323
0.00176689
0.00175933
0.00177024
0.00181667
0.00188068
0.00191229
0.00196092
0.00206658
0.00218824
0.00230833
0.00130385
0.000667591
0.000384742
0.000246366
0.000203963
0.000303571
0.000575998
0.00053821
0.000621621
0.000866106
0.00160806
0.00176667
0.00174315
0.00176826
0.00176971
0.00178852
0.00184335
0.00191032
0.00193601
0.00197958
0.00207794
0.00219733
0.00231242
0.00133058
0.000677368
0.000397116
0.000252619
0.000213991
0.00037099
0.000479491
0.000586832
0.000664429
0.00105159
0.00163589
0.00176501
0.00173947
0.0017678
0.00178533
0.00180987
0.00187053
0.00193633
0.00195543
0.00199259
0.00208652
0.00219515
0.00229614
0.00141564
0.000717797
0.000398829
0.000253479
0.000227365
0.000467368
0.000408945
0.00059533
0.000695706
0.00106821
0.00174908
0.0017642
0.00174101
0.00177346
0.00180421
0.00183603
0.00189619
0.00195923
0.00197121
0.00200185
0.00208801
0.00219426
0.00229145
0.00144731
0.000730267
0.000417271
0.000271326
0.00024525
0.000629319
0.000325759
0.000472468
0.000584545
0.000934727
0.00143436
0.00176352
0.00173961
0.00178285
0.00182776
0.00186155
0.00191947
0.00197683
0.00198192
0.00200598
0.00208719
0.00218345
0.00226928
0.00154211
0.000781097
0.000436116
0.000278714
0.000258633
0.000812513
0.000330736
0.000398123
0.000612352
0.000842076
0.00161571
0.00176194
0.00174109
0.00179783
0.00185337
0.00188593
0.00193948
0.00198953
0.00198846
0.00200668
0.00208092
0.00217608
0.00225914
0.00158658
0.00080475
0.000455819
0.000301949
0.000273106
0.000837816
0.000316401
0.000318304
0.000614963
0.000894581
0.00157196
0.00176236
0.00174695
0.00181499
0.00188032
0.00190716
0.00195538
0.00199704
0.00199064
0.00200384
0.00207364
0.00216065
0.00223434
0.00169958
0.000873942
0.000497699
0.000316371
0.000291351
0.000716938
0.000370882
0.000410069
0.000761173
0.00120156
0.00147254
0.00176232
0.00176114
0.00183686
0.00190436
0.00192649
0.00196681
0.00200001
0.00198905
0.00199837
0.0020625
0.00215012
0.00222313
0.00175785
0.00091077
0.000523193
0.000347701
0.000305213
0.00064543
0.000645559
0.000721498
0.000745647
0.00113953
0.00128207
0.00176322
0.00177847
0.00185777
0.00192689
0.00194119
0.00197387
0.00199882
0.00198467
0.0019912
0.0020519
0.00213396
0.00219769
0.00188972
0.00100482
0.000587408
0.000379695
0.000369501
0.000715849
0.000927965
0.000685118
0.000671727
0.00104026
0.0013274
0.00176319
0.00179996
0.001883
0.00194673
0.0019536
0.00197784
0.00199522
0.00197776
0.00198239
0.0020386
0.0021219
0.00218606
0.00195135
0.00105658
0.000632278
0.000464045
0.000480853
0.0010154
0.000792239
0.000629632
0.000620322
0.000861199
0.00112357
0.00176888
0.00182781
0.00190509
0.00196401
0.00196197
0.00197766
0.00198809
0.00196911
0.00197278
0.00202606
0.00210657
0.00216024
0.00207263
0.00117385
0.000738424
0.000575319
0.000765488
0.000981524
0.00065924
0.000594911
0.000703507
0.00089816
0.00119746
0.00178009
0.00185575
0.00192543
0.00197612
0.0019663
0.00197445
0.00197972
0.0019588
0.00196218
0.00201212
0.00209361
0.00214698
0.00207957
0.00122956
0.000824266
0.000873595
0.00124381
0.000866934
0.000673666
0.000711149
0.000797356
0.00103012
0.00149775
0.00179658
0.00188542
0.00193963
0.00198305
0.0019665
0.00196777
0.00196874
0.00194758
0.00195163
0.00199956
0.00208067
0.00212446
0.00205373
0.00136639
0.00106996
0.00132344
0.00112682
0.000751167
0.00058971
0.000713149
0.000840093
0.00129408
0.00179324
0.00181443
0.00191183
0.00195286
0.00198599
0.00196414
0.00195938
0.00195791
0.00193613
0.00194092
0.00198664
0.00206901
0.00211175
0.00204172
0.00144655
0.00136609
0.00145377
0.000941066
0.00070527
0.000658779
0.000883028
0.00122388
0.00165448
0.0020442
0.001834
0.0019357
0.00196028
0.00198475
0.00195915
0.00194956
0.00194603
0.00192475
0.00193095
0.00197552
0.00205912
0.00209459
0.00202165
0.00166654
0.00183408
0.00131501
0.000890436
0.000666663
0.000734377
0.00113166
0.00156579
0.00189282
0.00219416
0.00185495
0.00195579
0.00196582
0.00198102
0.00195316
0.00193917
0.00193492
0.00191414
0.00192148
0.00196478
0.00205037
0.00208408
0.00200895
0.00187123
0.00173292
0.00118505
0.000793625
0.000702606
0.000914116
0.00129559
0.00179638
0.00203099
0.00237359
0.00187661
0.0019718
0.00196653
0.00197439
0.00194545
0.0019285
0.00192372
0.00190417
0.00191299
0.00195572
0.00204342
0.00207155
0.00198949
0.00188164
0.00157174
0.00107387
0.000788761
0.000820959
0.00125045
0.00166399
0.00196875
0.00233166
0.00278839
0.00189493
0.00198099
0.00196425
0.001966
0.0019373
0.00191826
0.00191379
0.00189578
0.0019058
0.00194814
0.00203795
0.0020608
0.00195715
0.00179104
0.00147498
0.00101015
0.000806307
0.000941868
0.00138866
0.00185868
0.00222202
0.00267438
0.00315848
0.00190755
0.00198549
0.001959
0.00195651
0.00192857
0.00190871
0.00190436
0.00188827
0.00189944
0.00194159
0.00203336
0.0020495
0.00191693
0.00170733
0.00138121
0.000978349
0.000841627
0.00101451
0.00147369
0.00193425
0.00251268
0.00299149
0.00343999
0.00191823
0.00198572
0.00195188
0.00194607
0.0019194
0.00189918
0.0018953
0.00188136
0.00189369
0.00193598
0.00202961
0.00203789
0.00187161
0.00162784
0.00131593
0.000955931
0.000874096
0.001027
0.00146094
0.00202901
0.00265036
0.00308284
0.00358397
0.00192513
0.00198258
0.00194332
0.00193523
0.0019102
0.00189066
0.00188699
0.00187558
0.00188871
0.00193138
0.00202652
0.00202555
0.00182556
0.0015626
0.00125296
0.000959359
0.000902314
0.00103577
0.00146346
0.00200887
0.00271201
0.00310935
0.00358141
0.00193036
0.00197619
0.00193314
0.00192419
0.00190071
0.00188228
0.00187902
0.00187004
0.00188434
0.00192764
0.00202395
0.00201272
0.0017805
0.00150168
0.0012049
0.000965251
0.000925431
0.0010597
0.00147842
0.00203255
0.00271818
0.0030894
0.00353974
0.00193185
0.00196708
0.00192268
0.00191317
0.00189175
0.00187517
0.00187204
0.00186582
0.00188038
0.00192474
0.00202177
0.00199936
0.00173596
0.00145224
0.00116832
0.000980428
0.00093729
0.00109838
0.00152041
0.0020184
0.00269518
0.00296541
0.00336691
0.0019325
0.00195663
0.00191115
0.00190264
0.00188257
0.00186807
0.00186526
0.00186145
0.00187722
0.00192263
0.00202002
0.00198578
0.00169406
0.00140525
0.00113381
0.000996657
0.000948576
0.00111934
0.00149586
0.00199093
0.00264686
0.00283665
0.00298896
0.00193024
0.00194375
0.00190028
0.00189258
0.00187451
0.00186253
0.00185974
0.00185847
0.00187396
0.00192116
0.00201828
0.00197113
0.00165159
0.00135691
0.00112037
0.00100321
0.000973225
0.00111701
0.00143396
0.00187679
0.00248726
0.00262366
0.00305856
0.0019275
0.0019324
0.00188914
0.00188348
0.00186634
0.00185696
0.00185431
0.00185522
0.00187176
0.0019204
0.00201707
0.00195586
0.00160743
0.00132344
0.00111386
0.00101053
0.00100177
0.00110849
0.00135792
0.00171915
0.00227517
0.00254979
0.00275552
0.0019237
0.00191843
0.00187962
0.00187542
0.00185968
0.0018529
0.00185027
0.00185321
0.00186912
0.00192019
0.00201571
0.00193882
0.00156253
0.00127414
0.00110201
0.00101315
0.00102424
0.00109097
0.00127284
0.00154267
0.00209445
0.00230243
0.00251567
0.00191908
0.0019086
0.00187012
0.00186852
0.00185326
0.00184922
0.00184635
0.00185096
0.00186757
0.00192051
0.00201475
0.00192038
0.00152041
0.00123966
0.0010977
0.00102038
0.00104146
0.00107312
0.00119247
0.00135118
0.00187587
0.00182033
0.00210007
0.00191516
0.00189651
0.00186331
0.00186283
0.00184805
0.00184639
0.00184372
0.00184974
0.00186566
0.0019214
0.00201376
0.00190109
0.0014781
0.00120286
0.001095
0.00102671
0.00104704
0.00104963
0.00111395
0.00118705
0.00164164
0.00153037
0.00158113
0.00191031
0.00188882
0.00185629
0.00185853
0.00184383
0.00184452
0.00184117
0.00184821
0.00186456
0.00192259
0.0020128
0.00188171
0.00143984
0.00118607
0.00108249
0.00102038
0.00105082
0.00102471
0.0010445
0.00104779
0.00142447
0.00132114
0.00125106
0.00190682
0.00188089
0.00185242
0.00185496
0.0018401
0.00184287
0.00183988
0.00184762
0.00186324
0.00192428
0.00201192
0.00186324
0.00140791
0.00116453
0.00105685
0.00100539
0.00103944
0.000991224
0.000982503
0.000942001
0.00122
0.0011438
0.00100374
0.00190274
0.00187535
0.00184829
0.00185311
0.00183766
0.00184218
0.00183847
0.00184657
0.0018626
0.0019261
0.00201134
0.00184997
0.00138072
0.00112125
0.001014
0.000984822
0.00101982
0.000950497
0.000928692
0.000859849
0.0010606
0.000996103
0.000904121
0.00189963
0.00187157
0.00184683
0.00185109
0.00183573
0.00184168
0.00183796
0.00184626
0.00186153
0.00192815
0.00201044
0.00183549
0.00134953
0.00107488
0.000975533
0.000957697
0.000991263
0.000900545
0.00087875
0.000809182
0.00092357
0.000882247
0.000881786
0.00189694
0.0018685
0.00184546
0.00185104
0.00183454
0.00184148
0.00183767
0.00184571
0.00186112
0.0019302
0.0020093
0.00182195
0.00131595
0.00101669
0.000939784
0.000928272
0.000957347
0.000859743
0.000830485
0.000788215
0.000824679
0.000779082
0.000836449
0.00189345
0.00186738
0.00184552
0.00185043
0.00183381
0.00184179
0.00183745
0.00184525
0.0018605
0.00193211
0.00200938
0.00180791
0.00127608
0.000965621
0.000908136
0.000898496
0.000923272
0.000822858
0.000788154
0.000728958
0.000786341
0.000805949
0.000790768
0.00189251
0.00186675
0.00184677
0.00185058
0.00183445
0.00184195
0.00183736
0.00184485
0.00186088
0.00193365
0.00200994
0.00179429
0.00124254
0.000927099
0.000878245
0.000868694
0.000886663
0.000792523
0.000759727
0.000712956
0.000722894
0.000836599
0.000851754
0.00188806
0.00186574
0.00184687
0.00185148
0.00183362
0.00184179
0.00183805
0.00184509
0.00186209
0.00193497
0.0020069
0.00178412
0.00122005
0.000896277
0.000853671
0.000846006
0.000861976
0.000766902
0.000742268
0.000693647
0.000703265
0.000865788
0.000831032
0.00188871
0.00186846
0.00185035
0.00185195
0.00183623
0.00184325
0.00183732
0.00184353
0.00186265
0.00193586
0.00200359
0.00177984
0.00120978
0.000875095
0.000832722
0.000826136
0.00083745
0.000768277
0.00072177
0.000681473
0.000727611
0.00087239
0.00083699
0.0018834
0.00186564
0.00185091
0.00185117
0.0018354
0.0018419
0.00183799
0.00184246
0.00186363
0.00193663
0.0019999
0.0017811
0.00120714
0.000864412
0.000819322
0.00081257
0.000823687
0.000757554
0.000718699
0.00071096
0.000757553
0.000868168
0.000870595
0.00188196
0.0018674
0.00185292
0.00185405
0.0018378
0.00184251
0.00183819
0.00184148
0.00186409
0.00193726
0.00199618
0.00178697
0.00121799
0.000859836
0.00081054
0.000817078
0.000832876
0.000778513
0.000726013
0.000738843
0.000771407
0.000865329
0.00087558
0.00188182
0.00186822
0.00185569
0.00185143
0.00183881
0.00184295
0.00183564
0.00183824
0.0018639
0.00193735
0.0019924
0.00179592
0.0012337
0.000869942
0.000812139
0.000816235
0.000835013
0.000794096
0.000738114
0.000749519
0.00077732
0.000847314
0.000874694
0.0018701
0.00186279
0.00185685
0.00184791
0.00183825
0.00183954
0.00183238
0.00183854
0.00186419
0.0019368
0.00198889
0.00181014
0.00126527
0.00088863
0.0008209
0.000848066
0.000865363
0.000865195
0.000755206
0.00076387
0.00080047
0.00086476
0.000923434
0.00186397
0.00185537
0.00185237
0.00184304
0.00183687
0.00183762
0.00182938
0.00183799
0.00186401
0.00193551
0.00198575
0.00182284
0.0013003
0.000921548
0.000845614
0.000906243
0.000917949
0.000913024
0.000789368
0.000809661
0.000843089
0.000900616
0.00102277
0.00184989
0.00184782
0.00184714
0.00184025
0.00183512
0.00183239
0.00182514
0.00183681
0.00186412
0.00193373
0.00198228
0.0018432
0.00133994
0.000959498
0.000865046
0.000973377
0.000967093
0.000955756
0.000808427
0.000834551
0.00094633
0.00107884
0.00116196
0.00183869
0.00183811
0.00184251
0.00183519
0.00182896
0.00183068
0.00182553
0.0018355
0.001864
0.00193155
0.00197943
0.00185408
0.00141738
0.00102379
0.00091484
0.0010332
0.00104213
0.00098983
0.000836477
0.000861961
0.000988455
0.00116666
0.0013674
0.00183798
0.00183275
0.00183715
0.00182959
0.0018273
0.00182801
0.00182701
0.00183735
0.00186413
0.00192912
0.00198463
0.00188177
0.00149693
0.00109778
0.000971345
0.00107336
0.00109375
0.00101341
0.000863063
0.000986058
0.00103919
0.00130642
0.00165407
0.00183665
0.00182773
0.00183421
0.00182688
0.0018263
0.00182719
0.0018261
0.00183688
0.00186397
0.00192659
0.00198892
0.00191338
0.00156104
0.00116692
0.00103303
0.00113598
0.00112552
0.00101872
0.000961305
0.00104043
0.00120265
0.00151476
0.00187646
0.00183483
0.00182802
0.00183494
0.00182579
0.00182419
0.00182562
0.00182476
0.00183727
0.00186419
0.00192405
0.00198805
0.00193363
0.00163109
0.00123403
0.00107915
0.00115867
0.00115263
0.00103337
0.00107243
0.00127564
0.00125719
0.00151561
0.00190399
0.00183032
0.00182685
0.0018329
0.00182592
0.00182607
0.00182633
0.00182383
0.00183747
0.00186373
0.00192196
0.00198771
0.00196033
0.00168649
0.00127595
0.00111404
0.00117255
0.00116405
0.00105159
0.00123528
0.00136714
0.00143541
0.00184544
0.00205929
0.00183368
0.00182704
0.00183258
0.00182512
0.00182452
0.00182472
0.0018248
0.00183688
0.00186418
0.00191896
0.00199379
0.00197868
0.00171935
0.00131566
0.00113562
0.0012105
0.00114913
0.00105616
0.00132898
0.00155411
0.00171747
0.00230098
0.00258217
0.00182855
0.00182684
0.00183511
0.00182316
0.00182404
0.0018263
0.00182429
0.00183621
0.0018639
0.00191926
0.00199789
0.00199261
0.00172737
0.00133084
0.00114795
0.00119744
0.00112362
0.00105784
0.00142773
0.00172798
0.0019837
0.00249036
0.00311502
0.00183037
0.00182434
0.00183136
0.00182334
0.001824
0.00182579
0.00182553
0.00183461
0.00186249
0.00191947
0.0019987
0.00198373
0.00172848
0.00134886
0.00115527
0.00121496
0.0011409
0.00105941
0.00149398
0.0019732
0.00229904
0.00316963
0.00364801
0.00182704
0.0018241
0.00183115
0.00182324
0.0018232
0.00182481
0.00182539
0.00183573
0.00186189
0.00191882
0.00199771
0.00198785
0.00173885
0.00135333
0.00115064
0.00120283
0.00114437
0.00105375
0.00158151
0.00208287
0.00280893
0.00324896
0.00375166
0.00182707
0.00182482
0.00182976
0.0018228
0.00182478
0.00182422
0.00182443
0.00183545
0.00186104
0.00191762
0.00200152
0.00197937
0.00174625
0.00135721
0.00114848
0.00121563
0.00114126
0.00113013
0.00151552
0.00215203
0.00290311
0.00323075
0.00385807
0.00182569
0.00182643
0.00183293
0.00181948
0.00182391
0.0018244
0.00182557
0.00183592
0.00186092
0.00191924
0.00200274
0.00198956
0.00174924
0.00134611
0.00114667
0.00120673
0.00114045
0.0011492
0.00151396
0.00226596
0.00298958
0.00326307
0.00374412
0.00182468
0.00182617
0.00183001
0.00182141
0.00182176
0.00182425
0.00182495
0.00183433
0.00186093
0.00191903
0.00200471
0.00199301
0.00174841
0.00135186
0.00115276
0.00121076
0.00113852
0.00122317
0.00154875
0.00226929
0.00294575
0.00345452
0.00365724
0.00182723
0.00182232
0.00182776
0.00182139
0.00182454
0.00182487
0.00182499
0.00183472
0.00186074
0.00191955
0.00200187
0.00198281
0.00173463
0.00134399
0.00114928
0.00120757
0.00113081
0.00127489
0.00161829
0.00240467
0.0029002
0.00340742
0.00367288
0.00183062
0.00182478
0.00183053
0.00182155
0.00182184
0.0018246
0.00182427
0.00183527
0.00185947
0.00191742
0.00199685
0.00197617
0.00174174
0.00136924
0.00118055
0.00121853
0.00113415
0.00125002
0.00165269
0.00221639
0.00285638
0.00356215
0.0036528
0.00182556
0.00182642
0.00183157
0.00181782
0.00182009
0.00182456
0.00182411
0.00183474
0.00185798
0.00191448
0.0019924
0.00197253
0.00175628
0.00140981
0.00121394
0.00123335
0.0011814
0.00123092
0.00150695
0.00229945
0.00288068
0.00357642
0.00355984
0.00183195
0.00182301
0.00183223
0.00182005
0.00182179
0.00182414
0.00182367
0.00183321
0.00185761
0.00191271
0.00198941
0.00197062
0.00177376
0.00152395
0.00128458
0.0012593
0.00119975
0.00122935
0.00157099
0.00243566
0.00275739
0.00337743
0.00365851
0.00182629
0.00182304
0.00183165
0.00182171
0.00182318
0.00182486
0.00182502
0.00183266
0.00185648
0.00191037
0.00198695
0.00197088
0.00179064
0.00155618
0.00137012
0.00134197
0.00125001
0.00123698
0.00165039
0.00233922
0.00277028
0.00335197
0.00372119
0.00182985
0.00182444
0.00183448
0.00182722
0.00182338
0.00182439
0.00182062
0.00183136
0.00185657
0.00190858
0.00198558
0.00197266
0.00180768
0.00159077
0.00146375
0.00137739
0.00128791
0.00121241
0.00162514
0.00223186
0.00287364
0.00358056
0.00407635
0.00182079
0.00182341
0.0018296
0.00182561
0.00182118
0.00182761
0.00181785
0.00182998
0.00185572
0.00190648
0.00198435
0.00197496
0.00182357
0.00169311
0.00152287
0.00146901
0.00135709
0.0013496
0.00166509
0.00216553
0.0028207
0.00350889
0.00401757
0.00181306
0.00182239
0.00182061
0.00182103
0.00182596
0.00182719
0.00182001
0.00183082
0.00185402
0.00190429
0.00198363
0.0019784
0.00184281
0.00168389
0.00164332
0.00159539
0.00140997
0.0014442
0.0015626
0.00187675
0.0027674
0.00333941
0.00373698
0.00181564
0.00181929
0.00181711
0.00181985
0.00182204
0.00182487
0.00181977
0.00183114
0.00185062
0.00190221
0.00198298
0.00198119
0.00186306
0.00176862
0.00163025
0.00167064
0.00165638
0.00160471
0.00165022
0.00186811
0.00259716
0.0030828
0.00357618
0.00182822
0.00181783
0.00182076
0.00181615
0.00181258
0.00182345
0.00181903
0.00183107
0.00184928
0.00190024
0.00198241
0.00198481
0.00188694
0.00180887
0.00177457
0.00166759
0.001692
0.00174087
0.00166537
0.0018947
0.00233259
0.00300978
0.00355232
0.00183934
0.00181116
0.00182161
0.00181294
0.00181673
0.00182368
0.00181779
0.00183
0.00184871
0.00189834
0.00198179
0.00198745
0.00190961
0.00183591
0.00174499
0.00182751
0.00202778
0.00202158
0.00183428
0.00208115
0.00261609
0.00289048
0.0034848
0.00183613
0.001813
0.00182136
0.00181636
0.00182364
0.00182541
0.00181673
0.00182837
0.00184761
0.00189587
0.0019804
0.00199024
0.00194506
0.00184421
0.0017451
0.00182647
0.00210547
0.00226154
0.00208159
0.00220193
0.00268724
0.00301058
0.003498
0.00182454
0.00182087
0.00182082
0.00181632
0.00182305
0.0018254
0.00181618
0.00182678
0.00184562
0.0018925
0.00197867
0.00199005
0.00195444
0.00187214
0.00177804
0.00201661
0.00252681
0.00247551
0.00250088
0.00268075
0.00300787
0.00295848
0.00348822
0.00182044
0.00182315
0.00182177
0.00181683
0.00182311
0.00182253
0.00181582
0.0018253
0.00184313
0.0018884
0.00197507
0.00199123
0.00197795
0.00186448
0.00181038
0.00188796
0.00265802
0.00281298
0.00292364
0.00351254
0.00363496
0.00342562
0.00331272
0.00181755
0.00182673
0.00182052
0.00181869
0.00182652
0.00182063
0.00181553
0.00182386
0.0018405
0.00188393
0.0019705
0.00199095
0.00196075
0.00188003
0.0018018
0.00262471
0.00326276
0.00312443
0.00366799
0.00441224
0.00451814
0.00396985
0.00350107
0.00181552
0.00182799
0.00181885
0.00181857
0.00181347
0.00181875
0.00181519
0.00182235
0.00183793
0.00187933
0.0019652
0.00199043
0.00196374
0.00191278
0.00178229
0.0032545
0.00366394
0.00355374
0.00435558
0.00524597
0.00528682
0.00415383
0.00364576
0.0018126
0.00182918
0.001814
0.00181628
0.00180923
0.00181629
0.00181487
0.00182078
0.00183545
0.00187447
0.00195809
0.00198864
0.00196964
0.00195354
0.00182191
0.00437806
0.00403706
0.00427659
0.00525044
0.00604694
0.00527655
0.00442439
0.00407996
0.0018078
0.00182232
0.00180893
0.00181253
0.00180785
0.00181326
0.00181431
0.00181899
0.00183301
0.00186917
0.00195096
0.0019852
0.00197304
0.00196598
0.00199986
0.00471882
0.00497663
0.00486463
0.00603616
0.00636519
0.00590191
0.00509402
0.00464934
0.00180215
0.00181427
0.00180299
0.00180804
0.00180759
0.00180997
0.00181318
0.00181695
0.00183029
0.00186313
0.00194072
0.0019819
0.0019802
0.00196075
0.00214565
0.0047697
0.00514091
0.00577843
0.00719879
0.00616173
0.00613528
0.00545103
0.00512999
0.00179695
0.00180697
0.00179594
0.0018031
0.0018071
0.00180641
0.00181108
0.00181436
0.0018271
0.00185652
0.00192969
0.00197588