/*--------------------------------*- C++ -*----------------------------------*\
  =========                 |
  \\      /  F ield         | OpenFOAM: The Open Source CFD Toolbox
   \\    /   O peration     | Website:  https://openfoam.org
    \\  /    A nd           | Version:  7
     \\/     M anipulation  |
\*---------------------------------------------------------------------------*/
FoamFile
{
    version     2.0;
    format      ascii;
    class       volScalarField;
    location    "82";
    object      omega;
}
// * * * * * * * * * * * * * * * * * * * * * * * * * * * * * * * * * * * * * //

dimensions      [0 0 -1 0 0 0 0];

internalField   nonuniform List<scalar> 
12842
(
3.13941
2.84086
2.64763
2.5224
2.42696
2.36732
2.31826
2.29206
2.26637
2.25396
2.2431
2.24494
2.25312
2.27397
2.31115
2.38587
2.4939
2.61525
2.79256
2.92701
3.13514
3.26753
3.46068
3.12021
2.81804
2.62929
2.51007
2.41999
2.36335
2.31506
2.28906
2.26394
2.25146
2.2416
2.24387
2.25319
2.27502
2.31517
2.38655
2.49664
2.63833
2.80726
2.95929
3.14281
3.27963
3.45494
3.09986
2.7752
2.59429
2.48701
2.40425
2.34813
2.30197
2.27805
2.25524
2.24395
2.23765
2.24173
2.25363
2.27883
2.32377
2.39764
2.50955
2.66641
2.81783
2.97555
3.17211
3.30064
3.47702
3.07457
2.75001
2.55857
2.45216
2.3787
2.33506
2.29552
2.27339
2.25167
2.24087
2.23594
2.2407
2.25458
2.28284
2.33296
2.41434
2.53011
2.70391
2.85278
3.00986
3.18747
3.3292
3.49062
3.04181
2.70898
2.53281
2.43268
2.36451
2.31988
2.28188
2.26301
2.24359
2.23444
2.23271
2.23925
2.25612
2.28877
2.34357
2.42994
2.55759
2.7142
2.89811
3.06845
3.21052
3.37363
3.5441
3.0129
2.67906
2.49702
2.40112
2.3398
2.30521
2.27462
2.25758
2.23996
2.23163
2.23139
2.2388
2.2576
2.29355
2.35499
2.45082
2.58835
2.75284
2.91389
3.11505
3.26632
3.41159
3.57365
2.97983
2.64214
2.47618
2.38382
2.32661
2.29246
2.26365
2.24973
2.23338
2.22673
2.22884
2.23846
2.26054
2.301
2.36629
2.46707
2.61691
2.76698
2.96452
3.16288
3.30016
3.48744
3.62194
2.94977
2.61542
2.44513
2.3589
2.30705
2.27998
2.25623
2.24377
2.22957
2.22419
2.22738
2.23808
2.2619
2.30563
2.37841
2.4892
2.65262
2.81203
2.9821
3.21445
3.38773
3.54476
3.67797
2.91768
2.5853
2.43038
2.34419
2.29577
2.27053
2.24925
2.23861
2.22516
2.22112
2.22552
2.23845
2.26546
2.31317
2.38963
2.50422
2.67213
2.82876
3.02955
3.24092
3.43201
3.61506
3.72576
2.88371
2.55663
2.40396
2.32606
2.28316
2.26184
2.24348
2.23411
2.22195
2.21914
2.22462
2.23876
2.26814
2.31989
2.40131
2.52477
2.70077
2.86654
3.04925
3.278
3.49825
3.68086
3.80583
2.8479
2.53058
2.39101
2.31325
2.27344
2.25436
2.23817
2.22987
2.21855
2.2169
2.22322
2.23935
2.27089
2.3258
2.41401
2.53835
2.71656
2.88339
3.0887
3.30681
3.54492
3.72832
3.84841
2.81498
2.50331
2.36906
2.29887
2.26423
2.24711
2.23281
2.22543
2.21547
2.21507
2.22248
2.23993
2.27399
2.3338
2.42409
2.56276
2.74878
2.92744
3.1239
3.34955
3.61795
3.81667
3.96506
2.77849
2.48207
2.35707
2.28786
2.2557
2.24027
2.22776
2.22107
2.2122
2.21302
2.22139
2.24117
2.27734
2.34035
2.44088
2.57659
2.76484
2.94791
3.16485
3.40094
3.6819
3.87729
4.02736
2.74904
2.45768
2.33918
2.27661
2.24874
2.23416
2.22309
2.21678
2.20954
2.21143
2.22062
2.24267
2.27987
2.34789
2.45165
2.60353
2.79944
2.99656
3.21295
3.443
3.76263
3.96879
4.17773
2.71388
2.44025
2.32806
2.26736
2.24142
2.22784
2.21834
2.21248
2.20666
2.20943
2.21966
2.24399
2.28361
2.35523
2.46753
2.61689
2.81563
3.01953
3.26697
3.52408
3.84172
4.06844
4.27502
2.68802
2.4197
2.31333
2.25859
2.23569
2.22271
2.21437
2.20876
2.20445
2.20811
2.21959
2.2464
2.28577
2.36229
2.48463
2.64579
2.854
3.07446
3.31991
3.57672
3.95216
4.16794
4.46619
2.65966
2.40517
2.30328
2.25077
2.22888
2.2168
2.20988
2.20488
2.20233
2.20625
2.21888
2.24828
2.2901
2.37273
2.50332
2.66047
2.87229
3.10188
3.39122
3.67208
4.03056
4.30272
4.59643
2.63955
2.38814
2.2909
2.24367
2.22385
2.21233
2.20643
2.2018
2.20046
2.20502
2.21871
2.25108
2.29308
2.38215
2.52309
2.69015
2.91612
3.16751
3.453
3.75517
4.18663
4.46051
4.85268
2.61851
2.37604
2.28222
2.23695
2.217
2.20705
2.20206
2.19876
2.19894
2.20339
2.21857
2.25328
2.29825
2.39475
2.54819
2.71053
2.93891
3.20193
3.5276
3.8443
4.27274
4.57658
5.00942
2.60172
2.36173
2.27173
2.23078
2.21238
2.2027
2.19883
2.19611
2.19727
2.20214
2.21973
2.25651
2.30159
2.40494
2.57213
2.737
2.99201
3.27792
3.617
3.99459
4.4866
4.88846
5.41344
2.58646
2.35159
2.26448
2.22478
2.20568
2.19826
2.19484
2.1939
2.19583
2.20071
2.21887
2.26074
2.30821
2.42226
2.59822
2.77372
3.02232
3.32578
3.69162
4.07984
4.61631
5.08743
5.68338
2.57228
2.33939
2.25556
2.21902
2.20121
2.19372
2.19155
2.19148
2.19405
2.19952
2.22015
2.26409
2.31425
2.43629
2.63063
2.79684
3.09362
3.39903
3.78919
4.29832
4.93436
5.55846
6.31641
2.56054
2.33084
2.24947
2.21336
2.1951
2.18994
2.18827
2.18967
2.19252
2.19821
2.22036
2.26807
2.32085
2.45345
2.67227
2.85321
3.14156
3.50128
3.90703
4.44312
5.16641
5.97576
6.86741
2.55086
2.32251
2.24367
2.20933
2.19159
2.18637
2.1855
2.188
2.19079
2.19742
2.22047
2.27606
2.33074
2.48317
2.71853
2.89107
3.23346
3.58498
4.06502
4.77721
5.71253
6.71115
7.83824
2.54321
2.31726
2.24074
2.20619
2.18855
2.1844
2.18413
2.18709
2.18976
2.19671
2.22288
2.28351
2.34178
2.51014
2.77142
2.97565
3.35637
3.79245
4.34542
5.15577
6.32943
7.95918
9.814
2.53614
2.31194
2.23724
2.20361
2.18665
2.18234
2.18284
2.18596
2.18855
2.19613
2.22339
2.28546
2.3505
2.53227
2.82667
3.03066
3.48512
4.03044
4.79878
5.99158
7.8272
10.0298
11.8316
2.52873
2.30702
2.23445
2.20041
2.18398
2.1806
2.18186
2.18492
2.1875
2.19537
2.22322
2.28567
2.36112
2.55556
2.84525
3.16284
3.70623
4.42248
5.56907
7.50471
9.7875
12.4706
15.8336
2.52212
2.30229
2.23122
2.19791
2.1824
2.17905
2.18111
2.18394
2.18637
2.19512
2.22607
2.2893
2.37366
2.58994
2.85136
3.25594
3.96394
5.00657
6.61031
8.78205
12.1368
18.4429
31.4141
2.51521
2.29763
2.22833
2.1949
2.18
2.1775
2.18026
2.18287
2.18536
2.19417
2.2267
2.29307
2.39216
2.63117
2.88145
3.43446
4.27128
5.60908
7.79424
11.7205
20.3327
43.3685
111.97
2.50912
2.29341
2.2252
2.19252
2.17868
2.17642
2.17981
2.18214
2.18442
2.19359
2.22665
2.29579
2.41375
2.64376
2.9646
3.5893
4.69715
6.55249
10.0002
17.1771
35.1515
95.0571
135.976
2.50284
2.28894
2.22194
2.18974
2.17655
2.17503
2.17913
2.18097
2.18318
2.19334
2.23007
2.29955
2.41909
2.6432
3.02605
3.79186
5.07462
7.4484
12.0505
23.0244
62.3549
98.875
170.943
2.49733
2.28502
2.21898
2.18755
2.17548
2.17424
2.17865
2.1798
2.182
2.19354
2.23067
2.3013
2.42081
2.67739
3.15867
4.0003
5.54865
8.27124
14.6191
36.6219
67.0031
99.1565
166.04
2.49162
2.28089
2.21496
2.185
2.17357
2.17304
2.1776
2.17812
2.18067
2.19357
2.23015
2.30784
2.43237
2.71088
3.24102
4.24443
6.01737
9.64325
18.912
35.8831
69.7279
103.147
144.364
2.48688
2.27673
2.21236
2.18294
2.1726
2.17207
2.17684
2.17662
2.17947
2.19379
2.23323
2.31681
2.47129
2.79346
3.40188
4.44272
6.49702
10.8317
22.8787
37.8019
61.0489
96.526
143.112
2.48143
2.27337
2.20766
2.18059
2.17069
2.17036
2.17511
2.17446
2.1785
2.19467
2.24054
2.33879
2.50377
2.84744
3.50945
4.73372
6.92979
11.3181
22.6754
34.5115
57.3688
90.3333
142.773
2.47774
2.26872
2.20522
2.17871
2.16962
2.16867
2.17411
2.17363
2.17932
2.20157
2.26251
2.37903
2.5747
2.96307
3.67776
4.90072
7.243
11.5168
23.7181
38.6558
61.3177
86.8214
138.391
2.47225
2.26601
2.20044
2.1764
2.16746
2.16639
2.17197
2.17224
2.18238
2.21402
2.28701
2.42322
2.6317
3.0364
3.8135
5.17888
7.6346
13.2371
21.5358
37.9844
59.5314
86.7108
132.916
2.46943
2.26147
2.19804
2.17446
2.16623
2.16424
2.17114
2.17523
2.19331
2.23716
2.32975
2.48731
2.72489
3.17062
3.96617
5.348
7.83193
12.2779
23.3379
37.2507
57.5695
90.8319
150.135
2.46402
2.25848
2.19339
2.17146
2.16368
2.16159
2.17041
2.18206
2.21
2.26374
2.36788
2.54332
2.78978
3.26316
4.14527
5.5911
8.03534
13.2369
20.8277
36.0252
61.3536
99.1183
147.263
2.4614
2.25506
2.19099
2.1694
2.16264
2.16119
2.1733
2.19664
2.23578
2.30235
2.42946
2.62971
2.90438
3.41143
4.26177
5.73927
8.19309
13.0679
19.2042
36.2826
60.7109
96.0468
152.32
2.45618
2.25061
2.18616
2.16531
2.15989
2.1615
2.1807
2.21556
2.26677
2.34334
2.47888
2.69046
2.9665
3.50158
4.47781
5.99385
8.34805
12.8288
17.6661
33.2074
61.2336
97.4816
147.793
2.45339
2.24803
2.18337
2.16332
2.16056
2.16736
2.19485
2.24293
2.30656
2.39538
2.55396
2.79169
3.09544
3.67054
4.59969
6.13708
8.48618
12.654
18.5271
31.3692
58.6651
96.7106
151.291
2.44831
2.24271
2.17842
2.15991
2.16011
2.17842
2.21484
2.27489
2.35073
2.44805
2.61173
2.85548
3.15998
3.75913
4.79491
6.41941
8.63777
11.9752
18.3523
30.6728
60.7857
94.4835
157.815
2.44455
2.23966
2.17621
2.15898
2.1666
2.19642
2.2412
2.31426
2.4017
2.50943
2.69378
2.96092
3.28926
3.93797
4.99804
6.58042
8.84341
11.6662
18.3929
29.559
56.9386
109.566
169.883
2.43958
2.23385
2.17242
2.15816
2.17772
2.2193
2.27419
2.35727
2.45506
2.56927
2.75555
3.02532
3.3552
4.0314
5.15051
6.90729
8.99794
11.6203
18.3085
32.2554
61.0923
109.535
171.237
2.43418
2.23043
2.1711
2.163
2.19663
2.24919
2.31211
2.40582
2.51277
2.63503
2.83848
3.12942
3.49063
4.22999
5.43762
7.09892
9.36011
11.9686
17.8105
30.9805
56.7405
104.801
175.877
2.42881
2.22464
2.16836
2.17247
2.21927
2.2834
2.35546
2.45632
2.57037
2.69709
2.89975
3.18954
3.55857
4.33543
5.60019
7.50376
9.77753
13.0115
19.7469
34.4126
60.7964
108.76
161.636
2.42205
2.22185
2.17184
2.18937
2.24941
2.32379
2.40218
2.51015
2.62995
2.76229
2.97827
3.29018
3.69467
4.55687
5.93784
7.82302
10.7696
15.4472
25.3521
44.7742
70.0082
114.448
175.281
2.41522
2.21805
2.17507
2.21028
2.28385
2.36733
2.45295
2.56541
2.68884
2.82392
3.03741
3.3433
3.76782
4.68255
6.16188
8.58453
12.3997
19.8793
33.7998
55.9394
81.2149
115.346
148.884
2.40798
2.21497
2.18789
2.23963
2.32548
2.41768
2.50768
2.62345
2.74906
2.88725
3.10866
3.4362
3.90961
4.94645
6.62977
9.35757
15.0178
26.0133
46.5343
70.3474
94.4376
120.467
139.3
2.40141
2.21532
2.20517
2.27346
2.37011
2.46831
2.56223
2.67963
2.80515
2.94402
3.16189
3.4827
3.9858
5.09544
6.98329
11.2067
20.039
35.5566
58.0977
80.0513
105.829
125.911
138.706
2.39561
2.21889
2.23149
2.31332
2.4181
2.52143
2.61691
2.7339
2.85799
2.99755
3.21779
3.55688
4.12734
5.41932
7.87813
13.466
25.6284
46.1891
71.7205
86.9803
111.324
127.827
138.909
2.39149
2.22821
2.25912
2.35576
2.46647
2.57309
2.66899
2.78498
2.90625
3.04495
3.26122
3.59744
4.21418
5.66426
8.81248
17.5978
34.5027
57.1851
81.5754
97.7616
116.916
130.357
140.083
2.38888
2.24331
2.2942
2.40201
2.51608
2.62472
2.71956
2.8329
2.95054
3.08876
3.30447
3.65654
4.37061
6.16525
10.885
22.3779
41.7609
66.2899
88.1385
101.308
119.414
132.954
142.88
2.38746
2.26355
2.33048
2.44874
2.56391
2.6736
2.76615
2.87662
2.99003
3.12685
3.33901
3.69459
4.49554
6.68344
13.0293
27.8463
50.3647
74.0357
94.1225
108.065
121.59
135.968
148.887
2.38856
2.2889
2.37204
2.49742
2.61172
2.7211
2.81041
2.91702
3.02584
3.16179
3.37255
3.74589
4.69384
7.67528
16.4362
34.0042
56.9543
78.7931
96.5369
115.12
127.256
143.489
155.369
2.39436
2.31916
2.41295
2.54288
2.65436
2.76234
2.84755
2.95027
3.05457
3.18923
3.39841
3.79067
4.92134
8.78773
19.2895
38.8952
59.8854
79.8587
97.5689
115.778
135.875
150.153
161.02
2.40757
2.35183
2.45498
2.58693
2.69489
2.80063
2.88176
2.98037
3.08026
3.2139
3.42255
3.84211
5.20276
10.0175
22.4377
42.8728
62.0543
80.6252
97.2759
115.941
143.748
156.383
165.742
2.42436
2.38906
2.49806
2.63054
2.73406
2.83692
2.9136
3.00814
3.1035
3.23608
3.44523
3.8993
5.52539
11.3606
25.4186
46.0721
63.0686
80.5108
97.5576
116.138
145.365
159.726
168.476
2.44666
2.42873
2.54219
2.67303
2.77143
2.87035
2.94266
3.03292
3.12431
3.25589
3.46665
3.96202
5.88305
12.7198
28.3443
48.0103
63.5104
80.5722
97.1964
116.154
146.151
160.203
170.027
2.4714
2.4709
2.58602
2.71391
2.80685
2.90164
2.96967
3.0559
3.14286
3.27348
3.48689
4.02875
6.25462
14.0728
31.0508
49.2844
63.3964
79.3807
96.0328
116.486
147.691
160.433
169.664
2.50023
2.51443
2.62967
2.75307
2.84011
2.92953
2.99368
3.0758
3.15973
3.2892
3.50609
4.09862
6.64583
15.4076
33.2609
49.7122
63.4507
77.0156
92.7834
114.938
147.068
159.081
166.586
2.52962
2.55785
2.6716
2.7895
2.87094
2.95558
3.01616
3.09441
3.17436
3.30295
3.52423
4.16965
7.03386
16.6449
35.3169
49.9274
63.0027
73.8928
88.1729
110.533
146.303
153.022
161.762
2.5616
2.60176
2.71235
2.82391
2.89942
2.97785
3.03551
3.11003
3.18817
3.3153
3.54144
4.24342
7.43422
17.8923
36.5635
50.1325
61.735
70.6516
83.052
103.146
141.04
143.436
142.91
2.59241
2.64299
2.75032
2.85463
2.92534
2.99867
3.05373
3.12458
3.19963
3.32601
3.55766
4.31791
7.83668
18.9445
37.1037
50.0854
60.0614
67.213
77.7786
95.9111
131.241
128.196
129.493
2.62422
2.68371
2.78602
2.88333
2.94873
3.01588
3.06898
3.13654
3.2109
3.33554
3.57298
4.39562
8.23493
20.0074
37.6605
50.1326
58.271
64.0235
72.7975
88.9239
120.005
115.132
109.911
2.65424
2.72049
2.81894
2.90793
2.96996
3.03175
3.08331
3.14751
3.21997
3.34396
3.58739
4.47424
8.6168
20.7903
37.8435
49.7656
56.3359
60.9103
68.0711
83.5434
107.889
102.002
92.838
2.68332
2.75517
2.84838
2.93062
2.9886
3.04486
3.09507
3.15646
3.2289
3.35123
3.60104
4.55176
8.97196
21.4544
37.9412
48.9471
54.424
58.0558
63.7947
78.1956
96.1404
89.4198
75.2003
2.7113
2.78646
2.87584
2.94966
3.00561
3.05672
3.10616
3.16456
3.2362
3.35785
3.6138
4.62544
9.25486
21.7398
38.0452
47.7967
52.4232
55.2664
59.7959
73.1884
84.9347
77.9718
63.5456
2.73679
2.81407
2.89931
2.967
3.02051
3.06659
3.115
3.17123
3.24326
3.36354
3.62585
4.69164
9.48244
21.8517
37.9525
46.3757
50.3131
52.572
56.1163
67.9343
75.5097
68.5289
55.6004
2.76173
2.83949
2.92129
2.98147
3.03395
3.07582
3.12366
3.17716
3.24911
3.36873
3.63673
4.74439
9.62317
21.9738
37.8945
44.6042
48.1209
49.8324
52.4858
62.8782
67.3711
60.6538
50.8884
2.78454
2.86103
2.94006
2.99496
3.04617
3.08346
3.13044
3.18245
3.25499
3.37336
3.64646
4.78477
9.68632
21.9277
37.306
42.5487
45.6545
46.9733
48.9683
57.8702
60.6509
54.544
46.5532
2.80601
2.88077
2.95694
3.006
3.05683
3.09104
3.13722
3.18678
3.25998
3.37763
3.6548
4.80995
9.70128
21.8901
36.0863
40.1605
43.0939
44.056
45.4821
52.5173
54.8702
49.5188
44.1738
2.827
2.89835
2.97249
3.01721
3.06722
3.09791
3.14313
3.1912
3.26457
3.38155
3.66151
4.82364
9.69964
21.55
34.436
37.5446
40.2689
40.9987
42.1023
48.7829
49.4129
45.3214
41.6734
2.84629
2.9134
2.98513
3.02621
3.07577
3.10421
3.14853
3.19496
3.26719
3.38533
3.66653
4.82854
9.616
20.7743
32.3873
34.737
37.2361
37.8434
38.914
44.1303
45.6782
42.6112
40.2495
2.8649
2.92926
2.99848
3.0362
3.08494
3.11146
3.15416
3.19817
3.26834
3.38844
3.67099
4.81581
9.40048
19.7786
30.1168
31.8688
34.0265
34.6322
35.9034
40.6553
42.2364
39.989
39.3854
2.88411
2.94116
3.00852
3.04451
3.09203
3.11723
3.15936
3.20212
3.26959
3.39103
3.67204
4.78174
9.09238
18.5354
27.6464
28.9736
30.8313
31.4777
33.404
37.8462
39.5791
39.1247
38.4191
2.90003
2.95661
3.01959
3.05385
3.10031
3.12431
3.1641
3.20493
3.26926
3.39285
3.67079
4.72644
8.71848
17.2105
25.1948
26.1864
27.6853
28.4836
31.5056
36.0007
37.4923
38.5071
38.6924
2.91868
2.96719
3.0292
3.0621
3.10634
3.13135
3.17024
3.208
3.2693
3.39406
3.66705
4.65946
8.28995
15.8084
22.7643
23.5469
24.737
25.8067
30.1202
34.5818
36.6301
37.3915
38.4014
2.93389
2.98227
3.03761
3.07127
3.11386
3.13729
3.17481
3.2131
3.26947
3.39472
3.66111
4.57705
7.83932
14.4422
20.5132
21.1186
22.1017
23.4954
28.8466
33.809
36.2423
37.3731
38.2118
2.95134
2.9941
3.04793
3.07969
3.11961
3.14693
3.1811
3.21322
3.26929
3.39496
3.65295
4.49216
7.38705
13.1244
18.4637
18.9754
19.8258
21.6155
27.8103
33.3864
35.9553
37.3064
38.2604
2.96676
3.00905
3.05569
3.09035
3.12654
3.15298
3.18727
3.21395
3.26921
3.39497
3.64315
4.40168
6.9466
11.8981
16.6453
17.1301
17.9784
20.11
26.793
33.1442
36.0621
37.3058
38.3864
2.98641
3.0245
3.06567
3.09959
3.13331
3.16355
3.19472
3.21648
3.26908
3.39495
3.6319
4.31161
6.51806
10.8119
15.1169
15.6079
16.5365
19.0871
25.7018
33.1008
36.055
37.3481
38.8692
3.00461
3.03889
3.0775
3.11276
3.14284
3.16861
3.19635
3.21879
3.2692
3.39492
3.62004
4.22768
6.14146
9.83413
13.8109
14.3902
15.4869
18.325
25.2633
33.1166
36.365
38.2129
40.4683
3.00553
3.05067
3.08561
3.12078
3.14797
3.17106
3.19703
3.21787
3.26893
3.39474
3.60779
4.14512
5.79108
9.03861
12.7959
13.4896
14.7717
17.8934
24.7484
32.9485
37.74
40.238
43.7771
3.00756
3.05559
3.09063
3.12504
3.1506
3.1717
3.19735
3.21761
3.26926
3.39454
3.59606
4.06626
5.51897
8.41359
12.0279
12.8594
14.3018
17.5654
24.5577
33.273
38.2483
41.7571
46.4448
3.01007
3.05894
3.09295
3.1269
3.1535
3.17412
3.1993
3.21747
3.26894
3.39409
3.5843
4.00795
5.27824
7.97813
11.4846
12.4335
14.0132
17.3639
24.0532
33.0315
39.5531
44.7175
52.817
3.01707
3.05745
3.0957
3.12795
3.15117
3.17249
3.20071
3.21721
3.26945
3.39375
3.57485
3.9535
5.10147
7.646
11.1043
12.1783
13.8499
17.2889
24.2893
33.2351
39.3854
47.0398
57.3795
3.01497
3.05826
3.09879
3.1286
3.15061
3.17495
3.19882
3.21715
3.26803
3.39291
3.56521
3.91641
4.99018
7.4612
10.8482
11.9856
13.7559
17.149
24.5555
33.082
40.9839
49.461
59.2795
3.0186
3.05835
3.09567
3.13112
3.15079
3.17234
3.19982
3.21858
3.26793
3.3921
3.55719
3.89011
4.92615
7.32385
10.6995
11.9009
13.6956
17.1762
25.0388
33.0452
41.9627
50.6266
58.944
3.01899
3.06259
3.09745
3.12958
3.15222
3.17209
3.19699
3.21925
3.26877
3.39058
3.55359
3.89125
4.88767
7.264
10.6046
11.8287
13.6658
17.0729
25.3413
33.9226
42.7791
50.0632
59.2045
3.01876
3.06279
3.09728
3.1286
3.1536
3.17167
3.19676
3.21666
3.26874
3.38941
3.54894
3.88963
4.88233
7.22395
10.5462
11.7855
13.6407
17.3943
25.9305
34.4556
41.9836
51.7151
59.1818
3.01783
3.06134
3.09861
3.12883
3.15006
3.17165
3.19778
3.21623
3.26826
3.38781
3.54789
3.88537
4.87198
7.19756
10.5105
11.7671
13.6349
17.4051
27.0496
34.4395
43.0063
53.1896
60.2368
3.01728
3.05942
3.094
3.12961
3.14967
3.17296
3.19468
3.21503
3.26716
3.38636
3.54658
3.87652
4.86361
7.19231
10.4861
11.7541
13.6365
17.7619
27.4773
35.0235
43.0922
54.1401
60.6001
3.01817
3.05796
3.09361
3.12521
3.15074
3.16949
3.1951
3.21486
3.26548
3.38504
3.54409
3.87021
4.8704
7.18808
10.4733
11.7527
13.6306
18.3637
28.0939
34.8959
44.6545
53.2457
62.2137
3.01137
3.06063
3.09699
3.12442
3.14651
3.17255
3.19408
3.214
3.26596
3.38585
3.54547
3.8747
4.88187
7.25212
10.5235
11.8013
13.7401
19.0448
27.8017
35.0466
44.4798
54.1478
61.8481
3.01072
3.05476
3.09288
3.1242
3.14561
3.16889
3.19403
3.21306
3.26362
3.38026
3.5369
3.85132
4.80086
7.08551
10.3373
11.641
13.6502
18.0296
27.4016
35.0108
44.6284
51.8331
61.8087
3.01234
3.05485
3.0927
3.12365
3.1474
3.17045
3.19091
3.21436
3.26133
3.37499
3.52783
3.82782
4.72271
6.90523
10.2159
11.6491
13.5819
18.1828
27.3829
33.5292
44.5008
51.6507
62.7454
3.00404
3.05254
3.08831
3.11766
3.14684
3.16955
3.18878
3.21369
3.25631
3.36802
3.51853
3.80482
4.64848
6.76899
10.0999
11.6251
13.8449
18.5505
26.0474
33.1606
43.5513
51.1598
62.2323
3.00985
3.05114
3.08541
3.11612
3.143
3.16398
3.18084
3.21088
3.25226
3.36133
3.50871
3.7818
4.58029
6.58891
9.96309
11.5881
14.2379
17.9323
25.7826
33.5937
43.1333
51.4975
59.783
3.00034
3.05251
3.07449
3.10601
3.13962
3.16037
3.17816
3.20803
3.2448
3.35263
3.49782
3.75819
4.51595
6.44538
9.79229
11.6582
14.4793
18.3045
26.2919
33.4748
42.268
49.2954
55.8596
3.0036
3.05241
3.07087
3.10257
3.13203
3.1497
3.17916
3.20305
3.23834
3.34365
3.4866
3.73496
4.45277
6.25489
9.62641
11.8121
14.9808
17.6775
25.1551
32.9532
40.1636
48.4622
55.2933
2.99808
3.04672
3.06925
3.10396
3.1182
3.14425
3.17632
3.1964
3.2318
3.3326
3.47294
3.70989
4.38547
6.13186
9.33704
11.7398
15.3812
18.126
24.4791
32.552
37.584
48.6263
56.3552
2.98797
3.04007
3.06885
3.0986
3.11328
3.14213
3.17022
3.18933
3.2276
3.32051
3.4585
3.68496
4.3119
5.94699
9.18321
11.386
14.9273
18.9875
23.3157
31.5597
37.0679
48.0136
54.747
2.97022
3.02303
3.06334
3.08909
3.11224
3.13446
3.1617
3.17889
3.21708
3.30549
3.44065
3.65728
4.23112
5.81337
8.66254
11.5493
15.0606
19.0623
23.0416
30.034
37.6418
46.2342
52.414
2.94525
3.00769
3.05314
3.07789
3.10362
3.12226
3.15367
3.16964
3.20468
3.28915
3.42164
3.62874
4.14924
5.66815
8.53318
11.4051
15.088
18.7022
23.5001
29.0116
36.2139
43.9262
49.3819
2.93621
2.99501
3.04096
3.0671
3.07969
3.10473
3.14202
3.15784
3.1897
3.26967
3.39836
3.59776
4.04252
5.53655
8.67935
11.3427
15.8169
18.4514
23.5199
28.0201
34.5077
41.5593
46.7246
2.93692
2.98363
3.02473
3.05325
3.06533
3.08977
3.12856
3.14474
3.1752
3.25051
3.37438
3.56754
3.98432
5.3745
8.48071
11.5409
15.1862
18.4045
22.3977
27.4334
31.7796
38.7385
43.8015
2.92244
2.96612
3.00278
3.03318
3.04571
3.07546
3.11004
3.12629
3.15641
3.22704
3.34511
3.53176
3.89672
5.22187
8.06847
11.8639
15.8367
18.0063
22.0471
26.5505
30.6868
36.4591
41.3175
2.90335
2.94076
2.9809
3.00985
3.01917
3.05832
3.09032
3.10682
3.13679
3.20279
3.31523
3.49306
3.88899
5.06184
7.82476
11.1112
14.8834
18.2106
20.536
24.9711
27.6276
34.3517
38.914
2.87786
2.91176
2.95564
2.9839
3.01278
3.03457
3.06424
3.0812
3.11053
3.17151
3.27746
3.44681
3.82919
4.88353
7.24417
10.9538
14.8576
17.663
20.1141
24.0703
26.5244
32.6991
36.7818
2.85083
2.88064
2.93106
2.95997
2.9899
3.00976
3.03679
3.05504
3.08342
3.1395
3.23903
3.39998
3.76459
4.64186
6.8805
11.0152
15.1131
16.9777
19.1608
23.1414
25.6723
31.0493
35.3759
2.81726
2.85416
2.8998
2.92993
2.95457
2.97706
3.00074
3.02041
3.04728
3.09856
3.19039
3.34173
3.69487
4.34412
6.59395
9.98818
13.7509
16.5919
18.5701
20.9191
24.433
28.9934
34.643
2.78328
2.82778
2.86732
2.89885
2.91728
2.94361
2.96435
2.98537
3.01103
3.05822
3.1429
3.28412
3.61299
4.29588
6.04727
9.73167
14.6697
15.9162
17.8667
21.7862
24.2933
29.7359
32.6085
2.74075
2.78936
2.8242
2.85669
2.87057
2.89929
2.9174
2.93877
2.96287
3.006
3.08272
3.21292
3.51072
4.37801
5.95653
9.29178
13.2428
15.4942
17.5665
20.6351
25.0286
27.879
28.6706
2.6976
2.74812
2.7798
2.81307
2.82554
2.85516
2.87184
2.8931
2.91607
2.95585
3.02583
3.14539
3.41167
4.29157
5.76471
9.10009
13.9071
15.9962
18.2212
21.2414
23.5975
25.3599
27.5918
2.64168
2.69231
2.72168
2.75476
2.76785
2.7963
2.81181
2.83178
2.85299
2.88894
2.95152
3.05984
3.29802
4.12039
5.71701
8.7759
13.5967
15.8062
18.0508
19.927
21.8687
24.5398
26.2426
2.58567
2.63735
2.66489
2.69737
2.71313
2.73954
2.75516
2.77408
2.79407
2.82695
2.88344
2.98165
3.19378
3.934
5.50351
8.60913
12.9427
15.0683
16.7771
18.4426
20.9428
22.8993
20.9635
2.51342
2.56559
2.59099
2.62148
2.63966
2.6624
2.67779
2.69477
2.71249
2.74149
2.7909
2.87804
3.06618
3.72571
5.41909
8.82645
12.1129
13.8704
15.1525
17.5031
19.5722
18.4694
15.4692
2.44556
2.49994
2.52303
2.55152
2.57251
2.59225
2.60822
2.6243
2.6408
2.6667
2.71074
2.78877
2.95596
3.53536
5.35116
7.94447
11.1453
12.3859
14.1354
16.3307
16.3104
13.9287
11.6111
2.35813
2.41177
2.43195
2.45703
2.47843
2.49434
2.5093
2.52322
2.53716
2.55877
2.59584
2.66363
2.81241
3.33474
5.62819
7.83792
10.0018
11.0947
13.0239
14.2899
12.571
10.6554
8.97455
2.283
2.33688
2.35447
2.37692
2.39914
2.41294
2.42772
2.44101
2.45395
2.47276
2.50543
2.56604
2.70005
3.16497
5.61994
8.14637
8.79096
10.2441
11.865
11.4623
9.6633
8.42784
6.92006
2.18083
2.22922
2.24329
2.2614
2.28084
2.29127
2.30344
2.31404
2.32404
2.33859
2.36469
2.41678
2.5388
3.01018
5.29596
7.55003
7.66562
9.31461
10.136
8.83608
7.67953
6.70641
5.06379
2.10245
2.14879
2.15995
2.17529
2.19391
2.20355
2.21501
2.22508
2.2343
2.24674
2.2708
2.31704
2.43082
2.86334
5.1874
6.75828
6.9854
8.4115
8.26853
7.03764
6.31648
5.2567
3.55258
1.9832
2.01743
2.02404
2.03423
2.04715
2.05298
2.06041
2.06707
2.0727
2.08139
2.09962
2.13904
2.24593
2.77618
4.61416
5.6681
6.22557
7.04351
6.32705
5.55196
4.9669
3.77729
2.5906
1.91365
1.94549
1.949
1.95888
1.97057
1.97281
1.97837
1.984
1.98832
1.99869
2.00797
2.05666
2.16096
2.61666
4.49041
5.09845
5.86606
6.19705
5.40609
4.88127
4.11956
2.7229
2.25435
1.74386
1.75435
1.75168
1.75095
1.7543
1.75793
1.76001
1.76177
1.76373
1.76411
1.78406
1.80476
1.92429
2.59128
3.68723
4.14134
4.75393
4.44858
3.74061
3.27217
2.47669
1.97391
1.86461
3.09298
2.77766
2.58697
2.46731
2.38548
2.33783
2.29776
2.27483
2.25169
2.2429
2.23421
2.2368
2.24662
2.26879
2.31036
2.38023
2.4949
2.61572
2.80402
2.93437
3.12257
3.22694
3.38271
3.10211
2.78612
2.59343
2.47809
2.39873
2.34858
2.30341
2.28072
2.25566
2.24564
2.23588
2.23834
2.24778
2.26927
2.3099
2.37865
2.49202
2.61229
2.79619
2.92458
3.11661
3.22331
3.38146
3.11438
2.80744
2.61421
2.49557
2.40742
2.35374
2.3085
2.28374
2.25819
2.24824
2.23754
2.23963
2.24831
2.26943
2.30946
2.37793
2.49113
2.611
2.78885
2.9161
3.10315
3.21729
3.38645
3.12721
2.8179
2.62191
2.50295
2.41694
2.3642
2.31535
2.28895
2.26167
2.2502
2.23855
2.24046
2.2487
2.26924
2.30796
2.37851
2.4887
2.6089
2.78498
2.91206
3.09635
3.21024
3.38089
3.13632
2.83528
2.64556
2.5249
2.4312
2.37296
2.32161
2.29351
2.26554
2.25339
2.24047
2.24152
2.24894
2.26986
2.30698
2.38426
2.48698
2.60648
2.77225
2.90258
3.09529
3.21776
3.3924
3.14546
2.85095
2.65555
2.52958
2.43378
2.37487
2.32322
2.29484
2.26682
2.25441
2.24122
2.24217
2.24843
2.27356
2.30697
2.38584
2.48385
2.60204
2.76976
2.89926
3.08857
3.20892
3.386
3.151
2.85821
2.66251
2.53785
2.44249
2.38357
2.3319
2.30271
2.27415
2.26082
2.24639
2.24727
2.25316
2.27659
2.30954
2.38852
2.48627
2.60799
2.77908
2.91094
3.10316
3.22044
3.39339
3.14889
2.85535
2.65796
2.53342
2.43713
2.3807
2.33043
2.30192
2.27372
2.26048
2.24637
2.24743
2.25358
2.2764
2.31013
2.39203
2.4914
2.61691
2.79095
2.93338
3.13048
3.27095
3.44567
2.94584
2.60854
2.44702
2.35683
2.30208
2.266
2.24542
2.2298
2.2196
2.21561
2.21377
2.22015
2.2386
2.27566
2.33786
2.44301
2.60902
2.87107
3.08224
3.4063
3.64194
3.96141
4.24981
2.95681
2.61529
2.45322
2.36087
2.30595
2.2688
2.24803
2.23241
2.22125
2.21678
2.21456
2.22082
2.23891
2.27585
2.33654
2.43754
2.59749
2.84757
3.04848
3.3597
3.57351
3.88843
4.12898
2.95846
2.62054
2.45955
2.3657
2.31066
2.27209
2.25099
2.23458
2.22282
2.21875
2.21569
2.22147
2.2391
2.27452
2.33298
2.42982
2.58655
2.82364
3.01199
3.30302
3.5064
3.82238
4.03354
2.97049
2.62843
2.46639
2.37018
2.31436
2.27542
2.25305
2.23716
2.22456
2.22024
2.2167
2.22233
2.23922
2.2725
2.33081
2.42529
2.5892
2.80497
2.98121
3.25677
3.44823
3.74454
3.92335
2.97343
2.63484
2.47371
2.37646
2.31922
2.27908
2.2562
2.23969
2.22648
2.22212
2.21792
2.22318
2.23948
2.27159
2.32841
2.41976
2.58667
2.78633
2.95191
3.20956
3.38973
3.67298
3.835
2.98675
2.64445
2.48102
2.38144
2.32306
2.28287
2.25826
2.24226
2.22848
2.22407
2.21923
2.22421
2.23984
2.2707
2.32711
2.41824
2.57198
2.76896
2.92582
3.16868
3.33893
3.60365
3.76056
2.99083
2.65231
2.48959
2.38909
2.32826
2.28737
2.26152
2.24503
2.23059
2.22586
2.22049
2.22516
2.24008
2.26989
2.32528
2.41423
2.55736
2.74922
2.9015
3.12848
3.28484
3.53312
3.67508
3.0056
2.66438
2.49712
2.39502
2.33233
2.29115
2.26423
2.2478
2.23295
2.228
2.22202
2.2264
2.24039
2.2696
2.32302
2.4098
2.54491
2.72908
2.88936
3.10255
3.25218
3.49262
3.62797
3.01058
2.67347
2.50726
2.40355
2.33856
2.29686
2.26762
2.25075
2.23516
2.22992
2.22348
2.22758
2.24084
2.26984
2.3198
2.40348
2.53423
2.70223
2.88712
3.06561
3.21208
3.43716
3.55869
3.02683
2.68858
2.51533
2.41057
2.34283
2.30056
2.27109
2.25375
2.23765
2.23182
2.22502
2.22888
2.24142
2.26942
2.31848
2.39869
2.52383
2.68146
2.88264
3.03948
3.20474
3.41968
3.5321
3.03236
2.69846
2.52705
2.42007
2.35069
2.3073
2.27489
2.25713
2.24009
2.23392
2.22672
2.23033
2.24225
2.2695
2.31759
2.39472
2.5159
2.66131
2.87229
2.99802
3.20769
3.38407
3.48814
3.04973
2.71683
2.53635
2.4277
2.3551
2.31137
2.27881
2.26013
2.24231
2.23543
2.2282
2.2317
2.24347
2.26947
2.31687
2.3927
2.50933
2.65389
2.84499
2.9813
3.20454
3.33917
3.4576
3.05563
2.72665
2.54918
2.43873
2.36461
2.31879
2.28323
2.26431
2.24509
2.23764
2.22997
2.23323
2.24433
2.26955
2.31584
2.3893
2.50641
2.63846
2.83681
2.97301
3.18025
3.28578
3.44805
3.073
2.74804
2.56026
2.44637
2.36925
2.32368
2.28751
2.26704
2.24685
2.23895
2.23134
2.2345
2.24531
2.26931
2.31353
2.38605
2.50814
2.63177
2.82446
2.95914
3.15777
3.26864
3.42411
3.07935
2.75658
2.57266
2.45881
2.38007
2.33187
2.29242
2.27203
2.24986
2.24124
2.23296
2.23588
2.24596
2.26917
2.31215
2.38298
2.50516
2.62675
2.81747
2.95047
3.14586
3.25623
3.40688
2.86424
2.53222
2.38234
2.30051
2.25009
2.2234
2.21839
2.22209
2.24522
2.27912
2.35336
2.45098
2.55586
2.69709
2.89388
3.15691
3.46483
3.89706
4.33333
4.9286
5.43798
6.04192
6.5258
2.8682
2.53515
2.38721
2.30498
2.25274
2.22454
2.21658
2.21272
2.22113
2.24388
2.30213
2.38888
2.48673
2.61767
2.80752
3.06668
3.37614
3.83538
4.26484
4.85828
5.3643
5.97979
6.44707
2.86956
2.5375
2.39049
2.30765
2.25425
2.22437
2.21269
2.20441
2.20485
2.21836
2.26821
2.34366
2.43254
2.55842
2.7465
3.00468
3.30582
3.75798
4.19155
4.7909
5.29334
5.90028
6.3728
2.87389
2.54059
2.3941
2.31145
2.25735
2.22676
2.21446
2.20394
2.19819
2.20318
2.23825
2.29927
2.37928
2.49686
2.67269
2.92529
3.22383
3.68303
4.11205
4.70706
5.20643
5.84468
6.29307
2.87537
2.54265
2.39651
2.31424
2.25969
2.22834
2.21627
2.20508
2.19638
2.19553
2.22038
2.27058
2.34154
2.44668
2.61606
2.86044
3.1511
3.6023
4.04106
4.63862
5.12625
5.75269
6.20493
2.87959
2.54524
2.39887
2.31634
2.26185
2.22972
2.21743
2.20608
2.19576
2.19243
2.20565
2.24141
2.30286
2.40231
2.55642
2.79139
3.07891
3.52679
3.95316
4.55616
5.03763
5.69173
6.12816
2.88115
2.54736
2.40098
2.31882
2.26475
2.23183
2.21962
2.20845
2.19763
2.19291
2.20157
2.22926
2.28141
2.36601
2.51137
2.73397
3.01273
3.44645
3.88526
4.48079
4.94257
5.59337
6.02163
2.88506
2.54961
2.40278
2.32048
2.26642
2.23316
2.22088
2.20986
2.19924
2.19363
2.19923
2.21749
2.26132
2.34134
2.4725
2.68184
2.95573
3.38398
3.8005
4.40863
4.86011
5.51694
5.93963
2.88658
2.55197
2.40453
2.32211
2.26866
2.2347
2.22205
2.21143
2.20075
2.19545
2.1997
2.21506
2.2513
2.31881
2.44148
2.63698
2.90164
3.3129
3.73694
4.33061
4.7608
5.42025
5.82431
2.8904
2.55436
2.40656
2.32395
2.27092
2.23657
2.22328
2.21302
2.20316
2.19664
2.20118
2.21469
2.24521
2.30942
2.42198
2.60547
2.86334
3.26805
3.6646
4.26521
4.68332
5.32495
5.72446
2.89187
2.55695
2.40838
2.32505
2.27259
2.23783
2.22391
2.2139
2.20425
2.199
2.20245
2.21455
2.24282
2.2996
2.40451
2.57522
2.82397
3.2135
3.61123
4.19313
4.59554
5.2331
5.61329
2.8958
2.55965
2.41039
2.32701
2.27489
2.24017
2.22485
2.21528
2.206
2.20043
2.20373
2.21563
2.24258
2.2976
2.39671
2.5606
2.80275