/*--------------------------------*- C++ -*----------------------------------*\
  =========                 |
  \\      /  F ield         | OpenFOAM: The Open Source CFD Toolbox
   \\    /   O peration     | Website:  https://openfoam.org
    \\  /    A nd           | Version:  7
     \\/     M anipulation  |
\*---------------------------------------------------------------------------*/
FoamFile
{
    version     2.0;
    format      ascii;
    class       volScalarField;
    location    "82";
    object      p;
}
// * * * * * * * * * * * * * * * * * * * * * * * * * * * * * * * * * * * * * //

dimensions      [0 2 -2 0 0 0 0];

internalField   nonuniform List<scalar> 
12842
(
0.898573
0.944424
0.970817
1.01754
1.08781
1.17404
1.27389
1.39723
1.5692
1.8292
2.22562
2.80599
3.60541
4.63471
5.87266
7.26793
8.74961
10.2415
11.6751
12.9988
14.1831
15.2128
16.096
0.69222
0.733853
0.730307
0.726497
0.720935
0.699348
0.6526
0.586137
0.525207
0.514542
0.612754
0.88157
1.3721
2.10968
3.0835
4.24869
5.53874
6.88194
8.21498
9.48872
10.6719
11.7369
12.6874
0.532828
0.560223
0.530194
0.480853
0.406256
0.284643
0.0993485
-0.147271
-0.428456
-0.693345
-0.873058
-0.892313
-0.685739
-0.217074
0.507998
1.44546
2.5298
3.69402
4.88317
6.05442
7.17985
8.22073
9.18376
0.407056
0.419741
0.363555
0.271648
0.133908
-0.0815323
-0.399347
-0.818498
-1.30992
-1.81622
-2.25844
-2.54792
-2.6065
-2.38995
-1.90355
-1.19519
-0.331835
0.625163
1.6328
2.65791
3.6798
4.64868
5.57989
0.304011
0.308264
0.223369
0.093106
-0.100913
-0.403974
-0.847549
-1.43036
-2.12129
-2.85687
-3.54865
-4.09496
-4.40619
-4.4323
-4.18165
-3.70963
-3.08597
-2.36493
-1.57394
-0.733739
0.145159
1.00175
1.8654
0.217818
0.221072
0.103822
-0.0572826
-0.299615
-0.683039
-1.24248
-1.97632
-2.85244
-3.80282
-4.73047
-5.52183
-6.0772
-6.34188
-6.32954
-6.1053
-5.74224
-5.28608
-4.7454
-4.12659
-3.42712
-2.71949
-1.95522
0.1453
0.153097
0.0010041
-0.180363
-0.462968
-0.918346
-1.58
-2.44886
-3.49221
-4.64027
-5.78829
-6.81303
-7.6057
-8.10722
-8.33737
-8.37234
-8.28929
-8.12507
-7.86687
-7.50588
-7.02281
-6.50299
-5.87031
0.0848084
0.0996545
-0.0873197
-0.277332
-0.593243
-1.11063
-1.85732
-2.84279
-4.03289
-5.36071
-6.71427
-7.96413
-8.99231
-9.73398
-10.2132
-10.5171
-10.7279
-10.8758
-10.926
-10.8564
-10.6253
-10.3367
-9.86801
0.028904
0.0571073
-0.159254
-0.344344
-0.684481
-1.24815
-2.05354
-3.12679
-4.42556
-5.89179
-7.40318
-8.8302
-10.0449
-10.9783
-11.6577
-12.1819
-12.6412
-13.0639
-13.3946
-13.6035
-13.6152
-13.5742
-13.2692
-0.025119
0.0196457
-0.222328
-0.395975
-0.758174
-1.35971
-2.20891
-3.35383
-4.73708
-6.31307
-7.94546
-9.5088
-10.8642
-11.9416
-12.7711
-13.4643
-14.1212
-14.7718
-15.3454
-15.8061
-16.0496
-16.2362
-16.1191
-0.0700084
-0.0116275
-0.273996
-0.435492
-0.821824
-1.45774
-2.34586
-3.55945
-5.02168
-6.70278
-8.45067
-10.1471
-11.641
-12.8623
-13.8427
-14.7063
-15.5642
-16.4515
-17.2857
-18.0263
-18.5399
-18.9928
-19.1088
-0.106693
-0.0378502
-0.31262
-0.463773
-0.874577
-1.53952
-2.46228
-3.74018
-5.27614
-7.05743
-8.9172
-10.7463
-12.3806
-13.751
-14.8878
-15.9265
-16.9905
-18.1247
-19.2381
-20.288
-21.1099
-21.8714
-22.2567
-0.138074
-0.0603893
-0.339071
-0.484286
-0.917943
-1.60624
-2.5608
-3.89823
-5.50387
-7.38091
-9.35102
-11.3141
-13.0938
-14.6203
-15.9199
-17.1382
-18.4123
-19.8016
-21.211
-22.5975
-23.7627
-24.8723
-25.5651
-0.166114
-0.0796859
-0.355421
-0.500742
-0.954077
-1.66103
-2.64634
-4.03886
-5.71193
-7.68149
-9.76252
-11.8626
-13.794
-15.4842
-16.952
-18.3516
-19.8353
-21.4825
-23.1989
-24.9431
-26.4809
-27.9758
-29.0152
-0.191987
-0.0953653
-0.364145
-0.515867
-0.984544
-1.70685
-2.72289
-4.16625
-5.90561
-7.96483
-10.1581
-12.3981
-14.4872
-16.3479
-17.9875
-19.5667
-21.2555
-23.1581
-25.1866
-27.3023
-29.2348
-31.1434
-32.5672
-0.216693
-0.106879
-0.3682
-0.53088
-1.01004
-1.74558
-2.79245
-4.2824
-6.08721
-8.23322
-10.5401
-12.9222
-15.1746
-17.2112
-19.0243
-20.778
-22.661
-24.8074
-27.1428
-29.6309
-31.9747
-34.3099
-36.156
-0.241141
-0.113733
-0.370426
-0.545883
-1.03093
-1.77838
-2.8555
-4.38773
-6.25673
-8.48624
-10.9073
-13.4331
-15.8538
-18.0711
-20.058
-21.9777
-24.038
-26.4064
-29.0315
-31.8781
-34.6401
-37.4009
-39.7032
-0.265027
-0.116054
-0.373102
-0.560102
-1.04736
-1.8058
-2.91166
-4.48206
-6.41335
-8.72307
-11.2586
-13.9296
-16.524
-18.9278
-21.0894
-23.1654
-25.3813
-27.9412
-30.8255
-33.9997
-37.166
-40.3357
-43.1033
-0.287509
-0.114515
-0.377425
-0.572646
-1.05976
-1.82833
-2.96053
-4.5653
-6.55621
-8.94289
-11.5927
-14.4108
-17.1857
-19.7836
-22.1227
-24.3446
-26.6879
-29.3953
-32.4861
-35.9304
-39.4517
-42.9891
-46.193
-0.307657
-0.110301
-0.383778
-0.582676
-1.06862
-1.84635
-3.00203
-4.63802
-6.68559
-9.14655
-11.9106
-14.8789
-17.8429
-20.6455
-23.1672
-25.5236
-27.9576
-30.7499
-33.9658
-37.5861
-41.3681
-45.1954
-48.7622
-0.324683
-0.104752
-0.391723
-0.590021
-1.07482
-1.86051
-3.0365
-4.70094
-6.80179
-9.33459
-12.2128
-15.335
-18.4979
-21.5182
-24.2299
-26.7084
-29.1875
-31.9819
-35.2071
-38.8651
-42.7583
-46.7399
-50.5341
-0.33839
-0.0991012
-0.400654
-0.594384
-1.07864
-1.87107
-3.0648
-4.75591
-6.90734
-9.5102
-12.5025
-15.7828
-19.1548
-22.4071
-25.3173
-27.9039
-30.3734
-33.0656
-36.1486
-39.6577
-43.4496
-47.3748
-51.1776
-0.348092
-0.0943608
-0.40934
-0.596777
-1.08106
-1.87848
-3.08677
-4.80219
-7.00084
-9.67186
-12.7782
-16.2209
-19.8135
-23.3152
-26.4374
-29.1216
-31.5221
-33.9875
-36.7396
-39.8598
-43.2787
-46.8613
-50.3531
-0.353774
-0.0912458
-0.416312
-0.594877
-1.08072
-1.88351
-3.10639
-4.84576
-7.0873
-9.81863
-13.0272
-16.6193
-20.4245
-24.178
-27.523
-30.306
-32.5984
-34.7267
-36.9577
-39.4337
-42.1808
-45.0805
-47.8473
-0.364127
-0.0927761
-0.424053
-0.593998
-1.08244
-1.89114
-3.12813
-4.88959
-7.16783
-9.95028
-13.2474
-16.974
-20.9811
-24.9871
-28.5688
-31.4604
-33.619
-35.307
-36.819
-38.3771
-40.1444
-42.0378
-43.7314
-0.369044
-0.093618
-0.428781
-0.592241
-1.08576
-1.90352
-3.15813
-4.94606
-7.26341
-10.0994
-13.4845
-17.3443
-21.5531
-25.8164
-29.6462
-32.6492
-34.6449
-35.7976
-36.4186
-36.8598
-37.4835
-38.2442
-38.733
-0.368086
-0.0929677
-0.429606
-0.589591
-1.08989
-1.91859
-3.19161
-5.00678
-7.36086
-10.2483
-13.7156
-17.704
-22.1119
-26.6393
-30.7368
-33.873
-35.7139
-36.2975
-35.943
-35.1949
-34.6648
-34.3081
-33.6255
-0.364826
-0.0918547
-0.428324
-0.587466
-1.09517
-1.93543
-3.22561
-5.06612
-7.45177
-10.3857
-13.928
-18.04
-22.6463
-27.4489
-31.8446
-35.1592
-36.8967
-36.9506
-35.6413
-33.7669
-32.1714
-30.7322
-28.9366
-0.361647
-0.0909306
-0.426734
-0.587557
-1.10283
-1.95469
-3.26019
-5.1234
-7.53557
-10.5112
-14.1224
-18.3544
-23.1606
-28.253
-32.9881
-36.5522
-38.2862
-37.9303
-35.8071
-32.9866
-30.4489
-27.9406
-25.0581
-0.359715
-0.0904828
-0.426162
-0.590658
-1.11341
-1.97667
-3.29578
-5.17928
-7.61441
-10.6283
-14.3044
-18.6541
-23.663
-29.062
-34.1862
-38.0988
-39.9808
-39.422
-36.7513
-33.2527
-29.9193
-26.4573
-22.6363
-0.35977
-0.0905852
-0.427221
-0.596617
-1.12639
-2.00038
-3.33145
-5.23286
-7.68847
-10.7376
-14.4754
-18.9398
-24.1532
-29.8749
-35.4442
-39.8297
-42.0638
-41.6005
-38.7645
-34.9166
-31.0392
-26.943
-22.4744
-0.36218
-0.0912728
-0.42998
-0.604385
-1.14027
-2.0238
-3.36513
-5.28201
-7.75621
-10.8374
-14.6339
-19.2091
-24.6272
-30.6868
-36.7605
-41.7652
-44.6056
-44.623
-42.0912
-38.3325
-34.3946
-30.1477
-25.3425
-0.366628
-0.0922523
-0.433854
-0.612597
-1.1534
-2.04494
-3.3949
-5.32486
-7.81608
-10.9261
-14.7776
-19.4581
-25.0786
-31.4887
-38.1261
-43.9107
-47.6573
-48.6185
-46.9587
-43.9476
-40.7403
-37.011
-32.3084
-0.372278
-0.0931473
-0.438077
-0.619892
-1.16441
-2.06245
-3.41979
-5.36091
-7.86801
-11.0038
-14.9065
-19.6855
-25.5038
-32.2745
-39.5321
-46.2633
-51.2519
-53.6854
-53.5984
-52.2636
-50.7643
-48.3349
-44.4208
-0.378101
-0.0935357
-0.441869
-0.625469
-1.17276
-2.07614
-3.44016
-5.39116
-7.91342
-11.0721
-15.0216
-19.8911
-25.8998
-33.0361
-40.9635
-48.8042
-55.3871
-59.8619
-62.1568
-63.4875
-64.4862
-63.8526
-61.1707
-0.383311
-0.0932822
-0.444851
-0.629065
-1.17862
-2.0867
-3.45733
-5.41765
-7.9547
-11.1339
-15.1253
-20.0764
-26.2647
-33.766
-42.4026
-51.4988
-60.0152
-67.0915
-72.555
-77.2261
-80.9132
-82.0233
-80.4932
-0.387464
-0.0924008
-0.446912
-0.631023
-1.18277
-2.09544
-3.47307
-5.44267
-7.99421
-11.1916
-15.2193
-20.2415
-26.5947
-34.4519
-43.8217
-54.2872
-65.0286
-75.1984
-84.4426
-92.6578
-98.683
-101.125
-100.494
-0.390509
-0.0911432
-0.448272
-0.631891
-1.18613
-2.10366
-3.48891
-5.46801
-8.03361
-11.2467
-15.3046
-20.3857
-26.8852
-35.0797
-45.1868
-57.0877
-70.2693
-83.9102
-97.2384
-108.805
-116.637
-120
-120.056
-0.392593
-0.0897284
-0.449169
-0.63233
-1.18956
-2.11239
-3.50584
-5.49459
-8.07339
-11.2994
-15.3802
-20.5067
-27.1294
-35.6305
-46.4535
-59.7971
-75.5307
-92.886
-110.294
-124.723
-133.909
-138.016
-138.714
-0.394012
-0.0884153
-0.449902
-0.63279
-1.19356
-2.1221
-3.52407
-5.52235
-8.11298
-11.3486
-15.4447
-20.6014
-27.3203
-36.085
-47.5724
-62.304
-80.5731
-101.696
-122.939
-139.695
-149.887
-154.63
-155.824
-0.395029
-0.0872982
-0.450601
-0.633586
-1.19834
-2.13285
-3.54331
-5.55057
-8.15114
-11.3927
-15.4956
-20.6661
-27.4499
-36.4228
-48.4882
-64.4928
-85.1482
-109.862
-134.538
-153.176
-164.155
-169.458
-171.195
-0.395898
-0.0864547
-0.451375
-0.634761
-1.20378
-2.14429
-3.56282
-5.57819
-8.1864
-11.43
-15.531
-20.698
-27.5121
-36.6261
-49.146
-66.2496
-89.0186
-116.91
-144.533
-164.694
-176.336
-182.108
-184.316
-0.396759
-0.0858112
-0.452175
-0.636284
-1.20964
-2.15596
-3.58188
-5.60419
-8.21759
-11.459
-15.5494
-20.6949
-27.5009
-36.6792
-49.4941
-67.4615
-91.9845
-122.447
-152.396
-173.74
-185.877
-191.954
-194.476
-0.39772
-0.0853221
-0.452982
-0.637979
-1.21558
-2.16737
-3.59982
-5.62782
-8.24393
-11.4793
-15.5504
-20.6561
-27.4126
-36.5709
-49.4891
-68.0175
-93.8676
-126.221
-157.744
-179.985
-192.502
-198.716
-201.331
-0.398791
-0.0848542
-0.453693
-0.639725
-1.22136
-2.1782
-3.61628
-5.64875
-8.26529
-11.4908
-15.5341
-20.5816
-27.2446
-36.2918
-49.1025
-67.8327
-94.4548
-127.992
-160.346
-183.146
-195.899
-202.187
-204.87
-0.399978
-0.0843461
-0.454286
-0.641355
-1.22675
-2.18822
-3.63112
-5.66698
-8.28189
-11.494
-15.5014
-20.4725
-26.996
-35.8362
-48.3219
-66.8359
-93.5664
-127.549
-160.117
-183.142
-195.989
-202.193
-204.729
-0.401226
-0.08371
-0.454701
-0.642817
-1.23169
-2.19744
-3.64449
-5.6829
-8.29453
-11.4902
-15.4538
-20.3307
-26.6677
-35.2026
-47.1447
-64.9826
-91.1511
-124.813
-157.097
-180.016
-192.704
-198.667
-200.907
-0.402446
-0.082876
-0.454921
-0.644007
-1.23613
-2.20591
-3.65667
-5.69705
-8.30406
-11.4806
-15.3931
-20.1587
-26.263
-34.3947
-45.5746
-62.2872
-87.2577
-119.833
-151.403
-173.915
-186.27
-191.984
-193.908
-0.403408
-0.0819441
-0.454912
-0.6449
-1.24011
-2.21395
-3.66856
-5.71128
-8.31403
-11.4716
-15.3307
-19.9774
-25.8206
-33.4813
-43.7275
-58.9726
-82.1827
-113.071
-143.561
-165.337
-177.09
-182.448
-184.192
-0.40592
-0.0815727
-0.455416
-0.645799
-1.24406
-2.22247
-3.68221
-5.72975
-8.33247
-11.4782
-15.2947
-19.8405
-25.4419
-32.641
-41.9266
-55.6132
-76.7331
-105.652
-134.825
-155.703
-166.686
-171.582
-173.127
-0.4077
-0.0805494
-0.455287
-0.645959
-1.24772
-2.23193
-3.69931
-5.75594
-8.3656
-11.5113
-15.304
-19.7836
-25.1998
-32.0165
-40.4749
-52.7405
-71.7713
-98.7139
-126.422
-146.325
-156.633
-161.249
-162.355
-0.408585
-0.0788573
-0.45439
-0.645234
-1.25112
-2.24263
-3.72054
-5.79071
-8.41406
-11.5706
-15.3573
-19.8054
-25.0976
-31.6366
-39.4673
-50.4949
-67.6494
-92.73
-118.913
-137.821
-147.626
-151.758
-152.178
-0.40882
-0.0767825
-0.45287
-0.643922
-1.25465
-2.25503
-3.74621
-5.83375
-8.47616
-11.6519
-15.446
-19.8911
-25.1112
-31.474
-38.88
-48.8713
-64.4871
-87.8619
-112.546
-130.436
-139.552
-142.813
-142.628
-0.408482
-0.0745649
-0.45092
-0.642335
-1.25877
-2.26964
-3.77666
-5.88474
-8.55007
-11.7503
-15.5606
-20.0228
-25.2091
-31.4783
-38.6193
-47.8
-62.2204
-84.0451
-107.289
-124.019
-132.07
-134.388
-133.792
-0.407574
-0.0722961
-0.448717
-0.640897
-1.26392
-2.28669
-3.81147
-5.94196
-8.63207
-11.8586
-15.689
-20.1786
-25.3574
-31.5977
-38.5764
-47.1898
-60.6934
-81.132
-102.995
-118.38
-125.245
-126.842
-125.942
-0.406204
-0.0701662
-0.446507
-0.639922
-1.27045
-2.30648
-3.85075
-6.00509
-8.72114
-11.9742
-15.8269
-20.3497
-25.5433
-31.8186
-38.6994
-46.9914
-59.7962
-79.0367
-99.6084
-113.55
-119.311
-120.387
-119.182
-0.404751
-0.0682005
-0.444561
-0.639694
-1.27859
-2.32892
-3.89387
-6.07259
-8.81451
-12.0922
-15.966
-20.5205
-25.737
-32.0796
-38.8899
-47.0137
-59.206
-77.2543
-96.3969
-108.782
-113.473
-114.094
-112.564
-0.402579
-0.0659917
-0.442082
-0.639306
-1.28686
-2.35157
-3.93656
-6.13749
-8.90113
-12.1955
-16.0801
-20.6503
-25.8788
-32.2833
-39.0426
-47.0772
-58.7215
-75.6687
-93.3938
-104.31
-108.076
-108.359
-106.598
-0.400601
-0.0643328
-0.440347
-0.640222
-1.2968
-2.37581
-3.97989
-6.20035
-8.98107
-12.2836
-16.1679
-20.7346
-25.9536
-32.3822
-39.1118
-47.0524
-58.1565
-74.0068
-90.2812
-99.9054
-102.969
-103.087
-101.223
-0.398991
-0.0633306
-0.439557
-0.64251
-1.30827
-2.40126
-4.02327
-6.26076
-9.05447
-12.3584
-16.233
-20.7785
-25.9636
-32.3594
-39.0697
-46.8505
-57.3763
-72.0574
-86.805
-95.2778
-97.7465
-97.6972
-95.7606
-0.397594
-0.0626362
-0.439303
-0.645542
-1.32032
-2.42656
-4.06499
-6.31699
-9.1199
-12.4196
-16.2765
-20.7869
-25.9171
-32.2203
-38.9068
-46.4405
-56.329
-69.7615
-82.9243
-90.374
-92.2955
-91.9082
-89.8652
-0.3964
-0.0620635
-0.439332
-0.648767
-1.33214
-2.45068
-4.10389
-6.36814
-9.17703
-12.4685
-16.3015
-20.7666
-25.8274
-31.9871
-38.6345
-45.8366
-55.0284
-67.163
-78.7623
-85.2826
-86.6729
-85.7751
-83.5907
-0.395403
-0.0614855
-0.439452
-0.651881
-1.34334
-2.47321
-4.13979
-6.41463
-9.22734
-12.5086
-16.314
-20.7277
-25.71
-31.6891
-38.2732
-45.076
-53.5232
-64.3467
-74.4135
-80.0501
-80.8578
-79.4566
-77.1104
-0.394588
-0.0608363
-0.439504
-0.654596
-1.35362
-2.49401
-4.17286
-6.45735
-9.27275
-12.5436
-16.3197
-20.6787
-25.5772
-31.3543
-37.8302
-44.2027
-51.876
-61.4039
-69.9367
-74.6351
-74.7578
-72.9732
-70.4757
-0.393833
-0.0599976
-0.439279
-0.656736
-1.36285
-2.51316
-4.2036
-6.49735
-9.31516
-12.5765
-16.323
-20.6271
-25.4384
-31.0088
-37.3073
-43.2663
-50.1634
-58.419
-65.4247
-69.0446
-68.4185
-66.3273
-63.7182
-0.393072
-0.0589539
-0.438703
-0.658231
-1.37108
-2.53093
-4.23262
-6.53563
-9.35605
-12.6091
-16.3264
-20.5773
-25.2992
-30.6722
-36.715
-42.3019
-48.4502
-55.4543
-60.9768
-63.4041
-62.0294
-59.6376
-56.992
-0.392236
-0.0577089
-0.43778
-0.659232
-1.3786
-2.54785
-4.26074
-6.57324
-9.39668
-12.6426
-16.3316
-20.5324
-25.1627
-30.3568
-36.0797
-41.3275
-46.7607
-52.5428
-56.6786
-57.9103
-55.8436
-53.1412
-50.4431
-0.391353
-0.0563651
-0.436652
-0.65995
-1.38578
-2.56444
-4.28863
-6.61086
-9.43768
-12.6771
-16.3381
-20.4916
-25.0275
-30.0627
-35.4273
-40.3505
-45.0891
-49.6856
-52.5305
-52.6831
-50.0901
-47.0927
-44.2297
-0.39042
-0.0549831
-0.435444
-0.660648
-1.39296
-2.58116
-4.31677
-6.64881
-9.47905
-12.7119
-16.3447
-20.4523
-24.8889
-29.7799
-34.7723
-39.3676
-43.4307
-46.875
-48.5072
-47.6561
-44.7269
-41.5188
-38.4232
-0.389493
-0.0536528
-0.4343
-0.661487
-1.40036
-2.59818
-4.34521
-6.6868
-9.51999
-12.7451
-16.3481
-20.408
-24.7375
-29.4875
-34.1087
-38.3493
-41.7567
-44.0866
-44.5628
-42.7559
-39.5561
-36.2467
-32.99
-0.388559
-0.0523855
-0.433273
-0.662578
-1.40806
-2.6155
-4.37373
-6.72424
-9.55934
-12.7746
-16.3448
-20.3518
-24.5633
-29.1623
-33.4197
-37.2555
-40.0076
-41.3042
-40.7183
-38.0548
-34.5116
-31.1075
-27.7438
-0.387661
-0.0512127
-0.432411
-0.663915
-1.41602
-2.63291
-4.40189
-6.76027
-9.5957
-12.798
-16.331
-20.2763
-24.3554
-28.7805
-32.6814
-36.0545
-38.1251
-38.4625
-37.0243
-33.6828
-29.7238
-26.229
-22.7684
-0.386769
-0.0501003
-0.431684
-0.665471
-1.42412
-2.65017
-4.42924
-6.79419
-9.62796
-12.8138
-16.3042
-20.1764
-24.1067
-28.3259
-31.873
-34.7362
-36.0969
-35.5816
-33.4701
-29.6277
-25.2951
-21.7532
-18.4622
-0.385913
-0.049051
-0.431082
-0.667159
-1.4322
-2.66702
-4.45534
-6.82537
-9.65528
-12.8208
-16.2627
-20.0488
-23.8129
-27.7896
-30.9785
-33.302
-33.9391
-32.6763
-30.001
-25.8076
-21.2632
-17.6547
-14.6057
-0.385052
-0.0480212
-0.430549
-0.668924
-1.44017
-2.68325
-4.47991
-6.85352
-9.67736
-12.8188
-16.2063
-19.8937
-23.4752
-27.1732
-29.9947
-31.7608
-31.6833
-29.6985
-26.5749
-22.1193
-17.5432
-13.8509
-10.9109
-0.384219
-0.0470154
-0.430071
-0.670687
-1.44789
-2.69873
-4.50277
-6.8785
-9.69414
-12.808
-16.1356
-19.7124
-23.0972
-26.4842
-28.9253
-30.1228
-29.3709
-26.6864
-23.1266
-18.4048
-14.0368
-10.3815
-7.43518
-0.383368
-0.0460014
-0.429604
-0.672425
-1.45534
-2.71339
-4.52392
-6.90042
-9.7059
-12.7892
-16.0519
-19.5085
-22.6859
-25.7367
-27.7819
-28.4086
-27.0484
-23.7374
-19.8033
-14.8054
-10.6674
-7.2225
-4.36399
-0.382535
-0.0449952
-0.429153
-0.6741
-1.46246
-2.72722
-4.54337
-6.91938
-9.7129
-12.7627
-15.9563
-19.285
-22.248
-24.9434
-26.5773
-26.6438
-24.7567
-20.9548
-16.7268
-11.6759
-7.64173
-4.35555
-1.64125
-0.381674
-0.0439773
-0.428694
-0.675726
-1.46929
-2.74026
-4.56121
-6.9356
-9.71544
-12.7294
-15.8501
-19.0453
-21.7909
-24.1207
-25.328
-24.8583
-22.5298
-18.3975
-13.9212
-9.08614
-5.10516
-1.84232
0.815723
-0.380826
-0.0429726
-0.428245
-0.677295
-1.47581
-2.75255
-4.5775
-6.94914
-9.71357
-12.6892
-15.7334
-18.791
-21.3184
-23.2801
-24.048
-23.0791
-20.3846
-16.0532
-11.3774
-6.8022
-2.94283
0.276948
2.90915
-0.379943
-0.0419687
-0.427796
-0.678837
-1.48208
-2.76413
-4.59231
-6.96007
-9.70729
-12.6422
-15.6063
-18.5238
-20.8312
-22.4278
-22.7571
-21.3344
-18.3291
-13.9011
-9.09491
-4.71815
-1.05868
2.02088
4.55688
-0.379069
-0.0409925
-0.427369
-0.680354
-1.4881
-2.77502
-4.60561
-6.96827
-9.69631
-12.5878
-15.468
-18.243
-20.3308
-21.5709
-21.4787
-19.6458
-16.3738
-11.9319
-7.12786
-2.8884
0.557968
3.46042
5.81661
-0.378155
-0.0400328
-0.426957
-0.681874
-1.4939
-2.78524
-4.61738
-6.97363
-9.6803
-12.5254
-15.3178
-17.9476
-19.8212
-20.7242
-20.2324
-18.0318
-14.5451
-10.1292
-5.49504
-1.37843
1.91684
4.65318
6.79346
-0.377247
-0.0391145
-0.426581
-0.683397
-1.49947
-2.79475
-4.62752
-6.97586
-9.65872
-12.4542
-15.1542
-17.6352
-19.3008
-19.8892
-19.0221
-16.5113
-12.8762
-8.51376
-4.10614
-0.143085
3.01951
5.57657
7.51345
-0.376293
-0.0382247
-0.42623
-0.684943
-1.50483
-2.80352
-4.63591
-6.97473
-9.6311
-12.3734
-14.9764
-17.3048
-18.7637
-19.0538
-17.8481
-15.0928
-11.3666
-7.11794
-2.86841
0.891371
3.87658
6.23134
7.97168
-0.375344
-0.0373845
-0.425921
-0.686502
-1.50993
-2.81149
-4.64238
-6.96986
-9.59685
-12.282
-14.783
-16.9543
-18.205
-18.2111
-16.705
-13.7615
-9.98465
-5.90839
-1.7717
1.74605
4.51052
6.64913
8.2076
-0.37434
-0.0365785
-0.42564
-0.688084
-1.51478
-2.81859
-4.64678
-6.96098
-9.55554
-12.1796
-14.5737
-16.5833
-17.6245
-17.3725
-15.6053
-12.5145
-8.71067
-4.826
-0.841347
2.41841
4.95423
6.88863
8.2887
-0.373337
-0.0358253
-0.425399
-0.689672
-1.51932
-2.82472
-4.64892
-6.94774
-9.50668
-12.0655
-14.3479
-16.1911
-17.0204
-16.5473
-14.5728
-11.3671
-7.55072
-3.83719
-0.0771526
2.9272
5.24147
6.98738
8.25549
-0.372273
-0.0351083
-0.425181
-0.691267
-1.52354
-2.82982
-4.64863
-6.92989
-9.44996
-11.9395
-14.1059
-15.7801
-16.3942
-15.7307
-13.6162
-10.3321
-6.51198
-2.95603
0.546869
3.29167
5.39777
6.97736
8.12282
-0.371203
-0.0344437
-0.424994
-0.692847
-1.52739
-2.83375
-4.64571
-6.90712
-9.38505
-11.8014
-13.8479
-15.3522
-15.7524
-14.9083
-12.7132
-9.40092
-5.60016
-2.20409
1.04457
3.53409
5.44618
6.87672
7.91069
-0.370062
-0.0338148
-0.424822
-0.694408
-1.53082
-2.83646
-4.64002
-6.87924
-9.31178
-11.6512
-13.5751
-14.9106
-15.1075
-14.0773
-11.8366
-8.55502
-4.82027
-1.58278
1.41992
3.67223
5.41021
6.70591
7.64116
-0.368908
-0.0332378
-0.424668
-0.695924
-1.53379
-2.83782
-4.63138
-6.846
-9.22993
-11.4891
-13.2879
-14.4565
-14.4698
-13.2481
-10.9767
-7.77846
-4.16468
-1.07641
1.68166
3.72479
5.30417
6.47719
7.32786
-0.367669
-0.0326945
-0.424514
-0.697388
-1.53625
-2.83774
-4.61962
-6.80722
-9.13943
-11.3152
-12.9879
-13.9913
-13.8452
-12.4405
-10.1423
-7.06625
-3.61553
-0.676508
1.84908
3.70461
5.1414
6.20543
6.9772
-0.366412
-0.0322077
-0.424365
-0.698775
-1.53817
-2.83617
-4.60466
-6.76282
-9.04026
-11.1298
-12.6762
-13.5153
-13.2312
-11.6714
-9.34369
-6.42397
-3.16005
-0.376813
1.93626
3.62196
4.93286
5.90189
6.60022
-0.365042
-0.0317295
-0.424193
-0.700072
-1.53947
-2.83291
-4.58617
-6.71235
-8.932
-10.9329
-12.354
-13.0294
-12.6203
-10.9498
-8.58628
-5.83734
-2.77216
-0.154956
1.9552
3.48854
4.68857
5.56916
6.20102
-0.363728
-0.0313536
-0.424059
-0.701395
-1.5405
-2.82865
-4.5652
-6.65722
-8.81633
-10.7261
-12.0243
-12.5414
-12.0141
-10.2715
-7.88513
-5.35088
-2.48274
-0.0146585
1.90363
3.30607
4.40891
5.21526
5.79106
-0.362458
-0.0306873
-0.423922
-0.702892
-1.54131
-2.82253
-4.53857
-6.59045
-8.68157
-10.4945
-11.6682
-12.0208
-11.3791
-9.60876
-7.18998
-4.75034
-2.0899
0.167765
1.87693
3.14397
4.14534
4.88303
5.41258
-0.358786
-0.0284648
-0.421221
-0.701694
-1.53675
-2.80601
-4.49286
-6.4932
-8.50439
-10.213
-11.2736
-11.4995
-10.7887
-9.06445
-6.72423
-4.45117
-2.04761
0.0299199
1.63734
2.83699
3.76999
4.45991
4.96277
-0.356169
-0.0273562
-0.419353
-0.701008
-1.5297
-2.78111
-4.4287
-6.36413
-8.28176
-9.87205
-10.8177
-10.9384
-10.1796
-8.53656
-6.32789
-4.21495
-2.06742
-0.178059
1.3341
2.47116
3.34381
3.99578
4.47729
-0.355019
-0.0281319
-0.419311
-0.702094
-1.52181
-2.74989
-4.34872
-6.20587
-8.01596
-9.47177
-10.2895
-10.3048
-9.4981
-7.93723
-5.86408
-3.88249
-1.96887
-0.298071
1.06798
2.10682
2.91052
3.51919
3.97406
-0.35395
-0.02996
-0.420112
-0.703799
-1.51144
-2.70995
-4.2497
-6.01394
-7.70148
-9.01039
-9.69105
-9.60301
-8.7554
-7.27097
-5.33584
-3.4925
-1.79487
-0.347939
0.840355
1.75962
2.48146
3.03434
3.45536
-0.352353
-0.0322619
-0.420945
-0.704785
-1.4965
-2.65802
-4.12716
-5.78271
-7.33188
-8.48499
-9.02567
-8.84461
-7.97821
-6.57828
-4.80232
-3.12311
-1.62687
-0.38093
0.6359
1.43517
2.06882
2.55832
2.93809
-0.350055
-0.0349206
-0.42149
-0.704316
-1.4756
-2.59193
-3.97838
-5.50985
-6.90562
-7.89501
-8.2944
-8.03081
-7.17352
-5.88199
-4.29376
-2.79763
-1.48961
-0.418496
0.448689
1.13541
1.68269
2.1077
2.44112
-0.347136
-0.0378814
-0.421486
-0.701733
-1.44759
-2.51005
-3.80176
-5.19506
-6.42447
-7.24302
-7.50187
-7.16655
-6.34155
-5.1862
-3.8042
-2.50262
-1.37213
-0.456272
0.280251
0.864713
1.33171
1.6965
1.98642
-0.343322
-0.0409404
-0.42045
-0.696275
-1.41121
-2.41081
-3.59607
-4.83903
-5.89278
-6.53783
-6.66442
-6.27499
-5.49782
-4.49336
-3.32323
-2.21976
-1.25905
-0.482034
0.1389
0.633965
1.03107
1.34407
1.5944
-0.338666
-0.0440011
-0.417986
-0.687159
-1.36526
-2.29283
-3.36069
-4.4436
-5.3177
-5.79506
-5.80745
-5.38794
-4.67157
-3.8135
-2.84708
-1.93438
-1.13444
-0.483615
0.0368268
0.455552
0.793353
1.06128
1.27669
-0.333124
-0.0470655
-0.413807
-0.673846
-1.3089
-2.15559
-3.09679
-4.01375
-4.71125
-5.03617
-4.95907
-4.53309
-3.88776
-3.16378
-2.37697
-1.63751
-0.983346
-0.445788
-0.0137782
0.336584
0.620956
0.848367
1.03276
-0.326993
-0.0503074
-0.407819
-0.655857
-1.24164
-1.99953
-2.80766
-3.55804
-4.08953
-4.28435
-4.14406
-3.73081
-3.1599
-2.55583
-1.92097
-1.32964
-0.802542
-0.364882
-0.01069
0.280209
0.516707
0.706933
0.861778
-0.320172
-0.0536959
-0.399724
-0.632689
-1.16328
-1.82617
-2.49903
-3.08848
-3.47115
-3.5616
-3.38191
-2.99539
-2.49767
-1.99708
-1.48866
-1.02068
-0.601173
-0.248138
0.0393637
0.276831
0.471114
0.628762
0.757974
-0.312711
-0.0571835
-0.389132
-0.603585
-1.07377
-1.63798
-2.17838
-2.61896
-2.87468
-2.88684
-2.68814
-2.33742
-1.90987
-1.49754
-1.09202
-0.724539
-0.393986
-0.112279
0.119767
0.313734
0.473135
0.603236
0.710595
-0.304185
-0.060292
-0.375285
-0.567772
-0.973556
-1.43864
-1.85481
-2.16398
-2.31686
-2.27557
-2.07457
-1.76532
-1.40348
-1.06559
-0.742908
-0.455959
-0.197763
0.0256908
0.212891
0.371485
0.50299
0.611566
0.701927
-0.29446
-0.0626817
-0.357486
-0.52455
-0.863765
-1.23299
-1.5381
-1.7372
-1.8113
-1.73833
-1.54827
-1.28299
-0.981119
-0.705562
-0.448455
-0.223627
-0.021929
0.155518
0.30637
0.436026
0.544794
0.636104
0.713225
-0.282954
-0.0635787
-0.334914
-0.473815
-0.746708
-1.02712
-1.23816
-1.35017
-1.36743
-1.27982
-1.10976
-0.888417
-0.63997
-0.415911
-0.210685
-0.033009
0.125151
0.265922
0.387383
0.493151
0.582683
0.658326
0.722672
-0.269621
-0.0625628
-0.307245
-0.41616
-0.625821
-0.827778
-0.963697
-1.01141
-0.990126
-0.899315
-0.753772
-0.574504
-0.373419
-0.191956
-0.0276955
0.113529
0.237984
0.349671
0.447624
0.533605
0.6066
0.668611
0.721339
-0.253912
-0.058879
-0.274382
-0.353231
-0.505594
-0.64166
-0.721506
-0.725736
-0.680548
-0.593032
-0.47257
-0.332226
-0.173758
-0.0289202
0.101987
0.214863
0.313381
0.402528
0.481639
0.550758
0.608961
0.658597
0.700664
-0.235962
-0.0523419
-0.237085
-0.287503
-0.390904
-0.47455
-0.515585
-0.494291
-0.43693
-0.356212
-0.258853
-0.152989
-0.0328872
0.0790348
0.180956
0.270325
0.348261
0.419122
0.482254
0.5367
0.582406
0.621129
0.653429
-0.215484
-0.0426753
-0.196539
-0.2221
-0.286364
-0.330597
-0.347035
-0.314582
-0.254481
-0.18246
-0.104676
-0.0272471
0.0599216
0.14298
0.219629
0.288727
0.349669
0.405137
0.454268
0.496492
0.532111
0.562377
0.587386
-0.192867
-0.0303403
-0.154675
-0.160228
-0.19554
-0.211867
-0.214171
-0.180778
-0.125059
-0.0628762
-0.000636357
0.0553517
0.116208
0.175078
0.230149
0.281539
0.327752
0.370076
0.40718
0.439028
0.46608
0.489222
0.508286
-0.168419
-0.0159456
-0.113576
-0.104635
-0.12054
-0.118396
-0.113199
-0.0847554
-0.0380255
0.013501
0.0634859
0.104585
0.146328
0.186524
0.224164
0.260659
0.294122
0.324885
0.351715
0.374845
0.394697
0.411713
0.425618
-0.142923
-0.00072425
-0.0753719
-0.0573795
-0.0618872
-0.0486366
-0.0394626
-0.0179869
0.0177226
0.0581658
0.0979446
0.129014
0.157943
0.185103
0.209929
0.234765
0.257703
0.278535
0.296877
0.312878
0.32669
0.338549
0.348105
-0.117462
0.0140793
-0.0420432
-0.0195879
-0.0190324
-0.000257082
0.011206
0.0263789
0.0513053
0.0808672
0.111483
0.135438
0.156175
0.175013
0.191373
0.207981
0.222987
0.236431
0.248489
0.259005
0.268152
0.275929
0.282235
-0.0930222
0.026802
-0.0151397
0.00803393
0.00920624
0.0291023
0.0417853
0.0524243
0.0683426
0.0879419
0.109854
0.12774
0.142682
0.156006
0.166914
0.177866
0.18695
0.195159
0.202386
0.208548
0.213861
0.218307
0.222159
-0.0711516
0.036158
0.00409758
0.0253314
0.024256
0.0419413
0.0546235
0.0625469
0.0720841
0.0837362
0.0979943
0.110487
0.121007
0.130609
0.138306
0.145788
0.151292
0.156394
0.16052
0.163956
0.166817
0.169461
0.172062
-0.0529508
0.0407464
0.0149282
0.0324972
0.0277963
0.0409783
0.052102
0.0581887
0.0635879
0.0694707
0.0774066
0.0849775
0.091574
0.098042
0.103384
0.108108
0.111289
0.11421
0.116306
0.117985
0.119292
0.120781
0.122526
-0.0390009
0.0406664
0.0181271
0.0311569
0.0225861
0.0301603
0.0382957
0.0426636
0.0455903
0.0479433
0.0515194
0.0553279
0.0588873
0.063005
0.0668777
0.069865
0.0721121
0.0742587
0.0758545
0.0769454
0.0778825
0.0791435
0.0808148
-0.0318304
0.0337031
0.0127453
0.0217461
0.0102365
0.012083
0.0154211
0.0160333
0.0149968
0.0126668
0.0105944
0.00871799
0.00681113
0.00584239
0.00530261
0.00314692
0.000472298
-0.00240367
-0.00485788
-0.00645394
-0.00705198
-0.00671809
-0.00575125
-0.0200482
0.0294936
0.0124078
0.0176113
0.00692993
0.0074559
0.0108397
0.0135922
0.0161628
0.0180749
0.020149
0.022556
0.0252828
0.0291761
0.0342241
0.0390461
0.0444275
0.0488885
0.0508328
0.0502005
0.0485925
0.0474212
0.0470377
1.80943
1.83363
2.04293
2.42754
2.91994
3.54186
4.33045
5.33353
6.5926
8.13841
9.99118
12.1552
14.6265
17.3787
20.3597
23.4802
26.6256
29.6666
32.4843
34.9851
37.1217
38.8751
40.3064
1.77279
1.83198
2.01812
2.37473
2.84272
3.43735
4.19384
5.15534
6.36301
7.84965
9.63672
11.7288
14.1161
16.765
19.6148
22.5723
25.523
28.344
30.9255
33.1868
35.0907
36.6318
37.8718
1.72425
1.80863
1.97457
2.29826
2.73406
3.29078
4.00091
4.90341
6.03797
7.43897
9.12996
11.1172
13.3883
15.9053
18.6016
21.3817
24.1314
26.7338
29.0877
31.1234
32.813
34.1621
35.2307
1.66236
1.75742
1.90565
2.19208
2.58775
3.09605
3.74536
4.57086
5.61005
6.89798
8.46058
10.3071
12.4257
14.7778
17.2951
19.8818
22.4258
24.8152
26.9562
28.7878
30.2894
31.4745
32.4015
1.58467
1.67309
1.80453
2.0503
2.39757
2.84683
3.42091
4.15101
5.07228
6.21961
7.62146
9.29091
11.2199
13.3728
15.6839
18.0603
20.3939
22.5784
24.5256
26.18
27.5252
28.5792
29.3978
1.48345
1.55178
1.66439
1.86673
2.15726
2.53629
3.02037
3.63618
4.41605
5.39462
6.60244
8.05775
9.75836
11.6756
13.7506
15.8987
18.0185
20.0103
21.7903
23.3052
24.5383
25.5052
26.2545
1.34153
1.38992
1.47913
1.63465
1.86031
2.15671
2.53433
3.01436
3.6261
4.40379
5.38093
6.58193
8.01341
9.65697
11.4649
13.3636
15.262
17.0698
18.7087
20.1264
21.3024
22.2455
22.9909
1.13837
1.18164
1.24268
1.34698
1.50003
1.70023
1.95197
2.27067
2.68285
3.22384
3.93246
4.84221
5.9716
7.3151
8.83764
10.4773
12.1547
13.7883
15.3055
16.6543
17.8098
18.7706
19.5593
1.77933
1.52692
2.14318
2.58323
3.1491
3.87292
4.73442
5.88028
7.29197
8.96026
10.9222
13.1068
15.5971
18.384
21.4782
24.7857
28.1705
31.4651
34.5184
37.2229
39.52
41.4158
42.9261
1.79188
1.54044
2.15075
2.58915
3.14994
3.87118
4.73141
5.87439
7.28514
8.96052
10.9381
13.1634
15.7129
18.5861
21.7879
25.2292
28.7764
32.2649
35.5419
38.4905
41.0404
43.1819
44.9171
1.80514
1.55367
2.15865
2.59746
3.15376
3.87192
4.73075
5.86907
7.27616
8.95427
10.9405
13.1967
15.7926
18.7354
22.0243
25.574
29.2529
32.9
36.3628
39.5177
42.2863
44.6437
46.5841
1.81896
1.56593
2.16442
2.60606
3.15903
3.87385
4.73176
5.86461
7.26639
8.94366
10.9323
13.2094
15.8384
18.8332
22.1884
25.8208
29.6006
33.3696
36.9767
40.2945
43.2394
45.7733
47.8872
1.83345
1.57784
2.16638
2.61259
3.16302
3.87421
4.73137
5.85828
7.25373
8.92766
10.914
13.2027
15.8524
18.8819
22.2823
25.9718
29.8218
33.676
37.3851
40.8194
43.8932
46.5576
48.8042
1.84819
1.5905
2.16366
2.61531
3.16435
3.87229
4.72968
5.85118
7.24051
8.90998
10.8906
13.1828
15.8405
18.8866
22.31
26.0302
29.9194
33.8227
37.592
41.0963
44.2498
46.9957
49.3289
1.86261
1.60553
2.15688
2.61351
3.1614
3.86613
4.72439
5.84125
7.22526
8.89059