/*--------------------------------*- C++ -*----------------------------------*\
  =========                 |
  \\      /  F ield         | OpenFOAM: The Open Source CFD Toolbox
   \\    /   O peration     | Website:  https://openfoam.org
    \\  /    A nd           | Version:  7
     \\/     M anipulation  |
\*---------------------------------------------------------------------------*/
FoamFile
{
    version     2.0;
    format      ascii;
    class       surfaceScalarField;
    location    "82";
    object      phi;
}
// * * * * * * * * * * * * * * * * * * * * * * * * * * * * * * * * * * * * * //

dimensions      [0 3 -1 0 0 0 0];

internalField   nonuniform List<scalar> 
25449
(
66.8378
54.0349
-30.2623
49.5963
40.2522
-23.0108
36.9759
30.1275
-17.5072
27.6702
22.6377
-13.332
20.768
17.0689
-10.1668
15.6245
12.9115
-7.76794
11.7771
9.79678
-5.9494
8.89081
7.45582
-4.56955
6.72076
5.69103
-3.52099
5.08668
4.35653
-2.72245
3.85504
3.34419
-2.11256
2.92642
2.5737
-1.64508
2.22644
1.98524
-1.28527
1.6992
1.53424
-1.007
1.30252
1.18739
-0.790712
1.00447
0.919754
-0.621707
0.780868
0.712575
-0.488977
0.613371
0.551764
-0.384267
0.488061
0.426712
-0.301403
0.394403
0.329403
-0.235743
0.324433
0.253725
-0.183756
0.272149
0.194978
-0.142692
0.149496
-0.110432
0.233084
51.4595
71.9703
38.3478
53.3639
28.6895
39.7859
21.5317
29.7955
16.2011
22.3995
12.2157
16.8969
9.22677
12.7857
6.97968
9.70292
5.28726
7.38346
4.01111
5.63268
3.04837
4.30693
2.3222
3.29986
1.77493
2.53251
1.36304
1.94613
1.05358
1.49686
0.8215
1.15183
0.647796
0.88628
0.518022
0.681539
0.421224
0.52351
0.349107
0.401519
0.295413
0.30742
0.255423
0.234967
0.179276
0.225643
38.6889
85.0443
29.0134
63.0392
21.8171
46.9822
16.443
35.1695
12.4167
26.4258
9.39192
19.9216
7.11464
15.063
5.39718
11.4204
4.10037
8.68027
3.12058
6.61247
2.38038
5.04713
1.82166
3.85857
1.4006
2.95357
1.08395
2.26278
0.846369
1.73443
0.668541
1.32966
0.535731
1.01909
0.436743
0.780525
0.363091
0.597161
0.308358
0.456252
0.267706
0.34807
0.237501
0.265172
0.201723
0.215053
28.7279
94.2741
21.756
70.011
16.4873
52.2508
12.5047
39.1521
9.49254
29.438
7.2128
22.2014
5.48632
16.7895
4.17806
12.7286
3.18643
9.6719
2.43494
7.36396
1.86596
5.61611
1.43591
4.28863
1.11168
3.2778
0.867963
2.50649
0.685329
1.91707
0.548843
1.46614
0.447083
1.12085
0.371363
0.856244
0.315113
0.653411
0.27337
0.497993
0.242407
0.379033
0.219426
0.288151
0.21879
0.202358
21.2315
100.548
16.3219
74.9205
12.5127
56.0599
9.57707
42.0877
7.32414
31.691
5.59984
23.9257
4.28263
18.1067
3.27756
13.7337
2.51151
10.438
1.92839
7.94708
1.4854
6.05911
1.1498
4.62422
0.896495
3.53111
0.706071
2.69692
0.563464
2.05968
0.45699
1.57261
0.377669
1.20017
0.318674
0.915236
0.274853
0.69723
0.242331
0.530515
0.218197
0.403165
0.200279
0.306068
0.232109
0.186958
15.717
104.584
12.3522
78.2852
9.62526
58.7869
7.45963
44.2534
5.76111
33.3895
4.44007
25.2467
3.41862
19.1281
2.63178
14.5206
2.02752
11.0422
1.56474
8.40986
1.21149
6.41236
0.942943
4.89278
0.739795
3.73426
0.58692
2.84979
0.472406
2.17419
0.386896
1.65813
0.323155
1.26391
0.275685
0.962706
0.240355
0.73256
0.21407
0.556798
0.194515
0.422721
0.179961
0.32062
0.242958
0.169112
11.7282
106.94
9.50706
80.5063
7.57099
60.7229
5.96195
45.8624
4.66038
34.691
3.62585
26.2813
2.81327
19.9407
2.1797
15.1541
1.68856
11.5334
1.30952
8.7889
1.0184
6.70347
0.796005
5.11517
0.627172
3.90309
0.499828
2.97713
0.404296
2.26972
0.332858
1.72956
0.27949
1.31727
0.23961
1.00258
0.209801
0.762367
0.187515
0.579083
0.17085
0.439383
0.15839
0.33308
0.252291
0.149055
8.87922
108.039
7.49884
81.8866
6.13515
62.0866
4.92324
47.0743
3.90134
35.7129
3.06655
27.1161
2.39831
20.609
1.8698
15.6826
1.45566
11.9475
1.13323
9.11133
0.883853
6.95286
0.692231
5.3068
0.546118
4.04921
0.435548
3.08771
0.352388
2.35289
0.290025
1.79193
0.243247
1.36405
0.20809
1.03774
0.181628
0.788828
0.161694
0.599017
0.146686
0.454391
0.135381
0.344384
0.260805
0.126868
6.38241
110.204
4.79412
83.4748
3.61573
63.265
2.74029
47.9497
2.08561
36.3676
1.5938
27.6079
1.22281
20.9799
0.941439
15.964
0.727419
12.1615
0.564211
9.27453
0.439834
7.07723
0.345316
5.40132
0.273941
4.12059
0.220451
3.1412
0.180633
2.3927
0.151063
1.82149
0.129046
1.38606
0.112556
1.05423
0.100134
0.801247
0.0907371
0.608411
0.0836154
0.461512
0.0782339
0.349766
0.264891
0.0741468
4.38913
111.704
3.29673
84.5672
2.48861
64.0731
1.89061
48.5477
1.44426
36.814
1.10929
27.9429
0.85655
21.2327
0.664423
16.1561
0.517829
12.3081
0.405557
9.38681
0.319635
7.16316
0.254096
5.46686
0.204517
4.17018
0.167381
3.17834
0.139806
2.42029
0.119368
1.84194
0.104123
1.40131
0.0926137
1.06574
0.0838252
0.810036
0.0770585
0.615177
0.071829
0.466741
0.0678015
0.353792
0.268003
0.0646889
2.90785
112.704
2.18511
85.2899
1.65239
64.6058
1.26016
48.94
0.968074
37.106
0.749099
28.1618
0.583708
21.3981
0.457458
16.2824
0.360592
12.405
0.285855
9.46154
0.228232
7.22078
0.183972
5.51112
0.150347
4.2038
0.125137
3.20355
0.10645
2.43897
0.0926081
1.85578
0.0822212
1.41169
0.0742521
1.0737
0.0680121
0.816273
0.0630606
0.620127
0.0591103
0.47069
0.0559835
0.356919
0.270484
0.0535011
1.81905
113.334
1.36903
85.7398
1.03883
64.936
0.797365
49.1814
0.618089
37.2853
0.483822
28.2961
0.38211
21.4998
0.303851
16.3607
0.243162
12.4657
0.195696
9.50901
0.158575
7.25791
0.129672
5.54003
0.107499
4.22598
0.0907945
3.22026
0.0784083
2.45136
0.0692113
1.86498
0.0622169
1.41869
0.0566877
1.07923
0.0521695
0.820791
0.0484102
0.623885
0.0452707
0.473828
0.0426877
0.359501
0.272605
0.0405657
1.02918
113.693
0.777746
85.9912
0.594304
65.1194
0.461599
49.3141
0.363498
37.3834
0.290053
28.3695
0.23397
21.5559
0.190067
16.4046
0.155224
12.5005
0.127203
9.53703
0.104644
7.28046
0.0865853
5.55808
0.0724363
4.24013
0.0616423
3.23105
0.0536021
2.4594
0.0475913
1.87099
0.0429082
1.42337
0.0390208
1.08312
0.0356344
0.824175
0.0326288
0.626888
0.0299733
0.476483
0.027688
0.361785
0.274551
0.0257403
0.466715
113.856
0.357414
86.1005
0.278267
65.1986
0.222384
49.37
0.181416
37.4244
0.150643
28.4003
0.126481
21.58
0.106568
16.4245
0.0897188
12.5174
0.0751853
9.55156
0.0626564
7.293
0.0519963
5.56875
0.0432484
4.24888
0.0363763
3.23792
0.031188
2.46459
0.0272539
1.87493
0.024067
1.42657
0.0212249
1.08596
0.0185315
0.826868
0.0159531
0.629466
0.0135354
0.478899
0.0113618
0.363958
0.276467
0.00944502
0.0724997
113.878
0.0634463
86.1096
0.0571021
65.2049
0.0544019
49.3727
0.0527751
37.426
0.0512524
28.4018
0.0488924
21.5824
0.0453277
16.428
0.0406872
12.522
0.0352561
9.55699
0.0294229
7.29882
0.0236192
5.57454
0.0183299
4.25417
0.0139005
3.24235
0.0104505
2.46804
0.0077716
1.87761
0.00548587
1.42885
0.00326406
1.08818
0.00095508
0.829174
-0.00141861
0.631838
-0.00376627
0.481246
-0.00594875
0.366138
0.278441
-0.00792445
-0.193963
113.804
-0.134642
86.0502
-0.0921329
65.1624
-0.0595796
49.3402
-0.0353619
37.4018
-0.0178116
28.3843
-0.00604182
21.5706
0.000935594
16.4211
0.00410449
12.5189
0.00443516
9.55666
0.002755
7.30051
-0.000129802
5.57743
-0.00343605
4.25748
-0.00653659
3.24545
-0.00907348
2.47058
-0.0110886
1.87963
-0.0128801
1.43065
-0.0147497
1.09005
-0.0168464
0.831271
-0.0191255
0.634116
-0.0214754
0.483595
-0.0237217
0.368384
0.280514
-0.0257959
-0.367603
113.663
-0.263104
85.9457
-0.189114
65.0884
-0.134291
49.2853
-0.0939986
37.3615
-0.064732
28.355
-0.0443671
21.5502
-0.0310329
16.4077
-0.0232206
12.5111
-0.0195333
9.55296
-0.0188921
7.29986
-0.0202586
5.57879
-0.0226587
4.25987
-0.0252538
3.24804
-0.0274901
2.47281
-0.029272
1.88141
-0.0308485
1.43222
-0.0325303
1.09173
-0.0344995
0.833238
-0.0367252
0.63634
-0.0390891
0.485957
-0.041414
0.370708
0.28268
-0.0435817
-0.472152
113.479
-0.339759
85.8133
-0.247191
64.9958
-0.179726
49.2179
-0.130603
37.3124
-0.0950653
28.3195
-0.0701951
21.5254
-0.053596
16.3911
-0.0434744
12.5009
-0.038202
9.54769
-0.0365876
7.29825
-0.03747
5.57968
-0.0397624
4.26217
-0.0424639
3.25075
-0.04485
2.47521
-0.0467007
1.88327
-0.0482305
1.43375
-0.0497877
1.09329
-0.0516171
0.835067
-0.053738
0.63846
-0.0560443
0.488264
-0.0583801
0.373043
0.284875
-0.0605755
-0.527084
113.268
-0.379217
85.6654
-0.277303
64.8939
-0.20408
49.1446
-0.151293
37.2596
-0.113362
28.2815
-0.0868958
21.4989
-0.0692327
16.3735
-0.0584623
12.4902
-0.0528676
9.54209
-0.0512432
7.29662
-0.052385
5.58081
-0.0551507
4.26493
-0.0584098
3.254
-0.0612758
2.47807
-0.0634004
1.88539
-0.0649647
1.43532
-0.0663736
1.0947
-0.0679604
0.836651
-0.0698279
0.640327
-0.0719148
0.49035
-0.0741016
0.37523
0.286958
-0.0761857
-0.546612
113.043
-0.392156
85.5109
-0.28747
64.7892
-0.213386
49.0706
-0.160605
37.2068
-0.123025
28.2439
-0.097018
21.4729
-0.0798434
16.3563
-0.069594
12.4799
-0.0645672
9.53706
-0.063614
7.29566
-0.0655485
5.58275
-0.0692156
4.26859
-0.0733762
3.25816
-0.0769772
2.48167
-0.0795224
1.88794
-0.0811452
1.43694
-0.0823147
1.09587
-0.0834763
0.837813
-0.0848511
0.6417
-0.0864561
0.491955
-0.0882231
0.376996
0.288687
-0.0899521
-0.543795
112.811
-0.388395
85.3556
-0.285089
64.6859
-0.213222
48.9987
-0.162736
37.1563
-0.127216
28.2084
-0.102949
21.4486
-0.0872337
16.3406
-0.0782383
12.4709
-0.0743385
9.53315
-0.0744845
7.2958
-0.0775505
5.5858
-0.0823995
4.27344
-0.0876969
3.26345
-0.0922094
2.48618
-0.0952601
1.89098
-0.0969063
1.43859
-0.0976776
1.09664
-0.0981476
0.838281
-0.0986798
0.642232
-0.0994057
0.49268
-0.100329
0.37792
0.289672
-0.101316
-0.522949
112.579
-0.371171
85.2038
-0.272606
64.5873
-0.205466
48.9315
-0.159139
37.11
-0.127056
28.1763
-0.105541
21.4271
-0.0920359
16.3271
-0.084851
12.4637
-0.0824986
9.5308
-0.0840679
7.29737
-0.0885323
5.59027
-0.0948031
4.27971
-0.101464
3.27011
-0.107082
2.49179
-0.110753
1.89465
-0.112408
1.44024
-0.112616
1.09684
-0.112083
0.837746
-0.111351
0.6415
-0.110721
0.49205
-0.110307
0.377505
0.289426
-0.110062
-0.489156
112.351
-0.34426
85.0589
-0.25281
64.4959
-0.192145
48.8709
-0.151285
37.0691
-0.123652
28.1487
-0.10568
21.4091
-0.095006
16.3164
-0.0901022
12.4588
-0.089646
9.53034
-0.0928946
7.30061
-0.0989559
5.59632
-0.106826
4.28757
-0.115028
3.2783
-0.121923
2.49868
-0.126331
1.89906
-0.128
1.44191
-0.127502
1.09634
-0.125697
0.83594
-0.123347
0.639148
-0.120936
0.489639
-0.118685
0.375253
0.287381
-0.116641
-0.628667
112.161
-0.488454
84.9186
-0.38545
64.3929
-0.308543
48.794
-0.251011
37.0116
-0.208053
28.1057
-0.17637
21.3775
-0.153641
16.2936
-0.138214
12.4434
-0.128887
9.52101
-0.124903
7.29663
-0.125544
5.59696
-0.129916
4.29194
-0.136506
3.28489
-0.143266
2.50544
-0.148217
1.90401
-0.150254
1.44395
-0.149399
1.09549
-0.146393
0.832932
-0.142141
0.634897
-0.137383
0.48488
-0.13265
0.370519
0.282991
-0.128263
-0.611434
111.982
-0.478734
84.786
-0.3811
64.2952
-0.308088
48.721
-0.253385
36.9569
-0.212481
28.0648
-0.182282
21.3473
-0.160627
16.272
-0.145972
12.4287
-0.13721
9.51224
-0.133666
7.29308
-0.134715
5.598
-0.13957
4.29678
-0.146761
3.29208
-0.15416
2.51283
-0.159541
1.90938
-0.161498
1.4459
-0.159839
1.09382
-0.155266
0.828357
-0.148921
0.62855
-0.142007
0.477966
-0.135377
0.363887
0.276928
-0.129314
-0.594518
111.812
-0.468877
84.6603
-0.376276
64.2026
-0.306909
48.6516
-0.25485
36.9048
-0.215863
28.0258
-0.187047
21.3184
-0.166389
16.2513
-0.152443
12.4148
-0.144193
9.50399
-0.141036
7.28992
-0.142447
5.59941
-0.147748
4.30208
-0.155551
3.29988
-0.163698
2.52098
-0.169756
1.91544
-0.17198
1.44812
-0.169834
1.09168
-0.164036
0.822555
-0.156253
0.620768
-0.148095
0.469807
-0.140268
0.356059
0.269552
-0.132895
-0.577966
111.652
-0.45899
84.5413
-0.371131
64.1148
-0.305198
48.5857
-0.255622
36.8552
-0.218432
27.9887
-0.190907
21.2909
-0.171173
16.2316
-0.157877
12.4015
-0.150084
9.49619
-0.147261
7.28709
-0.148982
5.60112
-0.154697
4.30779
-0.163133
3.3083
-0.172166
2.53001
-0.179183
1.92245
-0.182041
1.45098
-0.179884
1.08951
-0.173666
0.816336
-0.16539
0.61249
-0.156361
0.460778
-0.14723
0.346925
0.26098
-0.13866
-0.561808
111.501
-0.449143
84.4287
-0.365771
64.0314
-0.303083
48.523
-0.255852
36.808
-0.220354
27.9532
-0.194038
21.2646
-0.175163
16.2127
-0.162461
12.3888
-0.155075
9.4888
-0.152534
7.28455
-0.154513
5.6031
-0.160604
4.31388
-0.169692
3.31739
-0.179746
2.54005
-0.188022
1.93072
-0.192058
1.45501
-0.190857
1.08831
-0.185359
0.810834
-0.177149
0.604281
-0.167514
0.451142
-0.158052
0.337462
0.252683
-0.149759
-0.546061
111.359
-0.439389
84.322
-0.360274
63.9523
-0.300663
48.4633
-0.255651
36.763
-0.22175
27.9193
-0.196572
21.2394
-0.178498
16.1946
-0.16634
12.3766
-0.159313
9.48177
-0.157006
7.28223
-0.15919
5.60528
-0.165614
4.32029
-0.175361
3.32713
-0.186565
2.55125
-0.196495
1.94065
-0.202557
1.46107
-0.203422
1.08917
-0.19929
0.806698
-0.191615
0.596606
-0.182925
0.442451
-0.174985
0.329519
0.245384
-0.167689
-0.530733
111.225
-0.429763
84.221
-0.354698
63.8772
-0.29801
48.4067
-0.255103
36.7201
-0.222714
27.8869
-0.198609
21.2153
-0.181281
16.1773
-0.169623
12.365
-0.162911
9.47505
-0.16079
7.28011
-0.163125
5.60761
-0.169831
4.32699
-0.180231
3.33752
-0.192729
2.56374
-0.204795
1.95271
-0.213635
1.46991
-0.216973
1.0925
-0.214332
0.804052
-0.208149
0.590423
-0.201188
0.43549
-0.193541
0.32187
0.236736
-0.184897
-0.515828
111.098
-0.420293
84.1255
-0.349085
63.806
-0.29518
48.3528
-0.254275
36.6792
-0.223321
27.8559
-0.200228
21.1922
-0.183599
16.1607
-0.172399
12.3538
-0.165962
9.46861
-0.16398
7.27812
-0.166409
5.61003
-0.173336
4.33391
-0.184369
3.34855
-0.198296
2.57767
-0.212828
1.96724
-0.224601
1.48168
-0.230411
1.0983
-0.230385
0.804023
-0.227114
0.587153
-0.220541
0.428917
-0.210328
0.311656
0.225282
-0.198879
-0.501344
110.979
-0.410998
84.0351
-0.34347
63.7385
-0.292218
48.3015
-0.253219
36.6402
-0.223628
27.8263
-0.201494
21.1701
-0.18552
16.1447
-0.17474
12.343
-0.168539
9.46241
-0.166651
7.27623
-0.169114
5.61249
-0.17619
4.34098
-0.187815
3.36016
-0.20321
2.59305
-0.220175
1.9842
-0.234792
1.49629
-0.244437
1.10794
-0.250497
0.810078
-0.252394
0.589051
-0.246815
0.423337
-0.236397
0.301237
0.214955
-0.226075
-0.487279
110.866
-0.401892
83.9497
-0.33788
63.6745
-0.28916
48.2528
-0.251979
36.603
-0.223686
27.798
-0.20246
21.1489
-0.187099
16.1293
-0.176704
12.3326
-0.170703
9.4564
-0.168865
7.27438
-0.171298
5.61491
-0.178441
4.34812
-0.190573
3.37229
-0.207308
2.60978
-0.226471
2.00336
-0.244627
1.51444
-0.261583
1.12489
-0.277902
0.826394
-0.287169
0.59832
-0.286373
0.42254
-0.281665
0.296527
0.210086
-0.2768
-0.473629
110.761
-0.392986
83.8691
-0.332336
63.6138
-0.286036
48.2065
-0.250593
36.5676
-0.223535
27.771
-0.203172
21.1285
-0.188387
16.1146
-0.178345
12.3226
-0.172509
9.45056
-0.170676
7.27255
-0.173015
5.61725
-0.180125
4.35522
-0.19262
3.38478
-0.210427
2.62758
-0.231716
2.02464
-0.255143
1.53786
-0.282782
1.15252
-0.309932
0.85354
-0.324823
0.613211
-0.328449
0.426165
-0.328372
0.296449
0.207666
-0.325957
-0.460386
110.662
-0.384288
83.793
-0.326858
63.5564
-0.282873
48.1625
-0.249091
36.5338
-0.223213
27.7451
-0.203669
21.1089
-0.189426
16.1003
-0.179706
12.3129
-0.174003
9.44485
-0.172134
7.27067
-0.174309
5.61942
-0.181273
4.36218
-0.19392
3.39742
-0.212479
2.64614
-0.236127
2.04829
-0.266548
1.56828
-0.305141
1.19111
-0.338465
0.88686
-0.352899
0.627647
-0.355162
0.428427
-0.35299
0.294277
0.201755
-0.347083
-0.447546
110.569
-0.375806
83.7212
-0.321459
63.502
-0.279693
48.1207
-0.247501
36.5016
-0.222751
27.7203
-0.203987
21.0902
-0.190254
16.0866
-0.180827
12.3034
-0.175227
9.43925
-0.173279
7.26872
-0.175221
5.62135
-0.181905
4.36886
-0.194446
3.40996
-0.213452
2.66513
-0.239761
2.07459
-0.277575
1.60609
-0.323785
1.23732
-0.356418
0.91949
-0.364573
0.635801
-0.360788
0.424642
-0.352954
0.286443
0.190968
-0.342172
-0.435101
110.482
-0.367544
83.6537
-0.316155
63.4506
-0.276516
48.0811
-0.245848
36.4709
-0.222178
27.6967
-0.204156
21.0722
-0.190904
16.0733
-0.181744
12.2943
-0.17622
9.43372
-0.174151
7.26665
-0.175788
5.62299
-0.182045
4.37512
-0.194193
3.4221
-0.213352
2.68429
-0.2423
2.10354
-0.286074
1.64986
-0.334737
1.28598
-0.361244
0.945993
-0.360647
0.635206
-0.350065
0.414059
-0.337435
0.273812
0.177525
-0.323997
-0.423045
110.401
-0.359506
83.5901
-0.310958
63.4021
-0.27336
48.0435
-0.244156
36.4417
-0.221519
27.674
-0.204206
21.0548
-0.191407
16.0605
-0.18249
12.2853
-0.177015
9.42824
-0.174788
7.26441
-0.176046
5.62424
-0.181718
4.38078
-0.193173
3.43355
-0.212146
2.70326
-0.243115
2.1345
-0.290001
1.69674
-0.33619
1.33216
-0.354086
0.963887
-0.345409
0.626527
-0.329567
0.398217
-0.31423
0.258475
0.163709
-0.300418
-0.411371
110.325
-0.351695
83.5305
-0.305877
63.3563
-0.270243
48.0078
-0.242444
36.4139
-0.2208
27.6524
-0.204163
21.0382
-0.191793
16.0481
-0.183097
12.2767
-0.177646
9.42279
-0.175223
7.26199
-0.17603
5.62504
-0.180954
4.3857
-0.191416
3.44401
-0.209752
2.72159
-0.241494
2.16624
-0.288039
1.74329
-0.328169
1.37229
-0.337369
0.973084
-0.322401
0.611563
-0.30254
0.378354
-0.285393
0.241329
0.150538
-0.272226
-0.400072
110.254
-0.344115
83.4745
-0.300923
63.3131
-0.267178
47.9741
-0.240731
36.3875
-0.22004
27.6317
-0.204052
21.0222
-0.192087
16.0362
-0.18359
12.2682
-0.178142
9.41734
-0.175488
7.25933
-0.175775
5.62532
-0.17979
4.38971
-0.188955
3.45317
-0.206062
2.73869
-0.236864
2.19704
-0.279699
1.78612
-0.311666
1.40425
-0.3134
0.974817
-0.294231
0.592391
-0.271583
0.355706
-0.253171
0.222916
0.138445
-0.241082
-0.389142
110.189
-0.336767
83.4221
-0.296105
63.2724
-0.26418
47.9422
-0.239036
36.3623
-0.219262
27.6119
-0.203894
21.0069
-0.192313
16.0246
-0.183997
12.2598
-0.178532
9.41187
-0.175616
7.25641
-0.175316
5.62502
-0.17827
4.39266
-0.185836
3.46073
-0.200991
2.75385
-0.228915
2.22497
-0.26518
1.82239
-0.288106
1.42718
-0.284358
0.971066
-0.263515
0.571552
-0.23964
0.33183
-0.219972
0.203249
0.127755
-0.209285
-0.378573
110.129
-0.329653
83.3732
-0.291432
63.2342
-0.261262
47.912
-0.237374
36.3384
-0.218484
27.593
-0.203711
20.9921
-0.192496
16.0134
-0.184343
12.2517
-0.178842
9.40636
-0.175636
7.2532
-0.17469
5.62407
-0.176442
4.39441
-0.18211
3.46639
-0.194519
2.76625
-0.217647
2.24809
-0.245142
1.84988
-0.258911
1.44094
-0.251736
0.963891
-0.231628
0.551441
-0.207615
0.307817
-0.185504
0.18114
0.117007
-0.174757
-0.368359
110.073
-0.322776
83.3276
-0.28691
63.1983
-0.258437
47.8835
-0.235762
36.3157
-0.217725
27.575
-0.203525
20.9779
-0.192656
16.0025
-0.184651
12.2437
-0.179099
9.40081
-0.175579
7.24967
-0.173936
5.62243
-0.174362
4.39484
-0.177847
3.46988
-0.186719
2.77513
-0.20335
2.26472
-0.220509
1.86704
-0.225272
1.44571
-0.216166
0.954784
-0.198739
0.534018
-0.175873
0.284949
-0.150957
0.156226
0.101289
-0.135239
-0.358493
110.022
-0.316135
83.2853
-0.282548
63.1647
-0.255715
47.8567
-0.234214
36.2942
-0.217002
27.5578
-0.203353
20.9642
-0.192815
15.992
-0.184945
12.2358
-0.179328
9.39519
-0.175473
7.24581
-0.173092
5.62004
-0.172088
4.39383
-0.173131
3.47092
-0.177757
2.77974
-0.186567
2.27353
-0.192442
1.87291
-0.188345
1.44161
-0.177856
0.944297
-0.163963
0.520123
-0.143956
0.264944
-0.118846
0.131117
0.0769618
-0.0945163
-0.348969
109.975
-0.309733
83.246
-0.278353
63.1334
-0.253109
47.8314
-0.232746
36.2739
-0.216332
27.5414
-0.203215
20.9511
-0.192994
15.9817
-0.185247
12.2281
-0.179553
9.38949
-0.175349
7.24161
-0.172199
5.61689
-0.169687
4.39132
-0.168074
3.46931
-0.167897
2.77957
-0.168016
2.27365
-0.162268
1.86717
-0.149626
1.42897
-0.137994
0.932665
-0.128565
0.510697
-0.1148
0.251179
-0.0942544
0.110574
0.0499969
-0.0672844
-0.339781
109.933
-0.303572
83.2098
-0.274331
63.1041
-0.250628
47.8077
-0.231369
36.2546
-0.21573
27.5257
-0.203129
20.9385
-0.193212
15.9718
-0.185577
12.2204
-0.179799
9.38371
-0.175234
7.23704
-0.171297
5.61294
-0.167227
4.38724
-0.162807
3.46488
-0.157464
2.77422
-0.148473
2.26466
-0.131143
1.84983
-0.110175
1.408
-0.0969162
0.919408
-0.0928278
0.506607
-0.0887542
0.247108
-0.0783425
0.100168
0.0349399
-0.0632776
-0.330922
109.894
-0.297651
83.1765
-0.270489
63.0769
-0.248285
47.7855
-0.2301
36.2364
-0.215214
27.5108
-0.203113
20.9264
-0.193488
15.9622
-0.185957
12.2129
-0.180087
9.37784
-0.175155
7.2321
-0.170423
5.60821
-0.164776
4.38159
-0.157482
3.45759
-0.146853
2.7636
-0.128776
2.24658
-0.100162
1.82122
-0.0703804
1.37822
-0.0524592
0.901488
-0.0500713
0.504222
-0.0559886
0.253027
-0.0644269
0.108612
0.0369703
-0.0664454
-0.322386
109.86
-0.291972
83.1461
-0.266831
63.0518
-0.246085
47.7648
-0.228946
36.2193
-0.214794
27.4967
-0.20318
20.9148
-0.193838
15.9529
-0.186406
12.2055
-0.180443
9.37187
-0.175142
7.2268
-0.169623
5.60269
-0.162412
4.37438
-0.152255
3.44743
-0.136386
2.74772
-0.109438
2.21963
-0.0699428
1.78172
-0.0308926
1.33917
-0.00623999
0.876837
0.000190343
0.497789
-0.00295356
0.256172
-0.0101028
0.115764
0.0402078
-0.0133343
-0.303423
109.816
-0.269187
83.1119
-0.243397
63.026
-0.223498
47.7449
-0.2078
36.2036
-0.195217
27.4841
-0.185051
20.9046
-0.176914
15.9447
-0.170396
12.1989
-0.165046
9.36652
-0.160049
7.2218
-0.154459
5.5971
-0.146649
4.36657
-0.134984
3.43577
-0.11616
2.72891
-0.0845565
2.18803
-0.0399931
1.73716
0.00370958
1.29547
0.0323743
0.848174
0.0429767
0.487191
0.0447659
0.254381
0.0425086
0.118018
0.0446242
0.0380999
-0.241361
109.781
-0.214393
83.0849
-0.194075
63.0057
-0.178403
47.7292
-0.166021
36.1912
-0.156069
27.4741
-0.147989
20.8965
-0.14147
15.9382
-0.136178
12.1937
-0.131738
9.36208
-0.127461
7.21752
-0.12249
5.59212
-0.115384
4.35946
-0.104507
3.42489
-0.0869957
2.71139
-0.0585457
2.15958
-0.019352
1.69796
0.0199046
1.25621
0.046819
0.821259
0.0585443
0.47546
0.0620188
0.250908
0.0612735
0.11876
0.0479187
0.0579726
-0.191968
109.753
-0.170708
83.0637
-0.154691
62.9897
-0.14234
47.7169
-0.132571
36.1814
-0.1247
27.4663
-0.11828
20.8901
-0.113064
15.933
-0.10878
12.1894
-0.105123
9.35842
-0.101522
7.21392
-0.0972315
5.58783
-0.0910306
4.35326
-0.0814281
3.41529
-0.0661038
2.69607
-0.0419078
2.13539
-0.00908631
1.66514
0.0243312
1.2228
0.0477501
0.797843
0.0586332
0.464583
0.0621791
0.247356
0.0619493
0.118989
0.0500071
0.0598579
-0.152643
109.731
-0.135853
83.0469
-0.123205
62.977
-0.113456
47.7071
-0.105738
36.1737
-0.0995075
27.46
-0.0944051
20.885
-0.0902332
15.9288
-0.0867727
12.1859
-0.0837751
9.35542
-0.0807756
7.21091
-0.0771428
5.58419
-0.0718683
4.34798
-0.0636574
3.40707
-0.050685
2.68309
-0.0306807
2.11538
-0.00393146
1.63839
0.0236358
1.19523
0.0432904
0.778187
0.0528378
0.455032
0.0561147
0.244084
0.0562013
0.118897
0.0511715
0.0550348
-0.121345
109.714
-0.108067
83.0336
-0.0980647
62.967
-0.0903596
47.6994
-0.0842554
36.1676
-0.0793189
27.4551
-0.0752624
20.881
-0.0719264
15.9255
-0.069135
12.1831
-0.0666872
9.35297
-0.0642078
7.20843
-0.0611702
5.58116
-0.0567558
4.34357
-0.0498764
3.4002
-0.0391059
2.67233
-0.022827
2.0991
-0.001369
1.61693
0.0209518
1.17291
0.0371594
0.761982
0.0453766
0.446821
0.0483603
0.241098
0.0486948
0.118567
0.0517626
0.0481026
-0.0964027
109.7
-0.0858549
83.023
-0.0779107
62.9591
-0.0717948
47.6933
-0.0669484
36.1628
-0.0630248
27.4512
-0.059792
20.8777
-0.0571206
15.9228
-0.0548686
12.1809
-0.0528739
9.35097
-0.0508359
7.20639
-0.0483214
5.57864
-0.0446752
4.33992
-0.039005
3.39452
-0.0302033
2.66352
-0.0171481
2.08604
-0.000183779
1.59996
0.0175948
1.15513
0.0307899
0.748785
0.037791
0.439818
0.0405222
0.238372
0.0410161
0.11807
0.0520627
0.0407174
-0.0767713
109.689
-0.0685332
83.0148
-0.0623304
62.9529
-0.0575572
47.6885
-0.05377
36.159
-0.0506955
27.4481
-0.0481498
20.8752
-0.0460312
15.9207
-0.0442275
12.1791
-0.0426095
9.34935
-0.0409356
7.20471
-0.0388481
5.57655
-0.0358176
4.33689
-0.0311097
3.38982
-0.0238467
2.65626
-0.0132334
2.07543
0.000396136
1.58633
0.0147346
1.1408
0.0255779
0.737945
0.0315643
0.433837
0.0340463
0.235888
0.0346058
0.117515
0.0522331
0.0344347
-0.0608029
109.681
-0.0541175
83.0081
-0.0490834
62.9478
-0.0452137
47.6847
-0.0421477
36.1559
-0.0396621
27.4456
-0.0376054
20.8731
-0.0358917
15.919
-0.0344284
12.1776
-0.0331109
9.34803
-0.031748
7.20334
-0.0300542
5.57485
-0.027618
4.33445
-0.0238608
3.38605
-0.0181244
2.65052
-0.00989102
2.0672
0.000532894
1.5759
0.0115387
1.12979
0.0200891
0.729392
0.0250381
0.428886
0.0272078
0.233723
0.0277891
0.116932
0.0523588
0.0276654
-0.0514879
109.669
-0.0421815
82.9988
-0.0349447
62.9406
-0.0292459
47.6789
-0.0246496
36.1513
-0.0208612
27.4418
-0.0176552
20.8699
-0.0148846
15.9162
-0.0124074
12.1751
-0.010075
9.3457
-0.00764818
7.20092
-0.00479227
5.572
-0.00103998
4.3307
0.00418197
3.38084
0.0114385
2.64327
0.0209097
2.05773
0.0314036
1.56541
0.0401698
1.12103
0.044338
0.725228
0.0441937
0.429036
0.0415785
0.236337
0.0380533
0.120462
0.0560255
0.0343863
-0.0540516
109.657
-0.0442838
82.989
-0.0366893
62.933
-0.0307112
47.673
-0.02589
36.1465
-0.0219137
27.4379
-0.0185435
20.8666
-0.0156229
15.9133
-0.013001
12.1725
-0.0105211
9.34321
-0.00793025
7.19832
-0.0048754
5.56894
-0.000868579
4.32669
0.00467848
3.37528
0.0123289
2.63562
0.0222509
2.0478
0.0332323
1.55442
0.0424061
1.11185
0.0467843
0.720848
0.0467569
0.429063
0.0442481
0.238851
0.0407874
0.123921
0.059641
0.0371737
-0.0567424
109.644
-0.0464904
82.9788
-0.0385203
62.925
-0.0322495
47.6667
-0.0271923
36.1415
-0.0230191
27.4337
-0.0194768
20.863
-0.0163984
15.9102
-0.0136242
12.1697
-0.0109884
9.34058
-0.00822425
7.19556
-0.00495963
5.56568
-0.000687602
4.32242
0.00519897
3.3694
0.013253
2.62757
0.0236297
2.03743
0.0350874
1.54297
0.0446411
1.1023
0.0492331
0.71626
0.0493353
0.428966
0.0469214
0.241264
0.0435288
0.127318
0.063213
0.0399569
-0.0595667
109.63
-0.0488064
82.968
-0.040442
62.9167
-0.0338643
47.6601
-0.0285597
36.1362
-0.0241801
27.4293
-0.0204572
20.8593
-0.017213
15.9069
-0.0142783
12.1668
-0.0114779
9.33777
-0.00853041
7.19261
-0.0050444
5.56219
-0.000495766
4.31786
0.00574543
3.36316
0.0142123
2.6191
0.0250437
2.0266
0.0369556
1.53105
0.0468501
1.09241
0.0516482
0.711461
0.0518768
0.428738
0.0495298
0.243616
0.0461741
0.130673
0.0667817
0.0426069
-0.0625308
109.615
-0.0512373
82.9567
-0.0424594
62.9079
-0.0355594
47.6532
-0.0299955
36.1306
-0.0253993
27.4247
-0.021487
20.8554
-0.0180686
15.9035
-0.0149646
12.1637
-0.0119903
9.3348
-0.00884888
7.18947
-0.00512909
5.55847
-0.000291608
4.31303
0.00631854
3.35655
0.0152064
2.61022
0.0264886
2.01532
0.038826
1.51872
0.0490192
1.08222
0.0540053
0.706479
0.0543481
0.428402
0.0520369
0.245927
0.0486842
0.134029
0.0703783
0.0450882
-0.0656422
109.6
-0.0537888
82.9449
-0.0445767
62.8987
-0.0373388
47.646
-0.0315029
36.1248
-0.0266798
27.4199
-0.0225687
20.8513
-0.0189671
15.8999
-0.0156847
12.1604
-0.0125264
9.33164
-0.00917977
7.18611
-0.00521313
5.5545
-7.33734e-05
4.30789
0.00691863
3.34955
0.0162351
2.60089
0.0279599
2.00359
0.0406903
1.50598
0.0511416
1.07177
0.0562876
0.701332
0.0567226
0.427968
0.0544293
0.248225
0.0510553
0.137403
0.0740202
0.0474148
-0.0689075
109.585
-0.0564669
82.9324
-0.0467992
62.889
-0.0392068
47.6384
-0.0330857
36.1186
-0.0280246
27.4148
-0.0237048
20.847
-0.0199106
15.8961
-0.0164401
12.1569
-0.0130872
9.32829
-0.00952308
7.18255
-0.00529586
5.55027
0.000160975
4.30243
0.00754598
3.34217
0.0172989
2.59115
0.0294547
1.99144
0.0425432
1.4929
0.053211
1.0611
0.0584793
0.696067
0.058975
0.427478
0.0566936
0.250506
0.0532863
0.140813
0.0777053
0.0496021
-0.072335
109.568
-0.0592779
82.9194
-0.0491318
62.8788
-0.0411676
47.6304
-0.0347474
36.1122
-0.0294367
27.4095
-0.024898
20.8424
-0.0209013
15.8921
-0.0172322
12.1533
-0.0136734
9.32472
-0.00987888
7.17875
-0.00537665
5.54577
0.000413568
4.29664
0.00820059
3.33438
0.0183979
2.58095
0.0309709
1.97887
0.0443793
1.47949
0.0552186
1.05026
0.0605617
0.690723
0.0610846
0.426957
0.0588133
0.252782
0.0553679
0.144259
0.0814169
0.0516576
-0.0759323
109.55
-0.0622283
82.9057
-0.0515802
62.8682
-0.0432259
47.6221
-0.036492
36.1055
-0.0309195
27.4039
-0.026151
20.8376
-0.0219413
15.8879
-0.0180626
12.1494
-0.0142858
9.32095
-0.0102472
7.17471
-0.00545491
5.54098
0.000686244
4.2905
0.00888258
3.32619
0.0195317
2.5703
0.0325064
1.9659
0.0461917
1.46581
0.0571546
1.03931
0.0625202
0.685361
0.063049
0.426435
0.0607785
0.255054
0.0572973
0.147743
0.0851258
0.0535896
-0.0797078
109.532
-0.0653249
82.8913
-0.05415
62.857
-0.0453864
47.6133
-0.0383236
36.0984
-0.0324765
27.3981
-0.0274667
20.8326
-0.0230329
15.8835
-0.018933
12.1453
-0.0149255
9.31694
-0.0106281
7.17041
-0.00553021
5.53587
0.000980272
4.28399
0.00959294
3.31758
0.0206989
2.55919
0.0340571
1.95253
0.0479711
1.45189
0.0590069
1.02827
0.0643488
0.680018
0.0648745
0.425911
0.0625945
0.257338
0.0590865
0.151252
0.0888236
0.05539
-0.0836704
109.513
-0.068575
82.8762
-0.0568473
62.8453
-0.0476542
47.6041
-0.0402463
36.091
-0.0341111
27.392
-0.028848
20.8274
-0.0241783
15.8788
-0.0198451
12.141
-0.0155936
9.31269
-0.0110221
7.16584
-0.0056023
5.53046
0.00129604
4.27709
0.0103332
3.30854
0.0218967
2.54764
0.0356163
1.93882
0.0497056
1.43781
0.0607601
1.01722
0.0660447
0.674736
0.0665664
0.425395
0.064275
0.259631
0.0607417
0.154788
0.0925311
0.0570355
-0.0878297
109.493
-0.0719864
82.8603
-0.0596781
62.833
-0.0500345
47.5945
-0.0422646
36.0832
-0.0358272
27.3855
-0.030298
20.8218
-0.0253802
15.8739
-0.0208008
12.1364
-0.0162912
9.30817
-0.0114296
7.16097
-0.00567112
5.52469
0.0016329
4.26978
0.0111044
3.29907
0.0231209
2.53562
0.0371748
1.92476
0.0513828
1.4236
0.0623972
1.00621
0.0675952
0.669538
0.0681064
0.424886
0.0658116
0.26193
0.0622514
0.15835
0.096262
0.0585217
-0.0921948
109.471
-0.075567
82.8437
-0.0626494
62.8201
-0.0525329
47.5843
-0.0443832
36.0751
-0.0376287
27.3788
-0.0318201
20.816
-0.0266413
15.8687
-0.0218022
12.1316
-0.0170197
9.30339
-0.0118515
7.15581
-0.00573709
5.51859
0.00198913
4.26206
0.0119059
3.28916
0.0243648
2.52316
0.0387202
1.91041
0.0529883
1.40933
0.0639023
0.995296
0.0689829
0.664459
0.0694581
0.424416
0.0671593
0.264231
0.0635813
0.16193
0.100006
0.0598383
-0.0967762
109.449
-0.0793248
82.8262
-0.0657677
62.8065
-0.0551551
47.5737
-0.046607
36.0665
-0.0395196
27.3717
-0.0334176
20.8099
-0.0279643
15.8633
-0.0228514
12.1264
-0.0177807
9.29832
-0.012289
7.15031
-0.00580102
5.51209
0.00236208
4.2539
0.0127348
3.27878
0.0256193
2.51028
0.0402365
1.89579
0.0545052
1.39506
0.0652601
0.984542
0.0701954
0.659524
0.0705906
0.424023
0.0682696
0.266555
0.0646843
0.165517
0.103756
0.0609355